FOO
141312
    1MOL0     O    1   8.812   8.276   3.210  1.0266  0.2770 -0.2766
    1MOL0     C    2   8.858   8.249   3.100 -0.4516 -1.1296  0.9336
    1MOL0     O    3   8.989   8.211   3.076 -1.3349  0.2568 -0.0893
    1MOL0     C    4   9.085   8.182   3.180  0.1566 -0.4769  0.9088
    1MOL0     C    5   9.219   8.215   3.164  0.0048  0.1669  0.4398
    1MOL0     C    6   9.319   8.176   3.253  0.3282 -1.1689 -0.3858
    1MOL0     C    7   9.286   8.083   3.353  0.0684  0.8534  0.2007
    1MOL0     O    8   9.389   8.038   3.436  1.2709  0.5621  0.0640
    1MOL0     C    9   9.431   7.905   3.404  0.0286 -0.6553  0.2126
    1MOL0     C   10   9.558   7.927   3.323  0.3540  1.2437 -0.4625
    1MOL0     C   11   9.677   7.965   3.414 -1.0365 -0.2295 -1.0998
    1MOL0     C   12   9.805   7.990   3.337 -0.3406 -0.2296 -0.6224
    1MOL0     C   13   9.924   7.999   3.439  0.9270 -0.1819 -0.1397
    1MOL0     C   14  10.065   7.978   3.388  0.0241 -0.7432 -0.4221
    1MOL0     C   15  10.177   8.050   3.465  1.0888 -0.1101 -1.0023
    1MOL0     C   16  10.314   8.042   3.405  0.3140  0.7300 -0.1743
    1MOL0     N   17  10.378   7.922   3.455  0.4597  0.6615 -0.0174
    1MOL0     C   18  10.342   7.790   3.412 -0.6348 -0.2261  0.1332
    1MOL0     C   19  10.444   7.713   3.458 -0.6430  0.4021 -1.0160
    1MOL0     C   20  10.468   7.566   3.447  0.0826 -0.3333  0.1520
    1MOL0     C   21  10.481   7.491   3.571 -0.1125  0.5848 -0.5841
    1MOL0     C   22  10.360   7.461   3.655 -0.3403  0.1278  0.1734
    1MOL0     C   23  10.251   7.363   3.607  0.2875  0.7508 -0.1018
    1MOL0     O   24  10.131   7.367   3.684 -0.4701  0.0354 -0.2036
    1MOL0     C   25  10.043   7.279   3.637 -0.3731  0.2876 -0.1093
    1MOL0     C   26  10.071   7.141   3.656  1.0178  0.0225  1.0507
    1MOL0     C   27   9.993   7.048   3.593  0.1170 -0.7361  0.2597
    1MOL0     C   28  10.059   6.906   3.590  0.1148  0.5390  0.8849
    1MOL0     C   29   9.876   7.092   3.519  0.9170  0.1669 -1.6262
    1MOL0     C   30   9.777   6.993   3.451  0.3462 -0.0053  0.7124
    1MOL0     O   31   9.651   7.038   3.413 -0.2843 -0.2117 -0.2418
    1MOL0     C   32   9.567   6.939   3.370 -0.2335  1.4203 -0.5230
    1MOL0     C   33   9.530   6.840   3.464  0.2555  0.2619 -0.2910
    1MOL0     C   34   9.445   6.732   3.435  0.5865 -0.1328 -0.6081
    1MOL0     C   35   9.376   6.740   3.312  0.4331  0.2857 -1.4828
    1MOL0     O   36   9.278   6.652   3.268  0.7341 -0.5498 -0.5102
    1MOL0     C   37   9.273   6.525   3.315  0.6131 -0.0413 -0.6998
    1MOL0     C   38   9.210   6.422   3.214 -0.2096 -0.5974 -0.2837
    1MOL0     C   39   9.283   6.290   3.267  0.1271  0.5667 -0.6379
    1MOL0     C   40   9.254   6.171   3.189 -0.1482  0.5712  0.5538
    1MOL0     C   41   9.300   6.180   3.038 -0.0174 -0.4094 -0.0828
    1MOL0     C   42   9.251   6.061   2.964  0.0983  0.2888 -0.2862
    1MOL0     C   43   9.102   6.030   2.955 -0.2375 -0.8468  0.4501
    1MOL0     C   44   9.063   5.910   2.864 -0.0005  0.4097  0.7738
    1MOL0    Cl   45   9.115   5.755   2.935  0.2835  0.3009 -0.1826
    1MOL0     C   46   9.411   6.841   3.221 -0.6213  0.7157 -0.3898
    1MOL0     C   47   9.519   6.935   3.238  0.2594  1.0375 -0.5470
    1MOL0     O   48   9.834   6.896   3.408  0.6120 -0.2241 -0.9564
    1MOL0     C   49   9.848   7.227   3.505  0.1624 -0.2215 -0.7492
    1MOL0     C   50   9.932   7.322   3.561  0.4988  0.1881  0.9060
    1MOL0     N   51  10.539   7.791   3.533 -0.1669 -0.3827  0.6598
    1MOL0     N   52  10.485   7.911   3.536 -0.1792  0.2554  0.2361
    1MOL0     C   53   9.152   8.046   3.373 -0.2258  0.4248 -0.0261
    1MOL0     C   54   9.050   8.100   3.284 -0.1039  0.2237 -0.1239
    1MOL0     C   55   8.773   8.280   2.985 -1.2307  0.6834 -1.2285
    1MOL0     C   56   8.844   8.323   2.874 -0.5816  0.7893  0.0757
    1MOL0     C   57   8.782   8.364   2.761  0.0783  0.1490  0.5215
    1MOL0     C   58   8.649   8.351   2.755 -0.2394 -0.5297  0.1376
    1MOL0     O   59   8.592   8.362   2.632 -0.1830  0.2359  0.7144
    1MOL0     C   60   8.455   8.406   2.603 -1.0885  0.3511  0.8245
    1MOL0     C   61   8.420   8.559   2.624 -0.8816  0.2427 -0.0295
    1MOL0     C   62   8.307   8.613   2.532  0.0496 -0.1747  0.2383
    1MOL0     C   63   8.177   8.621   2.597  0.3974  0.6406 -0.1491
    1MOL0     C   64   8.157   8.745   2.668 -0.2218 -0.3915  0.2382
    1MOL0     C   65   8.144   8.843   2.734 -0.9865 -0.9851 -0.0240
    1MOL0     C   66   8.573   8.301   2.860 -0.2756 -0.3475 -0.3382
    1MOL0     C   67   8.636   8.267   2.978 -0.2422  0.1687  0.3755
    1MOL0     C   68   8.550   8.211   3.092 -0.4442  0.2789  0.2895
    1MOL0     H   69   9.257   8.265   3.075  2.0768  0.1220  1.2421
    1MOL0     H   70   9.419   8.216   3.247 -0.3254  0.9796  1.6661
    1MOL0     H   71   9.366   7.845   3.339  3.4904 -1.2061 -3.1048
    1MOL0     H   72   9.450   7.856   3.501 -0.1704 -0.7973  0.1811
    1MOL0     H   73   9.581   7.831   3.276 -1.7076 -0.5572  1.9258
    1MOL0     H   74   9.543   8.002   3.244 -0.0033  1.1585 -0.4762
    1MOL0     H   75   9.651   8.051   3.477 -3.5939 -1.2094 -0.6682
    1MOL0     H   76   9.693   7.874   3.474  0.5502  1.3163  0.9853
    1MOL0     H   77   9.816   7.900   3.276  1.9025  0.0215 -0.6744
    1MOL0     H   78   9.785   8.084   3.284 -0.9852  2.5003  3.9254
    1MOL0     H   79   9.899   7.937   3.525 -1.1604  2.2592  1.1259
    1MOL0     H   80   9.931   8.103   3.472 -1.9609 -0.3900  1.4852
    1MOL0     H   81  10.088   7.871   3.398  2.3422 -0.1056  2.3736
    1MOL0     H   82  10.073   8.030   3.292  3.4967  4.6642  2.3349
    1MOL0     H   83  10.177   8.018   3.570  0.9611  1.3991 -0.5205
    1MOL0     H   84  10.150   8.156   3.471 -0.9214 -0.6048  3.6192
    1MOL0     H   85  10.307   8.037   3.296 -5.0541 -0.5516 -0.0452
    1MOL0     H   86  10.382   8.123   3.434  0.1546  1.6306 -2.1305
    1MOL0     H   87  10.265   7.789   3.336 -1.7118  0.9884  1.1643
    1MOL0     H   88  10.563   7.551   3.394  1.0775  3.1448  0.6748
    1MOL0     H   89  10.391   7.521   3.384 -3.2697 -0.8196  4.1654
    1MOL0     H   90  10.542   7.400   3.562 -0.9116 -0.2249  1.5587
    1MOL0     H   91  10.532   7.559   3.640 -0.3680  0.5713 -0.3787
    1MOL0     H   92  10.397   7.427   3.752 -1.6111  0.6368  0.8651
    1MOL0     H   93  10.312   7.556   3.680 -0.2701  0.5495 -1.2104
    1MOL0     H   94  10.214   7.373   3.504 -1.1501 -0.1884  0.2784
    1MOL0     H   95  10.294   7.262   3.605 -0.1651  0.4537 -4.2456
    1MOL0     H   96  10.165   7.117   3.705  1.6182 -0.7119 -0.4170
    1MOL0     H   97   9.995   6.827   3.629  0.2656 -0.3471 -0.5734
    1MOL0     H   98  10.149   6.888   3.650  0.5517 -2.9217 -0.5481
    1MOL0     H   99  10.085   6.882   3.486  0.9924  0.7830  1.0396
    1MOL0     H  100   9.564   6.848   3.567 -1.0059  1.3576  0.0697
    1MOL0     H  101   9.411   6.655   3.502 -0.3444 -0.7519 -1.7504
    1MOL0     H  102   9.378   6.500   3.333  0.0283 -1.6063  0.6974
    1MOL0     H  103   9.223   6.512   3.412 -1.5876 -2.4231 -2.0287
    1MOL0     H  104   9.101   6.424   3.220 -0.9051  5.8756 -4.4276
    1MOL0     H  105   9.232   6.456   3.112 -1.5985  0.9626 -0.1126
    1MOL0     H  106   9.250   6.269   3.369  3.1743  0.9802  0.5304
    1MOL0     H  107   9.391   6.303   3.262  0.0277  1.7530  0.1329
    1MOL0     H  108   9.148   6.147   3.203 -0.0264 -1.5823 -1.5048
    1MOL0     H  109   9.302   6.082   3.231  0.9310  1.0696  0.3993
    1MOL0     H  110   9.258   6.269   2.991  1.2637 -1.4637 -3.5391
    1MOL0     H  111   9.409   6.186   3.026  0.0336 -0.7227  0.1673
    1MOL0     H  112   9.283   5.975   3.024 -1.0476  2.2599  3.4031
    1MOL0     H  113   9.300   6.071   2.867  1.1263 -0.6530  0.1086
    1MOL0     H  114   9.050   6.106   2.896 -0.4423 -2.4992 -1.6381
    1MOL0     H  115   9.067   6.018   3.057  1.4842 -0.3671  1.1343
    1MOL0     H  116   9.112   5.925   2.768  0.8470 -3.0641  0.5288
    1MOL0     H  117   8.954   5.913   2.856  0.1557 -0.0633 -2.8885
    1MOL0     H  118   9.367   6.834   3.122  1.3485 -0.8572 -1.2313
    1MOL0     H  119   9.546   7.002   3.157 -2.3362  1.9158 -0.7856
    1MOL0     H  120   9.763   7.262   3.448  1.4678  0.5723 -2.2842
    1MOL0     H  121   9.935   7.429   3.545  2.4527  0.4945  2.8811
    1MOL0     H  122   9.119   8.001   3.466  2.5439  1.4590  1.5651
    1MOL0     H  123   8.949   8.064   3.297  0.7025 -2.3620 -0.4932
    1MOL0     H  124   8.952   8.332   2.870 -0.2668 -0.6017  2.8173
    1MOL0     H  125   8.838   8.409   2.680 -1.7895  3.6564  0.9719
    1MOL0     H  126   8.442   8.383   2.496  0.7301  0.7189  0.4790
    1MOL0     H  127   8.376   8.346   2.649 -1.4082 -2.6838 -3.0642
    1MOL0     H  128   8.508   8.621   2.610 -2.0216  3.0353  3.5529
    1MOL0     H  129   8.398   8.573   2.730 -2.8722 -0.4395 -0.3092
    1MOL0     H  130   8.333   8.712   2.495 -3.0048  1.2384  1.6006
    1MOL0     H  131   8.294   8.539   2.452 -1.9948 -2.6833  2.6954
    1MOL0     H  132   8.160   8.539   2.668  1.3126  2.0399  1.7494
    1MOL0     H  133   8.104   8.623   2.515 -0.5693  3.2546  0.7051
    1MOL0     H  134   8.119   8.936   2.781  1.1999  1.2416 -2.9110
    1MOL0     H  135   8.468   8.276   2.854  0.2563 -2.9653 -0.0003
    1MOL0     H  136   8.516   8.284   3.166 -0.8431  0.5027 -0.1103
    1MOL0     H  137   8.456   8.170   3.053  0.4692 -2.1219  0.4054
    1MOL0     H  138   8.606   8.130   3.140  1.2820  1.1444 -0.2107
    2MOL0     O  139   1.774  10.236   0.264  0.1293 -0.6975 -0.2573
    2MOL0     C  140   1.780  10.310   0.366 -0.6121 -0.5159  0.4347
    2MOL0     O  141   1.835  10.432   0.377  0.0267  0.1069 -0.5653
    2MOL0     C  142   1.888  10.484   0.264  0.9871  1.1847 -0.3601
    2MOL0     C  143   2.025  10.491   0.252 -0.0926 -0.2795 -0.7800
    2MOL0     C  144   2.088  10.554   0.147 -0.4390 -0.1584 -0.7666
    2MOL0     C  145   2.012  10.626   0.051 -0.1005  0.2528 -0.0809
    2MOL0     O  146   2.080  10.702  -0.042  0.4598  0.3808 -0.1358
    2MOL0     C  147   2.037  10.839  -0.048  0.2853  0.3248  0.3800
    2MOL0     C  148   2.127  10.923  -0.144  0.3822  0.0636  0.9145
    2MOL0     C  149   2.091  11.067  -0.117  0.5374 -1.2861 -0.7947
    2MOL0     C  150   2.157  11.161  -0.212 -0.0399  0.9228  0.8543
    2MOL0     C  151   2.135  11.306  -0.173 -0.3635 -0.7240 -0.5348
    2MOL0     C  152   1.992  11.354  -0.229 -0.2893  0.2198 -0.6562
    2MOL0     C  153   1.983  11.507  -0.220  0.6371 -1.0766  0.1879
    2MOL0     C  154   1.854  11.549  -0.292 -0.0446  0.9383 -1.0827
    2MOL0     N  155   1.823  11.690  -0.285 -0.2204  0.4057 -0.2696
    2MOL0     C  156   1.724  11.756  -0.359  0.7355 -0.7755  0.7437
    2MOL0     C  157   1.754  11.889  -0.360 -0.0449  0.1826  0.5404
    2MOL0     C  158   1.676  11.999  -0.424 -0.0545 -0.3579  0.8187
    2MOL0     C  159   1.608  12.097  -0.325  0.2859 -0.9769  0.5002
    2MOL0     C  160   1.503  12.020  -0.237  0.1153  0.2943 -0.2260
    2MOL0     C  161   1.381  11.943  -0.305 -0.2155 -0.3030 -0.3751
    2MOL0     O  162   1.280  11.890  -0.214  0.1752 -0.0158  1.1187
    2MOL0     C  163   1.300  11.768  -0.152 -0.1174 -0.8114  0.2246
    2MOL0     C  164   1.422  11.694  -0.139 -0.9799  0.5177 -0.1670
    2MOL0     C  165   1.429  11.582  -0.047 -0.3417 -0.4975  0.3903
    2MOL0     C  166   1.567  11.531  -0.023 -0.3684  0.5947 -0.0032
    2MOL0     C  167   1.306  11.528   0.013  0.1920 -0.5977 -0.4230
    2MOL0     C  168   1.295  11.418   0.107 -0.0887  0.2841 -0.2985
    2MOL0     O  169   1.183  11.402   0.189 -0.6415  0.2306 -0.3953
    2MOL0     C  170   1.160  11.281   0.246 -0.5088  0.5627 -0.5709
    2MOL0     C  171   1.171  11.152   0.184 -0.1120  0.4354 -0.2489
    2MOL0     C  172   1.152  11.033   0.253 -0.5932  0.7669 -0.1838
    2MOL0     C  173   1.109  11.044   0.384  0.0898 -0.3672  0.1786
    2MOL0     O  174   1.093  10.932   0.462  0.6080  0.3868  0.0231
    2MOL0     C  175   1.066  10.806   0.411  0.1758  0.3583  0.3804
    2MOL0     C  176   0.934  10.815   0.332  0.1709 -0.6250 -1.1461
    2MOL0     C  177   0.860  10.689   0.313  0.6044  0.3244  0.5309
    2MOL0     C  178   0.926  10.588   0.230  1.3074  0.7298  0.9461
    2MOL0     C  179   0.831  10.470   0.213 -0.8680  0.0985  0.2046
    2MOL0     C  180   0.893  10.356   0.129  0.4691  0.4603 -0.0783
    2MOL0     C  181   0.992  10.275   0.220  0.1791 -0.6282  0.4602
    2MOL0     C  182   1.069  10.165   0.141  0.0187  0.3661 -0.0867
    2MOL0    Cl  183   0.954  10.030   0.088 -0.0271 -0.3527 -0.3714
    2MOL0     C  184   1.090  11.174   0.437 -0.4401 -0.8363  0.1153
    2MOL0     C  185   1.119  11.289   0.371  0.3281  0.5324 -0.2536
    2MOL0     O  186   1.389  11.341   0.097 -0.8945  0.7523 -0.2331
    2MOL0     C  187   1.194  11.595  -0.018  0.2328  0.4395  0.5412
    2MOL0     C  188   1.193  11.712  -0.098  0.7519  0.5410  0.1191
    2MOL0     N  189   1.872  11.896  -0.287 -1.3350  0.0746 -0.1010
    2MOL0     N  190   1.907  11.783  -0.248 -1.2262 -0.4936 -0.8674
    2MOL0     C  191   1.876  10.618   0.066  0.0490  0.4158  0.1183
    2MOL0     C  192   1.810  10.542   0.166 -0.8687  0.4456  1.0570
    2MOL0     C  193   1.727  10.239   0.494 -0.9516 -0.3409  0.5835
    2MOL0     C  194   1.644  10.126   0.474 -0.4748  0.4572  0.8674
    2MOL0     C  195   1.589  10.057   0.581 -0.1182  0.2979  0.1080
    2MOL0     C  196   1.606  10.086   0.709  1.4608  0.2897  0.0157
    2MOL0     O  197   1.551  10.022   0.812 -0.3247 -0.0179  0.0138
    2MOL0     C  198   1.565  10.057   0.952  0.8009  0.1729  0.4168
    2MOL0     C  199   1.484  10.186   0.991 -0.2960 -0.3525  1.1408
    2MOL0     C  200   1.464  10.213   1.140 -0.0690  1.3007 -0.6474
    2MOL0     C  201   1.559  10.155   1.245  1.0234  0.7006 -0.0550
    2MOL0     C  202   1.693  10.186   1.214  0.1795 -0.8538  0.6292
    2MOL0     C  203   1.800  10.229   1.184 -0.3507 -0.1225 -1.3509
    2MOL0     C  204   1.683  10.207   0.725  0.0839 -0.2417  0.1206
    2MOL0     C  205   1.733  10.286   0.631 -0.0299  0.4869  0.1950
    2MOL0     C  206   1.810  10.412   0.659  0.4626 -0.5985  0.4597
    2MOL0     H  207   2.076  10.446   0.337  0.5615  1.6308 -0.0915
    2MOL0     H  208   2.195  10.551   0.169 -0.5038 -3.3073 -0.5093
    2MOL0     H  209   2.061  10.884   0.049  0.5583  0.4922  0.2359
    2MOL0     H  210   1.929  10.849  -0.065 -0.3537 -4.4072  0.5303
    2MOL0     H  211   2.234  10.899  -0.142  0.7972  1.7142  0.0662
    2MOL0     H  212   2.090  10.901  -0.245  1.7815  1.2697  0.1017
    2MOL0     H  213   1.986  11.096  -0.124  0.9038  0.9795  1.4108
    2MOL0     H  214   2.120  11.092  -0.014 -1.4745 -1.2000 -0.2045
    2MOL0     H  215   2.263  11.134  -0.204 -0.8963 -3.2810 -0.1413
    2MOL0     H  216   2.124  11.132  -0.312  2.2160  0.2929  0.2166
    2MOL0     H  217   2.212  11.366  -0.222 -0.4986  0.6858  0.9099
    2MOL0     H  218   2.134  11.324  -0.065 -2.5102 -1.0541 -0.4480
    2MOL0     H  219   1.994  11.320  -0.333  2.1574 -1.7769 -0.0617
    2MOL0     H  220   1.917  11.297  -0.174  3.3612 -3.9851  0.5605
    2MOL0     H  221   2.071  11.549  -0.269 -1.1350  1.1042 -1.3693
    2MOL0     H  222   1.976  11.530  -0.113 -4.9074  0.2597 -0.1181
    2MOL0     H  223   1.874  11.515  -0.394 -1.3807  2.2923 -1.8357
    2MOL0     H  224   1.771  11.495  -0.246  1.6711 -0.3403  0.6554
    2MOL0     H  225   1.635  11.711  -0.400  0.5360 -2.9098  3.2873
    2MOL0     H  226   1.601  11.944  -0.481 -0.4833 -0.9775  1.9514
    2MOL0     H  227   1.751  12.060  -0.476  0.7859  0.5251  2.9649
    2MOL0     H  228   1.683  12.132  -0.254 -0.0078 -1.9893  1.3213
    2MOL0     H  229   1.568  12.185  -0.376 -1.2377 -1.4421  0.8468
    2MOL0     H  230   1.557  11.943  -0.181 -4.0921 -4.6091 -2.0842
    2MOL0     H  231   1.452  12.087  -0.168 -1.5032  0.3833 -1.4507
    2MOL0     H  232   1.334  12.017  -0.370 -0.4917 -2.0315 -2.2329
    2MOL0     H  233   1.398  11.861  -0.375  1.4008  0.0632 -0.4487
    2MOL0     H  234   1.511  11.753  -0.161 -2.6480  1.8357 -4.4486
    2MOL0     H  235   1.632  11.560  -0.106 -1.0143  1.6734 -0.1582
    2MOL0     H  236   1.570  11.422  -0.015 -1.1595  0.3813 -1.9546
    2MOL0     H  237   1.611  11.564   0.071 -2.0489  0.7674  0.7559
    2MOL0     H  238   1.177  11.143   0.076 -1.9599  0.2958 -0.3780
    2MOL0     H  239   1.161  10.936   0.206  3.1524  1.2669 -0.8263
    2MOL0     H  240   1.145  10.762   0.349 -0.3873  0.8347 -0.7075
    2MOL0     H  241   1.058  10.745   0.501  3.6943  0.7048  1.0628
    2MOL0     H  242   0.870  10.890   0.380  1.2916 -0.3371 -0.0466
    2MOL0     H  243   0.956  10.848   0.230  2.0565 -2.3129 -1.3340
    2MOL0     H  244   0.761  10.715   0.276 -0.1561 -2.1214  0.6709
    2MOL0     H  245   0.857  10.646   0.414  1.7520  0.7432  0.7607
    2MOL0     H  246   1.020  10.555   0.275  1.8505  1.1320  0.1303
    2MOL0     H  247   0.948  10.629   0.131 -1.3315 -0.1954 -0.1133
    2MOL0     H  248   0.819  10.442   0.318  2.4989  1.4061  1.0807
    2MOL0     H  249   0.736  10.497   0.167 -0.5890  0.0329 -0.4191
    2MOL0     H  250   0.945  10.404   0.046  0.2826 -0.7303 -0.9093
    2MOL0     H  251   0.812  10.292   0.094  0.6695 -0.1307  0.5228
    2MOL0     H  252   0.936  10.233   0.305 -2.2715 -0.3285 -0.9231
    2MOL0     H  253   1.070  10.338   0.265  1.2430 -2.0688  0.7313
    2MOL0     H  254   1.150  10.128   0.204 -2.8421 -2.4864  2.2948
    2MOL0     H  255   1.124  10.204   0.055  2.0218 -2.7324 -0.3488
    2MOL0     H  256   1.054  11.202   0.535  0.5105 -0.4691  0.3642
    2MOL0     H  257   1.109  11.382   0.427  1.0624 -1.3113  3.2327
    2MOL0     H  258   1.095  11.580   0.025 -0.5308  0.5523 -1.1070
    2MOL0     H  259   1.093  11.748  -0.119 -0.1358 -0.6687  2.0117
    2MOL0     H  260   1.816  10.663  -0.013 -2.7499 -2.9876  0.0457
    2MOL0     H  261   1.701  10.537   0.175 -1.1499  0.7952 -1.4999
    2MOL0     H  262   1.618  10.085   0.377 -0.1455  2.4688 -0.1259
    2MOL0     H  263   1.534   9.967   0.557 -1.3519  0.7232  1.2323
    2MOL0     H  264   1.528   9.974   1.013  2.5437  0.3036  1.7027
    2MOL0     H  265   1.671  10.067   0.976  0.8468  2.1069 -0.3579
    2MOL0     H  266   1.388  10.179   0.939 -0.6297 -1.1491  1.8433
    2MOL0     H  267   1.534  10.266   0.936  2.7003 -1.4783  1.9950
    2MOL0     H  268   1.464  10.322   1.152  0.0165  1.2419 -0.0970
    2MOL0     H  269   1.364  10.177   1.165 -0.8580  3.9207  0.2974
    2MOL0     H  270   1.546  10.047   1.256  0.2794  0.7007 -0.8305
    2MOL0     H  271   1.524  10.197   1.339 -1.3327 -0.6865 -0.2334
    2MOL0     H  272   1.900  10.250   1.152 -0.3749  1.5470 -0.4584
    2MOL0     H  273   1.709  10.250   0.821 -0.7718 -0.5087  0.4856
    2MOL0     H  274   1.910  10.401   0.616  1.5364 -0.1814  2.7274
    2MOL0     H  275   1.760  10.495   0.610  0.5540  1.0209  2.9315
    2MOL0     H  276   1.822  10.444   0.763 -0.4080 -0.8936  0.6622
    3MOL0     O  277   2.244   6.981  10.844  0.0886 -0.4248  0.1968
    3MOL0     C  278   2.232   6.857  10.849  0.4073 -0.9210  0.1711
    3MOL0     O  279   2.212   6.787  10.962 -0.0702 -0.2915  0.3128
    3MOL0     C  280   2.213   6.872  11.075  0.0682  0.0947 -0.3902
    3MOL0     C  281   2.091   6.915  11.128  0.1331 -0.0040  0.3926
    3MOL0     C  282   2.086   7.002  11.242 -0.0010 -0.2411 -0.0883
    3MOL0     C  283   2.208   7.035  11.299 -0.5623  1.2184  0.6072
    3MOL0     O  284   2.209   7.137  11.393 -0.0435 -0.0529  0.3293
    3MOL0     C  285   2.322   7.211  11.439 -0.7894 -0.1103 -0.6284
    3MOL0     C  286   2.280   7.295  11.556 -0.3026  0.3470 -0.0493
    3MOL0     C  287   2.387   7.402  11.591  0.2928 -0.0002  0.8016
    3MOL0     C  288   2.362   7.492  11.709  1.0341 -0.9555 -0.9536
    3MOL0     C  289   2.476   7.599  11.709 -1.0824 -0.7813 -0.1843
    3MOL0     C  290   2.482   7.687  11.827  0.4251 -1.0589  0.1958
    3MOL0     C  291   2.583   7.803  11.791 -0.3167  0.7696 -0.6909
    3MOL0     C  292   2.607   7.896  11.913 -0.6135  0.4637 -0.7199
    3MOL0     N  293   2.499   7.991  11.946  0.0310  0.3992  0.6693
    3MOL0     C  294   2.490   8.124  11.904 -0.7812 -0.6755  0.8656
    3MOL0     C  295   2.395   8.182  11.974  0.4306  1.1226 -0.3687
    3MOL0     C  296   2.351   8.329  11.962 -0.2935  0.9226 -0.0858
    3MOL0     C  297   2.256   8.372  12.073 -0.0385 -0.2334  0.1233
    3MOL0     C  298   2.228   8.532  12.061 -1.0549  1.1566 -0.0618
    3MOL0     C  299   2.152   8.559  11.931  0.1117 -0.4758  0.4934
    3MOL0     O  300   2.024   8.488  11.932 -0.1064 -0.0491  0.3170
    3MOL0     C  301   1.967   8.467  11.816  0.2611  0.5479 -1.3906
    3MOL0     C  302   1.934   8.567  11.737  1.3665 -0.2161  0.4266
    3MOL0     C  303   1.860   8.539  11.611 -1.0868  0.1816 -1.5405
    3MOL0     C  304   1.830   8.655  11.516  0.5906  0.7735  0.1832
    3MOL0     C  305   1.831   8.402  11.582  0.2003 -0.2310 -0.6188
    3MOL0     C  306   1.752   8.359  11.465 -0.0334 -0.3828  0.6190
    3MOL0     O  307   1.739   8.227  11.449 -0.0946 -0.0958 -0.3050
    3MOL0     C  308   1.655   8.182  11.353 -0.3189  0.2004 -0.6200
    3MOL0     C  309   1.712   8.164  11.223  0.0762  0.2208  0.5754
    3MOL0     C  310   1.626   8.131  11.123 -0.3402 -0.0354  0.5922
    3MOL0     C  311   1.493   8.099  11.139  0.3760 -0.1470 -0.1143
    3MOL0     O  312   1.407   8.067  11.036 -0.1324  0.3010  0.0274
    3MOL0     C  313   1.440   7.971  10.936  0.7989 -0.4740 -0.2862
    3MOL0     C  314   1.404   7.829  10.968  0.3006  0.5127  0.3806
    3MOL0     C  315   1.480   7.774  11.081  0.2194  0.0600  0.9226
    3MOL0     C  316   1.466   7.623  11.072 -0.7714 -0.3856 -1.0023
    3MOL0     C  317   1.554   7.564  11.178 -0.5697  0.5589  0.0767
    3MOL0     C  318   1.550   7.412  11.158  0.8742 -0.0418  0.7118
    3MOL0     C  319   1.609   7.349  11.278 -0.4300 -0.3443  0.1353
    3MOL0     C  320   1.561   7.208  11.299 -0.1598 -0.4293  0.3951
    3MOL0    Cl  321   1.587   7.111  11.135  0.3995 -0.2899  0.3044
    3MOL0     C  322   1.441   8.114  11.271  0.1077  0.2026  0.3147
    3MOL0     C  323   1.521   8.156  11.378 -0.5341 -0.6704 -1.3310
    3MOL0     O  324   1.696   8.442  11.394 -0.1018  0.0952 -0.4849
    3MOL0     C  325   1.846   8.300  11.683 -0.0460  0.3282  1.0909
    3MOL0     C  326   1.930   8.331  11.791 -0.5195 -0.2244 -0.3838
    3MOL0     N  327   2.340   8.083  12.053 -0.1953  1.1703  0.3904
    3MOL0     N  328   2.397   7.967  12.032  0.0260 -0.1141  0.4095
    3MOL0     C  329   2.330   6.975  11.255  0.7974  0.2998 -0.2128
    3MOL0     C  330   2.331   6.892  11.150  1.0135  0.1261  0.3394
    3MOL0     C  331   2.217   6.796  10.719 -0.8174  0.8381 -0.0015
    3MOL0     C  332   2.096   6.804  10.653  0.1662  1.3261  0.3842
    3MOL0     C  333   2.081   6.731  10.539 -0.5024  0.3473 -0.1021
    3MOL0     C  334   2.180   6.651  10.479 -0.4010 -0.2324  0.0175
    3MOL0     O  335   2.170   6.582  10.364 -0.0087  0.0493  0.7661
    3MOL0     C  336   2.053   6.607  10.286  0.2322  0.3427  0.4053
    3MOL0     C  337   2.075   6.538  10.160  0.1220  0.5467 -0.4385
    3MOL0     C  338   1.952   6.570  10.063  0.6498 -0.6080  0.3847
    3MOL0     C  339   1.978   6.515   9.927 -0.2739  0.2607 -0.9028
    3MOL0     C  340   1.915   6.603   9.822 -0.7232  0.4643 -0.6763
    3MOL0     C  341   1.858   6.658   9.739  0.5212  0.7596  0.2418
    3MOL0     C  342   2.303   6.647  10.553  0.0781 -0.6726 -0.6917
    3MOL0     C  343   2.322   6.711  10.674  0.3331  0.8222 -0.2774
    3MOL0     C  344   2.457   6.695  10.738  0.5915 -0.2169 -0.1864
    3MOL0     H  345   2.002   6.874  11.083 -1.2352  0.9990  2.0924
    3MOL0     H  346   1.991   7.047  11.271  0.6050  1.2241 -0.3140
    3MOL0     H  347   2.365   7.280  11.365 -0.7681  1.9757  1.2509
    3MOL0     H  348   2.400   7.140  11.469 -2.7591 -1.9322  0.4142
    3MOL0     H  349   2.190   7.352  11.529 -0.1712  1.0906  1.0181
    3MOL0     H  350   2.263   7.243  11.651 -1.3083  2.5131  1.0377
    3MOL0     H  351   2.487   7.360  11.608  0.4395  0.0252  0.0430
    3MOL0     H  352   2.397   7.468  11.505  1.0026  1.7982  2.1844
    3MOL0     H  353   2.267   7.546  11.698  1.1496 -0.1662  1.4570
    3MOL0     H  354   2.356   7.436  11.803 -0.7016 -0.7498 -0.9013
    3MOL0     H  355   2.457   7.662  11.622 -3.2140  0.0735  0.8387
    3MOL0     H  356   2.571   7.545  11.701 -0.2742  0.7276 -1.1770
    3MOL0     H  357   2.389   7.740  11.848 -0.3936 -3.1786  2.3617
    3MOL0     H  358   2.518   7.626  11.910 -2.6371 -3.2484  0.1099
    3MOL0     H  359   2.544   7.855  11.703  0.1897  2.9509  0.2995
    3MOL0     H  360   2.681   7.762  11.767 -1.4268 -1.9337 -0.8906
    3MOL0     H  361   2.636   7.839  12.002  0.1164 -0.1128 -1.3174
    3MOL0     H  362   2.700   7.950  11.896 -0.6216  0.1199 -1.8984
    3MOL0     H  363   2.555   8.172  11.831  0.4166  1.8212  3.3916
    3MOL0     H  364   2.319   8.354  11.860  0.9678  2.6440 -0.1070
    3MOL0     H  365   2.439   8.393  11.967  0.8524 -0.6718  1.9012
    3MOL0     H  366   2.157   8.326  12.066  1.0748 -2.7724  0.0796
    3MOL0     H  367   2.302   8.346  12.168 -0.9689 -2.8156 -0.0691
    3MOL0     H  368   2.163   8.561  12.144 -0.1340 -2.0354  1.9555
    3MOL0     H  369   2.323   8.587  12.061 -1.8151  2.5072 -0.6747
    3MOL0     H  370   2.127   8.665  11.924 -2.1054 -1.0107 -0.3982
    3MOL0     H  371   2.226   8.535  11.854  2.3446  2.8257  1.3958
    3MOL0     H  372   1.963   8.665  11.774  1.1048  0.2617 -0.5932
    3MOL0     H  373   1.878   8.631  11.421  2.1437  2.4416  0.5021
    3MOL0     H  374   1.863   8.749  11.561  0.6826 -0.2522  2.4351
    3MOL0     H  375   1.726   8.670  11.486  0.7292  3.4425  0.7627
    3MOL0     H  376   1.811   8.192  11.188 -0.6200  2.6536  0.3491
    3MOL0     H  377   1.674   8.129  11.025 -1.3729  1.1625  0.0309
    3MOL0     H  378   1.401   8.007  10.841  5.2538  6.2434 -0.2708
    3MOL0     H  379   1.548   7.972  10.921  0.8436 -2.0798 -0.2456
    3MOL0     H  380   1.299   7.820  10.996  0.4518 -0.0534  0.7777
    3MOL0     H  381   1.420   7.773  10.875 -4.6832 -1.6283  0.4967
    3MOL0     H  382   1.447   7.802  11.182 -0.9754 -4.0462  1.8803
    3MOL0     H  383   1.586   7.799  11.072  0.0669  0.8355  1.1808
    3MOL0     H  384   1.518   7.592  10.980  1.5693 -3.4162  1.1446
    3MOL0     H  385   1.361   7.595  11.086 -0.8596  1.1682  2.4083
    3MOL0     H  386   1.658   7.592  11.156 -1.4275  4.8408  0.4851
    3MOL0     H  387   1.522   7.592  11.279  1.8355  1.9788  0.5427
    3MOL0     H  388   1.597   7.389  11.062  0.7033 -0.0549  0.6309
    3MOL0     H  389   1.446   7.378  11.159  0.4852  1.0839  0.1908
    3MOL0     H  390   1.578   7.411  11.363 -1.2861  1.1454 -1.2184
    3MOL0     H  391   1.718   7.347  11.264 -0.1688  2.3490  1.1531
    3MOL0     H  392   1.455   7.207  11.327  0.4115  0.7356  2.8859
    3MOL0     H  393   1.622   7.166  11.379  3.0274  4.0855  0.7293
    3MOL0     H  394   1.335   8.093  11.278  0.3732 -0.8718  1.5547
    3MOL0     H  395   1.479   8.165  11.478  2.4127  2.5819 -0.1858
    3MOL0     H  396   1.814   8.199  11.661  1.1496  0.4117 -1.3838
    3MOL0     H  397   1.945   8.245  11.856  0.6402 -0.1229 -0.5039
    3MOL0     H  398   2.430   6.996  11.293 -0.2038  2.2457  1.5520
    3MOL0     H  399   2.426   6.855  11.114  0.1436 -4.5881  2.1084
    3MOL0     H  400   2.010   6.847  10.702  0.4326 -0.7525  2.8831
    3MOL0     H  401   1.988   6.759  10.492 -0.7644  1.8809  1.1994
    3MOL0     H  402   1.964   6.562  10.330  0.8300 -3.6228 -1.9562
    3MOL0     H  403   2.043   6.713  10.263 -2.2818  0.5407  2.0817
    3MOL0     H  404   2.078   6.430  10.179  0.8714  0.2979 -1.8386
    3MOL0     H  405   2.167   6.575  10.115  0.2455  0.2050 -0.4684
    3MOL0     H  406   1.857   6.537  10.108  0.4032 -3.3831 -1.9171
    3MOL0     H  407   1.932   6.677  10.046 -0.0721 -1.1097 -2.4496
    3MOL0     H  408   1.950   6.409   9.929 -1.4335  0.4281  3.8297
    3MOL0     H  409   2.085   6.526   9.907 -0.2606  1.0066 -0.4514
    3MOL0     H  410   1.819   6.719   9.660  1.0629 -0.3178 -0.8994
    3MOL0     H  411   2.373   6.574  10.513 -0.8849 -1.1478 -1.5655
    3MOL0     H  412   2.473   6.589  10.759 -1.7015 -0.4036  0.9692
    3MOL0     H  413   2.539   6.718  10.670 -1.2030 -0.5867 -2.6062
    3MOL0     H  414   2.467   6.735  10.839  0.6731 -3.9686  1.4461
    4MOL0     O  415   0.270  11.546   2.368 -0.6006  0.6067  0.1945
    4MOL0     C  416   0.380  11.496   2.339  0.1743  0.5914 -0.5692
    4MOL0     O  417   0.422  11.362   2.370  0.0079 -0.3345  0.3352
    4MOL0     C  418   0.367  11.285   2.471  0.3778  1.1353 -0.3358
    4MOL0     C  419   0.386  11.138   2.452  0.2151  0.6748  0.0490
    4MOL0     C  420   0.333  11.044   2.541  0.9986 -0.3682  0.0204
    4MOL0     C  421   0.244  11.086   2.638 -0.4423 -0.4434  0.7809
    4MOL0     O  422   0.189  10.990   2.712 -0.3280 -0.7223 -0.1662
    4MOL0     C  423   0.260  10.955   2.832 -0.2600 -0.7547 -0.7676
    4MOL0     C  424   0.167  10.932   2.955  0.4401 -0.6708  0.0350
    4MOL0     C  425   0.075  11.045   2.990 -1.3043  0.3687  0.7402
    4MOL0     C  426  -0.062  10.977   3.038 -0.3314  0.0189 -0.5970
    4MOL0     C  427  -0.169  11.066   3.106 -0.3916  0.4941  0.3226
    4MOL0     C  428  -0.122  11.150   3.214 -0.5432 -0.4964  0.0249
    4MOL0     C  429  -0.219  11.207   3.315 -0.0524  0.1923 -0.6750
    4MOL0     C  430  -0.264  11.096   3.412 -0.1308 -0.5219 -0.1754
    4MOL0     N  431  -0.342  11.149   3.526 -0.3863  0.3906 -0.2200
    4MOL0     C  432  -0.353  11.277   3.586 -0.4903 -0.6307 -0.8698
    4MOL0     C  433  -0.477  11.273   3.645  0.4681 -0.3680 -0.3690
    4MOL0     C  434  -0.538  11.386   3.726  1.0551 -0.7393  0.5234
    4MOL0     C  435  -0.502  11.371   3.877  0.4202  0.4499 -0.5061
    4MOL0     C  436  -0.582  11.458   3.972 -0.3636  0.3916  0.0811
    4MOL0     C  437  -0.514  11.477   4.105 -0.0973  0.0095  0.0982
    4MOL0     O  438  -0.454  11.358   4.159  0.3424 -0.1717 -0.0654
    4MOL0     C  439  -0.512  11.251   4.226 -0.4327  0.6793 -0.1061
    4MOL0     C  440  -0.651  11.232   4.229 -0.5484  0.5690  0.2955
    4MOL0     C  441  -0.707  11.116   4.287 -0.2339  0.5710  0.6442
    4MOL0     C  442  -0.853  11.110   4.274  0.2754 -0.6922  0.3339
    4MOL0     C  443  -0.627  11.018   4.350 -0.6663  0.3290 -0.3063
    4MOL0     C  444  -0.682  10.893   4.405  0.0027  0.3649 -1.3452
    4MOL0     O  445  -0.584  10.795   4.440  0.4447  0.1328  0.0575
    4MOL0     C  446  -0.632  10.679   4.496 -0.7480 -1.2308  0.9341
    4MOL0     C  447  -0.599  10.651   4.622  1.0436  0.0542 -0.2996
    4MOL0     C  448  -0.638  10.528   4.670 -1.1571 -0.3593 -0.4173
    4MOL0     C  449  -0.717  10.437   4.601 -0.7188  0.6916  1.0255
    4MOL0     O  450  -0.739  10.305   4.659 -0.8997 -0.6833 -0.2235
    4MOL0     C  451  -0.793  10.199   4.575 -0.3239  0.2663 -0.2427
    4MOL0     C  452  -0.822  10.079   4.667  0.3199  0.0855 -1.1698
    4MOL0     C  453  -0.952  10.116   4.753 -0.4739  0.0186 -0.6706
    4MOL0     C  454  -1.066  10.016   4.718  0.0006  0.2622  0.0686
    4MOL0     C  455  -1.121  10.023   4.578 -0.8034 -1.3835  0.9387
    4MOL0     C  456  -1.241   9.922   4.565  0.3178  0.5293 -1.0483
    4MOL0     C  457  -1.297   9.930   4.419 -0.1340  0.0350  0.8799
    4MOL0     C  458  -1.407  10.037   4.417 -0.6710  0.6296  0.3004
    4MOL0    Cl  459  -1.492  10.030   4.253 -0.0019 -0.0962 -0.5878
    4MOL0     C  460  -0.754  10.481   4.469  0.2824 -0.3045  0.1042
    4MOL0     C  461  -0.702  10.589   4.415 -0.7644  0.3536  0.6013
    4MOL0     O  462  -0.803  10.876   4.414 -0.7106  0.4015 -1.0904
    4MOL0     C  463  -0.486  11.041   4.345 -0.6489  0.4906  0.2951
    4MOL0     C  464  -0.433  11.155   4.278  0.6621 -0.3198  0.0164
    4MOL0     N  465  -0.528  11.149   3.642 -0.6802  0.3306 -0.1064
    4MOL0     N  466  -0.453  11.077   3.569 -0.0939  0.1190  0.1782
    4MOL0     C  467   0.205  11.222   2.650 -0.8936 -0.1248 -0.4413
    4MOL0     C  468   0.267  11.321   2.565  0.6215  0.0861 -1.3955
    4MOL0     C  469   0.469  11.586   2.265 -0.1480  1.1664  0.4122
    4MOL0     C  470   0.416  11.646   2.152 -0.5646 -1.3553 -0.0658
    4MOL0     C  471   0.504  11.729   2.072 -0.1873  0.1901 -0.0398
    4MOL0     C  472   0.636  11.755   2.106  0.2760 -0.6657  0.4323
    4MOL0     O  473   0.704  11.837   2.027 -0.9195  0.3186 -0.1050
    4MOL0     C  474   0.800  11.921   2.092  0.3239 -0.2137 -0.4434
    4MOL0     C  475   0.828  12.039   1.998  0.2035 -0.2606  0.2608
    4MOL0     C  476   0.777  12.032   1.846 -0.2812 -0.2437  0.8666
    4MOL0     C  477   0.834  12.156   1.773  0.6258  0.3799 -0.2475
    4MOL0     C  478   0.789  12.160   1.639  0.0738 -0.0789 -0.2977
    4MOL0     C  479   0.757  12.169   1.518 -0.7880 -0.3738 -0.2379
    4MOL0     C  480   0.686  11.701   2.220 -0.4889 -0.0281 -0.3824
    4MOL0     C  481   0.608  11.609   2.302 -0.2088 -0.0760  0.3971
    4MOL0     C  482   0.670  11.551   2.433 -0.1886  0.3874  0.0121
    4MOL0     H  483   0.445  11.097   2.370 -0.6993 -4.0655  1.4445
    4MOL0     H  484   0.355  10.938   2.533  1.3600 -0.1680 -3.4911
    4MOL0     H  485   0.329  11.036   2.859  0.4546 -2.3862  2.9697
    4MOL0     H  486   0.324  10.868   2.814  2.3317  1.5329 -4.0288
    4MOL0     H  487   0.111  10.839   2.939 -0.8357 -0.1806  1.3988
    4MOL0     H  488   0.231  10.912   3.042 -0.1770  0.6652  0.8322
    4MOL0     H  489   0.131  11.084   3.076 -2.2316 -1.2016  2.1076
    4MOL0     H  490   0.058  11.117   2.909  0.3325 -0.5053 -0.4275
    4MOL0     H  491  -0.095  10.927   2.947  1.4933 -0.7028 -0.9195
    4MOL0     H  492  -0.029  10.894   3.101  3.9092  1.0360 -1.1432
    4MOL0     H  493  -0.240  10.995   3.149 -0.4536 -1.2332 -2.3989
    4MOL0     H  494  -0.231  11.120   3.034 -1.7246 -2.3199 -0.7816
    4MOL0     H  495  -0.047  11.096   3.273 -0.1960  0.2022  0.2272
    4MOL0     H  496  -0.081  11.235   3.160 -0.2463  0.7401  2.0821
    4MOL0     H  497  -0.299  11.259   3.260 -0.0038  2.8934  1.5664
    4MOL0     H  498  -0.166  11.284   3.372  0.9657 -1.8868  1.3403
    4MOL0     H  499  -0.338  11.037   3.359 -1.3871 -0.8873  1.8567
    4MOL0     H  500  -0.180  11.032   3.443 -1.3070 -2.4873 -0.8711
    4MOL0     H  501  -0.281  11.358   3.576 -0.1265 -0.7904  0.3611
    4MOL0     H  502  -0.645  11.384   3.705  1.1603  0.5620 -0.2978
    4MOL0     H  503  -0.502  11.484   3.691  0.2995 -0.6445 -0.0088
    4MOL0     H  504  -0.520  11.269   3.912  0.9649  0.0720 -1.2922
    4MOL0     H  505  -0.395  11.389   3.883  0.4325  0.5218 -0.9329
    4MOL0     H  506  -0.588  11.553   3.916  3.2087 -1.4029 -3.8655
    4MOL0     H  507  -0.684  11.424   3.996  0.5874 -2.1625  0.7790
    4MOL0     H  508  -0.428  11.543   4.097  1.7613 -2.3613 -0.7938
    4MOL0     H  509  -0.586  11.511   4.180  0.3685 -0.8848  0.9777
    4MOL0     H  510  -0.692  11.315   4.172  3.9949  3.4549  0.7185
    4MOL0     H  511  -0.861  11.015   4.221  0.9987 -1.9886  2.4522
    4MOL0     H  512  -0.895  11.189   4.210  0.2761 -1.7477 -1.0188
    4MOL0     H  513  -0.904  11.109   4.370  1.6892  0.8605  1.1588
    4MOL0     H  514  -0.538  10.720   4.678  0.9678 -0.7717  0.8290
    4MOL0     H  515  -0.612  10.489   4.768 -0.7358  0.8098 -0.0555
    4MOL0     H  516  -0.881  10.234   4.521 -0.1714  1.2514  0.1105
    4MOL0     H  517  -0.711  10.175   4.506 -0.4375 -1.4257  0.1650
    4MOL0     H  518  -0.836   9.987   4.610 -0.3317 -0.2865 -0.4291
    4MOL0     H  519  -0.729  10.052   4.718 -0.5548  0.2922  0.6124
    4MOL0     H  520  -0.968  10.224   4.746  5.8173  1.5776  2.2297
    4MOL0     H  521  -0.926  10.114   4.859 -3.3661 -0.6802  0.1360
    4MOL0     H  522  -1.150  10.035   4.784 -0.9618  1.2158 -1.3642
    4MOL0     H  523  -1.030   9.916   4.746  3.7164  1.4753  0.2422
    4MOL0     H  524  -1.152  10.125   4.555 -0.6227 -1.6388 -0.5177
    4MOL0     H  525  -1.036   9.994   4.517 -0.4066 -2.7285  2.0697
    4MOL0     H  526  -1.319   9.937   4.639 -2.7767 -1.4742 -3.6080
    4MOL0     H  527  -1.191   9.826   4.582 -1.8568 -0.8169 -1.7992
    4MOL0     H  528  -1.330   9.833   4.381 -1.2814  0.4877  0.6550
    4MOL0     H  529  -1.217   9.962   4.352 -1.2891  0.3651 -0.3816
    4MOL0     H  530  -1.369  10.140   4.418  0.9168  0.1064 -1.1702
    4MOL0     H  531  -1.487  10.013   4.487 -1.9926 -0.5333 -1.5187
    4MOL0     H  532  -0.830  10.423   4.417 -1.3084  1.0966  0.7449
    4MOL0     H  533  -0.720  10.609   4.310 -0.0631  0.1151  0.4267
    4MOL0     H  534  -0.417  10.963   4.377 -1.6397 -1.2863 -1.6465
    4MOL0     H  535  -0.326  11.160   4.260  0.5039 -1.4184 -1.4971
    4MOL0     H  536   0.131  11.249   2.724  1.7251  1.8959  1.6280
    4MOL0     H  537   0.241  11.423   2.590 -2.6804 -0.7925 -0.6954
    4MOL0     H  538   0.309  11.639   2.135 -0.8903 -0.3653  1.3719
    4MOL0     H  539   0.464  11.768   1.979  0.2993 -2.7945 -1.6113
    4MOL0     H  540   0.754  11.955   2.185  1.0087 -0.8605  0.1373
    4MOL0     H  541   0.897  11.874   2.111  1.5278  1.9398 -0.9178
    4MOL0     H  542   0.936  12.053   2.002  0.7543 -3.3615 -0.7245
    4MOL0     H  543   0.781  12.124   2.049 -0.8253  1.5744 -3.3977
    4MOL0     H  544   0.825  11.947   1.797  0.1687 -0.5932  1.8852
    4MOL0     H  545   0.668  12.028   1.837 -0.1489 -0.2486 -1.3550
    4MOL0     H  546   0.942  12.137   1.768  0.1387 -2.8275 -0.2886
    4MOL0     H  547   0.825  12.252   1.826  0.8509  0.6662 -0.7166
    4MOL0     H  548   0.738  12.185   1.414 -2.5551 -1.7066 -0.1733
    4MOL0     H  549   0.793  11.709   2.237  0.1868 -2.9785 -2.2862
    4MOL0     H  550   0.742  11.621   2.475  1.0005 -1.3792  1.0613
    4MOL0     H  551   0.594  11.509   2.500 -1.5542  2.1206 -0.3788
    4MOL0     H  552   0.739  11.468   2.412 -0.4589  0.0639  0.3960
    5MOL0     O  553   8.209   8.690   7.626 -0.4286  0.0849  0.6467
    5MOL0     C  554   8.305   8.627   7.580 -0.0024 -0.9260 -0.3057
    5MOL0     O  555   8.312   8.581   7.455  0.7146  0.5179  0.0932
    5MOL0     C  556   8.195   8.595   7.382 -0.5340 -0.2756  0.5783
    5MOL0     C  557   8.075   8.513   7.405  0.1465 -0.1774  0.4617
    5MOL0     C  558   7.959   8.539   7.332 -0.1639 -0.4387 -0.7704
    5MOL0     C  559   7.956   8.636   7.234 -0.2804 -0.6122  0.7458
    5MOL0     O  560   7.832   8.646   7.172 -0.5801  0.5300 -0.8273
    5MOL0     C  561   7.807   8.695   7.037  0.2902  0.2664  0.9586
    5MOL0     C  562   7.737   8.835   7.059  0.2711 -1.2495 -0.0613
    5MOL0     C  563   7.618   8.838   7.155 -0.1937 -0.0350  0.1722
    5MOL0     C  564   7.553   8.975   7.147 -1.2898  0.8207 -0.1702
    5MOL0     C  565   7.447   8.976   7.271  0.3127  0.4556 -0.8094
    5MOL0     C  566   7.412   9.125   7.297  1.8793  0.2411 -0.4510
    5MOL0     C  567   7.292   9.146   7.387  0.6399  0.6760 -0.3353
    5MOL0     C  568   7.218   9.280   7.368  0.9942  0.3714  0.2092
    5MOL0     N  569   7.297   9.402   7.379  0.4469  0.8401  0.1398
    5MOL0     C  570   7.404   9.430   7.297  0.1168  0.5124  0.0546
    5MOL0     C  571   7.482   9.525   7.359 -0.1769  0.2391  1.1552
    5MOL0     C  572   7.619   9.571   7.314 -0.1908  0.6683  0.7496
    5MOL0     C  573   7.712   9.555   7.429 -0.6666 -0.0526 -0.6325
    5MOL0     C  574   7.837   9.635   7.400  0.2051  0.0452 -0.1024
    5MOL0     C  575   7.930   9.624   7.519 -0.8404  0.3483 -0.0561
    5MOL0     O  576   8.067   9.584   7.491  0.4775 -0.1900 -0.3893
    5MOL0     C  577   8.134   9.669   7.408 -0.4572  0.9532 -0.8412
    5MOL0     C  578   8.102   9.800   7.377 -0.2069  1.1121 -0.1710
    5MOL0     C  579   8.179   9.879   7.300 -0.6127 -0.2179 -0.2025
    5MOL0     C  580   8.115   9.993   7.245 -0.8842 -1.1782  1.7130
    5MOL0     C  581   8.302   9.823   7.245 -0.9371  0.2644  0.2342
    5MOL0     C  582   8.386   9.907   7.161  0.3643 -0.9236 -1.5657
    5MOL0     O  583   8.479   9.844   7.087 -0.5753 -0.0297  0.3809
    5MOL0     C  584   8.587   9.915   7.036  0.1099 -1.0932 -0.4093
    5MOL0     C  585   8.679   9.987   7.108 -0.0896 -1.0844 -0.1335
    5MOL0     C  586   8.787  10.052   7.047 -0.1649 -0.5058  0.6284
    5MOL0     C  587   8.803  10.045   6.905  0.5058  0.0216  0.0329
    5MOL0     O  588   8.882  10.130   6.839  0.1767 -0.3960  0.6226
    5MOL0     C  589   9.015  10.156   6.897  0.4377  0.2382 -0.6008
    5MOL0     C  590   9.120  10.058   6.835 -0.1855 -0.1557  1.1280
    5MOL0     C  591   9.098  10.042   6.678  0.2515 -0.1544 -1.7926
    5MOL0     C  592   9.208   9.954   6.617  1.0403 -0.3125 -0.2281
    5MOL0     C  593   9.202   9.947   6.462  0.2146 -0.2149 -0.3056
    5MOL0     C  594   9.316   9.869   6.412 -0.1939 -0.4269  0.4247
    5MOL0     C  595   9.338   9.869   6.260 -0.5369  0.2818  0.1008
    5MOL0     C  596   9.435   9.757   6.222 -0.1956  0.4944  0.3006
    5MOL0    Cl  597   9.588   9.774   6.288 -0.1590 -0.5474  0.4226
    5MOL0     C  598   8.710   9.967   6.827 -0.2054 -0.3219 -0.0713
    5MOL0     C  599   8.607   9.904   6.901 -0.2652 -0.1525 -0.0329
    5MOL0     O  600   8.390  10.032   7.180 -0.2530  1.0514 -0.2346
    5MOL0     C  601   8.324   9.691   7.256  0.0302 -0.6251 -0.5924
    5MOL0     C  602   8.250   9.617   7.343  0.1233  0.7962 -0.0909
    5MOL0     N  603   7.423   9.548   7.479  0.5552 -0.5860 -0.5345
    5MOL0     N  604   7.311   9.477   7.488  0.0551 -0.2366  0.0006
    5MOL0     C  605   8.073   8.714   7.209 -0.3233  0.6659  0.3490
    5MOL0     C  606   8.196   8.685   7.274 -0.6374  1.0404 -0.4595
    5MOL0     C  607   8.428   8.620   7.659 -0.2404 -0.4777  0.3868
    5MOL0     C  608   8.536   8.545   7.597 -0.0429  0.6433 -0.0456
    5MOL0     C  609   8.666   8.547   7.645  0.5967 -0.0946  0.2368
    5MOL0     C  610   8.698   8.615   7.752 -0.7914  0.3691 -0.0189
    5MOL0     O  611   8.821   8.620   7.815  0.0480  0.0241 -0.1519
    5MOL0     C  612   8.930   8.576   7.746 -0.4073 -0.2512  0.1306
    5MOL0     C  613   9.059   8.605   7.824 -0.7489 -0.3352 -1.4627
    5MOL0     C  614   9.063   8.756   7.860 -0.2017  0.0618 -0.7066
    5MOL0     C  615   9.193   8.785   7.934 -0.3435  0.6256  0.1769
    5MOL0     C  616   9.216   8.928   7.937  0.2307  0.1289  1.2444
    5MOL0     C  617   9.226   9.042   7.909 -0.0227 -0.8486 -0.5981
    5MOL0     C  618   8.599   8.690   7.818  0.2169 -0.0675  1.1401
    5MOL0     C  619   8.465   8.700   7.768 -0.2050  0.4571  0.1487
    5MOL0     C  620   8.373   8.789   7.846  1.5248  0.7138  0.0255
    5MOL0     H  621   8.080   8.454   7.496  2.1284  0.9342  1.1441
    5MOL0     H  622   7.868   8.482   7.347 -1.1128  1.5652  2.2308
    5MOL0     H  623   7.739   8.627   6.985 -1.4362  0.7279  2.5371
    5MOL0     H  624   7.902   8.709   6.984 -0.9624  0.5766 -1.3294
    5MOL0     H  625   7.814   8.895   7.108 -3.1489  0.4545  3.8518
    5MOL0     H  626   7.715   8.882   6.963  1.3935 -0.9864 -0.2029
    5MOL0     H  627   7.554   8.753   7.129  1.1509 -0.8234 -0.7597
    5MOL0     H  628   7.655   8.809   7.253  0.3666  1.1002  0.3141
    5MOL0     H  629   7.631   9.050   7.162 -3.3418  3.1438 -0.6207
    5MOL0     H  630   7.509   9.016   7.056  1.5646 -1.3206 -2.7254
    5MOL0     H  631   7.485   8.925   7.360 -0.8971 -1.6381 -1.4149
    5MOL0     H  632   7.354   8.927   7.242 -0.1081  1.0480 -0.4703
    5MOL0     H  633   7.491   9.189   7.337  1.1581 -0.5289  2.4096
    5MOL0     H  634   7.394   9.162   7.195  1.4933 -0.0118 -0.4772
    5MOL0     H  635   7.319   9.141   7.493 -0.7812  0.2151  0.0313
    5MOL0     H  636   7.222   9.064   7.370  2.3722 -0.4931 -2.3225
    5MOL0     H  637   7.174   9.284   7.268 -0.7903 -1.9006  0.8150
    5MOL0     H  638   7.127   9.284   7.429  2.3728  2.0177  2.2966
    5MOL0     H  639   7.436   9.370   7.212  1.5302  0.9534  0.2495
    5MOL0     H  640   7.608   9.674   7.280 -2.8710  1.2384  2.9501
    5MOL0     H  641   7.661   9.513   7.231  2.0029  1.3705  1.3139
    5MOL0     H  642   7.672   9.585   7.526 -0.5211  1.5394 -1.0315
    5MOL0     H  643   7.743   9.451   7.434  1.3126  0.5647  1.9700
    5MOL0     H  644   7.892   9.612   7.309  2.0953 -1.8651  1.4169
    5MOL0     H  645   7.810   9.740   7.383  0.8173  0.0697 -0.9976
    5MOL0     H  646   7.937   9.723   7.565  0.3442  1.0375 -1.6101
    5MOL0     H  647   7.883   9.560   7.594 -0.4112 -0.5258 -0.5081
    5MOL0     H  648   8.015   9.857   7.410 -0.4389  0.5948  0.1318
    5MOL0     H  649   8.008   9.967   7.247 -1.6277  1.5069  0.9823
    5MOL0     H  650   8.138  10.028   7.145  1.5055 -3.7087  1.2422
    5MOL0     H  651   8.129  10.069   7.322  2.1391 -1.1845  1.2758
    5MOL0     H  652   8.654  10.008   7.211 -3.4013 -1.1508 -0.8105
    5MOL0     H  653   8.851  10.115   7.109 -0.4924 -2.6642  3.3313
    5MOL0     H  654   9.060  10.247   6.856  3.3553 -2.6039 -4.4468
    5MOL0     H  655   9.018  10.161   7.006 -0.6071  0.2056 -0.5587
    5MOL0     H  656   9.223  10.094   6.839 -0.5566  1.6971 -2.1532
    5MOL0     H  657   9.118   9.957   6.877  2.8202 -0.1718  1.4477
    5MOL0     H  658   9.087  10.141   6.632 -1.0477 -0.9387 -3.2721
    5MOL0     H  659   9.001   9.991   6.671  0.4508 -0.5112 -1.9901
    5MOL0     H  660   9.200   9.856   6.664 -0.4626  0.7471  1.8662
    5MOL0     H  661   9.310   9.986   6.639  0.4426  1.9361 -0.4141
    5MOL0     H  662   9.113   9.906   6.413 -0.2411  1.5238 -1.0158
    5MOL0     H  663   9.201  10.048   6.419 -2.2956 -0.7402 -1.7228
    5MOL0     H  664   9.311   9.765   6.446  0.6891  0.0871  2.2373
    5MOL0     H  665   9.410   9.914   6.444  0.8064  0.9425 -3.7942
    5MOL0     H  666   9.372   9.970   6.235  2.4792 -0.6555  0.0027
    5MOL0     H  667   9.249   9.849   6.199  0.1598  0.8734 -1.1664
    5MOL0     H  668   9.444   9.739   6.115  1.4822  0.0814  0.4787
    5MOL0     H  669   9.397   9.660   6.254 -0.3449  0.3655 -0.2628
    5MOL0     H  670   8.726   9.972   6.720  0.3901 -0.4168  0.0106
    5MOL0     H  671   8.532   9.847   6.846 -0.2711 -1.9987  1.7422
    5MOL0     H  672   8.408   9.641   7.209  0.1809 -3.0895  2.0514
    5MOL0     H  673   8.284   9.516   7.364  0.7651  0.6831 -1.5106
    5MOL0     H  674   8.068   8.777   7.121  2.8445 -0.0174 -0.4336
    5MOL0     H  675   8.291   8.730   7.248  0.2307 -1.1418 -1.3095
    5MOL0     H  676   8.514   8.494   7.503 -0.8896 -3.9115  2.3515
    5MOL0     H  677   8.739   8.498   7.582  2.1440  0.6760  1.3603
    5MOL0     H  678   8.915   8.469   7.726  1.8840 -0.8200  1.1453
    5MOL0     H  679   8.938   8.629   7.651  4.2326 -0.8484 -0.0284
    5MOL0     H  680   9.145   8.573   7.764  0.7327 -0.4590  0.6418
    5MOL0     H  681   9.073   8.540   7.910 -3.3640  2.2264  1.1446
    5MOL0     H  682   9.051   8.813   7.767  1.4462  4.1855  1.3437
    5MOL0     H  683   8.970   8.768   7.916 -0.1899 -1.9889 -0.1636
    5MOL0     H  684   9.278   8.726   7.900  0.3174  1.3864  0.4619
    5MOL0     H  685   9.170   8.762   8.038  1.1434 -0.8645  0.2133
    5MOL0     H  686   9.244   9.147   7.893 -0.1390 -0.5001  1.2899
    5MOL0     H  687   8.629   8.748   7.904 -1.7640  0.2423  1.6770
    5MOL0     H  688   8.376   8.891   7.809  1.0579  1.9109  2.9669
    5MOL0     H  689   8.272   8.747   7.849  0.8651  1.7491  5.9641
    5MOL0     H  690   8.413   8.794   7.948 -1.4951  0.4484  1.3065
    6MOL0     O  691   4.693   4.819   6.961 -0.0545  0.1870 -0.2227
    6MOL0     C  692   4.784   4.742   7.005  0.5016  0.2773  0.2363
    6MOL0     O  693   4.896   4.776   7.076  0.1791  0.3657 -0.2671
    6MOL0     C  694   4.916   4.907   7.114  0.1986 -0.0415 -0.0626
    6MOL0     C  695   4.925   4.940   7.241  0.3311  0.6526 -1.0059
    6MOL0     C  696   4.963   5.061   7.291 -0.3871 -0.9780 -0.4681
    6MOL0     C  697   4.994   5.161   7.202  0.1463 -0.4028 -0.7570
    6MOL0     O  698   5.044   5.278   7.240  0.0633  0.4995 -0.4141
    6MOL0     C  699   5.061   5.326   7.372 -0.3482 -0.3094 -0.4258
    6MOL0     C  700   4.928   5.394   7.409  0.6625  0.3943 -0.0859
    6MOL0     C  701   4.927   5.473   7.540 -0.7903  0.1131  0.6006
    6MOL0     C  702   4.791   5.517   7.576  0.2998  0.0821  0.6497
    6MOL0     C  703   4.744   5.644   7.499  0.0786 -0.1196 -0.1950
    6MOL0     C  704   4.616   5.699   7.566 -0.9544  0.5974 -0.6700
    6MOL0     C  705   4.490   5.602   7.580 -0.4479 -0.6293 -0.4393
    6MOL0     C  706   4.434   5.560   7.451  1.4573  0.0141  0.0144
    6MOL0     N  707   4.305   5.471   7.453 -0.3178 -0.2501 -0.3597
    6MOL0     C  708   4.194   5.481   7.531 -0.1359 -0.2655 -0.6420
    6MOL0     C  709   4.128   5.372   7.508 -0.1978  1.0462 -0.1845
    6MOL0     C  710   3.985   5.364   7.575  0.1099 -0.3176 -0.4292
    6MOL0     C  711   3.969   5.309   7.708 -0.5420 -0.8723 -0.8031
    6MOL0     C  712   4.037   5.394   7.816  0.1079  0.0841  0.3881
    6MOL0     C  713   3.980   5.531   7.837  0.5959 -0.3522  0.2639
    6MOL0     O  714   3.835   5.531   7.837 -1.3520 -0.3682 -0.1285
    6MOL0     C  715   3.756   5.637   7.874  0.8043 -0.5012  0.4847
    6MOL0     C  716   3.624   5.621   7.882  0.9522  0.5314  0.5476
    6MOL0     C  717   3.539   5.729   7.926 -0.4497 -0.1970  0.3361
    6MOL0     C  718   3.390   5.717   7.927 -0.0497  0.6871  0.4601
    6MOL0     C  719   3.596   5.856   7.940 -0.6527  0.3745  0.8228
    6MOL0     C  720   3.524   5.972   7.990 -0.5527 -1.6119  0.2992
    6MOL0     O  721   3.563   6.090   7.928  0.2141 -0.4106 -0.0298
    6MOL0     C  722   3.487   6.195   7.955 -0.7379 -0.1649 -0.3003
    6MOL0     C  723   3.386   6.228   7.867 -0.6536 -0.4586  0.4295
    6MOL0     C  724   3.322   6.350   7.875  0.1460 -0.3422  0.1529
    6MOL0     C  725   3.339   6.433   7.983 -0.0765 -0.0982 -0.2901
    6MOL0     O  726   3.255   6.547   7.984  0.0978  0.3832  0.1518
    6MOL0     C  727   3.249   6.622   8.107 -0.3739  0.5229  0.0128
    6MOL0     C  728   3.155   6.748   8.086 -0.2158 -0.0699 -0.5136
    6MOL0     C  729   3.235   6.870   8.027 -1.4696  0.5692 -0.2469
    6MOL0     C  730   3.149   6.989   7.998  0.2929  0.1996 -0.4837
    6MOL0     C  731   3.081   7.058   8.127 -0.8371 -0.7564 -0.2565
    6MOL0     C  732   3.006   7.188   8.093  0.1754 -0.1344  0.5096
    6MOL0     C  733   2.888   7.168   7.991 -0.0999  0.3056  0.5394
    6MOL0     C  734   2.921   7.223   7.853 -0.2675  0.3632  0.2295
    6MOL0    Cl  735   2.780   7.210   7.741  0.3289  0.4983 -0.0674
    6MOL0     C  736   3.438   6.392   8.081  0.5805 -0.3202  0.0552
    6MOL0     C  737   3.516   6.273   8.068  0.4692 -1.1696 -0.5807
    6MOL0     O  738   3.421   5.963   8.065 -0.2695  0.5417 -0.6493
    6MOL0     C  739   3.731   5.870   7.928 -0.6657 -0.0810  0.1982
    6MOL0     C  740   3.810   5.764   7.887 -0.8764 -0.5876 -0.4327
    6MOL0     N  741   4.197   5.281   7.440  0.2518  0.3013 -0.3254
    6MOL0     N  742   4.310   5.341   7.419  0.0320 -0.4163  0.1221
    6MOL0     C  743   4.987   5.129   7.066  0.2812  0.4417  0.0310
    6MOL0     C  744   4.952   5.004   7.022  0.1941  0.3278 -0.1294
    6MOL0     C  745   4.774   4.609   6.948 -0.5836 -0.2521 -0.0100
    6MOL0     C  746   4.896   4.562   6.889  0.1182  0.4226  0.9556
    6MOL0     C  747   4.906   4.443   6.816  0.2136 -0.5467  0.2731
    6MOL0     C  748   4.786   4.368   6.803 -1.3750  0.0412  0.1356
    6MOL0     O  749   4.802   4.250   6.743  0.1164  0.3308 -0.7734
    6MOL0     C  750   4.817   4.259   6.603 -0.3776 -0.0352  0.9011
    6MOL0     C  751   4.862   4.125   6.562  0.2587 -0.9072  0.8638
    6MOL0     C  752   4.828   4.111   6.412 -0.1229 -1.0035 -0.2726
    6MOL0     C  753   4.886   4.217   6.317  0.6563 -0.5784  0.8275
    6MOL0     C  754   4.790   4.329   6.308 -0.2096 -0.7190 -0.2652
    6MOL0     C  755   4.717   4.427   6.305  0.5551  1.1406 -0.1091
    6MOL0     C  756   4.667   4.410   6.867  0.2549  0.2572  0.7176
    6MOL0     C  757   4.652   4.529   6.928 -0.3151 -0.6849  0.5831
    6MOL0     C  758   4.518   4.566   6.978  0.8231 -1.1647 -0.5843
    6MOL0     H  759   4.898   4.866   7.316 -0.5107 -0.3789 -2.2966
    6MOL0     H  760   4.955   5.069   7.399  1.7952 -0.6875 -0.2969
    6MOL0     H  761   5.138   5.403   7.371 -1.1178  0.5229  0.5492
    6MOL0     H  762   5.086   5.247   7.444  0.5762 -0.4016 -0.8465
    6MOL0     H  763   4.912   5.463   7.326  0.3303 -0.6041 -0.8790
    6MOL0     H  764   4.845   5.323   7.411 -0.1258  1.3148  0.5274
    6MOL0     H  765   4.934   5.405   7.626 -1.6415  1.0372  1.4347
    6MOL0     H  766   5.003   5.551   7.552 -1.6502  1.0428  0.1186
    6MOL0     H  767   4.722   5.433   7.574 -1.8093  1.7290 -2.4510
    6MOL0     H  768   4.813   5.555   7.677  0.2648 -0.1263  0.7360
    6MOL0     H  769   4.717   5.617   7.396 -1.8625 -2.1658  0.7581
    6MOL0     H  770   4.823   5.719   7.503 -0.1524  0.1805 -1.0134
    6MOL0     H  771   4.642   5.718   7.671 -0.3765 -3.7660  0.1650
    6MOL0     H  772   4.577   5.789   7.517 -3.4574 -1.3018 -2.4105
    6MOL0     H  773   4.412   5.643   7.644  0.8433  1.0202  0.1562
    6MOL0     H  774   4.522   5.514   7.637  0.2064  2.3883  4.3724
    6MOL0     H  775   4.411   5.647   7.390  0.8851 -1.8153 -2.5793
    6MOL0     H  776   4.503   5.505   7.386 -1.8860 -2.7697 -1.5005
    6MOL0     H  777   4.163   5.574   7.578  2.0522  0.9005 -1.3522
    6MOL0     H  778   3.923   5.302   7.509 -0.6725  0.4957 -0.4740
    6MOL0     H  779   3.942   5.464   7.569  0.2222 -0.1594  1.0044
    6MOL0     H  780   3.862   5.294   7.723 -0.5610  0.4394  0.6322
    6MOL0     H  781   4.023   5.214   7.715  1.4886  0.3219  3.9084
    6MOL0     H  782   4.015   5.342   7.910 -1.5543  0.0446  0.0158
    6MOL0     H  783   4.146   5.400   7.809  0.2385  0.4302  2.1755
    6MOL0     H  784   4.026   5.567   7.929  1.1755 -1.3654  0.3830
    6MOL0     H  785   4.010   5.604   7.760  1.8110 -1.9486 -0.8410
    6MOL0     H  786   3.576   5.525   7.863  0.8898  0.1580  2.4229
    6MOL0     H  787   3.351   5.772   7.841 -3.1832 -0.5432  0.9496
    6MOL0     H  788   3.344   5.745   8.022  1.5699 -0.2049  1.5626
    6MOL0     H  789   3.368   5.613   7.899  2.8907  0.5248 -1.8693
    6MOL0     H  790   3.363   6.168   7.780 -0.6397 -2.5112  1.7674
    6MOL0     H  791   3.245   6.377   7.805 -0.8961 -2.2857  0.4713
    6MOL0     H  792   3.235   6.559   8.195 -1.9470 -1.4821 -1.5889
    6MOL0     H  793   3.348   6.658   8.139  0.0229 -0.1742 -0.4195
    6MOL0     H  794   3.067   6.729   8.024 -2.0115  3.6553  0.6415
    6MOL0     H  795   3.122   6.768   8.188  3.2220 -0.1368  0.7427
    6MOL0     H  796   3.282   6.835   7.935  1.5613  0.6157  1.1530
    6MOL0     H  797   3.313   6.903   8.096 -1.9365 -1.3891  1.3158
    6MOL0     H  798   3.064   6.948   7.942 -1.0949 -3.0136  3.4643
    6MOL0     H  799   3.206   7.057   7.935 -1.0723  2.2803  0.4137
    6MOL0     H  800   3.008   6.994   8.178 -0.5589  0.1015  1.2776
    6MOL0     H  801   3.154   7.092   8.201  0.7232 -0.3267 -1.9260
    6MOL0     H  802   3.068   7.270   8.057  0.7214  0.2934  2.3030
    6MOL0     H  803   2.960   7.224   8.186 -2.2048 -0.4991 -0.4681
    6MOL0     H  804   2.804   7.229   8.025 -0.3978  1.1365 -1.5269
    6MOL0     H  805   2.865   7.061   7.988  0.3466  0.2077 -2.2546
    6MOL0     H  806   3.003   7.164   7.811 -0.9614 -0.2500 -0.3102
    6MOL0     H  807   2.954   7.327   7.857 -0.8549  0.5986 -0.8036
    6MOL0     H  808   3.439   6.451   8.172 -0.7149  1.1440 -0.8229
    6MOL0     H  809   3.591   6.237   8.138  0.0181 -0.5125  0.2600
    6MOL0     H  810   3.780   5.967   7.932  1.1026 -0.7096 -2.9176
    6MOL0     H  811   3.913   5.791   7.871 -0.8280 -0.3017  0.3087
    6MOL0     H  812   5.010   5.199   6.985 -0.0618  0.9562  0.3736
    6MOL0     H  813   4.960   4.974   6.918  1.6009 -1.9804  0.5612
    6MOL0     H  814   4.981   4.625   6.911 -0.3604  0.8504  1.6036
    6MOL0     H  815   4.995   4.395   6.775 -0.2749  1.3795 -3.4533
    6MOL0     H  816   4.730   4.300   6.552  0.2556  0.5946  0.2964
    6MOL0     H  817   4.902   4.326   6.584 -0.7253  1.3681  3.6934
    6MOL0     H  818   4.817   4.045   6.622 -0.3301 -2.1298 -1.1181
    6MOL0     H  819   4.968   4.107   6.581  0.2075 -0.9278  1.1320
    6MOL0     H  820   4.868   4.015   6.378 -1.9039 -0.7318 -3.5100
    6MOL0     H  821   4.721   4.096   6.399 -0.4746  0.5873  0.5214
    6MOL0     H  822   4.888   4.176   6.215 -0.3453  0.6008  0.3008
    6MOL0     H  823   4.981   4.262   6.348  1.8999  1.5299 -4.7232
    6MOL0     H  824   4.661   4.516   6.325 -1.5820  0.3485 -2.0891
    6MOL0     H  825   4.576   4.352   6.874 -0.9824  1.8285 -1.1582
    6MOL0     H  826   4.442   4.488   6.971 -0.7732  0.4896 -3.2314
    6MOL0     H  827   4.533   4.594   7.083  0.9342  0.2696 -0.9646
    6MOL0     H  828   4.479   4.646   6.916  1.9126 -0.0156  0.1606
    7MOL0     O  829   9.720   4.548   5.079  0.7218 -0.0200  0.0006
    7MOL0     C  830   9.608   4.574   5.114  0.1918  0.4535 -0.6105
    7MOL0     O  831   9.492   4.514   5.070  0.2815 -0.2580  0.3325
    7MOL0     C  832   9.493   4.406   4.979  0.0153 -0.5338  0.1325
    7MOL0     C  833   9.584   4.307   4.977 -0.2700  1.2078 -1.3547
    7MOL0     C  834   9.572   4.206   4.883 -0.4421  0.8719 -0.1504
    7MOL0     C  835   9.475   4.207   4.782  0.2272 -0.4475 -0.3558
    7MOL0     O  836   9.455   4.127   4.678  0.0304  0.1286  0.1066
    7MOL0     C  837   9.569   4.058   4.636 -0.2525  0.6385  0.1217
    7MOL0     C  838   9.522   3.921   4.586  0.1338  0.8161  0.5370
    7MOL0     C  839   9.475   3.917   4.438 -0.0078  0.1153  0.4561
    7MOL0     C  840   9.455   3.774   4.387 -0.2541  0.2455 -0.2761
    7MOL0     C  841   9.373   3.762   4.259  0.3644 -0.0322 -0.1466
    7MOL0     C  842   9.434   3.855   4.146 -0.3498  0.4818  0.1908
    7MOL0     C  843   9.317   3.893   4.048  0.1133  0.1031 -0.3899
    7MOL0     C  844   9.368   3.897   3.906 -0.4332  0.1867  0.4098
    7MOL0     N  845   9.321   4.000   3.816 -0.0787  0.4702  0.4149
    7MOL0     C  846   9.378   4.030   3.688  0.7748  0.5160 -0.9495
    7MOL0     C  847   9.318   4.135   3.628  0.3279 -0.9372  0.1752
    7MOL0     C  848   9.323   4.186   3.488 -0.1332  0.1860  0.8037
    7MOL0     C  849   9.192   4.141   3.432 -0.7992  0.2771  1.4066
    7MOL0     C  850   9.156   4.209   3.291 -0.6664  0.8109 -0.6920
    7MOL0     C  851   9.042   4.125   3.227  0.5401 -0.4560  0.6104
    7MOL0     O  852   8.916   4.148   3.294  0.8392  0.3217 -0.5780
    7MOL0     C  853   8.812   4.068   3.256 -0.4583 -0.4777 -0.3828
    7MOL0     C  854   8.735   4.024   3.361  0.7760  0.3178 -0.1176
    7MOL0     C  855   8.622   3.941   3.320  0.5691  0.4733 -1.1190
    7MOL0     C  856   8.533   3.876   3.429  1.1281  0.9449 -0.1052
    7MOL0     C  857   8.589   3.913   3.186  0.0478 -0.0916 -0.1273
    7MOL0     C  858   8.484   3.824   3.145  0.1964 -0.0242  0.9478
    7MOL0     O  859   8.407   3.848   3.042  0.1855 -0.6298 -0.2762
    7MOL0     C  860   8.326   3.755   2.977 -0.1766  0.1423 -0.0045
    7MOL0     C  861   8.381   3.637   2.937 -0.0247  0.5046  1.0426
    7MOL0     C  862   8.304   3.553   2.862  0.2515  0.6362 -0.4189
    7MOL0     C  863   8.169   3.582   2.825  0.2145 -0.1221  1.3971
    7MOL0     O  864   8.104   3.490   2.743  0.1088  0.1205  0.2910
    7MOL0     C  865   7.957   3.497   2.712 -0.1345 -0.4160  0.4097
    7MOL0     C  866   7.910   3.370   2.666  0.5268  0.4588  0.1340
    7MOL0     C  867   7.978   3.305   2.542  0.2559  0.5547  0.6386
    7MOL0     C  868   7.917   3.170   2.488  0.4762  0.1812 -0.2453
    7MOL0     C  869   7.968   3.130   2.352  0.0190 -1.1721 -0.4783
    7MOL0     C  870   7.900   3.213   2.244 -0.6419  0.4263 -0.2495
    7MOL0     C  871   7.960   3.217   2.099 -0.7772 -0.9740 -0.7587
    7MOL0     C  872   8.079   3.307   2.087 -0.3630  0.2077 -0.3768
    7MOL0    Cl  873   8.018   3.470   2.121 -0.0348  0.4712  0.2219
    7MOL0     C  874   8.113   3.699   2.871  0.3434  0.0250  0.3002
    7MOL0     C  875   8.196   3.790   2.948  0.9071 -0.1367  0.3761
    7MOL0     O  876   8.494   3.709   3.203 -0.0634 -0.3038  0.1122
    7MOL0     C  877   8.661   3.971   3.081 -0.5666  0.1936 -0.0743
    7MOL0     C  878   8.782   4.042   3.117  0.0806  0.8198  0.5578
    7MOL0     N  879   9.217   4.167   3.715 -0.8904 -0.0979 -1.1390
    7MOL0     N  880   9.222   4.097   3.820 -0.3940  0.7405 -0.3728
    7MOL0     C  881   9.384   4.306   4.795  0.6358 -0.0549  0.4794
    7MOL0     C  882   9.383   4.402   4.892  0.8665  0.0045 -0.2090
    7MOL0     C  883   9.590   4.689   5.213 -0.1489  0.1792 -0.3263
    7MOL0     C  884   9.467   4.755   5.208  0.0099 -0.3238 -0.8938
    7MOL0     C  885   9.435   4.849   5.297 -0.4043 -0.4701 -0.7874
    7MOL0     C  886   9.509   4.873   5.413 -0.3123  0.2946  0.0783
    7MOL0     O  887   9.463   4.960   5.509  0.0229 -0.4182 -0.0262
    7MOL0     C  888   9.452   5.103   5.480  0.7735  0.1677  0.8621
    7MOL0     C  889   9.329   5.149   5.386 -0.0718  0.3695  0.1060
    7MOL0     C  890   9.306   5.297   5.392 -0.0443 -0.2896  0.5704
    7MOL0     C  891   9.208   5.336   5.284  0.5725  0.1094  0.4197
    7MOL0     C  892   9.158   5.471   5.321 -0.4442 -0.0024  1.2143
    7MOL0     C  893   9.123   5.583   5.335  0.4424 -0.1523  0.8433
    7MOL0     C  894   9.631   4.802   5.427 -0.7444 -0.2146  0.1986
    7MOL0     C  895   9.676   4.716   5.324  0.4501  0.8963 -0.2529
    7MOL0     C  896   9.800   4.645   5.360  0.2426  0.2062  0.1214
    7MOL0     H  897   9.658   4.290   5.055 -2.1592 -1.1100  0.0972
    7MOL0     H  898   9.642   4.124   4.890 -1.1856  0.3535  1.8966
    7MOL0     H  899   9.642   4.033   4.714 -0.3942  1.7974  0.6518
    7MOL0     H  900   9.635   4.117   4.572  2.0150  0.4240  2.0841
    7MOL0     H  901   9.603   3.848   4.598 -0.1243  0.1889 -1.1853
    7MOL0     H  902   9.433   3.898   4.644 -2.6856  4.6837 -1.7608
    7MOL0     H  903   9.376   3.964   4.433 -0.6143 -1.2675 -1.3307
    7MOL0     H  904   9.544   3.973   4.375 -0.2109  3.2062  2.7045
    7MOL0     H  905   9.554   3.735   4.362  0.7382  0.8309  2.3796
    7MOL0     H  906   9.405   3.711   4.462 -0.6932 -1.8396 -2.1903
    7MOL0     H  907   9.268   3.782   4.283  1.2141  6.3856  0.0970
    7MOL0     H  908   9.374   3.660   4.220  3.1807 -0.3064  0.4424
    7MOL0     H  909   9.467   3.952   4.185  0.5652 -0.1439  1.0325
    7MOL0     H  910   9.530   3.820   4.108 -0.2267  0.0903  0.8453
    7MOL0     H  911   9.268   3.990   4.065 -2.8996 -1.1477 -1.3785
    7MOL0     H  912   9.242   3.815   4.045  1.3707 -1.2286  1.0170
    7MOL0     H  913   9.476   3.912   3.912 -0.1573 -1.3594 -0.2677
    7MOL0     H  914   9.354   3.800   3.858 -2.2668  1.4692 -1.8226
    7MOL0     H  915   9.462   3.985   3.638  1.0920  0.9718 -0.8336
    7MOL0     H  916   9.407   4.141   3.434  0.2688 -1.1334  2.4699
    7MOL0     H  917   9.331   4.295   3.489  0.9584  0.1596 -0.9899
    7MOL0     H  918   9.201   4.033   3.422 -2.0061 -0.1740  4.2880
    7MOL0     H  919   9.109   4.176   3.494 -3.6292 -2.8715 -0.3260
    7MOL0     H  920   9.139   4.317   3.298 -1.3716  0.8037 -1.9516
    7MOL0     H  921   9.241   4.201   3.222 -0.8611  0.5196 -0.8995
    7MOL0     H  922   9.036   4.137   3.119  1.3665 -0.5473  0.5525
    7MOL0     H  923   9.075   4.021   3.232  1.9850 -0.1075 -0.8918
    7MOL0     H  924   8.758   4.030   3.467 -3.5803  0.1026  1.0527
    7MOL0     H  925   8.569   3.778   3.461  0.7572  0.9348  0.2888
    7MOL0     H  926   8.427   3.873   3.402  0.2538 -1.2072  3.0928
    7MOL0     H  927   8.538   3.937   3.519  1.6922 -0.1945  0.6458
    7MOL0     H  928   8.480   3.603   2.965  0.2361 -0.6656 -1.1138
    7MOL0     H  929   8.342   3.456   2.832 -0.7550 -0.0917  0.5954
    7MOL0     H  930   7.905   3.517   2.807 -2.3632  0.7699 -0.9629
    7MOL0     H  931   7.946   3.574   2.635  0.8126  2.2643  2.7541
    7MOL0     H  932   7.930   3.297   2.746 -0.2351  1.9245  1.7324
    7MOL0     H  933   7.802   3.385   2.659  0.9505  4.2208 -0.2029
    7MOL0     H  934   8.085   3.286   2.556  0.0041 -0.5136  1.2411
    7MOL0     H  935   7.973   3.383   2.465 -2.4028 -3.8804 -4.3435
    7MOL0     H  936   7.811   3.180   2.467  0.7399  1.4056 -1.0978
    7MOL0     H  937   7.935   3.078   2.545  0.1857  1.2495  1.6500
    7MOL0     H  938   8.073   3.159   2.339 -0.9079  2.5549 -1.0704
    7MOL0     H  939   7.951   3.024   2.335 -2.9216 -0.6655 -1.3938
    7MOL0     H  940   7.873   3.315   2.271  2.2404  1.4585 -0.9553
    7MOL0     H  941   7.799   3.170   2.248 -0.4146 -0.1458  3.8875
    7MOL0     H  942   7.888   3.267   2.033 -0.1796  0.4264 -0.3878
    7MOL0     H  943   7.986   3.113   2.076 -0.7004 -1.2327  0.4418
    7MOL0     H  944   8.134   3.312   1.992 -1.1788  1.2148 -0.8193
    7MOL0     H  945   8.154   3.275   2.160  1.1069  2.7859 -0.6162
    7MOL0     H  946   8.017   3.728   2.828  0.7870  0.5890 -0.3312
    7MOL0     H  947   8.151   3.885   2.975  0.8712  0.2345 -0.9164
    7MOL0     H  948   8.623   3.954   2.981  0.3716 -2.5351 -0.0613
    7MOL0     H  949   8.847   4.078   3.038 -0.6133 -0.2590 -0.5482
    7MOL0     H  950   9.311   4.314   4.715 -0.7478  1.7614  1.8563
    7MOL0     H  951   9.306   4.476   4.911  1.1891 -0.2057  2.3023
    7MOL0     H  952   9.400   4.721   5.130 -0.6314 -2.3839  0.4886
    7MOL0     H  953   9.343   4.902   5.281 -0.5152 -1.0560 -2.2564
    7MOL0     H  954   9.453   5.154   5.577  2.7546  3.0472 -0.5306
    7MOL0     H  955   9.549   5.122   5.432  1.0060 -1.8308  0.4349
    7MOL0     H  956   9.234   5.097   5.401  0.2019 -0.2207 -0.1725
    7MOL0     H  957   9.357   5.128   5.282 -3.1421  0.4492 -0.8368
    7MOL0     H  958   9.265   5.322   5.491 -2.3189 -2.6055  0.3214
    7MOL0     H  959   9.392   5.363   5.381 -0.7235  0.8088  1.5479
    7MOL0     H  960   9.125   5.265   5.296 -0.2709  1.1051  0.7057
    7MOL0     H  961   9.256   5.341   5.186  0.8413 -6.2962 -0.2272
    7MOL0     H  962   9.075   5.676   5.355  1.4093  0.4813  0.2915
    7MOL0     H  963   9.683   4.815   5.521 -0.7555  1.1276  0.0385
    7MOL0     H  964   9.855   4.582   5.289  1.3678 -1.1392  2.1063
    7MOL0     H  965   9.875   4.715   5.399 -2.0575  1.4230  2.6156
    7MOL0     H  966   9.779   4.566   5.432 -2.3030 -3.1267 -3.8341
    8MOL0     O  967   2.878  10.402   7.142 -0.5476  0.4295 -0.0685
    8MOL0     C  968   2.978  10.461   7.097 -0.5558  0.2003  0.0761
    8MOL0     O  969   3.014  10.594   7.101 -0.7332  0.7760 -0.6795
    8MOL0     C  970   2.925  10.688   7.159  0.6097  0.6518 -0.9460
    8MOL0     C  971   2.917  10.810   7.101 -0.5042  1.0309  0.5134
    8MOL0     C  972   2.858  10.916   7.169 -0.9588  0.0929  0.0623
    8MOL0     C  973   2.810  10.910   7.297  0.1186  0.4028 -0.7603
    8MOL0     O  974   2.768  11.029   7.357  0.1523 -0.1112  0.1368
    8MOL0     C  975   2.744  11.024   7.502  0.1988 -0.1690 -0.0941
    8MOL0     C  976   2.669  11.152   7.556  0.8092  0.3686 -0.1990
    8MOL0     C  977   2.527  11.141   7.502 -0.2182 -0.5680 -0.0248
    8MOL0     C  978   2.427  11.230   7.568 -0.0889 -0.6966 -0.0736
    8MOL0     C  979   2.436  11.374   7.497  0.6178  0.2423 -1.1815
    8MOL0     C  980   2.356  11.483   7.575 -0.1851  0.5461 -0.6589
    8MOL0     C  981   2.198  11.459   7.578 -0.8247 -0.0407 -0.1334
    8MOL0     C  982   2.113  11.553   7.667  0.9348  0.5545  0.3487
    8MOL0     N  983   1.974  11.513   7.644  0.1000  0.6214  0.1356
    8MOL0     C  984   1.901  11.428   7.722  0.6116  0.4983 -0.8622
    8MOL0     C  985   1.773  11.434   7.684  0.7145  0.6674  0.0427
    8MOL0     C  986   1.646  11.356   7.731 -0.7978 -0.2210 -1.1225
    8MOL0     C  987   1.524  11.357   7.639 -0.5003 -0.1007 -0.0339
    8MOL0     C  988   1.408  11.455   7.646 -0.0785  0.1586 -0.0923
    8MOL0     C  989   1.455  11.605   7.653  0.3286 -0.3062 -1.2732
    8MOL0     O  990   1.363  11.684   7.732  0.2930  0.4913 -0.0005
    8MOL0     C  991   1.403  11.779   7.820  0.1496 -0.7887  0.9932
    8MOL0     C  992   1.314  11.880   7.841  0.3126  0.1965  0.7401
    8MOL0     C  993   1.337  11.972   7.945  0.0242 -0.4664 -0.7253
    8MOL0     C  994   1.236  12.078   7.948  0.0007 -0.0983 -0.1482
    8MOL0     C  995   1.447  11.962   8.033 -0.4925  0.4206 -0.2110
    8MOL0     C  996   1.465  12.044   8.163 -1.1473 -0.6233  0.4158
    8MOL0     O  997   1.597  12.031   8.220  0.0037 -0.1980  0.5111
    8MOL0     C  998   1.644  12.116   8.316 -0.3396  0.7880 -0.1739
    8MOL0     C  999   1.666  12.059   8.449  0.5764 -0.3268  0.4089
    8MOL0     C 1000   1.715  12.153   8.549  0.6291  0.3532 -0.1036
    8MOL0     C 1001   1.729  12.293   8.524 -0.9241 -0.4634  0.0887
    8MOL0     O 1002   1.798  12.366   8.618  1.2442 -0.2222 -0.2214
    8MOL0     C 1003   1.921  12.415   8.565  0.0828 -0.0465 -0.6474
    8MOL0     C 1004   2.006  12.457   8.687 -0.1072  1.3000 -1.5035
    8MOL0     C 1005   2.148  12.516   8.659  0.5685  0.5968 -0.2115
    8MOL0     C 1006   2.150  12.674   8.656  0.1602 -0.2627  0.1577
    8MOL0     C 1007   2.250  12.727   8.549 -0.4570  1.0275  0.8806
    8MOL0     C 1008   2.265  12.879   8.567  0.5466 -0.3423  0.4582
    8MOL0     C 1009   2.312  12.936   8.431 -0.2615  0.2266 -0.3733
    8MOL0     C 1010   2.406  13.068   8.453  0.9365  0.9260  1.0570
    8MOL0    Cl 1011   2.460  13.107   8.291  0.1395  0.6959 -0.2051
    8MOL0     C 1012   1.690  12.346   8.401 -0.4880  0.5883  0.8198
    8MOL0     C 1013   1.661  12.257   8.296  0.5295 -0.1084 -0.6040
    8MOL0     O 1014   1.368  12.110   8.200 -0.2264 -0.5206 -0.8545
    8MOL0     C 1015   1.549  11.878   7.995 -0.7312  1.1170  1.1559
    8MOL0     C 1016   1.523  11.789   7.893  0.1475  1.2439  0.4718
    8MOL0     N 1017   1.765  11.525   7.579  0.2443  0.1181  0.6549
    8MOL0     N 1018   1.891  11.575   7.559  0.0492  0.1869 -0.6648
    8MOL0     C 1019   2.808  10.783   7.348 -0.2198 -0.6011  0.1482
    8MOL0     C 1020   2.866  10.671   7.283  0.0597  0.6878  0.0988
    8MOL0     C 1021   3.071  10.392   7.014 -0.6035 -0.0222  0.4935
    8MOL0     C 1022   3.042  10.387   6.878  0.1034  0.2179  0.7402
    8MOL0     C 1023   3.130  10.334   6.783  0.0234 -1.0982 -0.1126
    8MOL0     C 1024   3.248  10.255   6.832 -0.0457  1.0534  0.2176
    8MOL0     O 1025   3.338  10.188   6.749 -0.1014  0.2890 -0.0660
    8MOL0     C 1026   3.309  10.189   6.604  0.0858 -0.6050 -0.1176
    8MOL0     C 1027   3.405  10.085   6.533 -0.1731 -0.6063 -0.0779
    8MOL0     C 1028   3.367  10.060   6.390  0.8366  0.8567  1.9973
    8MOL0     C 1029   3.258   9.945   6.375 -0.2343  0.4482  0.2118
    8MOL0     C 1030   3.305   9.814   6.427  0.5756  0.1622 -0.2472
    8MOL0     C 1031   3.365   9.729   6.483  0.2828 -0.0129  0.0984
    8MOL0     C 1032   3.277  10.257   6.963 -0.1772 -0.4769  0.3536
    8MOL0     C 1033   3.192  10.327   7.061 -0.2665  0.7943  0.4486
    8MOL0     C 1034   3.247  10.308   7.191 -0.1177 -0.5008 -0.0204
    8MOL0     H 1035   2.960  10.814   7.001 -1.6297 -3.1600 -0.3459
    8MOL0     H 1036   2.880  11.008   7.117  1.4532 -1.9795 -2.9620
    8MOL0     H 1037   2.840  11.007   7.553 -0.2541  0.6943  1.0911
    8MOL0     H 1038   2.677  10.941   7.523 -1.2383  0.9214 -0.2451
    8MOL0     H 1039   2.668  11.140   7.665 -0.4907 -3.4470 -0.4925
    8MOL0     H 1040   2.703  11.251   7.524  0.3603  0.1254 -1.5132
    8MOL0     H 1041   2.524  11.149   7.392  0.9054  0.6102  0.0030
    8MOL0     H 1042   2.498  11.040   7.530  0.8357 -0.5172  1.3073
    8MOL0     H 1043   2.326  11.191   7.556 -0.4293 -1.0544  2.9756
    8MOL0     H 1044   2.448  11.237   7.675  0.1457 -4.3202  0.2165
    8MOL0     H 1045   2.399  11.361   7.395  2.0876 -2.0546 -1.4914
    8MOL0     H 1046   2.543  11.399   7.495  0.6095  0.8022  1.4243
    8MOL0     H 1047   2.382  11.503   7.680  0.7566 -1.4530 -0.4664
    8MOL0     H 1048   2.390  11.567   7.514  1.0969  1.1931  0.8755
    8MOL0     H 1049   2.187  11.353   7.599 -0.0340  0.0493  0.8278
    8MOL0     H 1050   2.172  11.485   7.476  1.5704 -1.6004 -1.2370
    8MOL0     H 1051   2.144  11.536   7.770  5.8418  3.3607 -0.3564
    8MOL0     H 1052   2.130  11.658   7.645  1.4120 -0.0286 -2.3982
    8MOL0     H 1053   1.936  11.371   7.807 -2.3281 -1.8988 -1.0706
    8MOL0     H 1054   1.623  11.411   7.823  5.2934  0.6508  0.2713
    8MOL0     H 1055   1.669  11.253   7.760  1.5596  0.9148  1.5115
    8MOL0     H 1056   1.561  11.353   7.536 -1.0276 -0.1465 -0.2302
    8MOL0     H 1057   1.478  11.259   7.656  1.5166 -1.6088 -2.4625
    8MOL0     H 1058   1.352  11.443   7.553  0.2185 -4.8150  0.1134
    8MOL0     H 1059   1.344  11.429   7.730 -1.5225  1.1284 -0.8429
    8MOL0     H 1060   1.556  11.613   7.695 -0.3464  0.4789  0.2900
    8MOL0     H 1061   1.457  11.646   7.552  2.6088  0.6212 -0.9177
    8MOL0     H 1062   1.225  11.874   7.780  1.0282 -0.3777 -0.2851
    8MOL0     H 1063   1.162  12.069   7.867  0.2979  0.9836 -0.5475
    8MOL0     H 1064   1.270  12.181   7.953  2.0330 -0.7661  1.1444
    8MOL0     H 1065   1.174  12.068   8.038  0.1715 -1.0527 -0.1179
    8MOL0     H 1066   1.654  11.953   8.464 -0.7806 -0.1330  0.8656
    8MOL0     H 1067   1.749  12.108   8.643 -1.3031 -2.2404 -0.5406
    8MOL0     H 1068   1.968  12.331   8.512 -0.0364 -0.6307  0.1514
    8MOL0     H 1069   1.916  12.503   8.501 -0.2016  0.0457 -0.5004
    8MOL0     H 1070   1.949  12.522   8.753  0.5304 -0.5731  1.0598
    8MOL0     H 1071   2.022  12.365   8.744 -1.0368  3.0796  1.8506
    8MOL0     H 1072   2.190  12.468   8.571 -1.3453 -1.8028  0.0633
    8MOL0     H 1073   2.211  12.483   8.741  0.9722  0.0443 -0.7358
    8MOL0     H 1074   2.164  12.719   8.755  0.7982  3.0528 -1.2879
    8MOL0     H 1075   2.053  12.696   8.610  0.6124 -1.5088 -1.4699
    8MOL0     H 1076   2.342  12.669   8.564 -1.8530 -1.3915  0.6074
    8MOL0     H 1077   2.206  12.711   8.451  0.2791 -1.2655  0.8686
    8MOL0     H 1078   2.330  12.899   8.652 -0.5057  1.0175  0.9935
    8MOL0     H 1079   2.166  12.923   8.584  0.7020  0.3465 -0.3383
    8MOL0     H 1080   2.240  12.958   8.352  2.0911  0.2506 -2.6448
    8MOL0     H 1081   2.389  12.865   8.399 -0.2900  0.9799 -2.2729
    8MOL0     H 1082   2.493  13.035   8.510  0.5815 -1.5075  0.2860
    8MOL0     H 1083   2.348  13.152   8.493 -2.0026 -0.0551 -0.7990
    8MOL0     H 1084   1.718  12.450   8.385 -0.8016  1.2603  4.0254
    8MOL0     H 1085   1.645  12.293   8.195 -2.6560 -0.7326 -0.4070
    8MOL0     H 1086   1.648  11.876   8.039 -1.0044 -2.3030  1.9042
    8MOL0     H 1087   1.597  11.710   7.884 -0.1949  1.0421 -0.9560
    8MOL0     H 1088   2.758  10.768   7.444 -1.4496  2.0570 -0.0007
    8MOL0     H 1089   2.855  10.577   7.336  0.0958 -0.1619 -1.3596
    8MOL0     H 1090   2.955  10.444   6.845  0.0635 -0.6025 -0.6648
    8MOL0     H 1091   3.106  10.344   6.678  1.1047 -0.3352 -0.2959
    8MOL0     H 1092   3.203  10.174   6.585 -0.4588  1.6119  0.8546
    8MOL0     H 1093   3.336  10.286   6.559 -2.9367  0.9178  1.0846
    8MOL0     H 1094   3.422   9.994   6.591  1.7228  0.5535  1.3405
    8MOL0     H 1095   3.505  10.128   6.520 -0.6384  0.7036  0.4769
    8MOL0     H 1096   3.328  10.153   6.349 -1.5758  0.0206  2.2838
    8MOL0     H 1097   3.445  10.014   6.329 -2.0075 -1.8887  0.2100
    8MOL0     H 1098   3.248   9.936   6.267  1.9558 -0.2470  0.0262
    8MOL0     H 1099   3.156   9.972   6.406 -0.5735  0.9468 -1.2587
    8MOL0     H 1100   3.422   9.651   6.529 -0.8509 -0.2441  1.1680
    8MOL0     H 1101   3.361  10.205   7.007 -1.6713 -2.3089  1.1891
    8MOL0     H 1102   3.274  10.208   7.226 -0.5264  0.0524  2.0121
    8MOL0     H 1103   3.335  10.367   7.218 -0.0362 -1.7792  2.8848
    8MOL0     H 1104   3.176  10.352   7.263 -0.3609  3.8651 -2.5726
    9MOL0     O 1105   1.423   3.820   8.549  0.0270  0.2820  0.4905
    9MOL0     C 1106   1.439   3.940   8.530 -1.3703 -0.1378 -0.1191
    9MOL0     O 1107   1.517   4.017   8.610  0.8030  0.8808  0.8085
    9MOL0     C 1108   1.583   3.952   8.717 -0.5085  0.1049 -0.3487
    9MOL0     C 1109   1.700   3.876   8.693  0.3093  0.9133  0.4263
    9MOL0     C 1110   1.772   3.816   8.794 -0.3711 -0.2682  0.0450
    9MOL0     C 1111   1.736   3.858   8.923 -0.6141  0.2200 -0.3194
    9MOL0     O 1112   1.821   3.806   9.015 -0.1343  0.1857  0.3380
    9MOL0     C 1113   1.803   3.833   9.151 -0.4136 -0.3502  0.0105
    9MOL0     C 1114   1.901   3.733   9.205  0.2528 -0.0174  0.5268
    9MOL0     C 1115   1.884   3.721   9.356  0.4877 -0.6872  0.3273
    9MOL0     C 1116   1.961   3.610   9.425 -0.9662 -0.9455  0.3665
    9MOL0     C 1117   1.885   3.482   9.416 -0.1005 -0.9094  0.2124
    9MOL0     C 1118   1.974   3.373   9.459 -1.0007  0.8824 -1.2002
    9MOL0     C 1119   1.887   3.263   9.510  0.3551  0.0419 -0.3224
    9MOL0     C 1120   1.839   3.288   9.644  0.6560 -0.1279 -0.5615
    9MOL0     N 1121   1.820   3.176   9.737  0.1055  0.7136  0.1736
    9MOL0     C 1122   1.700   3.100   9.726  0.2082  0.2227  1.0060
    9MOL0     C 1123   1.699   3.022   9.837  0.1908 -0.0650 -0.3250
    9MOL0     C 1124   1.594   2.916   9.863  0.2191 -0.0931  0.5275
    9MOL0     C 1125   1.467   2.979   9.931 -0.0388  0.1375 -0.6317
    9MOL0     C 1126   1.498   3.055  10.063  0.2533 -0.7334  0.9084
    9MOL0     C 1127   1.382   3.053  10.170 -0.7921 -0.1537  0.3216
    9MOL0     O 1128   1.267   3.100  10.113  0.3357  0.0947  0.3154
    9MOL0     C 1129   1.160   3.027  10.158  0.6210 -0.6883 -0.0151
    9MOL0     C 1130   1.108   2.951  10.056  0.0399 -0.1019 -0.9636
    9MOL0     C 1131   1.011   2.855  10.087  0.7130  0.2038 -0.6326
    9MOL0     C 1132   0.978   2.763   9.971 -1.0709 -0.1167 -0.8274
    9MOL0     C 1133   0.966   2.838  10.222 -0.5170 -0.3934 -0.8318
    9MOL0     C 1134   0.865   2.727  10.260 -0.6574 -0.3548 -0.2509
    9MOL0     O 1135   0.824   2.633  10.165 -0.3229 -1.2709 -0.0291
    9MOL0     C 1136   0.749   2.517  10.195 -0.1463 -0.2904 -0.5849
    9MOL0     C 1137   0.774   2.443  10.319  0.5782  0.4410  0.5565
    9MOL0     C 1138   0.692   2.328  10.347  0.2538 -0.3759  0.1515
    9MOL0     C 1139   0.603   2.283  10.249  0.1124  0.2799 -0.4273
    9MOL0     O 1140   0.561   2.150  10.263 -0.2655 -0.1323 -0.1066
    9MOL0     C 1141   0.430   2.109  10.211 -0.5514 -0.5211  0.6138
    9MOL0     C 1142   0.408   1.972  10.268 -0.3468  0.5970 -0.0103
    9MOL0     C 1143   0.505   1.870  10.210  0.2579  0.7931  0.3548
    9MOL0     C 1144   0.511   1.735  10.275  0.2094 -0.5553  0.7799
    9MOL0     C 1145   0.590   1.620  10.207 -0.3683 -0.7906 -0.2254
    9MOL0     C 1146   0.745   1.671  10.208  0.5558 -0.4758  0.5103
    9MOL0     C 1147   0.845   1.566  10.159 -0.4885 -0.4628 -0.3731
    9MOL0     C 1148   0.807   1.514  10.011 -0.9781 -0.6897 -0.9831
    9MOL0    Cl 1149   0.678   1.386  10.035  0.1997 -0.4769 -0.0643
    9MOL0     C 1150   0.568   2.360  10.140 -0.0844  0.8105  0.0112
    9MOL0     C 1151   0.645   2.477  10.118 -0.5433 -0.4305  0.2934
    9MOL0     O 1152   0.821   2.734  10.377 -0.0576 -0.1992  0.7432
    9MOL0     C 1153   1.016   2.930  10.322 -0.2088  0.2810  1.2030
    9MOL0     C 1154   1.118   3.011  10.294 -1.1608 -0.7815  0.1564
    9MOL0     N 1155   1.800   3.073   9.923  0.2542 -0.4058 -0.3507
    9MOL0     N 1156   1.876   3.152   9.856  1.0798  0.8946 -0.4054
    9MOL0     C 1157   1.638   3.952   8.952  1.3701  0.4819 -0.0568
    9MOL0     C 1158   1.562   4.000   8.849 -0.4849  0.7303 -0.0950
    9MOL0     C 1159   1.375   3.997   8.408  1.0565 -0.4630  0.3086
    9MOL0     C 1160   1.264   4.088   8.431 -0.1356  0.0053  0.6096
    9MOL0     C 1161   1.202   4.164   8.331 -1.1249 -0.8677  0.0670
    9MOL0     C 1162   1.257   4.151   8.204 -0.4958  0.2529  0.1056
    9MOL0     O 1163   1.189   4.219   8.108 -0.3029  0.6312  0.0007
    9MOL0     C 1164   1.083   4.142   8.055 -0.1875 -0.7116 -0.7915
    9MOL0     C 1165   1.032   4.191   7.918 -0.2613  0.3294 -0.3634
    9MOL0     C 1166   1.143   4.211   7.811 -0.3895 -0.3568 -1.2649
    9MOL0     C 1167   1.182   4.357   7.794 -0.4324  0.2013 -0.8086
    9MOL0     C 1168   1.296   4.360   7.711 -0.0914 -0.0659  0.6095
    9MOL0     C 1169   1.382   4.369   7.632 -0.1809 -0.0422 -0.4122
    9MOL0     C 1170   1.376   4.068   8.181 -0.3645  0.2911 -0.6387
    9MOL0     C 1171   1.442   4.002   8.286  0.4463 -0.2701  0.0159
    9MOL0     C 1172   1.570   3.921   8.259 -0.2503  0.4579  0.1198
    9MOL0     H 1173   1.749   3.864   8.597  4.1078 -1.6682  2.4270
    9MOL0     H 1174   1.852   3.745   8.774 -2.5679 -3.2948  1.1869
    9MOL0     H 1175   1.704   3.811   9.193 -0.0518 -1.4372  0.3169
    9MOL0     H 1176   1.827   3.939   9.161 -0.6747 -0.4563  2.0548
    9MOL0     H 1177   1.881   3.637   9.157  0.1320  0.6426 -0.7896
    9MOL0     H 1178   2.005   3.750   9.175 -0.3013 -0.2005 -1.6115
    9MOL0     H 1179   1.911   3.822   9.389  0.0288 -0.6378  0.5668
    9MOL0     H 1180   1.781   3.719   9.392  0.7893  1.1254  1.4085
    9MOL0     H 1181   2.058   3.608   9.376 -0.4171 -1.4866  1.4457
    9MOL0     H 1182   1.989   3.640   9.527  2.0338 -2.4304  0.0888
    9MOL0     H 1183   1.866   3.464   9.310 -3.3278  1.4275  0.2462
    9MOL0     H 1184   1.787   3.482   9.464 -1.8148  0.7523 -2.9698
    9MOL0     H 1185   2.037   3.331   9.380 -0.7024  1.7376 -1.4312
    9MOL0     H 1186   2.042   3.408   9.537  0.1637 -0.2731 -1.6781
    9MOL0     H 1187   1.953   3.181   9.539  1.1372  0.6904 -0.2267
    9MOL0     H 1188   1.813   3.229   9.437  1.6720  1.3509 -2.3823
    9MOL0     H 1189   1.914   3.348   9.698 -0.3233  0.3739  0.2820
    9MOL0     H 1190   1.742   3.337   9.640 -0.5623 -2.5030 -1.5230
    9MOL0     H 1191   1.638   3.111   9.637  1.2985 -1.2425  0.0183
    9MOL0     H 1192   1.640   2.851   9.938  1.1564 -1.7638 -1.4041
    9MOL0     H 1193   1.569   2.860   9.772 -0.1358  0.6889  0.1253
    9MOL0     H 1194   1.412   3.036   9.856 -2.5954 -1.3262 -0.0073
    9MOL0     H 1195   1.398   2.897   9.955  0.2335  0.0044 -0.2970
    9MOL0     H 1196   1.584   3.002  10.106 -0.6243 -2.8068  0.2224
    9MOL0     H 1197   1.534   3.158  10.050 -3.7372  0.8272  0.8681
    9MOL0     H 1198   1.366   2.948  10.198 -1.4298 -0.1202  0.1078
    9MOL0     H 1199   1.428   3.101  10.257  2.9648 -0.5892 -1.2545
    9MOL0     H 1200   1.136   2.964   9.951 -0.7191 -3.1267 -1.6168
    9MOL0     H 1201   1.009   2.659   9.986  2.8990  0.5612 -3.0463
    9MOL0     H 1202   1.034   2.799   9.885 -0.3024  2.6687  0.7210
    9MOL0     H 1203   0.871   2.758   9.949 -1.7300 -0.1990  1.9587
    9MOL0     H 1204   0.842   2.482  10.393 -2.8736  4.8890  1.8522
    9MOL0     H 1205   0.714   2.263  10.431  1.3023 -1.4055 -0.8726
    9MOL0     H 1206   0.346   2.167  10.252 -1.1631 -1.1687  0.3087
    9MOL0     H 1207   0.427   2.132  10.104 -0.2532  4.8991  1.5035
    9MOL0     H 1208   0.427   1.979  10.375 -1.5296  0.9773  0.1891
    9MOL0     H 1209   0.304   1.942  10.249 -0.0316  0.8011 -2.4679
    9MOL0     H 1210   0.605   1.911  10.195  0.8968 -0.9669 -0.5868
    9MOL0     H 1211   0.461   1.847  10.112  0.3896  0.9126  0.2671
    9MOL0     H 1212   0.411   1.701  10.302  1.1773 -1.4894  3.5854
    9MOL0     H 1213   0.555   1.753  10.374  1.0935  0.2815  0.2514
    9MOL0     H 1214   0.581   1.523  10.256 -0.3103  0.5106  2.5734
    9MOL0     H 1215   0.556   1.602  10.104  0.7911  0.6805 -0.8948
    9MOL0     H 1216   0.773   1.715  10.305 -1.9653  0.4419  0.8973
    9MOL0     H 1217   0.758   1.751  10.134  4.0615  0.5292  1.9908
    9MOL0     H 1218   0.841   1.486  10.234 -0.8565 -0.6557 -0.5946
    9MOL0     H 1219   0.947   1.605  10.169 -0.0398 -1.2807 -1.5387
    9MOL0     H 1220   0.896   1.470   9.964  1.5991 -2.0375  4.3969
    9MOL0     H 1221   0.777   1.603   9.954  2.8501  2.0640  0.8036
    9MOL0     H 1222   0.492   2.339  10.066  1.9062  0.7971 -2.1593
    9MOL0     H 1223   0.631   2.515  10.017 -1.9068 -0.4434  0.4587
    9MOL0     H 1224   0.988   2.932  10.427 -5.6125  1.4754  0.0698
    9MOL0     H 1225   1.166   3.072  10.371  1.4860 -2.5746  0.0626
    9MOL0     H 1226   1.619   3.990   9.052  0.8649 -1.8975  0.8183
    9MOL0     H 1227   1.472   4.056   8.872 -0.7231  0.3150 -0.0182
    9MOL0     H 1228   1.234   4.093   8.535 -0.2040 -0.7468  0.6352
    9MOL0     H 1229   1.114   4.226   8.343 -1.3880 -0.8013 -1.9748
    9MOL0     H 1230   1.125   4.044   8.031 -0.0193 -0.3322 -2.1775
    9MOL0     H 1231   1.001   4.137   8.127  0.2759  2.6544  0.1483
    9MOL0     H 1232   0.974   4.281   7.938  1.2433  1.3320 -0.3374
    9MOL0     H 1233   0.961   4.126   7.867 -0.7794  1.6756 -1.4050
    9MOL0     H 1234   1.222   4.146   7.850 -0.2364 -1.9539 -4.0341
    9MOL0     H 1235   1.108   4.175   7.714  0.9345 -0.3568 -1.7728
    9MOL0     H 1236   1.197   4.397   7.895 -1.1336 -3.5038  0.9558
    9MOL0     H 1237   1.097   4.415   7.758 -0.7346  2.0536  2.4546
    9MOL0     H 1238   1.460   4.375   7.558  0.8131  1.4911  0.6907
    9MOL0     H 1239   1.415   4.051   8.081  1.6549 -1.4257  0.3470
    9MOL0     H 1240   1.543   3.815   8.256  0.4937 -0.0011  4.1615
    9MOL0     H 1241   1.610   3.948   8.161 -0.0869  0.5803  0.2216
    9MOL0     H 1242   1.648   3.944   8.332 -0.2741  0.6075  0.0988
   10MOL0     O 1243   6.008   7.069   5.214  0.3783 -0.5093  0.1367
   10MOL0     C 1244   6.108   7.042   5.154 -0.0738 -0.3505  0.0863
   10MOL0     O 1245   6.207   7.130   5.134 -0.4544  0.4788 -0.6057
   10MOL0     C 1246   6.227   7.254   5.185  0.1447 -0.0034 -0.0571
   10MOL0     C 1247   6.345   7.324   5.160  0.1557  0.1462  0.0878
   10MOL0     C 1248   6.361   7.463   5.200 -0.2135 -0.0844  0.4517
   10MOL0     C 1249   6.257   7.525   5.263  0.0029 -0.7235 -0.1045
   10MOL0     O 1250   6.243   7.658   5.304 -0.6241  0.1111 -0.9232
   10MOL0     C 1251   6.273   7.757   5.211 -0.5095  0.3383  0.0453
   10MOL0     C 1252   6.356   7.864   5.275 -0.0204 -0.5188  0.0988
   10MOL0     C 1253   6.286   7.944   5.380  0.8456 -1.2192 -0.4403
   10MOL0     C 1254   6.351   8.086   5.384  0.2870 -0.1361 -0.3195
   10MOL0     C 1255   6.263   8.175   5.475  0.1797 -0.0631 -0.3044
   10MOL0     C 1256   6.326   8.318   5.477 -0.1650 -0.4318 -0.7824
   10MOL0     C 1257   6.217   8.428   5.503 -0.0330 -0.4774  1.1766
   10MOL0     C 1258   6.187   8.447   5.648 -0.0656  0.7999 -0.4270
   10MOL0     N 1259   6.063   8.519   5.668 -0.1573 -0.0144 -1.1790
   10MOL0     C 1260   6.051   8.647   5.725 -0.8450  1.1063 -0.3386
   10MOL0     C 1261   5.927   8.686   5.712  0.0045  0.2570  0.2903
   10MOL0     C 1262   5.878   8.823   5.750 -0.4448  0.5857 -0.1222
   10MOL0     C 1263   5.824   8.886   5.624 -0.6097 -0.2504 -0.6291
   10MOL0     C 1264   5.787   9.030   5.649  0.8708  0.4012  0.2608
   10MOL0     C 1265   5.758   9.104   5.518 -0.8892 -0.0472  0.1906
   10MOL0     O 1266   5.696   9.234   5.551  0.4212  0.0273  1.0209
   10MOL0     C 1267   5.561   9.252   5.546  0.0204  0.0085 -0.0164
   10MOL0     C 1268   5.540   9.378   5.566 -0.7433 -1.0269  0.5907
   10MOL0     C 1269   5.409   9.445   5.562 -0.1501  0.9819  0.3959
   10MOL0     C 1270   5.410   9.597   5.587 -0.5698  0.0176 -0.0690
   10MOL0     C 1271   5.299   9.355   5.549 -0.7469 -0.5663  0.1652
   10MOL0     C 1272   5.164   9.410   5.532  0.6324 -0.0722  0.4531
   10MOL0     O 1273   5.077   9.344   5.605 -0.6432  0.6173  0.1700
   10MOL0     C 1274   4.949   9.389   5.625 -0.1216  0.3365  1.3624
   10MOL0     C 1275   4.857   9.394   5.515  0.0599  1.4063 -0.1257
   10MOL0     C 1276   4.731   9.443   5.541 -0.8984  0.3276  0.3779
   10MOL0     C 1277   4.689   9.485   5.668  0.2676  0.0302 -0.4429
   10MOL0     O 1278   4.563   9.516   5.703  0.0226 -0.5054  0.2638
   10MOL0     C 1279   4.449   9.514   5.614 -0.2882 -1.2884  0.6557
   10MOL0     C 1280   4.328   9.583   5.693 -0.4358  0.0775 -0.3538
   10MOL0     C 1281   4.204   9.602   5.600  0.6169  1.0966  0.1753
   10MOL0     C 1282   4.214   9.726   5.516  0.5414 -0.7136 -0.4538
   10MOL0     C 1283   4.122   9.710   5.390  0.2044 -0.7289  0.5267
   10MOL0     C 1284   4.160   9.817   5.296  0.6333 -0.2491 -0.2398
   10MOL0     C 1285   4.058   9.835   5.184  0.1368  0.9012 -0.1588
   10MOL0     C 1286   3.932   9.906   5.223  0.3214 -0.6603 -0.3246
   10MOL0    Cl 1287   3.855   9.973   5.073 -0.2269  0.1000  0.3312
   10MOL0     C 1288   4.785   9.489   5.767 -0.8774  0.1829  0.2786
   10MOL0     C 1289   4.914   9.439   5.748  1.4231  0.4378  0.4251
   10MOL0     O 1290   5.144   9.516   5.477 -0.5495  0.5827  0.2182
   10MOL0     C 1291   5.318   9.214   5.533 -0.9848 -0.2406 -0.1763
   10MOL0     C 1292   5.451   9.163   5.515 -0.3345 -0.4546 -0.7914
   10MOL0     N 1293   5.855   8.582   5.641 -0.0970 -0.0530  0.1465
   10MOL0     N 1294   5.939   8.486   5.632  0.0996  0.5030  0.0158
   10MOL0     C 1295   6.153   7.452   5.307  0.2956  0.0879  0.0445
   10MOL0     C 1296   6.139   7.318   5.266 -0.5492 -0.8492 -0.1980
   10MOL0     C 1297   6.117   6.908   5.094  0.2458  0.0065 -0.1178
   10MOL0     C 1298   6.239   6.863   5.049 -0.4633  0.2869  0.7815
   10MOL0     C 1299   6.259   6.737   4.998 -0.3967  0.4486 -0.9222
   10MOL0     C 1300   6.151   6.647   4.999  0.7293  0.5666  1.1546
   10MOL0     O 1301   6.142   6.518   4.956 -0.3411 -0.2371 -0.1937
   10MOL0     C 1302   6.265   6.468   4.895 -0.2060  0.1676  0.7478
   10MOL0     C 1303   6.230   6.331   4.827  0.3052 -1.2468 -0.6113
   10MOL0     C 1304   6.161   6.336   4.687  0.1883 -0.1516  1.2876
   10MOL0     C 1305   6.112   6.214   4.630 -0.9305  0.4426  1.0457
   10MOL0     C 1306   6.185   6.099   4.680 -0.6590  0.5025 -0.6956
   10MOL0     C 1307   6.260   6.002   4.699 -0.4268  0.2399 -0.6310
   10MOL0     C 1308   6.025   6.686   5.035 -0.5941 -0.0069 -0.1475
   10MOL0     C 1309   6.008   6.813   5.091  0.2405 -0.8414  1.2618
   10MOL0     C 1310   5.872   6.843   5.151  0.0445  0.4350  0.6732
   10MOL0     H 1311   6.433   7.283   5.113  1.5328  0.9280  1.8760
   10MOL0     H 1312   6.455   7.517   5.195 -1.5848  2.6190  1.9091
   10MOL0     H 1313   6.184   7.801   5.166 -1.5102 -3.5154 -2.1947
   10MOL0     H 1314   6.322   7.717   5.122 -3.7407  3.4705 -3.4866
   10MOL0     H 1315   6.444   7.815   5.318  2.4840  1.7504 -1.9749
   10MOL0     H 1316   6.390   7.929   5.193 -2.6602  1.1837  0.2269
   10MOL0     H 1317   6.180   7.952   5.355  0.5603  2.1299  1.1923
   10MOL0     H 1318   6.294   7.899   5.479 -0.0425 -1.4725 -0.4761
   10MOL0     H 1319   6.450   8.078   5.430 -0.7059  2.9705  2.7468
   10MOL0     H 1320   6.353   8.124   5.281 -0.3608 -2.3923 -1.2211
   10MOL0     H 1321   6.246   8.138   5.577  0.7815  2.9823  1.0325
   10MOL0     H 1322   6.166   8.184   5.426  0.2963  0.5096 -0.4427
   10MOL0     H 1323   6.393   8.314   5.563  1.9403 -2.1874 -2.3866
   10MOL0     H 1324   6.382   8.346   5.387  0.4039  0.1109 -0.2656
   10MOL0     H 1325   6.124   8.411   5.448  0.4724  3.1357 -1.1470
   10MOL0     H 1326   6.256   8.519   5.456  1.2508 -1.7875 -0.4228
   10MOL0     H 1327   6.169   8.348   5.690 -0.1358  0.6603 -0.7799
   10MOL0     H 1328   6.272   8.490   5.703 -1.1917  0.5166  1.6028
   10MOL0     H 1329   6.130   8.702   5.774 -0.4373 -1.8159  2.6661
   10MOL0     H 1330   5.958   8.888   5.785  2.3772 -1.5869 -2.0839
   10MOL0     H 1331   5.797   8.813   5.823  0.0919  0.4332  0.4610
   10MOL0     H 1332   5.906   8.885   5.551  0.4762 -1.9832  0.5461
   10MOL0     H 1333   5.743   8.833   5.574 -0.7189  0.6681 -1.4543
   10MOL0     H 1334   5.692   9.030   5.703  0.0132  0.3443 -1.1725
   10MOL0     H 1335   5.868   9.075   5.707  0.6700 -0.6207  1.3610
   10MOL0     H 1336   5.852   9.125   5.467 -2.1434  0.8859 -1.9113
   10MOL0     H 1337   5.698   9.037   5.454  1.2132 -0.6229 -1.2778
   10MOL0     H 1338   5.629   9.439   5.576  0.1160 -0.9207 -4.8850
   10MOL0     H 1339   5.328   9.651   5.539 -1.2728 -1.9512 -1.2236
   10MOL0     H 1340   5.510   9.636   5.563 -0.2008 -0.1511  1.1510
   10MOL0     H 1341   5.395   9.605   5.695 -4.1159 -0.2292 -0.4390
   10MOL0     H 1342   4.892   9.357   5.419 -0.1128 -2.3721  1.1039
   10MOL0     H 1343   4.651   9.436   5.468 -0.5437 -1.2368  0.1138
   10MOL0     H 1344   4.468   9.572   5.524  0.2929  0.5799  1.9163
   10MOL0     H 1345   4.429   9.410   5.587  2.2902 -1.2553 -1.9193
   10MOL0     H 1346   4.301   9.527   5.783 -1.4246  1.2525  0.0956
   10MOL0     H 1347   4.362   9.678   5.736  2.2097 -2.1728  3.1352
   10MOL0     H 1348   4.117   9.623   5.663  0.3856  2.1748 -0.4820
   10MOL0     H 1349   4.191   9.514   5.535  0.0400  0.5985  0.9404
   10MOL0     H 1350   4.320   9.734   5.493  0.9958  0.6596  1.8150
   10MOL0     H 1351   4.173   9.809   5.574 -0.6997 -1.9440  0.4780
   10MOL0     H 1352   4.135   9.615   5.339 -0.9733 -1.3703  1.3680
   10MOL0     H 1353   4.015   9.712   5.415 -0.3467 -1.6843 -1.5851
   10MOL0     H 1354   4.249   9.780   5.244  0.6662  1.0639 -1.1613
   10MOL0     H 1355   4.191   9.911   5.342 -1.3565 -0.5213  1.8163
   10MOL0     H 1356   4.039   9.743   5.128  0.7783  0.2074  0.7299
   10MOL0     H 1357   4.114   9.899   5.114  2.8557  0.1675  1.2021
   10MOL0     H 1358   3.954   9.985   5.296 -1.7769 -1.4036  1.2171
   10MOL0     H 1359   3.864   9.841   5.280  0.6319  0.2836  1.1882
   10MOL0     H 1360   4.772   9.540   5.862 -1.3937  0.4913  0.0455
   10MOL0     H 1361   4.984   9.447   5.830  2.1386  3.7893 -0.3702
   10MOL0     H 1362   5.239   9.140   5.520 -1.5586 -0.0464  1.8714
   10MOL0     H 1363   5.469   9.058   5.495  3.1649  0.5453 -3.7815
   10MOL0     H 1364   6.089   7.493   5.384 -0.6644 -1.3407  0.0313
   10MOL0     H 1365   6.050   7.274   5.312  1.1219  1.0039  5.6315
   10MOL0     H 1366   6.330   6.921   5.063 -0.8002  0.9919  0.1502
   10MOL0     H 1367   6.357   6.697   4.974 -0.6912  1.5461 -4.4580
   10MOL0     H 1368   6.311   6.539   4.826 -0.2455  3.9474  4.2734
   10MOL0     H 1369   6.334   6.452   4.979  1.5135  0.0181 -0.6312
   10MOL0     H 1370   6.174   6.268   4.896 -0.8833  0.3804 -0.0196
   10MOL0     H 1371   6.333   6.294   4.819  0.6635  0.0133 -2.6806
   10MOL0     H 1372   6.071   6.398   4.695  0.6433  0.3757  2.4319
   10MOL0     H 1373   6.221   6.373   4.604  1.4916 -5.1874 -0.3971
   10MOL0     H 1374   6.118   6.209   4.520  0.8919 -4.1422  1.1304
   10MOL0     H 1375   6.005   6.193   4.633 -1.1646  0.8849 -1.3581
   10MOL0     H 1376   6.304   5.910   4.732  0.3238  0.7544 -0.1766
   10MOL0     H 1377   5.957   6.603   5.051 -2.7267  1.9949  2.0211
   10MOL0     H 1378   5.891   6.884   5.251  0.7723 -1.2628  1.2713
   10MOL0     H 1379   5.808   6.920   5.107  0.2550  0.4708  0.4265
   10MOL0     H 1380   5.814   6.751   5.152 -3.5401  2.4952  3.1908
   11MOL0     O 1381   7.533   3.851  10.784 -0.5726 -0.3556  0.0484
   11MOL0     C 1382   7.437   3.805  10.728  0.1443 -0.5470 -1.0334
   11MOL0     O 1383   7.406   3.807  10.600 -0.0875 -0.3470  0.4852
   11MOL0     C 1384   7.480   3.872  10.504  1.1125  0.1205 -0.0790
   11MOL0     C 1385   7.399   3.913  10.399  0.6190 -0.0475  0.2825
   11MOL0     C 1386   7.448   4.000  10.293  0.3808  0.4219 -0.4482
   11MOL0     C 1387   7.584   4.027  10.288  0.3008 -0.8885 -0.3269
   11MOL0     O 1388   7.627   4.123  10.202 -0.0447  0.6990  0.1271
   11MOL0     C 1389   7.705   4.069  10.096 -0.0280 -0.0402  1.2199
   11MOL0     C 1390   7.624   3.985   9.990  0.5145  0.6773  0.7034
   11MOL0     C 1391   7.550   4.066   9.892  0.2777 -0.2283 -0.1423
   11MOL0     C 1392   7.499   3.981   9.780  0.5918  0.4502  0.7328
   11MOL0     C 1393   7.379   3.898   9.832  1.1794  0.7782  0.2007
   11MOL0     C 1394   7.327   3.792   9.727  0.9148  0.6459  0.6420
   11MOL0     C 1395   7.240   3.875   9.623 -0.8026  0.0182 -0.3255
   11MOL0     C 1396   7.187   3.791   9.510 -0.3311 -0.1643  0.0819
   11MOL0     N 1397   7.296   3.762   9.414  0.0324 -0.0429  1.0745
   11MOL0     C 1398   7.368   3.854   9.340  0.4189 -0.2115 -0.0537
   11MOL0     C 1399   7.458   3.789   9.263  0.8930  0.2374  0.5799
   11MOL0     C 1400   7.564   3.846   9.178  0.3147 -0.8581  0.4291
   11MOL0     C 1401   7.650   3.947   9.247  0.0132  0.3508 -0.0289
   11MOL0     C 1402   7.772   3.983   9.165  0.0552  0.1177  0.1556
   11MOL0     C 1403   7.780   4.103   9.078 -0.1935 -0.9516  0.0718
   11MOL0     O 1404   7.763   4.226   9.153  0.2512 -0.6087  0.8006
   11MOL0     C 1405   7.800   4.347   9.094  0.5878  0.8159  1.4327
   11MOL0     C 1406   7.711   4.423   9.020  0.4903 -0.1821 -0.6477
   11MOL0     C 1407   7.752   4.536   8.955  0.5420 -0.5740  0.8715
   11MOL0     C 1408   7.639   4.628   8.902 -0.4071  0.6612  0.6389
   11MOL0     C 1409   7.887   4.584   8.979  0.3111  0.7619  0.2989
   11MOL0     C 1410   7.954   4.703   8.924 -0.4112  0.1354 -0.0503
   11MOL0     O 1411   8.028   4.774   9.007 -0.5896  0.2940 -0.3449
   11MOL0     C 1412   8.083   4.886   8.961  0.4297  0.1288 -0.2147
   11MOL0     C 1413   7.994   4.995   8.925 -0.5861  0.4192  0.0880
   11MOL0     C 1414   8.050   5.115   8.886 -0.2394 -0.8902 -0.8757
   11MOL0     C 1415   8.187   5.138   8.865  0.5735 -0.5403 -0.1034
   11MOL0     O 1416   8.257   5.241   8.825 -0.1180  0.1104  0.1528
   11MOL0     C 1417   8.200   5.346   8.756 -0.6601 -0.1100  0.2004
   11MOL0     C 1418   8.298   5.431   8.669 -0.7497 -0.3019 -0.4509
   11MOL0     C 1419   8.360   5.538   8.752  0.6992 -0.7560  0.7705
   11MOL0     C 1420   8.473   5.625   8.671 -0.1043  0.8332  0.8003
   11MOL0     C 1421   8.582   5.544   8.600 -0.1711 -0.6505  0.3518
   11MOL0     C 1422   8.705   5.632   8.565 -0.8862  0.0747 -0.1026
   11MOL0     C 1423   8.670   5.736   8.455 -0.0376 -0.0720 -0.5761
   11MOL0     C 1424   8.652   5.689   8.312  0.8851  0.2936  0.0713
   11MOL0    Cl 1425   8.800   5.618   8.238 -0.0716  0.0041 -0.2045
   11MOL0     C 1426   8.269   5.028   8.895  0.0912 -0.0067 -1.1824
   11MOL0     C 1427   8.218   4.904   8.942 -0.3671 -0.1309 -0.2358
   11MOL0     O 1428   7.951   4.714   8.805  0.2378 -0.7088 -0.5674
   11MOL0     C 1429   7.973   4.512   9.064  0.1428  0.6384 -0.0347
   11MOL0     C 1430   7.930   4.389   9.123 -0.0171 -0.0479  0.3588
   11MOL0     N 1431   7.446   3.661   9.306  0.1766  0.4952 -0.5844
   11MOL0     N 1432   7.354   3.641   9.396  0.7559  0.2395  0.9957
   11MOL0     C 1433   7.667   3.984  10.389  0.4054 -0.0053 -0.0009
   11MOL0     C 1434   7.612   3.910  10.494 -0.4732  1.3300 -0.0329
   11MOL0     C 1435   7.342   3.757  10.823 -0.6879 -0.1949 -0.1365
   11MOL0     C 1436   7.393   3.694  10.933  0.7426 -0.0551 -0.2017
   11MOL0     C 1437   7.314   3.632  11.026 -0.3200  0.0788  0.9200
   11MOL0     C 1438   7.175   3.620  11.010 -0.8546  0.1232  0.2151
   11MOL0     O 1439   7.094   3.565  11.115  0.2219  0.1513 -0.4552
   11MOL0     C 1440   7.116   3.606  11.249  0.7646  1.3094 -0.5917
   11MOL0     C 1441   7.100   3.755  11.261 -0.8252 -0.8261  0.2650
   11MOL0     C 1442   6.951   3.793  11.254 -0.1917 -0.0698 -0.5239
   11MOL0     C 1443   6.918   3.936  11.237 -0.2105 -0.5212  0.0107
   11MOL0     C 1444   6.983   4.006  11.351 -0.6998 -0.0861  0.0722
   11MOL0     C 1445   7.059   4.069  11.429 -0.1839  0.0825  0.1943
   11MOL0     C 1446   7.128   3.684  10.896  0.1038 -0.3880  0.3006
   11MOL0     C 1447   7.200   3.758  10.803  0.1029  1.4312 -0.0776
   11MOL0     C 1448   7.135   3.836  10.693 -0.0347  0.5735  0.5536
   11MOL0     H 1449   7.297   3.876  10.390  0.0354  1.2130  1.4646
   11MOL0     H 1450   7.387   4.047  10.216  0.3041  0.8485 -0.1304
   11MOL0     H 1451   7.791   4.024  10.147  2.1374  2.2604 -0.1175
   11MOL0     H 1452   7.757   4.151  10.046  3.2823 -0.5185  3.5184
   11MOL0     H 1453   7.689   3.912   9.941 -1.2416 -1.1409  0.9438
   11MOL0     H 1454   7.556   3.920  10.046  0.2630 -1.0644 -1.4395
   11MOL0     H 1455   7.462   4.115   9.936 -0.5571 -1.6432 -0.1618
   11MOL0     H 1456   7.627   4.131   9.850 -0.3895  1.8021  1.6259
   11MOL0     H 1457   7.469   4.040   9.693 -1.0515 -1.3418  0.0120
   11MOL0     H 1458   7.580   3.912   9.753 -0.2488  0.5319 -2.4263
   11MOL0     H 1459   7.305   3.967   9.872  0.3402  1.0033 -1.6360
   11MOL0     H 1460   7.407   3.839   9.920  1.9586 -1.0618 -1.1980
   11MOL0     H 1461   7.414   3.756   9.673 -1.6562  2.4995 -5.5613
   11MOL0     H 1462   7.267   3.711   9.770  1.8705 -0.9123 -0.8666
   11MOL0     H 1463   7.307   3.952   9.581 -0.6579 -0.2816 -0.6480
   11MOL0     H 1464   7.150   3.918   9.668  0.9653  2.7786  0.8379
   11MOL0     H 1465   7.142   3.696   9.541 -1.4307  0.1571 -0.4663
   11MOL0     H 1466   7.109   3.851   9.461 -1.1707 -0.1921  1.3335
   11MOL0     H 1467   7.345   3.960   9.339  1.3947  0.0138 -0.4761
   11MOL0     H 1468   7.516   3.886   9.088 -8.0979 -2.5288  3.2240
   11MOL0     H 1469   7.635   3.769   9.146 -0.6039 -1.9284  0.8758
   11MOL0     H 1470   7.597   4.037   9.278  0.3159  0.9891 -1.2909
   11MOL0     H 1471   7.689   3.892   9.333 -1.1181  0.0921  0.3239
   11MOL0     H 1472   7.856   4.006   9.231  0.0895  1.7378 -0.4170
   11MOL0     H 1473   7.799   3.902   9.096 -3.0438 -0.1593 -0.8882
   11MOL0     H 1474   7.867   4.107   9.012 -1.7780  1.4259 -2.0741
   11MOL0     H 1475   7.691   4.099   9.015 -2.4299 -0.4243  2.9811
   11MOL0     H 1476   7.612   4.383   8.999 -0.1428  0.2185  1.3748
   11MOL0     H 1477   7.642   4.641   8.794  0.3821  2.1638  0.8169
   11MOL0     H 1478   7.649   4.731   8.937 -0.8530  0.6577  0.7758
   11MOL0     H 1479   7.538   4.607   8.937 -0.2225  0.9365  1.3750
   11MOL0     H 1480   7.887   4.985   8.939 -0.5446  1.4963  1.3928
   11MOL0     H 1481   7.984   5.197   8.862  0.5835  0.2511  0.5481
   11MOL0     H 1482   8.131   5.303   8.683 -0.6483  0.6545 -0.2694
   11MOL0     H 1483   8.156   5.415   8.829  2.3385  2.0033  0.1909
   11MOL0     H 1484   8.381   5.376   8.624  0.4179  1.3540 -0.4387
   11MOL0     H 1485   8.243   5.482   8.589 -1.6078 -0.7863 -0.1799
   11MOL0     H 1486   8.400   5.505   8.849  2.0057  0.0046  0.5217
   11MOL0     H 1487   8.285   5.617   8.760  2.8322  1.6589 -1.0195
   11MOL0     H 1488   8.528   5.693   8.737 -0.0326  0.0559  1.5564
   11MOL0     H 1489   8.428   5.688   8.593  1.8656 -1.0916 -2.1216
   11MOL0     H 1490   8.610   5.460   8.665  0.2323 -1.6869 -1.1126
   11MOL0     H 1491   8.542   5.502   8.507 -0.1629  2.0262 -0.9360
   11MOL0     H 1492   8.792   5.577   8.527  0.9641  2.6562  0.1366
   11MOL0     H 1493   8.742   5.688   8.651  1.0895  0.2081 -0.9976
   11MOL0     H 1494   8.734   5.825   8.461 -1.9206  1.2707  1.2003
   11MOL0     H 1495   8.573   5.777   8.486 -0.5096 -3.9369  4.1774
   11MOL0     H 1496   8.613   5.763   8.242  0.0723 -0.6449 -0.4940
   11MOL0     H 1497   8.574   5.613   8.307 -0.1185  1.2941  0.1354
   11MOL0     H 1498   8.375   5.026   8.873 -0.2835  0.4976 -3.3369
   11MOL0     H 1499   8.292   4.831   8.976  1.5100  2.1808  0.9785
   11MOL0     H 1500   8.074   4.540   9.093  0.3476 -1.5844  1.6505
   11MOL0     H 1501   7.988   4.327   9.190 -1.5438 -0.7955  1.0312
   11MOL0     H 1502   7.771   4.014  10.400  0.3550 -0.2786  1.5449
   11MOL0     H 1503   7.685   3.876  10.567  3.5551  1.2539 -3.6723
   11MOL0     H 1504   7.497   3.679  10.961  0.7845 -1.6227 -1.0957
   11MOL0     H 1505   7.350   3.586  11.117  0.2571 -1.9447 -0.2489
   11MOL0     H 1506   7.048   3.547  11.311  1.6974 -4.8207 -4.5055
   11MOL0     H 1507   7.216   3.567  11.270  1.2561  3.3791  1.3454
   11MOL0     H 1508   7.146   3.807  11.177 -2.7591 -0.2382 -0.4922
   11MOL0     H 1509   7.139   3.795  11.355  2.7478 -1.9285 -0.6219
   11MOL0     H 1510   6.893   3.737  11.180 -2.8122  0.4782  0.9998
   11MOL0     H 1511   6.916   3.768  11.354  0.0572 -0.2390 -0.4802
   11MOL0     H 1512   6.809   3.947  11.247 -0.5030 -0.5506 -2.6533
   11MOL0     H 1513   6.953   3.966  11.138 -3.5370 -2.7523 -2.0640
   11MOL0     H 1514   7.122   4.139  11.481  0.7508 -1.1477  0.7607
   11MOL0     H 1515   7.021   3.676  10.880  0.2793 -2.6380 -0.1843
   11MOL0     H 1516   7.027   3.824  10.701 -0.4280  1.1714 -2.5738
   11MOL0     H 1517   7.155   3.943  10.699 -2.3291  1.3318 -2.6113
   11MOL0     H 1518   7.171   3.798  10.596  5.5692 -0.2003  2.5216
   12MOL0     O 1519   2.888   6.703   3.953 -0.4010 -0.6751  0.3323
   12MOL0     C 1520   2.927   6.785   3.870 -0.0434  0.1556  0.0237
   12MOL0     O 1521   2.848   6.860   3.786 -1.0156 -0.1387  0.3135
   12MOL0     C 1522   2.708   6.833   3.790 -0.3239 -0.7656  0.3884
   12MOL0     C 1523   2.621   6.756   3.874 -0.2687  0.3469  0.0254
   12MOL0     C 1524   2.477   6.756   3.859  0.7910 -0.7166  0.4064
   12MOL0     C 1525   2.419   6.847   3.757  0.1615 -0.0854  0.0635
   12MOL0     O 1526   2.278   6.857   3.770  0.2528  0.0789  0.3533
   12MOL0     C 1527   2.201   6.919   3.665 -0.2256 -1.5060  0.4794
   12MOL0     C 1528   2.202   7.066   3.663  0.1090  0.4756  0.1678
   12MOL0     C 1529   2.123   7.137   3.783  0.3808 -0.0789  0.7640
   12MOL0     C 1530   2.117   7.288   3.762  0.6621  0.3532  1.1364
   12MOL0     C 1531   2.043   7.355   3.872  0.7007 -0.3693 -0.3645
   12MOL0     C 1532   2.031   7.503   3.829  0.9716  0.5258  0.4576
   12MOL0     C 1533   1.947   7.586   3.935  0.3114 -0.0260 -0.0167
   12MOL0     C 1534   1.991   7.558   4.079 -1.4274  0.2100  0.2336
   12MOL0     N 1535   1.946   7.661   4.173 -1.3583 -0.3188  0.0492
   12MOL0     C 1536   2.005   7.788   4.197 -0.3853 -0.7274  0.9521
   12MOL0     C 1537   1.902   7.874   4.232 -0.8223  1.5734 -0.0623
   12MOL0     C 1538   1.907   8.023   4.269 -0.7674 -0.0213 -0.5307
   12MOL0     C 1539   1.823   8.118   4.177 -0.1271  0.1984  0.7803
   12MOL0     C 1540   1.834   8.255   4.242  0.2997  0.1287  1.1976
   12MOL0     C 1541   1.790   8.365   4.142  1.0199 -0.1044  0.0171
   12MOL0     O 1542   1.741   8.455   4.234  0.8576 -0.2923  0.8023
   12MOL0     C 1543   1.662   8.549   4.196 -0.1007 -0.3260  0.2325
   12MOL0     C 1544   1.618   8.633   4.298  0.8813  0.1703  0.2212
   12MOL0     C 1545   1.531   8.747   4.270 -0.3240  1.0893  0.6243
   12MOL0     C 1546   1.501   8.819   4.394 -0.3995  0.2728  0.7909
   12MOL0     C 1547   1.481   8.773   4.140  0.1830  0.1375 -0.6386
   12MOL0     C 1548   1.386   8.888   4.100 -0.6876 -0.6072 -0.3008
   12MOL0     O 1549   1.351   8.978   4.200 -0.0586  0.0013  0.4537
   12MOL0     C 1550   1.265   9.084   4.172 -1.1343  0.0876 -0.6138
   12MOL0     C 1551   1.155   9.097   4.253 -0.0451  0.3942 -0.3628
   12MOL0     C 1552   1.062   9.204   4.214 -0.1242  0.8836  0.7854
   12MOL0     C 1553   1.082   9.291   4.104  0.1699  0.2456 -0.2462
   12MOL0     O 1554   0.983   9.387   4.075 -0.0788  0.3931  0.9428
   12MOL0     C 1555   1.000   9.475   3.967 -0.1708 -0.2088  0.1553
   12MOL0     C 1556   1.103   9.580   4.004 -0.5001  0.5408 -0.2418
   12MOL0     C 1557   1.159   9.637   3.870  0.7352  0.5750 -0.8049
   12MOL0     C 1558   1.233   9.772   3.885  0.9504  0.8218  0.0235
   12MOL0     C 1559   1.302   9.827   3.757 -0.2661 -0.8300  0.9307
   12MOL0     C 1560   1.418   9.750   3.708  0.4444  0.6453 -0.1180
   12MOL0     C 1561   1.468   9.785   3.564 -0.5915 -0.5472  0.2107
   12MOL0     C 1562   1.597   9.694   3.550 -0.4767  0.3213  0.4228
   12MOL0    Cl 1563   1.722   9.722   3.679 -0.4205 -0.0963 -0.4375
   12MOL0     C 1564   1.196   9.271   4.032 -1.2017 -0.5485 -0.3109
   12MOL0     C 1565   1.287   9.176   4.067  0.4503 -1.2627  0.3419
   12MOL0     O 1566   1.356   8.898   3.985  0.8320 -0.9597 -0.3070
   12MOL0     C 1567   1.532   8.686   4.036 -0.4945  0.1120 -0.1645
   12MOL0     C 1568   1.612   8.571   4.069 -0.2144  0.8556  0.0790
   12MOL0     N 1569   1.785   7.799   4.237  0.3912 -0.3879  0.3295
   12MOL0     N 1570   1.811   7.680   4.193 -0.1441  0.2327 -1.2235
   12MOL0     C 1571   2.505   6.919   3.667  0.1885 -0.2391  0.8370
   12MOL0     C 1572   2.641   6.909   3.692 -0.3919  0.9746 -1.2963
   12MOL0     C 1573   3.079   6.797   3.862  0.3606  0.0226  0.6696
   12MOL0     C 1574   3.132   6.858   3.749  0.5114 -0.2372  0.9391
   12MOL0     C 1575   3.266   6.870   3.724  0.2490  0.2042 -0.3815
   12MOL0     C 1576   3.356   6.821   3.816  0.7659  0.5254 -1.3596
   12MOL0     O 1577   3.492   6.816   3.784  0.6119  0.2193  0.3028
   12MOL0     C 1578   3.575   6.858   3.897 -0.5370  0.1704 -0.0692
   12MOL0     C 1579   3.693   6.941   3.845 -0.3676 -0.0806 -0.2631
   12MOL0     C 1580   3.807   6.938   3.948 -0.9040 -0.1768 -0.0888
   12MOL0     C 1581   3.780   6.993   4.083 -0.2167 -0.2951 -0.4868
   12MOL0     C 1582   3.764   7.144   4.089  0.2177  0.4771 -0.0145
   12MOL0     C 1583   3.746   7.259   4.121  0.0884 -0.8584  1.0264
   12MOL0     C 1584   3.310   6.762   3.934 -0.1587  0.9145 -0.2859
   12MOL0     C 1585   3.167   6.748   3.958 -0.5533  1.1400  0.4331
   12MOL0     C 1586   3.128   6.696   4.092 -0.5028  0.3271 -0.4567
   12MOL0     H 1587   2.658   6.679   3.941  1.6737  0.8006 -0.4819
   12MOL0     H 1588   2.408   6.697   3.919 -1.1553 -0.6568 -1.6363
   12MOL0     H 1589   2.098   6.884   3.678 -0.9592 -0.9682 -2.9622
   12MOL0     H 1590   2.237   6.880   3.569  0.6658 -1.0909  0.6332
   12MOL0     H 1591   2.307   7.095   3.654  0.0914  0.3953 -0.3202
   12MOL0     H 1592   2.138   7.088   3.578 -2.2037  2.1013  2.1728
   12MOL0     H 1593   2.018   7.108   3.784  0.5532 -0.7548  0.2981
   12MOL0     H 1594   2.169   7.109   3.878 -3.5661 -0.5090  2.7260
   12MOL0     H 1595   2.217   7.327   3.739  0.9870 -1.0046  0.1010
   12MOL0     H 1596   2.066   7.315   3.669  1.7101 -0.4122  0.3095
   12MOL0     H 1597   2.095   7.329   3.965 -0.3394 -0.9096  0.0761
   12MOL0     H 1598   1.950   7.299   3.882  1.5112 -1.8199 -0.7069
   12MOL0     H 1599   2.130   7.551   3.825  1.3993  0.0315  3.2649
   12MOL0     H 1600   1.980   7.518   3.734  0.3020 -0.1839  0.6999
   12MOL0     H 1601   1.839   7.567   3.933  0.2651 -0.1952  2.0904
   12MOL0     H 1602   1.952   7.692   3.911 -2.2750  0.4376  1.1462
   12MOL0     H 1603   1.942   7.465   4.109 -2.6269  0.9142  0.5643
   12MOL0     H 1604   2.100   7.556   4.088 -1.3791  0.0686 -0.3670
   12MOL0     H 1605   2.107   7.822   4.179 -0.9264 -0.9130 -3.4125
   12MOL0     H 1606   2.015   8.037   4.257 -0.9900 -0.3327 -3.7286
   12MOL0     H 1607   1.880   8.039   4.373  0.1112  0.8568 -0.4315
   12MOL0     H 1608   1.859   8.116   4.074  2.3735 -2.4022  1.5695
   12MOL0     H 1609   1.717   8.090   4.187 -1.2490  4.4968  3.3265
   12MOL0     H 1610   1.769   8.257   4.330 -4.1732  0.0992 -1.7800
   12MOL0     H 1611   1.942   8.268   4.260  0.3790  1.6947 -0.1467
   12MOL0     H 1612   1.875   8.410   4.090  0.7744  0.5293  0.1523
   12MOL0     H 1613   1.701   8.333   4.087  1.1979  0.0667 -0.3724
   12MOL0     H 1614   1.659   8.614   4.396 -1.5934  3.2902  2.0534
   12MOL0     H 1615   1.400   8.800   4.432 -1.0472  1.4473 -0.2750
   12MOL0     H 1616   1.505   8.926   4.371  0.5251  0.3633  1.3132
   12MOL0     H 1617   1.567   8.795   4.478 -1.0679 -0.5903  1.0768
   12MOL0     H 1618   1.136   9.044   4.346  0.0529  0.0677 -0.5288
   12MOL0     H 1619   0.981   9.227   4.283 -0.7524  1.0588  0.0002
   12MOL0     H 1620   1.021   9.427   3.871  1.1059  3.0935 -1.3633
   12MOL0     H 1621   0.911   9.538   3.952  0.6242  1.2892  1.3965
   12MOL0     H 1622   1.047   9.659   4.056  0.9443  0.9246  0.8006
   12MOL0     H 1623   1.182   9.544   4.072 -0.3085 -1.5124 -1.4927
   12MOL0     H 1624   1.085   9.658   3.793  1.2190 -0.8746 -1.6952
   12MOL0     H 1625   1.229   9.569   3.822  0.6531  0.2948 -0.5322
   12MOL0     H 1626   1.302   9.776   3.969  0.0297 -1.3983  0.9567
   12MOL0     H 1627   1.156   9.843   3.916 -1.6298 -2.1570  0.9285
   12MOL0     H 1628   1.236   9.819   3.670  2.6111 -0.1958 -1.4819
   12MOL0     H 1629   1.321   9.934   3.767 -1.8004 -0.4101 -0.3649
   12MOL0     H 1630   1.389   9.646   3.695  2.7189  0.1840 -2.2514
   12MOL0     H 1631   1.488   9.736   3.791 -1.7380 -0.6323  1.6205
   12MOL0     H 1632   1.495   9.891   3.570 -0.4699 -0.6043  0.7312
   12MOL0     H 1633   1.391   9.764   3.489 -1.5849  0.0423  1.0248
   12MOL0     H 1634   1.638   9.708   3.450 -0.5226 -4.4451 -0.5177
   12MOL0     H 1635   1.570   9.588   3.559  0.4599  0.1698  1.7811
   12MOL0     H 1636   1.220   9.326   3.942 -2.0501 -0.5828 -0.5690
   12MOL0     H 1637   1.372   9.158   4.002 -1.1836 -3.8255 -1.2719
   12MOL0     H 1638   1.500   8.686   3.932  3.4865  0.5748 -1.5535
   12MOL0     H 1639   1.647   8.500   3.995 -2.6628  0.1275 -0.4785
   12MOL0     H 1640   2.473   6.985   3.586  0.4174 -0.3274  0.6718
   12MOL0     H 1641   2.706   6.972   3.631 -1.0002  1.2941 -1.6239
   12MOL0     H 1642   3.068   6.898   3.670  1.2673 -4.0679 -1.8877
   12MOL0     H 1643   3.296   6.924   3.635 -0.8008 -0.0708 -0.9163
   12MOL0     H 1644   3.527   6.924   3.969  0.4157 -1.1133  1.8539
   12MOL0     H 1645   3.610   6.772   3.955 -1.3877  0.9185  1.6146
   12MOL0     H 1646   3.658   7.045   3.848  0.2138  0.0950  1.3543
   12MOL0     H 1647   3.728   6.911   3.746 -0.8839 -1.3203 -0.0812
   12MOL0     H 1648   3.844   6.835   3.959  0.2350  0.0446 -1.4534
   12MOL0     H 1649   3.892   6.992   3.906 -1.3689  1.0528  0.5276
   12MOL0     H 1650   3.871   6.988   4.144  0.7754  0.7301 -1.7994
   12MOL0     H 1651   3.703   6.939   4.137  1.2600 -0.3963  1.6149
   12MOL0     H 1652   3.741   7.365   4.134  2.8408 -0.5353  0.0347
   12MOL0     H 1653   3.373   6.718   4.011 -1.3807 -0.3275  0.0314
   12MOL0     H 1654   3.051   6.767   4.123  0.3628  1.8469 -1.6580
   12MOL0     H 1655   3.100   6.590   4.098  2.4491 -0.4899  1.2174
   12MOL0     H 1656   3.208   6.704   4.167 -1.7060  0.8851  0.8159
   13MOL0     O 1657   4.097   6.955  10.431 -0.1496 -0.2614  0.6174
   13MOL0     C 1658   4.024   6.981  10.330  0.5425  0.2471 -1.3374
   13MOL0     O 1659   4.003   7.105  10.280 -0.3190  0.3631 -0.0310
   13MOL0     C 1660   4.081   7.216  10.294  0.6273 -0.1738 -0.6528
   13MOL0     C 1661   4.151   7.251  10.410 -0.2762  0.4894 -1.0465
   13MOL0     C 1662   4.236   7.360  10.426 -0.1179 -1.1078 -0.3393
   13MOL0     C 1663   4.260   7.441  10.313 -0.1153 -0.8075  0.7407
   13MOL0     O 1664   4.336   7.549  10.318  0.5420 -0.5101  0.1309
   13MOL0     C 1665   4.360   7.622  10.197 -0.1036 -0.4213  0.2982
   13MOL0     C 1666   4.414   7.761  10.226 -0.2854  0.2211  0.1460
   13MOL0     C 1667   4.540   7.747  10.308 -0.4327 -0.0147 -0.2273
   13MOL0     C 1668   4.652   7.674  10.248  0.0413 -0.0854  0.1470
   13MOL0     C 1669   4.790   7.743  10.281 -0.5079 -0.8105 -0.9766
   13MOL0     C 1670   4.823   7.748  10.436  0.8235  0.3238 -0.1402
   13MOL0     C 1671   4.852   7.603  10.482  1.1019  0.0622 -0.7551
   13MOL0     C 1672   4.980   7.534  10.424 -0.7904  0.1352  0.5452
   13MOL0     N 1673   5.105   7.607  10.448  1.2723  0.0326  0.8012
   13MOL0     C 1674   5.207   7.554  10.530 -0.2603  0.0719 -0.6668
   13MOL0     C 1675   5.319   7.631  10.517  1.0065  0.0264  0.0371
   13MOL0     C 1676   5.432   7.648  10.604 -0.1633 -0.0017  0.0853
   13MOL0     C 1677   5.569   7.623  10.534 -0.8298  0.4467  1.3453
   13MOL0     C 1678   5.680   7.641  10.639 -0.0924 -0.3649  0.2010
   13MOL0     C 1679   5.817   7.607  10.584 -0.4391 -0.7260  1.0458
   13MOL0     O 1680   5.848   7.681  10.462  0.1123 -0.7273 -0.0102
   13MOL0     C 1681   5.979   7.670  10.415  0.0324  0.0428  0.7451
   13MOL0     C 1682   6.013   7.727  10.293  0.4246 -0.7287  0.8558
   13MOL0     C 1683   6.143   7.747  10.238  0.3113  0.7055 -1.2465
   13MOL0     C 1684   6.161   7.809  10.108 -0.5741  0.8572 -0.9503
   13MOL0     C 1685   6.250   7.678  10.306  1.1051 -0.0595 -0.0964
   13MOL0     C 1686   6.389   7.675  10.268 -1.2513  0.0562 -0.3631
   13MOL0     O 1687   6.448   7.548  10.269  0.4265  0.8437 -0.2518
   13MOL0     C 1688   6.574   7.519  10.226 -0.1926 -0.2424  0.3578
   13MOL0     C 1689   6.672   7.621  10.200  0.1012 -1.2668  0.9515
   13MOL0     C 1690   6.796   7.582  10.142 -0.3271  0.3150 -0.4925
   13MOL0     C 1691   6.820   7.446  10.123  0.2864  0.6299 -0.5510
   13MOL0     O 1692   6.927   7.379  10.084  0.2193 -0.2020 -0.2898
   13MOL0     C 1693   7.030   7.465  10.044 -0.4607  0.6799 -0.6715
   13MOL0     C 1694   7.158   7.369  10.030  0.6800  0.0568  0.0708
   13MOL0     C 1695   7.282   7.440   9.985 -0.2246 -0.0543 -0.0430
   13MOL0     C 1696   7.402   7.352   9.987 -0.8479 -0.8257  0.1138
   13MOL0     C 1697   7.539   7.416   9.936  0.4327 -0.0664  0.5537
   13MOL0     C 1698   7.644   7.308   9.976  0.1817  0.0862  0.4059
   13MOL0     C 1699   7.786   7.362   9.941  0.4531  0.4657  0.2576
   13MOL0     C 1700   7.894   7.294  10.017 -0.3290  0.3443 -0.0209
   13MOL0    Cl 1701   8.032   7.411  10.053  0.0263 -0.2693  0.5016
   13MOL0     C 1702   6.726   7.350  10.178  0.4490  0.2948  0.2463
   13MOL0     C 1703   6.601   7.389  10.228 -0.0110  0.3917 -0.3848
   13MOL0     O 1704   6.442   7.779  10.231 -0.5959 -0.0060  1.0736
   13MOL0     C 1705   6.213   7.608  10.423 -0.5218 -0.0820 -0.5225
   13MOL0     C 1706   6.084   7.604  10.476 -0.0252 -0.3840  0.1875
   13MOL0     N 1707   5.291   7.705  10.401 -0.4032 -0.1979 -0.3695
   13MOL0     N 1708   5.161   7.710  10.377 -0.2362  0.3707  0.1916
   13MOL0     C 1709   4.190   7.403  10.197 -0.2901 -1.0340  0.2204
   13MOL0     C 1710   4.097   7.302  10.191  0.4083 -0.5824 -0.0617
   13MOL0     C 1711   3.952   6.858  10.264 -0.7796 -0.1116  0.0254
   13MOL0     C 1712   3.952   6.734  10.331  0.3401  0.3174 -0.7361
   13MOL0     C 1713   3.879   6.624  10.281  0.6874  0.4393 -0.5526
   13MOL0     C 1714   3.814   6.637  10.161  0.0187 -0.8438  0.1112
   13MOL0     O 1715   3.738   6.536  10.103  0.9008  0.0834 -0.7307
   13MOL0     C 1716   3.810   6.460  10.007 -0.7528 -0.0553 -0.5063
   13MOL0     C 1717   3.825   6.538   9.866  0.6589 -0.3325 -0.2664
   13MOL0     C 1718   3.692   6.563   9.799  1.4098 -0.8411 -0.0219
   13MOL0     C 1719   3.695   6.591   9.639 -0.0391 -0.1034 -0.1391
   13MOL0     C 1720   3.562   6.549   9.596 -0.8872 -0.1178 -0.7445
   13MOL0     C 1721   3.437   6.528   9.568 -0.3726  0.6189 -0.8335
   13MOL0     C 1722   3.796   6.759  10.100 -0.1218  0.9712  0.6216
   13MOL0     C 1723   3.875   6.865  10.147  0.5267 -0.2587 -0.5495
   13MOL0     C 1724   3.842   6.987  10.071  0.4419  0.6311  0.8107
   13MOL0     H 1725   4.139   7.178  10.489 -1.0207  2.2104  0.5080
   13MOL0     H 1726   4.298   7.379  10.514 -0.6047 -2.0966  0.2395
   13MOL0     H 1727   4.283   7.659  10.129  1.6565  3.3802  0.1330
   13MOL0     H 1728   4.432   7.559  10.143 -1.5229 -1.0564 -0.9202
   13MOL0     H 1729   4.438   7.795  10.124 -1.5041 -0.0240 -0.2350
   13MOL0     H 1730   4.338   7.832  10.260 -3.4952 -1.9051 -2.0666
   13MOL0     H 1731   4.577   7.849  10.318  0.6567 -0.3404 -0.7310
   13MOL0     H 1732   4.521   7.707  10.408  2.4602  0.7760  0.7482
   13MOL0     H 1733   4.656   7.569  10.279 -0.6099 -1.1327 -3.0121
   13MOL0     H 1734   4.636   7.661  10.141 -1.5293 -0.3243  0.3887
   13MOL0     H 1735   4.799   7.847  10.249  1.0736 -1.2705 -2.1535
   13MOL0     H 1736   4.854   7.682  10.216 -0.1429 -1.5926  0.0976
   13MOL0     H 1737   4.906   7.816  10.458  0.0442  1.4752 -0.7041
   13MOL0     H 1738   4.737   7.787  10.491  0.2937 -2.4199  1.1556
   13MOL0     H 1739   4.769   7.532  10.473  2.8559 -1.9308 -2.3681
   13MOL0     H 1740   4.863   7.609  10.591 -0.0455 -4.2051 -0.2268
   13MOL0     H 1741   4.972   7.431  10.461 -1.2313 -0.0332 -0.0070
   13MOL0     H 1742   4.973   7.508  10.318  1.1099 -2.9518  1.0437
   13MOL0     H 1743   5.201   7.456  10.577 -1.6410 -1.1886 -3.2434
   13MOL0     H 1744   5.419   7.590  10.695 -5.1595  1.6628  0.7318
   13MOL0     H 1745   5.433   7.754  10.631  2.2443  0.7457 -2.4899
   13MOL0     H 1746   5.572   7.522  10.490  1.7933  0.7585  0.6361
   13MOL0     H 1747   5.578   7.689  10.448  0.9238  0.2980  1.3798
   13MOL0     H 1748   5.673   7.747  10.664 -3.4590 -0.1924 -0.9375
   13MOL0     H 1749   5.660   7.578  10.726 -0.6925 -2.9277 -1.6784
   13MOL0     H 1750   5.883   7.625  10.669  1.4513 -1.2860 -0.2268
   13MOL0     H 1751   5.813   7.499  10.571 -0.1417 -0.6451  0.1680
   13MOL0     H 1752   5.926   7.769  10.244  0.8567 -2.4582 -1.5676
   13MOL0     H 1753   6.062   7.824  10.065 -0.2051 -0.1705 -2.2353
   13MOL0     H 1754   6.218   7.736  10.049 -0.0400  0.7429 -0.3073
   13MOL0     H 1755   6.205   7.910  10.109 -2.1633  1.5999  1.9725
   13MOL0     H 1756   6.662   7.728  10.206 -2.7107 -1.3132 -0.9560
   13MOL0     H 1757   6.869   7.650  10.097 -0.5197 -0.4427 -2.0130
   13MOL0     H 1758   7.002   7.522   9.954  1.1750 -1.4405 -2.6553
   13MOL0     H 1759   7.056   7.539  10.120 -0.6410  0.9677 -0.8863
   13MOL0     H 1760   7.162   7.316  10.126  1.4345 -1.7401 -0.9139
   13MOL0     H 1761   7.143   7.288   9.958  4.1124 -1.4812  0.8516
   13MOL0     H 1762   7.299   7.529  10.048 -0.8325  0.9111 -1.2019
   13MOL0     H 1763   7.266   7.478   9.884 -0.0873  1.4736  0.4825
   13MOL0     H 1764   7.395   7.251   9.946 -1.0907 -1.8676  2.5364
   13MOL0     H 1765   7.427   7.320  10.089  3.5052 -2.1402 -1.1484
   13MOL0     H 1766   7.528   7.443   9.831  0.0700  1.3794  0.9400
   13MOL0     H 1767   7.565   7.508   9.989 -1.5059  0.5272  0.5513
   13MOL0     H 1768   7.615   7.214   9.928  1.2299 -0.1310  0.1921
   13MOL0     H 1769   7.646   7.293  10.084  1.8340 -0.2890  0.3469
   13MOL0     H 1770   7.786   7.469   9.963  0.9825  0.3066  1.0919
   13MOL0     H 1771   7.810   7.365   9.835  1.2491  0.9259  0.4442
   13MOL0     H 1772   7.934   7.204   9.969  0.5863 -0.2846  1.8066
   13MOL0     H 1773   7.859   7.255  10.113  2.2257  1.2656  1.3999
   13MOL0     H 1774   6.762   7.248  10.186 -1.5188 -0.2920  2.8410
   13MOL0     H 1775   6.533   7.320  10.277  4.6090 -2.6796  2.6238
   13MOL0     H 1776   6.290   7.542  10.463 -0.8391 -0.3731 -0.3860
   13MOL0     H 1777   6.059   7.555  10.570  1.9261 -0.4012  0.7289
   13MOL0     H 1778   4.193   7.476  10.117  1.3427  0.3010  1.4325
   13MOL0     H 1779   4.040   7.290  10.099 -0.1361  1.6274 -0.0762
   13MOL0     H 1780   4.006   6.728  10.426 -2.8309 -0.7591  1.1404
   13MOL0     H 1781   3.870   6.526  10.326 -3.1895  1.7769  2.0942
   13MOL0     H 1782   3.908   6.438  10.050 -0.7061  1.7621  0.4595
   13MOL0     H 1783   3.764   6.363   9.988  2.6663 -1.7981 -0.6721
   13MOL0     H 1784   3.877   6.475   9.794 -2.8238 -3.6535 -0.1752
   13MOL0     H 1785   3.880   6.632   9.870  1.8020 -1.0084  0.4571
   13MOL0     H 1786   3.629   6.474   9.811  0.9375 -0.9387 -2.6860
   13MOL0     H 1787   3.627   6.640   9.842  1.6092 -0.3970 -0.5134
   13MOL0     H 1788   3.777   6.543   9.584 -2.0748  0.3878 -3.9713
   13MOL0     H 1789   3.699   6.696   9.608  0.0454 -0.2662 -0.6938
   13MOL0     H 1790   3.338   6.491   9.554 -0.3414  0.0570  0.2712
   13MOL0     H 1791   3.729   6.767  10.014 -0.5677 -0.6077  0.7881
   13MOL0     H 1792   3.923   7.059  10.057  0.1777  0.3079 -4.6749
   13MOL0     H 1793   3.805   6.972   9.969  0.2019  1.2024  0.8107
   13MOL0     H 1794   3.760   7.036  10.125 -0.0748  1.8609 -1.0242
   14MOL0     O 1795   0.054   6.961   5.285 -0.2794 -0.2379  0.5637
   14MOL0     C 1796   0.177   6.988   5.314  0.0418 -0.0958 -0.3892
   14MOL0     O 1797   0.225   7.095   5.376 -0.1793  0.3799 -0.4192
   14MOL0     C 1798   0.135   7.169   5.442  0.4645  0.1701 -0.1787
   14MOL0     C 1799   0.054   7.258   5.374 -0.6154 -0.2557 -0.0539
   14MOL0     C 1800  -0.045   7.331   5.445  0.5542 -1.1459 -0.6071
   14MOL0     C 1801  -0.078   7.295   5.582  0.7749  1.2903  0.4651
   14MOL0     O 1802  -0.181   7.341   5.657  0.5788 -0.0181  0.4393
   14MOL0     C 1803  -0.256   7.450   5.594 -2.1049 -0.0721 -1.0433
   14MOL0     C 1804  -0.357   7.482   5.704  0.3151 -0.7284 -0.9090
   14MOL0     C 1805  -0.456   7.374   5.741 -0.0798 -0.5444  0.3976
   14MOL0     C 1806  -0.546   7.346   5.616  0.1294  0.6779 -0.6435
   14MOL0     C 1807  -0.655   7.232   5.646 -0.4355 -0.2900 -0.0156
   14MOL0     C 1808  -0.589   7.104   5.613  0.2660  0.2950 -1.3642
   14MOL0     C 1809  -0.676   6.989   5.635 -0.0584  0.0886  0.2684
   14MOL0     C 1810  -0.606   6.872   5.563 -0.2178  0.0067 -0.1788
   14MOL0     N 1811  -0.667   6.750   5.608 -0.0477  0.2188  0.2722
   14MOL0     C 1812  -0.779   6.684   5.567  0.4037  0.1037  0.3056
   14MOL0     C 1813  -0.815   6.598   5.666  0.3548  0.1788  0.5492
   14MOL0     C 1814  -0.945   6.514   5.652  0.0066 -0.8979  0.6692
   14MOL0     C 1815  -0.952   6.384   5.734  0.5644  0.0158 -1.0602
   14MOL0     C 1816  -0.857   6.277   5.683 -0.1586 -0.7949  0.3704
   14MOL0     C 1817  -0.851   6.141   5.756  0.1871 -0.4781  0.8096
   14MOL0     O 1818  -0.901   6.172   5.893  1.8521 -0.4004  0.3743
   14MOL0     C 1819  -0.935   6.074   5.972  0.4213  0.6200 -0.4453
   14MOL0     C 1820  -0.916   5.937   5.946 -0.3135 -0.4777  1.0583
   14MOL0     C 1821  -0.963   5.850   6.043  0.4921 -0.5295  0.6869
   14MOL0     C 1822  -0.924   5.703   6.005 -0.4541  0.5315 -0.4990
   14MOL0     C 1823  -1.026   5.889   6.165  0.3305  0.5098  0.5776
   14MOL0     C 1824  -1.088   5.799   6.273 -0.6416 -1.0554 -0.1750
   14MOL0     O 1825  -1.127   5.681   6.243 -0.0702 -0.1765 -0.1705
   14MOL0     C 1826  -1.218   5.631   6.326  0.4516  0.4526 -0.2558
   14MOL0     C 1827  -1.353   5.660   6.308  0.9592 -0.1948  0.2537
   14MOL0     C 1828  -1.452   5.602   6.391  0.4736 -0.9033 -0.0792
   14MOL0     C 1829  -1.423   5.508   6.483 -1.1168  1.3811  0.2610
   14MOL0     O 1830  -1.518   5.460   6.569  0.3251  0.1302 -0.3407
   14MOL0     C 1831  -1.599   5.552   6.645  0.2587  0.2123 -0.0093
   14MOL0     C 1832  -1.741   5.501   6.652 -0.2190 -0.4239 -0.2997
   14MOL0     C 1833  -1.746   5.358   6.718  0.3145 -0.0288  0.9642
   14MOL0     C 1834  -1.878   5.292   6.704  0.3436  0.4281  0.1812
   14MOL0     C 1835  -1.914   5.179   6.809  0.3169  0.8663  0.4197
   14MOL0     C 1836  -1.796   5.096   6.829  0.5713 -0.2501 -0.2573
   14MOL0     C 1837  -1.843   4.970   6.908 -0.3917 -0.0536 -0.3111
   14MOL0     C 1838  -1.752   4.861   6.965 -1.4678 -0.2129  0.1995
   14MOL0    Cl 1839  -1.681   4.941   7.118  0.1612  0.1542 -0.0510
   14MOL0     C 1840  -1.278   5.481   6.502  0.1310  0.1406  0.3578
   14MOL0     C 1841  -1.184   5.534   6.417  0.1010  0.3420 -0.4560
   14MOL0     O 1842  -1.101   5.847   6.384  0.3083 -0.1249  0.1658
   14MOL0     C 1843  -1.033   6.023   6.189 -0.3598 -0.3356 -0.2188
   14MOL0     C 1844  -0.993   6.110   6.092  0.2240 -0.1274  0.0330
   14MOL0     N 1845  -0.716   6.607   5.760 -0.0170  0.7241 -0.6422
   14MOL0     N 1846  -0.630   6.698   5.729 -0.0180 -0.1648 -0.2065
   14MOL0     C 1847   0.009   7.214   5.648  0.4693  0.7432  0.2092
   14MOL0     C 1848   0.110   7.151   5.576 -0.3690 -0.5469 -0.0386
   14MOL0     C 1849   0.271   6.886   5.255  0.3495 -1.2196  0.4129
   14MOL0     C 1850   0.386   6.870   5.339  0.6113  0.1774 -0.0490
   14MOL0     C 1851   0.489   6.787   5.293  0.2994 -0.2709  0.3098
   14MOL0     C 1852   0.486   6.740   5.159 -0.0367 -0.4047  0.1423
   14MOL0     O 1853   0.599   6.684   5.103  0.4862  0.1880  0.1481
   14MOL0     C 1854   0.613   6.652   4.965 -0.0203  0.3312 -0.5801
   14MOL0     C 1855   0.552   6.515   4.931 -0.4852 -0.4608 -0.1655
   14MOL0     C 1856   0.552   6.400   5.039 -0.2975  0.8215 -0.1664
   14MOL0     C 1857   0.579   6.268   4.969  0.6760  0.9406 -0.2386
   14MOL0     C 1858   0.719   6.222   4.961  0.9040 -0.2512  0.0173
   14MOL0     C 1859   0.893   6.146   4.937  0.1449 -0.4093  0.2025
   14MOL0     C 1860   0.373   6.763   5.072 -0.5004 -0.0969  0.2828
   14MOL0     C 1861   0.270   6.844   5.124 -1.0003  1.0499 -0.6721
   14MOL0     C 1862   0.170   6.900   5.025 -0.3278 -0.5217  0.2835
   14MOL0     H 1863   0.079   7.269   5.269  4.3631 -2.6338  0.6116
   14MOL0     H 1864  -0.103   7.401   5.385  0.4193 -1.4863 -0.8775
   14MOL0     H 1865  -0.304   7.432   5.497  1.4899 -3.1264 -2.5165
   14MOL0     H 1866  -0.193   7.538   5.582  0.3874 -1.7239 -0.7644
   14MOL0     H 1867  -0.296   7.516   5.788  0.7448  0.5024 -1.6959
   14MOL0     H 1868  -0.420   7.562   5.665 -2.8440 -3.6176 -2.1821
   14MOL0     H 1869  -0.412   7.282   5.780 -0.4337 -0.3764  1.2258
   14MOL0     H 1870  -0.529   7.409   5.815 -2.3452 -0.3774 -1.7771
   14MOL0     H 1871  -0.591   7.441   5.588 -0.0966  1.0536  0.9544
   14MOL0     H 1872  -0.481   7.327   5.530  2.6694  1.4607  0.9850
   14MOL0     H 1873  -0.748   7.256   5.595 -1.4672 -0.6606  1.6086
   14MOL0     H 1874  -0.672   7.228   5.754  1.2205  3.1163  0.5342
   14MOL0     H 1875  -0.551   7.103   5.511  1.5877  2.5383 -0.9638
   14MOL0     H 1876  -0.511   7.095   5.690 -0.3173 -0.5712 -0.8526
   14MOL0     H 1877  -0.776   7.009   5.594  1.5101  1.7808 -3.2097
   14MOL0     H 1878  -0.679   6.980   5.744  1.7435  0.0332  0.3339
   14MOL0     H 1879  -0.618   6.882   5.455 -4.5605  0.2373  0.1612
   14MOL0     H 1880  -0.497   6.865   5.575 -0.1742 -1.2572 -1.1001
   14MOL0     H 1881  -0.833   6.692   5.473 -1.4688 -1.1950  1.2000
   14MOL0     H 1882  -0.958   6.501   5.544  0.4158  1.6563  0.2499
   14MOL0     H 1883  -1.020   6.579   5.699 -0.6911 -2.5024  1.8505
   14MOL0     H 1884  -0.927   6.405   5.839  1.1115  0.2815 -1.2370
   14MOL0     H 1885  -1.053   6.343   5.739 -0.2497  1.7599 -2.1501
   14MOL0     H 1886  -0.864   6.260   5.575  1.7946 -1.4223  0.2953
   14MOL0     H 1887  -0.754   6.311   5.699 -1.0997  1.5933  1.7789
   14MOL0     H 1888  -0.892   6.070   5.684  1.4566 -0.9446  0.5205
   14MOL0     H 1889  -0.746   6.112   5.763 -0.0712 -1.0362  3.6573
   14MOL0     H 1890  -0.867   5.912   5.853 -3.1309 -0.4762 -0.5428
   14MOL0     H 1891  -0.856   5.660   6.080  0.8489  1.9423 -0.8366
   14MOL0     H 1892  -0.876   5.709   5.907 -0.2677  0.7622 -0.3939
   14MOL0     H 1893  -1.006   5.631   5.993  0.0806  0.1717 -2.3864
   14MOL0     H 1894  -1.383   5.723   6.224  1.3562  0.9480  0.9536
   14MOL0     H 1895  -1.556   5.631   6.377  0.2184 -2.7341 -2.5844
   14MOL0     H 1896  -1.550   5.560   6.742  0.5410  0.8786 -0.2015
   14MOL0     H 1897  -1.599   5.649   6.595  3.2970  0.3413  0.0619
   14MOL0     H 1898  -1.794   5.579   6.706  1.0598 -1.1155  2.0661
   14MOL0     H 1899  -1.770   5.503   6.546  2.5948  3.3931 -1.2330
   14MOL0     H 1900  -1.700   5.368   6.817 -0.0218  3.9923  0.8756
   14MOL0     H 1901  -1.682   5.300   6.651 -1.8520  1.1576 -2.3531
   14MOL0     H 1902  -1.885   5.235   6.610 -3.4417 -0.5925  0.9077
   14MOL0     H 1903  -1.961   5.363   6.703 -1.3069 -1.3802  1.0708
   14MOL0     H 1904  -1.958   5.225   6.899  0.1683 -1.5288  1.6589
   14MOL0     H 1905  -1.988   5.108   6.769 -0.0738  0.3167  2.0294
   14MOL0     H 1906  -1.721   5.149   6.888 -2.6927  0.7461  3.4510
   14MOL0     H 1907  -1.744   5.072   6.736 -0.1871 -2.4231 -0.1701
   14MOL0     H 1908  -1.916   4.930   6.837 -2.7402  2.6103  0.4369
   14MOL0     H 1909  -1.900   4.995   6.997  1.6154  1.0854  0.7291
   14MOL0     H 1910  -1.671   4.833   6.897 -0.8723  0.3594  0.6553
   14MOL0     H 1911  -1.821   4.780   6.988 -5.8802  2.3848 -2.4655
   14MOL0     H 1912  -1.248   5.410   6.578 -0.5270  1.3126  1.7402
   14MOL0     H 1913  -1.082   5.499   6.433  0.6080  1.6826 -0.5875
   14MOL0     H 1914  -1.089   6.064   6.272  1.0624  0.5662  0.3202
   14MOL0     H 1915  -0.997   6.218   6.106  5.1724  0.2590 -0.0468
   14MOL0     H 1916  -0.006   7.172   5.747 -0.2903 -1.1296 -0.6524
   14MOL0     H 1917   0.176   7.083   5.630  0.2854  0.3570  0.3182
   14MOL0     H 1918   0.380   6.906   5.442 -1.9922 -0.3298  0.0598
   14MOL0     H 1919   0.578   6.778   5.353  0.1664 -0.6149  0.4595
   14MOL0     H 1920   0.574   6.731   4.899 -1.4254 -0.4864 -0.7746
   14MOL0     H 1921   0.720   6.657   4.942  0.1559  0.1268  0.1966
   14MOL0     H 1922   0.619   6.479   4.852 -0.5602 -2.2946  0.5545
   14MOL0     H 1923   0.450   6.529   4.896  0.4638  1.4867 -2.3754
   14MOL0     H 1924   0.629   6.405   5.117 -0.0380 -2.9030  0.0108
   14MOL0     H 1925   0.459   6.398   5.097  2.1553 -0.9455  4.1278
   14MOL0     H 1926   0.538   6.282   4.869 -2.6973  1.0649  1.0436
   14MOL0     H 1927   0.528   6.191   5.028  1.3835  1.6614  1.3851
   14MOL0     H 1928   0.992   6.106   4.945 -0.7363 -2.4589  2.0331
   14MOL0     H 1929   0.359   6.726   4.971 -0.6602  3.3707 -1.0972
   14MOL0     H 1930   0.191   6.877   4.920  1.9396 -0.1167  0.5996
   14MOL0     H 1931   0.064   6.875   5.042 -0.0825 -3.4760 -1.7397
   14MOL0     H 1932   0.190   7.007   5.024  0.9499 -0.7382 -1.1747
   15MOL0     O 1933   6.184   9.923  11.344 -0.3173  0.3211 -0.6532
   15MOL0     C 1934   6.228  10.019  11.288 -0.5539 -0.7645 -0.7268
   15MOL0     O 1935   6.347  10.024  11.218 -0.5860 -0.2111 -0.2500
   15MOL0     C 1936   6.411   9.909  11.184  0.6657 -0.5929 -0.0311
   15MOL0     C 1937   6.522   9.862  11.263 -0.3955 -0.7709 -0.0532
   15MOL0     C 1938   6.589   9.743  11.225 -0.5695 -0.3876  0.1173
   15MOL0     C 1939   6.551   9.671  11.109  0.0346  0.0291 -1.0499
   15MOL0     O 1940   6.611   9.551  11.069 -0.0832 -0.0339 -0.0101
   15MOL0     C 1941   6.682   9.484  11.175 -0.6455  0.6384 -0.8286
   15MOL0     C 1942   6.831   9.520  11.172  0.9154  0.6355 -0.2734
   15MOL0     C 1943   6.903   9.474  11.041  0.0598  0.1521  0.9134
   15MOL0     C 1944   7.033   9.404  11.064  0.6075 -0.1805  0.0773
   15MOL0     C 1945   7.115   9.375  10.936  0.4091  0.5737  0.5049
   15MOL0     C 1946   7.260   9.342  10.964  0.1374 -0.6494  0.4743
   15MOL0     C 1947   7.335   9.277  10.843 -0.1871 -0.0424 -0.3906
   15MOL0     C 1948   7.488   9.231  10.853  0.5123 -0.2687 -0.5627
   15MOL0     N 1949   7.532   9.174  10.731  0.9626  0.9717 -0.3365
   15MOL0     C 1950   7.455   9.077  10.670 -0.3530  0.0446 -0.0565
   15MOL0     C 1951   7.508   9.069  10.542  0.3845  0.4167 -0.2296
   15MOL0     C 1952   7.468   8.976  10.424 -0.1956  0.3734  0.7398
   15MOL0     C 1953   7.309   9.008  10.411 -0.0073  0.0695  0.2629
   15MOL0     C 1954   7.238   8.924  10.309 -0.2004 -0.5054 -0.6260
   15MOL0     C 1955   7.241   9.004  10.170  0.5553  0.8071 -0.0621
   15MOL0     O 1956   7.147   9.116  10.175 -0.1593 -0.8961  0.3060
   15MOL0     C 1957   7.110   9.186  10.054 -0.3412  0.0582 -0.2958
   15MOL0     C 1958   7.019   9.295  10.057 -0.6156  1.2571 -1.5644
   15MOL0     C 1959   6.999   9.380   9.955  0.3088 -0.4008  0.0528
   15MOL0     C 1960   6.910   9.500   9.974 -0.9994  0.0073 -0.0936
   15MOL0     C 1961   7.079   9.359   9.846 -0.7535 -0.5037  0.2380
   15MOL0     C 1962   7.083   9.448   9.729  0.5670  0.2647  0.4136
   15MOL0     O 1963   7.116   9.382   9.615 -0.4495 -0.1464  0.1377
   15MOL0     C 1964   7.177   9.450   9.508  1.3170  0.3038 -0.2822
   15MOL0     C 1965   7.199   9.381   9.392  0.3983  1.5236 -0.5516
   15MOL0     C 1966   7.259   9.437   9.278  0.1244 -0.9180 -0.3028
   15MOL0     C 1967   7.311   9.567   9.286  0.1234 -0.1159  0.2565
   15MOL0     O 1968   7.373   9.631   9.189 -0.0019 -0.1368  0.0413
   15MOL0     C 1969   7.450   9.551   9.087  1.1075 -0.3441 -0.5616
   15MOL0     C 1970   7.521   9.646   8.992  0.1608  0.4783 -0.5982
   15MOL0     C 1971   7.606   9.568   8.893 -0.1844 -0.4500 -0.3873
   15MOL0     C 1972   7.681   9.655   8.785 -0.7156  0.7583 -0.1109
   15MOL0     C 1973   7.741   9.557   8.682 -0.2286  0.2074  0.1862
   15MOL0     C 1974   7.836   9.450   8.747 -0.3577 -0.2784  0.5579
   15MOL0     C 1975   7.960   9.500   8.807  0.2960 -0.3632 -0.3133
   15MOL0     C 1976   8.068   9.392   8.814 -0.6195  1.0172 -0.7532
   15MOL0    Cl 1977   8.014   9.236   8.900 -0.2340  0.6507 -0.2668
   15MOL0     C 1978   7.297   9.639   9.403  0.5863 -0.6235 -1.0083
   15MOL0     C 1979   7.227   9.583   9.511  0.7373  1.3409 -0.8597
   15MOL0     O 1980   7.031   9.560   9.730 -0.2271  0.0723  0.1601
   15MOL0     C 1981   7.152   9.243   9.824  0.2249  0.4651  0.6260
   15MOL0     C 1982   7.160   9.153   9.930 -0.6566 -0.1780  1.1132
   15MOL0     N 1983   7.613   9.153  10.535 -0.1978 -0.2762  0.3347
   15MOL0     N 1984   7.624   9.220  10.645  1.1399 -0.4362 -0.0309
   15MOL0     C 1985   6.447   9.731  11.032  0.2735 -0.0504 -0.1084
   15MOL0     C 1986   6.374   9.844  11.069 -0.7058  0.1766  0.2535
   15MOL0     C 1987   6.173  10.153  11.311  0.2920  0.0991  0.8958
   15MOL0     C 1988   6.264  10.257  11.321 -0.0839 -0.0755  0.8966
   15MOL0     C 1989   6.217  10.385  11.353  0.7615  0.1060 -0.9269
   15MOL0     C 1990   6.079  10.414  11.370  0.5144 -0.2973 -0.3455
   15MOL0     O 1991   6.053  10.544  11.407 -0.2493  0.1675  0.6385
   15MOL0     C 1992   5.932  10.583  11.466  0.2610  0.5764 -0.1051
   15MOL0     C 1993   5.916  10.540  11.609 -0.0958 -0.2388 -0.1860
   15MOL0     C 1994   5.771  10.537  11.645  0.2849  0.5417 -0.1578
   15MOL0     C 1995   5.766  10.476  11.785  1.1757  1.2444  0.4353
   15MOL0     C 1996   5.814  10.560  11.888  1.0731 -0.4830  0.1633
   15MOL0     C 1997   5.849  10.620  11.986  1.2015  0.8252 -0.6789
   15MOL0     C 1998   5.983  10.310  11.362 -0.1756  0.4199 -0.1322
   15MOL0     C 1999   6.026  10.182  11.322 -0.4225  1.2440  0.5086
   15MOL0     C 2000   5.926  10.073  11.318  0.5518  0.1400 -0.2564
   15MOL0     H 2001   6.572   9.912  11.346  2.5639 -0.9919 -1.5420
   15MOL0     H 2002   6.678   9.719  11.282  1.5497 -1.8686 -3.4995
   15MOL0     H 2003   6.667   9.376  11.165  1.3040  0.1082  1.3162
   15MOL0     H 2004   6.637   9.507  11.272  2.0886 -0.3608  0.7845
   15MOL0     H 2005   6.848   9.628  11.172  1.2003  0.6373  1.9765
   15MOL0     H 2006   6.886   9.480  11.258 -2.2798 -0.3742  1.4893
   15MOL0     H 2007   6.828   9.418  10.986 -3.6109  1.7785  3.8219
   15MOL0     H 2008   6.930   9.563  10.984  0.6681 -0.7664 -0.2664
   15MOL0     H 2009   7.090   9.478  11.122  0.2128  1.2310 -1.2583
   15MOL0     H 2010   7.029   9.311  11.121  1.8923 -0.8010 -0.8055
   15MOL0     H 2011   7.096   9.463  10.873 -2.1467  0.2202  0.6426
   15MOL0     H 2012   7.070   9.298  10.871 -1.1448  2.3398 -0.6363
   15MOL0     H 2013   7.320   9.430  10.991  1.5900 -2.4304  3.7737
   15MOL0     H 2014   7.271   9.265  11.041  0.4987 -0.5517  0.5246
   15MOL0     H 2015   7.328   9.350  10.762 -0.9110 -1.1660 -1.3736
   15MOL0     H 2016   7.269   9.196  10.811  0.3229 -0.5681 -0.1417
   15MOL0     H 2017   7.543   9.318  10.888  0.1767 -1.2331  2.6754
   15MOL0     H 2018   7.510   9.160  10.933  1.6669 -0.7971 -1.3302
   15MOL0     H 2019   7.378   9.011  10.708  0.0553 -0.2818  0.2166
   15MOL0     H 2020   7.492   8.873  10.454  1.8639  1.3892  2.8589
   15MOL0     H 2021   7.523   9.003  10.334  2.2798 -1.9083  1.4281
   15MOL0     H 2022   7.250   9.011  10.503 -0.9233  0.9682 -0.3287
   15MOL0     H 2023   7.302   9.108  10.369  1.6379 -0.1167 -0.5017
   15MOL0     H 2024   7.301   8.836  10.293 -0.1656 -0.1368 -2.8119
   15MOL0     H 2025   7.136   8.903  10.341 -1.5254  4.5492 -0.6775
   15MOL0     H 2026   7.343   9.041  10.155  0.6626  0.0794 -1.2756
   15MOL0     H 2027   7.207   8.929  10.097  0.7080 -1.3952  2.0154
   15MOL0     H 2028   6.970   9.309  10.153  2.2800  1.2412  0.0616
   15MOL0     H 2029   6.860   9.496  10.071 -0.7024  2.9069  0.2550
   15MOL0     H 2030   6.822   9.493   9.909 -2.3747  1.0338  1.5719
   15MOL0     H 2031   6.964   9.592   9.954 -1.2168  0.3308  0.7844
   15MOL0     H 2032   7.158   9.280   9.397 -1.4939  2.2714 -0.0715
   15MOL0     H 2033   7.272   9.374   9.190 -1.6284 -1.6847 -0.0517
   15MOL0     H 2034   7.525   9.497   9.146  1.1392  0.3900  0.0887
   15MOL0     H 2035   7.372   9.494   9.037 -3.7171  2.5848  2.7912
   15MOL0     H 2036   7.452   9.705   8.931  2.6603  3.3273 -0.8757
   15MOL0     H 2037   7.582   9.713   9.053 -0.8289 -0.6985  1.8526
   15MOL0     H 2038   7.548   9.483   8.856 -0.6293 -0.6990  0.8397
   15MOL0     H 2039   7.680   9.517   8.956  2.7541  1.5230 -1.9995
   15MOL0     H 2040   7.757   9.716   8.834  2.8256 -3.2251 -0.0359
   15MOL0     H 2041   7.614   9.732   8.748  1.8646  2.1263 -2.2319
   15MOL0     H 2042   7.664   9.500   8.631 -1.4801  0.6446  1.5182
   15MOL0     H 2043   7.789   9.609   8.599 -3.9709 -1.5302 -3.3862
   15MOL0     H 2044   7.865   9.376   8.672  1.0266 -1.1825  1.9184
   15MOL0     H 2045   7.786   9.381   8.815  0.5195 -2.9576 -1.3394
   15MOL0     H 2046   7.926   9.528   8.907  1.3905 -1.0345  0.2578
   15MOL0     H 2047   8.000   9.582   8.746 -2.5928  1.5483  0.1677
   15MOL0     H 2048   8.151   9.444   8.861  2.2367 -0.1685 -4.0584
   15MOL0     H 2049   8.102   9.365   8.714 -2.4395  1.4360 -1.5297
   15MOL0     H 2050   7.349   9.730   9.432  0.2828 -1.2493  1.7782
   15MOL0     H 2051   7.228   9.639   9.604 -2.0230  2.7907 -1.6055
   15MOL0     H 2052   7.211   9.218   9.736  1.0216 -0.0517  1.2861
   15MOL0     H 2053   7.226   9.068   9.916 -0.2465 -0.1522  2.7015
   15MOL0     H 2054   6.407   9.677  10.946 -1.8303 -0.5962  1.1433
   15MOL0     H 2055   6.295   9.880  11.005 -0.9942 -0.3722  0.2940
   15MOL0     H 2056   6.366  10.223  11.328  0.0001 -0.7867 -2.3003
   15MOL0     H 2057   6.277  10.472  11.378  0.5244  0.4725 -1.5924
   15MOL0     H 2058   5.948  10.691  11.473 -1.0050  0.6810  3.0133
   15MOL0     H 2059   5.847  10.547  11.407 -1.0757  0.6138  1.7019
   15MOL0     H 2060   5.968  10.607  11.679  0.0556 -2.3186  1.8344
   15MOL0     H 2061   5.971  10.445  11.618  0.3580  0.0858  0.5798
   15MOL0     H 2062   5.733  10.640  11.639  0.8000  0.7418 -0.0167
   15MOL0     H 2063   5.707  10.482  11.576 -1.0166  3.2375 -1.2409
   15MOL0     H 2064   5.798  10.371  11.781 -1.1485  0.5015 -2.1293
   15MOL0     H 2065   5.659  10.456  11.789  0.9898  2.3275  3.6435
   15MOL0     H 2066   5.886  10.658  12.080  0.0313  1.7154 -0.5673
   15MOL0     H 2067   5.878  10.323  11.385  0.3252  2.8425  1.2046
   15MOL0     H 2068   5.957  10.002  11.394  2.0952  3.4783  2.4860
   15MOL0     H 2069   5.831  10.109  11.360  1.1963 -0.7508  2.0998
   15MOL0     H 2070   5.919  10.034  11.216  3.5571 -1.2043 -0.0424
   16MOL0     O 2071  11.254   7.684   2.214  0.7933  0.3525 -0.3354
   16MOL0     C 2072  11.312   7.580   2.219 -0.5037  0.2256 -0.8879
   16MOL0     O 2073  11.405   7.548   2.313  0.1596  0.0930  0.2842
   16MOL0     C 2074  11.426   7.635   2.410  0.0145  0.8919 -0.3167
   16MOL0     C 2075  11.370   7.628   2.537 -0.3761 -0.1419 -0.3457
   16MOL0     C 2076  11.396   7.724   2.629 -0.8665 -0.0899  0.2966
   16MOL0     C 2077  11.495   7.827   2.620 -0.9326 -0.2620  0.5427
   16MOL0     O 2078  11.520   7.906   2.735 -0.4916 -0.3876 -0.5729
   16MOL0     C 2079  11.656   7.920   2.780 -0.2948 -0.3221 -0.4462
   16MOL0     C 2080  11.709   8.063   2.757 -0.4134  0.1981  0.1463
   16MOL0     C 2081  11.843   8.088   2.829 -0.9786  0.0561 -1.0603
   16MOL0     C 2082  11.847   8.111   2.979  0.1292 -0.2168 -0.2148
   16MOL0     C 2083  11.995   8.153   3.021  0.3517 -0.5979 -0.6944
   16MOL0     C 2084  12.014   8.205   3.163 -0.1303 -0.1035  0.1665
   16MOL0     C 2085  11.965   8.353   3.175 -0.5785  0.3237 -0.2197
   16MOL0     C 2086  12.009   8.416   3.314  0.8107  0.9084 -0.2623
   16MOL0     N 2087  12.146   8.410   3.339  0.0038 -0.2893 -0.1617
   16MOL0     C 2088  12.239   8.448   3.254 -0.2926 -0.7425 -0.2138
   16MOL0     C 2089  12.355   8.398   3.300  0.9692  0.6693  0.4091
   16MOL0     C 2090  12.502   8.420   3.253  0.5200 -0.5157  0.3375
   16MOL0     C 2091  12.577   8.538   3.318  0.5376 -0.1930 -0.1300
   16MOL0     C 2092  12.488   8.653   3.349 -0.0583 -0.0497 -0.5939
   16MOL0     C 2093  12.562   8.758   3.444  0.1671 -0.4268 -0.6859
   16MOL0     O 2094  12.669   8.801   3.354  0.3145 -0.1069 -0.1813
   16MOL0     C 2095  12.746   8.917   3.374 -0.2021  0.0186  0.2404
   16MOL0     C 2096  12.736   9.003   3.485 -0.4480  0.1336 -0.0639
   16MOL0     C 2097  12.814   9.121   3.499 -1.0473  0.2711 -0.3314
   16MOL0     C 2098  12.784   9.224   3.608  0.3733 -0.1322 -0.5403
   16MOL0     C 2099  12.908   9.158   3.392 -0.3083 -0.3599 -0.9014
   16MOL0     C 2100  12.982   9.290   3.393 -0.8487 -0.2139  0.6236
   16MOL0     O 2101  13.040   9.316   3.283  0.1616  0.5762 -0.2745
   16MOL0     C 2102  13.158   9.385   3.272 -0.7356 -0.3245  0.3155
   16MOL0     C 2103  13.175   9.462   3.163 -0.4232  0.6109 -0.8710
   16MOL0     C 2104  13.283   9.547   3.154 -0.2564 -0.0005 -0.2289
   16MOL0     C 2105  13.376   9.551   3.261 -0.8772  0.7339 -0.1409
   16MOL0     O 2106  13.475   9.640   3.263 -0.3156  0.1882  0.3549
   16MOL0     C 2107  13.589   9.567   3.214 -0.1626  0.7469 -0.1386
   16MOL0     C 2108  13.704   9.668   3.192 -0.0648  0.1013 -0.8555
   16MOL0     C 2109  13.688   9.776   3.086 -0.8052 -0.7401  0.5613
   16MOL0     C 2110  13.675   9.924   3.149  0.0474  0.4418 -0.3376
   16MOL0     C 2111  13.593  10.027   3.057 -0.5683  0.3646  0.1221
   16MOL0     C 2112  13.586  10.166   3.118  0.2146  0.2070 -1.0541
   16MOL0     C 2113  13.488  10.264   3.058 -0.2283 -0.3603 -0.1783
   16MOL0     C 2114  13.477  10.250   2.906 -0.5476  0.2827 -0.2513
   16MOL0    Cl 2115  13.404  10.386   2.820 -0.2156  0.1030  0.5442
   16MOL0     C 2116  13.368   9.467   3.368  1.0818 -0.3219  0.0652
   16MOL0     C 2117  13.256   9.388   3.372 -0.0185 -0.4660 -0.6422
   16MOL0     O 2118  12.989   9.368   3.490 -0.5768 -0.2812  0.0104
   16MOL0     C 2119  12.926   9.062   3.292 -0.2389  0.5663  0.4630
   16MOL0     C 2120  12.853   8.944   3.287 -0.7058 -0.7183 -0.4970
   16MOL0     N 2121  12.322   8.331   3.415  0.1616  0.0316  0.2071
   16MOL0     N 2122  12.201   8.347   3.443 -0.1367 -0.0194 -0.0479
   16MOL0     C 2123  11.568   7.825   2.503  0.2615 -0.6058 -0.0431
   16MOL0     C 2124  11.532   7.738   2.390  0.3573  1.0091  0.8928
   16MOL0     C 2125  11.269   7.457   2.138 -0.2432 -0.1668 -0.1521
   16MOL0     C 2126  11.247   7.340   2.206  0.2491  0.8917  0.7850
   16MOL0     C 2127  11.218   7.220   2.134  0.2618  0.0004 -0.0509
   16MOL0     C 2128  11.197   7.225   1.997  0.1644 -0.5093 -0.3909
   16MOL0     O 2129  11.167   7.112   1.928  0.6161 -0.2119 -0.7599
   16MOL0     C 2130  11.116   6.995   1.996  0.4873  0.6116 -0.4574
   16MOL0     C 2131  11.066   6.892   1.896  0.7166 -0.4571  0.2861
   16MOL0     C 2132  10.934   6.918   1.828  0.2244  0.9043 -0.0090
   16MOL0     C 2133  10.825   6.973   1.911 -0.2349  0.0714  0.4341
   16MOL0     C 2134  10.839   7.115   1.921 -0.5862 -0.8347 -0.2528
   16MOL0     C 2135  10.831   7.240   1.923 -1.3208  0.8087 -0.6202
   16MOL0     C 2136  11.204   7.340   1.927  0.0314  0.5493 -0.2726
   16MOL0     C 2137  11.244   7.449   1.996  0.6807 -0.4872 -1.4340
   16MOL0     C 2138  11.298   7.559   1.901 -0.4300  0.6931  0.1636
   16MOL0     H 2139  11.302   7.548   2.565 -0.0060  0.1653  1.5422
   16MOL0     H 2140  11.342   7.709   2.722 -1.4695 -1.2855 -0.2190
   16MOL0     H 2141  11.718   7.840   2.738 -3.0158 -2.4595 -0.7207
   16MOL0     H 2142  11.662   7.916   2.889 -0.2946 -3.1105 -0.4777
   16MOL0     H 2143  11.732   8.075   2.651 -0.3505  0.5666  0.1998
   16MOL0     H 2144  11.636   8.136   2.792 -0.3191  0.6815 -0.6478
   16MOL0     H 2145  11.919   8.011   2.815  0.2516  1.2381 -1.0216
   16MOL0     H 2146  11.887   8.182   2.794 -0.0471  0.1201  0.2041
   16MOL0     H 2147  11.779   8.193   3.006 -0.1493 -1.0833  1.8883
   16MOL0     H 2148  11.814   8.024   3.035  1.8540 -0.1139  1.0325
   16MOL0     H 2149  12.028   8.232   2.954 -0.0097 -0.8318 -1.1479
   16MOL0     H 2150  12.068   8.071   3.020  3.2597  1.6819  2.3100
   16MOL0     H 2151  11.972   8.147   3.245  2.3071  0.9490  2.2743
   16MOL0     H 2152  12.121   8.220   3.175 -0.2929  3.2003 -1.2626
   16MOL0     H 2153  11.856   8.358   3.172 -0.5169  2.0389 -2.4488
   16MOL0     H 2154  12.003   8.400   3.084 -3.7784  0.3793 -1.6696
   16MOL0     H 2155  11.964   8.514   3.333 -0.7591  0.1453  0.1175
   16MOL0     H 2156  11.970   8.351   3.393  2.8217  1.1285  1.0107
   16MOL0     H 2157  12.225   8.507   3.163  0.0792  1.9449  1.3705
   16MOL0     H 2158  12.502   8.434   3.144  3.4826  1.7585  0.4795
   16MOL0     H 2159  12.568   8.334   3.270 -1.5580 -2.1454  0.4918
   16MOL0     H 2160  12.627   8.514   3.412  0.6550 -2.4112 -0.7011
   16MOL0     H 2161  12.666   8.558   3.257  1.8143 -2.5794  0.8324
   16MOL0     H 2162  12.460   8.699   3.254 -1.1908 -0.3564 -0.4227
   16MOL0     H 2163  12.389   8.637   3.393 -0.7619 -0.4420 -2.2546
   16MOL0     H 2164  12.485   8.828   3.478 -0.4977  0.0763 -3.0131
   16MOL0     H 2165  12.592   8.727   3.544 -4.1566  0.3960  1.0877
   16MOL0     H 2166  12.646   9.003   3.546 -0.4195  0.7896 -0.0130
   16MOL0     H 2167  12.685   9.210   3.653  0.7150 -2.1777 -0.3381
   16MOL0     H 2168  12.779   9.332   3.591  1.2459  0.4701  2.3800
   16MOL0     H 2169  12.848   9.213   3.696 -1.7055 -2.0472  0.8456
   16MOL0     H 2170  13.113   9.451   3.075  1.3023 -0.9504 -1.9509
   16MOL0     H 2171  13.287   9.614   3.069  0.9574 -0.7566 -0.7999
   16MOL0     H 2172  13.619   9.490   3.286  2.1604 -0.3806 -2.1820
   16MOL0     H 2173  13.569   9.524   3.116  4.8478 -0.0269 -1.0944
   16MOL0     H 2174  13.711   9.715   3.291 -1.4972 -1.1725 -0.0917
   16MOL0     H 2175  13.790   9.601   3.178 -1.8177 -2.3487 -0.6093
   16MOL0     H 2176  13.597   9.748   3.032 -0.7861 -1.0154  0.6698
   16MOL0     H 2177  13.764   9.755   3.010 -0.9441  0.3255  0.1113
   16MOL0     H 2178  13.775   9.958   3.175  0.6348 -0.6230 -1.1129
   16MOL0     H 2179  13.622   9.904   3.243  0.3350 -0.6797 -0.3941
   16MOL0     H 2180  13.644  10.041   2.962  1.1829  5.8480  1.4844
   16MOL0     H 2181  13.493   9.984   3.053 -0.9712  1.3394 -0.4625
   16MOL0     H 2182  13.684  10.215   3.124 -0.0741  0.6624  1.6008
   16MOL0     H 2183  13.559  10.153   3.224  0.7141 -0.7818 -1.0425
   16MOL0     H 2184  13.527  10.364   3.079  1.3086 -0.6024 -1.6396
   16MOL0     H 2185  13.391  10.254   3.107 -0.7388 -3.2933 -1.5490
   16MOL0     H 2186  13.411  10.169   2.874 -0.3434 -0.1451  0.3956
   16MOL0     H 2187  13.579  10.237   2.867  0.7192 -1.7253  3.2767
   16MOL0     H 2188  13.443   9.468   3.447  0.3467 -2.0150  0.8285
   16MOL0     H 2189  13.242   9.326   3.460  3.0938 -3.0329 -1.7423
   16MOL0     H 2190  12.984   9.081   3.202 -2.1915  0.0879 -0.9556
   16MOL0     H 2191  12.861   8.866   3.211  0.5601 -1.5160  0.4185
   16MOL0     H 2192  11.655   7.889   2.497 -0.6078  0.8504  1.8357
   16MOL0     H 2193  11.576   7.756   2.292 -0.9192  4.0829  0.7550
   16MOL0     H 2194  11.257   7.350   2.314  3.1081  0.5938  0.6206
   16MOL0     H 2195  11.213   7.135   2.201 -0.4012 -0.3796 -0.5723
   16MOL0     H 2196  11.197   6.951   2.054  0.8216  1.8731  0.0761
   16MOL0     H 2197  11.038   7.018   2.070  1.0789 -2.1400  1.1509
   16MOL0     H 2198  11.071   6.791   1.938  1.3707 -0.7290 -0.4249
   16MOL0     H 2199  11.146   6.898   1.822  1.2368  0.8119  0.9260
   16MOL0     H 2200  10.951   6.987   1.745  1.3042  1.7423  0.8879
   16MOL0     H 2201  10.889   6.825   1.793 -3.2247  2.0819  0.9221
   16MOL0     H 2202  10.805   6.930   2.009 -3.7414 -0.1993 -0.2821
   16MOL0     H 2203  10.728   6.961   1.863  0.2691 -1.1476 -0.3241
   16MOL0     H 2204  10.822   7.347   1.923 -0.8789  0.8496 -0.7336
   16MOL0     H 2205  11.184   7.338   1.820 -0.0843  1.0565 -0.2660
   16MOL0     H 2206  11.239   7.564   1.809  0.9024  0.5302 -0.7321
   16MOL0     H 2207  11.298   7.659   1.947  0.5380  1.4004 -1.3089
   16MOL0     H 2208  11.399   7.530   1.869 -1.4460  1.6142 -4.6586
   17MOL0     O 2209   9.068  11.309   4.531  0.2932 -0.4256 -0.0870
   17MOL0     C 2210   9.086  11.305   4.413  1.0344 -0.1676 -0.4901
   17MOL0     O 2211   9.133  11.198   4.339 -0.3974  0.0964  0.2635
   17MOL0     C 2212   9.169  11.090   4.417  0.2496 -0.1546  0.8992
   17MOL0     C 2213   9.257  11.101   4.522  0.6348 -0.4012  1.1336
   17MOL0     C 2214   9.306  10.991   4.585 -0.7877  0.1186 -0.9998
   17MOL0     C 2215   9.256  10.871   4.557  0.0921  0.4485 -0.4877
   17MOL0     O 2216   9.300  10.751   4.604 -0.6982 -0.3261  0.9358
   17MOL0     C 2217   9.348  10.723   4.736 -0.6513  0.1376  0.0636
   17MOL0     C 2218   9.505  10.710   4.751 -0.4483  0.4450  0.3337
   17MOL0     C 2219   9.575  10.582   4.692 -0.0787  0.6670 -0.5911
   17MOL0     C 2220   9.580  10.465   4.796 -0.3713  0.1855 -0.3179
   17MOL0     C 2221   9.693  10.479   4.881 -0.3691  0.3928 -0.4567
   17MOL0     C 2222   9.687  10.388   5.001 -0.9166  0.6026  0.5938
   17MOL0     C 2223   9.830  10.365   5.051  1.1650 -0.3792  0.0644
   17MOL0     C 2224   9.830  10.254   5.164  0.3129 -0.4856  0.5986
   17MOL0     N 2225   9.766  10.290   5.290 -0.1879  0.0552 -0.2078
   17MOL0     C 2226   9.825  10.368   5.390 -0.9322  0.1426 -1.2726
   17MOL0     C 2227   9.721  10.417   5.469  0.8844 -0.1483 -0.0080
   17MOL0     C 2228   9.711  10.508   5.591 -0.5139  0.1040  0.0687
   17MOL0     C 2229   9.829  10.498   5.684 -0.8506 -0.4412  0.7410
   17MOL0     C 2230   9.861  10.604   5.789 -0.2720 -0.5220 -0.1178
   17MOL0     C 2231   9.747  10.660   5.870 -0.0477 -0.6794  0.1009
   17MOL0     O 2232   9.799  10.762   5.953  0.4946 -0.4216 -0.5950
   17MOL0     C 2233   9.787  10.900   5.914  0.1259  0.3179 -1.3499
   17MOL0     C 2234   9.828  10.998   6.019 -0.2594 -0.4467 -0.1889
   17MOL0     C 2235   9.857  11.129   5.996 -0.2498  0.0408  0.4219
   17MOL0     C 2236   9.917  11.220   6.102 -1.0197 -0.0385 -0.9227
   17MOL0     C 2237   9.795  11.178   5.870 -0.0781  0.1351 -1.0478
   17MOL0     C 2238   9.799  11.323   5.826 -0.0604  0.0666 -0.3432
   17MOL0     O 2239   9.747  11.361   5.705 -0.0761 -0.1656  0.2518
   17MOL0     C 2240   9.734  11.496   5.680  0.4509 -0.0864  0.5013
   17MOL0     C 2241   9.839  11.581   5.637  0.0509  1.1195  1.1073
   17MOL0     C 2242   9.822  11.718   5.617 -1.2686 -0.9106  0.6015
   17MOL0     C 2243   9.692  11.774   5.620  0.3882 -0.3704  0.0272
   17MOL0     O 2244   9.674  11.899   5.581 -0.3886 -0.2602  0.4583
   17MOL0     C 2245   9.600  11.990   5.662 -0.0205  0.0210 -0.2330
   17MOL0     C 2246   9.706  12.101   5.692 -0.0113  0.3542  0.2053
   17MOL0     C 2247   9.640  12.231   5.733 -0.2716 -0.0536  0.4839
   17MOL0     C 2248   9.739  12.320   5.818  0.6399 -0.4499  0.0452
   17MOL0     C 2249   9.686  12.454   5.854  1.0125 -0.6189 -0.0753
   17MOL0     C 2250   9.674  12.550   5.742  0.2533 -0.2028  1.2462
   17MOL0     C 2251   9.525  12.592   5.711 -0.6657  0.4550 -1.2519
   17MOL0     C 2252   9.541  12.684   5.579  0.1665 -0.6759 -0.4738
   17MOL0    Cl 2253   9.573  12.589   5.438 -0.3946 -0.0591  0.0173
   17MOL0     C 2254   9.587  11.694   5.663  0.1064 -0.0993 -1.4265
   17MOL0     C 2255   9.610  11.562   5.695  0.0145  1.0636  0.7709
   17MOL0     O 2256   9.841  11.402   5.915 -0.8309  0.9987 -0.6192
   17MOL0     C 2257   9.752  11.087   5.768  0.1662  0.2406 -0.3299
   17MOL0     C 2258   9.750  10.954   5.793  0.3028 -0.5710  0.3728
   17MOL0     N 2259   9.605  10.356   5.425 -0.6632 -0.0365  0.2236
   17MOL0     N 2260   9.632  10.282   5.328 -0.1635 -0.8269  0.3634
   17MOL0     C 2261   9.151  10.862   4.467  0.1856  0.2012  0.0513
   17MOL0     C 2262   9.115  10.966   4.389  0.4674 -0.1980 -0.1032
   17MOL0     C 2263   9.034  11.417   4.328 -0.1277  0.2447 -0.8757
   17MOL0     C 2264   8.971  11.389   4.208  0.6162  0.0085 -0.2900
   17MOL0     C 2265   8.900  11.484   4.139  0.3669 -0.6629 -0.0016
   17MOL0     C 2266   8.900  11.619   4.175  1.1423  0.1442  0.3286
   17MOL0     O 2267   8.828  11.729   4.120 -0.3558  0.2234 -0.6972
   17MOL0     C 2268   8.746  11.701   4.007 -0.0402 -0.4716 -0.5245
   17MOL0     C 2269   8.603  11.657   4.046  1.1387 -0.6806 -0.9736
   17MOL0     C 2270   8.510  11.770   4.102 -0.4286  0.5050 -0.2913
   17MOL0     C 2271   8.575  11.888   4.170 -0.1869  0.5371  0.2567
   17MOL0     C 2272   8.461  11.968   4.225  0.0091  0.5493 -0.5969
   17MOL0     C 2273   8.377  12.044   4.250  0.3573 -0.1568 -0.1556
   17MOL0     C 2274   8.971  11.650   4.284  0.6361 -0.3891 -0.6585
   17MOL0     C 2275   9.039  11.553   4.367  0.2521  0.1786  0.1085
   17MOL0     C 2276   9.131  11.601   4.471 -0.7249 -0.3087 -0.2544
   17MOL0     H 2277   9.280  11.200   4.562 -2.4895  0.4800  0.9754
   17MOL0     H 2278   9.365  10.995   4.676 -0.1542  0.5636 -1.4209
   17MOL0     H 2279   9.305  10.626   4.761 -1.8521  0.1531 -1.7255
   17MOL0     H 2280   9.308  10.806   4.794 -0.4430 -0.0065  0.4106
   17MOL0     H 2281   9.553  10.798   4.708 -2.2025  0.9500 -0.7176
   17MOL0     H 2282   9.526  10.710   4.858  2.4772  0.7066 -0.1728
   17MOL0     H 2283   9.522  10.552   4.601  1.3208  0.0124 -1.2198
   17MOL0     H 2284   9.673  10.606   4.651 -0.7139 -0.6924 -3.0745
   17MOL0     H 2285   9.488  10.474   4.854  1.5577 -0.3057  3.0737
   17MOL0     H 2286   9.579  10.363   4.756  1.8667 -0.3805  0.9431
   17MOL0     H 2287   9.715  10.580   4.917  0.2377 -0.1795  0.8153
   17MOL0     H 2288   9.782  10.446   4.827 -1.5200 -1.4144 -1.3341
   17MOL0     H 2289   9.616  10.419   5.079 -1.4121 -0.0339  0.4079
   17MOL0     H 2290   9.651  10.290   4.967 -0.5543 -0.1394  2.2681
   17MOL0     H 2291   9.862  10.458   5.099 -0.0683 -0.3753  0.9261
   17MOL0     H 2292   9.901  10.345   4.970  2.7709  0.6217  1.1593
   17MOL0     H 2293   9.776  10.167   5.126 -0.2460 -0.1784  0.6737
   17MOL0     H 2294   9.933  10.219   5.175  0.2452 -1.0248 -0.4028
   17MOL0     H 2295   9.931  10.390   5.398 -0.8482 -0.5686 -0.2279
   17MOL0     H 2296   9.616  10.480   5.637 -0.3764 -0.5612 -0.0375
   17MOL0     H 2297   9.707  10.613   5.558  0.1417  0.3345  0.7047
   17MOL0     H 2298   9.815  10.404   5.738  0.6554 -1.7416 -0.9921
   17MOL0     H 2299   9.918  10.474   5.626  0.4425 -0.4638  2.6585
   17MOL0     H 2300   9.944  10.573   5.852 -1.5207 -2.0935  0.8339
   17MOL0     H 2301   9.900  10.693   5.739 -4.3799  2.5616  1.5659
   17MOL0     H 2302   9.671  10.693   5.799 -1.2990  1.1888  2.1528
   17MOL0     H 2303   9.696  10.589   5.936 -1.4814  1.2604  1.1716
   17MOL0     H 2304   9.870  10.958   6.111  1.6171  3.9870  1.1256
   17MOL0     H 2305   9.984  11.297   6.061 -0.2517  0.9004  1.8493
   17MOL0     H 2306   9.973  11.166   6.178  0.3178  1.3751 -0.8566
   17MOL0     H 2307   9.837  11.278   6.149  1.7492  3.1641  0.2055
   17MOL0     H 2308   9.936  11.547   5.604 -1.1279  1.6524 -3.7314
   17MOL0     H 2309   9.906  11.783   5.593 -0.4669 -2.2335 -0.3728
   17MOL0     H 2310   9.513  12.030   5.608 -1.3657 -2.8804 -0.3994
   17MOL0     H 2311   9.571  11.951   5.761  1.5868 -2.4967 -0.6590
   17MOL0     H 2312   9.769  12.053   5.767  1.1278  0.1414 -0.8461
   17MOL0     H 2313   9.764  12.135   5.605  0.8712  0.6539  0.8863
   17MOL0     H 2314   9.551  12.208   5.791  0.6698 -2.4113  1.1281
   17MOL0     H 2315   9.609  12.270   5.636 -1.7229 -5.2046 -1.4667
   17MOL0     H 2316   9.839  12.326   5.775  0.3984  0.5756 -0.4055
   17MOL0     H 2317   9.742  12.272   5.916 -2.0072 -0.9682 -0.0439
   17MOL0     H 2318   9.586  12.432   5.891 -0.4573  3.8123 -0.7666
   17MOL0     H 2319   9.739  12.503   5.937 -0.8210 -0.7857  1.2612
   17MOL0     H 2320   9.694  12.496   5.649  1.5628  2.5130 -0.1749
   17MOL0     H 2321   9.736  12.640   5.741  1.3711 -0.9216  2.5777
   17MOL0     H 2322   9.479  12.654   5.788  1.9508  3.0709 -1.6262
   17MOL0     H 2323   9.459  12.506   5.698  0.6940 -1.0692  1.0921
   17MOL0     H 2324   9.613  12.764   5.597 -1.9674  0.7053  2.6509
   17MOL0     H 2325   9.445  12.723   5.546 -0.6442 -1.5355  0.7907
   17MOL0     H 2326   9.483  11.728   5.664 -0.3662 -1.4229  0.2444
   17MOL0     H 2327   9.526  11.502   5.728 -0.2774  1.3586  0.5704
   17MOL0     H 2328   9.719  11.116   5.668 -2.6046  3.2242  1.2465
   17MOL0     H 2329   9.727  10.877   5.720  1.6612 -2.5997  1.9733
   17MOL0     H 2330   9.104  10.767   4.442 -2.7368  1.7183 -0.6641
   17MOL0     H 2331   9.035  10.958   4.315  1.4314 -1.2817 -1.0629
   17MOL0     H 2332   8.963  11.283   4.188  0.9624 -0.1902  0.6007
   17MOL0     H 2333   8.850  11.451   4.049  3.7076 -4.6080 -0.6988
   17MOL0     H 2334   8.716  11.795   3.960 -1.0890  0.8802  2.5712
   17MOL0     H 2335   8.790  11.629   3.938  0.4885 -2.3747  1.6885
   17MOL0     H 2336   8.608  11.579   4.123 -0.2763 -0.0460 -0.1916
   17MOL0     H 2337   8.549  11.615   3.961 -2.1176  0.2931  0.4619
   17MOL0     H 2338   8.446  11.810   4.024 -3.0846 -3.4979 -0.4965
   17MOL0     H 2339   8.429  11.730   4.164  0.9808 -2.7005 -0.2966
   17MOL0     H 2340   8.617  11.955   4.095 -2.5035  1.1113 -0.6065
   17MOL0     H 2341   8.645  11.853   4.247  2.2889 -0.9667 -2.4565
   17MOL0     H 2342   8.296  12.111   4.272 -0.7589 -1.7858  0.9282
   17MOL0     H 2343   8.987  11.752   4.315 -1.1861 -0.0335 -0.8182
   17MOL0     H 2344   9.066  11.614   4.559 -1.8164  4.1580 -1.4660
   17MOL0     H 2345   9.218  11.537   4.490  4.1858  5.3470 -0.7996
   17MOL0     H 2346   9.173  11.694   4.434 -0.9607 -0.7836 -1.7710
   18MOL0     O 2347   3.340   0.756  10.919 -0.1334  0.9606 -0.5802
   18MOL0     C 2348   3.307   0.724  10.803 -0.2781  1.1260  0.4962
   18MOL0     O 2349   3.300   0.805  10.693 -0.0445  0.4334 -0.0150
   18MOL0     C 2350   3.331   0.933  10.713  0.1578 -0.0864  0.6070
   18MOL0     C 2351   3.453   0.980  10.681 -0.6122  0.3562  0.0432
   18MOL0     C 2352   3.486   1.123  10.683 -0.1107  0.3056 -0.2641
   18MOL0     C 2353   3.387   1.207  10.745  0.3554 -0.9235 -0.4070
   18MOL0     O 2354   3.413   1.342  10.787  0.5552  0.3305 -0.6424
   18MOL0     C 2355   3.552   1.357  10.827 -1.0208  0.7370 -0.4178
   18MOL0     C 2356   3.624   1.437  10.719 -0.1753 -0.2522  0.1589
   18MOL0     C 2357   3.589   1.578  10.701  0.5196 -0.7043  0.3447
   18MOL0     C 2358   3.619   1.652  10.825  0.2057 -0.0075 -0.6752
   18MOL0     C 2359   3.602   1.803  10.816 -0.2215  0.1767 -0.2007
   18MOL0     C 2360   3.584   1.844  10.962 -0.5349 -0.4809 -0.1159
   18MOL0     C 2361   3.531   1.990  10.973  0.3603  0.0244  0.0109
   18MOL0     C 2362   3.559   2.048  11.107  0.5817 -0.6272 -0.7912
   18MOL0     N 2363   3.468   2.006  11.208 -0.1973 -0.7423  0.2438
   18MOL0     C 2364   3.350   2.063  11.244  0.1816  0.2470  0.1008
   18MOL0     C 2365   3.296   1.976  11.335  0.9411  0.6922 -0.4398
   18MOL0     C 2366   3.154   2.000  11.390 -0.0161  0.0146  0.5260
   18MOL0     C 2367   3.169   2.032  11.547 -0.1098  0.0817  0.2905
   18MOL0     C 2368   3.182   2.185  11.560 -1.3402  1.1384 -0.6676
   18MOL0     C 2369   3.237   2.218  11.702 -0.8538  0.5850 -0.1306
   18MOL0     O 2370   3.131   2.181  11.796 -0.4246 -0.9342 -0.1714
   18MOL0     C 2371   3.127   2.245  11.919 -0.0499  1.1127  0.2533
   18MOL0     C 2372   3.235   2.315  11.974 -0.8096  0.4864  0.1948
   18MOL0     C 2373   3.227   2.383  12.092 -0.1055  0.7761  0.2336
   18MOL0     C 2374   3.335   2.472  12.139 -1.6085 -0.7377 -0.5435
   18MOL0     C 2375   3.106   2.369  12.169 -0.9176  0.1014  0.1225
   18MOL0     C 2376   3.090   2.426  12.306  0.4810 -0.8673 -1.1682
   18MOL0     O 2377   3.193   2.403  12.399 -0.2685 -0.5836 -0.3476
   18MOL0     C 2378   3.170   2.458  12.524 -0.5143 -0.0565 -0.3411
   18MOL0     C 2379   3.140   2.364  12.625  0.1120 -0.5138  0.0069
   18MOL0     C 2380   3.089   2.404  12.746  0.3533  0.1512 -1.2384
   18MOL0     C 2381   3.079   2.536  12.782 -0.4262 -0.0269 -0.5231
   18MOL0     O 2382   3.035   2.576  12.911  0.0175  0.3177 -0.2279
   18MOL0     C 2383   3.045   2.478  13.013  0.0932 -0.1435 -0.5812
   18MOL0     C 2384   3.057   2.553  13.149 -0.4107  0.7651  0.2970
   18MOL0     C 2385   3.054   2.458  13.270  0.6605  0.9640 -0.7374
   18MOL0     C 2386   2.905   2.422  13.313  0.0270 -0.6605 -0.6004
   18MOL0     C 2387   2.901   2.322  13.429 -0.5157  0.0991 -1.1313
   18MOL0     C 2388   2.765   2.278  13.474  1.3612 -0.6438 -0.3773
   18MOL0     C 2389   2.767   2.201  13.607 -0.2481  0.7963  0.5567
   18MOL0     C 2390   2.842   2.261  13.722  0.0843  0.6036 -0.7502
   18MOL0    Cl 2391   2.790   2.437  13.753  0.9224  0.2359 -0.0467
   18MOL0     C 2392   3.128   2.634  12.695 -0.1964  0.3484  0.9190
   18MOL0     C 2393   3.185   2.593  12.564 -0.4929  0.9245 -0.1062
   18MOL0     O 2394   2.981   2.486  12.332  0.0540  0.1307  0.6027
   18MOL0     C 2395   3.000   2.296  12.123 -0.1094  0.1078  0.6088
   18MOL0     C 2396   3.009   2.234  11.996  1.1725 -0.1346 -0.0059
   18MOL0     N 2397   3.377   1.871  11.348 -0.7091 -0.0855 -0.1648
   18MOL0     N 2398   3.482   1.892  11.286  0.3155 -0.1760  0.5517
   18MOL0     C 2399   3.270   1.153  10.785  0.0294 -0.3949 -0.1733
   18MOL0     C 2400   3.235   1.020  10.771 -0.1517 -0.4234  0.1759
   18MOL0     C 2401   3.293   0.583  10.780  0.0407 -0.0715  0.0212
   18MOL0     C 2402   3.219   0.512  10.876 -0.1549 -0.0173 -0.8561
   18MOL0     C 2403   3.196   0.372  10.858 -0.3965 -0.2250  0.1883
   18MOL0     C 2404   3.257   0.301  10.761  0.8815 -0.1677  0.9928
   18MOL0     O 2405   3.228   0.166  10.768 -0.2894 -0.1467 -0.0923
   18MOL0     C 2406   3.311   0.081  10.699  0.0653  0.9985  0.8092
   18MOL0     C 2407   3.292  -0.059  10.754  0.7464 -0.4574 -0.2766
   18MOL0     C 2408   3.382  -0.170  10.699  0.3183 -0.9738 -0.4516
   18MOL0     C 2409   3.526  -0.146  10.725 -1.1145  0.9837 -0.0466
   18MOL0     C 2410   3.563  -0.137  10.866 -0.6387 -0.1606  1.1906
   18MOL0     C 2411   3.598  -0.125  10.987 -0.0587  0.0470  0.4574
   18MOL0     C 2412   3.340   0.371  10.670 -0.4392  0.7372  0.1850
   18MOL0     C 2413   3.360   0.511  10.676 -0.6044  0.4055  0.1115
   18MOL0     C 2414   3.457   0.576  10.572  0.6071  0.3078  0.4148
   18MOL0     H 2415   3.522   0.914  10.629 -0.2027 -0.8380  1.9936
   18MOL0     H 2416   3.571   1.160  10.627 -0.8059 -1.1481 -2.4052
   18MOL0     H 2417   3.601   1.260  10.841 -0.2949  1.1108 -0.3266
   18MOL0     H 2418   3.572   1.411  10.920  0.7432  2.3796 -1.6630
   18MOL0     H 2419   3.733   1.432  10.725 -0.2363  0.1272  2.1613
   18MOL0     H 2420   3.601   1.402  10.618  0.6615 -0.1226 -0.0829
   18MOL0     H 2421   3.644   1.628  10.621 -0.5370  0.7505  0.4725
   18MOL0     H 2422   3.483   1.590  10.676  1.4515  1.6744 -3.2071
   18MOL0     H 2423   3.559   1.610  10.907  0.0875  0.6366 -0.4172
   18MOL0     H 2424   3.723   1.627  10.848 -0.6566 -1.8489  1.7255
   18MOL0     H 2425   3.518   1.842  10.757  1.7860  0.7601 -2.8439
   18MOL0     H 2426   3.696   1.842  10.776  0.4551 -0.2310  0.9549
   18MOL0     H 2427   3.513   1.781  11.017 -2.4734  2.1990  0.6802
   18MOL0     H 2428   3.680   1.832  11.012  0.4074  1.9124 -1.1776
   18MOL0     H 2429   3.423   1.983  10.954  0.4361  0.7071 -0.7059
   18MOL0     H 2430   3.582   2.051  10.897  0.9102 -1.3821 -0.7831
   18MOL0     H 2431   3.660   2.018  11.136  0.0237  1.5805  4.5121
   18MOL0     H 2432   3.553   2.156  11.116 -0.0457 -0.7695  0.6655
   18MOL0     H 2433   3.303   2.154  11.208 -0.6410  0.1457  0.8703
   18MOL0     H 2434   3.093   1.909  11.386 -0.2162  0.0387  2.1594
   18MOL0     H 2435   3.109   2.082  11.333  1.7187 -0.3281 -1.4902
   18MOL0     H 2436   3.083   1.995  11.603  2.8669 -1.7980  4.1508
   18MOL0     H 2437   3.264   1.987  11.579  0.0604 -1.1364 -1.7485
   18MOL0     H 2438   3.255   2.198  11.479 -2.2404  0.2199 -1.6486
   18MOL0     H 2439   3.090   2.238  11.535 -0.3291  3.7029  0.6700
   18MOL0     H 2440   3.319   2.150  11.724 -1.6833  0.5318  3.4620
   18MOL0     H 2441   3.270   2.321  11.720  2.4980 -0.4863  0.4881
   18MOL0     H 2442   3.326   2.327  11.916 -0.5248 -2.0415  0.0214
   18MOL0     H 2443   3.384   2.436  12.230 -1.6158  1.6721  0.4862
   18MOL0     H 2444   3.317   2.580  12.150  3.6023  0.2171  1.5857
   18MOL0     H 2445   3.419   2.476  12.069  1.8049  1.6504  3.2519
   18MOL0     H 2446   3.132   2.259  12.600 -1.7033 -0.8645  1.8154
   18MOL0     H 2447   3.060   2.325  12.814 -1.2059  0.4380 -1.5430
   18MOL0     H 2448   2.958   2.411  13.018 -0.7642  1.0384  1.8759
   18MOL0     H 2449   3.142   2.429  13.002  0.3153 -0.9400  3.4246
   18MOL0     H 2450   3.144   2.618  13.138  0.0340  0.2177  0.5154
   18MOL0     H 2451   2.971   2.620  13.162 -1.4068 -0.6606  1.4536
   18MOL0     H 2452   3.100   2.511  13.354  2.0809  0.9937 -1.5051
   18MOL0     H 2453   3.099   2.363  13.241 -3.1360 -0.2727 -3.2647
   18MOL0     H 2454   2.857   2.374  13.227 -1.7779  1.9275 -1.1627
   18MOL0     H 2455   2.838   2.499  13.353 -0.1450 -2.6082  3.2997
   18MOL0     H 2456   2.960   2.231  13.411  0.3492 -0.6118  3.8250
   18MOL0     H 2457   2.945   2.375  13.514 -1.0433  2.3178 -2.1879
   18MOL0     H 2458   2.712   2.213  13.404 -0.7899  1.0221 -0.3995
   18MOL0     H 2459   2.714   2.372  13.494  1.3769 -1.1525  2.4709
   18MOL0     H 2460   2.818   2.108  13.578 -1.8936 -0.7993  2.4715
   18MOL0     H 2461   2.663   2.187  13.636 -1.5802  0.3453 -3.7518
   18MOL0     H 2462   2.951   2.264  13.711  0.3617  0.7231  1.5167
   18MOL0     H 2463   2.826   2.214  13.819 -0.3956  0.9878 -0.6403
   18MOL0     H 2464   3.137   2.740  12.716 -0.1099  0.3926  0.6636
   18MOL0     H 2465   3.234   2.660  12.495  0.9736  0.4855  0.4811
   18MOL0     H 2466   2.919   2.281  12.195  1.0937  3.1562  2.8073
   18MOL0     H 2467   2.924   2.171  11.971 -0.5991  1.5831  1.4029
   18MOL0     H 2468   3.198   1.220  10.831 -0.7758  0.3412 -2.4163
   18MOL0     H 2469   3.139   0.978  10.798  1.0087 -2.4384  1.4570
   18MOL0     H 2470   3.189   0.556  10.971  3.3828  0.6752  0.1248
   18MOL0     H 2471   3.138   0.314  10.930 -1.3684 -0.8359 -1.0519
   18MOL0     H 2472   3.288   0.082  10.592  2.4270 -0.1141  0.2200
   18MOL0     H 2473   3.416   0.106  10.715  0.5581  0.6701 -1.5475
   18MOL0     H 2474   3.194  -0.091  10.719  0.2562  0.0271  0.6133
   18MOL0     H 2475   3.294  -0.050  10.863 -1.0486  4.3651 -0.3988
   18MOL0     H 2476   3.344  -0.264  10.740 -2.2078  0.4838  0.7856
   18MOL0     H 2477   3.371  -0.171  10.591  1.3362  2.5174 -0.7166
   18MOL0     H 2478   3.554  -0.060  10.664 -1.9146  0.3953 -1.3072
   18MOL0     H 2479   3.583  -0.228  10.679 -0.5755  1.3333 -0.0144
   18MOL0     H 2480   3.627  -0.103  11.088 -3.1567  0.3967  1.4064
   18MOL0     H 2481   3.384   0.321  10.584  1.0811  4.1918 -1.2443
   18MOL0     H 2482   3.469   0.499  10.496 -1.4882  1.3936 -1.1043
   18MOL0     H 2483   3.413   0.664  10.524 -1.5854 -0.9898 -0.0521
   18MOL0     H 2484   3.546   0.616  10.623 -0.0257 -0.8190  2.5437
   19MOL0     O 2485  10.512   1.710   6.349 -0.6881  0.1765  0.2646
   19MOL0     C 2486  10.623   1.746   6.360 -0.5011 -1.3624  0.2558
   19MOL0     O 2487  10.697   1.742   6.482 -0.4861  0.4600  0.1083
   19MOL0     C 2488  10.670   1.674   6.600  0.0981 -0.8054  0.2629
   19MOL0     C 2489  10.580   1.563   6.612 -0.0397 -0.1991  0.1318
   19MOL0     C 2490  10.565   1.494   6.728 -0.1475  0.3906  0.1582
   19MOL0     C 2491  10.640   1.540   6.841 -0.0815  0.6465  0.0858
   19MOL0     O 2492  10.628   1.458   6.950 -0.4625 -0.4936 -1.0214
   19MOL0     C 2493  10.637   1.514   7.085  0.3188 -0.7893  0.4505
   19MOL0     C 2494  10.555   1.444   7.191  0.9630 -0.2175 -0.3845
   19MOL0     C 2495  10.402   1.469   7.182 -0.5080  0.9096 -0.1642
   19MOL0     C 2496  10.340   1.442   7.324 -0.3557 -0.4024  0.4510
   19MOL0     C 2497  10.217   1.524   7.340 -0.1934  0.0442 -0.9405
   19MOL0     C 2498  10.148   1.523   7.471  0.0228 -0.2256  0.5083
   19MOL0     C 2499  10.131   1.383   7.539  0.0845 -0.7424 -1.1449
   19MOL0     C 2500  10.054   1.265   7.470 -0.3454  0.4147  0.3896
   19MOL0     N 2501   9.932   1.313   7.414  0.6834  0.0324  0.9894
   19MOL0     C 2502   9.902   1.352   7.288 -0.0153  0.3192 -0.0341
   19MOL0     C 2503   9.774   1.399   7.293  0.1227 -0.8604  0.4921
   19MOL0     C 2504   9.701   1.476   7.182 -0.1426  0.1813  0.0473
   19MOL0     C 2505   9.717   1.632   7.218  0.9927 -0.3344 -0.1629
   19MOL0     C 2506   9.654   1.730   7.116  0.3960  0.1380 -0.6045
   19MOL0     C 2507   9.661   1.874   7.168  0.0839 -0.3874  1.1785
   19MOL0     O 2508   9.593   1.960   7.063 -0.0713  0.4696  0.5916
   19MOL0     C 2509   9.685   1.998   6.963 -0.3795  0.2165  0.6905
   19MOL0     C 2510   9.633   2.020   6.840 -0.5413 -0.1583  0.4515
   19MOL0     C 2511   9.707   2.055   6.729 -0.2500  0.0034 -0.4106
   19MOL0     C 2512   9.649   2.013   6.591  0.5532  0.2804 -0.5107
   19MOL0     C 2513   9.840   2.105   6.758 -0.3606  0.0636  0.4693
   19MOL0     C 2514   9.936   2.139   6.640 -0.0592 -0.4252 -0.4434
   19MOL0     O 2515  10.075   2.138   6.662 -0.0051 -0.2152  0.8071
   19MOL0     C 2516  10.158   2.172   6.553 -0.1032 -0.1030 -0.0518
   19MOL0     C 2517  10.164   2.293   6.482  0.3103 -0.5426 -0.0852
   19MOL0     C 2518  10.247   2.301   6.370 -0.0422 -1.0430 -0.3535
   19MOL0     C 2519  10.338   2.195   6.337 -0.3322 -0.0762 -0.2383
   19MOL0     O 2520  10.421   2.198   6.235 -0.6572  0.0126 -0.1441
   19MOL0     C 2521  10.506   2.308   6.219 -0.7324  0.3668  0.0091
   19MOL0     C 2522  10.620   2.273   6.113  0.7192  0.4473  0.5720
   19MOL0     C 2523  10.556   2.208   5.979  0.2170  0.6456  0.9298
   19MOL0     C 2524  10.438   2.286   5.924 -0.3371 -0.2168 -0.3488
   19MOL0     C 2525  10.472   2.431   5.886 -0.0392  0.0324 -0.2113
   19MOL0     C 2526  10.548   2.438   5.759 -0.7602  0.4420  1.3015
   19MOL0     C 2527  10.479   2.395   5.629  0.3836 -0.6381 -0.5223
   19MOL0     C 2528  10.477   2.509   5.512 -0.8574  0.5802 -0.0996
   19MOL0    Cl 2529  10.632   2.490   5.418 -0.2617 -0.0523 -0.2672
   19MOL0     C 2530  10.333   2.082   6.417  0.2395  0.9111  0.6078
   19MOL0     C 2531  10.240   2.065   6.525  0.4018  0.5040  0.1799
   19MOL0     O 2532   9.880   2.187   6.546  1.2224  0.4889 -0.7048
   19MOL0     C 2533   9.897   2.095   6.882 -0.5871  0.7919 -0.7197
   19MOL0     C 2534   9.825   2.033   6.979 -0.2012  0.3330  0.1379
   19MOL0     N 2535   9.726   1.373   7.422 -0.3682 -0.3152  0.7122
   19MOL0     N 2536   9.830   1.328   7.497 -0.5517 -0.0316 -0.1735
   19MOL0     C 2537  10.705   1.661   6.838  0.0433  0.2444  0.1890
   19MOL0     C 2538  10.726   1.725   6.721 -0.4645  0.1829  1.0387
   19MOL0     C 2539  10.701   1.801   6.246 -0.6473  0.5086  0.3429
   19MOL0     C 2540  10.845   1.790   6.250 -0.6631  0.5912  0.0801
   19MOL0     C 2541  10.928   1.821   6.140  0.5299  0.3858  0.2989
   19MOL0     C 2542  10.875   1.896   6.038 -0.0947  0.1963  0.2272
   19MOL0     O 2543  10.983   1.935   5.958 -0.0703  0.1851 -0.0040
   19MOL0     C 2544  10.951   1.995   5.840  0.3838  0.2564 -0.2663
   19MOL0     C 2545  11.068   2.027   5.749  1.4065  0.1043  0.0001
   19MOL0     C 2546  11.169   1.916   5.711  0.0722  0.0806 -0.0263
   19MOL0     C 2547  11.289   1.966   5.621  0.3884 -0.1603 -0.4121
   19MOL0     C 2548  11.232   2.037   5.510 -0.7099 -0.8731  0.1429
   19MOL0     C 2549  11.211   2.093   5.410 -0.4824 -0.2456  0.4295
   19MOL0     C 2550  10.737   1.903   6.035  0.2176 -0.5089 -0.2965
   19MOL0     C 2551  10.647   1.846   6.125  0.7205 -0.2793 -0.4324
   19MOL0     C 2552  10.496   1.841   6.087  0.0604 -0.7201  0.4473
   19MOL0     H 2553  10.531   1.525   6.523 -0.0507 -0.1005  0.0951
   19MOL0     H 2554  10.521   1.395   6.731  0.3177  0.1992  0.8936
   19MOL0     H 2555  10.604   1.619   7.087  2.7268  0.1151 -1.8072
   19MOL0     H 2556  10.745   1.508   7.101  0.2890 -2.1390  0.2770
   19MOL0     H 2557  10.572   1.336   7.188  0.9156 -0.3100  1.4895
   19MOL0     H 2558  10.593   1.486   7.284  1.4579  2.7486 -1.8052
   19MOL0     H 2559  10.390   1.574   7.153  1.9891  1.1061 -0.7474
   19MOL0     H 2560  10.354   1.393   7.120 -1.5749  0.1579  1.5095
   19MOL0     H 2561  10.320   1.335   7.339 -0.3420 -0.5241 -0.3592
   19MOL0     H 2562  10.416   1.464   7.400  3.2754 -2.2124 -2.3086
   19MOL0     H 2563  10.149   1.497   7.258 -0.1930 -1.7326 -0.3926
   19MOL0     H 2564  10.252   1.627   7.328 -1.3406  0.8220  1.6550
   19MOL0     H 2565  10.193   1.591   7.545 -0.0798  1.7699 -1.1575
   19MOL0     H 2566  10.048   1.563   7.452 -1.3390 -3.3313  0.5324
   19MOL0     H 2567  10.083   1.404   7.635 -1.8680 -1.9694 -1.7842
   19MOL0     H 2568  10.227   1.345   7.573  2.6882  5.1931 -0.6868
   19MOL0     H 2569  10.109   1.226   7.384 -1.4118 -1.5178  0.5048
   19MOL0     H 2570  10.043   1.183   7.542  0.1187 -0.0204 -0.0296
   19MOL0     H 2571   9.970   1.351   7.204 -0.3381 -1.3499 -0.3221
   19MOL0     H 2572   9.600   1.440   7.164  0.2786 -0.4210 -1.2941
   19MOL0     H 2573   9.761   1.458   7.092 -1.6269 -1.2706 -0.7052
   19MOL0     H 2574   9.660   1.659   7.308  1.6254  0.7763 -0.0788
   19MOL0     H 2575   9.825   1.653   7.221  1.1414 -0.8416 -1.3839
   19MOL0     H 2576   9.710   1.715   7.024  1.8512 -1.5075  0.4719
   19MOL0     H 2577   9.556   1.680   7.110  1.4029 -2.5513  2.2279
   19MOL0     H 2578   9.596   1.876   7.256 -0.1637  1.9270  1.0224
   19MOL0     H 2579   9.761   1.900   7.204  0.8733  0.2181 -1.2132
   19MOL0     H 2580   9.526   2.006   6.827 -0.5987  2.0730 -2.4411
   19MOL0     H 2581   9.701   1.922   6.560 -2.8588 -3.0772  2.6188
   19MOL0     H 2582   9.652   2.105   6.531 -2.1542  1.4494  0.9615
   19MOL0     H 2583   9.544   1.985   6.597  0.1807  1.8659  3.1646
   19MOL0     H 2584  10.092   2.369   6.508  1.4480  0.2460  0.8420
   19MOL0     H 2585  10.251   2.398   6.321  0.9566 -0.5876  0.5802
   19MOL0     H 2586  10.446   2.390   6.178  1.9967  1.6223 -1.8147
   19MOL0     H 2587  10.547   2.325   6.319 -0.0242 -0.1422 -0.1834
   19MOL0     H 2588  10.686   2.354   6.083  2.4161 -0.8165  0.7613
   19MOL0     H 2589  10.681   2.196   6.161  0.1696 -0.9757 -0.9317
   19MOL0     H 2590  10.522   2.106   6.003 -2.8444  1.4728  0.5583
   19MOL0     H 2591  10.631   2.196   5.901 -0.4397 -2.2106  0.6127
   19MOL0     H 2592  10.359   2.291   6.000 -0.1771  1.3636 -0.2506
   19MOL0     H 2593  10.386   2.230   5.845  3.2074 -0.1175 -2.9642
   19MOL0     H 2594  10.376   2.484   5.882  0.6299  1.4316  1.0985
   19MOL0     H 2595  10.536   2.479   5.960  0.4580 -0.4949 -0.2962
   19MOL0     H 2596  10.640   2.379   5.770 -0.4210  0.2068 -1.8061
   19MOL0     H 2597  10.598   2.535   5.749  2.2345 -0.6624  4.0454
   19MOL0     H 2598  10.374   2.366   5.640 -0.1737  1.2710 -0.4349
   19MOL0     H 2599  10.536   2.309   5.593  1.0519 -0.7043  0.6359
   19MOL0     H 2600  10.474   2.612   5.551 -1.4821 -0.5559  3.1259
   19MOL0     H 2601  10.392   2.489   5.448 -1.5505 -0.6261  1.1468
   19MOL0     H 2602  10.396   2.003   6.379 -1.6135 -0.2704 -0.1679
   19MOL0     H 2603  10.225   1.964   6.563 -0.3376  0.4533 -0.2306
   19MOL0     H 2604  10.001   2.119   6.899 -1.3485  2.1687  2.9346
   19MOL0     H 2605   9.866   1.997   7.073 -3.0173 -1.7374  0.6694
   19MOL0     H 2606  10.760   1.704   6.921  1.8453 -1.5705  0.0096
   19MOL0     H 2607  10.788   1.814   6.710  3.1153 -2.3275 -1.9444
   19MOL0     H 2608  10.888   1.735   6.333  1.7138  2.9095  0.5054
   19MOL0     H 2609  11.032   1.788   6.134 -0.2615 -2.6094  1.2342
   19MOL0     H 2610  10.880   1.932   5.786  2.3381 -3.4142  1.0741
   19MOL0     H 2611  10.899   2.090   5.858 -2.8642 -1.5831  0.8811
   19MOL0     H 2612  11.131   2.109   5.785  0.9796 -0.1454  1.3592
   19MOL0     H 2613  11.024   2.077   5.662 -1.0631 -2.5729 -0.4319
   19MOL0     H 2614  11.213   1.885   5.806  0.7885  0.2677 -0.2908
   19MOL0     H 2615  11.124   1.831   5.659  0.8641  0.8559 -2.1139
   19MOL0     H 2616  11.343   1.877   5.589  1.1795  0.2946 -0.3472
   19MOL0     H 2617  11.357   2.030   5.677  0.9058 -1.0559  0.0150
   19MOL0     H 2618  11.169   2.134   5.320  4.5326  0.4738 -1.9768
   19MOL0     H 2619  10.692   1.964   5.958 -2.1990 -2.2937 -0.4132
   19MOL0     H 2620  10.438   1.918   6.139  0.4478 -0.1533  0.0409
   19MOL0     H 2621  10.495   1.856   5.979 -0.8577  2.3003  0.7972
   19MOL0     H 2622  10.447   1.744   6.098  0.1524 -1.2395 -2.8258
   20MOL0     O 2623  10.360  11.357   7.800  0.4107  0.2155 -0.0563
   20MOL0     C 2624  10.404  11.417   7.895  0.4518 -0.6146  0.6424
   20MOL0     O 2625  10.504  11.517   7.888 -0.5478 -0.5109  0.3615
   20MOL0     C 2626  10.567  11.559   7.778 -0.2091  0.1010  0.8218
   20MOL0     C 2627  10.596  11.692   7.775 -0.6907  0.3579  0.7573
   20MOL0     C 2628  10.664  11.744   7.664 -0.4121  0.2926  0.1370
   20MOL0     C 2629  10.704  11.673   7.556  0.5528  1.0316  0.6687
   20MOL0     O 2630  10.780  11.708   7.448  0.1507  0.0005  0.3091
   20MOL0     C 2631  10.812  11.848   7.447  0.5480 -0.8656 -0.0211
   20MOL0     C 2632  10.694  11.920   7.368 -0.2119  0.3855  0.1734
   20MOL0     C 2633  10.702  12.067   7.363  0.1009  0.7158  0.3706
   20MOL0     C 2634  10.599  12.099   7.249 -0.2716  0.3342 -0.2771
   20MOL0     C 2635  10.602  12.255   7.219 -0.2574 -0.2071  0.7880
   20MOL0     C 2636  10.597  12.341   7.339 -0.0954 -0.1754 -1.0127
   20MOL0     C 2637  10.580  12.479   7.276 -0.5454 -0.6231  0.2820
   20MOL0     C 2638  10.586  12.592   7.372  0.0825 -0.2475 -0.7126
   20MOL0     N 2639  10.465  12.605   7.458  0.1006  0.0700  0.2010
   20MOL0     C 2640  10.464  12.603   7.600  0.0111  0.2879 -0.3240
   20MOL0     C 2641  10.331  12.621   7.637  0.1516  0.3981  0.4880
   20MOL0     C 2642  10.280  12.626   7.779 -0.4518 -0.0109  0.0794
   20MOL0     C 2643  10.254  12.492   7.827  0.5564 -0.4514  0.0110
   20MOL0     C 2644  10.136  12.486   7.913  0.3112  0.1654 -0.2015
   20MOL0     C 2645  10.110  12.343   7.968 -0.2093 -0.0685  0.2514
   20MOL0     O 2646   9.984  12.332   8.020 -0.1267 -0.1791 -0.4377
   20MOL0     C 2647   9.976  12.354   8.153 -0.0161 -0.1708 -0.0406
   20MOL0     C 2648  10.023  12.266   8.248 -0.2848  1.0271 -0.9861
   20MOL0     C 2649  10.022  12.293   8.381 -0.7015 -0.0055  1.4153
   20MOL0     C 2650  10.071  12.184   8.470 -0.6153 -0.5311  0.3042
   20MOL0     C 2651   9.965  12.417   8.430 -0.2228  0.0908  0.3400
   20MOL0     C 2652   9.950  12.435   8.575 -0.0242  0.5998 -0.1180
   20MOL0     O 2653   9.841  12.511   8.623  0.7106 -0.4329 -0.4600
   20MOL0     C 2654   9.829  12.538   8.759 -0.1272  0.1426 -0.3655
   20MOL0     C 2655   9.710  12.494   8.822 -1.1214 -0.8912  0.9927
   20MOL0     C 2656   9.696  12.511   8.962  0.2757 -0.4022 -0.3547
   20MOL0     C 2657   9.784  12.595   9.036  0.1411  0.2539  0.1849
   20MOL0     O 2658   9.751  12.633   9.159 -0.7001  0.3439 -0.3871
   20MOL0     C 2659   9.668  12.549   9.240 -0.3102 -0.3598 -0.4631
   20MOL0     C 2660   9.727  12.528   9.378  0.3770  0.7117 -0.0352
   20MOL0     C 2661   9.695  12.617   9.493 -0.1983  0.8955  0.1314
   20MOL0     C 2662   9.788  12.724   9.499 -0.6683  0.0253  0.0624
   20MOL0     C 2663   9.748  12.835   9.601 -0.7831  0.1391  0.5991
   20MOL0     C 2664   9.847  12.957   9.599  0.1310  0.3725 -0.2735
   20MOL0     C 2665   9.813  13.071   9.694 -0.3410  0.1564  0.0160
   20MOL0     C 2666   9.903  13.191   9.683 -0.2210  0.5552 -0.3653
   20MOL0    Cl 2667  10.065  13.129   9.645 -0.0231 -0.3501 -0.0545
   20MOL0     C 2668   9.907  12.631   8.975  0.6226  0.3329 -0.8752
   20MOL0     C 2669   9.928  12.595   8.840 -0.2298 -1.0343  0.1563
   20MOL0     O 2670  10.045  12.396   8.644 -0.1875  0.8494  0.6793
   20MOL0     C 2671   9.923  12.511   8.341 -0.9826 -0.6442  0.2912
   20MOL0     C 2672   9.936  12.482   8.201  0.7431 -0.3318 -0.9313
   20MOL0     N 2673  10.261  12.645   7.522  0.6897  0.0564  0.9604
   20MOL0     N 2674  10.339  12.636   7.416 -0.4471 -0.6212 -0.7310
   20MOL0     C 2675  10.669  11.540   7.559 -0.0956 -0.2502 -1.3279
   20MOL0     C 2676  10.596  11.488   7.666 -0.4543 -0.1850 -0.7738
   20MOL0     C 2677  10.355  11.384   8.033 -0.6561 -0.3537 -0.4284
   20MOL0     C 2678  10.454  11.355   8.131  0.5866  0.4883  0.0184
   20MOL0     C 2679  10.402  11.336   8.261 -0.0801  0.0098  1.2824
   20MOL0     C 2680  10.271  11.334   8.291 -0.0136 -0.0251 -0.5832
   20MOL0     O 2681  10.214  11.291   8.409  0.6925 -0.3783 -0.0699
   20MOL0     C 2682  10.281  11.269   8.524 -0.4842  0.4967 -0.2942
   20MOL0     C 2683  10.256  11.131   8.568 -0.4953  0.3234  0.1135
   20MOL0     C 2684  10.308  11.024   8.472  0.0134 -0.3818  0.3263
   20MOL0     C 2685  10.189  10.964   8.386  0.6629  0.0155 -0.5731
   20MOL0     C 2686  10.246  10.849   8.311 -0.0023 -0.0978 -0.2972
   20MOL0     C 2687  10.313  10.773   8.239 -0.6079  0.2259 -0.1850
   20MOL0     C 2688  10.175  11.360   8.192  0.0028  0.3746  0.3518
   20MOL0     C 2689  10.217  11.389   8.060 -0.7637  0.7437 -0.3879
   20MOL0     C 2690  10.115  11.409   7.955 -0.0193 -0.5344 -0.6349
   20MOL0     H 2691  10.568  11.763   7.851  1.2835 -0.6037  2.4922
   20MOL0     H 2692  10.709  11.840   7.689  0.5165 -0.1421  0.1897
   20MOL0     H 2693  10.909  11.866   7.400  2.3105 -2.0454  2.8463
   20MOL0     H 2694  10.819  11.895   7.546 -2.7076 -3.1348  1.4519
   20MOL0     H 2695  10.694  11.889   7.263  3.8158  1.1201 -0.2072
   20MOL0     H 2696  10.603  11.894   7.423  1.0350 -4.5305  0.4135
   20MOL0     H 2697  10.689  12.108   7.464  0.5963 -1.3059  1.3261
   20MOL0     H 2698  10.797  12.099   7.319 -0.9941  0.6220 -2.2063
   20MOL0     H 2699  10.624  12.046   7.157  0.3687 -1.6688  0.9956
   20MOL0     H 2700  10.498  12.071   7.279 -0.4934  2.1610  0.8806
   20MOL0     H 2701  10.512  12.285   7.164 -0.9861  1.2528  2.6738
   20MOL0     H 2702  10.696  12.282   7.171 -0.2222 -0.0783  0.9303
   20MOL0     H 2703  10.510  12.297   7.389  0.3994 -0.7223 -0.6265
   20MOL0     H 2704  10.681  12.334   7.409 -1.5233  0.0975  0.8216
   20MOL0     H 2705  10.482  12.483   7.229 -0.2194 -0.6049 -0.4150
   20MOL0     H 2706  10.656  12.497   7.200  0.6194  2.8539  2.0449
   20MOL0     H 2707  10.672  12.586   7.439 -0.9151 -0.7456  0.5721
   20MOL0     H 2708  10.594  12.686   7.317 -2.0157  0.7283  0.5177
   20MOL0     H 2709  10.546  12.572   7.663 -0.5643  0.1026  0.3493
   20MOL0     H 2710  10.194  12.694   7.772 -0.0750  0.4777  0.1692
   20MOL0     H 2711  10.350  12.672   7.850 -0.3108 -0.8418  0.4901
   20MOL0     H 2712  10.253  12.422   7.743  0.8921 -3.2218  2.1715
   20MOL0     H 2713  10.338  12.455   7.886  1.1514 -0.2767 -0.7263
   20MOL0     H 2714  10.150  12.559   7.993  2.7124  0.9225 -1.2266
   20MOL0     H 2715  10.058  12.527   7.848  0.5400 -0.3263 -0.7916
   20MOL0     H 2716  10.120  12.273   7.886  0.4517  0.6278 -0.2742
   20MOL0     H 2717  10.185  12.313   8.041 -0.5274 -0.6991  0.3267
   20MOL0     H 2718  10.073  12.177   8.213  0.4103  0.6178  0.9563
   20MOL0     H 2719  10.165  12.213   8.518  0.0588  0.2031 -1.3804
   20MOL0     H 2720  10.098  12.103   8.403 -2.4053 -0.4283 -0.6048
   20MOL0     H 2721   9.995  12.160   8.545 -0.7895 -2.4588 -0.4504
   20MOL0     H 2722   9.631  12.458   8.756 -0.4239 -0.5904 -0.0423
   20MOL0     H 2723   9.601  12.471   8.997  2.0657 -1.8354  3.4023
   20MOL0     H 2724   9.572  12.596   9.260  1.0963  1.5159  2.6243
   20MOL0     H 2725   9.640  12.456   9.190 -3.0248  1.2380 -2.1002
   20MOL0     H 2726   9.691  12.424   9.383  1.8433  0.2259  1.0216
   20MOL0     H 2727   9.833  12.509   9.361  0.0337 -1.5935  0.0395
   20MOL0     H 2728   9.698  12.558   9.585 -2.9592 -0.0602 -0.3128
   20MOL0     H 2729   9.590  12.647   9.491 -0.9567 -1.5286 -1.5461
   20MOL0     H 2730   9.794  12.782   9.407 -2.5428  0.4567  0.1727
   20MOL0     H 2731   9.887  12.692   9.532 -0.7817  0.7317  1.1388
   20MOL0     H 2732   9.652  12.880   9.572 -0.1383  1.9756  1.2220
   20MOL0     H 2733   9.733  12.798   9.703 -0.5537  2.1217  1.3789
   20MOL0     H 2734   9.833  13.002   9.501  3.5864 -1.0628 -1.5662
   20MOL0     H 2735   9.951  12.923   9.598  0.1983  0.5824 -0.3548
   20MOL0     H 2736   9.817  13.034   9.797  1.0199  1.2946  0.4060
   20MOL0     H 2737   9.713  13.095   9.655  0.3942  1.4774 -1.1552
   20MOL0     H 2738   9.898  13.248   9.775 -1.5552 -0.0471 -0.0304
   20MOL0     H 2739   9.868  13.249   9.597 -0.7495  0.1292 -0.4484
   20MOL0     H 2740   9.987  12.675   9.035  0.4412 -0.5942  0.0712
   20MOL0     H 2741  10.013  12.624   8.779 -2.7492  0.1031 -3.1615
   20MOL0     H 2742   9.874  12.605   8.366 -1.6082 -0.6682 -0.7574
   20MOL0     H 2743   9.915  12.557   8.125 -0.1413 -0.6559 -1.0175
   20MOL0     H 2744  10.700  11.482   7.474  0.4015  0.5504 -1.7095
   20MOL0     H 2745  10.566  11.384   7.656  1.3915 -1.1886  2.6840
   20MOL0     H 2746  10.560  11.346   8.112  0.3952  0.9200 -1.3964
   20MOL0     H 2747  10.469  11.304   8.340 -1.4561 -1.7617  1.8021
   20MOL0     H 2748  10.389  11.283   8.508 -0.1347  0.6762  1.8684
   20MOL0     H 2749  10.252  11.346   8.596  1.0694  1.4356 -0.6181
   20MOL0     H 2750  10.157  11.115   8.613  0.3843 -1.4390  1.5898
   20MOL0     H 2751  10.315  11.118   8.659  0.1391  0.6307 -0.2519
   20MOL0     H 2752  10.386  11.064   8.407  0.5470 -1.9526 -0.0587
   20MOL0     H 2753  10.356  10.947   8.534 -0.8919 -0.6784  0.6751
   20MOL0     H 2754  10.141  11.040   8.324 -0.3440 -0.4946 -0.4376
   20MOL0     H 2755  10.111  10.919   8.448  0.2292  3.4667  1.6095
   20MOL0     H 2756  10.366  10.695   8.188  0.0081  1.2324 -1.1222
   20MOL0     H 2757  10.070  11.356   8.219  0.3523  1.9646  2.1469
   20MOL0     H 2758  10.126  11.511   7.915  3.1742 -0.6261 -0.2861
   20MOL0     H 2759  10.128  11.340   7.871  0.9111 -0.7263 -0.3468
   20MOL0     H 2760  10.013  11.398   7.993  0.4418 -1.6225  0.3122
   21MOL0     O 2761   4.716   6.384   9.006  0.5092 -0.1094 -0.3442
   21MOL0     C 2762   4.621   6.462   8.994  0.4760 -0.8273 -0.5216
   21MOL0     O 2763   4.489   6.421   9.007  0.2802  0.1565 -0.5504
   21MOL0     C 2764   4.460   6.287   8.991  0.0861 -0.1276 -0.6001
   21MOL0     C 2765   4.516   6.206   8.893 -1.0150 -0.6865  1.1365
   21MOL0     C 2766   4.474   6.072   8.868 -0.0917 -0.8048 -0.3387
   21MOL0     C 2767   4.390   6.016   8.961 -0.2753  0.3162  0.6886
   21MOL0     O 2768   4.367   5.881   8.954  0.0504 -0.4344  0.6003
   21MOL0     C 2769   4.275   5.866   8.849  0.8069  0.5462  0.9361
   21MOL0     C 2770   4.204   5.730   8.865  0.2634  0.4945  0.0581
   21MOL0     C 2771   4.117   5.731   8.989 -0.0961 -0.7939 -0.5806
   21MOL0     C 2772   4.187   5.691   9.120  0.5359  0.2861  0.1297
   21MOL0     C 2773   4.090   5.716   9.240 -0.2402 -0.0144  0.6146
   21MOL0     C 2774   4.153   5.771   9.369  0.1196 -0.1700  0.1212
   21MOL0     C 2775   4.278   5.703   9.406  0.3063  0.0733  0.4886
   21MOL0     C 2776   4.265   5.560   9.426 -0.4224  0.0062  0.5762
   21MOL0     N 2777   4.380   5.481   9.478 -0.1200  0.8777 -0.3337
   21MOL0     C 2778   4.420   5.486   9.608 -0.0492 -0.7921 -0.4534
   21MOL0     C 2779   4.512   5.386   9.612 -0.4168  0.1475  0.2318
   21MOL0     C 2780   4.596   5.346   9.740 -0.5526 -0.4689 -0.1618
   21MOL0     C 2781   4.506   5.352   9.859 -0.5175  0.0253 -0.8394
   21MOL0     C 2782   4.599   5.369   9.985  0.1621  0.6469 -0.1948
   21MOL0     C 2783   4.524   5.320  10.110  0.2950 -0.7608 -1.2765
   21MOL0     O 2784   4.535   5.181  10.141  0.1133 -0.3683 -0.0873
   21MOL0     C 2785   4.525   5.135  10.271  0.7489  0.3871 -0.2371
   21MOL0     C 2786   4.454   5.202  10.375 -0.3826  0.1465  0.3953
   21MOL0     C 2787   4.442   5.147  10.511  0.4159  0.2460 -0.3725
   21MOL0     C 2788   4.378   5.235  10.616 -0.7875  0.0522 -0.5594
   21MOL0     C 2789   4.504   5.013  10.535  0.4620  0.1803 -0.2925
   21MOL0     C 2790   4.505   4.948  10.661 -0.1610  0.1978 -0.1755
   21MOL0     O 2791   4.524   4.803  10.670  0.2746 -0.0991 -1.1661
   21MOL0     C 2792   4.496   4.751  10.800  0.5184 -0.1601  0.2521
   21MOL0     C 2793   4.596   4.707  10.879  0.5034 -0.1746  0.3545
   21MOL0     C 2794   4.568   4.657  11.004 -0.0705  0.1220  0.6897
   21MOL0     C 2795   4.432   4.654  11.059  0.0710 -0.1202  0.2264
   21MOL0     O 2796   4.386   4.605  11.178 -0.3314 -0.0450  1.1825
   21MOL0     C 2797   4.494   4.540  11.251 -0.0324  0.0226 -0.5952
   21MOL0     C 2798   4.455   4.482  11.388 -0.8225  0.2629 -0.3937
   21MOL0     C 2799   4.336   4.399  11.395 -0.2942  1.0616 -0.0595
   21MOL0     C 2800   4.340   4.326  11.525  0.0671 -0.3680  0.3230
   21MOL0     C 2801   4.220   4.239  11.539  0.2120  0.5104 -0.1506
   21MOL0     C 2802   4.229   4.166  11.672  0.0863  0.6343  0.1017
   21MOL0     C 2803   4.116   4.057  11.693  0.4962 -0.1876  0.3484
   21MOL0     C 2804   3.973   4.120  11.696 -1.0970  0.2921 -0.0909
   21MOL0    Cl 2805   3.935   4.158  11.867 -0.6135  0.1304  0.2006
   21MOL0     C 2806   4.334   4.704  10.973 -0.0662 -0.7010  0.2214
   21MOL0     C 2807   4.364   4.762  10.853  0.0663 -0.0594  0.4711
   21MOL0     O 2808   4.511   5.027  10.754 -0.1414  0.0631 -0.8294
   21MOL0     C 2809   4.562   4.948  10.425 -0.7757  0.1534  0.3903
   21MOL0     C 2810   4.563   5.010  10.296 -0.3463  0.0703  0.7105
   21MOL0     N 2811   4.528   5.341   9.480  0.1144 -0.0537  0.0610
   21MOL0     N 2812   4.449   5.406   9.399 -1.1364  0.3742  0.4920
   21MOL0     C 2813   4.339   6.097   9.064 -0.5998 -0.1526 -0.1022
   21MOL0     C 2814   4.371   6.236   9.080 -1.1453 -0.4236 -0.0597
   21MOL0     C 2815   4.651   6.603   8.996  0.8799  0.1388  0.3808
   21MOL0     C 2816   4.539   6.686   8.974 -0.4177 -0.7710 -0.0835
   21MOL0     C 2817   4.552   6.827   8.957  0.0565 -0.1611  0.3716
   21MOL0     C 2818   4.674   6.886   8.966 -0.1666 -0.9988  0.0937
   21MOL0     O 2819   4.696   7.022   8.944 -0.5084 -0.1373 -0.0190
   21MOL0     C 2820   4.587   7.115   8.922 -0.2729  0.3966 -0.2299
   21MOL0     C 2821   4.632   7.258   8.954 -0.6167 -0.1793  0.2078
   21MOL0     C 2822   4.539   7.363   8.901 -0.0310  0.1144  0.0609
   21MOL0     C 2823   4.583   7.507   8.944  0.3734 -0.4262  0.0338
   21MOL0     C 2824   4.699   7.551   8.862  0.6387 -0.5507 -0.2202
   21MOL0     C 2825   4.805   7.566   8.799  0.2641  0.1373 -0.2555
   21MOL0     C 2826   4.783   6.802   8.984 -0.8473  0.5860 -0.1613
   21MOL0     C 2827   4.775   6.663   9.002 -0.7951  0.4679 -0.3885
   21MOL0     C 2828   4.914   6.596   9.011  0.7937 -0.0459 -0.2501
   21MOL0     H 2829   4.584   6.243   8.816 -1.6094 -0.6130  0.6419
   21MOL0     H 2830   4.510   6.005   8.790 -3.8786 -4.4423  0.6537
   21MOL0     H 2831   4.333   5.858   8.757  1.6244 -1.7109  1.5788
   21MOL0     H 2832   4.205   5.950   8.852  1.3392  1.1079 -1.0193
   21MOL0     H 2833   4.140   5.712   8.777  2.7454 -0.0622 -1.7426
   21MOL0     H 2834   4.285   5.657   8.873  1.3818  1.6070 -0.8046
   21MOL0     H 2835   4.082   5.834   9.003 -1.6485 -1.4104  0.3484
   21MOL0     H 2836   4.022   5.680   8.972 -0.9813  0.4963  0.3016
   21MOL0     H 2837   4.222   5.590   9.099  0.8806  0.3659  0.3096
   21MOL0     H 2838   4.276   5.753   9.136  2.0607 -1.7599 -0.1213
   21MOL0     H 2839   4.035   5.622   9.254 -1.5516  0.6729  0.1965
   21MOL0     H 2840   4.015   5.784   9.199  0.0548 -0.4310 -0.6410
   21MOL0     H 2841   4.170   5.878   9.352 -1.1291  0.0347  0.1064
   21MOL0     H 2842   4.086   5.763   9.455 -1.6438 -0.6708 -1.2298
   21MOL0     H 2843   4.299   5.766   9.493 -1.5095  1.0579  0.2696
   21MOL0     H 2844   4.359   5.709   9.332 -1.0619 -1.6944 -1.2772
   21MOL0     H 2845   4.184   5.530   9.493 -2.8287  2.6523 -0.8939
   21MOL0     H 2846   4.246   5.517   9.327  1.2160 -3.8357  1.7325
   21MOL0     H 2847   4.390   5.548   9.691 -3.8894 -2.2453 -0.5489
   21MOL0     H 2848   4.668   5.429   9.748 -1.2190 -0.0041  1.4739
   21MOL0     H 2849   4.653   5.255   9.723 -0.2082 -0.2641 -0.1227
   21MOL0     H 2850   4.440   5.439   9.866 -0.6835 -0.0682 -1.2172
   21MOL0     H 2851   4.438   5.267   9.865  0.8085 -1.0823 -0.9491
   21MOL0     H 2852   4.680   5.296   9.977 -1.2906 -1.4652  2.4061
   21MOL0     H 2853   4.630   5.473   9.989 -0.8519  1.0825 -2.2641
   21MOL0     H 2854   4.567   5.376  10.194 -0.3319 -2.6194  0.3628
   21MOL0     H 2855   4.421   5.347  10.087  0.5635  0.0188 -1.6169
   21MOL0     H 2856   4.416   5.301  10.353 -1.0754 -0.5851 -2.0595
   21MOL0     H 2857   4.300   5.188  10.677 -1.6732  1.4855 -0.5452
   21MOL0     H 2858   4.343   5.324  10.562  1.3671  0.2961 -1.6675
   21MOL0     H 2859   4.466   5.267  10.673  2.6435 -0.0675 -5.2154
   21MOL0     H 2860   4.685   4.679  10.824  0.0893  1.2982 -1.1463
   21MOL0     H 2861   4.651   4.609  11.055  1.4572  2.3088  0.3783
   21MOL0     H 2862   4.544   4.469  11.184 -2.5000 -1.2985 -1.1494
   21MOL0     H 2863   4.555   4.627  11.276  0.1609  0.2753 -1.8793
   21MOL0     H 2864   4.541   4.420  11.415 -2.3641 -1.0872  1.7015
   21MOL0     H 2865   4.438   4.569  11.452 -0.6213  2.4795 -3.1645
   21MOL0     H 2866   4.339   4.327  11.313  1.5202  1.7025 -0.6088
   21MOL0     H 2867   4.248   4.459  11.368 -0.9226 -0.4285 -1.4534
   21MOL0     H 2868   4.349   4.406  11.598  1.5842  0.7960 -1.0639
   21MOL0     H 2869   4.419   4.250  11.535 -0.8697 -1.5195 -0.6910
   21MOL0     H 2870   4.130   4.300  11.523 -1.9704 -2.3337  0.5993
   21MOL0     H 2871   4.241   4.163  11.463  1.9016  2.3556 -1.6810
   21MOL0     H 2872   4.208   4.248  11.741  0.2761  0.9328 -0.1932
   21MOL0     H 2873   4.332   4.131  11.684  0.2475  1.4015  1.1355
   21MOL0     H 2874   4.131   3.994  11.781 -4.7099  0.9371  2.4405
   21MOL0     H 2875   4.123   3.991  11.606  1.6754  0.1657  0.1526
   21MOL0     H 2876   3.902   4.043  11.664 -0.6166 -2.0092  3.7657
   21MOL0     H 2877   3.971   4.215  11.641  1.7763  0.8916  0.6569
   21MOL0     H 2878   4.234   4.701  11.014  0.1807  0.6498  0.9963
   21MOL0     H 2879   4.288   4.810  10.792  1.6235 -1.4760 -2.8480
   21MOL0     H 2880   4.615   4.853  10.425 -2.8026 -1.1220 -2.2622
   21MOL0     H 2881   4.619   4.959  10.218 -0.1094 -1.6722  1.9615
   21MOL0     H 2882   4.271   6.041   9.127 -1.6420 -0.1213 -1.1549
   21MOL0     H 2883   4.343   6.295   9.167  0.6987  1.2932 -0.5436
   21MOL0     H 2884   4.435   6.659   8.965 -1.2955  2.8697 -4.0499
   21MOL0     H 2885   4.464   6.886   8.934 -1.2257 -0.7653  3.2493
   21MOL0     H 2886   4.563   7.104   8.816  1.6218 -0.5274 -0.6064
   21MOL0     H 2887   4.507   7.098   8.995  0.7995  0.7025  1.0554
   21MOL0     H 2888   4.727   7.263   8.900  0.1868  0.0661  1.6124
   21MOL0     H 2889   4.643   7.273   9.062 -1.0582 -1.9213  0.5216
   21MOL0     H 2890   4.530   7.351   8.793 -3.7975 -2.7314  0.4728
   21MOL0     H 2891   4.438   7.337   8.936 -1.1366  2.3729 -1.2004
   21MOL0     H 2892   4.607   7.497   9.051 -1.5165  1.7956  0.7561
   21MOL0     H 2893   4.506   7.582   8.930  0.1054 -0.9392 -1.3628
   21MOL0     H 2894   4.897   7.584   8.748  0.5152  1.9543  0.7524
   21MOL0     H 2895   4.880   6.851   8.986 -0.6524  0.2804 -1.3585
   21MOL0     H 2896   4.932   6.517   8.938 -0.8939  1.3654 -2.3347
   21MOL0     H 2897   4.998   6.663   8.990  0.1423  0.2538 -2.1298
   21MOL0     H 2898   4.907   6.559   9.113 -1.2859 -2.4904 -1.1641
   22MOL0     O 2899   2.067   4.352   8.123  0.1295 -0.4066 -0.3406
   22MOL0     C 2900   2.056   4.438   8.034 -0.1411 -0.1053 -0.3422
   22MOL0     O 2901   2.050   4.572   8.058 -0.1840 -0.1925 -0.2269
   22MOL0     C 2902   2.009   4.636   8.175 -0.6060 -0.6892  0.6535
   22MOL0     C 2903   2.022   4.776   8.185  0.0114 -0.1694  0.0664
   22MOL0     C 2904   1.977   4.843   8.301  0.2010 -0.7087 -0.3176
   22MOL0     C 2905   1.934   4.776   8.411  0.5132 -0.7573  0.2555
   22MOL0     O 2906   1.906   4.850   8.520 -0.0913 -0.4461  0.7763
   22MOL0     C 2907   1.904   4.778   8.642 -0.1553 -0.1633 -1.7294
   22MOL0     C 2908   1.918   4.862   8.764  0.0496  0.1314 -0.0050
   22MOL0     C 2909   1.942   4.788   8.898 -0.1305  0.1383 -0.1071
   22MOL0     C 2910   1.885   4.862   9.016  0.7156  0.1977 -0.6314
   22MOL0     C 2911   1.854   4.762   9.131 -0.0957  0.7811  0.6206
   22MOL0     C 2912   1.787   4.831   9.255 -0.5316  0.6180  0.8123
   22MOL0     C 2913   1.881   4.937   9.317  0.6285 -0.3047  0.3177
   22MOL0     C 2914   2.017   4.888   9.364 -1.0120 -0.2751 -0.8387
   22MOL0     N 2915   2.116   4.874   9.260  0.0749  0.2938 -0.5424
   22MOL0     C 2916   2.179   4.979   9.193  0.4188  0.0226 -0.4503
   22MOL0     C 2917   2.272   4.915   9.122 -0.0225 -0.1026 -0.2015
   22MOL0     C 2918   2.332   4.982   8.999 -0.4306 -0.3663  0.1718
   22MOL0     C 2919   2.478   4.942   8.973 -0.1828  0.5121  0.2092
   22MOL0     C 2920   2.582   4.960   9.087  0.1861  0.5919 -0.5074
   22MOL0     C 2921   2.617   4.838   9.164 -0.0954  1.8115  0.1902
   22MOL0     O 2922   2.691   4.757   9.084 -0.4690  0.2403 -0.5186
   22MOL0     C 2923   2.707   4.620   9.115  1.4836 -0.9476 -0.7780
   22MOL0     C 2924   2.790   4.539   9.038  0.3017  0.5089 -0.6999
   22MOL0     C 2925   2.827   4.404   9.062  0.8070 -0.0526  0.4102
   22MOL0     C 2926   2.926   4.333   8.970  0.1513  0.2260  0.0486
   22MOL0     C 2927   2.769   4.345   9.180 -0.0861  0.1279  0.1536
   22MOL0     C 2928   2.798   4.203   9.225  1.6596 -0.4675  0.1852
   22MOL0     O 2929   2.892   4.130   9.157 -0.7176 -0.3885  0.1799
   22MOL0     C 2930   2.915   3.993   9.189  0.7416  0.6728  1.2637
   22MOL0     C 2931   2.824   3.899   9.248 -0.1300  0.1026 -0.4389
   22MOL0     C 2932   2.847   3.768   9.271  0.5167 -0.1395  0.5278
   22MOL0     C 2933   2.953   3.709   9.208 -0.0696 -0.3928 -0.0882
   22MOL0     O 2934   2.978   3.573   9.227  0.6138  0.4298  0.6546
   22MOL0     C 2935   2.870   3.483   9.275 -0.5436 -0.9069  0.1750
   22MOL0     C 2936   2.934   3.353   9.255 -0.2822  0.8934 -0.4861
   22MOL0     C 2937   2.978   3.326   9.107  0.4693 -0.0125  0.1562
   22MOL0     C 2938   3.026   3.175   9.088 -0.7013 -0.5914 -0.0405
   22MOL0     C 2939   3.082   3.161   8.942 -1.2618  0.5228  0.2782
   22MOL0     C 2940   3.238   3.177   8.942 -0.4230  0.0126 -0.5318
   22MOL0     C 2941   3.295   3.186   8.805  0.3032 -0.0968 -0.7498
   22MOL0     C 2942   3.451   3.164   8.814  0.6542 -1.3138  0.4343
   22MOL0    Cl 2943   3.538   3.284   8.910  0.1225 -0.4242 -0.3022
   22MOL0     C 2944   3.043   3.784   9.144  0.1056 -0.7666  0.0998
   22MOL0     C 2945   3.023   3.929   9.136 -0.4450  0.2056  0.0885
   22MOL0     O 2946   2.742   4.170   9.335 -0.3837 -0.3642 -0.8990
   22MOL0     C 2947   2.689   4.425   9.264  0.8749  0.4321 -0.7314
   22MOL0     C 2948   2.645   4.555   9.226 -0.2307 -0.0964  0.3512
   22MOL0     N 2949   2.285   4.786   9.159  0.3060  0.2492 -0.5380
   22MOL0     N 2950   2.204   4.764   9.253  0.4829 -0.6825 -0.0867
   22MOL0     C 2951   1.931   4.635   8.402 -1.0479  0.0852 -0.5084
   22MOL0     C 2952   1.964   4.562   8.287  0.4006  0.5163  0.2939
   22MOL0     C 2953   2.031   4.406   7.890 -0.6413 -0.8626  0.0229
   22MOL0     C 2954   1.945   4.479   7.818 -0.7144 -0.8526 -0.0387
   22MOL0     C 2955   1.907   4.443   7.683 -0.4744 -0.8472  0.5718
   22MOL0     C 2956   1.968   4.325   7.629  0.2032  0.5996  0.3332
   22MOL0     O 2957   1.958   4.281   7.494 -0.6079 -0.5528 -0.0722
   22MOL0     C 2958   1.854   4.328   7.413  0.5979 -0.0225 -0.1034
   22MOL0     C 2959   1.736   4.233   7.462  0.1733 -0.3251  0.0603
   22MOL0     C 2960   1.752   4.092   7.409  0.3085  0.7376  0.0527
   22MOL0     C 2961   1.652   3.987   7.476  0.6643 -0.6555 -0.0256
   22MOL0     C 2962   1.517   3.972   7.425  0.3235 -0.2592  1.0245
   22MOL0     C 2963   1.401   3.968   7.401  0.6012 -0.3604 -0.1915
   22MOL0     C 2964   2.060   4.249   7.700 -0.6189  0.4137 -1.3666
   22MOL0     C 2965   2.085   4.287   7.833 -0.1934  1.7618 -0.1380
   22MOL0     C 2966   2.203   4.210   7.905  0.2488  0.0463  0.2648
   22MOL0     H 2967   2.075   4.828   8.105 -2.0849  1.8314 -0.1495
   22MOL0     H 2968   1.968   4.951   8.305  3.5841 -0.3019 -0.8255
   22MOL0     H 2969   1.985   4.705   8.642 -1.0541 -1.1995 -0.7392
   22MOL0     H 2970   1.806   4.728   8.644 -0.9516  1.3415 -0.9093
   22MOL0     H 2971   1.997   4.936   8.751  1.5476 -0.8380  2.7682
   22MOL0     H 2972   1.823   4.917   8.764 -0.3901 -0.5687 -1.6656
   22MOL0     H 2973   1.880   4.699   8.891 -0.4616  0.3993 -0.6025
   22MOL0     H 2974   2.047   4.759   8.909  0.1159  0.9953 -0.0873
   22MOL0     H 2975   1.952   4.943   9.045  0.3194 -0.1441  1.3919
   22MOL0     H 2976   1.786   4.904   9.000  0.0719  0.4463  3.0540
   22MOL0     H 2977   1.937   4.701   9.166 -0.2851 -1.0640 -1.8665
   22MOL0     H 2978   1.783   4.690   9.089 -0.8509  1.1086  1.2919
   22MOL0     H 2979   1.687   4.872   9.238 -1.4206 -0.5929  2.7721
   22MOL0     H 2980   1.767   4.751   9.327 -1.7394 -1.0857 -1.3188
   22MOL0     H 2981   1.819   4.979   9.397  1.1685  1.7543 -0.2828
   22MOL0     H 2982   1.876   5.026   9.253 -1.7292 -0.9904 -0.5347
   22MOL0     H 2983   2.057   4.958   9.438  1.7856 -1.0549 -1.4913
   22MOL0     H 2984   2.007   4.789   9.409 -1.3201  0.3323  0.4764
   22MOL0     H 2985   2.154   5.084   9.195  1.7398  0.3566  0.4214
   22MOL0     H 2986   2.323   5.091   9.001 -1.2933 -0.3471 -2.1341
   22MOL0     H 2987   2.271   4.945   8.916  0.5153  1.0431 -1.1994
   22MOL0     H 2988   2.458   4.838   8.945 -0.7817  1.4262 -3.2934
   22MOL0     H 2989   2.520   4.993   8.886  0.3205  1.6932  1.1205
   22MOL0     H 2990   2.672   5.004   9.044  2.2562 -2.6702  0.0938
   22MOL0     H 2991   2.529   5.034   9.147 -1.2859  1.5068 -2.7887
   22MOL0     H 2992   2.674   4.861   9.254  1.5551 -2.4864  0.4856
   22MOL0     H 2993   2.529   4.780   9.194  1.0170 -1.0820 -1.6129
   22MOL0     H 2994   2.834   4.590   8.952  0.9271  1.1712  0.0007
   22MOL0     H 2995   2.978   4.411   8.914 -2.5940  1.3214 -1.1486
   22MOL0     H 2996   2.877   4.264   8.902  0.1694  2.2173 -2.1171
   22MOL0     H 2997   3.009   4.291   9.028  2.5659  2.7626 -1.3134
   22MOL0     H 2998   2.736   3.936   9.299  0.2237  0.9549 -0.4379
   22MOL0     H 2999   2.791   3.718   9.349 -0.9412  0.1113 -0.3186
   22MOL0     H 3000   2.851   3.500   9.381 -2.3664  0.7773 -0.3476
   22MOL0     H 3001   2.776   3.496   9.219  0.8013 -1.9435 -2.4898
   22MOL0     H 3002   3.017   3.341   9.326 -0.6644 -1.4089 -0.3536
   22MOL0     H 3003   2.866   3.271   9.280 -0.9395  1.4583 -0.4109
   22MOL0     H 3004   3.054   3.395   9.070 -1.1710  0.7095 -2.1115
   22MOL0     H 3005   2.893   3.355   9.045  2.0958  1.8431 -1.3326
   22MOL0     H 3006   2.958   3.091   9.105  1.5543 -2.7902 -1.1733
   22MOL0     H 3007   3.082   3.130   9.171 -2.4210 -2.0753  0.4055
   22MOL0     H 3008   3.052   3.061   8.910 -1.4221  0.8695 -0.6978
   22MOL0     H 3009   3.035   3.231   8.872  0.1469 -1.0569 -2.4188
   22MOL0     H 3010   3.282   3.096   9.002 -2.0231  1.2828  2.5847
   22MOL0     H 3011   3.258   3.268   8.998  0.0921 -0.5766  0.2730
   22MOL0     H 3012   3.262   3.280   8.760  1.3995  0.0185 -1.3437
   22MOL0     H 3013   3.256   3.104   8.744 -1.9948  1.2938 -1.2759
   22MOL0     H 3014   3.500   3.161   8.716 -1.1578  0.0088 -0.5934
   22MOL0     H 3015   3.464   3.061   8.848  1.8627 -2.4052 -2.9449
   22MOL0     H 3016   3.118   3.729   9.087 -0.4608  1.6264 -3.2683
   22MOL0     H 3017   3.110   3.973   9.089 -0.5713 -0.2336 -0.5679
   22MOL0     H 3018   2.645   4.374   9.349  2.0646  0.4030 -0.1113
   22MOL0     H 3019   2.580   4.608   9.296  0.1034  0.0488  0.5549
   22MOL0     H 3020   1.905   4.580   8.492  1.7981 -2.9487 -1.3105
   22MOL0     H 3021   1.946   4.454   8.289 -1.0567  0.7277 -0.2253
   22MOL0     H 3022   1.906   4.574   7.856 -1.3664 -0.6136 -1.2262
   22MOL0     H 3023   1.837   4.512   7.638  0.8458  1.9042  2.4452
   22MOL0     H 3024   1.832   4.432   7.438  1.3972  0.5399 -1.6098
   22MOL0     H 3025   1.870   4.315   7.306 -0.1565  1.1917 -0.3784
   22MOL0     H 3026   1.645   4.273   7.418  0.8325  1.2843  0.0778
   22MOL0     H 3027   1.726   4.223   7.570  1.3855 -1.2004  0.1198
   22MOL0     H 3028   1.747   4.077   7.300  0.8948 -2.6453  0.3540
   22MOL0     H 3029   1.853   4.054   7.426  0.6644  1.5128 -0.2969
   22MOL0     H 3030   1.642   4.009   7.582 -0.4658  0.9289 -0.4211
   22MOL0     H 3031   1.697   3.891   7.451  1.6495  0.0320 -1.0597
   22MOL0     H 3032   1.296   3.967   7.378  0.6293  0.7066 -0.3964
   22MOL0     H 3033   2.112   4.162   7.660  1.8728  0.6555  1.0163
   22MOL0     H 3034   2.157   4.144   7.978  0.9000  0.7412  1.3391
   22MOL0     H 3035   2.263   4.145   7.841  0.3738 -1.2352  1.6242
   22MOL0     H 3036   2.269   4.286   7.949  1.4544 -0.9336  0.1824
   23MOL0     O 3037   4.325   5.444   1.685 -0.6201 -0.2893  0.2175
   23MOL0     C 3038   4.419   5.402   1.752 -0.7524  0.0652 -0.3153
   23MOL0     O 3039   4.550   5.367   1.705  0.4294 -0.4262 -0.2601
   23MOL0     C 3040   4.563   5.343   1.566 -0.1733 -0.3316  0.6210
   23MOL0     C 3041   4.645   5.435   1.497 -0.4781 -0.4732 -0.8269
   23MOL0     C 3042   4.662   5.420   1.360  0.2152  0.6223 -0.9132
   23MOL0     C 3043   4.598   5.319   1.291  0.7800 -0.1902 -0.7188
   23MOL0     O 3044   4.585   5.307   1.160  0.2422 -0.1452 -0.0246
   23MOL0     C 3045   4.705   5.330   1.078  0.3828 -0.7898 -0.5921
   23MOL0     C 3046   4.803   5.207   1.065  0.6048 -0.0983 -1.0872
   23MOL0     C 3047   4.911   5.214   0.966 -0.3509 -0.7630  1.0641
   23MOL0     C 3048   4.978   5.353   0.959 -0.5534 -0.5463 -0.1429
   23MOL0     C 3049   5.095   5.347   0.857  0.7053 -1.0353 -0.5681
   23MOL0     C 3050   5.217   5.271   0.907  0.4747  0.1358  0.1920
   23MOL0     C 3051   5.347   5.315   0.837 -1.8331  0.6410 -0.2668
   23MOL0     C 3052   5.467   5.223   0.867 -0.7993 -0.0372  0.5448
   23MOL0     N 3053   5.504   5.218   1.007  0.2195 -0.2063 -0.0687
   23MOL0     C 3054   5.539   5.323   1.085  0.2241 -0.2113 -0.6149
   23MOL0     C 3055   5.552   5.278   1.218 -0.5472 -0.0413 -0.0580
   23MOL0     C 3056   5.632   5.345   1.332 -0.3940  0.5164  0.1108
   23MOL0     C 3057   5.571   5.472   1.404 -0.3603 -0.1485 -0.7379
   23MOL0     C 3058   5.673   5.579   1.450  0.3390 -0.1223  0.5684
   23MOL0     C 3059   5.706   5.669   1.333 -1.0085  0.2944 -0.1657
   23MOL0     O 3060   5.816   5.753   1.372 -0.0480 -0.2589 -0.5416
   23MOL0     C 3061   5.913   5.780   1.280 -0.9018 -0.8277  1.1885
   23MOL0     C 3062   5.897   5.777   1.141  0.5822 -0.3120 -0.3619
   23MOL0     C 3063   5.994   5.803   1.045 -0.3761 -0.3785  0.6415
   23MOL0     C 3064   5.953   5.791   0.900 -0.4427 -0.3542 -0.5414
   23MOL0     C 3065   6.123   5.843   1.088 -0.5961 -1.0140  0.3412
   23MOL0     C 3066   6.228   5.889   0.998  0.3432  0.7696 -1.0846
   23MOL0     O 3067   6.346   5.926   1.059 -0.3732  0.3118  0.0610
   23MOL0     C 3068   6.418   6.034   1.001  0.1139  0.3456 -0.7469
   23MOL0     C 3069   6.408   6.088   0.874 -0.3894 -0.4398 -0.2285
   23MOL0     C 3070   6.500   6.187   0.838  0.1443 -0.3141 -0.7559
   23MOL0     C 3071   6.593   6.243   0.926 -0.3061  0.2039 -0.1490
   23MOL0     O 3072   6.686   6.338   0.884 -0.3423 -0.4222 -0.3022
   23MOL0     C 3073   6.660   6.417   0.773  0.1802  0.0746  0.1097
   23MOL0     C 3074   6.748   6.553   0.783  0.0929 -0.1260 -0.1584
   23MOL0     C 3075   6.730   6.640   0.653  0.0760 -0.2171 -0.8792
   23MOL0     C 3076   6.793   6.784   0.671  0.4266  0.4369 -0.8149
   23MOL0     C 3077   6.693   6.888   0.631  0.9248 -0.1828  0.0529
   23MOL0     C 3078   6.745   7.031   0.617 -0.6137 -0.8997 -0.4155
   23MOL0     C 3079   6.796   7.101   0.749 -0.0819  0.8054  0.2350
   23MOL0     C 3080   6.797   7.256   0.757  1.4885  0.5057 -0.3730
   23MOL0    Cl 3081   6.927   7.309   0.639 -0.5298 -0.2118  0.4489
   23MOL0     C 3082   6.591   6.192   1.057  0.1259  0.5210  0.5200
   23MOL0     C 3083   6.510   6.081   1.096 -0.3840 -0.2557  0.1893
   23MOL0     O 3084   6.218   5.872   0.881  0.0533  0.1518  0.7511
   23MOL0     C 3085   6.142   5.853   1.227  0.1299 -0.1892 -0.3248
   23MOL0     C 3086   6.039   5.821   1.325 -0.8205 -0.9861 -0.6650
   23MOL0     N 3087   5.516   5.140   1.207 -0.6447 -0.8104  0.1203
   23MOL0     N 3088   5.489   5.105   1.088 -0.7830 -1.6284  0.3156
   23MOL0     C 3089   4.518   5.230   1.361  0.5001  0.7903  0.4688
   23MOL0     C 3090   4.496   5.239   1.504  0.1792  0.2622  0.2208
   23MOL0     C 3091   4.392   5.380   1.893 -0.1892  0.1949 -0.7560
   23MOL0     C 3092   4.346   5.487   1.982 -0.8547 -0.3113  0.5188
   23MOL0     C 3093   4.350   5.477   2.125 -0.4002  0.1117 -1.5226
   23MOL0     C 3094   4.380   5.351   2.179 -1.0102  0.1539  0.2811
   23MOL0     O 3095   4.383   5.338   2.315 -0.5277  0.1880 -0.9962
   23MOL0     C 3096   4.273   5.274   2.378 -0.9587  0.1254  0.3873
   23MOL0     C 3097   4.296   5.115   2.394 -0.6466 -0.3548  0.5245
   23MOL0     C 3098   4.401   5.078   2.495 -0.5403  0.7577 -0.4508
   23MOL0     C 3099   4.522   5.040   2.412 -0.2455  0.1048  0.3078
   23MOL0     C 3100   4.638   5.031   2.494 -0.4590 -1.0402  0.4483
   23MOL0     C 3101   4.736   5.013   2.561  0.4778 -1.1888  0.2043
   23MOL0     C 3102   4.418   5.245   2.090 -0.0428 -0.3470 -0.0886
   23MOL0     C 3103   4.425   5.254   1.951  0.3150 -0.3630  0.1079
   23MOL0     C 3104   4.454   5.132   1.878  0.7578 -0.0186  0.2833
   23MOL0     H 3105   4.699   5.508   1.556 -0.1887 -0.5528 -0.9971
   23MOL0     H 3106   4.748   5.467   1.314  3.7529 -1.8656  2.4902
   23MOL0     H 3107   4.757   5.415   1.124 -0.1229 -0.8826  0.1788
   23MOL0     H 3108   4.674   5.353   0.976 -0.0921 -1.9852 -0.7267
   23MOL0     H 3109   4.841   5.203   1.167 -2.3608  2.2269  0.2477
   23MOL0     H 3110   4.737   5.122   1.046 -0.3097  0.1578  0.7373
   23MOL0     H 3111   4.994   5.142   0.975  2.1222  1.1940 -3.0120
   23MOL0     H 3112   4.873   5.172   0.872  0.3973 -0.8028  0.7713
   23MOL0     H 3113   4.898   5.417   0.922 -0.0431  0.7376  0.8828
   23MOL0     H 3114   5.018   5.385   1.056  2.9807 -2.6312 -0.7286
   23MOL0     H 3115   5.129   5.448   0.834 -0.5255 -1.0886 -2.8956
   23MOL0     H 3116   5.056   5.315   0.760 -0.4652 -1.0235 -0.1123
   23MOL0     H 3117   5.235   5.287   1.013 -0.2389  0.1705  0.3136
   23MOL0     H 3118   5.207   5.165   0.883 -0.8970 -0.5661  3.4084
   23MOL0     H 3119   5.372   5.421   0.849  0.1862  0.2597 -0.8738
   23MOL0     H 3120   5.319   5.298   0.733 -2.3939  1.1361 -0.2057
   23MOL0     H 3121   5.435   5.121   0.844 -1.0791  0.3990 -1.1130
   23MOL0     H 3122   5.552   5.236   0.799 -2.4072 -0.9942 -1.7596
   23MOL0     H 3123   5.584   5.416   1.053  1.6909 -0.1058  1.5488
   23MOL0     H 3124   5.733   5.363   1.293  0.2104 -4.4572 -1.2099
   23MOL0     H 3125   5.657   5.273   1.410  0.7768  1.8580  1.0427
   23MOL0     H 3126   5.499   5.523   1.340 -2.0686 -1.3501  0.1749
   23MOL0     H 3127   5.517   5.444   1.495 -0.1649 -1.0095 -0.8768
   23MOL0     H 3128   5.620   5.637   1.525 -0.6552  2.0042 -1.6453
   23MOL0     H 3129   5.762   5.541   1.502 -0.8199 -1.0492  1.9478
   23MOL0     H 3130   5.725   5.607   1.245  0.9507  1.3338 -0.5508
   23MOL0     H 3131   5.620   5.730   1.305  1.3395  2.4259 -3.5088
   23MOL0     H 3132   5.794   5.766   1.111  0.6058 -1.7906  0.0278
   23MOL0     H 3133   5.845   5.788   0.880 -0.1737  0.7098 -2.3749
   23MOL0     H 3134   6.002   5.710   0.845 -0.1417 -1.0348  0.6991
   23MOL0     H 3135   5.972   5.877   0.835 -1.5440 -0.7845 -1.4757
   23MOL0     H 3136   6.339   6.053   0.798 -1.7616  0.9687  0.3262
   23MOL0     H 3137   6.486   6.231   0.739  0.6705 -1.3418 -1.3022
   23MOL0     H 3138   6.701   6.362   0.688  1.3521  0.6485  0.2861
   23MOL0     H 3139   6.555   6.446   0.762  0.4548  1.0494 -0.0431
   23MOL0     H 3140   6.721   6.621   0.864  0.2575  0.3827 -0.5230
   23MOL0     H 3141   6.851   6.526   0.804 -0.0441  1.5110  3.2223
   23MOL0     H 3142   6.621   6.637   0.640 -0.0855 -2.1156  0.5087
   23MOL0     H 3143   6.780   6.595   0.567  0.2939 -4.5096  1.2657
   23MOL0     H 3144   6.881   6.804   0.609  1.2614  0.4614  0.3451
   23MOL0     H 3145   6.828   6.805   0.773 -3.5925 -4.4826  2.0636
   23MOL0     H 3146   6.660   6.865   0.530  0.4475  1.3084 -0.1493
   23MOL0     H 3147   6.604   6.881   0.695  0.8388 -2.7165 -0.2241
   23MOL0     H 3148   6.671   7.094   0.567  1.6662  2.4984  0.1820
   23MOL0     H 3149   6.823   7.039   0.541 -0.9024 -1.9303 -0.8473
   23MOL0     H 3150   6.899   7.066   0.762 -1.3237 -2.5455  2.4963
   23MOL0     H 3151   6.744   7.061   0.836 -2.2296  0.2949 -1.2179
   23MOL0     H 3152   6.814   7.285   0.861  2.8972 -2.1268  0.2110
   23MOL0     H 3153   6.699   7.295   0.726  1.2132  3.0436  3.0156
   23MOL0     H 3154   6.648   6.240   1.136  0.5933 -1.0879  1.2032
   23MOL0     H 3155   6.509   6.043   1.198  1.7646 -1.9362 -0.3425
   23MOL0     H 3156   6.234   5.883   1.276  0.7823 -2.4554 -0.0507
   23MOL0     H 3157   6.061   5.820   1.431 -0.0949 -0.9219 -0.8088
   23MOL0     H 3158   4.468   5.146   1.315  0.6043 -0.3003  2.2564
   23MOL0     H 3159   4.432   5.167   1.554  1.0574 -1.4007 -0.9258
   23MOL0     H 3160   4.320   5.575   1.924 -0.9993 -0.5422  0.2284
   23MOL0     H 3161   4.338   5.560   2.194  2.1584  0.0324 -0.8570
   23MOL0     H 3162   4.262   5.321   2.477  2.1297 -0.1531  0.9933
   23MOL0     H 3163   4.181   5.287   2.321 -0.0116 -2.4302 -1.9434
   23MOL0     H 3164   4.313   5.074   2.294  0.1326  1.2266 -0.0173
   23MOL0     H 3165   4.198   5.079   2.427 -0.5905 -2.0550 -0.9579
   23MOL0     H 3166   4.432   5.169   2.548  1.4066  1.0891 -2.0446
   23MOL0     H 3167   4.385   4.993   2.562  0.1689 -2.6127 -4.1545
   23MOL0     H 3168   4.551   5.119   2.341  3.8107 -1.1619  0.2562
   23MOL0     H 3169   4.513   4.946   2.356 -1.5364  1.2035 -1.4277
   23MOL0     H 3170   4.808   4.993   2.637  0.3860  0.0058  0.6328
   23MOL0     H 3171   4.425   5.145   2.131  0.4753  0.6085  2.2933
   23MOL0     H 3172   4.513   5.143   1.786  1.3375  1.4489  0.8050
   23MOL0     H 3173   4.513   5.073   1.948  0.7251  2.8942  2.9569
   23MOL0     H 3174   4.367   5.069   1.855  1.4976 -0.7145 -0.6932
   24MOL0     O 3175   0.863   4.309  11.487  0.6355 -0.2185 -0.6497
   24MOL0     C 3176   0.820   4.269  11.378  0.1862 -0.4699 -1.2008
   24MOL0     O 3177   0.766   4.355  11.281 -0.6139  0.3135  0.0016
   24MOL0     C 3178   0.787   4.496  11.291 -0.3066  0.1813 -0.8831
   24MOL0     C 3179   0.693   4.580  11.241 -0.1995 -0.3736  0.0856
   24MOL0     C 3180   0.720   4.716  11.247  0.2499 -1.1370  0.2044
   24MOL0     C 3181   0.839   4.772  11.285 -0.3120  0.6193 -0.2554
   24MOL0     O 3182   0.875   4.898  11.271 -0.1057 -0.5987  0.3936
   24MOL0     C 3183   0.800   4.978  11.168 -0.7052  0.2511  0.6111
   24MOL0     C 3184   0.866   5.114  11.136 -0.4703 -0.3510 -0.1792
   24MOL0     C 3185   1.004   5.088  11.072 -0.6190  0.5940 -0.3084
   24MOL0     C 3186   1.049   5.211  10.982  0.7469 -0.1231 -0.1820
   24MOL0     C 3187   1.097   5.328  11.060  0.2485 -0.3579 -1.1946
   24MOL0     C 3188   1.194   5.283  11.174 -0.4567  0.1419 -0.4272
   24MOL0     C 3189   1.272   5.397  11.233  0.2113  0.5491 -0.1821
   24MOL0     C 3190   1.355   5.354  11.360 -0.5984 -0.2398 -0.1129
   24MOL0     N 3191   1.455   5.455  11.401 -0.6911  0.1077  0.0452
   24MOL0     C 3192   1.434   5.541  11.501 -1.1442 -0.3865 -0.9562
   24MOL0     C 3193   1.561   5.598  11.513  0.0977  0.7764 -0.1450
   24MOL0     C 3194   1.594   5.719  11.595  0.9270  0.5515  0.1236
   24MOL0     C 3195   1.737   5.743  11.635 -0.2904  0.3000 -1.1513
   24MOL0     C 3196   1.762   5.730  11.791 -0.2067  0.6557 -0.8637
   24MOL0     C 3197   1.794   5.849  11.880 -0.3127  0.6898 -0.1833
   24MOL0     O 3198   1.682   5.943  11.862 -0.8770 -0.1992  0.0701
   24MOL0     C 3199   1.698   6.046  11.948 -0.3850 -0.5205 -0.6310
   24MOL0     C 3200   1.577   6.114  11.960  0.0618 -1.0946 -0.8739
   24MOL0     C 3201   1.566   6.223  12.046 -0.2595 -0.2402 -0.4046
   24MOL0     C 3202   1.425   6.283  12.043 -0.1513 -1.0618 -0.9773
   24MOL0     C 3203   1.668   6.261  12.138  0.5208 -1.5248 -0.8224
   24MOL0     C 3204   1.666   6.355  12.257 -0.5076 -0.1939 -0.5179
   24MOL0     O 3205   1.549   6.408  12.286  0.4420 -0.4907 -0.4026
   24MOL0     C 3206   1.546   6.505  12.383  0.1439  0.7769 -0.0432
   24MOL0     C 3207   1.512   6.498  12.523  0.8255 -0.0017  0.1881
   24MOL0     C 3208   1.517   6.603  12.606  0.4882 -0.1351 -0.3942
   24MOL0     C 3209   1.556   6.732  12.559  0.1907  1.0323 -0.8088
   24MOL0     O 3210   1.545   6.845  12.636  0.1121 -1.2488  0.2726
   24MOL0     C 3211   1.633   6.955  12.606 -1.3009 -0.0902 -0.4319
   24MOL0     C 3212   1.653   7.029  12.737  0.5348  0.8200  0.3476
   24MOL0     C 3213   1.756   7.137  12.733  0.4117 -0.0298  1.3925
   24MOL0     C 3214   1.889   7.084  12.690 -0.3894 -0.5213  1.1239
   24MOL0     C 3215   1.999   7.186  12.726 -0.0066  0.5277 -0.2295
   24MOL0     C 3216   2.120   7.170  12.639  0.8394  0.1400 -0.1503
   24MOL0     C 3217   2.231   7.255  12.688 -0.5422  0.7893  0.1141
   24MOL0     C 3218   2.369   7.250  12.610  0.3072  0.4619  0.8994
   24MOL0    Cl 3219   2.348   7.213  12.442 -0.0487  0.1878  0.5342
   24MOL0     C 3220   1.580   6.737  12.419  0.3309 -0.3224  0.1100
   24MOL0     C 3221   1.579   6.630  12.327 -0.7323  0.1337 -0.5793
   24MOL0     O 3222   1.772   6.382  12.311 -0.5645 -0.6876 -0.1212
   24MOL0     C 3223   1.789   6.188  12.122  0.2571 -0.0604  0.5260
   24MOL0     C 3224   1.807   6.093  12.023  0.0954  0.7198 -1.3358
   24MOL0     N 3225   1.652   5.541  11.428  0.1980  0.1084  0.0438
   24MOL0     N 3226   1.585   5.455  11.355  0.4554 -0.5287 -0.5389
   24MOL0     C 3227   0.932   4.689  11.339 -0.2997 -0.0878  0.1652
   24MOL0     C 3228   0.915   4.547  11.339  0.1815 -0.8667 -0.0313
   24MOL0     C 3229   0.834   4.120  11.347  0.5718 -0.1596 -0.1477
   24MOL0     C 3230   0.942   4.053  11.392  0.1012  0.9505 -1.0202
   24MOL0     C 3231   0.974   3.915  11.345  0.1042 -0.5197 -0.0929
   24MOL0     C 3232   0.890   3.844  11.263 -0.9767 -0.2912  0.0815
   24MOL0     O 3233   0.906   3.711  11.235 -0.4847 -0.3137 -0.2129
   24MOL0     C 3234   0.978   3.628  11.327 -0.1051 -0.3208  0.3874
   24MOL0     C 3235   0.983   3.471  11.290  0.0328  0.6328  0.5087
   24MOL0     C 3236   1.055   3.454  11.161  0.5975 -0.2527 -0.0899
   24MOL0     C 3237   1.115   3.311  11.153 -0.4140  0.3461 -0.0111
   24MOL0     C 3238   1.009   3.217  11.131 -0.4326  0.1310  0.0122
   24MOL0     C 3239   0.907   3.145  11.107 -0.1231  0.2231 -0.4328
   24MOL0     C 3240   0.775   3.917  11.210 -0.3101 -0.1077  0.3933
   24MOL0     C 3241   0.752   4.052  11.246  0.5305  0.2643 -0.2667
   24MOL0     C 3242   0.634   4.123  11.177  0.5094  0.8726 -0.4152
   24MOL0     H 3243   0.603   4.526  11.215 -0.2564 -0.8884  1.3164
   24MOL0     H 3244   0.640   4.770  11.197  2.6089 -0.8579 -3.5708
   24MOL0     H 3245   0.701   5.008  11.203 -0.4481  0.0060  1.5528
   24MOL0     H 3246   0.802   4.913  11.080 -0.1721 -2.0288  2.2251
   24MOL0     H 3247   0.809   5.170  11.062  0.6041  0.1815 -0.6335
   24MOL0     H 3248   0.864   5.173  11.228  1.5962  1.3077 -1.0908
   24MOL0     H 3249   1.075   5.071  11.153 -1.0154 -1.9889 -0.4183
   24MOL0     H 3250   1.011   5.003  11.004 -0.0531 -0.7420  1.3342
   24MOL0     H 3251   1.139   5.181  10.928  1.1284  1.7133 -0.6413
   24MOL0     H 3252   0.966   5.230  10.913 -2.1485  1.2163  3.2899
   24MOL0     H 3253   1.021   5.391  11.107  3.3823  2.0783  1.0350
   24MOL0     H 3254   1.145   5.401  10.994  2.9892 -2.0120 -1.2018
   24MOL0     H 3255   1.141   5.224  11.250  1.5922  1.7012  2.3858
   24MOL0     H 3256   1.275   5.218  11.140  0.6998  0.4917  1.5133
   24MOL0     H 3257   1.205   5.474  11.273  0.5856  0.5062  0.5434
   24MOL0     H 3258   1.335   5.442  11.157 -1.8240 -0.3875 -2.5620
   24MOL0     H 3259   1.304   5.321  11.450 -0.6913  2.8932  1.1048
   24MOL0     H 3260   1.401   5.262  11.324 -1.3865 -0.1321 -1.4764
   24MOL0     H 3261   1.347   5.564  11.562 -0.9406 -1.6167 -0.1663
   24MOL0     H 3262   1.533   5.714  11.685  3.3215 -1.9403  1.7436
   24MOL0     H 3263   1.591   5.812  11.537  1.3187  0.1911 -0.4789
   24MOL0     H 3264   1.791   5.658  11.593  3.2405  2.0410 -0.5276
   24MOL0     H 3265   1.772   5.838  11.593 -4.7721  1.8672 -1.9431
   24MOL0     H 3266   1.683   5.680  11.848  0.9334  2.5498  2.6587
   24MOL0     H 3267   1.848   5.663  11.793 -1.8007 -1.5052  1.5664
   24MOL0     H 3268   1.791   5.805  11.980 -0.3545  0.5733 -0.2363
   24MOL0     H 3269   1.895   5.884  11.855 -0.4971  1.5817  0.3029
   24MOL0     H 3270   1.494   6.089  11.896 -2.3955 -0.3249  1.8172
   24MOL0     H 3271   1.383   6.282  12.145 -0.4618  0.5337 -1.0637
   24MOL0     H 3272   1.362   6.233  11.969  1.6983  1.4247 -4.5036
   24MOL0     H 3273   1.436   6.386  12.008  0.5231 -0.1625  1.6221
   24MOL0     H 3274   1.447   6.415  12.549  1.6240 -0.4725  0.7221
   24MOL0     H 3275   1.481   6.587  12.707 -1.4515  1.1203 -0.8335
   24MOL0     H 3276   1.726   6.918  12.562  0.6697  2.2144  1.4775
   24MOL0     H 3277   1.581   7.022  12.537 -2.3497 -0.2214  0.2164
   24MOL0     H 3278   1.556   7.077  12.751 -0.4440 -0.9826  0.0330
   24MOL0     H 3279   1.671   6.956  12.816  3.6588  2.0559  0.9394
   24MOL0     H 3280   1.776   7.190  12.827  0.3718 -1.1215  2.0249
   24MOL0     H 3281   1.727   7.209  12.655  1.2320  0.0527  1.1612
   24MOL0     H 3282   1.899   7.064  12.583  0.4154  0.8985  0.9038
   24MOL0     H 3283   1.909   6.985  12.734 -0.6714 -0.4123  1.5020
   24MOL0     H 3284   1.965   7.288  12.706  1.4479  0.6495 -2.3289
   24MOL0     H 3285   2.028   7.174  12.831 -1.4039  0.6827  0.1975
   24MOL0     H 3286   2.091   7.191  12.536  0.3883 -0.5248 -0.1714
   24MOL0     H 3287   2.149   7.064  12.639 -1.2614 -0.4915  0.3961
   24MOL0     H 3288   2.246   7.244  12.796  1.6949  1.9307 -0.0049
   24MOL0     H 3289   2.199   7.359  12.673 -0.2041  0.9277  0.3318
   24MOL0     H 3290   2.435   7.179  12.661 -1.8717  0.1908  3.6168
   24MOL0     H 3291   2.413   7.347  12.632  0.8354 -0.0040  1.9928
   24MOL0     H 3292   1.589   6.829  12.362 -2.7544 -0.2797 -0.4510
   24MOL0     H 3293   1.602   6.650  12.222 -0.9607 -0.2594 -0.7063
   24MOL0     H 3294   1.869   6.210  12.191  2.7394  0.4500 -2.3246
   24MOL0     H 3295   1.907   6.052  12.007  0.3361 -1.0408  3.2116
   24MOL0     H 3296   1.021   4.736  11.378 -0.2803  0.9902 -1.0923
   24MOL0     H 3297   0.989   4.480  11.381  1.8336 -0.0605 -1.5326
   24MOL0     H 3298   1.011   4.095  11.464  0.4596 -1.5610  0.2118
   24MOL0     H 3299   1.066   3.879  11.389  1.2436  3.8037  1.5500
   24MOL0     H 3300   1.084   3.652  11.332  0.4297 -2.1384 -0.9803
   24MOL0     H 3301   0.935   3.647  11.426  0.0525 -0.4137  0.4752
   24MOL0     H 3302   0.881   3.437  11.271  1.3132 -2.1743 -2.2330
   24MOL0     H 3303   1.024   3.414  11.374 -2.1176 -1.1427  0.4444
   24MOL0     H 3304   0.993   3.478  11.075  1.7835  0.4469 -0.7703
   24MOL0     H 3305   1.135   3.528  11.155 -0.3968  0.7018 -3.0879
   24MOL0     H 3306   1.170   3.281  11.243 -2.9866 -1.4819  1.0605
   24MOL0     H 3307   1.189   3.294  11.074  0.4556 -0.7263  0.9830
   24MOL0     H 3308   0.825   3.083  11.076  0.0790 -1.3407  1.8966
   24MOL0     H 3309   0.713   3.867  11.136  0.0864 -3.1107  1.9484
   24MOL0     H 3310   0.576   4.057  11.113  1.2096  0.0390 -0.2117
   24MOL0     H 3311   0.553   4.151  11.244  2.7668 -0.5046  3.1694
   24MOL0     H 3312   0.687   4.198  11.117  5.1810 -3.0033 -1.7930
   25MOL0     O 3313   0.652   4.560   3.781 -0.1136  0.4660  0.6207
   25MOL0     C 3314   0.751   4.589   3.716 -0.3166 -0.1582 -0.7288
   25MOL0     O 3315   0.846   4.688   3.765  0.7417 -0.1420  1.1054
   25MOL0     C 3316   0.850   4.732   3.887 -1.1044  0.2012 -0.5315
   25MOL0     C 3317   0.837   4.659   4.006  0.7951  0.3373  0.7582
   25MOL0     C 3318   0.834   4.729   4.125  0.3900 -0.2073 -0.4551
   25MOL0     C 3319   0.863   4.864   4.125 -0.1222 -0.3944 -0.4323
   25MOL0     O 3320   0.880   4.931   4.246 -0.1523 -0.4782  0.0992
   25MOL0     C 3321   0.995   5.016   4.254 -0.4408 -0.8108  0.4203
   25MOL0     C 3322   0.953   5.118   4.353 -0.4254 -0.0357 -0.1322
   25MOL0     C 3323   1.049   5.237   4.344 -0.0741  0.7044 -1.0248
   25MOL0     C 3324   0.965   5.362   4.388 -0.3493  0.3406 -0.2221
   25MOL0     C 3325   1.050   5.476   4.446  0.2171 -0.8650 -0.3997
   25MOL0     C 3326   0.953   5.557   4.538  0.3498 -0.9270  0.1704
   25MOL0     C 3327   0.896   5.680   4.446 -1.5714  0.3519  0.1910
   25MOL0     C 3328   0.780   5.752   4.504  0.0486 -0.5103 -0.2471
   25MOL0     N 3329   0.774   5.893   4.457  0.3118 -0.4100 -0.0963
   25MOL0     C 3330   0.665   5.960   4.399 -0.3172 -0.4145 -0.1063
   25MOL0     C 3331   0.697   6.091   4.392 -1.1054  0.1631 -0.1231
   25MOL0     C 3332   0.615   6.211   4.349 -0.9180  0.6708 -1.4531
   25MOL0     C 3333   0.603   6.221   4.205  0.5426 -0.4118  0.1739
   25MOL0     C 3334   0.476   6.291   4.145  0.3028 -0.1348 -0.6639
   25MOL0     C 3335   0.343   6.233   4.195 -0.2508 -0.4236 -0.6308
   25MOL0     O 3336   0.313   6.124   4.114 -0.2279 -0.3657 -0.4573
   25MOL0     C 3337   0.209   6.051   4.162 -0.2010  0.3487  0.1858
   25MOL0     C 3338   0.111   6.098   4.251 -1.1996 -0.0827 -0.1933
   25MOL0     C 3339  -0.000   6.029   4.286  0.3866  0.0240  0.4097
   25MOL0     C 3340  -0.080   6.091   4.399  1.9759 -0.3607  0.0075
   25MOL0     C 3341  -0.022   5.899   4.226  0.3423 -1.5524 -0.0038
   25MOL0     C 3342  -0.142   5.811   4.246 -0.2038  0.4059 -0.2303
   25MOL0     O 3343  -0.151   5.700   4.170 -0.2365  0.5848  0.4323
   25MOL0     C 3344  -0.234   5.594   4.208 -0.3763 -0.1930 -0.1873
   25MOL0     C 3345  -0.206   5.519   4.326 -0.3100 -0.2335  0.2389
   25MOL0     C 3346  -0.287   5.409   4.342 -0.9706  0.6162  0.3302
   25MOL0     C 3347  -0.393   5.362   4.261  0.3185 -0.0399 -0.6665
   25MOL0     O 3348  -0.441   5.237   4.304 -0.7169 -0.3579 -0.5338
   25MOL0     C 3349  -0.546   5.174   4.220 -0.2437  0.3844 -1.3354
   25MOL0     C 3350  -0.549   5.022   4.239  0.0300  0.3437 -0.4090
   25MOL0     C 3351  -0.576   4.974   4.388 -0.5673 -0.6866  1.4915
   25MOL0     C 3352  -0.575   4.818   4.383 -0.2743  0.5732 -0.2250
   25MOL0     C 3353  -0.698   4.753   4.328  0.1041 -1.1348 -0.1080
   25MOL0     C 3354  -0.733   4.628   4.409  0.3025 -0.1263 -0.1994
   25MOL0     C 3355  -0.828   4.533   4.338  0.1039 -0.0360 -0.7599
   25MOL0     C 3356  -0.821   4.390   4.398 -0.2318  0.1395  0.1979
   25MOL0    Cl 3357  -0.851   4.389   4.573 -0.0907  0.2146  0.3610
   25MOL0     C 3358  -0.419   5.441   4.153 -0.5690  0.7194  0.0605
   25MOL0     C 3359  -0.346   5.564   4.129 -0.4276  0.1364 -1.2152
   25MOL0     O 3360  -0.212   5.827   4.342  0.3300  0.0198  0.1210
   25MOL0     C 3361   0.079   5.854   4.141  0.4625  0.4727  0.2864
   25MOL0     C 3362   0.191   5.925   4.105 -0.1123  0.2314 -0.5177
   25MOL0     N 3363   0.835   6.105   4.434  0.2815 -0.5513 -0.4226
   25MOL0     N 3364   0.876   5.984   4.463 -0.1576  0.3907  0.2904
   25MOL0     C 3365   0.890   4.935   4.004 -0.0221 -0.9215 -0.6239
   25MOL0     C 3366   0.877   4.867   3.888 -0.5181 -0.3576  0.4932
   25MOL0     C 3367   0.788   4.535   3.580  0.5043  0.2767 -0.0218
   25MOL0     C 3368   0.882   4.596   3.495 -0.4467 -0.3294  0.0334
   25MOL0     C 3369   0.909   4.550   3.363 -0.9385 -0.1355  0.1894
   25MOL0     C 3370   0.844   4.447   3.314  0.6802 -0.8002 -0.0963
   25MOL0     O 3371   0.875   4.414   3.191  0.5847 -0.6477  0.0549
   25MOL0     C 3372   0.794   4.332   3.107  0.2452  0.2242  0.5779
   25MOL0     C 3373   0.704   4.420   3.030  0.3580  0.1075 -0.0423
   25MOL0     C 3374   0.579   4.358   2.960 -1.2257  1.0950 -0.2608
   25MOL0     C 3375   0.632   4.226   2.892 -0.2926 -0.5663  0.2025
   25MOL0     C 3376   0.570   4.212   2.756  0.6634 -0.4224  0.0957
   25MOL0     C 3377   0.499   4.184   2.658 -0.5917 -0.4090 -0.0453
   25MOL0     C 3378   0.747   4.382   3.393  0.6205  0.6866  0.0145
   25MOL0     C 3379   0.718   4.428   3.526  0.6288  0.1409  0.3289
   25MOL0     C 3380   0.623   4.343   3.608  0.5661  0.3788 -0.3202
   25MOL0     H 3381   0.819   4.553   4.020  1.0316  0.6390  4.5270
   25MOL0     H 3382   0.823   4.683   4.222 -0.6105  0.6811 -0.1347
   25MOL0     H 3383   1.020   5.056   4.155  0.0012 -2.1063 -0.0126
   25MOL0     H 3384   1.081   4.971   4.305  0.4538  0.6319  0.2343
   25MOL0     H 3385   0.860   5.157   4.311 -0.3030 -0.0775 -0.4443
   25MOL0     H 3386   0.941   5.073   4.452 -0.9720  0.0737 -0.1450
   25MOL0     H 3387   1.133   5.231   4.413  0.9346 -1.9773 -2.3480
   25MOL0     H 3388   1.082   5.253   4.241  1.6336 -1.0251 -0.8014
   25MOL0     H 3389   0.919   5.408   4.300  0.7430  0.3997 -0.7713
   25MOL0     H 3390   0.880   5.331   4.450 -0.0620 -2.0764 -0.9405
   25MOL0     H 3391   1.092   5.547   4.374 -0.8390  0.0569 -0.1317
   25MOL0     H 3392   1.130   5.440   4.512  0.8652  2.2866  0.6646
   25MOL0     H 3393   0.872   5.502   4.585  0.3396 -0.7996  0.3025
   25MOL0     H 3394   1.018   5.616   4.603  1.7623 -1.0463 -1.0755
   25MOL0     H 3395   0.869   5.650   4.344  0.4047 -1.3011  0.0825
   25MOL0     H 3396   0.984   5.741   4.425 -1.3628  0.0564  0.1955
   25MOL0     H 3397   0.700   5.688   4.465  3.2786 -3.4353 -2.7216
   25MOL0     H 3398   0.775   5.754   4.613  0.8835  0.0170 -0.2016
   25MOL0     H 3399   0.566   5.918   4.386  0.1672 -2.7621  2.5764
   25MOL0     H 3400   0.665   6.300   4.389 -1.9953  0.1606  1.2856
   25MOL0     H 3401   0.517   6.203   4.398  0.3140  2.4237  1.5692
   25MOL0     H 3402   0.685   6.279   4.163  2.1078 -1.7134  1.3170
   25MOL0     H 3403   0.603   6.125   4.152  0.0168  0.6252 -1.8144
   25MOL0     H 3404   0.483   6.395   4.177  2.5101  0.1107 -1.7092
   25MOL0     H 3405   0.482   6.289   4.036  0.5644  1.9511 -0.7178
   25MOL0     H 3406   0.339   6.188   4.295 -2.4433 -0.9461 -0.9121
   25MOL0     H 3407   0.261   6.305   4.184 -0.5363 -0.9799 -2.3359
   25MOL0     H 3408   0.130   6.182   4.316 -3.0231 -2.4078  3.7279
   25MOL0     H 3409  -0.129   6.016   4.461  0.6533  1.3225  1.1033
   25MOL0     H 3410  -0.159   6.144   4.346 -1.1136 -5.3566 -0.9874
   25MOL0     H 3411  -0.021   6.141   4.476 -1.3761  1.2021  1.7661
   25MOL0     H 3412  -0.130   5.549   4.398  0.2616  1.7176 -1.0990
   25MOL0     H 3413  -0.282   5.341   4.426 -2.2750 -1.4831 -1.1677
   25MOL0     H 3414  -0.653   5.198   4.229 -0.4332 -0.4171 -1.4311
   25MOL0     H 3415  -0.522   5.179   4.114  0.3990 -4.8312 -1.6495
   25MOL0     H 3416  -0.625   4.984   4.171 -0.6801  1.7534 -0.4324
   25MOL0     H 3417  -0.452   4.980   4.212 -1.1848 -0.9266 -3.1475
   25MOL0     H 3418  -0.675   5.011   4.415 -0.6309  0.5267 -0.2241
   25MOL0     H 3419  -0.497   5.005   4.457  0.9536  0.4289 -0.6589
   25MOL0     H 3420  -0.562   4.785   4.486 -0.2320 -0.9454 -0.6878
   25MOL0     H 3421  -0.484   4.778   4.336  0.9535  1.2368  1.4744
   25MOL0     H 3422  -0.779   4.823   4.351  0.8014 -0.3481  0.0053
   25MOL0     H 3423  -0.693   4.742   4.219 -0.1932 -4.5236  0.1039
   25MOL0     H 3424  -0.777   4.663   4.502 -1.8378  0.5177 -1.3826
   25MOL0     H 3425  -0.634   4.585   4.428  3.0089  4.8049 -1.2662
   25MOL0     H 3426  -0.801   4.528   4.232  0.9518  1.2259 -0.6245
   25MOL0     H 3427  -0.920   4.589   4.356  0.9655  1.2899 -0.3771
   25MOL0     H 3428  -0.740   4.326   4.361 -2.3351 -2.7352  0.2588
   25MOL0     H 3429  -0.901   4.329   4.356  0.8264  0.7149 -2.9495
   25MOL0     H 3430  -0.495   5.406   4.083 -0.9207  0.0681  0.7584
   25MOL0     H 3431  -0.367   5.630   4.045  3.8348  1.7894 -1.1913
   25MOL0     H 3432   0.090   5.750   4.113  5.9102  0.2051  2.0881
   25MOL0     H 3433   0.259   5.867   4.044 -0.2077 -0.1935 -0.2243
   25MOL0     H 3434   0.916   5.040   3.993 -0.7834 -0.8078 -1.4293
   25MOL0     H 3435   0.902   4.923   3.799 -0.7556  0.8352  1.1433
   25MOL0     H 3436   0.948   4.679   3.519 -2.1771  2.0915 -2.9560
   25MOL0     H 3437   0.977   4.606   3.299  0.2034  1.1922  2.4510
   25MOL0     H 3438   0.851   4.254   3.055  0.1827 -1.1418  2.4341
   25MOL0     H 3439   0.721   4.270   3.159 -1.0248  2.6411  1.8443
   25MOL0     H 3440   0.750   4.484   2.954  0.9505 -1.0011 -0.6317
   25MOL0     H 3441   0.663   4.492   3.102 -1.3534 -1.4853  0.6408
   25MOL0     H 3442   0.514   4.320   3.039  1.6049 -0.0582  1.6666
   25MOL0     H 3443   0.535   4.429   2.890 -0.0688  0.7000 -1.4148
   25MOL0     H 3444   0.612   4.137   2.953 -1.9139  0.0835  0.6585
   25MOL0     H 3445   0.741   4.231   2.877 -0.3759 -1.3786 -0.7461
   25MOL0     H 3446   0.439   4.173   2.570 -1.4887 -2.3915  0.7444
   25MOL0     H 3447   0.691   4.294   3.363  0.1880 -0.2849  3.2441
   25MOL0     H 3448   0.588   4.250   3.563 -1.8067  0.5302  1.0475
   25MOL0     H 3449   0.665   4.318   3.706  2.1613  0.2714 -1.0086
   25MOL0     H 3450   0.537   4.405   3.635  0.8024  0.7828 -0.4815
   26MOL0     O 3451   3.493   3.670   0.389 -0.4081  0.0387 -0.5539
   26MOL0     C 3452   3.517   3.779   0.428 -0.1644  0.0757 -0.6180
   26MOL0     O 3453   3.426   3.885   0.432  0.1951  0.7629 -0.0104
   26MOL0     C 3454   3.293   3.871   0.396  0.2499  0.2059 -0.4974
   26MOL0     C 3455   3.190   3.900   0.481  0.2127  0.1895 -0.3885
   26MOL0     C 3456   3.062   3.896   0.427 -0.0050 -0.2246 -1.0935
   26MOL0     C 3457   3.029   3.850   0.302  0.7558 -0.3458  0.1135
   26MOL0     O 3458   2.899   3.847   0.243 -0.5420 -0.1481 -0.2136
   26MOL0     C 3459   2.791   3.920   0.308 -0.6684 -0.8979 -0.6061
   26MOL0     C 3460   2.697   3.966   0.191  0.1329 -0.2233 -1.0298
   26MOL0     C 3461   2.611   4.099   0.219  0.0101  0.9787  0.3344
   26MOL0     C 3462   2.502   4.103   0.111 -0.2606  0.2864  0.4361
   26MOL0     C 3463   2.418   4.222   0.142 -0.6395 -0.2748 -0.2514
   26MOL0     C 3464   2.288   4.231   0.050  0.5359  0.1744 -1.7620
   26MOL0     C 3465   2.164   4.208   0.130  0.0413 -0.6307 -0.0255
   26MOL0     C 3466   2.059   4.171   0.030 -0.6339 -0.5026 -0.6829
   26MOL0     N 3467   1.926   4.144   0.098 -0.5019 -0.5112  0.5849
   26MOL0     C 3468   1.907   4.090   0.226  0.9286 -0.4471 -0.5788
   26MOL0     C 3469   1.774   4.073   0.230 -0.7590 -0.0952  0.7741
   26MOL0     C 3470   1.701   4.042   0.360 -0.2451  0.3986  0.9624
   26MOL0     C 3471   1.722   4.154   0.462  0.7985  0.8486 -0.2572
   26MOL0     C 3472   1.770   4.102   0.598  0.2171  1.0010  0.3719
   26MOL0     C 3473   1.908   4.039   0.597  0.2091 -0.6102  0.0050
   26MOL0     O 3474   2.001   4.141   0.544 -0.4799 -0.2360  0.2976
   26MOL0     C 3475   2.134   4.136   0.582  0.8122 -0.6357 -0.0642
   26MOL0     C 3476   2.186   4.050   0.677 -0.2269  0.8482 -0.2083
   26MOL0     C 3477   2.322   4.039   0.691  0.9823  0.5137 -0.0640
   26MOL0     C 3478   2.371   3.934   0.779  0.1131  0.7549  0.1651
   26MOL0     C 3479   2.406   4.121   0.616  0.6211 -0.9118 -0.1344
   26MOL0     C 3480   2.545   4.125   0.645 -0.6938 -0.5894  0.4700
   26MOL0     O 3481   2.612   4.011   0.692  0.0165  0.4184  0.5985
   26MOL0     C 3482   2.751   4.013   0.726 -0.1846  0.1724  0.6194
   26MOL0     C 3483   2.845   4.121   0.739 -0.7138  0.2878 -0.5208
   26MOL0     C 3484   2.983   4.101   0.773  0.5457  1.2052  0.0300
   26MOL0     C 3485   3.023   3.970   0.807 -0.0008 -0.2720  0.6689
   26MOL0     O 3486   3.155   3.933   0.839 -0.3087 -0.3315  0.2080
   26MOL0     C 3487   3.250   4.037   0.874  0.0263  0.8607 -0.0872
   26MOL0     C 3488   3.236   4.082   1.020 -0.5353 -0.8591  0.2188
   26MOL0     C 3489   3.316   4.206   1.055 -0.0990 -0.4825 -0.1694
   26MOL0     C 3490   3.467   4.185   1.024 -0.3218  0.1576 -0.7257
   26MOL0     C 3491   3.559   4.302   1.075 -0.0100  0.1746  0.1020
   26MOL0     C 3492   3.701   4.272   1.039 -1.1498  0.1194  0.1177
   26MOL0     C 3493   3.763   4.168   1.133 -0.0072 -0.2247 -0.3669
   26MOL0     C 3494   3.906   4.134   1.088  0.3395 -0.1733 -0.1243
   26MOL0    Cl 3495   3.918   4.021   0.950  0.0181 -0.3944 -0.5626
   26MOL0     C 3496   2.922   3.871   0.806 -0.1130  0.7684  0.7328
   26MOL0     C 3497   2.790   3.888   0.761  0.3805 -0.5755 -0.3138
   26MOL0     O 3498   2.598   4.236   0.614 -0.1693  0.5220 -0.6166
   26MOL0     C 3499   2.355   4.213   0.519  0.6938  1.5114 -0.3589
   26MOL0     C 3500   2.216   4.218   0.502  0.3505  0.3481  0.2436
   26MOL0     N 3501   1.712   4.112   0.115 -0.0530 -0.6333 -0.0824
   26MOL0     N 3502   1.806   4.159   0.036 -0.5755  0.3106 -0.6415
   26MOL0     C 3503   3.141   3.811   0.221 -0.3231 -0.4278  0.2832
   26MOL0     C 3504   3.270   3.821   0.267 -0.6414 -0.5790 -0.1486
   26MOL0     C 3505   3.647   3.793   0.498  0.1005  0.4021  1.2842
   26MOL0     C 3506   3.767   3.766   0.429 -0.0438 -0.9446 -0.2822
   26MOL0     C 3507   3.887   3.776   0.495 -0.4305  0.1804 -0.0088
   26MOL0     C 3508   3.893   3.812   0.636 -0.7104  0.8351  1.2731
   26MOL0     O 3509   4.011   3.818   0.701  0.7970 -0.4440  0.3613
   26MOL0     C 3510   4.123   3.874   0.624 -0.4362 -0.4598 -0.5803
   26MOL0     C 3511   4.219   3.931   0.731 -0.2451  0.3525  0.1204
   26MOL0     C 3512   4.339   4.007   0.677 -0.5263 -0.1666 -0.4171
   26MOL0     C 3513   4.413   3.947   0.561 -0.0925  0.1971 -0.1396
   26MOL0     C 3514   4.530   4.030   0.525  0.9660 -0.3132  0.3988
   26MOL0     C 3515   4.617   4.105   0.490  0.6650 -0.1861 -0.4194
   26MOL0     C 3516   3.778   3.844   0.703  1.1968 -1.4158  0.3728
   26MOL0     C 3517   3.657   3.828   0.636 -1.0747 -0.1984 -0.1958
   26MOL0     C 3518   3.524   3.851   0.710  0.5427 -0.9907  0.0622
   26MOL0     H 3519   3.213   3.915   0.586  2.0667 -3.1771 -0.1398
   26MOL0     H 3520   2.981   3.923   0.494  1.1888 -0.2996  0.4290
   26MOL0     H 3521   2.811   4.002   0.377 -1.6499 -1.7142  0.7180
   26MOL0     H 3522   2.735   3.854   0.376 -2.2600  1.0450  0.0954
   26MOL0     H 3523   2.755   3.988   0.101  3.7253  2.0800  1.5684
   26MOL0     H 3524   2.624   3.885   0.178 -2.0318  1.3257  0.7300
   26MOL0     H 3525   2.576   4.085   0.321  2.5950  0.4151  1.2275
   26MOL0     H 3526   2.680   4.184   0.212  2.7653 -0.9276  2.0830
   26MOL0     H 3527   2.544   4.113   0.010 -0.9516  0.6340  0.1748
   26MOL0     H 3528   2.443   4.011   0.103  2.4430 -1.4021 -3.4282
   26MOL0     H 3529   2.471   4.317   0.128 -1.2448 -0.2335 -2.6254
   26MOL0     H 3530   2.390   4.217   0.247  1.8966 -1.0268  0.4642
   26MOL0     H 3531   2.287   4.330   0.002  1.1365  0.3868 -1.3368
   26MOL0     H 3532   2.298   4.152  -0.025  0.5003  0.1386 -1.7291
   26MOL0     H 3533   2.133   4.296   0.187 -1.0643  0.7166 -2.5766
   26MOL0     H 3534   2.180   4.130   0.205  0.9601  1.4362  2.0369
   26MOL0     H 3535   2.052   4.259  -0.035  3.7307  0.1987 -0.4890
   26MOL0     H 3536   2.100   4.087  -0.027  1.7227  0.5724 -0.6700
   26MOL0     H 3537   1.974   4.087   0.311 -1.8581  0.3649  1.8103
   26MOL0     H 3538   1.734   3.950   0.408  2.1833  1.5229  1.5514
   26MOL0     H 3539   1.593   4.042   0.337  0.1441 -1.7308 -1.3713
   26MOL0     H 3540   1.796   4.221   0.418  1.4470  1.2561  1.4009
   26MOL0     H 3541   1.629   4.210   0.475  0.2644 -0.3104  1.0865
   26MOL0     H 3542   1.772   4.182   0.672 -0.5065 -0.4189  1.9937
   26MOL0     H 3543   1.694   4.037   0.641  0.0545  2.0074  1.6583
   26MOL0     H 3544   1.932   4.016   0.701 -1.8432  1.2249  0.9672
   26MOL0     H 3545   1.911   3.945   0.540  1.8197 -2.1054  2.3746
   26MOL0     H 3546   2.114   3.998   0.739 -2.6119  1.8432 -1.9913
   26MOL0     H 3547   2.436   3.974   0.857  1.0235 -0.8630  0.2708
   26MOL0     H 3548   2.427   3.864   0.717 -0.9252  1.4541 -1.6617
   26MOL0     H 3549   2.293   3.882   0.835  1.0351 -0.4886  0.3342
   26MOL0     H 3550   2.808   4.223   0.736  1.4764  1.1733  0.3742
   26MOL0     H 3551   3.044   4.191   0.777  2.6234 -0.0763 -1.0346
   26MOL0     H 3552   3.347   3.988   0.862 -0.8556 -0.4462 -2.4126
   26MOL0     H 3553   3.246   4.118   0.801  1.6887  1.1095  0.0679
   26MOL0     H 3554   3.128   4.097   1.030 -0.8905 -2.0705 -1.3519
   26MOL0     H 3555   3.258   4.000   1.088  0.9466 -0.1167  0.6761
   26MOL0     H 3556   3.296   4.231   1.160 -4.2051  0.8004 -1.0500
   26MOL0     H 3557   3.273   4.291   1.002  2.7377  2.2652  1.6425
   26MOL0     H 3558   3.493   4.168   0.918  0.8021  0.4635 -0.5194
   26MOL0     H 3559   3.504   4.096   1.075 -0.6015  2.2418  3.5421
   26MOL0     H 3560   3.533   4.396   1.027  1.4648  1.1689  1.1704
   26MOL0     H 3561   3.559   4.310   1.184  0.0260 -1.6551  0.2615
   26MOL0     H 3562   3.751   4.370   1.040 -1.8014  0.4968 -1.1578
   26MOL0     H 3563   3.702   4.230   0.938  1.9029 -0.8235  0.4355
   26MOL0     H 3564   3.710   4.074   1.148 -0.2499  0.4415  7.4918
   26MOL0     H 3565   3.773   4.218   1.230  2.4385 -1.7253  0.2483
   26MOL0     H 3566   3.970   4.083   1.161  1.1764  1.8033  0.5810
   26MOL0     H 3567   3.963   4.227   1.075 -0.1678  0.1399 -0.1220
   26MOL0     H 3568   2.955   3.768   0.817 -4.0906 -1.1326 -2.3458
   26MOL0     H 3569   2.720   3.806   0.768 -1.3875  0.7752 -1.4376
   26MOL0     H 3570   2.417   4.285   0.466  1.7939  0.5210 -0.4696
   26MOL0     H 3571   2.183   4.278   0.418  1.3315 -0.9771 -1.1460
   26MOL0     H 3572   3.131   3.779   0.118  1.6625  0.8622 -0.3726
   26MOL0     H 3573   3.356   3.784   0.213 -2.2774 -5.2131  0.0094
   26MOL0     H 3574   3.767   3.734   0.325 -0.6774 -0.0447 -0.5743
   26MOL0     H 3575   3.978   3.766   0.436 -1.2126  1.1035 -1.4109
   26MOL0     H 3576   4.174   3.797   0.565  1.3150  1.0664 -1.1620
   26MOL0     H 3577   4.091   3.960   0.566 -0.2503 -0.3478 -0.5191
   26MOL0     H 3578   4.235   3.856   0.810 -1.5454  0.3719  0.4266
   26MOL0     H 3579   4.164   4.008   0.787  1.5725  2.1660 -0.4798
   26MOL0     H 3580   4.300   4.105   0.646 -1.9383  0.1043  1.9755
   26MOL0     H 3581   4.406   4.021   0.762 -0.9614  1.3708 -0.2944
   26MOL0     H 3582   4.355   3.929   0.471 -0.4775 -3.5067  0.6792
   26MOL0     H 3583   4.436   3.849   0.604 -2.1821 -0.5556 -0.5808
   26MOL0     H 3584   4.690   4.176   0.457 -1.3497  1.8075 -0.8120
   26MOL0     H 3585   3.789   3.874   0.807 -0.0635 -0.0591  0.1445
   26MOL0     H 3586   3.461   3.763   0.691 -1.1988  0.1157  0.5368
   26MOL0     H 3587   3.528   3.856   0.819 -4.1057  0.5297  0.3763
   26MOL0     H 3588   3.471   3.937   0.668 -3.8442 -2.1054  2.6557
   27MOL0     O 3589  10.920   3.809   7.341 -0.1284 -0.3874 -0.3517
   27MOL0     C 3590  10.797   3.796   7.367 -0.0050 -0.7009 -0.4126
   27MOL0     O 3591  10.739   3.779   7.493 -0.2891  0.6377 -0.8295
   27MOL0     C 3592  10.808   3.820   7.606  0.1347  0.1727 -0.2154
   27MOL0     C 3593  10.943   3.786   7.632  0.2880 -0.3012 -0.2038
   27MOL0     C 3594  10.994   3.832   7.756  0.8006  0.8346 -0.2016
   27MOL0     C 3595  10.915   3.906   7.846  0.2067  0.3315 -0.2531
   27MOL0     O 3596  10.966   3.944   7.971  0.5471 -0.3151  0.1026
   27MOL0     C 3597  10.965   4.086   8.002 -0.0262 -0.6523 -0.2942
   27MOL0     C 3598  11.101   4.150   7.966 -0.4005 -0.4451 -0.9588
   27MOL0     C 3599  11.098   4.259   7.868 -0.9675  0.3553  0.1381
   27MOL0     C 3600  11.206   4.371   7.901  0.1440  0.3151  1.1415
   27MOL0     C 3601  11.225   4.482   7.783 -0.5281  0.2702 -0.6303
   27MOL0     C 3602  11.286   4.407   7.667 -0.0605 -0.6626 -0.6239
   27MOL0     C 3603  11.376   4.502   7.588  0.3835 -0.1088 -0.5060
   27MOL0     C 3604  11.294   4.587   7.492  1.0239 -1.3176 -0.5907
   27MOL0     N 3605  11.278   4.515   7.363  0.7222  0.5641 -0.3972
   27MOL0     C 3606  11.197   4.411   7.330 -0.2638  0.1423 -0.6871
   27MOL0     C 3607  11.184   4.406   7.193 -0.3200 -0.3977 -0.4681
   27MOL0     C 3608  11.092   4.321   7.106  0.5755 -0.3084 -0.1380
   27MOL0     C 3609  11.154   4.184   7.065  0.1250 -0.4001 -1.1123
   27MOL0     C 3610  11.256   4.212   6.955  0.0990  1.1741 -0.3340
   27MOL0     C 3611  11.295   4.074   6.893 -0.1321 -0.1173 -0.0145
   27MOL0     O 3612  11.345   4.111   6.765 -0.4690  0.2383  0.2946
   27MOL0     C 3613  11.428   4.011   6.728  0.0105  0.1761 -0.1164
   27MOL0     C 3614  11.375   3.896   6.657 -0.3711 -0.5125 -0.4666
   27MOL0     C 3615  11.463   3.788   6.640 -0.1416 -0.5405 -0.2134
   27MOL0     C 3616  11.403   3.670   6.573  0.2801  0.6518  0.3046
   27MOL0     C 3617  11.600   3.799   6.678  0.2483  0.4653 -0.6995
   27MOL0     C 3618  11.696   3.686   6.659 -0.0145  0.0772 -0.3911
   27MOL0     O 3619  11.659   3.574   6.731  0.2511  0.3670  0.1487
   27MOL0     C 3620  11.730   3.455   6.732 -0.0744 -0.0195 -0.1790
   27MOL0     C 3621  11.664   3.329   6.715  0.0044 -0.3608  0.1023
   27MOL0     C 3622  11.732   3.206   6.734 -0.5029 -0.2990 -0.5825
   27MOL0     C 3623  11.869   3.205   6.765  1.1619  0.2827 -0.1235
   27MOL0     O 3624  11.943   3.098   6.792 -0.1589  0.5504  0.7637
   27MOL0     C 3625  11.858   2.977   6.815 -0.1590 -0.0214 -1.2187
   27MOL0     C 3626  11.947   2.859   6.843 -0.0704  0.0016  0.2653
   27MOL0     C 3627  11.858   2.734   6.829  0.4512 -0.5273  0.6891
   27MOL0     C 3628  11.920   2.600   6.866  1.0279 -0.1488 -0.2369
   27MOL0     C 3629  11.960   2.519   6.742 -0.2304 -0.2284 -1.4200
   27MOL0     C 3630  12.006   2.366   6.765  0.4542  0.8592  0.3415
   27MOL0     C 3631  11.908   2.266   6.847  0.1169 -0.4288  0.5072
   27MOL0     C 3632  11.975   2.126   6.859 -0.3376 -1.0582  0.3345
   27MOL0    Cl 3633  11.992   2.047   6.696  0.0276  0.0814 -0.4240
   27MOL0     C 3634  11.938   3.327   6.777 -0.9234  0.8118 -1.0469
   27MOL0     C 3635  11.871   3.451   6.761  0.2014  0.5425  0.1266
   27MOL0     O 3636  11.781   3.698   6.577 -0.5215  0.2527  0.2886
   27MOL0     C 3637  11.653   3.925   6.725  0.7110 -0.4753  0.8392
   27MOL0     C 3638  11.560   4.024   6.757  0.4414 -0.6914  0.4188
   27MOL0     N 3639  11.270   4.508   7.155  0.7947 -0.0779  0.4844
   27MOL0     N 3640  11.326   4.566   7.248  1.3199 -1.4769 -0.4964
   27MOL0     C 3641  10.785   3.943   7.810 -1.0061  0.3538 -0.4259
   27MOL0     C 3642  10.734   3.899   7.694 -0.7724  0.5908 -0.1770
   27MOL0     C 3643  10.713   3.766   7.249 -0.2336  0.4534 -0.1265
   27MOL0     C 3644  10.618   3.669   7.268  0.4528  1.1029  0.3335
   27MOL0     C 3645  10.541   3.622   7.157 -0.3192  0.2904 -0.1136
   27MOL0     C 3646  10.555   3.676   7.034 -0.8675 -0.2006 -0.1368
   27MOL0     O 3647  10.492   3.640   6.921 -0.4065  0.4833 -0.3402
   27MOL0     C 3648  10.360   3.590   6.921  0.1519  0.3309 -0.2700
   27MOL0     C 3649  10.334   3.525   6.775 -0.2703 -0.0531 -0.2051
   27MOL0     C 3650  10.387   3.610   6.654 -0.0222 -0.0625  0.0153
   27MOL0     C 3651  10.307   3.732   6.626  1.5057 -0.0126  1.0635
   27MOL0     C 3652  10.350   3.836   6.726 -0.4780  0.4758  0.5747
   27MOL0     C 3653  10.365   3.915   6.815 -0.1348 -0.5818 -0.0283
   27MOL0     C 3654  10.649   3.784   7.026 -0.7724 -0.5164 -0.1898
   27MOL0     C 3655  10.724   3.836   7.131 -0.0170  1.0308 -0.0705
   27MOL0     C 3656  10.822   3.950   7.096  0.2353 -0.4564  0.9570
   27MOL0     H 3657  10.996   3.715   7.569  3.2309  1.4083  0.1636
   27MOL0     H 3658  11.099   3.820   7.781  0.6178  3.2109  2.1755
   27MOL0     H 3659  10.963   4.099   8.111  2.0651  0.3658 -0.3434
   27MOL0     H 3660  10.879   4.134   7.954  0.2893  1.3060  1.0083
   27MOL0     H 3661  11.137   4.191   8.061 -1.2420 -1.1278 -0.3233
   27MOL0     H 3662  11.172   4.073   7.935 -0.0596 -1.6802  2.4572
   27MOL0     H 3663  11.118   4.222   7.767 -2.4350  0.6488 -0.2855
   27MOL0     H 3664  11.003   4.312   7.878 -0.5833  0.8089  1.5921
   27MOL0     H 3665  11.179   4.417   7.996  2.5388  0.4323  1.8177
   27MOL0     H 3666  11.303   4.322   7.911  1.4229  2.3694 -0.4866
   27MOL0     H 3667  11.284   4.561   7.831 -2.6675 -1.1451  5.2073
   27MOL0     H 3668  11.121   4.516   7.774 -0.1250  2.7918  2.4331
   27MOL0     H 3669  11.343   4.321   7.703 -1.0622 -0.9376  0.3694
   27MOL0     H 3670  11.203   4.365   7.610  0.6837 -1.2274 -1.3158
   27MOL0     H 3671  11.443   4.442   7.526  0.5204 -0.7552  0.2539
   27MOL0     H 3672  11.431   4.568   7.656 -2.9371  1.8480  0.5339
   27MOL0     H 3673  11.205   4.619   7.546  2.7837  0.3707  1.4871
   27MOL0     H 3674  11.348   4.682   7.487 -0.7236  0.2290  4.3796
   27MOL0     H 3675  11.145   4.350   7.404 -0.0548  0.8091  0.0118
   27MOL0     H 3676  11.074   4.373   7.012  2.4074 -2.2321 -1.6361
   27MOL0     H 3677  10.990   4.307   7.143  1.1354 -0.6413  1.3392
   27MOL0     H 3678  11.197   4.137   7.154  0.6655 -1.1314 -1.7419
   27MOL0     H 3679  11.069   4.125   7.028  1.0207 -0.4915 -3.1676
   27MOL0     H 3680  11.214   4.278   6.878  0.7546  2.2581  0.2160
   27MOL0     H 3681  11.341   4.257   7.007 -0.1853  2.1858 -0.7152
   27MOL0     H 3682  11.366   4.024   6.959 -0.1681 -1.6608 -1.0803
   27MOL0     H 3683  11.210   4.007   6.879  0.6571 -1.7262  2.3095
   27MOL0     H 3684  11.274   3.884   6.618  0.1659 -1.9325 -1.4896
   27MOL0     H 3685  11.414   3.672   6.464 -5.0110 -0.8716 -0.5759
   27MOL0     H 3686  11.295   3.676   6.591  0.1626  1.5139 -0.5803
   27MOL0     H 3687  11.428   3.575   6.621  3.5722  1.3467  0.1441
   27MOL0     H 3688  11.560   3.333   6.687  0.4102  2.0265 -1.3002
   27MOL0     H 3689  11.678   3.112   6.728  0.7461 -1.0570 -0.4492
   27MOL0     H 3690  11.793   2.997   6.901 -0.1382  2.0914 -1.6418
   27MOL0     H 3691  11.790   2.941   6.737 -0.4053 -0.4430 -0.8204
   27MOL0     H 3692  12.034   2.867   6.777 -1.0003  1.0027 -0.8903
   27MOL0     H 3693  11.992   2.868   6.942  2.5646  1.7558 -0.9529
   27MOL0     H 3694  11.838   2.724   6.722  2.7712 -1.1401  0.2630
   27MOL0     H 3695  11.771   2.744   6.896 -1.3100  0.8309 -1.6506
   27MOL0     H 3696  11.851   2.539   6.924  0.5237  0.3055 -0.3481
   27MOL0     H 3697  12.007   2.607   6.933  0.2271 -0.4016  0.8575
   27MOL0     H 3698  11.866   2.515   6.688 -0.2690 -2.0108 -1.2817
   27MOL0     H 3699  12.031   2.571   6.677  1.0290  0.6037  0.5250
   27MOL0     H 3700  12.101   2.370   6.820  1.1455  0.6238 -0.8169
   27MOL0     H 3701  12.020   2.314   6.670 -1.5176 -1.1142  1.0471
   27MOL0     H 3702  11.818   2.263   6.785  1.7132 -2.0008 -1.9159
   27MOL0     H 3703  11.864   2.301   6.941 -2.3618 -0.9184 -0.4013
   27MOL0     H 3704  11.899   2.066   6.910 -3.7784  4.3968  2.5319
   27MOL0     H 3705  12.064   2.151   6.918  0.2662 -2.0759 -0.1200
   27MOL0     H 3706  12.041   3.323   6.811 -1.4268  0.0318  0.5081
   27MOL0     H 3707  11.914   3.547   6.787 -1.5470  0.5874  3.3860
   27MOL0     H 3708  11.761   3.927   6.737  0.5936 -0.2091  1.9379
   27MOL0     H 3709  11.593   4.121   6.791  1.8172 -1.3346  0.9947
   27MOL0     H 3710  10.738   4.019   7.872 -2.3767 -1.2567  0.5785
   27MOL0     H 3711  10.627   3.913   7.681 -0.9683  1.2752  1.8012
   27MOL0     H 3712  10.591   3.623   7.362 -0.3341  0.7239 -0.0616
   27MOL0     H 3713  10.481   3.535   7.183 -0.2766  0.5428  0.8547
   27MOL0     H 3714  10.370   3.503   6.986 -0.5855  1.3581  1.2688
   27MOL0     H 3715  10.280   3.660   6.945 -1.6316 -2.0547  1.1372
   27MOL0     H 3716  10.226   3.507   6.773  0.1499 -3.1960  0.7689
   27MOL0     H 3717  10.388   3.432   6.760  1.1653  0.7501 -0.1933
   27MOL0     H 3718  10.493   3.631   6.667  0.5194 -2.3994 -0.2463
   27MOL0     H 3719  10.388   3.555   6.560  0.7660 -2.4622  1.3464
   27MOL0     H 3720  10.199   3.716   6.639  1.2291 -0.0233 -0.9578
   27MOL0     H 3721  10.324   3.771   6.526 -1.1466 -3.9147 -1.1501
   27MOL0     H 3722  10.391   3.975   6.900  2.8970 -2.7149  0.7380
   27MOL0     H 3723  10.656   3.824   6.925  2.0078 -0.9572 -0.2433
   27MOL0     H 3724  10.769   4.040   7.064 -0.2810 -0.6784  1.1675
   27MOL0     H 3725  10.884   3.980   7.181  0.9792 -3.2631  1.5397
   27MOL0     H 3726  10.889   3.924   7.014  1.1707  1.1416  1.1750
   28MOL0     O 3727   4.638   5.799  11.513  0.2282 -0.1611 -0.0964
   28MOL0     C 3728   4.762   5.798  11.507 -0.2815 -0.2191  0.0911
   28MOL0     O 3729   4.853   5.845  11.606  0.5596  0.7210 -0.0776
   28MOL0     C 3730   4.794   5.904  11.714  0.0483 -0.0520  0.4442
   28MOL0     C 3731   4.839   5.865  11.846  0.1017 -0.2481  0.3197
   28MOL0     C 3732   4.806   5.942  11.963 -0.2021  0.5149 -0.1189
   28MOL0     C 3733   4.723   6.058  11.950 -0.0358  0.1916  0.0697
   28MOL0     O 3734   4.695   6.139  12.061 -0.4341 -0.3747  0.8963
   28MOL0     C 3735   4.727   6.087  12.189  0.0202 -0.7185  0.1870
   28MOL0     C 3736   4.668   6.188  12.287  0.0980 -0.4459  0.8241
   28MOL0     C 3737   4.510   6.166  12.302  0.0610  0.1504  0.2849
   28MOL0     C 3738   4.451   6.289  12.361  0.1443  0.2958  0.3408
   28MOL0     C 3739   4.303   6.289  12.386 -0.3118  0.2238 -0.2488
   28MOL0     C 3740   4.266   6.424  12.448 -1.0890 -0.6165  0.2892
   28MOL0     C 3741   4.128   6.417  12.495 -0.6723 -0.4231 -0.6130
   28MOL0     C 3742   4.074   6.557  12.540 -0.1749  0.6959  0.3410
   28MOL0     N 3743   3.923   6.547  12.529 -0.4764 -0.3303 -0.1691
   28MOL0     C 3744   3.846   6.504  12.629 -1.0186  0.5573 -0.1003
   28MOL0     C 3745   3.718   6.490  12.574 -0.2206 -0.1077  0.2361
   28MOL0     C 3746   3.595   6.462  12.646  0.0866 -0.2907 -0.1130
   28MOL0     C 3747   3.487   6.558  12.607  0.4068  0.1236  0.3187
   28MOL0     C 3748   3.520   6.705  12.655  0.1635 -0.9709  0.3977
   28MOL0     C 3749   3.409   6.804  12.644 -0.9375 -0.6984 -1.1479
   28MOL0     O 3750   3.366   6.823  12.513  0.6211  0.9675  0.2591
   28MOL0     C 3751   3.237   6.781  12.483  0.5267 -0.9127 -0.0307
   28MOL0     C 3752   3.225   6.677  12.386 -0.2035  0.3906  0.0514
   28MOL0     C 3753   3.100   6.642  12.351  1.1023 -0.2353  1.3223
   28MOL0     C 3754   3.088   6.515  12.256 -0.0118  0.4057  0.7253
   28MOL0     C 3755   2.985   6.702  12.408 -0.2051  0.1922  0.2683
   28MOL0     C 3756   2.837   6.662  12.388 -1.2700 -0.7923  0.6425
   28MOL0     O 3757   2.771   6.683  12.504  0.1192 -0.8779 -0.4426
   28MOL0     C 3758   2.636   6.672  12.514 -0.2319 -0.4017 -0.5429
   28MOL0     C 3759   2.539   6.701  12.411 -0.6875 -0.6697 -0.1726
   28MOL0     C 3760   2.402   6.689  12.442  0.0568 -0.3923  0.2354
   28MOL0     C 3761   2.369   6.667  12.568  0.1843  0.3874 -0.9875
   28MOL0     O 3762   2.247   6.647  12.613 -0.0992  0.6717 -0.8141
   28MOL0     C 3763   2.133   6.705  12.550 -0.6652  0.8634 -0.5407
   28MOL0     C 3764   1.999   6.666  12.623 -0.2552  0.1197  0.2474
   28MOL0     C 3765   2.003   6.691  12.776 -0.2042  0.3337 -0.2237
   28MOL0     C 3766   1.862   6.673  12.811  0.6482  0.1138 -1.0309
   28MOL0     C 3767   1.815   6.673  12.962 -0.4905 -0.2942  0.0543
   28MOL0     C 3768   1.870   6.800  13.035  0.5668 -0.7580 -0.1801
   28MOL0     C 3769   1.827   6.812  13.191 -0.3990 -0.1865  1.4694
   28MOL0     C 3770   1.901   6.712  13.276  0.4667  0.4446 -0.2221
   28MOL0    Cl 3771   2.066   6.791  13.309  0.2215  0.5535 -0.0302
   28MOL0     C 3772   2.462   6.655  12.672  0.2250  1.1732  1.2433
   28MOL0     C 3773   2.591   6.645  12.648  0.2880 -0.0440  0.5507
   28MOL0     O 3774   2.791   6.634  12.275  0.4404 -0.5286 -0.5717
   28MOL0     C 3775   3.011   6.803  12.500  0.3019  0.8352 -0.3594
   28MOL0     C 3776   3.130   6.857  12.528 -0.2279  0.0648 -0.2148
   28MOL0     N 3777   3.724   6.526  12.445  0.6026 -0.4852  0.1183
   28MOL0     N 3778   3.841   6.569  12.422  0.6767  0.1009  0.6070
   28MOL0     C 3779   4.679   6.088  11.822  0.9101  0.2606  0.0929
   28MOL0     C 3780   4.719   6.021  11.711 -0.5037 -0.5949  0.0112
   28MOL0     C 3781   4.822   5.735  11.387 -0.6655  0.3647  0.8981
   28MOL0     C 3782   4.888   5.825  11.293  0.0873  0.5160  0.6207
   28MOL0     C 3783   4.971   5.761  11.195  0.8563  0.0274  0.2040
   28MOL0     C 3784   4.967   5.621  11.171  1.0540 -0.7370  0.1663
   28MOL0     O 3785   5.027   5.563  11.063  0.0937 -0.8262 -0.0790
   28MOL0     C 3786   5.146   5.625  11.022  0.0464 -0.4032 -0.3934
   28MOL0     C 3787   5.244   5.516  10.988  0.2168 -0.4183  0.4363
   28MOL0     C 3788   5.204   5.419  10.875  0.2730  0.2025 -0.2350
   28MOL0     C 3789   5.183   5.485  10.736  0.2211 -0.2040  0.0748
   28MOL0     C 3790   5.190   5.388  10.625  1.3057  0.0215  0.3051
   28MOL0     C 3791   5.178   5.310  10.528 -0.6273  0.2350 -0.7701
   28MOL0     C 3792   4.898   5.534  11.259  1.5429 -0.1219 -1.0783
   28MOL0     C 3793   4.826   5.594  11.375  1.1343 -0.2451 -0.1877
   28MOL0     C 3794   4.747   5.505  11.472  0.3145  0.8668 -0.0487
   28MOL0     H 3795   4.909   5.787  11.874 -0.7343 -0.2809  2.5410
   28MOL0     H 3796   4.850   5.916  12.059  1.8286  0.4826 -1.0072
   28MOL0     H 3797   4.833   6.090  12.215  0.1254  1.3213 -0.3001
   28MOL0     H 3798   4.700   5.983  12.212  2.2801 -0.8425  2.7037
   28MOL0     H 3799   4.712   6.153  12.381  1.8101  0.1917  0.3050
   28MOL0     H 3800   4.706   6.287  12.262  3.1305 -1.3955  1.2499
   28MOL0     H 3801   4.459   6.146  12.207  0.0797 -4.0023  0.9504
   28MOL0     H 3802   4.492   6.074  12.359  1.3852 -0.6558 -0.5421
   28MOL0     H 3803   4.502   6.299  12.457  1.9130  0.6658 -0.5875
   28MOL0     H 3804   4.490   6.371  12.301  2.1550 -0.9374 -0.1620
   28MOL0     H 3805   4.283   6.207  12.456  2.1195  1.0833  1.6450
   28MOL0     H 3806   4.241   6.272  12.298 -2.1485  1.1316  0.8268
   28MOL0     H 3807   4.331   6.452  12.531 -2.0969 -0.9087  1.1913
   28MOL0     H 3808   4.283   6.506  12.378  0.0228 -1.6386 -0.7008
   28MOL0     H 3809   4.118   6.338  12.571 -1.0466 -0.1314 -0.3579
   28MOL0     H 3810   4.068   6.410  12.404 -0.2424  2.4446 -1.1861
   28MOL0     H 3811   4.103   6.584  12.642 -0.3571  0.1716  0.5337
   28MOL0     H 3812   4.106   6.642  12.480 -2.0093  1.8743  0.9553
   28MOL0     H 3813   3.874   6.501  12.734 -2.0286  1.1380  0.1989
   28MOL0     H 3814   3.625   6.468  12.751 -2.6917 -2.4606  0.9209
   28MOL0     H 3815   3.567   6.358  12.629 -1.1418 -0.4308  2.3363
   28MOL0     H 3816   3.470   6.551  12.499 -0.2763 -0.7230  0.4641
   28MOL0     H 3817   3.399   6.522  12.661 -1.4430  3.5803 -0.1522
   28MOL0     H 3818   3.545   6.710  12.761  0.7171  2.1973  0.2402
   28MOL0     H 3819   3.610   6.735  12.600 -0.4310  1.0949  0.4419
   28MOL0     H 3820   3.331   6.760  12.706 -1.6277  0.4779 -1.1502
   28MOL0     H 3821   3.436   6.900  12.689 -2.4952 -1.5191  1.7899
   28MOL0     H 3822   3.303   6.614  12.346  0.5499 -0.0700  2.0906
   28MOL0     H 3823   3.183   6.485  12.211 -0.7878 -0.2972 -0.4750
   28MOL0     H 3824   3.019   6.524  12.172  1.4504  0.0354 -0.5567
   28MOL0     H 3825   3.063   6.426  12.315 -0.8914 -0.6608 -1.1660
   28MOL0     H 3826   2.570   6.731  12.312 -0.0393  0.2727  0.3019
   28MOL0     H 3827   2.334   6.698  12.358  0.0319  1.7549  0.4314
   28MOL0     H 3828   2.143   6.814  12.549 -1.4696  0.9603  0.4172
   28MOL0     H 3829   2.119   6.676  12.446 -1.3205  5.5870 -2.0095
   28MOL0     H 3830   1.921   6.735  12.587  0.1425  1.2572  1.4699
   28MOL0     H 3831   1.981   6.562  12.597 -2.7651  0.6357 -0.3571
   28MOL0     H 3832   2.027   6.792  12.809 -0.6334  0.5553 -0.5877
   28MOL0     H 3833   2.072   6.628  12.834 -0.5655  1.3333  1.3108
   28MOL0     H 3834   1.825   6.581  12.764  3.8715 -0.5727 -2.5117
   28MOL0     H 3835   1.809   6.755  12.763 -4.2116 -2.4832 -0.7639
   28MOL0     H 3836   1.706   6.670  12.970 -0.4732  0.8852  1.0527
   28MOL0     H 3837   1.854   6.580  13.005 -0.6303 -1.5125 -2.2836
   28MOL0     H 3838   1.807   6.875  12.986  0.9626 -0.1365  0.2407
   28MOL0     H 3839   1.976   6.821  13.018  0.6743 -1.3216 -0.2262
   28MOL0     H 3840   1.718   6.800  13.203 -0.5425  0.5334  0.9133
   28MOL0     H 3841   1.844   6.918  13.209  1.4613  0.3181 -2.4620
   28MOL0     H 3842   1.905   6.611  13.232  0.1608  0.9540 -1.4689
   28MOL0     H 3843   1.848   6.714  13.371  1.0502  1.4176  0.0974
   28MOL0     H 3844   2.426   6.633  12.772  0.1095 -2.3167  0.5659
   28MOL0     H 3845   2.663   6.636  12.729  0.3463 -3.0038  0.2817
   28MOL0     H 3846   2.942   6.868  12.552  2.9951  2.4093  1.4902
   28MOL0     H 3847   3.143   6.944  12.592 -1.4021 -0.6684  1.0950
   28MOL0     H 3848   4.619   6.179  11.817 -1.4658 -1.2492 -0.3226
   28MOL0     H 3849   4.676   6.064  11.622  0.3458  1.7741  0.6786
   28MOL0     H 3850   4.890   5.933  11.306  0.5774  0.3557  1.9752
   28MOL0     H 3851   5.033   5.836  11.147  0.4017 -0.3289 -0.9720
   28MOL0     H 3852   5.139   5.696  10.939 -1.0076 -0.0746 -0.0348
   28MOL0     H 3853   5.181   5.677  11.111 -0.2268  2.8093 -2.0070
   28MOL0     H 3854   5.271   5.458  11.077 -0.2795 -1.2913  0.0266
   28MOL0     H 3855   5.341   5.554  10.956  0.5664 -1.9305 -0.3874
   28MOL0     H 3856   5.277   5.337  10.869 -2.4667 -2.4893  0.5864
   28MOL0     H 3857   5.112   5.366  10.904 -0.4712  0.9296 -1.2051
   28MOL0     H 3858   5.255   5.565  10.718  1.7330 -1.5020  0.1724
   28MOL0     H 3859   5.086   5.536  10.739  1.3163  1.9258  2.1047
   28MOL0     H 3860   5.169   5.256  10.436 -2.1313  1.7633 -1.5950
   28MOL0     H 3861   4.902   5.427  11.242  2.0608 -0.3325  0.2898
   28MOL0     H 3862   4.679   5.543  11.549 -0.7340 -0.5876 -0.2204
   28MOL0     H 3863   4.709   5.422  11.413  1.4840 -0.4797  1.0131
   28MOL0     H 3864   4.816   5.442  11.530 -0.6993 -0.9021 -0.6880
   29MOL0     O 3865   6.850   9.920   7.292 -0.5519 -0.1044  0.7063
   29MOL0     C 3866   6.888   9.971   7.189  0.5014  0.0660  0.2996
   29MOL0     O 3867   6.818  10.055   7.118 -0.0061  0.2437  0.3639
   29MOL0     C 3868   6.681  10.024   7.112 -0.6233 -0.2229  0.6759
   29MOL0     C 3869   6.588  10.123   7.144 -0.2238  0.4429  0.1274
   29MOL0     C 3870   6.459  10.104   7.141  0.7931 -0.6728 -0.7040
   29MOL0     C 3871   6.406   9.983   7.104 -0.7027  0.3070  0.2753
   29MOL0     O 3872   6.276   9.975   7.116  0.3470  0.0480  0.0160
   29MOL0     C 3873   6.199   9.914   7.009 -0.7567 -0.2027  0.9016
   29MOL0     C 3874   6.184   9.999   6.882 -0.0380  0.6233 -0.3616
   29MOL0     C 3875   6.155  10.143   6.899  0.2770  0.0904 -0.0647
   29MOL0     C 3876   6.116  10.197   6.760 -0.0264  1.0502 -0.0439
   29MOL0     C 3877   6.116  10.348   6.756 -0.3491  0.5275  0.0462
   29MOL0     C 3878   6.054  10.411   6.626  0.4413 -0.1554 -0.5680
   29MOL0     C 3879   6.097  10.557   6.616  0.1546  0.3715  0.0797
   29MOL0     C 3880   6.073  10.611   6.473  1.2259  0.4599 -0.3200
   29MOL0     N 3881   6.136  10.738   6.441  0.0796  0.2258 -0.3889
   29MOL0     C 3882   6.121  10.866   6.491  0.0361  0.3886 -1.1960
   29MOL0     C 3883   6.227  10.935   6.443  0.5680 -0.1431  0.4765
   29MOL0     C 3884   6.228  11.078   6.435 -0.4013  0.3357 -0.0967
   29MOL0     C 3885   6.135  11.116   6.311  0.7717  0.4741 -1.4592
   29MOL0     C 3886   6.075  11.264   6.336  0.4778  0.0778  0.1046
   29MOL0     C 3887   6.192  11.367   6.328 -0.9686  0.8045  0.1385
   29MOL0     O 3888   6.154  11.504   6.367  0.8820 -0.1102 -0.7343
   29MOL0     C 3889   6.096  11.587   6.270  0.2541  1.3317 -0.0460
   29MOL0     C 3890   6.066  11.560   6.139  0.2963 -0.0754 -0.0592
   29MOL0     C 3891   6.026  11.666   6.047  0.0348  0.6541  0.5079
   29MOL0     C 3892   5.988  11.608   5.904 -0.0900 -0.2165  0.3973
   29MOL0     C 3893   6.010  11.803   6.081  0.0550  0.0337  0.2797
   29MOL0     C 3894   5.973  11.905   5.985 -1.4542 -0.4259 -0.8307
   29MOL0     O 3895   5.968  12.031   6.042 -0.6920  0.6644 -0.2566
   29MOL0     C 3896   5.909  12.131   5.967 -0.2088 -0.8173  0.0539
   29MOL0     C 3897   5.985  12.248   5.949  0.4687 -0.0153 -0.5614
   29MOL0     C 3898   5.941  12.359   5.871 -0.0599  0.2134 -0.6137
   29MOL0     C 3899   5.812  12.350   5.820  0.4758  0.2563  0.2658
   29MOL0     O 3900   5.771  12.455   5.740 -0.0195 -0.5108  0.1004
   29MOL0     C 3901   5.635  12.474   5.701 -0.0209 -0.0049 -0.6467
   29MOL0     C 3902   5.637  12.604   5.617 -1.1878  0.3002  0.0206
   29MOL0     C 3903   5.506  12.672   5.631  0.4521  0.1689 -0.2931
   29MOL0     C 3904   5.517  12.801   5.547 -0.1202  0.4651 -0.4641
   29MOL0     C 3905   5.392  12.884   5.565 -0.2584  0.5332  1.2232
   29MOL0     C 3906   5.400  13.023   5.511 -0.6873  1.0596 -0.0670
   29MOL0     C 3907   5.272  13.089   5.504 -0.1866  0.5412 -0.1802
   29MOL0     C 3908   5.294  13.217   5.444  0.7989  0.3280  1.5573
   29MOL0    Cl 3909   5.346  13.212   5.272 -0.5373  0.9849 -0.1126
   29MOL0     C 3910   5.729  12.237   5.844 -1.3360 -0.0246  0.2123
   29MOL0     C 3911   5.777  12.129   5.923 -0.2520 -0.5662  0.3684
   29MOL0     O 3912   5.942  11.886   5.869  0.2202 -0.5511  0.2307
   29MOL0     C 3913   6.018  11.819   6.224  0.7625 -0.1405  1.4164
   29MOL0     C 3914   6.068  11.717   6.310  0.5802  0.1299 -0.5702
   29MOL0     N 3915   6.289  10.863   6.349  0.0106  1.7607  0.2223
   29MOL0     N 3916   6.241  10.742   6.363 -0.3740 -0.2067 -0.3450
   29MOL0     C 3917   6.493   9.886   7.054  0.2504 -0.0071 -0.5412
   29MOL0     C 3918   6.632   9.900   7.063  1.1367 -0.9141 -0.3465
   29MOL0     C 3919   7.033   9.960   7.171  0.7194  0.7201  0.1524
   29MOL0     C 3920   7.110   9.936   7.288  0.9973 -0.0743 -0.4198
   29MOL0     C 3921   7.243   9.923   7.271 -0.4601  0.4463  0.3069
   29MOL0     C 3922   7.312   9.920   7.150 -0.0342 -0.4692 -0.3774
   29MOL0     O 3923   7.440   9.892   7.132  0.1354  0.4438 -0.2043
   29MOL0     C 3924   7.532  10.004   7.106  0.2521  0.4529 -0.3938
   29MOL0     C 3925   7.574  10.005   6.954  0.3382 -0.3049  0.2391
   29MOL0     C 3926   7.627   9.870   6.904  0.2012 -0.4341 -0.4220
   29MOL0     C 3927   7.762   9.814   6.953 -0.5805 -0.5731 -0.5174
   29MOL0     C 3928   7.808   9.705   6.874  0.2854  0.0534  0.1841
   29MOL0     C 3929   7.837   9.612   6.804  0.6844 -0.9751 -0.0113
   29MOL0     C 3930   7.234   9.926   7.034  0.8352 -0.3976 -0.5329
   29MOL0     C 3931   7.091   9.950   7.042  0.2785  0.9472  0.1214
   29MOL0     C 3932   7.025   9.974   6.909  0.2766  0.8929  0.3409
   29MOL0     H 3933   6.624  10.221   7.176 -0.1300 -0.0232  1.5317
   29MOL0     H 3934   6.398  10.182   7.185  2.4303 -0.6520  1.6656
   29MOL0     H 3935   6.102   9.896   7.058 -1.9526 -0.3871 -1.4093
   29MOL0     H 3936   6.240   9.820   6.970  2.5050  1.3168  0.3260
   29MOL0     H 3937   6.282   9.991   6.835  1.1524 -1.3693  2.2162
   29MOL0     H 3938   6.104   9.953   6.823  0.2186 -0.7385  0.3194
   29MOL0     H 3939   6.076  10.164   6.971  0.5397 -1.7632  0.8283
   29MOL0     H 3940   6.251  10.186   6.929  0.9877 -0.7626 -1.0391
   29MOL0     H 3941   6.185  10.162   6.682 -0.6821 -0.7068  0.1259
   29MOL0     H 3942   6.017  10.156   6.736  0.6280 -1.6483  1.5055
   29MOL0     H 3943   6.217  10.390   6.751 -1.0489  2.4336  0.6889
   29MOL0     H 3944   6.062  10.394   6.840 -0.9462 -1.4057  0.7699
   29MOL0     H 3945   6.079  10.352   6.537  2.2193 -2.0087  1.0320
   29MOL0     H 3946   5.945  10.400   6.635  0.3579 -0.3098 -1.6304
   29MOL0     H 3947   6.204  10.574   6.625  0.2724  0.6318 -1.4680
   29MOL0     H 3948   6.049  10.607   6.701 -1.6823 -1.3590  0.1528
   29MOL0     H 3949   6.100  10.536   6.398  2.1063  0.1389  0.2869
   29MOL0     H 3950   5.964  10.620   6.469  0.8460 -2.1871  1.2606
   29MOL0     H 3951   6.047  10.905   6.561  0.3489  2.8337 -2.1466
   29MOL0     H 3952   6.331  11.111   6.420  1.2476 -3.5402  1.3172
   29MOL0     H 3953   6.185  11.132   6.520 -0.1437  2.4353 -1.2429
   29MOL0     H 3954   6.193  11.111   6.218  1.8133  0.9666 -0.8609
   29MOL0     H 3955   6.050  11.048   6.309  2.3317 -1.5570 -1.5191
   29MOL0     H 3956   6.013  11.298   6.252 -2.5792 -0.7965  1.8713
   29MOL0     H 3957   6.019  11.262   6.430 -1.1707 -2.3004 -0.8384
   29MOL0     H 3958   6.267  11.339   6.403 -0.9064  1.6349  0.4001
   29MOL0     H 3959   6.241  11.344   6.233  0.2618 -1.2217  1.1909
   29MOL0     H 3960   6.070  11.456   6.107 -1.1028 -1.2035  3.0356
   29MOL0     H 3961   5.883  11.638   5.894  0.2849  1.0304 -0.0461
   29MOL0     H 3962   5.994  11.499   5.901  0.6890 -0.1593 -0.3781
   29MOL0     H 3963   6.049  11.664   5.833 -0.9069 -0.2961 -0.3821
   29MOL0     H 3964   6.087  12.250   5.986 -0.0333 -0.2972  0.8758
   29MOL0     H 3965   6.005  12.441   5.843  2.2560 -1.2562  0.0857
   29MOL0     H 3966   5.588  12.395   5.641  0.3738 -2.3114  1.9006
   29MOL0     H 3967   5.574  12.489   5.791 -0.9746 -0.5954 -1.1775
   29MOL0     H 3968   5.717  12.666   5.658 -1.5555  0.4479  0.5285
   29MOL0     H 3969   5.657  12.575   5.514  0.0256  1.2234 -0.0337
   29MOL0     H 3970   5.484  12.701   5.734 -1.3103  0.8657 -0.8204
   29MOL0     H 3971   5.423  12.611   5.595  1.5256 -0.5662 -1.6211
   29MOL0     H 3972   5.538  12.782   5.441 -1.0171  0.4617 -0.6489
   29MOL0     H 3973   5.597  12.854   5.599  1.0952 -0.1774 -1.6200
   29MOL0     H 3974   5.318  12.821   5.516 -3.5647  0.3146  5.9126
   29MOL0     H 3975   5.377  12.886   5.673  2.4154  0.5025  1.6776
   29MOL0     H 3976   5.440  13.008   5.410  0.1201  0.7549  0.2898
   29MOL0     H 3977   5.469  13.084   5.571 -1.5711  2.5017 -0.4532
   29MOL0     H 3978   5.218  13.104   5.598  0.2452  1.3188 -0.0516
   29MOL0     H 3979   5.204  13.028   5.443 -0.0374  0.7448 -0.5544
   29MOL0     H 3980   5.364  13.273   5.507  2.6150  0.0004 -0.0675
   29MOL0     H 3981   5.198  13.269   5.455  0.9023  0.6182  1.1606
   29MOL0     H 3982   5.632  12.220   5.798 -1.3109 -0.0108  0.1537
   29MOL0     H 3983   5.712  12.041   5.929  0.7370 -1.6943 -3.0030
   29MOL0     H 3984   6.016  11.918   6.269  1.7018  1.6232 -2.0957
   29MOL0     H 3985   6.098  11.741   6.412  0.4568  1.0113 -0.7422
   29MOL0     H 3986   6.452   9.788   7.033  1.6097 -0.4275 -1.3862
   29MOL0     H 3987   6.696   9.814   7.045  1.7305 -1.3044  2.9371
   29MOL0     H 3988   7.060   9.948   7.383  0.4672 -1.0696 -0.5602
   29MOL0     H 3989   7.308   9.930   7.358  2.0916  2.2863 -1.5940
   29MOL0     H 3990   7.497  10.101   7.142  2.5276  0.4048  2.2665
   29MOL0     H 3991   7.620   9.971   7.162  0.1642 -0.6147 -0.8466
   29MOL0     H 3992   7.660  10.073   6.953  0.5729 -0.6029  0.2751
   29MOL0     H 3993   7.480  10.032   6.905 -2.1244  1.4195  5.2295
   29MOL0     H 3994   7.557   9.789   6.928 -2.3389  1.9673  0.8278
   29MOL0     H 3995   7.643   9.886   6.797 -0.6555  2.6557 -0.1921
   29MOL0     H 3996   7.749   9.797   7.060 -3.0479  3.3247  0.0179
   29MOL0     H 3997   7.833   9.897   6.950 -3.4427  2.1217  0.6742
   29MOL0     H 3998   7.866   9.535   6.735  0.1556  0.7475 -2.3094
   29MOL0     H 3999   7.277   9.924   6.935 -0.8936 -1.5438 -1.3062
   29MOL0     H 4000   7.088   9.982   6.819  1.4075 -4.5873  0.2640
   29MOL0     H 4001   6.960   9.888   6.893  1.7614 -0.3848  0.9042
   29MOL0     H 4002   6.969  10.067   6.924  0.2211  0.7005  1.3851
   30MOL0     O 4003   0.146   3.812   2.658  0.2350 -0.4432 -0.2628
   30MOL0     C 4004   0.119   3.805   2.774  0.1986 -0.6631 -0.6868
   30MOL0     O 4005   0.007   3.756   2.828 -0.0719  0.1971  0.2773
   30MOL0     C 4006  -0.086   3.690   2.758  0.3382 -0.0731 -0.0720
   30MOL0     C 4007  -0.213   3.699   2.810 -0.0490 -0.4802  0.8625
   30MOL0     C 4008  -0.313   3.609   2.767 -0.2896  0.1143  0.1236
   30MOL0     C 4009  -0.309   3.552   2.641  0.0306 -0.3965 -0.6832
   30MOL0     O 4010  -0.424   3.509   2.586  0.1666 -0.1453  0.1299
   30MOL0     C 4011  -0.431   3.463   2.443  0.4532  0.0605  0.1558
   30MOL0     C 4012  -0.575   3.496   2.381 -0.0461 -0.2155 -0.5127
   30MOL0     C 4013  -0.597   3.642   2.321  0.0992  0.4033  0.4783
   30MOL0     C 4014  -0.512   3.686   2.209  0.8098  0.8826  0.0288
   30MOL0     C 4015  -0.550   3.818   2.145  0.1136  0.3283  0.0377
   30MOL0     C 4016  -0.644   3.915   2.219  0.3986  0.6626  0.0444
   30MOL0     C 4017  -0.795   3.905   2.202 -0.4046  0.1735 -0.3097
   30MOL0     C 4018  -0.844   3.845   2.071 -0.1633  0.3113  0.7115
   30MOL0     N 4019  -0.990   3.845   2.080  0.2181  0.6390  0.2033
   30MOL0     C 4020  -1.076   3.935   2.023 -0.1258  0.4256 -0.1160
   30MOL0     C 4021  -1.204   3.911   2.083  0.2787  0.2501  0.0761
   30MOL0     C 4022  -1.339   3.976   2.068 -0.7688 -0.2303  0.3257
   30MOL0     C 4023  -1.365   4.010   1.922 -0.3340  0.2254  0.7818
   30MOL0     C 4024  -1.523   4.022   1.900 -0.1888 -0.2775  0.3474
   30MOL0     C 4025  -1.597   3.890   1.881 -0.6679  0.1125 -0.1517
   30MOL0     O 4026  -1.537   3.822   1.768  0.2431  0.6607 -0.3516
   30MOL0     C 4027  -1.581   3.693   1.744  0.6869  0.3709 -0.4178
   30MOL0     C 4028  -1.498   3.597   1.683 -0.2093 -0.1497 -0.2782
   30MOL0     C 4029  -1.541   3.468   1.646 -0.6823 -0.1722 -0.4745
   30MOL0     C 4030  -1.431   3.392   1.580  0.2607 -0.1796  0.6129
   30MOL0     C 4031  -1.673   3.426   1.671 -0.5646 -0.4235 -0.3728
   30MOL0     C 4032  -1.715   3.288   1.653 -0.2651 -0.5346  0.6195
   30MOL0     O 4033  -1.683   3.222   1.542  1.0884 -0.8611 -0.4257
   30MOL0     C 4034  -1.735   3.096   1.527 -0.8701  0.1982 -1.0172
   30MOL0     C 4035  -1.707   2.990   1.619  1.4535  0.0638 -2.0064
   30MOL0     C 4036  -1.749   2.856   1.606  0.2799  0.3439 -0.2619
   30MOL0     C 4037  -1.838   2.824   1.501  0.7845  0.5054  1.0377
   30MOL0     O 4038  -1.906   2.705   1.492 -0.4388 -0.1506 -0.3974
   30MOL0     C 4039  -2.035   2.698   1.564 -0.0909  0.7579  0.0170
   30MOL0     C 4040  -2.077   2.549   1.580  0.5616 -0.2476  1.0995
   30MOL0     C 4041  -1.969   2.469   1.661 -0.2875  0.8860 -0.2305
   30MOL0     C 4042  -2.003   2.325   1.704 -0.8423 -0.6585  0.5084
   30MOL0     C 4043  -2.130   2.318   1.802 -0.2565 -0.0002  1.0936
   30MOL0     C 4044  -2.161   2.179   1.843  0.4081 -0.6569 -0.2918
   30MOL0     C 4045  -2.280   2.182   1.935  0.4569  0.1198  0.1548
   30MOL0     C 4046  -2.295   2.038   1.984 -0.0546  0.1155 -0.5271
   30MOL0    Cl 4047  -2.458   2.009   2.037  0.0423  0.2887  0.5856
   30MOL0     C 4048  -1.868   2.918   1.403 -0.4105 -0.3915 -0.5556
   30MOL0     C 4049  -1.815   3.059   1.419  0.0572  0.6278  0.9639
   30MOL0     O 4050  -1.782   3.255   1.748 -0.2052  1.0174  0.2017
   30MOL0     C 4051  -1.765   3.520   1.717 -0.4361 -0.5505 -0.3000
   30MOL0     C 4052  -1.718   3.649   1.757  0.5841  0.2654  0.3318
   30MOL0     N 4053  -1.183   3.812   2.177  0.5119 -0.0328 -0.2737
   30MOL0     N 4054  -1.059   3.781   2.178  1.4949 -0.5589 -0.3149
   30MOL0     C 4055  -0.186   3.553   2.582  0.6151 -0.3547 -0.2866
   30MOL0     C 4056  -0.072   3.612   2.646  0.1926  0.3631  0.4939
   30MOL0     C 4057   0.205   3.872   2.877 -0.4688 -0.3889  0.0101
   30MOL0     C 4058   0.261   3.784   2.975  0.5706 -0.1530  0.3447
   30MOL0     C 4059   0.340   3.834   3.075 -0.2892 -0.2714  0.4996
   30MOL0     C 4060   0.351   3.977   3.089 -0.8076  0.8827 -0.6204
   30MOL0     O 4061   0.416   4.038   3.195 -0.2675 -0.5093 -0.4846
   30MOL0     C 4062   0.479   3.965   3.296 -0.1557  0.1355 -0.5891
   30MOL0     C 4063   0.381   3.935   3.416 -0.2649 -0.0347 -0.3876
   30MOL0     C 4064   0.313   4.067   3.463  0.6622 -0.3032 -0.7474
   30MOL0     C 4065   0.220   4.054   3.589  0.4196  0.9483  0.8247
   30MOL0     C 4066   0.269   3.999   3.717  0.0967  0.5599 -0.0317
   30MOL0     C 4067   0.306   3.977   3.835 -0.4107 -0.6525  0.2646
   30MOL0     C 4068   0.300   4.059   2.989 -0.5083 -1.5866 -1.2394
   30MOL0     C 4069   0.234   4.010   2.878  0.2316 -0.1451 -1.0893
   30MOL0     C 4070   0.156   4.115   2.799 -0.1698 -0.9984  0.0914
   30MOL0     H 4071  -0.224   3.775   2.886  0.8174  1.9490 -1.2703
   30MOL0     H 4072  -0.407   3.603   2.822  0.5348 -0.0212  1.5570
   30MOL0     H 4073  -0.424   3.355   2.457 -5.2050 -0.3933  2.3418
   30MOL0     H 4074  -0.355   3.513   2.382 -2.4694  4.5458 -0.3919
   30MOL0     H 4075  -0.579   3.431   2.292  1.9707  2.4430 -2.7083
   30MOL0     H 4076  -0.652   3.472   2.456  1.4237  1.7595  1.7523
   30MOL0     H 4077  -0.697   3.642   2.277 -0.6497 -0.4179  2.0793
   30MOL0     H 4078  -0.593   3.712   2.404 -2.1557  0.5016  0.5880
   30MOL0     H 4079  -0.415   3.702   2.258 -0.5685  2.1517  2.5409
   30MOL0     H 4080  -0.515   3.608   2.132 -0.4150 -1.3188  2.1780
   30MOL0     H 4081  -0.598   3.805   2.048 -2.0044  0.5082  1.0169
   30MOL0     H 4082  -0.461   3.876   2.117 -0.3040  0.1792 -1.7027
   30MOL0     H 4083  -0.626   3.909   2.327 -1.1218 -1.4152  0.2365
   30MOL0     H 4084  -0.608   4.008   2.174  3.1107 -1.4118 -2.5081
   30MOL0     H 4085  -0.839   4.005   2.206 -2.1167 -0.5290 -0.9230
   30MOL0     H 4086  -0.837   3.847   2.284  0.3130 -0.7229 -0.5462
   30MOL0     H 4087  -0.808   3.895   1.981  1.9372 -2.0433  0.1170
   30MOL0     H 4088  -0.809   3.741   2.072  2.3909  1.1145  1.0545
   30MOL0     H 4089  -1.044   3.990   1.934 -1.3246 -0.3387 -1.0649
   30MOL0     H 4090  -1.322   4.064   2.130 -1.7656  0.1041  0.1426
   30MOL0     H 4091  -1.426   3.922   2.105 -1.0736  1.0069  1.4876
   30MOL0     H 4092  -1.319   4.102   1.887  2.3045 -1.1841  0.2892
   30MOL0     H 4093  -1.334   3.931   1.852  0.6099  3.1953 -2.4347
   30MOL0     H 4094  -1.572   4.089   1.971  0.7775 -0.3955  1.1488
   30MOL0     H 4095  -1.542   4.058   1.799 -0.0348 -3.3395 -0.8800
   30MOL0     H 4096  -1.585   3.826   1.969  2.6343  0.0364 -0.5094
   30MOL0     H 4097  -1.699   3.920   1.855 -2.1630 -2.4866  2.1700
   30MOL0     H 4098  -1.397   3.629   1.660 -0.7777  1.1367 -1.0754
   30MOL0     H 4099  -1.371   3.333   1.650 -1.7765 -1.1060  1.6669
   30MOL0     H 4100  -1.357   3.458   1.533  2.3861 -1.5378  1.8630
   30MOL0     H 4101  -1.463   3.329   1.497  1.2439 -1.6079  1.2833
   30MOL0     H 4102  -1.644   3.015   1.704 -0.0803 -0.0892 -0.7830
   30MOL0     H 4103  -1.739   2.781   1.685 -1.0899 -1.2657 -1.5351
   30MOL0     H 4104  -2.010   2.731   1.665 -1.0941 -1.6819  1.1370
   30MOL0     H 4105  -2.113   2.743   1.502 -2.0696 -1.5244  0.6817
   30MOL0     H 4106  -2.167   2.554   1.642  1.0020 -0.4963  1.7665
   30MOL0     H 4107  -2.096   2.492   1.489  2.1389  0.7160  0.1160
   30MOL0     H 4108  -1.951   2.506   1.763 -0.8686 -0.0519  0.2359
   30MOL0     H 4109  -1.878   2.466   1.602 -0.1141 -1.5686  0.0480
   30MOL0     H 4110  -1.913   2.285   1.751 -2.5321 -3.3025  1.7237
   30MOL0     H 4111  -2.014   2.275   1.607 -1.2536  1.4119 -0.5814
   30MOL0     H 4112  -2.093   2.370   1.891  0.5792  1.4781 -0.0710
   30MOL0     H 4113  -2.216   2.377   1.768  2.5337  1.1362 -5.4893
   30MOL0     H 4114  -2.078   2.147   1.907  2.7498  2.0290 -1.7575
   30MOL0     H 4115  -2.173   2.128   1.747 -0.3691  0.9961 -1.1038
   30MOL0     H 4116  -2.365   2.222   1.879  0.4777  2.1070  1.4444
   30MOL0     H 4117  -2.264   2.227   2.033 -0.2249 -3.8930  2.3401
   30MOL0     H 4118  -2.220   2.023   2.062 -2.2936  0.9503  1.9764
   30MOL0     H 4119  -2.265   1.976   1.899  2.2083  2.7650 -1.7983
   30MOL0     H 4120  -1.917   2.890   1.311 -0.5520 -0.8224 -0.3501
   30MOL0     H 4121  -1.850   3.131   1.345  1.8579  0.2981 -0.2580
   30MOL0     H 4122  -1.867   3.493   1.744 -0.1443 -1.1368  0.2617
   30MOL0     H 4123  -1.795   3.705   1.809  1.3588  2.6812 -0.9242
   30MOL0     H 4124  -0.180   3.493   2.491 -4.8698 -2.2964  0.2527
   30MOL0     H 4125   0.016   3.600   2.584  0.3583 -1.3652  1.0105
   30MOL0     H 4126   0.225   3.683   2.992 -4.1385  1.5623  2.0086
   30MOL0     H 4127   0.374   3.768   3.154  1.1986 -0.3157 -0.1494
   30MOL0     H 4128   0.518   3.870   3.258  1.2905  0.0949  0.8764
   30MOL0     H 4129   0.572   4.014   3.326  1.9732 -3.3572 -0.9137
   30MOL0     H 4130   0.441   3.886   3.493  2.5036 -5.2401 -5.0474
   30MOL0     H 4131   0.309   3.853   3.402 -1.7983  0.5629  2.9923
   30MOL0     H 4132   0.376   4.153   3.485 -1.2562  0.4126  2.5410
   30MOL0     H 4133   0.241   4.089   3.384  0.0941 -1.9435 -0.7205
   30MOL0     H 4134   0.133   3.993   3.562 -0.6243  3.1288 -1.0587
   30MOL0     H 4135   0.172   4.150   3.608 -1.4860  0.6037 -1.6710
   30MOL0     H 4136   0.338   3.949   3.934 -0.4667  0.3529  0.5752
   30MOL0     H 4137   0.320   4.165   3.000  3.2899 -2.3693  1.1422
   30MOL0     H 4138   0.199   4.211   2.827  2.6127 -1.6247 -1.6208
   30MOL0     H 4139   0.178   4.095   2.694 -4.0478  0.3904 -1.1447
   30MOL0     H 4140   0.049   4.117   2.825 -0.1072 -2.3108  0.5543
   31MOL0     O 4141   0.825  10.332   9.034  0.2446  0.1052 -0.1201
   31MOL0     C 4142   0.763  10.252   9.098  0.2116 -0.6419  0.1937
   31MOL0     O 4143   0.658  10.171   9.043 -0.9382  0.1526  0.7396
   31MOL0     C 4144   0.642  10.173   8.907  0.1778  0.0300  0.3063
   31MOL0     C 4145   0.744  10.157   8.813  0.3845  0.0547 -0.3527
   31MOL0     C 4146   0.723  10.178   8.671  0.5046  1.2437 -0.6641
   31MOL0     C 4147   0.601  10.224   8.630  0.3237  0.0500 -0.3128
   31MOL0     O 4148   0.569  10.248   8.496 -1.1632 -0.2174  0.0416
   31MOL0     C 4149   0.644  10.191   8.390 -0.3123 -1.2883  0.7542
   31MOL0     C 4150   0.557  10.201   8.265  0.8112  0.0549  0.3564
   31MOL0     C 4151   0.516  10.350   8.224 -0.5360 -1.0823 -0.2857
   31MOL0     C 4152   0.467  10.350   8.075 -0.8842 -0.3443  0.0440
   31MOL0     C 4153   0.456  10.492   8.021  0.2479 -0.8083 -0.1715
   31MOL0     C 4154   0.415  10.491   7.886  0.5916  0.5963  0.0817
   31MOL0     C 4155   0.396  10.634   7.825 -0.1229 -0.4534  0.1073
   31MOL0     C 4156   0.534  10.707   7.793  0.5085  0.0026 -0.0722
   31MOL0     N 4157   0.614  10.646   7.694  0.6307  0.2359 -0.5864
   31MOL0     C 4158   0.572  10.630   7.565 -0.5265 -0.0691 -0.4959
   31MOL0     C 4159   0.682  10.565   7.509 -0.8398 -0.1852 -0.5791
   31MOL0     C 4160   0.703  10.515   7.371  0.0205 -0.2020  0.8467
   31MOL0     C 4161   0.860  10.505   7.336  0.3284  0.9734 -0.1600
   31MOL0     C 4162   0.885  10.472   7.188 -0.8315  0.1376  0.0768
   31MOL0     C 4163   0.823  10.331   7.154  0.6245 -0.9167  0.3257
   31MOL0     O 4164   0.842  10.236   7.251 -0.4536 -0.1811 -0.2798
   31MOL0     C 4165   0.852  10.103   7.220  0.6760  0.1651  0.0096
   31MOL0     C 4166   0.762  10.012   7.272 -0.3581 -0.3039 -0.3052
   31MOL0     C 4167   0.762   9.871   7.233  0.2119  0.0437 -0.4037
   31MOL0     C 4168   0.658   9.784   7.286  0.3973 -0.8787 -0.3181
   31MOL0     C 4169   0.857   9.827   7.136  0.6807  0.4793 -0.5572
   31MOL0     C 4170   0.885   9.684   7.105  0.5548 -0.6865 -0.7438
   31MOL0     O 4171   1.005   9.666   7.042 -0.5548  0.5179  0.1792
   31MOL0     C 4172   1.040   9.532   7.021 -0.5378 -0.4005  1.3701
   31MOL0     C 4173   1.066   9.476   6.898  0.8874  1.0928 -1.2591
   31MOL0     C 4174   1.124   9.347   6.878  0.0366 -0.5355 -0.7540
   31MOL0     C 4175   1.159   9.273   6.997 -0.1414  1.5165  0.2474
   31MOL0     O 4176   1.229   9.154   6.979  0.2491  0.1121  0.5900
   31MOL0     C 4177   1.319   9.101   7.075  0.1277 -0.3085 -0.1733
   31MOL0     C 4178   1.368   8.969   7.030 -0.0509 -0.8659 -0.7171
   31MOL0     C 4179   1.383   8.869   7.145  0.6336  0.4837  0.5380
   31MOL0     C 4180   1.418   8.730   7.077  0.7070 -0.1635 -0.4925
   31MOL0     C 4181   1.556   8.728   7.019  0.3537 -1.0117  1.3782
   31MOL0     C 4182   1.565   8.603   6.945 -0.6192  0.9723 -0.0253
   31MOL0     C 4183   1.698   8.578   6.860 -0.8626  0.9988 -0.0967
   31MOL0     C 4184   1.702   8.667   6.742  0.0442 -0.2441  0.0078
   31MOL0    Cl 4185   1.555   8.701   6.648 -0.2403 -0.0014  0.0422
   31MOL0     C 4186   1.129   9.322   7.122 -1.8136 -0.5998 -0.9333
   31MOL0     C 4187   1.065   9.450   7.127  0.3430  0.3827 -0.7101
   31MOL0     O 4188   0.800   9.589   7.124 -0.0839 -0.6325  0.1559
   31MOL0     C 4189   0.945   9.924   7.083  0.4053  0.2130 -0.7090
   31MOL0     C 4190   0.942  10.054   7.124 -0.2161 -0.4386  1.0623
   31MOL0     N 4191   0.770  10.529   7.614  0.1627 -0.1115  0.5261
   31MOL0     N 4192   0.730  10.581   7.720 -0.5405  0.3692  0.2049
   31MOL0     C 4193   0.496  10.244   8.726  0.4944  0.8417 -0.2730
   31MOL0     C 4194   0.518  10.229   8.866  0.5730 -0.9313 -0.5370
   31MOL0     C 4195   0.780  10.247   9.241  0.3331  0.4409 -0.6272
   31MOL0     C 4196   0.904  10.281   9.290  0.3983 -0.5427 -0.7228
   31MOL0     C 4197   0.936  10.280   9.425 -0.5854 -0.5010 -0.0595
   31MOL0     C 4198   0.844  10.245   9.519  0.2614 -0.2583 -0.1007
   31MOL0     O 4199   0.890  10.243   9.647  0.4678 -0.0254  0.6273
   31MOL0     C 4200   0.804  10.280   9.754 -0.1157  0.1699 -1.4050
   31MOL0     C 4201   0.775  10.428   9.756 -0.1576  0.2999  0.9334
   31MOL0     C 4202   0.912  10.501   9.759 -0.2685  0.3688  0.2970
   31MOL0     C 4203   0.897  10.651   9.801  1.0179  0.0529 -0.1839
   31MOL0     C 4204   0.859  10.681   9.942  0.1947 -0.4996 -0.2416
   31MOL0     C 4205   0.821  10.696  10.055 -0.4012 -1.1741  0.8145
   31MOL0     C 4206   0.711  10.216   9.476 -0.2799 -0.0657  0.4261
   31MOL0     C 4207   0.679  10.213   9.335  0.4397 -0.5387  0.2126
   31MOL0     C 4208   0.535  10.182   9.303 -0.1811 -0.3687  0.5833
   31MOL0     H 4209   0.841  10.124   8.847  0.0858 -0.7026 -0.1988
   31MOL0     H 4210   0.808  10.166   8.606  0.2371 -0.8914 -0.6970
   31MOL0     H 4211   0.666  10.087   8.418 -0.4274 -1.3850  0.4892
   31MOL0     H 4212   0.728  10.260   8.380 -2.7536  1.5186 -2.6098
   31MOL0     H 4213   0.607  10.148   8.184 -0.4542 -0.6939  0.0344
   31MOL0     H 4214   0.466  10.141   8.277  0.1339  0.6544 -1.3501
   31MOL0     H 4215   0.436  10.369   8.296  0.6307 -1.3360  1.1272
   31MOL0     H 4216   0.596  10.424   8.236  0.2687 -1.1864 -3.9399
   31MOL0     H 4217   0.538  10.291   8.017 -1.4936 -0.2058 -0.8528
   31MOL0     H 4218   0.375  10.290   8.065 -1.1705  0.2302 -0.8977
   31MOL0     H 4219   0.559  10.527   8.035  0.6221 -1.3051 -1.4939
   31MOL0     H 4220   0.384  10.545   8.083 -0.8313 -1.3139 -0.9652
   31MOL0     H 4221   0.473  10.427   7.819 -2.4404 -1.6075 -0.6350
   31MOL0     H 4222   0.313  10.454   7.879  1.0708 -0.6675 -0.4769
   31MOL0     H 4223   0.342  10.697   7.897 -2.4060 -1.2526 -0.8056
   31MOL0     H 4224   0.328  10.637   7.739 -2.4548  2.9977  1.8022
   31MOL0     H 4225   0.505  10.808   7.763  2.2552  1.0633  1.6117
   31MOL0     H 4226   0.589  10.711   7.887 -1.8483 -0.8703  1.4526
   31MOL0     H 4227   0.480  10.677   7.531 -0.5938  1.1446  1.2178
   31MOL0     H 4228   0.648  10.572   7.296 -0.8526 -2.3124 -0.1992
   31MOL0     H 4229   0.648  10.420   7.370 -2.6524  1.2704  0.4463
   31MOL0     H 4230   0.896  10.608   7.347  1.7055  0.3833  1.3862
   31MOL0     H 4231   0.904  10.444   7.415 -4.6869 -0.5591  1.8485
   31MOL0     H 4232   0.853  10.549   7.117 -3.9785 -0.4734  0.7094
   31MOL0     H 4233   0.992  10.459   7.165 -1.3768 -0.3267 -2.5644
   31MOL0     H 4234   0.718  10.339   7.124  1.0397 -3.4398 -2.2724
   31MOL0     H 4235   0.875  10.309   7.060  0.1312  1.7823 -0.6646
   31MOL0     H 4236   0.679  10.046   7.334 -0.2605 -1.0217  0.2266
   31MOL0     H 4237   0.708   9.712   7.352 -3.1300 -2.1072  1.2225
   31MOL0     H 4238   0.616   9.733   7.199  1.8944 -0.7427 -1.1665
   31MOL0     H 4239   0.582   9.841   7.339  0.8391  2.3037 -2.7496
   31MOL0     H 4240   1.040   9.543   6.815 -4.1092 -0.5319 -1.3661
   31MOL0     H 4241   1.145   9.312   6.778  3.4213  2.1589 -1.1786
   31MOL0     H 4242   1.406   9.162   7.099  0.2880  0.5095 -2.6422
   31MOL0     H 4243   1.269   9.091   7.172 -2.5876 -0.3345 -1.4891
   31MOL0     H 4244   1.295   8.929   6.960 -0.3027 -1.4035 -0.1572
   31MOL0     H 4245   1.466   8.991   6.987  1.4383  2.3910  3.5273
   31MOL0     H 4246   1.287   8.847   7.192  1.7427 -2.0458  1.8288
   31MOL0     H 4247   1.456   8.899   7.221  1.0823 -0.0835  0.3436
   31MOL0     H 4248   1.350   8.697   6.999 -1.3339 -1.4858  1.7221
   31MOL0     H 4249   1.416   8.659   7.160  0.9748  0.5058  0.1046
   31MOL0     H 4250   1.579   8.816   6.958  0.9921 -0.9373  1.7187
   31MOL0     H 4251   1.628   8.740   7.100  0.3731  0.8475  1.1392
   31MOL0     H 4252   1.483   8.584   6.876  0.5778  4.0031 -2.5440
   31MOL0     H 4253   1.577   8.525   7.021 -0.9222 -1.4941 -2.3832
   31MOL0     H 4254   1.706   8.475   6.826  0.7547  1.1187 -0.1597
   31MOL0     H 4255   1.784   8.591   6.926  0.6014 -1.6973 -1.3227
   31MOL0     H 4256   1.783   8.637   6.674 -1.0541  0.6331 -1.7744
   31MOL0     H 4257   1.733   8.767   6.775  1.1217  0.3976 -2.6444
   31MOL0     H 4258   1.153   9.272   7.215 -1.3464  3.1757  1.1622
   31MOL0     H 4259   1.038   9.500   7.220 -1.4730  1.1100 -1.5794
   31MOL0     H 4260   1.015   9.895   7.005  2.7828 -0.0874  1.3965
   31MOL0     H 4261   1.020  10.121   7.090 -0.3628  0.2280  1.9920
   31MOL0     H 4262   0.401  10.272   8.681  0.4702  0.5849 -0.3791
   31MOL0     H 4263   0.451  10.254   8.947  1.7684 -0.6147  0.3816
   31MOL0     H 4264   0.978  10.316   9.218  0.8076  3.9445  1.5599
   31MOL0     H 4265   1.032  10.312   9.462 -0.5369  0.5566 -1.0270
   31MOL0     H 4266   0.713  10.221   9.737 -1.3014  1.7508 -0.8310
   31MOL0     H 4267   0.845  10.248   9.850 -0.8181 -0.6620 -1.3666
   31MOL0     H 4268   0.717  10.458   9.844  0.8303 -0.7807  1.9939
   31MOL0     H 4269   0.720  10.454   9.666 -0.9745  0.1444  1.3745
   31MOL0     H 4270   0.979  10.458   9.835  1.5086  0.0427 -1.3553
   31MOL0     H 4271   0.974  10.491   9.669  1.1462  0.8558  1.1799
   31MOL0     H 4272   0.817  10.701   9.745  0.9232 -0.3825 -0.4447
   31MOL0     H 4273   0.993  10.697   9.778  1.0845 -1.0457 -2.4722
   31MOL0     H 4274   0.775  10.678  10.150  1.6929  1.0714  2.3584
   31MOL0     H 4275   0.632  10.180   9.540  0.3259 -1.4844  0.4305
   31MOL0     H 4276   0.471  10.267   9.278  0.8946 -0.1987 -1.9173
   31MOL0     H 4277   0.533  10.108   9.223  2.0601  0.3798 -0.2724
   31MOL0     H 4278   0.493  10.126   9.387 -0.5046  0.3230  0.8882
   32MOL0     O 4279  10.975   4.219   9.999  0.2281  0.4401 -0.4220
   32MOL0     C 4280  11.000   4.178  10.114 -0.0744  0.1236  0.5997
   32MOL0     O 4281  11.026   4.261  10.211 -0.1263  0.1849 -1.3397
   32MOL0     C 4282  11.017   4.397  10.208 -0.4118 -0.8783 -0.5935
   32MOL0     C 4283  10.984   4.461  10.318  0.0469  0.0682  0.6381
   32MOL0     C 4284  10.981   4.605  10.316 -0.3486 -0.6965 -0.2651
   32MOL0     C 4285  11.008   4.678  10.205 -0.8640  0.6891  0.0872
   32MOL0     O 4286  10.996   4.811  10.224  0.2376 -0.1391 -0.1496
   32MOL0     C 4287  11.051   4.906  10.127 -0.1195  0.4043 -0.3061
   32MOL0     C 4288  11.041   5.059  10.176  0.2765  0.0493  0.1796
   32MOL0     C 4289  10.944   5.080  10.290 -0.3781  0.5079 -0.0427
   32MOL0     C 4290  10.951   5.225  10.339  0.2327  0.7487  0.4432
   32MOL0     C 4291  10.914   5.236  10.489  0.6827  0.0674  0.5861
   32MOL0     C 4292  10.761   5.208  10.518 -0.5206 -0.4454  0.4801
   32MOL0     C 4293  10.663   5.320  10.473 -0.5078 -0.6890  0.0877
   32MOL0     C 4294  10.690   5.460  10.523  0.3527  0.7756  0.4630
   32MOL0     N 4295  10.699   5.457  10.668  0.1234 -0.0443 -0.3604
   32MOL0     C 4296  10.820   5.465  10.744  0.2766  0.3444  0.0641
   32MOL0     C 4297  10.778   5.434  10.873  1.0347  0.9685  0.3499
   32MOL0     C 4298  10.872   5.405  10.985 -0.0144  0.4423 -0.7675
   32MOL0     C 4299  10.918   5.261  10.989 -0.8252  0.2712  0.7869
   32MOL0     C 4300  10.996   5.237  11.111  1.3561 -0.4248 -0.1458
   32MOL0     C 4301  11.046   5.094  11.124 -0.3394 -0.0354 -0.4325
   32MOL0     O 4302  11.148   5.087  11.230  0.0015 -0.1325  0.1248
   32MOL0     C 4303  11.184   4.959  11.281 -0.3898 -0.0961  0.7796
   32MOL0     C 4304  11.143   4.829  11.227  0.8212 -0.6008 -0.5631
   32MOL0     C 4305  11.209   4.725  11.276 -0.0481  0.2339  0.2915
   32MOL0     C 4306  11.167   4.591  11.214 -0.3351  0.0831  0.1077
   32MOL0     C 4307  11.313   4.723  11.377 -0.6856 -0.2878  0.1449
   32MOL0     C 4308  11.383   4.597  11.418  0.0578  0.4303  0.0611
   32MOL0     O 4309  11.303   4.511  11.486  0.4424 -0.5489 -0.2837
   32MOL0     C 4310  11.326   4.382  11.538 -0.2293 -0.1937 -0.6939
   32MOL0     C 4311  11.435   4.309  11.489 -0.1708  0.8413  0.3998
   32MOL0     C 4312  11.480   4.183  11.552  0.1717 -0.5143  0.6573
   32MOL0     C 4313  11.404   4.129  11.655 -0.8668  0.3137 -1.2338
   32MOL0     O 4314  11.419   4.002  11.714  0.3677 -0.7771 -0.0974
   32MOL0     C 4315  11.533   3.925  11.679 -0.3811  0.2190 -0.4160
   32MOL0     C 4316  11.533   3.795  11.766  0.5126  0.3795 -0.3627
   32MOL0     C 4317  11.655   3.707  11.732 -0.4909  0.3251  0.5448
   32MOL0     C 4318  11.677   3.588  11.820 -0.2210 -0.1936 -0.1103
   32MOL0     C 4319  11.804   3.511  11.798 -0.3464 -0.3585 -0.5007
   32MOL0     C 4320  11.808   3.453  11.655  0.4115  0.5640  0.6784
   32MOL0     C 4321  11.935   3.370  11.634 -0.9622  0.2797  0.6639
   32MOL0     C 4322  11.924   3.235  11.716 -0.4247  0.3299 -0.0140
   32MOL0    Cl 4323  12.035   3.104  11.658 -0.1863 -0.2353  0.4093
   32MOL0     C 4324  11.296   4.207  11.708  0.3939  0.0153 -0.7150
   32MOL0     C 4325  11.255   4.326  11.647  0.1673 -0.4335  0.3416
   32MOL0     O 4326  11.506   4.587  11.404  0.7107  0.2292  0.5349
   32MOL0     C 4327  11.327   4.847  11.442 -0.3646  0.2314  0.3861
   32MOL0     C 4328  11.277   4.960  11.389  0.5526  0.3789 -0.3486
   32MOL0     N 4329  10.638   5.426  10.872 -0.5430 -0.7876  0.7860
   32MOL0     N 4330  10.596   5.430  10.753  0.3633  0.8633  0.2316
   32MOL0     C 4331  11.052   4.606  10.090  0.0224  0.3173 -0.8078
   32MOL0     C 4332  11.055   4.466  10.099 -0.5396 -0.2237  0.2843
   32MOL0     C 4333  10.985   4.033  10.134 -0.2150 -0.7010  0.4485
   32MOL0     C 4334  10.891   3.974  10.044  0.3247 -0.5068  0.1802
   32MOL0     C 4335  10.864   3.833  10.042 -0.0557 -0.1531 -0.8509
   32MOL0     C 4336  10.928   3.751  10.129 -0.0544  0.3449 -0.3783
   32MOL0     O 4337  10.914   3.616  10.129 -0.5423  0.2867 -0.2189
   32MOL0     C 4338  11.036   3.548  10.114  0.1530  0.4205  0.1707
   32MOL0     C 4339  11.005   3.395  10.067 -1.2608  0.1486  0.0753
   32MOL0     C 4340  11.139   3.321  10.108 -0.4437  0.3533 -0.2995
   32MOL0     C 4341  11.139   3.169  10.055  1.9808  0.3927 -0.0023
   32MOL0     C 4342  11.274   3.122  10.081 -0.0439  0.4130  0.3847
   32MOL0     C 4343  11.385   3.072  10.108 -0.3944  1.0233 -0.3644
   32MOL0     C 4344  11.018   3.813  10.220 -0.6450 -1.3760  0.5957
   32MOL0     C 4345  11.046   3.951  10.232  0.9619 -0.1429 -0.1014
   32MOL0     C 4346  11.149   4.010  10.323  0.7626 -0.0967  0.0165
   32MOL0     H 4347  10.959   4.420  10.415 -2.1219  0.1818  0.1849
   32MOL0     H 4348  10.959   4.652  10.411  0.0549 -2.8168  0.9505
   32MOL0     H 4349  10.985   4.893  10.040 -1.6105 -0.5032  0.9031
   32MOL0     H 4350  11.155   4.881  10.105  0.8518  3.8925 -0.3876
   32MOL0     H 4351  11.142   5.087  10.206 -0.0472  2.7055 -0.9658
   32MOL0     H 4352  11.008   5.128  10.098  2.4017 -1.2146 -1.9972
   32MOL0     H 4353  10.843   5.066  10.252  0.4333  1.3426 -2.7399
   32MOL0     H 4354  10.967   5.009  10.369  2.5259  4.1481  2.7985
   32MOL0     H 4355  11.059   5.246  10.338 -0.0022  2.1119  1.3736
   32MOL0     H 4356  10.895   5.291  10.272 -0.5333 -0.7870 -0.4874
   32MOL0     H 4357  10.937   5.331  10.538 -0.1941 -0.3209  1.7937
   32MOL0     H 4358  10.965   5.157  10.544 -0.1495 -0.8998  0.0022
   32MOL0     H 4359  10.728   5.114  10.474  0.6255  0.5846 -2.8989
   32MOL0     H 4360  10.759   5.195  10.626  2.8364 -3.3338  0.3610
   32MOL0     H 4361  10.567   5.279  10.507 -0.9602  1.3299  1.5159
   32MOL0     H 4362  10.667   5.322  10.364  2.0248  0.5109  0.1445
   32MOL0     H 4363  10.787   5.488  10.481 -0.6635  2.4491 -0.9213
   32MOL0     H 4364  10.616   5.533  10.489  1.5397  1.7190 -0.2094
   32MOL0     H 4365  10.919   5.485  10.705 -0.4565 -0.1065 -2.1709
   32MOL0     H 4366  10.823   5.432  11.079  1.1492  0.4429 -0.1457
   32MOL0     H 4367  10.955   5.476  10.977 -1.1748  2.1206  1.2277
   32MOL0     H 4368  10.831   5.195  10.995 -0.1276 -1.1148 -2.2821
   32MOL0     H 4369  10.966   5.223  10.898 -1.4522  0.3728  0.4075
   32MOL0     H 4370  11.078   5.308  11.103  0.7193  0.3962  0.4018
   32MOL0     H 4371  10.942   5.265  11.203  1.8482  2.3770 -0.6216
   32MOL0     H 4372  10.970   5.016  11.135  0.7631 -1.1577 -0.5789
   32MOL0     H 4373  11.094   5.077  11.027 -1.2533 -1.0454 -0.7440
   32MOL0     H 4374  11.060   4.817  11.157  0.8585  0.6520 -0.8498
   32MOL0     H 4375  11.249   4.531  11.175  0.5474  1.4972 -0.2903
   32MOL0     H 4376  11.087   4.599  11.140  1.0703  3.8215 -1.2513
   32MOL0     H 4377  11.128   4.533  11.299 -1.2282 -2.0529 -1.6642
   32MOL0     H 4378  11.492   4.344  11.404 -0.6702 -0.2642 -0.4104
   32MOL0     H 4379  11.567   4.136  11.509  1.9113  2.0850  1.0634
   32MOL0     H 4380  11.534   3.896  11.573 -0.3735 -1.2314 -0.0379
   32MOL0     H 4381  11.623   3.985  11.698 -1.4221  1.4616  0.7638
   32MOL0     H 4382  11.531   3.824  11.871 -3.2189 -0.1874 -0.1524
   32MOL0     H 4383  11.438   3.748  11.742  0.6681  0.8117 -1.9480
   32MOL0     H 4384  11.741   3.774  11.731  0.0321 -0.2914 -1.7186
   32MOL0     H 4385  11.627   3.671  11.633  2.2515 -2.8362  0.7499
   32MOL0     H 4386  11.593   3.518  11.813  1.1835 -2.0773  0.9987
   32MOL0     H 4387  11.684   3.617  11.925  1.1302 -0.8105 -0.0160
   32MOL0     H 4388  11.890   3.577  11.810 -1.1584  0.3118  2.4019
   32MOL0     H 4389  11.801   3.432  11.874 -2.8036 -0.9868 -1.1513
   32MOL0     H 4390  11.808   3.529  11.577 -1.8496 -1.0441 -1.0570
   32MOL0     H 4391  11.718   3.392  11.640  0.0715  1.6023 -1.9885
   32MOL0     H 4392  12.015   3.429  11.681  0.0115 -2.1135  2.2576
   32MOL0     H 4393  11.961   3.341  11.532 -1.1680 -0.2381  0.7555
   32MOL0     H 4394  11.819   3.208  11.710  0.0186 -1.3518 -1.0042
   32MOL0     H 4395  11.935   3.241  11.825 -3.2491 -3.3599  0.6565
   32MOL0     H 4396  11.228   4.163  11.781  3.2645  1.5093  3.2093
   32MOL0     H 4397  11.181   4.389  11.695 -0.1304 -2.7258  3.1790
   32MOL0     H 4398  11.395   4.858  11.526  0.5996 -0.4856 -0.2908
   32MOL0     H 4399  11.310   5.050  11.441 -3.4128  0.4263  2.5322
   32MOL0     H 4400  11.090   4.660  10.004 -1.1369  0.6879 -1.1029
   32MOL0     H 4401  11.103   4.419  10.013 -0.2296 -1.3452  1.0499
   32MOL0     H 4402  10.829   4.021   9.968 -1.0092  0.1684  1.6115
   32MOL0     H 4403  10.786   3.793   9.977 -3.4024  1.3130  1.9124
   32MOL0     H 4404  11.094   3.597  10.035 -0.2402  2.7069  1.2022
   32MOL0     H 4405  11.097   3.550  10.205  2.2194  1.8696 -1.1432
   32MOL0     H 4406  10.984   3.387   9.960  1.2189 -0.0946 -0.4419
   32MOL0     H 4407  10.922   3.347  10.120  0.7308 -1.2230  2.1156
   32MOL0     H 4408  11.231   3.374  10.081  0.0641  1.5031  3.1921
   32MOL0     H 4409  11.142   3.303  10.216 -0.3393 -3.1234 -0.7714
   32MOL0     H 4410  11.117   3.164   9.948 -3.0153  1.8372  0.7132
   32MOL0     H 4411  11.071   3.105  10.111  1.3808  2.0077  1.2080
   32MOL0     H 4412  11.480   3.036  10.141  1.2317  2.3049 -3.2581
   32MOL0     H 4413  11.083   3.756  10.286 -1.6906 -1.8449  1.2383
   32MOL0     H 4414  11.088   4.062  10.398  1.4740  1.1757 -0.2624
   32MOL0     H 4415  11.207   3.930  10.370 -2.4562 -0.8278  3.2222
   32MOL0     H 4416  11.209   4.077  10.261  1.0572 -1.0649 -0.7675
   33MOL0     O 4417   1.921   6.421   3.355  0.2277  0.1641  0.6645
   33MOL0     C 4418   1.868   6.373   3.254 -0.7653  0.5638  0.2890
   33MOL0     O 4419   1.891   6.240   3.216  1.3528 -0.6915  0.1486
   33MOL0     C 4420   1.960   6.144   3.279 -0.1729 -0.7395 -0.5580
   33MOL0     C 4421   2.081   6.176   3.345 -0.2255  0.0268  1.0713
   33MOL0     C 4422   2.149   6.081   3.412 -0.6566  0.7343  0.3227
   33MOL0     C 4423   2.105   5.949   3.421 -0.2663  0.7872  0.6362
   33MOL0     O 4424   2.154   5.854   3.503 -0.2093  0.4973 -0.4486
   33MOL0     C 4425   2.178   5.892   3.635 -0.7586 -0.1374  0.1228
   33MOL0     C 4426   2.060   5.831   3.713 -0.7030 -0.7956  0.2326
   33MOL0     C 4427   2.033   5.902   3.851  0.2120 -0.0729 -0.2735
   33MOL0     C 4428   1.933   5.841   3.955 -0.5681 -0.0036  0.5174
   33MOL0     C 4429   1.932   5.909   4.088 -0.7368  0.0178  0.0520
   33MOL0     C 4430   1.840   6.035   4.095 -0.5013  0.6019 -0.5412
   33MOL0     C 4431   1.856   6.115   4.228  0.2979 -0.4145  0.8378
   33MOL0     C 4432   1.791   6.252   4.202  0.0011 -0.5966 -0.0683
   33MOL0     N 4433   1.654   6.248   4.155 -0.3274  0.7081  0.4149
   33MOL0     C 4434   1.615   6.273   4.021 -0.9936  0.9676 -0.7996
   33MOL0     C 4435   1.482   6.288   4.025  0.5148 -1.1906 -0.0685
   33MOL0     C 4436   1.384   6.320   3.922 -0.9611 -0.4814  0.8345
   33MOL0     C 4437   1.236   6.294   3.965 -0.3920  0.4624 -0.1055
   33MOL0     C 4438   1.124   6.300   3.862  0.6150  0.7749 -0.3160
   33MOL0     C 4439   0.995   6.234   3.906 -0.1988 -0.2347  0.0487
   33MOL0     O 4440   1.029   6.093   3.939 -0.2681  0.5622  0.3110
   33MOL0     C 4441   0.928   6.009   3.978 -0.0866 -0.3611 -0.0762
   33MOL0     C 4442   0.790   6.024   3.945  0.0512  0.0293  0.4461
   33MOL0     C 4443   0.702   5.921   3.984  0.0460  1.1168  0.0965
   33MOL0     C 4444   0.558   5.942   3.938 -0.6878  0.8482 -0.6086
   33MOL0     C 4445   0.746   5.811   4.066  0.3649 -0.6318 -0.8031
   33MOL0     C 4446   0.649   5.710   4.118 -0.4375 -1.5341  0.7178
   33MOL0     O 4447   0.703   5.603   4.176 -0.0410  1.6118 -0.2121
   33MOL0     C 4448   0.618   5.511   4.242  0.1734 -0.0783  0.1154
   33MOL0     C 4449   0.621   5.380   4.205 -0.2186  0.2850  0.5262
   33MOL0     C 4450   0.591   5.277   4.290  0.5510  0.8654 -0.1105
   33MOL0     C 4451   0.515   5.304   4.404 -0.2273  0.2224  0.6089
   33MOL0     O 4452   0.473   5.209   4.500 -0.9265  0.5463 -0.5690
   33MOL0     C 4453   0.531   5.076   4.494  0.0611  0.0143 -0.2090
   33MOL0     C 4454   0.438   4.975   4.413 -0.3561 -0.0462 -0.2182
   33MOL0     C 4455   0.325   4.914   4.495  0.8366 -0.3304  0.3677
   33MOL0     C 4456   0.375   4.835   4.622  0.3272 -1.2975  0.3762
   33MOL0     C 4457   0.275   4.733   4.680 -0.1839  0.2976 -0.4772
   33MOL0     C 4458   0.138   4.791   4.730  0.3408 -0.2871  0.0138
   33MOL0     C 4459   0.048   4.672   4.778  0.4328  0.7740  0.3586
   33MOL0     C 4460   0.107   4.627   4.913  0.2807 -0.5005 -0.2117
   33MOL0    Cl 4461   0.105   4.756   5.023  0.4658  0.0568 -0.0018
   33MOL0     C 4462   0.496   5.445   4.437 -0.3783 -0.6715 -1.2994
   33MOL0     C 4463   0.543   5.545   4.357 -0.2969  0.3654 -0.4432
   33MOL0     O 4464   0.531   5.724   4.104  0.0345  0.2331 -0.3552
   33MOL0     C 4465   0.883   5.800   4.091 -0.6790  0.2795 -0.0638
   33MOL0     C 4466   0.967   5.897   4.049 -0.9375 -0.2271 -0.4565
   33MOL0     N 4467   1.439   6.276   4.157  0.9306 -0.5930 -1.8316
   33MOL0     N 4468   1.547   6.257   4.237  0.3209 -0.5826 -0.3787
   33MOL0     C 4469   1.988   5.913   3.349 -0.6024  1.6117 -0.0994
   33MOL0     C 4470   1.922   6.012   3.281  1.4183 -0.3759  0.7022
   33MOL0     C 4471   1.775   6.463   3.181 -0.2247 -0.1275  0.2952
   33MOL0     C 4472   1.733   6.582   3.238  0.2656 -0.4858  0.3979
   33MOL0     C 4473   1.617   6.640   3.196  0.3600  0.1401 -0.2743
   33MOL0     C 4474   1.555   6.615   3.078 -0.4925  1.3994 -0.0533
   33MOL0     O 4475   1.451   6.696   3.060  0.2486 -0.6114 -0.2620
   33MOL0     C 4476   1.344   6.651   2.969  0.2127 -0.5703  0.5890
   33MOL0     C 4477   1.358   6.748   2.844 -0.2713  0.3528  0.0863
   33MOL0     C 4478   1.309   6.891   2.857 -0.2507 -0.3521 -0.2394
   33MOL0     C 4479   1.168   6.885   2.882 -0.3179 -0.6388  0.8741
   33MOL0     C 4480   1.105   7.018   2.866 -0.0778 -0.5262  0.3602
   33MOL0     C 4481   1.038   7.126   2.850  0.5789  0.1501  1.2427
   33MOL0     C 4482   1.601   6.502   3.006  0.5913  0.0597  0.9894
   33MOL0     C 4483   1.714   6.430   3.057 -0.9257  0.3216 -0.2306
   33MOL0     C 4484   1.747   6.314   2.971  0.9474  0.0034 -0.0408
   33MOL0     H 4485   2.119   6.276   3.331  1.1449 -0.6714 -0.5170
   33MOL0     H 4486   2.228   6.103   3.482  0.5690  2.3072 -1.4676
   33MOL0     H 4487   2.194   6.000   3.640  1.4196 -0.3563 -0.7200
   33MOL0     H 4488   2.273   5.841   3.653  0.0703  2.3328  3.6946
   33MOL0     H 4489   1.975   5.811   3.648  0.6853 -1.3757 -1.4931
   33MOL0     H 4490   2.100   5.737   3.751  3.9332  1.8162  2.6839
   33MOL0     H 4491   2.128   5.921   3.901  0.0664 -0.3652  0.1150
   33MOL0     H 4492   1.985   5.997   3.823  0.6203  0.6887  1.4668
   33MOL0     H 4493   1.832   5.842   3.911  0.1345 -2.7255 -1.4589
   33MOL0     H 4494   1.964   5.739   3.979 -0.6895  0.4488  2.8117
   33MOL0     H 4495   2.036   5.936   4.106 -0.9299  0.6380  0.2568
   33MOL0     H 4496   1.889   5.844   4.165 -0.1164 -0.4835 -0.0187
   33MOL0     H 4497   1.893   6.098   4.022  1.9138 -0.7141 -0.0511
   33MOL0     H 4498   1.735   6.009   4.080 -0.0810 -2.3395  1.0409
   33MOL0     H 4499   1.961   6.131   4.255 -0.6293  3.2080  3.0035
   33MOL0     H 4500   1.811   6.059   4.311 -0.8322 -1.4554 -0.4438
   33MOL0     H 4501   1.798   6.316   4.291  0.9581  0.6495 -1.0097
   33MOL0     H 4502   1.843   6.305   4.121 -0.6323  2.7052  1.5026
   33MOL0     H 4503   1.675   6.297   3.935 -0.8313 -0.2127 -1.0282
   33MOL0     H 4504   1.415   6.260   3.835  1.7907  1.8754  0.0256
   33MOL0     H 4505   1.392   6.424   3.890 -0.9928 -1.3066 -2.2363
   33MOL0     H 4506   1.237   6.201   4.023  2.7127 -0.9464 -2.1720
   33MOL0     H 4507   1.210   6.367   4.042  2.3164 -2.8731  4.5056
   33MOL0     H 4508   1.104   6.405   3.841 -1.2571  0.5112  0.0257
   33MOL0     H 4509   1.154   6.240   3.775  0.6475  0.4405 -0.0804
   33MOL0     H 4510   0.948   6.279   3.993  0.5003 -2.0106  1.4001
   33MOL0     H 4511   0.925   6.239   3.822 -1.3860 -2.9584  0.7768
   33MOL0     H 4512   0.765   6.109   3.883  0.4518 -0.8267 -0.9227
   33MOL0     H 4513   0.518   5.847   3.901  2.4989 -0.5052 -0.8483
   33MOL0     H 4514   0.544   6.020   3.863  2.3739  0.0708 -2.1101
   33MOL0     H 4515   0.494   5.970   4.023  0.6605 -0.8914  1.0758
   33MOL0     H 4516   0.669   5.364   4.109  1.8692  1.7850  1.2478
   33MOL0     H 4517   0.615   5.178   4.253 -0.4085  0.8476 -0.7056
   33MOL0     H 4518   0.632   5.081   4.454  0.3621  1.5726  0.6731
   33MOL0     H 4519   0.549   5.046   4.597  0.1539  2.8182  0.6771
   33MOL0     H 4520   0.388   5.029   4.333 -1.3286  0.8752  0.9800
   33MOL0     H 4521   0.504   4.903   4.364 -1.3259 -0.8505 -0.3761
   33MOL0     H 4522   0.275   4.850   4.422 -0.6912  2.9639 -1.7059
   33MOL0     H 4523   0.242   4.977   4.528 -0.8194 -2.7383  1.0747
   33MOL0     H 4524   0.378   4.902   4.708 -1.7691  1.1390 -1.3116
   33MOL0     H 4525   0.476   4.799   4.597  0.2570  0.4353 -2.8873
   33MOL0     H 4526   0.263   4.652   4.607 -2.9004  2.0973 -2.1886
   33MOL0     H 4527   0.336   4.689   4.760  2.2769  2.6184 -0.9153
   33MOL0     H 4528   0.087   4.836   4.644  2.0571 -1.4837 -1.7325
   33MOL0     H 4529   0.155   4.859   4.814 -0.2823  2.3871 -1.8839
   33MOL0     H 4530   0.054   4.583   4.714  2.3992  0.3818  1.0078
   33MOL0     H 4531  -0.055   4.701   4.801  0.5296 -0.2124  2.2467
   33MOL0     H 4532   0.207   4.584   4.900  0.5990  0.8888 -3.1003
   33MOL0     H 4533   0.044   4.545   4.949 -1.0128 -0.0376 -1.3573
   33MOL0     H 4534   0.448   5.479   4.528 -2.6482 -2.1491 -1.8595
   33MOL0     H 4535   0.528   5.649   4.384  1.0271  0.2952  0.6747
   33MOL0     H 4536   0.921   5.717   4.150 -1.7369 -0.9377 -1.0510
   33MOL0     H 4537   1.075   5.897   4.062 -1.1815  0.7051  2.3926
   33MOL0     H 4538   1.950   5.811   3.355  1.3185  0.9236  2.5196
   33MOL0     H 4539   1.827   5.999   3.230  0.9353 -0.5954  1.6320
   33MOL0     H 4540   1.769   6.608   3.337  1.8224 -1.1561  0.0410
   33MOL0     H 4541   1.576   6.718   3.259  0.6196 -0.7051  0.9696
   33MOL0     H 4542   1.356   6.549   2.931  1.2287  0.4679 -2.2149
   33MOL0     H 4543   1.241   6.659   3.003  0.8847 -0.7945  2.8377
   33MOL0     H 4544   1.307   6.699   2.760 -0.6175 -1.0705  1.0725
   33MOL0     H 4545   1.466   6.748   2.825  0.5191  3.6138  3.4269
   33MOL0     H 4546   1.356   6.944   2.940  0.0045  1.3389 -1.4162
   33MOL0     H 4547   1.331   6.941   2.762 -0.3648  0.0842 -0.0370
   33MOL0     H 4548   1.148   6.842   2.980  1.0317 -1.7998  0.6683
   33MOL0     H 4549   1.125   6.826   2.800 -1.8465  1.3285  0.1721
   33MOL0     H 4550   0.958   7.196   2.836 -0.2084 -0.7109  1.3449
   33MOL0     H 4551   1.553   6.469   2.915  1.7260  0.2049  0.3272
   33MOL0     H 4552   1.703   6.325   2.872  2.3751 -1.1599 -0.8219
   33MOL0     H 4553   1.855   6.302   2.965  1.2824  2.6799 -0.5455
   33MOL0     H 4554   1.696   6.232   3.022 -0.2176  0.8835  0.2649
   34MOL0     O 4555   1.032   4.117   5.207 -0.2241  0.0830  0.8014
   34MOL0     C 4556   1.073   4.222   5.256 -1.0043 -0.6929 -0.5671
   34MOL0     O 4557   1.191   4.278   5.217 -0.5713 -0.5119 -0.4515
   34MOL0     C 4558   1.280   4.210   5.141 -0.2107 -0.1415  0.3686
   34MOL0     C 4559   1.314   4.080   5.151  0.2783  0.2091  0.6208
   34MOL0     C 4560   1.391   4.012   5.052 -0.4835  0.0984 -0.5396
   34MOL0     C 4561   1.451   4.091   4.947 -0.3278 -0.0714 -0.4444
   34MOL0     O 4562   1.525   4.030   4.848 -0.7909  0.3295  0.1122
   34MOL0     C 4563   1.540   4.094   4.720  0.5682 -0.1293  0.3499
   34MOL0     C 4564   1.542   3.990   4.602  0.2694 -0.4733 -0.2117
   34MOL0     C 4565   1.637   3.876   4.628  0.6443  0.0244 -0.3001
   34MOL0     C 4566   1.597   3.736   4.572 -0.3636  1.0031  0.1583
   34MOL0     C 4567   1.620   3.748   4.420 -0.3756 -0.7833  0.6670
   34MOL0     C 4568   1.768   3.709   4.382 -0.5355 -0.0664 -0.4004
   34MOL0     C 4569   1.799   3.740   4.237  1.0537 -0.7305  0.0893
   34MOL0     C 4570   1.932   3.691   4.181 -0.3334  0.8446  0.4975
   34MOL0     N 4571   1.920   3.560   4.110 -0.4003 -0.1947 -0.2583
   34MOL0     C 4572   1.904   3.560   3.971 -0.1786  0.2200  0.8302
   34MOL0     C 4573   1.880   3.432   3.940 -0.9072  0.6122  0.7664
   34MOL0     C 4574   1.881   3.352   3.805 -0.7617 -0.3961 -0.1517
   34MOL0     C 4575   1.954   3.433   3.690  0.4705  1.4632 -0.0283
   34MOL0     C 4576   2.104   3.398   3.685 -0.5963 -0.4040 -0.4945
   34MOL0     C 4577   2.173   3.462   3.560 -0.4214 -0.1338 -0.4754
   34MOL0     O 4578   2.164   3.604   3.596 -0.3205  0.2026  0.1959
   34MOL0     C 4579   2.288   3.657   3.613 -0.6666  0.4515  0.0933
   34MOL0     C 4580   2.308   3.692   3.749 -1.1017 -0.5859  0.0145
   34MOL0     C 4581   2.440   3.734   3.779  0.7147 -0.6108 -0.7517
   34MOL0     C 4582   2.468   3.763   3.927  0.6479 -0.2864  0.4407
   34MOL0     C 4583   2.540   3.755   3.677  0.5843 -0.7540  0.7952
   34MOL0     C 4584   2.677   3.802   3.700 -0.3949 -1.5690  0.0675
   34MOL0     O 4585   2.729   3.879   3.595  0.8436 -0.1556  0.6574
   34MOL0     C 4586   2.865   3.908   3.583  0.1630  0.7998 -0.1789
   34MOL0     C 4587   2.940   3.933   3.699 -0.2093 -0.6196 -0.1759
   34MOL0     C 4588   3.078   3.957   3.677 -0.3712  0.2459 -0.0038
   34MOL0     C 4589   3.132   3.966   3.549  0.3292 -0.6294 -0.1639
   34MOL0     O 4590   3.264   3.979   3.534  0.3775  0.8194  0.3421
   34MOL0     C 4591   3.325   3.864   3.472 -0.8467  0.1339 -0.1324
   34MOL0     C 4592   3.469   3.893   3.453  0.1887  0.7226  0.9047
   34MOL0     C 4593   3.540   3.800   3.346  0.3059  1.4758 -1.2787
   34MOL0     C 4594   3.491   3.807   3.201 -1.1421  1.2634 -0.3793
   34MOL0     C 4595   3.570   3.711   3.110 -1.1119 -0.3503  1.0834
   34MOL0     C 4596   3.718   3.751   3.081 -0.4866  0.0317 -0.9381
   34MOL0     C 4597   3.768   3.663   2.963  0.6034 -0.0181 -0.4025
   34MOL0     C 4598   3.922   3.687   2.928 -0.3719 -0.3877 -0.1737
   34MOL0    Cl 4599   4.020   3.657   3.072 -0.3689 -0.5228  0.2080
   34MOL0     C 4600   3.049   3.963   3.441  0.6561 -0.5146  0.2573
   34MOL0     C 4601   2.913   3.941   3.459 -0.0151  0.5074 -0.7549
   34MOL0     O 4602   2.746   3.748   3.786  0.0627  0.2044 -0.5157
   34MOL0     C 4603   2.505   3.723   3.546 -0.3109  0.8203 -0.5860
   34MOL0     C 4604   2.386   3.662   3.513  0.4937 -0.8164 -0.2511
   34MOL0     N 4605   1.901   3.356   4.053 -0.1718 -0.3173 -0.9941
   34MOL0     N 4606   1.915   3.438   4.156  0.3549  0.5358  1.1832
   34MOL0     C 4607   1.425   4.228   4.949 -0.4473 -0.7011  0.1257
   34MOL0     C 4608   1.339   4.287   5.049  0.1647 -0.0092 -0.4894
   34MOL0     C 4609   0.983   4.314   5.339 -0.5079 -0.4583 -0.1263
   34MOL0     C 4610   1.017   4.448   5.354  0.6954 -0.0846 -0.3608
   34MOL0     C 4611   0.942   4.537   5.435 -0.1997 -0.6313  0.6812
   34MOL0     C 4612   0.818   4.487   5.477 -0.7358 -0.5591 -0.1305
   34MOL0     O 4613   0.757   4.585   5.545  0.3648  0.0121  0.5203
   34MOL0     C 4614   0.624   4.559   5.594  1.7648  0.0842  0.4304
   34MOL0     C 4615   0.573   4.697   5.657 -0.1565 -0.0594 -0.2818
   34MOL0     C 4616   0.521   4.786   5.539  0.2574 -0.2635  0.0496
   34MOL0     C 4617   0.487   4.926   5.587 -0.2276  0.1892 -0.8691
   34MOL0     C 4618   0.370   4.941   5.673  0.2487  0.3000  0.5786
   34MOL0     C 4619   0.267   4.961   5.731  0.5626  0.0329 -0.3382
   34MOL0     C 4620   0.777   4.360   5.465  0.6600  0.0341  0.1084
   34MOL0     C 4621   0.859   4.268   5.395  0.5055  0.6866  0.1927
   34MOL0     C 4622   0.806   4.123   5.364 -0.0740  0.5714 -0.5581
   34MOL0     H 4623   1.267   4.029   5.234 -1.9880  3.1685  1.3172
   34MOL0     H 4624   1.426   3.910   5.039  2.0606  0.7492  0.5808
   34MOL0     H 4625   1.633   4.150   4.732 -0.3816  1.1730  2.0884
   34MOL0     H 4626   1.455   4.161   4.700 -0.7487 -1.6126  0.7476
   34MOL0     H 4627   1.441   3.948   4.592  0.0326 -0.6565  2.3372
   34MOL0     H 4628   1.576   4.041   4.511  0.8656 -4.6674 -2.6114
   34MOL0     H 4629   1.740   3.905   4.606  0.0377  1.7703 -1.0364
   34MOL0     H 4630   1.635   3.841   4.732 -0.4412 -1.9120 -0.9213
   34MOL0     H 4631   1.657   3.653   4.611 -2.4134 -0.7758 -0.2489
   34MOL0     H 4632   1.494   3.713   4.599 -0.6466  2.8503  0.8034
   34MOL0     H 4633   1.597   3.852   4.393  0.1736  0.1684  3.5421
   34MOL0     H 4634   1.552   3.682   4.365  0.4132 -0.3882 -0.8384
   34MOL0     H 4635   1.836   3.747   4.458 -0.4848 -0.4892 -0.2327
   34MOL0     H 4636   1.783   3.600   4.377  3.3843  0.1940  1.8397
   34MOL0     H 4637   1.808   3.848   4.223  2.0436 -1.0829 -2.5899
   34MOL0     H 4638   1.722   3.694   4.174  2.4831  0.0401 -2.3183
   34MOL0     H 4639   1.964   3.758   4.101  1.1656 -1.8735 -1.3508
   34MOL0     H 4640   2.002   3.677   4.264  0.2417 -0.7708 -0.2134
   34MOL0     H 4641   1.891   3.637   3.896  1.9882 -0.7041 -0.5771
   34MOL0     H 4642   1.775   3.348   3.781 -1.1258  0.4539  1.1899
   34MOL0     H 4643   1.917   3.249   3.804  0.9020  0.1497 -1.3065
   34MOL0     H 4644   1.907   3.399   3.597 -1.8758 -1.2146  1.9696
   34MOL0     H 4645   1.936   3.540   3.702 -1.5602  1.1323  0.1895
   34MOL0     H 4646   2.143   3.431   3.782 -1.1458  2.2075 -1.0798
   34MOL0     H 4647   2.120   3.290   3.687  3.3982  0.0491  1.4376
   34MOL0     H 4648   2.276   3.427   3.566 -0.0716  1.0686  1.5887
   34MOL0     H 4649   2.129   3.430   3.465 -0.6711  1.0591 -0.7779
   34MOL0     H 4650   2.230   3.681   3.825 -0.6901 -0.1057  0.5170
   34MOL0     H 4651   2.399   3.713   3.995  0.2280 -2.4907 -1.4595
   34MOL0     H 4652   2.460   3.870   3.947 -1.1537  0.3124 -2.6872
   34MOL0     H 4653   2.573   3.739   3.949  1.5095  2.0153 -0.8203
   34MOL0     H 4654   2.903   3.933   3.801 -0.9544  2.8945 -0.2962
   34MOL0     H 4655   3.153   3.954   3.756 -0.1845  2.7617  0.0000
   34MOL0     H 4656   3.306   3.782   3.542 -0.4344  0.5760  0.5059
   34MOL0     H 4657   3.280   3.830   3.378  0.6152 -1.4411 -0.3003
   34MOL0     H 4658   3.480   3.998   3.423  2.3019  0.8723  2.0017
   34MOL0     H 4659   3.523   3.877   3.546  0.9892 -1.1465  0.1695
   34MOL0     H 4660   3.537   3.697   3.383  1.1745  1.7597 -0.3655
   34MOL0     H 4661   3.647   3.810   3.363 -0.1809  0.6281  3.9155
   34MOL0     H 4662   3.503   3.912   3.174 -3.0242  1.1750 -1.6774
   34MOL0     H 4663   3.388   3.771   3.204 -0.0120 -2.4486  2.5988
   34MOL0     H 4664   3.572   3.612   3.156  1.5211 -0.4782  0.8439
   34MOL0     H 4665   3.525   3.708   3.010  1.9694 -0.9524 -0.3937
   34MOL0     H 4666   3.777   3.737   3.173  0.2665 -1.5910 -1.6271
   34MOL0     H 4667   3.718   3.854   3.046 -0.5245  1.1588  2.0460
   34MOL0     H 4668   3.716   3.678   2.868  0.6198  0.4109 -0.3468
   34MOL0     H 4669   3.766   3.557   2.990 -0.4953  0.5098  1.8676
   34MOL0     H 4670   3.920   3.788   2.886 -3.7594  0.2637  1.2798
   34MOL0     H 4671   3.962   3.623   2.849 -0.1656 -1.4991  0.8006
   34MOL0     H 4672   3.102   3.978   3.348 -0.7996 -3.7859 -1.2236
   34MOL0     H 4673   2.850   3.929   3.371  1.0595  0.4479 -1.5460
   34MOL0     H 4674   2.561   3.730   3.453 -0.5774 -0.2539 -0.8389
   34MOL0     H 4675   2.373   3.631   3.410  0.7300 -1.0907 -0.1993
   34MOL0     H 4676   1.477   4.298   4.885  1.4834 -1.4030  0.8744
   34MOL0     H 4677   1.312   4.392   5.037 -1.6888 -0.0600  2.2377
   34MOL0     H 4678   1.105   4.488   5.306 -0.3101 -3.3171 -5.7510
   34MOL0     H 4679   0.974   4.641   5.430 -0.5067 -0.4969  1.3508
   34MOL0     H 4680   0.557   4.539   5.509 -2.1371  3.7736  2.2166
   34MOL0     H 4681   0.615   4.472   5.659 -1.0759 -1.6308 -2.0207
   34MOL0     H 4682   0.658   4.750   5.702  3.1044 -1.6942 -3.9172
   34MOL0     H 4683   0.493   4.685   5.730 -2.8156  2.0570 -2.6410
   34MOL0     H 4684   0.590   4.790   5.455 -3.1749  2.0912 -2.9657
   34MOL0     H 4685   0.435   4.733   5.498 -0.6510  1.4048 -0.3067
   34MOL0     H 4686   0.482   5.002   5.509 -0.0109  1.0961 -0.0283
   34MOL0     H 4687   0.575   4.952   5.647  2.4028 -2.3206 -3.3217
   34MOL0     H 4688   0.173   4.963   5.783  0.4792  1.7662 -0.4827
   34MOL0     H 4689   0.680   4.327   5.499  1.8025 -1.4624  2.1690
   34MOL0     H 4690   0.874   4.043   5.393 -0.7751 -0.1925 -0.9894
   34MOL0     H 4691   0.709   4.087   5.399 -0.5293  1.2687 -1.0692
   34MOL0     H 4692   0.802   4.117   5.255 -0.7005  3.2494 -0.7593
   35MOL0     O 4693   3.361  10.399   0.755 -0.1249  1.0301  0.1569
   35MOL0     C 4694   3.443  10.324   0.692  0.6731  0.1020  0.6773
   35MOL0     O 4695   3.547  10.368   0.613 -0.4260  0.6926 -0.2021
   35MOL0     C 4696   3.565  10.504   0.624 -0.6169 -0.1533 -0.2654
   35MOL0     C 4697   3.686  10.553   0.682 -0.7224  0.3253 -0.3567
   35MOL0     C 4698   3.718  10.692   0.668 -0.5639 -0.0814  0.3025
   35MOL0     C 4699   3.629  10.781   0.606  0.1703  0.6110 -0.0062
   35MOL0     O 4700   3.651  10.915   0.593 -0.5218 -0.2005  0.5151
   35MOL0     C 4701   3.683  10.989   0.706 -0.2235 -1.1603 -0.3935
   35MOL0     C 4702   3.747  11.114   0.639 -0.9262 -0.0294 -0.9543
   35MOL0     C 4703   3.670  11.239   0.630  0.2578 -0.1391  0.2207
   35MOL0     C 4704   3.767  11.369   0.624  0.8861  0.1752 -1.0738
   35MOL0     C 4705   3.671  11.486   0.635 -0.0991  0.1291  0.3566
   35MOL0     C 4706   3.732  11.619   0.605  0.5825  0.1470 -0.3578
   35MOL0     C 4707   3.643  11.744   0.630 -0.9070 -0.2843 -0.3486
   35MOL0     C 4708   3.623  11.785   0.776  0.4108 -0.1668  1.2145
   35MOL0     N 4709   3.548  11.912   0.779 -0.4399  0.0641  0.2944
   35MOL0     C 4710   3.414  11.928   0.762  0.0250  0.1260 -0.0609
   35MOL0     C 4711   3.382  12.063   0.771 -0.1044 -0.2507 -0.2591
   35MOL0     C 4712   3.256  12.132   0.799  0.3801  0.1041 -0.4869
   35MOL0     C 4713   3.186  12.090   0.923  1.1234  1.5643 -0.2447
   35MOL0     C 4714   3.067  12.187   0.955  0.1909 -0.8939  0.2607
   35MOL0     C 4715   2.955  12.192   0.840 -0.4588  0.6891 -0.0204
   35MOL0     O 4716   2.910  12.056   0.830 -0.3034  0.1706 -0.4275
   35MOL0     C 4717   2.773  12.047   0.841  0.1828  0.1320 -0.6178
   35MOL0     C 4718   2.710  11.964   0.941  0.5575 -0.4414 -0.2017
   35MOL0     C 4719   2.567  11.960   0.953 -0.1377 -1.0884 -1.0874
   35MOL0     C 4720   2.527  11.849   1.050  0.0706 -0.8394  0.2892
   35MOL0     C 4721   2.487  12.040   0.872 -0.2396  0.1023  0.1602
   35MOL0     C 4722   2.335  12.035   0.861  0.0430 -0.7609  0.0601
   35MOL0     O 4723   2.281  12.141   0.790 -0.4871  0.4844  0.3282
   35MOL0     C 4724   2.163  12.129   0.725 -0.6379 -0.0374  0.0617
   35MOL0     C 4725   2.052  12.203   0.762 -0.9998 -0.4353  0.3368
   35MOL0     C 4726   1.932  12.185   0.695 -0.0830  0.5014  0.0314
   35MOL0     C 4727   1.925  12.097   0.591  0.7447  0.5926  0.2275
   35MOL0     O 4728   1.805  12.066   0.523 -0.5954  0.3610  0.4220
   35MOL0     C 4729   1.676  12.091   0.584 -0.3043  0.5908  0.4370
   35MOL0     C 4730   1.618  12.223   0.530  0.1967  0.8232  0.8205
   35MOL0     C 4731   1.464  12.215   0.523 -0.7421  0.3520 -0.6719
   35MOL0     C 4732   1.418  12.214   0.663  0.1959 -0.5577 -0.4200
   35MOL0     C 4733   1.266  12.227   0.675  0.3538 -0.3203 -0.3196
   35MOL0     C 4734   1.212  12.263   0.816  0.2014 -0.1997 -0.5256
   35MOL0     C 4735   1.065  12.252   0.823  0.6151  0.1413  0.7626
   35MOL0     C 4736   1.008  12.112   0.797  0.3175 -0.2176  0.0514
   35MOL0    Cl 4737   0.855  12.098   0.863 -0.7383  0.4263 -0.4138
   35MOL0     C 4738   2.040  12.039   0.546  0.5219  0.3323  1.5419
   35MOL0     C 4739   2.159  12.043   0.613 -0.2398 -0.6186 -0.6231
   35MOL0     O 4740   2.276  11.934   0.886 -0.3950  0.2302 -0.2162
   35MOL0     C 4741   2.556  12.128   0.782  0.5191 -0.3783  1.3829
   35MOL0     C 4742   2.689  12.119   0.758  0.6794 -0.4279  0.4076
   35MOL0     N 4743   3.507  12.126   0.778 -0.6274  0.1900 -0.0899
   35MOL0     N 4744   3.603  12.036   0.780 -0.4384  0.4554  0.2996
   35MOL0     C 4745   3.512  10.730   0.555 -0.3228 -0.3661 -0.3106
   35MOL0     C 4746   3.484  10.598   0.558  0.3071 -0.2119 -0.2822
   35MOL0     C 4747   3.427  10.181   0.719 -0.1015 -0.4526 -0.5089
   35MOL0     C 4748   3.379  10.140   0.850 -0.2725  0.7716  0.5203
   35MOL0     C 4749   3.378  10.008   0.892  0.7744  1.3410  0.2415
   35MOL0     C 4750   3.408   9.906   0.801 -0.0186  1.1485 -0.2083
   35MOL0     O 4751   3.412   9.777   0.854 -0.1752  0.4846 -0.3877
   35MOL0     C 4752   3.467   9.662   0.787  0.4652 -0.0339 -0.4714
   35MOL0     C 4753   3.610   9.667   0.752 -0.0347  0.2064  0.4032
   35MOL0     C 4754   3.668   9.532   0.706 -1.2896 -0.1932 -0.4864
   35MOL0     C 4755   3.574   9.451   0.609  0.4612 -0.2909  0.2129
   35MOL0     C 4756   3.532   9.529   0.489  0.1360 -0.3650 -0.1891
   35MOL0     C 4757   3.509   9.614   0.407  0.0377  0.9781  0.4076
   35MOL0     C 4758   3.434   9.944   0.666 -0.4998 -0.9761 -0.0448
   35MOL0     C 4759   3.446  10.081   0.629  0.2971 -0.2090 -0.0502
   35MOL0     C 4760   3.468  10.123   0.482  0.7898 -0.2551  0.2715
   35MOL0     H 4761   3.757  10.499   0.744 -0.6425 -2.3902 -2.6427
   35MOL0     H 4762   3.806  10.726   0.722 -1.4240  1.9447  0.4920
   35MOL0     H 4763   3.747  10.935   0.777 -1.3551 -0.4909  1.1865
   35MOL0     H 4764   3.588  11.010   0.755 -0.8763 -1.7206 -1.3755
   35MOL0     H 4765   3.827  11.145   0.707 -2.0690  0.1680  0.3364
   35MOL0     H 4766   3.793  11.087   0.543  3.1365  1.4146  0.3907
   35MOL0     H 4767   3.611  11.243   0.537 -0.5406  3.0047  0.7473
   35MOL0     H 4768   3.599  11.254   0.712  2.9491  1.1089  2.4843
   35MOL0     H 4769   3.835  11.361   0.709  1.1755  1.6802 -1.1338
   35MOL0     H 4770   3.833  11.368   0.537  0.9876 -1.1789 -0.9975
   35MOL0     H 4771   3.630  11.483   0.737 -0.5543  1.5796  0.2391
   35MOL0     H 4772   3.591  11.465   0.564  1.9507 -4.5561 -0.9462
   35MOL0     H 4773   3.831  11.635   0.647  1.0286  1.2447 -1.7750
   35MOL0     H 4774   3.750  11.611   0.498  0.4099  3.7867 -0.7722
   35MOL0     H 4775   3.553  11.739   0.568 -0.5131  0.7389 -1.0382
   35MOL0     H 4776   3.698  11.828   0.587 -2.8686  0.8113 -0.8288
   35MOL0     H 4777   3.569  11.713   0.839  2.0891 -1.4274  1.2831
   35MOL0     H 4778   3.726  11.791   0.811  3.0689 -5.4576 -4.0807
   35MOL0     H 4779   3.340  11.849   0.766 -1.5168  1.3721 -2.0731
   35MOL0     H 4780   3.188  12.119   0.714  0.2461 -0.8301 -0.2418
   35MOL0     H 4781   3.280  12.239   0.800  0.5933  0.0676 -1.1196
   35MOL0     H 4782   3.135  11.994   0.915  0.4852  1.8212  0.5241
   35MOL0     H 4783   3.257  12.089   1.007  1.2427  3.1952 -0.2824
   35MOL0     H 4784   3.018  12.164   1.050  1.0572  1.0547  1.2451
   35MOL0     H 4785   3.116  12.285   0.952  1.1711 -1.3855 -2.5226
   35MOL0     H 4786   2.874  12.262   0.863 -2.3530 -1.5610  0.5163
   35MOL0     H 4787   2.997  12.228   0.746 -3.0983  2.0343 -0.7573
   35MOL0     H 4788   2.769  11.912   1.015  2.0455  1.2958 -0.0802
   35MOL0     H 4789   2.533  11.889   1.152 -4.1948  0.1062  0.3734
   35MOL0     H 4790   2.595  11.764   1.043  1.6517  0.4749 -0.9573
   35MOL0     H 4791   2.424  11.815   1.033  0.4759 -1.2003 -1.7075
   35MOL0     H 4792   2.062  12.276   0.842  1.5887 -0.6065  0.2364
   35MOL0     H 4793   1.851  12.253   0.720  0.7933  1.3710  0.5938
   35MOL0     H 4794   1.609  12.008   0.562  3.4399 -3.6156  3.3544
   35MOL0     H 4795   1.688  12.100   0.692 -0.4843 -2.1696  0.7484
   35MOL0     H 4796   1.651  12.304   0.595 -3.2132  3.0979 -0.0332
   35MOL0     H 4797   1.651  12.246   0.428 -2.5183  2.6637  0.2576
   35MOL0     H 4798   1.422  12.134   0.463  0.3924 -1.3724  0.7794
   35MOL0     H 4799   1.424  12.308   0.480 -0.5670  0.2640 -1.0253
   35MOL0     H 4800   1.460  12.297   0.720  1.2010 -2.4007  1.6788
   35MOL0     H 4801   1.440  12.114   0.703 -0.4733 -0.1156  1.1458
   35MOL0     H 4802   1.243  12.313   0.611 -1.8047 -2.0294 -2.0217
   35MOL0     H 4803   1.219  12.135   0.639  1.0902 -1.6891  2.0017
   35MOL0     H 4804   1.229  12.369   0.836  0.8262 -0.6120  1.4201
   35MOL0     H 4805   1.258  12.193   0.887  0.3420  0.8983  0.4848
   35MOL0     H 4806   1.028  12.326   0.751 -1.6176 -2.9282 -1.5388
   35MOL0     H 4807   1.039  12.291   0.922 -0.6157  1.6867 -0.1309
   35MOL0     H 4808   1.070  12.036   0.845 -0.5468 -2.6696 -2.4539
   35MOL0     H 4809   0.990  12.101   0.690 -1.5016  4.3874 -0.3323
   35MOL0     H 4810   2.019  11.989   0.452 -1.5529  1.6883  1.2233
   35MOL0     H 4811   2.248  12.002   0.566  0.9927  3.4005 -2.2361
   35MOL0     H 4812   2.506  12.208   0.727  1.2685  0.0561  1.3280
   35MOL0     H 4813   2.722  12.192   0.685 -1.1356  0.1216  0.1038
   35MOL0     H 4814   3.437  10.797   0.515 -2.4558 -3.0158 -0.9808
   35MOL0     H 4815   3.408  10.564   0.488 -0.5783 -0.9175  0.9799
   35MOL0     H 4816   3.348  10.212   0.925  2.4365  3.3634 -0.6479
   35MOL0     H 4817   3.342   9.998   0.993 -3.5946  0.7459 -1.1605
   35MOL0     H 4818   3.432   9.580   0.851  0.4368  0.0584 -0.3691
   35MOL0     H 4819   3.417   9.663   0.690  1.7321 -1.9895 -1.1978
   35MOL0     H 4820   3.659   9.700   0.845  1.0215 -0.0208 -0.0587
   35MOL0     H 4821   3.633   9.745   0.679 -4.9018  1.3001 -0.2886
   35MOL0     H 4822   3.761   9.564   0.657 -0.3662  0.8334  1.8127
   35MOL0     H 4823   3.696   9.471   0.792 -3.2130 -0.1495  0.2355
   35MOL0     H 4824   3.493   9.406   0.666 -0.1608  0.2326 -0.2424
   35MOL0     H 4825   3.625   9.367   0.560  0.2090  0.1198 -0.7801
   35MOL0     H 4826   3.468   9.681   0.335 -2.3921  2.4639  2.9653
   35MOL0     H 4827   3.435   9.877   0.581  0.0572  1.0482 -1.7449
   35MOL0     H 4828   3.422  10.221   0.468 -0.8322 -1.0915 -0.5829
   35MOL0     H 4829   3.576  10.135   0.468  1.0858 -2.5120  0.3051
   35MOL0     H 4830   3.433  10.045   0.414  0.2151  0.3995 -0.1939
   36MOL0     O 4831   1.910   8.355   4.588 -0.2740  0.8400 -0.7591
   36MOL0     C 4832   1.892   8.272   4.680  0.8634 -1.1200 -0.0322
   36MOL0     O 4833   1.787   8.285   4.770  0.1602 -0.6562 -0.4996
   36MOL0     C 4834   1.734   8.414   4.768  0.8560  0.3341  0.5569
   36MOL0     C 4835   1.778   8.510   4.854  0.1634 -0.4244  0.2806
   36MOL0     C 4836   1.699   8.624   4.873 -0.0194 -0.7384  0.0002
   36MOL0     C 4837   1.601   8.659   4.785 -0.0145 -0.5812  0.6923
   36MOL0     O 4838   1.520   8.774   4.791  0.1597  0.8509  0.1682
   36MOL0     C 4839   1.590   8.890   4.809  0.2076  0.8523  0.6834
   36MOL0     C 4840   1.480   8.995   4.784  0.1347 -0.0766 -0.4820
   36MOL0     C 4841   1.529   9.136   4.805 -1.0883 -0.1283  0.2719
   36MOL0     C 4842   1.534   9.180   4.940  0.6211 -0.0151  0.9985
   36MOL0     C 4843   1.590   9.318   4.941 -0.1524 -0.2402  1.0882
   36MOL0     C 4844   1.517   9.419   4.845  0.5036 -0.1872 -0.1286
   36MOL0     C 4845   1.579   9.564   4.858 -0.4662 -0.4472 -0.0344
   36MOL0     C 4846   1.561   9.655   4.728 -0.0265  0.1202 -0.8631
   36MOL0     N 4847   1.426   9.693   4.690  0.5279 -0.5455 -0.9365
   36MOL0     C 4848   1.355   9.766   4.784 -0.1413  0.7947  0.0770
   36MOL0     C 4849   1.254   9.826   4.711  0.1317 -0.4195 -0.5170
   36MOL0     C 4850   1.139   9.905   4.763  0.3952 -0.2146 -0.4078
   36MOL0     C 4851   1.036   9.814   4.840 -0.4767  0.8291 -1.0296
   36MOL0     C 4852   1.086   9.755   4.984 -0.2752 -0.9150  1.0473
   36MOL0     C 4853   1.104   9.875   5.083  1.0599  0.4833  0.9131
   36MOL0     O 4854   1.241   9.922   5.063  0.1993  0.1919  0.5814
   36MOL0     C 4855   1.279   9.997   5.171  0.5271 -0.3277  0.3674
   36MOL0     C 4856   1.199  10.090   5.228 -0.1433 -0.2060  2.0105
   36MOL0     C 4857   1.235  10.159   5.348  0.8940 -0.2805  1.5714
   36MOL0     C 4858   1.129  10.258   5.408 -0.0070 -0.2535 -0.7273
   36MOL0     C 4859   1.358  10.135   5.406 -0.0909  0.3397 -1.2512
   36MOL0     C 4860   1.408  10.212   5.526  0.2769  1.0220  0.2222
   36MOL0     O 4861   1.383  10.345   5.527  0.4112 -0.0153 -0.2590
   36MOL0     C 4862   1.429  10.415   5.638  0.4268  0.2186  0.0335
   36MOL0     C 4863   1.558  10.453   5.656 -0.5781  0.0103 -0.4175
   36MOL0     C 4864   1.594  10.515   5.777 -0.2733 -0.1515  0.3777
   36MOL0     C 4865   1.504  10.540   5.877 -0.1242 -0.5417  0.0403
   36MOL0     O 4866   1.550  10.591   5.994 -0.2670  0.0137  0.3404
   36MOL0     C 4867   1.494  10.553   6.118  0.4826  0.4785  0.4411
   36MOL0     C 4868   1.467  10.678   6.208  0.0074 -0.5152  0.3803
   36MOL0     C 4869   1.415  10.629   6.341  0.0872  0.4430  0.2607
   36MOL0     C 4870   1.375  10.754   6.424  0.1936 -1.4822 -0.0186
   36MOL0     C 4871   1.371  10.723   6.569  0.9539  0.2715 -0.9769
   36MOL0     C 4872   1.312  10.837   6.671 -0.0764  0.9199  1.1172
   36MOL0     C 4873   1.426  10.950   6.694 -0.0469 -0.0740  0.0521
   36MOL0     C 4874   1.480  10.958   6.837  0.6626 -0.1856  0.3242
   36MOL0    Cl 4875   1.338  11.024   6.919 -0.3495 -0.1168 -0.0191
   36MOL0     C 4876   1.370  10.513   5.857 -1.1009 -1.0183 -0.5821
   36MOL0     C 4877   1.326  10.441   5.741 -0.8349  0.2533  0.1965
   36MOL0     O 4878   1.467  10.144   5.616 -0.4455  0.0370  0.2250
   36MOL0     C 4879   1.431  10.032   5.349 -0.3040 -0.5698 -0.0097
   36MOL0     C 4880   1.403   9.964   5.234 -0.1420  0.5433 -0.5851
   36MOL0     N 4881   1.270   9.800   4.570 -0.5367  0.3517 -0.0979
   36MOL0     N 4882   1.380   9.720   4.564  0.2733 -0.4725  0.0705
   36MOL0     C 4883   1.563   8.561   4.681  0.1931 -0.6832 -0.5951
   36MOL0     C 4884   1.629   8.442   4.680  0.3631 -0.4989  0.2446
   36MOL0     C 4885   1.979   8.158   4.684  1.1283 -0.1370  0.7982
   36MOL0     C 4886   1.926   8.036   4.715  0.2502 -0.3403 -0.3130
   36MOL0     C 4887   2.006   7.920   4.716 -0.0748 -0.9506  0.2602
   36MOL0     C 4888   2.142   7.925   4.667 -1.2166  0.1520 -0.5663
   36MOL0     O 4889   2.207   7.809   4.634  0.3932  0.5727 -0.3009
   36MOL0     C 4890   2.196   7.783   4.496  1.1894 -0.1999 -0.1209
   36MOL0     C 4891   2.257   7.646   4.461  0.2324  0.0083 -0.0930
   36MOL0     C 4892   2.165   7.532   4.497 -0.3610 -0.4427 -0.0999
   36MOL0     C 4893   2.218   7.394   4.477 -0.1954  0.4096  0.3897
   36MOL0     C 4894   2.115   7.290   4.508 -0.0219  0.6059  0.0866
   36MOL0     C 4895   2.025   7.209   4.530 -0.1474 -0.6040 -0.3617
   36MOL0     C 4896   2.202   8.053   4.648 -0.4215 -0.2047 -0.5878
   36MOL0     C 4897   2.117   8.163   4.659  0.4855  0.3273  0.6986
   36MOL0     C 4898   2.189   8.294   4.631  0.0666 -0.0121  0.4749
   36MOL0     H 4899   1.862   8.483   4.916  0.2655 -1.1318 -0.1555
   36MOL0     H 4900   1.739   8.695   4.945 -1.1597 -1.2513  1.1758
   36MOL0     H 4901   1.661   8.893   4.726 -2.0497  1.7249 -1.3468
   36MOL0     H 4902   1.639   8.904   4.906 -1.5904  0.7799  1.6433
   36MOL0     H 4903   1.446   8.974   4.682 -2.8182  2.1047 -0.0950
   36MOL0     H 4904   1.402   8.979   4.858  0.0696  0.8371 -0.3397
   36MOL0     H 4905   1.623   9.140   4.749 -2.4100  1.4250 -2.0160
   36MOL0     H 4906   1.447   9.191   4.757 -2.1924  0.2166  2.4521
   36MOL0     H 4907   1.432   9.191   4.979  0.7726  1.7058  0.9570
   36MOL0     H 4908   1.601   9.112   4.993 -1.2393 -2.5534  0.3051
   36MOL0     H 4909   1.690   9.306   4.898 -0.9610 -1.6086 -0.5777
   36MOL0     H 4910   1.587   9.371   5.036 -1.9011  1.8225 -0.0366
   36MOL0     H 4911   1.523   9.390   4.740  3.3749 -1.5999  0.3280
   36MOL0     H 4912   1.414   9.422   4.879  0.4146 -2.6541  0.0064
   36MOL0     H 4913   1.687   9.556   4.872 -0.4863  1.6103  1.8500
   36MOL0     H 4914   1.529   9.606   4.946 -2.0048  0.2295 -1.1893
   36MOL0     H 4915   1.629   9.739   4.744  0.9693 -0.9898  1.0465
   36MOL0     H 4916   1.610   9.622   4.636 -0.4917  1.4511 -1.6153
   36MOL0     H 4917   1.372   9.765   4.891  1.7949 -1.6926 -0.1256
   36MOL0     H 4918   1.090   9.947   4.674 -2.0663 -0.9709  0.4925
   36MOL0     H 4919   1.177   9.985   4.827  1.5567 -0.8228 -0.3144
   36MOL0     H 4920   0.942   9.864   4.865 -2.3287 -3.0260  0.5829
   36MOL0     H 4921   1.011   9.725   4.781  0.2388 -0.1313  0.0460
   36MOL0     H 4922   1.004   9.692   5.019 -2.3302  1.0457  0.0230
   36MOL0     H 4923   1.179   9.698   4.982  0.4994  0.2927  1.2136
   36MOL0     H 4924   1.038   9.953   5.043  0.6667 -0.3176 -0.0522
   36MOL0     H 4925   1.064   9.847   5.181 -1.3667  1.5484  0.2949
   36MOL0     H 4926   1.101  10.111   5.187  0.4870  1.8637  1.4308
   36MOL0     H 4927   1.033  10.208   5.422  1.8211 -3.9604 -0.2844
   36MOL0     H 4928   1.114  10.347   5.347 -1.2568  0.3284  0.3750
   36MOL0     H 4929   1.163  10.298   5.504 -0.2791  0.1038 -0.7798
   36MOL0     H 4930   1.629  10.446   5.574  0.8119 -2.1347  0.8541
   36MOL0     H 4931   1.697  10.543   5.797  0.4366 -2.8452  1.0324
   36MOL0     H 4932   1.398  10.501   6.128 -0.8281  2.9575  1.9017
   36MOL0     H 4933   1.575  10.501   6.169  0.3848  0.4073  0.5233
   36MOL0     H 4934   1.557  10.739   6.219  0.6982 -1.3148 -0.6200
   36MOL0     H 4935   1.383  10.734   6.167  0.3622  1.0829  1.7207
   36MOL0     H 4936   1.486  10.568   6.398 -3.6395 -3.1617  1.5785
   36MOL0     H 4937   1.326  10.567   6.325  0.0388  0.5203  0.2329
   36MOL0     H 4938   1.280  10.792   6.386  0.6144  0.6757  0.9416
   36MOL0     H 4939   1.442  10.839   6.413 -0.0951 -1.0550  1.3229
   36MOL0     H 4940   1.305  10.637   6.579  1.5184  0.1205  4.2765
   36MOL0     H 4941   1.464  10.682   6.610  1.1877  2.2378  0.6370
   36MOL0     H 4942   1.273  10.787   6.760 -1.9964  1.9860  0.9252
   36MOL0     H 4943   1.223  10.866   6.615  0.6733  0.4164 -0.4045
   36MOL0     H 4944   1.392  11.045   6.653  4.3193  1.1232 -1.3003
   36MOL0     H 4945   1.515  10.937   6.631  0.0951  1.0165  0.0139
   36MOL0     H 4946   1.564  11.026   6.849  0.7869 -0.1530 -0.6540
   36MOL0     H 4947   1.495  10.857   6.876 -1.5459 -1.0593 -0.9245
   36MOL0     H 4948   1.298  10.535   5.934 -0.9548  0.9437 -0.9488
   36MOL0     H 4949   1.220  10.422   5.729 -0.4204 -0.4302 -3.9911
   36MOL0     H 4950   1.528   9.997   5.383  1.2367  1.4006 -2.0630
   36MOL0     H 4951   1.478   9.895   5.197 -0.1231  0.0473  0.3447
   36MOL0     H 4952   1.476   8.594   4.624 -0.4215  3.3844  2.2022
   36MOL0     H 4953   1.595   8.371   4.606  2.7476 -1.2706 -0.2042
   36MOL0     H 4954   1.821   8.016   4.731 -0.0140  0.9662 -0.2466
   36MOL0     H 4955   1.974   7.819   4.740  0.3921 -0.6229  2.5432
   36MOL0     H 4956   2.089   7.780   4.474  0.8673  0.3343  1.3174
   36MOL0     H 4957   2.239   7.867   4.440  0.1907  0.6835  0.3824
   36MOL0     H 4958   2.353   7.636   4.513  0.0219  2.0219  0.8047
   36MOL0     H 4959   2.273   7.642   4.353 -0.0628  0.5073 -0.1589
   36MOL0     H 4960   2.152   7.547   4.604  1.6037 -0.2192  0.1513
   36MOL0     H 4961   2.073   7.538   4.438 -0.8222 -1.1647  0.5367
   36MOL0     H 4962   2.305   7.378   4.541  2.0431  1.7369 -2.1131
   36MOL0     H 4963   2.240   7.379   4.371  2.7504  0.5181  0.9217
   36MOL0     H 4964   1.937   7.149   4.544  0.3193 -1.0948  0.5078
   36MOL0     H 4965   2.309   8.061   4.633 -0.7516 -0.2904 -3.4328
   36MOL0     H 4966   2.138   8.334   4.542 -0.0165 -0.7870  0.1682
   36MOL0     H 4967   2.162   8.362   4.712 -1.8763  0.2251 -0.3170
   36MOL0     H 4968   2.295   8.285   4.606 -0.7098  1.9468 -4.8874
   37MOL0     O 4969   1.754   7.910   0.176 -0.9672  0.1344  0.2249
   37MOL0     C 4970   1.674   7.850   0.242  1.2821  0.3033  0.2186
   37MOL0     O 4971   1.667   7.846   0.381  0.3576 -1.2263  0.3228
   37MOL0     C 4972   1.750   7.915   0.467 -0.7659 -0.5418 -0.3003
   37MOL0     C 4973   1.699   7.956   0.590  0.0504 -0.5147  1.1437
   37MOL0     C 4974   1.789   8.015   0.684  0.9775  0.9162  0.3753
   37MOL0     C 4975   1.923   8.017   0.659 -0.2941 -0.1920 -0.9967
   37MOL0     O 4976   1.989   8.058   0.769  0.3830 -0.2847 -0.3543
   37MOL0     C 4977   2.136   8.062   0.767  0.2234  0.0263 -0.1744
   37MOL0     C 4978   2.188   8.131   0.892  0.2837 -0.0358  0.1677
   37MOL0     C 4979   2.160   8.285   0.891  0.3722  0.1084 -0.5759
   37MOL0     C 4980   2.156   8.346   1.038  0.2034  0.0006 -0.5335
   37MOL0     C 4981   2.111   8.496   1.038 -0.6245  0.7890 -0.8901
   37MOL0     C 4982   1.959   8.519   1.023 -0.1778 -0.2353 -0.1059
   37MOL0     C 4983   1.948   8.669   1.040 -0.0739  0.3307 -0.0931
   37MOL0     C 4984   1.976   8.756   0.911 -0.7139  0.4748 -1.1805
   37MOL0     N 4985   1.919   8.884   0.946 -0.5032 -0.3755 -0.1999
   37MOL0     C 4986   1.839   8.950   0.862 -0.2930  0.4001 -0.7432
   37MOL0     C 4987   1.833   9.081   0.902  0.0865  0.1203 -0.4421
   37MOL0     C 4988   1.760   9.193   0.826  0.2327  0.4548  0.1944
   37MOL0     C 4989   1.848   9.322   0.794 -0.3089 -0.2930 -0.7166
   37MOL0     C 4990   1.804   9.433   0.693  0.4018  0.4954  0.0299
   37MOL0     C 4991   1.685   9.521   0.740 -0.0857 -0.0700  0.1076
   37MOL0     O 4992   1.716   9.596   0.864 -0.1595 -0.5954  0.6584
   37MOL0     C 4993   1.772   9.718   0.862 -0.6320  0.5241 -0.4579
   37MOL0     C 4994   1.816   9.751   0.994 -0.0087  1.2436  0.8022
   37MOL0     C 4995   1.888   9.870   1.020  0.5704  0.7324  1.1581
   37MOL0     C 4996   1.937   9.875   1.164  0.6804 -0.4324 -0.6948
   37MOL0     C 4997   1.916   9.961   0.914 -0.6063  0.5155 -0.7749
   37MOL0     C 4998   2.015  10.072   0.933  0.0213  0.4634 -0.3383
   37MOL0     O 4999   2.006  10.181   0.843  0.4453  0.2488 -0.7347
   37MOL0     C 5000   2.102  10.271   0.849 -0.6601 -1.0738  0.1897
   37MOL0     C 5001   2.146  10.311   0.716  0.0704 -0.2697 -1.0097
   37MOL0     C 5002   2.249  10.406   0.697  0.1969  0.6214  0.0563
   37MOL0     C 5003   2.310  10.465   0.808 -0.7091 -0.8593 -0.8576
   37MOL0     O 5004   2.405  10.565   0.790  0.6079  0.4992  0.3348
   37MOL0     C 5005   2.409  10.642   0.661 -0.1078  0.5326  0.2147
   37MOL0     C 5006   2.477  10.777   0.672 -1.2774  1.2000 -0.1935
   37MOL0     C 5007   2.632  10.755   0.677 -0.3672 -1.0943  0.1031
   37MOL0     C 5008   2.705  10.879   0.729  0.1645  0.0928  0.2311
   37MOL0     C 5009   2.682  10.996   0.630 -0.3382 -0.4943 -0.4781
   37MOL0     C 5010   2.773  11.122   0.682 -0.8546  0.7081  0.0860
   37MOL0     C 5011   2.759  11.244   0.593 -0.2755  0.1839  0.6957
   37MOL0     C 5012   2.883  11.339   0.588  1.0313  0.1998  0.1225
   37MOL0    Cl 5013   2.903  11.414   0.750 -0.3176 -0.0348  0.3175
   37MOL0     C 5014   2.273  10.422   0.936  0.6119 -0.0074 -0.2964
   37MOL0     C 5015   2.161  10.339   0.953 -0.1375  0.1865 -0.0762
   37MOL0     O 5016   2.110  10.042   1.000 -0.4248  0.7115  0.0488
   37MOL0     C 5017   1.879   9.920   0.783  0.6589 -0.4969 -0.3566
   37MOL0     C 5018   1.819   9.802   0.759  1.5217  0.0722 -0.6772
   37MOL0     N 5019   1.923   9.095   1.006 -0.6785  0.4909  0.0863
   37MOL0     N 5020   1.979   8.976   1.029  0.8735  0.4312  0.1214
   37MOL0     C 5021   1.976   7.988   0.532 -0.0068  0.9245 -0.7702
   37MOL0     C 5022   1.888   7.943   0.435  0.1887  1.3483 -0.8833
   37MOL0     C 5023   1.555   7.788   0.173  0.3200  1.0438 -0.2884
   37MOL0     C 5024   1.465   7.718   0.258 -0.0428 -0.2364 -0.3053
   37MOL0     C 5025   1.353   7.649   0.217 -0.7454 -0.2857  1.3288
   37MOL0     C 5026   1.325   7.650   0.083  0.3581  0.5519 -0.2170
   37MOL0     O 5027   1.213   7.581   0.032  0.3272  0.7015 -0.1477
   37MOL0     C 5028   1.109   7.685   0.018  0.2190 -0.5288  0.1579
   37MOL0     C 5029   1.087   7.735  -0.127  0.6313  0.6305  0.8778
   37MOL0     C 5030   1.055   7.617  -0.219 -0.4266 -1.2220  1.0336
   37MOL0     C 5031   1.077   7.644  -0.364 -0.1321  0.2774 -0.0070
   37MOL0     C 5032   0.970   7.728  -0.417  0.4371 -0.0649  0.0170
   37MOL0     C 5033   0.890   7.800  -0.475 -1.2813  0.4862 -0.2897
   37MOL0     C 5034   1.423   7.696  -0.005 -0.0001 -0.5265  0.7267
   37MOL0     C 5035   1.537   7.761   0.035  0.3311  0.0948 -0.2332
   37MOL0     C 5036   1.641   7.803  -0.069 -0.0502 -0.6695  0.7497
   37MOL0     H 5037   1.592   7.953   0.607 -0.5871  0.5850 -2.1318
   37MOL0     H 5038   1.744   8.055   0.774 -3.2059 -0.0379 -1.0477
   37MOL0     H 5039   2.169   8.111   0.675 -0.6716 -1.4867 -1.3520
   37MOL0     H 5040   2.168   7.957   0.773 -0.7339 -0.2920 -0.5146
   37MOL0     H 5041   2.150   8.085   0.984  1.2673  0.1029  0.6625
   37MOL0     H 5042   2.295   8.107   0.896 -0.1156 -1.9718  0.4055
   37MOL0     H 5043   2.221   8.334   0.815 -0.4332  2.7411  0.3527
   37MOL0     H 5044   2.059   8.303   0.853 -0.3046  1.7002  1.7681
   37MOL0     H 5045   2.095   8.288   1.107  0.7058 -1.8160 -1.5539
   37MOL0     H 5046   2.264   8.344   1.058 -0.0474 -0.5850  0.9173
   37MOL0     H 5047   2.175   8.549   0.967  0.9076  2.3456  1.5195
   37MOL0     H 5048   2.148   8.547   1.127 -1.4762  1.3112 -0.8371
   37MOL0     H 5049   1.924   8.490   0.923 -2.1027  2.9544 -0.4935
   37MOL0     H 5050   1.894   8.460   1.089  0.4230 -0.4666  0.2857
   37MOL0     H 5051   2.003   8.701   1.129 -0.7717 -1.0562  0.8711
   37MOL0     H 5052   1.846   8.690   1.072  0.6391  0.9781  1.9208
   37MOL0     H 5053   2.084   8.749   0.897 -0.1408 -1.3905  2.8106
   37MOL0     H 5054   1.918   8.724   0.824  0.3462 -0.4496 -1.5734
   37MOL0     H 5055   1.786   8.916   0.774 -1.2310 -0.4519  0.1281
   37MOL0     H 5056   1.666   9.220   0.876  0.4811  3.3969 -0.7361
   37MOL0     H 5057   1.734   9.156   0.727 -2.7309  2.5396  0.0588
   37MOL0     H 5058   1.889   9.363   0.886  1.7018  1.0177 -2.1027
   37MOL0     H 5059   1.945   9.285   0.760 -0.1741 -0.9025  0.2900
   37MOL0     H 5060   1.889   9.491   0.657  1.9747 -3.2728 -3.0496
   37MOL0     H 5061   1.767   9.381   0.604  3.7115  0.4065 -1.4320
   37MOL0     H 5062   1.664   9.591   0.659  1.7710 -0.9183 -1.1841
   37MOL0     H 5063   1.593   9.464   0.754  0.5343 -1.5393 -1.4298
   37MOL0     H 5064   1.801   9.673   1.068 -0.1673 -2.1691 -2.5146
   37MOL0     H 5065   2.005   9.959   1.181  0.1911  0.0109 -0.8941
   37MOL0     H 5066   1.984   9.780   1.189  0.9645  0.3163  1.8449
   37MOL0     H 5067   1.854   9.880   1.234 -1.2772 -1.2595 -2.8120
   37MOL0     H 5068   2.105  10.258   0.631  1.3915  1.7526 -3.0028
   37MOL0     H 5069   2.296  10.418   0.599 -0.0778  0.2019 -0.1307
   37MOL0     H 5070   2.470  10.586   0.589  0.9296  1.6296  0.2062
   37MOL0     H 5071   2.310  10.668   0.623  0.7136 -0.5178 -2.9457
   37MOL0     H 5072   2.452  10.846   0.590 -0.8909 -0.1237 -1.4681
   37MOL0     H 5073   2.440  10.810   0.769 -0.4139 -0.8754  0.8885
   37MOL0     H 5074   2.672  10.743   0.576 -0.8513  1.0043 -0.3837
   37MOL0     H 5075   2.651  10.670   0.743  0.6996 -1.2355 -0.3583
   37MOL0     H 5076   2.813  10.865   0.739  0.2639 -1.2983 -2.0674
   37MOL0     H 5077   2.656  10.916   0.820  0.9632  1.0832  0.2827
   37MOL0     H 5078   2.723  10.971   0.532 -1.8746 -1.6882 -0.8467
   37MOL0     H 5079   2.576  11.023   0.625  0.0772  1.1407 -0.9995
   37MOL0     H 5080   2.878  11.095   0.695 -0.7083 -0.3058 -2.5486
   37MOL0     H 5081   2.727  11.159   0.774  0.2378  0.7928  0.6100
   37MOL0     H 5082   2.668  11.296   0.626 -2.0330 -2.4235  0.2044
   37MOL0     H 5083   2.750  11.217   0.488 -1.4938  0.3723  0.7325
   37MOL0     H 5084   2.866  11.425   0.523 -1.5810  0.6339  1.2574
   37MOL0     H 5085   2.977  11.290   0.559 -0.7371 -3.6745  0.4073
   37MOL0     H 5086   2.321  10.469   1.021 -5.1197  1.1626  2.7758
   37MOL0     H 5087   2.128  10.305   1.051 -1.4069  0.6507 -0.3319
   37MOL0     H 5088   1.897   9.985   0.698 -0.8194 -0.9765 -1.0571
   37MOL0     H 5089   1.789   9.775   0.658  0.2259  0.7489 -0.4884
   37MOL0     H 5090   2.083   7.984   0.515  0.5238 -1.4446  2.2014
   37MOL0     H 5091   1.944   7.901   0.352  0.1944  0.1697 -0.2994
   37MOL0     H 5092   1.477   7.706   0.366  0.0447  0.7682 -0.1934
   37MOL0     H 5093   1.283   7.605   0.287  0.7300 -1.1820  2.3006
   37MOL0     H 5094   1.023   7.645   0.072  1.9000 -2.1568  1.7691
   37MOL0     H 5095   1.146   7.768   0.079  3.6619 -2.0848  0.4066
   37MOL0     H 5096   1.182   7.781  -0.157  0.3466  0.3658 -0.4877
   37MOL0     H 5097   1.019   7.820  -0.117  0.6500  0.4124  4.2774
   37MOL0     H 5098   1.124   7.534  -0.200 -1.2493 -2.0970  0.3100
   37MOL0     H 5099   0.955   7.583  -0.191 -1.7356 -0.2099 -2.0157
   37MOL0     H 5100   1.067   7.548  -0.415  1.4411  1.0580 -1.9648
   37MOL0     H 5101   1.178   7.674  -0.394 -0.7870  3.5838  0.6580
   37MOL0     H 5102   0.837   7.868  -0.538  0.7607 -0.2517 -2.9862
   37MOL0     H 5103   1.405   7.693  -0.112  1.2656 -1.4717  0.5052
   37MOL0     H 5104   1.743   7.775  -0.041  0.1222  1.9048  3.0484
   37MOL0     H 5105   1.614   7.768  -0.170 -2.1428  2.6747  0.0092
   37MOL0     H 5106   1.644   7.912  -0.078  0.2552 -0.8268 -2.1030
   38MOL0     O 5107   5.555   4.238   2.721 -0.1508  0.0671 -0.0217
   38MOL0     C 5108   5.516   4.243   2.833  0.1855  0.4442 -0.0814
   38MOL0     O 5109   5.581   4.222   2.940 -0.1908 -0.5904  0.5177
   38MOL0     C 5110   5.714   4.178   2.930  0.5662  0.7434 -1.1708
   38MOL0     C 5111   5.751   4.055   2.875 -0.9256 -0.5169  0.2665
   38MOL0     C 5112   5.883   4.013   2.861  0.7134  0.0307 -0.0268
   38MOL0     C 5113   5.978   4.103   2.893 -0.5158  0.0055 -0.3072
   38MOL0     O 5114   6.107   4.066   2.852 -0.1304  0.8515  0.2109
   38MOL0     C 5115   6.205   4.177   2.848  0.1468 -0.0976 -1.1168
   38MOL0     C 5116   6.341   4.146   2.791  0.0127  1.5103  0.0066
   38MOL0     C 5117   6.396   4.027   2.862 -0.3837 -0.6181 -0.1685
   38MOL0     C 5118   6.551   4.011   2.829 -0.2549 -0.2305  0.5364
   38MOL0     C 5119   6.598   3.901   2.923 -0.0143  0.3295 -0.0848
   38MOL0     C 5120   6.554   3.761   2.879  0.4093 -0.1398 -0.4819
   38MOL0     C 5121   6.552   3.677   3.008 -0.7553  0.0424  1.1281
   38MOL0     C 5122   6.574   3.529   2.978 -0.7535  0.9722 -0.7758
   38MOL0     N 5123   6.540   3.424   3.093  0.1157 -0.9129  0.8900
   38MOL0     C 5124   6.421   3.359   3.120  0.1436 -0.1628 -0.3246
   38MOL0     C 5125   6.446   3.251   3.183  0.4928  0.0089 -1.1716
   38MOL0     C 5126   6.342   3.156   3.246  0.0434  0.5902  0.1570
   38MOL0     C 5127   6.327   3.034   3.157 -0.6566 -0.4835  0.8130
   38MOL0     C 5128   6.303   3.070   3.016 -0.1426  0.3090 -0.3588
   38MOL0     C 5129   6.311   2.950   2.922  0.4079 -0.3268  1.3657
   38MOL0     O 5130   6.403   2.848   2.962  0.4895 -1.0117 -0.5479
   38MOL0     C 5131   6.362   2.724   2.934  0.5363  0.8323  0.3226
   38MOL0     C 5132   6.399   2.670   2.814 -0.9104 -0.4035 -1.0019
   38MOL0     C 5133   6.357   2.540   2.771 -0.4733  0.1227  1.5909
   38MOL0     C 5134   6.397   2.504   2.633  0.1114  0.7516 -0.4003
   38MOL0     C 5135   6.283   2.457   2.849  0.4097 -0.3799 -0.1511
   38MOL0     C 5136   6.235   2.308   2.827 -0.0869  0.2727  0.5189
   38MOL0     O 5137   6.152   2.258   2.926 -0.0989  0.3172  0.5448
   38MOL0     C 5138   6.105   2.127   2.901  0.8478  1.3458  0.8492
   38MOL0     C 5139   6.190   2.012   2.880 -0.5347 -0.0371 -0.8845
   38MOL0     C 5140   6.147   1.881   2.885 -0.5800 -1.0813  0.6147
   38MOL0     C 5141   6.006   1.859   2.889 -0.9483  0.1401  0.8118
   38MOL0     O 5142   5.941   1.737   2.879 -0.2653 -0.2184 -0.0960
   38MOL0     C 5143   6.016   1.632   2.939  0.1022 -0.5855 -0.0035
   38MOL0     C 5144   5.909   1.527   2.972 -0.0546 -0.8803  0.4794
   38MOL0     C 5145   5.771   1.590   3.032  0.7626  0.1918  0.4961
   38MOL0     C 5146   5.662   1.482   3.061  0.3678  0.0893 -0.3791
   38MOL0     C 5147   5.529   1.544   3.100 -0.2209 -0.0409  0.5458
   38MOL0     C 5148   5.421   1.441   3.105 -0.6642  0.5081 -0.7155
   38MOL0     C 5149   5.277   1.490   3.099  0.6445 -0.7696  0.6464
   38MOL0     C 5150   5.179   1.372   3.121 -0.4595 -0.2716  0.9116
   38MOL0    Cl 5151   5.017   1.440   3.167 -0.1569  0.1970 -0.0590
   38MOL0     C 5152   5.920   1.971   2.897  0.2365  0.6641  0.1966
   38MOL0     C 5153   5.968   2.093   2.907  0.1156 -0.6240  1.1523
   38MOL0     O 5154   6.279   2.259   2.725 -0.1568  1.8705  0.9954
   38MOL0     C 5155   6.234   2.524   2.964  0.8646  0.4844 -0.7831
   38MOL0     C 5156   6.275   2.647   3.013 -0.2432  0.8269  0.7431
   38MOL0     N 5157   6.585   3.233   3.182 -1.0476 -0.0816 -0.9227
   38MOL0     N 5158   6.642   3.335   3.125 -0.0971  0.0160  0.8635
   38MOL0     C 5159   5.950   4.232   2.946 -0.9829 -0.5033 -0.4532
   38MOL0     C 5160   5.820   4.270   2.966  1.0985  0.0591 -0.0825
   38MOL0     C 5161   5.382   4.289   2.852 -0.6202 -0.3915 -0.0783
   38MOL0     C 5162   5.354   4.417   2.811 -0.2442  0.6721  0.5128
   38MOL0     C 5163   5.216   4.462   2.813  0.0448  0.1379 -0.9848
   38MOL0     C 5164   5.118   4.385   2.869 -0.1804  0.8641 -0.8009
   38MOL0     O 5165   4.991   4.438   2.851 -0.2027 -0.8723 -0.4844
   38MOL0     C 5166   4.886   4.351   2.873  0.2619  0.0507 -0.8671
   38MOL0     C 5167   4.753   4.440   2.827 -0.2583  0.0257 -0.2104
   38MOL0     C 5168   4.778   4.515   2.694  0.0403  0.8526  0.4032
   38MOL0     C 5169   4.657   4.494   2.592 -0.8180  0.0545  0.0516
   38MOL0     C 5170   4.665   4.592   2.476  0.7325 -0.1350  0.1740
   38MOL0     C 5171   4.666   4.690   2.403 -0.0565  0.1458  0.2507
   38MOL0     C 5172   5.158   4.255   2.913  0.9195  0.2341 -0.8639
   38MOL0     C 5173   5.285   4.207   2.910  0.0645  0.6458  0.2845
   38MOL0     C 5174   5.330   4.069   2.953 -0.2660 -0.4855 -0.1359
   38MOL0     H 5175   5.665   3.997   2.843 -0.8954  1.5062 -4.2485
   38MOL0     H 5176   5.913   3.920   2.813  0.1420 -0.6148  0.8547
   38MOL0     H 5177   6.228   4.202   2.952  0.7377  3.0961 -1.8898
   38MOL0     H 5178   6.157   4.266   2.807  0.1984 -0.2268 -1.4598
   38MOL0     H 5179   6.327   4.126   2.684 -0.8022  2.5304 -0.0891
   38MOL0     H 5180   6.414   4.227   2.800  0.6650  1.1144 -1.3369
   38MOL0     H 5181   6.397   4.056   2.967  0.5660  1.5387 -0.7291
   38MOL0     H 5182   6.333   3.940   2.840 -0.9626 -0.5781  1.2890
   38MOL0     H 5183   6.571   3.977   2.727  1.7709  0.6500  0.5736
   38MOL0     H 5184   6.601   4.108   2.840  1.3169 -1.0579  1.0105
   38MOL0     H 5185   6.574   3.925   3.027  0.3399 -0.8307  0.2819
   38MOL0     H 5186   6.706   3.885   2.923  0.1095  0.6664  2.6060
   38MOL0     H 5187   6.453   3.767   2.837  1.5580  2.0542 -3.1835
   38MOL0     H 5188   6.624   3.721   2.805 -1.6818  2.6641 -4.3501
   38MOL0     H 5189   6.459   3.693   3.063 -1.0248  1.7279  0.2271
   38MOL0     H 5190   6.631   3.711   3.076  0.3615  0.2551 -0.2177
   38MOL0     H 5191   6.502   3.501   2.901 -0.5088  1.1422 -1.0664
   38MOL0     H 5192   6.676   3.516   2.943 -0.3294  0.2675  0.6655
   38MOL0     H 5193   6.327   3.413   3.110 -0.0242 -0.6566 -1.5877
   38MOL0     H 5194   6.244   3.194   3.275  0.3563  0.7724  1.0135
   38MOL0     H 5195   6.387   3.121   3.340 -2.4526  0.2159  1.2986
   38MOL0     H 5196   6.421   2.981   3.174  0.9704  1.5875 -1.0983
   38MOL0     H 5197   6.248   2.972   3.200  0.8023 -2.8026  0.3409
   38MOL0     H 5198   6.207   3.118   2.995 -0.2511 -0.4851 -1.7385
   38MOL0     H 5199   6.391   3.121   2.976  1.3874 -1.0962  1.0501
   38MOL0     H 5200   6.212   2.905   2.908  1.1977 -1.6319 -0.5140
   38MOL0     H 5201   6.340   2.982   2.822  2.0086  3.6818  2.9140
   38MOL0     H 5202   6.458   2.731   2.746 -0.9764  2.2715  1.1696
   38MOL0     H 5203   6.456   2.577   2.576 -1.2583  0.1949 -2.6469
   38MOL0     H 5204   6.308   2.482   2.574 -0.6183 -0.6746  1.1418
   38MOL0     H 5205   6.456   2.413   2.620  0.6287  1.2294 -1.5565
   38MOL0     H 5206   6.295   2.037   2.879  0.5183 -3.0703  3.5358
   38MOL0     H 5207   6.226   1.807   2.878  2.9419  2.1293  2.8904
   38MOL0     H 5208   6.098   1.603   2.874 -1.7451 -3.6297 -1.1651
   38MOL0     H 5209   6.058   1.685   3.025 -1.9660  0.0599  0.6830
   38MOL0     H 5210   5.881   1.486   2.875  2.6045 -2.5319  0.3291
   38MOL0     H 5211   5.937   1.441   3.033 -4.8818 -2.1323  1.3726
   38MOL0     H 5212   5.729   1.644   2.947 -1.5603 -3.9109 -1.2551
   38MOL0     H 5213   5.785   1.648   3.124  1.0067  1.4772 -0.3179
   38MOL0     H 5214   5.698   1.409   3.133 -0.7451  1.5397  1.7441
   38MOL0     H 5215   5.664   1.416   2.974  0.5959 -0.5935  0.1402
   38MOL0     H 5216   5.539   1.611   3.186 -0.2068  1.5010 -0.6160
   38MOL0     H 5217   5.498   1.612   3.020 -0.9427 -0.4543  0.4708
   38MOL0     H 5218   5.436   1.386   3.198 -2.5501  2.0308  0.5829
   38MOL0     H 5219   5.443   1.376   3.020  2.1066 -2.0039  1.7007
   38MOL0     H 5220   5.261   1.535   3.001 -0.0630  0.2406  1.2089
   38MOL0     H 5221   5.257   1.570   3.171 -2.5567  0.1808 -1.0998
   38MOL0     H 5222   5.199   1.309   3.208 -1.2403 -0.5669  0.8794
   38MOL0     H 5223   5.171   1.306   3.035  0.6681  1.1248 -0.3170
   38MOL0     H 5224   5.817   1.936   2.891  0.6891 -0.8069  0.6551
   38MOL0     H 5225   5.905   2.180   2.919  0.9785  0.2596 -0.4621
   38MOL0     H 5226   6.151   2.476   3.014  3.7556 -3.1593  1.0737
   38MOL0     H 5227   6.224   2.680   3.103  1.1483  0.3381  1.7564
   38MOL0     H 5228   6.033   4.285   2.992 -1.4824  1.2432 -1.4612
   38MOL0     H 5229   5.795   4.351   3.034  0.1345 -1.5525  1.5794
   38MOL0     H 5230   5.430   4.483   2.772 -1.3425  0.6595 -1.8119
   38MOL0     H 5231   5.183   4.560   2.779 -3.7596 -0.1907  1.1956
   38MOL0     H 5232   4.901   4.268   2.804  1.0184 -0.2406 -0.3602
   38MOL0     H 5233   4.871   4.321   2.977 -0.9347  0.7821 -0.8051
   38MOL0     H 5234   4.734   4.523   2.895 -1.3052  1.2334 -1.8887
   38MOL0     H 5235   4.668   4.371   2.834 -0.0900 -0.0729  1.0731
   38MOL0     H 5236   4.789   4.620   2.724  3.8462  0.7027  0.0569
   38MOL0     H 5237   4.872   4.475   2.656 -0.5828 -2.6760  2.0906
   38MOL0     H 5238   4.558   4.490   2.639 -0.4561 -1.1793  0.7358
   38MOL0     H 5239   4.661   4.391   2.556 -0.9471 -0.3959  1.2876
   38MOL0     H 5240   4.664   4.779   2.343  2.4127  1.6461  2.2532
   38MOL0     H 5241   5.088   4.183   2.955  2.5950 -1.7706 -1.3427
   38MOL0     H 5242   5.366   4.015   2.866  4.9705  0.4362  1.1437
   38MOL0     H 5243   5.399   4.066   3.037  0.8751  3.2236 -0.7452
   38MOL0     H 5244   5.236   4.027   2.991 -1.5028  0.0419 -2.3905
   39MOL0     O 5245   4.997   0.894   6.172 -0.0271  0.1082  0.3939
   39MOL0     C 5246   4.926   0.894   6.267 -0.4446  0.1186 -0.2141
   39MOL0     O 5247   4.958   0.888   6.404  0.7086  0.8173 -0.5279
   39MOL0     C 5248   5.080   0.877   6.449 -0.0949  0.1726 -0.6913
   39MOL0     C 5249   5.116   0.938   6.573 -0.4990 -0.5867  0.0161
   39MOL0     C 5250   5.242   0.940   6.631  0.5418  0.1573 -0.4021
   39MOL0     C 5251   5.341   0.877   6.562 -0.4229  0.1959  0.1085
   39MOL0     O 5252   5.472   0.869   6.607 -0.3855 -0.3161 -0.5890
   39MOL0     C 5253   5.575   0.917   6.517 -0.0663  0.6660 -0.1579
   39MOL0     C 5254   5.717   0.884   6.580  0.0142 -0.2401 -0.5320
   39MOL0     C 5255   5.818   0.940   6.483 -0.0477 -0.0865 -0.5421
   39MOL0     C 5256   5.833   1.089   6.483 -0.0620 -1.0007  0.6404
   39MOL0     C 5257   5.970   1.133   6.427  0.5248 -0.2949 -0.1513
   39MOL0     C 5258   5.994   1.287   6.450 -0.0664 -0.4328 -0.7480
   39MOL0     C 5259   6.076   1.355   6.333 -0.0371  1.7518  0.5045
   39MOL0     C 5260   6.089   1.505   6.376  0.7801 -0.1158  0.8858
   39MOL0     N 5261   5.958   1.574   6.367  0.4290 -0.6413 -0.8395
   39MOL0     C 5262   5.918   1.661   6.467  0.8007 -0.0087  0.0191
   39MOL0     C 5263   5.857   1.764   6.411 -0.6267  0.0020 -0.3795
   39MOL0     C 5264   5.765   1.866   6.476 -0.3315  0.2240  0.3939
   39MOL0     C 5265   5.627   1.809   6.503 -0.3593 -0.4803  0.3589
   39MOL0     C 5266   5.511   1.914   6.514 -0.4882 -0.4996 -0.3550
   39MOL0     C 5267   5.545   2.003   6.637  0.1754  0.2959  0.6678
   39MOL0     O 5268   5.548   1.921   6.751  0.4268 -0.2413 -0.1124
   39MOL0     C 5269   5.554   1.986   6.872 -0.0699 -0.1317  0.0114
   39MOL0     C 5270   5.564   1.896   6.978  0.2012 -0.5537 -0.7978
   39MOL0     C 5271   5.560   1.941   7.112 -0.2910  0.7983  0.2051
   39MOL0     C 5272   5.575   1.833   7.214 -0.1221  0.7018 -0.4558
   39MOL0     C 5273   5.540   2.081   7.144  0.5954 -0.5242  0.9857
   39MOL0     C 5274   5.540   2.137   7.286 -0.2891 -0.1416 -1.2539
   39MOL0     O 5275   5.510   2.281   7.292 -0.5720 -0.6477  0.6600
   39MOL0     C 5276   5.512   2.329   7.427 -0.2159  0.1345  0.6843
   39MOL0     C 5277   5.384   2.304   7.475  0.0522 -0.3773 -0.6275
   39MOL0     C 5278   5.363   2.330   7.610 -0.6034 -0.7274  0.3759
   39MOL0     C 5279   5.449   2.403   7.689  0.0483  0.2965  0.0903
   39MOL0     O 5280   5.437   2.432   7.826  0.1107 -0.2109  0.4880
   39MOL0     C 5281   5.333   2.358   7.906  0.3552  0.1631 -0.0077
   39MOL0     C 5282   5.315   2.433   8.031  0.6515 -0.3798  0.1430
   39MOL0     C 5283   5.361   2.576   8.041  0.0210 -0.6406 -0.6653
   39MOL0     C 5284   5.294   2.666   8.146 -0.0959 -0.2838 -0.5810
   39MOL0     C 5285   5.357   2.813   8.144 -0.4054 -0.3213  0.2993
   39MOL0     C 5286   5.291   2.902   8.254  0.0521 -0.1757 -0.4222
   39MOL0     C 5287   5.310   3.063   8.231 -0.0902 -0.1048  0.6023
   39MOL0     C 5288   5.454   3.102   8.222 -1.2857  0.7474 -0.6956
   39MOL0    Cl 5289   5.534   3.069   8.073  0.4657 -0.3244 -0.1774
   39MOL0     C 5290   5.573   2.436   7.627  0.2047 -0.3155  0.0379
   39MOL0     C 5291   5.604   2.393   7.496  0.2450  0.5485  0.7978
   39MOL0     O 5292   5.568   2.065   7.382  0.3390 -0.2030  0.3784
   39MOL0     C 5293   5.509   2.170   7.036  0.1714  0.9361  1.2187
   39MOL0     C 5294   5.523   2.124   6.895  0.5730  0.0201 -0.3102
   39MOL0     N 5295   5.856   1.747   6.278 -0.1369  0.0084  0.6943
   39MOL0     N 5296   5.920   1.638   6.251 -0.2250 -0.2664  0.3745
   39MOL0     C 5297   5.302   0.809   6.438 -0.0474  0.8142  0.0359
   39MOL0     C 5298   5.177   0.812   6.381  0.1786 -0.6606 -0.6160
   39MOL0     C 5299   4.779   0.900   6.225 -0.1311  0.1464 -0.3342
   39MOL0     C 5300   4.691   0.924   6.332  0.0298 -0.2313 -1.2521
   39MOL0     C 5301   4.555   0.915   6.301  0.3919  0.8938 -0.6075
   39MOL0     C 5302   4.505   0.876   6.183 -0.5578 -0.3970  0.3823
   39MOL0     O 5303   4.369   0.870   6.162 -0.0409 -0.1303 -0.0934
   39MOL0     C 5304   4.315   1.000   6.131 -0.8397  0.6405 -0.3365
   39MOL0     C 5305   4.209   0.984   6.027  0.6083  0.0143 -0.3944
   39MOL0     C 5306   4.259   0.921   5.899 -0.2960  0.2243 -0.4075
   39MOL0     C 5307   4.136   0.901   5.802 -0.8645  0.9222 -0.2544
   39MOL0     C 5308   4.179   0.809   5.693 -0.0465  0.7249 -0.7296
   39MOL0     C 5309   4.218   0.718   5.619  1.0758 -0.5008  0.0814
   39MOL0     C 5310   4.594   0.870   6.080 -0.0476  0.2609  0.5436
   39MOL0     C 5311   4.734   0.883   6.092  0.2690  0.2663  0.0255
   39MOL0     C 5312   4.816   0.868   5.969 -0.1610  0.4918  1.1486
   39MOL0     H 5313   5.040   0.972   6.643 -0.5051  1.3015 -0.8293
   39MOL0     H 5314   5.261   0.982   6.729 -1.9944 -0.0756  0.2583
   39MOL0     H 5315   5.559   1.025   6.507 -0.2216  0.4791 -2.4894
   39MOL0     H 5316   5.576   0.871   6.418 -1.1864  1.0408 -0.3512
   39MOL0     H 5317   5.720   0.925   6.682  2.5028  0.6853 -0.9175
   39MOL0     H 5318   5.727   0.777   6.603 -1.6133 -1.4826 -4.6567
   39MOL0     H 5319   5.915   0.892   6.493  1.0576  2.3241  1.1260
   39MOL0     H 5320   5.787   0.911   6.382  0.8226  0.2165 -0.9042
   39MOL0     H 5321   5.751   1.130   6.424 -0.6993  0.6997  2.6151
   39MOL0     H 5322   5.839   1.138   6.580  3.0137  1.3088 -0.5330
   39MOL0     H 5323   5.974   1.099   6.323 -0.9935 -1.9942  0.2833
   39MOL0     H 5324   6.051   1.085   6.482 -1.3437 -1.1610  2.0460
   39MOL0     H 5325   5.900   1.343   6.454  0.7544  0.9165  1.3187
   39MOL0     H 5326   6.043   1.288   6.548 -0.5944  0.1467 -0.4833
   39MOL0     H 5327   6.018   1.343   6.240 -0.7431  1.9581  0.9075
   39MOL0     H 5328   6.174   1.308   6.325 -1.8510 -2.9335  2.2176
   39MOL0     H 5329   6.135   1.512   6.474 -0.0830  0.9126  1.2311
   39MOL0     H 5330   6.164   1.553   6.313  1.0859 -1.3130  0.3118
   39MOL0     H 5331   5.938   1.647   6.573  1.1280 -0.5066 -0.1059
   39MOL0     H 5332   5.743   1.947   6.406 -3.7581 -2.0201 -1.4510
   39MOL0     H 5333   5.814   1.913   6.561  0.8472 -0.2683  0.0069
   39MOL0     H 5334   5.593   1.737   6.428 -0.4486  2.0036 -2.1225
   39MOL0     H 5335   5.634   1.746   6.592 -0.3141 -0.7882  0.1398
   39MOL0     H 5336   5.524   1.973   6.422  3.0721 -1.7338 -0.7864
   39MOL0     H 5337   5.410   1.874   6.522 -0.9722  0.5851 -0.8333
   39MOL0     H 5338   5.643   2.051   6.636  0.4596 -0.1594 -2.2175
   39MOL0     H 5339   5.476   2.086   6.653  0.0710  0.2561  0.4421
   39MOL0     H 5340   5.594   1.792   6.977 -0.0212 -0.6388  0.2569
   39MOL0     H 5341   5.482   1.822   7.271  0.7234  2.1803  1.3413
   39MOL0     H 5342   5.653   1.856   7.288  1.0260  2.1111 -2.0443
   39MOL0     H 5343   5.602   1.743   7.157  1.3403  0.8111  0.0144
   39MOL0     H 5344   5.300   2.258   7.423 -2.5446 -0.2160  2.9868
   39MOL0     H 5345   5.270   2.298   7.658  0.2886 -3.8051  0.2640
   39MOL0     H 5346   5.232   2.348   7.865  0.6001 -3.4193 -0.0060
   39MOL0     H 5347   5.373   2.262   7.938  3.1860  1.7476  1.6279
   39MOL0     H 5348   5.209   2.436   8.057  0.3793  1.3537 -1.0126
   39MOL0     H 5349   5.351   2.376   8.116 -0.6625 -0.1240  0.8999
   39MOL0     H 5350   5.335   2.623   7.946 -0.7097 -0.5143 -0.4129
   39MOL0     H 5351   5.469   2.576   8.056 -0.2095 -2.3835  1.7299
   39MOL0     H 5352   5.301   2.620   8.246  1.0380  1.3942  0.1587
   39MOL0     H 5353   5.187   2.681   8.129 -0.7091 -2.5889  0.7906
   39MOL0     H 5354   5.465   2.807   8.160 -0.3629  1.9406  1.2389
   39MOL0     H 5355   5.337   2.861   8.048  5.9060  2.1258 -0.2928
   39MOL0     H 5356   5.337   2.884   8.352 -1.1761 -2.7490 -0.2195
   39MOL0     H 5357   5.182   2.891   8.250 -0.1671  1.8642 -0.9524
   39MOL0     H 5358   5.265   3.122   8.311  0.5857 -2.8705  3.2264
   39MOL0     H 5359   5.255   3.104   8.146 -3.3383  2.1813  3.5200
   39MOL0     H 5360   5.494   3.066   8.317 -1.0504  1.4662 -0.5141
   39MOL0     H 5361   5.452   3.212   8.224 -1.0748  0.7624  1.8106
   39MOL0     H 5362   5.658   2.474   7.683 -1.3417  2.1525  0.9177
   39MOL0     H 5363   5.704   2.407   7.458 -0.9816  1.8651 -2.3000
   39MOL0     H 5364   5.511   2.276   7.056 -0.5100  0.9064  1.4823
   39MOL0     H 5365   5.520   2.199   6.817  0.9967  1.7849  1.2857
   39MOL0     H 5366   5.373   0.750   6.381 -0.4954 -1.9222  2.0957
   39MOL0     H 5367   5.141   0.765   6.291  0.8848 -1.4700 -0.4884
   39MOL0     H 5368   4.720   0.946   6.434  0.3332 -2.1884 -0.8729
   39MOL0     H 5369   4.484   0.946   6.377  0.7489  1.0608 -0.3359
   39MOL0     H 5370   4.280   1.046   6.223  0.8920  1.9671 -0.3105
   39MOL0     H 5371   4.390   1.061   6.081  1.2184 -2.2212 -0.9507
   39MOL0     H 5372   4.158   1.080   6.017 -1.3668 -0.9197  0.3104
   39MOL0     H 5373   4.151   0.899   6.064 -1.0189  1.2819  0.0483
   39MOL0     H 5374   4.338   0.979   5.849 -0.5717  0.7172 -0.2801
   39MOL0     H 5375   4.306   0.827   5.929  0.1519  1.1836  2.0929
   39MOL0     H 5376   4.102   0.994   5.758  0.5396  0.9480 -1.3550
   39MOL0     H 5377   4.050   0.863   5.858 -3.1271  2.5768 -2.3871
   39MOL0     H 5378   4.260   0.643   5.555  1.3617  0.4934 -0.9100
   39MOL0     H 5379   4.559   0.841   5.981  1.3327  0.1875  0.0502
   39MOL0     H 5380   4.880   0.957   5.968  0.6802 -0.1041  0.6229
   39MOL0     H 5381   4.866   0.773   5.987 -0.8154 -0.6206 -2.1738
   39MOL0     H 5382   4.755   0.865   5.878 -0.7424 -1.7880  1.5380
   40MOL0     O 5383   0.590   1.846   7.834  0.2373 -1.1531  0.2277
   40MOL0     C 5384   0.559   1.923   7.923 -0.9179 -0.3440 -0.3365
   40MOL0     O 5385   0.635   2.015   7.982  0.5369  0.8194 -0.2439
   40MOL0     C 5386   0.741   2.073   7.916 -0.1871  0.9891  0.3570
   40MOL0     C 5387   0.785   2.064   7.781  0.2446  0.8979 -0.1170
   40MOL0     C 5388   0.894   2.135   7.731  0.0912 -0.0188 -0.4771
   40MOL0     C 5389   0.963   2.223   7.821  0.2613  0.3147  0.2271
   40MOL0     O 5390   1.070   2.283   7.759 -0.2571 -0.4647 -0.1938
   40MOL0     C 5391   1.141   2.403   7.815 -0.5849  0.8698 -0.4935
   40MOL0     C 5392   1.214   2.466   7.703  0.2635 -0.3073  0.4861
   40MOL0     C 5393   1.290   2.596   7.725  0.6642 -0.3525 -0.2583
   40MOL0     C 5394   1.409   2.576   7.818 -0.3393 -0.4156  0.3555
   40MOL0     C 5395   1.460   2.713   7.881  0.3532  0.9621 -0.3639
   40MOL0     C 5396   1.610   2.709   7.906 -0.3828  0.6495  0.2034
   40MOL0     C 5397   1.671   2.840   7.950  0.4737  0.6270  0.3315
   40MOL0     C 5398   1.825   2.824   7.952 -1.0840 -0.2487 -0.4531
   40MOL0     N 5399   1.888   2.947   8.002  0.1523 -0.6192 -0.5398
   40MOL0     C 5400   1.910   2.987   8.135 -0.0742 -0.3569  0.1404
   40MOL0     C 5401   1.974   3.102   8.127  0.7353 -0.5442  0.1955
   40MOL0     C 5402   2.048   3.173   8.239  0.1569 -0.6581  0.4299
   40MOL0     C 5403   2.154   3.077   8.319 -0.0051  0.1769 -0.3253
   40MOL0     C 5404   2.252   3.159   8.409  0.0348 -0.2676 -0.4223
   40MOL0     C 5405   2.183   3.187   8.542  0.1729  0.0431  0.5098
   40MOL0     O 5406   2.106   3.308   8.517  0.4327 -0.1288  0.0292
   40MOL0     C 5407   2.001   3.331   8.612  0.1507  0.1310 -0.7078
   40MOL0     C 5408   2.017   3.295   8.750 -0.5319 -0.4180 -1.1557
   40MOL0     C 5409   1.931   3.323   8.852 -0.2781  0.6491  0.3485
   40MOL0     C 5410   1.962   3.282   8.990 -0.2842 -0.5505  0.9876
   40MOL0     C 5411   1.814   3.395   8.816  0.2348 -0.1316  0.1050
   40MOL0     C 5412   1.706   3.449   8.912  0.0706 -0.1485 -0.0167
   40MOL0     O 5413   1.640   3.556   8.877  0.7536 -0.3077  0.0940
   40MOL0     C 5414   1.542   3.624   8.949 -0.1144  0.5859  0.1050
   40MOL0     C 5415   1.436   3.690   8.885 -0.4631 -0.0033 -1.0419
   40MOL0     C 5416   1.334   3.751   8.960 -0.3932 -0.1363  1.2601
   40MOL0     C 5417   1.342   3.771   9.092 -0.5930  0.0974  0.1840
   40MOL0     O 5418   1.256   3.847   9.176  0.6437  0.5796  0.2514
   40MOL0     C 5419   1.174   3.952   9.114 -0.2158  0.4531 -0.4011
   40MOL0     C 5420   1.231   4.088   9.137  0.5937  0.0864 -0.3110
   40MOL0     C 5421   1.149   4.205   9.086  0.0520  0.8393 -0.3062
   40MOL0     C 5422   1.112   4.205   8.936 -0.8801  0.2815  1.1876
   40MOL0     C 5423   0.967   4.249   8.914 -0.4234 -0.0172  0.2812
   40MOL0     C 5424   0.916   4.270   8.765  0.0482  0.8730 -1.1290
   40MOL0     C 5425   0.874   4.135   8.710  0.3237  0.0943 -1.1277
   40MOL0     C 5426   0.802   4.148   8.572  0.0766 -0.3617  0.1462
   40MOL0    Cl 5427   0.645   4.242   8.586 -0.0308 -0.1350  0.1908
   40MOL0     C 5428   1.445   3.705   9.159  0.3896 -0.3548  0.0336
   40MOL0     C 5429   1.545   3.629   9.089 -0.8599 -1.4415 -0.2782
   40MOL0     O 5430   1.671   3.385   9.017 -0.9589 -0.0681 -0.0038
   40MOL0     C 5431   1.789   3.427   8.676 -0.5685 -0.1503 -0.2339
   40MOL0     C 5432   1.881   3.398   8.576 -0.4164 -0.0620  0.9910
   40MOL0     N 5433   1.992   3.140   7.997 -1.1108  0.3852  0.0193
   40MOL0     N 5434   1.937   3.043   7.927 -0.1399  0.5597 -0.5190
   40MOL0     C 5435   0.926   2.243   7.950  0.6560 -0.3360 -0.3779
   40MOL0     C 5436   0.822   2.159   8.007 -0.0874  0.2965  0.3048
   40MOL0     C 5437   0.433   1.900   7.983 -0.4005 -0.2115 -0.4118
   40MOL0     C 5438   0.389   1.764   7.990 -0.0188 -0.2669  0.5988
   40MOL0     C 5439   0.279   1.737   8.065 -0.2496  0.7099  0.3846
   40MOL0     C 5440   0.199   1.837   8.119  0.3640 -0.2846  0.2765
   40MOL0     O 5441   0.089   1.814   8.191  0.2923  1.3616  0.9225
   40MOL0     C 5442   0.031   1.678   8.167 -0.7101 -0.1190  0.1190
   40MOL0     C 5443  -0.115   1.687   8.202 -0.3801  0.4545 -0.4465
   40MOL0     C 5444  -0.197   1.776   8.108 -0.0035 -0.0398 -0.1216
   40MOL0     C 5445  -0.348   1.777   8.147 -0.4771  0.1194  0.2696
   40MOL0     C 5446  -0.408   1.645   8.122 -0.0836 -0.6396 -0.0595
   40MOL0     C 5447  -0.447   1.529   8.109  0.3965  0.0947 -1.1709
   40MOL0     C 5448   0.233   1.974   8.096 -0.8675  0.4723 -0.5319
   40MOL0     C 5449   0.356   2.001   8.037  0.1373  0.7852 -0.2490
   40MOL0     C 5450   0.391   2.142   8.021  0.4668  0.3476  0.0336
   40MOL0     H 5451   0.731   1.999   7.713  4.1250 -0.0239 -2.6420
   40MOL0     H 5452   0.909   2.131   7.624  0.3976  1.6716 -0.5221
   40MOL0     H 5453   1.216   2.377   7.890  0.4843  2.8021 -0.8060
   40MOL0     H 5454   1.072   2.477   7.857  0.5818  1.7200 -0.0076
   40MOL0     H 5455   1.286   2.396   7.661 -2.2677 -1.5386 -2.0742
   40MOL0     H 5456   1.145   2.477   7.620  1.7195  2.9649 -0.4583
   40MOL0     H 5457   1.335   2.654   7.643  4.0502  1.4889  2.6113
   40MOL0     H 5458   1.223   2.665   7.777  1.7649  1.6404 -1.3182
   40MOL0     H 5459   1.377   2.510   7.899 -3.3001  1.0416  0.4963
   40MOL0     H 5460   1.487   2.514   7.773 -1.1264 -1.1234 -0.0687
   40MOL0     H 5461   1.402   2.734   7.971 -2.1514 -0.7083 -1.4737
   40MOL0     H 5462   1.426   2.797   7.820 -1.4737 -0.6423 -1.6996
   40MOL0     H 5463   1.608   2.626   7.977  0.9504  2.2931  2.2756
   40MOL0     H 5464   1.661   2.668   7.819 -1.3169 -1.1007  0.4232
   40MOL0     H 5465   1.641   2.867   8.052  1.0235 -1.3816  1.0594
   40MOL0     H 5466   1.652   2.916   7.874  0.0638  0.4399  0.2455
   40MOL0     H 5467   1.854   2.738   8.012 -0.6393 -0.5463 -1.0941
   40MOL0     H 5468   1.855   2.799   7.850 -1.4743 -0.5197 -0.5036
   40MOL0     H 5469   1.889   2.933   8.227 -1.1161 -1.7463 -0.8674
   40MOL0     H 5470   1.965   3.203   8.303 -0.2538  0.3092 -0.5274
   40MOL0     H 5471   2.097   3.266   8.211  1.6351 -0.4991  3.1842
   40MOL0     H 5472   2.107   2.999   8.380  0.1779 -0.7573 -1.3430
   40MOL0     H 5473   2.209   3.024   8.241 -1.7038 -2.3434  0.0609
   40MOL0     H 5474   2.338   3.098   8.437  1.9127  2.7782  0.9035
   40MOL0     H 5475   2.285   3.247   8.354 -0.3660  0.2300  0.1255
   40MOL0     H 5476   2.128   3.098   8.576  0.0580 -0.1725 -0.2408
   40MOL0     H 5477   2.259   3.208   8.618  0.0748  0.4758  0.4914
   40MOL0     H 5478   2.103   3.236   8.780 -0.0189  0.6619 -0.4617
   40MOL0     H 5479   1.968   3.357   9.069  0.1912 -0.1135  0.5477
   40MOL0     H 5480   2.058   3.232   9.007 -2.3035 -4.1073  3.0721
   40MOL0     H 5481   1.889   3.211   9.029  0.0568 -1.0248  0.7666
   40MOL0     H 5482   1.432   3.685   8.777  3.6815 -0.4205 -1.3510
   40MOL0     H 5483   1.256   3.778   8.889 -1.9408 -1.7141  2.2826
   40MOL0     H 5484   1.165   3.918   9.010  0.2660  0.0980 -0.3332
   40MOL0     H 5485   1.075   3.954   9.160 -0.6033  1.3802 -1.2511
   40MOL0     H 5486   1.226   4.098   9.246 -1.4194 -3.9308  0.1539
   40MOL0     H 5487   1.334   4.095   9.101  0.2639 -0.4076 -1.3728
   40MOL0     H 5488   1.217   4.289   9.107 -2.3371  2.4960  1.3364
   40MOL0     H 5489   1.062   4.222   9.150 -1.9801 -2.5301 -1.9333
   40MOL0     H 5490   1.127   4.104   8.899  4.0084  0.3066  2.4659
   40MOL0     H 5491   1.191   4.265   8.888 -2.7255  2.2910  0.4821
   40MOL0     H 5492   0.894   4.191   8.970 -0.2305  1.2338  1.8933
   40MOL0     H 5493   0.960   4.348   8.960  2.2430  0.0016  0.8176
   40MOL0     H 5494   1.003   4.305   8.709  2.3066  1.1832  2.2675
   40MOL0     H 5495   0.830   4.338   8.767 -0.8462 -0.2527  0.3876
   40MOL0     H 5496   0.792   4.101   8.775 -0.4256  0.8317 -1.6635
   40MOL0     H 5497   0.955   4.062   8.717  0.2720 -0.0449 -1.9641
   40MOL0     H 5498   0.763   4.058   8.523 -2.8803  1.4141 -1.0056
   40MOL0     H 5499   0.867   4.199   8.500  0.9098 -3.9441 -1.8949
   40MOL0     H 5500   1.463   3.715   9.266 -1.8958 -2.5985  0.7463
   40MOL0     H 5501   1.633   3.584   9.133  0.6425  0.3154 -1.3653
   40MOL0     H 5502   1.690   3.467   8.660 -0.6179  1.1641  2.7516
   40MOL0     H 5503   1.858   3.430   8.475  1.6657  0.8579  0.7603
   40MOL0     H 5504   0.990   2.298   8.018 -2.0913  4.1376 -0.9978
   40MOL0     H 5505   0.792   2.170   8.110 -1.1178 -0.4107  0.0999
   40MOL0     H 5506   0.442   1.675   7.956  1.3955 -0.2738  2.6187
   40MOL0     H 5507   0.263   1.629   8.067  3.4480 -0.0010 -0.9570
   40MOL0     H 5508   0.052   1.639   8.067  0.2003 -2.7039  1.2244
   40MOL0     H 5509   0.084   1.611   8.235 -0.5111  0.6201  0.7032
   40MOL0     H 5510  -0.135   1.704   8.308 -2.8774  1.0798 -0.9483
   40MOL0     H 5511  -0.151   1.584   8.205 -3.1753  1.1414 -3.9808
   40MOL0     H 5512  -0.155   1.876   8.101  3.5125 -1.1355  2.5379
   40MOL0     H 5513  -0.196   1.713   8.018 -2.7791 -0.5287  0.0942
   40MOL0     H 5514  -0.393   1.866   8.102 -0.3034 -1.1555 -2.6271
   40MOL0     H 5515  -0.370   1.777   8.254  0.7099 -0.5057  0.5303
   40MOL0     H 5516  -0.465   1.423   8.110 -0.7877  0.2633  1.0350
   40MOL0     H 5517   0.162   2.035   8.151 -0.5226  1.7249 -1.4391
   40MOL0     H 5518   0.482   2.158   8.079  2.0479  1.1055 -2.4901
   40MOL0     H 5519   0.428   2.166   7.921  1.1711  1.8865  0.6253
   40MOL0     H 5520   0.314   2.214   8.052  1.7438  1.7582  0.0633
   41MOL0     O 5521   0.146   1.008   4.455  0.2029  0.3224  0.6377
   41MOL0     C 5522   0.136   1.116   4.408 -0.0637  0.7072 -0.6176
   41MOL0     O 5523   0.087   1.142   4.280 -0.4453 -0.3819 -0.9943
   41MOL0     C 5524   0.101   1.057   4.171 -0.4802 -0.0636  0.3284
   41MOL0     C 5525   0.199   0.957   4.168  0.0542  0.7965 -0.1339
   41MOL0     C 5526   0.205   0.868   4.067  0.5622  0.4406  0.6152
   41MOL0     C 5527   0.117   0.883   3.953  0.1681  0.4678 -0.6609
   41MOL0     O 5528   0.103   0.808   3.846  0.7490  0.3381 -0.6420
   41MOL0     C 5529   0.216   0.730   3.810 -0.0801  1.0090  0.5704
   41MOL0     C 5530   0.188   0.661   3.677 -0.1045 -0.0162 -0.2793
   41MOL0     C 5531   0.289   0.553   3.634  0.9163  0.3022 -0.5286
   41MOL0     C 5532   0.428   0.603   3.606  0.2449  0.7619 -1.2031
   41MOL0     C 5533   0.531   0.633   3.722  0.3903 -0.3360  0.1475
   41MOL0     C 5534   0.640   0.718   3.647 -1.2526  0.5005  0.1424
   41MOL0     C 5535   0.695   0.639   3.523  0.1549 -0.5263 -0.7657
   41MOL0     C 5536   0.796   0.732   3.456 -0.7923 -1.4072 -0.0263
   41MOL0     N 5537   0.933   0.688   3.499 -0.2711 -0.1443  0.4954
   41MOL0     C 5538   1.005   0.748   3.596 -0.7130 -0.2188  0.5553
   41MOL0     C 5539   1.132   0.723   3.552 -0.6125  0.0479  1.3554
   41MOL0     C 5540   1.254   0.767   3.631  0.3849  1.2191  0.3375
   41MOL0     C 5541   1.282   0.676   3.757 -0.0919  0.2960 -0.5253
   41MOL0     C 5542   1.348   0.537   3.723 -0.4130 -1.5473  0.0526
   41MOL0     C 5543   1.339   0.459   3.850 -0.4075  0.3831  0.0976
   41MOL0     O 5544   1.355   0.318   3.809 -0.1572  0.4620  0.3532
   41MOL0     C 5545   1.328   0.224   3.905  0.3248  0.5427 -0.2645
   41MOL0     C 5546   1.283   0.256   4.033  0.0666 -0.0561 -0.5389
   41MOL0     C 5547   1.258   0.152   4.127  0.7905 -0.0972 -0.0609
   41MOL0     C 5548   1.223   0.191   4.276 -0.1848 -0.1932  0.0743
   41MOL0     C 5549   1.271   0.015   4.079 -0.4194 -0.6094 -0.2372
   41MOL0     C 5550   1.281  -0.102   4.175 -0.0543  0.5898 -0.2202
   41MOL0     O 5551   1.334  -0.215   4.119  0.2611 -0.3475 -1.2230
   41MOL0     C 5552   1.341  -0.323   4.203 -0.1062  0.5638  0.3295
   41MOL0     C 5553   1.430  -0.330   4.315  1.0652 -0.0293 -0.5324
   41MOL0     C 5554   1.450  -0.456   4.383 -0.0885 -0.4448  0.1953
   41MOL0     C 5555   1.381  -0.567   4.337 -1.2646  0.1530 -0.0308
   41MOL0     O 5556   1.391  -0.685   4.409 -0.5360  0.3795  0.4505
   41MOL0     C 5557   1.447  -0.685   4.539  0.5861  1.3641 -1.1936
   41MOL0     C 5558   1.382  -0.813   4.589  0.5234 -0.5874  0.6694
   41MOL0     C 5559   1.448  -0.862   4.715 -0.3283  1.0117 -1.0689
   41MOL0     C 5560   1.375  -0.984   4.774 -0.3537 -0.2995  2.2348
   41MOL0     C 5561   1.236  -0.960   4.830 -0.8647 -0.1100 -0.1969
   41MOL0     C 5562   1.215  -1.088   4.910  0.9329 -0.5669  1.3010
   41MOL0     C 5563   1.083  -1.094   4.981  0.6987  0.4671 -0.7730
   41MOL0     C 5564   1.085  -1.016   5.112  0.7891 -0.1836  0.2022
   41MOL0    Cl 5565   1.218  -1.035   5.227 -0.3681 -0.1226 -0.4878
   41MOL0     C 5566   1.283  -0.551   4.239  0.4020  0.8264  0.1010
   41MOL0     C 5567   1.258  -0.432   4.173  0.2849  0.2102  0.5173
   41MOL0     O 5568   1.230  -0.100   4.288  0.0869  0.2916  0.2892
   41MOL0     C 5569   1.295  -0.010   3.947  0.3818 -0.2120 -0.1026
   41MOL0     C 5570   1.332   0.093   3.855  0.0832  0.3931 -0.0838
   41MOL0     N 5571   1.144   0.661   3.429 -0.4234 -0.8485 -0.7966
   41MOL0     N 5572   1.020   0.625   3.409  0.6609 -0.0457  0.5129
   41MOL0     C 5573   0.028   0.991   3.955 -0.1139 -0.2457  0.1645
   41MOL0     C 5574   0.026   1.082   4.060  1.1110 -0.1103 -0.0451
   41MOL0     C 5575   0.141   1.238   4.489  0.4755 -0.6362 -0.0599
   41MOL0     C 5576   0.200   1.345   4.430  0.8261  0.7345  0.9316
   41MOL0     C 5577   0.229   1.465   4.487 -0.9574  0.7014 -1.3996
   41MOL0     C 5578   0.183   1.481   4.625 -0.2077  0.0713  0.8087
   41MOL0     O 5579   0.229   1.575   4.705 -1.0272  0.1599  0.4956
   41MOL0     C 5580   0.308   1.684   4.651 -0.3661 -0.0820  0.8156
   41MOL0     C 5581   0.336   1.787   4.754 -0.7016 -0.7158  0.8381
   41MOL0     C 5582   0.479   1.762   4.815 -0.4236 -0.4087 -0.4734
   41MOL0     C 5583   0.470   1.796   4.964 -0.1975  0.8721 -0.6137
   41MOL0     C 5584   0.415   1.927   5.000  0.0530 -1.1777 -0.2881
   41MOL0     C 5585   0.368   2.037   4.992 -1.0191 -0.6421  0.6980
   41MOL0     C 5586   0.112   1.380   4.691  0.3167  0.0855 -0.3439
   41MOL0     C 5587   0.092   1.254   4.619 -0.5354 -0.8250  0.2755
   41MOL0     C 5588   0.046   1.128   4.696  0.9768  0.1857  0.2005
   41MOL0     H 5589   0.261   0.933   4.254 -0.3147 -1.3087 -0.4188
   41MOL0     H 5590   0.274   0.784   4.067  0.3902  0.2717  1.9638
   41MOL0     H 5591   0.218   0.649   3.884 -4.8910  0.3682  0.3243
   41MOL0     H 5592   0.309   0.787   3.798  1.1285 -1.3742 -2.7198
   41MOL0     H 5593   0.093   0.612   3.699 -0.4748  1.0132  0.5224
   41MOL0     H 5594   0.155   0.729   3.597  0.8703 -0.0297 -0.7054
   41MOL0     H 5595   0.288   0.479   3.714  1.9224 -0.8342 -1.5166
   41MOL0     H 5596   0.248   0.502   3.546 -1.6461 -0.8093  1.2043
   41MOL0     H 5597   0.459   0.512   3.555  1.5677 -0.8653  2.2110
   41MOL0     H 5598   0.431   0.693   3.544 -2.7152  4.0767  2.8526
   41MOL0     H 5599   0.576   0.549   3.776  1.9646  0.6522  0.4476
   41MOL0     H 5600   0.491   0.700   3.799 -0.5586  0.0640 -0.6749
   41MOL0     H 5601   0.577   0.800   3.612 -0.3811  1.0702 -0.1106
   41MOL0     H 5602   0.720   0.760   3.709 -0.2025 -1.0025 -0.1436
   41MOL0     H 5603   0.614   0.622   3.451 -1.4500 -1.5891  1.2235
   41MOL0     H 5604   0.744   0.544   3.542 -0.7737 -0.5245  1.9700
   41MOL0     H 5605   0.774   0.713   3.351 -2.4538 -3.3395  0.6030
   41MOL0     H 5606   0.781   0.837   3.480 -0.2829 -0.8417 -2.0262
   41MOL0     H 5607   0.965   0.800   3.683 -0.8083  0.9094 -0.1446
   41MOL0     H 5608   1.238   0.870   3.663  0.6176  1.2382  0.3978
   41MOL0     H 5609   1.343   0.757   3.568  0.1812 -0.2581  0.2440
   41MOL0     H 5610   1.351   0.742   3.809  0.8070  1.2467 -2.8331
   41MOL0     H 5611   1.186   0.666   3.810  0.7858  1.8358  1.4814
   41MOL0     H 5612   1.282   0.490   3.649  0.1536 -1.1621 -0.7084
   41MOL0     H 5613   1.449   0.547   3.684  0.8368 -6.1749  1.4351
   41MOL0     H 5614   1.419   0.483   3.921  1.5672  0.0755 -1.9325
   41MOL0     H 5615   1.240   0.473   3.895 -0.7452  2.2556 -1.1408
   41MOL0     H 5616   1.275   0.355   4.077 -0.9513 -0.4411  0.1806
   41MOL0     H 5617   1.311   0.205   4.340  0.0355 -5.1758  1.2501
   41MOL0     H 5618   1.148   0.127   4.324 -1.1326  0.4674 -0.4749
   41MOL0     H 5619   1.191   0.296   4.274 -0.2545 -0.0663  3.2384
   41MOL0     H 5620   1.485  -0.237   4.330  2.0699 -0.7129  0.1704
   41MOL0     H 5621   1.513  -0.453   4.471 -1.2288  2.3263  1.0550
   41MOL0     H 5622   1.553  -0.711   4.544  0.0700 -0.6306  2.1188
   41MOL0     H 5623   1.420  -0.599   4.600 -1.1019  0.2960 -0.3427
   41MOL0     H 5624   1.277  -0.785   4.604  0.9094  0.2542  1.9817
   41MOL0     H 5625   1.388  -0.889   4.511 -0.9704  0.3672 -0.4391
   41MOL0     H 5626   1.448  -0.782   4.789  1.6498  1.3035 -1.3201
   41MOL0     H 5627   1.555  -0.879   4.696 -0.1396 -0.6423  0.9838
   41MOL0     H 5628   1.448  -1.007   4.852  0.3579  2.8463  2.6529
   41MOL0     H 5629   1.368  -1.058   4.694  1.3538  2.0373 -0.2820
   41MOL0     H 5630   1.235  -0.880   4.904 -1.2569  0.2887 -0.6219
   41MOL0     H 5631   1.155  -0.942   4.759 -2.0350 -4.2125 -0.1980
   41MOL0     H 5632   1.291  -1.076   4.988  4.2647  0.5929 -1.8323
   41MOL0     H 5633   1.228  -1.176   4.845 -1.4167 -1.8405  2.4217
   41MOL0     H 5634   1.079  -1.200   5.009  3.2621  0.9734  1.9781
   41MOL0     H 5635   0.993  -1.077   4.921 -0.0437 -1.8562 -0.4461
   41MOL0     H 5636   0.994  -1.044   5.166  1.0335 -1.2481  0.0839
   41MOL0     H 5637   1.086  -0.909   5.090  1.4022 -0.5335 -1.6661
   41MOL0     H 5638   1.214  -0.632   4.215  2.2891 -0.9681  0.4644
   41MOL0     H 5639   1.186  -0.414   4.094  3.0710  0.7142 -2.1038
   41MOL0     H 5640   1.306  -0.102   3.890  1.5430 -0.2591  0.1758
   41MOL0     H 5641   1.348   0.079   3.749 -0.0813 -0.3515 -0.0139
   41MOL0     H 5642  -0.045   1.005   3.877  0.1924  1.0988  0.0882
   41MOL0     H 5643  -0.051   1.159   4.056 -0.1490 -1.3440 -3.1739
   41MOL0     H 5644   0.235   1.332   4.328 -0.9106 -1.3078  0.5260
   41MOL0     H 5645   0.286   1.542   4.436  1.1797  1.3024  1.6247
   41MOL0     H 5646   0.403   1.640   4.619 -0.4807 -0.3774  0.8786
   41MOL0     H 5647   0.255   1.730   4.567 -0.7395 -0.2959  0.9291
   41MOL0     H 5648   0.257   1.789   4.831  1.3269  3.7828  3.2025
   41MOL0     H 5649   0.329   1.884   4.702 -0.4733 -0.6160  0.9914
   41MOL0     H 5650   0.506   1.656   4.808  1.3034  0.1010 -3.3228
   41MOL0     H 5651   0.561   1.807   4.758  0.5408  0.3349  1.3972
   41MOL0     H 5652   0.565   1.784   5.017 -0.2678 -0.7953 -0.8085
   41MOL0     H 5653   0.404   1.721   5.008  2.1786 -0.8677  0.1991
   41MOL0     H 5654   0.315   2.128   4.968 -2.0978 -1.2865  0.5593
   41MOL0     H 5655   0.062   1.400   4.785 -1.5836  0.2134 -1.3341
   41MOL0     H 5656   0.124   1.052   4.707  1.7880  0.7326 -1.4547
   41MOL0     H 5657   0.026   1.152   4.801 -0.2711 -1.2421  0.3304
   41MOL0     H 5658  -0.046   1.089   4.652 -0.1625  0.4973  2.1474
   42MOL0     O 5659   6.424  11.364   9.206  0.2504  0.2254  0.4389
   42MOL0     C 5660   6.432  11.371   9.085 -1.0829 -0.1639 -0.7445
   42MOL0     O 5661   6.364  11.293   8.988  0.2236 -0.0668 -0.4814
   42MOL0     C 5662   6.290  11.182   9.023 -0.0856 -0.4280  0.4297
   42MOL0     C 5663   6.338  11.083   9.110 -0.5329 -0.6961 -0.0110
   42MOL0     C 5664   6.269  10.968   9.136 -1.0586 -0.2357 -0.2863
   42MOL0     C 5665   6.139  10.943   9.088 -0.3794 -0.5047 -0.1250
   42MOL0     O 5666   6.057  10.846   9.150  0.7398 -0.6315  0.0797
   42MOL0     C 5667   6.037  10.731   9.075  0.4148 -0.5922 -0.1322
   42MOL0     C 5668   5.947  10.637   9.148  0.2371 -0.3268  0.1193
   42MOL0     C 5669   5.993  10.593   9.287  0.2136  0.0560 -0.3406
   42MOL0     C 5670   5.890  10.510   9.368 -0.0550  0.4223 -0.0553
   42MOL0     C 5671   5.948  10.463   9.509 -0.4744 -0.1170 -0.2634
   42MOL0     C 5672   5.858  10.350   9.567 -0.0957 -0.1575 -0.5928
   42MOL0     C 5673   5.918  10.299   9.700 -0.6820  0.2489 -0.6135
   42MOL0     C 5674   5.866  10.169   9.750  1.1154 -0.9955 -0.2298
   42MOL0     N 5675   5.737  10.208   9.823  0.7199  1.4787  0.0095
   42MOL0     C 5676   5.728  10.251   9.952  0.1952 -0.0065  0.0885
   42MOL0     C 5677   5.613  10.291   9.972  0.9245  0.3693 -0.4748
   42MOL0     C 5678   5.566  10.361  10.093 -0.0358  0.1919  0.0466
   42MOL0     C 5679   5.527  10.260  10.205  0.4831 -0.4276  0.5037
   42MOL0     C 5680   5.504  10.325  10.338  0.3593 -0.2024  0.8198
   42MOL0     C 5681   5.456  10.205  10.424  0.5060 -0.0601 -0.6283
   42MOL0     O 5682   5.581  10.143  10.461  0.2918  0.3905  0.5835
   42MOL0     C 5683   5.582  10.014  10.485 -0.6587 -0.1347  0.0056
   42MOL0     C 5684   5.665   9.926  10.415  0.6759 -1.1063 -0.5615
   42MOL0     C 5685   5.674   9.792  10.448 -0.1324  0.0757 -0.6377
   42MOL0     C 5686   5.761   9.698  10.379 -0.1928  1.1714  0.2033
   42MOL0     C 5687   5.594   9.743  10.561  0.1463  0.2280  0.6608
   42MOL0     C 5688   5.594   9.604  10.613 -0.2700  0.0471 -0.2031
   42MOL0     O 5689   5.605   9.593  10.757  0.0776  0.0980 -0.4657
   42MOL0     C 5690   5.564   9.471  10.809 -0.6835  1.0011  0.1103
   42MOL0     C 5691   5.654   9.410  10.898 -1.0768 -0.3731  0.2956
   42MOL0     C 5692   5.620   9.291  10.958 -0.0373  0.1266  0.2636
   42MOL0     C 5693   5.501   9.231  10.938  0.6450  0.5937  0.2691
   42MOL0     O 5694   5.459   9.127  11.008  0.2467 -0.0129 -0.0759
   42MOL0     C 5695   5.413   9.164  11.137 -0.1142  0.2463  0.1570
   42MOL0     C 5696   5.308   9.065  11.193  1.3711  0.5042  0.5789
   42MOL0     C 5697   5.178   9.060  11.111 -0.5727 -0.3400 -0.5461
   42MOL0     C 5698   5.088   8.944  11.151  0.3137  0.6285  0.7488
   42MOL0     C 5699   4.978   8.948  11.031 -0.5906  0.7942  0.2574
   42MOL0     C 5700   4.859   8.859  11.075 -0.4855  0.1700 -0.4012
   42MOL0     C 5701   4.746   8.910  10.980 -0.0196  0.6719  0.7610
   42MOL0     C 5702   4.661   8.796  10.931  0.8653  0.5615  0.6171
   42MOL0    Cl 5703   4.744   8.666  10.849  0.3646  0.4158  0.3928
   42MOL0     C 5704   5.405   9.299  10.853 -0.5477  0.6232  0.6974
   42MOL0     C 5705   5.438   9.419  10.787 -0.1487  0.1275  0.5858
   42MOL0     O 5706   5.598   9.507  10.531  1.1642  0.1008 -0.0191
   42MOL0     C 5707   5.523   9.841  10.638  0.2974 -0.9151 -0.2104
   42MOL0     C 5708   5.515   9.977  10.601  0.0423  0.3281  0.8761
   42MOL0     N 5709   5.530  10.240   9.867 -0.0505  0.1156 -0.7745
   42MOL0     N 5710   5.611  10.194   9.777 -0.5164 -0.0587  0.8112
   42MOL0     C 5711   6.094  11.033   8.988 -0.5145  0.6649  0.1504
   42MOL0     C 5712   6.169  11.148   8.959 -0.3787 -0.5008 -0.1069
   42MOL0     C 5713   6.530  11.467   9.036 -0.4887  0.6690  0.3749
   42MOL0     C 5714   6.528  11.599   9.077 -0.8269  0.4379  0.2001
   42MOL0     C 5715   6.611  11.693   9.022  0.4920 -0.7813  0.7910
   42MOL0     C 5716   6.682  11.666   8.906  0.6284  0.5408  0.5949
   42MOL0     O 5717   6.732  11.754   8.814  0.1095  0.1332  0.8457
   42MOL0     C 5718   6.682  11.892   8.805  0.1902  0.9147 -0.7002
   42MOL0     C 5719   6.722  11.936   8.667  0.9573  0.1275  0.6101
   42MOL0     C 5720   6.625  11.896   8.555 -0.2930  0.6925  0.6501
   42MOL0     C 5721   6.671  11.959   8.425 -0.6465 -0.2108 -0.8866
   42MOL0     C 5722   6.610  11.879   8.322  0.0008  0.2272 -0.2657
   42MOL0     C 5723   6.545  11.821   8.227 -0.4091  0.5074  0.4131
   42MOL0     C 5724   6.707  11.531   8.877  0.3289 -0.1686  0.1709
   42MOL0     C 5725   6.633  11.429   8.944  0.2427  0.2842  0.0614
   42MOL0     C 5726   6.640  11.283   8.907 -0.4211  0.1758 -0.4757
   42MOL0     H 5727   6.441  11.095   9.144  0.2686 -6.8922  0.8670
   42MOL0     H 5728   6.328  10.902   9.200  1.6659  0.8175 -1.5523
   42MOL0     H 5729   6.137  10.689   9.061 -0.9436 -4.0399 -0.5404
   42MOL0     H 5730   5.991  10.738   8.976  0.4371 -2.6117 -0.3351
   42MOL0     H 5731   5.841  10.666   9.146  0.1093 -0.7928 -0.6294
   42MOL0     H 5732   5.943  10.542   9.094 -1.0206 -1.5566  2.2430
   42MOL0     H 5733   6.095  10.553   9.293  0.6064  1.1696  0.6279
   42MOL0     H 5734   5.986  10.687   9.342 -1.5192  0.1350 -0.6451
   42MOL0     H 5735   5.800  10.570   9.381  0.0655  0.5749  0.0774
   42MOL0     H 5736   5.858  10.427   9.305 -4.0766  1.5871  0.1544
   42MOL0     H 5737   5.963  10.546   9.579 -2.2894 -1.5394  1.9464
   42MOL0     H 5738   6.045  10.414   9.491 -1.3591 -2.6663  1.3775
   42MOL0     H 5739   5.751  10.366   9.581  0.0636  0.7350 -0.3920
   42MOL0     H 5740   5.868  10.261   9.503  1.1868  0.2063 -0.9306
   42MOL0     H 5741   5.910  10.376   9.777  2.7648 -0.3531  0.4752
   42MOL0     H 5742   6.026  10.283   9.692 -0.8835 -0.5515 -2.2495
   42MOL0     H 5743   5.850  10.095   9.671  2.4927 -0.8375 -0.6882
   42MOL0     H 5744   5.928  10.124   9.828  1.0535  2.1625  1.8320
   42MOL0     H 5745   5.820  10.265  10.008 -0.4063 -2.2686  1.7753
   42MOL0     H 5746   5.485  10.430  10.069  0.5007  0.6789 -0.3605
   42MOL0     H 5747   5.645  10.418  10.143  0.1610 -1.2341  1.4600
   42MOL0     H 5748   5.441  10.204  10.167 -0.4726  1.3594 -0.1020
   42MOL0     H 5749   5.610  10.190  10.217  1.0139  0.1734  0.3884
   42MOL0     H 5750   5.595  10.367  10.382  1.6195 -2.5067  0.5331
   42MOL0     H 5751   5.426  10.400  10.319  0.0411 -0.8416 -0.4720
   42MOL0     H 5752   5.407  10.239  10.515 -2.3074  0.2076 -2.1425
   42MOL0     H 5753   5.385  10.138  10.375  0.5599  0.8755 -2.0158
   42MOL0     H 5754   5.722   9.973  10.335 -1.4353  1.4569 -0.6707
   42MOL0     H 5755   5.813   9.736  10.291  2.2605 -0.6320  0.7348
   42MOL0     H 5756   5.690   9.622  10.345 -2.6261  1.3616  4.2437
   42MOL0     H 5757   5.838   9.657  10.445  0.3596  1.9742  0.0720
   42MOL0     H 5758   5.753   9.452  10.913 -2.1737  3.3642 -1.6230
   42MOL0     H 5759   5.687   9.246  11.030  0.1329 -1.0501 -0.5890
   42MOL0     H 5760   5.508   9.156  11.192  0.9095 -4.8393 -1.7354
   42MOL0     H 5761   5.372   9.265  11.141 -0.4155  0.7517 -5.8766
   42MOL0     H 5762   5.345   8.963  11.207  0.5257  0.0872 -0.1546
   42MOL0     H 5763   5.290   9.107  11.293 -2.1262  0.3896  0.1151
   42MOL0     H 5764   5.206   9.058  11.005 -2.2230  1.8997 -1.1127
   42MOL0     H 5765   5.115   9.149  11.114 -2.2739 -1.3962 -2.2052
   42MOL0     H 5766   5.036   8.954  11.246 -0.1489  2.4393  0.3395
   42MOL0     H 5767   5.152   8.856  11.141  0.7579  1.1918 -3.0878
   42MOL0     H 5768   4.946   9.051  11.013  1.5097  1.7881  1.7596
   42MOL0     H 5769   5.022   8.908  10.939 -0.3573  2.4689 -0.3940
   42MOL0     H 5770   4.834   8.887  11.178  2.0066 -0.8757  0.5792
   42MOL0     H 5771   4.881   8.753  11.059 -2.2564  0.2166 -4.1818
   42MOL0     H 5772   4.786   8.946  10.884  0.7494 -2.3559 -0.1787
   42MOL0     H 5773   4.695   8.996  11.024  2.5670  1.9362  1.4821
   42MOL0     H 5774   4.591   8.833  10.855  1.0115  4.5646  2.1549
   42MOL0     H 5775   4.607   8.751  11.015 -2.0013  2.7860  0.1588
   42MOL0     H 5776   5.308   9.251  10.842  0.8433 -2.3917  0.5738
   42MOL0     H 5777   5.376   9.481  10.723 -2.5143 -3.0860 -0.5246
   42MOL0     H 5778   5.473   9.827  10.733 -0.4963  1.5322 -0.1919
   42MOL0     H 5779   5.461  10.049  10.662  0.0732  0.1116  1.1591
   42MOL0     H 5780   5.997  11.015   8.945  0.5314  3.0651 -3.6636
   42MOL0     H 5781   6.133  11.225   8.891  1.7314  0.4976 -0.1785
   42MOL0     H 5782   6.464  11.630   9.158 -1.6949  0.5453 -0.5053
   42MOL0     H 5783   6.594  11.792   9.065  1.4987  1.4645 -3.3756
   42MOL0     H 5784   6.577  11.897   8.837  0.5038  1.5843  0.2867
   42MOL0     H 5785   6.739  11.955   8.874  0.4254  1.6635 -1.5478
   42MOL0     H 5786   6.827  11.910   8.646  1.5491  1.6365  1.5260
   42MOL0     H 5787   6.716  12.045   8.668  1.9058  0.1932  0.9987
   42MOL0     H 5788   6.625  11.788   8.534  0.5041  1.0555 -1.5089
   42MOL0     H 5789   6.522  11.927   8.575 -1.1711 -1.9679  0.6485
   42MOL0     H 5790   6.778  11.934   8.422 -0.3293  0.8407  0.6888
   42MOL0     H 5791   6.652  12.066   8.416 -0.5931 -0.2674 -1.7564
   42MOL0     H 5792   6.503  11.766   8.146  1.7317  3.6745 -3.1770
   42MOL0     H 5793   6.767  11.494   8.794 -0.2959 -2.0894  0.5247
   42MOL0     H 5794   6.744  11.274   8.873 -0.3174  1.8014 -0.6842
   42MOL0     H 5795   6.620  11.214   8.989  5.6840 -0.1695  1.2232
   42MOL0     H 5796   6.579  11.261   8.819 -0.6367 -1.3283  0.0334
   43MOL0     O 5797   0.088   6.308   6.551 -0.8555  0.2371 -0.8506
   43MOL0     C 5798   0.005   6.271   6.469  0.1957 -0.0222  0.4355
   43MOL0     O 5799  -0.025   6.332   6.348 -0.2623  0.2225 -0.4268
   43MOL0     C 5800   0.078   6.398   6.293 -0.1164  0.0474  0.8754
   43MOL0     C 5801   0.140   6.341   6.174  0.2502 -0.3332 -0.0148
   43MOL0     C 5802   0.213   6.414   6.089 -0.9551 -1.0182 -0.2912
   43MOL0     C 5803   0.233   6.551   6.108  0.4376  0.5235 -0.2104
   43MOL0     O 5804   0.323   6.600   6.022 -0.1298 -0.1671  0.4348
   43MOL0     C 5805   0.294   6.728   5.956  0.0927  0.8843  0.3188
   43MOL0     C 5806   0.401   6.827   6.016 -0.0854  0.1506 -0.0280
   43MOL0     C 5807   0.398   6.943   5.918 -0.4527 -0.5433  0.7883
   43MOL0     C 5808   0.489   6.927   5.800 -0.7227 -0.7470 -0.2130
   43MOL0     C 5809   0.498   7.072   5.734  0.4414 -0.8372  0.2458
   43MOL0     C 5810   0.628   7.087   5.656 -0.9806 -0.1984  0.1020
   43MOL0     C 5811   0.636   7.229   5.575 -0.0075 -0.0801 -0.0030
   43MOL0     C 5812   0.606   7.341   5.670 -0.1503 -0.1753  0.5355
   43MOL0     N 5813   0.679   7.464   5.623 -0.5050 -0.3272  0.5408
   43MOL0     C 5814   0.796   7.511   5.669 -0.2965  0.0829  0.2844
   43MOL0     C 5815   0.825   7.627   5.605  0.4250 -0.9381 -0.1660
   43MOL0     C 5816   0.939   7.725   5.610  0.3508  0.1581 -0.0969
   43MOL0     C 5817   0.979   7.786   5.469  0.6067  0.4226 -0.4012
   43MOL0     C 5818   1.113   7.858   5.465 -0.1993  0.3286 -0.9540
   43MOL0     C 5819   1.131   7.976   5.561  0.6144 -0.3300 -0.3504
   43MOL0     O 5820   1.014   8.056   5.562  0.2998 -0.6138  0.6168
   43MOL0     C 5821   0.991   8.143   5.456 -0.2023  0.4549  0.2788
   43MOL0     C 5822   0.851   8.169   5.421 -0.8213  0.9176  0.0817
   43MOL0     C 5823   0.819   8.267   5.321  0.0195  0.0981 -0.5796
   43MOL0     C 5824   0.676   8.265   5.276 -0.2713  0.4595 -0.4478
   43MOL0     C 5825   0.916   8.341   5.252 -0.4054  0.3986 -1.0026
   43MOL0     C 5826   0.883   8.461   5.171 -0.3777 -0.3552 -0.4319
   43MOL0     O 5827   0.969   8.487   5.071  1.1554 -0.6408 -0.4815
   43MOL0     C 5828   0.987   8.609   5.016  0.3752 -1.1566  0.2793
   43MOL0     C 5829   0.870   8.697   4.992 -0.1779  0.0147 -0.0319
   43MOL0     C 5830   0.886   8.835   4.949  0.6229 -0.6949  0.7297
   43MOL0     C 5831   1.017   8.887   4.947  0.1813  0.7079 -0.6689
   43MOL0     O 5832   1.022   9.024   4.910 -1.2254 -0.5662  0.1179
   43MOL0     C 5833   1.149   9.089   4.889  0.4881  0.2344  0.5804
   43MOL0     C 5834   1.135   9.246   4.862 -0.3508  1.3830 -0.2433
   43MOL0     C 5835   1.046   9.275   4.735 -0.4985  0.1497 -0.0287
   43MOL0     C 5836   1.031   9.423   4.713 -0.7098  0.4404  0.2962
   43MOL0     C 5837   0.980   9.449   4.573  0.3861 -0.2005 -0.0931
   43MOL0     C 5838   0.964   9.595   4.552  0.2628 -0.3292 -0.2599
   43MOL0     C 5839   0.884   9.628   4.422  0.6060 -0.2828 -0.0055
   43MOL0     C 5840   0.903   9.767   4.366 -0.2824  0.2937 -0.8076
   43MOL0    Cl 5841   1.057   9.797   4.268 -0.1333  0.2219 -0.3180
   43MOL0     C 5842   1.128   8.805   4.962 -0.4068 -0.0970  0.7888
   43MOL0     C 5843   1.109   8.670   4.995 -0.1096  0.5455  0.1999
   43MOL0     O 5844   0.774   8.521   5.195  0.0940  0.0310 -0.1762
   43MOL0     C 5845   1.049   8.310   5.292  1.4603 -0.3202  0.6750
   43MOL0     C 5846   1.087   8.224   5.393 -1.0807 -0.2276 -0.3579
   43MOL0     N 5847   0.723   7.652   5.510  0.4676  0.0913  0.6157
   43MOL0     N 5848   0.638   7.551   5.522  0.4058 -0.7471  0.6900
   43MOL0     C 5849   0.182   6.615   6.224 -0.0302 -0.3010 -0.1888
   43MOL0     C 5850   0.111   6.538   6.321  0.0888  1.4988 -1.0850
   43MOL0     C 5851  -0.073   6.147   6.514 -0.1297 -1.0881 -0.0212
   43MOL0     C 5852  -0.017   6.084   6.622 -0.5551 -0.0441 -1.4354
   43MOL0     C 5853  -0.068   5.958   6.663  0.4702 -0.0206  0.2419
   43MOL0     C 5854  -0.183   5.904   6.608  0.3406 -0.4038 -0.9017
   43MOL0     O 5855  -0.253   5.802   6.664  1.1729  0.3510  0.0292
   43MOL0     C 5856  -0.251   5.781   6.807  0.7634 -0.0147  0.2855
   43MOL0     C 5857  -0.285   5.634   6.858  0.3701 -0.1234 -0.8174
   43MOL0     C 5858  -0.402   5.578   6.782  0.3204 -0.0355  0.5181
   43MOL0     C 5859  -0.543   5.641   6.826 -0.2733  0.0886  0.2275
   43MOL0     C 5860  -0.560   5.775   6.764  0.0056  0.1016  0.8919
   43MOL0     C 5861  -0.572   5.883   6.706 -0.2195 -0.3997 -1.0720
   43MOL0     C 5862  -0.243   5.975   6.508  0.1440 -0.0726  0.6096
   43MOL0     C 5863  -0.192   6.098   6.457 -0.5232  0.1363 -0.6272
   43MOL0     C 5864  -0.267   6.160   6.343  0.5474 -0.0287 -0.4075
   43MOL0     H 5865   0.106   6.242   6.145  1.3824 -0.8212  0.2788
   43MOL0     H 5866   0.243   6.378   5.991  1.0327  0.1988 -0.1764
   43MOL0     H 5867   0.188   6.751   5.965  0.2771  1.9567 -0.0133
   43MOL0     H 5868   0.308   6.711   5.849 -1.4117 -1.2552  0.4125
   43MOL0     H 5869   0.365   6.863   6.113 -1.6202  0.2389 -0.6121
   43MOL0     H 5870   0.502   6.784   6.013  0.0554  0.4908 -0.2128
   43MOL0     H 5871   0.296   6.973   5.891 -1.1384 -3.6529 -0.4947
   43MOL0     H 5872   0.445   7.028   5.968  0.9079 -0.3527 -0.7587
   43MOL0     H 5873   0.590   6.906   5.836 -0.5426  2.5463  1.6484
   43MOL0     H 5874   0.453   6.850   5.732 -2.9772 -0.6203  0.7661
   43MOL0     H 5875   0.502   7.151   5.809 -0.8707  2.3512 -2.7629
   43MOL0     H 5876   0.413   7.098   5.670  2.8999  0.9320 -2.5846
   43MOL0     H 5877   0.724   7.077   5.708 -0.8572  2.0101  0.4146
   43MOL0     H 5878   0.629   7.004   5.585 -0.5065 -0.2660  0.1837
   43MOL0     H 5879   0.568   7.225   5.490 -0.3908 -2.6912  0.3212
   43MOL0     H 5880   0.733   7.245   5.528 -0.4852 -1.2898 -1.4707
   43MOL0     H 5881   0.497   7.356   5.673 -0.6205 -3.1451  1.9202
   43MOL0     H 5882   0.644   7.312   5.768  3.8975  0.5758 -0.6177
   43MOL0     H 5883   0.856   7.469   5.749 -0.7378  0.1787  0.6709
   43MOL0     H 5884   1.025   7.667   5.644  1.4240  1.8828  0.2777
   43MOL0     H 5885   0.903   7.805   5.675 -2.9823  1.0330 -2.7457
   43MOL0     H 5886   0.995   7.700   5.404  1.1540  2.0680 -2.5741
   43MOL0     H 5887   0.894   7.836   5.422  0.4422  0.1649 -0.3802
   43MOL0     H 5888   1.191   7.782   5.472 -1.3099 -0.9405 -1.9938
   43MOL0     H 5889   1.126   7.895   5.363  1.4247  0.1445 -0.8419
   43MOL0     H 5890   1.156   7.945   5.663 -2.5100 -4.1199 -0.5360
   43MOL0     H 5891   1.215   8.037   5.527  0.0800  1.5149  1.4086
   43MOL0     H 5892   0.774   8.118   5.477 -1.3489  2.6644  1.0221
   43MOL0     H 5893   0.636   8.166   5.296  1.6566 -0.4778 -1.0028
   43MOL0     H 5894   0.670   8.293   5.170 -2.3573 -0.1843 -0.5536
   43MOL0     H 5895   0.623   8.334   5.343 -2.0636 -0.9575 -0.3472
   43MOL0     H 5896   0.771   8.657   5.006 -1.7141  3.4991  0.1014
   43MOL0     H 5897   0.802   8.901   4.929  0.3381 -1.7885 -2.1973
   43MOL0     H 5898   1.217   9.080   4.974  0.5743  2.8312  0.8611
   43MOL0     H 5899   1.185   9.043   4.796 -2.2513  0.0138 -0.4853
   43MOL0     H 5900   1.094   9.294   4.951 -2.7674  0.0717 -0.5667
   43MOL0     H 5901   1.234   9.288   4.842 -0.5263  2.1715  0.5133
   43MOL0     H 5902   0.944   9.236   4.744  0.0519 -1.2978  0.3282
   43MOL0     H 5903   1.096   9.226   4.650  1.2522  2.5053 -0.4493
   43MOL0     H 5904   1.132   9.463   4.718  0.5946 -2.6850  2.2650
   43MOL0     H 5905   0.975   9.481   4.786 -0.3123  0.2954  0.7189
   43MOL0     H 5906   1.049   9.412   4.497  0.7442 -0.5838  0.4124
   43MOL0     H 5907   0.884   9.397   4.558  0.6652 -1.1321  1.1831
   43MOL0     H 5908   1.064   9.641   4.552 -0.3052  1.0222 -2.2599
   43MOL0     H 5909   0.899   9.638   4.629 -1.8020 -0.1032 -2.0574
   43MOL0     H 5910   0.776   9.612   4.433  0.2066  3.0948  2.8096
   43MOL0     H 5911   0.915   9.558   4.344  1.2122  1.9488 -1.8631
   43MOL0     H 5912   0.904   9.853   4.434 -1.5484  0.4845 -1.0061
   43MOL0     H 5913   0.817   9.789   4.302  0.7693  0.9641 -2.0383
   43MOL0     H 5914   1.228   8.844   4.946 -0.8394  2.1798  3.0695
   43MOL0     H 5915   1.199   8.610   4.999  0.9773  1.6603 -3.5185
   43MOL0     H 5916   1.137   8.366   5.261  3.7383 -1.9738  3.6002
   43MOL0     H 5917   1.189   8.218   5.428 -1.2479 -4.0020 -0.0587
   43MOL0     H 5918   0.199   6.720   6.245  1.3974 -0.0168 -2.3807
   43MOL0     H 5919   0.070   6.585   6.409  2.7557  0.2470  0.9666
   43MOL0     H 5920   0.085   6.095   6.658 -0.4579 -1.8442 -1.0339
   43MOL0     H 5921  -0.017   5.907   6.744 -0.7504 -1.1631  0.3146
   43MOL0     H 5922  -0.153   5.806   6.850  0.3956 -0.7347  1.5832
   43MOL0     H 5923  -0.325   5.852   6.844  1.3582  2.2602 -2.4508
   43MOL0     H 5924  -0.309   5.625   6.964 -0.4627 -0.9058 -1.0622
   43MOL0     H 5925  -0.195   5.575   6.837  0.1006 -0.1869 -1.8350
   43MOL0     H 5926  -0.369   5.593   6.679 -0.3128  2.6680  0.6532
   43MOL0     H 5927  -0.417   5.472   6.806  1.6505 -0.5743 -0.8684
   43MOL0     H 5928  -0.556   5.674   6.930  1.8179  6.5296 -1.0596
   43MOL0     H 5929  -0.621   5.567   6.808 -0.9243  0.6248  0.8064
   43MOL0     H 5930  -0.578   5.982   6.666  0.7044  1.3935  2.7300
   43MOL0     H 5931  -0.334   5.933   6.467  0.3614  0.7411 -0.7611
   43MOL0     H 5932  -0.349   6.209   6.398 -0.5009 -0.9081 -1.1353
   43MOL0     H 5933  -0.211   6.238   6.291 -0.4540  1.3937  0.5667
   43MOL0     H 5934  -0.297   6.083   6.272  1.6294 -2.6382  1.8049
   44MOL0     O 5935   6.690   1.420   9.259  0.1568 -0.0800  0.0794
   44MOL0     C 5936   6.722   1.510   9.338  0.2423 -0.0094  0.6567
   44MOL0     O 5937   6.841   1.574   9.322 -0.0490 -0.5935 -0.5224
   44MOL0     C 5938   6.934   1.581   9.430 -0.9368 -0.8725  0.6047
   44MOL0     C 5939   6.934   1.507   9.542  0.3217 -0.7434 -0.4670
   44MOL0     C 5940   7.027   1.528   9.645  1.4568  1.0182  0.5042
   44MOL0     C 5941   7.131   1.612   9.621 -0.9774 -0.0096 -0.1900
   44MOL0     O 5942   7.232   1.635   9.714 -0.3897 -0.7192  0.0113
   44MOL0     C 5943   7.362   1.603   9.656  0.3209 -0.2372 -0.6256
   44MOL0     C 5944   7.470   1.619   9.772  0.0265  0.6501  0.3275
   44MOL0     C 5945   7.454   1.515   9.878  0.6742  0.9470 -0.2982
   44MOL0     C 5946   7.574   1.532   9.978 -0.4147 -0.4498 -0.4953
   44MOL0     C 5947   7.576   1.429  10.089 -1.4699 -1.1297  0.7669
   44MOL0     C 5948   7.622   1.495  10.213 -1.1257  0.5652 -0.6182
   44MOL0     C 5949   7.596   1.421  10.340 -0.0407 -1.3005 -0.7335
   44MOL0     C 5950   7.715   1.427  10.428  1.0512  0.1351 -0.0127
   44MOL0     N 5951   7.726   1.561  10.482  0.1563 -0.4033  0.2357
   44MOL0     C 5952   7.653   1.630  10.582 -0.7405 -0.3396  0.1610
   44MOL0     C 5953   7.717   1.750  10.608 -0.7696  0.3544 -0.2179
   44MOL0     C 5954   7.657   1.851  10.706  0.6221  0.7423 -0.4358
   44MOL0     C 5955   7.744   1.862  10.834 -1.0248  0.5722 -0.0189
   44MOL0     C 5956   7.684   1.956  10.942  0.9173 -0.2145 -0.7179
   44MOL0     C 5957   7.729   1.915  11.086 -0.2745 -0.5436 -0.0291
   44MOL0     O 5958   7.697   1.776  11.122  0.7263 -0.2156  0.5431
   44MOL0     C 5959   7.711   1.732  11.252 -0.2964  0.4490 -0.0792
   44MOL0     C 5960   7.711   1.588  11.267  0.2897  0.0249  0.0723
   44MOL0     C 5961   7.720   1.541  11.397 -0.0225 -0.2964 -0.1246
   44MOL0     C 5962   7.728   1.386  11.410  0.6601 -0.1974 -0.0485
   44MOL0     C 5963   7.721   1.625  11.515  0.1847  0.5120  0.0532
   44MOL0     C 5964   7.718   1.576  11.652  0.9095 -0.1506  0.4864
   44MOL0     O 5965   7.611   1.499  11.693  0.7054  0.9138  0.3250
   44MOL0     C 5966   7.594   1.489  11.827  0.1618  0.7642 -0.7408
   44MOL0     C 5967   7.686   1.455  11.919 -0.5861 -0.5975  0.4870
   44MOL0     C 5968   7.648   1.443  12.053  0.0207  0.3353  0.6017
   44MOL0     C 5969   7.513   1.444  12.094  1.0095  0.0517  0.2830
   44MOL0     O 5970   7.489   1.403  12.223  0.0464  0.6074 -0.0214
   44MOL0     C 5971   7.367   1.445  12.296  0.6200  0.5751  0.7688
   44MOL0     C 5972   7.348   1.391  12.439  0.3646 -0.1940  0.1933
   44MOL0     C 5973   7.472   1.420  12.527  0.3112  0.4827 -0.6555
   44MOL0     C 5974   7.530   1.566  12.528  0.4669  0.5692 -0.3855
   44MOL0     C 5975   7.431   1.668  12.579 -0.0455  0.4358 -0.1231
   44MOL0     C 5976   7.390   1.643  12.720  0.3398 -0.2513 -0.5955
   44MOL0     C 5977   7.310   1.768  12.767 -0.4348  0.1673  1.1260
   44MOL0     C 5978   7.253   1.760  12.911  0.0564 -0.3556  0.5102
   44MOL0    Cl 5979   7.372   1.722  13.035  0.0434 -0.4018  0.0594
   44MOL0     C 5980   7.419   1.461  11.994  0.0195 -0.3610  0.6846
   44MOL0     C 5981   7.458   1.489  11.863  0.0258 -0.6952 -0.7208
   44MOL0     O 5982   7.812   1.617  11.723  0.0385 -1.0643  0.2801
   44MOL0     C 5983   7.723   1.760  11.497  0.6651 -0.3478  0.1420
   44MOL0     C 5984   7.723   1.810  11.363  0.0876 -0.1018 -0.1679
   44MOL0     N 5985   7.824   1.749  10.520 -0.5128 -0.1360 -0.4545
   44MOL0     N 5986   7.830   1.642  10.451  0.2406 -0.2941  0.4385
   44MOL0     C 5987   7.126   1.706   9.520 -0.1975 -0.4034 -0.2956
   44MOL0     C 5988   7.027   1.690   9.417 -0.2136  0.1251  0.6250
   44MOL0     C 5989   6.626   1.551   9.447  1.0147  0.7714  0.0568
   44MOL0     C 5990   6.640   1.675   9.508  0.2148  0.3502  0.4014
   44MOL0     C 5991   6.551   1.710   9.604  0.3104 -0.4171  0.1031
   44MOL0     C 5992   6.445   1.625   9.645 -0.2115 -1.1584  0.9186
   44MOL0     O 5993   6.350   1.662   9.734  0.5268 -0.2964  0.5184
   44MOL0     C 5994   6.375   1.738   9.845 -0.9729 -1.4164  0.0607
   44MOL0     C 5995   6.285   1.704   9.961 -0.4235  0.2195 -0.2331
   44MOL0     C 5996   6.211   1.562   9.962 -0.1462 -0.8734  0.2104
   44MOL0     C 5997   6.084   1.548   9.878  1.1697  0.4660 -0.9809
   44MOL0     C 5998   6.045   1.404   9.874 -0.5010 -0.5020  0.1707
   44MOL0     C 5999   5.988   1.292   9.868 -0.1205 -0.5829 -0.5124
   44MOL0     C 6000   6.439   1.504   9.584 -0.8219  0.8692 -0.1727
   44MOL0     C 6001   6.531   1.456   9.495  0.5006 -0.7090 -0.3458
   44MOL0     C 6002   6.494   1.322   9.433  0.7099 -1.0531 -1.0751
   44MOL0     H 6003   6.866   1.423   9.542  2.1741 -2.3429  0.7411
   44MOL0     H 6004   7.031   1.473   9.738 -3.0713  0.2217  0.4203
   44MOL0     H 6005   7.383   1.685   9.588 -0.3545  1.8497  1.5515
   44MOL0     H 6006   7.364   1.499   9.623  1.5008 -0.8544  1.2167
   44MOL0     H 6007   7.568   1.598   9.729 -0.4528 -0.5118 -0.2605
   44MOL0     H 6008   7.468   1.723   9.806 -0.0576  0.7868 -0.0902
   44MOL0     H 6009   7.362   1.516   9.938 -0.3691 -2.5340 -1.6243
   44MOL0     H 6010   7.453   1.414   9.837 -0.7357  0.5570  0.6077
   44MOL0     H 6011   7.676   1.539   9.938 -0.9307 -0.1971 -1.8193
   44MOL0     H 6012   7.564   1.634  10.016 -0.7240 -0.2118 -1.1921
   44MOL0     H 6013   7.649   1.353  10.063 -0.3120  0.0314  0.5081
   44MOL0     H 6014   7.481   1.380  10.114 -0.6311 -2.0468  2.2588
   44MOL0     H 6015   7.724   1.534  10.206 -1.1721  0.5663 -1.3917
   44MOL0     H 6016   7.572   1.590  10.234  0.5134  1.5982 -1.1569
   44MOL0     H 6017   7.570   1.316  10.320  0.6554 -2.1235  2.2683
   44MOL0     H 6018   7.508   1.471  10.382  1.2822  3.0318 -2.5311
   44MOL0     H 6019   7.690   1.366  10.515 -3.2732  1.9347  0.2372
   44MOL0     H 6020   7.801   1.395  10.368  2.0589 -3.4159  2.9030
   44MOL0     H 6021   7.581   1.584  10.648 -2.5846  1.6269 -0.3564
   44MOL0     H 6022   7.558   1.823  10.744  0.1430 -0.0298 -2.1523
   44MOL0     H 6023   7.645   1.945  10.652  2.2089  0.7791 -0.7755
   44MOL0     H 6024   7.760   1.758  10.865 -0.7387 -0.3346 -2.9056
   44MOL0     H 6025   7.842   1.899  10.803  0.0387  0.2144  2.6158
   44MOL0     H 6026   7.710   2.061  10.925 -0.9999  0.3490 -0.4110
   44MOL0     H 6027   7.575   1.945  10.944  0.9045 -0.0231  0.9552
   44MOL0     H 6028   7.836   1.933  11.090 -0.5615  1.3945 -0.2055
   44MOL0     H 6029   7.689   1.989  11.157 -1.0951 -0.6841 -0.3367
   44MOL0     H 6030   7.708   1.520  11.182 -0.2673  0.2732 -0.1081
   44MOL0     H 6031   7.639   1.356  11.465 -0.3764  4.1952  0.9696
   44MOL0     H 6032   7.822   1.354  11.457  1.1341  1.2555  0.0297
   44MOL0     H 6033   7.724   1.333  11.314 -0.8824 -0.1471 -0.0364
   44MOL0     H 6034   7.791   1.429  11.907 -0.4019  0.6191 -0.7378
   44MOL0     H 6035   7.715   1.429  12.137  1.7728  2.2672 -0.3770
   44MOL0     H 6036   7.351   1.553  12.300 -0.6232  0.3773  2.2398
   44MOL0     H 6037   7.284   1.408  12.234  1.1043  1.4521 -0.4490
   44MOL0     H 6038   7.261   1.430  12.492 -0.0825  1.8407 -1.8911
   44MOL0     H 6039   7.349   1.282  12.442  1.6057 -0.2202 -0.2700
   44MOL0     H 6040   7.551   1.360  12.481 -0.7199 -2.5201  1.1994
   44MOL0     H 6041   7.443   1.360  12.614  0.5164 -1.3708 -1.8010
   44MOL0     H 6042   7.560   1.599  12.428  0.1095 -0.0266 -0.6977
   44MOL0     H 6043   7.622   1.571  12.588  0.2041 -2.0696  0.3322
   44MOL0     H 6044   7.470   1.768  12.562 -1.5278  1.5340  2.3468
   44MOL0     H 6045   7.334   1.660  12.529 -0.2232  0.2454  0.2429
   44MOL0     H 6046   7.476   1.628  12.786  1.6219  2.1465 -1.5540
   44MOL0     H 6047   7.327   1.555  12.729 -0.7129  0.3219 -1.9382
   44MOL0     H 6048   7.224   1.771  12.699  0.8257  0.2907 -0.5449
   44MOL0     H 6049   7.381   1.852  12.761 -0.6578  0.3230  0.5951
   44MOL0     H 6050   7.190   1.671  12.907 -0.0913 -0.2027 -0.8653
   44MOL0     H 6051   7.195   1.847  12.942 -2.0244 -2.6474  3.8188
   44MOL0     H 6052   7.313   1.462  12.018  0.0993 -0.1103  1.0292
   44MOL0     H 6053   7.381   1.505  11.789  0.3559  5.0651 -0.2320
   44MOL0     H 6054   7.725   1.832  11.578 -2.5038 -0.3977  0.3942
   44MOL0     H 6055   7.710   1.917  11.352  1.2522  0.0479 -0.1921
   44MOL0     H 6056   7.203   1.783   9.525  0.6075 -0.7980 -3.9310
   44MOL0     H 6057   7.028   1.766   9.340 -1.2841 -0.8482 -0.3778
   44MOL0     H 6058   6.722   1.743   9.487  1.5769 -1.2681  0.3419
   44MOL0     H 6059   6.541   1.813   9.637  2.8793  0.8488 -2.6345
   44MOL0     H 6060   6.477   1.719   9.879 -0.3476 -2.4489 -2.2068
   44MOL0     H 6061   6.375   1.845   9.820  1.8935 -1.7422 -1.8021
   44MOL0     H 6062   6.220   1.791   9.975 -1.0466 -0.4791  1.4433
   44MOL0     H 6063   6.350   1.686  10.048  1.2320 -1.7278 -1.7663
   44MOL0     H 6064   6.292   1.497   9.926  0.7323  1.2082 -1.8457
   44MOL0     H 6065   6.199   1.547  10.070 -1.0191  1.8805  0.5731
   44MOL0     H 6066   6.091   1.575   9.772 -0.0640 -0.6765 -1.3855
   44MOL0     H 6067   6.000   1.600   9.924 -0.5306  0.0281 -3.3884
   44MOL0     H 6068   5.929   1.206   9.843 -1.8309  0.0086  1.2157
   44MOL0     H 6069   6.365   1.439   9.629  1.0556 -0.8244  0.5954
   44MOL0     H 6070   6.435   1.262   9.502 -1.6716  0.0394 -2.0394
   44MOL0     H 6071   6.426   1.342   9.349 -2.4966 -1.2507  1.3030
   44MOL0     H 6072   6.580   1.257   9.419 -0.4661 -2.9435  0.0861
   45MOL0     O 6073   6.167  10.767   3.366 -0.0501  0.0719  0.6104
   45MOL0     C 6074   6.281  10.727   3.366 -0.1117  0.6749  0.7820
   45MOL0     O 6075   6.376  10.776   3.455  0.4928  0.1484  0.2437
   45MOL0     C 6076   6.359  10.890   3.530 -1.6386  0.9562 -0.7812
   45MOL0     C 6077   6.260  10.992   3.522 -0.0748 -0.3608 -0.6255
   45MOL0     C 6078   6.273  11.106   3.604  0.6544  0.0472 -0.7617
   45MOL0     C 6079   6.378  11.127   3.692  0.2805  0.0427 -0.4702
   45MOL0     O 6080   6.389  11.242   3.770 -0.4536  0.2130  0.5763
   45MOL0     C 6081   6.373  11.371   3.716  0.1051 -0.1576  0.2366
   45MOL0     C 6082   6.259  11.444   3.776 -0.2551  0.4068  0.7570
   45MOL0     C 6083   6.230  11.461   3.927 -0.3778  1.0398  0.6054
   45MOL0     C 6084   6.194  11.604   3.982 -0.1658 -1.2665  0.8940
   45MOL0     C 6085   6.176  11.620   4.131 -1.2908  0.5279  0.1899
   45MOL0     C 6086   6.043  11.562   4.181  0.5159  0.2608 -0.0458
   45MOL0     C 6087   6.020  11.588   4.333 -0.1736 -0.5437  0.1735
   45MOL0     C 6088   5.943  11.731   4.364 -0.1750  0.2869  0.3548
   45MOL0     N 6089   5.813  11.753   4.297  0.6987 -0.4055 -0.1737
   45MOL0     C 6090   5.694  11.747   4.361 -0.0240 -1.5997  0.1658
   45MOL0     C 6091   5.599  11.756   4.269 -0.6825 -0.4570 -0.3420
   45MOL0     C 6092   5.456  11.750   4.304  0.7276  0.1357 -0.7775
   45MOL0     C 6093   5.398  11.892   4.336  0.4965 -0.7108 -0.6725
   45MOL0     C 6094   5.345  11.962   4.219  0.4977  0.0871 -0.3578
   45MOL0     C 6095   5.299  12.108   4.236  1.1292  0.6221 -0.6937
   45MOL0     O 6096   5.181  12.110   4.314 -0.1160  0.5363  0.3226
   45MOL0     C 6097   5.203  12.191   4.423 -0.3876 -0.4635 -0.0546
   45MOL0     C 6098   5.257  12.147   4.545  0.8381 -0.4676  0.0530
   45MOL0     C 6099   5.275  12.239   4.651 -0.4071  0.2736  0.0474
   45MOL0     C 6100   5.333  12.167   4.770 -0.4206 -0.2593  0.2622
   45MOL0     C 6101   5.258  12.381   4.638 -0.4167  1.1420  0.9034
   45MOL0     C 6102   5.287  12.490   4.732  0.5937  0.2775 -0.5477
   45MOL0     O 6103   5.342  12.442   4.845 -0.6875  0.2571 -0.5541
   45MOL0     C 6104   5.437  12.515   4.914  0.0578  0.2848  0.1732
   45MOL0     C 6105   5.471  12.650   4.914  0.4482  0.3976 -0.4568
   45MOL0     C 6106   5.557  12.702   5.002 -0.2303 -0.4918  0.2869
   45MOL0     C 6107   5.639  12.620   5.090  1.3242  0.4851 -0.8643
   45MOL0     O 6108   5.737  12.682   5.169  0.2719 -0.0270  0.0911
   45MOL0     C 6109   5.737  12.828   5.175 -0.1189 -0.3784  0.2859
   45MOL0     C 6110   5.834  12.886   5.284  0.8921 -0.0853  0.1983
   45MOL0     C 6111   5.825  13.040   5.308 -0.0527 -1.0681 -0.3678
   45MOL0     C 6112   5.969  13.098   5.287  1.4808  0.0301 -0.8185
   45MOL0     C 6113   5.954  13.248   5.276 -0.7953 -0.2099  0.4363
   45MOL0     C 6114   6.087  13.318   5.297 -0.2063 -0.2978  0.5174
   45MOL0     C 6115   6.194  13.290   5.192 -0.3711 -0.2898  0.8374
   45MOL0     C 6116   6.289  13.405   5.167 -0.8714  0.9271  0.1946
   45MOL0    Cl 6117   6.442  13.348   5.097 -0.4269 -0.2418  0.0413
   45MOL0     C 6118   5.617  12.484   5.087 -0.3110  0.0640 -0.4289
   45MOL0     C 6119   5.517  12.436   4.996 -0.5302 -0.6618 -0.6353
   45MOL0     O 6120   5.264  12.604   4.702  0.1125  0.0392 -0.6903
   45MOL0     C 6121   5.191  12.415   4.520 -0.5289  0.6195 -0.3301
   45MOL0     C 6122   5.175  12.325   4.415 -0.4126  0.2797  0.1184
   45MOL0     N 6123   5.662  11.768   4.144 -0.7928  0.1910 -0.4487
   45MOL0     N 6124   5.791  11.777   4.169  0.7220 -0.2371  0.6340
   45MOL0     C 6125   6.474  11.027   3.705 -0.3936  0.5669  0.3163
   45MOL0     C 6126   6.464  10.905   3.627 -0.9460 -0.9793  1.1482
   45MOL0     C 6127   6.323  10.610   3.277  0.0095 -1.0210  0.3423
   45MOL0     C 6128   6.439  10.544   3.308 -0.5082  0.7820 -0.3928
   45MOL0     C 6129   6.490  10.432   3.229  0.5877 -0.3984  0.4019
   45MOL0     C 6130   6.432  10.402   3.113 -0.7688 -0.5135  0.2543
   45MOL0     O 6131   6.472  10.312   3.015  0.3726 -0.5806 -0.0463
   45MOL0     C 6132   6.564  10.211   3.039 -0.3481  0.3055 -0.4882
   45MOL0     C 6133   6.514  10.119   3.142 -0.7804  0.4048 -0.8428
   45MOL0     C 6134   6.375  10.081   3.145  0.3619  1.4108  0.0718
   45MOL0     C 6135   6.325  10.044   3.283 -0.2655  0.3030  0.1451
   45MOL0     C 6136   6.295  10.161   3.369 -0.2091  0.2518  0.9789
   45MOL0     C 6137   6.294  10.261   3.433 -0.8566 -0.7593 -0.0703
   45MOL0     C 6138   6.313  10.469   3.079 -0.5093  0.7836  0.8769
   45MOL0     C 6139   6.255  10.571   3.157 -0.3707 -0.0607  0.2626
   45MOL0     C 6140   6.129  10.645   3.101  0.1564 -0.3253 -0.1146
   45MOL0     H 6141   6.165  10.994   3.470 -1.9634  1.3665  2.5866
   45MOL0     H 6142   6.206  11.191   3.601 -0.8181 -0.9531  1.0840
   45MOL0     H 6143   6.352  11.371   3.608 -4.1803  0.7919  0.9144
   45MOL0     H 6144   6.468  11.418   3.744  0.5859 -2.2573  2.5123
   45MOL0     H 6145   6.275  11.546   3.738 -2.2265 -0.1921 -1.9830
   45MOL0     H 6146   6.170  11.396   3.734  0.9562 -0.7662 -0.5915
   45MOL0     H 6147   6.145  11.403   3.965  0.1617  2.4181  4.2768
   45MOL0     H 6148   6.330  11.437   3.965  0.7564 -1.3907 -3.3467
   45MOL0     H 6149   6.273  11.671   3.946  0.5243 -1.6792  1.5948
   45MOL0     H 6150   6.104  11.623   3.923  0.7809 -0.5770 -0.3996
   45MOL0     H 6151   6.169  11.726   4.155 -2.7911  0.1593  1.5343
   45MOL0     H 6152   6.265  11.569   4.168  0.4521  2.5384 -0.9952
   45MOL0     H 6153   5.960  11.592   4.117  0.9000 -1.2423 -1.3207
   45MOL0     H 6154   6.052  11.454   4.168 -0.4975  0.2024 -0.3408
   45MOL0     H 6155   6.119  11.585   4.380  0.4109 -2.6976 -1.0560
   45MOL0     H 6156   5.959  11.504   4.367  1.0205 -1.4920  0.0632
   45MOL0     H 6157   5.929  11.715   4.471  0.0849 -2.6287  0.0186
   45MOL0     H 6158   6.019  11.808   4.345  0.9026 -1.1423 -1.4462
   45MOL0     H 6159   5.682  11.729   4.468  1.7670 -0.3742  0.6232
   45MOL0     H 6160   5.427  11.678   4.382 -1.5550 -0.4534 -2.0913
   45MOL0     H 6161   5.416  11.722   4.207  0.8687  0.4399 -0.9232
   45MOL0     H 6162   5.324  11.885   4.416  2.8663  1.4368  1.8983
   45MOL0     H 6163   5.475  11.957   4.379  1.5193  0.5783 -4.0953
   45MOL0     H 6164   5.422  11.948   4.142  1.5848 -2.7804  1.1146
   45MOL0     H 6165   5.258  11.905   4.186  0.9295 -0.2995 -0.8418
   45MOL0     H 6166   5.371  12.188   4.259  2.4011 -0.7512  0.2514
   45MOL0     H 6167   5.258  12.138   4.139  2.4832 -0.2088 -1.5463
   45MOL0     H 6168   5.277  12.040   4.548 -0.0056 -0.6136  2.8317
   45MOL0     H 6169   5.310  12.060   4.774 -1.1253 -0.1752 -1.0256
   45MOL0     H 6170   5.278  12.208   4.855  0.2323  2.6918 -0.6115
   45MOL0     H 6171   5.435  12.205   4.760 -0.7416  0.7200  0.5616
   45MOL0     H 6172   5.412  12.718   4.853  0.9921  0.2971 -1.1068
   45MOL0     H 6173   5.567  12.810   5.002  0.0353 -0.5134  0.6767
   45MOL0     H 6174   5.776  12.867   5.080  0.9480 -2.0356 -0.0143
   45MOL0     H 6175   5.637  12.866   5.195  1.0938  2.9962  0.6426
   45MOL0     H 6176   5.815  12.825   5.373 -0.7970 -0.0034 -0.0883
   45MOL0     H 6177   5.935  12.860   5.250  0.5859 -0.1435 -0.6731
   45MOL0     H 6178   5.793  13.070   5.408  1.5644 -0.1581 -0.0898
   45MOL0     H 6179   5.754  13.085   5.237 -0.2567  0.1077  0.5517
   45MOL0     H 6180   6.020  13.058   5.199  3.5221  1.8937 -0.5417
   45MOL0     H 6181   6.011  13.057   5.380 -5.9300 -2.4629  2.2118
   45MOL0     H 6182   5.918  13.272   5.175 -1.3048  1.0659  0.8942
   45MOL0     H 6183   5.883  13.284   5.351 -2.0950  0.3096 -0.9634
   45MOL0     H 6184   6.118  13.284   5.396 -1.9516 -3.6967  0.0335
   45MOL0     H 6185   6.076  13.427   5.303  1.2210 -0.0977 -0.0425
   45MOL0     H 6186   6.140  13.269   5.100  1.1049 -0.3574 -0.0358
   45MOL0     H 6187   6.248  13.200   5.222  1.5810  0.6069  0.1554
   45MOL0     H 6188   6.333  13.446   5.259 -1.7909  1.6008  0.3455
   45MOL0     H 6189   6.240  13.478   5.102 -1.8674 -2.1584 -2.7521
   45MOL0     H 6190   5.679  12.414   5.143  4.3201  1.4164 -3.3051
   45MOL0     H 6191   5.485  12.333   5.001 -0.7949 -0.5302  1.4772
   45MOL0     H 6192   5.159  12.515   4.490 -2.5112 -0.7024 -3.0043
   45MOL0     H 6193   5.139  12.361   4.319  0.6008 -0.8998 -0.7409
   45MOL0     H 6194   6.566  11.021   3.762 -0.3950 -2.9935  0.1344
   45MOL0     H 6195   6.539  10.827   3.637  0.6028 -0.1791 -2.3248
   45MOL0     H 6196   6.496  10.562   3.398  1.6492 -2.6733 -0.8817
   45MOL0     H 6197   6.584  10.380   3.246 -0.1417 -2.8871 -2.4851
   45MOL0     H 6198   6.576  10.157   2.945 -0.1108  1.7504 -1.2989
   45MOL0     H 6199   6.659  10.257   3.068 -0.7537 -0.5923  2.7487
   45MOL0     H 6200   6.536  10.165   3.239 -2.3292  0.7805 -0.6463
   45MOL0     H 6201   6.580  10.031   3.140  0.4703  1.2907  0.0577
   45MOL0     H 6202   6.301  10.149   3.100 -1.1538  0.2396  0.7127
   45MOL0     H 6203   6.361   9.993   3.081 -1.7106  2.6129 -1.2583
   45MOL0     H 6204   6.404   9.987   3.333 -0.2623  1.0033  0.9655
   45MOL0     H 6205   6.241   9.978   3.262  0.5868 -0.3755 -1.2395
   45MOL0     H 6206   6.277  10.353   3.486  1.9042  0.1140 -0.4926
   45MOL0     H 6207   6.259  10.441   2.989  2.6401 -0.8981 -0.6778
   45MOL0     H 6208   6.135  10.755   3.099  0.5548 -0.3314  0.5155
   45MOL0     H 6209   6.125  10.607   2.999 -0.1424 -3.5283  0.9948
   45MOL0     H 6210   6.038  10.611   3.150  2.9182 -4.9767  2.5708
   46MOL0     O 6211   6.166  10.215   7.389 -0.6479 -0.0058  0.2726
   46MOL0     C 6212   6.219  10.226   7.497 -0.5478 -0.9001  0.4641
   46MOL0     O 6213   6.340  10.286   7.523 -1.1441  0.3658 -0.5590
   46MOL0     C 6214   6.412  10.365   7.436 -0.5986  0.5858 -0.9044
   46MOL0     C 6215   6.550  10.337   7.411  1.3341  0.7481 -0.7748
   46MOL0     C 6216   6.628  10.427   7.333  0.0138 -0.5058 -0.0449
   46MOL0     C 6217   6.573  10.537   7.266  0.1776  0.1278  0.1796
   46MOL0     O 6218   6.640  10.606   7.168  0.2645  1.4615 -0.3785
   46MOL0     C 6219   6.777  10.587   7.153 -1.3629 -0.3300  0.1072
   46MOL0     C 6220   6.851  10.692   7.074  0.7210  0.3832  0.4984
   46MOL0     C 6221   7.001  10.674   7.101  0.7069 -0.4963  0.2504
   46MOL0     C 6222   7.065  10.527   7.065 -0.0709 -0.0183 -0.3576
   46MOL0     C 6223   7.219  10.517   7.096  0.6255  0.1267 -0.4188
   46MOL0     C 6224   7.281  10.428   7.001 -0.8274  0.1058  0.0479
   46MOL0     C 6225   7.422  10.379   7.060  1.0535 -0.4138  0.1205
   46MOL0     C 6226   7.532  10.486   7.073  0.2682  0.4302 -1.8399
   46MOL0     N 6227   7.660  10.423   7.089 -0.6361  0.3609  0.2918
   46MOL0     C 6228   7.739  10.385   6.977 -0.0529  0.0218  0.8099
   46MOL0     C 6229   7.831  10.300   7.025 -1.1564  0.4623 -1.3891
   46MOL0     C 6230   7.940  10.232   6.939  0.2190 -1.3104  0.4412
   46MOL0     C 6231   8.051  10.322   6.883  0.5558 -0.3820  0.2155
   46MOL0     C 6232   8.173  10.347   6.975 -0.4347  0.0329  0.5235
   46MOL0     C 6233   8.131  10.383   7.122 -0.2734  0.0555  0.2349
   46MOL0     O 6234   8.259  10.368   7.185  0.2140 -0.5137  0.3726
   46MOL0     C 6235   8.257  10.407   7.320 -0.2494  0.1118 -0.4114
   46MOL0     C 6236   8.341  10.334   7.404  0.0355  0.4372 -0.0077
   46MOL0     C 6237   8.368  10.374   7.534  0.4470 -0.7553  1.0245
   46MOL0     C 6238   8.473  10.309   7.619 -0.1285  0.7185  0.1381
   46MOL0     C 6239   8.298  10.488   7.594 -0.0212 -0.2046 -0.0661
   46MOL0     C 6240   8.321  10.537   7.733  0.6152  0.3531 -0.2898
   46MOL0     O 6241   8.271  10.661   7.748 -0.2960 -0.3426  0.3146
   46MOL0     C 6242   8.303  10.734   7.858 -0.9079  0.4411  0.4284
   46MOL0     C 6243   8.436  10.783   7.880 -0.5338  0.6345 -0.3228
   46MOL0     C 6244   8.455  10.868   7.982 -0.5442 -1.1103 -0.4874
   46MOL0     C 6245   8.352  10.926   8.058  0.0850  0.7912  0.1337
   46MOL0     O 6246   8.370  11.022   8.157 -0.3175 -0.3068 -0.0207
   46MOL0     C 6247   8.457  11.139   8.135  0.5516 -0.5085 -0.4544
   46MOL0     C 6248   8.451  11.205   7.997 -0.3027  0.0318 -0.5384
   46MOL0     C 6249   8.552  11.323   8.002 -0.9962  0.6744  0.0962
   46MOL0     C 6250   8.579  11.386   7.864 -0.3739  0.4390  0.6840
   46MOL0     C 6251   8.697  11.314   7.789  0.2475  0.0254  0.1237
   46MOL0     C 6252   8.697  11.374   7.643 -0.2771 -0.4684  0.4528
   46MOL0     C 6253   8.829  11.394   7.567  0.5565 -1.7914 -0.0999
   46MOL0     C 6254   8.805  11.475   7.445  0.1214  0.4094 -0.0524
   46MOL0    Cl 6255   8.927  11.447   7.316 -0.0781  0.6632  0.6552
   46MOL0     C 6256   8.221  10.866   8.040 -0.0288 -0.9180 -0.7999
   46MOL0     C 6257   8.193  10.770   7.940  0.9154 -0.5724 -0.8235
   46MOL0     O 6258   8.361  10.467   7.830  0.4573  0.0238 -0.3950
   46MOL0     C 6259   8.207  10.560   7.510  1.1237  0.4335 -0.2013
   46MOL0     C 6260   8.184  10.518   7.378 -0.1812 -0.5266 -0.0595
   46MOL0     N 6261   7.815  10.287   7.158  0.2273 -0.1705  0.2248
   46MOL0     N 6262   7.709  10.348   7.194  0.1955  0.4891  0.4720
   46MOL0     C 6263   6.442  10.573   7.292 -0.1027  0.1822  0.4984
   46MOL0     C 6264   6.359  10.479   7.372 -0.7055  0.5805  0.3687
   46MOL0     C 6265   6.162  10.155   7.615  0.4031 -0.7252  0.6364
   46MOL0     C 6266   6.252  10.085   7.701 -0.8222  1.0030 -0.7399
   46MOL0     C 6267   6.201  10.013   7.810 -1.2939  1.1491 -0.2352
   46MOL0     C 6268   6.065  10.009   7.832 -0.1646  0.2510 -0.2957
   46MOL0     O 6269   6.031   9.929   7.947  0.1065 -0.6364 -0.1170
   46MOL0     C 6270   5.890   9.904   7.974  0.6119  0.0350 -0.0953
   46MOL0     C 6271   5.854  10.009   8.079 -0.6756 -0.3444  0.7704
   46MOL0     C 6272   5.718   9.977   8.146 -0.5578  0.3636 -0.3435
   46MOL0     C 6273   5.600   9.973   8.052  0.3303  0.0749  0.2195
   46MOL0     C 6274   5.552  10.107   8.001 -0.4448 -0.6699 -0.1101
   46MOL0     C 6275   5.516  10.212   7.956 -0.2023  0.2243  0.5365
   46MOL0     C 6276   5.977  10.076   7.744 -0.1228 -0.0351  0.9007
   46MOL0     C 6277   6.017  10.151   7.640 -1.2628 -0.7942 -0.5186
   46MOL0     C 6278   5.917  10.234   7.559  0.0607  0.0899 -0.0230
   46MOL0     H 6279   6.594  10.257   7.470 -0.2740 -0.4203 -1.0606
   46MOL0     H 6280   6.734  10.421   7.313  0.2089 -0.9695  1.0593
   46MOL0     H 6281   6.798  10.486   7.118  0.9504  0.3118 -0.5282
   46MOL0     H 6282   6.824  10.596   7.252 -2.1124 -1.7415  0.6168
   46MOL0     H 6283   6.830  10.699   6.967  1.2860 -0.1901  0.3417
   46MOL0     H 6284   6.812  10.790   7.101 -1.7704  0.3617 -2.4003
   46MOL0     H 6285   7.049  10.740   7.027 -3.6695 -0.7878 -3.2677
   46MOL0     H 6286   7.016  10.710   7.203  1.2775 -3.3576  1.2453
   46MOL0     H 6287   7.014  10.445   7.117  1.9463 -1.8800 -1.1324
   46MOL0     H 6288   7.043  10.516   6.958 -1.4276 -1.6842  0.0415
   46MOL0     H 6289   7.233  10.476   7.196 -0.5886 -0.2150 -0.3717
   46MOL0     H 6290   7.261  10.619   7.090 -2.4284  1.4664 -0.8092
   46MOL0     H 6291   7.228  10.336   6.976 -0.1874  0.2139 -1.7960
   46MOL0     H 6292   7.302  10.488   6.912  0.6175  0.6599  0.7232
   46MOL0     H 6293   7.464  10.296   7.004 -0.8361 -1.4851  0.1864
   46MOL0     H 6294   7.395  10.327   7.152 -0.1932 -2.4774 -1.3288
   46MOL0     H 6295   7.526  10.556   6.989  1.6747  1.7082 -0.9266
   46MOL0     H 6296   7.528  10.551   7.161  1.9250 -1.4398 -0.2785
   46MOL0     H 6297   7.727  10.419   6.874  1.5983  0.8587  0.8505
   46MOL0     H 6298   7.887  10.191   6.853  0.0362  0.5815 -0.4097
   46MOL0     H 6299   7.986  10.150   6.994  2.8839  1.4002  2.6295
   46MOL0     H 6300   8.091  10.278   6.791  2.9246 -0.6898  1.3172
   46MOL0     H 6301   8.015  10.421   6.854 -0.1141 -0.2682  1.3626
   46MOL0     H 6302   8.231  10.256   6.986  1.8342  1.6453  3.4377
   46MOL0     H 6303   8.235  10.434   6.949  0.6020 -1.3230 -1.7478
   46MOL0     H 6304   8.083  10.482   7.122 -0.6271 -0.1120  0.3516
   46MOL0     H 6305   8.052  10.324   7.171 -0.6066  1.5552  1.5683
   46MOL0     H 6306   8.390  10.246   7.362 -2.9701 -1.6013  0.4500
   46MOL0     H 6307   8.550  10.377   7.659 -0.5257  1.1244  0.2283
   46MOL0     H 6308   8.527  10.235   7.560  0.8430  2.9606 -1.9731
   46MOL0     H 6309   8.424  10.248   7.694 -0.7367 -1.2908 -1.8010
   46MOL0     H 6310   8.521  10.757   7.817  0.0572 -2.1333  1.4523
   46MOL0     H 6311   8.556  10.909   7.988  0.2856 -2.9082 -1.3216
   46MOL0     H 6312   8.428  11.214   8.210  0.1959 -0.6653 -0.4334
   46MOL0     H 6313   8.560  11.109   8.155 -0.2238 -2.9301  0.2352
   46MOL0     H 6314   8.460  11.133   7.915 -0.4981 -2.8129  1.7493
   46MOL0     H 6315   8.352  11.250   7.985 -0.3182  1.0220  2.4167
   46MOL0     H 6316   8.645  11.289   8.048 -1.5501 -1.8695 -0.4902
   46MOL0     H 6317   8.514  11.402   8.067 -0.1492  0.0373  1.4053
   46MOL0     H 6318   8.614  11.490   7.870  1.6086  0.0128 -1.6458
   46MOL0     H 6319   8.491  11.385   7.799  1.9589 -1.5843 -2.7667
   46MOL0     H 6320   8.784  11.344   7.848 -1.5726  2.3737  1.7911
   46MOL0     H 6321   8.682  11.206   7.804  3.7017 -0.3067  2.2647
   46MOL0     H 6322   8.664  11.478   7.646  1.0373  0.0336 -0.9271
   46MOL0     H 6323   8.628  11.313   7.584  2.4624 -1.3699 -2.0620
   46MOL0     H 6324   8.845  11.291   7.535  1.4676 -2.1785  1.5046
   46MOL0     H 6325   8.913  11.435   7.623  1.0097 -0.6634 -1.5665
   46MOL0     H 6326   8.809  11.581   7.473  3.6887  0.5635 -0.6588
   46MOL0     H 6327   8.715  11.439   7.395  2.1672 -2.2845 -2.0740
   46MOL0     H 6328   8.163  10.923   8.111  1.5064  1.6358 -1.4635
   46MOL0     H 6329   8.088  10.749   7.928  1.0178 -0.7020 -1.5329
   46MOL0     H 6330   8.152  10.644   7.550  2.8601  0.6980  1.8115
   46MOL0     H 6331   8.103  10.566   7.324 -1.3031 -2.2846 -0.0216
   46MOL0     H 6332   6.388  10.654   7.243 -3.3680  1.1336  4.9775
   46MOL0     H 6333   6.250  10.481   7.374 -1.0557 -3.5277 -2.2671
   46MOL0     H 6334   6.359  10.100   7.691 -0.4171 -1.1985 -0.1558
   46MOL0     H 6335   6.267   9.957   7.876 -4.3432 -1.3102  1.0090
   46MOL0     H 6336   5.830   9.913   7.883 -1.6259 -2.8773  0.9544
   46MOL0     H 6337   5.880   9.806   8.021 -2.2686  1.0574  1.7571
   46MOL0     H 6338   5.838  10.104   8.027  0.1258 -0.7703 -0.2761
   46MOL0     H 6339   5.938  10.003   8.149  0.6905 -1.0755 -0.8918
   46MOL0     H 6340   5.722   9.880   8.196  0.5575  1.4484  1.8291
   46MOL0     H 6341   5.697  10.047   8.227 -0.5194  1.4149 -1.2149
   46MOL0     H 6342   5.526   9.937   8.124 -0.4875  0.5323 -0.3785
   46MOL0     H 6343   5.606   9.898   7.973  3.1895  1.6205 -1.1967
   46MOL0     H 6344   5.501  10.313   7.923 -3.1762 -1.0510 -2.6595
   46MOL0     H 6345   5.869  10.064   7.743 -0.2224  0.7217 -0.5856
   46MOL0     H 6346   5.959  10.317   7.501  1.6076  0.0438  0.9808
   46MOL0     H 6347   5.880  10.169   7.478 -1.3916  0.8819 -0.0204
   46MOL0     H 6348   5.836  10.274   7.620  0.7759  0.3469  0.7809
   47MOL0     O 6349   3.000   8.516   9.551 -0.3122  0.1714  0.8441
   47MOL0     C 6350   2.951   8.628   9.534 -0.1747 -0.1260 -0.5865
   47MOL0     O 6351   3.025   8.743   9.568 -0.1570  0.2335  0.1114
   47MOL0     C 6352   3.161   8.752   9.596 -0.1569 -0.4835  0.0509
   47MOL0     C 6353   3.200   8.885   9.613 -0.2478  0.0153 -0.5713
   47MOL0     C 6354   3.334   8.917   9.642  0.2856 -0.0599  0.5746
   47MOL0     C 6355   3.433   8.820   9.655 -0.3401 -0.1455 -0.4086
   47MOL0     O 6356   3.571   8.853   9.681  0.6421  0.1371  0.6551
   47MOL0     C 6357   3.615   8.985   9.706 -0.6808  0.5346  0.4777
   47MOL0     C 6358   3.630   9.064   9.571 -0.3447  0.5309  0.0555
   47MOL0     C 6359   3.709   9.194   9.591  0.7803  0.2644 -0.6111
   47MOL0     C 6360   3.679   9.278   9.466 -0.1390 -0.2722 -0.1730
   47MOL0     C 6361   3.756   9.402   9.446 -0.7003 -0.5468 -0.6950
   47MOL0     C 6362   3.795   9.475   9.573  0.3801  0.4029 -0.4119
   47MOL0     C 6363   3.674   9.516   9.674 -0.3628 -0.2701  1.1176
   47MOL0     C 6364   3.593   9.632   9.618  0.7685  0.0919 -0.0474
   47MOL0     N 6365   3.470   9.658   9.693  0.3003  0.4525  0.5980
   47MOL0     C 6366   3.353   9.714   9.639  0.1816 -0.3801 -1.8630
   47MOL0     C 6367   3.257   9.707   9.741 -0.4074  0.7885  0.1517
   47MOL0     C 6368   3.122   9.754   9.723  0.4283 -0.9611 -0.3885
   47MOL0     C 6369   3.094   9.881   9.827 -0.3553  0.6872  0.5393
   47MOL0     C 6370   2.942   9.888   9.844  0.7863 -0.5472  0.1367
   47MOL0     C 6371   2.875   9.938   9.715 -0.0667  0.1196 -0.2627
   47MOL0     O 6372   2.916  10.072   9.677  0.1760  1.3872  0.3088
   47MOL0     C 6373   2.856  10.122   9.561  0.0364 -0.3806 -0.5948
   47MOL0     C 6374   2.895  10.245   9.525  0.1388  0.4278 -0.0464
   47MOL0     C 6375   2.832  10.317   9.417 -0.6364 -0.2546  0.2854
   47MOL0     C 6376   2.876  10.461   9.400  0.0557  1.0325  0.0317
   47MOL0     C 6377   2.732  10.252   9.338  0.0045 -0.2532 -0.5531
   47MOL0     C 6378   2.669  10.307   9.224  0.0720  0.2170  0.3709
   47MOL0     O 6379   2.546  10.251   9.184  0.8197  0.4400 -0.0687
   47MOL0     C 6380   2.482  10.330   9.093 -0.0533  0.1085  0.2294
   47MOL0     C 6381   2.498  10.292   8.959 -0.3900 -0.2399  0.1952
   47MOL0     C 6382   2.419  10.360   8.875 -0.0830  1.0445  0.2469
   47MOL0     C 6383   2.322  10.456   8.918  0.1295  0.6553 -0.0648
   47MOL0     O 6384   2.231  10.488   8.826 -0.5602 -0.0771  0.1430
   47MOL0     C 6385   2.155  10.603   8.849  0.2487 -0.4654 -0.2909
   47MOL0     C 6386   2.054  10.640   8.732  0.7391  0.1556  0.0720
   47MOL0     C 6387   2.018  10.788   8.740 -0.4042  0.2037 -0.1275
   47MOL0     C 6388   1.902  10.823   8.655  0.2645 -0.0302 -0.2695
   47MOL0     C 6389   1.852  10.963   8.644 -0.3652 -1.1583  0.0091
   47MOL0     C 6390   1.703  10.969   8.602 -0.0916 -0.7197  0.2406
   47MOL0     C 6391   1.644  11.119   8.587 -0.9842 -0.5877 -0.2196
   47MOL0     C 6392   1.518  11.122   8.518 -0.4322  0.7379  0.8278
   47MOL0    Cl 6393   1.404  11.036   8.618 -0.6919  0.3650  0.6496
   47MOL0     C 6394   2.314  10.495   9.054  0.6097  0.1490 -0.0953
   47MOL0     C 6395   2.405  10.436   9.143  0.2423  0.2648  0.9671
   47MOL0     O 6396   2.734  10.390   9.157  1.0204 -0.4054 -0.4423
   47MOL0     C 6397   2.709  10.111   9.360  0.2509 -0.0721  0.2679
   47MOL0     C 6398   2.771  10.052   9.470  0.4411 -0.3293  0.2072
   47MOL0     N 6399   3.314   9.638   9.850  0.8107 -0.5998  0.7116
   47MOL0     N 6400   3.439   9.609   9.817  0.6484  0.9908  1.0453
   47MOL0     C 6401   3.388   8.692   9.642  0.0035  0.8438  0.6047
   47MOL0     C 6402   3.262   8.658   9.597 -1.0383  0.1593  1.5163
   47MOL0     C 6403   2.805   8.641   9.503 -0.6938 -0.2738 -0.3257
   47MOL0     C 6404   2.749   8.773   9.489  0.1804 -0.9948 -0.3149
   47MOL0     C 6405   2.624   8.801   9.437 -0.2940 -0.0486 -0.1053
   47MOL0     C 6406   2.546   8.690   9.402  0.3463 -0.1321  0.5356
   47MOL0     O 6407   2.423   8.703   9.341  0.9788  0.4498 -0.0960
   47MOL0     C 6408   2.370   8.830   9.295  0.1161 -0.2411 -0.2531
   47MOL0     C 6409   2.221   8.798   9.270 -0.3537  0.1986 -0.3403
   47MOL0     C 6410   2.138   8.918   9.241 -0.0127 -0.8690  0.5155
   47MOL0     C 6411   1.986   8.901   9.280  0.2946 -0.7530 -0.0153
   47MOL0     C 6412   1.939   8.924   9.417 -0.7403  0.0481 -0.0109
   47MOL0     C 6413   1.912   8.958   9.533  0.6029  0.3173 -0.5144
   47MOL0     C 6414   2.586   8.560   9.431  0.5554  0.4135 -1.0315
   47MOL0     C 6415   2.714   8.531   9.479  0.1441  0.0068  0.1559
   47MOL0     C 6416   2.748   8.387   9.512  0.6344  0.0024 -0.1627
   47MOL0     H 6417   3.127   8.964   9.597 -0.0669 -0.0390 -1.7584
   47MOL0     H 6418   3.361   9.021   9.655 -1.4329  0.7057 -1.3372
   47MOL0     H 6419   3.716   8.980   9.746  0.8184  0.4138 -2.9540
   47MOL0     H 6420   3.563   9.039   9.786  3.9600  3.1810  2.0544
   47MOL0     H 6421   3.692   9.007   9.500 -0.0431 -2.1829  2.3152
   47MOL0     H 6422   3.530   9.077   9.530  0.2538 -0.7749 -1.9897
   47MOL0     H 6423   3.666   9.239   9.681  1.7280  2.7305 -1.2934
   47MOL0     H 6424   3.817   9.190   9.609  0.9728  2.9399 -0.8075
   47MOL0     H 6425   3.704   9.212   9.382 -2.1128 -0.7639 -0.4060
   47MOL0     H 6426   3.573   9.303   9.469 -0.5388 -1.6778 -1.1606
   47MOL0     H 6427   3.690   9.468   9.388 -1.4856 -2.9200 -2.6475
   47MOL0     H 6428   3.846   9.370   9.392  3.3899  3.4047  2.9078
   47MOL0     H 6429   3.870   9.421   9.631 -1.2801  1.0794  2.6034
   47MOL0     H 6430   3.845   9.568   9.547 -0.4353  0.8135 -0.5379
   47MOL0     H 6431   3.721   9.554   9.765 -1.3890  2.9914  0.4418
   47MOL0     H 6432   3.604   9.440   9.710 -0.5815  0.6242  2.6837
   47MOL0     H 6433   3.651   9.725   9.618 -2.5023  2.2997 -0.7333
   47MOL0     H 6434   3.560   9.593   9.521  1.2622 -2.4075  0.7225
   47MOL0     H 6435   3.345   9.758   9.539 -0.4254 -0.8129 -2.0090
   47MOL0     H 6436   3.052   9.676   9.753 -1.1005 -0.5877 -2.7628
   47MOL0     H 6437   3.108   9.786   9.620 -2.1178  0.9143  0.4271
   47MOL0     H 6438   3.142   9.868   9.924 -1.1175  1.4293  1.0253
   47MOL0     H 6439   3.132   9.971   9.777 -0.1917  0.1743 -0.2926
   47MOL0     H 6440   2.901   9.788   9.861 -0.6518  0.0635  0.3478
   47MOL0     H 6441   2.925   9.947   9.934  2.7336  0.2340  0.0473
   47MOL0     H 6442   2.898   9.878   9.626  0.9881  1.2632 -0.7879
   47MOL0     H 6443   2.766   9.930   9.728  0.0027  1.6732  1.7972
   47MOL0     H 6444   2.983  10.287   9.573  1.7550 -0.9949 -1.6813
   47MOL0     H 6445   2.788  10.526   9.409 -0.4146  0.3216  0.6904
   47MOL0     H 6446   2.924  10.480   9.304 -2.0863 -3.2247 -2.1895
   47MOL0     H 6447   2.945  10.479   9.482 -0.0867  1.6205  0.0287
   47MOL0     H 6448   2.577  10.227   8.925  0.2223  1.4767 -1.8774
   47MOL0     H 6449   2.427  10.349   8.767  1.8182 -0.1892  0.4796
   47MOL0     H 6450   2.089  10.564   8.927  1.3356 -2.1309 -0.1638
   47MOL0     H 6451   2.220  10.687   8.872  2.6547 -2.3417  0.0880
   47MOL0     H 6452   2.087  10.618   8.630 -0.0582 -0.9250  0.0253
   47MOL0     H 6453   1.960  10.583   8.735  0.1058  1.0270 -1.9210
   47MOL0     H 6454   2.101  10.855   8.717  1.1407 -0.9093  1.8561
   47MOL0     H 6455   1.991  10.815   8.842 -0.5987  4.4719 -1.1394
   47MOL0     H 6456   1.818  10.763   8.692 -0.1933  0.5217 -0.4099
   47MOL0     H 6457   1.923  10.787   8.554  2.7094 -0.8896  0.4513
   47MOL0     H 6458   1.861  11.022   8.736  0.1117  1.9455 -1.8717
   47MOL0     H 6459   1.910  11.020   8.571  0.2636  1.2289  2.2184
   47MOL0     H 6460   1.634  10.915   8.668 -1.0920 -2.8147 -2.3761
   47MOL0     H 6461   1.691  10.930   8.501  0.0606  0.5966 -0.3121
   47MOL0     H 6462   1.712  11.186   8.534 -0.0226 -0.9750  0.5069
   47MOL0     H 6463   1.624  11.160   8.686 -0.4879  1.1799 -0.8236
   47MOL0     H 6464   1.519  11.061   8.427 -0.9372 -0.7216  1.7606
   47MOL0     H 6465   1.488  11.225   8.501  0.9543  1.4267  2.2168
   47MOL0     H 6466   2.230  10.549   9.099  1.8945  1.0059  1.3845
   47MOL0     H 6467   2.411  10.471   9.246 -0.7136  2.3074  0.3814
   47MOL0     H 6468   2.644  10.052   9.296 -1.6792  1.0732  1.0864
   47MOL0     H 6469   2.749   9.947   9.484  0.3678 -0.6272 -1.9235
   47MOL0     H 6470   3.461   8.611   9.638 -1.8085 -0.9570  1.8969
   47MOL0     H 6471   3.248   8.552   9.579 -1.9887  0.5662 -0.3905
   47MOL0     H 6472   2.808   8.863   9.507 -1.1759  0.7373 -3.5782
   47MOL0     H 6473   2.585   8.902   9.435  1.3091  0.7328  2.3854
   47MOL0     H 6474   2.375   8.914   9.365 -2.7231  0.6603 -0.9756
   47MOL0     H 6475   2.416   8.863   9.202  0.2546  0.4877  0.0693
   47MOL0     H 6476   2.198   8.758   9.369  2.0183 -1.0633 -0.2143
   47MOL0     H 6477   2.218   8.732   9.183  0.2033  1.4793 -1.3609
   47MOL0     H 6478   2.182   9.006   9.289 -0.0441 -1.2167  1.1854
   47MOL0     H 6479   2.142   8.945   9.135  0.0556 -0.2938  0.6584
   47MOL0     H 6480   1.939   8.808   9.248  2.1914 -1.8296  0.2092
   47MOL0     H 6481   1.941   8.975   9.213  1.9518 -1.9671 -2.6476
   47MOL0     H 6482   1.896   8.977   9.637 -1.8623 -2.8720 -0.1617
   47MOL0     H 6483   2.507   8.486   9.435  0.3703  0.6344  2.7178
   47MOL0     H 6484   2.787   8.377   9.614 -2.5320 -0.6309  1.1158
   47MOL0     H 6485   2.656   8.328   9.511 -0.0002  0.8989  1.3697
   47MOL0     H 6486   2.815   8.351   9.434  0.5633  1.8747 -1.1527
   48MOL0     O 6487   3.048   9.883   9.379 -0.0836  0.1192  0.8119
   48MOL0     C 6488   3.013   9.952   9.279 -0.4795  0.9445  0.0820
   48MOL0     O 6489   3.065  10.072   9.239 -0.8546 -0.6497 -0.3097
   48MOL0     C 6490   3.145  10.142   9.320 -0.2334 -0.3742  0.5243
   48MOL0     C 6491   3.218  10.106   9.434 -1.0612  0.4448 -0.1348
   48MOL0     C 6492   3.289  10.207   9.502 -0.6257 -0.4685  0.8153
   48MOL0     C 6493   3.276  10.341   9.458 -0.1494  0.2479  0.3334
   48MOL0     O 6494   3.345  10.434   9.528 -1.1561 -0.5822 -0.6805
   48MOL0     C 6495   3.278  10.541   9.563 -0.6621 -0.2782 -0.6932
   48MOL0     C 6496   3.208  10.543   9.702 -0.1002  0.5711  0.0486
   48MOL0     C 6497   3.303  10.531   9.816  0.0288 -0.0823 -0.2119
   48MOL0     C 6498   3.235  10.470   9.945 -0.3158  0.1112  0.5037
   48MOL0     C 6499   3.332  10.436  10.054 -0.4780  0.2676 -0.3002
   48MOL0     C 6500   3.259  10.403  10.177  0.3267 -0.1347 -1.1212
   48MOL0     C 6501   3.358  10.391  10.289  0.2555  1.1714 -1.0913
   48MOL0     C 6502   3.296  10.313  10.402  0.5855 -0.7455  0.1629
   48MOL0     N 6503   3.383  10.265  10.508 -0.6331  0.6013  1.2241
   48MOL0     C 6504   3.504  10.329  10.535 -0.0256 -0.6062  0.7236
   48MOL0     C 6505   3.561  10.249  10.626  0.1517 -0.6753 -0.3987
   48MOL0     C 6506   3.707  10.252  10.676  0.4187  0.5647 -0.4792
   48MOL0     C 6507   3.727  10.390  10.731  0.0033 -1.4208  0.2470
   48MOL0     C 6508   3.874  10.437  10.751  0.0521 -0.1129  0.2098
   48MOL0     C 6509   3.885  10.590  10.766  0.1686  0.4092  0.4634
   48MOL0     O 6510   3.841  10.641  10.639 -0.0734 -0.3930  0.9393
   48MOL0     C 6511   3.814  10.783  10.619 -0.1164  0.3249  1.1786
   48MOL0     C 6512   3.857  10.876  10.717  0.3122  0.1075 -0.4721
   48MOL0     C 6513   3.840  11.013  10.691  0.2969  1.2249 -1.0273
   48MOL0     C 6514   3.856  11.101  10.814 -0.0087  0.3545  0.1197
   48MOL0     C 6515   3.785  11.058  10.564 -0.3410 -0.2114 -0.5279
   48MOL0     C 6516   3.743  11.195  10.535  0.5476 -0.7573 -0.4688
   48MOL0     O 6517   3.630  11.204  10.450  0.6099 -0.0333 -1.4447
   48MOL0     C 6518   3.602  11.318  10.379  1.3750  0.2944  0.5648
   48MOL0     C 6519   3.694  11.392  10.312  0.2940  0.0261 -0.1008
   48MOL0     C 6520   3.675  11.509  10.247  0.2507 -0.3459 -1.0277
   48MOL0     C 6521   3.541  11.554  10.228 -0.3867  0.0060 -0.9785
   48MOL0     O 6522   3.500  11.666  10.169 -0.7834 -1.4334  0.6789
   48MOL0     C 6523   3.587  11.714  10.053  0.5288 -0.5324  0.7255
   48MOL0     C 6524   3.593  11.610   9.939  0.9313 -0.4971 -0.0083
   48MOL0     C 6525   3.467  11.627   9.856 -0.4030 -0.4958 -0.2724
   48MOL0     C 6526   3.471  11.760   9.781  0.5701 -1.0190  0.3230
   48MOL0     C 6527   3.329  11.809   9.746 -0.8817  0.5059 -0.0600
   48MOL0     C 6528   3.241  11.702   9.675  0.3758 -0.7470 -0.0458
   48MOL0     C 6529   3.098  11.761   9.649  0.4920  0.2588 -0.7644
   48MOL0     C 6530   2.992  11.660   9.653  0.3510  1.0922  0.0336
   48MOL0    Cl 6531   3.011  11.519   9.544  0.0782  0.0071 -0.1743
   48MOL0     C 6532   3.440  11.481  10.281  0.1611 -0.3179  0.7128
   48MOL0     C 6533   3.473  11.363  10.352 -0.0142 -0.9538  0.7876
   48MOL0     O 6534   3.812  11.293  10.571  0.3422 -0.5173 -0.1806
   48MOL0     C 6535   3.755  10.952  10.464  0.0815 -0.8031 -0.6212
   48MOL0     C 6536   3.770  10.817  10.496 -1.1676 -0.0531 -0.0999
   48MOL0     N 6537   3.480  10.145  10.663  0.0074  0.2179 -0.2370
   48MOL0     N 6538   3.372  10.155  10.591  0.2111 -0.9323 -0.6490
   48MOL0     C 6539   3.214  10.378   9.341 -0.7142 -0.1348 -0.6291
   48MOL0     C 6540   3.142  10.279   9.271  0.9559  0.3983 -0.5833
   48MOL0     C 6541   2.897   9.916   9.189  0.6637  0.6760  0.0319
   48MOL0     C 6542   2.809   9.812   9.239  0.1778  0.1692  0.8596
   48MOL0     C 6543   2.684   9.778   9.181  0.4168 -0.3533 -0.7399
   48MOL0     C 6544   2.646   9.831   9.059 -0.4973  0.2793  0.0839
   48MOL0     O 6545   2.536   9.792   9.000 -0.3730  0.6468 -0.0111
   48MOL0     C 6546   2.456   9.886   8.928  1.0579  0.8930 -0.4233
   48MOL0     C 6547   2.313   9.826   8.890  0.8262  0.6987 -0.5034
   48MOL0     C 6548   2.232   9.793   9.016  0.3828 -0.4869 -0.2259
   48MOL0     C 6549   2.080   9.779   8.974 -0.0513 -0.1490  0.5154
   48MOL0     C 6550   2.014   9.670   9.044  0.8478 -0.2796 -1.2171
   48MOL0     C 6551   1.987   9.577   9.127  0.0959  0.5490 -0.9900
   48MOL0     C 6552   2.734   9.927   8.995  0.4768 -1.2309 -0.6019
   48MOL0     C 6553   2.848   9.979   9.064  0.8889 -0.3515 -0.5289
   48MOL0     C 6554   2.919  10.096   8.995 -0.0988  0.4627  0.3266
   48MOL0     H 6555   3.224  10.004   9.471  0.0300  1.2870  2.2202
   48MOL0     H 6556   3.349  10.183   9.590 -1.1805 -3.4260  0.4691
   48MOL0     H 6557   3.199  10.560   9.490 -0.0239 -3.7847 -2.5357
   48MOL0     H 6558   3.345  10.628   9.567 -0.9813 -0.0119 -1.0736
   48MOL0     H 6559   3.152  10.636   9.720 -2.0671 -0.8886  2.0560
   48MOL0     H 6560   3.137  10.460   9.706 -0.1746  0.6659  0.7541
   48MOL0     H 6561   3.387  10.464   9.798  0.4743  0.3548  0.2009
   48MOL0     H 6562   3.344  10.630   9.839  0.4343 -0.4814  0.8660
   48MOL0     H 6563   3.150  10.530   9.978  0.1041  2.0110 -1.6375
   48MOL0     H 6564   3.197  10.372   9.915  1.2462 -0.1790 -0.6975
   48MOL0     H 6565   3.409  10.513  10.067  2.2193 -2.6374  3.2684
   48MOL0     H 6566   3.393  10.348  10.032 -3.2778 -1.5674 -1.1439
   48MOL0     H 6567   3.184  10.476  10.207  1.9814  0.4381  2.0734
   48MOL0     H 6568   3.212  10.306  10.159 -0.1401 -0.9060  3.2553
   48MOL0     H 6569   3.394  10.489  10.321  2.1526  0.4576 -0.9105
   48MOL0     H 6570   3.444  10.330  10.261  0.2669  1.0642 -0.8215
   48MOL0     H 6571   3.217  10.369  10.452  0.6630 -0.4734 -0.0204
   48MOL0     H 6572   3.251  10.223  10.361  1.5349 -1.8225  1.3736
   48MOL0     H 6573   3.544  10.409  10.474  1.3622 -2.5402 -1.0216
   48MOL0     H 6574   3.765  10.233  10.585 -0.1216 -0.2444 -0.6758
   48MOL0     H 6575   3.732  10.168  10.742  4.9186  1.0310 -1.3050
   48MOL0     H 6576   3.681  10.461  10.661  2.4937  0.5536  0.4731
   48MOL0     H 6577   3.680  10.404  10.829 -3.6219  0.3345 -1.5336
   48MOL0     H 6578   3.911  10.395  10.845 -0.5738  0.0751  0.5442
   48MOL0     H 6579   3.934  10.416  10.662  0.0992  1.2130 -0.0932
   48MOL0     H 6580   3.822  10.612  10.852  2.0958  1.8465  1.5498
   48MOL0     H 6581   3.992  10.608  10.777  0.5549 -1.3553  0.0445
   48MOL0     H 6582   3.899  10.835  10.808 -0.6114 -0.4598 -0.2911
   48MOL0     H 6583   3.941  11.169  10.809  0.1177  0.6788  3.8541
   48MOL0     H 6584   3.865  11.043  10.906  4.7812  0.3506 -0.0781
   48MOL0     H 6585   3.765  11.160  10.803 -0.5968 -0.5651 -0.0818
   48MOL0     H 6586   3.801  11.370  10.312  0.5190  0.7297 -2.8295
   48MOL0     H 6587   3.749  11.564  10.191 -2.2555  2.4977 -1.8417
   48MOL0     H 6588   3.563  11.816  10.022 -1.3493 -1.9123 -2.9796
   48MOL0     H 6589   3.691  11.741  10.070  0.9194 -1.3480 -0.2687
   48MOL0     H 6590   3.681  11.620   9.874  0.4358  2.3436 -0.3899
   48MOL0     H 6591   3.582  11.508   9.977  0.3512  0.1561  1.6831
   48MOL0     H 6592   3.372  11.620   9.909 -0.2083  1.4943  0.4161
   48MOL0     H 6593   3.465  11.549   9.779 -2.2057  0.7313 -1.5553
   48MOL0     H 6594   3.540  11.738   9.699 -0.7462 -4.6561  0.0032
   48MOL0     H 6595   3.526  11.842   9.829  1.1424 -0.5541 -1.0799
   48MOL0     H 6596   3.284  11.827   9.844  0.4867 -3.3502  1.4777
   48MOL0     H 6597   3.339  11.906   9.695  0.8397  1.7223  2.3831
   48MOL0     H 6598   3.241  11.604   9.724  2.4485 -1.4871 -1.4448
   48MOL0     H 6599   3.269  11.674   9.574  0.6430 -2.4647  0.4713
   48MOL0     H 6600   3.108  11.800   9.547  3.2889  0.5930 -0.4562
   48MOL0     H 6601   3.072  11.830   9.729 -1.4030  0.0579 -1.1696
   48MOL0     H 6602   2.893  11.701   9.636 -0.7819 -0.4682  2.3039
   48MOL0     H 6603   2.997  11.607   9.749 -2.2323  0.0035 -0.3498
   48MOL0     H 6604   3.341  11.520  10.262  1.2480  1.4718 -2.0017
   48MOL0     H 6605   3.389  11.298  10.376 -2.5742  2.5541  2.1078
   48MOL0     H 6606   3.698  10.983  10.377 -0.2416  0.5973  0.0579
   48MOL0     H 6607   3.758  10.739  10.422  0.0954  1.0075 -1.4706
   48MOL0     H 6608   3.190  10.478   9.308 -3.2531 -1.1152 -2.1307
   48MOL0     H 6609   3.081  10.322   9.193  0.5661  1.7836  0.4354
   48MOL0     H 6610   2.826   9.764   9.335 -3.7922 -1.7322  0.8259
   48MOL0     H 6611   2.619   9.702   9.222 -0.1330  0.2086 -0.5454
   48MOL0     H 6612   2.437   9.967   8.999 -1.1376  0.2469 -0.1847
   48MOL0     H 6613   2.507   9.931   8.843 -0.7676  0.7794 -1.6506
   48MOL0     H 6614   2.316   9.737   8.827  0.9058  1.1561 -1.1466
   48MOL0     H 6615   2.259   9.904   8.836  0.0909  0.2563 -0.4302
   48MOL0     H 6616   2.263   9.698   9.059  1.4846 -0.9892 -2.0216
   48MOL0     H 6617   2.241   9.871   9.092 -0.5524 -0.9488  0.3783
   48MOL0     H 6618   2.078   9.761   8.866 -1.0646  0.2552  0.4575
   48MOL0     H 6619   2.024   9.871   8.988 -1.1666 -0.3549 -1.9494
   48MOL0     H 6620   1.958   9.490   9.183  2.0095  0.5088  0.0300
   48MOL0     H 6621   2.713   9.982   8.904  0.4475  0.3622  0.3345
   48MOL0     H 6622   2.866  10.116   8.901  2.6252 -2.3974 -2.0478
   48MOL0     H 6623   2.923  10.183   9.062  1.6236  1.3525 -0.8544
   48MOL0     H 6624   3.025  10.075   8.979  0.8861  5.1940 -1.2155
   49MOL0     O 6625   5.894  10.679   2.849  0.4476  0.2783  0.3307
   49MOL0     C 6626   5.836  10.711   2.738 -0.3048 -0.3571  0.3220
   49MOL0     O 6627   5.775  10.833   2.705  0.5849  0.4304  0.5554
   49MOL0     C 6628   5.763  10.928   2.793  0.3395 -0.8333 -0.3402
   49MOL0     C 6629   5.789  11.051   2.749  0.1314  0.3658  0.5629
   49MOL0     C 6630   5.793  11.167   2.836  0.5814  0.6886  0.1586
   49MOL0     C 6631   5.761  11.155   2.975  0.4264  0.1940 -0.0005
   49MOL0     O 6632   5.754  11.248   3.074 -0.1507 -0.3168  0.1095
   49MOL0     C 6633   5.704  11.379   3.040  0.0916  0.1635 -0.3468
   49MOL0     C 6634   5.814  11.470   2.987  0.3584 -0.2276 -0.6591
   49MOL0     C 6635   5.871  11.547   3.104  0.2426 -0.7302  0.7490
   49MOL0     C 6636   5.777  11.655   3.160  0.9853 -0.0641 -0.5010
   49MOL0     C 6637   5.817  11.712   3.290  0.0583 -0.9434  0.5842
   49MOL0     C 6638   5.938  11.818   3.273  0.1925  0.0467  0.3093
   49MOL0     C 6639   6.079  11.747   3.284  0.9276  0.6345 -0.3129
   49MOL0     C 6640   6.201  11.836   3.308 -0.4834  1.1427  0.6701
   49MOL0     N 6641   6.168  11.983   3.324 -0.2253  0.6085 -0.4328
   49MOL0     C 6642   6.101  12.025   3.442 -0.5131 -0.6985 -0.2467
   49MOL0     C 6643   6.071  12.155   3.418  0.3896 -0.4122 -0.3290
   49MOL0     C 6644   6.007  12.258   3.510 -0.5820  0.3451 -0.4062
   49MOL0     C 6645   6.103  12.360   3.557  0.3790 -0.4321 -0.5790
   49MOL0     C 6646   6.189  12.306   3.675  0.1540  0.8731 -0.5567
   49MOL0     C 6647   6.320  12.385   3.698 -0.5430  0.6958 -0.3040
   49MOL0     O 6648   6.412  12.381   3.587 -0.1736  0.5217 -0.5688
   49MOL0     C 6649   6.438  12.259   3.535  0.6978  0.7655  0.0168
   49MOL0     C 6650   6.467  12.151   3.618  0.0559 -0.9517  0.8871
   49MOL0     C 6651   6.502  12.024   3.563  0.2581  0.3318  0.3422
   49MOL0     C 6652   6.533  11.909   3.662  0.6150  0.1551 -0.3435
   49MOL0     C 6653   6.519  12.003   3.423  0.4477  0.7243  0.5013
   49MOL0     C 6654   6.537  11.875   3.348 -0.1186  0.1575  0.6714
   49MOL0     O 6655   6.574  11.879   3.213 -0.3151  0.7767 -0.8471
   49MOL0     C 6656   6.569  11.770   3.126 -0.2165  0.0161  0.7412
   49MOL0     C 6657   6.636  11.792   3.007 -0.3225  0.2066 -1.1796
   49MOL0     C 6658   6.632  11.697   2.898  0.2015 -0.1540 -1.0770
   49MOL0     C 6659   6.576  11.573   2.915 -1.1358  0.3053 -0.4619
   49MOL0     O 6660   6.585  11.488   2.808  1.3999  0.1234 -0.4311
   49MOL0     C 6661   6.493  11.373   2.802 -0.0764 -0.0428  0.1606
   49MOL0     C 6662   6.483  11.340   2.654 -1.3584  0.0909 -0.3461
   49MOL0     C 6663   6.401  11.444   2.578 -0.0748  0.4984  0.1922
   49MOL0     C 6664   6.448  11.450   2.430 -0.4531  0.0426 -0.4281
   49MOL0     C 6665   6.348  11.523   2.331 -0.2707 -0.0768  0.2243
   49MOL0     C 6666   6.342  11.675   2.352  0.7044 -0.2025  0.5724
   49MOL0     C 6667   6.403  11.772   2.252 -0.9736  1.0073  0.0175
   49MOL0     C 6668   6.539  11.727   2.199  0.4100 -0.3558 -1.2439
   49MOL0    Cl 6669   6.649  11.739   2.344  0.2240  0.4504 -0.4806
   49MOL0     C 6670   6.531  11.541   3.039  0.0117  0.1502  0.3791
   49MOL0     C 6671   6.517  11.638   3.147 -0.1181 -0.7918  0.4502
   49MOL0     O 6672   6.508  11.777   3.409  0.3640 -0.0949  0.2350
   49MOL0     C 6673   6.509  12.118   3.341  0.8973 -0.3564 -0.5819
   49MOL0     C 6674   6.460  12.238   3.403  0.5137 -0.3877  0.3856
   49MOL0     N 6675   6.112  12.183   3.290  0.2644 -0.4494 -0.0741
   49MOL0     N 6676   6.162  12.085   3.227  0.2825  0.6650  0.4124
   49MOL0     C 6677   5.762  11.025   3.016 -1.4991 -0.3598  0.4015
   49MOL0     C 6678   5.743  10.910   2.929 -0.3212 -1.4021  0.1669
   49MOL0     C 6679   5.853  10.613   2.630 -0.6741  0.0875 -0.1065
   49MOL0     C 6680   5.941  10.504   2.647 -0.1289 -0.0350  0.0101
   49MOL0     C 6681   5.959  10.418   2.546  0.3287  0.1576  0.1820
   49MOL0     C 6682   5.902  10.441   2.418 -0.5011  0.5345 -0.9857
   49MOL0     O 6683   5.945  10.373   2.306  0.1198  0.0839  0.5228
   49MOL0     C 6684   6.021  10.255   2.320  0.0434 -0.0663 -0.1087
   49MOL0     C 6685   6.048  10.210   2.174  0.0966  0.4193  0.1853
   49MOL0     C 6686   6.188  10.143   2.158 -0.2180 -0.9907 -0.0099
   49MOL0     C 6687   6.203  10.098   2.013 -0.2906 -0.4619 -0.5873
   49MOL0     C 6688   6.324  10.007   2.007  0.6809 -0.9743  0.0509
   49MOL0     C 6689   6.417   9.935   2.034 -0.5338  1.3251 -0.1181
   49MOL0     C 6690   5.823  10.548   2.405  0.0014 -0.4267  0.1402
   49MOL0     C 6691   5.786  10.628   2.503  0.7849 -1.2339 -0.3256
   49MOL0     C 6692   5.673  10.730   2.481 -0.3684  0.3892 -1.0711
   49MOL0     H 6693   5.800  11.060   2.642 -4.4109 -3.9652 -0.6694
   49MOL0     H 6694   5.790  11.263   2.786 -2.0239  1.0713  0.9247
   49MOL0     H 6695   5.650  11.421   3.125 -1.0101 -0.1972 -0.8532
   49MOL0     H 6696   5.638  11.358   2.956  1.0363 -1.1256 -0.8074
   49MOL0     H 6697   5.886  11.410   2.931 -0.4782 -1.1502 -0.7714
   49MOL0     H 6698   5.773  11.540   2.914  0.2526 -0.9164 -1.2644
   49MOL0     H 6699   5.908  11.479   3.181  3.5733  1.6219  1.4636
   49MOL0     H 6700   5.962  11.601   3.076 -0.1263 -0.2603  0.4409
   49MOL0     H 6701   5.773  11.746   3.099  1.3274 -0.1046 -0.5900
   49MOL0     H 6702   5.680  11.608   3.172  2.2724 -2.9289 -0.5597
   49MOL0     H 6703   5.842  11.635   3.363 -0.0958 -1.3852  0.1761
   49MOL0     H 6704   5.731  11.766   3.330 -0.8843  1.9699 -4.4879
   49MOL0     H 6705   5.937  11.869   3.176 -0.7787  0.8071  0.6947
   49MOL0     H 6706   5.915  11.890   3.353 -1.5594  0.7593 -0.7675
   49MOL0     H 6707   6.097  11.686   3.195  1.8317  2.0628 -1.1546
   49MOL0     H 6708   6.077  11.683   3.373 -4.7826 -1.6958 -1.6929
   49MOL0     H 6709   6.257  11.797   3.394  0.8976  3.2586  0.8061
   49MOL0     H 6710   6.274  11.830   3.227 -0.1422  0.3884  1.0185
   49MOL0     H 6711   6.084  11.971   3.535 -0.8969  0.1087  0.1620
   49MOL0     H 6712   5.960  12.217   3.600  0.3116 -0.9789 -0.5198
   49MOL0     H 6713   5.928  12.310   3.454  1.1503  0.1548 -3.2414
   49MOL0     H 6714   6.168  12.400   3.479  1.3719  0.3147  0.5952
   49MOL0     H 6715   6.042  12.442   3.596  0.5744 -0.0496 -1.0605
   49MOL0     H 6716   6.124  12.323   3.761  1.5414 -0.1188  0.7519
   49MOL0     H 6717   6.214  12.199   3.669  2.0015  1.2471 -0.1363
   49MOL0     H 6718   6.285  12.487   3.719 -0.4135  0.4294  1.3866
   49MOL0     H 6719   6.371  12.353   3.789 -2.0402  2.6028  1.3111
   49MOL0     H 6720   6.479  12.172   3.723 -0.9171  0.1869  0.7950
   49MOL0     H 6721   6.504  11.953   3.757 -2.4500  3.2696 -2.4700
   49MOL0     H 6722   6.636  11.876   3.647  0.7602 -0.3056  1.4839
   49MOL0     H 6723   6.465  11.823   3.656  1.3810 -0.6306  1.5629
   49MOL0     H 6724   6.686  11.887   2.991 -0.3692  0.1686 -1.5627
   49MOL0     H 6725   6.665  11.716   2.797 -2.1536  0.2406 -1.8481
   49MOL0     H 6726   6.541  11.289   2.852  1.4461  0.5553 -0.2383
   49MOL0     H 6727   6.396  11.396   2.846  1.1938  2.8350  1.7177
   49MOL0     H 6728   6.583  11.344   2.609 -1.0868 -2.5458 -0.1789
   49MOL0     H 6729   6.442  11.239   2.644 -2.7521  0.7704 -1.9563
   49MOL0     H 6730   6.428  11.543   2.617 -0.7066  1.6401 -2.1013
   49MOL0     H 6731   6.299  11.406   2.589  0.8960 -2.0186  1.2249
   49MOL0     H 6732   6.448  11.346   2.398 -0.5613  0.5890 -2.3401
   49MOL0     H 6733   6.552  11.481   2.415  0.2199 -1.2380  1.2159
   49MOL0     H 6734   6.372  11.499   2.228 -0.1828  0.8880  0.0055
   49MOL0     H 6735   6.250  11.475   2.339  1.1374 -3.2905 -0.5074
   49MOL0     H 6736   6.395  11.706   2.443  4.0781  0.7567 -1.5452
   49MOL0     H 6737   6.237  11.702   2.357  0.5660 -0.1265 -1.8983
   49MOL0     H 6738   6.408  11.875   2.286 -1.7377  1.0968 -0.1303
   49MOL0     H 6739   6.329  11.777   2.172 -0.8234  1.8805 -0.0701
   49MOL0     H 6740   6.563  11.804   2.125  3.2928  0.8723  0.8114
   49MOL0     H 6741   6.544  11.626   2.158  1.0837 -1.0873  0.5515
   49MOL0     H 6742   6.487  11.444   3.064  0.0178  0.3246  1.1008
   49MOL0     H 6743   6.449  11.610   3.227 -1.0583 -3.4455 -1.1327
   49MOL0     H 6744   6.514  12.124   3.233  1.1897 -0.5571 -0.5782
   49MOL0     H 6745   6.458  12.318   3.330  0.7081 -2.3515 -1.9053
   49MOL0     H 6746   5.742  11.016   3.122 -0.3726 -1.0588  0.5726
   49MOL0     H 6747   5.721  10.814   2.976 -3.1758  0.0127  1.9460
   49MOL0     H 6748   5.993  10.499   2.742 -0.2397 -0.6812  0.0371
   49MOL0     H 6749   6.040  10.348   2.565  1.1496  0.8520 -0.6406
   49MOL0     H 6750   6.124  10.273   2.352  0.4059 -1.1706 -0.5892
   49MOL0     H 6751   5.970  10.180   2.382 -0.0347 -0.6637 -0.8801
   49MOL0     H 6752   6.051  10.305   2.120 -1.9016  0.5097  0.1472
   49MOL0     H 6753   5.976  10.136   2.137  2.3164 -2.6926  1.6854
   49MOL0     H 6754   6.269  10.205   2.198 -0.6610  0.2458 -0.9675
   49MOL0     H 6755   6.198  10.057   2.225  0.0013 -1.6331 -0.8571
   49MOL0     H 6756   6.218  10.190   1.955 -2.2350 -0.0801 -0.5526
   49MOL0     H 6757   6.106  10.057   1.986 -1.7310  0.9468  2.0130
   49MOL0     H 6758   6.488   9.866   2.074  0.2606  2.9320  1.3599
   49MOL0     H 6759   5.779  10.563   2.307 -0.2301 -1.0140  0.1533
   49MOL0     H 6760   5.614  10.734   2.573  1.9705 -0.5279  0.5669
   49MOL0     H 6761   5.705  10.834   2.465 -0.7822  0.6767 -0.1165
   49MOL0     H 6762   5.611  10.687   2.402  0.6988 -1.8910 -0.7444
   50MOL0     O 6763   7.237   9.642  11.319 -0.1809 -0.1369  0.5156
   50MOL0     C 6764   7.357   9.653  11.345  0.6991  0.3284 -0.0069
   50MOL0     O 6765   7.412   9.617  11.465  0.5925  0.0759 -0.3527
   50MOL0     C 6766   7.332   9.641  11.571  0.5889 -0.3076 -0.0411
   50MOL0     C 6767   7.289   9.541  11.650 -1.1572  0.3144  0.0260
   50MOL0     C 6768   7.189   9.565  11.751 -0.2166 -0.6939 -0.2633
   50MOL0     C 6769   7.137   9.698  11.777  0.2082 -0.4359 -0.0699
   50MOL0     O 6770   7.037   9.736  11.864 -0.3100 -0.5374 -0.6283
   50MOL0     C 6771   6.936   9.641  11.895  0.0931  0.7745 -0.8143
   50MOL0     C 6772   6.800   9.705  11.948  0.3718  0.7238 -0.0987
   50MOL0     C 6773   6.694   9.600  11.989 -0.0508  0.3897  0.3398
   50MOL0     C 6774   6.603   9.675  12.084  0.3556  0.1829  0.3181
   50MOL0     C 6775   6.473   9.602  12.125  0.7525  0.1592  0.7331
   50MOL0     C 6776   6.509   9.468  12.191  0.4810  0.4082 -0.0003
   50MOL0     C 6777   6.383   9.388  12.222  0.4668  0.1153  0.1820
   50MOL0     C 6778   6.303   9.325  12.101  0.3525 -0.2653  0.5426
   50MOL0     N 6779   6.376   9.212  12.041  0.4786  0.2608 -0.4255
   50MOL0     C 6780   6.464   9.233  11.934  0.4983 -0.0804  0.0201
   50MOL0     C 6781   6.533   9.116  11.925  0.0452  0.2334 -0.4447
   50MOL0     C 6782   6.647   9.087  11.829  0.6595 -0.6553  0.5417
   50MOL0     C 6783   6.758   8.992  11.895  1.3555  0.9842  0.3352
   50MOL0     C 6784   6.731   8.837  11.891  0.1765  0.4296 -0.1701
   50MOL0     C 6785   6.758   8.765  12.024  0.1607  0.2368  0.1804
   50MOL0     O 6786   6.888   8.797  12.066  0.3620  0.2899  1.0804
   50MOL0     C 6787   6.965   8.690  12.094  0.5181  0.4084  1.2657
   50MOL0     C 6788   7.010   8.601  11.990  0.2585 -0.7367 -0.0395
   50MOL0     C 6789   7.096   8.496  12.007  0.1426 -0.2869 -0.0884
   50MOL0     C 6790   7.142   8.427  11.876 -0.0543  0.1399  0.3324
   50MOL0     C 6791   7.141   8.476  12.148  0.5642 -0.8035 -0.4863
   50MOL0     C 6792   7.253   8.375  12.184 -0.0494 -0.4909  0.4402
   50MOL0     O 6793   7.286   8.277  12.094 -0.3684  0.0465  0.0712
   50MOL0     C 6794   7.378   8.183  12.131 -0.5031 -0.1499  0.6270
   50MOL0     C 6795   7.349   8.048  12.106 -0.2502 -0.1973 -0.3728
   50MOL0     C 6796   7.435   7.945  12.160 -0.4134 -0.1166 -0.5112
   50MOL0     C 6797   7.545   7.967  12.237  0.4812  0.8482 -0.0913
   50MOL0     O 6798   7.608   7.860  12.296 -0.3221  0.1557 -0.0574
   50MOL0     C 6799   7.744   7.875  12.339 -0.1585  0.8246  0.7217
   50MOL0     C 6800   7.778   7.743  12.408  0.3929 -0.2571  0.2139
   50MOL0     C 6801   7.742   7.616  12.317 -0.0892 -0.3655 -0.1983
   50MOL0     C 6802   7.787   7.478  12.370  0.1941  0.8038 -0.4848
   50MOL0     C 6803   7.746   7.426  12.507  0.4792  1.0595 -0.9953
   50MOL0     C 6804   7.776   7.280  12.550 -0.7575 -0.5140  0.5342
   50MOL0     C 6805   7.723   7.258  12.698 -0.3293  0.7805 -0.2074
   50MOL0     C 6806   7.737   7.116  12.761 -0.7619 -0.5795 -0.7690
   50MOL0    Cl 6807   7.617   7.028  12.678  0.5119  0.4399 -0.1804
   50MOL0     C 6808   7.595   8.104  12.231  0.4456 -0.3433 -0.1797
   50MOL0     C 6809   7.506   8.211  12.185  0.3423  0.2195  0.3666
   50MOL0     O 6810   7.297   8.380  12.296  0.8281  0.0458  0.7329
   50MOL0     C 6811   7.092   8.567  12.256  0.5105  0.0999  0.5964
   50MOL0     C 6812   7.007   8.675  12.227  0.6310 -0.6850  0.0474
   50MOL0     N 6813   6.479   9.031  12.024 -0.1847 -0.0926 -0.2925
   50MOL0     N 6814   6.398   9.088  12.097 -0.1213 -0.3440  0.8254
   50MOL0     C 6815   7.189   9.797  11.697 -0.0050 -0.3721 -0.5634
   50MOL0     C 6816   7.292   9.768  11.605 -0.2783 -0.4885 -0.0056
   50MOL0     C 6817   7.448   9.687  11.235  1.0417  0.8885  0.9469
   50MOL0     C 6818   7.585   9.678  11.273  0.0426 -0.6632 -0.5697
   50MOL0     C 6819   7.684   9.711  11.181  0.0543 -0.7149 -0.3049
   50MOL0     C 6820   7.656   9.741  11.046  0.6489 -0.0008 -0.1884
   50MOL0     O 6821   7.764   9.757  10.962  0.6461  0.6396 -0.4555
   50MOL0     C 6822   7.727   9.694  10.835 -0.6497 -0.2520 -0.2645
   50MOL0     C 6823   7.857   9.625  10.791 -0.0310  0.0166 -1.1962
   50MOL0     C 6824   7.864   9.569  10.650  0.2620  0.4185  0.1911
   50MOL0     C 6825   7.959   9.449  10.642  0.8336  0.4675  0.7360
   50MOL0     C 6826   7.935   9.408  10.504 -1.0663 -0.1881 -0.4803
   50MOL0     C 6827   7.911   9.375  10.392  0.6324  1.0525  0.9915
   50MOL0     C 6828   7.513   9.741  11.009  0.4633  1.4247 -0.2135
   50MOL0     C 6829   7.406   9.716  11.100 -1.0274 -1.4523 -0.9980
   50MOL0     C 6830   7.261   9.751  11.071  0.2420  0.5337 -0.5606
   50MOL0     H 6831   7.339   9.445  11.639  1.1385  1.3441  0.8782
   50MOL0     H 6832   7.170   9.479  11.813 -0.0136 -0.4435  0.1486
   50MOL0     H 6833   6.966   9.570  11.972 -1.5915  2.0706  1.1443
   50MOL0     H 6834   6.909   9.580  11.808 -0.0532 -0.8907  0.3396
   50MOL0     H 6835   6.824   9.774  12.030 -3.6698  0.7836  1.2525
   50MOL0     H 6836   6.755   9.762  11.867  1.9041  0.2343 -1.3498
   50MOL0     H 6837   6.636   9.571  11.901  0.2753  0.5239  0.0760
   50MOL0     H 6838   6.738   9.512  12.037  0.6474 -0.1631 -1.2381
   50MOL0     H 6839   6.664   9.697  12.172  1.7062 -0.7595 -0.3494
   50MOL0     H 6840   6.558   9.769  12.049 -0.8546  0.3296  2.1517
   50MOL0     H 6841   6.406   9.585  12.040 -0.0110  1.8878  0.9419
   50MOL0     H 6842   6.419   9.663  12.199 -0.1477  2.2937 -1.5548
   50MOL0     H 6843   6.567   9.403  12.125  0.0797  0.5100 -0.4575
   50MOL0     H 6844   6.567   9.481  12.282 -1.2268  0.5167  1.1137
   50MOL0     H 6845   6.313   9.453  12.275 -2.6238 -0.5201 -2.8025
   50MOL0     H 6846   6.404   9.305  12.291 -0.2869  0.3536  0.7138
   50MOL0     H 6847   6.215   9.282  12.149 -0.2845 -1.3544 -1.4968
   50MOL0     H 6848   6.282   9.393  12.019  0.8040 -3.0834 -2.1064
   50MOL0     H 6849   6.481   9.327  11.882  1.5105 -0.2337  0.0542
   50MOL0     H 6850   6.687   9.187  11.809 -1.2450  0.2323  1.0009
   50MOL0     H 6851   6.615   9.050  11.731  1.8354  1.6340 -0.7880
   50MOL0     H 6852   6.850   9.006  11.837 -0.5379 -0.8180 -3.4357
   50MOL0     H 6853   6.770   9.011  12.002  0.8786 -2.3575  1.1033
   50MOL0     H 6854   6.629   8.839  11.853  0.6965 -0.3545 -1.7194
   50MOL0     H 6855   6.792   8.792  11.811  0.8234  2.2663 -0.7592
   50MOL0     H 6856   6.677   8.800  12.089  0.3362  3.4671 -1.1585
   50MOL0     H 6857   6.752   8.656  12.010  1.9571  0.0068  0.9430
   50MOL0     H 6858   6.994   8.622  11.885  1.3692 -2.8290 -0.6722
   50MOL0     H 6859   7.074   8.420  11.791  3.1760 -2.9074 -2.3157
   50MOL0     H 6860   7.157   8.321  11.899 -2.4554 -0.1487  0.8523
   50MOL0     H 6861   7.232   8.475  11.837 -2.3180  2.5025 -2.4534
   50MOL0     H 6862   7.254   8.031  12.056 -0.5414  0.1923  0.0381
   50MOL0     H 6863   7.404   7.841  12.151 -0.2424 -0.2918  0.8218
   50MOL0     H 6864   7.820   7.881  12.260  2.1131 -4.1828  2.0959
   50MOL0     H 6865   7.756   7.953  12.414  0.1035  2.6357 -1.1282
   50MOL0     H 6866   7.885   7.732  12.425  0.8197  0.2301 -1.8537
   50MOL0     H 6867   7.723   7.755  12.502 -2.3228 -1.7807 -1.0351
   50MOL0     H 6868   7.786   7.617  12.217  0.8973  0.4756  0.2215
   50MOL0     H 6869   7.634   7.607  12.303  0.0801 -2.2561 -0.5001
   50MOL0     H 6870   7.896   7.481  12.372  0.2965 -0.7969 -1.3834
   50MOL0     H 6871   7.762   7.396  12.301 -0.6710  1.0623 -0.4900
   50MOL0     H 6872   7.788   7.489  12.586 -4.0341 -0.4519  3.1101
   50MOL0     H 6873   7.639   7.451  12.507  0.5285  1.3730  0.2855
   50MOL0     H 6874   7.882   7.253  12.546 -1.2870 -2.6719 -0.1742
   50MOL0     H 6875   7.713   7.210  12.494 -1.3029  0.1503  0.3088
   50MOL0     H 6876   7.615   7.274  12.693 -1.1268 -0.5247  5.5504
   50MOL0     H 6877   7.760   7.339  12.762  1.8246  1.6282 -2.3718
   50MOL0     H 6878   7.722   7.116  12.870 -0.4578 -0.1080 -0.7236
   50MOL0     H 6879   7.831   7.061  12.751 -0.3987 -1.2266  3.9123
   50MOL0     H 6880   7.685   8.136  12.282  0.3745  1.9426 -1.3875
   50MOL0     H 6881   7.546   8.312  12.189  0.2448  0.2315  1.6927
   50MOL0     H 6882   7.137   8.554  12.354 -0.7874 -0.7125  1.1058
   50MOL0     H 6883   6.972   8.751  12.296 -0.3871 -0.2259 -0.9404
   50MOL0     H 6884   7.159   9.900  11.714  0.8135 -0.4139  1.3775
   50MOL0     H 6885   7.324   9.852  11.544 -2.2609 -1.6480 -2.8706
   50MOL0     H 6886   7.622   9.644  11.370 -3.0699 -1.5136  0.4300
   50MOL0     H 6887   7.787   9.715  11.216 -0.7501  4.7089  2.4282
   50MOL0     H 6888   7.633   9.639  10.837 -2.6733  2.8386  2.8775
   50MOL0     H 6889   7.707   9.777  10.767 -2.5806  1.6573  2.4163
   50MOL0     H 6890   7.871   9.536  10.853 -0.4548  1.7495  1.5275
   50MOL0     H 6891   7.939   9.695  10.812 -1.5113  1.1847  0.9538
   50MOL0     H 6892   7.763   9.536  10.623  0.0204 -0.0028  1.5239
   50MOL0     H 6893   7.897   9.640  10.573 -3.3043  0.5179 -1.4747
   50MOL0     H 6894   7.934   9.372  10.715  0.7127 -0.0008  0.2130
   50MOL0     H 6895   8.067   9.465  10.650  0.9794 -0.7681  1.4201
   50MOL0     H 6896   7.884   9.344  10.293  1.5338 -0.1640  1.1037
   50MOL0     H 6897   7.491   9.766  10.906  3.1312 -0.4797 -1.3514
   50MOL0     H 6898   7.200   9.662  11.058  0.1567  0.2993  1.3058
   50MOL0     H 6899   7.226   9.810  11.156 -0.1471 -1.1738  0.4991
   50MOL0     H 6900   7.255   9.819  10.984 -1.1222  1.8443  0.5039
   51MOL0     O 6901   1.028   2.539   4.607 -1.0757 -0.6417  0.4789
   51MOL0     C 6902   1.041   2.663   4.607 -0.1873  0.0529 -0.4439
   51MOL0     O 6903   1.164   2.733   4.582  0.0047  1.1707 -0.2638
   51MOL0     C 6904   1.248   2.675   4.494  0.1774 -0.5004  1.0516
   51MOL0     C 6905   1.357   2.608   4.541  0.2406  0.0664  0.0381
   51MOL0     C 6906   1.468   2.570   4.464  0.6879  0.0803  0.3424
   51MOL0     C 6907   1.458   2.577   4.315  0.0743 -0.7439 -0.7917
   51MOL0     O 6908   1.555   2.523   4.231  0.0104  0.3462  0.1202
   51MOL0     C 6909   1.523   2.385   4.196  0.2766  0.2445 -0.5663
   51MOL0     C 6910   1.613   2.283   4.259  0.1720 -0.0705  0.0132
   51MOL0     C 6911   1.765   2.322   4.224 -0.0260  0.3672  0.3836
   51MOL0     C 6912   1.833   2.184   4.204  0.3283  0.1086  0.2795
   51MOL0     C 6913   1.974   2.200   4.147  0.5495 -0.4228  0.3785
   51MOL0     C 6914   1.960   2.282   4.011  0.8393  0.0386 -0.8614
   51MOL0     C 6915   2.071   2.271   3.908 -0.3702  0.4054 -0.3966
   51MOL0     C 6916   2.195   2.361   3.919  0.3062  1.0273 -0.7880
   51MOL0     N 6917   2.315   2.276   3.932 -0.5070  0.2793 -0.1317
   51MOL0     C 6918   2.365   2.231   4.049  0.1210 -0.5388 -0.3682
   51MOL0     C 6919   2.444   2.130   4.019  0.0972  0.7466 -0.3097
   51MOL0     C 6920   2.508   2.057   4.137  0.0974  0.1344  0.2743
   51MOL0     C 6921   2.405   1.972   4.206 -0.0210  0.2304 -0.0520
   51MOL0     C 6922   2.471   1.867   4.300  0.2750 -0.2824 -0.5324
   51MOL0     C 6923   2.511   1.730   4.244 -0.0609  0.2198 -0.2152
   51MOL0     O 6924   2.636   1.691   4.294  0.1128 -0.3631 -0.2415
   51MOL0     C 6925   2.645   1.610   4.410 -0.9649 -0.0164 -0.4392
   51MOL0     C 6926   2.556   1.615   4.519  0.9789 -0.0393  0.7160
   51MOL0     C 6927   2.562   1.542   4.632 -0.1299 -0.7840  0.3948
   51MOL0     C 6928   2.473   1.569   4.746 -0.0339 -0.8757 -0.5683
   51MOL0     C 6929   2.669   1.450   4.633 -0.0743  0.5187 -0.8728
   51MOL0     C 6930   2.685   1.356   4.751 -1.0314  1.0958 -0.7783
   51MOL0     O 6931   2.815   1.306   4.762  0.4959  0.2086  0.1223
   51MOL0     C 6932   2.845   1.227   4.868  0.7147  0.0936 -1.2651
   51MOL0     C 6933   2.906   1.275   4.984 -0.6060 -0.8709  0.6111
   51MOL0     C 6934   2.931   1.185   5.093 -0.6736  0.2788 -0.4845
   51MOL0     C 6935   2.914   1.051   5.077  0.7525 -0.3033  0.1635
   51MOL0     O 6936   2.947   0.965   5.182 -0.1304  0.2198 -0.8242
   51MOL0     C 6937   3.081   0.976   5.237 -0.0642  0.3881  0.2293
   51MOL0     C 6938   3.177   0.978   5.125 -0.3695 -0.6013 -1.0343
   51MOL0     C 6939   3.313   1.045   5.165 -0.7155 -0.1356  0.1089
   51MOL0     C 6940   3.423   0.980   5.072 -0.3038 -0.0814  0.3431
   51MOL0     C 6941   3.561   1.015   5.127 -0.5525 -0.2972  0.0963
   51MOL0     C 6942   3.660   0.913   5.069 -0.4959  0.4320 -0.0518
   51MOL0     C 6943   3.707   0.960   4.926  0.2925 -0.6585 -0.8156
   51MOL0     C 6944   3.808   0.873   4.856  0.3628  0.3220  0.1410
   51MOL0    Cl 6945   3.750   0.707   4.830  0.0124 -0.4266  0.5722
   51MOL0     C 6946   2.859   1.009   4.962 -0.0450  0.6152  0.1558
   51MOL0     C 6947   2.819   1.091   4.859  0.4949 -0.4315 -0.3012
   51MOL0     O 6948   2.589   1.335   4.831 -0.1304 -0.0247 -0.6778
   51MOL0     C 6949   2.760   1.439   4.528  0.5111  0.1968 -0.0737
   51MOL0     C 6950   2.754   1.523   4.412  1.2493  0.3587  0.0160
   51MOL0     N 6951   2.438   2.102   3.886  0.0504 -0.1070  0.5757
   51MOL0     N 6952   2.369   2.202   3.829 -0.4303 -0.5283 -0.5155
   51MOL0     C 6953   1.344   2.641   4.265  0.0340 -0.2044 -0.6652
   51MOL0     C 6954   1.240   2.691   4.353 -0.2969 -1.4759 -0.0848
   51MOL0     C 6955   0.925   2.760   4.635 -0.3885  0.6850  1.4223
   51MOL0     C 6956   0.938   2.899   4.604  0.8403  0.2752 -0.7913
   51MOL0     C 6957   0.824   2.984   4.603 -1.0194 -0.5658  0.0141
   51MOL0     C 6958   0.703   2.934   4.643  0.2360  0.8624  0.1426
   51MOL0     O 6959   0.603   3.025   4.641 -0.3607 -0.8354 -0.8056
   51MOL0     C 6960   0.470   2.970   4.662  0.7776 -1.0587 -0.4226
   51MOL0     C 6961   0.357   3.069   4.609  0.0363 -0.3430 -0.6839
   51MOL0     C 6962   0.380   3.132   4.465  0.1283  0.4845  0.0861
   51MOL0     C 6963   0.430   3.027   4.362 -0.0206 -0.6583  0.1968
   51MOL0     C 6964   0.314   2.950   4.311  0.4728 -0.5781 -0.9127
   51MOL0     C 6965   0.221   2.896   4.247 -0.7861 -1.3214  0.6086
   51MOL0     C 6966   0.687   2.803   4.684 -0.6497  0.5399  0.1075
   51MOL0     C 6967   0.797   2.714   4.673  0.2062 -0.5238 -0.5490
   51MOL0     C 6968   0.766   2.577   4.714  0.0259 -0.0433  0.6035
   51MOL0     H 6969   1.375   2.588   4.646  1.7134  2.2868  0.2666
   51MOL0     H 6970   1.548   2.517   4.514  0.6042  0.4166  0.8467
   51MOL0     H 6971   1.528   2.372   4.087 -2.0822 -0.1724 -0.6687
   51MOL0     H 6972   1.422   2.354   4.225  1.6892 -2.4508  2.0212
   51MOL0     H 6973   1.595   2.285   4.367  1.2406 -1.2064  0.2296
   51MOL0     H 6974   1.589   2.183   4.222 -0.1419  0.0838 -0.1997
   51MOL0     H 6975   1.766   2.388   4.137  0.2237 -2.9200 -2.2936
   51MOL0     H 6976   1.819   2.383   4.297  0.6787  0.5437 -0.2777
   51MOL0     H 6977   1.840   2.123   4.295 -2.9597 -2.1133 -0.7874
   51MOL0     H 6978   1.776   2.134   4.125  1.0444  0.6936 -0.6256
   51MOL0     H 6979   1.995   2.095   4.122  1.4212 -0.1663 -0.0082
   51MOL0     H 6980   2.046   2.249   4.213  1.3961 -1.1269 -0.0034
   51MOL0     H 6981   1.868   2.249   3.963  1.3147  0.9116 -2.4438
   51MOL0     H 6982   1.949   2.390   4.030 -2.4589 -0.0620 -1.6536
   51MOL0     H 6983   2.026   2.299   3.812 -1.8594  1.0450  0.4591
   51MOL0     H 6984   2.108   2.168   3.912  0.4662  0.6275 -1.7100
   51MOL0     H 6985   2.206   2.432   3.835  0.5221  0.3797 -1.3156
   51MOL0     H 6986   2.194   2.424   4.009  3.6664 -0.5481  0.5127
   51MOL0     H 6987   2.351   2.269   4.150 -2.7006  0.7628 -1.1483
   51MOL0     H 6988   2.555   2.136   4.196  0.6602  1.0941 -1.4045
   51MOL0     H 6989   2.590   2.001   4.091  0.8986 -1.1999  3.1150
   51MOL0     H 6990   2.352   2.039   4.273  0.2869 -1.0127  1.5092
   51MOL0     H 6991   2.342   1.925   4.130 -3.5831  0.9024  2.2421
   51MOL0     H 6992   2.560   1.910   4.346 -1.4432  2.4202  0.5044
   51MOL0     H 6993   2.399   1.845   4.380 -0.5151  1.3059 -0.7804
   51MOL0     H 6994   2.438   1.652   4.268  1.5463 -1.1759  0.3323
   51MOL0     H 6995   2.521   1.722   4.135  0.2312 -1.3453 -0.0985
   51MOL0     H 6996   2.483   1.696   4.521  0.0856 -0.8111  3.1136
   51MOL0     H 6997   2.418   1.662   4.729 -0.8710 -1.0106  1.1506
   51MOL0     H 6998   2.529   1.585   4.839 -3.3877  1.5607  1.2248
   51MOL0     H 6999   2.409   1.481   4.755 -0.3212 -0.8499 -2.1502
   51MOL0     H 7000   2.918   1.382   4.993 -3.7756 -0.3455 -0.4948
   51MOL0     H 7001   2.961   1.235   5.185  0.0586  3.5650 -2.3183
   51MOL0     H 7002   3.094   1.063   5.302 -1.8598  0.1571  0.9802
   51MOL0     H 7003   3.107   0.889   5.299  4.4882 -1.0559 -3.2263
   51MOL0     H 7004   3.186   0.873   5.096  1.8367 -0.9727  0.7521
   51MOL0     H 7005   3.138   1.019   5.032 -1.5588 -3.0784 -1.7108
   51MOL0     H 7006   3.349   1.034   5.268 -1.1394  3.1950  0.7400
   51MOL0     H 7007   3.308   1.154   5.156 -1.7047 -0.2084 -0.2924
   51MOL0     H 7008   3.413   1.022   4.972  2.7696 -1.3709 -0.6235
   51MOL0     H 7009   3.396   0.874   5.073 -3.4072  0.6147  0.2086
   51MOL0     H 7010   3.571   1.114   5.082  0.6975 -1.4028 -2.2391
   51MOL0     H 7011   3.569   1.008   5.236  1.9533 -0.8101 -0.0479
   51MOL0     H 7012   3.622   0.810   5.072  2.3513 -0.7280  0.2860
   51MOL0     H 7013   3.752   0.909   5.128  1.1300 -2.8136 -2.4800
   51MOL0     H 7014   3.740   1.064   4.939 -2.5204  0.0118  2.2482
   51MOL0     H 7015   3.614   0.969   4.869 -0.0683 -2.6962 -0.6141
   51MOL0     H 7016   3.899   0.863   4.916 -0.3886  0.4890  1.3344
   51MOL0     H 7017   3.839   0.916   4.760  2.1995  0.6948  0.8480
   51MOL0     H 7018   2.846   0.904   4.938  3.6691 -0.6502  2.7902
   51MOL0     H 7019   2.774   1.057   4.766  0.2254 -2.1541  0.4135
   51MOL0     H 7020   2.839   1.365   4.523  2.3123  1.8901  1.5486
   51MOL0     H 7021   2.821   1.526   4.326 -0.2307 -0.6206 -1.2139
   51MOL0     H 7022   1.339   2.651   4.157  3.3195 -2.1379 -1.1234
   51MOL0     H 7023   1.142   2.732   4.331 -0.1842  0.1334  2.1404
   51MOL0     H 7024   1.030   2.944   4.569  1.3801  0.6279  0.9874
   51MOL0     H 7025   0.841   3.087   4.573 -0.4261 -1.2088 -1.9911
   51MOL0     H 7026   0.458   2.875   4.610 -3.5522 -0.8129 -0.2264
   51MOL0     H 7027   0.454   2.956   4.769  1.1856  0.2819 -0.1659
   51MOL0     H 7028   0.320   3.144   4.679 -0.0659 -3.5580  3.0441
   51MOL0     H 7029   0.273   3.000   4.609 -0.0949 -0.4503  3.4844
   51MOL0     H 7030   0.288   3.178   4.429 -2.0771 -3.0795  0.6035
   51MOL0     H 7031   0.458   3.208   4.479  2.4380 -1.8662  0.9752
   51MOL0     H 7032   0.509   2.957   4.393  0.1984  0.2653  1.8661
   51MOL0     H 7033   0.483   3.093   4.292 -1.9919 -0.5722 -1.2713
   51MOL0     H 7034   0.141   2.857   4.187 -3.2060  2.1495  1.2756
   51MOL0     H 7035   0.589   2.766   4.711 -0.5482 -0.9001 -1.3433
   51MOL0     H 7036   0.780   2.525   4.619 -2.3970  0.9752 -0.3867
   51MOL0     H 7037   0.833   2.542   4.792  1.0610 -0.2893 -0.3676
   51MOL0     H 7038   0.664   2.560   4.750  0.5351  0.2288  2.2647
   52MOL0     O 7039   8.351   9.470   1.385  0.0618  0.1781 -0.1857
   52MOL0     C 7040   8.368   9.590   1.406  0.6232 -0.3686 -0.2487
   52MOL0     O 7041   8.447   9.636   1.506 -0.0567 -0.4538  0.4284
   52MOL0     C 7042   8.540   9.552   1.531 -0.2050 -0.5855 -0.2976
   52MOL0     C 7043   8.672   9.577   1.496  0.5498  0.0274  0.5446
   52MOL0     C 7044   8.768   9.490   1.541 -0.1204 -0.0917 -0.7564
   52MOL0     C 7045   8.731   9.390   1.633 -0.4504 -0.4489  0.3467
   52MOL0     O 7046   8.833   9.293   1.649  0.1953  0.5155 -0.1372
   52MOL0     C 7047   8.810   9.175   1.573  1.0738  0.3895  0.3584
   52MOL0     C 7048   8.913   9.066   1.582  0.5244  0.8566 -0.1754
   52MOL0     C 7049   9.055   9.113   1.550 -0.1558  0.0533 -0.3966
   52MOL0     C 7050   9.069   9.096   1.401  0.1032  0.0190  0.4248
   52MOL0     C 7051   9.216   9.123   1.372 -0.8500  0.2138 -0.0583
   52MOL0     C 7052   9.246   9.122   1.216  0.1095 -0.0136  0.6116
   52MOL0     C 7053   9.260   8.973   1.172 -0.3254  0.2497 -0.1240
   52MOL0     C 7054   9.409   8.919   1.184  0.6344  0.2096  0.0756
   52MOL0     N 7055   9.501   9.001   1.114  0.4210  0.3454  0.4212
   52MOL0     C 7056   9.594   9.081   1.168  0.4055  0.5502 -0.8963
   52MOL0     C 7057   9.665   9.145   1.075 -0.0687  0.1297 -0.2406
   52MOL0     C 7058   9.768   9.247   1.089 -0.0418 -1.2294  0.5610
   52MOL0     C 7059   9.869   9.229   0.978 -0.1123 -0.9245 -0.1474
   52MOL0     C 7060   9.963   9.346   0.992  0.1792 -0.8143  1.1948
   52MOL0     C 7061  10.080   9.337   0.895 -0.9122  0.6539  0.5533
   52MOL0     O 7062  10.034   9.374   0.763 -0.4097 -0.0770  0.4275
   52MOL0     C 7063  10.124   9.427   0.673 -0.2364 -0.1330 -0.1055
   52MOL0     C 7064  10.069   9.465   0.551  0.0960 -0.0110  0.4582
   52MOL0     C 7065  10.140   9.518   0.447 -0.3834 -0.5666  1.6124
   52MOL0     C 7066  10.056   9.572   0.317  0.2502  0.0524  0.1589
   52MOL0     C 7067  10.278   9.546   0.459 -1.2347  0.3614 -0.0510
   52MOL0     C 7068  10.374   9.605   0.356  0.6760  0.0066 -0.7631
   52MOL0     O 7069  10.317   9.653   0.237 -0.6751  0.2866 -0.1972
   52MOL0     C 7070  10.390   9.719   0.146  0.4361  0.0175 -1.3594
   52MOL0     C 7071  10.512   9.672   0.094  0.6457 -1.4837  0.2700
   52MOL0     C 7072  10.581   9.747   0.004 -1.0242  1.2516 -0.3272
   52MOL0     C 7073  10.525   9.873  -0.040 -0.3666 -0.4303 -0.6445
   52MOL0     O 7074  10.596   9.930  -0.138  0.4415 -0.1787 -0.1279
   52MOL0     C 7075  10.742   9.951  -0.131  0.3915 -0.1229 -0.2807
   52MOL0     C 7076  10.793  10.055  -0.027  0.4072 -0.0435  0.4306
   52MOL0     C 7077  10.755  10.189  -0.075  0.0663  0.9242 -0.1352
   52MOL0     C 7078  10.829  10.295  -0.001 -0.0761  0.0149  0.4663
   52MOL0     C 7079  10.807  10.308   0.146  1.3825  0.2867 -0.2660
   52MOL0     C 7080  10.659  10.283   0.188 -0.4027  0.6335 -0.0130
   52MOL0     C 7081  10.663  10.260   0.340 -0.2080 -0.1043 -1.0713
   52MOL0     C 7082  10.521  10.207   0.381 -0.2698 -1.2339 -0.0211
   52MOL0    Cl 7083  10.490  10.056   0.293  0.1591  0.2695  0.3228
   52MOL0     C 7084  10.403   9.916  -0.000  0.0951 -0.8820 -0.4139
   52MOL0     C 7085  10.339   9.842   0.100  0.4977  0.8732  0.1976
   52MOL0     O 7086  10.493   9.580   0.376 -0.1842 -0.3684  0.0471
   52MOL0     C 7087  10.334   9.507   0.581  0.3908  0.4798  0.3389
   52MOL0     C 7088  10.268   9.437   0.682  0.1255 -0.7876  0.4034
   52MOL0     N 7089   9.623   9.078   0.957  0.0256 -0.3683  0.0494
   52MOL0     N 7090   9.534   8.994   0.983 -0.5522  0.0028  0.0301
   52MOL0     C 7091   8.600   9.369   1.673  0.1896 -0.0451  0.1631
   52MOL0     C 7092   8.498   9.445   1.617 -0.5239 -0.5271 -0.5641
   52MOL0     C 7093   8.290   9.687   1.315 -0.1338  0.1789 -0.9109
   52MOL0     C 7094   8.192   9.639   1.232  0.8901  0.2239 -1.3616
   52MOL0     C 7095   8.119   9.718   1.143  0.9120  0.6724 -0.6850
   52MOL0     C 7096   8.147   9.849   1.140  0.1512  0.4609  1.0204
   52MOL0     O 7097   8.066   9.919   1.056 -0.5527 -0.8176 -0.1199
   52MOL0     C 7098   8.001  10.037   1.103 -0.8064 -0.1617 -0.4452
   52MOL0     C 7099   7.925  10.107   0.989  0.2139  0.4227 -0.0123
   52MOL0     C 7100   7.833  10.001   0.935 -0.0966  0.3556  0.4678
   52MOL0     C 7101   7.761  10.034   0.807 -0.5193 -0.0943 -0.3212
   52MOL0     C 7102   7.862  10.068   0.698  0.7840 -0.0688 -1.3966
   52MOL0     C 7103   7.918  10.093   0.597  0.3487 -0.5907  0.1344
   52MOL0     C 7104   8.244   9.906   1.217 -0.4542  1.1015 -0.5095
   52MOL0     C 7105   8.312   9.825   1.306 -0.4169 -0.4522 -0.7840
   52MOL0     C 7106   8.423   9.893   1.382 -0.3303  0.3031  0.5185
   52MOL0     H 7107   8.694   9.661   1.431  2.0841 -1.5995 -1.1339
   52MOL0     H 7108   8.871   9.497   1.509  0.3620 -1.1228  0.4957
   52MOL0     H 7109   8.779   9.205   1.473 -0.0807 -1.5769  0.0816
   52MOL0     H 7110   8.721   9.134   1.621  2.9388 -1.9295  2.1167
   52MOL0     H 7111   8.913   9.033   1.686 -1.2932 -1.0846 -0.7235
   52MOL0     H 7112   8.876   8.979   1.527  2.1021  0.7558 -1.1352
   52MOL0     H 7113   9.062   9.220   1.570 -1.3094  0.2505 -0.9400
   52MOL0     H 7114   9.133   9.059   1.605  1.9067  2.3494 -0.9051
   52MOL0     H 7115   9.047   8.992   1.377  1.0350 -0.4014  1.3156
   52MOL0     H 7116   9.001   9.165   1.350 -0.6593 -0.9876  0.0671
   52MOL0     H 7117   9.279   9.047   1.418 -1.0017  1.0212  1.5548
   52MOL0     H 7118   9.251   9.214   1.421 -0.4640  0.7686 -1.3162
   52MOL0     H 7119   9.156   9.171   1.177  2.5085  2.6246 -2.0748
   52MOL0     H 7120   9.325   9.183   1.171 -0.1513  2.3862  3.1172
   52MOL0     H 7121   9.231   8.966   1.067 -0.0816  2.0931 -0.3595
   52MOL0     H 7122   9.217   8.895   1.236  4.9788 -3.8079 -0.8054
   52MOL0     H 7123   9.457   8.916   1.282  4.4122 -3.6696 -1.5423
   52MOL0     H 7124   9.425   8.819   1.143  0.1759 -0.1806  0.8373
   52MOL0     H 7125   9.604   9.109   1.272  1.8376  0.9745 -1.1251
   52MOL0     H 7126   9.821   9.243   1.184  0.5275  1.8764  0.4600
   52MOL0     H 7127   9.712   9.341   1.077  2.1861  0.4122  2.3063
   52MOL0     H 7128   9.930   9.139   0.988  0.7702 -0.0576  3.9006
   52MOL0     H 7129   9.826   9.221   0.878 -2.2381  0.3271  0.6192
   52MOL0     H 7130   9.920   9.444   0.971  1.5309  0.0341  2.1347
   52MOL0     H 7131  10.005   9.362   1.092  0.6713  0.7014  0.7772
   52MOL0     H 7132  10.160   9.406   0.924  2.5371 -0.6589 -4.5501
   52MOL0     H 7133  10.124   9.237   0.888 -1.8194  0.3274 -0.9352
   52MOL0     H 7134   9.961   9.459   0.548  0.0191  1.0307  0.9919
   52MOL0     H 7135   9.955   9.531   0.322 -0.2948  1.0515 -1.9031
   52MOL0     H 7136  10.101   9.552   0.219  1.9604  1.5218  0.5746
   52MOL0     H 7137  10.031   9.678   0.327 -0.4817 -0.2011  1.1588
   52MOL0     H 7138  10.555   9.574   0.116 -0.4828 -1.4588  2.8505
   52MOL0     H 7139  10.676   9.713  -0.037 -0.4032  0.1095  1.8774
   52MOL0     H 7140  10.791   9.855  -0.110  1.5994  0.8285  1.5414
   52MOL0     H 7141  10.770   9.982  -0.232 -2.1928  0.3814 -0.9079
   52MOL0     H 7142  10.758  10.031   0.073  2.3593  1.4458  1.5544
   52MOL0     H 7143  10.902  10.060  -0.018  0.4777 -0.1451 -0.2847
   52MOL0     H 7144  10.646  10.195  -0.063  0.1576  1.6510  0.4435
   52MOL0     H 7145  10.774  10.204  -0.182  2.1117  0.0788  0.0763
   52MOL0     H 7146  10.788  10.387  -0.045 -0.1519 -0.0890  0.3209
   52MOL0     H 7147  10.936  10.282  -0.019 -0.6666 -3.0898 -1.5856
   52MOL0     H 7148  10.878  10.239   0.193  0.7952 -0.9121 -1.1138
   52MOL0     H 7149  10.830  10.410   0.178  2.5329 -0.3744  1.1468
   52MOL0     H 7150  10.611  10.203   0.131  2.6257 -1.7849  0.5083
   52MOL0     H 7151  10.601  10.373   0.170 -0.0798  0.4911 -1.9613
   52MOL0     H 7152  10.680  10.356   0.390  0.4219  1.0395 -3.3269
   52MOL0     H 7153  10.738  10.183   0.362 -1.4737 -0.5823  2.0737
   52MOL0     H 7154  10.445  10.282   0.359  1.6035  1.5727  2.2294
   52MOL0     H 7155  10.510  10.195   0.489 -0.0250 -2.4391 -0.1178
   52MOL0     H 7156  10.377  10.016  -0.031  2.2216 -0.2924 -0.4493
   52MOL0     H 7157  10.242   9.879   0.131 -0.7543 -0.0883 -2.3507
   52MOL0     H 7158  10.438   9.512   0.613 -0.1238 -2.2936  2.8851
   52MOL0     H 7159  10.317   9.412   0.775 -1.4608 -0.7289  1.2890
   52MOL0     H 7160   8.572   9.284   1.734  2.7294 -1.0477  0.0245
   52MOL0     H 7161   8.392   9.444   1.641 -0.5524 -1.0793 -0.6915
   52MOL0     H 7162   8.177   9.532   1.231 -1.0712  0.4470 -0.7832
   52MOL0     H 7163   8.043   9.675   1.078  2.2940 -1.7677 -0.8215
   52MOL0     H 7164   7.928  10.008   1.179  0.2179  0.1792  0.7145
   52MOL0     H 7165   8.083  10.093   1.150 -2.1547  1.5603 -0.0133
   52MOL0     H 7166   7.992  10.123   0.904  2.6888 -1.7137  1.4003
   52MOL0     H 7167   7.880  10.200   1.024 -0.0894  0.4411 -0.4446
   52MOL0     H 7168   7.896   9.917   0.905  0.6037  1.1522 -0.3448
   52MOL0     H 7169   7.761   9.968   1.010  0.0319 -0.0635  0.4055
   52MOL0     H 7170   7.702  10.124   0.825 -1.6560 -1.2390  2.0816
   52MOL0     H 7171   7.694   9.956   0.773 -1.3772  0.0674  0.9461
   52MOL0     H 7172   7.955  10.134   0.505 -2.7774  1.8034 -0.2168
   52MOL0     H 7173   8.284  10.005   1.197 -0.0282  1.4206  1.6251
   52MOL0     H 7174   8.409   9.875   1.489 -0.5584 -1.2721  0.2501
   52MOL0     H 7175   8.514   9.852   1.338 -0.7166  0.2887 -0.2766
   52MOL0     H 7176   8.430  10.002   1.374  0.3942  0.4238  2.2194
   53MOL0     O 7177   3.591   6.625   6.138 -0.4566  0.5668  0.7126
   53MOL0     C 7178   3.604   6.581   6.248  0.3310  0.5991 -1.6798
   53MOL0     O 7179   3.520   6.495   6.306 -0.3988  0.3687  0.2083
   53MOL0     C 7180   3.394   6.489   6.241 -0.7779 -0.4578  0.0342
   53MOL0     C 7181   3.312   6.600   6.234 -0.7186 -0.1070  0.4237
   53MOL0     C 7182   3.188   6.599   6.172  0.2634  0.0306 -0.4675
   53MOL0     C 7183   3.143   6.482   6.113 -0.2997 -0.4377 -0.6539
   53MOL0     O 7184   3.016   6.488   6.061 -0.0044 -0.1235 -0.7489
   53MOL0     C 7185   2.962   6.367   5.996  0.5830  0.5049 -0.4873
   53MOL0     C 7186   2.872   6.413   5.886 -0.4851  0.5405  0.5633
   53MOL0     C 7187   2.744   6.485   5.941 -0.5066 -0.3694 -0.3111
   53MOL0     C 7188   2.656   6.513   5.821 -0.1023 -0.1540 -0.2516
   53MOL0     C 7189   2.579   6.641   5.836 -0.0689 -0.2754  0.7752
   53MOL0     C 7190   2.464   6.654   5.724  0.1822  0.4462  0.7524
   53MOL0     C 7191   2.347   6.752   5.764  0.3150  0.5682  1.2687
   53MOL0     C 7192   2.382   6.892   5.745  0.2485  0.5004  0.6380
   53MOL0     N 7193   2.288   6.994   5.800 -0.2703  0.0493 -0.5109
   53MOL0     C 7194   2.300   7.081   5.905 -0.6728  0.0579 -0.1488
   53MOL0     C 7195   2.193   7.161   5.903 -0.2105 -0.1597 -0.2742
   53MOL0     C 7196   2.144   7.256   6.012  0.2925  0.0302  0.1278
   53MOL0     C 7197   2.253   7.362   6.043  0.3436  0.2138 -0.5841
   53MOL0     C 7198   2.217   7.441   6.163 -0.1826  0.4347  0.5401
   53MOL0     C 7199   2.082   7.519   6.155  0.3579  0.9168  0.8786
   53MOL0     O 7200   2.064   7.593   6.280 -0.1535 -0.2013 -0.5126
   53MOL0     C 7201   1.950   7.677   6.296 -1.2600  0.3776 -0.4789
   53MOL0     C 7202   1.853   7.693   6.193  0.0419 -0.2250  0.0284
   53MOL0     C 7203   1.741   7.771   6.204  0.9086 -0.2119  0.0577
   53MOL0     C 7204   1.641   7.780   6.081 -0.4886  0.4572 -0.0100
   53MOL0     C 7205   1.721   7.843   6.324  0.9048  1.3014  1.1802
   53MOL0     C 7206   1.617   7.935   6.352  0.3936 -0.1208 -0.4849
   53MOL0     O 7207   1.557   7.943   6.476 -0.0835 -0.1140  0.1492
   53MOL0     C 7208   1.448   8.024   6.477  0.1403  0.3440 -1.1086
   53MOL0     C 7209   1.470   8.152   6.519  0.1362 -0.0426  0.5405
   53MOL0     C 7210   1.363   8.239   6.535 -0.2665 -0.9628 -1.0852
   53MOL0     C 7211   1.232   8.201   6.516 -0.3617 -0.1322  0.7987
   53MOL0     O 7212   1.129   8.292   6.537 -0.5933 -0.3221  0.2145
   53MOL0     C 7213   1.112   8.387   6.435 -0.1725 -0.8697 -0.2572
   53MOL0     C 7214   1.028   8.510   6.469  0.3869 -0.4352 -0.3196
   53MOL0     C 7215   1.069   8.587   6.597  0.9362 -0.0121  0.0589
   53MOL0     C 7216   1.005   8.531   6.727 -0.4669  0.7804 -0.0757
   53MOL0     C 7217   1.035   8.624   6.848  1.2640  0.1966  0.7723
   53MOL0     C 7218   0.926   8.605   6.957  0.1135 -0.1161 -1.0621
   53MOL0     C 7219   0.939   8.717   7.068 -0.4187 -0.5420  0.0746
   53MOL0     C 7220   0.846   8.843   7.051  0.1245 -1.1647  0.8740
   53MOL0    Cl 7221   0.706   8.817   6.945  0.7201 -0.2425 -0.0657
   53MOL0     C 7222   1.212   8.065   6.498  0.1246 -0.4127  0.0381
   53MOL0     C 7223   1.317   7.970   6.473  0.0091  0.0061 -0.1215
   53MOL0     O 7224   1.593   8.013   6.254 -0.5944  0.5200 -0.6041
   53MOL0     C 7225   1.820   7.830   6.420 -0.5981  0.2314  0.8481
   53MOL0     C 7226   1.929   7.743   6.411  0.0231 -0.2861  0.3278
   53MOL0     N 7227   2.114   7.125   5.792  0.6887  0.0095 -0.3802
   53MOL0     N 7228   2.171   7.015   5.734  0.1233  0.5398 -0.2044
   53MOL0     C 7229   3.223   6.365   6.129  1.0952  0.2747 -0.2680
   53MOL0     C 7230   3.350   6.373   6.178  0.5639  0.4648  0.1899
   53MOL0     C 7231   3.697   6.659   6.335 -0.1779 -0.8450 -0.3552
   53MOL0     C 7232   3.808   6.699   6.265  1.1760 -0.3793 -0.0776
   53MOL0     C 7233   3.909   6.778   6.319 -0.6339 -0.1140 -0.9086
   53MOL0     C 7234   3.902   6.814   6.456 -0.8254  1.0397  1.6211
   53MOL0     O 7235   3.998   6.904   6.498 -0.4086  0.3661 -1.1227
   53MOL0     C 7236   3.969   6.981   6.612 -0.9623  0.0131 -1.0794
   53MOL0     C 7237   4.030   7.128   6.607 -0.6462  0.3140 -0.2408
   53MOL0     C 7238   4.176   7.130   6.655  0.0314  0.0923  0.3691
   53MOL0     C 7239   4.231   7.255   6.725  0.8261  0.5040 -0.7765
   53MOL0     C 7240   4.204   7.378   6.657  0.2000  0.4529 -0.4827
   53MOL0     C 7241   4.170   7.481   6.611 -0.8669  0.2211 -0.2098
   53MOL0     C 7242   3.804   6.750   6.527  0.4613  0.6073 -0.3096
   53MOL0     C 7243   3.692   6.688   6.470 -0.9628  0.0872  0.6811
   53MOL0     C 7244   3.595   6.642   6.574  0.9852 -0.4096 -0.7362
   53MOL0     H 7245   3.346   6.694   6.276 -3.4627  0.1296  2.3433
   53MOL0     H 7246   3.130   6.690   6.178  0.1581 -0.0952  0.6519
   53MOL0     H 7247   2.902   6.314   6.070  2.1689 -0.3579  0.2301
   53MOL0     H 7248   3.030   6.289   5.961 -1.2651 -3.4440  3.7654
   53MOL0     H 7249   2.924   6.473   5.810  0.1287 -1.2120 -0.4780
   53MOL0     H 7250   2.842   6.319   5.839 -0.0588  0.1988  0.9637
   53MOL0     H 7251   2.690   6.429   6.019 -0.1946  0.8116  0.7925
   53MOL0     H 7252   2.782   6.579   5.984  0.7410  0.8765 -3.8141
   53MOL0     H 7253   2.711   6.503   5.727  2.5414 -1.3459  1.3157
   53MOL0     H 7254   2.588   6.428   5.826  1.0071 -1.0087  0.5062
   53MOL0     H 7255   2.649   6.724   5.848  1.3067 -0.8013 -2.3607
   53MOL0     H 7256   2.535   6.638   5.936  2.6281  0.6769  2.0880
   53MOL0     H 7257   2.526   6.693   5.643 -1.1356 -0.7396 -0.9021
   53MOL0     H 7258   2.423   6.557   5.694  1.7860  0.1568 -0.6402
   53MOL0     H 7259   2.322   6.733   5.869 -5.0682  2.8632  0.7226
   53MOL0     H 7260   2.257   6.732   5.705  1.2371 -1.2068  0.3657
   53MOL0     H 7261   2.470   6.906   5.809 -1.4851 -0.2302  3.3639
   53MOL0     H 7262   2.400   6.915   5.640  1.4835 -2.0390  0.2028
   53MOL0     H 7263   2.369   7.079   5.989  2.4851  2.5428 -2.4226
   53MOL0     H 7264   2.105   7.191   6.091  0.1931 -0.1087 -0.0344
   53MOL0     H 7265   2.055   7.311   5.980 -1.1028 -2.7313 -1.0833
   53MOL0     H 7266   2.349   7.311   6.055 -0.2082 -1.3939 -2.4440
   53MOL0     H 7267   2.260   7.427   5.955  2.5401  0.9852  0.0770
   53MOL0     H 7268   2.218   7.379   6.253 -1.4818  0.5295  0.6353
   53MOL0     H 7269   2.297   7.516   6.167  0.1174  0.2004 -0.7031
   53MOL0     H 7270   2.085   7.578   6.064  1.2961  0.0290  0.3071
   53MOL0     H 7271   1.994   7.454   6.146 -1.2743  2.5694  3.5888
   53MOL0     H 7272   1.850   7.639   6.098 -0.9779 -1.5462  0.7666
   53MOL0     H 7273   1.649   7.688   6.023 -0.0163  0.2122  0.4313
   53MOL0     H 7274   1.662   7.862   6.012  4.6142 -0.9468 -0.5202
   53MOL0     H 7275   1.534   7.788   6.106 -0.7443 -0.9980 -0.5803
   53MOL0     H 7276   1.569   8.189   6.541 -1.6697  4.8859  1.6301
   53MOL0     H 7277   1.375   8.341   6.571 -0.8379 -0.6628 -1.7018
   53MOL0     H 7278   1.210   8.430   6.414 -0.6531 -0.1592 -1.1449
   53MOL0     H 7279   1.068   8.339   6.347  0.0958  1.5169 -1.7826
   53MOL0     H 7280   1.028   8.584   6.389 -2.0030  1.6105  1.4421
   53MOL0     H 7281   0.921   8.490   6.468  0.2528  0.2489 -0.4276
   53MOL0     H 7282   1.051   8.694   6.584 -2.1198 -0.0227  2.7548
   53MOL0     H 7283   1.175   8.562   6.606  1.2610  1.2570 -0.1067
   53MOL0     H 7284   1.055   8.437   6.753  0.4282  0.2775 -3.2154
   53MOL0     H 7285   0.899   8.513   6.711 -0.4492  0.3884  0.2314
   53MOL0     H 7286   1.135   8.591   6.878  1.0819 -2.1614 -0.9385
   53MOL0     H 7287   1.043   8.727   6.814  1.7828 -0.6281 -1.7995
   53MOL0     H 7288   0.939   8.509   7.008 -1.3855  0.2426  0.0782
   53MOL0     H 7289   0.825   8.588   6.918 -0.1790 -0.8120 -0.0573
   53MOL0     H 7290   1.041   8.752   7.078 -1.5183  2.9833  0.1737
   53MOL0     H 7291   0.906   8.678   7.165 -0.2800 -2.6221 -0.6489
   53MOL0     H 7292   0.906   8.922   7.006  2.7354 -1.5025  3.4729
   53MOL0     H 7293   0.810   8.879   7.148  0.9417  3.5234 -0.3495
   53MOL0     H 7294   1.109   8.037   6.480  0.2159  0.7732 -2.9744
   53MOL0     H 7295   1.290   7.867   6.455  0.0437 -0.1197  0.5221
   53MOL0     H 7296   1.812   7.873   6.519  0.5139  2.5994 -0.0169
   53MOL0     H 7297   1.993   7.723   6.496  0.5900  1.1884  0.2900
   53MOL0     H 7298   3.202   6.266   6.090  2.7428 -0.2191  0.0085
   53MOL0     H 7299   3.399   6.277   6.189 -0.2182  0.3383  3.5820
   53MOL0     H 7300   3.827   6.653   6.169 -0.1064 -0.4487 -0.3021
   53MOL0     H 7301   3.994   6.821   6.267 -0.3391 -0.8415 -1.0336
   53MOL0     H 7302   3.860   6.995   6.616 -0.7407  1.5412  0.2636
   53MOL0     H 7303   4.016   6.934   6.699 -1.6837  1.9517  0.4181
   53MOL0     H 7304   3.970   7.197   6.668 -2.3135 -0.2370 -1.1721
   53MOL0     H 7305   4.018   7.165   6.505 -2.2612 -1.5184 -0.7716
   53MOL0     H 7306   4.192   7.040   6.716 -0.7923  0.9475  1.9222
   53MOL0     H 7307   4.238   7.108   6.568 -0.7004 -1.0330  0.1107
   53MOL0     H 7308   4.338   7.238   6.738  0.6636  0.9249  1.6887
   53MOL0     H 7309   4.181   7.269   6.822 -0.8221 -2.0287 -1.1724
   53MOL0     H 7310   4.127   7.574   6.579 -0.2417 -0.2858 -2.6729
   53MOL0     H 7311   3.826   6.762   6.633  2.9617 -2.2144 -0.3846
   53MOL0     H 7312   3.493   6.634   6.536  0.4261  1.6759  0.2070
   53MOL0     H 7313   3.611   6.544   6.619  1.1876  0.2270  0.6223
   53MOL0     H 7314   3.603   6.716   6.655 -3.6464  1.0836 -1.3698
   54MOL0     O 7315  10.241   1.594   0.534 -0.4891  0.3315 -0.4471
   54MOL0     C 7316  10.293   1.633   0.638  1.3464  0.1432 -0.1046
   54MOL0     O 7317  10.425   1.611   0.676 -0.3288  0.7118  0.0799
   54MOL0     C 7318  10.514   1.564   0.590  0.1653  0.1147 -0.0545
   54MOL0     C 7319  10.530   1.422   0.585  0.2049 -0.1876  0.4157
   54MOL0     C 7320  10.622   1.366   0.499 -0.0122  0.4957 -0.0979
   54MOL0     C 7321  10.707   1.446   0.417  1.2948  0.3614  0.5648
   54MOL0     O 7322  10.805   1.406   0.322  0.8991 -1.3474 -1.0639
   54MOL0     C 7323  10.792   1.276   0.280  0.2640  0.2494  0.3580
   54MOL0     C 7324  10.896   1.233   0.174 -0.8648 -0.7108 -0.1281
   54MOL0     C 7325  11.034   1.204   0.240 -0.2627  0.6399 -0.1124
   54MOL0     C 7326  11.148   1.180   0.139 -0.1122 -0.1228 -0.0592
   54MOL0     C 7327  11.122   1.070   0.036 -0.7224  0.2858  0.5426
   54MOL0     C 7328  11.260   1.009  -0.005  0.1226 -0.1846  0.6391
   54MOL0     C 7329  11.234   0.910  -0.132 -0.8894 -0.0443 -0.4695
   54MOL0     C 7330  11.358   0.854  -0.205  0.1701  0.2591  1.0413
   54MOL0     N 7331  11.442   0.768  -0.122  0.3832  0.1246  0.3680
   54MOL0     C 7332  11.535   0.819  -0.026 -0.4689 -0.0445 -0.6305
   54MOL0     C 7333  11.569   0.707   0.042 -0.1815 -0.8722  0.3308
   54MOL0     C 7334  11.683   0.713   0.140 -0.1442  0.6387 -0.6622
   54MOL0     C 7335  11.657   0.782   0.266 -0.0405  0.5518  0.4349
   54MOL0     C 7336  11.755   0.744   0.383 -0.3540 -0.4497  0.1997
   54MOL0     C 7337  11.691   0.763   0.515 -0.1702 -0.0763 -0.0930
   54MOL0     O 7338  11.587   0.856   0.514  0.1732 -0.3251 -0.1848
   54MOL0     C 7339  11.482   0.822   0.595 -0.2130 -0.6017 -0.2893
   54MOL0     C 7340  11.351   0.806   0.545 -0.3876 -0.5346  1.1338
   54MOL0     C 7341  11.245   0.786   0.638 -0.9129  0.2359  0.4078
   54MOL0     C 7342  11.107   0.782   0.586 -0.1749  0.8548 -0.1330
   54MOL0     C 7343  11.276   0.762   0.770  0.6647 -0.0366  0.0711
   54MOL0     C 7344  11.170   0.732   0.870 -0.8616  0.0171 -0.3492
   54MOL0     O 7345  11.156   0.825   0.969 -0.3879 -0.1382  0.1258
   54MOL0     C 7346  11.100   0.799   1.089 -0.2077  0.2135  0.4730
   54MOL0     C 7347  11.036   0.891   1.169 -0.3824  0.0471  0.2235
   54MOL0     C 7348  10.990   0.861   1.304 -0.6705 -0.0808 -0.2148
   54MOL0     C 7349  11.010   0.729   1.348 -0.8231 -0.0427  0.4548
   54MOL0     O 7350  10.954   0.694   1.467  0.4568 -0.4630 -0.4272
   54MOL0     C 7351  10.968   0.564   1.523 -0.4584 -0.8522 -0.3126
   54MOL0     C 7352  11.103   0.561   1.585 -0.7570  0.0953 -0.7533
   54MOL0     C 7353  11.122   0.455   1.697  0.1993  0.1765  0.1628
   54MOL0     C 7354  11.069   0.315   1.639 -0.2821  1.1342  0.8958
   54MOL0     C 7355  11.091   0.196   1.739  0.3551  0.4094 -0.9979
   54MOL0     C 7356  11.025   0.061   1.689  0.4898  0.6431 -0.5785
   54MOL0     C 7357  10.875   0.073   1.700 -0.0672  1.3886  0.0028
   54MOL0     C 7358  10.829  -0.073   1.687 -0.0346  0.2139  0.6918
   54MOL0    Cl 7359  10.848  -0.156   1.844  0.1664  0.0784 -0.4848
   54MOL0     C 7360  11.069   0.636   1.259  0.7790 -0.9674 -0.3156
   54MOL0     C 7361  11.122   0.670   1.142  0.5393  0.6902  0.9898
   54MOL0     O 7362  11.091   0.635   0.849  0.6115 -0.6558  0.0766
   54MOL0     C 7363  11.412   0.777   0.813  0.3013 -0.9970  0.4572
   54MOL0     C 7364  11.516   0.809   0.733 -0.0680  0.3847  1.0348
   54MOL0     N 7365  11.501   0.598  -0.000  0.1315  0.2577 -0.2425
   54MOL0     N 7366  11.422   0.636  -0.094  0.6891  0.7400 -0.4369
   54MOL0     C 7367  10.701   1.587   0.435 -0.1451  0.1453 -0.1762
   54MOL0     C 7368  10.599   1.653   0.516  1.1281  0.5872 -1.0042
   54MOL0     C 7369  10.205   1.715   0.728 -0.7880 -0.6384 -0.3506
   54MOL0     C 7370  10.270   1.820   0.801 -0.7902  0.0900 -0.0374
   54MOL0     C 7371  10.209   1.885   0.912 -0.0529  0.3969 -0.6580
   54MOL0     C 7372  10.087   1.857   0.945  0.2237  0.3342 -0.4040
   54MOL0     O 7373  10.029   1.909   1.058  0.7227  0.1610  0.6464
   54MOL0     C 7374  10.032   1.836   1.182 -0.0970 -0.4692 -0.6599
   54MOL0     C 7375  10.021   1.944   1.287  0.2673  0.0162  0.1232
   54MOL0     C 7376  10.130   2.045   1.295 -1.2532 -0.0077  0.2992
   54MOL0     C 7377  10.153   2.101   1.433  0.3444  0.3674  0.2416
   54MOL0     C 7378  10.039   2.175   1.486 -0.3004 -0.2538 -0.2886
   54MOL0     C 7379   9.933   2.221   1.513  0.6349  1.0393  0.5620
   54MOL0     C 7380  10.023   1.753   0.888  0.2516 -0.1200 -0.1879
   54MOL0     C 7381  10.077   1.674   0.782  0.6173  0.1466  0.3794
   54MOL0     C 7382   9.998   1.564   0.720 -0.8365  0.3979 -0.6126
   54MOL0     H 7383  10.459   1.370   0.649  2.4010 -3.9116  0.1188
   54MOL0     H 7384  10.633   1.259   0.511 -3.2003  0.2026  1.2184
   54MOL0     H 7385  10.699   1.255   0.227  0.6658  1.9037 -1.1207
   54MOL0     H 7386  10.777   1.200   0.356 -1.7197 -3.7136 -3.5770
   54MOL0     H 7387  10.866   1.136   0.133  0.9661 -1.7766  0.8958
   54MOL0     H 7388  10.905   1.301   0.089 -0.1916 -2.5638 -1.6270
   54MOL0     H 7389  11.057   1.283   0.312 -4.8792  1.1511  1.1270
   54MOL0     H 7390  11.022   1.110   0.296 -1.5610  0.3207 -0.8662
   54MOL0     H 7391  11.155   1.276   0.086 -0.6994  0.6503  1.2124
   54MOL0     H 7392  11.236   1.162   0.201 -1.0931 -0.6688  1.2008
   54MOL0     H 7393  11.063   1.114  -0.044  1.6750  2.0590 -0.3961
   54MOL0     H 7394  11.055   0.994   0.078 -3.3228  2.0418 -0.2167
   54MOL0     H 7395  11.332   1.089  -0.020 -0.6042  0.3961  0.1857
   54MOL0     H 7396  11.303   0.942   0.070  0.7334  0.0954  0.5402
   54MOL0     H 7397  11.168   0.958  -0.205 -2.0898  0.3882  0.8540
   54MOL0     H 7398  11.179   0.823  -0.094 -0.8554 -0.3874 -1.1877
   54MOL0     H 7399  11.326   0.787  -0.285  0.2236  1.4793 -0.0486
   54MOL0     H 7400  11.412   0.943  -0.239 -0.2885  1.4260  3.1647
   54MOL0     H 7401  11.571   0.921  -0.021  2.5560 -1.0001 -0.8906
   54MOL0     H 7402  11.767   0.754   0.084  0.0350  0.9885 -0.1487
   54MOL0     H 7403  11.703   0.609   0.163 -0.5693  1.2336  2.9747
   54MOL0     H 7404  11.673   0.890   0.255  2.7576  0.0254 -1.7227
   54MOL0     H 7405  11.553   0.754   0.282 -1.3959  4.9334  0.5593
   54MOL0     H 7406  11.787   0.639   0.389 -2.0362 -0.9997  0.0290
   54MOL0     H 7407  11.845   0.805   0.371  0.6109 -0.9347  3.8817
   54MOL0     H 7408  11.652   0.662   0.530  2.3346 -1.2169 -0.8176
   54MOL0     H 7409  11.763   0.770   0.596 -1.5268 -0.6643  1.2160
   54MOL0     H 7410  11.357   0.816   0.437 -2.0435 -2.2195  0.8398
   54MOL0     H 7411  11.113   0.795   0.478  3.5165 -2.6155 -0.5755
   54MOL0     H 7412  11.042   0.861   0.626 -0.6180  0.9681 -1.0592
   54MOL0     H 7413  11.066   0.682   0.601 -0.5331  0.8538 -1.1112
   54MOL0     H 7414  11.028   0.992   1.130  1.3718  0.1300  0.0398
   54MOL0     H 7415  10.933   0.942   1.349  0.9112  3.1637 -3.4466
   54MOL0     H 7416  10.896   0.558   1.605 -0.5907 -1.2263 -0.4520
   54MOL0     H 7417  10.947   0.481   1.455 -2.6961  0.3390 -1.1574
   54MOL0     H 7418  11.184   0.532   1.518  0.9902 -1.4829  1.8575
   54MOL0     H 7419  11.125   0.658   1.631  2.0315 -1.2527  1.0667
   54MOL0     H 7420  11.059   0.480   1.784 -1.4048  0.4722 -1.0263
   54MOL0     H 7421  11.224   0.431   1.725  0.2964 -2.4664 -2.1133
   54MOL0     H 7422  11.125   0.300   1.546  0.7535  0.9451  1.5309
   54MOL0     H 7423  10.962   0.323   1.618 -0.9699 -0.0698  3.4851
   54MOL0     H 7424  11.197   0.188   1.765 -0.0889 -0.7817  0.5561
   54MOL0     H 7425  11.056   0.222   1.839 -0.4987  0.6349 -1.3435
   54MOL0     H 7426  11.057  -0.026   1.747  0.9233  0.3809 -1.2079
   54MOL0     H 7427  11.058   0.032   1.589  1.9144 -0.4917  0.1714
   54MOL0     H 7428  10.835   0.123   1.612  1.9043  1.6389 -0.8007
   54MOL0     H 7429  10.847   0.120   1.795 -0.7265  1.8757 -0.4274
   54MOL0     H 7430  10.886  -0.114   1.603 -2.2179  1.3570 -1.4565
   54MOL0     H 7431  10.726  -0.075   1.650  0.2781 -2.3909 -0.2309
   54MOL0     H 7432  11.067   0.532   1.290 -0.3264 -0.3611  1.8905
   54MOL0     H 7433  11.176   0.589   1.095  0.6463  2.0025 -1.3187
   54MOL0     H 7434  11.442   0.758   0.916  3.2302  1.1038  0.1169
   54MOL0     H 7435  11.618   0.819   0.768 -0.3787  1.2666  1.7188
   54MOL0     H 7436  10.753   1.643   0.359  1.5014  0.3107  1.0241
   54MOL0     H 7437  10.585   1.760   0.526 -1.2297  0.0637  4.0052
   54MOL0     H 7438  10.370   1.860   0.790 -1.4894  1.4143 -1.9642
   54MOL0     H 7439  10.262   1.970   0.954 -3.2037  2.9878 -1.5940
   54MOL0     H 7440   9.950   1.766   1.198 -0.0977 -0.4154 -0.4228
   54MOL0     H 7441  10.131   1.791   1.196  0.6242  0.7458 -1.6096
   54MOL0     H 7442  10.011   1.899   1.387 -1.7054 -1.6597 -0.7569
   54MOL0     H 7443   9.933   2.008   1.278  0.7708  1.3695  3.2971
   54MOL0     H 7444  10.221   1.993   1.266 -2.8310 -2.4588 -0.5574
   54MOL0     H 7445  10.111   2.114   1.213 -0.1569 -0.2023 -0.1374
   54MOL0     H 7446  10.234   2.174   1.440  0.3173  0.2897  1.7489
   54MOL0     H 7447  10.183   2.015   1.493 -0.3821 -0.3498 -0.4031
   54MOL0     H 7448   9.831   2.243   1.538  0.0116 -1.7932  0.8958
   54MOL0     H 7449   9.921   1.730   0.916 -0.3748 -0.7108 -2.7281
   54MOL0     H 7450  10.040   1.465   0.742 -1.1158 -0.0855 -2.1288
   54MOL0     H 7451   9.896   1.556   0.759  0.0989  3.8739  3.2417
   54MOL0     H 7452  10.002   1.571   0.611  0.8577 -1.0182 -0.6862
   55MOL0     O 7453   7.425   5.779  11.093 -0.9140 -0.1205  0.1905
   55MOL0     C 7454   7.340   5.730  11.024  0.7905 -0.0947 -0.7214
   55MOL0     O 7455   7.361   5.676  10.902 -0.4394  0.3352  0.3632
   55MOL0     C 7456   7.470   5.701  10.826  0.3613 -0.1423  0.5428
   55MOL0     C 7457   7.514   5.598  10.746 -0.0950 -0.5000 -0.8970
   55MOL0     C 7458   7.616   5.617  10.659 -0.8655 -0.4679 -1.1833
   55MOL0     C 7459   7.667   5.748  10.644 -0.8715  0.7667  0.2669
   55MOL0     O 7460   7.746   5.752  10.537  0.1717  0.0234  0.4498
   55MOL0     C 7461   7.854   5.846  10.538 -0.7803 -0.1815 -0.3261
   55MOL0     C 7462   7.967   5.791  10.453 -0.6996  0.5859  0.5326
   55MOL0     C 7463   7.934   5.782  10.306 -0.1545 -1.0087  0.3805
   55MOL0     C 7464   8.054   5.737  10.228 -0.2051  0.5796  0.0354
   55MOL0     C 7465   8.084   5.587  10.251  1.0552 -0.0659  0.8911
   55MOL0     C 7466   7.973   5.492  10.228 -1.0348  0.8701 -0.1778
   55MOL0     C 7467   8.031   5.348  10.221  0.0366 -0.0875 -0.6174
   55MOL0     C 7468   7.921   5.248  10.243 -0.1797  0.0457  0.3289
   55MOL0     N 7469   7.968   5.106  10.210  0.1607  0.6961 -0.8685
   55MOL0     C 7470   7.984   5.050  10.086  0.0028 -0.1491 -0.8183
   55MOL0     C 7471   8.022   4.922  10.108 -0.1507 -0.1272  0.3072
   55MOL0     C 7472   8.039   4.830   9.991  0.1005  0.3578 -0.7307
   55MOL0     C 7473   8.038   4.679  10.026 -0.0303  0.6846  0.2158
   55MOL0     C 7474   8.055   4.593   9.899  0.1676 -1.2913 -0.3895
   55MOL0     C 7475   7.942   4.565   9.795  0.1663  0.3734 -0.8080
   55MOL0     O 7476   7.836   4.491   9.855 -0.5887  0.0550  0.1431
   55MOL0     C 7477   7.731   4.466   9.772 -0.8981 -0.8046  0.1557
   55MOL0     C 7478   7.738   4.358   9.686  0.8672  0.2082 -0.0804
   55MOL0     C 7479   7.641   4.347   9.589  0.2174 -0.7045 -0.0503
   55MOL0     C 7480   7.670   4.239   9.490  0.3014  0.0061  1.0887
   55MOL0     C 7481   7.537   4.440   9.581  0.6440 -0.7038 -0.6550
   55MOL0     C 7482   7.435   4.425   9.480  0.9822 -0.8806 -0.7016
   55MOL0     O 7483   7.398   4.549   9.419  0.0462 -0.3133  0.2755
   55MOL0     C 7484   7.305   4.546   9.318 -0.3838 -0.7573  0.4361
   55MOL0     C 7485   7.225   4.657   9.316  0.4771 -0.0952  0.4331
   55MOL0     C 7486   7.133   4.671   9.220  0.2477 -0.1606 -0.1877
   55MOL0     C 7487   7.108   4.574   9.122 -0.0990  0.4883 -0.3129
   55MOL0     O 7488   7.009   4.573   9.030  0.7190  0.0285  0.0545
   55MOL0     C 7489   6.941   4.695   9.001 -0.0029  0.2629 -0.2054
   55MOL0     C 7490   6.930   4.705   8.844 -0.1908 -0.4402  1.4193
   55MOL0     C 7491   6.803   4.629   8.787 -0.7148 -0.2042 -0.4555
   55MOL0     C 7492   6.668   4.679   8.834 -0.4342  0.0665  0.6038
   55MOL0     C 7493   6.665   4.828   8.792  0.3098 -0.3322 -0.7275
   55MOL0     C 7494   6.520   4.888   8.817  0.2011 -0.6753  0.3289
   55MOL0     C 7495   6.479   4.921   8.958  0.2092  0.7179 -0.1820
   55MOL0     C 7496   6.327   4.950   8.962 -0.1638 -0.2235 -0.3188
   55MOL0    Cl 7497   6.229   4.806   8.939  0.2425 -0.0225  0.2323
   55MOL0     C 7498   7.193   4.465   9.122 -0.5957 -0.0711 -0.2300
   55MOL0     C 7499   7.302   4.454   9.212  0.4716 -0.1512  0.0566
   55MOL0     O 7500   7.383   4.316   9.461  0.9566 -0.3805  0.2685
   55MOL0     C 7501   7.528   4.539   9.668  0.2395 -0.3968  0.7594
   55MOL0     C 7502   7.618   4.554   9.770 -1.3541  0.1494 -0.6041
   55MOL0     N 7503   8.010   4.902  10.248 -1.0010  0.1918  0.3480
   55MOL0     N 7504   7.986   5.013  10.298  0.3429  0.3767 -0.2993
   55MOL0     C 7505   7.625   5.851  10.727 -0.4075 -0.7718  0.3131
   55MOL0     C 7506   7.524   5.827  10.812  0.0028  0.7938 -0.6757
   55MOL0     C 7507   7.216   5.696  11.086  0.0837 -0.9316  0.3779
   55MOL0     C 7508   7.172   5.785  11.181  0.4930 -0.8165 -0.1328
   55MOL0     C 7509   7.062   5.767  11.265 -0.0085 -0.1301 -0.4037
   55MOL0     C 7510   6.969   5.667  11.245 -0.8398  1.0645 -0.0719
   55MOL0     O 7511   6.851   5.661  11.318 -0.4448  0.1311  1.1163
   55MOL0     C 7512   6.757   5.557  11.274 -0.0997  0.2274  0.2911
   55MOL0     C 7513   6.630   5.567  11.354  0.6880  0.9471 -0.1859
   55MOL0     C 7514   6.549   5.691  11.307  0.0590  0.3509  0.6128
   55MOL0     C 7515   6.399   5.666  11.287  0.2859 -0.3158 -0.2243
   55MOL0     C 7516   6.350   5.797  11.231 -1.0261  0.0036 -0.0580
   55MOL0     C 7517   6.296   5.896  11.198  0.0710 -0.4935 -0.6008
   55MOL0     C 7518   7.010   5.570  11.152  0.5064  0.1052 -0.3060
   55MOL0     C 7519   7.124   5.583  11.076 -0.7281  0.8454  1.5908
   55MOL0     C 7520   7.143   5.483  10.961  1.1257  0.6165  0.2970
   55MOL0     H 7521   7.464   5.501  10.742 -1.8072  0.3870 -2.6259
   55MOL0     H 7522   7.645   5.532  10.598  0.2370  1.1168 -2.9707
   55MOL0     H 7523   7.891   5.868  10.638  0.6215  2.9241 -1.4287
   55MOL0     H 7524   7.818   5.938  10.491  0.1093 -0.4050 -1.4775
   55MOL0     H 7525   8.052   5.860  10.454  1.0775 -1.4759  2.1609
   55MOL0     H 7526   7.991   5.695  10.500 -2.7670  0.3618  1.2200
   55MOL0     H 7527   7.855   5.709  10.287 -1.0315  0.1719 -0.7105
   55MOL0     H 7528   7.910   5.885  10.277 -0.6720 -0.4227  2.7101
   55MOL0     H 7529   8.033   5.750  10.121  0.1617 -1.0565 -0.2545
   55MOL0     H 7530   8.142   5.793  10.262 -0.7821  0.8107  1.1915
   55MOL0     H 7531   8.115   5.588  10.356  0.8007  1.3071  0.9665
   55MOL0     H 7532   8.178   5.556  10.204  0.7363  0.9141 -0.4452
   55MOL0     H 7533   7.919   5.499  10.323  4.0050  2.2959  2.9706
   55MOL0     H 7534   7.903   5.505  10.145 -3.1981  1.7133  1.6412
   55MOL0     H 7535   8.111   5.343  10.295 -1.2331  3.3532  1.2608
   55MOL0     H 7536   8.089   5.337  10.129  5.2347  0.9343  2.1913
   55MOL0     H 7537   7.894   5.255  10.348 -3.8037  1.2959 -0.5350
   55MOL0     H 7538   7.835   5.274  10.180  1.0993  1.9561 -0.7241
   55MOL0     H 7539   7.960   5.096   9.991 -1.4545  0.4185 -0.2079
   55MOL0     H 7540   8.135   4.852   9.942  0.5748 -0.7808 -0.3349
   55MOL0     H 7541   7.959   4.852   9.920 -0.2749  1.1495 -0.0721
   55MOL0     H 7542   8.129   4.654  10.082  0.4120 -0.8369 -1.1112
   55MOL0     H 7543   7.952   4.654  10.088 -0.7437  1.0090 -0.6247
   55MOL0     H 7544   8.143   4.626   9.843 -0.7956  3.3748  0.4230
   55MOL0     H 7545   8.068   4.493   9.941  0.3764 -0.1453  2.5589
   55MOL0     H 7546   7.896   4.656   9.756 -0.7842  0.0359 -0.5181
   55MOL0     H 7547   7.991   4.503   9.719  1.7685 -0.2992  0.6930
   55MOL0     H 7548   7.814   4.280   9.680 -1.1762 -1.9284  0.5135
   55MOL0     H 7549   7.775   4.212   9.505  0.3632  0.5939  1.7804
   55MOL0     H 7550   7.646   4.265   9.387 -0.5690  2.1107  1.7657
   55MOL0     H 7551   7.605   4.157   9.521 -0.9168  0.7276  0.5203
   55MOL0     H 7552   7.252   4.731   9.391  0.8391  0.0320  0.1858
   55MOL0     H 7553   7.084   4.766   9.202  2.1464  0.4773 -2.5255
   55MOL0     H 7554   6.839   4.693   9.039 -0.0733  1.8773 -0.2140
   55MOL0     H 7555   6.990   4.788   9.034 -0.1589 -0.0949  1.0791
   55MOL0     H 7556   6.936   4.806   8.802  0.4938 -0.3914  1.6171
   55MOL0     H 7557   7.018   4.656   8.800  0.5376  1.4739  0.6307
   55MOL0     H 7558   6.815   4.526   8.821 -0.1138  0.1636  0.5014
   55MOL0     H 7559   6.803   4.621   8.677 -0.3922  0.7892 -0.5371
   55MOL0     H 7560   6.652   4.643   8.936 -2.4772 -0.1404  0.2696
   55MOL0     H 7561   6.592   4.634   8.769 -0.4663  0.7050  0.1944
   55MOL0     H 7562   6.741   4.883   8.848 -0.1536  1.0854 -1.4501
   55MOL0     H 7563   6.695   4.835   8.687 -0.1995 -0.5119 -0.8900
   55MOL0     H 7564   6.451   4.814   8.777 -0.6103  0.3830 -0.2725
   55MOL0     H 7565   6.525   4.985   8.767 -3.0525  0.2678  1.5807
   55MOL0     H 7566   6.538   5.005   8.997  0.4194  1.1059 -1.2908
   55MOL0     H 7567   6.493   4.838   9.027 -0.8559 -0.4084 -1.2735
   55MOL0     H 7568   6.300   5.003   8.870 -1.9099 -1.1430 -0.3807
   55MOL0     H 7569   6.292   5.003   9.051  2.2751  0.6789  0.1703
   55MOL0     H 7570   7.173   4.384   9.052 -1.2900  2.0244 -2.6018
   55MOL0     H 7571   7.367   4.367   9.211 -0.7466 -1.0899  0.2209
   55MOL0     H 7572   7.437   4.599   9.665  1.7175  1.9006 -1.7456
   55MOL0     H 7573   7.613   4.638   9.839 -3.6265 -1.0561  0.8180
   55MOL0     H 7574   7.671   5.948  10.709 -0.0621 -0.5145  2.3397
   55MOL0     H 7575   7.488   5.903  10.881  4.0021  0.6532  1.9111
   55MOL0     H 7576   7.209   5.882  11.213 -2.8012  0.5744 -0.1490
   55MOL0     H 7577   7.035   5.838  11.343  0.6691  1.5272 -1.6002
   55MOL0     H 7578   6.735   5.574  11.168 -0.0105  3.7180  0.7308
   55MOL0     H 7579   6.805   5.459  11.276 -3.1076 -1.4278 -0.6818
   55MOL0     H 7580   6.639   5.573  11.463  1.5453  0.1425 -0.1972
   55MOL0     H 7581   6.572   5.476  11.338  0.0863  0.2750  4.5860
   55MOL0     H 7582   6.556   5.773  11.380  2.1025  0.5925  0.2127
   55MOL0     H 7583   6.595   5.725  11.213  1.2197  4.2679  2.3995
   55MOL0     H 7584   6.337   5.636  11.372 -1.9505 -0.4430 -1.7857
   55MOL0     H 7585   6.386   5.591  11.208 -0.3356 -2.0193  1.4315
   55MOL0     H 7586   6.247   5.989  11.181  1.6099  0.8164  1.6513
   55MOL0     H 7587   6.943   5.489  11.126  0.0192  0.8458 -1.4308
   55MOL0     H 7588   7.238   5.429  10.959 -0.2989 -2.0298  0.4470
   55MOL0     H 7589   7.064   5.407  10.961  1.6117  0.0416  2.3812
   55MOL0     H 7590   7.145   5.531  10.863 -1.0205  2.2396  0.9550
   56MOL0     O 7591   5.221   3.904   4.435 -0.4963 -0.8889  0.5786
   56MOL0     C 7592   5.139   3.970   4.370 -0.6607 -0.6400 -0.4748
   56MOL0     O 7593   5.123   4.105   4.378  0.0629  0.2587  0.2565
   56MOL0     C 7594   5.200   4.185   4.453  0.5100  0.2120 -0.6959
   56MOL0     C 7595   5.340   4.190   4.433  0.3145  0.0879 -0.6707
   56MOL0     C 7596   5.418   4.279   4.499 -0.5906 -0.3966  0.9309
   56MOL0     C 7597   5.371   4.367   4.592 -0.3369 -0.2479  0.4843
   56MOL0     O 7598   5.446   4.466   4.649  0.9747  0.4361 -0.1272
   56MOL0     C 7599   5.587   4.450   4.667 -0.7492  0.3118  0.1791
   56MOL0     C 7600   5.631   4.505   4.800 -0.1034 -0.2759 -0.0905
   56MOL0     C 7601   5.772   4.552   4.779 -0.5796  0.1094 -1.2349
   56MOL0     C 7602   5.829   4.585   4.913  0.5419 -0.5643  0.4959
   56MOL0     C 7603   5.982   4.645   4.908 -0.7124  0.2436 -0.6545
   56MOL0     C 7604   6.007   4.744   5.021 -0.2844 -0.7409 -0.1331
   56MOL0     C 7605   6.143   4.823   4.996 -0.3763  0.3940  0.4626
   56MOL0     C 7606   6.258   4.735   5.048  0.9514 -0.6661 -0.3592
   56MOL0     N 7607   6.388   4.771   4.993  0.4317  0.5617 -0.7162
   56MOL0     C 7608   6.425   4.811   4.862  0.1105 -0.2683 -0.0310
   56MOL0     C 7609   6.550   4.798   4.855 -0.3409  1.1876  0.6318
   56MOL0     C 7610   6.636   4.864   4.744 -0.4090 -0.1281  0.2180
   56MOL0     C 7611   6.676   5.010   4.784  0.8234  0.3886  0.2002
   56MOL0     C 7612   6.659   5.110   4.661  0.0076  0.9361 -0.1863
   56MOL0     C 7613   6.517   5.131   4.618  0.5199 -0.5797  0.0502
   56MOL0     O 7614   6.426   5.160   4.735 -0.2059  0.2315  0.1052
   56MOL0     C 7615   6.292   5.141   4.726 -0.5208  0.6451  0.1967
   56MOL0     C 7616   6.226   5.151   4.847  0.0823 -0.1399 -0.8402
   56MOL0     C 7617   6.089   5.151   4.843 -0.0499  0.8658 -0.1737
   56MOL0     C 7618   6.020   5.180   4.977  0.4602  0.0596 -0.4685
   56MOL0     C 7619   6.018   5.135   4.720  0.2650  0.7324 -0.7140
   56MOL0     C 7620   5.866   5.127   4.722  0.0680 -0.7406 -0.4518
   56MOL0     O 7621   5.814   5.052   4.823 -0.0833  0.3992  0.0854
   56MOL0     C 7622   5.678   5.018   4.822 -0.6236 -0.5196  0.8675
   56MOL0     C 7623   5.612   4.986   4.708  0.0185  0.0428  0.4753
   56MOL0     C 7624   5.473   4.934   4.709 -0.0325 -0.7173 -0.6450
   56MOL0     C 7625   5.409   4.916   4.840  0.6585 -0.5828  0.2937
   56MOL0     O 7626   5.285   4.859   4.854  0.6019  0.9033 -0.5480
   56MOL0     C 7627   5.277   4.732   4.788 -0.4175 -0.1876 -0.5980
   56MOL0     C 7628   5.131   4.690   4.807 -0.4240  1.1296 -0.9560
   56MOL0     C 7629   5.035   4.758   4.714  0.1394 -0.3297  0.2255
   56MOL0     C 7630   4.913   4.674   4.674 -0.1786  0.1111 -0.1185
   56MOL0     C 7631   4.816   4.752   4.579  0.0528  0.6695 -0.5015
   56MOL0     C 7632   4.686   4.685   4.529  0.3381 -0.0992  0.9531
   56MOL0     C 7633   4.588   4.801   4.497 -0.2144  0.0024  0.7855
   56MOL0     C 7634   4.439   4.757   4.458  0.0246  0.6490  0.7478
   56MOL0    Cl 7635   4.422   4.588   4.397  0.5033  0.3434 -0.2129
   56MOL0     C 7636   5.478   4.969   4.943  0.9259  0.0891 -0.4223
   56MOL0     C 7637   5.610   5.018   4.940  0.6664  0.7320  0.2554
   56MOL0     O 7638   5.806   5.206   4.648 -0.1020  0.3756  0.0847
   56MOL0     C 7639   6.085   5.113   4.601 -0.3661  0.4130 -1.0417
   56MOL0     C 7640   6.228   5.117   4.602  0.7776 -0.9514 -0.2946
   56MOL0     N 7641   6.592   4.733   4.973 -0.3480 -1.0635  0.3041
   56MOL0     N 7642   6.494   4.715   5.054 -0.3600  0.3514  0.5515
   56MOL0     C 7643   5.233   4.366   4.604  1.0951 -1.1553 -0.6769
   56MOL0     C 7644   5.141   4.282   4.540  0.1444 -0.5560 -0.0265
   56MOL0     C 7645   5.043   3.898   4.281 -0.3707  0.4830  0.4011
   56MOL0     C 7646   4.955   3.981   4.200  0.0888 -0.0138  0.1142
   56MOL0     C 7647   4.850   3.924   4.119  0.3093 -0.6010 -0.1598
   56MOL0     C 7648   4.840   3.787   4.113 -1.3255 -1.2348 -0.5302
   56MOL0     O 7649   4.764   3.726   4.022  0.1957 -0.0602 -0.3809
   56MOL0     C 7650   4.744   3.790   3.896 -0.5215  0.2604 -0.1581
   56MOL0     C 7651   4.666   3.710   3.793  0.1974 -0.0502  0.7630
   56MOL0     C 7652   4.568   3.601   3.830 -0.5457  0.6647 -0.5987
   56MOL0     C 7653   4.551   3.498   3.721 -0.0675  1.1240 -0.7292
   56MOL0     C 7654   4.482   3.559   3.607  0.5669  1.0793  0.5190
   56MOL0     C 7655   4.436   3.606   3.510 -1.0469  0.2561  0.1677
   56MOL0     C 7656   4.926   3.709   4.190  0.1623  0.4808  0.4259
   56MOL0     C 7657   5.024   3.758   4.276  0.5096  0.0730 -0.2295
   56MOL0     C 7658   5.093   3.662   4.358 -0.7731  0.3562 -0.7308
   56MOL0     H 7659   5.399   4.115   4.382  0.8131 -1.0600  1.4629
   56MOL0     H 7660   5.524   4.273   4.477 -0.7038 -1.6585  0.6117
   56MOL0     H 7661   5.634   4.496   4.579 -1.9595 -0.3977 -0.8627
   56MOL0     H 7662   5.623   4.347   4.658 -1.2921  0.2673 -2.0913
   56MOL0     H 7663   5.569   4.593   4.818 -0.6624 -0.2437 -1.9769
   56MOL0     H 7664   5.617   4.425   4.874 -0.7278  0.1198  0.2343
   56MOL0     H 7665   5.829   4.476   4.726  0.1641  1.3662 -2.3160
   56MOL0     H 7666   5.783   4.643   4.719  1.4963  0.7805  0.0464
   56MOL0     H 7667   5.763   4.664   4.953 -2.0462 -1.5050 -1.6313
   56MOL0     H 7668   5.837   4.510   4.993 -5.0713 -1.2459  0.8546
   56MOL0     H 7669   5.993   4.699   4.814  1.6104 -0.1125 -0.6567
   56MOL0     H 7670   6.061   4.570   4.922  0.1108  1.3925  1.2672
   56MOL0     H 7671   5.929   4.821   5.016 -0.6982 -1.2198 -2.2328
   56MOL0     H 7672   6.017   4.703   5.121  0.0327  2.7235  1.4002
   56MOL0     H 7673   6.121   4.911   5.058 -1.8906  0.3455  0.0439
   56MOL0     H 7674   6.144   4.847   4.889 -0.7173  1.4405  0.6813
   56MOL0     H 7675   6.263   4.748   5.156  2.5400 -3.0881 -0.0782
   56MOL0     H 7676   6.237   4.628   5.045 -1.2165 -0.2995  0.0089
   56MOL0     H 7677   6.354   4.863   4.798  1.7921  3.6412  0.9500
   56MOL0     H 7678   6.576   4.860   4.653 -0.2691  1.5833  0.0256
   56MOL0     H 7679   6.725   4.803   4.731 -0.1429  0.1149  0.8232
   56MOL0     H 7680   6.610   5.032   4.868  2.8432  0.5634  1.8181
   56MOL0     H 7681   6.777   5.007   4.826 -0.0228 -1.5205  2.2866
   56MOL0     H 7682   6.684   5.200   4.718  1.6086  0.4960 -0.1448
   56MOL0     H 7683   6.720   5.091   4.572  0.5990  2.0893 -0.0456
   56MOL0     H 7684   6.512   5.214   4.547  0.7532 -0.3327  0.3201
   56MOL0     H 7685   6.486   5.043   4.561  3.4502 -0.6291 -1.6457
   56MOL0     H 7686   6.287   5.154   4.937 -1.4632  1.3111  0.2114
   56MOL0     H 7687   5.989   5.085   5.022 -0.1219 -1.0565 -3.0522
   56MOL0     H 7688   5.927   5.231   4.953  1.9402  2.0737 -2.3473
   56MOL0     H 7689   6.069   5.245   5.050 -4.3431  0.9419  2.3804
   56MOL0     H 7690   5.667   4.995   4.615 -1.5756 -0.8458 -0.5842
   56MOL0     H 7691   5.422   4.894   4.622  1.4975 -0.7561 -1.5566
   56MOL0     H 7692   5.320   4.739   4.688 -0.7742 -0.1183 -0.7470
   56MOL0     H 7693   5.337   4.657   4.841  1.3210  0.4424 -1.6339
   56MOL0     H 7694   5.123   4.580   4.808  2.3760  0.8125  1.5759
   56MOL0     H 7695   5.103   4.715   4.909  1.1025 -1.6856  0.2544
   56MOL0     H 7696   5.083   4.789   4.621 -1.4841  0.4277 -0.4000
   56MOL0     H 7697   5.000   4.850   4.761 -0.8579 -0.4369 -0.2761
   56MOL0     H 7698   4.864   4.632   4.763  1.1295 -2.1337 -0.3793
   56MOL0     H 7699   4.955   4.586   4.624  1.9972  0.0783  1.5944
   56MOL0     H 7700   4.788   4.839   4.639  1.8496  0.7052  0.3501
   56MOL0     H 7701   4.865   4.784   4.486  1.6765 -2.5294 -0.8770
   56MOL0     H 7702   4.644   4.625   4.610  0.6846 -4.8557 -1.9954
   56MOL0     H 7703   4.709   4.626   4.440 -0.2275  1.4852 -0.3020
   56MOL0     H 7704   4.615   4.849   4.402  0.4012  0.3441  1.1283
   56MOL0     H 7705   4.588   4.871   4.580 -2.4885  1.3568 -0.2593
   56MOL0     H 7706   4.401   4.827   4.382  0.7636 -0.5159 -0.7442
   56MOL0     H 7707   4.374   4.777   4.544  0.3669 -1.1602  1.4721
   56MOL0     H 7708   5.430   4.987   5.039  3.4845  1.4767  0.7031
   56MOL0     H 7709   5.643   5.064   5.032 -0.7273 -0.1834  1.2530
   56MOL0     H 7710   6.034   5.094   4.507  1.1016  0.0347 -1.8091
   56MOL0     H 7711   6.290   5.131   4.514  0.8267  0.0476 -0.1147
   56MOL0     H 7712   5.192   4.445   4.665  4.4279 -0.1495  0.4815
   56MOL0     H 7713   5.034   4.283   4.558  0.0356 -4.4508  0.3752
   56MOL0     H 7714   4.980   4.087   4.199  0.9199 -0.2086 -0.5153
   56MOL0     H 7715   4.775   3.996   4.088 -1.3584 -0.2099  4.0594
   56MOL0     H 7716   4.688   3.883   3.907  0.7613  0.9752  0.5036
   56MOL0     H 7717   4.842   3.822   3.859  0.7875 -0.6468  2.3009
   56MOL0     H 7718   4.748   3.664   3.737 -1.1644  0.5033 -1.8740
   56MOL0     H 7719   4.620   3.782   3.724 -2.1011  0.0703  2.3004
   56MOL0     H 7720   4.611   3.551   3.917  0.1568  2.9808  0.4756
   56MOL0     H 7721   4.475   3.637   3.874 -0.4293  0.6984 -0.3785
   56MOL0     H 7722   4.486   3.418   3.757  2.3172 -0.3959  0.3732
   56MOL0     H 7723   4.641   3.441   3.698 -2.1783 -1.3833 -3.6309
   56MOL0     H 7724   4.406   3.659   3.422  0.2276  4.4882  2.0539
   56MOL0     H 7725   4.917   3.601   4.182 -2.3760  0.6685 -0.1288
   56MOL0     H 7726   5.076   3.668   4.466  2.6504 -1.4919  0.0731
   56MOL0     H 7727   5.082   3.559   4.322 -1.2811  1.2033 -3.1442
   56MOL0     H 7728   5.197   3.691   4.339 -1.4365  3.7976  0.3269
   57MOL0     O 7729   7.184  10.635  10.067 -0.1653 -0.4769  0.9566
   57MOL0     C 7730   7.069  10.597  10.046  0.0250 -0.0544  0.0150
   57MOL0     O 7731   7.011  10.584   9.928 -0.8925  0.4195 -0.0742
   57MOL0     C 7732   7.088  10.587   9.809  0.7936  0.0783 -0.1483
   57MOL0     C 7733   7.168  10.691   9.776  0.1145  0.2284 -0.5008
   57MOL0     C 7734   7.259  10.681   9.675 -1.8021 -0.1620  0.1886
   57MOL0     C 7735   7.267  10.568   9.592  1.0245  0.1101  1.1243
   57MOL0     O 7736   7.351  10.564   9.482 -0.8505  0.4712 -0.8676
   57MOL0     C 7737   7.433  10.434   9.482  0.1551  0.3837 -0.2800
   57MOL0     C 7738   7.532  10.417   9.372  0.0207  0.3192 -1.2327
   57MOL0     C 7739   7.487  10.466   9.237 -0.2303 -0.3262  0.1288
   57MOL0     C 7740   7.580  10.438   9.122 -0.3994 -0.7026 -1.0059
   57MOL0     C 7741   7.532  10.480   8.983  0.2580 -0.2638 -1.1355
   57MOL0     C 7742   7.414  10.404   8.914  0.2779  0.0716  0.3185
   57MOL0     C 7743   7.469  10.287   8.843  0.1367  0.7946  0.3246
   57MOL0     C 7744   7.362  10.228   8.747 -0.1008  0.6059 -0.1226
   57MOL0     N 7745   7.405  10.094   8.699  0.6718 -0.0799  0.0797
   57MOL0     C 7746   7.310  10.005   8.662 -0.3333  0.1093 -0.0907
   57MOL0     C 7747   7.377   9.926   8.571 -0.2313  0.1634 -0.9400
   57MOL0     C 7748   7.309   9.803   8.511 -0.3827 -0.5234 -0.9377
   57MOL0     C 7749   7.302   9.696   8.631 -0.3666 -0.3066 -0.1264
   57MOL0     C 7750   7.152   9.665   8.669  0.4070  0.5771  0.0571
   57MOL0     C 7751   7.138   9.618   8.818  0.7360 -0.8382  0.7505
   57MOL0     O 7752   7.203   9.495   8.841  0.2740  0.2542  0.7082
   57MOL0     C 7753   7.126   9.405   8.909  0.1175 -0.2455  0.0891
   57MOL0     C 7754   7.121   9.276   8.869  0.4938  0.4088  0.6729
   57MOL0     C 7755   7.062   9.173   8.947 -0.1106 -0.0759 -1.0598
   57MOL0     C 7756   7.067   9.037   8.883 -0.3406  0.3972  0.0115
   57MOL0     C 7757   6.998   9.206   9.065  0.4587  0.9395 -0.5146
   57MOL0     C 7758   6.918   9.102   9.158 -0.6094 -0.4790 -0.3898
   57MOL0     O 7759   6.854   9.166   9.266 -0.1758 -0.7038  0.2966
   57MOL0     C 7760   6.778   9.085   9.337 -0.7210  0.1296 -0.2701
   57MOL0     C 7761   6.840   8.991   9.413 -0.3869  0.5616  0.2636
   57MOL0     C 7762   6.763   8.890   9.474  0.4361 -0.6475 -0.3033
   57MOL0     C 7763   6.625   8.889   9.456  0.0637 -0.3072  0.1355
   57MOL0     O 7764   6.554   8.800   9.522 -0.6245 -0.5201  0.4175
   57MOL0     C 7765   6.421   8.752   9.474  0.2179  0.2081 -0.2823
   57MOL0     C 7766   6.375   8.626   9.547 -0.0891 -0.5297  0.4702
   57MOL0     C 7767   6.369   8.639   9.701 -0.0605  0.0301 -0.5722
   57MOL0     C 7768   6.327   8.512   9.768  0.1400 -0.4732  0.6936
   57MOL0     C 7769   6.328   8.512   9.919  0.0300 -0.4382 -0.7193
   57MOL0     C 7770   6.200   8.556   9.987 -0.4364  0.3019 -0.0183
   57MOL0     C 7771   6.097   8.440  10.001 -0.5662 -0.3642  0.8821
   57MOL0     C 7772   5.952   8.501   9.988 -0.6907  0.6685 -1.1157
   57MOL0    Cl 7773   5.946   8.663  10.084  0.2992  0.4561 -0.3284
   57MOL0     C 7774   6.563   8.994   9.382 -0.5720 -0.5050  0.1189
   57MOL0     C 7775   6.637   9.098   9.340  0.3059  0.3805  0.5838
   57MOL0     O 7776   6.917   8.980   9.142 -0.1279 -0.3232 -0.5042
   57MOL0     C 7777   6.988   9.336   9.098  0.2415  0.2135  0.3178
   57MOL0     C 7778   7.058   9.440   9.031  0.0668 -0.2427 -0.0271
   57MOL0     N 7779   7.503   9.967   8.558  0.6956 -0.0722  0.4930
   57MOL0     N 7780   7.517  10.071   8.626 -0.8572  0.9209  0.0069
   57MOL0     C 7781   7.181  10.461   9.628 -0.0843 -0.6178  0.2552
   57MOL0     C 7782   7.087  10.473   9.728  0.7017 -0.3833  0.3453
   57MOL0     C 7783   6.990  10.548  10.158 -0.2404 -0.8179 -0.1097
   57MOL0     C 7784   7.018  10.600  10.287  0.3552 -0.6740  0.7412
   57MOL0     C 7785   6.940  10.573  10.393  0.9471  0.1043  0.3384
   57MOL0     C 7786   6.841  10.470  10.401  0.9623  0.6779 -0.4072
   57MOL0     O 7787   6.774  10.434  10.512 -0.3897  0.0402 -0.0846
   57MOL0     C 7788   6.763  10.297  10.546  0.4640 -0.1803  0.1832
   57MOL0     C 7789   6.893  10.244  10.604  0.5414 -0.1404  0.1155
   57MOL0     C 7790   6.953  10.350  10.708  0.1313  0.4991  0.1734
   57MOL0     C 7791   7.061  10.292  10.781  0.0389 -0.0579 -0.3594
   57MOL0     C 7792   7.162  10.227  10.693  0.0297 -0.0449  0.1273
   57MOL0     C 7793   7.221  10.143  10.625 -0.4216  0.5261 -1.4195
   57MOL0     C 7794   6.821  10.412  10.277 -0.3944 -0.5104 -0.4237
   57MOL0     C 7795   6.883  10.454  10.155 -0.4922  0.2434  0.5278
   57MOL0     C 7796   6.839  10.388  10.029  0.8177  0.2882  0.4456
   57MOL0     H 7797   7.163  10.780   9.838  2.2491 -1.5687  2.5186
   57MOL0     H 7798   7.325  10.768   9.668  0.4246 -1.8398 -0.9919
   57MOL0     H 7799   7.359  10.354   9.469 -1.0851  1.2388  1.2404
   57MOL0     H 7800   7.484  10.426   9.578  0.6547  1.4897 -0.4401
   57MOL0     H 7801   7.628  10.461   9.401 -1.0660  0.5640  2.5667
   57MOL0     H 7802   7.565  10.314   9.356  0.3990  0.6157 -2.5601
   57MOL0     H 7803   7.396  10.408   9.220 -0.2410 -0.8355  1.7692
   57MOL0     H 7804   7.468  10.573   9.247 -2.5577 -0.5773 -1.0086
   57MOL0     H 7805   7.672  10.489   9.148  0.0818 -0.5199 -2.9023
   57MOL0     H 7806   7.604  10.331   9.121 -1.0101 -0.9545  1.8436
   57MOL0     H 7807   7.620  10.487   8.919  0.6314  1.8456 -0.4611
   57MOL0     H 7808   7.498  10.583   8.980  0.3875 -0.2133 -0.9131
   57MOL0     H 7809   7.336  10.370   8.983 -0.3744 -0.0835 -0.4909
   57MOL0     H 7810   7.369  10.474   8.843  0.8272 -1.1656 -1.3170
   57MOL0     H 7811   7.479  10.210   8.919 -1.5458  0.6376  0.4347
   57MOL0     H 7812   7.561  10.311   8.788 -0.8828  0.9916 -1.3940
   57MOL0     H 7813   7.266  10.212   8.796 -0.1714  2.4704  0.4422
   57MOL0     H 7814   7.353  10.288   8.655  1.1526  0.0580 -0.6330
   57MOL0     H 7815   7.211   9.984   8.700  1.1724 -3.3179  2.5500
   57MOL0     H 7816   7.379   9.771   8.433  0.9763  1.5510 -0.6487
   57MOL0     H 7817   7.209   9.835   8.478 -0.8751  0.4374  1.2513
   57MOL0     H 7818   7.334   9.601   8.588  0.5177  0.2076 -0.6257
   57MOL0     H 7819   7.358   9.729   8.718  1.6310  1.0643 -1.8444
   57MOL0     H 7820   7.106   9.761   8.644  7.1076  4.4768  0.1336
   57MOL0     H 7821   7.115   9.585   8.604  0.4813  1.2401 -0.8260
   57MOL0     H 7822   7.164   9.711   8.870 -0.4527 -0.1677  0.1951
   57MOL0     H 7823   7.030   9.603   8.829  0.6550 -1.2049 -0.3883
   57MOL0     H 7824   7.173   9.252   8.777  0.5641  0.8170  0.6055
   57MOL0     H 7825   7.128   9.041   8.792 -3.8310  1.8412 -2.4682
   57MOL0     H 7826   6.978   8.997   8.835 -0.0749  0.3433 -0.4475
   57MOL0     H 7827   7.119   8.964   8.945 -0.6584  0.3956  0.2763
   57MOL0     H 7828   6.947   8.979   9.420 -0.1259 -0.0792 -3.0552
   57MOL0     H 7829   6.803   8.804   9.526  0.6558  1.7051  3.7704
   57MOL0     H 7830   6.343   8.828   9.478 -0.7185 -0.5846 -2.2295
   57MOL0     H 7831   6.438   8.709   9.375  5.3591  0.8266  0.0217
   57MOL0     H 7832   6.278   8.606   9.501  0.1135 -0.0488 -0.2015
   57MOL0     H 7833   6.422   8.533   9.514  0.6796 -0.3598  1.0400
   57MOL0     H 7834   6.299   8.721   9.717 -0.0736  0.4703 -2.5584
   57MOL0     H 7835   6.468   8.672   9.734 -0.1132 -2.2675  2.2046
   57MOL0     H 7836   6.401   8.436   9.739 -1.3113 -1.3988 -0.7341
   57MOL0     H 7837   6.228   8.484   9.733 -0.2217  0.5629  0.8694
   57MOL0     H 7838   6.342   8.414   9.966 -3.1107 -0.5649  0.2136
   57MOL0     H 7839   6.421   8.566   9.939 -0.4671  1.4054 -3.0061
   57MOL0     H 7840   6.147   8.636   9.935 -2.9465 -0.7026  0.8259
   57MOL0     H 7841   6.216   8.597  10.088  0.1500 -3.9804  1.8504
   57MOL0     H 7842   6.110   8.393  10.099 -2.8202  0.5038  1.6721
   57MOL0     H 7843   6.113   8.364   9.925 -0.3684  0.2800  0.2626
   57MOL0     H 7844   5.868   8.436  10.013 -0.1413 -1.0697 -3.3821
   57MOL0     H 7845   5.944   8.523   9.881  0.9934 -0.8141 -1.5922
   57MOL0     H 7846   6.457   8.990   9.357 -1.1016 -1.9557  2.2425
   57MOL0     H 7847   6.585   9.180   9.292  0.7123  0.5975  0.5106
   57MOL0     H 7848   6.939   9.372   9.188  1.0142  0.3630  0.6945
   57MOL0     H 7849   7.066   9.544   9.062  0.1813  1.3490 -4.5548
   57MOL0     H 7850   7.180  10.374   9.563 -0.8385 -0.4625  0.0453
   57MOL0     H 7851   7.012  10.400   9.756  2.1118 -1.3511  1.7691
   57MOL0     H 7852   7.106  10.663  10.294 -0.9639  1.0821  3.0407
   57MOL0     H 7853   6.960  10.638  10.477  0.2224  0.0565  0.5574
   57MOL0     H 7854   6.680  10.285  10.617 -1.4907 -2.8537 -2.2930
   57MOL0     H 7855   6.733  10.230  10.465 -2.3151  2.0426 -0.7749
   57MOL0     H 7856   6.968  10.224  10.528 -0.3668  0.5669 -1.0002
   57MOL0     H 7857   6.869  10.151  10.657  0.3248 -0.4400 -0.4998
   57MOL0     H 7858   6.987  10.444  10.663 -0.1771  0.8505  0.6519
   57MOL0     H 7859   6.877  10.380  10.782  1.1347  4.2542 -0.1325
   57MOL0     H 7860   7.007  10.227  10.850 -0.6013  0.4358 -0.3791
   57MOL0     H 7861   7.114  10.374  10.830 -2.0944  2.1099 -1.4510
   57MOL0     H 7862   7.273  10.059  10.585 -0.8002 -1.6496  2.2299
   57MOL0     H 7863   6.751  10.330  10.271  1.5204 -2.2059 -0.8627
   57MOL0     H 7864   6.774  10.304  10.053  0.4358  0.9630  1.9642
   57MOL0     H 7865   6.790  10.461   9.964 -3.2784 -1.5851  1.1143
   57MOL0     H 7866   6.923  10.347   9.972 -0.6525  1.2107 -2.5473
   58MOL0     O 7867  11.322   7.988   7.456 -0.0569 -0.2992 -0.4536
   58MOL0     C 7868  11.290   8.028   7.568  0.4370  0.8922 -0.1675
   58MOL0     O 7869  11.261   8.152   7.611 -0.5426 -1.2637 -0.1789
   58MOL0     C 7870  11.293   8.264   7.537  0.5451  0.5631  0.1228
   58MOL0     C 7871  11.212   8.378   7.564 -0.3818  0.2703  0.0149
   58MOL0     C 7872  11.248   8.496   7.497  0.3730 -0.3706  0.0915
   58MOL0     C 7873  11.358   8.509   7.408  0.3555  0.9089  0.2765
   58MOL0     O 7874  11.372   8.615   7.327 -0.0885  0.0442  0.7078
   58MOL0     C 7875  11.372   8.746   7.375  0.1373 -0.4608 -0.3846
   58MOL0     C 7876  11.363   8.835   7.253  0.4106  0.2956 -0.3874
   58MOL0     C 7877  11.499   8.833   7.176  0.2386  0.4938  0.5476
   58MOL0     C 7878  11.491   8.927   7.056  0.2912 -0.0965 -0.5050
   58MOL0     C 7879  11.518   9.082   7.086  0.3350 -0.2066  0.9934
   58MOL0     C 7880  11.660   9.107   7.138 -1.1093 -0.0016 -0.1230
   58MOL0     C 7881  11.698   9.250   7.109  0.0234 -0.0215  0.1876
   58MOL0     C 7882  11.810   9.284   7.200  0.6164 -0.9816 -0.7334
   58MOL0     N 7883  11.895   9.381   7.118 -0.0977  0.4628  0.4245
   58MOL0     C 7884  12.015   9.351   7.050 -0.3677 -0.2643  0.0303
   58MOL0     C 7885  12.051   9.474   6.995 -0.6326  0.6290 -0.2798
   58MOL0     C 7886  12.168   9.503   6.900 -0.1003 -0.0243  0.4950
   58MOL0     C 7887  12.159   9.472   6.758  1.0419  0.7648 -0.3193
   58MOL0     C 7888  12.110   9.589   6.678  0.2099  0.8133  0.2992
   58MOL0     C 7889  12.164   9.584   6.539  0.8276  0.1390  0.3014
   58MOL0     O 7890  12.082   9.477   6.485 -0.3402 -0.1718 -0.7338
   58MOL0     C 7891  12.136   9.388   6.400 -0.7782 -0.8915 -0.1186
   58MOL0     C 7892  12.230   9.423   6.299  0.7052 -0.0504  0.3675
   58MOL0     C 7893  12.266   9.329   6.208 -0.4374  0.0586  0.3368
   58MOL0     C 7894  12.375   9.381   6.108 -0.2980  0.3364  0.1001
   58MOL0     C 7895  12.219   9.196   6.219  0.2655  0.3759  0.5766
   58MOL0     C 7896  12.257   9.091   6.119 -1.2113  0.8135  0.2780
   58MOL0     O 7897  12.311   8.981   6.170 -0.5046  0.1244  0.2847
   58MOL0     C 7898  12.304   8.860   6.105 -1.1094 -1.1506 -0.2059
   58MOL0     C 7899  12.251   8.749   6.166 -0.0232  0.2722 -0.4567
   58MOL0     C 7900  12.233   8.623   6.099 -1.3144 -0.5781 -0.8381
   58MOL0     C 7901  12.271   8.608   5.964  0.3144  0.2751 -0.4999
   58MOL0     O 7902  12.254   8.492   5.896 -1.3832  0.3026 -0.0502
   58MOL0     C 7903  12.206   8.505   5.763  0.3075 -0.0150  0.1067
   58MOL0     C 7904  12.133   8.369   5.734 -1.0973  0.3512  0.1105
   58MOL0     C 7905  12.011   8.339   5.814  1.0995  0.1139  0.4257
   58MOL0     C 7906  11.897   8.431   5.758 -0.0733  0.2334 -0.2024
   58MOL0     C 7907  11.766   8.395   5.827 -0.2998 -1.1346 -0.2569
   58MOL0     C 7908  11.658   8.508   5.790 -0.1131  0.0344  0.3331
   58MOL0     C 7909  11.625   8.474   5.639 -0.0131 -0.7241  0.7225
   58MOL0     C 7910  11.694   8.562   5.540 -0.1713 -0.9807 -0.5297
   58MOL0    Cl 7911  11.658   8.736   5.576  0.4808 -0.5071  0.3208
   58MOL0     C 7912  12.332   8.715   5.901  0.3797 -0.2732 -0.1609
   58MOL0     C 7913  12.343   8.839   5.965 -0.6010  0.2275 -0.9426
   58MOL0     O 7914  12.256   9.118   5.997  0.8956 -0.0039 -0.1796
   58MOL0     C 7915  12.108   9.173   6.306 -0.1956  1.0528 -0.2011
   58MOL0     C 7916  12.071   9.270   6.395 -0.4009  0.3804 -0.2481
   58MOL0     N 7917  11.957   9.562   7.049 -0.5469 -0.2535  0.0103
   58MOL0     N 7918  11.867   9.509   7.129  0.2979  1.1077  0.6444
   58MOL0     C 7919  11.444   8.402   7.393  0.7790 -0.3931  0.0713
   58MOL0     C 7920  11.407   8.281   7.452  0.4401 -1.2237 -0.4549
   58MOL0     C 7921  11.289   7.919   7.679  0.8977 -1.0668  0.2005
   58MOL0     C 7922  11.244   7.957   7.810 -0.6913 -0.0183  1.4538
   58MOL0     C 7923  11.266   7.877   7.924  0.0927 -0.1709  0.6952
   58MOL0     C 7924  11.323   7.751   7.921  0.4923 -0.6277  0.1525
   58MOL0     O 7925  11.339   7.662   8.020 -0.7101  0.2927  0.3792
   58MOL0     C 7926  11.342   7.714   8.162  1.1559 -0.7707  0.1713
   58MOL0     C 7927  11.387   7.608   8.252  0.1319  0.4482 -1.5265
   58MOL0     C 7928  11.290   7.482   8.235 -0.3245  0.0050 -0.0550
   58MOL0     C 7929  11.335   7.353   8.296 -0.9935 -0.1177 -0.0670
   58MOL0     C 7930  11.310   7.347   8.447 -0.6374  0.2762  0.4701
   58MOL0     C 7931  11.263   7.333   8.560  0.3180 -0.0957 -0.2780
   58MOL0     C 7932  11.364   7.714   7.793 -0.4067  1.0911  1.1162
   58MOL0     C 7933  11.357   7.793   7.673  0.3315  0.8041 -0.5892
   58MOL0     C 7934  11.413   7.731   7.544 -0.3417 -0.3748  1.0947
   58MOL0     H 7935  11.130   8.370   7.634 -2.3306  0.8834 -2.0575
   58MOL0     H 7936  11.187   8.585   7.500  0.6333 -0.2214  1.2027
   58MOL0     H 7937  11.466   8.753   7.431 -0.9886 -1.4792  1.7940
   58MOL0     H 7938  11.302   8.786   7.449  0.7620  0.0618 -0.0621
   58MOL0     H 7939  11.279   8.799   7.194  0.9674  0.7084 -1.4680
   58MOL0     H 7940  11.350   8.937   7.290  0.4749  0.4699 -0.8371
   58MOL0     H 7941  11.581   8.863   7.243  3.6840 -1.3425 -2.4794
   58MOL0     H 7942  11.517   8.729   7.148 -3.9234 -0.0775 -0.5633
   58MOL0     H 7943  11.553   8.881   6.979 -2.6737 -2.1630 -1.8581
   58MOL0     H 7944  11.389   8.912   7.019 -0.1540 -0.4833  0.8406
   58MOL0     H 7945  11.446   9.127   7.155 -0.5912 -0.8907  0.4881
   58MOL0     H 7946  11.523   9.139   6.992  1.1177 -1.3628  0.3054
   58MOL0     H 7947  11.671   9.088   7.246 -0.8931  1.8777  0.2265
   58MOL0     H 7948  11.739   9.038   7.104 -1.0188  0.9309 -1.9134
   58MOL0     H 7949  11.605   9.307   7.118  0.6407  1.4806 -2.0325
   58MOL0     H 7950  11.717   9.257   7.001 -3.8040  1.8417 -0.5641
   58MOL0     H 7951  11.770   9.340   7.286  1.1507  0.9800 -1.6978
   58MOL0     H 7952  11.870   9.205   7.245  0.4474  0.0760  1.4791
   58MOL0     H 7953  12.070   9.258   7.033  3.4862  1.7670  0.1605
   58MOL0     H 7954  12.247   9.442   6.944  1.0659  1.1461  0.0895
   58MOL0     H 7955  12.201   9.604   6.928 -1.6065  0.6925 -0.1847
   58MOL0     H 7956  12.258   9.435   6.731  0.7277 -0.1665 -0.2375
   58MOL0     H 7957  12.090   9.388   6.750 -1.4575  2.8467 -3.4617
   58MOL0     H 7958  12.000   9.592   6.677  0.0710 -0.6236  2.6628
   58MOL0     H 7959  12.136   9.684   6.725  0.9599  0.1884  1.1760
   58MOL0     H 7960  12.145   9.684   6.500 -3.2448 -1.0640 -1.3689
   58MOL0     H 7961  12.266   9.548   6.526 -0.7293 -4.1241 -2.3042
   58MOL0     H 7962  12.279   9.520   6.301 -2.6254  1.8722  4.6079
   58MOL0     H 7963  12.448   9.303   6.084  1.5808  2.5161 -1.8906
   58MOL0     H 7964  12.439   9.459   6.151 -1.6476  2.2064 -1.1122
   58MOL0     H 7965  12.329   9.413   6.014  2.4589  0.8387 -1.1923
   58MOL0     H 7966  12.218   8.775   6.265 -2.7508  0.5722 -1.3613
   58MOL0     H 7967  12.216   8.527   6.148  2.3214 -0.5514  0.8242
   58MOL0     H 7968  12.134   8.587   5.762  1.6645  1.2190 -0.5080
   58MOL0     H 7969  12.289   8.527   5.695  1.6064 -0.0931  1.6221
   58MOL0     H 7970  12.119   8.344   5.628  2.5419 -3.2947  0.2421
   58MOL0     H 7971  12.205   8.294   5.767 -1.2585  0.3321  0.4173
   58MOL0     H 7972  12.024   8.344   5.922 -0.1407 -2.0108  0.7283
   58MOL0     H 7973  11.980   8.238   5.785 -0.0355  0.9472 -1.4662
   58MOL0     H 7974  11.890   8.405   5.652  0.5106  3.0435 -1.0126
   58MOL0     H 7975  11.925   8.537   5.765 -2.6594  0.8978  2.4601
   58MOL0     H 7976  11.738   8.294   5.796 -0.4691 -1.4354  0.8333
   58MOL0     H 7977  11.782   8.394   5.935  2.5909  1.1732 -0.5365
   58MOL0     H 7978  11.700   8.609   5.801  2.5663 -0.7072 -1.9182
   58MOL0     H 7979  11.570   8.488   5.851 -0.4655 -1.5499 -0.6402
   58MOL0     H 7980  11.520   8.506   5.642  1.0576  3.7728 -1.0449
   58MOL0     H 7981  11.644   8.373   5.604  0.5158 -0.5676  0.5457
   58MOL0     H 7982  11.651   8.545   5.441 -2.9417  1.4262  0.1090
   58MOL0     H 7983  11.801   8.547   5.525 -0.1986 -0.9112 -0.8026
   58MOL0     H 7984  12.380   8.706   5.805  1.9379 -0.7100  0.6202
   58MOL0     H 7985  12.394   8.918   5.912 -3.3520  0.8548 -2.8784
   58MOL0     H 7986  12.060   9.075   6.304  2.7980 -0.6671  2.6500
   58MOL0     H 7987  11.990   9.245   6.463 -0.8657 -0.4242 -1.0639
   58MOL0     H 7988  11.534   8.401   7.332 -1.2453 -0.9550 -3.1855
   58MOL0     H 7989  11.467   8.194   7.431  0.0365 -1.8972  1.0159
   58MOL0     H 7990  11.204   8.055   7.835  2.0185  1.4140  0.5680
   58MOL0     H 7991  11.231   7.922   8.016 -0.4573 -1.4919  1.1429
   58MOL0     H 7992  11.403   7.805   8.162 -1.2567  0.9995 -1.6528
   58MOL0     H 7993  11.249   7.766   8.186  0.5996  0.1527 -3.4346
   58MOL0     H 7994  11.393   7.658   8.349 -2.1998  0.1061 -1.1640
   58MOL0     H 7995  11.482   7.571   8.213 -0.5231  0.2369 -2.9982
   58MOL0     H 7996  11.202   7.517   8.291  0.2415  0.3502  0.6254
   58MOL0     H 7997  11.280   7.465   8.127  3.3744  1.1590 -0.6903
   58MOL0     H 7998  11.438   7.330   8.270 -1.1500 -0.6099 -0.2790
   58MOL0     H 7999  11.291   7.261   8.254  0.5926 -0.3980 -1.1742
   58MOL0     H 8000  11.227   7.312   8.659 -1.7700  0.5885 -0.8229
   58MOL0     H 8001  11.406   7.615   7.777  0.4092  1.8917 -2.8883
   58MOL0     H 8002  11.467   7.639   7.566  3.1163  1.7190  2.0319
   58MOL0     H 8003  11.330   7.710   7.476 -0.3938  4.7167 -0.8410
   58MOL0     H 8004  11.476   7.806   7.496 -0.5107  0.8194  2.6769
   59MOL0     O 8005   6.052   1.264   3.254  0.6185  0.5857 -0.3861
   59MOL0     C 8006   6.002   1.160   3.297  0.0439 -0.6009 -0.6036
   59MOL0     O 8007   6.068   1.041   3.335 -0.2370 -0.1207  0.4417
   59MOL0     C 8008   6.189   1.025   3.274  0.8692 -0.1627  0.2964
   59MOL0     C 8009   6.186   0.953   3.151  0.7089 -0.1418 -0.2811
   59MOL0     C 8010   6.303   0.903   3.090  0.2698  0.1094  0.3660
   59MOL0     C 8011   6.430   0.937   3.145 -0.6315  0.1609  0.2762
   59MOL0     O 8012   6.552   0.915   3.086  0.6571 -0.3052  0.4650
   59MOL0     C 8013   6.557   0.796   3.005  0.9208 -0.2792  0.4401
   59MOL0     C 8014   6.560   0.836   2.858  0.4406  0.1416 -0.9017
   59MOL0     C 8015   6.591   0.725   2.764  0.2202  0.0376  0.5551
   59MOL0     C 8016   6.642   0.783   2.626  0.3107  0.6198 -0.7153
   59MOL0     C 8017   6.737   0.688   2.540 -0.5753 -0.5933  0.0681
   59MOL0     C 8018   6.655   0.583   2.472  0.1765 -0.1492 -0.1595
   59MOL0     C 8019   6.740   0.487   2.401 -0.0294 -0.1966 -0.8319
   59MOL0     C 8020   6.768   0.522   2.251  0.3133 -0.7815  0.7868
   59MOL0     N 8021   6.883   0.442   2.201 -0.3550 -0.0829 -0.3922
   59MOL0     C 8022   6.863   0.320   2.138  0.1425  0.1217 -0.1848
   59MOL0     C 8023   6.992   0.276   2.121 -0.2392  0.0382  0.5473
   59MOL0     C 8024   7.020   0.140   2.060  0.0199 -0.1987  0.3861
   59MOL0     C 8025   7.164   0.133   2.016 -1.1246 -0.3900  0.3485
   59MOL0     C 8026   7.198   0.007   1.926  0.5857  0.5173  0.3949
   59MOL0     C 8027   7.345  -0.031   1.919 -0.2380 -0.5259  0.2414
   59MOL0     O 8028   7.405  -0.023   2.051  0.2406  0.3529 -0.2180
   59MOL0     C 8029   7.536  -0.062   2.059  0.4484  0.5991  0.0342
   59MOL0     C 8030   7.626  -0.060   1.949  0.0677  0.4326 -0.0650
   59MOL0     C 8031   7.767  -0.060   1.965  0.3599  0.1675  0.4169
   59MOL0     C 8032   7.843  -0.043   1.830 -0.0818  0.6867 -0.1685
   59MOL0     C 8033   7.819  -0.072   2.096  0.1611  1.0133 -0.9894
   59MOL0     C 8034   7.969  -0.072   2.136 -0.0121  0.4898  0.5211
   59MOL0     O 8035   7.984  -0.066   2.272  0.3750  0.2047  0.1366
   59MOL0     C 8036   8.106  -0.025   2.321  0.3830 -0.7561 -0.2730
   59MOL0     C 8037   8.152   0.097   2.283  0.0685  0.4455  1.1316
   59MOL0     C 8038   8.278   0.150   2.318  0.4732 -0.5022  0.0195
   59MOL0     C 8039   8.347   0.079   2.421  0.4002  1.2043  0.2720
   59MOL0     O 8040   8.457   0.111   2.493  0.1921  0.4381  0.7383
   59MOL0     C 8041   8.493   0.251   2.482 -0.8694  0.1286  0.5959
   59MOL0     C 8042   8.593   0.289   2.583  0.0755 -0.0977 -0.0821
   59MOL0     C 8043   8.542   0.286   2.724  1.1236  0.4416  0.5719
   59MOL0     C 8044   8.631   0.365   2.823 -0.5533  1.3680 -0.3116
   59MOL0     C 8045   8.773   0.294   2.845  0.0655 -0.8618  0.0796
   59MOL0     C 8046   8.891   0.393   2.880 -0.1135  0.0230 -0.0505
   59MOL0     C 8047   8.925   0.458   2.749  0.0148  0.7089  0.3905
   59MOL0     C 8048   8.968   0.605   2.740 -0.2280  0.0259 -1.0820
   59MOL0    Cl 8049   8.965   0.686   2.591 -0.0516  0.1459 -0.2136
   59MOL0     C 8050   8.295  -0.041   2.467 -0.6777 -1.1529  0.3621
   59MOL0     C 8051   8.178  -0.090   2.418 -0.3485  0.6319  0.8674
   59MOL0     O 8052   8.054  -0.064   2.054 -0.5398  0.2700  0.2993
   59MOL0     C 8053   7.719  -0.083   2.201 -0.4689  0.0131  0.0605
   59MOL0     C 8054   7.586  -0.082   2.185  0.2000 -1.0711 -0.7128
   59MOL0     N 8055   7.084   0.361   2.194 -0.0976  0.3473  0.2489
   59MOL0     N 8056   7.020   0.461   2.237 -0.4653 -0.4592  0.0761
   59MOL0     C 8057   6.433   1.013   3.266  0.9201  0.2132 -0.6356
   59MOL0     C 8058   6.315   1.060   3.324 -0.1303 -0.1595 -0.1891
   59MOL0     C 8059   5.859   1.177   3.344  0.4858  0.7017  0.2026
   59MOL0     C 8060   5.763   1.198   3.253 -0.0321  0.4875  1.3494
   59MOL0     C 8061   5.626   1.181   3.287 -0.7948 -0.5981 -0.3334
   59MOL0     C 8062   5.591   1.146   3.421  0.0457 -0.2609 -0.4698
   59MOL0     O 8063   5.456   1.128   3.446 -0.2111  0.0120  1.0523
   59MOL0     C 8064   5.413   1.045   3.552 -0.4706  0.7007 -0.4115
   59MOL0     C 8065   5.264   1.078   3.587 -0.1236  0.7147 -0.1938
   59MOL0     C 8066   5.175   1.103   3.463  0.1050 -0.3535 -0.1802
   59MOL0     C 8067   5.020   1.102   3.488  0.2571  0.3758  0.2531
   59MOL0     C 8068   4.987   1.236   3.521 -0.0080  0.0909  0.0700
   59MOL0     C 8069   4.944   1.344   3.560  0.8806 -0.7002 -0.3357
   59MOL0     C 8070   5.694   1.126   3.515 -0.0220  0.2621 -0.1766
   59MOL0     C 8071   5.823   1.144   3.478 -0.2919 -0.7757  1.0071
   59MOL0     C 8072   5.918   1.134   3.590 -0.7016 -0.1039 -0.4054
   59MOL0     H 8073   6.089   0.939   3.105 -0.3351  0.2832  1.6806
   59MOL0     H 8074   6.282   0.835   3.008 -0.1309 -2.2511  2.3136
   59MOL0     H 8075   6.482   0.718   3.021 -1.3584  1.4642 -1.0230
   59MOL0     H 8076   6.650   0.745   3.033  1.3704  0.0470 -0.4270
   59MOL0     H 8077   6.463   0.880   2.832 -0.3875 -1.9776 -1.6376
   59MOL0     H 8078   6.639   0.911   2.850  1.7317 -1.0421  0.2861
   59MOL0     H 8079   6.673   0.663   2.802  2.2483  1.2456 -1.5715
   59MOL0     H 8080   6.513   0.657   2.729  0.0875 -0.1374  1.1929
   59MOL0     H 8081   6.551   0.802   2.569  0.1561  2.1933  0.0222
   59MOL0     H 8082   6.692   0.879   2.644  2.4230 -1.0301  3.3694
   59MOL0     H 8083   6.811   0.639   2.603 -0.3076 -0.7349 -0.3529
   59MOL0     H 8084   6.786   0.753   2.467 -1.8005  3.1527  2.2973
   59MOL0     H 8085   6.606   0.530   2.554 -1.3858  1.9942  0.3885
   59MOL0     H 8086   6.581   0.641   2.416  1.7073  0.7197 -1.3415
   59MOL0     H 8087   6.687   0.391   2.404 -1.8423  0.7995  0.5098
   59MOL0     H 8088   6.831   0.482   2.462 -2.3359 -0.0122  2.9180
   59MOL0     H 8089   6.683   0.500   2.186  0.8610 -0.4760 -0.0456
   59MOL0     H 8090   6.788   0.626   2.225 -2.1679 -0.4746 -0.1653
   59MOL0     H 8091   6.770   0.272   2.110 -0.3584 -1.1317  3.1811
   59MOL0     H 8092   6.956   0.118   1.974  1.1688 -2.0406 -0.0537
   59MOL0     H 8093   6.999   0.059   2.130  0.3102 -0.4659  0.1635
   59MOL0     H 8094   7.189   0.225   1.963  0.0132 -0.3390  0.9315
   59MOL0     H 8095   7.233   0.138   2.101  0.3583  2.8350 -0.8771
   59MOL0     H 8096   7.140  -0.078   1.964 -0.1713 -0.0688 -1.9200
   59MOL0     H 8097   7.158   0.014   1.825  1.6385 -2.9470 -0.4115
   59MOL0     H 8098   7.361  -0.137   1.895  3.3799  0.3830 -2.2892
   59MOL0     H 8099   7.388   0.031   1.840  2.2413 -2.1091  0.2381
   59MOL0     H 8100   7.589  -0.051   1.847  1.2226 -0.6821 -0.6086
   59MOL0     H 8101   7.948  -0.069   1.849 -0.3386  0.1918  0.6603
   59MOL0     H 8102   7.863   0.063   1.813  1.2856  1.6597  5.3506
   59MOL0     H 8103   7.801  -0.103   1.750 -3.2518  2.1941  0.2256
   59MOL0     H 8104   8.087   0.154   2.217  0.7857  0.4702  0.4275
   59MOL0     H 8105   8.303   0.241   2.265 -3.1743  0.0341 -1.0478
   59MOL0     H 8106   8.533   0.269   2.381  0.4888 -0.7641  0.9488
   59MOL0     H 8107   8.407   0.316   2.500  0.5186  2.4415 -0.5947
   59MOL0     H 8108   8.670   0.211   2.584 -2.5137 -2.8950 -1.4871
   59MOL0     H 8109   8.629   0.385   2.546  1.5037 -0.3088  0.6978
   59MOL0     H 8110   8.552   0.184   2.762 -1.4560  0.1952  0.7465
   59MOL0     H 8111   8.439   0.320   2.739  0.5285 -2.0977  2.9302
   59MOL0     H 8112   8.578   0.370   2.918 -1.2797 -2.4741 -0.3798
   59MOL0     H 8113   8.653   0.467   2.790  0.1237  1.8566  1.5315
   59MOL0     H 8114   8.748   0.221   2.923 -2.0323  1.0680  1.3363
   59MOL0     H 8115   8.797   0.229   2.761  0.6470 -0.2356 -0.2495
   59MOL0     H 8116   8.985   0.347   2.912  0.7214  0.1148 -2.1908
   59MOL0     H 8117   8.867   0.469   2.954  0.4769 -0.9880  1.2156
   59MOL0     H 8118   8.832   0.458   2.691 -1.4598 -2.1401  2.5191
   59MOL0     H 8119   9.002   0.405   2.692 -1.0431 -2.6742  1.8893
   59MOL0     H 8120   9.074   0.611   2.768 -1.0320  0.6181  2.2573
   59MOL0     H 8121   8.902   0.650   2.815  3.1420  1.1554  1.4299
   59MOL0     H 8122   8.346  -0.100   2.542  2.0314 -0.5249 -0.8750
   59MOL0     H 8123   8.125  -0.177   2.455 -1.4713  1.1505  0.5255
   59MOL0     H 8124   7.755  -0.092   2.303 -2.6231  2.0113  1.0864
   59MOL0     H 8125   7.532  -0.090   2.279  1.5333 -1.5648  0.0292
   59MOL0     H 8126   6.538   1.026   3.292  1.5620 -3.5720 -0.7363
   59MOL0     H 8127   6.321   1.125   3.410  4.0549  1.3773 -1.3594
   59MOL0     H 8128   5.795   1.224   3.152 -4.3652 -0.3009 -0.4696
   59MOL0     H 8129   5.555   1.181   3.205 -0.8160 -0.7262 -0.3165
   59MOL0     H 8130   5.429   0.943   3.514  1.2528  1.7302 -2.7086
   59MOL0     H 8131   5.475   1.058   3.641  3.2103 -0.6115 -2.5288
   59MOL0     H 8132   5.265   1.173   3.642  0.4861 -0.3336  1.6813
   59MOL0     H 8133   5.207   1.005   3.645 -1.7362  2.7206  0.9000
   59MOL0     H 8134   5.194   1.194   3.405  0.4821  0.6056  1.3621
   59MOL0     H 8135   5.204   1.016   3.405  1.8721  0.4353 -0.5632
   59MOL0     H 8136   4.986   1.048   3.577 -0.9005  2.2779  1.0204
   59MOL0     H 8137   4.974   1.063   3.397  1.4179 -3.0304  0.9666
   59MOL0     H 8138   4.916   1.442   3.593  3.3591  1.0616 -3.0583
   59MOL0     H 8139   5.672   1.083   3.612  1.0325  1.6146  0.6896
   59MOL0     H 8140   5.997   1.059   3.575 -0.0281  0.8637 -2.0515
   59MOL0     H 8141   5.964   1.233   3.597 -0.0583 -0.3970 -0.3943
   59MOL0     H 8142   5.867   1.111   3.684 -2.2526  1.4137 -0.8425
   60MOL0     O 8143   7.086   9.306   8.512  0.3698 -0.3877 -1.0877
   60MOL0     C 8144   7.092   9.221   8.430  0.8701  0.9004 -0.2489
   60MOL0     O 8145   7.168   9.228   8.316  0.0921 -0.2975 -0.1168
   60MOL0     C 8146   7.289   9.294   8.318  0.3061  0.8530 -0.3075
   60MOL0     C 8147   7.313   9.433   8.306  0.6953 -0.1928 -0.3385
   60MOL0     C 8148   7.438   9.483   8.299 -0.4470 -0.3671  0.7308
   60MOL0     C 8149   7.544   9.393   8.298  0.5437 -0.2678  0.1113
   60MOL0     O 8150   7.680   9.424   8.278 -0.1242  0.0991  0.2462
   60MOL0     C 8151   7.725   9.537   8.213 -0.6710 -1.0112 -0.4015
   60MOL0     C 8152   7.873   9.519   8.183 -0.4529 -0.4289  0.9736
   60MOL0     C 8153   7.953   9.494   8.313  0.0782 -0.5511 -0.6768
   60MOL0     C 8154   8.095   9.553   8.303 -0.2250 -0.6372 -1.0155
   60MOL0     C 8155   8.185   9.447   8.252  0.2290  0.0464  0.2908
   60MOL0     C 8156   8.326   9.505   8.234  0.1867 -0.9048  0.1141
   60MOL0     C 8157   8.404   9.407   8.152 -0.2975  0.2340 -0.2003
   60MOL0     C 8158   8.443   9.270   8.216  0.0634 -0.7680 -0.7740
   60MOL0     N 8159   8.584   9.232   8.178 -0.0861  0.2840 -0.1170
   60MOL0     C 8160   8.660   9.135   8.239  0.7442 -0.1275  0.1716
   60MOL0     C 8161   8.766   9.118   8.158  0.5663  1.0293  0.6650
   60MOL0     C 8162   8.875   9.017   8.177  0.1267 -0.0910  0.0443
   60MOL0     C 8163   8.838   8.896   8.261  0.1385 -1.1768 -0.0763
   60MOL0     C 8164   8.745   8.803   8.190  0.3394 -0.8212  0.1242
   60MOL0     C 8165   8.699   8.705   8.286  0.3006 -0.4115  0.0067
   60MOL0     O 8166   8.599   8.618   8.226 -0.2432  0.5166  0.5322
   60MOL0     C 8167   8.635   8.522   8.134 -1.2138  0.4842 -0.2028
   60MOL0     C 8168   8.531   8.471   8.055 -0.0353  0.5766 -0.4091
   60MOL0     C 8169   8.564   8.366   7.961  0.6271 -0.2863  0.0056
   60MOL0     C 8170   8.460   8.306   7.869  0.2949 -0.3082 -0.0909
   60MOL0     C 8171   8.690   8.321   7.958 -0.0630  0.0008 -0.1998
   60MOL0     C 8172   8.739   8.207   7.872  0.4915  0.3322 -0.2089
   60MOL0     O 8173   8.871   8.216   7.826  0.1428  0.0382 -0.6214
   60MOL0     C 8174   8.915   8.110   7.751  0.5967 -0.1481  0.2612
   60MOL0     C 8175   8.856   8.096   7.622 -1.0196 -0.2090  0.2732
   60MOL0     C 8176   8.887   7.991   7.540  0.4432  1.0488 -0.7998
   60MOL0     C 8177   8.987   7.897   7.593  0.3677  0.7188 -0.4857
   60MOL0     O 8178   9.008   7.793   7.509 -0.1611 -0.1082  1.0185
   60MOL0     C 8179   9.081   7.672   7.538 -0.5284  0.6264 -0.7418
   60MOL0     C 8180   9.041   7.588   7.419 -0.2918  0.1041 -1.5573
   60MOL0     C 8181   9.115   7.471   7.386  0.2235  0.6531  0.4166
   60MOL0     C 8182   9.027   7.352   7.328 -0.2312 -0.0582 -0.0129
   60MOL0     C 8183   9.120   7.222   7.318 -1.0225  0.4935 -0.5045
   60MOL0     C 8184   9.039   7.099   7.278  0.1741  0.7224 -0.1427
   60MOL0     C 8185   8.970   7.044   7.397  0.2458  0.8687 -0.4376
   60MOL0     C 8186   8.924   6.905   7.364 -0.3819  0.0349  0.1824
   60MOL0    Cl 8187   8.843   6.880   7.195  0.5077  0.5711  0.3208
   60MOL0     C 8188   9.039   7.902   7.717  0.3132  0.3227  0.9193
   60MOL0     C 8189   8.996   8.007   7.807 -0.7420  0.3007 -0.1664
   60MOL0     O 8190   8.668   8.106   7.861 -0.1550 -0.1592  0.5154
   60MOL0     C 8191   8.793   8.367   8.048 -0.2492  0.3494 -0.3777
   60MOL0     C 8192   8.766   8.467   8.137  0.1357  0.1375 -0.3258
   60MOL0     N 8193   8.749   9.198   8.047  0.7461  0.0634 -0.5598
   60MOL0     N 8194   8.644   9.270   8.062 -0.4973 -0.7333 -0.4480
   60MOL0     C 8195   7.528   9.258   8.307  0.7298 -0.0065 -1.0260
   60MOL0     C 8196   7.402   9.205   8.331 -0.3941  0.6125  0.5442
   60MOL0     C 8197   7.017   9.096   8.453  0.3001 -0.2280 -0.4138
   60MOL0     C 8198   7.068   8.977   8.392  0.2566 -0.5521  0.5295
   60MOL0     C 8199   7.008   8.851   8.398 -0.1487 -1.4278  0.4297
   60MOL0     C 8200   6.898   8.839   8.481 -0.0499  1.3338 -0.5289
   60MOL0     O 8201   6.850   8.709   8.478 -0.2774 -0.1434  0.3461
   60MOL0     C 8202   6.732   8.685   8.542 -1.3551  0.5464 -0.3141
   60MOL0     C 8203   6.678   8.546   8.504 -0.7249 -0.6189  0.5378
   60MOL0     C 8204   6.580   8.509   8.609  0.5106 -0.3427  0.3167
   60MOL0     C 8205   6.550   8.362   8.609 -0.1195  0.2449 -1.1207
   60MOL0     C 8206   6.455   8.325   8.711  0.0173  0.6207 -0.5538
   60MOL0     C 8207   6.367   8.280   8.783 -0.1043 -0.2597  0.2956
   60MOL0     C 8208   6.851   8.954   8.547  0.2570  0.2226 -0.6832
   60MOL0     C 8209   6.895   9.079   8.526 -0.8782  0.7957  0.9154
   60MOL0     C 8210   6.804   9.189   8.563  0.5787  0.3576  0.6757
   60MOL0     H 8211   7.226   9.496   8.324  1.0616  0.5196 -0.9954
   60MOL0     H 8212   7.450   9.591   8.298  2.0180 -0.5392  2.1505
   60MOL0     H 8213   7.720   9.619   8.285  1.5583 -0.1894 -1.0661
   60MOL0     H 8214   7.663   9.567   8.127 -0.5634 -1.6061 -0.6870
   60MOL0     H 8215   7.887   9.428   8.124 -3.8444 -1.6645  1.8181
   60MOL0     H 8216   7.923   9.604   8.136  2.9657 -2.6256  0.2814
   60MOL0     H 8217   7.898   9.546   8.392 -1.2517  1.2535 -2.6759
   60MOL0     H 8218   7.960   9.386   8.328  3.9824 -0.3826 -0.3406
   60MOL0     H 8219   8.100   9.646   8.246 -0.6354  0.4281  0.6174
   60MOL0     H 8220   8.126   9.600   8.397 -0.8008 -0.7764 -0.7495
   60MOL0     H 8221   8.147   9.427   8.152 -0.0982  2.1222 -0.0430
   60MOL0     H 8222   8.189   9.355   8.312  2.3569  0.0091  0.1504
   60MOL0     H 8223   8.315   9.597   8.176 -2.1283 -1.6393 -0.7468
   60MOL0     H 8224   8.369   9.530   8.331 -1.4345 -4.9242  2.1090
   60MOL0     H 8225   8.502   9.451   8.133  2.2894 -2.8595  4.0951
   60MOL0     H 8226   8.348   9.402   8.058  0.2868  1.8070 -0.6640
   60MOL0     H 8227   8.462   9.287   8.322  1.1449  2.5063 -1.3937
   60MOL0     H 8228   8.369   9.197   8.181  1.0712 -2.6787  0.8385
   60MOL0     H 8229   8.631   9.075   8.325 -0.9461  2.3454  1.4323
   60MOL0     H 8230   8.959   9.074   8.220  0.5324  0.3131 -1.2386
   60MOL0     H 8231   8.911   8.976   8.082  0.8541  0.1892  0.1866
   60MOL0     H 8232   8.925   8.841   8.296 -0.6202 -2.5043 -0.1716
   60MOL0     H 8233   8.786   8.941   8.346  0.1316 -1.7325  0.2165
   60MOL0     H 8234   8.654   8.861   8.171  2.0434  2.5430  1.3682
   60MOL0     H 8235   8.788   8.760   8.099 -1.3656  2.1094 -2.2330
   60MOL0     H 8236   8.778   8.647   8.334  1.0532 -0.3493 -1.1297
   60MOL0     H 8237   8.643   8.760   8.362 -0.5531 -2.1119  0.6720
   60MOL0     H 8238   8.431   8.510   8.070  0.2211  0.5232  1.7132
   60MOL0     H 8239   8.423   8.218   7.923  1.1079  1.3229  3.4593
   60MOL0     H 8240   8.488   8.277   7.768 -2.5352  3.5192 -2.2381
   60MOL0     H 8241   8.375   8.372   7.850 -1.2066 -1.2578  2.7342
   60MOL0     H 8242   8.777   8.167   7.598  0.2023  0.9263 -0.5053
   60MOL0     H 8243   8.843   7.988   7.441  0.9544 -0.2959 -1.0072
   60MOL0     H 8244   9.190   7.682   7.546  0.1386 -2.6224 -3.3821
   60MOL0     H 8245   9.048   7.641   7.638 -0.6296  1.4827 -0.5024
   60MOL0     H 8246   8.938   7.551   7.425  0.4702 -2.0883 -0.8418
   60MOL0     H 8247   9.046   7.656   7.334 -1.2078  1.8660 -0.2638
   60MOL0     H 8248   9.166   7.430   7.474 -0.3017 -0.9487  0.0113
   60MOL0     H 8249   9.192   7.484   7.309 -1.3439 -1.8920 -1.7763
   60MOL0     H 8250   8.986   7.367   7.228  1.7366  0.1949 -0.8328
   60MOL0     H 8251   8.950   7.342   7.405 -0.0767  1.7337  0.4227
   60MOL0     H 8252   9.189   7.237   7.235  0.0881 -0.0212  0.2940
   60MOL0     H 8253   9.167   7.206   7.416 -1.1889  4.6143  0.4410
   60MOL0     H 8254   9.104   7.017   7.247  0.8331  0.1434  2.5354
   60MOL0     H 8255   8.955   7.120   7.211 -0.3164 -0.7291 -0.0203
   60MOL0     H 8256   8.874   7.095   7.413 -0.1567  1.0085 -2.9102
   60MOL0     H 8257   9.026   7.042   7.490  0.2777 -1.9500 -0.4088
   60MOL0     H 8258   8.865   6.871   7.449  0.7035 -3.1529 -0.1963
   60MOL0     H 8259   9.012   6.841   7.379 -1.0537 -0.7650  0.8165
   60MOL0     H 8260   9.101   7.819   7.750 -0.0438 -0.4398 -0.2677
   60MOL0     H 8261   9.035   8.003   7.908  2.7185 -1.7614 -1.3730
   60MOL0     H 8262   8.889   8.316   8.039  0.3959  1.4360  0.0341
   60MOL0     H 8263   8.837   8.493   8.214 -1.6106 -1.4326  1.9272
   60MOL0     H 8264   7.609   9.194   8.276  0.8154  1.2627 -3.6270
   60MOL0     H 8265   7.372   9.103   8.350 -0.5025  0.1481 -1.8450
   60MOL0     H 8266   7.155   8.985   8.328 -1.3050  3.3506 -1.4838
   60MOL0     H 8267   7.057   8.770   8.346  0.2999 -0.4155 -0.7906
   60MOL0     H 8268   6.749   8.685   8.650 -0.1471 -0.7486 -0.4858
   60MOL0     H 8269   6.659   8.765   8.524  0.1488  1.9900 -0.2198
   60MOL0     H 8270   6.756   8.470   8.512  0.1039  0.3857  2.9038
   60MOL0     H 8271   6.636   8.539   8.403  1.1668 -2.2535 -0.2013
   60MOL0     H 8272   6.607   8.542   8.710  0.8275  2.6708 -0.6542
   60MOL0     H 8273   6.486   8.564   8.598 -0.0358 -0.8342  2.0681
   60MOL0     H 8274   6.641   8.300   8.619 -2.0846 -2.7915 -0.5992
   60MOL0     H 8275   6.504   8.335   8.513 -3.1915 -1.1326  0.6064
   60MOL0     H 8276   6.282   8.243   8.837 -0.5859  0.1367 -0.1869
   60MOL0     H 8277   6.757   8.942   8.600  1.7638 -0.3218  2.0398
   60MOL0     H 8278   6.709   9.162   8.610  0.5187 -1.6771 -0.5178
   60MOL0     H 8279   6.845   9.256   8.640 -1.2986 -0.8594  2.8519
   60MOL0     H 8280   6.775   9.246   8.475  1.8552 -0.1540 -0.1041
   61MOL0     O 8281   4.388   1.319   6.047  0.2545  0.5742  0.2762
   61MOL0     C 8282   4.501   1.303   6.005 -0.6308  0.3771  0.4262
   61MOL0     O 8283   4.533   1.257   5.885  0.2471  0.2687 -0.4520
   61MOL0     C 8284   4.442   1.239   5.784  0.0685 -0.9217  0.5606
   61MOL0     C 8285   4.498   1.159   5.681  0.7088 -0.1224  0.3795
   61MOL0     C 8286   4.422   1.135   5.563 -0.0287  0.2388  0.2945
   61MOL0     C 8287   4.304   1.202   5.543 -0.4676  0.6652  0.1050
   61MOL0     O 8288   4.237   1.168   5.430  0.1381 -0.0932  0.2286
   61MOL0     C 8289   4.121   1.087   5.444 -0.3731 -0.0621  0.1493
   61MOL0     C 8290   4.153   0.966   5.353 -1.0264  0.2305 -1.3198
   61MOL0     C 8291   4.034   0.875   5.343 -0.0118 -0.8570 -0.4147
   61MOL0     C 8292   4.060   0.754   5.265  0.3808 -0.5831 -0.4624
   61MOL0     C 8293   3.929   0.703   5.211  0.0462 -0.2780 -0.5955
   61MOL0     C 8294   3.915   0.553   5.196 -0.0272 -0.4197 -0.1310
   61MOL0     C 8295   3.773   0.514   5.145 -0.5304 -0.0047 -0.4148
   61MOL0     C 8296   3.652   0.554   5.235  0.2386 -0.1910  0.4793
   61MOL0     N 8297   3.537   0.476   5.206  0.9347 -0.0943  0.2441
   61MOL0     C 8298   3.518   0.341   5.239  0.1979  0.4394  0.1900
   61MOL0     C 8299   3.384   0.318   5.208  0.1789  1.2877 -0.2281
   61MOL0     C 8300   3.311   0.186   5.217 -0.4285 -0.2389  0.2240
   61MOL0     C 8301   3.283   0.141   5.069  0.5016  0.4066 -0.6401
   61MOL0     C 8302   3.149   0.066   5.053  0.3349  0.5227 -0.5309
   61MOL0     C 8303   3.176  -0.087   5.035 -0.2963  0.5367 -1.3684
   61MOL0     O 8304   3.051  -0.153   4.986 -0.7362  0.2686 -0.7341
   61MOL0     C 8305   3.039  -0.280   5.023  0.8078  0.2412 -0.8331
   61MOL0     C 8306   3.087  -0.386   4.949 -0.5509 -0.2486  0.1411
   61MOL0     C 8307   3.055  -0.514   4.992 -0.1177 -0.4294 -0.5544
   61MOL0     C 8308   3.121  -0.629   4.929  0.2492  0.0892 -0.1720
   61MOL0     C 8309   2.972  -0.543   5.108 -0.4392 -0.1095 -0.3491
   61MOL0     C 8310   2.939  -0.678   5.163  0.0731  0.6582  0.1711
   61MOL0     O 8311   2.925  -0.788   5.070  0.3600  0.2095 -0.1687
   61MOL0     C 8312   2.890  -0.915   5.119  0.1837 -0.4960 -0.0168
   61MOL0     C 8313   2.751  -0.970   5.119 -0.2962  0.4396 -0.3978
   61MOL0     C 8314   2.736  -1.097   5.166 -0.3599 -0.0977  0.3861
   61MOL0     C 8315   2.835  -1.169   5.225  0.2092  0.6719  0.1053
   61MOL0     O 8316   2.798  -1.299   5.265  0.4630  0.0277  0.3453
   61MOL0     C 8317   2.893  -1.402   5.230 -0.0077 -0.5299 -0.6230
   61MOL0     C 8318   2.927  -1.391   5.074  0.0809 -0.1285 -0.1302
   61MOL0     C 8319   3.053  -1.454   5.029  0.3040 -0.6121  0.0212
   61MOL0     C 8320   3.183  -1.366   5.050  0.3868 -0.1079 -0.1450
   61MOL0     C 8321   3.187  -1.236   4.969 -0.2202  0.6328  0.6006
   61MOL0     C 8322   3.320  -1.174   4.959 -0.4363  0.0684 -1.0058
   61MOL0     C 8323   3.319  -1.034   4.883 -0.2196  0.2399 -0.3356
   61MOL0     C 8324   3.355  -1.052   4.740  0.5610 -0.1063  0.3700
   61MOL0    Cl 8325   3.210  -1.147   4.659 -0.3969  0.1067 -0.4261
   61MOL0     C 8326   2.963  -1.113   5.236 -0.3456 -0.8424 -0.0695
   61MOL0     C 8327   2.988  -0.983   5.192 -1.1252 -0.7986  0.6747
   61MOL0     O 8328   2.909  -0.688   5.285 -0.7511  0.2759  0.5416
   61MOL0     C 8329   2.919  -0.435   5.170  0.4339 -0.6075 -0.1075
   61MOL0     C 8330   2.953  -0.308   5.131 -1.0994  0.1143  0.0098
   61MOL0     N 8331   3.331   0.431   5.162  0.2685 -0.7024  0.2269
   61MOL0     N 8332   3.421   0.523   5.154  0.7250 -0.6171 -0.1490
   61MOL0     C 8333   4.261   1.296   5.638 -0.1877 -0.0661 -0.2059
   61MOL0     C 8334   4.333   1.314   5.755  0.4439 -0.7650 -0.0316
   61MOL0     C 8335   4.621   1.293   6.097 -0.2613 -0.2261  1.0266
   61MOL0     C 8336   4.747   1.243   6.043  0.1462  0.2005  0.1444
   61MOL0     C 8337   4.852   1.213   6.131 -0.7880  0.3597 -0.6080
   61MOL0     C 8338   4.846   1.247   6.269 -0.2995  1.3135  0.3997
   61MOL0     O 8339   4.935   1.222   6.373  0.6232 -0.4983 -0.0233
   61MOL0     C 8340   5.076   1.216   6.338 -0.3050  0.2676  1.1186
   61MOL0     C 8341   5.166   1.268   6.457  0.5345  0.2059  0.0574
   61MOL0     C 8342   5.318   1.254   6.431 -0.7252 -0.0757  0.8867
   61MOL0     C 8343   5.352   1.362   6.328 -0.3448  0.4004  0.3867
   61MOL0     C 8344   5.501   1.382   6.328 -0.5628 -0.0983 -0.0492
   61MOL0     C 8345   5.617   1.406   6.320 -0.2277  0.8352 -0.0318
   61MOL0     C 8346   4.730   1.304   6.320 -0.7999  0.1516 -0.6931
   61MOL0     C 8347   4.615   1.327   6.238  0.5136  0.6195 -0.4283
   61MOL0     C 8348   4.486   1.389   6.298 -0.6566  0.3254  0.5509
   61MOL0     H 8349   4.596   1.114   5.692  1.0588  0.8034  1.3075
   61MOL0     H 8350   4.450   1.067   5.484 -0.2053  1.9854 -1.3275
   61MOL0     H 8351   4.034   1.144   5.411 -1.4971 -2.8920 -2.3306
   61MOL0     H 8352   4.115   1.062   5.550 -0.0167 -1.7702 -0.1938
   61MOL0     H 8353   4.184   1.006   5.256 -3.5759 -2.1724 -3.2779
   61MOL0     H 8354   4.235   0.911   5.399 -2.5912 -0.2739  1.0203
   61MOL0     H 8355   3.994   0.857   5.443  0.8695  3.5454  0.9575
   61MOL0     H 8356   3.964   0.937   5.285 -2.2221 -1.2054  1.7535
   61MOL0     H 8357   4.133   0.750   5.183  0.5055 -1.4163 -0.3176
   61MOL0     H 8358   4.102   0.682   5.335  3.3987  1.6501  0.2552
   61MOL0     H 8359   3.912   0.747   5.113 -2.0832  4.1015  1.4699
   61MOL0     H 8360   3.853   0.731   5.284  0.7318 -1.1829  0.4983
   61MOL0     H 8361   3.986   0.530   5.115 -1.0418  0.6024 -1.3605
   61MOL0     H 8362   3.938   0.500   5.289 -2.5486  0.2074  0.9281
   61MOL0     H 8363   3.783   0.408   5.122  0.4300  0.3372 -1.7274
   61MOL0     H 8364   3.753   0.572   5.054  2.4973  3.7226  1.0128
   61MOL0     H 8365   3.671   0.544   5.343 -3.5584 -1.7835  1.1569
   61MOL0     H 8366   3.634   0.662   5.224  0.5377 -0.1112  0.7317
   61MOL0     H 8367   3.584   0.263   5.274  1.6245  0.3755 -2.3416
   61MOL0     H 8368   3.212   0.202   5.260 -0.1519  4.2877 -0.3329
   61MOL0     H 8369   3.358   0.112   5.283 -0.5387  0.2797  0.8962
   61MOL0     H 8370   3.276   0.226   5.001 -3.4463 -2.4677 -4.3796
   61MOL0     H 8371   3.369   0.075   5.053  0.9964  1.0140 -0.5024
   61MOL0     H 8372   3.080   0.075   5.138 -0.8953 -4.2092 -0.6988
   61MOL0     H 8373   3.099   0.111   4.967 -0.1037  2.9287  0.8877
   61MOL0     H 8374   3.250  -0.108   4.956 -0.3947 -3.1855 -0.6468
   61MOL0     H 8375   3.210  -0.129   5.130 -3.2679 -2.3686 -1.3975
   61MOL0     H 8376   3.146  -0.374   4.859  1.4293 -0.8477  1.2907
   61MOL0     H 8377   3.206  -0.601   4.866 -0.0009  1.1167 -0.0745
   61MOL0     H 8378   3.056  -0.699   4.876  0.4350  0.4391 -0.8694
   61MOL0     H 8379   3.167  -0.679   5.015 -1.1221 -1.6537 -0.3927
   61MOL0     H 8380   2.663  -0.917   5.086  0.0138  0.5015 -1.1562
   61MOL0     H 8381   2.635  -1.129   5.143 -0.7737  2.3838 -1.8016
   61MOL0     H 8382   2.983  -1.393   5.292 -0.0553  0.0397 -0.6362
   61MOL0     H 8383   2.851  -1.501   5.249  1.6792 -1.3251 -0.9106
   61MOL0     H 8384   2.844  -1.448   5.032  2.4497 -1.5956 -3.1571
   61MOL0     H 8385   2.917  -1.290   5.032 -0.6506 -1.5153 -3.5963
   61MOL0     H 8386   3.028  -1.481   4.926 -1.4096 -1.9856  0.7269
   61MOL0     H 8387   3.071  -1.552   5.075 -0.9039 -0.7938  0.1334
   61MOL0     H 8388   3.269  -1.422   5.011  1.1165  1.7151 -1.2650
   61MOL0     H 8389   3.204  -1.341   5.154 -0.8013 -0.0550  0.0880
   61MOL0     H 8390   3.163  -1.263   4.866  3.3145 -1.1727  0.1129
   61MOL0     H 8391   3.113  -1.168   5.012 -1.2309 -0.5321  0.7660
   61MOL0     H 8392   3.392  -1.241   4.910  1.2469  0.5493  0.6810
   61MOL0     H 8393   3.359  -1.159   5.060 -0.5407 -2.6001 -0.4790
   61MOL0     H 8394   3.394  -0.972   4.933 -2.4990  2.2994  0.7161
   61MOL0     H 8395   3.225  -0.980   4.894  1.3274  2.8481  0.9584
   61MOL0     H 8396   3.444  -1.115   4.730  0.0113 -1.2828  2.2488
   61MOL0     H 8397   3.362  -0.957   4.687 -5.8954  0.4947 -0.1641
   61MOL0     H 8398   3.046  -1.172   5.274  0.1115  0.8253  1.6724
   61MOL0     H 8399   3.081  -0.930   5.207 -2.2313  1.6179 -0.3779
   61MOL0     H 8400   2.857  -0.442   5.258  1.8034 -0.2155  0.9272
   61MOL0     H 8401   2.909  -0.233   5.196 -0.3334 -0.5347  1.3037
   61MOL0     H 8402   4.185   1.367   5.605  0.5460  1.3163  0.9570
   61MOL0     H 8403   4.296   1.389   5.825 -1.9908 -0.9567 -1.0168
   61MOL0     H 8404   4.752   1.188   5.950 -5.6830 -0.5940 -0.0898
   61MOL0     H 8405   4.932   1.156   6.085 -0.1757  1.8587 -1.4802
   61MOL0     H 8406   5.104   1.121   6.292  1.2156  1.4791 -0.6336
   61MOL0     H 8407   5.107   1.283   6.256 -2.8541 -1.0600 -1.1186
   61MOL0     H 8408   5.131   1.197   6.533 -1.2221 -0.2692 -1.1265
   61MOL0     H 8409   5.138   1.368   6.492 -1.2016 -0.6048  1.1350
   61MOL0     H 8410   5.381   1.267   6.519 -0.1577  2.2926  0.2129
   61MOL0     H 8411   5.345   1.159   6.385 -0.5234  1.5151 -2.6233
   61MOL0     H 8412   5.302   1.451   6.367  2.3661  1.9138  0.6833
   61MOL0     H 8413   5.316   1.343   6.227 -0.4002 -0.5468  0.5821
   61MOL0     H 8414   5.723   1.417   6.309 -0.0785 -1.7660 -2.3934
   61MOL0     H 8415   4.731   1.324   6.426  0.7792 -0.0241 -0.6615
   61MOL0     H 8416   4.498   1.423   6.401  0.2256  4.7431 -0.7831
   61MOL0     H 8417   4.453   1.473   6.237  1.7709 -1.1973 -3.2291
   61MOL0     H 8418   4.410   1.310   6.303 -1.0742  0.4940 -1.8049
   62MOL0     O 8419   4.930   5.878   4.742 -0.0709 -0.7722  0.0767
   62MOL0     C 8420   4.890   5.764   4.719 -0.8615 -0.1300 -0.7848
   62MOL0     O 8421   4.934   5.652   4.776 -0.3369  1.1165  0.0029
   62MOL0     C 8422   5.038   5.668   4.867  0.2523 -0.1244 -0.4034
   62MOL0     C 8423   5.015   5.744   4.984  0.1953 -0.1702  0.5221
   62MOL0     C 8424   5.114   5.751   5.080 -0.2294  0.5450 -0.4976
   62MOL0     C 8425   5.238   5.687   5.065  0.0175 -0.4023  0.3194
   62MOL0     O 8426   5.333   5.709   5.161  0.3029 -0.0465  0.0105
   62MOL0     C 8427   5.464   5.649   5.163 -0.8086  0.4195  1.0541
   62MOL0     C 8428   5.533   5.703   5.294  0.6153 -0.7072  0.8205
   62MOL0     C 8429   5.691   5.668   5.299  0.5910  0.8620  0.3745
   62MOL0     C 8430   5.768   5.745   5.409  0.6310  0.0668  0.6116
   62MOL0     C 8431   5.922   5.737   5.422  0.3690  0.5054  0.1832
   62MOL0     C 8432   5.958   5.775   5.558 -0.3529 -0.2422 -0.5951
   62MOL0     C 8433   6.111   5.787   5.576 -0.0074  0.9602  0.5040
   62MOL0     C 8434   6.147   5.845   5.707 -0.0622  0.1692  0.0618
   62MOL0     N 8435   6.286   5.896   5.695  0.4928 -0.2834  0.3073
   62MOL0     C 8436   6.314   6.029   5.678 -0.7210  0.0579 -0.4012
   62MOL0     C 8437   6.454   6.035   5.688  0.6974  0.9669 -0.0705
   62MOL0     C 8438   6.546   6.158   5.705  0.2395 -0.3854  1.2719
   62MOL0     C 8439   6.666   6.138   5.797 -0.2841 -0.3397  1.2590
   62MOL0     C 8440   6.789   6.075   5.733  0.3006  0.2649  0.3396
   62MOL0     C 8441   6.886   6.042   5.846  0.6398  0.2296 -0.2798
   62MOL0     O 8442   7.007   5.974   5.806  0.3778 -1.1019  0.3398
   62MOL0     C 8443   7.088   6.064   5.748 -1.2802  0.3399 -1.5364
   62MOL0     C 8444   7.138   6.168   5.825  0.5046 -0.6025 -1.0529
   62MOL0     C 8445   7.189   6.281   5.766 -0.8087  0.4333 -0.4682
   62MOL0     C 8446   7.227   6.400   5.861  0.0569 -1.6121 -0.4039
   62MOL0     C 8447   7.198   6.287   5.626  0.2656 -1.0643  0.2594
   62MOL0     C 8448   7.260   6.400   5.550 -0.2245 -0.3306  0.4694
   62MOL0     O 8449   7.222   6.405   5.419 -0.4878  0.3687 -0.1194
   62MOL0     C 8450   7.244   6.514   5.350  0.8736  0.5843 -0.2674
   62MOL0     C 8451   7.287   6.502   5.218 -0.4473  0.7814 -0.4696
   62MOL0     C 8452   7.302   6.610   5.136 -0.1649  0.3725 -0.0944
   62MOL0     C 8453   7.274   6.740   5.189 -1.1169 -0.2822 -0.0370
   62MOL0     O 8454   7.287   6.852   5.111 -0.2281  0.1064 -0.1212
   62MOL0     C 8455   7.181   6.956   5.126 -0.5834  0.7836  0.4136
   62MOL0     C 8456   7.217   7.087   5.050 -0.4805 -0.2860 -1.0324
   62MOL0     C 8457   7.358   7.131   5.100 -0.6767  0.3236  0.0881
   62MOL0     C 8458   7.382   7.120   5.256 -0.5736 -0.3070  0.5618
   62MOL0     C 8459   7.502   7.203   5.303 -0.6372  0.7053 -0.4096
   62MOL0     C 8460   7.633   7.165   5.227  0.0824 -1.2872 -0.8322
   62MOL0     C 8461   7.745   7.253   5.283 -0.5288 -0.8509  0.1179
   62MOL0     C 8462   7.811   7.177   5.397  0.7081  0.7327 -1.0549
   62MOL0    Cl 8463   7.948   7.281   5.451 -0.4905  0.6716  0.5162
   62MOL0     C 8464   7.246   6.752   5.321  1.0933  1.1439 -0.5098
   62MOL0     C 8465   7.224   6.647   5.401 -0.6959  0.2067  0.1945
   62MOL0     O 8466   7.349   6.464   5.607  0.1247  0.2445  0.1099
   62MOL0     C 8467   7.167   6.172   5.550 -0.3915  1.1332  0.3846
   62MOL0     C 8468   7.100   6.066   5.612  0.1574  0.0410 -0.5001
   62MOL0     N 8469   6.500   5.907   5.698 -0.2773 -0.0320 -0.2460
   62MOL0     N 8470   6.402   5.824   5.706 -0.1003  0.3178 -0.1438
   62MOL0     C 8471   5.256   5.616   4.950 -0.5757  0.6358  0.5145
   62MOL0     C 8472   5.158   5.604   4.851  0.9432  0.0816 -0.6711
   62MOL0     C 8473   4.795   5.763   4.607 -0.9308  0.7843 -0.2542
   62MOL0     C 8474   4.768   5.879   4.527  0.8360 -0.4936  0.1109
   62MOL0     C 8475   4.688   5.873   4.410  1.2548  0.2481 -0.6174
   62MOL0     C 8476   4.621   5.757   4.372  0.1895 -0.1630  0.5056
   62MOL0     O 8477   4.551   5.736   4.259  0.0580 -0.4489 -0.4338
   62MOL0     C 8478   4.523   5.840   4.167 -0.5333 -0.1025 -0.5189
   62MOL0     C 8479   4.436   5.772   4.057 -0.9664  0.5992  0.1560
   62MOL0     C 8480   4.344   5.859   3.975  0.4466 -0.2741 -0.2054
   62MOL0     C 8481   4.229   5.781   3.904 -0.1559 -0.0527  0.0049
   62MOL0     C 8482   4.275   5.692   3.800 -0.3816  0.2988  0.1637
   62MOL0     C 8483   4.335   5.612   3.721  0.6940 -0.3801  0.0737
   62MOL0     C 8484   4.639   5.648   4.454 -0.7403  0.0758  0.3693
   62MOL0     C 8485   4.715   5.652   4.573 -0.4329 -0.7530 -0.4319
   62MOL0     C 8486   4.697   5.531   4.663  0.3709  0.3785  1.1222
   62MOL0     H 8487   4.924   5.799   5.005  0.9348  0.2772  2.8062
   62MOL0     H 8488   5.099   5.817   5.165 -3.4319 -1.8974  1.0464
   62MOL0     H 8489   5.513   5.661   5.066  3.1241 -4.3941  2.0312
   62MOL0     H 8490   5.455   5.540   5.171 -0.2189  0.2084 -0.7740
   62MOL0     H 8491   5.528   5.812   5.299  1.9807 -0.6466  1.3965
   62MOL0     H 8492   5.477   5.663   5.379 -0.3720  0.9986  1.0167
   62MOL0     H 8493   5.695   5.562   5.325  0.5664  0.8574  0.3592
   62MOL0     H 8494   5.738   5.684   5.202  1.6116  0.2652  0.7574
   62MOL0     H 8495   5.740   5.849   5.388  1.9599  0.2040 -0.6061
   62MOL0     H 8496   5.712   5.731   5.502 -0.5560 -2.5971 -0.4070
   62MOL0     H 8497   5.965   5.808   5.351  1.7785 -0.6633 -0.1898
   62MOL0     H 8498   5.965   5.636   5.414 -4.4447 -2.2866  3.8277
   62MOL0     H 8499   5.910   5.867   5.591 -1.2480  0.0937 -2.7124
   62MOL0     H 8500   5.932   5.699   5.632 -0.9441  1.8232  1.4446
   62MOL0     H 8501   6.134   5.860   5.497  1.4984  1.3384  1.2545
   62MOL0     H 8502   6.162   5.692   5.562  2.2514  2.3149 -1.1269
   62MOL0     H 8503   6.081   5.927   5.737  1.6677  2.4975 -2.0902
   62MOL0     H 8504   6.131   5.772   5.787 -1.0072  2.1652  1.7778
   62MOL0     H 8505   6.254   6.116   5.652 -0.8349 -0.1358 -0.7922
   62MOL0     H 8506   6.472   6.227   5.746 -0.8090 -0.1798 -0.8727
   62MOL0     H 8507   6.575   6.210   5.614 -2.3439  0.7165  0.9996
   62MOL0     H 8508   6.689   6.233   5.846 -1.5362  0.0789  1.0707
   62MOL0     H 8509   6.628   6.065   5.869  0.2479 -1.9589 -0.0450
   62MOL0     H 8510   6.769   5.985   5.674 -0.4038  0.1177  0.7900
   62MOL0     H 8511   6.826   6.155   5.669 -1.1890 -0.4754 -1.5546
   62MOL0     H 8512   6.909   6.125   5.914  0.9631 -0.6413  0.7220
   62MOL0     H 8513   6.817   5.984   5.908 -0.3703  0.1252 -1.4661
   62MOL0     H 8514   7.128   6.157   5.932  0.6877  2.7175 -0.5939
   62MOL0     H 8515   7.208   6.498   5.818  0.1664 -0.3892  2.1649
   62MOL0     H 8516   7.335   6.398   5.879 -0.0179  0.4116  0.4461
   62MOL0     H 8517   7.180   6.390   5.959  0.9034 -2.4507 -0.0655
   62MOL0     H 8518   7.296   6.406   5.168 -0.2953  0.8114 -0.5007
   62MOL0     H 8519   7.323   6.604   5.030 -4.7254  1.1285 -1.2461
   62MOL0     H 8520   7.087   6.918   5.086 -0.5211 -0.5774  1.4875
   62MOL0     H 8521   7.163   6.978   5.232 -3.2080  0.4626  0.0831
   62MOL0     H 8522   7.229   7.076   4.942 -1.0514 -1.5722 -0.9797
   62MOL0     H 8523   7.149   7.168   5.076 -0.5948 -0.1707 -1.6742
   62MOL0     H 8524   7.362   7.234   5.065 -1.4888 -0.0293 -1.0976
   62MOL0     H 8525   7.426   7.068   5.042  1.1555  0.3817  2.0367
   62MOL0     H 8526   7.405   7.016   5.283 -2.0787 -0.5736  0.8718
   62MOL0     H 8527   7.295   7.168   5.300  1.6647  2.5960  2.2024
   62MOL0     H 8528   7.486   7.310   5.290  0.2369  1.1799  1.9270
   62MOL0     H 8529   7.515   7.181   5.410  2.0476  0.8708 -0.6467
   62MOL0     H 8530   7.624   7.194   5.122 -0.1554 -0.5329 -0.6119
   62MOL0     H 8531   7.667   7.061   5.227 -0.3952 -1.4460 -0.3512
   62MOL0     H 8532   7.720   7.360   5.291 -2.0885 -1.1907  0.1430
   62MOL0     H 8533   7.830   7.242   5.214 -0.9930 -3.7779 -0.0999
   62MOL0     H 8534   7.856   7.081   5.369 -3.3771 -2.6666  2.5916
   62MOL0     H 8535   7.745   7.168   5.483  2.9337  1.9826  0.8756
   62MOL0     H 8536   7.227   6.850   5.364  0.1307  1.1389 -0.8941
   62MOL0     H 8537   7.202   6.667   5.505  0.7539  1.9027  0.2162
   62MOL0     H 8538   7.194   6.157   5.446  3.7430 -0.4111  1.4913
   62MOL0     H 8539   7.060   5.978   5.563  0.0219  0.6406 -1.4896
   62MOL0     H 8540   5.346   5.557   4.942 -1.2204 -0.4283  0.8539
   62MOL0     H 8541   5.184   5.537   4.770  3.4857  1.3284 -0.9875
   62MOL0     H 8542   4.816   5.972   4.553  2.1816 -1.7559  2.5723
   62MOL0     H 8543   4.686   5.961   4.346  2.6084  1.4257  0.8778
   62MOL0     H 8544   4.475   5.926   4.214 -0.0750 -0.9125  1.5072
   62MOL0     H 8545   4.620   5.869   4.126  1.3686  0.2389  3.6892
   62MOL0     H 8546   4.377   5.694   4.107 -1.2524  2.7017  3.4145
   62MOL0     H 8547   4.501   5.719   3.987  0.5679  1.0503  1.1985
   62MOL0     H 8548   4.296   5.926   4.047 -3.2044 -1.5845 -1.1765
   62MOL0     H 8549   4.406   5.912   3.903 -1.5177  1.7150 -0.5435
   62MOL0     H 8550   4.159   5.846   3.851 -2.5834 -4.1720 -2.4511
   62MOL0     H 8551   4.167   5.737   3.983 -0.2057  2.8667  1.6995
   62MOL0     H 8552   4.370   5.537   3.652 -0.6058  0.3842 -1.4983
   62MOL0     H 8553   4.587   5.560   4.420 -0.9305  1.1661 -2.3916
   62MOL0     H 8554   4.766   5.447   4.660  3.2060  2.6034 -0.2526
   62MOL0     H 8555   4.704   5.580   4.760  1.2554  4.0131 -0.6283
   62MOL0     H 8556   4.596   5.491   4.652  0.5183 -0.2898  2.0591
   63MOL0     O 8557   0.226  10.637   5.994 -0.0991  0.1917  0.0495
   63MOL0     C 8558   0.185  10.516   5.964  0.4405  0.2561  0.7068
   63MOL0     O 8559   0.257  10.421   5.894 -0.4922 -0.1517  0.1208
   63MOL0     C 8560   0.382  10.459   5.855 -0.0505 -0.3744  0.7226
   63MOL0     C 8561   0.493  10.483   5.943  0.0690  0.1985 -0.6227
   63MOL0     C 8562   0.620  10.519   5.901  0.6480  0.4769 -0.7239
   63MOL0     C 8563   0.646  10.534   5.763  0.3447 -0.2587  0.1366
   63MOL0     O 8564   0.758  10.593   5.724  0.1085 -0.1463  1.0408
   63MOL0     C 8565   0.830  10.553   5.602  0.6092 -0.3578  0.7649
   63MOL0     C 8566   0.978  10.561   5.632 -0.1204 -0.6032 -0.2784
   63MOL0     C 8567   1.002  10.712   5.637 -0.4061 -0.3300  0.0675
   63MOL0     C 8568   1.143  10.733   5.680  0.0421  0.2242 -0.3048
   63MOL0     C 8569   1.185  10.880   5.679  0.7400  1.2553 -0.0453
   63MOL0     C 8570   1.327  10.892   5.743  0.2821 -0.3395 -0.4759
   63MOL0     C 8571   1.454  10.857   5.660  0.1101 -1.5231  0.2341
   63MOL0     C 8572   1.581  10.891   5.725  0.7341  0.1575 -0.2615
   63MOL0     N 8573   1.694  10.884   5.642 -1.3012  0.4301 -0.2059
   63MOL0     C 8574   1.713  10.961   5.529 -0.6901 -0.3514 -0.8219
   63MOL0     C 8575   1.836  10.927   5.472  0.1249  0.9672 -0.8960
   63MOL0     C 8576   1.893  10.957   5.341 -0.8628  0.2778 -0.5786
   63MOL0     C 8577   2.040  11.015   5.361  0.8467 -0.3754  1.0994
   63MOL0     C 8578   2.035  11.156   5.425  0.9826 -0.0334 -0.5385
   63MOL0     C 8579   2.168  11.233   5.411 -0.3952 -0.6726  0.6411
   63MOL0     O 8580   2.218  11.249   5.277 -0.0762  0.1345 -0.6770
   63MOL0     C 8581   2.182  11.358   5.198 -0.6377 -0.4874 -0.2357
   63MOL0     C 8582   2.249  11.384   5.080  0.2813 -0.2785  0.3002
   63MOL0     C 8583   2.207  11.475   4.978 -0.8213  1.2361 -0.5037
   63MOL0     C 8584   2.283  11.478   4.847 -0.6963 -0.4296 -1.1086
   63MOL0     C 8585   2.088  11.558   5.008 -0.6496 -0.3372  0.2952
   63MOL0     C 8586   2.038  11.673   4.925  0.4427  0.4871  0.5436
   63MOL0     O 8587   2.065  11.656   4.787  0.2482  0.5117 -0.7603
   63MOL0     C 8588   2.058  11.776   4.726 -0.5420  0.4178 -0.0860
   63MOL0     C 8589   2.030  11.777   4.593  0.1447  0.3481  0.2856
   63MOL0     C 8590   2.025  11.890   4.522 -0.0792  0.6133 -0.2101
   63MOL0     C 8591   2.062  12.020   4.576 -0.3299  1.7350  0.0656
   63MOL0     O 8592   2.059  12.127   4.503  0.0718 -0.1490 -0.8109
   63MOL0     C 8593   1.980  12.231   4.545  1.0319 -0.7790 -0.7033
   63MOL0     C 8594   2.058  12.369   4.559  0.6719 -0.7115 -0.1920
   63MOL0     C 8595   2.109  12.415   4.417  0.2522  0.4798 -0.7844
   63MOL0     C 8596   2.004  12.464   4.325 -0.1897  0.8482  0.4319
   63MOL0     C 8597   2.030  12.432   4.169  0.8022 -0.1911 -1.3370
   63MOL0     C 8598   2.160  12.489   4.131  0.6018 -0.0837 -1.0102
   63MOL0     C 8599   2.176  12.495   3.977 -0.4118 -0.3220  0.3767
   63MOL0     C 8600   2.139  12.359   3.908  0.4597 -0.3355  1.0695
   63MOL0    Cl 8601   2.263  12.246   3.976  0.0642 -0.9233  0.5317
   63MOL0     C 8602   2.106  12.027   4.701 -0.0022 -0.1947 -1.4251
   63MOL0     C 8603   2.099  11.908   4.778  0.5567 -1.4397  0.3569
   63MOL0     O 8604   1.981  11.763   4.977  0.0079 -0.3130  0.1240
   63MOL0     C 8605   2.019  11.533   5.137 -0.4004  0.5415 -0.1685
   63MOL0     C 8606   2.069  11.438   5.217 -0.6962  0.0284 -0.8249
   63MOL0     N 8607   1.892  10.831   5.557  0.2221 -0.2283 -0.1655
   63MOL0     N 8608   1.811  10.812   5.655 -0.1244  0.3774  0.2363
   63MOL0     C 8609   0.537  10.513   5.676  0.6791 -0.9950  0.8350
   63MOL0     C 8610   0.410  10.482   5.721  0.4783  0.5608 -0.6811
   63MOL0     C 8611   0.039  10.484   5.996  0.8717 -0.6398  0.4297
   63MOL0     C 8612  -0.059  10.592   5.987  0.0711 -0.5815 -0.6773
   63MOL0     C 8613  -0.181  10.582   6.043  0.9124  0.3013  0.2473
   63MOL0     C 8614  -0.222  10.456   6.090  0.1487 -0.5783  0.3594
   63MOL0     O 8615  -0.351  10.439   6.141  0.0282 -0.0541  0.0210
   63MOL0     C 8616  -0.432  10.540   6.200 -0.2914 -0.0297  0.2416
   63MOL0     C 8617  -0.567  10.477   6.226  0.6621  0.3060 -0.1267
   63MOL0     C 8618  -0.631  10.444   6.083  0.4999  0.2302  0.2198
   63MOL0     C 8619  -0.760  10.357   6.109  0.2625  0.7129 -0.0649
   63MOL0     C 8620  -0.865  10.411   6.186 -0.2587  0.2234 -0.6667
   63MOL0     C 8621  -0.952  10.444   6.267 -0.9863 -0.4836 -0.1376
   63MOL0     C 8622  -0.136  10.349   6.090  0.3710  0.6152 -0.8701
   63MOL0     C 8623  -0.007  10.366   6.050 -0.0777  0.3898  0.9163
   63MOL0     C 8624   0.094  10.252   6.074 -0.2065  0.7299  0.4927
   63MOL0     H 8625   0.469  10.483   6.049 -0.7277 -1.5647 -0.7573
   63MOL0     H 8626   0.700  10.551   5.967 -0.9127  0.9381  1.0433
   63MOL0     H 8627   0.803  10.617   5.517  3.2962  0.4281  0.4084
   63MOL0     H 8628   0.799  10.454   5.567  3.9026 -0.2394 -3.2897
   63MOL0     H 8629   1.009  10.510   5.723 -0.9528 -1.3693 -0.4186
   63MOL0     H 8630   1.029  10.521   5.543 -3.3671 -0.0401 -2.5929
   63MOL0     H 8631   1.000  10.750   5.535  0.9976 -0.9598 -0.2222
   63MOL0     H 8632   0.923  10.748   5.704 -1.0877 -0.9572 -0.3832
   63MOL0     H 8633   1.150  10.687   5.779 -1.8258 -1.6228 -0.9477
   63MOL0     H 8634   1.215  10.678   5.619  0.9946  2.8523 -1.6897
   63MOL0     H 8635   1.111  10.939   5.734 -0.5570  1.9047 -2.3129
   63MOL0     H 8636   1.193  10.925   5.579 -4.1315  0.3091 -1.1561
   63MOL0     H 8637   1.338  10.996   5.773  3.1992 -1.0908  1.5211
   63MOL0     H 8638   1.321  10.834   5.836  3.3307  0.4906  0.3414
   63MOL0     H 8639   1.450  10.923   5.573  0.5951  1.6656  2.4608
   63MOL0     H 8640   1.447  10.750   5.637  0.2185 -1.4170 -0.2880
   63MOL0     H 8641   1.564  10.992   5.763 -0.4376 -0.8703  2.1293
   63MOL0     H 8642   1.614  10.830   5.810  0.7900  1.8059  0.9419
   63MOL0     H 8643   1.640  11.025   5.481 -1.0884  1.0212  1.4362
   63MOL0     H 8644   1.822  11.027   5.297 -2.0171 -0.9726 -0.7616
   63MOL0     H 8645   1.896  10.869   5.276  0.5540  0.0276 -0.2027
   63MOL0     H 8646   2.108  10.951   5.418  2.6273 -1.4184 -1.9773
   63MOL0     H 8647   2.088  11.021   5.263  0.0843 -1.4487  0.6433
   63MOL0     H 8648   1.965  11.221   5.372 -0.7117 -0.5390  0.9802
   63MOL0     H 8649   2.020  11.153   5.533 -0.5431 -5.7884 -0.5802
   63MOL0     H 8650   2.167  11.326   5.467 -1.4679 -0.1019 -0.2754
   63MOL0     H 8651   2.240  11.165   5.457  0.5073 -1.3941 -1.6796
   63MOL0     H 8652   2.333  11.320   5.057  1.7599  0.9845  1.8946
   63MOL0     H 8653   2.357  11.398   4.837  1.5525  1.5759 -1.3487
   63MOL0     H 8654   2.343  11.569   4.859 -2.6674  0.6934  1.0801
   63MOL0     H 8655   2.203  11.469   4.773  0.3840  2.2335 -2.7511
   63MOL0     H 8656   1.996  11.689   4.540  1.2936 -0.5323  0.9636
   63MOL0     H 8657   1.987  11.898   4.421 -0.7208 -1.2728 -0.1391
   63MOL0     H 8658   1.905  12.245   4.467  0.2699 -1.5007 -0.1294
   63MOL0     H 8659   1.929  12.217   4.641 -0.8409 -0.2951 -1.5676
   63MOL0     H 8660   1.984  12.439   4.597 -1.3944 -3.2954  0.8542
   63MOL0     H 8661   2.147  12.357   4.622 -0.0056  2.3142  1.5065
   63MOL0     H 8662   2.162  12.330   4.376  0.8266  0.7019 -0.5142
   63MOL0     H 8663   2.187  12.489   4.435  2.9470 -2.5242  0.8188
   63MOL0     H 8664   2.002  12.573   4.335 -3.0826  0.6628  4.1810
   63MOL0     H 8665   1.903  12.426   4.346 -0.9527  1.3315 -2.1000
   63MOL0     H 8666   2.028  12.325   4.147  0.4394 -0.6944  0.8878
   63MOL0     H 8667   1.956  12.476   4.101  0.3462  0.9540 -0.1324
   63MOL0     H 8668   2.240  12.425   4.172  0.2648 -1.3917 -2.3066
   63MOL0     H 8669   2.164  12.589   4.174  1.0832 -1.1395  1.6334
   63MOL0     H 8670   2.279  12.518   3.950 -0.7761  0.9963  0.0427
   63MOL0     H 8671   2.117  12.576   3.933 -1.5769 -1.2510  0.1851
   63MOL0     H 8672   2.137  12.373   3.799  2.7257  3.5712  1.3318
   63MOL0     H 8673   2.040  12.318   3.932  0.2904 -1.4569 -1.1928
   63MOL0     H 8674   2.131  12.122   4.747 -4.7122 -0.1889  1.7363
   63MOL0     H 8675   2.134  11.920   4.880  2.2002  3.6689 -0.5008
   63MOL0     H 8676   1.944  11.604   5.170 -1.4842 -0.6182 -0.0522
   63MOL0     H 8677   2.020  11.413   5.311 -0.1577 -2.4375 -1.1291
   63MOL0     H 8678   0.545  10.535   5.570 -0.0004 -0.7016  0.8365
   63MOL0     H 8679   0.317  10.478   5.665 -1.7501  4.7409  2.2425
   63MOL0     H 8680  -0.025  10.692   5.961 -0.7689 -0.2870 -0.6579
   63MOL0     H 8681  -0.257  10.660   6.050 -1.1804 -1.7283  1.1959
   63MOL0     H 8682  -0.393  10.589   6.289  0.1901  0.9485 -0.4772
   63MOL0     H 8683  -0.456  10.619   6.127 -1.1595 -1.2116 -0.8037
   63MOL0     H 8684  -0.612  10.551   6.292  1.4523  0.1100  0.6518
   63MOL0     H 8685  -0.553  10.388   6.288  3.4231 -0.1927 -1.3094
   63MOL0     H 8686  -0.650  10.534   6.024  2.0659  0.9930  0.8286
   63MOL0     H 8687  -0.569  10.375   6.025 -0.3319 -1.9393  1.7685
   63MOL0     H 8688  -0.731  10.261   6.153 -3.0917 -0.8640 -0.9431
   63MOL0     H 8689  -0.795  10.317   6.013  1.9103 -1.8742  0.3344
   63MOL0     H 8690  -1.037  10.468   6.328 -2.1131 -1.5757 -1.2109
   63MOL0     H 8691  -0.175  10.254   6.125 -0.0938  0.5525 -1.5428
   63MOL0     H 8692   0.114  10.189   5.986 -1.2968  1.5004 -0.3473
   63MOL0     H 8693   0.186  10.296   6.113 -0.9161  2.6334  0.1660
   63MOL0     H 8694   0.040  10.190   6.146  0.4738 -0.3359  0.0948
   64MOL0     O 8695   3.383   0.745   8.269  0.0152  0.1356 -0.5458
   64MOL0     C 8696   3.496   0.710   8.305  0.3408  0.1076 -0.8277
   64MOL0     O 8697   3.607   0.674   8.226  0.3645  0.0210  0.5578
   64MOL0     C 8698   3.627   0.719   8.094 -0.0450 -0.4885 -0.5728
   64MOL0     C 8699   3.573   0.836   8.046 -0.4854 -0.9989  0.2231
   64MOL0     C 8700   3.603   0.874   7.922  0.6462  0.3145 -1.0990
   64MOL0     C 8701   3.695   0.806   7.837 -1.3637  0.2062 -0.4092
   64MOL0     O 8702   3.730   0.856   7.710 -0.0493 -0.3265 -0.1812
   64MOL0     C 8703   3.767   0.770   7.605  0.2238  0.4044 -0.1166
   64MOL0     C 8704   3.737   0.827   7.466  0.8302  0.6576  1.1270
   64MOL0     C 8705   3.590   0.817   7.430  0.0219  0.5377 -0.3274
   64MOL0     C 8706   3.567   0.850   7.286 -0.5049 -0.0194  0.1582
   64MOL0     C 8707   3.421   0.867   7.252  0.9395 -0.3276 -0.4452
   64MOL0     C 8708   3.337   0.743   7.286  0.3493 -0.5781 -0.3500
   64MOL0     C 8709   3.195   0.757   7.240  0.3039  0.2047  0.9661
   64MOL0     C 8710   3.114   0.645   7.298  0.2582  0.1163 -0.3402
   64MOL0     N 8711   2.977   0.641   7.245 -0.2766 -0.6976 -0.3717
   64MOL0     C 8712   2.868   0.670   7.316 -0.7140 -1.2334  0.1974
   64MOL0     C 8713   2.764   0.605   7.254 -1.0557  0.8960 -0.2429
   64MOL0     C 8714   2.620   0.619   7.292 -0.7146 -0.1924  0.1550
   64MOL0     C 8715   2.535   0.559   7.184 -0.4764 -0.1921 -0.2055
   64MOL0     C 8716   2.391   0.614   7.179  1.4836  0.8019 -0.1296
   64MOL0     C 8717   2.309   0.571   7.062 -0.2576  0.2800  0.4367
   64MOL0     O 8718   2.177   0.577   7.102  0.1566 -0.4746  0.0742
   64MOL0     C 8719   2.077   0.530   7.023 -0.5603 -0.2651 -0.1493
   64MOL0     C 8720   1.950   0.504   7.080  0.6321 -0.3656 -0.5386
   64MOL0     C 8721   1.835   0.463   7.006 -0.0575 -1.1571 -0.0565
   64MOL0     C 8722   1.712   0.435   7.084 -0.3224 -0.0321  0.7077
   64MOL0     C 8723   1.844   0.452   6.867 -0.3790  0.7999  0.0785
   64MOL0     C 8724   1.746   0.399   6.773 -0.2048 -0.5413  0.4105
   64MOL0     O 8725   1.789   0.338   6.655  0.5290  0.7301 -0.0696
   64MOL0     C 8726   1.698   0.309   6.553 -0.4141  0.7316 -1.0187
   64MOL0     C 8727   1.608   0.397   6.506  0.1074  0.7652 -0.4276
   64MOL0     C 8728   1.525   0.357   6.401  0.4665  0.3575  0.1911
   64MOL0     C 8729   1.531   0.226   6.347  0.2692  0.2150 -0.5501
   64MOL0     O 8730   1.445   0.202   6.240  0.1566 -0.2878 -0.9111
   64MOL0     C 8731   1.399   0.070   6.210  0.3441  0.6449 -0.3584
   64MOL0     C 8732   1.274   0.034   6.295  0.2164 -0.1663 -0.5890
   64MOL0     C 8733   1.227  -0.112   6.284 -0.1462 -0.7481  0.4012
   64MOL0     C 8734   1.123  -0.145   6.401 -0.2197 -0.1725  0.2622
   64MOL0     C 8735   1.097  -0.296   6.401 -0.1015  0.2103 -0.2938
   64MOL0     C 8736   1.030  -0.345   6.525 -0.1504  0.4955 -0.3370
   64MOL0     C 8737   1.006  -0.493   6.517 -0.1011  0.1095 -0.7283
   64MOL0     C 8738   0.884  -0.543   6.602 -0.6503 -0.3199  0.8990
   64MOL0    Cl 8739   0.911  -0.555   6.771  0.4383  0.3485 -0.6409
   64MOL0     C 8740   1.626   0.140   6.393 -0.4897  0.5548 -0.3129
   64MOL0     C 8741   1.712   0.176   6.497  1.5928  0.2259 -0.0429
   64MOL0     O 8742   1.631   0.430   6.808 -0.4013 -0.2275 -0.0767
   64MOL0     C 8743   1.972   0.479   6.803  0.4661 -0.2095 -0.5839
   64MOL0     C 8744   2.080   0.515   6.877  0.0006  0.1347 -0.5768
   64MOL0     N 8745   2.808   0.557   7.132 -0.3676  0.2946  0.6197
   64MOL0     N 8746   2.937   0.572   7.135 -0.2946  1.0537  0.7713
   64MOL0     C 8747   3.764   0.699   7.897  0.6491  0.8236  0.8186
   64MOL0     C 8748   3.716   0.655   8.024 -0.5818  0.2248 -0.0709
   64MOL0     C 8749   3.510   0.652   8.445 -0.5471  0.3648  0.2271
   64MOL0     C 8750   3.632   0.582   8.482  0.3844  0.3596 -0.1222
   64MOL0     C 8751   3.645   0.529   8.621  0.0087 -0.7857 -0.1446
   64MOL0     C 8752   3.554   0.547   8.720 -0.8070 -0.2511  0.3851
   64MOL0     O 8753   3.597   0.503   8.848  0.2661  0.0584  0.1287
   64MOL0     C 8754   3.513   0.528   8.969 -0.3774 -0.7019 -0.6734
   64MOL0     C 8755   3.383   0.440   8.972 -1.2023  0.2531 -0.2627
   64MOL0     C 8756   3.425   0.291   8.980 -0.1022 -0.1965 -0.2399
   64MOL0     C 8757   3.311   0.187   8.984  0.2643 -0.8062 -1.0751
   64MOL0     C 8758   3.213   0.236   9.087  0.5951  0.7630 -1.0643
   64MOL0     C 8759   3.138   0.279   9.174 -0.0719  0.2874 -1.3042
   64MOL0     C 8760   3.437   0.607   8.679  0.0478  0.9934 -0.3405
   64MOL0     C 8761   3.402   0.645   8.544  0.0093  0.4329 -0.4418
   64MOL0     C 8762   3.264   0.696   8.510 -0.4446 -0.2429 -0.8400
   64MOL0     H 8763   3.513   0.896   8.113 -1.0586  3.2672 -3.5952
   64MOL0     H 8764   3.548   0.959   7.883 -0.3386 -0.8127 -2.2990
   64MOL0     H 8765   3.712   0.677   7.618  0.7600 -0.0085 -0.7037
   64MOL0     H 8766   3.875   0.750   7.611  0.8005  3.4213  3.6867
   64MOL0     H 8767   3.769   0.931   7.456 -1.1853  1.0599 -4.5035
   64MOL0     H 8768   3.807   0.782   7.394  2.8432 -1.1532  3.9917
   64MOL0     H 8769   3.551   0.716   7.444 -0.8074  0.7431 -1.0864
   64MOL0     H 8770   3.526   0.879   7.494 -1.8838 -2.7693  1.2337
   64MOL0     H 8771   3.629   0.937   7.261 -2.7030  0.7997 -3.0949
   64MOL0     H 8772   3.607   0.768   7.226 -2.6248 -1.3366  0.4533
   64MOL0     H 8773   3.408   0.867   7.143 -1.8620  1.3815 -0.2063
   64MOL0     H 8774   3.382   0.961   7.291  0.6633 -0.6380  0.0280
   64MOL0     H 8775   3.383   0.653   7.244  1.8986  0.9532 -2.1702
   64MOL0     H 8776   3.337   0.727   7.394  3.0608 -4.4386 -0.7281
   64MOL0     H 8777   3.196   0.744   7.132  4.4261  0.1445  0.8517
   64MOL0     H 8778   3.149   0.852   7.271  1.1678  1.2054 -0.6431
   64MOL0     H 8779   3.164   0.548   7.286 -0.7400 -1.2685  4.6575
   64MOL0     H 8780   3.106   0.651   7.407 -2.7740  2.9619 -0.5728
   64MOL0     H 8781   2.867   0.730   7.406 -3.2635 -0.1317 -0.4759
   64MOL0     H 8782   2.604   0.726   7.308 -2.4478 -0.4006  0.0622
   64MOL0     H 8783   2.595   0.574   7.388 -1.5000 -0.1879 -0.0328
   64MOL0     H 8784   2.574   0.575   7.083  0.0197 -0.9176 -0.1368
   64MOL0     H 8785   2.531   0.451   7.199  3.0849 -0.5820 -1.2020
   64MOL0     H 8786   2.342   0.600   7.276 -0.2108  1.9822 -0.7708
   64MOL0     H 8787   2.402   0.723   7.180  2.1219  0.7515 -0.9387
   64MOL0     H 8788   2.328   0.649   6.989 -2.8304  0.7663  0.1919
   64MOL0     H 8789   2.336   0.472   7.024 -0.9397  0.4905 -0.6384
   64MOL0     H 8790   1.946   0.526   7.186  4.9751 -1.8676  0.1455
   64MOL0     H 8791   1.622   0.479   7.041 -0.5296  0.9418  2.0485
   64MOL0     H 8792   1.713   0.476   7.186 -2.3507  2.0795 -0.0378
   64MOL0     H 8793   1.694   0.329   7.068  0.5994  0.1905 -2.3538
   64MOL0     H 8794   1.614   0.495   6.553  0.6545 -0.2467  1.7295
   64MOL0     H 8795   1.453   0.429   6.363 -1.3475 -1.6884 -0.4666
   64MOL0     H 8796   1.379   0.044   6.106 -1.5566 -3.5024  0.8341
   64MOL0     H 8797   1.478   0.000   6.239  1.5269  2.2823  0.5472
   64MOL0     H 8798   1.305   0.061   6.396 -3.2373 -1.3312  0.9285
   64MOL0     H 8799   1.190   0.091   6.254 -1.0046 -2.4413 -1.4601
   64MOL0     H 8800   1.320  -0.171   6.284 -0.0317 -0.7058  3.1795
   64MOL0     H 8801   1.169  -0.137   6.195 -0.7464 -0.6592  0.7628
   64MOL0     H 8802   1.033  -0.085   6.387  1.3256  2.3394  0.3693
   64MOL0     H 8803   1.167  -0.119   6.498  2.0000 -0.4739 -0.5992
   64MOL0     H 8804   1.029  -0.294   6.316  0.3835  5.2021 -0.8857
   64MOL0     H 8805   1.187  -0.354   6.381 -0.2298 -0.6001  1.3005
   64MOL0     H 8806   0.937  -0.288   6.529  1.1906  3.0453 -2.4022
   64MOL0     H 8807   1.096  -0.330   6.611 -0.1394 -0.2399 -0.2081
   64MOL0     H 8808   1.098  -0.538   6.556  0.3665  1.7732  0.2078
   64MOL0     H 8809   0.999  -0.520   6.411 -1.3201 -2.4472 -0.0776
   64MOL0     H 8810   0.864  -0.643   6.563 -2.5244 -0.4573  2.0459
   64MOL0     H 8811   0.792  -0.485   6.587  0.1534  1.3626  2.1374
   64MOL0     H 8812   1.625   0.035   6.364 -0.3524  0.4835 -0.0690
   64MOL0     H 8813   1.799   0.116   6.521  2.0262  0.1364 -1.6891
   64MOL0     H 8814   1.993   0.458   6.699 -0.2319 -0.1095 -0.7514
   64MOL0     H 8815   2.179   0.536   6.837  0.4121  0.2409  0.4391
   64MOL0     H 8816   3.842   0.643   7.847 -1.9775 -2.2848 -0.1875
   64MOL0     H 8817   3.755   0.559   8.057 -0.3533  0.5375  0.5961
   64MOL0     H 8818   3.718   0.570   8.417 -1.0057 -0.8295 -1.8462
   64MOL0     H 8819   3.743   0.482   8.628  0.2668 -1.1724 -4.0518
   64MOL0     H 8820   3.583   0.513   9.051 -0.6804  0.8731 -0.0866
   64MOL0     H 8821   3.494   0.636   8.971  0.2444 -0.5984  1.1781
   64MOL0     H 8822   3.317   0.462   8.888 -4.1652  1.9079  2.2520
   64MOL0     H 8823   3.329   0.468   9.063 -1.1588 -2.2215  0.5998
   64MOL0     H 8824   3.493   0.275   8.896 -0.1811 -0.5044 -0.2459
   64MOL0     H 8825   3.485   0.288   9.072 -1.8246 -2.0209  0.9181
   64MOL0     H 8826   3.346   0.085   9.006 -1.5835 -0.9455  1.7228
   64MOL0     H 8827   3.270   0.170   8.884  0.1447 -2.9685 -0.7187
   64MOL0     H 8828   3.072   0.318   9.248  0.7276 -3.0147  1.3733
   64MOL0     H 8829   3.361   0.619   8.756  0.2279  0.4947 -0.0808
   64MOL0     H 8830   3.271   0.802   8.481 -1.0604 -0.8869 -3.6990
   64MOL0     H 8831   3.206   0.631   8.443 -0.4545 -2.0787  0.8672
   64MOL0     H 8832   3.197   0.704   8.596 -0.4581  4.4893 -1.0215
   65MOL0     O 8833  10.549   4.671   9.600 -0.3108  0.4361  0.2931
   65MOL0     C 8834  10.463   4.757   9.612  0.0936 -0.3930 -0.2365
   65MOL0     O 8835  10.368   4.779   9.519 -0.0737 -0.6198  0.2744
   65MOL0     C 8836  10.368   4.727   9.393  1.3847  0.5029  0.3807
   65MOL0     C 8837  10.251   4.683   9.338 -0.6277 -0.1987 -0.0168
   65MOL0     C 8838  10.248   4.618   9.211  0.3188 -0.5157 -0.8827
   65MOL0     C 8839  10.362   4.598   9.139  0.0626  0.2404 -0.2665
   65MOL0     O 8840  10.351   4.543   9.012  0.6563  0.3142  0.1621
   65MOL0     C 8841  10.450   4.575   8.914  0.3908 -0.6057 -0.4490
   65MOL0     C 8842  10.458   4.469   8.799  0.1370 -0.8374  0.5935
   65MOL0     C 8843  10.323   4.484   8.722 -0.1468 -1.0729 -0.1150
   65MOL0     C 8844  10.332   4.512   8.577 -0.6245 -0.4045 -0.4737
   65MOL0     C 8845  10.197   4.489   8.522 -1.3460  0.0773  0.2232
   65MOL0     C 8846  10.206   4.516   8.369  0.3285 -0.2482  0.9687
   65MOL0     C 8847  10.072   4.540   8.306  1.4718 -0.1194  0.4514
   65MOL0     C 8848  10.017   4.681   8.336  0.2907  0.0188  0.7120
   65MOL0     N 8849   9.885   4.686   8.270  0.1483  0.8302  0.7284
   65MOL0     C 8850   9.764   4.684   8.340 -0.6306 -0.7054  1.0626
   65MOL0     C 8851   9.671   4.676   8.250  1.0081 -0.1793 -0.4262
   65MOL0     C 8852   9.520   4.669   8.279  0.2920 -0.4522 -0.1615
   65MOL0     C 8853   9.458   4.787   8.354  0.6603  0.2528 -0.6466
   65MOL0     C 8854   9.309   4.796   8.329 -0.1806  0.0513 -0.2593
   65MOL0     C 8855   9.252   4.906   8.426 -0.1606 -0.4386  0.6862
   65MOL0     O 8856   9.316   5.035   8.392 -0.4578 -0.0582 -0.0113
   65MOL0     C 8857   9.293   5.144   8.466  0.3873  0.1352 -0.1757
   65MOL0     C 8858   9.241   5.158   8.597  1.4840  0.4629 -0.6999
   65MOL0     C 8859   9.219   5.278   8.658  0.2416 -0.4551  0.2832
   65MOL0     C 8860   9.171   5.266   8.806  0.1832  0.3714 -0.2792
   65MOL0     C 8861   9.252   5.400   8.591  0.2799 -0.7028  0.0159
   65MOL0     C 8862   9.222   5.541   8.638  0.0532 -0.3745 -0.1740
   65MOL0     O 8863   9.268   5.641   8.556 -0.5623 -0.1822  0.3955
   65MOL0     C 8864   9.187   5.758   8.539 -0.1863  0.0582 -0.2259
   65MOL0     C 8865   9.149   5.801   8.411 -0.0823  0.1479  0.0565
   65MOL0     C 8866   9.075   5.918   8.389  0.0901 -0.1360 -0.2221
   65MOL0     C 8867   9.038   6.004   8.497  0.4761  0.4043  0.5439
   65MOL0     O 8868   8.956   6.111   8.457  0.2392 -0.0923 -0.5159
   65MOL0     C 8869   8.815   6.091   8.462  0.9757  0.3723 -0.9794
   65MOL0     C 8870   8.744   6.228   8.439  0.0308 -0.8367 -0.3898
   65MOL0     C 8871   8.597   6.223   8.476  0.5197 -0.6044  0.0778
   65MOL0     C 8872   8.525   6.356   8.462 -0.3854 -0.1846 -0.8985
   65MOL0     C 8873   8.366   6.348   8.432  0.0698 -0.1941 -0.1674
   65MOL0     C 8874   8.287   6.252   8.527 -0.2715 -0.1294  0.4656
   65MOL0     C 8875   8.295   6.253   8.676 -0.0842 -0.7746  0.5319
   65MOL0     C 8876   8.249   6.399   8.733  0.4545  1.6172 -0.7125
   65MOL0    Cl 8877   8.078   6.426   8.708  0.0291 -0.6388  0.2903
   65MOL0     C 8878   9.091   5.972   8.630 -0.6637  0.1181 -0.0426
   65MOL0     C 8879   9.161   5.848   8.651  0.1992 -0.0849  0.7745
   65MOL0     O 8880   9.150   5.560   8.739  0.0074 -0.1617 -0.8006
   65MOL0     C 8881   9.335   5.387   8.473 -0.2734  0.4088  0.5662
   65MOL0     C 8882   9.345   5.261   8.411  0.4937 -0.4403  0.1663
   65MOL0     N 8883   9.719   4.651   8.128 -0.0989  0.8366 -0.7582
   65MOL0     N 8884   9.851   4.650   8.145  0.7410 -0.0583 -0.0058
   65MOL0     C 8885  10.484   4.649   9.192 -0.4100  0.2384 -0.1667
   65MOL0     C 8886  10.480   4.724   9.317 -0.2976 -0.5240  0.9022
   65MOL0     C 8887  10.437   4.830   9.739  0.5269  0.5618 -0.1937
   65MOL0     C 8888  10.387   4.959   9.739 -0.0249 -0.3174 -1.3037
   65MOL0     C 8889  10.357   5.019   9.863 -0.1728 -0.4487  0.3156
   65MOL0     C 8890  10.362   4.953   9.973  0.3544  0.0140 -0.7452
   65MOL0     O 8891  10.331   5.035  10.078  0.0624  0.9122  0.5481
   65MOL0     C 8892  10.342   4.990  10.218  0.2223 -0.8186 -0.3301
   65MOL0     C 8893  10.377   5.110  10.309  0.3651 -0.4610  0.3933
   65MOL0     C 8894  10.373   5.055  10.462 -0.0039 -0.0252  0.3551
   65MOL0     C 8895  10.301   5.162  10.548 -0.2551  0.2803 -1.4629
   65MOL0     C 8896  10.167   5.202  10.507 -1.2758  0.9182 -0.6263
   65MOL0     C 8897  10.056   5.237  10.471 -0.7982 -0.0252 -0.6029
   65MOL0     C 8898  10.415   4.824   9.978 -1.1641  0.3089  0.8143
   65MOL0     C 8899  10.452   4.756   9.867 -1.6220  0.0474  0.2733
   65MOL0     C 8900  10.527   4.618   9.872 -0.1393  0.2736  0.2957
   65MOL0     H 8901  10.157   4.691   9.393 -0.8194 -1.9887 -0.0250
   65MOL0     H 8902  10.154   4.598   9.161 -0.5545  1.2715 -0.0556
   65MOL0     H 8903  10.550   4.595   8.954 -1.1682  1.0933  2.9986
   65MOL0     H 8904  10.421   4.672   8.871  0.1779 -0.7152 -0.5547
   65MOL0     H 8905  10.540   4.491   8.730 -1.2710 -1.6647 -1.4274
   65MOL0     H 8906  10.463   4.365   8.832 -0.1500 -1.1229 -0.2375
   65MOL0     H 8907  10.274   4.388   8.744 -2.5466 -0.0521 -0.6724
   65MOL0     H 8908  10.253   4.554   8.769 -1.8388 -1.0387 -2.4978
   65MOL0     H 8909  10.366   4.613   8.555 -3.0737  1.1235  2.0829
   65MOL0     H 8910  10.411   4.443   8.545 -0.1743 -0.4587  0.6919
   65MOL0     H 8911  10.127   4.556   8.571 -2.5220 -2.0025  1.5239
   65MOL0     H 8912  10.169   4.386   8.543  2.0564 -0.8727  0.6950
   65MOL0     H 8913  10.265   4.607   8.353  1.4428 -1.2532 -0.9763
   65MOL0     H 8914  10.255   4.432   8.321 -0.1211 -0.8835  1.5978
   65MOL0     H 8915   9.992   4.474   8.341  1.8869 -1.4874 -1.0655
   65MOL0     H 8916  10.077   4.524   8.198 -1.7758  2.2240 -0.2059
   65MOL0     H 8917  10.002   4.706   8.441 -2.9177  2.6263 -0.2185
   65MOL0     H 8918  10.088   4.754   8.297 -0.8945  0.9459  0.2462
   65MOL0     H 8919   9.754   4.686   8.448 -2.0803 -0.3800  0.9440
   65MOL0     H 8920   9.496   4.584   8.345 -0.1829 -1.2415 -1.3140
   65MOL0     H 8921   9.460   4.648   8.190 -1.1441 -0.9259  0.8813
   65MOL0     H 8922   9.475   4.771   8.461  1.8830 -1.7960 -1.0849
   65MOL0     H 8923   9.490   4.887   8.322  1.5561  0.0258 -0.4739
   65MOL0     H 8924   9.286   4.818   8.224 -1.4746  4.2016  0.6848
   65MOL0     H 8925   9.261   4.700   8.349  1.5985 -0.9096 -0.3738
   65MOL0     H 8926   9.144   4.910   8.410  0.1016 -1.7339 -1.8191
   65MOL0     H 8927   9.274   4.885   8.531 -1.6586  0.4601  1.2134
   65MOL0     H 8928   9.209   5.071   8.654 -0.0157  0.5441 -1.3641
   65MOL0     H 8929   9.075   5.214   8.810 -0.5235  1.7087  0.4964
   65MOL0     H 8930   9.146   5.359   8.856 -1.2592  0.4701 -1.1182
   65MOL0     H 8931   9.247   5.220   8.870 -0.7593 -0.0328  0.5629
   65MOL0     H 8932   9.175   5.745   8.322 -1.1362 -1.7822  0.9128
   65MOL0     H 8933   9.041   5.933   8.287 -0.4316 -0.2755 -0.0752
   65MOL0     H 8934   8.790   6.019   8.383  0.2488 -0.5773  0.0869
   65MOL0     H 8935   8.800   6.046   8.560 -0.4143  0.5932 -1.0729
   65MOL0     H 8936   8.797   6.305   8.496 -1.7066 -1.2888  2.0063
   65MOL0     H 8937   8.771   6.250   8.336  5.1240  1.1978  1.0358
   65MOL0     H 8938   8.610   6.189   8.579 -2.2305 -0.3334  0.5829
   65MOL0     H 8939   8.548   6.150   8.411 -2.5605 -1.0857  2.6851
   65MOL0     H 8940   8.563   6.424   8.385  1.0491 -1.2829 -1.2148
   65MOL0     H 8941   8.542   6.406   8.557  0.8475 -0.7808 -0.7702
   65MOL0     H 8942   8.335   6.452   8.444  0.7971  0.0284 -0.1422
   65MOL0     H 8943   8.351   6.328   8.326  3.5140 -2.4832 -0.4026
   65MOL0     H 8944   8.321   6.149   8.510  0.8340 -0.0497  1.9405
   65MOL0     H 8945   8.180   6.258   8.504 -0.0715  1.5608 -0.0938
   65MOL0     H 8946   8.399   6.224   8.694  0.6150  0.7447 -0.8024
   65MOL0     H 8947   8.238   6.172   8.723 -1.2055  0.0313  0.6085
   65MOL0     H 8948   8.303   6.474   8.675 -0.5940  1.8034 -1.4735
   65MOL0     H 8949   8.266   6.414   8.840 -2.4269  1.6358 -0.1865
   65MOL0     H 8950   9.080   6.038   8.716  2.9357 -0.1753  0.8179
   65MOL0     H 8951   9.200   5.833   8.751  0.1820 -1.2238  0.6245
   65MOL0     H 8952   9.373   5.469   8.414  0.7441  0.8537  1.8024
   65MOL0     H 8953   9.412   5.245   8.327 -0.1147 -0.0235 -0.4165
   65MOL0     H 8954  10.575   4.659   9.134 -1.2048 -2.5794 -2.0886
   65MOL0     H 8955  10.566   4.771   9.363  0.7133 -2.2213  0.8371
   65MOL0     H 8956  10.377   5.015   9.647  0.8094  2.5392  0.2166
   65MOL0     H 8957  10.317   5.121   9.864 -0.5768 -0.4952 -2.5664
   65MOL0     H 8958  10.248   4.943  10.248 -0.4144 -0.1153 -1.1520
   65MOL0     H 8959  10.425   4.919  10.229  0.6871 -0.2180  0.1070
   65MOL0     H 8960  10.302   5.184  10.279  1.0644  0.6431  1.2600
   65MOL0     H 8961  10.471   5.158  10.280 -1.0844  2.2446 -0.1653
   65MOL0     H 8962  10.332   4.954  10.475  1.2780 -1.4041 -4.2459
   65MOL0     H 8963  10.474   5.035  10.500  0.0017 -1.7219 -0.4412
   65MOL0     H 8964  10.353   5.257  10.562 -2.3843  1.2776  0.3063
   65MOL0     H 8965  10.298   5.122  10.650 -1.7781  1.2590 -1.0784
   65MOL0     H 8966   9.958   5.251  10.429 -2.2410 -4.5840  0.6216
   65MOL0     H 8967  10.456   4.788  10.071  1.6951  3.3577  0.9374
   65MOL0     H 8968  10.626   4.623   9.826 -0.4587  0.2412 -0.4231
   65MOL0     H 8969  10.531   4.575   9.972 -4.2290 -0.0013  0.5167
   65MOL0     H 8970  10.458   4.549   9.821  2.3018 -2.1931  0.1264
   66MOL0     O 8971   7.477   7.098   7.657 -0.0575  1.3957  0.8496
   66MOL0     C 8972   7.595   7.069   7.616  0.4126 -0.3414  0.1203
   66MOL0     O 8973   7.649   6.949   7.584  0.9103  0.5719 -0.0818
   66MOL0     C 8974   7.562   6.842   7.572 -1.0958 -0.4507 -0.2659
   66MOL0     C 8975   7.482   6.800   7.674  0.0906 -0.7370 -0.1962
   66MOL0     C 8976   7.393   6.694   7.646  0.1414  0.1108  0.4142
   66MOL0     C 8977   7.369   6.634   7.523 -0.5685 -0.2582 -0.4761
   66MOL0     O 8978   7.278   6.536   7.508  0.5026 -0.8850 -0.7341
   66MOL0     C 8979   7.233   6.484   7.387  0.4932  0.9803  0.3817
   66MOL0     C 8980   7.119   6.384   7.439  0.3005 -0.3723 -0.7988
   66MOL0     C 8981   7.048   6.288   7.335 -0.2408  0.5195 -0.4804
   66MOL0     C 8982   6.918   6.333   7.273  0.2182 -0.0557  0.7394
   66MOL0     C 8983   6.795   6.271   7.354 -0.1793 -0.4360 -0.2423
   66MOL0     C 8984   6.776   6.127   7.324  0.6756  0.3178 -0.9893
   66MOL0     C 8985   6.641   6.073   7.374 -0.8761  0.7890  0.4742
   66MOL0     C 8986   6.636   6.041   7.525 -0.4289 -0.9309  0.3405
   66MOL0     N 8987   6.508   5.975   7.564 -0.1175 -0.4912  0.2396
   66MOL0     C 8988   6.386   6.032   7.572  1.4715 -0.0863 -0.2690
   66MOL0     C 8989   6.294   5.929   7.578 -1.1007 -0.1734 -0.4027
   66MOL0     C 8990   6.146   5.921   7.598  0.1277  0.1526 -0.0243
   66MOL0     C 8991   6.067   6.042   7.550  0.0478 -0.7115 -0.2451
   66MOL0     C 8992   5.913   6.007   7.570 -0.2710 -0.1008  0.2428
   66MOL0     C 8993   5.829   6.127   7.551 -0.3750 -0.4601 -0.0337
   66MOL0     O 8994   5.710   6.108   7.623  0.3235 -0.5704  1.1339
   66MOL0     C 8995   5.607   6.198   7.620  0.0599  0.5822  0.6376
   66MOL0     C 8996   5.486   6.154   7.674 -0.1964 -0.2300 -0.7947
   66MOL0     C 8997   5.366   6.236   7.671 -0.5635 -0.7395 -0.1908
   66MOL0     C 8998   5.238   6.168   7.718  0.0614 -1.0320  0.3235
   66MOL0     C 8999   5.372   6.369   7.619  0.0358  0.0827  0.6182
   66MOL0     C 9000   5.250   6.471   7.627 -0.9302  0.1869 -0.5141
   66MOL0     O 9001   5.127   6.404   7.625  0.4447 -0.0673 -0.1279
   66MOL0     C 9002   5.011   6.476   7.611 -1.1049  0.7802  1.0737
   66MOL0     C 9003   4.990   6.580   7.509  0.1989  0.3749 -1.0317
   66MOL0     C 9004   4.873   6.644   7.500 -0.0789 -0.2079  0.1767
   66MOL0     C 9005   4.757   6.603   7.565  0.3979 -0.6949 -0.4011
   66MOL0     O 9006   4.634   6.663   7.559 -0.1290  0.3414 -0.0333
   66MOL0     C 9007   4.585   6.754   7.453 -0.5435 -0.6327 -0.0159
   66MOL0     C 9008   4.544   6.680   7.329 -0.0191 -0.1205  0.0526
   66MOL0     C 9009   4.591   6.756   7.210 -0.1526 -0.1000 -0.0565
   66MOL0     C 9010   4.560   6.678   7.082  0.3195  1.1207 -0.3149
   66MOL0     C 9011   4.640   6.535   7.070  0.2344 -0.1432  1.6630
   66MOL0     C 9012   4.606   6.477   6.927  0.2301 -0.2955  0.2007
   66MOL0     C 9013   4.455   6.437   6.916 -0.4748  0.0726  0.0314
   66MOL0     C 9014   4.428   6.357   6.785 -0.4837  0.9577  0.0443
   66MOL0    Cl 9015   4.415   6.484   6.649  0.0742  0.4800  0.0248
   66MOL0     C 9016   4.769   6.507   7.664 -0.0282 -0.5748  0.6595
   66MOL0     C 9017   4.897   6.446   7.683 -0.0182  0.9822 -0.1802
   66MOL0     O 9018   5.267   6.590   7.596 -1.0109  0.3443  0.9646
   66MOL0     C 9019   5.499   6.416   7.576  0.3901 -0.1366  1.0068
   66MOL0     C 9020   5.612   6.332   7.573  0.1496 -0.3823 -0.4790
   66MOL0     N 9021   6.365   5.810   7.565 -0.3041 -0.3235 -0.4631
   66MOL0     N 9022   6.490   5.842   7.562 -0.0498  0.3660 -0.5851
   66MOL0     C 9023   7.442   6.691   7.418  0.7478 -0.2414  1.1594
   66MOL0     C 9024   7.527   6.792   7.439 -0.3694 -0.8892  0.9890
   66MOL0     C 9025   7.676   7.190   7.597  0.2361  0.7707 -0.0639
   66MOL0     C 9026   7.815   7.169   7.591 -0.7458  0.4214  1.0915
   66MOL0     C 9027   7.897   7.278   7.569 -0.0338 -1.1049 -0.6244
   66MOL0     C 9028   7.848   7.401   7.574  0.1838 -0.5796 -0.1605
   66MOL0     O 9029   7.936   7.501   7.564  0.1183 -0.2808 -0.7466
   66MOL0     C 9030   7.941   7.571   7.442  0.0517  0.0212  0.1728
   66MOL0     C 9031   8.030   7.694   7.438  0.1140 -0.5074 -0.2416
   66MOL0     C 9032   8.001   7.800   7.543 -0.4508 -1.1735 -0.3462
   66MOL0     C 9033   8.100   7.917   7.546  0.3521 -0.6771  0.5778
   66MOL0     C 9034   8.080   8.007   7.432 -0.2773 -0.3126  1.0930
   66MOL0     C 9035   8.070   8.078   7.332  0.5437 -0.6194 -0.3645
   66MOL0     C 9036   7.710   7.425   7.584  0.5458 -0.2676  0.6851
   66MOL0     C 9037   7.620   7.325   7.584 -0.0020  0.6379 -0.8165
   66MOL0     C 9038   7.473   7.367   7.583 -0.1862 -0.4821  0.0441
   66MOL0     H 9039   7.469   6.854   7.767 -1.5573 -0.2144 -0.6960
   66MOL0     H 9040   7.332   6.649   7.724  0.9309 -2.9082 -0.5596
   66MOL0     H 9041   7.304   6.427   7.327  0.8422  0.7791  0.9847
   66MOL0     H 9042   7.182   6.561   7.327  1.5694  1.4193 -0.0050
   66MOL0     H 9043   7.188   6.326   7.500  2.1815 -0.8428 -3.2305
   66MOL0     H 9044   7.039   6.439   7.489 -0.5109 -4.5402  3.1327
   66MOL0     H 9045   7.116   6.272   7.251 -2.9407  0.2851 -2.7557
   66MOL0     H 9046   7.030   6.193   7.387 -3.7314  1.1917 -0.1841
   66MOL0     H 9047   6.907   6.442   7.270  0.1025 -0.0726  0.5413
   66MOL0     H 9048   6.923   6.299   7.170 -0.2594  2.5317 -0.2112
   66MOL0     H 9049   6.706   6.324   7.318  0.1742  1.1070  0.9961
   66MOL0     H 9050   6.801   6.303   7.459 -4.7676 -0.6838  0.3228
   66MOL0     H 9051   6.793   6.093   7.221 -2.6225 -0.5994 -1.3522
   66MOL0     H 9052   6.844   6.059   7.377 -1.2710 -1.6193 -0.8549
   66MOL0     H 9053   6.625   5.974   7.330  2.0570 -0.1435  1.2651
   66MOL0     H 9054   6.559   6.139   7.345 -1.5156 -0.1958 -0.0121
   66MOL0     H 9055   6.726   5.979   7.528  1.3105  1.4555  0.5540
   66MOL0     H 9056   6.660   6.126   7.589 -0.6031  0.2804 -1.1378
   66MOL0     H 9057   6.370   6.137   7.592 -0.8125 -0.1890 -1.2986
   66MOL0     H 9058   6.136   5.907   7.706  0.2156 -0.2885 -0.0710
   66MOL0     H 9059   6.106   5.834   7.545  2.4991 -0.5683 -0.7141
   66MOL0     H 9060   6.089   6.126   7.616 -2.2623  0.4900 -0.8997
   66MOL0     H 9061   6.102   6.070   7.451  2.9203 -3.5814 -0.2071
   66MOL0     H 9062   5.884   5.921   7.510  1.0145 -0.1592 -0.3060
   66MOL0     H 9063   5.886   5.975   7.671 -1.3908 -0.5291 -0.1732
   66MOL0     H 9064   5.874   6.220   7.586 -0.8887  0.9078 -2.6934
   66MOL0     H 9065   5.823   6.146   7.443 -2.3091  0.8285  0.2685
   66MOL0     H 9066   5.476   6.054   7.713  1.6973 -0.4411 -0.7535
   66MOL0     H 9067   5.183   6.119   7.637 -1.8052  0.5506  0.5448
   66MOL0     H 9068   5.177   6.244   7.767 -0.7065 -1.1729 -0.3952
   66MOL0     H 9069   5.256   6.099   7.800  2.0287  1.4006  2.0908
   66MOL0     H 9070   5.075   6.622   7.457 -0.5410  0.8581 -1.8704
   66MOL0     H 9071   4.851   6.716   7.422 -1.4344 -1.9816 -1.1909
   66MOL0     H 9072   4.498   6.805   7.495  0.8760  0.7833  1.3687
   66MOL0     H 9073   4.652   6.839   7.438 -2.0960  0.9810  1.7173
   66MOL0     H 9074   4.590   6.581   7.327  2.4298  0.9624 -0.2143
   66MOL0     H 9075   4.438   6.651   7.330 -1.0304  3.0253  2.6024
   66MOL0     H 9076   4.700   6.763   7.224 -0.3838 -0.0533  2.1587
   66MOL0     H 9077   4.551   6.857   7.198 -0.0136 -0.2470 -2.1342
   66MOL0     H 9078   4.576   6.731   6.988  0.2685  0.8801 -0.4600
   66MOL0     H 9079   4.453   6.664   7.094  0.1449  2.8906  0.4228
   66MOL0     H 9080   4.747   6.557   7.067  0.2099  0.0281 -1.7146
   66MOL0     H 9081   4.614   6.463   7.148 -0.8434  0.8118  2.2099
   66MOL0     H 9082   4.664   6.385   6.917 -1.7731 -1.4142 -7.0935
   66MOL0     H 9083   4.635   6.546   6.848  0.1665  1.5489  1.7087
   66MOL0     H 9084   4.389   6.524   6.914 -0.3573  0.1643  0.1650
   66MOL0     H 9085   4.428   6.367   6.996 -2.6656  1.5414  0.6689
   66MOL0     H 9086   4.338   6.298   6.802 -0.7456  1.0596 -0.9169
   66MOL0     H 9087   4.515   6.291   6.780 -2.5732 -1.8506 -1.5169
   66MOL0     H 9088   4.680   6.462   7.709  0.5947 -1.9856  0.5417
   66MOL0     H 9089   4.906   6.373   7.763  2.4015  2.6966  1.2172
   66MOL0     H 9090   5.519   6.512   7.530 -0.3033 -0.4711 -0.0353
   66MOL0     H 9091   5.701   6.376   7.528 -0.8102  2.0967 -0.1490
   66MOL0     H 9092   7.410   6.663   7.318 -1.1008  0.2882  1.5557
   66MOL0     H 9093   7.576   6.831   7.350 -1.1131 -1.3081  0.3872
   66MOL0     H 9094   7.867   7.074   7.595 -0.3210  0.4890 -1.2259
   66MOL0     H 9095   8.005   7.269   7.561  0.0951  0.5426 -1.1582
   66MOL0     H 9096   7.957   7.497   7.362 -1.8472 -1.3215  0.9721
   66MOL0     H 9097   7.837   7.605   7.436  0.0419 -0.2396 -1.6909
   66MOL0     H 9098   8.015   7.745   7.342 -3.5309  0.1103  0.5032
   66MOL0     H 9099   8.137   7.671   7.443  0.0692 -2.1785 -3.7968
   66MOL0     H 9100   7.898   7.836   7.543 -0.8553 -2.3088  0.1753
   66MOL0     H 9101   8.006   7.743   7.636 -0.4617 -0.5022  0.0740
   66MOL0     H 9102   8.204   7.886   7.546 -0.3350 -3.1592  1.3548
   66MOL0     H 9103   8.093   7.978   7.637 -0.8931  0.2821 -0.1111
   66MOL0     H 9104   8.055   8.159   7.264  0.6877  0.6783  1.0838
   66MOL0     H 9105   7.670   7.526   7.578  1.3993  0.0158 -0.6396
   66MOL0     H 9106   7.412   7.304   7.518 -0.2439 -2.3491  1.7957
   66MOL0     H 9107   7.431   7.366   7.684 -1.9343  2.0258 -0.5598
   66MOL0     H 9108   7.457   7.470   7.550 -1.1703 -0.0378  1.7832
   67MOL0     O 9109   9.145   5.528   1.721  0.1514  0.4074 -0.0872
   67MOL0     C 9110   9.172   5.423   1.774  0.2763  0.6402  0.6347
   67MOL0     O 9111   9.287   5.399   1.846 -0.2484 -1.0682  0.1170
   67MOL0     C 9112   9.347   5.508   1.900 -0.7109 -0.0873 -0.0228
   67MOL0     C 9113   9.469   5.562   1.849 -1.0202 -0.2088 -0.3303
   67MOL0     C 9114   9.529   5.669   1.908 -0.3346  0.3952  0.5029
   67MOL0     C 9115   9.477   5.731   2.018 -0.1746  0.5043  0.7754
   67MOL0     O 9116   9.541   5.822   2.101  0.5955  0.0691  0.3878
   67MOL0     C 9117   9.682   5.780   2.118 -0.1786 -0.0911  1.3303
   67MOL0     C 9118   9.739   5.845   2.238  0.1649 -0.6590  0.6228
   67MOL0     C 9119   9.738   5.998   2.259  0.1847 -1.6070  0.1861
   67MOL0     C 9120   9.805   6.028   2.384 -0.1039 -1.2745  1.1233
   67MOL0     C 9121   9.777   6.173   2.442 -1.5731 -0.3870  0.0641
   67MOL0     C 9122   9.828   6.184   2.589 -0.3043 -0.0272 -0.3324
   67MOL0     C 9123   9.740   6.134   2.701 -0.5056 -0.0443 -0.2071
   67MOL0     C 9124   9.625   6.241   2.736 -0.0048  0.3362  0.7649
   67MOL0     N 9125   9.656   6.361   2.810 -0.0632  0.1302 -0.2216
   67MOL0     C 9126   9.609   6.389   2.934  0.2577  1.1267 -0.6145
   67MOL0     C 9127   9.646   6.515   2.960 -0.2294 -0.5880 -0.7731
   67MOL0     C 9128   9.639   6.593   3.090  0.1203 -0.1590  0.0998
   67MOL0     C 9129   9.762   6.684   3.111 -0.2930 -0.8131 -0.4740
   67MOL0     C 9130   9.886   6.610   3.112  0.3165  0.2863 -0.7996
   67MOL0     C 9131  10.001   6.678   3.176 -0.8097  0.1965  0.3756
   67MOL0     O 9132  10.118   6.600   3.143  0.0803 -0.3330 -0.2627
   67MOL0     C 9133  10.251   6.636   3.178  1.7886  0.2994 -0.8195
   67MOL0     C 9134  10.280   6.742   3.261 -0.2780  0.0590  1.2947
   67MOL0     C 9135  10.412   6.786   3.266 -0.4378  0.4391 -0.1434
   67MOL0     C 9136  10.438   6.925   3.319  0.7496  0.8364 -1.4923
   67MOL0     C 9137  10.520   6.702   3.220  0.9870 -0.2708  0.0115
   67MOL0     C 9138  10.664   6.739   3.242 -0.2146 -0.3876  0.9249
   67MOL0     O 9139  10.744   6.708   3.137 -0.3322  0.4718  0.3301
   67MOL0     C 9140  10.879   6.697   3.173 -0.0632 -0.0143  0.4030
   67MOL0     C 9141  10.937   6.565   3.164  1.1607  0.1215  0.1685
   67MOL0     C 9142  11.068   6.536   3.196 -1.1577 -0.2334 -0.5469
   67MOL0     C 9143  11.146   6.634   3.261  0.1713  0.0894 -0.1276
   67MOL0     O 9144  11.272   6.607   3.306 -0.2581  0.2604 -0.1786
   67MOL0     C 9145  11.265   6.546   3.436  0.8600 -0.8946 -0.7801
   67MOL0     C 9146  11.334   6.638   3.535  0.6257  0.7812 -0.2615
   67MOL0     C 9147  11.481   6.650   3.496  0.3101  0.7331  1.0735
   67MOL0     C 9148  11.552   6.741   3.596 -1.0389  0.8111  0.3438
   67MOL0     C 9149  11.686   6.780   3.548 -0.7724  0.8575  0.0045
   67MOL0     C 9150  11.761   6.841   3.670  0.0882 -0.0635 -0.0658
   67MOL0     C 9151  11.903   6.896   3.650 -0.4245 -0.3578 -0.4468
   67MOL0     C 9152  11.903   7.007   3.548  0.9061  0.1380 -0.2560
   67MOL0    Cl 9153  12.063   7.053   3.516  0.2617 -0.6663  0.1174
   67MOL0     C 9154  11.097   6.764   3.262  0.3442 -0.3536  0.1096
   67MOL0     C 9155  10.964   6.799   3.216  1.0938  0.7183  0.6230
   67MOL0     O 9156  10.704   6.774   3.354  0.0745  0.0422  0.5386
   67MOL0     C 9157  10.485   6.594   3.138 -0.1289  0.6729 -0.9230
   67MOL0     C 9158  10.355   6.559   3.118  1.1493  0.2243  0.0232
   67MOL0     N 9159   9.705   6.565   2.846  0.3565  0.5172  0.5130
   67MOL0     N 9160   9.727   6.470   2.766  0.0759  0.5489  0.5248
   67MOL0     C 9161   9.354   5.677   2.063  1.0224 -1.0422  0.3117
   67MOL0     C 9162   9.286   5.585   1.995 -0.2902  0.3296  0.2110
   67MOL0     C 9163   9.074   5.311   1.740 -0.0073  0.1481 -1.1363
   67MOL0     C 9164   8.974   5.336   1.646 -0.3309 -0.1107 -0.3551
   67MOL0     C 9165   8.880   5.237   1.626 -0.1914  0.0005  0.4737
   67MOL0     C 9166   8.871   5.122   1.693  0.2043  0.1172  0.2067
   67MOL0     O 9167   8.775   5.032   1.661 -0.2953 -0.4080  0.5472
   67MOL0     C 9168   8.650   5.059   1.720 -0.0142  0.2491 -0.1078
   67MOL0     C 9169   8.659   5.030   1.872 -1.1536  0.1394  0.0144
   67MOL0     C 9170   8.677   4.881   1.892 -0.1022  0.0924  0.1355
   67MOL0     C 9171   8.730   4.838   2.033 -0.1778 -0.4934 -0.1263
   67MOL0     C 9172   8.650   4.864   2.151 -0.7990  0.9853 -0.0893
   67MOL0     C 9173   8.567   4.902   2.233  0.2242 -0.2615  0.3221
   67MOL0     C 9174   8.978   5.085   1.772  0.5734  1.4416  1.2112
   67MOL0     C 9175   9.068   5.179   1.808 -0.8956  0.5545 -0.0431
   67MOL0     C 9176   9.169   5.132   1.915 -0.4278 -0.4371 -0.3394
   67MOL0     H 9177   9.515   5.516   1.762  2.2414 -0.3403  1.3107
   67MOL0     H 9178   9.627   5.692   1.868 -1.1850 -0.0123 -1.9768
   67MOL0     H 9179   9.734   5.808   2.026 -4.2278 -1.4487 -1.6375
   67MOL0     H 9180   9.696   5.675   2.145  1.8733  0.3903  2.3223
   67MOL0     H 9181   9.679   5.799   2.317 -1.6608  1.5921  0.6755
   67MOL0     H 9182   9.846   5.825   2.244  0.3223  0.5194  2.4972
   67MOL0     H 9183   9.791   6.048   2.178  3.4876  0.6171  3.4034
   67MOL0     H 9184   9.635   6.034   2.269 -0.8019 -3.7594 -1.3491
   67MOL0     H 9185   9.754   5.962   2.455 -2.4348  0.4125  1.1253
   67MOL0     H 9186   9.911   6.009   2.366  0.7888  0.5654  3.9427
   67MOL0     H 9187   9.669   6.186   2.454 -1.3191  1.3431  0.7716
   67MOL0     H 9188   9.820   6.247   2.374 -1.5141  0.1537  0.6793
   67MOL0     H 9189   9.926   6.136   2.599 -0.1531  0.5868  1.3774
   67MOL0     H 9190   9.833   6.290   2.615 -1.2690  0.4238 -1.8181
   67MOL0     H 9191   9.810   6.119   2.783  1.2513 -0.7550 -1.7806
   67MOL0     H 9192   9.690   6.042   2.670 -2.2765 -0.7629  4.1088
   67MOL0     H 9193   9.578   6.269   2.641  0.4698 -1.0002  0.0965
   67MOL0     H 9194   9.543   6.193   2.791 -0.2115 -1.3308 -0.8893
   67MOL0     H 9195   9.564   6.320   3.004  1.0690  0.3913 -0.8028
   67MOL0     H 9196   9.615   6.525   3.172 -2.3436 -1.0444 -1.2681
   67MOL0     H 9197   9.555   6.660   3.070  1.6743  0.7322 -4.5724
   67MOL0     H 9198   9.774   6.766   3.040  2.7880 -0.1984  0.6381
   67MOL0     H 9199   9.760   6.725   3.212  2.1796 -1.8573  0.0542
   67MOL0     H 9200   9.872   6.513   3.160  1.2092  0.2614 -0.5628
   67MOL0     H 9201   9.914   6.582   3.010 -3.3627 -1.2492 -1.5158
   67MOL0     H 9202  10.014   6.781   3.142  1.8081 -0.5805 -1.2824
   67MOL0     H 9203   9.983   6.688   3.284  0.1421  3.3323  0.3346
   67MOL0     H 9204  10.199   6.807   3.293 -1.3076 -0.0123 -0.9232
   67MOL0     H 9205  10.345   6.980   3.337 -1.5676 -3.0256 -0.5384
   67MOL0     H 9206  10.517   6.972   3.260  2.5623 -1.6325 -1.1827
   67MOL0     H 9207  10.483   6.902   3.416 -2.0278 -4.3317 -1.0810
   67MOL0     H 9208  10.873   6.487   3.124  0.1460  1.6777 -1.3838
   67MOL0     H 9209  11.101   6.433   3.193  2.1386  0.7288 -0.7478
   67MOL0     H 9210  11.162   6.522   3.461  0.6846 -1.7978 -2.2104
   67MOL0     H 9211  11.317   6.451   3.448 -1.1474 -1.9365 -0.0324
   67MOL0     H 9212  11.279   6.732   3.538 -1.4108 -0.3692  0.0173
   67MOL0     H 9213  11.309   6.588   3.628  1.5908 -2.0700 -1.4128
   67MOL0     H 9214  11.496   6.695   3.397  3.7084 -0.1198  1.0877
   67MOL0     H 9215  11.529   6.552   3.490 -3.0469 -0.9588 -0.7076
   67MOL0     H 9216  11.566   6.698   3.696 -1.2383 -0.3667 -0.1132
   67MOL0     H 9217  11.496   6.835   3.603 -0.2741  1.3637 -0.7306
   67MOL0     H 9218  11.740   6.689   3.520  1.6445  2.3878 -0.6841
   67MOL0     H 9219  11.673   6.841   3.458 -1.0078 -0.1167 -0.6292
   67MOL0     H 9220  11.750   6.770   3.752 -0.8632 -2.3077 -2.0185
   67MOL0     H 9221  11.703   6.929   3.699 -1.0232  0.3452 -3.1787
   67MOL0     H 9222  11.970   6.814   3.623 -1.2815 -3.2019  4.8151
   67MOL0     H 9223  11.942   6.933   3.745 -0.5976 -2.6068  0.5625
   67MOL0     H 9224  11.854   7.098   3.584 -0.0234 -0.7217  0.7307
   67MOL0     H 9225  11.847   6.971   3.461 -4.3868  2.0471  1.9296
   67MOL0     H 9226  11.164   6.846   3.287 -0.2288 -0.3745  1.8146
   67MOL0     H 9227  10.926   6.900   3.227 -0.6252  0.0080  1.5045
   67MOL0     H 9228  10.565   6.543   3.085  1.5458  2.6618 -0.4367
   67MOL0     H 9229  10.338   6.479   3.046 -1.2962  0.8774 -0.1871
   67MOL0     H 9230   9.285   5.722   2.133 -2.0748 -1.1930 -2.3684
   67MOL0     H 9231   9.183   5.565   2.022 -0.0760  0.4773  1.1789
   67MOL0     H 9232   8.973   5.421   1.579 -0.2554  2.7219  2.9969
   67MOL0     H 9233   8.817   5.264   1.541  2.0308 -0.4598 -1.4261
   67MOL0     H 9234   8.626   5.165   1.709  1.5949  0.6749  0.2745
   67MOL0     H 9235   8.568   5.000   1.677  1.8110 -2.6768  0.1378
   67MOL0     H 9236   8.570   5.070   1.920 -1.7087 -0.5922 -0.3865
   67MOL0     H 9237   8.751   5.078   1.907 -0.8965 -1.6453  1.9292
   67MOL0     H 9238   8.579   4.840   1.867 -0.8000  0.9515  1.3416
   67MOL0     H 9239   8.752   4.839   1.824 -0.4779 -2.3003  1.1061
   67MOL0     H 9240   8.827   4.889   2.033 -0.8297  0.7979  0.2431
   67MOL0     H 9241   8.746   4.731   2.043  0.0084 -0.5355 -0.8267
   67MOL0     H 9242   8.502   4.948   2.303  0.0014  2.2751 -1.4233
   67MOL0     H 9243   8.987   4.997   1.835  3.4391  1.3575  0.8233
   67MOL0     H 9244   9.198   5.213   1.982 -1.2985 -1.8237  1.8319
   67MOL0     H 9245   9.145   5.045   1.977  1.6150  0.5677  2.0550
   67MOL0     H 9246   9.258   5.099   1.860  0.7708  1.9798  0.0011
   68MOL0     O 9247   3.525   1.351   6.171  0.6954 -0.8607 -0.4051
   68MOL0     C 9248   3.575   1.320   6.275  0.1716  0.9002  0.1133
   68MOL0     O 9249   3.587   1.190   6.317 -0.0269 -0.2975  0.8589
   68MOL0     C 9250   3.542   1.091   6.239 -0.7072 -0.6910 -1.3392
   68MOL0     C 9251   3.545   1.076   6.100  0.3897  0.9744  0.4734
   68MOL0     C 9252   3.485   0.960   6.041 -0.6331 -0.2919 -0.4350
   68MOL0     C 9253   3.447   0.855   6.121 -0.3074 -0.2501 -0.9796
   68MOL0     O 9254   3.416   0.731   6.077 -0.1095 -0.5253  0.3228
   68MOL0     C 9255   3.323   0.714   5.964  0.6130 -0.0217 -0.2030
   68MOL0     C 9256   3.323   0.566   5.909  0.0675 -0.5382 -0.1449
   68MOL0     C 9257   3.457   0.550   5.835  1.0506  0.5514 -0.3000
   68MOL0     C 9258   3.465   0.411   5.775  0.0720  0.5933  0.5199
   68MOL0     C 9259   3.613   0.379   5.746  0.5767  0.0981  0.5001
   68MOL0     C 9260   3.629   0.238   5.680  0.9941  0.5629 -0.1802
   68MOL0     C 9261   3.769   0.190   5.635  0.1846  0.6145 -0.2107
   68MOL0     C 9262   3.820   0.281   5.531 -0.2433  0.0504 -1.0224
   68MOL0     N 9263   3.957   0.250   5.502  0.5461  0.6062 -0.6351
   68MOL0     C 9264   3.996   0.141   5.426  1.1677 -0.1237 -0.5558
   68MOL0     C 9265   4.134   0.135   5.436  1.3883  0.5036  0.0018
   68MOL0     C 9266   4.215   0.024   5.374  0.0231  1.0023  1.4772
   68MOL0     C 9267   4.213  -0.120   5.440  0.2062 -0.4761  0.0405
   68MOL0     C 9268   4.084  -0.194   5.451  0.6454 -0.1036 -0.4736
   68MOL0     C 9269   4.018  -0.238   5.319 -0.2609 -0.6975 -1.5605
   68MOL0     O 9270   4.117  -0.303   5.244 -0.8114 -0.0991  0.1065
   68MOL0     C 9271   4.096  -0.331   5.109  0.7683  0.8407 -0.3703
   68MOL0     C 9272   3.989  -0.294   5.032  0.0721  0.4469  0.3078
   68MOL0     C 9273   3.991  -0.314   4.893  0.1900  0.3653  0.0035
   68MOL0     C 9274   3.866  -0.265   4.832 -0.5851 -0.5319  0.3716
   68MOL0     C 9275   4.110  -0.376   4.838  0.0680  0.1151 -0.7638
   68MOL0     C 9276   4.134  -0.382   4.691  0.3936 -0.2591  0.3895
   68MOL0     O 9277   4.112  -0.266   4.621 -0.5616  0.5486  0.5105
   68MOL0     C 9278   4.149  -0.253   4.494  0.7900 -0.8434  0.4321
   68MOL0     C 9279   4.280  -0.245   4.462  0.4869  0.1867  0.3504
   68MOL0     C 9280   4.322  -0.192   4.334  0.6154  1.4989  0.0030
   68MOL0     C 9281   4.227  -0.166   4.243  0.2429 -0.8024  0.5781
   68MOL0     O 9282   4.269  -0.110   4.119  0.1339 -0.5051 -0.0495
   68MOL0     C 9283   4.404  -0.107   4.088 -0.5415 -0.6090  1.4152
   68MOL0     C 9284   4.444  -0.075   3.941  0.1296  0.0431 -0.2099
   68MOL0     C 9285   4.354  -0.129   3.831 -0.1277  0.7212 -0.4246
   68MOL0     C 9286   4.385  -0.098   3.684 -1.1713 -0.2853  0.2270
   68MOL0     C 9287   4.323   0.033   3.624  0.1451  0.2004  0.4246
   68MOL0     C 9288   4.377   0.068   3.479 -0.4930  0.3703  0.2726
   68MOL0     C 9289   4.317   0.200   3.435 -0.4707 -0.2198  0.2205
   68MOL0     C 9290   4.356   0.241   3.285 -0.3652 -0.7633  0.7860
   68MOL0    Cl 9291   4.315   0.131   3.153  0.0232  0.0628 -0.4517
   68MOL0     C 9292   4.089  -0.196   4.272  0.3834  0.5551  1.3373
   68MOL0     C 9293   4.051  -0.238   4.396 -0.2513  0.8472  0.2881
   68MOL0     O 9294   4.199  -0.484   4.656  0.4871  0.5291  0.1169
   68MOL0     C 9295   4.209  -0.423   4.924  0.0694 -0.1880  0.6252
   68MOL0     C 9296   4.205  -0.401   5.058 -0.1381  0.1171  0.6951
   68MOL0     N 9297   4.176   0.235   5.520 -0.0299  0.1538 -0.3951
   68MOL0     N 9298   4.071   0.300   5.555 -0.0524 -0.2626  0.1964
   68MOL0     C 9299   3.456   0.870   6.257  0.3683  0.4694 -0.2681
   68MOL0     C 9300   3.503   0.982   6.320 -0.0805 -0.1771 -0.6081
   68MOL0     C 9301   3.609   1.430   6.368  0.2690  0.0544  1.0379
   68MOL0     C 9302   3.654   1.552   6.311  0.1415  0.1537  0.9804
   68MOL0     C 9303   3.690   1.661   6.392  0.1493 -0.0835  0.1986
   68MOL0     C 9304   3.703   1.640   6.528  0.6766  0.2313  0.6697
   68MOL0     O 9305   3.754   1.733   6.607 -0.8827 -0.6650  0.0206
   68MOL0     C 9306   3.744   1.870   6.566 -0.2341  0.9965 -0.8009
   68MOL0     C 9307   3.760   1.951   6.699 -0.1870 -0.4316  0.1219
   68MOL0     C 9308   3.903   1.936   6.758 -0.2963 -0.2116 -0.5180
   68MOL0     C 9309   3.997   2.019   6.675  0.4536 -0.2087  0.2188
   68MOL0     C 9310   3.974   2.164   6.658  0.8421 -1.4722  0.5304
   68MOL0     C 9311   3.971   2.286   6.647 -0.1966 -0.0775  0.5076
   68MOL0     C 9312   3.684   1.513   6.583 -0.1871 -0.3008  0.0553
   68MOL0     C 9313   3.634   1.410   6.504  0.3425 -0.4758 -0.9213
   68MOL0     C 9314   3.590   1.294   6.583  0.1517  0.2609  0.4476
   68MOL0     H 9315   3.593   1.151   6.039  2.1535 -1.2724 -1.0936
   68MOL0     H 9316   3.482   0.955   5.933 -4.4659  0.8759 -0.5082
   68MOL0     H 9317   3.324   0.792   5.887  1.2955  0.8692  0.6765
   68MOL0     H 9318   3.228   0.716   6.019  1.7862 -0.1134  1.9606
   68MOL0     H 9319   3.320   0.501   5.997 -3.5055 -1.9410 -1.1206
   68MOL0     H 9320   3.237   0.542   5.845 -1.1651  3.4154 -0.2282
   68MOL0     H 9321   3.448   0.627   5.758  0.7599  1.4190  0.5704
   68MOL0     H 9322   3.535   0.565   5.910  1.2867  3.2432 -0.9570
   68MOL0     H 9323   3.428   0.331   5.841 -0.2738 -0.9417 -1.4302
   68MOL0     H 9324   3.398   0.407   5.689  1.8854 -0.2074 -0.9196
   68MOL0     H 9325   3.656   0.379   5.846 -0.4766  1.1147  0.9730
   68MOL0     H 9326   3.658   0.450   5.675  0.2313 -0.9196 -0.7822
   68MOL0     H 9327   3.599   0.160   5.752  0.1108 -1.6781 -2.7882
   68MOL0     H 9328   3.562   0.242   5.594  0.1119  2.7139  0.5449
   68MOL0     H 9329   3.761   0.094   5.583 -1.7339  0.2369  0.7073
   68MOL0     H 9330   3.826   0.179   5.728  2.1342  3.9033 -0.8754
   68MOL0     H 9331   3.757   0.268   5.442 -3.0241 -0.8402  0.9097
   68MOL0     H 9332   3.811   0.384   5.565 -1.7432 -0.1627 -0.7003
   68MOL0     H 9333   3.941   0.079   5.355  2.2239 -1.9386  0.1566
   68MOL0     H 9334   4.321   0.043   5.390  0.3792 -0.5946  1.1977
   68MOL0     H 9335   4.184   0.007   5.271 -3.3699 -2.4235  2.8347
   68MOL0     H 9336   4.291  -0.179   5.390  0.1251  0.1704 -0.8470
   68MOL0     H 9337   4.242  -0.100   5.544  0.0011 -0.1984  0.0443
   68MOL0     H 9338   4.116  -0.287   5.500  0.0227 -0.1924 -0.2337
   68MOL0     H 9339   4.019  -0.139   5.518 -0.1969  0.1365 -1.4645
   68MOL0     H 9340   3.934  -0.303   5.344  0.5687 -1.2256  0.0299
   68MOL0     H 9341   3.986  -0.144   5.273 -1.4195  0.6612  1.6649
   68MOL0     H 9342   3.901  -0.252   5.080  0.7296  2.1197  0.1260
   68MOL0     H 9343   3.867  -0.294   4.727  0.4168 -0.4957  0.3688
   68MOL0     H 9344   3.852  -0.157   4.845  0.0157 -0.6674  2.4764
   68MOL0     H 9345   3.782  -0.320   4.876  1.4733 -2.7974  1.6694
   68MOL0     H 9346   4.346  -0.258   4.547  1.4340  3.4660  0.2425
   68MOL0     H 9347   4.429  -0.174   4.330  0.3543  3.5584  0.9659
   68MOL0     H 9348   4.459  -0.027   4.140  0.4913  0.8947 -1.7385
   68MOL0     H 9349   4.459  -0.196   4.120  0.9430  0.2799  1.4402
   68MOL0     H 9350   4.443   0.035   3.938 -2.6603  0.1433  1.3280
   68MOL0     H 9351   4.549  -0.103   3.927  0.7764  0.3980  3.1140
   68MOL0     H 9352   4.257  -0.084   3.854  0.6760  0.7533  3.7406
   68MOL0     H 9353   4.335  -0.235   3.846 -0.9823  0.9067 -0.1429
   68MOL0     H 9354   4.358  -0.195   3.642 -0.1037 -0.6593  0.3621
   68MOL0     H 9355   4.494  -0.096   3.678 -1.1885  2.2971 -0.3259
   68MOL0     H 9356   4.214   0.024   3.624  0.2927 -2.0002  0.3221
   68MOL0     H 9357   4.336   0.110   3.700 -1.6584 -0.3029  1.2935
   68MOL0     H 9358   4.350  -0.014   3.412  0.3386 -0.1300  0.5210
   68MOL0     H 9359   4.487   0.065   3.473 -0.3639  3.8397 -1.5206
   68MOL0     H 9360   4.365   0.279   3.493  2.2456 -0.8674 -1.0120
   68MOL0     H 9361   4.207   0.201   3.437 -0.5288  2.2396 -0.9673
   68MOL0     H 9362   4.461   0.269   3.281 -0.9560  1.4085 -1.4421
   68MOL0     H 9363   4.304   0.334   3.262 -1.2054 -2.0941 -3.5023
   68MOL0     H 9364   4.009  -0.162   4.207 -0.1751  1.3497  2.4098
   68MOL0     H 9365   3.943  -0.249   4.406 -0.2674  1.0074  0.2929
   68MOL0     H 9366   4.312  -0.448   4.900  0.1893 -2.9874  3.4205
   68MOL0     H 9367   4.281  -0.443   5.123  0.4611  1.4438  0.8993
   68MOL0     H 9368   3.432   0.783   6.317 -1.0230 -2.7228 -4.8861
   68MOL0     H 9369   3.481   0.999   6.425  0.7047  0.4508 -0.5376
   68MOL0     H 9370   3.656   1.569   6.204 -0.1870  0.8025  1.0677
   68MOL0     H 9371   3.716   1.759   6.352  0.2038 -1.3081 -3.0137
   68MOL0     H 9372   3.823   1.894   6.494  0.1013 -2.5359 -1.8159
   68MOL0     H 9373   3.640   1.890   6.540 -0.0114  3.4964  0.0237
   68MOL0     H 9374   3.691   1.912   6.775 -1.8102  2.3973  0.2057
   68MOL0     H 9375   3.729   2.055   6.688 -0.9787 -0.7695 -0.9027
   68MOL0     H 9376   3.901   1.968   6.863 -1.2640  2.2957 -1.2257
   68MOL0     H 9377   3.937   1.833   6.751 -1.6546 -0.7710  0.5753
   68MOL0     H 9378   4.019   1.986   6.573  1.3728  2.1358 -0.4076
   68MOL0     H 9379   4.089   2.012   6.733  0.5472 -1.6188 -0.0693
   68MOL0     H 9380   3.976   2.391   6.627 -5.3886  0.1066 -1.5068
   68MOL0     H 9381   3.675   1.512   6.691 -1.5135  2.5555  0.0450
   68MOL0     H 9382   3.654   1.211   6.556  1.6777  0.4975  2.9726
   68MOL0     H 9383   3.618   1.291   6.689 -0.5185 -0.8215  0.6033
   68MOL0     H 9384   3.483   1.276   6.568  0.8393 -2.9145 -1.5080
   69MOL0     O 9385   2.165   3.124  11.307 -0.3073 -1.0210 -1.2254
   69MOL0     C 9386   2.160   3.209  11.398  0.2162 -0.2264 -0.1255
   69MOL0     O 9387   2.074   3.207  11.505  0.6124  0.2023 -0.6846
   69MOL0     C 9388   1.978   3.104  11.527 -0.0357 -1.5873  0.4876
   69MOL0     C 9389   1.846   3.142  11.548 -0.4392 -0.1020  0.1901
   69MOL0     C 9390   1.753   3.047  11.564  0.0508  0.4932  0.1506
   69MOL0     C 9391   1.792   2.914  11.563  0.5354  0.2603 -0.1598
   69MOL0     O 9392   1.695   2.825  11.574  1.0380 -0.6312 -0.1763
   69MOL0     C 9393   1.717   2.708  11.490  0.2747 -0.3008  0.1435
   69MOL0     C 9394   1.762   2.603  11.603 -0.7792 -0.4964  0.7622
   69MOL0     C 9395   1.850   2.493  11.537 -0.7154  0.3955 -0.7377
   69MOL0     C 9396   1.971   2.457  11.618 -0.8704 -0.3305 -0.3847
   69MOL0     C 9397   2.045   2.342  11.552  0.8523 -0.4915  0.0132
   69MOL0     C 9398   2.189   2.320  11.585  0.0385  0.0542 -0.1685
   69MOL0     C 9399   2.279   2.433  11.524  0.2737  0.1772  1.3923
   69MOL0     C 9400   2.334   2.379  11.389 -0.3147 -0.1423  0.4149
   69MOL0     N 9401   2.418   2.263  11.407  0.1562 -1.1899  0.4716
   69MOL0     C 9402   2.494   2.229  11.514 -0.4737 -0.9799  0.2507
   69MOL0     C 9403   2.575   2.130  11.472 -0.3024 -0.0047  0.0157
   69MOL0     C 9404   2.677   2.063  11.567 -0.2161 -0.5600  0.6340
   69MOL0     C 9405   2.694   1.916  11.541  0.1763 -0.8455  0.3684
   69MOL0     C 9406   2.821   1.856  11.604  0.5245 -0.0257  0.5665
   69MOL0     C 9407   2.785   1.700  11.607  0.4544  0.9493 -0.4194
   69MOL0     O 9408   2.669   1.661  11.679  0.3696 -0.3831 -0.5522
   69MOL0     C 9409   2.654   1.704  11.815  0.2970 -0.4471  0.4480
   69MOL0     C 9410   2.769   1.714  11.896 -0.7154  0.0794  0.4469
   69MOL0     C 9411   2.756   1.752  12.025 -1.1149 -0.0353  0.0286
   69MOL0     C 9412   2.892   1.778  12.092 -0.0445  0.5803 -0.6344
   69MOL0     C 9413   2.632   1.761  12.083 -0.2682 -0.3496  1.2097
   69MOL0     C 9414   2.613   1.796  12.228  0.1884 -0.0345  0.2354
   69MOL0     O 9415   2.481   1.797  12.279  0.5378 -0.4205  0.3936
   69MOL0     C 9416   2.441   1.836  12.403  0.4076  0.2621 -0.4968
   69MOL0     C 9417   2.331   1.773  12.455  0.2199 -0.2116 -0.3635
   69MOL0     C 9418   2.267   1.828  12.577  0.0428 -0.3489  0.5675
   69MOL0     C 9419   2.320   1.949  12.632  0.9303  0.4676 -1.2326
   69MOL0     O 9420   2.243   1.993  12.735  0.2802  0.5305  0.2239
   69MOL0     C 9421   2.274   2.118  12.797 -0.3321  0.3411 -0.1531
   69MOL0     C 9422   2.175   2.166  12.904 -0.1043  0.7754  1.3844
   69MOL0     C 9423   2.173   2.081  13.032 -0.2808 -0.1309 -0.1464
   69MOL0     C 9424   2.065   2.115  13.132 -0.0187  0.1156 -0.3528
   69MOL0     C 9425   2.089   2.036  13.261 -0.8528  0.2077 -0.5744
   69MOL0     C 9426   1.991   2.082  13.370  0.1942 -0.2673 -0.3907
   69MOL0     C 9427   2.055   2.046  13.510 -0.0246 -0.1272  0.6196
   69MOL0     C 9428   2.049   1.898  13.557 -0.4957 -0.7490  1.0542
   69MOL0    Cl 9429   2.146   1.918  13.709  0.1408 -0.4080 -0.2028
   69MOL0     C 9430   2.426   2.010  12.568 -0.2195  0.1015  0.5005
   69MOL0     C 9431   2.491   1.950  12.462 -0.0112  0.4282  0.1055
   69MOL0     O 9432   2.716   1.816  12.297 -0.1214 -0.2065 -0.6498
   69MOL0     C 9433   2.517   1.735  12.000  0.7228 -0.2433 -1.1569
   69MOL0     C 9434   2.523   1.719  11.864 -0.0609 -0.2287 -0.5410
   69MOL0     N 9435   2.544   2.110  11.340  0.9454 -0.6853  0.0965
   69MOL0     N 9436   2.455   2.190  11.302  0.4692  0.8428 -0.3787
   69MOL0     C 9437   1.927   2.878  11.546  1.5235  0.3992  0.1872
   69MOL0     C 9438   2.020   2.973  11.517 -0.0204  0.0107 -0.9855
   69MOL0     C 9439   2.250   3.329  11.390  0.5947  0.1067  0.6679
   69MOL0     C 9440   2.179   3.447  11.424 -0.5568 -0.9045 -0.4157
   69MOL0     C 9441   2.253   3.572  11.425 -0.9561 -0.5152  0.4954
   69MOL0     C 9442   2.393   3.575  11.395 -0.1308  0.4634 -0.2349
   69MOL0     O 9443   2.462   3.697  11.407  0.3433 -0.3039 -0.0431
   69MOL0     C 9444   2.508   3.766  11.281  0.2314 -0.0826  0.6286
   69MOL0     C 9445   2.604   3.880  11.323 -0.5850  0.5662  0.3439
   69MOL0     C 9446   2.728   3.811  11.379 -0.4208  0.1361 -0.3084
   69MOL0     C 9447   2.828   3.931  11.395  0.4831  0.2301 -0.6050
   69MOL0     C 9448   2.965   3.880  11.448  0.4922  0.0103  0.0540
   69MOL0     C 9449   3.073   3.846  11.458 -0.1515 -0.2447 -0.5809
   69MOL0     C 9450   2.458   3.460  11.339 -0.3624  0.3134  0.0956
   69MOL0     C 9451   2.387   3.337  11.340  0.5149  1.1667 -0.0797
   69MOL0     C 9452   2.470   3.225  11.285 -0.5092  0.5024 -0.9375
   69MOL0     H 9453   1.818   3.247  11.540  0.9592  0.2996  0.3146
   69MOL0     H 9454   1.650   3.063  11.592  0.3398 -1.0299  2.3971
   69MOL0     H 9455   1.796   2.722  11.415  0.6853 -2.6409  0.0593
   69MOL0     H 9456   1.622   2.689  11.440 -0.1498  2.3081 -0.1642
   69MOL0     H 9457   1.812   2.663  11.680  0.5004 -0.8947  0.2658
   69MOL0     H 9458   1.677   2.554  11.651 -0.7802 -2.5985 -1.2289
   69MOL0     H 9459   1.780   2.410  11.521 -0.3458  0.0458 -0.5603
   69MOL0     H 9460   1.883   2.538  11.443 -0.0755 -0.2239 -0.8185
   69MOL0     H 9461   2.039   2.540  11.596  0.9664 -1.9036 -0.9393
   69MOL0     H 9462   1.955   2.442  11.725  0.5370 -3.6354 -0.5261
   69MOL0     H 9463   2.049   2.345  11.443 -1.8367 -0.6467 -0.1643
   69MOL0     H 9464   2.007   2.245  11.585  1.4849 -1.6822 -2.5131
   69MOL0     H 9465   2.197   2.311  11.694  0.8885 -0.6732 -0.2773
   69MOL0     H 9466   2.228   2.225  11.546  1.0632  0.1922  0.4651
   69MOL0     H 9467   2.353   2.468  11.597  1.7387  2.8675 -1.1575
   69MOL0     H 9468   2.211   2.517  11.502 -0.4162 -0.5993  0.4834
   69MOL0     H 9469   2.260   2.374  11.308 -0.7244  0.3052  0.7516
   69MOL0     H 9470   2.401   2.455  11.347  0.5509 -0.6348  0.8878
   69MOL0     H 9471   2.490   2.283  11.608  1.6392 -0.0519 -0.1380
   69MOL0     H 9472   2.650   2.089  11.669 -0.8593  0.2731  0.2650
   69MOL0     H 9473   2.767   2.121  11.543  0.2001 -0.6636  1.8728
   69MOL0     H 9474   2.612   1.863  11.590 -1.3378 -0.4263 -1.6047
   69MOL0     H 9475   2.690   1.899  11.433  1.1955 -3.0218  0.6191
   69MOL0     H 9476   2.904   1.878  11.535  0.0854 -1.3961 -0.4488
   69MOL0     H 9477   2.844   1.892  11.704  1.9653  1.4943 -0.2552
   69MOL0     H 9478   2.775   1.660  11.506  1.0130 -3.4660  1.0337
   69MOL0     H 9479   2.864   1.636  11.648 -1.3306 -0.8874  0.3100
   69MOL0     H 9480   2.865   1.685  11.854 -1.1026 -0.0728 -0.3518
   69MOL0     H 9481   2.901   1.718  12.183  2.8091 -0.2453 -1.3453
   69MOL0     H 9482   2.899   1.884  12.118  0.8913  0.3544  0.1259
   69MOL0     H 9483   2.966   1.748  12.017  1.5055  1.6482  0.3899
   69MOL0     H 9484   2.280   1.702  12.392 -3.4937  1.6520  0.2333
   69MOL0     H 9485   2.178   1.780  12.614 -1.1903  1.1118 -0.3617
   69MOL0     H 9486   2.373   2.121  12.843 -0.8070  1.5909  0.8409
   69MOL0     H 9487   2.272   2.194  12.718  0.3718 -1.8476 -2.4129
   69MOL0     H 9488   2.194   2.270  12.932 -0.1472  1.2419 -0.2357
   69MOL0     H 9489   2.076   2.161  12.858  0.3355  1.8023  0.2872
   69MOL0     H 9490   2.265   2.102  13.088 -0.9982  1.8368  0.3991
   69MOL0     H 9491   2.157   1.979  12.998 -0.0890  0.1458 -1.1169
   69MOL0     H 9492   1.968   2.085  13.091  0.2454 -0.9570 -0.2126
   69MOL0     H 9493   2.061   2.224  13.135 -0.2902  0.1625  3.4597
   69MOL0     H 9494   2.083   1.929  13.235  5.1667 -1.7367  3.6586
   69MOL0     H 9495   2.190   2.067  13.288 -0.9947 -0.0196  0.2407
   69MOL0     H 9496   1.889   2.043  13.359  1.0727 -2.4767 -1.5084
   69MOL0     H 9497   1.984   2.190  13.354 -1.8656 -0.1309  1.1074
   69MOL0     H 9498   1.984   2.093  13.579 -0.4425  0.4676 -0.1948
   69MOL0     H 9499   2.155   2.089  13.516  0.5421 -1.0630 -1.3890
   69MOL0     H 9500   2.097   1.840  13.478 -2.4011  0.1372 -0.8576
   69MOL0     H 9501   1.945   1.864  13.561 -0.3451 -1.5764 -0.9717
   69MOL0     H 9502   2.460   2.102  12.616  0.8437 -0.7112  1.3818
   69MOL0     H 9503   2.573   1.997  12.409  0.0663 -0.5688 -0.6816
   69MOL0     H 9504   2.417   1.747  12.039  0.6171 -0.9688 -1.1859
   69MOL0     H 9505   2.442   1.709  11.794 -0.8421 -0.0809  0.3229
   69MOL0     H 9506   1.963   2.777  11.562  0.4822  0.1785  1.2890
   69MOL0     H 9507   2.120   2.948  11.482 -0.7915 -3.0338 -1.2768
   69MOL0     H 9508   2.078   3.435  11.463 -0.7312 -1.2493 -0.9597
   69MOL0     H 9509   2.193   3.655  11.463  0.1725  0.2301  0.6984
   69MOL0     H 9510   2.556   3.703  11.205 -1.4750 -2.0910  1.1092
   69MOL0     H 9511   2.416   3.795  11.230 -0.1385  0.1601  1.4114
   69MOL0     H 9512   2.551   3.930  11.405 -2.7787 -3.4902  1.6696
   69MOL0     H 9513   2.628   3.958  11.250 -2.0759  0.9118  0.1809
   69MOL0     H 9514   2.702   3.778  11.480  1.6365 -1.6237 -0.2733
   69MOL0     H 9515   2.773   3.734  11.316  0.0154  1.4457 -1.6568
   69MOL0     H 9516   2.785   4.008  11.460  0.9123 -0.7824  0.9295
   69MOL0     H 9517   2.864   3.987  11.308  1.1569  2.2941  0.9017
   69MOL0     H 9518   3.177   3.818  11.463 -0.4064 -1.4027 -1.4473
   69MOL0     H 9519   2.559   3.464  11.301  0.3739  1.8306  2.0085
   69MOL0     H 9520   2.561   3.207  11.343 -0.0837 -1.7639 -2.1674
   69MOL0     H 9521   2.413   3.132  11.279 -1.1134  0.8869 -1.2244
   69MOL0     H 9522   2.517   3.241  11.187  1.1639  0.8620 -0.1152
   70MOL0     O 9523   0.333   1.149   6.526 -0.2127 -0.2550 -0.4157
   70MOL0     C 9524   0.234   1.106   6.470 -0.3113  0.3374 -0.7077
   70MOL0     O 9525   0.137   1.181   6.417 -0.5621 -0.4074 -0.5410
   70MOL0     C 9526   0.162   1.314   6.403 -0.2911  0.6637  0.6432
   70MOL0     C 9527   0.161   1.403   6.510 -0.7260  0.1114 -0.1973
   70MOL0     C 9528   0.190   1.538   6.493 -0.1996 -0.6692 -0.3710
   70MOL0     C 9529   0.213   1.584   6.359  0.4676 -0.2784 -0.0527
   70MOL0     O 9530   0.231   1.711   6.310 -0.6352 -0.2881 -0.3834
   70MOL0     C 9531   0.215   1.826   6.395 -0.4231 -0.4666 -0.7020
   70MOL0     C 9532   0.165   1.946   6.312  0.3884 -0.7633  0.0668
   70MOL0     C 9533   0.194   2.088   6.379  0.3650  0.6614 -0.7114
   70MOL0     C 9534   0.193   2.204   6.282 -0.3888 -0.4566  0.3748
   70MOL0     C 9535   0.216   2.343   6.359 -0.2128  0.4476  0.0216
   70MOL0     C 9536   0.243   2.455   6.266 -0.5833  0.1888 -0.3220
   70MOL0     C 9537   0.322   2.569   6.342  0.1669 -0.4470 -0.3345
   70MOL0     C 9538   0.226   2.676   6.393 -0.5491 -0.7877 -0.5316
   70MOL0     N 9539   0.300   2.805   6.394  0.5438 -0.2399  0.7069
   70MOL0     C 9540   0.274   2.909   6.315  0.3436 -0.4397 -0.5960
   70MOL0     C 9541   0.341   3.014   6.371  0.8910 -1.1955 -1.4280
   70MOL0     C 9542   0.359   3.161   6.324 -0.8276 -0.5189 -1.1678
   70MOL0     C 9543   0.361   3.264   6.433 -0.0680 -0.8213 -0.4590
   70MOL0     C 9544   0.433   3.376   6.365 -0.1436 -0.3503  0.1018
   70MOL0     C 9545   0.440   3.500   6.453 -0.6747 -0.1873 -0.6366
   70MOL0     O 9546   0.544   3.592   6.426 -0.1147  0.2422 -0.0719
   70MOL0     C 9547   0.512   3.707   6.355  1.2755  0.4938  0.9643
   70MOL0     C 9548   0.615   3.791   6.327  0.5700  0.3871 -0.7799
   70MOL0     C 9549   0.613   3.898   6.239 -0.2946 -0.0766  0.6080
   70MOL0     C 9550   0.730   3.994   6.231 -0.1001 -0.4144 -0.2066
   70MOL0     C 9551   0.492   3.926   6.167 -0.2714  0.7618  0.8349
   70MOL0     C 9552   0.483   4.057   6.088 -0.4530  0.8095  0.1297
   70MOL0     O 9553   0.366   4.119   6.094  0.6126 -0.8741  0.6120
   70MOL0     C 9554   0.357   4.253   6.086  0.4833 -0.1818 -0.3911
   70MOL0     C 9555   0.458   4.343   6.144 -0.0603  0.2477  0.4672
   70MOL0     C 9556   0.434   4.470   6.150  0.8407  1.0783  0.5046
   70MOL0     C 9557   0.321   4.521   6.093 -0.9326  0.3135 -0.4079
   70MOL0     O 9558   0.314   4.656   6.112 -0.4255  0.4724  0.2643
   70MOL0     C 9559   0.189   4.724   6.102  0.4990  0.0006 -0.6750
   70MOL0     C 9560   0.101   4.701   6.230 -0.3848  0.2751  0.8369
   70MOL0     C 9561  -0.014   4.800   6.234  0.0063 -0.7062  0.9211
   70MOL0     C 9562  -0.119   4.772   6.345  0.3824  0.3361  0.6655
   70MOL0     C 9563  -0.184   4.903   6.405 -0.5144 -0.4995  0.3742
   70MOL0     C 9564  -0.267   4.988   6.310  0.0109  0.6255  0.9981
   70MOL0     C 9565  -0.399   5.029   6.375  0.5032  0.6249 -0.1483
   70MOL0     C 9566  -0.465   5.144   6.287 -0.1404  0.6557 -0.8984
   70MOL0    Cl 9567  -0.489   5.085   6.132 -0.1434  0.3903 -0.5067
   70MOL0     C 9568   0.223   4.444   6.042  0.4973 -0.4885 -0.1477
   70MOL0     C 9569   0.248   4.306   6.039  0.5902 -0.4382  0.4042
   70MOL0     O 9570   0.579   4.092   6.025 -0.0750 -0.6689  0.4937
   70MOL0     C 9571   0.388   3.836   6.182 -0.0433  0.1287 -0.1898
   70MOL0     C 9572   0.398   3.729   6.268 -1.1105 -0.2514 -0.7192
   70MOL0     N 9573   0.420   2.960   6.468 -0.6790 -0.0944  0.0430
   70MOL0     N 9574   0.395   2.837   6.487 -0.3119  0.0454  0.5068
   70MOL0     C 9575   0.221   1.494   6.256 -0.3914  0.4143 -0.2583
   70MOL0     C 9576   0.202   1.363   6.273 -0.0242  0.2814  0.0615
   70MOL0     C 9577   0.236   0.956   6.439 -0.6940  0.5275  1.2726
   70MOL0     C 9578   0.343   0.877   6.490 -0.8518 -0.5626  0.7175
   70MOL0     C 9579   0.364   0.749   6.444 -0.8295  0.4993 -0.9721
   70MOL0     C 9580   0.294   0.696   6.346 -0.6955  0.5558 -0.3429
   70MOL0     O 9581   0.342   0.572   6.297  0.2564 -0.2054 -0.0373
   70MOL0     C 9582   0.241   0.489   6.223  1.3032  0.4529  1.0682
   70MOL0     C 9583   0.309   0.349   6.192  0.9830 -0.5499 -0.1810
   70MOL0     C 9584   0.438   0.369   6.117 -0.1245  0.8826  0.4940
   70MOL0     C 9585   0.512   0.256   6.036 -0.3156  0.1155 -0.0921
   70MOL0     C 9586   0.443   0.230   5.908  0.4035 -0.1761 -0.7424
   70MOL0     C 9587   0.393   0.208   5.801  0.4120 -0.6379  0.9585
   70MOL0     C 9588   0.199   0.772   6.282 -0.4673  0.6409  0.3469
   70MOL0     C 9589   0.161   0.900   6.335 -0.2744  1.3842  0.7347
   70MOL0     C 9590   0.037   0.956   6.281 -1.2044 -0.4244  0.3659
   70MOL0     H 9591   0.139   1.382   6.614 -3.3865  0.9526 -0.5146
   70MOL0     H 9592   0.193   1.608   6.576 -0.7563  0.9051 -1.6309
   70MOL0     H 9593   0.316   1.856   6.426 -2.0141  1.7459  2.9310
   70MOL0     H 9594   0.152   1.821   6.484 -0.6636 -0.3542 -0.8649
   70MOL0     H 9595   0.215   1.954   6.216  2.7974  0.0533  1.3187
   70MOL0     H 9596   0.056   1.951   6.302  0.1722 -0.8240  1.9783
   70MOL0     H 9597   0.134   2.098   6.470  1.7768 -0.4330  0.3837
   70MOL0     H 9598   0.297   2.093   6.416 -0.0005  3.0272  0.1188
   70MOL0     H 9599   0.272   2.186   6.209 -0.7800  0.6003 -0.3357
   70MOL0     H 9600   0.096   2.217   6.234 -0.1966  1.3016  0.3744
   70MOL0     H 9601   0.300   2.329   6.428 -0.8628 -2.8216  0.3015
   70MOL0     H 9602   0.122   2.370   6.407 -0.4037  0.8063 -0.5438
   70MOL0     H 9603   0.288   2.426   6.171 -1.0729 -0.3918 -0.3790
   70MOL0     H 9604   0.143   2.491   6.241 -1.5524 -2.0027  0.1757
   70MOL0     H 9605   0.381   2.615   6.262 -0.9340  1.5810 -0.0409
   70MOL0     H 9606   0.396   2.532   6.415 -2.0432 -2.6784  0.9576
   70MOL0     H 9607   0.143   2.687   6.322 -0.2691 -1.2575 -0.9387
   70MOL0     H 9608   0.194   2.641   6.491  0.6476 -0.6864 -0.0967
   70MOL0     H 9609   0.213   2.902   6.226 -1.0672 -1.8885  0.4240
   70MOL0     H 9610   0.277   3.181   6.254  0.3262 -2.3048 -3.1526
   70MOL0     H 9611   0.458   3.165   6.278  0.9125 -0.3427  2.2695
   70MOL0     H 9612   0.257   3.287   6.459 -0.0277 -1.0178 -0.1153
   70MOL0     H 9613   0.414   3.221   6.519 -3.2059  0.3949  2.3129
   70MOL0     H 9614   0.538   3.349   6.353  0.1068  0.3975  0.5117
   70MOL0     H 9615   0.395   3.400   6.265  4.1723  2.5705 -1.1510
   70MOL0     H 9616   0.341   3.542   6.472 -1.2787 -1.3021 -1.1986
   70MOL0     H 9617   0.463   3.462   6.552  1.4010 -0.3490 -1.1418
   70MOL0     H 9618   0.715   3.765   6.361 -0.3153  1.3082  3.0000
   70MOL0     H 9619   0.707   4.101   6.237  0.1027 -0.4528  4.6091
   70MOL0     H 9620   0.784   3.970   6.139 -0.5108 -0.7463 -0.3646
   70MOL0     H 9621   0.790   3.989   6.322  1.9849  2.9913 -1.1830
   70MOL0     H 9622   0.553   4.310   6.184  1.2551  2.6427 -0.4312
   70MOL0     H 9623   0.504   4.539   6.195 -0.3208  2.2406  0.5960
   70MOL0     H 9624   0.208   4.832   6.098  1.3019 -0.1890 -4.0687
   70MOL0     H 9625   0.127   4.712   6.013  1.0638  2.1968 -1.4105
   70MOL0     H 9626   0.057   4.601   6.222 -3.6325  1.5795  1.0831
   70MOL0     H 9627   0.150   4.714   6.327 -1.2791 -1.3992  1.5607
   70MOL0     H 9628  -0.065   4.816   6.139 -2.2654 -0.6067  2.1036
   70MOL0     H 9629   0.037   4.893   6.260  0.7922 -0.8190 -0.1224
   70MOL0     H 9630  -0.052   4.728   6.419  1.2189  0.2959 -0.1055
   70MOL0     H 9631  -0.198   4.709   6.302  1.4177  0.9631 -2.4033
   70MOL0     H 9632  -0.245   4.875   6.491  0.6208  1.2396  1.7967
   70MOL0     H 9633  -0.096   4.960   6.435 -1.7918  2.5553 -1.2813
   70MOL0     H 9634  -0.276   4.939   6.213  3.6243  2.8475 -0.6748
   70MOL0     H 9635  -0.212   5.081   6.297  1.6686 -0.1783  1.9264
   70MOL0     H 9636  -0.370   5.053   6.478 -0.9434 -0.5276  0.5667
   70MOL0     H 9637  -0.466   4.943   6.367  1.0311  0.1773  0.2035
   70MOL0     H 9638  -0.402   5.234   6.291  3.2354 -1.4630 -1.9283
   70MOL0     H 9639  -0.561   5.172   6.332  1.2750  1.3113  1.9544
   70MOL0     H 9640   0.126   4.488   6.020  0.4169 -0.4892  0.1983
   70MOL0     H 9641   0.170   4.243   5.997  0.2223 -0.7189  1.4950
   70MOL0     H 9642   0.292   3.850   6.133 -0.9977 -2.4495  0.7634
   70MOL0     H 9643   0.325   3.649   6.279 -1.1048 -0.0467  1.3852
   70MOL0     H 9644   0.241   1.527   6.154  2.4112 -0.4801 -0.0579
   70MOL0     H 9645   0.219   1.294   6.190 -0.2404 -2.2923  2.0481
   70MOL0     H 9646   0.413   0.906   6.569  1.6442 -1.4129 -1.0650
   70MOL0     H 9647   0.436   0.685   6.492 -1.8473  1.4046  1.9772
   70MOL0     H 9648   0.149   0.457   6.271  1.8312 -4.0607 -0.4147
   70MOL0     H 9649   0.222   0.535   6.126 -3.4656 -1.7305  0.7013
   70MOL0     H 9650   0.237   0.287   6.139 -0.5111 -0.9455  2.2113
   70MOL0     H 9651   0.353   0.297   6.278  0.9268 -1.5882 -0.7589
   70MOL0     H 9652   0.429   0.448   6.042 -0.0809  0.2107 -0.2304
   70MOL0     H 9653   0.510   0.416   6.184 -1.6039  2.0323  1.3409
   70MOL0     H 9654   0.518   0.164   6.095  1.9121 -0.7921 -1.6088
   70MOL0     H 9655   0.618   0.274   6.020 -0.0550 -0.0965  1.2687
   70MOL0     H 9656   0.338   0.189   5.711 -1.9864  4.2714  1.0269
   70MOL0     H 9657   0.135   0.733   6.204 -0.5478  0.3105  0.5770
   70MOL0     H 9658   0.047   1.034   6.205 -1.6486  0.6997  1.4149
   70MOL0     H 9659  -0.027   0.886   6.226  0.5617 -0.8099 -1.2759
   70MOL0     H 9660  -0.016   0.980   6.374  1.5663  1.9832  1.4877
   71MOL0     O 9661   6.860   3.292  11.493  0.7648 -0.2256  0.1621
   71MOL0     C 9662   6.924   3.366  11.569 -0.8059  0.7269 -0.1650
   71MOL0     O 9663   7.049   3.340  11.623  0.4319 -0.5287 -0.1862
   71MOL0     C 9664   7.128   3.232  11.579  0.5678  0.2591 -0.0334
   71MOL0     C 9665   7.071   3.111  11.551  0.0979  0.4896  0.6855
   71MOL0     C 9666   7.158   3.010  11.522 -0.1748  0.0808 -0.3675
   71MOL0     C 9667   7.299   3.020  11.511  0.4970  0.1463 -0.0285
   71MOL0     O 9668   7.373   2.904  11.500 -0.6549  0.3021  0.5802
   71MOL0     C 9669   7.431   2.871  11.366 -0.2556 -0.5168  0.5073
   71MOL0     C 9670   7.561   2.822  11.391 -0.0668  0.8354 -0.1958
   71MOL0     C 9671   7.555   2.684  11.452  0.2490  0.4253  0.5419
   71MOL0     C 9672   7.698   2.627  11.482  0.4509 -0.1960 -0.2318
   71MOL0     C 9673   7.685   2.493  11.550  0.6537 -0.2310  0.0144
   71MOL0     C 9674   7.662   2.374  11.468 -0.2594 -0.1970 -0.0252
   71MOL0     C 9675   7.651   2.245  11.532 -0.1058 -0.3922  0.5410
   71MOL0     C 9676   7.515   2.215  11.602  0.5175  0.0408  0.2339
   71MOL0     N 9677   7.524   2.102  11.687  0.5258  0.9141 -0.0892
   71MOL0     C 9678   7.571   2.083  11.819  0.3103 -0.4954 -0.2190
   71MOL0     C 9679   7.568   1.953  11.836 -0.7775 -0.1054  0.5685
   71MOL0     C 9680   7.624   1.876  11.954  0.1439  0.6586 -0.7152
   71MOL0     C 9681   7.530   1.886  12.077 -0.0285 -0.0990 -0.4412
   71MOL0     C 9682   7.559   1.782  12.181 -0.4458 -0.5405 -0.4322
   71MOL0     C 9683   7.714   1.776  12.230  0.2303 -0.2223  0.5234
   71MOL0     O 9684   7.778   1.898  12.284 -0.6434  0.5470 -0.4322
   71MOL0     C 9685   7.739   1.928  12.412  0.3506 -0.6933  0.0131
   71MOL0     C 9686   7.779   1.841  12.518  0.7267  0.9109  0.1775
   71MOL0     C 9687   7.754   1.864  12.657 -0.6901 -1.2564  0.2123
   71MOL0     C 9688   7.796   1.767  12.757 -0.2814 -0.0627  0.0097
   71MOL0     C 9689   7.695   1.987  12.687  0.5675  0.1596 -0.6990
   71MOL0     C 9690   7.661   2.029  12.831 -0.2939  0.3703  0.7151
   71MOL0     O 9691   7.587   1.948  12.906 -0.0179  0.2907 -0.9398
   71MOL0     C 9692   7.525   2.013  13.018 -0.0819 -0.4278 -0.3067
   71MOL0     C 9693   7.564   1.971  13.151  0.7750 -0.0500  0.7210
   71MOL0     C 9694   7.502   2.026  13.271 -0.3861  0.1678 -0.0947
   71MOL0     C 9695   7.392   2.107  13.247  0.7395 -1.1542  0.2240
   71MOL0     O 9696   7.316   2.149  13.349 -0.5125 -1.1994  0.4166
   71MOL0     C 9697   7.372   2.220  13.454 -0.1612  1.1791  0.7363
   71MOL0     C 9698   7.247   2.256  13.537 -0.1228  0.1185 -0.2610
   71MOL0     C 9699   7.275   2.345  13.662 -0.7034 -0.3572  0.6774
   71MOL0     C 9700   7.324   2.487  13.638  0.5255  0.5320  0.7606
   71MOL0     C 9701   7.343   2.577  13.767  0.7441  0.1694 -0.7548
   71MOL0     C 9702   7.212   2.633  13.828 -0.0246  0.3521 -0.3854
   71MOL0     C 9703   7.232   2.743  13.932  0.0841  0.4798 -0.9096
   71MOL0     C 9704   7.105   2.820  13.974  0.6832 -0.4443 -0.1070
   71MOL0    Cl 9705   7.161   2.970  14.061  0.0549  0.4883  0.7428
   71MOL0     C 9706   7.346   2.147  13.121 -1.0918  0.5054  1.0940
   71MOL0     C 9707   7.414   2.097  13.003 -0.0759 -0.4381  0.1489
   71MOL0     O 9708   7.702   2.139  12.868  0.1371  0.1507 -0.0676
   71MOL0     C 9709   7.635   2.060  12.583  0.4198 -0.1699 -0.6446
   71MOL0     C 9710   7.656   2.036  12.445  0.5524 -0.3590 -1.1622
   71MOL0     N 9711   7.537   1.884  11.727 -0.0180 -0.7470  0.2632
   71MOL0     N 9712   7.503   1.973  11.639  0.6991  0.3058  0.6667
   71MOL0     C 9713   7.349   3.145  11.525  0.0268  0.4215 -0.2575
   71MOL0     C 9714   7.270   3.251  11.582  0.1427 -0.2011  0.5004
   71MOL0     C 9715   6.865   3.492  11.626 -0.8385  0.2147 -0.0346
   71MOL0     C 9716   6.952   3.609  11.624 -0.1466 -0.0450 -1.0404
   71MOL0     C 9717   6.916   3.726  11.688 -0.5451  0.1058  0.3740
   71MOL0     C 9718   6.780   3.742  11.730  0.1834 -0.1977  0.0154
   71MOL0     O 9719   6.730   3.865  11.769  0.0976 -0.0644 -0.6597
   71MOL0     C 9720   6.785   3.971  11.697 -0.7456 -0.0877  0.2322
   71MOL0     C 9721   6.700   4.096  11.712 -1.0905  0.2164 -0.2738
   71MOL0     C 9722   6.565   4.076  11.640 -0.0145 -0.3816 -0.8894
   71MOL0     C 9723   6.567   4.090  11.499 -0.2744 -0.9267  0.4862
   71MOL0     C 9724   6.627   4.221  11.449  0.0317 -0.9506 -1.2136
   71MOL0     C 9725   6.674   4.332  11.421  0.0571  0.3759 -0.3759
   71MOL0     C 9726   6.695   3.640  11.712  0.5133 -0.4609 -0.5876
   71MOL0     C 9727   6.734   3.513  11.663 -0.7503 -0.9259  0.3415
   71MOL0     C 9728   6.631   3.392  11.662  0.7816 -0.0826 -0.6829
   71MOL0     H 9729   6.964   3.092  11.562 -0.9814  5.3297  1.1798
   71MOL0     H 9730   7.104   2.916  11.518 -1.6847  0.8818  0.4564
   71MOL0     H 9731   7.439   2.958  11.300  0.1733 -1.2941 -0.4773
   71MOL0     H 9732   7.372   2.796  11.314  2.2581  0.6223 -4.7049
   71MOL0     H 9733   7.608   2.805  11.293 -0.5459 -3.0810  0.1252
   71MOL0     H 9734   7.618   2.893  11.452 -1.6299 -2.1008  5.3476
   71MOL0     H 9735   7.507   2.691  11.551  0.9213  0.2229  0.8866
   71MOL0     H 9736   7.497   2.618  11.387 -1.7727 -0.0723  2.7004
   71MOL0     H 9737   7.753   2.638  11.388 -1.4025  0.4261 -1.2998
   71MOL0     H 9738   7.746   2.692  11.557  1.2769 -1.9432  0.8153
   71MOL0     H 9739   7.611   2.493  11.631  5.6800 -2.5079  5.3460
   71MOL0     H 9740   7.776   2.470  11.606  1.0231  2.1412  0.5082
   71MOL0     H 9741   7.565   2.383  11.419  0.3057 -0.8593 -1.3139
   71MOL0     H 9742   7.746   2.363  11.399  0.5373 -3.5077  1.2427
   71MOL0     H 9743   7.738   2.222  11.594  0.8188  0.6191 -0.3275
   71MOL0     H 9744   7.664   2.183  11.443  2.0850  3.0955 -1.8145
   71MOL0     H 9745   7.482   2.297  11.667  1.3348  0.8440 -0.3303
   71MOL0     H 9746   7.440   2.216  11.522  0.3218  2.5931  0.3613
   71MOL0     H 9747   7.605   2.161  11.885  1.0518 -2.3382  1.6963
   71MOL0     H 9748   7.718   1.927  11.978 -0.8646  2.4392 -0.3319
   71MOL0     H 9749   7.643   1.772  11.929  0.5245 -0.4607  3.4215
   71MOL0     H 9750   7.532   1.987  12.119  2.8424  0.0838 -0.8052
   71MOL0     H 9751   7.426   1.866  12.050 -0.8465  0.7559  1.8113
   71MOL0     H 9752   7.495   1.800  12.268 -0.9466  0.1404 -0.9353
   71MOL0     H 9753   7.522   1.687  12.141 -0.7612 -1.0545  0.9884
   71MOL0     H 9754   7.714   1.699  12.308  0.7963  0.1945  0.9396
   71MOL0     H 9755   7.783   1.734  12.157  3.1489  3.2545  1.0063
   71MOL0     H 9756   7.832   1.752  12.485  0.5271  0.5984  0.7025
   71MOL0     H 9757   7.833   1.671  12.722 -3.3721 -4.3631  6.5599
   71MOL0     H 9758   7.723   1.735  12.831  1.0844 -0.3062  1.2881
   71MOL0     H 9759   7.878   1.823  12.802  0.9439 -1.5208 -0.3540
   71MOL0     H 9760   7.644   1.899  13.168  0.2258 -1.0334 -0.5857
   71MOL0     H 9761   7.528   2.001  13.373  0.2411 -2.3210 -0.8096
   71MOL0     H 9762   7.439   2.159  13.515  0.4144  0.6623 -0.3863
   71MOL0     H 9763   7.427   2.306  13.414 -1.7825  1.3544 -1.2408
   71MOL0     H 9764   7.172   2.311  13.479 -0.3849  1.5394  1.3443
   71MOL0     H 9765   7.186   2.175  13.578 -0.4339  0.7847  0.6427
   71MOL0     H 9766   7.356   2.287  13.708 -0.7215 -1.2915 -0.4061
   71MOL0     H 9767   7.186   2.352  13.724 -0.0857 -1.3067  1.7084
   71MOL0     H 9768   7.250   2.527  13.569  1.3804 -2.4175 -2.1167
   71MOL0     H 9769   7.424   2.493  13.593  0.1916 -0.6955 -0.1837
   71MOL0     H 9770   7.394   2.522  13.847  1.6325 -0.1385 -1.5041
   71MOL0     H 9771   7.397   2.666  13.733 -1.0620  1.4469 -0.4139
   71MOL0     H 9772   7.147   2.558  13.872  0.4845 -1.3903 -2.4186
   71MOL0     H 9773   7.166   2.680  13.740  2.5726  1.1555 -1.4208
   71MOL0     H 9774   7.307   2.819  13.911  1.3879 -1.1545 -2.4552
   71MOL0     H 9775   7.262   2.686  14.020 -0.6305  1.4312 -0.0256
   71MOL0     H 9776   7.044   2.764  14.046  0.1853  4.8393  4.2370
   71MOL0     H 9777   7.044   2.857  13.891 -0.4446  1.1139  1.3470
   71MOL0     H 9778   7.261   2.214  13.108 -1.5540 -0.5306 -1.7780
   71MOL0     H 9779   7.385   2.113  12.900  1.0768 -0.2888 -0.1580
   71MOL0     H 9780   7.583   2.142  12.632  1.9012 -0.7306  2.0846
   71MOL0     H 9781   7.609   2.099  12.370  2.2698  2.9845  0.3517
   71MOL0     H 9782   7.456   3.156  11.513 -0.1109  2.3175 -0.0251
   71MOL0     H 9783   7.319   3.341  11.615  1.0844 -1.2359  2.0518
   71MOL0     H 9784   7.044   3.619  11.568 -0.0464 -0.3591 -0.9374
   71MOL0     H 9785   6.984   3.810  11.682 -0.3650  0.1908  2.7490
   71MOL0     H 9786   6.882   3.998  11.739 -0.6891 -2.9248  2.2091
   71MOL0     H 9787   6.802   3.956  11.590 -2.1418  2.6978 -0.4795
   71MOL0     H 9788   6.754   4.178  11.665 -0.4840  0.0471  0.1159
   71MOL0     H 9789   6.705   4.123  11.818  1.8637  0.8237 -0.4929
   71MOL0     H 9790   6.517   3.984  11.675 -1.5204  0.9533  0.8131
   71MOL0     H 9791   6.493   4.152  11.673  1.6893  2.1550 -2.6209
   71MOL0     H 9792   6.463   4.087  11.464 -0.1536  0.5573 -0.0857
   71MOL0     H 9793   6.611   3.999  11.457 -0.0156 -0.3513 -0.5127
   71MOL0     H 9794   6.710   4.425  11.382 -1.7806  0.6413 -1.5369
   71MOL0     H 9795   6.595   3.652  11.752 -0.0379 -1.0767 -1.7278
   71MOL0     H 9796   6.568   3.391  11.752  0.7693  2.4474 -0.5811
   71MOL0     H 9797   6.558   3.395  11.581 -0.0116 -3.7498 -0.2766
   71MOL0     H 9798   6.689   3.300  11.655 -1.3668 -1.5189 -0.4515
   72MOL0     O 9799   9.967  11.284   7.655  0.0728  0.2827  0.1815
   72MOL0     C 9800   9.850  11.251   7.678  0.2024 -0.1116  0.1456
   72MOL0     O 9801   9.791  11.143   7.606  0.2695  0.6576 -0.5565
   72MOL0     C 9802   9.858  11.033   7.558 -0.0521 -0.6785 -0.9619
   72MOL0     C 9803   9.825  10.980   7.437 -0.4304  1.1119  0.0200
   72MOL0     C 9804   9.882  10.856   7.392 -1.1646 -0.5337  0.4658
   72MOL0     C 9805   9.990  10.803   7.464 -0.3677  0.2197 -0.5654
   72MOL0     O 9806  10.052  10.690   7.428  0.6345  0.0185 -1.0384
   72MOL0     C 9807  10.011  10.618   7.322 -0.6345 -0.7793  0.3404
   72MOL0     C 9808  10.087  10.484   7.321 -0.5195  0.5520 -0.2266
   72MOL0     C 9809  10.106  10.412   7.454  0.1638  0.7780  0.6642
   72MOL0     C 9810   9.978  10.375   7.526 -0.1870 -0.6290  0.0247
   72MOL0     C 9811  10.017  10.316   7.658  0.3584 -0.8373 -0.4955
   72MOL0     C 9812   9.893  10.263   7.735 -0.7153 -0.5936  0.1778
   72MOL0     C 9813   9.946  10.156   7.835  0.3974  0.2215  0.3577
   72MOL0     C 9814   9.830  10.104   7.926 -0.4701  0.0422  0.3264
   72MOL0     N 9815   9.729  10.023   7.855 -0.4341  0.7035 -0.1026
   72MOL0     C 9816   9.732   9.889   7.854  0.2377  0.1970  0.8944
   72MOL0     C 9817   9.607   9.854   7.822 -0.5039 -0.7331 -0.6232
   72MOL0     C 9818   9.549   9.721   7.877 -0.2944 -0.5070  0.4025
   72MOL0     C 9819   9.496   9.632   7.761  0.8661  0.9174 -0.8189
   72MOL0     C 9820   9.449   9.499   7.829 -0.3331  0.3674  0.6352
   72MOL0     C 9821   9.412   9.403   7.727 -0.6104 -0.0199  0.1199
   72MOL0     O 9822   9.277   9.416   7.687  0.2601 -0.0256  0.1928
   72MOL0     C 9823   9.233   9.300   7.637  0.1577  0.8730  0.2946
   72MOL0     C 9824   9.104   9.259   7.674  0.8101 -0.3248 -0.1530
   72MOL0     C 9825   9.040   9.139   7.636 -0.0786 -0.6912  1.0087
   72MOL0     C 9826   8.902   9.100   7.695 -0.3495  0.3749  0.3000
   72MOL0     C 9827   9.105   9.057   7.540 -0.0097 -0.3851 -0.0870
   72MOL0     C 9828   9.043   8.951   7.469 -0.0299 -0.2774 -0.1717
   72MOL0     O 9829   8.905   8.949   7.466 -0.4681 -0.0403  0.1360
   72MOL0     C 9830   8.831   8.876   7.381  0.3779  1.2383 -1.0490
   72MOL0     C 9831   8.700   8.844   7.409  0.4473  0.0042 -1.2972
   72MOL0     C 9832   8.614   8.784   7.320  0.6882 -0.1879  0.0593
   72MOL0     C 9833   8.656   8.731   7.199 -0.4488 -1.0702  0.0885
   72MOL0     O 9834   8.588   8.669   7.103 -0.2997 -0.1587 -0.4619
   72MOL0     C 9835   8.543   8.772   7.018 -0.0042 -1.3578 -1.0593
   72MOL0     C 9836   8.414   8.729   6.943 -0.1022  0.6088 -0.8613
   72MOL0     C 9837   8.377   8.834   6.831  0.0504 -0.2323  0.2575
   72MOL0     C 9838   8.343   8.975   6.874 -0.7525  0.1205 -0.8154
   72MOL0     C 9839   8.194   8.998   6.877  0.7389  0.8637 -0.1481
   72MOL0     C 9840   8.163   9.116   6.955  0.6691  1.3928 -0.0362
   72MOL0     C 9841   8.028   9.112   7.027 -1.0805 -0.7075 -0.1385
   72MOL0     C 9842   7.915   9.110   6.915 -0.5152  0.3651  0.1811
   72MOL0    Cl 9843   7.904   9.248   6.800  0.2758 -0.1501  0.1369
   72MOL0     C 9844   8.787   8.751   7.166  0.3131 -0.6656  0.1082
   72MOL0     C 9845   8.876   8.821   7.252  0.3892  0.1336  0.2987
   72MOL0     O 9846   9.111   8.871   7.413 -0.7699  0.3098  0.4181
   72MOL0     C 9847   9.247   9.083   7.515 -0.8363  0.2279 -0.2989
   72MOL0     C 9848   9.303   9.204   7.552 -0.8295 -0.8569  0.6642
   72MOL0     N 9849   9.532   9.974   7.798 -0.6996  0.4372 -0.0564
   72MOL0     N 9850   9.607  10.074   7.825  0.7586  0.2700  0.2078
   72MOL0     C 9851  10.031  10.865   7.586 -0.3691  0.1304  0.0125
   72MOL0     C 9852   9.957  10.972   7.639 -0.2531 -0.7230  0.6715
   72MOL0     C 9853   9.775  11.327   7.778  0.2000 -0.3454 -0.1139
   72MOL0     C 9854   9.699  11.265   7.880 -0.7234 -0.1714  0.4323
   72MOL0     C 9855   9.607  11.335   7.956 -0.1315 -0.0217 -0.2698
   72MOL0     C 9856   9.605  11.466   7.955 -0.0818 -0.4451  0.7586
   72MOL0     O 9857   9.539  11.544   8.050 -0.1068  0.2988  0.4746
   72MOL0     C 9858   9.429  11.619   8.008 -0.4020 -0.1302  0.9617
   72MOL0     C 9859   9.309  11.585   8.098 -0.8713  1.2016 -0.0043
   72MOL0     C 9860   9.182  11.665   8.094  0.4607 -0.6544 -0.7342
   72MOL0     C 9861   9.093  11.658   7.973  0.4205  1.0866 -0.0355
   72MOL0     C 9862   9.075  11.521   7.917  0.5965  0.6851  0.1675
   72MOL0     C 9863   9.057  11.417   7.851 -0.1971 -0.0988  0.1572
   72MOL0     C 9864   9.686  11.530   7.859  0.4816  0.0168  0.0825
   72MOL0     C 9865   9.764  11.467   7.769 -0.7794  1.1665 -0.5916
   72MOL0     C 9866   9.839  11.543   7.663  0.0434 -0.3200  0.7771
   72MOL0     H 9867   9.748  11.034   7.383  0.3874  2.0572 -0.2314
   72MOL0     H 9868   9.837  10.802   7.309 -0.9438  0.0957 -0.0777
   72MOL0     H 9869  10.037  10.673   7.231  3.0950  0.2514  1.8354
   72MOL0     H 9870   9.902  10.613   7.329 -0.7143  1.2327  1.2293
   72MOL0     H 9871  10.045  10.418   7.245 -0.9796 -1.3250  1.5471
   72MOL0     H 9872  10.185  10.511   7.281  0.0813 -2.5945 -1.1587
   72MOL0     H 9873  10.155  10.316   7.432 -0.5446  0.2010  1.5198
   72MOL0     H 9874  10.158  10.478   7.524 -1.4471  1.6169  1.1159
   72MOL0     H 9875   9.925  10.467   7.552 -1.2698 -1.0452 -0.6514
   72MOL0     H 9876   9.912  10.312   7.466  0.6179 -2.0528  0.5943
   72MOL0     H 9877  10.071  10.385   7.723  0.9613 -3.1189  1.5976
   72MOL0     H 9878  10.085  10.231   7.645 -1.2565 -2.0444 -1.4974
   72MOL0     H 9879   9.835  10.342   7.783  0.0464 -0.6385  1.2182
   72MOL0     H 9880   9.831  10.205   7.666 -1.3897 -0.9870  1.0822
   72MOL0     H 9881  10.027  10.198   7.895  2.3773 -1.3926 -1.0310
   72MOL0     H 9882   9.988  10.069   7.782  2.2686  0.5487  1.2269
   72MOL0     H 9883   9.880  10.037   7.996 -0.2529 -0.5031 -0.3348
   72MOL0     H 9884   9.786  10.188   7.980  0.0803 -0.0275  0.8931
   72MOL0     H 9885   9.807   9.817   7.886  0.2455 -0.1617  0.1102
   72MOL0     H 9886   9.459   9.744   7.934 -1.5677  0.6696 -1.9340
   72MOL0     H 9887   9.626   9.665   7.930 -1.1340 -0.9879  1.1488
   72MOL0     H 9888   9.417   9.677   7.701 -0.8909  2.7802  2.5585
   72MOL0     H 9889   9.579   9.622   7.691 -0.8375  4.7758 -3.7607
   72MOL0     H 9890   9.518   9.467   7.907  0.8877  0.8224 -0.2351
   72MOL0     H 9891   9.372   9.526   7.902  2.2964  0.6640  3.5319
   72MOL0     H 9892   9.483   9.403   7.644 -0.8197 -2.5280 -0.1149
   72MOL0     H 9893   9.432   9.305   7.770 -2.5109 -0.8090 -0.6989
   72MOL0     H 9894   9.044   9.330   7.730  1.2117 -0.6226  0.6744
   72MOL0     H 9895   8.901   9.136   7.798  0.1101  1.3720 -0.0281
   72MOL0     H 9896   8.876   8.993   7.693 -0.5541  0.3144  2.8332
   72MOL0     H 9897   8.814   9.143   7.646  0.1994 -0.4944 -1.5216
   72MOL0     H 9898   8.647   8.869   7.501 -1.3922 -6.2240 -0.1970
   72MOL0     H 9899   8.511   8.774   7.351  1.2464 -0.7845  1.8867
   72MOL0     H 9900   8.524   8.866   7.070 -1.3021 -0.7575 -2.5483
   72MOL0     H 9901   8.619   8.802   6.945 -0.9670  1.2358 -1.0818
   72MOL0     H 9902   8.425   8.632   6.895 -2.4219 -0.4464  0.6059
   72MOL0     H 9903   8.331   8.710   7.012  1.9717 -0.1041  1.6249
   72MOL0     H 9904   8.294   8.800   6.768 -0.7159 -0.5093  1.3830
   72MOL0     H 9905   8.469   8.837   6.772  0.3363 -1.8417  0.5658
   72MOL0     H 9906   8.379   9.038   6.792  0.2815  1.0842  0.3379
   72MOL0     H 9907   8.386   9.007   6.969 -4.9840 -1.7618  2.0324
   72MOL0     H 9908   8.159   9.012   6.774 -3.3303 -1.1721  0.7879
   72MOL0     H 9909   8.141   8.908   6.910  1.8314  0.0335 -0.5805
   72MOL0     H 9910   8.164   9.203   6.889 -2.9622 -1.3618 -4.3226
   72MOL0     H 9911   8.242   9.128   7.031 -0.7834  0.0789  1.7787
   72MOL0     H 9912   8.013   9.200   7.091  1.0382  1.3088 -2.2200
   72MOL0     H 9913   8.018   9.026   7.094 -0.6192  1.0846  2.3670
   72MOL0     H 9914   7.821   9.105   6.971 -1.5634  0.7600 -1.4716
   72MOL0     H 9915   7.934   9.014   6.866  1.1693 -0.9792  3.1704
   72MOL0     H 9916   8.814   8.721   7.065 -0.7079 -1.2899  0.0093
   72MOL0     H 9917   8.975   8.841   7.213 -0.4515 -0.9425 -2.6558
   72MOL0     H 9918   9.315   9.020   7.459  0.3516 -1.2658  2.5988
   72MOL0     H 9919   9.410   9.204   7.535 -1.2162 -0.3763 -2.3260
   72MOL0     H 9920  10.130  10.834   7.617 -0.6650  0.0177  0.8883
   72MOL0     H 9921   9.990  11.026   7.727  0.0393  2.9848 -1.5212
   72MOL0     H 9922   9.717  11.158   7.881  1.9526  0.0116 -3.7129
   72MOL0     H 9923   9.536  11.273   8.011 -2.3864  2.0667 -0.6479
   72MOL0     H 9924   9.450  11.726   8.012  2.5717 -0.6503  1.6051
   72MOL0     H 9925   9.412  11.588   7.905  0.2235 -2.0235  1.3870
   72MOL0     H 9926   9.343  11.591   8.202  0.2373  1.3151 -0.3593
   72MOL0     H 9927   9.273  11.483   8.082  2.3068 -0.7177  3.4367
   72MOL0     H 9928   9.118  11.636   8.179  3.1885 -2.3421  0.9043
   72MOL0     H 9929   9.207  11.770   8.109  1.1021 -0.6162 -1.9728
   72MOL0     H 9930   9.114  11.723   7.887  3.3550 -2.3121 -2.1661
   72MOL0     H 9931   8.996  11.681   8.019  0.8523 -0.2890  1.6622
   72MOL0     H 9932   9.055  11.338   7.779  2.1865  0.0806 -0.2164
   72MOL0     H 9933   9.679  11.639   7.857 -0.3377 -0.0379 -1.1563
   72MOL0     H 9934   9.817  11.508   7.562 -2.7469 -0.1364  1.2405
   72MOL0     H 9935   9.806  11.647   7.674 -2.7665 -1.0166 -0.0760
   72MOL0     H 9936   9.946  11.540   7.684 -0.0484 -0.6473  1.2201
   73MOL0     O 9937   4.056   5.291  11.384 -0.1426  0.6757 -0.4499
   73MOL0     C 9938   4.161   5.340  11.423 -0.0506  1.0453 -0.2822
   73MOL0     O 9939   4.201   5.353  11.547  0.1199 -0.2736  0.3189
   73MOL0     C 9940   4.099   5.384  11.633  0.6305 -0.1790  0.5965
   73MOL0     C 9941   4.017   5.289  11.696  0.1780  0.0385  0.1565
   73MOL0     C 9942   3.946   5.333  11.806 -0.0447  0.4910 -0.0471
   73MOL0     C 9943   3.952   5.461  11.854  0.6075  0.3649  0.0796
   73MOL0     O 9944   3.879   5.492  11.964  0.6091  0.2162 -0.5109
   73MOL0     C 9945   3.910   5.608  12.043 -0.3996  0.7984 -0.5746
   73MOL0     C 9946   4.047   5.609  12.101  0.0044  0.1662 -0.6831
   73MOL0     C 9947   4.078   5.485  12.178 -0.1867  0.0677  0.5768
   73MOL0     C 9948   4.007   5.460  12.304  0.0474  0.3836 -0.5178
   73MOL0     C 9949   4.090   5.364  12.393  0.8851 -0.3118  0.1438
   73MOL0     C 9950   4.026   5.365  12.538 -0.1926 -0.2120 -1.3064
   73MOL0     C 9951   4.103   5.282  12.636 -0.6788  1.1202  0.0623
   73MOL0     C 9952   4.257   5.304  12.645  0.2372  0.1107 -0.3511
   73MOL0     N 9953   4.267   5.440  12.696 -0.5703  1.1561  0.7480
   73MOL0     C 9954   4.294   5.486  12.825 -1.0435  0.5096 -0.1868
   73MOL0     C 9955   4.320   5.618  12.816 -0.0842  0.0053  1.1435
   73MOL0     C 9956   4.327   5.717  12.930  0.1733  0.1787  0.7671
   73MOL0     C 9957   4.475   5.743  12.968 -0.5244  0.3477 -0.2304
   73MOL0     C 9958   4.487   5.755  13.116 -0.5967  0.7133  0.4364
   73MOL0     C 9959   4.415   5.880  13.178  1.1214  0.5006  0.5336
   73MOL0     O 9960   4.464   5.998  13.117  0.1828  0.7322  0.0905
   73MOL0     C 9961   4.366   6.086  13.096  0.2973 -0.1787  0.0642
   73MOL0     C 9962   4.313   6.176  13.191 -0.1702  0.0381 -0.1964
   73MOL0     C 9963   4.197   6.267  13.172  0.1431 -0.0974  0.3087
   73MOL0     C 9964   4.150   6.352  13.288  0.4541  0.2021 -0.0798
   73MOL0     C 9965   4.156   6.279  13.032 -0.4466 -0.5811 -0.0846
   73MOL0     C 9966   4.051   6.378  12.996 -0.2076 -0.1996  1.3246
   73MOL0     O 9967   3.946   6.401  13.078 -0.3944  0.1888  0.4119
   73MOL0     C 9968   3.875   6.514  13.050 -0.2084  0.4550 -0.8325
   73MOL0     C 9969   3.928   6.645  13.056 -0.5054  0.7790 -0.0503
   73MOL0     C 9970   3.855   6.764  13.034  0.1378 -0.5130 -0.5596
   73MOL0     C 9971   3.715   6.747  13.016  0.2570  0.6221 -0.4986
   73MOL0     O 9972   3.636   6.860  13.008 -0.0341  0.6504 -0.9771
   73MOL0     C 9973   3.617   6.927  13.137  0.0937 -0.6056  0.3034
   73MOL0     C 9974   3.473   6.946  13.157  0.2364  0.1027  0.1117
   73MOL0     C 9975   3.411   7.034  13.042 -0.0666  0.5290 -0.2553
   73MOL0     C 9976   3.258   7.037  13.035  0.0224  0.7887 -0.1753
   73MOL0     C 9977   3.211   7.125  12.917  0.0738  0.1802 -0.0445
   73MOL0     C 9978   3.056   7.137  12.922  0.5139 -0.0906 -0.0281
   73MOL0     C 9979   2.993   6.993  12.887  0.4787 -0.9816  0.5948
   73MOL0     C 9980   2.847   7.018  12.858  1.2465 -0.7632 -0.5508
   73MOL0    Cl 9981   2.752   6.878  12.902 -0.4626  0.2635  0.1146
   73MOL0     C 9982   3.659   6.615  12.996 -0.8572 -0.4539 -0.3005
   73MOL0     C 9983   3.741   6.502  13.012  0.4443 -0.7330  0.2892
   73MOL0     O 9984   4.071   6.434  12.887 -0.4855 -0.5173 -0.3822
   73MOL0     C 9985   4.219   6.196  12.931  0.2030 -0.1621 -0.3101
   73MOL0     C 9986   4.310   6.095  12.962 -0.6130 -0.2335 -0.1063
   73MOL0     N 9987   4.311   5.651  12.686 -0.4821  0.2368  0.5728
   73MOL0     N 9988   4.283   5.548  12.621  1.0556 -0.3607  0.6841
   73MOL0     C 9989   4.038   5.547  11.796 -0.3075 -0.6880  1.3405
   73MOL0     C 9990   4.115   5.510  11.680 -0.4923  1.3519  0.3483
   73MOL0     C 9991   4.255   5.371  11.310 -0.6762 -0.3874  0.5386
   73MOL0     C 9992   4.242   5.317  11.184  0.3952  0.3884  0.6500
   73MOL0     C 9993   4.342   5.326  11.089  0.4265 -0.2793  0.2720
   73MOL0     C 9994   4.447   5.419  11.109  0.0685 -0.6722 -0.5518
   73MOL0     O 9995   4.558   5.434  11.027 -0.0328  0.0577 -0.0662
   73MOL0     C 9996   4.619   5.312  10.970  0.1469  0.0551  0.4765
   73MOL0     C 9997   4.765   5.319  10.931 -0.6669  0.2389 -0.0102
   73MOL0     C 9998   4.816   5.170  10.901 -0.6266 -0.8503  0.4258
   73MOL0     C 9999   4.907   5.169  10.781  0.2184 -1.0311  0.6635
   73MOL0     C10000   4.968   5.036  10.759  0.2926 -0.0771  0.2060
   73MOL0     C10001   5.019   4.928  10.734 -0.3043 -0.7869  0.6826
   73MOL0     C10002   4.462   5.476  11.237  0.5134  0.0266  0.6209
   73MOL0     C10003   4.361   5.467  11.334 -0.1714  1.0468  0.2608
   73MOL0     C10004   4.391   5.550  11.447  0.0895  0.1685 -0.6553
   73MOL0     H10005   4.036   5.193  11.649  3.2531  0.5481  0.1507
   73MOL0     H10006   3.900   5.263  11.876 -0.4452  1.4292  0.6484
   73MOL0     H10007   3.849   5.593  12.132 -2.1181 -2.1646 -2.0813
   73MOL0     H10008   3.870   5.700  11.998  1.3543 -0.1283 -4.4675
   73MOL0     H10009   4.126   5.621  12.026  1.7423  2.7303  1.3735
   73MOL0     H10010   4.059   5.695  12.167  7.9499  0.7905 -1.9616
   73MOL0     H10011   4.065   5.389  12.128  3.2761 -1.0970  1.6260
   73MOL0     H10012   4.185   5.495  12.202  0.8294 -3.0728 -1.8988
   73MOL0     H10013   4.005   5.560  12.349 -0.5936 -0.1442  0.6785
   73MOL0     H10014   3.912   5.427  12.263 -0.2271  0.5680 -0.0427
   73MOL0     H10015   4.196   5.392  12.401  0.5796  0.5010  1.7583
   73MOL0     H10016   4.087   5.267  12.343  1.9518  0.5440 -1.6901
   73MOL0     H10017   4.035   5.467  12.576  0.2382 -1.3133  1.8667
   73MOL0     H10018   3.922   5.332  12.530 -0.3710 -0.4078  1.0582
   73MOL0     H10019   4.096   5.174  12.619  1.6996  0.6608  1.6479
   73MOL0     H10020   4.072   5.296  12.740  2.3545 -0.7473  1.3392
   73MOL0     H10021   4.308   5.242  12.719  3.3384  3.3136  0.4892
   73MOL0     H10022   4.309   5.288  12.550  1.5496  1.8037  0.0178
   73MOL0     H10023   4.291   5.424  12.914  0.9595  1.7274  0.7860
   73MOL0     H10024   4.274   5.668  13.012  0.3131 -2.2838 -0.5397
   73MOL0     H10025   4.269   5.809  12.916  2.8232  1.6740 -1.4645
   73MOL0     H10026   4.535   5.657  12.938 -1.6189  0.3848 -2.7340
   73MOL0     H10027   4.501   5.833  12.910 -1.6025 -0.8160 -2.6689
   73MOL0     H10028   4.450   5.666  13.168  3.0263  0.9047  3.6963
   73MOL0     H10029   4.594   5.762  13.137 -0.7743  1.8566  0.9864
   73MOL0     H10030   4.308   5.870  13.155  1.2954  1.4507 -0.8447
   73MOL0     H10031   4.419   5.858  13.285  0.7268 -2.8587 -0.0320
   73MOL0     H10032   4.363   6.172  13.288  1.3131 -1.7045 -0.9779
   73MOL0     H10033   4.218   6.329  13.371  0.4118 -0.5824 -0.2536
   73MOL0     H10034   4.044   6.329  13.303  0.2060  2.0109  1.3212
   73MOL0     H10035   4.168   6.457  13.261 -0.8575 -0.4581 -4.3578
   73MOL0     H10036   4.031   6.669  13.083 -1.0074  0.0105  2.9108
   73MOL0     H10037   3.893   6.866  13.043 -3.2476  0.8787 -0.5449
   73MOL0     H10038   3.659   6.866  13.218 -2.2216 -2.7810 -0.0105
   73MOL0     H10039   3.673   7.020  13.126 -1.5692  0.1669 -2.3948
   73MOL0     H10040   3.419   6.851  13.146 -1.0260  0.3086  3.3441
   73MOL0     H10041   3.457   6.987  13.257  4.3277 -1.9238  1.8596
   73MOL0     H10042   3.456   7.004  12.947  0.4452  2.2669 -0.5915
   73MOL0     H10043   3.436   7.140  13.055  0.4071  0.3565  0.2239
   73MOL0     H10044   3.230   7.085  13.129 -0.0995  2.5679 -1.0749
   73MOL0     H10045   3.217   6.936  13.027  1.3457  0.4050 -3.5761
   73MOL0     H10046   3.256   7.223  12.936  1.6101 -0.5318  0.1579
   73MOL0     H10047   3.234   7.100  12.813 -3.7973  4.4773 -2.3057
   73MOL0     H10048   3.023   7.200  12.838 -1.7905 -2.9274 -1.4187
   73MOL0     H10049   3.023   7.187  13.013 -0.3800  0.0483 -0.4162
   73MOL0     H10050   3.002   6.927  12.973 -3.1085  1.0493  2.7660
   73MOL0     H10051   3.042   6.956  12.796  0.5605  0.1766  0.1434
   73MOL0     H10052   2.829   7.035  12.751 -2.3632 -1.9666 -0.2850
   73MOL0     H10053   2.813   7.104  12.918  2.1929 -1.9555  1.8269
   73MOL0     H10054   3.551   6.606  12.984 -1.0754 -1.1712  1.7542
   73MOL0     H10055   3.694   6.405  13.001  0.4148 -0.8060  0.9865
   73MOL0     H10056   4.184   6.213  12.829  0.0775  4.8078  0.2932
   73MOL0     H10057   4.360   6.047  12.879  1.8444 -0.5342  1.4446
   73MOL0     H10058   4.059   5.647  11.833  0.9755 -1.5311  2.9763
   73MOL0     H10059   4.177   5.589  11.637  1.5709  0.4979  1.6304
   73MOL0     H10060   4.160   5.251  11.160  0.0629  1.8920 -3.1308
   73MOL0     H10061   4.319   5.257  11.008 -1.4065 -1.8018  1.9876
   73MOL0     H10062   4.625   5.235  11.047  2.3265 -0.5986 -0.2912
   73MOL0     H10063   4.561   5.295  10.878  2.2582  0.7214 -1.0680
   73MOL0     H10064   4.818   5.353  11.020  1.1634 -3.5633  0.5743
   73MOL0     H10065   4.776   5.383  10.843 -2.3065  0.3101 -0.1878
   73MOL0     H10066   4.872   5.137  10.989  2.5452 -1.5745 -1.6777
   73MOL0     H10067   4.731   5.105  10.879 -1.1301  0.1472 -0.7123
   73MOL0     H10068   4.987   5.243  10.787  1.9457 -2.8858  1.9185
   73MOL0     H10069   4.849   5.192  10.691  0.7462 -3.4807 -0.4045
   73MOL0     H10070   5.056   4.832  10.704  0.1670 -0.6982  0.9791
   73MOL0     H10071   4.545   5.542  11.262 -1.4344  2.3815  1.1687
   73MOL0     H10072   4.453   5.637  11.424  0.0796  1.2974  3.0485
   73MOL0     H10073   4.296   5.591  11.483  0.7724  0.0658  1.4073
   73MOL0     H10074   4.448   5.497  11.523  0.4426 -1.0954 -1.7544
   74MOL0     O10075   5.684   4.001   5.870 -0.2030 -0.1479 -0.6537
   74MOL0     C10076   5.700   3.940   5.766 -0.0392  0.1756 -0.1394
   74MOL0     O10077   5.706   4.001   5.651 -0.4488  0.6689  0.3292
   74MOL0     C10078   5.636   4.118   5.634  0.3295  0.0342 -0.4332
   74MOL0     C10079   5.525   4.168   5.709 -1.1989 -0.4754 -0.6508
   74MOL0     C10080   5.474   4.293   5.696 -0.2015  0.7280 -0.1386
   74MOL0     C10081   5.528   4.372   5.596 -0.7134  0.3920  0.0195
   74MOL0     O10082   5.477   4.490   5.554  0.2608 -0.0591 -0.8136
   74MOL0     C10083   5.333   4.520   5.573 -0.3443  0.2204  0.1108
   74MOL0     C10084   5.304   4.660   5.528  0.7667  0.6499 -0.8416
   74MOL0     C10085   5.283   4.747   5.651  0.7715 -0.5857  0.2461
   74MOL0     C10086   5.266   4.897   5.614  0.6184  0.7723 -1.0400
   74MOL0     C10087   5.234   4.975   5.746  0.5535 -0.1629  0.2665
   74MOL0     C10088   5.210   5.117   5.710  0.7707  0.2176  0.0045
   74MOL0     C10089   5.171   5.204   5.829 -0.4771  0.4968  0.4240
   74MOL0     C10090   5.150   5.349   5.794  0.0534  0.8286 -0.2350
   74MOL0     N10091   5.123   5.422   5.918 -0.1044  1.1213  0.1858
   74MOL0     C10092   5.203   5.518   5.977 -0.0565  0.2057 -1.0690
   74MOL0     C10093   5.114   5.575   6.072 -0.1180  0.7658 -0.9012
   74MOL0     C10094   5.157   5.670   6.186  0.6123 -0.5475  0.2738
   74MOL0     C10095   5.095   5.813   6.178 -0.5115  0.5776  0.3624
   74MOL0     C10096   5.175   5.901   6.081 -1.5406  0.9340 -0.8971
   74MOL0     C10097   5.319   5.940   6.135 -0.9888 -0.1058 -0.1581
   74MOL0     O10098   5.341   6.067   6.067 -0.1929 -0.5418  0.2306
   74MOL0     C10099   5.435   6.166   6.105 -0.6966  1.0678 -0.1966
   74MOL0     C10100   5.443   6.272   6.014 -0.4097  1.1455 -0.3186
   74MOL0     C10101   5.539   6.370   6.037 -0.4950 -0.6500 -0.2051
   74MOL0     C10102   5.540   6.478   5.931  0.1324  0.1872 -0.0755
   74MOL0     C10103   5.624   6.366   6.151 -0.9165  0.0114  0.7010
   74MOL0     C10104   5.729   6.467   6.184 -1.1919  1.0062 -0.2696
   74MOL0     O10105   5.706   6.602   6.170  0.2566  0.0106  0.5202
   74MOL0     C10106   5.800   6.691   6.205 -0.5047  0.2021  0.1760
   74MOL0     C10107   5.937   6.687   6.167  0.6614 -1.0587 -0.0622
   74MOL0     C10108   6.037   6.785   6.207 -0.6779 -0.1316 -0.1380
   74MOL0     C10109   5.983   6.880   6.307 -0.6464  0.4723  0.5950
   74MOL0     O10110   6.059   6.965   6.374 -0.0318  0.6599 -0.2275
   74MOL0     C10111   6.194   7.002   6.326  0.4660 -0.2614  0.0680
   74MOL0     C10112   6.307   6.929   6.401  0.5369 -0.7786  0.3340
   74MOL0     C10113   6.433   6.912   6.303 -0.4542  0.8509 -0.6162
   74MOL0     C10114   6.493   7.048   6.252  1.2175  0.8188  0.0661
   74MOL0     C10115   6.600   7.023   6.147 -0.4735  0.4111  0.5599
   74MOL0     C10116   6.732   6.984   6.211  0.4908 -0.3164 -0.7696
   74MOL0     C10117   6.852   7.002   6.123  0.4476 -0.2942 -0.2728
   74MOL0     C10118   6.983   6.975   6.205  0.4480 -0.1608  1.1086
   74MOL0    Cl10119   7.150   7.012   6.138 -0.2349  0.0924  0.3519
   74MOL0     C10120   5.847   6.873   6.343 -0.2859 -0.3080 -0.2874
   74MOL0     C10121   5.758   6.786   6.297 -0.8958 -0.3922  0.0797
   74MOL0     O10122   5.825   6.414   6.244  0.9529  0.5804  0.2178
   74MOL0     C10123   5.591   6.264   6.240 -0.6609  1.1087  0.0621
   74MOL0     C10124   5.516   6.161   6.219  0.2000 -0.3029  0.8369
   74MOL0     N10125   4.988   5.518   6.053 -0.1094  0.0478 -0.4408
   74MOL0     N10126   4.992   5.429   5.965 -0.4598 -0.5653  0.2214
   74MOL0     C10127   5.619   4.318   5.504  0.1457  0.5247  0.3168
   74MOL0     C10128   5.677   4.193   5.526 -0.0092  0.0401  0.6954
   74MOL0     C10129   5.726   3.792   5.771 -0.0468 -0.8401  1.0461
   74MOL0     C10130   5.768   3.733   5.642  1.0427  1.0334 -0.2825
   74MOL0     C10131   5.819   3.597   5.626  0.0922  1.2105 -0.4827
   74MOL0     C10132   5.819   3.526   5.745 -0.1860  0.0200  0.1940
   74MOL0     O10133   5.864   3.397   5.748  0.3334  0.0285 -0.3923
   74MOL0     C10134   5.953   3.354   5.646 -0.2195 -0.6019  0.3796
   74MOL0     C10135   6.027   3.215   5.683 -0.2113  0.0842 -1.0593
   74MOL0     C10136   6.174   3.226   5.641 -0.7096  0.4176 -0.0268
   74MOL0     C10137   6.186   3.196   5.492  0.3686  0.3778  1.0774
   74MOL0     C10138   6.151   3.303   5.397  0.8735 -0.2971 -0.7696
   74MOL0     C10139   6.093   3.385   5.324  0.9716 -0.0128  0.3568
   74MOL0     C10140   5.760   3.578   5.868 -0.0084  0.4143  0.7257
   74MOL0     C10141   5.715   3.709   5.882  1.1427 -0.1543 -0.9897
   74MOL0     C10142   5.661   3.764   6.021  0.2140 -0.2563 -0.6815
   74MOL0     H10143   5.484   4.121   5.798 -3.2006  0.6339 -0.9485
   74MOL0     H10144   5.403   4.335   5.767 -0.2729 -0.5274  0.5675
   74MOL0     H10145   5.312   4.500   5.678 -0.0012  2.1668  0.5898
   74MOL0     H10146   5.280   4.447   5.511 -0.1162 -0.9324  1.2500
   74MOL0     H10147   5.393   4.705   5.483  0.3487  2.8900  0.4059
   74MOL0     H10148   5.225   4.664   5.453 -0.1202  4.8993  0.0668
   74MOL0     H10149   5.193   4.714   5.704  0.6481  0.7565  0.9150
   74MOL0     H10150   5.373   4.730   5.711  2.5630 -0.6703 -2.2928
   74MOL0     H10151   5.355   4.942   5.570 -0.4922  4.8277  0.3591
   74MOL0     H10152   5.178   4.919   5.552  0.8191  0.4219 -1.4481
   74MOL0     H10153   5.313   4.986   5.821 -1.1332  0.8416  1.9562
   74MOL0     H10154   5.151   4.929   5.800  0.0300  0.0433 -0.3416
   74MOL0     H10155   5.300   5.150   5.658 -0.5502 -0.4865 -2.9513
   74MOL0     H10156   5.134   5.115   5.630  0.6086 -1.7772  0.1507
   74MOL0     H10157   5.261   5.180   5.887  0.7446  0.0267 -1.5687
   74MOL0     H10158   5.077   5.171   5.875 -1.5300  0.7564 -1.4208
   74MOL0     H10159   5.251   5.373   5.758  0.1757 -1.4678 -1.6273
   74MOL0     H10160   5.073   5.368   5.718 -1.4361 -2.4663  0.3089
   74MOL0     H10161   5.309   5.543   5.973  0.5292  0.6890  5.7440
   74MOL0     H10162   5.266   5.678   6.174  0.5679 -1.1298 -0.6659
   74MOL0     H10163   5.144   5.626   6.285  3.2471  0.2963  1.1044
   74MOL0     H10164   4.995   5.806   6.135 -0.0518  1.3593 -0.9106
   74MOL0     H10165   5.101   5.858   6.277  2.8448 -1.5826  1.3252
   74MOL0     H10166   5.183   5.856   5.982 -1.3524 -0.1856 -0.3947
   74MOL0     H10167   5.116   5.991   6.060 -2.9075 -0.0405 -1.3605
   74MOL0     H10168   5.308   5.949   6.243 -2.3634 -1.3217 -0.1619
   74MOL0     H10169   5.395   5.864   6.112 -2.1087 -0.8022 -1.8381
   74MOL0     H10170   5.382   6.259   5.925  0.4905 -0.4960 -0.7308
   74MOL0     H10171   5.623   6.549   5.939 -0.9312  1.3213  1.8241
   74MOL0     H10172   5.453   6.544   5.940  0.1341  0.1435  0.2465
   74MOL0     H10173   5.545   6.425   5.835 -4.3823 -0.5197 -0.1334
   74MOL0     H10174   5.958   6.613   6.091  0.2339 -1.8327  0.5522
   74MOL0     H10175   6.134   6.793   6.159 -0.9156 -1.9071 -0.9740
   74MOL0     H10176   6.197   6.989   6.218  0.1933  2.2001 -0.3079
   74MOL0     H10177   6.206   7.109   6.350 -0.4728 -0.5863  2.2708
   74MOL0     H10178   6.332   6.984   6.492 -0.0897 -1.5862  1.0166
   74MOL0     H10179   6.275   6.834   6.447 -4.5878  0.7679  0.6017
   74MOL0     H10180   6.401   6.851   6.218 -2.7264 -4.4167  3.4101
   74MOL0     H10181   6.504   6.848   6.356  0.2510  2.7785  0.8863
   74MOL0     H10182   6.527   7.107   6.338  2.1917 -0.0394  0.2929
   74MOL0     H10183   6.410   7.099   6.202  0.2863 -1.4683 -0.8365
   74MOL0     H10184   6.581   6.941   6.079  2.3147 -1.9871  2.4125
   74MOL0     H10185   6.615   7.115   6.090 -1.3412  0.4650  0.4005
   74MOL0     H10186   6.706   6.886   6.252 -2.3870 -0.0306 -1.7271
   74MOL0     H10187   6.743   7.058   6.290  1.2946  0.2781 -1.4120
   74MOL0     H10188   6.851   7.098   6.071  0.3027  0.6815  1.4609
   74MOL0     H10189   6.847   6.926   6.044 -0.1961 -0.8231  0.2624
   74MOL0     H10190   6.986   6.866   6.218  3.4820 -0.0787  1.7631
   74MOL0     H10191   6.982   7.031   6.299 -0.5101  1.0853  0.3810
   74MOL0     H10192   5.810   6.948   6.412 -1.5315  1.4094 -2.7139
   74MOL0     H10193   5.653   6.778   6.325 -1.1155 -3.4326 -1.2767
   74MOL0     H10194   5.646   6.262   6.333 -4.2487  0.9195  2.3505
   74MOL0     H10195   5.502   6.074   6.283  3.3310 -1.9505 -0.5308
   74MOL0     H10196   5.659   4.375   5.420 -0.1492  2.5440  1.4705
   74MOL0     H10197   5.749   4.165   5.450 -3.2057 -2.0445 -1.8221
   74MOL0     H10198   5.747   3.788   5.551 -1.4720  0.4641 -0.1334
   74MOL0     H10199   5.851   3.559   5.530 -1.0225 -1.6713  0.1638
   74MOL0     H10200   5.901   3.342   5.550  1.5209  1.1201 -0.8470
   74MOL0     H10201   6.022   3.436   5.626  0.8320 -1.3054  1.0080
   74MOL0     H10202   5.970   3.134   5.636 -1.0424  1.2017 -2.0425
   74MOL0     H10203   6.029   3.211   5.792  0.1869  0.2808 -1.0571
   74MOL0     H10204   6.213   3.323   5.671  1.4244 -0.2304 -0.5539
   74MOL0     H10205   6.226   3.139   5.683 -0.0594  0.4629 -0.7157
   74MOL0     H10206   6.128   3.104   5.476  2.8715 -1.5286  2.2907
   74MOL0     H10207   6.286   3.159   5.468 -1.3727 -2.7333 -2.4964
   74MOL0     H10208   6.059   3.470   5.268 -1.7649 -1.4374 -0.3717
   74MOL0     H10209   5.758   3.529   5.965  0.0106 -0.0184  0.5110
   74MOL0     H10210   5.587   3.844   6.007 -1.4566 -2.0088 -2.6904
   74MOL0     H10211   5.603   3.683   6.068 -2.7785  0.8254 -2.2052
   74MOL0     H10212   5.743   3.813   6.073  0.4385 -1.0661 -0.2603
   75MOL0     O10213   0.870   0.146   0.212  0.3952 -0.3801  0.7419
   75MOL0     C10214   0.767   0.200   0.156 -0.4065  0.3203  0.6140
   75MOL0     O10215   0.643   0.213   0.211 -0.4640  0.1551 -0.8544
   75MOL0     C10216   0.628   0.203   0.346  0.9961 -1.1810 -1.3016
   75MOL0     C10217   0.507   0.164   0.399  0.7396  0.1805 -0.4906
   75MOL0     C10218   0.478   0.167   0.539  0.4990 -0.0425  0.8831
   75MOL0     C10219   0.572   0.210   0.625 -0.2577 -0.2534 -0.1038
   75MOL0     O10220   0.528   0.208   0.756 -0.1197  0.1620  0.5643
   75MOL0     C10221   0.601   0.119   0.847  0.6929 -0.3239  0.3114
   75MOL0     C10222   0.544   0.142   0.989 -0.4128  1.0728 -0.7774
   75MOL0     C10223   0.393   0.129   1.011  0.2864 -0.1666  0.3008
   75MOL0     C10224   0.362   0.142   1.160  1.0010  0.0788  0.6978
   75MOL0     C10225   0.212   0.102   1.182  1.1157  0.0702 -0.4052
   75MOL0     C10226   0.109   0.212   1.150  1.3575  0.1598  0.4664
   75MOL0     C10227  -0.030   0.194   1.214 -0.1829  0.0057 -0.4869
   75MOL0     C10228  -0.108   0.082   1.140 -0.1670  0.4151  0.0824
   75MOL0     N10229  -0.067  -0.054   1.158 -0.1264  0.3532 -0.1100
   75MOL0     C10230  -0.042  -0.118   1.278 -0.1929 -0.5008 -0.8818
   75MOL0     C10231   0.017  -0.242   1.251  0.9390 -0.8339 -0.2467
   75MOL0     C10232   0.039  -0.358   1.345 -0.4414  0.0463 -0.1930
   75MOL0     C10233  -0.079  -0.448   1.374  0.6879  0.4050  0.3773
   75MOL0     C10234  -0.030  -0.594   1.419 -0.3182  0.6269 -0.4711
   75MOL0     C10235  -0.151  -0.674   1.482 -0.2262 -0.3406  0.7642
   75MOL0     O10236  -0.246  -0.687   1.390  0.6944  0.7631 -0.2599
   75MOL0     C10237  -0.351  -0.775   1.407 -0.3006 -0.2275 -0.0121
   75MOL0     C10238  -0.402  -0.809   1.533 -0.3641 -0.0226  0.6373
   75MOL0     C10239  -0.499  -0.911   1.542 -0.3011 -0.6165 -0.2602
   75MOL0     C10240  -0.551  -0.944   1.686 -0.3410  0.3871  0.5858
   75MOL0     C10241  -0.543  -0.979   1.433 -0.3701 -1.1391 -0.0520
   75MOL0     C10242  -0.646  -1.093   1.450  0.9012 -0.3904  0.1308
   75MOL0     O10243  -0.726  -1.119   1.338  0.1342 -0.1720 -0.4909
   75MOL0     C10244  -0.839  -1.206   1.359  0.0506 -0.4355  0.4205
   75MOL0     C10245  -0.855  -1.302   1.258  0.6515 -0.4229 -0.3582
   75MOL0     C10246  -0.953  -1.402   1.277  0.1103  0.4116 -0.0285
   75MOL0     C10247  -1.046  -1.403   1.389  0.0620 -0.0878 -0.3291
   75MOL0     O10248  -1.142  -1.501   1.424 -0.2945  0.2886  0.1748
   75MOL0     C10249  -1.209  -1.583   1.331 -0.8457 -1.1319 -0.0267
   75MOL0     C10250  -1.270  -1.491   1.220 -0.0619  0.3776  0.8192
   75MOL0     C10251  -1.393  -1.543   1.152  0.6938  0.0544 -1.3095
   75MOL0     C10252  -1.386  -1.676   1.067 -0.2821 -0.5265 -0.5126
   75MOL0     C10253  -1.520  -1.716   1.004 -0.6638 -0.3680 -1.0335
   75MOL0     C10254  -1.505  -1.846   0.919 -0.3050 -0.8628 -0.1023
   75MOL0     C10255  -1.399  -1.837   0.812 -0.6687  0.1392 -0.6377
   75MOL0     C10256  -1.409  -1.709   0.726 -0.3808 -0.4735 -0.1559
   75MOL0    Cl10257  -1.274  -1.721   0.602  0.2897 -0.0536  0.4763
   75MOL0     C10258  -1.029  -1.289   1.484  0.3636 -0.4402 -0.4403
   75MOL0     C10259  -0.926  -1.197   1.474 -0.5597  0.2932  0.7882
   75MOL0     O10260  -0.653  -1.160   1.545 -0.0153 -0.2115 -0.5283
   75MOL0     C10261  -0.493  -0.937   1.304  0.6745 -0.6426  0.3675
   75MOL0     C10262  -0.393  -0.840   1.288  0.3566  0.1204 -0.3128
   75MOL0     N10263   0.033  -0.251   1.115  0.4420 -0.0408  0.1336
   75MOL0     N10264  -0.017  -0.143   1.069 -0.3038  0.5815 -1.1008
   75MOL0     C10265   0.694   0.253   0.581 -0.8401  0.6143  0.9016
   75MOL0     C10266   0.725   0.247   0.445 -0.1828  0.7449  0.9663
   75MOL0     C10267   0.778   0.236   0.017  0.1504  0.5218 -0.0839
   75MOL0     C10268   0.701   0.165  -0.079  0.9499 -0.3567  0.0984
   75MOL0     C10269   0.719   0.183  -0.219  0.2583 -0.3498 -0.7596
   75MOL0     C10270   0.816   0.271  -0.263 -0.1440 -1.0273  0.0599
   75MOL0     O10271   0.849   0.300  -0.388  0.3916  0.2894 -0.6720
   75MOL0     C10272   0.766   0.263  -0.492  0.2276 -0.2405  0.5230
   75MOL0     C10273   0.843   0.246  -0.625 -1.0067 -0.1978 -0.2408
   75MOL0     C10274   0.957   0.139  -0.627 -0.1326 -0.2340  0.9369
   75MOL0     C10275   0.961   0.056  -0.757  1.0346  0.5229  0.5001
   75MOL0     C10276   0.995   0.148  -0.871 -0.0684  1.1971 -0.2902
   75MOL0     C10277   1.009   0.219  -0.963 -1.0709 -1.1405  0.3426
   75MOL0     C10278   0.877   0.351  -0.164 -0.8409  0.1871  0.7154
   75MOL0     C10279   0.860   0.334  -0.022 -0.1383  0.6613 -0.0757
   75MOL0     C10280   0.910   0.439   0.068 -0.1956  0.4712 -0.1283
   75MOL0     H10281   0.423   0.136   0.336  0.6496 -0.2000 -0.2077
   75MOL0     H10282   0.376   0.137   0.563 -0.2154 -0.0317 -1.7749
   75MOL0     H10283   0.708   0.139   0.852  0.3800  1.5628  0.3646
   75MOL0     H10284   0.601   0.011   0.831  1.9489 -0.4775  1.2325
   75MOL0     H10285   0.592   0.074   1.060  0.3033  1.1902 -1.1389
   75MOL0     H10286   0.568   0.244   1.020 -0.5492  0.8629  0.0431
   75MOL0     H10287   0.340   0.202   0.949  3.4322  0.5565 -1.7232
   75MOL0     H10288   0.370   0.026   0.982  1.3806 -0.3011 -0.1312
   75MOL0     H10289   0.427   0.081   1.222 -1.2135 -0.6097  2.5024
   75MOL0     H10290   0.382   0.244   1.196 -2.1223  1.1520 -0.2221
   75MOL0     H10291   0.189   0.093   1.289 -1.7415 -0.4174 -0.9815
   75MOL0     H10292   0.182   0.009   1.134 -2.6650 -1.2604  3.8039
   75MOL0     H10293   0.152   0.298   1.202  1.2420  0.2631  0.3919
   75MOL0     H10294   0.105   0.227   1.041  1.4329  4.0743  0.8812
   75MOL0     H10295  -0.080   0.288   1.190 -3.1728 -2.0018 -2.7418
   75MOL0     H10296  -0.028   0.185   1.323 -3.3364 -1.1855 -0.4168
   75MOL0     H10297  -0.209   0.083   1.182 -0.6514 -2.3217 -0.8590
   75MOL0     H10298  -0.128   0.115   1.038  0.1822  1.9434  0.4733
   75MOL0     H10299  -0.067  -0.082   1.378 -1.4282 -0.2817 -1.2501
   75MOL0     H10300   0.074  -0.323   1.443  0.3885 -1.4006  0.0534
   75MOL0     H10301   0.119  -0.418   1.300  2.7625  3.4887  0.3889
   75MOL0     H10302  -0.131  -0.394   1.453  3.5938  0.1245  2.6211
   75MOL0     H10303  -0.134  -0.472   1.282  3.4595 -1.6878 -0.8620
   75MOL0     H10304   0.013  -0.648   1.334  0.6386  0.5550  0.0531
   75MOL0     H10305   0.048  -0.578   1.494 -1.4074 -0.5101  0.9842
   75MOL0     H10306  -0.120  -0.770   1.524  0.2401  0.4766  2.3588
   75MOL0     H10307  -0.189  -0.621   1.570  0.5949  0.0081  0.9142
   75MOL0     H10308  -0.374  -0.753   1.622 -1.5480 -1.8883  2.2458
   75MOL0     H10309  -0.556  -0.852   1.746 -1.0018  0.7793 -0.0526
   75MOL0     H10310  -0.499  -1.021   1.744 -2.1538 -3.1101 -2.1150
   75MOL0     H10311  -0.655  -0.973   1.672  0.1984 -0.6636 -1.6358
   75MOL0     H10312  -0.802  -1.298   1.164 -1.6325 -1.7449 -1.8029
   75MOL0     H10313  -0.973  -1.480   1.205 -0.1631  0.2792  0.1886
   75MOL0     H10314  -1.138  -1.651   1.284  0.7308 -0.3142  1.0945
   75MOL0     H10315  -1.298  -1.631   1.372 -1.0023  0.2946  1.4212
   75MOL0     H10316  -1.300  -1.402   1.276  0.5280 -0.6947  2.9628
   75MOL0     H10317  -1.191  -1.461   1.151 -1.2681  1.2352 -0.2247
   75MOL0     H10318  -1.426  -1.463   1.085 -0.9342 -0.3574 -1.0390
   75MOL0     H10319  -1.462  -1.553   1.236  0.5197  0.7805 -1.3570
   75MOL0     H10320  -1.346  -1.753   1.133  1.3877  1.0737  0.4395
   75MOL0     H10321  -1.314  -1.658   0.987  2.2378  1.6854  1.9941
   75MOL0     H10322  -1.601  -1.736   1.076  0.1703  2.0517  0.7354
   75MOL0     H10323  -1.547  -1.623   0.954 -0.6805  1.1851  1.6558
   75MOL0     H10324  -1.599  -1.866   0.867 -1.0962  0.7007  0.6472
   75MOL0     H10325  -1.491  -1.929   0.990 -0.8723 -0.5702  0.3614
   75MOL0     H10326  -1.408  -1.935   0.765 -2.6159  0.2217 -0.4812
   75MOL0     H10327  -1.299  -1.838   0.859  0.3470  0.6264 -2.6722
   75MOL0     H10328  -1.396  -1.613   0.777  0.0072 -1.7257  2.2362
   75MOL0     H10329  -1.503  -1.704   0.670  1.4397 -1.9927 -3.6420
   75MOL0     H10330  -1.098  -1.274   1.566 -1.1902  0.2537 -1.8059
   75MOL0     H10331  -0.903  -1.117   1.544  2.9161 -1.5137  1.9876
   75MOL0     H10332  -0.519  -0.999   1.219  1.2875  1.0545 -1.1285
   75MOL0     H10333  -0.337  -0.803   1.203  1.1713  0.9603  0.5571
   75MOL0     H10334   0.775   0.283   0.647  3.7594 -3.2563 -2.2996
   75MOL0     H10335   0.821   0.293   0.420 -0.2105  0.3171  0.0138
   75MOL0     H10336   0.626   0.094  -0.043  0.1343 -0.6485 -2.0366
   75MOL0     H10337   0.653   0.116  -0.275 -0.6311  1.4756 -2.0208
   75MOL0     H10338   0.704   0.176  -0.468  1.0140 -0.8047  0.5223
   75MOL0     H10339   0.700   0.346  -0.519  0.1882  0.6184  3.0569
   75MOL0     H10340   0.887   0.344  -0.642 -0.5205 -0.6325 -1.6620
   75MOL0     H10341   0.764   0.237  -0.701 -4.9101  1.8489  3.1836
   75MOL0     H10342   1.059   0.178  -0.622  1.2095 -3.1083 -1.1211
   75MOL0     H10343   0.958   0.059  -0.552  0.0188 -0.6965  0.4384
   75MOL0     H10344   0.866   0.005  -0.775 -0.3208  3.2205 -0.5133
   75MOL0     H10345   1.037  -0.022  -0.747  0.6785  0.3163  1.7868
   75MOL0     H10346   1.002   0.309  -1.021 -0.0792 -0.2585  1.5245
   75MOL0     H10347   0.934   0.433  -0.205 -1.9801  1.4052  1.4620
   75MOL0     H10348   0.933   0.530   0.013 -2.7383 -0.5547 -3.2190
   75MOL0     H10349   0.843   0.455   0.153  1.0135  0.7013  0.8021
   75MOL0     H10350   1.004   0.402   0.111 -0.7335 -0.7655  0.0229
   76MOL0     O10351  11.571   1.466   3.769  0.1868  0.9144  0.8723
   76MOL0     C10352  11.664   1.401   3.805 -0.5055 -0.4244 -0.4114
   76MOL0     O10353  11.686   1.372   3.939 -0.2592  0.4321 -0.0178
   76MOL0     C10354  11.637   1.461   4.025 -0.1996 -0.0817  1.0824
   76MOL0     C10355  11.674   1.596   4.003  0.5530 -0.0905  0.4587
   76MOL0     C10356  11.666   1.685   4.111 -0.2184 -0.3043  0.2856
   76MOL0     C10357  11.613   1.649   4.228 -0.1351 -0.0452  0.4898
   76MOL0     O10358  11.595   1.754   4.319  0.5663  0.6172  0.0258
   76MOL0     C10359  11.523   1.715   4.437  1.2059 -1.4342  0.2806
   76MOL0     C10360  11.486   1.846   4.506 -0.2453 -0.1265  0.0910
   76MOL0     C10361  11.574   1.969   4.494  0.0406 -0.9010 -0.0866
   76MOL0     C10362  11.555   2.083   4.594  0.0545 -0.2126  0.7436
   76MOL0     C10363  11.669   2.178   4.591 -0.2685  0.0499 -0.4597
   76MOL0     C10364  11.629   2.321   4.640 -1.3053  0.5574  0.2027
   76MOL0     C10365  11.572   2.315   4.792  0.1128  0.0622  1.1595
   76MOL0     C10366  11.632   2.209   4.892  0.0555 -0.6050 -0.0660
   76MOL0     N10367  11.638   2.255   5.036  0.8643  0.0621 -0.5570
   76MOL0     C10368  11.535   2.240   5.138 -0.7233  0.0391  0.3595
   76MOL0     C10369  11.602   2.282   5.245 -0.3810 -0.1473 -0.2636
   76MOL0     C10370  11.540   2.274   5.383  0.7376  0.6225  0.1988
   76MOL0     C10371  11.438   2.386   5.414 -0.7957  0.2766 -0.1471
   76MOL0     C10372  11.502   2.529   5.405 -0.7336 -0.3432  0.8386
   76MOL0     C10373  11.608   2.548   5.514 -0.2825  0.6877  0.1038
   76MOL0     O10374  11.652   2.682   5.500  0.2815 -0.2347  0.5839
   76MOL0     C10375  11.590   2.796   5.563 -0.2736 -0.7631 -0.6304
   76MOL0     C10376  11.465   2.793   5.619  0.0827  0.1636  0.0748
   76MOL0     C10377  11.398   2.911   5.668 -0.6676  0.5933  1.0369
   76MOL0     C10378  11.257   2.901   5.713 -0.1955 -0.3562 -0.0596
   76MOL0     C10379  11.474   3.036   5.651  0.1432 -0.2817 -1.0480
   76MOL0     C10380  11.419   3.176   5.692 -0.4258  0.2646 -0.1293
   76MOL0     O10381  11.284   3.201   5.678 -0.1752 -0.1819  0.1899
   76MOL0     C10382  11.233   3.336   5.678  0.1273  0.1267 -0.2021
   76MOL0     C10383  11.263   3.428   5.776 -0.9113  0.9069 -0.8028
   76MOL0     C10384  11.196   3.549   5.762  1.3875  0.1710 -0.4360
   76MOL0     C10385  11.101   3.581   5.664 -0.0156  0.1218  0.1073
   76MOL0     O10386  11.040   3.704   5.661  0.2914 -0.4459  0.1185
   76MOL0     C10387  10.937   3.736   5.566 -0.9085  0.1345  1.2280
   76MOL0     C10388  10.891   3.887   5.576  0.1065 -0.1690 -0.1789
   76MOL0     C10389  10.752   3.918   5.517 -0.4946 -1.1480  0.3397
   76MOL0     C10390  10.624   3.878   5.600  0.2220 -0.5971  1.2728
   76MOL0     C10391  10.583   3.973   5.719 -0.7189 -0.8160  0.0316
   76MOL0     C10392  10.446   3.939   5.783  0.2701 -0.3807  1.2055
   76MOL0     C10393  10.331   4.016   5.701 -1.0331 -0.0246 -0.4866
   76MOL0     C10394  10.202   4.015   5.772  0.2874  0.0121 -0.6368
   76MOL0    Cl10395  10.210   4.110   5.929  0.2656 -0.1281  0.3624
   76MOL0     C10396  11.082   3.485   5.561 -0.5895 -0.3487  0.3450
   76MOL0     C10397  11.137   3.365   5.579 -0.2559  0.7078  0.2220
   76MOL0     O10398  11.498   3.266   5.714 -0.3142 -0.6377  0.6752
   76MOL0     C10399  11.603   3.027   5.598 -0.1390 -0.0744 -0.0302
   76MOL0     C10400  11.666   2.913   5.570  0.0549  0.6352  0.1854
   76MOL0     N10401  11.728   2.331   5.215  0.8017  0.6793  0.4754
   76MOL0     N10402  11.745   2.315   5.088 -0.8024  0.3485  0.1229
   76MOL0     C10403  11.580   1.516   4.252 -0.0279  0.1638 -0.1221
   76MOL0     C10404  11.587   1.425   4.153 -0.4735  0.0241  0.1549
   76MOL0     C10405  11.734   1.321   3.699 -0.0593  0.3443  0.4301
   76MOL0     C10406  11.775   1.189   3.733 -0.3355 -0.2873 -0.1154
   76MOL0     C10407  11.831   1.108   3.637 -0.4687  0.0006 -0.1834
   76MOL0     C10408  11.871   1.149   3.512 -0.2637 -0.4685 -0.2619
   76MOL0     O10409  11.937   1.061   3.428 -0.4068  0.0423 -0.8094
   76MOL0     C10410  11.965   1.086   3.290 -0.4101 -0.6486  0.3741
   76MOL0     C10411  12.100   1.148   3.260 -0.3288  0.0629 -0.2784
   76MOL0     C10412  12.208   1.102   3.354  0.9270  0.1772 -0.8178
   76MOL0     C10413  12.349   1.116   3.303 -0.5859  0.0800 -0.6195
   76MOL0     C10414  12.445   1.145   3.414 -0.0665 -0.4153 -0.3218
   76MOL0     C10415  12.531   1.171   3.501  0.6289 -0.0027 -0.8687
   76MOL0     C10416  11.847   1.286   3.479  0.5333 -1.1250 -0.0174
   76MOL0     C10417  11.778   1.372   3.571  0.0500  0.6024 -0.3915
   76MOL0     C10418  11.734   1.507   3.528 -1.2538 -0.0802  0.0167
   76MOL0     H10419  11.733   1.620   3.915 -1.0170 -2.3809 -1.3559
   76MOL0     H10420  11.710   1.780   4.084  2.7596 -1.9738 -1.1614
   76MOL0     H10421  11.588   1.665   4.509  1.5132  2.6022  3.1636
   76MOL0     H10422  11.433   1.656   4.419  0.3550 -0.7790  2.1826
   76MOL0     H10423  11.391   1.877   4.461  0.1517  2.2154  0.6948
   76MOL0     H10424  11.477   1.811   4.610 -0.1785 -0.9255 -0.1688
   76MOL0     H10425  11.674   1.929   4.514  0.3179  0.3172  1.1240
   76MOL0     H10426  11.557   2.019   4.398  1.4812  1.3675  0.7518
   76MOL0     H10427  11.464   2.132   4.558 -0.8267 -0.1969  2.8258
   76MOL0     H10428  11.527   2.044   4.692  1.7838 -2.8637  0.2865
   76MOL0     H10429  11.698   2.202   4.488 -3.1939  3.2979 -0.7158
   76MOL0     H10430  11.754   2.138   4.648 -1.1773  1.1393  1.7772
   76MOL0     H10431  11.720   2.380   4.638 -0.5318 -0.5909 -1.8672
   76MOL0     H10432  11.553   2.374   4.582 -0.5940 -1.7335 -3.1619
   76MOL0     H10433  11.465   2.292   4.783  0.2877 -0.0464 -0.9772
   76MOL0     H10434  11.582   2.414   4.837 -1.9830 -0.1799  2.3009
   76MOL0     H10435  11.573   2.118   4.899 -1.0772  0.0539 -0.7252
   76MOL0     H10436  11.735   2.194   4.858  0.7284  1.0345  1.1262
   76MOL0     H10437  11.429   2.224   5.122 -1.1348  1.6902  1.1622
   76MOL0     H10438  11.620   2.275   5.458  1.3018 -0.0042 -0.3762
   76MOL0     H10439  11.489   2.178   5.395  2.2029 -0.1298  0.7529
   76MOL0     H10440  11.353   2.396   5.344  1.4287  2.7097 -2.7504
   76MOL0     H10441  11.398   2.362   5.513  0.3435 -3.3669 -0.4130
   76MOL0     H10442  11.547   2.542   5.306 -1.3677 -1.6245  0.3572
   76MOL0     H10443  11.429   2.609   5.421 -3.5724 -2.0389 -2.2699
   76MOL0     H10444  11.580   2.537   5.619 -0.4888 -1.1325 -0.0967
   76MOL0     H10445  11.699   2.490   5.496  1.4002  2.1095  3.3216
   76MOL0     H10446  11.400   2.707   5.627 -1.0752  1.1293  1.6378
   76MOL0     H10447  11.195   2.936   5.631 -0.9207  4.4612  2.2318
   76MOL0     H10448  11.239   2.971   5.795 -3.5050  1.2146 -1.9279
   76MOL0     H10449  11.229   2.799   5.743  1.1797 -0.6067  0.4369
   76MOL0     H10450  11.332   3.417   5.860  0.2626  0.0688 -1.8425
   76MOL0     H10451  11.213   3.635   5.827 -1.4123  3.3722 -3.4905
   76MOL0     H10452  10.979   3.710   5.469 -0.3630 -2.2109  2.0304
   76MOL0     H10453  10.850   3.673   5.584 -0.6529 -0.4943  0.2788
   76MOL0     H10454  10.885   3.909   5.683  1.5913  3.3443 -0.6821
   76MOL0     H10455  10.963   3.962   5.542 -1.7321  2.4755  1.3840
   76MOL0     H10456  10.747   3.860   5.424 -2.3627 -0.6431  0.0809
   76MOL0     H10457  10.746   4.026   5.501  0.3707 -1.1120  0.2398
   76MOL0     H10458  10.633   3.771   5.621  0.7952 -0.5038  1.5264
   76MOL0     H10459  10.548   3.895   5.523  2.7989 -3.0080 -2.1898
   76MOL0     H10460  10.669   3.967   5.787 -1.3848  0.3667  1.0282
   76MOL0     H10461  10.574   4.077   5.685 -0.5364 -0.2617  1.5783
   76MOL0     H10462  10.439   3.991   5.879  0.7717  2.0444 -0.0027
   76MOL0     H10463  10.433   3.830   5.782  2.2482 -0.6638 -0.6921
   76MOL0     H10464  10.333   3.974   5.600  0.5803  0.9023 -0.8928
   76MOL0     H10465  10.357   4.123   5.700 -1.2898  0.0620 -2.1874
   76MOL0     H10466  10.197   3.912   5.810  1.7558 -0.3541 -1.3498
   76MOL0     H10467  10.107   4.028   5.719 -0.6572  1.2838  1.2442
   76MOL0     H10468  11.014   3.503   5.478 -2.4725 -0.6703  1.7460
   76MOL0     H10469  11.099   3.287   5.514 -1.7790  1.3972  0.2438
   76MOL0     H10470  11.663   3.117   5.592  1.8947 -1.3054  0.8584
   76MOL0     H10471  11.770   2.932   5.546 -0.2050  3.0511  0.6974
   76MOL0     H10472  11.536   1.479   4.344 -1.9929 -2.1498 -1.8772
   76MOL0     H10473  11.553   1.326   4.179 -0.2019 -0.6130 -1.7635
   76MOL0     H10474  11.764   1.168   3.839  0.7915 -0.3130  0.0148
   76MOL0     H10475  11.859   1.008   3.669 -2.2885 -0.7559 -0.8171
   76MOL0     H10476  11.958   0.982   3.258 -0.6474 -0.7109  0.6261
   76MOL0     H10477  11.889   1.139   3.232  2.3608 -0.5060 -3.4941
   76MOL0     H10478  12.118   1.255   3.273  0.6523 -0.3138  1.8951
   76MOL0     H10479  12.123   1.121   3.156  0.8428 -1.9413  0.4425
   76MOL0     H10480  12.191   1.173   3.436  2.6840  2.8392 -2.5700
   76MOL0     H10481  12.208   1.005   3.403  0.9700 -0.3081 -1.7596
   76MOL0     H10482  12.343   1.191   3.223 -3.1828 -1.1254 -1.7001
   76MOL0     H10483  12.382   1.028   3.247 -1.5875  0.0988 -1.2672
   76MOL0     H10484  12.599   1.194   3.580 -1.9287 -0.0589  1.5071
   76MOL0     H10485  11.892   1.323   3.388  0.7318  0.7325  0.7995
   76MOL0     H10486  11.626   1.522   3.520 -0.8253  2.5524 -2.7943
   76MOL0     H10487  11.785   1.577   3.594  0.6550 -1.0263 -0.3925
   76MOL0     H10488  11.779   1.534   3.432 -0.4994 -2.6246 -0.4279
   77MOL0     O10489  10.637   2.759  11.109  0.2572 -0.1607  0.6280
   77MOL0     C10490  10.607   2.811  11.217  0.1465  0.4004  0.3391
   77MOL0     O10491  10.654   2.927  11.267 -0.9308  0.6493  0.1547
   77MOL0     C10492  10.732   3.000  11.180  0.3502  0.8683 -0.6873
   77MOL0     C10493  10.681   3.074  11.066 -0.1305  1.0331 -0.1847
   77MOL0     C10494  10.760   3.175  11.009 -0.6635 -0.3095 -0.4006
   77MOL0     C10495  10.890   3.199  11.051  0.5227  0.1012 -0.0060
   77MOL0     O10496  10.959   3.277  10.966  0.0905 -0.0732  0.1425
   77MOL0     C10497  11.034   3.391  11.021 -0.0598 -0.7799  0.2295
   77MOL0     C10498  10.962   3.517  10.997  0.6160 -0.5751 -0.2018
   77MOL0     C10499  10.861   3.552  11.108 -0.4305  0.4619  0.6396
   77MOL0     C10500  10.929   3.627  11.230 -0.1027  0.6873  0.1139
   77MOL0     C10501  10.815   3.660  11.326 -0.0294 -0.2851  0.3669
   77MOL0     C10502  10.867   3.770  11.428 -0.8163  1.2264  0.9640
   77MOL0     C10503  10.750   3.832  11.518 -0.6500 -0.6131  0.8161
   77MOL0     C10504  10.640   3.885  11.431  0.6460  0.1587 -0.2963
   77MOL0     N10505  10.561   3.987  11.495 -0.0847 -1.0227 -0.9773
   77MOL0     C10506  10.473   4.079  11.422 -0.6124 -0.1620  0.4059
   77MOL0     C10507  10.399   4.141  11.520  0.3321 -0.3123 -1.0074
   77MOL0     C10508  10.292   4.247  11.516  0.5317 -0.3645  0.1061
   77MOL0     C10509  10.160   4.199  11.449 -0.1625 -0.0945  0.4925
   77MOL0     C10510  10.053   4.308  11.453 -0.7936 -0.0379  0.6139
   77MOL0     C10511   9.982   4.324  11.595  0.7606  0.6429  0.0191
   77MOL0     O10512  10.060   4.391  11.688  0.6052 -0.2300  0.5101
   77MOL0     C10513  10.060   4.529  11.671  0.1980 -0.0962  0.4257
   77MOL0     C10514  10.147   4.586  11.764  0.1969  0.4088  0.5919
   77MOL0     C10515  10.188   4.716  11.757 -0.4686 -0.4587 -0.0185
   77MOL0     C10516  10.294   4.770  11.856 -0.2933  0.5860  0.9746
   77MOL0     C10517  10.131   4.797  11.652  0.4084  0.0726  0.0286
   77MOL0     C10518  10.168   4.937  11.647 -0.4436 -0.3507 -0.8650
   77MOL0     O10519  10.179   4.971  11.524 -0.4977  0.9762 -0.0610
   77MOL0     C10520  10.214   5.098  11.471  0.2488 -0.3854  0.2839
   77MOL0     C10521  10.290   5.188  11.540  1.4323  0.4064 -0.5688
   77MOL0     C10522  10.315   5.323  11.483 -1.2291 -1.0300 -0.3301
   77MOL0     C10523  10.261   5.359  11.358 -0.1592 -0.0140  0.6316
   77MOL0     O10524  10.278   5.478  11.289 -0.3797  0.1296  0.7291
   77MOL0     C10525  10.359   5.585  11.341 -0.7952 -0.2603 -0.7318
   77MOL0     C10526  10.377   5.701  11.241 -0.5254  0.6008  1.8041
   77MOL0     C10527  10.256   5.785  11.232  0.1016 -0.0985  0.0577
   77MOL0     C10528  10.292   5.914  11.158  0.9063  0.2360  0.0127
   77MOL0     C10529  10.173   6.011  11.172 -0.8849 -1.0149 -0.2328
   77MOL0     C10530  10.187   6.165  11.122  0.6495  0.8623 -0.6428
   77MOL0     C10531  10.123   6.270  11.210  0.5011  0.3011 -0.6231
   77MOL0     C10532   9.994   6.316  11.154  0.8111 -0.5713 -0.8486
   77MOL0    Cl10533   9.985   6.398  10.993  0.8399 -0.2654  0.0923
   77MOL0     C10534  10.172   5.268  11.299  0.1706 -0.3206  0.5827
   77MOL0     C10535  10.165   5.133  11.346  0.0209  0.4738 -0.7343
   77MOL0     O10536  10.187   5.016  11.738  0.4788 -0.9798 -0.1123
   77MOL0     C10537  10.032   4.741  11.563 -0.2874 -0.6975  0.1564
   77MOL0     C10538   9.993   4.607  11.584  0.0266 -1.3575  0.7132
   77MOL0     N10539  10.431   4.070  11.636 -0.0832  0.2693 -0.3024
   77MOL0     N10540  10.517   3.978  11.624 -0.0176  1.1390 -0.6116
   77MOL0     C10541  10.937   3.125  11.156  0.8665  0.6242  0.2835
   77MOL0     C10542  10.862   3.026  11.219  0.4859 -0.7548 -0.4789
   77MOL0     C10543  10.511   2.741  11.310  0.6452  0.3417 -0.3564
   77MOL0     C10544  10.536   2.738  11.451 -0.1800 -0.6282  0.1387
   77MOL0     C10545  10.463   2.665  11.537 -0.4652  0.3866 -0.2113
   77MOL0     C10546  10.365   2.579  11.488 -1.0343  0.2543 -1.1097
   77MOL0     O10547  10.308   2.500  11.586  0.0571  0.0738  0.0841
   77MOL0     C10548  10.252   2.373  11.544 -0.8071 -0.1476 -0.3857
   77MOL0     C10549  10.185   2.298  11.670 -1.3885 -0.9020  0.2348
   77MOL0     C10550  10.089   2.176  11.648  0.9376  0.0435  0.2609
   77MOL0     C10551  10.037   2.114  11.776 -0.4239  0.0803 -0.1747
   77MOL0     C10552  10.149   2.060  11.853 -0.8523 -0.0547 -0.7259
   77MOL0     C10553  10.250   2.009  11.901 -0.4287 -0.4512  0.0724
   77MOL0     C10554  10.334   2.578  11.358  0.4657  0.4145  0.5744
   77MOL0     C10555  10.403   2.655  11.264  0.3954 -0.2063  0.6755
   77MOL0     C10556  10.369   2.655  11.117 -1.1531 -0.7850 -0.2964
   77MOL0     H10557  10.590   3.040  11.019 -0.1791  1.6361 -0.5406
   77MOL0     H10558  10.729   3.227  10.919 -0.7212  2.2195  0.9979
   77MOL0     H10559  11.128   3.403  10.967  0.8867 -0.8476  1.8055
   77MOL0     H10560  11.065   3.385  11.126  1.2648  2.5936  0.1633
   77MOL0     H10561  11.032   3.602  11.000  0.9373 -0.7335 -1.9759
   77MOL0     H10562  10.912   3.502  10.901  0.8981 -1.7727 -0.1752
   77MOL0     H10563  10.782   3.616  11.067  0.9702  2.4761  0.9361
   77MOL0     H10564  10.823   3.455  11.141 -0.9772  1.8379  4.7345
   77MOL0     H10565  11.003   3.565  11.282 -0.1369  0.4923 -0.0688
   77MOL0     H10566  10.982   3.718  11.198  2.3535  1.5318  5.4339
   77MOL0     H10567  10.783   3.566  11.370 -0.9038  0.3999  1.2489
   77MOL0     H10568  10.729   3.694  11.267 -0.8718 -1.7491  0.7183
   77MOL0     H10569  10.931   3.716  11.498  0.0707 -0.5379 -1.1157
   77MOL0     H10570  10.925   3.844  11.373  0.6610  0.9312  2.0632
   77MOL0     H10571  10.781   3.922  11.573 -1.4439  0.6020 -0.6294
   77MOL0     H10572  10.711   3.759  11.589  1.9620 -2.3795  0.5655
   77MOL0     H10573  10.694   3.930  11.347  0.1105  0.0580 -0.7079
   77MOL0     H10574  10.577   3.806  11.388 -0.5276  0.9820 -0.1392
   77MOL0     H10575  10.482   4.108  11.318  1.2286  1.3280  0.9108
   77MOL0     H10576  10.336   4.329  11.458  1.6852 -0.7315  0.4193
   77MOL0     H10577  10.276   4.292  11.615 -1.4870  1.4708 -0.9866
   77MOL0     H10578  10.190   4.182  11.345  2.3738 -0.4566  1.2212
   77MOL0     H10579  10.120   4.111  11.500 -1.7751  0.6412  0.5488
   77MOL0     H10580  10.095   4.401  11.414 -1.1296  0.7171  1.9919
   77MOL0     H10581   9.977   4.279  11.380  1.2978  0.4333 -1.9162
   77MOL0     H10582   9.887   4.374  11.579 -0.5573 -1.4491  0.9387
   77MOL0     H10583   9.947   4.225  11.626 -1.5478  0.9416 -1.4371
   77MOL0     H10584  10.180   4.506  11.830 -2.1749 -2.1963 -1.1266
   77MOL0     H10585  10.382   4.805  11.800  0.5903 -3.0978 -0.2503
   77MOL0     H10586  10.319   4.684  11.919 -1.5395 -1.2823 -0.9561
   77MOL0     H10587  10.260   4.858  11.911  0.3429  1.2981  0.2413
   77MOL0     H10588  10.328   5.169  11.640  0.8265 -1.3773 -0.6617
   77MOL0     H10589  10.374   5.389  11.545 -1.0737 -1.1890 -0.3062
   77MOL0     H10590  10.311   5.607  11.437 -1.6129  2.7415 -1.7081
   77MOL0     H10591  10.460   5.549  11.361  0.0054  2.3544  0.2877
   77MOL0     H10592  10.472   5.752  11.259  0.7231  0.0067 -2.1801
   77MOL0     H10593  10.375   5.660  11.140 -1.7145  3.1390  0.7285
   77MOL0     H10594  10.229   5.820  11.333  2.1107  1.0085  0.2743
   77MOL0     H10595  10.174   5.733  11.183 -1.5435 -0.1684  2.6721
   77MOL0     H10596  10.306   5.888  11.053  0.3883  1.0663 -0.2814
   77MOL0     H10597  10.390   5.947  11.194  0.7019  1.3121 -0.3916
   77MOL0     H10598  10.097   5.956  11.116 -0.0623 -3.4746  0.9365
   77MOL0     H10599  10.153   6.027  11.278  0.5152 -1.6314  0.1386
   77MOL0     H10600  10.142   6.173  11.022 -3.0840 -3.2592  0.3832
   77MOL0     H10601  10.294   6.186  11.124  0.7062  0.7311 -1.6854
   77MOL0     H10602  10.196   6.352  11.208  2.1764 -1.0997  0.1609
   77MOL0     H10603  10.116   6.247  11.316  1.3739 -1.0171 -0.8279
   77MOL0     H10604   9.959   6.379  11.236 -0.4471  1.9596 -3.1740
   77MOL0     H10605   9.930   6.227  11.159 -0.1625  0.1199 -0.7675
   77MOL0     H10606  10.113   5.284  11.209  1.6961 -2.3234 -0.8659
   77MOL0     H10607  10.107   5.054  11.299  0.0831 -0.6399  0.9741
   77MOL0     H10608   9.985   4.798  11.484 -1.8005 -0.8837  0.8844
   77MOL0     H10609   9.910   4.574  11.523  0.0198 -0.7848  0.4060
   77MOL0     H10610  11.038   3.154  11.182  2.0577 -0.3982 -2.8491
   77MOL0     H10611  10.899   2.984  11.312  2.0795 -0.9776 -1.1842
   77MOL0     H10612  10.619   2.797  11.490 -1.3411 -0.2529  2.2526
   77MOL0     H10613  10.496   2.655  11.640  1.5164 -0.0243 -0.8367
   77MOL0     H10614  10.174   2.389  11.469 -0.6064 -2.0378 -1.0351
   77MOL0     H10615  10.330   2.315  11.495  0.7474  1.3867  0.1713
   77MOL0     H10616  10.110   2.367  11.711 -0.5451  1.1092 -1.4313
   77MOL0     H10617  10.269   2.281  11.738  0.9202  1.0610 -1.9409
   77MOL0     H10618  10.000   2.205  11.590 -0.9222 -4.3882  0.4523
   77MOL0     H10619  10.138   2.098  11.588 -2.6766  0.3147 -3.5782
   77MOL0     H10620   9.969   2.028  11.766 -0.4591 -0.4457  3.2496
   77MOL0     H10621   9.992   2.191  11.839 -0.2372  0.7546 -0.8523
   77MOL0     H10622  10.339   1.965  11.942  0.3498  0.2060 -0.8479
   77MOL0     H10623  10.253   2.521  11.313  1.4525  0.5516 -1.4640
   77MOL0     H10624  10.339   2.754  11.080 -0.7005 -0.4336  0.2543
   77MOL0     H10625  10.454   2.628  11.053 -1.7450  0.2567 -1.5708
   77MOL0     H10626  10.295   2.578  11.099 -1.4652 -0.6596  0.3989
   78MOL0     O10627   7.762   9.885   1.317 -0.2016 -0.9119 -0.4185
   78MOL0     C10628   7.652   9.865   1.259 -0.3220 -0.1966 -0.7102
   78MOL0     O10629   7.531   9.913   1.305 -0.7409  0.1722 -0.7062
   78MOL0     C10630   7.530  10.018   1.390 -0.4369  1.3123 -0.4950
   78MOL0     C10631   7.521  10.145   1.349 -0.3331 -0.7866  0.4824
   78MOL0     C10632   7.514  10.254   1.444 -0.4500  0.0623  0.9872
   78MOL0     C10633   7.517  10.225   1.579  0.5390 -0.9388  0.1413
   78MOL0     O10634   7.520  10.330   1.676 -0.4804 -0.0788 -0.7855
   78MOL0     C10635   7.461  10.454   1.638 -0.3647  0.3185  1.3370
   78MOL0     C10636   7.440  10.545   1.756  0.0021  1.0302 -0.3046
   78MOL0     C10637   7.572  10.564   1.835  1.3273 -0.2300 -0.0563
   78MOL0     C10638   7.575  10.705   1.896 -0.1787 -0.2139  0.5528
   78MOL0     C10639   7.676  10.716   2.007 -1.1089  0.5679  0.6652
   78MOL0     C10640   7.831  10.720   1.963  0.0618  0.6956  0.3453
   78MOL0     C10641   7.915  10.686   2.077 -0.6899  0.4875 -0.0895
   78MOL0     C10642   7.951  10.809   2.154 -1.2069 -0.2399  0.7682
   78MOL0     N10643   8.047  10.774   2.256 -0.2658 -0.0341  0.6044
   78MOL0     C10644   8.025  10.717   2.379  0.8438  0.5062  0.1745
   78MOL0     C10645   8.136  10.645   2.408 -0.3897 -0.2919  0.4120
   78MOL0     C10646   8.178  10.565   2.533 -0.7703 -0.4501  0.1055
   78MOL0     C10647   8.202  10.423   2.471 -0.0225  0.4120  0.0412
   78MOL0     C10648   8.252  10.333   2.596 -0.0531 -0.1783  0.7846
   78MOL0     C10649   8.246  10.177   2.570 -0.0096  0.3543  0.2306
   78MOL0     O10650   8.310  10.165   2.445  1.2732 -0.7216  0.0428
   78MOL0     C10651   8.334  10.028   2.412  0.2621  0.4047 -0.4736
   78MOL0     C10652   8.318   9.920   2.492 -0.2100 -0.0805 -0.1189
   78MOL0     C10653   8.361   9.785   2.468 -0.2493 -0.0191  0.1923
   78MOL0     C10654   8.325   9.681   2.583  0.0995  0.8930  1.2104
   78MOL0     C10655   8.434   9.764   2.348 -0.5129  0.6086  0.2712
   78MOL0     C10656   8.491   9.634   2.309 -0.0465  0.0303  0.1811
   78MOL0     O10657   8.559   9.628   2.180  0.0194 -0.7907 -0.3936
   78MOL0     C10658   8.650   9.528   2.159 -1.6435 -0.0002  0.2202
   78MOL0     C10659   8.657   9.450   2.043  0.0330 -0.7084  0.3961
   78MOL0     C10660   8.753   9.353   2.011 -0.9167 -0.0060 -0.4650
   78MOL0     C10661   8.854   9.329   2.108  0.2866 -0.5759  0.1296
   78MOL0     O10662   8.951   9.234   2.109 -0.1117  0.7855 -0.3755
   78MOL0     C10663   9.003   9.188   1.978  0.0643 -0.1186  0.9967
   78MOL0     C10664   9.147   9.127   2.008  0.9240 -0.2228  0.0425
   78MOL0     C10665   9.146   8.992   2.084  0.5461 -0.1981  1.1366
   78MOL0     C10666   9.137   9.025   2.231 -0.0176  0.2271  0.2059
   78MOL0     C10667   9.146   8.902   2.326 -0.3658  0.3991  0.2741
   78MOL0     C10668   9.164   8.912   2.480 -0.4128  0.0754  1.1883
   78MOL0     C10669   9.102   9.034   2.547  0.0258  0.5334 -0.1841
   78MOL0     C10670   9.020   9.001   2.667 -0.1748  0.2971 -0.4142
   78MOL0    Cl10671   9.128   8.960   2.799 -0.0943  0.0602  0.0392
   78MOL0     C10672   8.844   9.387   2.230  0.1940  0.1007  0.1181
   78MOL0     C10673   8.742   9.483   2.259  0.2954  0.5544  0.2125
   78MOL0     O10674   8.492   9.541   2.388  0.2303 -0.3440  0.9308
   78MOL0     C10675   8.442   9.869   2.246 -0.5148  0.0372 -0.0274
   78MOL0     C10676   8.395   9.996   2.287  0.3057 -0.1363  0.2582
   78MOL0     N10677   8.230  10.668   2.309 -0.2384 -0.8799 -0.1222
   78MOL0     N10678   8.177  10.745   2.221  0.1094 -0.1054 -0.3627
   78MOL0     C10679   7.526  10.097   1.621 -0.6273  0.5068  0.5039
   78MOL0     C10680   7.523   9.994   1.526 -0.1584  0.1928  0.8345
   78MOL0     C10681   7.657   9.777   1.139 -0.0611 -0.0816 -1.1884
   78MOL0     C10682   7.753   9.680   1.124  0.3924  0.4962 -0.0544
   78MOL0     C10683   7.755   9.599   1.019 -0.3183  0.8224  0.0211
   78MOL0     C10684   7.653   9.607   0.915 -0.1691  0.1640 -0.8653
   78MOL0     O10685   7.651   9.521   0.810 -0.0838  0.8289 -0.1514
   78MOL0     C10686   7.778   9.508   0.741  0.5552 -0.9537  1.3791
   78MOL0     C10687   7.820   9.648   0.690 -0.5655 -0.2866  0.0255
   78MOL0     C10688   7.936   9.623   0.589  0.3912  0.8088  0.6251
   78MOL0     C10689   7.994   9.759   0.549 -0.2849 -0.8485  0.3313
   78MOL0     C10690   8.088   9.819   0.649  0.8042 -0.8531  0.1578
   78MOL0     C10691   8.160   9.847   0.742  0.0461  0.1653  0.4668
   78MOL0     C10692   7.556   9.697   0.935 -0.0031  0.8541 -1.0794
   78MOL0     C10693   7.557   9.783   1.041  0.0155 -0.1114  0.1277
   78MOL0     C10694   7.444   9.885   1.035  0.1594 -1.6818  0.5699
   78MOL0     H10695   7.525  10.179   1.246 -1.2705  3.5742  1.6720
   78MOL0     H10696   7.524  10.354   1.404  1.9417 -0.6610 -0.4067
   78MOL0     H10697   7.373  10.425   1.580  2.7629 -4.1919 -1.7410
   78MOL0     H10698   7.530  10.506   1.571  0.6191 -0.7987  1.4599
   78MOL0     H10699   7.398  10.639   1.722 -3.9599  0.4655  2.4276
   78MOL0     H10700   7.363  10.506   1.823 -0.0488 -0.1404 -1.0025
   78MOL0     H10701   7.566  10.502   1.924  0.0090  0.8064  0.6041
   78MOL0     H10702   7.666  10.546   1.780  3.1501  1.0735  2.4356
   78MOL0     H10703   7.587  10.782   1.819 -0.1435 -0.2117  0.5606
   78MOL0     H10704   7.480  10.726   1.947  0.5653 -0.5409  2.1085
   78MOL0     H10705   7.659  10.624   2.064 -2.6183 -1.5249 -2.8045
   78MOL0     H10706   7.654  10.805   2.066  3.1195  2.4929 -0.2322
   78MOL0     H10707   7.849  10.652   1.879 -3.0261 -0.9029  0.8157
   78MOL0     H10708   7.855  10.817   1.919 -2.1231 -0.1241 -3.0747
   78MOL0     H10709   8.008  10.651   2.030 -0.0631 -0.0018  1.4644
   78MOL0     H10710   7.873  10.611   2.144 -0.1254 -2.1777 -2.5412
   78MOL0     H10711   7.987  10.896   2.099  2.3424 -0.9288  1.7412
   78MOL0     H10712   7.856  10.831   2.204 -2.3118 -2.4333 -0.2309
   78MOL0     H10713   7.937  10.726   2.441  0.7783 -0.0622  0.1721
   78MOL0     H10714   8.102  10.569   2.612 -1.4000  1.2738 -0.5319
   78MOL0     H10715   8.269  10.595   2.586  0.2157 -4.0790  0.6797
   78MOL0     H10716   8.116  10.379   2.421  0.8277 -1.9685  0.5456
   78MOL0     H10717   8.275  10.424   2.389 -0.9558 -0.4693 -0.8338
   78MOL0     H10718   8.348  10.378   2.621 -1.3901  1.5685  3.1482
   78MOL0     H10719   8.181  10.361   2.674  0.5638  4.3693  0.0024
   78MOL0     H10720   8.296  10.123   2.652  0.5854 -0.9968 -0.9777
   78MOL0     H10721   8.142  10.144   2.564  0.5274 -2.1933  2.5438
   78MOL0     H10722   8.278   9.941   2.591  0.9717  0.9989  0.1594
   78MOL0     H10723   8.399   9.600   2.589 -2.2863 -1.5619 -0.2746
   78MOL0     H10724   8.240   9.620   2.552  1.7139 -1.4682  1.1571
   78MOL0     H10725   8.317   9.734   2.678  1.1271  0.4435  1.5601
   78MOL0     H10726   8.578   9.473   1.972  1.0541 -1.2187 -0.9535
   78MOL0     H10727   8.755   9.290   1.922  2.7155 -0.1002 -0.4573
   78MOL0     H10728   8.944   9.102   1.944  0.6689 -0.1765  0.0542
   78MOL0     H10729   9.005   9.263   1.898 -1.3060 -0.3603  0.7192
   78MOL0     H10730   9.206   9.109   1.918 -1.6876 -1.3998 -1.5604
   78MOL0     H10731   9.199   9.202   2.068 -0.9458  0.3901  0.9943
   78MOL0     H10732   9.238   8.938   2.059  1.1912  1.1634  0.4768
   78MOL0     H10733   9.062   8.930   2.053  1.5202 -0.1989 -1.7789
   78MOL0     H10734   9.042   9.075   2.252  0.3552  1.4122 -0.7544
   78MOL0     H10735   9.219   9.090   2.264  0.7919  0.3566 -1.9520
   78MOL0     H10736   9.042   8.869   2.315  0.6005 -3.0146  0.3585
   78MOL0     H10737   9.207   8.826   2.276 -3.4681 -0.5174 -2.4316
   78MOL0     H10738   9.270   8.916   2.508 -0.0234  2.1662 -0.3547
   78MOL0     H10739   9.141   8.820   2.535  1.7893  0.2525  2.5546
   78MOL0     H10740   9.027   9.084   2.485 -2.1281 -0.4132  1.5043
   78MOL0     H10741   9.180   9.108   2.567 -2.0602  2.0352  3.5758
   78MOL0     H10742   8.957   8.912   2.657 -1.6082  1.4521 -2.2841
   78MOL0     H10743   8.954   9.080   2.705  0.6867  0.1268  1.5301
   78MOL0     H10744   8.921   9.355   2.300  0.0093 -1.3405 -0.3159
   78MOL0     H10745   8.758   9.554   2.339 -1.3982  3.1053 -1.5931
   78MOL0     H10746   8.491   9.841   2.153 -0.5419 -0.5331  0.1269
   78MOL0     H10747   8.394  10.085   2.225 -5.7181  0.0914  0.0300
   78MOL0     H10748   7.520  10.075   1.727 -1.3332  1.7356  0.7506
   78MOL0     H10749   7.520   9.890   1.557  0.7064  0.3491  1.4817
   78MOL0     H10750   7.836   9.678   1.195 -0.1994  0.8655  0.6684
   78MOL0     H10751   7.842   9.535   1.010  1.3107  2.7494  1.1466
   78MOL0     H10752   7.854   9.461   0.805  1.1059 -1.9868  0.0242
   78MOL0     H10753   7.758   9.444   0.655 -1.7121  3.1015 -1.4340
   78MOL0     H10754   7.871   9.705   0.769  0.5411  0.0474 -0.8905
   78MOL0     H10755   7.743   9.700   0.632  1.6638  2.2824 -0.8859
   78MOL0     H10756   8.012   9.550   0.618 -1.8757 -2.6995 -1.4687
   78MOL0     H10757   7.893   9.573   0.502 -1.0573 -0.7368  2.1390
   78MOL0     H10758   7.912   9.828   0.530 -0.0474 -0.9609 -1.2572
   78MOL0     H10759   8.042   9.748   0.451 -1.1013  1.7758 -0.4272
   78MOL0     H10760   8.210   9.848   0.837 -0.0893  1.1173  0.5394
   78MOL0     H10761   7.474   9.700   0.863  1.4649 -2.7391 -3.1524
   78MOL0     H10762   7.352   9.835   1.065 -0.7752  0.4327  1.4680
   78MOL0     H10763   7.448   9.969   1.106 -0.4270  0.4089 -1.7345
   78MOL0     H10764   7.415   9.932   0.941 -1.8029  1.9834  2.7593
   79MOL0     O10765   3.751   9.007   4.476  0.2679  0.3683  0.8454
   79MOL0     C10766   3.639   8.964   4.460  0.2445  0.0577 -0.1555
   79MOL0     O10767   3.559   8.984   4.343  0.4678  0.6310  0.2044
   79MOL0     C10768   3.594   9.063   4.227  1.2048  0.2679 -0.8116
   79MOL0     C10769   3.676   9.175   4.230 -0.2280  0.1766  0.6452
   79MOL0     C10770   3.701   9.252   4.110 -0.4183  0.2262  0.1474
   79MOL0     C10771   3.621   9.234   3.994  0.5920 -0.1089 -0.2964
   79MOL0     O10772   3.633   9.330   3.898  0.7413  0.8031 -0.4488
   79MOL0     C10773   3.525   9.344   3.807 -0.1534  0.1684 -0.3685
   79MOL0     C10774   3.568   9.410   3.671  0.1506  0.6390 -0.3847
   79MOL0     C10775   3.585   9.563   3.689 -0.6300  0.6242 -0.4982
   79MOL0     C10776   3.530   9.638   3.570 -0.5928  0.5837  0.1806
   79MOL0     C10777   3.487   9.781   3.604  0.1676  0.0500 -0.9064
   79MOL0     C10778   3.344   9.791   3.590  0.8025 -0.7008 -0.5023
   79MOL0     C10779   3.276   9.925   3.640 -0.5483  0.3575  0.5911
   79MOL0     C10780   3.132   9.925   3.583 -0.2076  0.6249  0.6792
   79MOL0     N10781   3.050  10.018   3.660  0.0676 -0.4018 -1.2677
   79MOL0     C10782   3.057  10.151   3.638 -0.6218  0.0854  0.0439
   79MOL0     C10783   2.994  10.209   3.746  0.0552  0.8127  0.5527
   79MOL0     C10784   2.964  10.354   3.768  0.1822 -1.4991  0.1653
   79MOL0     C10785   2.858  10.404   3.670  0.1042 -0.1029 -0.6753
   79MOL0     C10786   2.803  10.548   3.675 -0.1456 -0.2861 -0.8394
   79MOL0     C10787   2.787  10.628   3.806 -0.4212  1.1032 -1.0838
   79MOL0     O10788   2.893  10.647   3.917  0.9342 -0.3790 -0.2047
   79MOL0     C10789   2.983  10.745   3.901  0.8296  0.4798  0.3443
   79MOL0     C10790   2.982  10.846   3.802 -0.7194 -1.0521  0.3222
   79MOL0     C10791   3.051  10.966   3.835 -0.1038  0.0811  0.2164
   79MOL0     C10792   3.069  11.073   3.725  0.1480 -0.3630 -0.2704
   79MOL0     C10793   3.125  10.980   3.957  0.0095 -0.8724 -0.0310
   79MOL0     C10794   3.210  11.094   4.005 -0.1157  0.1772  0.6128
   79MOL0     O10795   3.202  11.137   4.132 -0.4497  0.3934 -0.0738
   79MOL0     C10796   3.288  11.234   4.157  0.1794 -0.0984 -0.4451
   79MOL0     C10797   3.425  11.252   4.127  0.3420 -0.4822  0.3322
   79MOL0     C10798   3.491  11.365   4.158 -1.3341  0.0766  0.1309
   79MOL0     C10799   3.437  11.467   4.218  0.6483 -0.4728  0.6385
   79MOL0     O10800   3.494  11.581   4.255 -0.0663 -0.6324 -0.0527
   79MOL0     C10801   3.632  11.594   4.240 -0.3943  0.3879 -0.5059
   79MOL0     C10802   3.687  11.728   4.263  0.0602 -0.2318 -0.4192
   79MOL0     C10803   3.845  11.739   4.232 -0.4302  0.8434  1.4456
   79MOL0     C10804   3.878  11.698   4.090  1.1875  1.1136  0.3535
   79MOL0     C10805   4.027  11.732   4.063  0.3051  0.0456  0.0598
   79MOL0     C10806   4.071  11.712   3.919 -0.1672  1.3503 -1.4122
   79MOL0     C10807   3.992  11.792   3.809 -1.3994  1.2322  0.0969
   79MOL0     C10808   4.028  11.936   3.827 -0.6596  0.7306 -0.1791
   79MOL0    Cl10809   3.967  12.022   3.684  0.0259 -0.3524 -0.0236
   79MOL0     C10810   3.305  11.459   4.245 -0.4867  0.0602 -0.2047
   79MOL0     C10811   3.227  11.346   4.229 -0.6693  0.0641 -0.2856
   79MOL0     O10812   3.268  11.155   3.916  0.6715 -0.5602 -0.0793
   79MOL0     C10813   3.124  10.878   4.054  0.5386  0.2753 -0.4725
   79MOL0     C10814   3.067  10.759   4.016  1.1461 -0.6418 -0.2395
   79MOL0     N10815   2.941  10.110   3.829  0.4035  0.2237  0.2617
   79MOL0     N10816   2.974   9.993   3.776  0.7618 -0.1906 -0.7705
   79MOL0     C10817   3.536   9.125   3.999  0.3942  0.4168 -0.1644
   79MOL0     C10818   3.520   9.042   4.111 -0.7636  0.2735 -0.2451
   79MOL0     C10819   3.552   8.917   4.574  0.4014 -0.4622  0.3042
   79MOL0     C10820   3.417   8.923   4.547 -0.7013 -0.0171  0.0296
   79MOL0     C10821   3.314   8.882   4.641  0.1626 -0.2423  0.7489
   79MOL0     C10822   3.356   8.836   4.769  0.0574  0.3203 -1.1881
   79MOL0     O10823   3.261   8.783   4.861  0.5366 -0.3593 -0.3281
   79MOL0     C10824   3.143   8.722   4.803 -0.6729  0.1919 -0.2451
   79MOL0     C10825   3.065   8.656   4.917 -0.1591 -0.5588  0.9879
   79MOL0     C10826   2.971   8.755   4.983  0.0011 -0.3011  0.2571
   79MOL0     C10827   2.949   8.723   5.128 -0.1725  0.4085  0.1984
   79MOL0     C10828   2.862   8.610   5.143  0.5120  0.5964  0.2650
   79MOL0     C10829   2.784   8.515   5.152  0.4322 -0.3158  1.1997
   79MOL0     C10830   3.492   8.832   4.798  0.3439  0.0163  0.0550
   79MOL0     C10831   3.589   8.863   4.698 -0.0362  0.5800 -0.1797
   79MOL0     C10832   3.736   8.819   4.721  0.1987  0.5189  1.0933
   79MOL0     H10833   3.733   9.206   4.317  0.7604 -1.4878  0.6316
   79MOL0     H10834   3.772   9.333   4.112 -2.1400  1.9389 -2.0532
   79MOL0     H10835   3.444   9.401   3.853 -3.0918 -0.5204 -4.1510
   79MOL0     H10836   3.481   9.244   3.794  0.1551 -0.3433  1.9842
   79MOL0     H10837   3.663   9.373   3.631 -2.0795 -3.7752 -2.3241
   79MOL0     H10838   3.492   9.387   3.595 -0.4021  1.7716 -0.1960
   79MOL0     H10839   3.541   9.609   3.779  0.2884  2.2473 -0.8375
   79MOL0     H10840   3.691   9.589   3.684 -0.5162  0.0586 -0.9806
   79MOL0     H10841   3.609   9.628   3.496 -0.6918 -1.0842  0.2631
   79MOL0     H10842   3.448   9.584   3.524  1.6162 -2.7155 -0.2335
   79MOL0     H10843   3.523   9.850   3.528 -4.3444  2.7568 -0.9452
   79MOL0     H10844   3.531   9.828   3.693  0.6359  0.8040 -1.5285
   79MOL0     H10845   3.305   9.766   3.491 -0.1265  0.2252 -0.3839
   79MOL0     H10846   3.290   9.722   3.654 -2.6005  3.4180  1.5661
   79MOL0     H10847   3.330  10.019   3.628 -0.5032  0.3659  0.8508
   79MOL0     H10848   3.266   9.908   3.747 -1.1938  1.3375  0.6903
   79MOL0     H10849   3.148   9.972   3.486 -2.9366  0.7399  0.2142
   79MOL0     H10850   3.093   9.826   3.560  0.8214  0.4562 -0.4552
   79MOL0     H10851   3.110  10.197   3.555  0.6353 -0.4791  0.5021
   79MOL0     H10852   3.054  10.412   3.746 -1.8102  1.9187  0.4215
   79MOL0     H10853   2.941  10.383   3.871 -0.1820  0.5734 -0.4584
   79MOL0     H10854   2.910  10.388   3.575  0.0428  1.5026 -1.0161
   79MOL0     H10855   2.776  10.332   3.672 -0.1765  0.2324  0.2080
   79MOL0     H10856   2.876  10.606   3.618  2.1411 -2.8253 -0.6888
   79MOL0     H10857   2.715  10.556   3.610 -0.1624  1.0923 -0.6662
   79MOL0     H10858   2.747  10.725   3.773  0.8497  1.3434 -1.9814
   79MOL0     H10859   2.701  10.585   3.858 -1.4923  2.3522 -1.7322
   79MOL0     H10860   2.928  10.826   3.710  0.1896 -2.1764  0.0123
   79MOL0     H10861   3.034  11.167   3.767  0.0301 -1.5179  2.4244
   79MOL0     H10862   3.012  11.038   3.639  2.8749 -0.6370 -2.0791
   79MOL0     H10863   3.169  11.082   3.680  0.1131 -1.3044 -0.5620
   79MOL0     H10864   3.479  11.173   4.076  0.3210  0.0351 -0.5076
   79MOL0     H10865   3.595  11.351   4.130 -0.9568 -0.4928  1.6793
   79MOL0     H10866   3.679  11.524   4.310 -0.3454  0.2078 -0.7209
   79MOL0     H10867   3.655  11.568   4.136  1.0658  3.5797 -1.1020
   79MOL0     H10868   3.629  11.791   4.195 -1.9379  0.6621  1.9825
   79MOL0     H10869   3.660  11.757   4.364 -1.6830 -1.2969 -0.5211
   79MOL0     H10870   3.906  11.681   4.302  2.5506  3.9314  1.6253
   79MOL0     H10871   3.870  11.845   4.244 -2.3774  1.9831 -2.8511
   79MOL0     H10872   3.816  11.756   4.022 -1.6552  2.7711  4.0359
   79MOL0     H10873   3.857  11.592   4.072  1.5890  0.9195  1.0019
   79MOL0     H10874   4.042  11.836   4.093 -1.8303  0.5690 -0.4777
   79MOL0     H10875   4.082  11.656   4.119  0.8461  0.7398  0.4900
   79MOL0     H10876   4.066  11.606   3.892  1.9137  1.3747 -2.1081
   79MOL0     H10877   4.177  11.739   3.915  0.4566 -0.4842  1.0057
   79MOL0     H10878   3.884  11.782   3.818 -1.2431  0.6906  1.6977
   79MOL0     H10879   4.024  11.763   3.708  0.3691  0.8212  0.7363
   79MOL0     H10880   4.136  11.949   3.833 -0.5636  0.2166 -0.7133
   79MOL0     H10881   3.985  11.976   3.919  0.6682  3.1723 -0.5207
   79MOL0     H10882   3.253  11.543   4.291 -1.7062 -0.7296 -0.0734
   79MOL0     H10883   3.127  11.334   4.269 -1.2006  1.5759 -1.0860
   79MOL0     H10884   3.183  10.889   4.144  0.4369 -2.0437 -0.0526
   79MOL0     H10885   3.082  10.682   4.091  1.1000 -0.3003  0.1259
   79MOL0     H10886   3.470   9.090   3.920 -1.6799 -0.0531  1.6607
   79MOL0     H10887   3.442   8.966   4.116 -2.3183  1.7910 -0.2450
   79MOL0     H10888   3.375   8.945   4.449  1.1802  3.0868 -0.2194
   79MOL0     H10889   3.210   8.886   4.610  0.8189  3.5158 -1.6791
   79MOL0     H10890   3.083   8.779   4.731 -0.3723  1.8263  0.7650
   79MOL0     H10891   3.168   8.630   4.749  1.0291  0.4094  0.1366
   79MOL0     H10892   3.146   8.621   4.982  0.9552  4.3562  2.6429
   79MOL0     H10893   3.011   8.565   4.887 -0.0238 -0.4480  0.3906
   79MOL0     H10894   3.028   8.849   4.981  1.4319 -1.0704 -3.1950
   79MOL0     H10895   2.875   8.761   4.932 -1.2224  2.7260  2.6071
   79MOL0     H10896   2.901   8.814   5.166 -2.8632  0.6384 -3.1618
   79MOL0     H10897   3.045   8.715   5.179  0.4429  1.1667 -0.7992
   79MOL0     H10898   2.726   8.426   5.165 -2.9543  1.9724  3.4409
   79MOL0     H10899   3.519   8.793   4.896 -1.3373 -1.0995  0.1151
   79MOL0     H10900   3.818   8.878   4.680  1.4791 -3.5424 -3.1125
   79MOL0     H10901   3.756   8.799   4.826 -4.1344 -0.4127  1.9234
   79MOL0     H10902   3.755   8.729   4.660  0.4345  1.5565 -0.4337
   80MOL0     O10903   9.997   6.559   7.300  0.0695 -0.8416  0.0796
   80MOL0     C10904  10.112   6.521   7.300  0.8433 -0.2434  0.2838
   80MOL0     O10905  10.214   6.605   7.314  0.8583 -0.0784 -0.2784
   80MOL0     C10906  10.200   6.725   7.379  0.5415 -0.6040 -0.0777
   80MOL0     C10907  10.116   6.736   7.496  0.3989  0.2018 -0.4770
   80MOL0     C10908  10.105   6.863   7.557 -0.8244  0.5945 -0.1433
   80MOL0     C10909  10.176   6.973   7.516  0.4935  0.1059 -0.9367
   80MOL0     O10910  10.157   7.100   7.576  0.5310 -0.2494 -0.7588
   80MOL0     C10911  10.025   7.117   7.635  0.9898  0.2844 -0.6996
   80MOL0     C10912  10.011   7.263   7.619  0.4119 -0.5814  0.0465
   80MOL0     C10913   9.892   7.325   7.702 -0.0370 -0.3296  0.3471
   80MOL0     C10914   9.926   7.347   7.853  0.4574  0.9833 -0.2713
   80MOL0     C10915   9.838   7.444   7.936 -0.3748 -0.9392  0.2819
   80MOL0     C10916   9.849   7.594   7.880  0.6820 -0.3984  0.2346
   80MOL0     C10917   9.804   7.706   7.972  0.4992  0.6182 -0.0934
   80MOL0     C10918   9.794   7.842   7.909  0.9201 -0.3176 -0.3665
   80MOL0     N10919   9.786   7.947   8.015  0.1998  0.2954 -0.2755
   80MOL0     C10920   9.897   7.986   8.074 -0.5993  0.0018 -0.0117
   80MOL0     C10921   9.854   8.079   8.170  0.5210 -0.0679  1.6714
   80MOL0     C10922   9.945   8.163   8.243 -0.6963 -1.4967 -0.1695
   80MOL0     C10923   9.958   8.096   8.383 -0.0733 -0.0057  0.4308
   80MOL0     C10924  10.088   8.134   8.470  0.5207 -0.5565 -0.0209
   80MOL0     C10925  10.090   8.286   8.481  0.3886 -0.2611 -0.6911
   80MOL0     O10926  10.152   8.326   8.611 -0.6539  0.1254  0.8829
   80MOL0     C10927  10.196   8.452   8.641 -1.6156 -0.0516  0.0116
   80MOL0     C10928  10.241   8.474   8.771  0.8360  0.2448 -0.7957
   80MOL0     C10929  10.292   8.589   8.825 -0.0811  1.3787  0.7184
   80MOL0     C10930  10.334   8.599   8.975  0.3173  0.2856  0.2322
   80MOL0     C10931  10.325   8.692   8.733 -0.6855 -0.6632 -0.1287
   80MOL0     C10932  10.409   8.813   8.777  0.7635  0.3892  0.6374
   80MOL0     O10933  10.384   8.870   8.896 -0.8676 -0.2864  0.1306
   80MOL0     C10934  10.489   8.954   8.942  0.3977 -0.3885  0.6901
   80MOL0     C10935  10.616   8.902   8.949  0.4718  0.0212  0.9780
   80MOL0     C10936  10.727   8.980   8.977 -0.1112 -0.4186  0.1077
   80MOL0     C10937  10.709   9.127   8.990 -0.3474 -0.7040 -0.0078
   80MOL0     O10938  10.817   9.210   9.017 -0.2485  0.0205 -0.1875
   80MOL0     C10939  10.825   9.335   8.943 -0.2045  0.9674  0.2427
   80MOL0     C10940  10.852   9.468   9.025 -0.3683 -0.9797  1.3831
   80MOL0     C10941  10.925   9.566   8.938  0.5744  0.3310 -0.6050
   80MOL0     C10942  11.036   9.640   9.012 -0.2271  0.0342 -0.6922
   80MOL0     C10943  11.157   9.552   9.042  0.0317 -0.6414  0.0740
   80MOL0     C10944  11.275   9.630   9.091  0.2470 -0.1539  1.0226
   80MOL0     C10945  11.413   9.561   9.074 -1.2208  0.3461  0.3385
   80MOL0     C10946  11.480   9.577   8.949 -0.0498 -0.7646  0.4499
   80MOL0    Cl10947  11.377   9.544   8.808 -0.4496 -0.0049  0.6509
   80MOL0     C10948  10.578   9.180   8.970  0.3046 -0.0321 -0.5943
   80MOL0     C10949  10.468   9.092   8.961 -0.4301 -0.7116 -0.0954
   80MOL0     O10950  10.491   8.851   8.695  0.4846 -1.0021  0.8371
   80MOL0     C10951  10.287   8.678   8.593 -0.3148  0.5067 -0.3002
   80MOL0     C10952  10.219   8.560   8.550  0.5523  0.2430  0.4418
   80MOL0     N10953   9.723   8.103   8.142  0.5862  0.5148  0.7285
   80MOL0     N10954   9.685   8.016   8.053 -0.4537 -0.4266  0.3878
   80MOL0     C10955  10.269   6.959   7.405  0.7508 -0.0849 -0.0075
   80MOL0     C10956  10.276   6.835   7.337  0.0410 -0.8989 -1.1640
   80MOL0     C10957  10.136   6.371   7.294  0.5378  0.1533 -0.3166
   80MOL0     C10958  10.216   6.314   7.394  0.1360 -0.3265  0.5867
   80MOL0     C10959  10.223   6.173   7.405  0.3525 -0.3357  1.2429
   80MOL0     C10960  10.146   6.102   7.315 -0.4735  0.3537  0.7741
   80MOL0     O10961  10.144   5.964   7.332 -0.0213 -0.6608 -0.2169
   80MOL0     C10962  10.083   5.873   7.237 -0.2658 -0.2465 -0.3523
   80MOL0     C10963  10.090   5.727   7.278  0.0055  0.2830 -0.8470
   80MOL0     C10964  10.015   5.711   7.413  0.0443  0.7235  0.4160
   80MOL0     C10965   9.998   5.550   7.432 -0.0216 -0.2810 -0.2974
   80MOL0     C10966   9.883   5.492   7.360 -0.3194 -1.1128 -0.3733
   80MOL0     C10967   9.795   5.442   7.285  0.6004  0.5345  0.1553
   80MOL0     C10968  10.094   6.160   7.205 -0.2492 -0.4719 -1.0445
   80MOL0     C10969  10.079   6.300   7.198  0.3132 -1.2606  0.1692
   80MOL0     C10970   9.994   6.364   7.081  0.5021 -0.9632 -0.3924
   80MOL0     H10971  10.060   6.648   7.525  4.0213 -1.6917  1.4451
   80MOL0     H10972  10.047   6.875   7.648  0.1084  3.3135  0.1850
   80MOL0     H10973  10.032   7.086   7.740 -3.8226  1.0828  0.1051
   80MOL0     H10974   9.944   7.065   7.583 -0.7262  0.1534  1.9106
   80MOL0     H10975  10.101   7.314   7.652  0.2222 -1.5565  2.2697
   80MOL0     H10976  10.007   7.295   7.514  3.5246  1.0822  0.3419
   80MOL0     H10977   9.858   7.420   7.659 -3.9350 -1.3677  0.7665
   80MOL0     H10978   9.805   7.259   7.692 -0.4916  0.4806 -1.5221
   80MOL0     H10979   9.924   7.252   7.906  2.1782  2.9081  3.6593
   80MOL0     H10980  10.032   7.364   7.876  0.7894 -1.0669 -0.1334
   80MOL0     H10981   9.884   7.448   8.035  2.0977 -6.3068 -0.3399
   80MOL0     H10982   9.732   7.419   7.946 -0.5836 -0.5013 -0.6990
   80MOL0     H10983   9.952   7.607   7.845  1.6417 -5.7596  0.3046
   80MOL0     H10984   9.782   7.597   7.794 -0.6494  0.3500  1.2495
   80MOL0     H10985   9.879   7.703   8.052 -0.8853 -1.3115  1.2119
   80MOL0     H10986   9.711   7.685   8.026  0.7128  2.8834  1.2884
   80MOL0     H10987   9.886   7.861   7.853  2.9263 -0.5021  2.6312
   80MOL0     H10988   9.706   7.854   7.846 -1.3957  0.4065  2.7591
   80MOL0     H10989  10.001   7.961   8.053  0.3529  2.7294  1.0700
   80MOL0     H10990   9.908   8.264   8.264 -0.9826 -1.8545  1.1654
   80MOL0     H10991  10.040   8.177   8.191 -2.1519 -2.5556 -3.3295
   80MOL0     H10992   9.865   8.114   8.437 -0.5216  0.4028 -0.4722
   80MOL0     H10993   9.975   7.990   8.363  0.3536  0.2037 -0.3818
   80MOL0     H10994  10.081   8.095   8.572 -0.1084  2.7980  1.3541
   80MOL0     H10995  10.186   8.105   8.432  0.2855 -0.7738 -0.4607
   80MOL0     H10996  10.152   8.324   8.400 -0.0677 -0.0846 -0.9567
   80MOL0     H10997   9.993   8.335   8.470  1.5126  2.8928  1.7312
   80MOL0     H10998  10.230   8.385   8.832 -2.9685  3.2903  3.7334
   80MOL0     H10999  10.432   8.648   8.983 -0.5630  2.1816 -0.0232
   80MOL0     H11000  10.333   8.504   9.030 -3.4103  0.4753  0.7493
   80MOL0     H11001  10.270   8.674   9.022 -1.7865 -0.0218 -1.9708
   80MOL0     H11002  10.641   8.798   8.932 -1.1132 -0.2195 -0.0230
   80MOL0     H11003  10.828   8.942   8.982 -0.0937 -0.3749  0.0802
   80MOL0     H11004  10.909   9.317   8.875 -1.7750  1.6314 -1.9664
   80MOL0     H11005  10.735   9.356   8.884  0.1708 -0.2746 -0.8323
   80MOL0     H11006  10.756   9.516   9.044 -0.3234  0.5504 -1.5726
   80MOL0     H11007  10.911   9.451   9.116 -2.2187  1.9553  3.3127
   80MOL0     H11008  10.854   9.634   8.890  0.9019  1.2754  0.2179
   80MOL0     H11009  10.976   9.506   8.862 -2.2608 -2.0954 -0.7855
   80MOL0     H11010  11.007   9.671   9.113  0.9815 -1.8981  0.3238
   80MOL0     H11011  11.069   9.731   8.961 -0.0025  1.4377  1.8062
   80MOL0     H11012  11.135   9.468   9.110  0.8672 -4.3394 -3.7963
   80MOL0     H11013  11.183   9.507   8.946  2.3862  1.2481 -0.2810
   80MOL0     H11014  11.259   9.663   9.195 -1.5345 -0.4631  0.8726
   80MOL0     H11015  11.275   9.728   9.042 -2.0199  0.6922  2.5330
   80MOL0     H11016  11.412   9.452   9.083  0.5531  0.2621 -0.1466
   80MOL0     H11017  11.485   9.591   9.151  3.9666  0.3966 -4.0047
   80MOL0     H11018  11.571   9.515   8.951 -0.7215 -1.7898  0.0361
   80MOL0     H11019  11.509   9.681   8.937 -1.3540 -0.5460 -1.1664
   80MOL0     H11020  10.543   9.282   8.982  1.8574  0.7727 -2.4353
   80MOL0     H11021  10.367   9.128   8.946 -2.5572 -4.5188  2.9762
   80MOL0     H11022  10.304   8.760   8.524  0.6137  0.5981  0.0161
   80MOL0     H11023  10.200   8.553   8.443  1.4268 -1.8886  0.3668
   80MOL0     H11024  10.326   7.045   7.370  2.9171 -0.6687  1.8959
   80MOL0     H11025  10.349   6.836   7.256  0.7088  0.5747 -0.5926
   80MOL0     H11026  10.247   6.379   7.475  0.3872 -1.4550  1.4181
   80MOL0     H11027  10.265   6.125   7.493  1.0060 -1.1756  0.4848
   80MOL0     H11028   9.981   5.914   7.233  0.4935  2.2544  2.4690
   80MOL0     H11029  10.129   5.882   7.138  1.8212 -0.8749  0.5273
   80MOL0     H11030  10.193   5.693   7.288 -0.8213 -2.0730  0.6938
   80MOL0     H11031  10.045   5.676   7.192 -3.3474 -0.8995  1.3837
   80MOL0     H11032  10.078   5.753   7.491  2.2490  0.7820 -1.3064
   80MOL0     H11033   9.913   5.751   7.420  0.1133  0.8305  0.8445
   80MOL0     H11034   9.973   5.523   7.535  4.6374 -1.5845  0.7011
   80MOL0     H11035  10.087   5.499   7.394 -0.2847 -0.1180 -1.1700
   80MOL0     H11036   9.714   5.416   7.220  0.3949 -1.1851  1.0548
   80MOL0     H11037  10.066   6.096   7.122  0.5418 -0.6854 -1.1516
   80MOL0     H11038  10.043   6.418   6.999 -3.5616  1.6659 -1.3979
   80MOL0     H11039   9.938   6.280   7.040  3.6269 -3.1611 -0.5057
   80MOL0     H11040   9.921   6.439   7.114 -0.6732 -0.9394 -2.8074
   81MOL0     O11041   6.969   1.460   5.216  1.3514  0.6320 -0.1236
   81MOL0     C11042   7.006   1.355   5.276 -0.0201  0.0794  0.1426
   81MOL0     O11043   6.973   1.230   5.234 -0.8559 -0.3255 -0.4538
   81MOL0     C11044   6.906   1.225   5.111 -0.5031 -0.2319 -0.0260
   81MOL0     C11045   6.979   1.247   4.995  0.8210  0.6181  0.1540
   81MOL0     C11046   6.927   1.247   4.865 -0.6751  0.0360 -0.5683
   81MOL0     C11047   6.788   1.232   4.855  0.6153 -0.5768  0.9049
   81MOL0     O11048   6.741   1.231   4.714 -0.3327 -0.3094 -1.0417
   81MOL0     C11049   6.634   1.312   4.682 -0.4980 -0.6499 -0.5897
   81MOL0     C11050   6.567   1.273   4.552  0.2151  0.5036 -0.2400
   81MOL0     C11051   6.520   1.126   4.552  0.1731  0.2722  0.0190
   81MOL0     C11052   6.396   1.112   4.646  0.6188 -0.1200 -0.3892
   81MOL0     C11053   6.376   0.971   4.695 -0.0818  0.3352 -0.5569
   81MOL0     C11054   6.385   0.859   4.579  0.0283 -0.7092  0.2645
   81MOL0     C11055   6.351   0.719   4.633  0.3575 -0.1052  0.3818
   81MOL0     C11056   6.207   0.703   4.687  0.4100 -0.0758 -0.2946
   81MOL0     N11057   6.151   0.577   4.656 -0.0078 -0.2594 -0.9651
   81MOL0     C11058   6.160   0.451   4.724 -0.7863 -0.4026 -0.5331
   81MOL0     C11059   6.137   0.360   4.633  0.2223 -0.2327 -0.0173
   81MOL0     C11060   6.146   0.213   4.671  0.0322  0.0647  0.6724
   81MOL0     C11061   6.027   0.151   4.759 -0.2285 -0.3447 -0.1918
   81MOL0     C11062   6.006  -0.003   4.744 -0.0233  0.5974 -0.6970
   81MOL0     C11063   6.118  -0.084   4.823  0.2563  0.3329 -0.3946
   81MOL0     O11064   6.102  -0.062   4.961 -0.2026 -0.0744  1.1355
   81MOL0     C11065   5.999  -0.141   5.017  0.5187 -0.2520 -0.0113
   81MOL0     C11066   5.939  -0.261   4.973  0.0423 -0.5314  0.5269
   81MOL0     C11067   5.840  -0.328   5.045  0.0813 -0.7791 -0.4985
   81MOL0     C11068   5.787  -0.453   4.976  0.5241 -0.0711 -0.3166
   81MOL0     C11069   5.783  -0.270   5.165 -0.6562  0.5159  0.5735
   81MOL0     C11070   5.669  -0.340   5.242  0.2884  0.0339  1.8897
   81MOL0     O11071   5.619  -0.463   5.206  0.0185 -0.4365  0.5405
   81MOL0     C11072   5.504  -0.515   5.258 -0.5063  0.2114 -0.0161
   81MOL0     C11073   5.511  -0.656   5.257 -0.2862  0.2177  0.1172
   81MOL0     C11074   5.407  -0.739   5.301  0.3262 -0.5803  0.0559
   81MOL0     C11075   5.290  -0.679   5.345  1.1320  0.4626 -0.5298
   81MOL0     O11076   5.196  -0.762   5.403  0.0968  0.1963  0.9610
   81MOL0     C11077   5.189  -0.742   5.546  0.4526  0.9319  0.2309
   81MOL0     C11078   5.050  -0.740   5.601  0.5098  0.4704 -0.6262
   81MOL0     C11079   4.960  -0.855   5.563  0.1023 -1.3196  0.7794
   81MOL0     C11080   4.819  -0.858   5.632  0.6671 -0.3018  0.7144
   81MOL0     C11081   4.819  -0.893   5.787  0.1301 -0.3596 -0.0207
   81MOL0     C11082   4.676  -0.892   5.841 -1.0924  0.1882  0.1485
   81MOL0     C11083   4.670  -0.939   5.991 -0.6056  0.1363 -0.4252
   81MOL0     C11084   4.532  -0.917   6.051 -0.1228  0.2380 -0.6717
   81MOL0    Cl11085   4.508  -0.971   6.222  0.1019  0.3503 -0.0523
   81MOL0     C11086   5.282  -0.538   5.347  1.0923 -0.2131  0.4901
   81MOL0     C11087   5.390  -0.454   5.310 -0.3513 -0.8623  0.0321
   81MOL0     O11088   5.627  -0.271   5.336 -0.4654 -0.1093 -0.4384
   81MOL0     C11089   5.846  -0.157   5.213 -0.8299 -0.5450  0.7461
   81MOL0     C11090   5.948  -0.084   5.143 -1.0406  1.0433  0.0939
   81MOL0     N11091   6.086   0.430   4.519 -0.4281  0.2392 -0.0733
   81MOL0     N11092   6.095   0.557   4.540  0.0417  0.3506 -0.0485
   81MOL0     C11093   6.712   1.216   4.967  0.1689 -0.5018  0.5448
   81MOL0     C11094   6.769   1.205   5.095 -0.3419 -0.3375  0.2249
   81MOL0     C11095   7.090   1.368   5.392  0.2359  0.3729  0.4755
   81MOL0     C11096   7.092   1.262   5.474  0.6985  0.1091  0.4807
   81MOL0     C11097   7.171   1.271   5.587  0.1189  1.1276 -0.1682
   81MOL0     C11098   7.245   1.381   5.630  1.2357  0.5332  0.0748
   81MOL0     O11099   7.328   1.394   5.736  0.2575  0.0019 -0.0011
   81MOL0     C11100   7.348   1.280   5.820 -0.0371  0.8134 -0.5473
   81MOL0     C11101   7.435   1.310   5.932 -0.0634 -0.8466  0.1485
   81MOL0     C11102   7.426   1.186   6.017  0.8781  0.9904 -0.1000
   81MOL0     C11103   7.503   1.181   6.145 -0.3716 -0.2655  0.3891
   81MOL0     C11104   7.490   1.054   6.211 -0.9997 -0.4401 -0.8826
   81MOL0     C11105   7.458   0.942   6.248 -0.4765 -0.5876  0.0857
   81MOL0     C11106   7.238   1.489   5.544 -0.0607  0.1596 -0.5421
   81MOL0     C11107   7.170   1.478   5.423 -0.3776 -1.2172 -0.0897
   81MOL0     C11108   7.196   1.588   5.317  0.1879  0.2081 -0.7927
   81MOL0     H11109   7.083   1.278   5.004  0.4853  1.5316  1.2499
   81MOL0     H11110   6.983   1.282   4.779 -0.7138  4.6095  1.0103
   81MOL0     H11111   6.666   1.416   4.674 -0.2100 -0.7852 -1.2981
   81MOL0     H11112   6.560   1.315   4.763  0.6158 -3.9471  0.7275
   81MOL0     H11113   6.482   1.340   4.536 -0.5062 -0.7219 -1.7954
   81MOL0     H11114   6.632   1.291   4.466 -1.2251 -2.9086 -2.3018
   81MOL0     H11115   6.502   1.099   4.447  3.1983 -2.6780  0.0932
   81MOL0     H11116   6.596   1.055   4.586 -0.0551 -0.4724 -0.9946
   81MOL0     H11117   6.419   1.173   4.734  2.1062  0.6241 -1.2542
   81MOL0     H11118   6.306   1.148   4.595 -3.0716 -1.5427  4.3379
   81MOL0     H11119   6.280   0.968   4.747  0.7334  0.2322  1.0336
   81MOL0     H11120   6.456   0.950   4.768 -0.6984  0.4859  0.1758
   81MOL0     H11121   6.318   0.889   4.498  2.2503  1.2337 -0.9592
   81MOL0     H11122   6.490   0.863   4.547  0.0114 -0.1898  0.2728
   81MOL0     H11123   6.419   0.695   4.715  1.1869 -1.6536 -0.7191
   81MOL0     H11124   6.366   0.642   4.557 -0.6837 -0.5197  0.5830
   81MOL0     H11125   6.218   0.700   4.795  4.3735  0.4679 -0.5331
   81MOL0     H11126   6.138   0.783   4.658  3.5950  3.1817  0.2921
   81MOL0     H11127   6.183   0.441   4.829 -2.2297  3.3764  0.3089
   81MOL0     H11128   6.245   0.205   4.717  1.4897 -1.7445 -2.4631
   81MOL0     H11129   6.167   0.154   4.581 -1.2300  0.7754 -0.1153
   81MOL0     H11130   6.034   0.177   4.864 -0.4725 -0.1696 -0.2190
   81MOL0     H11131   5.941   0.200   4.713  0.4503  1.6309  0.5248
   81MOL0     H11132   5.912  -0.034   4.792  1.1880  1.2451  2.3744
   81MOL0     H11133   6.001  -0.039   4.641  0.1150 -0.9106 -0.2025
   81MOL0     H11134   6.114  -0.188   4.789  0.9194  0.5043 -1.0282
   81MOL0     H11135   6.215  -0.046   4.788  0.0528  0.7425 -0.5186
   81MOL0     H11136   5.967  -0.316   4.884 -1.4806 -1.8570  0.8166
   81MOL0     H11137   5.822  -0.545   5.024  1.6060 -0.4802 -1.7994
   81MOL0     H11138   5.805  -0.443   4.869 -0.7861  2.5730 -0.3706
   81MOL0     H11139   5.678  -0.451   4.979  0.5400  0.0456  0.5680
   81MOL0     H11140   5.605  -0.704   5.232  1.7689  3.8433  0.1936
   81MOL0     H11141   5.422  -0.845   5.288 -1.3857 -0.6689 -1.7028
   81MOL0     H11142   5.254  -0.815   5.595  1.4245 -0.5994 -3.0301
   81MOL0     H11143   5.230  -0.643   5.569 -0.6360  0.8811  2.6735
   81MOL0     H11144   5.060  -0.741   5.710  0.8501  0.0698 -0.6588
   81MOL0     H11145   4.997  -0.648   5.572 -1.3986 -0.3214  0.1976
   81MOL0     H11146   5.002  -0.952   5.590  0.0443 -1.8100 -0.8333
   81MOL0     H11147   4.940  -0.869   5.457 -0.6771  0.5288  0.6398
   81MOL0     H11148   4.742  -0.921   5.587 -0.6356  0.3262  1.9580
   81MOL0     H11149   4.781  -0.755   5.626 -2.5921 -1.2173  2.7959
   81MOL0     H11150   4.863  -0.991   5.807 -3.6698 -2.8323 -2.3529
   81MOL0     H11151   4.876  -0.817   5.841  0.7456  1.3152 -2.8665
   81MOL0     H11152   4.612  -0.954   5.777  0.0551  1.3051 -2.2211
   81MOL0     H11153   4.635  -0.791   5.834  3.0626  2.3511  2.4863
   81MOL0     H11154   4.748  -0.886   6.046  0.8759 -2.4076  0.0467
   81MOL0     H11155   4.688  -1.046   6.001  0.0729  0.3696  1.3427
   81MOL0     H11156   4.456  -0.964   5.988 -0.1070  0.6197 -0.9794
   81MOL0     H11157   4.523  -0.808   6.042  1.2454  0.8638  3.5209
   81MOL0     H11158   5.191  -0.513   5.401  0.9569 -5.8210  3.6821
   81MOL0     H11159   5.376  -0.350   5.339 -0.7516 -1.5273  2.4847
   81MOL0     H11160   5.821  -0.114   5.309 -0.5465  2.9533 -0.5986
   81MOL0     H11161   5.961   0.017   5.179 -4.9223  1.8517 -0.3133
   81MOL0     H11162   6.605   1.201   4.966  0.3660 -2.4075 -1.9525
   81MOL0     H11163   6.710   1.188   5.185  0.4420 -0.0656  0.8018
   81MOL0     H11164   7.043   1.171   5.441  3.3981 -1.7791  1.3091
   81MOL0     H11165   7.178   1.177   5.642  2.1544  2.5529  2.2399
   81MOL0     H11166   7.247   1.263   5.859 -0.6914  1.2457 -1.9749
   81MOL0     H11167   7.388   1.192   5.768 -3.9203  0.4547 -3.3357
   81MOL0     H11168   7.398   1.396   5.989 -1.5443 -3.1768  2.9396
   81MOL0     H11169   7.535   1.331   5.895 -1.7114  2.5878 -3.0581
   81MOL0     H11170   7.325   1.163   6.054 -0.1437  1.8425 -2.1825
   81MOL0     H11171   7.463   1.095   5.968 -0.6027 -0.5070  1.4007
   81MOL0     H11172   7.464   1.260   6.211 -1.6401 -0.0877 -0.5460
   81MOL0     H11173   7.606   1.208   6.119 -0.8773 -0.0681 -1.5066
   81MOL0     H11174   7.426   0.852   6.295 -2.7026 -0.7494 -1.6075
   81MOL0     H11175   7.308   1.571   5.562  2.8796 -1.7569 -2.3935
   81MOL0     H11176   7.206   1.548   5.216 -5.4393  2.0604 -2.4281
   81MOL0     H11177   7.124   1.670   5.308  0.5234  0.8583  1.6190
   81MOL0     H11178   7.285   1.634   5.361 -1.0262  0.9285  1.0488
   82MOL0     O11179  11.085  11.001   1.899 -0.0853  0.1042 -0.4305
   82MOL0     C11180  11.120  11.016   2.021 -0.4367 -0.3119 -0.0326
   82MOL0     O11181  11.250  10.999   2.064  0.1808  0.4839  0.1553
   82MOL0     C11182  11.335  10.957   1.967  0.8183  1.1812 -0.4179
   82MOL0     C11183  11.327  10.843   1.891 -0.1557 -0.4596  0.7176
   82MOL0     C11184  11.430  10.816   1.799 -0.5115  0.3612 -0.9922
   82MOL0     C11185  11.551  10.887   1.803  0.0114 -0.3018 -0.2566
   82MOL0     O11186  11.656  10.844   1.730 -0.2309 -0.2784 -0.4959
   82MOL0     C11187  11.738  10.732   1.762 -0.6461  0.8048 -0.2098
   82MOL0     C11188  11.682  10.590   1.734  0.5231  0.0894  0.2685
   82MOL0     C11189  11.663  10.566   1.586  0.2483  0.0228 -0.9016
   82MOL0     C11190  11.585  10.432   1.566  0.2675 -0.6729  0.3784
   82MOL0     C11191  11.429  10.448   1.582  0.3020 -0.4584  0.0023
   82MOL0     C11192  11.347  10.317   1.547  0.0474 -1.0415  0.6666
   82MOL0     C11193  11.400  10.190   1.620 -0.5509  0.0181  0.8808
   82MOL0     C11194  11.376  10.179   1.776 -1.0372 -0.6469 -0.8907
   82MOL0     N11195  11.407  10.297   1.857  0.6433  0.2861  0.1683
   82MOL0     C11196  11.511  10.320   1.948  1.0840  0.1757  0.0308
   82MOL0     C11197  11.479  10.440   2.015 -0.4462 -0.0212  0.9100
   82MOL0     C11198  11.564  10.499   2.122 -0.3697  1.3802 -0.1778
   82MOL0     C11199  11.519  10.441   2.258 -0.3405 -0.0005 -0.2361
   82MOL0     C11200  11.369  10.445   2.286  0.6176  0.2963  0.6626
   82MOL0     C11201  11.322  10.598   2.315 -0.4519 -0.6578  0.0918
   82MOL0     O11202  11.186  10.586   2.357 -0.4821  0.1522  0.1960
   82MOL0     C11203  11.081  10.636   2.285  0.3228 -0.2275 -0.2903
   82MOL0     C11204  10.953  10.628   2.344 -0.4687  0.6144 -0.5797
   82MOL0     C11205  10.832  10.643   2.276  0.3602 -0.1184 -0.2910
   82MOL0     C11206  10.699  10.638   2.361 -0.1234 -0.1400  0.1360
   82MOL0     C11207  10.844  10.674   2.134  0.3877  0.2658  0.7995
   82MOL0     C11208  10.726  10.708   2.047  0.7303  0.0776 -0.3275
   82MOL0     O11209  10.748  10.750   1.917 -0.5565 -0.4221  0.1328
   82MOL0     C11210  10.641  10.789   1.843 -0.4657 -0.4162  0.3651
   82MOL0     C11211  10.525  10.851   1.891  0.4764 -0.3132 -0.2317
   82MOL0     C11212  10.411  10.884   1.811 -0.6434 -0.1107 -0.7222
   82MOL0     C11213  10.400  10.855   1.677  0.5205  0.3720  0.1413
   82MOL0     O11214  10.286  10.881   1.608 -0.1991  0.4134  0.1241
   82MOL0     C11215  10.308  10.929   1.471 -0.2762 -0.0616  0.7407
   82MOL0     C11216  10.171  10.948   1.403 -0.3943  0.2703 -0.0702
   82MOL0     C11217  10.083  11.049   1.485 -0.2816 -0.0198  0.1184
   82MOL0     C11218  10.144  11.195   1.487  0.7407  0.7752 -0.3515
   82MOL0     C11219  10.054  11.286   1.569 -0.2364 -0.0775 -0.2825
   82MOL0     C11220  10.129  11.313   1.704 -0.7266  0.3214  1.1521
   82MOL0     C11221  10.036  11.373   1.803 -0.4914 -0.1669 -0.1247
   82MOL0     C11222   9.955  11.508   1.765  0.0850 -0.3630 -0.1801
   82MOL0    Cl11223  10.068  11.641   1.760  0.0526 -0.2860 -0.2227
   82MOL0     C11224  10.519  10.796   1.625  0.3364  0.0140  0.0341
   82MOL0     C11225  10.631  10.763   1.703 -0.1841  0.0788  0.9166
   82MOL0     O11226  10.618  10.664   2.085 -0.1513  0.4526  0.1608
   82MOL0     C11227  10.974  10.692   2.078 -0.4628 -0.3786  0.2892
   82MOL0     C11228  11.091  10.668   2.146 -0.6920  0.2842  0.3488
   82MOL0     N11229  11.376  10.492   1.947 -0.2360 -0.6643  0.9141
   82MOL0     N11230  11.322  10.406   1.872 -0.3577 -0.1758 -0.3818
   82MOL0     C11231  11.562  11.000   1.892 -0.1821  0.5126  1.2450
   82MOL0     C11232  11.451  11.037   1.969 -0.1854  0.3284  0.4581
   82MOL0     C11233  11.025  11.073   2.112  0.2813 -0.1047  0.0388
   82MOL0     C11234  11.062  11.085   2.244 -0.2735  0.5866  0.0939
   82MOL0     C11235  10.980  11.123   2.341  0.0449  0.1478 -0.2802
   82MOL0     C11236  10.852  11.166   2.308 -0.2462 -0.3329  0.8934
   82MOL0     O11237  10.748  11.199   2.393 -0.2204 -1.0749 -0.3910
   82MOL0     C11238  10.783  11.220   2.531 -0.0677 -0.0816  0.2925
   82MOL0     C11239  10.779  11.084   2.604 -0.0563  0.8610 -0.0473
   82MOL0     C11240  10.833  11.115   2.752  0.0246 -1.5010  0.3358
   82MOL0     C11241  10.983  11.095   2.750 -0.8353 -0.9023 -0.4218
   82MOL0     C11242  11.029  11.075   2.886 -0.9918 -0.8452  0.5945
   82MOL0     C11243  11.084  11.041   2.994  0.4122 -0.2490  0.4545
   82MOL0     C11244  10.808  11.154   2.169  0.2708  0.2023  0.0183
   82MOL0     C11245  10.895  11.114   2.072  0.4440  0.6490  0.3024
   82MOL0     C11246  10.835  11.102   1.934 -0.0143 -0.1769  0.6943
   82MOL0     H11247  11.239  10.779   1.890 -1.1583  0.8575 -0.8880
   82MOL0     H11248  11.436  10.734   1.728  1.2724 -0.1821 -0.2599
   82MOL0     H11249  11.767  10.738   1.867  2.2559  1.2555 -0.9261
   82MOL0     H11250  11.827  10.755   1.703 -2.3753  3.5884 -1.9555
   82MOL0     H11251  11.754  10.521   1.779  3.8755  2.4910 -1.0088
   82MOL0     H11252  11.590  10.574   1.790 -0.1615 -1.9214 -1.3368
   82MOL0     H11253  11.617  10.651   1.535  2.8574  0.7310 -2.2175
   82MOL0     H11254  11.760  10.543   1.541  1.2558 -0.4848  1.3606
   82MOL0     H11255  11.615  10.402   1.465 -3.6862 -1.5977 -0.6776
   82MOL0     H11256  11.636  10.365   1.636 -1.7566 -0.4246  2.1858
   82MOL0     H11257  11.393  10.530   1.519  0.0486 -1.6302 -1.4395
   82MOL0     H11258  11.421  10.481   1.686 -0.0036 -0.9619  0.1404
   82MOL0     H11259  11.242  10.340   1.569 -0.5056 -1.4435 -1.3397
   82MOL0     H11260  11.358  10.309   1.439 -1.5887  0.6617  0.3150
   82MOL0     H11261  11.505  10.182   1.593 -0.6520  3.0920 -0.8189
   82MOL0     H11262  11.348  10.103   1.578 -0.2991  1.2915 -2.3770
   82MOL0     H11263  11.274  10.142   1.793 -0.7099 -0.9557  0.5540
   82MOL0     H11264  11.441  10.103   1.820 -0.8688  0.3811  0.7043
   82MOL0     H11265  11.604  10.267   1.965  0.4381 -0.0527  3.7217
   82MOL0     H11266  11.550  10.607   2.134  3.8398  1.8770  2.1858
   82MOL0     H11267  11.670  10.470   2.117 -0.2981  1.1955  1.7747
   82MOL0     H11268  11.573  10.345   2.264  0.8085  0.6382 -0.0264
   82MOL0     H11269  11.572  10.501   2.332  1.1237 -1.1512 -0.3009
   82MOL0     H11270  11.315  10.385   2.212 -0.3885  2.3725 -0.3824
   82MOL0     H11271  11.349  10.399   2.383  1.2546  0.0518  0.6805
   82MOL0     H11272  11.381  10.641   2.397 -2.4175  0.1429  1.1372
   82MOL0     H11273  11.342  10.669   2.234 -1.2092  0.4945  0.8934
   82MOL0     H11274  10.961  10.599   2.448  2.5068  0.5425 -0.7538
   82MOL0     H11275  10.629  10.719   2.339 -0.1351  0.6064  2.6081
   82MOL0     H11276  10.729  10.636   2.467 -1.3424  1.6693  0.5661
   82MOL0     H11277  10.653  10.540   2.341  2.2804 -1.3299  0.0111
   82MOL0     H11278  10.510  10.870   1.997 -3.2537  1.5060 -0.9405
   82MOL0     H11279  10.323  10.914   1.867 -0.5980 -0.7921 -0.2692
   82MOL0     H11280  10.361  11.025   1.477 -1.0202  0.2830  2.3008
   82MOL0     H11281  10.361  10.859   1.406 -0.0910 -2.9829  3.7952
   82MOL0     H11282  10.187  10.988   1.302  1.5432  0.0340  0.1134
   82MOL0     H11283  10.125  10.849   1.393 -0.7515  0.1391  2.2942
   82MOL0     H11284  10.079  11.004   1.585 -1.5954 -5.2439 -1.9470
   82MOL0     H11285   9.983  11.050   1.441 -0.6566 -3.2696  0.6504
   82MOL0     H11286  10.153  11.244   1.389 -0.3240  1.3327 -0.1904
   82MOL0     H11287  10.242  11.200   1.535  0.3162  1.2062  0.4864
   82MOL0     H11288  10.031  11.382   1.522 -1.0745  0.9045  1.9788
   82MOL0     H11289   9.958  11.239   1.591 -1.2891  1.5159 -1.2743
   82MOL0     H11290  10.207  11.384   1.676  0.3903 -0.5461  2.0073
   82MOL0     H11291  10.174  11.226   1.752 -0.1100  0.6034  1.0879
   82MOL0     H11292  10.084  11.389   1.900  0.4491  0.5749 -0.6986
   82MOL0     H11293   9.958  11.298   1.820 -2.3417  1.4056 -1.2138
   82MOL0     H11294   9.878  11.535   1.838  0.7833 -0.3888  0.5831
   82MOL0     H11295   9.901  11.502   1.670 -3.0748 -0.3015  1.4772
   82MOL0     H11296  10.517  10.772   1.519 -0.6099  2.1036 -0.4847
   82MOL0     H11297  10.712  10.712   1.652  1.2913  1.3196  1.9262
   82MOL0     H11298  10.981  10.725   1.975  0.0896  2.2578  1.0887
   82MOL0     H11299  11.190  10.661   2.101  0.0442  2.8467  1.3576
   82MOL0     H11300  11.644  11.071   1.895 -0.0484  0.6385 -1.9125
   82MOL0     H11301  11.455  11.121   2.039 -0.7348 -0.3797  1.3684
   82MOL0     H11302  11.156  11.039   2.271 -1.0654  0.4008  2.8145
   82MOL0     H11303  10.986  11.114   2.449  0.0827  2.2556 -0.0481
   82MOL0     H11304  10.877  11.275   2.540 -1.2968  1.8578  1.9722
   82MOL0     H11305  10.719  11.295   2.578 -0.5516 -1.2010  1.4698
   82MOL0     H11306  10.841  11.011   2.551 -0.4139 -0.9187  1.8660
   82MOL0     H11307  10.683  11.032   2.614  1.9020 -3.2773 -0.6949
   82MOL0     H11308  10.799  11.216   2.777  0.5192 -1.1765 -0.2635
   82MOL0     H11309  10.793  11.051   2.830 -0.3786 -1.6914 -0.0224
   82MOL0     H11310  11.018  11.191   2.713  3.1409 -1.9838  0.0822
   82MOL0     H11311  11.009  11.004   2.694  1.9599  0.0738 -0.8265
   82MOL0     H11312  11.130  11.007   3.084  1.3566  0.4619  0.2549
   82MOL0     H11313  10.704  11.179   2.151 -0.0606 -0.2428  1.2480
   82MOL0     H11314  10.888  11.171   1.867  0.6534  0.0165  1.3963
   82MOL0     H11315  10.843  11.001   1.893  0.7991 -0.4422  1.4669
   82MOL0     H11316  10.728  11.122   1.942  0.2445  1.6602  0.0991
   83MOL0     O11317   0.139   1.466   7.753  0.4240  0.3676  1.3171
   83MOL0     C11318   0.253   1.455   7.703  1.2896 -0.6915 -1.1367
   83MOL0     O11319   0.319   1.340   7.673  0.6751 -0.2128 -0.8179
   83MOL0     C11320   0.284   1.210   7.707 -0.6725  0.5371  0.2578
   83MOL0     C11321   0.384   1.119   7.675  0.0429  0.0824 -0.8796
   83MOL0     C11322   0.361   0.982   7.710 -0.0498  0.6871  0.4510
   83MOL0     C11323   0.259   0.941   7.783 -0.0833  0.7139  0.7526
   83MOL0     O11324   0.244   0.808   7.824  0.1488 -0.4043 -0.0538
   83MOL0     C11325   0.320   0.703   7.765  0.0745  0.7423  1.1428
   83MOL0     C11326   0.251   0.633   7.644  0.5152  1.0973 -0.3645
   83MOL0     C11327   0.112   0.570   7.672  0.1795  0.0216  0.9353
   83MOL0     C11328   0.062   0.483   7.541 -0.0853 -1.2469 -0.7980
   83MOL0     C11329  -0.052   0.395   7.596  0.3845 -0.3783  0.4685
   83MOL0     C11330  -0.095   0.284   7.500  0.1472 -0.3726 -0.1217
   83MOL0     C11331  -0.167   0.341   7.372  0.0103  0.1510 -1.1776
   83MOL0     C11332  -0.303   0.413   7.417 -0.5287  0.5434  0.5911
   83MOL0     N11333  -0.398   0.418   7.302  0.5883 -0.8174  0.6215
   83MOL0     C11334  -0.477   0.310   7.268 -0.0112 -0.7813  0.5168
   83MOL0     C11335  -0.536   0.344   7.155  0.1369 -0.2076 -0.4440
   83MOL0     C11336  -0.612   0.252   7.064 -0.8547 -0.0526  0.8916
   83MOL0     C11337  -0.691   0.331   6.955 -0.0967 -0.2113  0.1862
   83MOL0     C11338  -0.752   0.218   6.869 -0.2504  0.5138 -0.4722
   83MOL0     C11339  -0.836   0.266   6.749 -0.2850  0.3209  0.8240
   83MOL0     O11340  -0.936   0.362   6.783 -1.3438  0.0865  0.5125
   83MOL0     C11341  -1.021   0.404   6.692  0.8173  0.2854 -0.5822
   83MOL0     C11342  -1.108   0.489   6.742  0.6511  0.2130 -0.2325
   83MOL0     C11343  -1.203   0.549   6.660  0.4441  0.1297  1.0804
   83MOL0     C11344  -1.305   0.637   6.730 -0.1347 -0.5086  0.1572
   83MOL0     C11345  -1.217   0.514   6.524  0.0189  0.0376  0.5822
   83MOL0     C11346  -1.307   0.589   6.433 -0.7573  0.9527  0.1098
   83MOL0     O11347  -1.259   0.600   6.306 -0.2976  1.1249 -0.4354
   83MOL0     C11348  -1.341   0.664   6.226  0.1158  0.3540 -0.0984
   83MOL0     C11349  -1.395   0.593   6.118 -0.6680 -0.7528  0.3901
   83MOL0     C11350  -1.479   0.660   6.025 -0.9051 -0.3040  0.3147
   83MOL0     C11351  -1.508   0.791   6.051  1.1748  0.1059 -0.1687
   83MOL0     O11352  -1.599   0.865   5.976 -1.0532  0.3146  0.2498
   83MOL0     C11353  -1.551   0.917   5.846 -0.4952  1.6983 -0.4127
   83MOL0     C11354  -1.474   1.042   5.856 -0.2958  0.4791 -0.3725
   83MOL0     C11355  -1.482   1.134   5.726 -0.6745 -0.8421  0.5444
   83MOL0     C11356  -1.445   1.280   5.750 -0.4657 -0.3881  0.0583
   83MOL0     C11357  -1.426   1.370   5.626  0.3521 -0.1231  0.6538
   83MOL0     C11358  -1.547   1.383   5.532 -0.3926 -0.4705  0.6581
   83MOL0     C11359  -1.676   1.434   5.594  0.1753 -0.2028  0.3310
   83MOL0     C11360  -1.682   1.586   5.632 -0.6821  0.2732  0.4553
   83MOL0    Cl11361  -1.845   1.616   5.684  0.4109  0.2187 -0.1633
   83MOL0     C11362  -1.466   0.862   6.167  0.2252  0.5820  0.9694
   83MOL0     C11363  -1.382   0.802   6.261  0.1364 -0.4867  0.3327
   83MOL0     O11364  -1.420   0.614   6.466 -0.1265 -0.3093 -0.1389
   83MOL0     C11365  -1.117   0.426   6.474  0.2817  0.4430 -0.2979
   83MOL0     C11366  -1.018   0.368   6.555 -0.2108  1.1430 -0.6633
   83MOL0     N11367  -0.499   0.480   7.129 -0.4443  0.1457 -1.0240
   83MOL0     N11368  -0.419   0.522   7.221  0.4468  0.2092 -0.0770
   83MOL0     C11369   0.165   1.037   7.821 -0.1970  0.0349  0.6977
   83MOL0     C11370   0.177   1.170   7.783 -0.0833  0.6592 -0.3568
   83MOL0     C11371   0.320   1.579   7.670 -1.3641 -0.2008  0.7927
   83MOL0     C11372   0.444   1.555   7.600 -0.2942  0.9805 -0.4505
   83MOL0     C11373   0.516   1.656   7.532  0.1399  0.6592 -0.6955
   83MOL0     C11374   0.468   1.784   7.543 -0.3795  0.5940 -0.6842
   83MOL0     O11375   0.521   1.888   7.480 -1.0724 -0.0915 -0.2351
   83MOL0     C11376   0.646   1.872   7.412  0.0589 -0.0341  0.1958
   83MOL0     C11377   0.701   1.998   7.354  0.0719 -0.7522  0.7002
   83MOL0     C11378   0.600   2.073   7.259  1.6785  0.2016 -0.2050
   83MOL0     C11379   0.657   2.179   7.167  0.2807  0.1360 -0.7148
   83MOL0     C11380   0.741   2.115   7.066 -0.5622  0.4819  0.5112
   83MOL0     C11381   0.795   2.060   6.972 -0.2348 -0.2732  0.3626
   83MOL0     C11382   0.351   1.817   7.609  0.1224  0.2216 -0.2796
   83MOL0     C11383   0.281   1.709   7.672  0.9734 -0.7730  0.6296
   83MOL0     C11384   0.152   1.756   7.750 -0.5671 -0.0024 -0.0076
   83MOL0     H11385   0.474   1.155   7.625  1.2198 -2.3979 -0.6994
   83MOL0     H11386   0.442   0.916   7.680 -0.5568 -0.0381  0.6582
   83MOL0     H11387   0.334   0.627   7.842  1.7131 -2.2397 -1.8266
   83MOL0     H11388   0.426   0.713   7.739  0.1385 -1.5103  0.3683
   83MOL0     H11389   0.227   0.709   7.569 -0.4993  0.1866 -0.9867
   83MOL0     H11390   0.319   0.570   7.585 -0.9351  0.5562 -1.5175
   83MOL0     H11391   0.110   0.510   7.764  0.9405  3.1811  3.1849
   83MOL0     H11392   0.033   0.642   7.696  0.0289 -0.4389  1.8849
   83MOL0     H11393   0.032   0.549   7.459  3.1690 -0.1299 -1.2599
   83MOL0     H11394   0.147   0.423   7.508  2.3168 -0.4723  3.2260
   83MOL0     H11395  -0.137   0.460   7.618  0.3631 -0.7247  1.4768
   83MOL0     H11396  -0.033   0.333   7.684  1.0535  0.1404  0.6931
   83MOL0     H11397  -0.016   0.223   7.454 -2.3323 -2.0749 -2.4522
   83MOL0     H11398  -0.161   0.209   7.545  1.3161 -1.3564 -0.0100
   83MOL0     H11399  -0.198   0.254   7.313  4.1148 -0.9208 -2.1012
   83MOL0     H11400  -0.101   0.395   7.303  1.4969 -2.1331 -1.6838
   83MOL0     H11401  -0.347   0.363   7.504 -1.1259  2.6088  1.5378
   83MOL0     H11402  -0.287   0.520   7.429  0.7737  0.2248  2.0738
   83MOL0     H11403  -0.475   0.210   7.311  1.5451 -2.1883 -2.4894
   83MOL0     H11404  -0.674   0.189   7.129 -0.7034  1.2886  2.4069
   83MOL0     H11405  -0.545   0.178   7.020  0.7037  1.9540 -0.3086
   83MOL0     H11406  -0.763   0.393   7.009  1.6911 -0.1174  2.5952
   83MOL0     H11407  -0.630   0.405   6.903 -0.7422  0.6805  0.6804
   83MOL0     H11408  -0.671   0.157   6.828 -0.0068 -0.5416  1.4775
   83MOL0     H11409  -0.798   0.147   6.939  0.0435 -1.1866 -1.9412
   83MOL0     H11410  -0.768   0.313   6.677  1.2120 -3.8028 -0.7147
   83MOL0     H11411  -0.883   0.180   6.700 -0.7910  0.8287  0.3942
   83MOL0     H11412  -1.102   0.501   6.850  0.9113 -2.7207  0.1761
   83MOL0     H11413  -1.282   0.655   6.835  1.2169  1.9933 -0.4715
   83MOL0     H11414  -1.405   0.596   6.720 -0.7304  1.2870 -2.6215
   83MOL0     H11415  -1.308   0.741   6.696 -1.0435  0.5419  3.1692
   83MOL0     H11416  -1.372   0.489   6.096 -0.5285 -0.2534 -2.1210
   83MOL0     H11417  -1.515   0.621   5.930  1.6772  2.9978 -2.2800
   83MOL0     H11418  -1.484   0.852   5.789 -1.3119  1.7800 -1.4977
   83MOL0     H11419  -1.634   0.931   5.777  1.1028  1.5823 -2.4845
   83MOL0     H11420  -1.503   1.105   5.941  2.3835  2.3010 -0.6731
   83MOL0     H11421  -1.370   1.020   5.881 -0.1544 -1.5315 -2.3873
   83MOL0     H11422  -1.579   1.138   5.675 -0.5318  1.7280  0.3146
   83MOL0     H11423  -1.409   1.101   5.651 -1.2250 -1.9340  0.4606
   83MOL0     H11424  -1.350   1.285   5.805 -0.3456  0.9230 -0.2439
   83MOL0     H11425  -1.529   1.309   5.813 -1.4316 -3.9917  0.6617
   83MOL0     H11426  -1.403   1.468   5.670 -1.7908  0.6074  0.3019
   83MOL0     H11427  -1.338   1.343   5.567 -0.4980 -2.9991  0.5689
   83MOL0     H11428  -1.562   1.287   5.481  0.7545  0.2274 -1.1221
   83MOL0     H11429  -1.516   1.452   5.453  0.5143 -0.3496  1.1086
   83MOL0     H11430  -1.699   1.382   5.687  3.2992 -0.0417  1.3074
   83MOL0     H11431  -1.758   1.409   5.526 -0.0537  0.8394  0.2003
   83MOL0     H11432  -1.662   1.652   5.547  1.1163 -0.2458  0.4355
   83MOL0     H11433  -1.602   1.597   5.705 -1.8123 -0.9132  1.9333
   83MOL0     H11434  -1.489   0.966   6.187 -1.3790  0.6179 -0.7740
   83MOL0     H11435  -1.357   0.834   6.362 -5.2346 -1.8602  2.4920
   83MOL0     H11436  -1.106   0.396   6.370 -1.5574  0.6694 -0.5831
   83MOL0     H11437  -0.950   0.291   6.523 -1.6112  0.2823 -1.6897
   83MOL0     H11438   0.085   0.996   7.883 -1.6626  1.8750  0.1136
   83MOL0     H11439   0.097   1.236   7.816 -0.9631  0.1018 -1.3019
   83MOL0     H11440   0.490   1.457   7.594 -4.5002 -1.7980  4.2503
   83MOL0     H11441   0.609   1.617   7.494 -0.3337  0.8904 -2.1673
   83MOL0     H11442   0.716   1.831   7.485 -1.2157 -0.5597  1.1742
   83MOL0     H11443   0.636   1.801   7.329  0.5900  2.0029 -1.6833
   83MOL0     H11444   0.796   1.974   7.305 -0.2140  1.5198 -1.1852
   83MOL0     H11445   0.730   2.064   7.436  0.4067 -0.5508  0.4196
   83MOL0     H11446   0.549   1.996   7.201  2.1774  1.6055 -2.6727
   83MOL0     H11447   0.528   2.127   7.321  0.0197  2.1645 -3.5448
   83MOL0     H11448   0.705   2.258   7.226 -0.9147  0.2855  0.0946
   83MOL0     H11449   0.580   2.222   7.103 -2.4660 -1.9824  0.9181
   83MOL0     H11450   0.812   2.002   6.884 -3.3598  1.4316 -1.5641
   83MOL0     H11451   0.320   1.921   7.614  2.8578  1.1355 -0.9251
   83MOL0     H11452   0.065   1.742   7.685 -1.4313  0.1226  1.0913
   83MOL0     H11453   0.139   1.681   7.830  1.7363  0.1013  0.5330
   83MOL0     H11454   0.159   1.859   7.786 -1.3335 -0.5621  1.9119
   84MOL0     O11455   2.486   0.091   2.157 -0.1405 -0.0709  0.3923
   84MOL0     C11456   2.492   0.098   2.031 -0.2242 -0.4559 -0.7355
   84MOL0     O11457   2.401   0.152   1.950  0.0328 -0.7571 -0.6656
   84MOL0     C11458   2.267   0.177   1.983  0.1849 -0.0250 -0.3529
   84MOL0     C11459   2.223   0.188   2.119  0.9705  0.2251  1.0923
   84MOL0     C11460   2.088   0.224   2.145 -0.4525 -0.5022  0.9030
   84MOL0     C11461   1.997   0.262   2.044 -0.7138  0.9448 -0.2200
   84MOL0     O11462   1.866   0.300   2.084 -0.0359 -0.4368 -0.8022
   84MOL0     C11463   1.760   0.313   1.992 -0.0903 -0.3517  0.6545
   84MOL0     C11464   1.634   0.362   2.064 -0.0825 -0.3412 -0.3545
   84MOL0     C11465   1.552   0.240   2.113 -0.4725 -0.0040  0.2442
   84MOL0     C11466   1.636   0.158   2.214  0.0628 -0.5261 -0.0343
   84MOL0     C11467   1.555   0.070   2.309  0.5008 -0.5277 -0.5329
   84MOL0     C11468   1.624   0.045   2.445 -0.2991 -0.6372  0.1268
   84MOL0     C11469   1.733  -0.066   2.438 -0.7864 -0.0465 -0.8835
   84MOL0     C11470   1.809  -0.070   2.565  0.6187  0.0059 -0.5697
   84MOL0     N11471   1.739  -0.112   2.688 -0.2052  0.1058  1.1481
   84MOL0     C11472   1.633  -0.193   2.698  0.0716 -0.1005  0.0528
   84MOL0     C11473   1.593  -0.182   2.829 -0.6324 -0.2001  0.5793
   84MOL0     C11474   1.480  -0.252   2.899  0.6715  0.4865  0.6694
   84MOL0     C11475   1.357  -0.168   2.886  0.6734  0.7869  1.2358
   84MOL0     C11476   1.219  -0.241   2.908 -0.1024 -0.6455 -0.0551
   84MOL0     C11477   1.182  -0.216   3.059 -1.0446 -0.3318 -0.5316
   84MOL0     O11478   1.284  -0.252   3.159  0.3692  0.1995 -0.3656
   84MOL0     C11479   1.305  -0.392   3.160  0.4342 -0.9823 -0.9330
   84MOL0     C11480   1.429  -0.434   3.216  0.5407  0.7061 -0.3604
   84MOL0     C11481   1.448  -0.569   3.247 -0.4011  1.6674  0.6865
   84MOL0     C11482   1.581  -0.615   3.300  0.3414  1.3170  0.5110
   84MOL0     C11483   1.341  -0.662   3.224  0.1454 -0.8039 -0.4137
   84MOL0     C11484   1.355  -0.815   3.249  0.0894 -0.0135  0.4146
   84MOL0     O11485   1.294  -0.897   3.168 -0.0612  0.5965  0.0970
   84MOL0     C11486   1.304  -1.038   3.190 -0.6917  1.0037  0.4499
   84MOL0     C11487   1.200  -1.120   3.236  1.0751  0.9500 -0.4523
   84MOL0     C11488   1.227  -1.259   3.245  0.5918 -0.0551 -1.0596
   84MOL0     C11489   1.347  -1.313   3.215 -0.6565  0.1393  0.9836
   84MOL0     O11490   1.367  -1.447   3.205  0.0100 -0.4216 -0.6366
   84MOL0     C11491   1.326  -1.526   3.319  0.4868 -0.5967  0.2838
   84MOL0     C11492   1.197  -1.588   3.289  0.1073 -0.7084 -0.0333
   84MOL0     C11493   1.121  -1.620   3.422  0.2170 -0.2251  0.2783
   84MOL0     C11494   0.992  -1.703   3.404 -0.1378  0.3616 -0.0613
   84MOL0     C11495   0.935  -1.737   3.539  0.9941 -0.5022  1.3253
   84MOL0     C11496   0.924  -1.637   3.647  1.0438 -1.2229 -0.3791
   84MOL0     C11497   0.819  -1.665   3.755  0.0948  0.0105 -0.4505
   84MOL0     C11498   0.752  -1.540   3.818  0.4712  0.2608 -0.7216
   84MOL0    Cl11499   0.588  -1.580   3.849 -0.0820 -0.0301 -0.8238
   84MOL0     C11500   1.451  -1.234   3.174 -0.1632 -0.1258  0.1794
   84MOL0     C11501   1.431  -1.096   3.163  0.8379  0.0258  1.0968
   84MOL0     O11502   1.413  -0.858   3.353  0.3521 -0.0658  0.0351
   84MOL0     C11503   1.218  -0.613   3.178 -1.0288  0.5770  0.6817
   84MOL0     C11504   1.196  -0.478   3.146  0.4685  0.7145 -1.2876
   84MOL0     N11505   1.675  -0.097   2.898 -0.4235  0.3827 -0.2069
   84MOL0     N11506   1.764  -0.055   2.816 -0.4799  0.1686  0.8162
   84MOL0     C11507   2.042   0.257   1.916  0.2636  0.3672  0.0128
   84MOL0     C11508   2.173   0.215   1.881 -0.9500  0.4065  0.4109
   84MOL0     C11509   2.616   0.044   1.968  0.0956  0.6962  0.1421
   84MOL0     C11510   2.605  -0.031   1.847 -0.9271  0.1206 -0.3018
   84MOL0     C11511   2.706  -0.087   1.784 -0.4114 -1.0186  0.8118
   84MOL0     C11512   2.837  -0.081   1.835 -0.5106  0.1017  0.2866
   84MOL0     O11513   2.935  -0.149   1.774  0.4607 -0.3921  1.1895
   84MOL0     C11514   3.025  -0.223   1.862 -0.5931  1.1684 -0.1048
   84MOL0     C11515   3.167  -0.235   1.802 -0.0552  0.3140  0.0483
   84MOL0     C11516   3.146  -0.314   1.669  0.1719 -0.5631  0.3277
   84MOL0     C11517   3.281  -0.354   1.600 -0.0138  0.7180  0.0740
   84MOL0     C11518   3.329  -0.481   1.650  0.7376  0.6911  0.1886
   84MOL0     C11519   3.354  -0.592   1.699 -0.0917 -0.2812 -0.4212
   84MOL0     C11520   2.859   0.000   1.951  0.2732 -0.1427 -0.1419
   84MOL0     C11521   2.750   0.057   2.022  0.8533 -0.4060  0.0346
   84MOL0     C11522   2.771   0.122   2.153 -1.0431  0.3526  0.3448
   84MOL0     H11523   2.275   0.154   2.208  1.1230  1.7992  1.6294
   84MOL0     H11524   2.035   0.222   2.240  0.9870  2.0629  1.8671
   84MOL0     H11525   1.727   0.221   1.945 -0.0324 -1.4300  2.6152
   84MOL0     H11526   1.783   0.380   1.908 -1.8537 -0.0839  0.3438
   84MOL0     H11527   1.664   0.426   2.147 -0.6283 -0.3841 -0.1222
   84MOL0     H11528   1.567   0.423   2.003  1.0157 -0.7658 -2.0963
   84MOL0     H11529   1.463   0.282   2.162 -0.8172 -1.2006  0.6674
   84MOL0     H11530   1.534   0.177   2.026  0.4823  0.1300 -0.0651
   84MOL0     H11531   1.706   0.086   2.169 -0.9832 -1.8510  0.3777
   84MOL0     H11532   1.690   0.235   2.269  0.4741  0.5882 -1.8967
   84MOL0     H11533   1.532  -0.021   2.253 -1.3407  0.2611 -1.1315
   84MOL0     H11534   1.457   0.111   2.334 -0.0230 -2.7803  1.4455
   84MOL0     H11535   1.683   0.133   2.472  0.1170 -1.3834  1.7950
   84MOL0     H11536   1.555   0.019   2.527 -1.5605 -0.8210 -0.9535
   84MOL0     H11537   1.811  -0.039   2.366  1.8526 -1.2789  1.3446
   84MOL0     H11538   1.702  -0.169   2.419 -0.6647  0.5050 -5.2147
   84MOL0     H11539   1.890  -0.142   2.548 -0.8273 -1.8799  0.1644
   84MOL0     H11540   1.853   0.029   2.577 -0.0239  0.5702 -2.4526
   84MOL0     H11541   1.581  -0.253   2.624 -1.7377 -0.2959  1.4060
   84MOL0     H11542   1.500  -0.258   3.007  0.9392 -0.8574  0.5525
   84MOL0     H11543   1.461  -0.346   2.847  0.3345  0.0638  1.5200
   84MOL0     H11544   1.369  -0.084   2.956  0.3057  2.0652 -0.1878
   84MOL0     H11545   1.358  -0.135   2.782 -0.8677  0.4678  1.1037
   84MOL0     H11546   1.142  -0.201   2.841 -0.7873  0.1249  1.1619
   84MOL0     H11547   1.233  -0.342   2.870 -1.1955 -0.2857 -1.5182
   84MOL0     H11548   1.165  -0.108   3.071  0.3713 -0.2126  0.5482
   84MOL0     H11549   1.084  -0.259   3.082 -0.3099 -1.4256  0.6691
   84MOL0     H11550   1.496  -0.352   3.239 -1.3810  2.1912  0.1523
   84MOL0     H11551   1.631  -0.672   3.222  2.9640  4.2667 -0.1596
   84MOL0     H11552   1.565  -0.679   3.388  1.0957  4.0628  2.7984
   84MOL0     H11553   1.648  -0.535   3.333  0.7959  0.3235  2.1329
   84MOL0     H11554   1.102  -1.075   3.254  0.1139  0.0533 -2.9312
   84MOL0     H11555   1.140  -1.322   3.263  0.9312 -1.1462 -3.0115
   84MOL0     H11556   1.400  -1.604   3.336 -0.0914 -1.5521 -1.3506
   84MOL0     H11557   1.326  -1.459   3.406  0.0367 -0.6805  0.3547
   84MOL0     H11558   1.146  -1.513   3.227 -0.2238  2.0833  3.2719
   84MOL0     H11559   1.218  -1.685   3.243 -3.4226 -1.4517 -0.3975
   84MOL0     H11560   1.087  -1.521   3.454 -0.3712  0.5350 -2.4096
   84MOL0     H11561   1.195  -1.666   3.488  0.2499 -4.0690 -2.1123
   84MOL0     H11562   1.009  -1.790   3.340  0.1583  1.2280 -1.1983
   84MOL0     H11563   0.931  -1.643   3.336  2.2419  3.5715  0.3976
   84MOL0     H11564   0.832  -1.771   3.526  0.7160  1.3394 -2.7866
   84MOL0     H11565   0.997  -1.817   3.580  1.0945 -0.6720  0.8490
   84MOL0     H11566   0.894  -1.542   3.601 -2.5166 -0.9978  2.0236
   84MOL0     H11567   1.023  -1.634   3.693  1.4563 -6.3729 -0.3151
   84MOL0     H11568   0.854  -1.721   3.842  1.1411 -1.0923 -1.5444
   84MOL0     H11569   0.741  -1.730   3.714  1.6714 -5.8631  4.3639
   84MOL0     H11570   0.766  -1.459   3.745 -0.4520 -0.0079 -1.2185
   84MOL0     H11571   0.794  -1.518   3.916 -2.1186  0.9804  0.3111
   84MOL0     H11572   1.541  -1.276   3.129 -0.5303  0.7997 -1.5248
   84MOL0     H11573   1.512  -1.028   3.139  1.4442 -0.5716  1.4180
   84MOL0     H11574   1.143  -0.688   3.152  1.2626 -1.5242 -0.2948
   84MOL0     H11575   1.092  -0.454   3.129 -0.1586 -2.4885 -2.7419
   84MOL0     H11576   1.964   0.260   1.841  0.2912 -2.4090 -0.1999
   84MOL0     H11577   2.207   0.224   1.778  0.5336 -0.3964  0.8044
   84MOL0     H11578   2.507  -0.038   1.801 -1.3483 -0.1735  0.6272
   84MOL0     H11579   2.690  -0.130   1.686  0.5938  1.7106 -0.6834
   84MOL0     H11580   3.025  -0.207   1.970 -0.8899 -2.1552  0.5170
   84MOL0     H11581   2.995  -0.328   1.868  3.1297  0.0423  4.3425
   84MOL0     H11582   3.235  -0.288   1.869 -0.0323  3.0069  2.3483
   84MOL0     H11583   3.205  -0.138   1.769 -0.0485  0.2579 -0.1103
   84MOL0     H11584   3.082  -0.402   1.678  0.4782 -0.8805 -0.5103
   84MOL0     H11585   3.096  -0.248   1.597 -1.4492 -0.3913  1.5313
   84MOL0     H11586   3.347  -0.278   1.644 -1.1141  2.3348 -0.9674
   84MOL0     H11587   3.282  -0.366   1.491 -0.2750  1.2379  0.0104
   84MOL0     H11588   3.379  -0.685   1.745 -1.8295 -0.8477 -0.5377
   84MOL0     H11589   2.953   0.013   2.003 -0.4220 -1.6192  1.6045
   84MOL0     H11590   2.875   0.146   2.174  0.0454 -0.7875 -3.0901
   84MOL0     H11591   2.725   0.221   2.155  1.2816  1.7005 -3.0151
   84MOL0     H11592   2.728   0.052   2.225  3.1529 -2.3710  0.5048
   85MOL0     O11593   0.153   0.173  10.479  0.2663 -0.4272  1.1799
   85MOL0     C11594   0.145   0.284  10.539 -0.3288 -0.1083  0.1643
   85MOL0     O11595   0.078   0.320  10.663  0.6860 -0.2449  0.4103
   85MOL0     C11596  -0.011   0.226  10.703 -0.3478 -0.9207  0.2103
   85MOL0     C11597  -0.136   0.223  10.641 -0.2443  0.4896 -0.4464
   85MOL0     C11598  -0.219   0.117  10.673  0.0102  1.0634  0.9031
   85MOL0     C11599  -0.198   0.030  10.782 -0.7587 -0.8680 -0.0935
   85MOL0     O11600  -0.285  -0.062  10.817  0.0816 -0.4831  0.1185
   85MOL0     C11601  -0.426  -0.054  10.773 -0.1146 -0.6200 -0.7093
   85MOL0     C11602  -0.514  -0.171  10.819  0.6733 -0.2498  0.0043
   85MOL0     C11603  -0.462  -0.300  10.749 -0.0310 -0.7699 -0.3764
   85MOL0     C11604  -0.353  -0.381  10.819  0.0068  0.4752 -0.0923
   85MOL0     C11605  -0.336  -0.519  10.743  0.5013 -0.9337 -0.5103
   85MOL0     C11606  -0.219  -0.598  10.795 -0.4444  0.3299 -0.8412
   85MOL0     C11607  -0.214  -0.732  10.717 -1.3552  0.6887 -0.0137
   85MOL0     C11608  -0.077  -0.788  10.726 -0.0184  0.1041 -0.1693
   85MOL0     N11609  -0.026  -0.882  10.634  1.5572 -0.7014  0.3005
   85MOL0     C11610  -0.095  -0.987  10.577 -0.6576  0.0059  0.1439
   85MOL0     C11611  -0.013  -1.025  10.474 -0.0643  0.5241  0.3565
   85MOL0     C11612  -0.045  -1.135  10.373  0.2599  0.3600 -0.9510
   85MOL0     C11613  -0.031  -1.279  10.440 -0.3180  1.0063 -0.8508
   85MOL0     C11614   0.110  -1.337  10.468 -0.7847  1.0231  0.3279
   85MOL0     C11615   0.176  -1.374  10.336 -0.2701 -0.1079  0.3210
   85MOL0     O11616   0.121  -1.497  10.286 -0.2664  0.2088  0.1573
   85MOL0     C11617   0.160  -1.518  10.151 -0.1755 -0.3316 -0.9861
   85MOL0     C11618   0.087  -1.610  10.070  0.9919 -0.0469  1.3163
   85MOL0     C11619   0.127  -1.649   9.938  1.0593 -0.0445 -1.1813
   85MOL0     C11620   0.045  -1.762   9.878  0.1927 -0.1901  0.3957
   85MOL0     C11621   0.242  -1.578   9.891  0.9779  1.1560  0.4709
   85MOL0     C11622   0.278  -1.605   9.758  0.3782  1.7489  0.0194
   85MOL0     O11623   0.186  -1.627   9.660 -0.1167 -0.7033  0.3199
   85MOL0     C11624   0.220  -1.666   9.531  0.1191  0.6415 -0.6261
   85MOL0     C11625   0.301  -1.779   9.507  0.6304 -0.3561 -0.7322
   85MOL0     C11626   0.322  -1.823   9.379  0.6343  0.1823 -0.1507
   85MOL0     C11627   0.270  -1.763   9.269  0.0178 -0.7831  0.0734
   85MOL0     O11628   0.300  -1.836   9.156 -0.1077 -0.0259 -0.9086
   85MOL0     C11629   0.354  -1.753   9.048  0.1364  0.2896 -0.0273
   85MOL0     C11630   0.321  -1.811   8.914 -0.3640  0.6031 -0.1431
   85MOL0     C11631   0.331  -1.713   8.801 -0.6238  0.0952 -0.3733
   85MOL0     C11632   0.242  -1.752   8.685 -0.8914 -0.3156 -0.0550
   85MOL0     C11633   0.323  -1.824   8.575  0.0532  0.0256 -0.9423
   85MOL0     C11634   0.224  -1.869   8.465  0.3707 -0.8824  0.3164
   85MOL0     C11635   0.284  -1.948   8.348  0.1952 -0.2661  0.8441
   85MOL0     C11636   0.172  -2.033   8.276  0.2521 -0.2815  0.1000
   85MOL0    Cl11637   0.075  -2.135   8.381 -0.2739  0.3160  0.0163
   85MOL0     C11638   0.208  -1.638   9.284 -0.9306 -0.0835  0.3269
   85MOL0     C11639   0.174  -1.599   9.416  1.0291  0.4002 -0.4645
   85MOL0     O11640   0.399  -1.623   9.740  0.0261 -0.4554  0.2268
   85MOL0     C11641   0.318  -1.504   9.967  0.4451 -0.8082  0.1441
   85MOL0     C11642   0.281  -1.468  10.094 -0.5087 -0.2416 -0.0630
   85MOL0     N11643   0.098  -0.946  10.478 -0.1116  0.0881 -0.3874
   85MOL0     N11644   0.079  -0.855  10.563 -0.2800  0.0625 -0.8124
   85MOL0     C11645  -0.073   0.041  10.851 -0.2127  0.2409  1.1979
   85MOL0     C11646   0.021   0.125  10.799 -0.8166  0.3061  0.9118
   85MOL0     C11647   0.236   0.383  10.497 -0.7274 -0.2783  0.0772
   85MOL0     C11648   0.306   0.442  10.604 -0.0719  0.2167 -0.8055
   85MOL0     C11649   0.387   0.552  10.579 -0.8878 -0.4423  0.1248
   85MOL0     C11650   0.419   0.600  10.446 -0.2976  0.4033 -0.5613
   85MOL0     O11651   0.472   0.723  10.434 -0.0776 -0.1877  0.7423
   85MOL0     C11652   0.394   0.813  10.359 -0.6492 -0.4955  1.0038
   85MOL0     C11653   0.493   0.917  10.327  0.2127 -0.5631  0.0021
   85MOL0     C11654   0.425   1.043  10.260 -0.2748  0.2182 -0.2678
   85MOL0     C11655   0.323   1.030  10.142  0.2839  0.0815 -0.0245
   85MOL0     C11656   0.279   1.165  10.098  0.3842 -0.3429 -0.3214
   85MOL0     C11657   0.234   1.266  10.052 -0.0405  0.0703 -0.3536
   85MOL0     C11658   0.360   0.528  10.343  0.2209  0.2735  0.7490
   85MOL0     C11659   0.266   0.419  10.364 -0.0542  0.4103  0.1072
   85MOL0     C11660   0.216   0.334  10.257 -0.7950 -0.5763  0.4217
   85MOL0     H11661  -0.163   0.298  10.568  1.4775  1.7082  0.1125
   85MOL0     H11662  -0.307   0.122  10.609  0.4019  1.5257  0.3921
   85MOL0     H11663  -0.420  -0.052  10.664  0.6780 -0.9310 -0.6762
   85MOL0     H11664  -0.467   0.038  10.816  2.4548  1.1148 -1.7673
   85MOL0     H11665  -0.511  -0.177  10.928  0.5478 -2.3097 -0.0672
   85MOL0     H11666  -0.617  -0.157  10.786  1.2514  1.7839 -1.0985
   85MOL0     H11667  -0.552  -0.362  10.739 -0.6358 -0.4079  2.1666
   85MOL0     H11668  -0.414  -0.279  10.653  0.4192  0.1991  0.0566
   85MOL0     H11669  -0.259  -0.325  10.824 -0.7764  1.7884  4.7848
   85MOL0     H11670  -0.385  -0.389  10.923 -1.9724  1.1592 -0.6047
   85MOL0     H11671  -0.337  -0.503  10.635 -1.7930  5.9618  0.0355
   85MOL0     H11672  -0.433  -0.565  10.762 -1.2864  2.7411  0.2106
   85MOL0     H11673  -0.123  -0.545  10.790 -1.0738  1.8109  1.2165
   85MOL0     H11674  -0.228  -0.620  10.902 -1.6082 -1.8366 -1.3217
   85MOL0     H11675  -0.243  -0.734  10.612  1.6005 -1.9040 -0.9263
   85MOL0     H11676  -0.277  -0.802  10.773 -0.3812  2.0233  2.9889
   85MOL0     H11677  -0.008  -0.703  10.720  0.7139 -0.4922 -0.3667
   85MOL0     H11678  -0.053  -0.825  10.826 -0.1997 -3.1608 -1.2431
   85MOL0     H11679  -0.192  -1.033  10.594 -0.1339 -0.9200  0.7480
   85MOL0     H11680   0.001  -1.134  10.273 -1.2319 -1.8299 -1.7504
   85MOL0     H11681  -0.148  -1.111  10.344 -0.2014  0.4096  0.6489
   85MOL0     H11682  -0.095  -1.278  10.528 -0.1687  3.6778 -0.6869
   85MOL0     H11683  -0.088  -1.351  10.380 -1.7823  0.3804  1.1895
   85MOL0     H11684   0.165  -1.268  10.532 -1.2583  1.6050  0.1193
   85MOL0     H11685   0.089  -1.429  10.523 -2.5731  2.0185  1.4183
   85MOL0     H11686   0.164  -1.284  10.274 -1.7613 -0.1838  0.4796
   85MOL0     H11687   0.284  -1.394  10.346 -0.1104  0.1189 -0.7859
   85MOL0     H11688  -0.009  -1.638  10.112  0.8778 -0.4486  0.7897
   85MOL0     H11689   0.107  -1.818   9.807 -0.7066 -0.3389 -0.2904
   85MOL0     H11690  -0.039  -1.722   9.820 -0.2485  1.9448  2.3534
   85MOL0     H11691  -0.002  -1.829   9.950 -0.4360 -0.5459 -0.3350
   85MOL0     H11692   0.340  -1.845   9.584 -0.6307  0.3131  0.5207
   85MOL0     H11693   0.376  -1.915   9.359  0.5723  0.4846 -1.9163
   85MOL0     H11694   0.315  -1.652   9.060 -2.2673 -0.3154 -1.7574
   85MOL0     H11695   0.461  -1.737   9.056  0.6031 -2.0448 -0.7462
   85MOL0     H11696   0.374  -1.906   8.904  0.1432  0.6079  2.0529
   85MOL0     H11697   0.215  -1.833   8.933 -0.0153  0.6934  2.1251
   85MOL0     H11698   0.434  -1.718   8.765 -0.6425  1.6342 -0.7155
   85MOL0     H11699   0.309  -1.612   8.838 -0.8635  0.9919 -2.7568
   85MOL0     H11700   0.217  -1.663   8.626  1.0354 -1.0546 -2.1132
   85MOL0     H11701   0.150  -1.800   8.719 -1.2977  0.7010  0.3349
   85MOL0     H11702   0.399  -1.757   8.533  0.8460  0.6253  1.2713
   85MOL0     H11703   0.370  -1.913   8.619  1.0437  1.9755  2.3128
   85MOL0     H11704   0.186  -1.788   8.403  1.4282 -2.0210 -1.9660
   85MOL0     H11705   0.144  -1.930   8.508  1.2135 -0.5996  2.4083
   85MOL0     H11706   0.359  -2.013   8.395 -0.7522  1.0708  4.5900
   85MOL0     H11707   0.342  -1.885   8.280  1.1437 -1.0722  0.8858
   85MOL0     H11708   0.227  -2.104   8.213 -0.2138 -0.1300 -0.4818
   85MOL0     H11709   0.105  -1.971   8.216 -1.1409 -1.8687 -0.0708
   85MOL0     H11710   0.168  -1.597   9.192  3.8908 -0.4955 -2.2562
   85MOL0     H11711   0.104  -1.518   9.435  1.5823  0.8293 -0.2559
   85MOL0     H11712   0.420  -1.482   9.935  0.4334 -1.3159 -0.2600
   85MOL0     H11713   0.356  -1.407  10.143  3.3769 -1.8425 -3.4945
   85MOL0     H11714  -0.040  -0.024  10.932 -1.8340  0.8304  2.3936
   85MOL0     H11715   0.122   0.126  10.838 -0.6717  1.5535  0.5548
   85MOL0     H11716   0.307   0.407  10.706  0.2404  2.1050 -0.1256
   85MOL0     H11717   0.450   0.602  10.653  2.4470 -1.3630 -1.8611
   85MOL0     H11718   0.355   0.774  10.264 -0.3352  2.0889 -0.2706
   85MOL0     H11719   0.310   0.863  10.408 -1.7420 -1.1372 -0.1499
   85MOL0     H11720   0.579   0.894  10.263  0.7392  3.7149 -1.1690
   85MOL0     H11721   0.534   0.946  10.424 -3.7250 -1.8928  2.2994
   85MOL0     H11722   0.357   1.078  10.338  0.8522  1.7597  0.0723
   85MOL0     H11723   0.494   1.126  10.245 -4.6255  4.0681 -1.3369
   85MOL0     H11724   0.237   0.973  10.179  1.4461 -2.2398 -0.7106
   85MOL0     H11725   0.356   0.975  10.053  0.7047 -1.6986  1.1756
   85MOL0     H11726   0.182   1.345  10.002 -0.6848 -0.1283 -0.0103
   85MOL0     H11727   0.379   0.557  10.240  1.9559  1.1550  1.2871
   85MOL0     H11728   0.107   0.337  10.268 -0.7170  0.0130  1.1056
   85MOL0     H11729   0.239   0.370  10.156 -0.4251 -1.0571  0.3327
   85MOL0     H11730   0.261   0.235  10.266  1.0949  0.1884 -0.1117
   86MOL0     O11731   7.529   0.694   6.550  0.1543 -0.9244 -0.6767
   86MOL0     C11732   7.593   0.795   6.587 -0.6970  0.2024 -0.4974
   86MOL0     O11733   7.620   0.833   6.723 -0.3425 -0.0302  0.5141
   86MOL0     C11734   7.568   0.786   6.837  0.2508  1.1612 -0.0949
   86MOL0     C11735   7.607   0.845   6.955  0.7619 -0.8642 -0.2060
   86MOL0     C11736   7.548   0.810   7.074  1.5207  0.0566 -0.7144
   86MOL0     C11737   7.446   0.712   7.085  1.3314 -0.7449 -0.6352
   86MOL0     O11738   7.400   0.645   7.195 -0.5453 -0.2439 -0.0889
   86MOL0     C11739   7.458   0.664   7.317  1.2301 -0.5000  0.1143
   86MOL0     C11740   7.391   0.591   7.436  0.3954 -0.2582  0.2664
   86MOL0     C11741   7.479   0.617   7.563  0.9727  1.3288 -0.3789
   86MOL0     C11742   7.389   0.560   7.674  0.6879 -0.0710  0.2608
   86MOL0     C11743   7.456   0.562   7.813  0.7827  0.1416  0.1377
   86MOL0     C11744   7.400   0.670   7.909  0.0148  0.5825  0.7093
   86MOL0     C11745   7.488   0.679   8.034  0.7808  0.1938 -0.6386
   86MOL0     C11746   7.492   0.548   8.121 -0.8511  1.0264 -0.5415
   86MOL0     N11747   7.368   0.481   8.146 -0.0145  0.8198  0.3143
   86MOL0     C11748   7.246   0.542   8.183  0.3026  0.1751  0.1708
   86MOL0     C11749   7.153   0.447   8.169  0.8751 -0.3107 -0.7358
   86MOL0     C11750   7.004   0.448   8.201  0.2197  0.2930 -0.5397
   86MOL0     C11751   6.945   0.516   8.083  0.7131 -0.5145  1.0067
   86MOL0     C11752   6.798   0.501   8.099  0.9404  0.0850  0.0775
   86MOL0     C11753   6.710   0.550   7.987  0.1357 -0.7356 -0.3628
   86MOL0     O11754   6.571   0.528   8.034 -0.2972 -0.1230 -0.4737
   86MOL0     C11755   6.457   0.570   7.966  0.8184 -0.3630 -0.1623
   86MOL0     C11756   6.448   0.691   7.885 -0.8373  0.5573  0.3597
   86MOL0     C11757   6.327   0.717   7.818 -0.2017  0.3517  0.0056
   86MOL0     C11758   6.327   0.830   7.718  0.3412 -0.1469  0.0922
   86MOL0     C11759   6.212   0.633   7.843  0.8447  0.1683 -0.9914
   86MOL0     C11760   6.086   0.667   7.777 -0.7129 -0.1506 -0.3331
   86MOL0     O11761   6.031   0.563   7.704 -0.5395 -0.2431 -0.1482
   86MOL0     C11762   5.919   0.577   7.644 -0.4817 -0.2338  0.1520
   86MOL0     C11763   5.890   0.690   7.563  0.0744  0.5540  0.3020
   86MOL0     C11764   5.761   0.713   7.521  0.8585  0.4942  0.2481
   86MOL0     C11765   5.659   0.613   7.524 -0.3249 -0.7582  0.8401
   86MOL0     O11766   5.532   0.640   7.479 -0.3105  0.3079 -0.1991
   86MOL0     C11767   5.477   0.756   7.546  0.0433 -0.1950  0.1779
   86MOL0     C11768   5.429   0.858   7.439 -0.1190  0.3205 -0.4021
   86MOL0     C11769   5.368   0.980   7.514 -0.5182  0.3818 -0.9962
   86MOL0     C11770   5.340   1.099   7.417  0.5320 -0.7190 -0.0089
   86MOL0     C11771   5.206   1.093   7.355  0.5733  0.5471 -0.7905
   86MOL0     C11772   5.193   1.207   7.253  1.0074 -0.0182 -0.1604
   86MOL0     C11773   5.052   1.224   7.193  0.1855  0.3191 -0.3701
   86MOL0     C11774   5.051   1.338   7.099 -0.0685 -0.5438 -0.3631
   86MOL0    Cl11775   4.891   1.398   7.074  0.3295 -0.1573  0.0292
   86MOL0     C11776   5.694   0.490   7.584 -0.2110  0.7184 -0.8435
   86MOL0     C11777   5.821   0.477   7.647  0.1723  0.0449 -0.7477
   86MOL0     O11778   6.033   0.779   7.800  0.1365  0.8664 -0.5522
   86MOL0     C11779   6.227   0.520   7.925 -0.5688 -0.5373 -0.5035
   86MOL0     C11780   6.347   0.487   7.987  0.1833  0.0747  0.1246
   86MOL0     N11781   7.217   0.330   8.136 -0.0834 -0.2998  0.6526
   86MOL0     N11782   7.346   0.353   8.107  0.3602  0.1505  0.0200
   86MOL0     C11783   7.399   0.656   6.963  0.1773  0.1850  0.0040
   86MOL0     C11784   7.464   0.686   6.841  0.3250 -0.9774  1.1765
   86MOL0     C11785   7.689   0.846   6.490  0.0133  1.4786  0.6983
   86MOL0     C11786   7.756   0.749   6.420 -0.0243 -0.0014  1.1248
   86MOL0     C11787   7.864   0.770   6.329 -0.6304  0.2676  0.4465
   86MOL0     C11788   7.911   0.908   6.323 -0.3213  0.7093  0.2850
   86MOL0     O11789   8.023   0.937   6.247 -0.0260  0.1213  0.1174
   86MOL0     C11790   7.991   0.967   6.108  0.1919 -0.1420 -0.1164
   86MOL0     C11791   8.101   1.006   6.015 -0.3619  0.0225  0.4542
   86MOL0     C11792   8.129   1.153   6.009 -0.6742 -0.2083  0.4112
   86MOL0     C11793   8.206   1.190   6.129  0.0458 -0.1172 -0.2894
   86MOL0     C11794   8.206   1.339   6.129 -0.1588  0.4380 -0.0261
   86MOL0     C11795   8.220   1.464   6.118 -0.6873 -0.3987 -0.0858
   86MOL0     C11796   7.846   1.007   6.388 -0.7202 -0.2481 -0.1349
   86MOL0     C11797   7.740   0.978   6.477 -0.0135  0.2613 -0.6406
   86MOL0     C11798   7.682   1.093   6.551 -0.0132  0.8341 -0.8201
   86MOL0     H11799   7.684   0.921   6.952 -1.7012  1.9805  2.2679
   86MOL0     H11800   7.573   0.868   7.162 -0.7969 -3.0429  2.2682
   86MOL0     H11801   7.452   0.770   7.340 -2.7489 -0.8025  1.2117
   86MOL0     H11802   7.563   0.633   7.325  1.9937  2.1155  1.1082
   86MOL0     H11803   7.294   0.639   7.456  0.9990  1.1607 -0.0661
   86MOL0     H11804   7.357   0.489   7.419 -1.8784  0.7075 -1.5233
   86MOL0     H11805   7.571   0.558   7.555  0.1551  0.0889 -1.2338
   86MOL0     H11806   7.510   0.719   7.585 -1.5152  1.5620  2.8305
   86MOL0     H11807   7.293   0.612   7.666  0.6302  0.2950  2.6941
   86MOL0     H11808   7.365   0.453   7.669 -4.0129  0.8610 -3.0083
   86MOL0     H11809   7.565   0.570   7.815  0.7759  0.1211  1.4902
   86MOL0     H11810   7.425   0.469   7.863  0.9616  0.5412  1.0024
   86MOL0     H11811   7.404   0.766   7.855 -1.1759  0.0981 -0.2959
   86MOL0     H11812   7.293   0.652   7.925 -0.0453 -0.4182 -0.6550
   86MOL0     H11813   7.455   0.762   8.098  2.6607  0.2052  0.3885
   86MOL0     H11814   7.595   0.695   8.019  1.4693 -3.1545 -0.0294
   86MOL0     H11815   7.555   0.481   8.060 -2.3827 -0.1366 -0.9118
   86MOL0     H11816   7.542   0.567   8.216 -5.0071  0.5826  1.9826
   86MOL0     H11817   7.233   0.647   8.207 -0.0881  0.5294 -1.4746
   86MOL0     H11818   6.982   0.494   8.297  2.1206  1.1817 -0.4779
   86MOL0     H11819   6.983   0.341   8.202 -0.3642  0.4063  0.3747
   86MOL0     H11820   6.990   0.615   8.087 -0.2981 -0.0884  2.6346
   86MOL0     H11821   6.970   0.458   7.993  0.4692 -0.6141  1.0035
   86MOL0     H11822   6.776   0.394   8.108  1.0012 -0.1357 -1.9129
   86MOL0     H11823   6.758   0.553   8.187 -2.0280  2.1960 -2.3260
   86MOL0     H11824   6.733   0.654   7.965  2.1548 -0.9686  0.4148
   86MOL0     H11825   6.716   0.495   7.893 -2.4542 -2.5600  0.3829
   86MOL0     H11826   6.533   0.755   7.863 -1.0095  0.4313 -0.7601
   86MOL0     H11827   6.431   0.838   7.686  0.0617  0.2683 -0.7426
   86MOL0     H11828   6.304   0.922   7.773  4.5002  1.0362  0.2259
   86MOL0     H11829   6.267   0.807   7.629 -0.5817 -0.8870  0.8813
   86MOL0     H11830   5.972   0.761   7.553  1.0682 -0.7678 -1.5616
   86MOL0     H11831   5.741   0.810   7.476  0.6199  0.9164  1.2263
   86MOL0     H11832   5.393   0.724   7.608  0.8197  0.2481  1.4997
   86MOL0     H11833   5.540   0.803   7.621 -2.1761 -1.6636  3.1527
   86MOL0     H11834   5.508   0.874   7.366  0.7306 -2.9878 -0.4024
   86MOL0     H11835   5.348   0.810   7.383 -1.4727  0.2185  1.5566
   86MOL0     H11836   5.432   1.016   7.596 -0.8115  0.4660 -0.8008
   86MOL0     H11837   5.281   0.938   7.564  1.4862 -1.3248  1.3511
   86MOL0     H11838   5.419   1.100   7.341  1.2181  0.0515  0.6902
   86MOL0     H11839   5.362   1.192   7.471  0.7897 -0.3097 -0.8019
   86MOL0     H11840   5.193   0.996   7.306  2.0740  0.8866 -1.9253
   86MOL0     H11841   5.143   1.110   7.442  1.8206 -0.1891  0.2813
   86MOL0     H11842   5.271   1.202   7.177 -0.8545  2.0677 -2.3676
   86MOL0     H11843   5.215   1.297   7.312 -0.6930  0.7534 -0.6429
   86MOL0     H11844   4.979   1.238   7.273 -1.7840 -0.7122 -1.9112
   86MOL0     H11845   5.031   1.135   7.133 -0.9903 -2.2235  3.4280
   86MOL0     H11846   5.089   1.304   7.002  5.3738  0.5214  1.0777
   86MOL0     H11847   5.124   1.413   7.128 -0.0981 -1.2554  1.7064
   86MOL0     H11848   5.622   0.409   7.584  1.4077 -0.7904 -0.0920
   86MOL0     H11849   5.826   0.395   7.718 -3.1492  1.1432  0.9952
   86MOL0     H11850   6.151   0.444   7.937 -2.8510  1.4546 -1.3381
   86MOL0     H11851   6.358   0.398   8.049 -1.9012  0.2661  0.8646
   86MOL0     H11852   7.317   0.586   6.970  0.6979 -0.5967 -1.4320
   86MOL0     H11853   7.415   0.654   6.750  0.8507 -0.6499  0.7723
   86MOL0     H11854   7.725   0.646   6.427 -2.2230  0.3842 -1.3820
   86MOL0     H11855   7.917   0.690   6.278  2.1305  1.9541  0.4352
   86MOL0     H11856   7.956   0.871   6.068  2.0638 -0.2446 -1.6249
   86MOL0     H11857   7.901   1.030   6.101 -1.4385 -2.4933 -3.4651
   86MOL0     H11858   8.082   0.962   5.917  1.4708  0.2700 -0.0521
   86MOL0     H11859   8.191   0.956   6.052  1.3223  1.3142 -1.6174
   86MOL0     H11860   8.190   1.166   5.919  1.9005  1.2333  2.2131
   86MOL0     H11861   8.041   1.216   5.997  1.7262  5.4729  6.6655
   86MOL0     H11862   8.309   1.157   6.116  0.4506  0.5226  1.1207
   86MOL0     H11863   8.166   1.149   6.222  0.7406  0.6737  0.3675
   86MOL0     H11864   8.217   1.571   6.109 -0.5425 -0.4872 -1.4104
   86MOL0     H11865   7.881   1.107   6.363 -1.7815 -0.0669 -0.9288
   86MOL0     H11866   7.745   1.157   6.614 -1.1600  0.0605  1.2125
   86MOL0     H11867   7.660   1.164   6.470  0.5914  1.3631 -0.5330
   86MOL0     H11868   7.604   1.047   6.612  1.7509  1.9762  2.5792
   87MOL0     O11869   6.680   6.329   3.615  0.2618  0.5356  0.4368
   87MOL0     C11870   6.770   6.408   3.587  1.4516 -0.2348 -0.2125
   87MOL0     O11871   6.766   6.537   3.617  0.6570  0.1635 -0.1193
   87MOL0     C11872   6.844   6.632   3.551  0.2489  0.5558 -0.0413
   87MOL0     C11873   6.949   6.694   3.613  0.6877 -1.0290 -0.8663
   87MOL0     C11874   7.025   6.794   3.552  0.3868 -0.1147  0.4220
   87MOL0     C11875   7.007   6.817   3.420  0.0912 -0.0580  0.5575
   87MOL0     O11876   7.092   6.882   3.333 -0.1319 -0.4803  0.4213
   87MOL0     C11877   7.186   6.983   3.394  0.3323  0.5948 -0.7080
   87MOL0     C11878   7.206   7.101   3.303  0.4988  0.3876  0.3250
   87MOL0     C11879   7.125   7.227   3.340 -0.0145  0.1189 -0.3446
   87MOL0     C11880   7.181   7.352   3.285 -0.1435  0.1856  0.5137
   87MOL0     C11881   7.092   7.479   3.324  0.3768  0.8665 -0.0676
   87MOL0     C11882   7.136   7.527   3.465 -0.1500  0.1060  0.4542
   87MOL0     C11883   7.018   7.619   3.510  1.0093  0.1565  0.2305
   87MOL0     C11884   7.078   7.739   3.575 -0.2291 -0.2379  0.0414
   87MOL0     N11885   7.170   7.719   3.683 -0.2159 -0.4064  0.9954
   87MOL0     C11886   7.160   7.625   3.776 -0.7542  0.7319  0.8352
   87MOL0     C11887   7.277   7.633   3.838 -0.4924 -0.5150  0.1112
   87MOL0     C11888   7.313   7.527   3.943  0.1351 -1.3021 -0.0575
   87MOL0     C11889   7.366   7.595   4.074 -0.9402  0.0712  0.0011
   87MOL0     C11890   7.414   7.488   4.169  0.1075  0.3583 -0.3085
   87MOL0     C11891   7.502   7.532   4.293  1.3865 -0.5704  0.7636
   87MOL0     O11892   7.516   7.439   4.393  0.1851 -1.1403 -0.5601
   87MOL0     C11893   7.597   7.480   4.495  0.8314  0.5060  0.1369
   87MOL0     C11894   7.542   7.517   4.616  0.6268 -0.3136 -0.1514
   87MOL0     C11895   7.617   7.556   4.720 -0.3129 -1.2466 -0.8075
   87MOL0     C11896   7.542   7.575   4.846  0.4405 -0.2495 -0.0908
   87MOL0     C11897   7.757   7.581   4.711 -0.0978 -0.1165 -0.0122
   87MOL0     C11898   7.835   7.624   4.822 -0.2191  0.1204  0.4508
   87MOL0     O11899   7.936   7.543   4.862 -0.1195  0.8348  0.4752
   87MOL0     C11900   7.995   7.569   4.986 -0.4458 -0.4385 -0.1648
   87MOL0     C11901   8.102   7.661   4.993 -0.2610 -0.4947 -0.0350
   87MOL0     C11902   8.181   7.687   5.102  0.6399  0.8633  0.8379
   87MOL0     C11903   8.153   7.611   5.227 -1.0279  0.7093 -0.0626
   87MOL0     O11904   8.262   7.620   5.316  0.1761  0.0076  0.0843
   87MOL0     C11905   8.274   7.518   5.410  0.3043 -0.1570 -0.1779
   87MOL0     C11906   8.354   7.570   5.534 -0.0079 -0.3350  0.3667
   87MOL0     C11907   8.491   7.612   5.484 -0.4802 -0.3346  0.6967
   87MOL0     C11908   8.587   7.502   5.451  1.1451 -1.1125 -0.3506
   87MOL0     C11909   8.733   7.545   5.443 -0.2417  0.7537 -0.5873
   87MOL0     C11910   8.798   7.545   5.309  0.0931  0.5836 -0.5532
   87MOL0     C11911   8.946   7.563   5.312  0.4223 -0.0886  0.4603
   87MOL0     C11912   9.030   7.446   5.364  0.0391  0.0273 -0.1523
   87MOL0    Cl11913   9.205   7.484   5.323  0.0393 -0.2479  0.0091
   87MOL0     C11914   8.035   7.528   5.229 -0.1536 -0.2514 -0.1655
   87MOL0     C11915   7.963   7.505   5.107  0.2309  1.4165  0.5749
   87MOL0     O11916   7.794   7.722   4.885  0.0134 -0.1131  0.3109
   87MOL0     C11917   7.817   7.527   4.598 -0.3619 -0.9638 -0.0705
   87MOL0     C11918   7.739   7.478   4.493 -0.0629  0.1783  0.7686
   87MOL0     N11919   7.358   7.723   3.778  0.4376  0.3789  0.2588
   87MOL0     N11920   7.288   7.784   3.687  1.1508  0.1202 -0.4971
   87MOL0     C11921   6.890   6.762   3.360  0.0382  0.1917 -0.2610
   87MOL0     C11922   6.811   6.668   3.424  0.6321 -0.6112  0.6333
   87MOL0     C11923   6.884   6.350   3.522  0.7433  0.2437 -0.0270
   87MOL0     C11924   6.879   6.347   3.380 -1.9630  0.4540  0.0643
   87MOL0     C11925   6.979   6.285   3.307 -0.3718  0.6235 -0.2414
   87MOL0     C11926   7.092   6.225   3.372 -0.2071 -0.5306  0.0276
   87MOL0     O11927   7.191   6.154   3.311 -0.0355 -0.5902  0.2542
   87MOL0     C11928   7.184   6.141   3.172 -0.4437 -0.0380  0.5104
   87MOL0     C11929   7.313   6.081   3.119 -0.3896 -0.2392  1.2256
   87MOL0     C11930   7.308   6.070   2.964  0.0267  0.6333  0.5910
   87MOL0     C11931   7.199   5.966   2.908 -0.6796  0.5801  0.2429
   87MOL0     C11932   7.068   6.031   2.881 -1.0684 -0.3457  0.5022
   87MOL0     C11933   6.958   6.078   2.874  0.2621  0.0210 -0.2086
   87MOL0     C11934   7.102   6.249   3.505 -0.4734 -0.1688  0.4515
   87MOL0     C11935   7.001   6.298   3.586 -0.4473 -0.1945 -0.3512
   87MOL0     C11936   7.028   6.316   3.734  0.0844 -0.0251 -0.7816
   87MOL0     H11937   6.957   6.655   3.714  1.0235 -1.4458 -1.0538
   87MOL0     H11938   7.104   6.847   3.605  1.3888  0.2056 -1.2892
   87MOL0     H11939   7.279   6.929   3.414  0.1123 -0.0013 -1.2376
   87MOL0     H11940   7.137   7.024   3.483 -4.0469  1.4310 -3.2185
   87MOL0     H11941   7.312   7.116   3.278 -0.1714 -1.0976 -4.3716
   87MOL0     H11942   7.163   7.068   3.208  1.8134  3.5083 -1.5409
   87MOL0     H11943   7.019   7.220   3.313 -0.0763  2.7128 -1.1192
   87MOL0     H11944   7.127   7.245   3.448 -0.0324 -1.2963 -0.0965
   87MOL0     H11945   7.288   7.360   3.307 -0.5212  0.2140  2.4647
   87MOL0     H11946   7.176   7.346   3.176  1.0781  0.4539  0.4335
   87MOL0     H11947   6.987   7.447   3.312  0.5040  0.7164 -0.8594
   87MOL0     H11948   7.121   7.559   3.256  1.6929 -1.1709 -2.0639
   87MOL0     H11949   7.147   7.450   3.543 -1.6107 -0.5178  0.0810
   87MOL0     H11950   7.225   7.588   3.451  0.6529 -0.9275  0.9155
   87MOL0     H11951   6.959   7.566   3.585  1.5663 -0.7667  0.0346
   87MOL0     H11952   6.953   7.656   3.429  0.2048  0.4356  0.9919
   87MOL0     H11953   7.126   7.790   3.491 -2.4536  1.0077 -0.5505
   87MOL0     H11954   6.995   7.797   3.618 -0.8536 -1.4047  0.4690
   87MOL0     H11955   7.090   7.543   3.790  1.1812 -0.7989  1.9722
   87MOL0     H11956   7.380   7.452   3.901  1.3879  0.6704 -1.7682
   87MOL0     H11957   7.222   7.472   3.971 -0.5196 -0.5058 -0.5456
   87MOL0     H11958   7.447   7.662   4.044 -1.7196  0.8361 -0.4489
   87MOL0     H11959   7.289   7.656   4.122  0.1390  0.4214  1.3650
   87MOL0     H11960   7.325   7.435   4.203 -0.8755  1.4893 -1.0150
   87MOL0     H11961   7.473   7.417   4.109  0.8629  1.3603 -0.7761
   87MOL0     H11962   7.606   7.532   4.257  1.5241 -4.3006  0.8326
   87MOL0     H11963   7.472   7.632   4.328  1.0973 -0.6899  0.8586
   87MOL0     H11964   7.435   7.499   4.613  0.1445  1.8818 -3.9898
   87MOL0     H11965   7.446   7.524   4.838 -0.7705  1.9780 -0.5145
   87MOL0     H11966   7.512   7.679   4.864 -1.0051 -0.8245  0.9697
   87MOL0     H11967   7.598   7.551   4.936  0.1559  2.0447  0.7749
   87MOL0     H11968   8.113   7.725   4.906 -3.0823 -1.2415 -1.0582
   87MOL0     H11969   8.265   7.756   5.102  1.1569  0.4056  4.4112
   87MOL0     H11970   8.175   7.492   5.449  0.2252 -1.1225 -1.0069
   87MOL0     H11971   8.318   7.427   5.370  1.1842 -0.6983  1.8625
   87MOL0     H11972   8.303   7.664   5.553 -0.1076 -0.3153  0.0081
   87MOL0     H11973   8.377   7.505   5.619  0.9628  1.3602  1.4634
   87MOL0     H11974   8.537   7.674   5.562 -0.7780  1.3572 -0.4141
   87MOL0     H11975   8.484   7.674   5.394  0.2605 -0.7842  0.3162
   87MOL0     H11976   8.552   7.446   5.364 -1.1648 -1.9017  0.9805
   87MOL0     H11977   8.585   7.428   5.531  4.0651 -1.9860 -0.9698
   87MOL0     H11978   8.754   7.645   5.482 -0.2306  0.5676 -0.0970
   87MOL0     H11979   8.774   7.466   5.507 -1.8890  0.1125 -0.2742
   87MOL0     H11980   8.761   7.616   5.235  0.0727  0.4431 -0.6791
   87MOL0     H11981   8.776   7.445   5.270  0.1820 -0.4114  1.7571
   87MOL0     H11982   8.964   7.659   5.361 -3.1305  1.1615 -0.4133
   87MOL0     H11983   8.987   7.594   5.216  1.7640  0.8537  1.2941
   87MOL0     H11984   9.011   7.355   5.307  1.2482  0.8968 -2.0303
   87MOL0     H11985   9.014   7.432   5.472 -1.5564  3.0974  0.1300
   87MOL0     H11986   8.009   7.463   5.312  0.9298 -1.5782 -0.8345
   87MOL0     H11987   7.887   7.430   5.097 -0.3978  2.1424 -0.2362
   87MOL0     H11988   7.925   7.522   4.600 -0.3392 -0.4119  0.2204
   87MOL0     H11989   7.786   7.443   4.402  0.3299 -0.5967  1.2659
   87MOL0     H11990   6.871   6.800   3.261 -1.9895 -0.1403 -0.0350
   87MOL0     H11991   6.739   6.620   3.359  0.0015  2.4339 -1.1363
   87MOL0     H11992   6.808   6.405   3.322 -0.2815  2.6354  0.0371
   87MOL0     H11993   6.954   6.292   3.202 -1.3092  0.5268 -0.0305
   87MOL0     H11994   7.102   6.073   3.148 -1.4058  1.1582  0.2992
   87MOL0     H11995   7.178   6.239   3.123  1.3400  0.2084  0.7103
   87MOL0     H11996   7.324   5.980   3.158 -0.7224 -0.6083  0.3829
   87MOL0     H11997   7.403   6.140   3.140  0.8743 -1.1750 -1.1778
   87MOL0     H11998   7.306   6.171   2.924  1.0429  0.1259 -0.8132
   87MOL0     H11999   7.401   6.025   2.929  1.1338  3.3284 -0.1385
   87MOL0     H12000   7.181   5.884   2.978 -0.0718 -1.0289 -1.4242
   87MOL0     H12001   7.239   5.927   2.814  0.4849  0.9472  0.5650
   87MOL0     H12002   6.869   6.137   2.878 -0.2782 -0.7472 -0.5859
   87MOL0     H12003   7.200   6.219   3.539  1.3038  3.7932 -0.5796
   87MOL0     H12004   7.131   6.343   3.761 -0.0073 -0.0303 -0.4186
   87MOL0     H12005   6.951   6.380   3.777 -3.7040 -3.7069 -1.4641
   87MOL0     H12006   7.009   6.226   3.793 -0.0523  0.6935  0.2917
   88MOL0     O12007   6.044  10.472   3.797  0.6024 -0.2766 -0.3037
   88MOL0     C12008   6.037  10.501   3.911 -0.0788  0.8816 -0.6639
   88MOL0     O12009   5.977  10.431   4.011  0.0346 -0.5324 -0.2242
   88MOL0     C12010   5.924  10.311   3.967 -0.0560  0.5308  0.3423
   88MOL0     C12011   5.785  10.297   3.989 -0.6995  0.4423  1.0619
   88MOL0     C12012   5.718  10.174   3.952  0.7027 -0.6470  0.0184
   88MOL0     C12013   5.789  10.058   3.921 -1.0605 -0.2161  0.0046
   88MOL0     O12014   5.737   9.934   3.914  0.7002 -0.6892  0.4499
   88MOL0     C12015   5.595   9.915   3.934  0.2598  1.0594 -0.1951
   88MOL0     C12016   5.554   9.773   3.901 -0.1400  0.4294 -0.6984
   88MOL0     C12017   5.520   9.744   3.756 -0.1649 -0.1706  0.5311
   88MOL0     C12018   5.640   9.766   3.652  1.0072 -0.2873 -0.3841
   88MOL0     C12019   5.603   9.722   3.515  1.1031 -1.0857 -0.8599
   88MOL0     C12020   5.692   9.771   3.412  0.0179 -0.2187  0.0014
   88MOL0     C12021   5.637   9.741   3.269  0.6709 -0.7391 -0.6108
   88MOL0     C12022   5.725   9.790   3.167  0.1332 -0.0400  0.8410
   88MOL0     N12023   5.667   9.794   3.031  0.0045 -0.1848  1.4202
   88MOL0     C12024   5.558   9.714   2.984 -0.3876  0.2779 -0.7635
   88MOL0     C12025   5.530   9.760   2.858  0.6364 -0.0807  0.5905
   88MOL0     C12026   5.448   9.690   2.748  1.0050 -0.6809  0.1505
   88MOL0     C12027   5.324   9.774   2.722 -0.6138 -0.1198 -0.1017
   88MOL0     C12028   5.262   9.740   2.580 -0.3193  0.9660 -0.6383
   88MOL0     C12029   5.140   9.826   2.545  0.6291  0.5835  0.0641
   88MOL0     O12030   5.192   9.956   2.534 -0.3017  0.2629 -1.0414
   88MOL0     C12031   5.105  10.052   2.561  0.4679 -0.5528  0.9033
   88MOL0     C12032   5.100  10.111   2.683  0.8140 -0.0779 -1.0569
   88MOL0     C12033   5.009  10.216   2.712 -0.3146  0.9000  0.2339
   88MOL0     C12034   5.003  10.261   2.859 -0.1022  0.1528  1.0946
   88MOL0     C12035   4.920  10.263   2.614 -0.5817 -0.2128  1.1421
   88MOL0     C12036   4.808  10.361   2.635  0.2323  0.8114  0.1008
   88MOL0     O12037   4.707  10.356   2.537 -0.8439  0.6252  0.2587
   88MOL0     C12038   4.591  10.424   2.547  0.1931 -0.7104 -0.4936
   88MOL0     C12039   4.532  10.488   2.444  0.1505  0.3740 -0.7066
   88MOL0     C12040   4.412  10.546   2.443 -0.5095  0.1983 -1.1763
   88MOL0     C12041   4.326  10.540   2.557  1.0731  0.5367 -0.4699
   88MOL0     O12042   4.203  10.597   2.576  0.2220  0.3891  0.3948
   88MOL0     C12043   4.173  10.707   2.486  0.7331  0.8152  0.9425
   88MOL0     C12044   4.032  10.756   2.520  0.0893 -0.1209 -0.8322
   88MOL0     C12045   4.010  10.885   2.432  0.3988 -0.4728 -0.3447
   88MOL0     C12046   4.074  11.015   2.497  0.1946 -0.0561 -0.0536
   88MOL0     C12047   4.111  11.122   2.393 -0.5772  0.1464  0.6293
   88MOL0     C12048   3.980  11.158   2.319  0.2683 -0.1355 -0.8469
   88MOL0     C12049   3.954  11.312   2.293 -0.0990  0.2654  0.0879
   88MOL0     C12050   3.929  11.381   2.428  0.6935 -0.0565  0.0141
   88MOL0    Cl12051   4.072  11.465   2.490  0.0041  0.4830  0.0540
   88MOL0     C12052   4.380  10.468   2.660  0.2743  0.4084  0.3532
   88MOL0     C12053   4.512  10.416   2.661 -0.2209 -0.5472 -0.2625
   88MOL0     O12054   4.790  10.426   2.739  0.2480 -0.3922  0.7583
   88MOL0     C12055   4.945  10.209   2.479  0.2723 -0.5990  0.2893
   88MOL0     C12056   5.036  10.114   2.456 -0.8261  0.1193  0.3469
   88MOL0     N12057   5.603   9.876   2.842 -0.6759 -0.4030  0.0351
   88MOL0     N12058   5.676   9.898   2.945 -0.2914  0.1589 -0.5109
   88MOL0     C12059   5.920  10.068   3.895 -0.1795  0.5694  0.8694
   88MOL0     C12060   5.983  10.200   3.902 -0.8144  0.4093  0.0668
   88MOL0     C12061   6.102  10.630   3.943 -0.5146  0.6062 -0.2667
   88MOL0     C12062   6.168  10.636   4.075 -0.3546  0.3752  0.0863
   88MOL0     C12063   6.230  10.758   4.111 -0.7123 -0.4861 -0.3778
   88MOL0     C12064   6.254  10.860   4.025  0.2826 -0.5237 -0.7120
   88MOL0     O12065   6.323  10.975   4.070 -0.5122  0.2162 -0.4504
   88MOL0     C12066   6.261  11.101   4.048 -0.5971  0.7804 -0.4696
   88MOL0     C12067   6.252  11.170   4.183  0.0577  0.1506 -0.2534
   88MOL0     C12068   6.161  11.104   4.286  0.4703  0.7199 -0.8908
   88MOL0     C12069   6.141  11.170   4.426  0.8353  0.1211 -0.4319
   88MOL0     C12070   6.050  11.099   4.523 -0.5090 -0.0773 -0.2174
   88MOL0     C12071   5.986  11.045   4.614 -0.0703 -0.2623  0.2626
   88MOL0     C12072   6.211  10.843   3.897  0.1794 -0.5625 -0.8211
   88MOL0     C12073   6.137  10.734   3.854  1.1226  0.2303 -0.2341
   88MOL0     C12074   6.100  10.724   3.704  0.3718 -0.3532 -0.1036
   88MOL0     H12075   5.730  10.384   4.023  0.2556  1.0099  1.1909
   88MOL0     H12076   5.612  10.155   3.968  0.9166 -1.9204  0.0464
   88MOL0     H12077   5.538   9.980   3.867 -1.8180 -1.2329 -0.8232
   88MOL0     H12078   5.575   9.939   4.039  0.3640  2.6628 -0.5173
   88MOL0     H12079   5.613   9.686   3.931 -0.7972  0.1674 -0.1453
   88MOL0     H12080   5.453   9.766   3.942  0.0408  0.3316 -0.2645
   88MOL0     H12081   5.481   9.642   3.757  3.1491 -1.6069 -0.3875
   88MOL0     H12082   5.443   9.816   3.726  2.2419  2.2914 -0.1767
   88MOL0     H12083   5.664   9.873   3.643  0.8986 -0.1507  0.7486
   88MOL0     H12084   5.737   9.731   3.690  1.8095  3.3144  1.4156
   88MOL0     H12085   5.501   9.761   3.499  1.6518  2.1206  2.3122
   88MOL0     H12086   5.597   9.613   3.516 -0.0508 -1.0413 -0.7714
   88MOL0     H12087   5.700   9.879   3.424  3.0107 -0.3418 -0.0920
   88MOL0     H12088   5.792   9.727   3.417  0.6234  1.0194 -0.9362
   88MOL0     H12089   5.536   9.783   3.264  0.5972 -0.8679 -0.2226
   88MOL0     H12090   5.620   9.633   3.264 -0.3435 -0.9297  3.6667
   88MOL0     H12091   5.766   9.888   3.194 -2.1206  1.2613 -0.1223
   88MOL0     H12092   5.809   9.720   3.157 -1.1570 -1.2985 -2.8120
   88MOL0     H12093   5.511   9.626   3.025  0.9282 -0.8866 -1.6415
   88MOL0     H12094   5.405   9.596   2.786 -0.2148 -0.3112 -0.2622
   88MOL0     H12095   5.507   9.674   2.658 -2.0380 -4.8050 -1.4494
   88MOL0     H12096   5.248   9.765   2.800  0.2493  0.1960  0.8095
   88MOL0     H12097   5.348   9.881   2.720 -1.1088  0.0178 -2.9981
   88MOL0     H12098   5.341   9.758   2.507 -1.4246  0.1221 -2.1020
   88MOL0     H12099   5.232   9.635   2.571  0.2547  0.7487 -0.1134
   88MOL0     H12100   5.093   9.800   2.449  0.2024  0.3504  0.3327
   88MOL0     H12101   5.062   9.822   2.622 -2.3897 -0.2823 -2.7927
   88MOL0     H12102   5.150  10.060   2.765 -1.4726  0.9765  1.1231
   88MOL0     H12103   4.900  10.241   2.889 -0.9506 -1.1136 -2.2433
   88MOL0     H12104   5.016  10.370   2.864  0.1009  0.2814 -1.1665
   88MOL0     H12105   5.081  10.223   2.924 -2.2077 -0.7544  3.2356
   88MOL0     H12106   4.584  10.487   2.349 -2.5882 -0.4801 -2.3189
   88MOL0     H12107   4.371  10.600   2.358 -0.2026  1.5399 -0.4977
   88MOL0     H12108   4.242  10.789   2.502  0.1124  2.2660 -2.7500
   88MOL0     H12109   4.176  10.675   2.381  4.3206 -0.3400  1.2764
   88MOL0     H12110   3.965  10.676   2.486 -0.2859  0.1063 -0.6329
   88MOL0     H12111   4.020  10.780   2.626 -0.9097 -0.0477 -0.9530
   88MOL0     H12112   3.902  10.881   2.410  0.2819 -0.9291  0.2765
   88MOL0     H12113   4.064  10.868   2.338 -0.1721 -2.8646 -0.3073
   88MOL0     H12114   4.164  10.981   2.549  1.8767 -3.5474 -4.6276
   88MOL0     H12115   3.997  11.053   2.565 -0.7048 -1.7222 -0.1048
   88MOL0     H12116   4.143  11.211   2.447  0.2583  1.6498 -2.1086
   88MOL0     H12117   4.188  11.096   2.320 -2.7152 -0.9353 -1.4051
   88MOL0     H12118   3.898  11.111   2.373  1.9525 -2.4569 -0.1212
   88MOL0     H12119   3.980  11.106   2.223  1.0555  1.3625 -1.6943
   88MOL0     H12120   3.856  11.330   2.248 -0.7779  0.5907  1.6246
   88MOL0     H12121   4.029  11.355   2.227 -0.9104 -1.1792 -1.9031
   88MOL0     H12122   3.903  11.300   2.497  0.3257 -0.4231 -0.5401
   88MOL0     H12123   3.853  11.460   2.426  1.6775  0.9522  1.0181
   88MOL0     H12124   4.315  10.444   2.744 -1.4628 -1.7548 -1.4793
   88MOL0     H12125   4.550  10.371   2.752 -2.1217 -1.4362  0.1287
   88MOL0     H12126   4.897  10.240   2.387  0.0197  0.0194  0.6236
   88MOL0     H12127   5.054  10.075   2.356 -2.1501 -1.4260  0.6671
   88MOL0     H12128   5.977   9.976   3.892 -2.4161 -0.8678 -0.4765
   88MOL0     H12129   6.082  10.206   3.858 -0.9647 -2.2212 -0.8293
   88MOL0     H12130   6.170  10.554   4.147  0.1934 -0.1019 -0.4498
   88MOL0     H12131   6.271  10.758   4.211  0.7096  0.5910 -0.9233
   88MOL0     H12132   6.327  11.160   3.984 -1.5779  2.2572 -0.1763
   88MOL0     H12133   6.159  11.087   4.009  1.2384 -2.1905 -5.0543
   88MOL0     H12134   6.199  11.264   4.159  2.6165  1.8357  0.3045
   88MOL0     H12135   6.352  11.191   4.222  0.8335 -2.2823 -0.7786
   88MOL0     H12136   6.071  11.092   4.225 -0.0113 -0.6653  0.0466
   88MOL0     H12137   6.211  11.011   4.315 -0.4800  1.0782  2.2753
   88MOL0     H12138   6.121  11.275   4.405  1.4826  0.6124  1.2575
   88MOL0     H12139   6.234  11.157   4.483 -0.3609 -0.6408  1.4595
   88MOL0     H12140   5.925  10.986   4.679 -0.4956  0.2830  0.3608
   88MOL0     H12141   6.222  10.916   3.818 -0.4203 -3.8817 -4.2292
   88MOL0     H12142   6.099  10.823   3.658  2.7499 -0.6130 -0.8454
   88MOL0     H12143   6.182  10.679   3.647 -0.6766 -0.2199 -1.7620
   88MOL0     H12144   5.996  10.690   3.697 -0.4716  0.1063  5.3955
   89MOL0     O12145   5.344   7.418   8.467  0.2186  0.7551 -0.1858
   89MOL0     C12146   5.330   7.311   8.406 -0.2634  0.2251 -0.5182
   89MOL0     O12147   5.410   7.195   8.425  0.5972 -0.4216  0.4467
   89MOL0     C12148   5.487   7.204   8.534  0.3146 -0.6161  0.1515
   89MOL0     C12149   5.627   7.202   8.515  0.2217 -0.0530 -0.8767
   89MOL0     C12150   5.716   7.187   8.625 -0.2221  0.1920  0.6105
   89MOL0     C12151   5.665   7.181   8.750 -0.2337 -0.1951  0.9112
   89MOL0     O12152   5.733   7.167   8.866  0.7722 -0.4514  0.2790
   89MOL0     C12153   5.878   7.167   8.859 -0.2657 -0.0594  0.6434
   89MOL0     C12154   5.935   7.127   8.996  0.1696  0.2508  0.3538
   89MOL0     C12155   5.917   6.970   8.985 -0.4018 -0.5558 -1.0661
   89MOL0     C12156   5.939   6.901   9.124  0.2599  0.0574  0.0932
   89MOL0     C12157   5.803   6.862   9.188  0.4856 -0.5178  0.6468
   89MOL0     C12158   5.821   6.834   9.329 -0.1176 -1.2184  0.6074
   89MOL0     C12159   5.809   6.963   9.418  0.5454 -0.0169 -0.9883
   89MOL0     C12160   5.790   6.940   9.569  0.7964  0.8305 -0.6371
   89MOL0     N12161   5.686   6.836   9.607 -0.6979  0.7096 -0.4617
   89MOL0     C12162   5.673   6.798   9.745  0.5615  1.0942  0.0675
   89MOL0     C12163   5.557   6.728   9.753 -0.1560 -0.1934  0.2856
   89MOL0     C12164   5.489   6.690   9.881 -0.2142 -0.0708 -1.2816
   89MOL0     C12165   5.333   6.658   9.862  0.3139  0.9768  0.4277
   89MOL0     C12166   5.273   6.602   9.990  0.4001 -0.1468 -0.0037
   89MOL0     C12167   5.118   6.593   9.981 -1.0163  0.0134 -0.7055
   89MOL0     O12168   5.097   6.481   9.897 -0.1307  0.0132  0.6528
   89MOL0     C12169   4.971   6.427   9.885  0.8326 -0.1734 -1.0217
   89MOL0     C12170   4.953   6.325   9.793  0.2843 -0.1262 -0.4162
   89MOL0     C12171   4.832   6.272   9.766  0.2002 -0.3546  0.6679
   89MOL0     C12172   4.836   6.162   9.654  0.2275 -0.0036 -1.4833
   89MOL0     C12173   4.718   6.298   9.851 -0.1020  0.4686  0.5401
   89MOL0     C12174   4.593   6.220   9.859  0.2018  0.2473  0.0782
   89MOL0     O12175   4.504   6.257   9.955 -0.5217  0.0874 -0.0880
   89MOL0     C12176   4.370   6.224   9.936 -0.1451 -0.5927 -0.0998
   89MOL0     C12177   4.287   6.325   9.879  0.5322 -0.1041 -0.1881
   89MOL0     C12178   4.148   6.308   9.850 -1.2797 -1.0132 -0.2919
   89MOL0     C12179   4.099   6.177   9.869  0.0767  0.2083 -0.5791
   89MOL0     O12180   3.967   6.183   9.826  0.6573  0.1667  0.0855
   89MOL0     C12181   3.903   6.053   9.806 -0.4502  0.9553 -0.3947
   89MOL0     C12182   3.796   6.053   9.700 -0.5931 -1.0052  0.0302
   89MOL0     C12183   3.846   6.119   9.569  0.1412  0.1701  0.1237
   89MOL0     C12184   3.949   6.043   9.488 -0.3087 -0.3976 -0.3732
   89MOL0     C12185   4.008   6.115   9.367  0.0970  0.1885  0.2297
   89MOL0     C12186   4.101   6.226   9.392  0.2477 -0.2651  1.0426
   89MOL0     C12187   4.031   6.364   9.381  0.5768  0.0417  1.0312
   89MOL0     C12188   4.120   6.491   9.386 -0.2040 -0.1932  0.5340
   89MOL0    Cl12189   4.238   6.516   9.264  0.2722 -0.7239  0.1757
   89MOL0     C12190   4.176   6.072   9.914  0.6336 -0.1221  0.7887
   89MOL0     C12191   4.311   6.090   9.950 -0.7498 -0.1662  0.3914
   89MOL0     O12192   4.583   6.129   9.773  0.7922 -0.3859  0.3406
   89MOL0     C12193   4.735   6.397   9.951  0.4005 -0.5171  0.5396
   89MOL0     C12194   4.858   6.463   9.960 -0.4069 -0.1683 -0.2591
   89MOL0     N12195   5.498   6.730   9.629  0.6556  0.1047 -0.2435
   89MOL0     N12196   5.574   6.796   9.541  1.2512  0.2484 -0.0351
   89MOL0     C12197   5.529   7.192   8.766 -0.0299  0.4414  0.3720
   89MOL0     C12198   5.435   7.204   8.663 -0.0365 -0.0732  0.5276
   89MOL0     C12199   5.238   7.321   8.296 -0.3449  0.0589  1.3288
   89MOL0     C12200   5.100   7.335   8.326  1.0671  0.5744 -0.1025
   89MOL0     C12201   4.997   7.327   8.239 -0.2507  0.1958 -0.0347
   89MOL0     C12202   5.027   7.311   8.103  0.5741 -0.8349 -0.8486
   89MOL0     O12203   4.914   7.307   8.029 -1.3384  0.5772 -0.5737
   89MOL0     C12204   4.880   7.418   7.943 -1.1337 -0.0105 -0.1379
   89MOL0     C12205   4.843   7.553   8.009  0.1771 -0.2007 -0.3760
   89MOL0     C12206   4.701   7.535   8.067  0.3140 -0.3794  0.4371
   89MOL0     C12207   4.657   7.657   8.134  0.0285  0.4035 -0.5757
   89MOL0     C12208   4.745   7.679   8.249 -0.2307 -0.7113 -0.8590
   89MOL0     C12209   4.828   7.706   8.337 -0.1545 -0.1640 -0.4266
   89MOL0     C12210   5.158   7.311   8.070  0.1061  1.0752  0.3297
   89MOL0     C12211   5.266   7.313   8.160 -0.3207 -0.0743 -1.3147
   89MOL0     C12212   5.408   7.319   8.108 -0.1721  0.1688 -0.5936
   89MOL0     H12213   5.676   7.195   8.418  3.4256 -0.5982  0.6578
   89MOL0     H12214   5.821   7.185   8.597  0.1504 -1.5390  1.9486
   89MOL0     H12215   5.914   7.267   8.831 -1.3898  0.9432  2.5432
   89MOL0     H12216   5.906   7.090   8.788  1.4761  1.0772  0.0367
   89MOL0     H12217   6.036   7.167   9.014 -0.5852  1.2472  2.8363
   89MOL0     H12218   5.875   7.157   9.083  1.4991 -1.0310  1.7684
   89MOL0     H12219   5.827   6.932   8.936  0.0708  2.0728 -4.3869
   89MOL0     H12220   5.997   6.929   8.922 -2.0665 -1.5723 -2.5982
   89MOL0     H12221   5.995   6.808   9.111 -1.1460 -0.7901 -0.0678
   89MOL0     H12222   5.995   6.970   9.188  2.9490 -0.9470 -1.0316
   89MOL0     H12223   5.744   6.785   9.138 -0.0684  1.0173 -1.1910
   89MOL0     H12224   5.740   6.951   9.178  2.2686  0.6130 -1.3084
   89MOL0     H12225   5.754   6.753   9.359 -0.0380 -0.7803  2.0382
   89MOL0     H12226   5.925   6.812   9.353  0.9356  1.5921 -0.9876
   89MOL0     H12227   5.715   7.010   9.386 -0.4083 -1.3699 -0.3231
   89MOL0     H12228   5.894   7.030   9.410 -0.2879  0.8682 -2.9261
   89MOL0     H12229   5.878   6.925   9.632 -1.1910  1.2527  2.4428
   89MOL0     H12230   5.743   7.031   9.607 -0.1185  0.3516 -0.5834
   89MOL0     H12231   5.736   6.820   9.830 -2.0176  0.7275  2.1837
   89MOL0     H12232   5.488   6.767   9.958 -2.8701 -0.6229 -0.6752
   89MOL0     H12233   5.546   6.608   9.926 -0.4069  0.1197 -0.6831
   89MOL0     H12234   5.287   6.750   9.827  0.0893  1.5162  2.0849
   89MOL0     H12235   5.334   6.575   9.789 -0.0626  0.0801  1.4166
   89MOL0     H12236   5.302   6.501  10.022  3.1030  1.0011  1.4824
   89MOL0     H12237   5.304   6.671  10.069  0.9979  0.0409 -0.3995
   89MOL0     H12238   5.083   6.571  10.083 -1.9311  0.7113 -0.8550
   89MOL0     H12239   5.068   6.683   9.945 -1.8505  0.4976  1.4598
   89MOL0     H12240   5.040   6.304   9.732  0.3064  0.2792 -0.5254
   89MOL0     H12241   4.850   6.068   9.708 -0.4170  0.7343  0.0383
   89MOL0     H12242   4.924   6.162   9.589 -0.2713 -0.0501 -2.1633
   89MOL0     H12243   4.747   6.150   9.592 -1.8733 -2.1677  1.6423
   89MOL0     H12244   4.333   6.420   9.850 -2.7071  1.1526 -1.7194
   89MOL0     H12245   4.086   6.386   9.807 -0.2604  0.1518  0.2818
   89MOL0     H12246   3.978   5.980   9.778 -0.9805  0.9344 -1.8525
   89MOL0     H12247   3.861   6.002   9.893 -0.7417  0.7467 -0.6550
   89MOL0     H12248   3.745   5.956   9.693 -3.4648  0.2878  1.3710
   89MOL0     H12249   3.720   6.124   9.734 -1.5672 -3.1145  2.6974
   89MOL0     H12250   3.879   6.222   9.585 -0.1628  0.8809 -3.0442
   89MOL0     H12251   3.754   6.134   9.511 -0.1021 -0.7506  0.2556
   89MOL0     H12252   3.889   5.960   9.449 -1.0640  1.1425 -2.6617
   89MOL0     H12253   4.021   5.997   9.557 -3.3746 -1.0751  2.6605
   89MOL0     H12254   4.057   6.056   9.290 -0.9525 -0.5304  0.0929
   89MOL0     H12255   3.918   6.155   9.321 -0.1648  2.4944  2.5161
   89MOL0     H12256   4.181   6.215   9.318  1.1523 -2.6083  2.2579
   89MOL0     H12257   4.138   6.224   9.495 -1.7727 -0.2187  1.7950
   89MOL0     H12258   3.957   6.368   9.461 -0.1447  2.6757  0.3456
   89MOL0     H12259   3.975   6.355   9.287  1.4520 -1.3531  0.6146
   89MOL0     H12260   4.170   6.494   9.483  1.2093  3.7007 -0.1196
   89MOL0     H12261   4.048   6.574   9.376 -1.5843 -1.4573 -0.4315
   89MOL0     H12262   4.138   5.970   9.910  2.3527 -0.7862 -2.2917
   89MOL0     H12263   4.374   6.006   9.978 -2.2639 -2.3676 -2.2777
   89MOL0     H12264   4.652   6.422  10.017 -0.4389  0.8075 -0.9742
   89MOL0     H12265   4.868   6.542  10.034  0.9196 -1.5975  1.1745
   89MOL0     H12266   5.476   7.173   8.859 -2.0549 -2.1084 -1.1753
   89MOL0     H12267   5.332   7.232   8.679 -0.4717 -0.7074 -1.0002
   89MOL0     H12268   5.072   7.361   8.427  1.9734  2.4202 -0.2975
   89MOL0     H12269   4.892   7.336   8.267 -0.7920  0.3154 -1.9240
   89MOL0     H12270   4.969   7.453   7.889 -2.1242  1.0444 -1.1507
   89MOL0     H12271   4.805   7.383   7.871  1.3284 -2.0515 -1.8765
   89MOL0     H12272   4.854   7.635   7.938 -3.4368  1.9556  1.2692
   89MOL0     H12273   4.919   7.563   8.087  0.1617 -2.9092  0.0970
   89MOL0     H12274   4.635   7.513   7.982  0.5517 -3.6832  0.9687
   89MOL0     H12275   4.700   7.451   8.137  0.9127 -0.7487  0.0170
   89MOL0     H12276   4.559   7.641   8.180  1.4926 -1.2965  2.2991
   89MOL0     H12277   4.660   7.739   8.063 -3.9193  1.5924  0.3992
   89MOL0     H12278   4.906   7.718   8.409 -0.0377  2.4734 -0.8893
   89MOL0     H12279   5.180   7.312   7.964 -0.7702 -1.7467  0.0479
   89MOL0     H12280   5.420   7.252   8.022  3.5869 -0.6572  0.4142
   89MOL0     H12281   5.438   7.420   8.082 -1.8278  1.4877  2.1871
   89MOL0     H12282   5.481   7.281   8.179 -0.9950  2.2912  1.5062
   90MOL0     O12283  10.117  10.478   4.126 -0.9686 -0.8069  0.1507
   90MOL0     C12284  10.186  10.395   4.074 -1.1883 -0.3958 -0.2431
   90MOL0     O12285  10.305  10.353   4.118 -0.0883  0.1557  0.6574
   90MOL0     C12286  10.369  10.416   4.218 -0.3716  0.6479 -0.5380
   90MOL0     C12287  10.328  10.417   4.352 -0.6087 -0.1106 -0.8049
   90MOL0     C12288  10.400  10.467   4.457  0.6879  0.4331 -0.6359
   90MOL0     C12289  10.515  10.539   4.433 -0.3900  0.0014  0.1918
   90MOL0     O12290  10.580  10.599   4.528  0.1427  0.0052 -0.1290
   90MOL0     C12291  10.499  10.654   4.638 -0.2786 -0.8543  0.3985
   90MOL0     C12292  10.591  10.760   4.703 -1.0393 -0.5825  0.0937
   90MOL0     C12293  10.569  10.770   4.861 -0.2702 -0.6823  0.3755
   90MOL0     C12294  10.462  10.879   4.893 -0.2665 -1.3944 -0.1573
   90MOL0     C12295  10.460  10.912   5.047  0.4857  0.7013  0.4241
   90MOL0     C12296  10.417  10.794   5.133  0.2974 -0.0393  0.0992
   90MOL0     C12297  10.465  10.822   5.288  0.1720  0.1789  0.2587
   90MOL0     C12298  10.424  10.704   5.376 -0.7692 -0.3190 -0.1668
   90MOL0     N12299  10.292  10.648   5.360  0.6488 -0.0643  0.3417
   90MOL0     C12300  10.172  10.716   5.386 -0.3233 -1.1143  1.0635
   90MOL0     C12301  10.077  10.638   5.337 -1.1503  0.4326 -0.5727
   90MOL0     C12302   9.929  10.674   5.315 -1.1449 -0.0733  0.1625
   90MOL0     C12303   9.925  10.778   5.198 -0.3965  0.2590 -0.6743
   90MOL0     C12304   9.789  10.781   5.130  0.9226  0.1461 -0.0977
   90MOL0     C12305   9.817  10.892   5.018  0.7478 -0.1199 -0.3573
   90MOL0     O12306   9.693  10.916   4.951 -0.6419 -0.2425 -0.0800
   90MOL0     C12307   9.642  11.041   4.943  0.6563  0.6275 -0.7357
   90MOL0     C12308   9.505  11.052   4.958 -0.3606 -0.5895 -0.1213
   90MOL0     C12309   9.438  11.168   4.947 -0.2523 -0.7715  0.8260
   90MOL0     C12310   9.285  11.156   4.950  0.2778 -0.4806 -1.5372
   90MOL0     C12311   9.501  11.287   4.893 -0.8149 -0.2122 -1.0485
   90MOL0     C12312   9.436  11.425   4.866  0.1715 -1.2101  0.7226
   90MOL0     O12313   9.532  11.524   4.846  0.0471  0.5158  0.1202
   90MOL0     C12314   9.490  11.655   4.820  0.5933  0.3376 -0.4405
   90MOL0     C12315   9.369  11.699   4.758  0.2476 -0.4392  0.5067
   90MOL0     C12316   9.341  11.838   4.745  0.9122  0.0524  0.8244
   90MOL0     C12317   9.443  11.930   4.769 -0.4277 -0.3481 -0.1156
   90MOL0     O12318   9.402  12.059   4.737 -0.5629 -0.8197  0.7083
   90MOL0     C12319   9.506  12.164   4.727  0.5961  0.8137  0.5581
   90MOL0     C12320   9.460  12.279   4.637 -0.2098 -0.3766 -0.1873
   90MOL0     C12321   9.455  12.249   4.487  0.3515  0.1046  0.5620
   90MOL0     C12322   9.568  12.176   4.416 -0.0965 -0.3585  0.2392
   90MOL0     C12323   9.558  12.194   4.265 -0.1560 -0.2839  0.8940
   90MOL0     C12324   9.668  12.122   4.194  0.2625  0.0277 -0.7456
   90MOL0     C12325   9.646  12.121   4.034  0.7670 -0.1584 -0.4806
   90MOL0     C12326   9.533  12.035   3.992 -0.4706  0.8836 -0.3114
   90MOL0    Cl12327   9.577  12.005   3.815 -0.2601 -0.5332  0.3123
   90MOL0     C12328   9.570  11.887   4.831  1.1875  0.6714 -0.9315
   90MOL0     C12329   9.582  11.752   4.855  0.2262 -0.2274 -0.1027
   90MOL0     O12330   9.310  11.445   4.878  0.9362  0.1959  0.1048
   90MOL0     C12331   9.636  11.268   4.865 -0.0366 -0.2360  0.1637
   90MOL0     C12332   9.705  11.146   4.890 -0.5691  0.1937 -0.1166
   90MOL0     N12333  10.126  10.516   5.286 -0.0786  0.4590  0.3644
   90MOL0     N12334  10.257  10.530   5.306 -0.1361 -0.1449  0.3133
   90MOL0     C12335  10.563  10.548   4.299  0.7852  0.2096  0.1260
   90MOL0     C12336  10.493  10.484   4.193  0.4615 -0.9535  0.5580
   90MOL0     C12337  10.134  10.333   3.950  0.1301  0.4071  0.4801
   90MOL0     C12338  10.000  10.376   3.916  0.8022 -0.5045  0.9190
   90MOL0     C12339   9.935  10.314   3.813 -0.1886  0.4811  0.8927
   90MOL0     C12340   9.994  10.221   3.727  0.0565  0.6231 -0.9727
   90MOL0     O12341   9.911  10.162   3.633 -0.9674 -0.0937  0.6513
   90MOL0     C12342   9.853  10.245   3.539  0.1812  0.4704  0.2830
   90MOL0     C12343   9.758  10.171   3.447  0.0372  0.6244 -0.4604
   90MOL0     C12344   9.622  10.141   3.513  0.0111  0.1003  0.2873
   90MOL0     C12345   9.541  10.044   3.425  1.2975 -0.5607 -0.2368
   90MOL0     C12346   9.402  10.041   3.468  0.2988 -0.0504  0.8945
   90MOL0     C12347   9.293  10.025   3.515  0.1650  0.0923  0.3572
   90MOL0     C12348  10.110  10.173   3.772 -1.0406  0.0330  0.3779
   90MOL0     C12349  10.189  10.232   3.871 -0.3254 -0.4120  0.0048
   90MOL0     C12350  10.314  10.161   3.912 -0.4878  0.3039  0.2899
   90MOL0     H12351  10.231  10.375   4.378  0.2024  0.5858  4.1551
   90MOL0     H12352  10.357  10.451   4.556  0.9344 -0.9364 -0.7231
   90MOL0     H12353  10.480  10.574   4.711 -2.7085 -1.0919 -0.4167
   90MOL0     H12354  10.405  10.698   4.604 -0.2314  1.1659  2.5906
   90MOL0     H12355  10.695  10.740   4.675 -0.3387  2.9105 -0.1812
   90MOL0     H12356  10.574  10.858   4.657  1.5121  0.7601  1.7632
   90MOL0     H12357  10.562  10.668   4.900  0.8687 -1.0139 -0.2452
   90MOL0     H12358  10.664  10.801   4.906 -2.0194  2.0410  2.5512
   90MOL0     H12359  10.481  10.971   4.838 -2.9110 -1.0901 -0.7267
   90MOL0     H12360  10.364  10.841   4.862 -0.4650 -0.4179 -0.7520
   90MOL0     H12361  10.381  10.986   5.066  0.6285  0.7659  0.7727
   90MOL0     H12362  10.560  10.939   5.082  1.6131 -1.2839 -1.0888
   90MOL0     H12363  10.309  10.780   5.142 -0.1072  2.7166  0.4404
   90MOL0     H12364  10.449  10.697   5.093  0.8814  0.4051 -0.5272
   90MOL0     H12365  10.425  10.919   5.318 -0.5288  0.3972 -1.2760
   90MOL0     H12366  10.574  10.827   5.296  0.3813  1.1786 -2.2881
   90MOL0     H12367  10.492  10.618   5.369 -1.1459 -0.5410 -1.2647
   90MOL0     H12368  10.434  10.741   5.478 -1.2687  0.7454 -0.4875
   90MOL0     H12369  10.168  10.815   5.431  2.9138 -2.0657  3.8488
   90MOL0     H12370   9.904  10.714   5.414  1.8527  1.3318  0.4572
   90MOL0     H12371   9.866  10.587   5.294 -0.8707 -0.6598  1.6647
   90MOL0     H12372   9.937  10.877   5.242 -0.7518  0.9970 -2.1924
   90MOL0     H12373  10.014  10.753   5.140  1.1023  0.2855  1.4889
   90MOL0     H12374   9.778  10.681   5.087 -0.1800 -0.2458  1.0420
   90MOL0     H12375   9.708  10.820   5.191 -0.0262 -0.4089 -0.9672
   90MOL0     H12376   9.861  10.987   5.052  1.9550 -0.6580 -0.3839
   90MOL0     H12377   9.892  10.846   4.953  0.9113  1.1001 -1.0859
   90MOL0     H12378   9.454  10.957   4.971  0.8677 -2.3530 -5.6882
   90MOL0     H12379   9.248  11.159   4.847 -0.2775  1.6908 -1.3228
   90MOL0     H12380   9.247  11.234   5.016  2.0656 -0.0514 -0.9455
   90MOL0     H12381   9.262  11.065   5.004  0.5090  1.9155  3.0962
   90MOL0     H12382   9.305  11.628   4.705 -0.8475 -1.1664  2.6709
   90MOL0     H12383   9.246  11.876   4.710  1.1340 -0.1890 -0.0837
   90MOL0     H12384   9.533  12.204   4.825  0.2153  0.1465  0.9408
   90MOL0     H12385   9.593  12.114   4.684 -0.5420  0.6324 -1.6640
   90MOL0     H12386   9.361  12.309   4.675 -1.7472 -0.3087 -3.8326
   90MOL0     H12387   9.544  12.347   4.652 -0.1386 -0.7123  1.0231
   90MOL0     H12388   9.448  12.350   4.445 -1.8231  1.2296  3.3785
   90MOL0     H12389   9.369  12.183   4.471 -1.3188  2.3998 -0.4342
   90MOL0     H12390   9.576  12.074   4.453  1.4714 -0.6263 -0.7495
   90MOL0     H12391   9.651  12.240   4.446 -2.4943  2.7721  0.7090
   90MOL0     H12392   9.461  12.164   4.223  0.9135  1.1122 -3.0342
   90MOL0     H12393   9.572  12.302   4.250 -1.2098  0.8038  5.8122
   90MOL0     H12394   9.680  12.023   4.239 -1.5939  0.6646  1.3006
   90MOL0     H12395   9.766  12.170   4.210 -0.7135  2.0079 -0.3547
   90MOL0     H12396   9.735  12.072   3.994  0.4574 -1.9328  0.8705
   90MOL0     H12397   9.624  12.222   3.998 -1.3462  0.7067  2.7842
   90MOL0     H12398   9.437  12.087   3.994  0.4385  2.9983 -3.6676
   90MOL0     H12399   9.541  11.939   4.044  0.8498  0.1539 -1.8001
   90MOL0     H12400   9.644  11.956   4.870  1.3567 -1.2357  2.5296
   90MOL0     H12401   9.678  11.737   4.904  0.9340  3.5227 -0.0777
   90MOL0     H12402   9.685  11.345   4.807  1.1255 -2.4962 -2.0290
   90MOL0     H12403   9.809  11.144   4.860 -0.9972  1.5613 -1.9349
   90MOL0     H12404  10.645  10.609   4.264 -0.5461  0.6573 -2.4194
   90MOL0     H12405  10.519  10.489   4.088 -3.2192 -3.4659 -0.6641
   90MOL0     H12406   9.938  10.443   3.975  0.5350 -1.4918  1.7816
   90MOL0     H12407   9.828  10.333   3.807 -0.2240  1.9032  4.0126
   90MOL0     H12408   9.798  10.327   3.587 -0.7672 -0.8530  1.5467
   90MOL0     H12409   9.925  10.307   3.486  0.3769 -0.9839 -1.2159
   90MOL0     H12410   9.800  10.072   3.424 -1.4028  0.1632 -1.2023
   90MOL0     H12411   9.741  10.227   3.355  0.5976 -0.6958 -1.3962
   90MOL0     H12412   9.642  10.082   3.603 -0.2878 -0.2825  0.1022
   90MOL0     H12413   9.567  10.232   3.540 -0.3278  0.5619 -1.8308
   90MOL0     H12414   9.578   9.942   3.414  0.6357 -0.9079  0.6056
   90MOL0     H12415   9.548  10.086   3.324 -1.1319 -1.1352 -0.7212
   90MOL0     H12416   9.193  10.009   3.550  0.5228 -3.0579  0.2257
   90MOL0     H12417  10.148  10.081   3.728  0.1753  0.2786  0.8614
   90MOL0     H12418  10.323  10.131   4.017 -2.7131 -1.3614  0.0806
   90MOL0     H12419  10.341  10.083   3.840 -1.1223  3.6483 -4.0354
   90MOL0     H12420  10.390  10.234   3.881 -0.6840  0.1991 -0.4745
   91MOL0     O12421   9.436   0.863   7.711 -0.0098 -0.9551  0.0477
   91MOL0     C12422   9.503   0.765   7.696 -0.7353 -0.0725 -0.1936
   91MOL0     O12423   9.467   0.635   7.741 -0.0738  0.4979  0.6026
   91MOL0     C12424   9.350   0.602   7.815 -0.5629 -0.8510 -0.2265
   91MOL0     C12425   9.223   0.648   7.770 -0.1074  0.6036 -0.1634
   91MOL0     C12426   9.110   0.597   7.834 -0.5665  0.1954 -0.4620
   91MOL0     C12427   9.112   0.500   7.936  0.6945 -0.1595 -0.1863
   91MOL0     O12428   8.992   0.432   7.961 -0.9043  0.9336 -0.3069
   91MOL0     C12429   8.873   0.455   7.881 -0.8703 -0.2043  0.5625
   91MOL0     C12430   8.767   0.352   7.912  0.1876 -0.5793  1.1469
   91MOL0     C12431   8.625   0.414   7.902  0.4851  0.5257  0.5851
   91MOL0     C12432   8.586   0.443   7.757 -0.4582  0.3240  0.7400
   91MOL0     C12433   8.434   0.487   7.744 -0.0407 -0.3740  0.1982
   91MOL0     C12434   8.324   0.392   7.791 -0.1275 -1.2168  0.3988
   91MOL0     C12435   8.320   0.252   7.719 -0.3535 -0.4338 -0.3979
   91MOL0     C12436   8.209   0.165   7.779 -0.1555 -0.6312 -0.5700
   91MOL0     N12437   8.070   0.191   7.742  0.5607  0.5696  0.4978
   91MOL0     C12438   7.979   0.271   7.796  0.7099  0.0285 -0.5431
   91MOL0     C12439   7.863   0.245   7.731  0.8296  0.0105 -0.3435
   91MOL0     C12440   7.730   0.295   7.770  0.0222  0.2734 -0.6383
   91MOL0     C12441   7.691   0.234   7.901  0.2884 -0.3553  0.1965
   91MOL0     C12442   7.674   0.075   7.888 -0.1292 -0.6053  0.4765
   91MOL0     C12443   7.563   0.032   7.978 -0.5406 -0.3863 -0.3766
   91MOL0     O12444   7.541  -0.111   7.961 -0.3940 -0.6179  0.2993
   91MOL0     C12445   7.580  -0.200   8.061 -0.1946  0.5625 -0.5386
   91MOL0     C12446   7.576  -0.334   8.025  0.6174  0.2226 -0.5614
   91MOL0     C12447   7.630  -0.436   8.111 -1.0834  0.9207 -0.1787
   91MOL0     C12448   7.636  -0.585   8.053  1.7908 -0.5851 -0.6714
   91MOL0     C12449   7.673  -0.402   8.243 -0.2890  0.5982  0.0493
   91MOL0     C12450   7.714  -0.503   8.340  0.0561  1.3424  0.1068
   91MOL0     O12451   7.785  -0.603   8.303  0.2487  0.3210 -0.0508
   91MOL0     C12452   7.831  -0.686   8.407 -0.0179  0.0695  1.0659
   91MOL0     C12453   7.965  -0.679   8.454  1.0216 -1.1750  0.2421
   91MOL0     C12454   8.008  -0.755   8.557 -0.5596 -0.2150  0.9682
   91MOL0     C12455   7.931  -0.847   8.622  0.4483 -0.3492 -0.0334
   91MOL0     O12456   7.988  -0.932   8.717 -0.2374  0.3062  0.8665
   91MOL0     C12457   7.907  -1.011   8.807  0.1100 -0.0678 -0.3075
   91MOL0     C12458   7.970  -1.104   8.913 -0.8140  0.2589  0.0226
   91MOL0     C12459   8.072  -1.029   8.993 -0.7328  0.2367 -0.1868
   91MOL0     C12460   8.182  -1.125   9.052 -0.0713 -0.0551 -0.6612
   91MOL0     C12461   8.293  -1.047   9.118 -1.4349  0.1247  0.5790
   91MOL0     C12462   8.262  -0.990   9.259 -0.2903  0.4409  0.2960
   91MOL0     C12463   8.381  -0.903   9.302 -0.7598 -1.1313 -0.4169
   91MOL0     C12464   8.362  -0.842   9.441 -0.0704 -0.5499  0.6393
   91MOL0    Cl12465   8.203  -0.758   9.465 -0.1014 -0.0938 -0.0012
   91MOL0     C12466   7.794  -0.861   8.573 -0.4963 -0.4251  0.4426
   91MOL0     C12467   7.750  -0.777   8.472 -0.0882  0.1245  0.0396
   91MOL0     O12468   7.664  -0.483   8.450 -0.0228  0.7007  0.3533
   91MOL0     C12469   7.667  -0.272   8.285  0.4470 -0.8512 -0.0373
   91MOL0     C12470   7.625  -0.173   8.195 -1.4936  0.1895  0.7725
   91MOL0     N12471   7.876   0.151   7.633 -0.0776  0.5262 -0.4479
   91MOL0     N12472   7.998   0.116   7.645  0.4982  0.4442 -0.6956
   91MOL0     C12473   9.240   0.463   7.986 -0.2354 -0.2683  0.7279
   91MOL0     C12474   9.355   0.515   7.924 -1.2096 -0.1343  0.1449
   91MOL0     C12475   9.640   0.788   7.645 -0.4396  0.4240  0.4340
   91MOL0     C12476   9.730   0.681   7.670  0.4767 -0.1601  1.2508
   91MOL0     C12477   9.854   0.675   7.603 -0.8498  0.6767 -0.3181
   91MOL0     C12478   9.897   0.781   7.527  0.1681 -0.2486  0.2083
   91MOL0     O12479  10.023   0.793   7.477 -0.2792 -0.4801  0.3475
   91MOL0     C12480  10.082   0.672   7.415  0.4129 -0.6915 -1.0189
   91MOL0     C12481  10.187   0.717   7.321 -0.5826 -0.6076  0.6866
   91MOL0     C12482  10.122   0.792   7.195  0.3414 -0.1733  0.4725
   91MOL0     C12483  10.047   0.703   7.086 -0.4594  0.4436  0.0855
   91MOL0     C12484  10.135   0.593   7.046 -0.3032 -0.5975  0.2147
   91MOL0     C12485  10.215   0.502   7.034  0.2127 -0.0782  0.1199
   91MOL0     C12486   9.816   0.902   7.530 -0.4707 -0.8328  0.1131
   91MOL0     C12487   9.694   0.899   7.574  0.9086 -0.1701  0.5391
   91MOL0     C12488   9.610   1.029   7.547 -0.1789 -0.0102  0.4051
   91MOL0     H12489   9.207   0.729   7.699 -0.1882 -1.5729 -2.7769
   91MOL0     H12490   9.013   0.627   7.796  0.6698  0.3222 -3.8601
   91MOL0     H12491   8.897   0.448   7.775 -2.1789  0.9252  0.1698
   91MOL0     H12492   8.837   0.555   7.908 -0.5331  0.0835 -0.0495
   91MOL0     H12493   8.784   0.260   7.857 -0.3895 -0.6872  1.1403
   91MOL0     H12494   8.780   0.322   8.017 -1.0889 -4.1392  0.4143
   91MOL0     H12495   8.554   0.342   7.945  3.2284 -2.4095  0.5008
   91MOL0     H12496   8.619   0.512   7.951  2.3623  0.5637  0.8129
   91MOL0     H12497   8.651   0.520   7.715  1.0239 -1.7252 -0.9294
   91MOL0     H12498   8.595   0.347   7.705  1.0551  0.8462 -0.0077
   91MOL0     H12499   8.410   0.495   7.638 -0.1120 -1.6940  0.1065
   91MOL0     H12500   8.423   0.586   7.791 -0.4864 -0.7987  1.0083
   91MOL0     H12501   8.335   0.369   7.898 -2.5348 -0.2094  0.9347
   91MOL0     H12502   8.229   0.448   7.790  0.3248 -0.4018 -1.5484
   91MOL0     H12503   8.416   0.204   7.738 -0.1827  0.0956  0.0949
   91MOL0     H12504   8.306   0.255   7.611 -1.9581 -0.5651 -0.2207
   91MOL0     H12505   8.224   0.067   7.733  1.4947 -0.4218 -0.5245
   91MOL0     H12506   8.200   0.161   7.888 -1.2135  3.3080 -0.3548
   91MOL0     H12507   7.990   0.330   7.886  0.2144 -1.9667  0.8813
   91MOL0     H12508   7.645   0.273   7.704 -3.8452 -0.4977  4.0594
   91MOL0     H12509   7.735   0.404   7.778  0.3613  0.2442 -0.4314
   91MOL0     H12510   7.755   0.263   7.984 -0.9597  1.4510  0.6020
   91MOL0     H12511   7.593   0.278   7.923  1.0939  2.1477 -0.8660
   91MOL0     H12512   7.654   0.052   7.783  1.4722 -0.3411  0.0898
   91MOL0     H12513   7.767   0.027   7.918 -0.7515 -1.6861  0.7237
   91MOL0     H12514   7.580   0.053   8.084 -1.4075 -1.7387  0.0597
   91MOL0     H12515   7.480   0.087   7.933 -0.7129 -1.0798 -0.9206
   91MOL0     H12516   7.536  -0.352   7.926 -1.4260  0.4194  0.1810
   91MOL0     H12517   7.556  -0.607   7.981 -1.5236  0.4976  2.4005
   91MOL0     H12518   7.612  -0.649   8.138 -2.5639 -0.1756 -1.3691
   91MOL0     H12519   7.725  -0.617   7.997  0.8126 -2.8324 -1.0550
   91MOL0     H12520   8.029  -0.602   8.413 -0.0479 -0.5463 -0.3097
   91MOL0     H12521   8.107  -0.734   8.596  0.2689  1.5861 -1.8041
   91MOL0     H12522   7.854  -0.942   8.874  3.5315 -0.0989  2.7311
   91MOL0     H12523   7.837  -1.074   8.750 -0.6744 -3.0626  3.5062
   91MOL0     H12524   7.889  -1.143   8.976  1.4697 -2.2105  1.6669
   91MOL0     H12525   8.007  -1.185   8.850  0.6383  2.2768 -1.8343
   91MOL0     H12526   8.023  -0.966   9.068 -0.0128  1.6952 -0.8945
   91MOL0     H12527   8.123  -0.956   8.930  0.8197 -0.0340  0.7229
   91MOL0     H12528   8.220  -1.187   8.969  2.8738  0.1811  0.3714
   91MOL0     H12529   8.140  -1.205   9.114 -2.6916 -2.0514 -4.6068
   91MOL0     H12530   8.386  -1.101   9.135 -0.1292  1.5666 -1.5042
   91MOL0     H12531   8.329  -0.960   9.063  2.5560 -0.5709  1.7977
   91MOL0     H12532   8.233  -1.079   9.314  1.6867  1.0167  2.4566
   91MOL0     H12533   8.168  -0.935   9.270  1.1835  2.6106  4.1537
   91MOL0     H12534   8.389  -0.818   9.233  2.9617 -1.9212 -1.1633
   91MOL0     H12535   8.471  -0.965   9.303  1.2831  1.4898  3.3518
   91MOL0     H12536   8.445  -0.778   9.473 -3.5620  2.7285  4.2158
   91MOL0     H12537   8.379  -0.931   9.502 -1.0645 -0.0848  1.6138
   91MOL0     H12538   7.728  -0.938   8.610 -0.8392 -1.5754 -2.2727
   91MOL0     H12539   7.650  -0.792   8.433  0.0829 -1.9202  0.3189
   91MOL0     H12540   7.696  -0.232   8.382 -1.0300  0.2290 -0.0074
   91MOL0     H12541   7.640  -0.070   8.225 -1.2562  0.8842 -1.5535
   91MOL0     H12542   9.246   0.389   8.066 -3.6884  1.0994  2.4578
   91MOL0     H12543   9.453   0.473   7.944 -0.8325  1.8148  2.9162
   91MOL0     H12544   9.694   0.615   7.748 -0.1804 -0.4636  0.7010
   91MOL0     H12545   9.923   0.596   7.631 -0.9173  0.1048 -1.6617
   91MOL0     H12546  10.129   0.603   7.485 -0.6541 -0.4721 -0.0638
   91MOL0     H12547  10.005   0.617   7.360 -0.8363  1.3141 -1.3750
   91MOL0     H12548  10.236   0.627   7.285  0.7181 -0.0111  0.8834
   91MOL0     H12549  10.261   0.782   7.370 -1.0219  2.1097 -1.9447
   91MOL0     H12550  10.049   0.863   7.235 -1.0555 -0.5140 -1.3113
   91MOL0     H12551  10.198   0.847   7.139 -1.8746  1.2589 -1.3035
   91MOL0     H12552  10.029   0.761   6.995  2.6671 -1.5788 -2.0360
   91MOL0     H12553   9.958   0.659   7.133 -0.9724  1.9794  0.5990
   91MOL0     H12554  10.285   0.425   7.009 -0.8050  0.1542 -4.4980
   91MOL0     H12555   9.861   0.991   7.489 -0.5408  0.8317  3.2824
   91MOL0     H12556   9.616   1.083   7.642 -0.3282  2.5567 -0.9777
   91MOL0     H12557   9.650   1.092   7.468 -1.5946  1.5763  0.9078
   91MOL0     H12558   9.508   0.997   7.522  1.1494 -4.3441 -0.2754
   92MOL0     O12559   2.507   8.351   3.800 -0.5992  0.1522 -0.3633
   92MOL0     C12560   2.621   8.393   3.768 -0.6258  0.5676 -0.0962
   92MOL0     O12561   2.659   8.415   3.639 -0.3439 -0.4602 -0.4164
   92MOL0     C12562   2.566   8.398   3.539 -0.2912 -0.0473 -0.0521
   92MOL0     C12563   2.545   8.281   3.468 -0.4078  0.1886 -0.7159
   92MOL0     C12564   2.447   8.269   3.370 -0.2937 -0.0129 -0.0413
   92MOL0     C12565   2.384   8.381   3.329  0.1148  0.7385 -0.3452
   92MOL0     O12566   2.286   8.364   3.241 -0.5277  0.4816  0.2445
   92MOL0     C12567   2.297   8.446   3.126  0.1191 -0.0900  0.5902
   92MOL0     C12568   2.231   8.375   3.005 -1.1250  0.0784  0.1536
   92MOL0     C12569   2.308   8.242   2.970  0.6461 -0.7984 -0.3207
   92MOL0     C12570   2.378   8.246   2.829  0.9979 -0.3046  0.2514
   92MOL0     C12571   2.398   8.113   2.755 -0.1861 -1.1600 -1.0160
   92MOL0     C12572   2.261   8.055   2.716 -0.6037  0.0005 -0.1478
   92MOL0     C12573   2.297   7.909   2.681 -0.6700 -0.8360  0.1307
   92MOL0     C12574   2.170   7.830   2.673 -0.2171  0.6108  0.0635
   92MOL0     N12575   2.066   7.868   2.584  0.3550 -0.5172 -0.1175
   92MOL0     C12576   2.082   7.873   2.444 -0.7123  0.4601 -0.2092
   92MOL0     C12577   1.969   7.922   2.409  0.3916 -0.4995  0.6400
   92MOL0     C12578   1.950   7.961   2.261  0.4770 -0.4133 -0.0019
   92MOL0     C12579   1.847   7.863   2.212 -0.1187  0.6295  0.0731
   92MOL0     C12580   1.803   7.908   2.065  0.4922 -0.5635 -0.1253
   92MOL0     C12581   1.745   8.055   2.065 -0.9018 -0.4241 -0.3633
   92MOL0     O12582   1.656   8.054   1.953  0.7084  0.3315 -0.2281
   92MOL0     C12583   1.611   8.171   1.885 -0.7096 -0.5467 -0.3892
   92MOL0     C12584   1.683   8.294   1.899 -0.1589 -0.1925  0.2714
   92MOL0     C12585   1.639   8.410   1.842  0.2005  0.0750 -0.2473
   92MOL0     C12586   1.719   8.530   1.865  0.1132 -0.1370 -0.9141
   92MOL0     C12587   1.514   8.418   1.775  0.6921  0.2619 -0.2091
   92MOL0     C12588   1.447   8.538   1.731  0.5918  0.0925 -0.1921
   92MOL0     O12589   1.378   8.523   1.610  1.0950 -0.0837 -0.9199
   92MOL0     C12590   1.301   8.618   1.539  0.0467 -0.4651 -0.4077
   92MOL0     C12591   1.257   8.738   1.582  0.2829 -0.3460 -0.2403
   92MOL0     C12592   1.151   8.806   1.521  1.0856 -0.4618  1.0735
   92MOL0     C12593   1.103   8.768   1.395 -0.2831 -0.2467  0.4221
   92MOL0     O12594   1.016   8.849   1.330 -0.2585 -0.2994  0.6692
   92MOL0     C12595   0.923   8.786   1.245 -0.3918 -0.1298  0.6799
   92MOL0     C12596   0.818   8.704   1.334 -0.6589  1.5970  0.5622
   92MOL0     C12597   0.695   8.633   1.257  0.0417  0.2200  0.1122
   92MOL0     C12598   0.738   8.583   1.115  0.3016  0.1930  0.0178
   92MOL0     C12599   0.834   8.462   1.109  0.5561 -0.2099 -0.8972
   92MOL0     C12600   0.804   8.341   1.198  1.2524 -0.2178 -0.3722
   92MOL0     C12601   0.876   8.203   1.152  0.7550  0.3200  0.4443
   92MOL0     C12602   1.024   8.230   1.145  0.3474  0.2069 -0.5382
   92MOL0    Cl12603   1.107   8.073   1.116 -0.2528  0.3167  0.0892
   92MOL0     C12604   1.162   8.652   1.338  0.5737 -0.6365  0.0781
   92MOL0     C12605   1.258   8.576   1.409  0.0003 -0.0738  0.1558
   92MOL0     O12606   1.458   8.645   1.791 -0.3783 -0.4078  0.0357
   92MOL0     C12607   1.444   8.297   1.761 -0.4860  0.5364 -0.2773
   92MOL0     C12608   1.488   8.178   1.824  0.1345  0.3438  0.3915
   92MOL0     N12609   1.882   7.935   2.515  0.1775 -0.1354 -0.1707
   92MOL0     N12610   1.953   7.917   2.625  0.8279  0.0425  0.9348
   92MOL0     C12611   2.409   8.508   3.395  0.8769  0.8430  0.2818
   92MOL0     C12612   2.498   8.513   3.505  0.1837  0.4606 -0.8638
   92MOL0     C12613   2.722   8.426   3.871  0.0444  0.8060  0.6198
   92MOL0     C12614   2.817   8.530   3.831 -0.1858  0.3967  0.6271
   92MOL0     C12615   2.925   8.542   3.914  0.9553  0.5819  0.1350
   92MOL0     C12616   2.936   8.476   4.041  0.7481 -0.4069  0.4918
   92MOL0     O12617   3.044   8.534   4.107 -0.3070 -0.3705  0.6972
   92MOL0     C12618   3.083   8.466   4.232  0.1941  0.1370 -0.0126
   92MOL0     C12619   3.201   8.536   4.305 -0.0720  0.9495  0.0418
   92MOL0     C12620   3.259   8.462   4.426 -0.1612 -0.4070  0.7319
   92MOL0     C12621   3.156   8.404   4.526  0.6229  0.9152  1.2749
   92MOL0     C12622   3.215   8.359   4.657  0.0091 -0.1506 -0.3821
   92MOL0     C12623   3.264   8.319   4.761 -0.6054 -0.3619 -0.7941
   92MOL0     C12624   2.838   8.389   4.088 -0.6816 -0.3795 -0.3680
   92MOL0     C12625   2.732   8.353   3.995 -0.9411  0.2658 -0.4870
   92MOL0     C12626   2.632   8.251   4.035  0.8593  0.4157 -0.2675
   92MOL0     H12627   2.614   8.202   3.497 -0.1421 -0.1384 -2.1793
   92MOL0     H12628   2.417   8.172   3.333  1.5820 -1.6590  2.3811
   92MOL0     H12629   2.401   8.468   3.101  0.0339 -1.9760 -1.7903
   92MOL0     H12630   2.253   8.546   3.134 -1.4528 -0.6283 -0.6798
   92MOL0     H12631   2.122   8.371   3.018 -1.0760  1.9330  1.5751
   92MOL0     H12632   2.243   8.441   2.919 -3.6474 -1.2471 -1.3586
   92MOL0     H12633   2.386   8.226   3.045  1.1531  0.3995 -0.5754
   92MOL0     H12634   2.242   8.156   2.980  1.8713 -1.6340  0.9461
   92MOL0     H12635   2.322   8.312   2.761 -0.8194  1.7734  3.5032
   92MOL0     H12636   2.483   8.274   2.842  1.5250 -1.4123 -1.3402
   92MOL0     H12637   2.456   8.044   2.816  3.9193  3.0701  0.4614
   92MOL0     H12638   2.463   8.133   2.670 -1.9422 -1.4239 -2.4805
   92MOL0     H12639   2.188   8.056   2.798  0.1768 -2.0793  0.6278
   92MOL0     H12640   2.221   8.115   2.634 -1.3283  0.4295  0.5075
   92MOL0     H12641   2.366   7.861   2.751 -0.0250 -0.8818 -0.5331
   92MOL0     H12642   2.365   7.908   2.596  2.8903 -1.1771  2.7703
   92MOL0     H12643   2.192   7.727   2.646  3.4768  1.0535  0.8013
   92MOL0     H12644   2.125   7.828   2.773  0.9254 -0.4468  0.5882
   92MOL0     H12645   2.170   7.849   2.385 -0.4577  2.2848 -0.6513
   92MOL0     H12646   2.047   7.944   2.214  0.5190 -0.6348  0.1657
   92MOL0     H12647   1.914   8.063   2.243 -4.3827 -1.9450 -0.5969
   92MOL0     H12648   1.867   7.756   2.205  0.3647  0.6381  1.1974
   92MOL0     H12649   1.765   7.860   2.283 -0.0403 -1.3530  0.1247
   92MOL0     H12650   1.882   7.897   1.990  1.7506  1.3595  0.8396
   92MOL0     H12651   1.713   7.849   2.044 -0.8909  1.8537 -1.3603
   92MOL0     H12652   1.691   8.090   2.153 -0.1631  0.5743 -0.2932
   92MOL0     H12653   1.813   8.137   2.040 -1.6418  0.5708  0.7993
   92MOL0     H12654   1.770   8.304   1.963 -0.7111  0.8174  0.8817
   92MOL0     H12655   1.757   8.570   1.771  0.5103 -2.8164 -1.9568
   92MOL0     H12656   1.796   8.512   1.940 -1.7179  1.5673  1.5778
   92MOL0     H12657   1.651   8.601   1.914  0.8874  0.2290 -0.3442
   92MOL0     H12658   1.299   8.793   1.665 -0.6454 -1.5655  1.1028
   92MOL0     H12659   1.123   8.907   1.549  0.5806 -0.1377 -0.4824
   92MOL0     H12660   0.859   8.855   1.189 -1.0708 -1.1184  0.2127
   92MOL0     H12661   0.970   8.718   1.173  1.5175  1.1567  0.6429
   92MOL0     H12662   0.875   8.634   1.396 -1.9016  2.8638  3.2875
   92MOL0     H12663   0.758   8.755   1.410 -0.6885 -1.2896  2.6498
   92MOL0     H12664   0.614   8.706   1.257 -2.2370 -2.1677  0.8067
   92MOL0     H12665   0.668   8.540   1.308  1.1545 -0.9282 -1.3151
   92MOL0     H12666   0.787   8.660   1.055  2.1598 -1.0223 -0.1262
   92MOL0     H12667   0.650   8.559   1.055 -0.5170 -1.1550  1.6865
   92MOL0     H12668   0.853   8.438   1.003 -0.5906 -0.4021 -1.0685
   92MOL0     H12669   0.926   8.508   1.147 -0.2373 -1.0601  2.2981
   92MOL0     H12670   0.696   8.322   1.201  0.8136  1.7153  4.4858
   92MOL0     H12671   0.831   8.360   1.302 -1.1283 -4.5246  1.2836
   92MOL0     H12672   0.826   8.179   1.058  2.4888  0.4955 -0.5552
   92MOL0     H12673   0.858   8.129   1.231 -2.8069 -0.0016 -0.4735
   92MOL0     H12674   1.056   8.286   1.233 -1.3021  2.1664 -1.1164
   92MOL0     H12675   1.042   8.301   1.064 -1.7137  1.3548 -0.0477
   92MOL0     H12676   1.141   8.608   1.241  2.8030  0.6921 -1.0839
   92MOL0     H12677   1.288   8.478   1.372  0.1568 -0.4187  1.1594
   92MOL0     H12678   1.349   8.292   1.709  0.9279  3.4416 -3.5703
   92MOL0     H12679   1.428   8.089   1.834 -0.9683  1.0850  0.4888
   92MOL0     H12680   2.372   8.608   3.376  4.0913  1.9891 -0.5118
   92MOL0     H12681   2.511   8.606   3.559 -1.7083 -1.2744  2.9350
   92MOL0     H12682   2.804   8.598   3.747  1.7319  0.4454  0.3286
   92MOL0     H12683   2.999   8.618   3.890 -1.1718  1.7244 -3.5821
   92MOL0     H12684   2.992   8.467   4.292  0.2261 -1.4793  0.1016
   92MOL0     H12685   3.100   8.363   4.199 -0.5027  0.5543 -1.7889
   92MOL0     H12686   3.164   8.637   4.325 -2.7416 -0.0542  0.4957
   92MOL0     H12687   3.276   8.546   4.226 -3.2143 -0.0765 -3.3531
   92MOL0     H12688   3.333   8.389   4.392  0.3851  0.6096 -0.3347
   92MOL0     H12689   3.319   8.535   4.482  1.3244  0.7520 -2.1729
   92MOL0     H12690   3.128   8.312   4.474  1.2747  1.3410  0.1142
   92MOL0     H12691   3.070   8.470   4.541  0.7784  1.5783 -0.4685
   92MOL0     H12692   3.309   8.268   4.844 -2.5374 -0.7149  0.0972
   92MOL0     H12693   2.844   8.346   4.188  0.3961  0.0020 -0.2574
   92MOL0     H12694   2.664   8.204   4.128  2.7664 -0.0722 -1.1162
   92MOL0     H12695   2.539   8.303   4.059  0.2428 -0.1945 -1.2585
   92MOL0     H12696   2.630   8.175   3.956  0.9156  0.0668  0.0650
   93MOL0     O12697   1.719  10.766   8.999 -0.6408  0.0116  0.6024
   93MOL0     C12698   1.784  10.808   9.090  0.4034 -0.0628  0.3254
   93MOL0     O12699   1.785  10.942   9.117  0.4235  1.4512  0.4321
   93MOL0     C12700   1.683  11.016   9.069 -0.5444  0.6111 -0.3381
   93MOL0     C12701   1.548  11.000   9.118 -0.4594  0.4567  0.2505
   93MOL0     C12702   1.445  11.083   9.076 -0.0286  0.0415 -0.5959
   93MOL0     C12703   1.475  11.195   8.990 -0.3262  0.1390 -0.4596
   93MOL0     O12704   1.368  11.268   8.946 -0.0074  0.3048  0.4738
   93MOL0     C12705   1.359  11.402   8.977  0.3330 -0.3675  0.2692
   93MOL0     C12706   1.230  11.452   8.901 -0.5248 -0.6913 -0.1024
   93MOL0     C12707   1.251  11.446   8.747  0.2308 -0.8809 -0.1257
   93MOL0     C12708   1.171  11.325   8.687 -0.4831 -0.2586 -0.4285
   93MOL0     C12709   1.160  11.353   8.543 -0.2166  0.8541 -0.4666
   93MOL0     C12710   1.069  11.219   8.491 -0.7748 -0.0201 -0.7452
   93MOL0     C12711   1.100  11.185   8.338  0.8411 -0.5947  0.8234
   93MOL0     C12712   1.049  11.283   8.238 -0.5789  0.3878 -0.2380
   93MOL0     N12713   1.087  11.254   8.104 -0.8441  0.1644  0.2513
   93MOL0     C12714   1.036  11.160   8.018 -1.3443  0.3984  0.3053
   93MOL0     C12715   1.110  11.169   7.909  0.0249  0.4831  0.5422
   93MOL0     C12716   1.081  11.097   7.785  0.9447 -0.9177  0.0855
   93MOL0     C12717   1.094  10.946   7.794  0.2734  0.5484 -0.0643
   93MOL0     C12718   1.057  10.890   7.651 -0.7151  0.4532  0.4565
   93MOL0     C12719   1.062  10.740   7.645  0.3479 -0.7282  0.3025
   93MOL0     O12720   1.198  10.681   7.655 -0.2813 -0.6900 -0.0289
   93MOL0     C12721   1.219  10.613   7.545 -0.6776  0.1314 -0.4604
   93MOL0     C12722   1.313  10.652   7.453  0.2348 -0.1601  0.0989
   93MOL0     C12723   1.359  10.571   7.344 -0.1858 -0.3090  0.6430
   93MOL0     C12724   1.464  10.634   7.264  1.1218  0.3033  0.3591
   93MOL0     C12725   1.300  10.445   7.325 -0.2824 -0.0815 -0.1848
   93MOL0     C12726   1.340  10.350   7.220  0.0830  0.7939 -0.3221
   93MOL0     O12727   1.341  10.224   7.261 -0.0222 -0.8618  0.6423
   93MOL0     C12728   1.364  10.116   7.183  0.1212 -0.1686  0.3810
   93MOL0     C12729   1.463  10.094   7.087  0.8753 -0.0490  0.5229
   93MOL0     C12730   1.480   9.976   7.025 -0.6808 -0.4591  0.5151
   93MOL0     C12731   1.393   9.870   7.048 -0.0850 -0.2719  0.5968
   93MOL0     O12732   1.412   9.751   6.980 -0.0186  0.5130  0.5482
   93MOL0     C12733   1.356   9.742   6.845  0.5532  0.9247  0.7390
   93MOL0     C12734   1.375   9.599   6.796  0.1822 -0.1645  0.0712
   93MOL0     C12735   1.519   9.548   6.803  0.0689 -1.1094  0.3018
   93MOL0     C12736   1.556   9.456   6.689  0.0721 -0.4266  0.2538
   93MOL0     C12737   1.462   9.337   6.686  0.1456  0.4979 -0.0496
   93MOL0     C12738   1.537   9.220   6.624 -0.3794  0.4334  0.2651
   93MOL0     C12739   1.566   9.255   6.467 -0.0054  0.1153 -0.9923
   93MOL0     C12740   1.594   9.124   6.392 -0.3838  0.1283 -0.0578
   93MOL0    Cl12741   1.738   9.058   6.459  0.0415 -0.3316 -0.3424
   93MOL0     C12742   1.300   9.880   7.143 -0.0537  0.1116 -0.8212
   93MOL0     C12743   1.288  10.004   7.216  0.0145  1.5921 -0.5717
   93MOL0     O12744   1.359  10.397   7.112 -0.1171  1.1787  1.1524
   93MOL0     C12745   1.195  10.411   7.416  0.0163  0.2282  0.9649
   93MOL0     C12746   1.151  10.502   7.517  0.5695 -0.2318  0.7529
   93MOL0     N12747   1.207  11.269   7.914 -0.0930 -0.4438 -1.0504
   93MOL0     N12748   1.193  11.313   8.041 -0.3159 -0.7432 -0.7685
   93MOL0     C12749   1.605  11.218   8.950 -0.3319  0.2037  0.5460
   93MOL0     C12750   1.710  11.128   8.992  0.3973  0.2407 -0.4439
   93MOL0     C12751   1.878  10.711   9.165  0.4882 -0.8042  0.4460
   93MOL0     C12752   1.833  10.583   9.188  0.7637  0.3238 -0.5987
   93MOL0     C12753   1.909  10.479   9.252 -0.5468  0.8941 -0.5974
   93MOL0     C12754   2.025  10.513   9.315 -0.3463 -0.6563 -0.7039
   93MOL0     O12755   2.094  10.449   9.414  0.7865 -0.8722  0.8214
   93MOL0     C12756   2.034  10.334   9.474 -0.1121 -0.7837 -0.0596
   93MOL0     C12757   2.075  10.324   9.620 -0.1501  0.8403 -1.0441
   93MOL0     C12758   2.227  10.298   9.633  0.2011  0.2472 -0.2853
   93MOL0     C12759   2.259  10.287   9.787  0.1332 -0.2577  0.4010
   93MOL0     C12760   2.396  10.234   9.804 -0.6462  0.0559  0.6659
   93MOL0     C12761   2.512  10.188   9.815 -0.3901  0.3883  0.4628
   93MOL0     C12762   2.076  10.650   9.289 -0.7447  1.2483 -0.4548
   93MOL0     C12763   2.002  10.749   9.220  0.0134  0.5768 -0.4230
   93MOL0     C12764   2.060  10.885   9.201 -0.3135 -0.5105  0.5856
   93MOL0     H12765   1.516  10.920   9.184 -0.8540 -0.1949 -0.7030
   93MOL0     H12766   1.347  11.055   9.114  0.0203  0.4096 -0.1900
   93MOL0     H12767   1.449  11.460   8.955 -1.0528  3.1084  2.8296
   93MOL0     H12768   1.346  11.403   9.085  0.6206 -1.6772  0.3259
   93MOL0     H12769   1.136  11.407   8.934 -0.2096  0.4673  2.6917
   93MOL0     H12770   1.218  11.559   8.919  2.0391 -0.5723  1.3664
   93MOL0     H12771   1.205  11.536   8.704 -0.1697 -1.1501 -0.2705
   93MOL0     H12772   1.356  11.438   8.719  0.5264 -0.1869  0.7338
   93MOL0     H12773   1.222  11.232   8.714 -1.0480 -0.8603 -1.4153
   93MOL0     H12774   1.066  11.321   8.718 -0.1760 -0.6848  0.6251
   93MOL0     H12775   1.264  11.344   8.512 -0.7114 -2.0824 -1.5284
   93MOL0     H12776   1.122  11.453   8.517  0.8910  1.0879 -1.2420
   93MOL0     H12777   1.085  11.129   8.551 -1.4088  0.0266 -0.4998
   93MOL0     H12778   0.960  11.230   8.499 -0.7324 -0.0110 -0.1555
   93MOL0     H12779   1.059  11.087   8.314  0.1092 -0.5502  1.8156
   93MOL0     H12780   1.208  11.176   8.318  0.2739 -1.6217 -2.2357
   93MOL0     H12781   0.939  11.276   8.234 -0.5684  0.7110 -1.6544
   93MOL0     H12782   1.068  11.384   8.274 -1.3071 -0.0903  1.6328
   93MOL0     H12783   0.948  11.101   8.041 -2.8847  3.4654  3.1689
   93MOL0     H12784   1.147  11.142   7.711  1.9285 -1.5246  0.5727
   93MOL0     H12785   0.976  11.101   7.753  1.1480 -2.4585 -0.8837
   93MOL0     H12786   1.193  10.902   7.806 -0.7234 -2.8926 -2.7456
   93MOL0     H12787   1.031  10.893   7.866  1.0720  0.0104  0.2538
   93MOL0     H12788   0.960  10.926   7.614 -0.6813  1.9124  1.6762
   93MOL0     H12789   1.119  10.937   7.574 -1.2241 -0.9072 -0.8251
   93MOL0     H12790   1.011  10.689   7.728 -0.0513 -2.1474 -0.7627
   93MOL0     H12791   0.999  10.704   7.563 -1.7308  3.7148 -0.3242
   93MOL0     H12792   1.370  10.742   7.473 -2.5101  1.4767  1.0597
   93MOL0     H12793   1.414  10.666   7.173 -1.4822  1.7768  2.1740
   93MOL0     H12794   1.536  10.555   7.242  0.1614 -0.1707 -1.2429
   93MOL0     H12795   1.508  10.717   7.320  2.5105  0.5417 -1.0204
   93MOL0     H12796   1.510  10.189   7.063 -2.4716  0.7733 -4.3516
   93MOL0     H12797   1.556   9.952   6.950 -1.5842  1.0316 -0.9626
   93MOL0     H12798   1.248   9.760   6.842 -0.5938 -3.7892  3.4385
   93MOL0     H12799   1.401   9.813   6.775 -1.1810  2.3337  0.9634
   93MOL0     H12800   1.323   9.532   6.865  0.8599 -0.8331 -0.0595
   93MOL0     H12801   1.322   9.599   6.701 -0.8177 -0.5959  0.6095
   93MOL0     H12802   1.526   9.486   6.893  1.1176 -1.4121  0.0339
   93MOL0     H12803   1.576   9.641   6.805 -3.5717  1.4338 -2.4177
   93MOL0     H12804   1.663   9.432   6.690  0.3955  0.7653 -1.2923
   93MOL0     H12805   1.559   9.516   6.597 -0.2798  1.5494  1.4870
   93MOL0     H12806   1.439   9.317   6.791  3.4000  0.7666  0.8319
   93MOL0     H12807   1.375   9.368   6.628  0.1003 -0.3806 -0.4676
   93MOL0     H12808   1.465   9.138   6.628 -0.3745  0.4841  2.6857
   93MOL0     H12809   1.626   9.195   6.682  1.3803  3.2736 -0.9805
   93MOL0     H12810   1.664   9.305   6.469 -0.0504  0.3562 -2.6944
   93MOL0     H12811   1.504   9.327   6.414  2.4177  1.0402 -2.7793
   93MOL0     H12812   1.590   9.139   6.283 -3.1928  2.4910  0.2328
   93MOL0     H12813   1.508   9.057   6.400  0.3499 -0.7094  1.0808
   93MOL0     H12814   1.243   9.792   7.172  2.0323 -0.9028  0.4009
   93MOL0     H12815   1.223  10.008   7.302  0.9106 -1.4150  0.3641
   93MOL0     H12816   1.151  10.312   7.412  0.2270 -0.0825  3.8248
   93MOL0     H12817   1.070  10.465   7.579  0.1493  0.2333  0.4915
   93MOL0     H12818   1.634  11.299   8.884  0.3277 -0.7458 -0.3629
   93MOL0     H12819   1.809  11.143   8.952  0.4152 -0.1116 -0.5369
   93MOL0     H12820   1.739  10.541   9.154 -0.1492  3.0310 -1.6247
   93MOL0     H12821   1.868  10.379   9.262  1.7694  0.0893  2.2321
   93MOL0     H12822   1.926  10.350   9.478 -0.1351 -0.9986  0.1564
   93MOL0     H12823   2.064  10.254   9.407 -0.8177 -0.2291 -1.0600
   93MOL0     H12824   2.018  10.246   9.671 -0.1186 -0.0078 -2.2534
   93MOL0     H12825   2.043  10.413   9.675  3.9982  1.1064  1.3862
   93MOL0     H12826   2.251  10.200   9.592 -1.2252 -0.0764 -0.3755
   93MOL0     H12827   2.280  10.375   9.575 -0.2927  1.5161  0.8882
   93MOL0     H12828   2.188  10.211   9.822  0.8892 -1.6296 -0.9175
   93MOL0     H12829   2.241  10.384   9.834 -2.2586 -0.2985 -0.2683
   93MOL0     H12830   2.616  10.160   9.817  0.8895  4.0709 -2.3622
   93MOL0     H12831   2.172  10.670   9.335  0.2141  0.9587 -2.2234
   93MOL0     H12832   2.011  10.952   9.271  0.3099 -1.2794  1.8049
   93MOL0     H12833   2.165  10.886   9.233 -0.5067 -1.1763  1.2749
   93MOL0     H12834   2.048  10.930   9.102 -2.2715 -0.0143  1.0113
   94MOL0     O12835  11.045   8.893   7.073 -0.2733  0.0063 -0.1387
   94MOL0     C12836  11.028   8.991   7.148 -1.0460 -0.3406 -0.1533
   94MOL0     O12837  11.030   9.121   7.111  0.4321 -0.4659  0.1692
   94MOL0     C12838  11.048   9.171   6.983 -0.6581  0.3396 -0.1675
   94MOL0     C12839  10.940   9.228   6.923 -0.8741 -0.1461  0.1008
   94MOL0     C12840  10.960   9.287   6.791  0.1174 -0.0363 -0.2332
   94MOL0     C12841  11.085   9.294   6.732  0.7408 -1.1440 -0.1194
   94MOL0     O12842  11.119   9.355   6.610 -0.4285 -0.0099  0.7328
   94MOL0     C12843  11.091   9.490   6.599 -0.3255  0.3351  0.2208
   94MOL0     C12844  11.179   9.556   6.495 -0.3767 -0.2733  0.5010
   94MOL0     C12845  11.323   9.556   6.537 -0.8623 -1.0914  0.5907
   94MOL0     C12846  11.399   9.640   6.432 -0.5585 -0.2041  0.5798
   94MOL0     C12847  11.549   9.608   6.433 -0.1640 -0.4367  0.1297
   94MOL0     C12848  11.638   9.714   6.375  0.6741  0.1179 -0.5211
   94MOL0     C12849  11.785   9.659   6.368  0.3279 -0.2586  1.1310
   94MOL0     C12850  11.895   9.757   6.304 -0.1763 -0.1576 -0.2116
   94MOL0     N12851  11.881   9.796   6.159  0.1763  0.1587 -0.4789
   94MOL0     C12852  11.886   9.704   6.057  0.1359  0.5326  0.6598
   94MOL0     C12853  11.851   9.773   5.948  0.2677 -0.5463 -0.5374
   94MOL0     C12854  11.829   9.733   5.805  0.2371  0.0435 -0.1281
   94MOL0     C12855  11.687   9.674   5.782 -0.0016 -0.1575  0.4352
   94MOL0     C12856  11.562   9.770   5.796  0.1509 -0.1930 -0.3378
   94MOL0     C12857  11.421   9.695   5.779  0.4420  0.0711  0.0355
   94MOL0     O12858  11.358   9.659   5.905  1.0078 -0.2667 -0.6891
   94MOL0     C12859  11.233   9.608   5.903 -0.3119 -0.4531 -0.2552
   94MOL0     C12860  11.166   9.562   5.787 -0.9411 -0.3440  0.6946
   94MOL0     C12861  11.035   9.511   5.792 -0.3666  0.6758  0.1995
   94MOL0     C12862  10.979   9.469   5.660  0.1398 -0.2630 -0.0780
   94MOL0     C12863  10.962   9.508   5.913  0.0747  0.0361 -0.4008
   94MOL0     C12864  10.821   9.462   5.927  0.4885  0.8984 -0.7016
   94MOL0     O12865  10.817   9.330   5.963 -0.2951  0.4336 -0.4992
   94MOL0     C12866  10.697   9.269   5.993 -0.4994  0.1960 -1.1245
   94MOL0     C12867  10.613   9.338   6.069  0.0156 -0.7970 -0.6331
   94MOL0     C12868  10.490   9.288   6.111 -0.5556 -0.2192 -0.4473
   94MOL0     C12869  10.445   9.171   6.052  0.4574 -0.0657  0.8918
   94MOL0     O12870  10.316   9.133   6.074  0.6207  0.3550  0.1998
   94MOL0     C12871  10.243   9.082   5.970  0.8779  0.3505 -0.7319
   94MOL0     C12872  10.092   9.100   6.000  0.3738  0.1046 -0.3220
   94MOL0     C12873  10.008   9.020   5.894  0.0386 -0.8870  0.1199
   94MOL0     C12874   9.868   9.007   5.949  0.1154 -0.2070  0.8301
   94MOL0     C12875   9.786   8.928   5.838 -0.3114 -0.0901 -0.9751
   94MOL0     C12876   9.664   8.887   5.911  0.0563  0.7921  0.5116
   94MOL0     C12877   9.603   8.766   5.827  1.0007 -0.5605 -0.0563
   94MOL0     C12878   9.449   8.744   5.848 -0.0839 -1.0720 -0.2256
   94MOL0    Cl12879   9.363   8.872   5.751 -0.1257 -0.5889  0.7687
   94MOL0     C12880  10.523   9.112   5.957 -0.3611  0.5016  0.4189
   94MOL0     C12881  10.658   9.152   5.934  0.1155  0.0251 -0.5838
   94MOL0     O12882  10.727   9.538   5.898  0.2504 -0.6069  0.0279
   94MOL0     C12883  11.035   9.527   6.025  0.3000  0.5816  0.4226
   94MOL0     C12884  11.162   9.580   6.020 -0.0656  0.5741 -0.9287
   94MOL0     N12885  11.818   9.895   5.998 -0.4961  0.0866 -1.0856
   94MOL0     N12886  11.849   9.917   6.121  0.0963  0.7623 -0.2034
   94MOL0     C12887  11.189   9.233   6.798  1.5745  0.3466 -0.1621
   94MOL0     C12888  11.171   9.171   6.921 -0.1638 -0.1227  0.1545
   94MOL0     C12889  11.016   8.951   7.293  0.1632 -0.1648  0.3586
   94MOL0     C12890  11.027   9.055   7.380  1.1925 -0.3601 -0.5141
   94MOL0     C12891  11.006   9.043   7.519 -0.5926  0.2072  0.2946
   94MOL0     C12892  10.969   8.918   7.569  0.1638 -0.4924 -0.6911
   94MOL0     O12893  10.949   8.927   7.709  0.7374  0.6157  0.1191
   94MOL0     C12894  10.877   8.818   7.781  0.2390  0.3335  0.1285
   94MOL0     C12895  10.793   8.868   7.895  0.3644 -0.0581  0.4086
   94MOL0     C12896  10.701   8.977   7.841 -0.4781  0.8990 -0.2452
   94MOL0     C12897  10.599   8.919   7.744  0.1502  0.9635  0.0710
   94MOL0     C12898  10.472   8.987   7.717  0.8898  0.1380 -0.3530
   94MOL0     C12899  10.362   9.032   7.682  0.5857  0.3736  0.4436
   94MOL0     C12900  10.955   8.809   7.485 -0.5312  0.6939  0.5160
   94MOL0     C12901  10.984   8.821   7.346  1.0021  0.3095  0.6798
   94MOL0     C12902  10.951   8.704   7.254  0.6126 -0.7797 -0.2510
   94MOL0     H12903  10.838   9.229   6.961 -0.4025 -0.8136  1.4289
   94MOL0     H12904  10.867   9.320   6.746  0.9292 -0.5008 -2.4179
   94MOL0     H12905  11.100   9.540   6.695  0.1598 -0.3083  0.5183
   94MOL0     H12906  10.986   9.498   6.568 -0.3165  1.2854  0.4164
   94MOL0     H12907  11.163   9.502   6.402  1.0296 -0.9209  0.6015
   94MOL0     H12908  11.149   9.661   6.480 -1.6077 -0.6903 -0.0344
   94MOL0     H12909  11.334   9.603   6.636 -0.3907 -1.7843  0.8732
   94MOL0     H12910  11.368   9.458   6.551  2.1936  0.1627  0.3234
   94MOL0     H12911  11.362   9.641   6.329 -2.6119 -0.0116  1.2701
   94MOL0     H12912  11.386   9.745   6.461  2.5578  0.9147 -1.5457
   94MOL0     H12913  11.563   9.515   6.377 -0.9027 -0.9786  0.8041
   94MOL0     H12914  11.572   9.604   6.540  1.7984  3.8775  0.0298
   94MOL0     H12915  11.602   9.742   6.276 -2.4831  4.1234  1.4892
   94MOL0     H12916  11.634   9.800   6.441  4.0680 -0.3205  0.4893
   94MOL0     H12917  11.793   9.569   6.306  2.1106 -0.7709  2.0241
   94MOL0     H12918  11.818   9.643   6.471 -0.9677  2.8371  2.1396
   94MOL0     H12919  11.907   9.853   6.354 -3.1416 -0.4644  1.2662
   94MOL0     H12920  11.990   9.703   6.310 -0.0860 -0.1825 -1.5080
   94MOL0     H12921  11.914   9.599   6.054 -0.4471  0.3964 -1.5406
   94MOL0     H12922  11.893   9.651   5.772  0.1199 -1.1094  2.2730
   94MOL0     H12923  11.851   9.818   5.740  2.9094 -0.1146  0.4769
   94MOL0     H12924  11.689   9.662   5.673 -0.0913  3.6020 -0.1159
   94MOL0     H12925  11.678   9.575   5.827  3.3219  0.4100  2.6941
   94MOL0     H12926  11.580   9.846   5.873 -2.2987 -0.5447  0.6712
   94MOL0     H12927  11.570   9.835   5.709  0.7724  1.1333  0.6705
   94MOL0     H12928  11.354   9.770   5.735  1.4725  1.2778  0.4609
   94MOL0     H12929  11.445   9.599   5.734 -1.0366 -0.9551  1.3216
   94MOL0     H12930  11.214   9.577   5.691  0.3748  2.6464  1.7127
   94MOL0     H12931  10.913   9.383   5.674 -0.1251 -0.9615 -4.3868
   94MOL0     H12932  11.060   9.429   5.599  1.4979  0.7441  0.9809
   94MOL0     H12933  10.922   9.548   5.610 -1.6322 -0.6118  1.2806
   94MOL0     H12934  10.643   9.435   6.107  0.2261  0.1949 -3.1594
   94MOL0     H12935  10.411   9.322   6.177 -0.5182 -2.0443  0.6034
   94MOL0     H12936  10.270   9.112   5.868 -2.0283 -1.5937 -2.2150
   94MOL0     H12937  10.255   8.973   5.972  0.3671  0.2441 -2.1442
   94MOL0     H12938  10.060   9.061   6.096 -2.4205  2.2816 -0.2172
   94MOL0     H12939  10.058   9.204   6.007 -1.0546 -0.4683  3.1246
   94MOL0     H12940  10.059   8.925   5.875  0.9228 -0.4805  0.4487
   94MOL0     H12941  10.010   9.072   5.798  1.6000  1.2056  1.1929
   94MOL0     H12942   9.818   9.099   5.980 -0.7330 -0.4126  0.1338
   94MOL0     H12943   9.873   8.942   6.037 -1.4732 -0.8505  0.4732
   94MOL0     H12944   9.757   8.997   5.758 -1.0094  0.2645 -0.4260
   94MOL0     H12945   9.848   8.847   5.798 -1.1368 -1.3583  0.2222
   94MOL0     H12946   9.592   8.968   5.926 -0.3002  0.2358  2.0386
   94MOL0     H12947   9.686   8.855   6.014 -0.0348 -1.2322 -0.0531
   94MOL0     H12948   9.659   8.676   5.855  0.6002 -0.8129 -0.0612
   94MOL0     H12949   9.608   8.797   5.722 -1.3492  0.3289  0.0418
   94MOL0     H12950   9.418   8.755   5.953 -1.0498 -0.9601 -0.5155
   94MOL0     H12951   9.408   8.646   5.825 -1.9207 -0.0760 -1.3764
   94MOL0     H12952  10.472   9.025   5.917 -3.3540  1.2970  2.1773
   94MOL0     H12953  10.714   9.085   5.870 -1.3136  0.2022 -2.1109
   94MOL0     H12954  11.005   9.510   6.128  2.1341 -1.1793  0.7150
   94MOL0     H12955  11.218   9.597   6.112 -0.9799 -2.6751  0.3838
   94MOL0     H12956  11.289   9.248   6.758  1.0350 -0.5502 -1.9213
   94MOL0     H12957  11.257   9.133   6.975  0.3669 -0.9822 -1.2548
   94MOL0     H12958  11.041   9.157   7.348 -0.5256  0.7630  1.9545
   94MOL0     H12959  11.003   9.131   7.582  2.4410 -0.7053  1.9219
   94MOL0     H12960  10.816   8.755   7.716 -1.2440  0.8047  1.0171
   94MOL0     H12961  10.953   8.750   7.822  1.7159  2.0584  0.4060
   94MOL0     H12962  10.866   8.903   7.968  2.7721 -1.8620 -0.9866
   94MOL0     H12963  10.735   8.785   7.935  1.8963 -0.8388  1.0794
   94MOL0     H12964  10.652   9.019   7.929  1.9610  1.0978  1.1012
   94MOL0     H12965  10.754   9.066   7.805  0.2113  0.8866  0.7146
   94MOL0     H12966  10.582   8.816   7.777 -0.5434  1.2952  0.7997
   94MOL0     H12967  10.648   8.916   7.646 -2.2081  0.5263 -1.1834
   94MOL0     H12968  10.279   9.077   7.631  0.9142  1.1445  0.5683
   94MOL0     H12969  10.914   8.717   7.526 -2.4915  0.3133 -2.0928
   94MOL0     H12970  10.906   8.732   7.158 -0.2537 -0.8354  0.1347
   94MOL0     H12971  11.043   8.653   7.223  1.5762  0.6635  0.1308
   94MOL0     H12972  10.878   8.635   7.298 -1.2444 -0.7028 -2.9561
   95MOL0     O12973   6.603   1.676   0.815 -1.0331  0.3762 -0.1717
   95MOL0     C12974   6.552   1.658   0.703 -0.0593 -0.3731  0.8092
   95MOL0     O12975   6.556   1.748   0.600 -0.1909  0.4348 -0.5878
   95MOL0     C12976   6.622   1.868   0.610 -0.8933 -0.0867  1.5095
   95MOL0     C12977   6.628   1.950   0.719  0.0478  1.4316  0.4867
   95MOL0     C12978   6.685   2.077   0.716 -0.1040  0.1315 -0.1739
   95MOL0     C12979   6.741   2.126   0.606 -0.3065  0.4449  1.3095
   95MOL0     O12980   6.806   2.242   0.633 -0.3810  0.2432  0.0491
   95MOL0     C12981   6.911   2.303   0.555  0.3504 -0.5682 -0.7095
   95MOL0     C12982   6.938   2.432   0.634 -0.8711 -0.8669  0.1758
   95MOL0     C12983   7.075   2.498   0.598 -1.5935  0.7378  0.4376
   95MOL0     C12984   7.075   2.639   0.654 -0.4524 -0.0836  0.8637
   95MOL0     C12985   7.218   2.707   0.646 -0.0418 -0.3252 -0.1451
   95MOL0     C12986   7.229   2.835   0.738  1.3668  0.4037 -0.2644
   95MOL0     C12987   7.374   2.875   0.760 -0.9368 -0.2056  0.4185
   95MOL0     C12988   7.444   2.919   0.620  0.3803 -0.0584 -0.0083
   95MOL0     N12989   7.569   2.999   0.653  0.0985  0.5198 -0.0100
   95MOL0     C12990   7.580   3.134   0.665 -0.1126 -0.2441 -0.5988
   95MOL0     C12991   7.714   3.162   0.661  0.0229 -0.0331 -0.5151
   95MOL0     C12992   7.759   3.305   0.684  0.4999  0.8184  1.3286
   95MOL0     C12993   7.886   3.320   0.759  1.0179 -0.3704  0.6014
   95MOL0     C12994   7.931   3.463   0.782 -0.2891  0.9013  0.9299
   95MOL0     C12995   8.050   3.468   0.876  0.3153  0.1071 -0.2786
   95MOL0     O12996   8.064   3.605   0.905  0.7530  0.2879  0.6098
   95MOL0     C12997   8.155   3.670   0.825  0.2066 -0.4390  0.2468
   95MOL0     C12998   8.201   3.791   0.887  0.4606 -0.6562  0.6280
   95MOL0     C12999   8.287   3.871   0.814 -0.2050  0.3388 -0.0946
   95MOL0     C13000   8.347   3.997   0.893 -0.2764 -0.2865  0.6066
   95MOL0     C13001   8.331   3.837   0.685  0.4126 -0.6899 -0.2522
   95MOL0     C13002   8.406   3.931   0.590 -0.3083  0.0264  0.0721
   95MOL0     O13003   8.414   4.067   0.613  0.3957 -0.3822  0.0267
   95MOL0     C13004   8.519   4.130   0.558 -0.1778  0.5468 -0.4197
   95MOL0     C13005   8.519   4.198   0.436 -0.2465  0.6828 -0.8032
   95MOL0     C13006   8.634   4.256   0.390  0.6375  0.5393 -0.9940
   95MOL0     C13007   8.748   4.269   0.466 -0.3132 -0.6191  0.0065
   95MOL0     O13008   8.856   4.358   0.446  0.2811  0.2921 -0.0011
   95MOL0     C13009   8.828   4.476   0.365 -0.3674  0.0520 -0.2203
   95MOL0     C13010   8.962   4.547   0.353 -0.1547  0.0930  0.3327
   95MOL0     C13011   9.075   4.480   0.265  0.3188 -0.1657 -1.4606
   95MOL0     C13012   9.206   4.567   0.250 -0.2326 -0.6093 -0.4592
   95MOL0     C13013   9.291   4.508   0.143 -0.7968  0.5785  0.4089
   95MOL0     C13014   9.423   4.585   0.117 -0.7511  0.7907 -0.2285
   95MOL0     C13015   9.496   4.516  -0.001  0.4138  0.0109 -1.1492
   95MOL0     C13016   9.638   4.563  -0.005 -0.3914 -0.5975  0.4747
   95MOL0    Cl13017   9.643   4.746   0.006  0.3134  0.0911  0.4819
   95MOL0     C13018   8.748   4.204   0.589 -0.2487 -0.4611  0.4813
   95MOL0     C13019   8.640   4.130   0.636 -0.9220 -0.0211 -0.0109
   95MOL0     O13020   8.474   3.884   0.500  0.6430 -0.4842  0.5213
   95MOL0     C13021   8.292   3.711   0.626  0.4274 -0.2606  0.4361
   95MOL0     C13022   8.196   3.635   0.692 -0.7845  0.0275  0.9004
   95MOL0     N13023   7.779   3.044   0.636 -0.2784  0.9583  0.7271
   95MOL0     N13024   7.697   2.951   0.632  0.6813  0.9183 -0.2010
   95MOL0     C13025   6.749   2.041   0.493 -0.0809  0.2391 -0.9177
   95MOL0     C13026   6.693   1.914   0.493 -0.9543 -0.3533  0.1161
   95MOL0     C13027   6.489   1.529   0.678  0.6658 -0.2008  0.2262
   95MOL0     C13028   6.411   1.504   0.564  0.3123  0.1574 -0.2667
   95MOL0     C13029   6.333   1.383   0.533 -0.0887 -1.0468 -0.3025
   95MOL0     C13030   6.321   1.300   0.640  1.3805  0.0138 -0.1564
   95MOL0     O13031   6.232   1.189   0.642 -0.0819 -0.3058  1.2928
   95MOL0     C13032   6.131   1.164   0.543  0.5770 -1.1732  0.4863
   95MOL0     C13033   6.042   1.044   0.583  0.2705  0.1127 -0.6683
   95MOL0     C13034   6.125   0.923   0.644  0.1398 -0.6802  0.5990
   95MOL0     C13035   6.233   0.856   0.554  0.2773 -0.1723  0.6817
   95MOL0     C13036   6.359   0.931   0.531  0.2407 -0.8883  0.2018
   95MOL0     C13037   6.463   1.004   0.529  0.4468 -0.4235  0.5516
   95MOL0     C13038   6.387   1.318   0.754 -0.4472  0.5300  0.0605
   95MOL0     C13039   6.478   1.422   0.774  0.9772  0.0351 -0.0964
   95MOL0     C13040   6.561   1.410   0.897  0.4008  0.1637  0.2626
   95MOL0     H13041   6.594   1.913   0.816  0.5132  2.0044  0.8778
   95MOL0     H13042   6.688   2.140   0.804  0.0139  0.5669 -0.4817
   95MOL0     H13043   6.883   2.332   0.453  0.9077  0.1466 -0.6652
   95MOL0     H13044   6.997   2.237   0.544 -0.9290 -2.6729  1.0310
   95MOL0     H13045   6.863   2.508   0.610  0.2584  0.5436  0.9607
   95MOL0     H13046   6.928   2.413   0.742 -0.0301 -1.3612  0.1734
   95MOL0     H13047   7.161   2.450   0.644 -0.3374 -0.1189 -2.5416
   95MOL0     H13048   7.080   2.488   0.489  0.4747 -1.0611  0.6331
   95MOL0     H13049   7.001   2.700   0.602  0.1738  3.6020  3.8669
   95MOL0     H13050   7.040   2.646   0.758 -0.0098 -0.3329  1.0335
   95MOL0     H13051   7.236   2.733   0.542 -1.3968 -3.4855 -1.2783
   95MOL0     H13052   7.300   2.640   0.675  0.2635 -0.5836 -1.5552
   95MOL0     H13053   7.180   2.913   0.680 -3.9995  0.9491  4.1436
   95MOL0     H13054   7.182   2.825   0.836  4.5653 -0.5823  1.3100
   95MOL0     H13055   7.432   2.799   0.813  2.5691  2.9300  1.4564
   95MOL0     H13056   7.381   2.963   0.824  1.3131 -1.4800  2.0203
   95MOL0     H13057   7.477   2.832   0.563 -0.8988 -0.8052  0.3436
   95MOL0     H13058   7.381   2.979   0.554  2.0507  0.8853 -0.8056
   95MOL0     H13059   7.501   3.209   0.669  0.3750  0.3353 -1.4556
   95MOL0     H13060   7.688   3.363   0.744 -0.2771  0.0076  1.2183
   95MOL0     H13061   7.754   3.348   0.583 -1.3409  1.4405  1.6332
   95MOL0     H13062   7.880   3.272   0.857 -0.0679 -0.5963  0.4382
   95MOL0     H13063   7.955   3.274   0.688 -1.2378  2.7253 -4.2350
   95MOL0     H13064   7.937   3.525   0.691 -3.0844  2.3984  1.6641
   95MOL0     H13065   7.851   3.508   0.841 -2.1638 -0.6771 -0.2917
   95MOL0     H13066   8.021   3.420   0.970 -0.6671  2.9324  0.9541
   95MOL0     H13067   8.146   3.439   0.832  0.3200 -0.3615  0.0264
   95MOL0     H13068   8.181   3.814   0.992 -0.0960  3.5845 -0.2232
   95MOL0     H13069   8.327   4.000   1.001 -2.0330 -0.0789  0.3112
   95MOL0     H13070   8.305   4.093   0.861 -0.9966 -1.1192 -1.0365
   95MOL0     H13071   8.455   4.002   0.877 -0.3276 -0.6564  0.1439
   95MOL0     H13072   8.423   4.192   0.385  0.2887  0.0941 -1.7664
   95MOL0     H13073   8.614   4.315   0.301  1.5884  0.8782 -0.9889
   95MOL0     H13074   8.783   4.442   0.271  2.6278  0.0710 -1.7930
   95MOL0     H13075   8.761   4.550   0.411  1.5025  1.1860  0.7881
   95MOL0     H13076   8.943   4.649   0.318 -0.0760 -0.7187 -2.2848
   95MOL0     H13077   9.008   4.553   0.451  1.6400 -1.4887 -0.3493
   95MOL0     H13078   9.027   4.467   0.167 -2.6474  0.6163 -0.2245
   95MOL0     H13079   9.083   4.381   0.310 -3.6593  0.4210  1.0445
   95MOL0     H13080   9.264   4.576   0.343 -1.8349 -0.6728  0.5790
   95MOL0     H13081   9.186   4.668   0.216  0.8487 -1.0904 -2.7252
   95MOL0     H13082   9.319   4.408   0.177  2.1138  2.2080  3.3745
   95MOL0     H13083   9.239   4.502   0.047 -0.4608 -1.3161  0.2960
   95MOL0     H13084   9.492   4.585   0.202  0.6491  0.1797 -1.3317
   95MOL0     H13085   9.395   4.686   0.087 -0.6815  1.0108  0.4387
   95MOL0     H13086   9.445   4.545  -0.093  2.9087  1.5207 -2.1496
   95MOL0     H13087   9.499   4.407   0.013 -0.4077  0.0447 -0.5952
   95MOL0     H13088   9.684   4.542  -0.102 -3.4216  1.9201 -1.7415
   95MOL0     H13089   9.692   4.515   0.077 -0.4211 -0.0831  0.7952
   95MOL0     H13090   8.842   4.228   0.638  0.2386  2.2520 -1.5939
   95MOL0     H13091   8.646   4.084   0.734  2.0469  1.6736  0.7184
   95MOL0     H13092   8.315   3.686   0.523 -1.4757 -0.4723  0.0181
   95MOL0     H13093   8.149   3.548   0.646 -6.7499  2.7429  0.8972
   95MOL0     H13094   6.783   2.090   0.403 -2.0019  4.2431  0.2965
   95MOL0     H13095   6.683   1.849   0.407 -3.1859  0.1589 -0.0677
   95MOL0     H13096   6.384   1.580   0.490 -1.3724  0.8723  1.0141
   95MOL0     H13097   6.275   1.377   0.442  0.6178  0.4467 -0.8816
   95MOL0     H13098   6.077   1.259   0.532  5.1642  2.1910  3.5228
   95MOL0     H13099   6.172   1.142   0.444 -2.6926  0.1230 -1.3195
   95MOL0     H13100   5.983   1.018   0.495 -2.7394  2.5443  0.4512
   95MOL0     H13101   5.975   1.083   0.660 -0.0082 -0.2487 -0.7267
   95MOL0     H13102   6.165   0.954   0.741 -1.7880 -1.6197  1.7404
   95MOL0     H13103   6.055   0.844   0.672 -0.7456  0.9304  3.2457
   95MOL0     H13104   6.184   0.817   0.464  0.1436  1.6777 -0.1004
   95MOL0     H13105   6.266   0.772   0.614  3.2301 -1.4569 -2.3947
   95MOL0     H13106   6.548   1.070   0.527  0.1209  0.1043 -3.2632
   95MOL0     H13107   6.373   1.247   0.835  2.1654  0.3986  0.4783
   95MOL0     H13108   6.495   1.466   0.964 -0.6489 -2.9565  2.0583
   95MOL0     H13109   6.565   1.310   0.942 -0.2449  0.0733  0.1316
   95MOL0     H13110   6.663   1.443   0.879  0.1189  1.6017  1.1593
   96MOL0     O13111   8.857   7.862   4.546  0.3695  0.2127 -0.6324
   96MOL0     C13112   8.800   7.911   4.645  0.2396 -0.1179  0.1216
   96MOL0     O13113   8.769   8.042   4.659 -0.5835  0.1852 -0.7420
   96MOL0     C13114   8.854   8.133   4.596  0.0086 -0.3796 -0.0140
   96MOL0     C13115   8.801   8.245   4.532  0.1052  0.4599  0.1783
   96MOL0     C13116   8.887   8.345   4.475  0.0201  0.6797 -0.0003
   96MOL0     C13117   9.027   8.331   4.470 -0.3858 -0.5087 -0.4973
   96MOL0     O13118   9.107   8.435   4.426 -0.3655 -0.3370  0.6218
   96MOL0     C13119   9.245   8.410   4.393 -0.0289  0.2300  1.0396
   96MOL0     C13120   9.306   8.543   4.344 -1.1657  1.0495 -0.9234
   96MOL0     C13121   9.280   8.574   4.196 -0.9749  0.5826 -0.3222
   96MOL0     C13122   9.411   8.635   4.134  0.5330  0.1189  1.1977
   96MOL0     C13123   9.389   8.663   3.984 -0.4298 -0.1573 -0.4410
   96MOL0     C13124   9.515   8.685   3.902  0.8957  1.5223  0.1759
   96MOL0     C13125   9.602   8.797   3.951  0.0110  0.6396 -0.4823
   96MOL0     C13126   9.544   8.943   3.939  0.5242 -0.7655  0.5507
   96MOL0     N13127   9.521   8.999   3.797 -0.3967  0.1047  0.3185
   96MOL0     C13128   9.626   9.041   3.726 -0.1792 -1.3178  0.3347
   96MOL0     C13129   9.565   9.098   3.616  0.4856  0.9636 -0.6333
   96MOL0     C13130   9.628   9.163   3.496  0.4502  0.1308 -0.5265
   96MOL0     C13131   9.722   9.061   3.431  0.1494  0.7373  0.3009
   96MOL0     C13132   9.813   9.129   3.326 -0.2552 -1.3121 -0.4272
   96MOL0     C13133   9.924   9.231   3.384  1.0401  1.2688 -0.2357
   96MOL0     O13134  10.006   9.277   3.280  0.4108  0.2469  0.1688
   96MOL0     C13135  10.089   9.179   3.225  0.6836 -0.7227 -0.2308
   96MOL0     C13136  10.163   9.207   3.110  0.3181  0.5641  0.0394
   96MOL0     C13137  10.251   9.116   3.056  0.0142 -1.9644  0.0277
   96MOL0     C13138  10.317   9.160   2.922  0.6306 -0.2259  0.0120
   96MOL0     C13139  10.247   8.980   3.101 -0.2015 -0.2116  0.4973
   96MOL0     C13140  10.316   8.865   3.046 -0.0360  0.3942 -0.3787
   96MOL0     O13141  10.294   8.755   3.121 -0.0831  0.1237 -0.2797
   96MOL0     C13142  10.313   8.624   3.080 -0.1977 -0.1364 -0.0348
   96MOL0     C13143  10.337   8.531   3.182 -0.1258 -0.7918  0.6519
   96MOL0     C13144  10.368   8.394   3.161  0.0983 -0.1134 -0.5805
   96MOL0     C13145  10.379   8.344   3.029  0.4776  0.0058  0.3710
   96MOL0     O13146  10.428   8.220   3.010 -0.3636  0.3870 -0.4008
   96MOL0     C13147  10.329   8.115   3.001  0.1017  0.0276  0.0558
   96MOL0     C13148  10.373   7.997   2.921 -0.5344  0.4910  0.0178
   96MOL0     C13149  10.457   7.903   2.997 -1.2772 -0.0175  0.5268
   96MOL0     C13150  10.499   7.786   2.913 -0.1354  0.3177  0.0449
   96MOL0     C13151  10.554   7.681   3.002 -1.3607  0.0214 -0.3699
   96MOL0     C13152  10.695   7.719   3.064 -0.7606 -0.4455  1.3105
   96MOL0     C13153  10.763   7.593   3.118 -0.0766 -0.0702 -0.2863
   96MOL0     C13154  10.898   7.620   3.199  0.4092  0.5019  0.4920
   96MOL0    Cl13155  10.997   7.474   3.207  0.0892  0.1319  0.4164
   96MOL0     C13156  10.357   8.439   2.925 -0.4338 -0.7001  0.5431
   96MOL0     C13157  10.329   8.577   2.948 -0.6320  0.6281  0.7590
   96MOL0     O13158  10.409   8.886   2.970  0.0491  0.6447  0.0113
   96MOL0     C13159  10.170   8.950   3.218 -0.3810  0.2231  0.0563
   96MOL0     C13160  10.106   9.053   3.286  0.6538 -0.0787 -0.3922
   96MOL0     N13161   9.429   9.093   3.630 -0.0465  0.3190 -0.1611
   96MOL0     N13162   9.403   9.028   3.733 -0.5541  0.1218  0.3434
   96MOL0     C13163   9.078   8.203   4.536 -0.6969 -0.6584  1.4533
   96MOL0     C13164   8.993   8.111   4.595 -0.3065 -0.3010 -0.1489
   96MOL0     C13165   8.750   7.820   4.740 -0.1979  0.1061  0.3213
   96MOL0     C13166   8.622   7.856   4.794  0.7484 -0.2078  1.0827
   96MOL0     C13167   8.564   7.758   4.878  0.4779 -0.6201 -0.3628
   96MOL0     C13168   8.618   7.632   4.907  0.0272 -0.0984  0.1917
   96MOL0     O13169   8.558   7.549   5.004  0.0831  0.0255  0.3798
   96MOL0     C13170   8.432   7.502   4.958 -0.3277  0.0193 -0.5902
   96MOL0     C13171   8.448   7.359   4.899  0.7671  0.9590  0.1730
   96MOL0     C13172   8.318   7.275   4.903  0.4249  0.4082 -0.2713
   96MOL0     C13173   8.213   7.327   4.804 -0.6973  0.7119  0.7738
   96MOL0     C13174   8.102   7.246   4.839  0.5071  0.1416  1.0151
   96MOL0     C13175   7.998   7.180   4.867  0.7519 -0.4524  1.1342
   96MOL0     C13176   8.745   7.609   4.862 -0.2473 -0.2940 -0.3187
   96MOL0     C13177   8.818   7.699   4.783  0.1323 -0.2342 -0.5099
   96MOL0     C13178   8.963   7.660   4.737 -0.5010  0.1313  0.5276
   96MOL0     H13179   8.693   8.257   4.526 -0.2327 -1.7103  1.0319
   96MOL0     H13180   8.840   8.437   4.441  1.5060  1.7847  0.8268
   96MOL0     H13181   9.248   8.334   4.314 -1.6293  0.8807  0.3052
   96MOL0     H13182   9.298   8.360   4.474  0.7306 -1.7550 -0.5962
   96MOL0     H13183   9.278   8.627   4.409  3.0071  2.6273 -0.8686
   96MOL0     H13184   9.414   8.532   4.359 -1.7363 -2.2965  1.9240
   96MOL0     H13185   9.236   8.486   4.148 -2.1730  0.0710  1.6177
   96MOL0     H13186   9.204   8.653   4.197 -2.2299 -0.5575 -1.8637
   96MOL0     H13187   9.448   8.726   4.181  1.6650  0.6635 -0.6466
   96MOL0     H13188   9.482   8.551   4.138 -1.9983 -2.3781 -1.0694
   96MOL0     H13189   9.319   8.746   3.970 -0.8630 -0.1712  1.3644
   96MOL0     H13190   9.348   8.570   3.944  0.0328  0.6773 -2.9954
   96MOL0     H13191   9.567   8.589   3.911  1.1314  1.5131 -1.1115
   96MOL0     H13192   9.495   8.698   3.796 -1.7345 -0.6405  0.2871
   96MOL0     H13193   9.695   8.797   3.893 -0.3066 -4.0987 -1.4075
   96MOL0     H13194   9.634   8.773   4.053  0.6450  0.3030 -0.7525
   96MOL0     H13195   9.449   8.964   3.989 -0.8839  1.3521 -2.6856
   96MOL0     H13196   9.616   9.006   3.993  1.5107 -1.2812 -0.1255
   96MOL0     H13197   9.731   9.042   3.754 -0.0837  3.1281  0.5127
   96MOL0     H13198   9.689   9.246   3.534 -0.4121 -0.3233  2.0706
   96MOL0     H13199   9.555   9.195   3.421 -1.6376 -1.1286  0.8800
   96MOL0     H13200   9.769   9.006   3.513  1.5066  1.6749  0.1764
   96MOL0     H13201   9.663   8.982   3.383  0.5005 -2.0585  3.9861
   96MOL0     H13202   9.858   9.054   3.260  1.0911  0.1242 -1.2162
   96MOL0     H13203   9.747   9.187   3.260  0.2126 -0.4713 -0.1728
   96MOL0     H13204   9.860   9.316   3.413 -0.3668  0.4065 -0.7303
   96MOL0     H13205   9.973   9.207   3.479 -2.1417 -1.0132  1.0325
   96MOL0     H13206  10.156   9.307   3.069 -1.7028  1.4058  2.2236
   96MOL0     H13207  10.306   9.076   2.852  0.9055  0.3386 -0.7147
   96MOL0     H13208  10.424   9.179   2.931  0.2622  2.1461 -0.1577
   96MOL0     H13209  10.280   9.258   2.891  1.4980  0.2067  0.3138
   96MOL0     H13210  10.333   8.558   3.287 -0.9185  0.3420  0.3403
   96MOL0     H13211  10.400   8.328   3.241 -1.2050  0.5465  0.5342
   96MOL0     H13212  10.290   8.075   3.095  0.7199 -2.4145 -0.6474
   96MOL0     H13213  10.247   8.158   2.942  0.2833  0.8113  0.3617
   96MOL0     H13214  10.281   7.960   2.874 -1.5076  2.7653 -0.0073
   96MOL0     H13215  10.423   8.022   2.827 -1.7390  0.8135 -0.5494
   96MOL0     H13216  10.410   7.872   3.091  0.2296 -2.6726  0.5147
   96MOL0     H13217  10.547   7.963   3.018  0.8012 -2.0390 -1.8674
   96MOL0     H13218  10.566   7.819   2.833 -2.2714  3.0320 -0.7780
   96MOL0     H13219  10.412   7.742   2.863 -0.8452 -1.0638  2.3048
   96MOL0     H13220  10.484   7.660   3.084 -0.2991  2.3585  1.2354
   96MOL0     H13221  10.571   7.588   2.947 -1.0182  0.3866 -0.8855
   96MOL0     H13222  10.685   7.779   3.155 -0.4832 -1.0359  1.7450
   96MOL0     H13223  10.764   7.770   2.996  0.3331 -1.8453  1.3203
   96MOL0     H13224  10.785   7.530   3.031  0.6636 -0.5643  0.2463
   96MOL0     H13225  10.688   7.552   3.187 -2.6682  1.9261 -1.7261
   96MOL0     H13226  10.866   7.654   3.298 -0.0754 -0.0255  0.5209
   96MOL0     H13227  10.954   7.694   3.140 -0.4849  0.7152 -0.1139
   96MOL0     H13228  10.376   8.397   2.827 -2.2281 -2.4670  0.8740
   96MOL0     H13229  10.305   8.644   2.866 -1.4613  2.9741  2.7977
   96MOL0     H13230  10.159   8.861   3.278 -1.3521 -0.4331 -1.0498
   96MOL0     H13231  10.047   9.022   3.371  0.4232  0.7010 -0.2531
   96MOL0     H13232   9.187   8.198   4.538 -0.6643 -0.0945  0.9954
   96MOL0     H13233   9.038   8.025   4.644  0.0997 -1.4099 -2.3111
   96MOL0     H13234   8.578   7.952   4.768 -2.7194 -2.0604 -0.5967
   96MOL0     H13235   8.465   7.782   4.913  0.2800 -2.4700  0.4915
   96MOL0     H13236   8.361   7.481   5.039  0.1670 -1.6230 -0.5608
   96MOL0     H13237   8.375   7.567   4.891 -0.1144 -0.9421 -1.7333
   96MOL0     H13238   8.516   7.310   4.970 -1.0596 -0.9654  0.6765
   96MOL0     H13239   8.498   7.364   4.802 -0.8099  2.0752 -0.6252
   96MOL0     H13240   8.337   7.171   4.878 -4.9521 -0.2344 -2.9340
   96MOL0     H13241   8.274   7.267   5.003 -2.7314  4.6056 -1.0291
   96MOL0     H13242   8.253   7.306   4.704 -0.7026  2.4489  0.3685
   96MOL0     H13243   8.201   7.435   4.813  2.0283  0.9181  3.4354
   96MOL0     H13244   7.923   7.115   4.907  0.5379 -0.5568  0.5621
   96MOL0     H13245   8.794   7.516   4.889 -0.4324  0.1587  1.7449
   96MOL0     H13246   8.966   7.616   4.637  1.3612  0.0410  0.5789
   96MOL0     H13247   9.028   7.748   4.725  0.0236 -0.5483 -2.5736
   96MOL0     H13248   9.002   7.588   4.809  0.4965  0.9486  0.8342
   97MOL0     O13249   8.020   2.859   8.649 -0.4443 -0.3928 -0.2797
   97MOL0     C13250   7.988   2.978   8.636 -0.5345 -1.8474 -0.8131
   97MOL0     O13251   7.991   3.070   8.728  0.2616 -0.4611 -0.1137
   97MOL0     C13252   8.019   3.034   8.863  0.7853 -0.6922  0.7118
   97MOL0     C13253   7.909   3.005   8.950 -0.6438 -0.5636 -0.0492
   97MOL0     C13254   7.949   2.968   9.075 -0.6079  0.4067 -0.1728
   97MOL0     C13255   8.090   2.943   9.117  0.2135 -0.6954  0.4777
   97MOL0     O13256   8.114   2.909   9.251 -0.6014  0.2408 -0.1723
   97MOL0     C13257   8.243   2.870   9.290 -0.0177  0.0311  0.1029
   97MOL0     C13258   8.230   2.805   9.428 -0.1575  0.7439 -0.0189
   97MOL0     C13259   8.239   2.898   9.552 -0.4173 -0.3010  0.1707
   97MOL0     C13260   8.384   2.945   9.575 -0.1684 -0.9227  0.1304
   97MOL0     C13261   8.391   3.046   9.694 -0.1901 -0.1857 -0.7969
   97MOL0     C13262   8.512   3.145   9.666  0.5403  0.4853 -1.2128
   97MOL0     C13263   8.557   3.209   9.793  0.9446 -0.1614 -0.5272
   97MOL0     C13264   8.675   3.299   9.779  0.0832 -0.0810 -0.7395
   97MOL0     N13265   8.795   3.226   9.729 -0.1554  0.9075  0.7722
   97MOL0     C13266   8.888   3.152   9.810 -0.4537 -0.2332  0.3692
   97MOL0     C13267   8.989   3.119   9.723  0.1715  0.0977 -0.2283
   97MOL0     C13268   9.100   3.018   9.760 -0.5094  1.4149  0.1655
   97MOL0     C13269   9.235   3.025   9.684 -0.0604  0.0745  0.7065
   97MOL0     C13270   9.341   2.943   9.761 -0.7217 -0.8503 -0.2046
   97MOL0     C13271   9.471   2.934   9.687 -0.2232  1.7289 -0.4859
   97MOL0     O13272   9.527   3.054   9.638  0.0494 -0.1878  0.0802
   97MOL0     C13273   9.629   3.119   9.705 -0.5799  0.6448 -0.4437
   97MOL0     C13274   9.737   3.170   9.636  0.0006  0.1392  0.0608
   97MOL0     C13275   9.830   3.254   9.687 -0.3280 -0.4693  0.6973
   97MOL0     C13276   9.936   3.290   9.587  0.2692 -0.5116  0.6804
   97MOL0     C13277   9.822   3.291   9.818 -0.6707 -0.8569 -0.2012
   97MOL0     C13278   9.921   3.391   9.858  0.0013 -0.0297 -1.1710
   97MOL0     O13279   9.866   3.489   9.939  0.0623  0.1325 -0.2953
   97MOL0     C13280   9.944   3.562  10.025 -0.5659  0.8218 -0.0833
   97MOL0     C13281  10.059   3.512  10.094 -0.1091  0.9809 -0.0785
   97MOL0     C13282  10.124   3.592  10.186 -0.8107 -0.3963  0.2196
   97MOL0     C13283  10.065   3.713  10.223 -0.4241  0.2794  0.8889
   97MOL0     O13284  10.120   3.801  10.305  0.0420 -0.5440 -0.0009
   97MOL0     C13285  10.162   3.745  10.431 -0.1151  0.0551 -0.4028
   97MOL0     C13286  10.194   3.865  10.518  1.0284 -0.6676  0.7691
   97MOL0     C13287  10.062   3.941  10.541  0.6856 -0.4664 -0.5481
   97MOL0     C13288  10.074   4.071  10.626 -1.0042  0.3181 -0.7758
   97MOL0     C13289   9.935   4.116  10.674  0.5286  0.5179  0.6251
   97MOL0     C13290   9.963   4.218  10.778  0.1218 -0.2352  0.2690
   97MOL0     C13291   9.829   4.282  10.821  0.0954 -0.4757 -0.2085
   97MOL0     C13292   9.841   4.374  10.947 -0.0452 -0.6083 -0.2098
   97MOL0    Cl13293   9.841   4.271  11.095 -0.1329  0.0061  0.2852
   97MOL0     C13294   9.948   3.756  10.161  0.6158  0.4655 -0.8073
   97MOL0     C13295   9.888   3.679  10.065  0.7243 -0.9451  0.4501
   97MOL0     O13296  10.039   3.379   9.830 -0.8361  0.2864  0.1800
   97MOL0     C13297   9.718   3.245   9.897 -0.5764 -0.4850 -0.7351
   97MOL0     C13298   9.615   3.158   9.838 -0.4359 -0.1129  0.3912
   97MOL0     N13299   8.959   3.166   9.595  0.1854 -0.1589 -0.5670
   97MOL0     N13300   8.835   3.226   9.596 -1.0353  0.0561  0.2088
   97MOL0     C13301   8.184   2.953   9.016  0.3567 -0.9844  0.2087
   97MOL0     C13302   8.151   3.009   8.898 -0.6349  0.3628 -0.4279
   97MOL0     C13303   7.959   3.015   8.496 -0.3097  0.0361  0.5004
   97MOL0     C13304   7.826   3.052   8.467  0.4983  1.1392  0.1326
   97MOL0     C13305   7.788   3.093   8.335  0.9265 -0.5326 -0.7154
   97MOL0     C13306   7.875   3.082   8.232  0.1525  0.1644  0.1881
   97MOL0     O13307   7.831   3.120   8.111 -0.3188 -0.2230  0.1433
   97MOL0     C13308   7.939   3.172   8.025  0.2025  0.4372  0.1455
   97MOL0     C13309   7.871   3.179   7.875 -1.1612  0.1248 -0.2384
   97MOL0     C13310   7.797   3.303   7.857  1.0265  0.1238  0.3459
   97MOL0     C13311   7.877   3.439   7.877  0.0299  0.3063 -0.4926
   97MOL0     C13312   7.817   3.556   7.807  0.4320  0.1601 -0.2920
   97MOL0     C13313   7.777   3.652   7.736 -0.4900 -0.0403 -0.3921
   97MOL0     C13314   7.999   3.023   8.259  0.4137  0.7456  0.6171
   97MOL0     C13315   8.050   2.995   8.387 -0.1375  0.0887  0.4327
   97MOL0     C13316   8.196   2.950   8.411  0.0895 -0.8888 -0.5452
   97MOL0     H13317   7.805   3.016   8.924 -0.2901  3.9303 -0.4520
   97MOL0     H13318   7.877   2.953   9.155 -0.1155  1.6347  0.5339
   97MOL0     H13319   8.322   2.946   9.293  2.4250 -2.3643  2.2014
   97MOL0     H13320   8.281   2.787   9.228 -1.1583 -2.1005  2.1004
   97MOL0     H13321   8.141   2.742   9.428  0.4823 -0.2344 -1.4859
   97MOL0     H13322   8.307   2.727   9.424 -2.5147 -1.7132 -1.1007
   97MOL0     H13323   8.172   2.983   9.542  0.4608  0.8487  3.0269
   97MOL0     H13324   8.207   2.854   9.647  0.7178  0.7937  1.0934
   97MOL0     H13325   8.459   2.869   9.599  1.4621  1.0751  1.7978
   97MOL0     H13326   8.435   2.987   9.488  0.0066 -2.4829 -0.5625
   97MOL0     H13327   8.409   2.994   9.789  2.6204  0.0674 -1.0991
   97MOL0     H13328   8.305   3.113   9.704 -0.2342  0.0357 -2.3612
   97MOL0     H13329   8.592   3.097   9.610  1.2640  2.1510 -1.6593
   97MOL0     H13330   8.477   3.228   9.603 -1.0567  1.7077  1.1119
   97MOL0     H13331   8.607   3.145   9.866  2.0093  2.3667  1.1148
   97MOL0     H13332   8.475   3.264   9.839  2.8303  2.4720 -0.0638
   97MOL0     H13333   8.653   3.378   9.707 -0.4001  0.1276 -0.3727
   97MOL0     H13334   8.708   3.351   9.870  2.3351 -1.3254 -0.7712
   97MOL0     H13335   8.876   3.122   9.914  0.8970 -2.7239 -0.1070
   97MOL0     H13336   9.068   2.915   9.738  1.6589  0.1824  2.3098
   97MOL0     H13337   9.099   3.014   9.869 -1.3031  3.0249  0.2401
   97MOL0     H13338   9.214   2.987   9.584  0.5369  2.5401 -0.4227
   97MOL0     H13339   9.259   3.131   9.673 -3.0680  1.0995  2.5637
   97MOL0     H13340   9.360   2.973   9.865  2.0692  0.6025 -1.0369
   97MOL0     H13341   9.310   2.838   9.765  0.5212 -1.2114  2.0007
   97MOL0     H13342   9.547   2.885   9.748 -0.1832  1.1989 -0.9558
   97MOL0     H13343   9.448   2.867   9.603  1.1958  0.5743  0.0006
   97MOL0     H13344   9.746   3.152   9.529 -2.3069  2.1381 -0.5661
   97MOL0     H13345  10.032   3.240   9.596  1.2888  0.7628 -2.1358
   97MOL0     H13346   9.947   3.398   9.602 -0.0659 -0.3940  0.1129
   97MOL0     H13347   9.906   3.282   9.482 -0.8605 -1.8135  1.0747
   97MOL0     H13348  10.099   3.414  10.072  3.1065  1.5069  2.7510
   97MOL0     H13349  10.226   3.565  10.210 -0.6799 -1.0191 -0.9278
   97MOL0     H13350  10.082   3.691  10.482  0.5870  2.5229  3.8403
   97MOL0     H13351  10.248   3.684  10.401 -0.4227 -0.9502  0.6813
   97MOL0     H13352  10.231   3.842  10.619  1.6930 -2.1441  0.2128
   97MOL0     H13353  10.253   3.935  10.458 -0.1237 -1.9472 -1.9760
   97MOL0     H13354   9.999   3.862  10.583 -1.1994 -1.2686 -4.4297
   97MOL0     H13355  10.015   3.970  10.447 -0.6235 -1.8066 -0.3527
   97MOL0     H13356  10.112   4.156  10.568 -1.2110 -0.2364 -1.7465
   97MOL0     H13357  10.135   4.049  10.713 -4.6642 -2.2019  1.4553
   97MOL0     H13358   9.873   4.151  10.590  0.8696  0.7314  0.4611
   97MOL0     H13359   9.880   4.034  10.721  0.2483 -0.4879 -1.3132
   97MOL0     H13360  10.023   4.298  10.735  1.7461 -1.0062  0.9816
   97MOL0     H13361  10.022   4.187  10.865  0.5849  0.2582  0.1351
   97MOL0     H13362   9.752   4.208  10.841  1.9520 -3.0726 -2.0199
   97MOL0     H13363   9.802   4.343  10.734  2.0834 -2.7426 -2.5774
   97MOL0     H13364   9.750   4.434  10.955 -1.3416 -2.5096 -0.2169
   97MOL0     H13365   9.935   4.430  10.947  0.4634 -1.3660  2.2535
   97MOL0     H13366   9.884   3.837  10.194 -4.3921 -3.6534  0.9743
   97MOL0     H13367   9.802   3.707  10.005  2.7702 -1.4328 -3.0025
   97MOL0     H13368   9.714   3.276  10.001 -0.2811  0.7259 -1.0600
   97MOL0     H13369   9.522   3.134   9.889 -0.3739  2.1412  1.7045
   97MOL0     H13370   8.288   2.925   9.030  0.1831 -2.4063 -1.0961
   97MOL0     H13371   8.224   3.019   8.818 -1.9741 -0.2639 -1.7843
   97MOL0     H13372   7.758   3.047   8.552  1.0324 -3.1585  0.5708
   97MOL0     H13373   7.693   3.138   8.311  1.0691 -0.7938 -1.8019
   97MOL0     H13374   7.972   3.267   8.068  1.6724  1.5835 -3.1781
   97MOL0     H13375   8.022   3.103   8.011 -0.6316 -1.2207  2.7249
   97MOL0     H13376   7.805   3.093   7.864 -1.2561  0.1275  0.2782
   97MOL0     H13377   7.959   3.180   7.809  1.8942  1.3770  3.4732
   97MOL0     H13378   7.783   3.316   7.749  1.7626 -1.3439  0.0544
   97MOL0     H13379   7.702   3.311   7.910 -1.7775 -1.4421 -3.9023
   97MOL0     H13380   7.980   3.435   7.839 -0.5810  0.4432 -2.2707
   97MOL0     H13381   7.874   3.471   7.981  0.1656  1.5126 -0.8409
   97MOL0     H13382   7.764   3.744   7.684  0.3582  0.2723 -0.0792
   97MOL0     H13383   8.062   3.003   8.173  0.2289  3.1951 -0.1605
   97MOL0     H13384   8.252   2.969   8.319  0.2742  0.3938 -0.1748
   97MOL0     H13385   8.242   3.005   8.493 -4.2535  0.8374  1.0203
   97MOL0     H13386   8.195   2.841   8.426 -0.6377 -1.1434 -2.1803
   98MOL0     O13387   4.040   9.786   7.992  0.4287 -0.0821 -0.3002
   98MOL0     C13388   3.963   9.747   7.907  0.5840 -0.0420  0.2347
   98MOL0     O13389   3.827   9.743   7.915  0.6003  0.0026  0.1980
   98MOL0     C13390   3.760   9.785   8.026 -0.9065 -0.2057  0.3259
   98MOL0     C13391   3.781   9.909   8.078 -0.8700 -1.2154 -0.1254
   98MOL0     C13392   3.716   9.942   8.199  0.1708 -1.0518  0.9186
   98MOL0     C13393   3.620   9.859   8.249  0.1094 -0.3272 -0.8895
   98MOL0     O13394   3.572   9.891   8.367  0.1620 -0.6369  0.8716
   98MOL0     C13395   3.464   9.810   8.429 -0.5252 -0.7711  0.8082
   98MOL0     C13396   3.408   9.888   8.552 -0.3149  0.4643 -0.6449
   98MOL0     C13397   3.339  10.034   8.525 -0.3810 -1.2153  0.1173
   98MOL0     C13398   3.202  10.052   8.596  0.7104 -0.3373  0.1133
   98MOL0     C13399   3.207  10.036   8.747  0.4900  0.1241  0.1139
   98MOL0     C13400   3.298  10.148   8.807  0.4449  0.0813 -0.0663
   98MOL0     C13401   3.271  10.150   8.961 -0.6429  0.2178  0.4451
   98MOL0     C13402   3.380  10.183   9.050 -0.4391 -0.1011  0.1745
   98MOL0     N13403   3.464  10.066   9.069  0.8188 -0.5235  0.2505
   98MOL0     C13404   3.424   9.967   9.161  0.9784 -0.3780  0.4413
   98MOL0     C13405   3.520   9.868   9.147  0.2570  0.1750  0.3628
   98MOL0     C13406   3.521   9.736   9.217 -0.2153 -0.9899 -0.8865
   98MOL0     C13407   3.431   9.629   9.156  0.0246  0.4921 -1.0056
   98MOL0     C13408   3.457   9.493   9.225 -0.2888  0.0591 -0.4697
   98MOL0     C13409   3.376   9.379   9.168  0.4308 -0.1123 -0.1873
   98MOL0     O13410   3.416   9.249   9.219  0.2713  0.2834  0.3283
   98MOL0     C13411   3.356   9.128   9.171  1.0034  0.1299  0.7422
   98MOL0     C13412   3.362   9.096   9.031 -1.0061 -0.2063 -0.1845
   98MOL0     C13413   3.321   8.971   8.993  0.4469 -1.3210  0.4566
   98MOL0     C13414   3.315   8.951   8.852  0.6416  0.2805  0.8804
   98MOL0     C13415   3.291   8.866   9.084  0.5483  1.0821 -0.1531
   98MOL0     C13416   3.258   8.724   9.035 -0.4830  0.0177 -0.6371
   98MOL0     O13417   3.258   8.636   9.146  0.1929  0.0555 -0.1240
   98MOL0     C13418   3.194   8.518   9.127  1.0822 -0.0851  0.4322
   98MOL0     C13419   3.075   8.497   9.207 -0.1776  0.0287 -0.4928
   98MOL0     C13420   2.985   8.392   9.188  0.2542 -0.4510  0.2935
   98MOL0     C13421   3.017   8.300   9.078 -0.5385  1.0101  0.2659
   98MOL0     O13422   2.941   8.184   9.066 -0.5590  0.0462 -0.0824
   98MOL0     C13423   3.026   8.068   9.070 -0.7329 -0.3275  0.5632
   98MOL0     C13424   2.934   7.958   9.024 -0.0393  1.0080  0.0370
   98MOL0     C13425   2.873   7.875   9.135  0.2766 -0.2549  0.7064
   98MOL0     C13426   2.769   7.782   9.069  0.6630  0.3550 -0.1177
   98MOL0     C13427   2.667   7.722   9.172  0.1420 -0.6032 -0.7620
   98MOL0     C13428   2.549   7.826   9.177 -0.9417 -0.1948 -0.1576
   98MOL0     C13429   2.443   7.805   9.290 -0.1836 -0.6351  0.2954
   98MOL0     C13430   2.496   7.867   9.424  0.3633  0.7397 -0.2832
   98MOL0    Cl13431   2.586   7.740   9.519 -0.1951 -0.3818  0.0287
   98MOL0     C13432   3.135   8.316   9.004  0.4996  0.4144  0.2551
   98MOL0     C13433   3.220   8.416   9.044 -0.0436 -0.2620  0.2197
   98MOL0     O13434   3.231   8.691   8.922 -0.7579 -0.0056 -0.1100
   98MOL0     C13435   3.293   8.902   9.220 -1.0321  0.1363  0.3220
   98MOL0     C13436   3.327   9.027   9.261 -0.7505  0.4875  0.2869
   98MOL0     N13437   3.605   9.903   9.048 -0.1481  0.1367  0.6671
   98MOL0     N13438   3.580  10.019   8.999  0.6222  0.2888 -0.3306
   98MOL0     C13439   3.595   9.743   8.186 -0.1244  0.3814 -0.2152
   98MOL0     C13440   3.658   9.696   8.076 -0.4035 -1.0231  0.6537
   98MOL0     C13441   4.017   9.719   7.774 -0.4251 -0.5593  0.6375
   98MOL0     C13442   4.152   9.683   7.762 -0.3324  0.1985 -0.1482
   98MOL0     C13443   4.218   9.662   7.638 -0.1692  0.6816 -0.7068
   98MOL0     C13444   4.144   9.652   7.518  0.2452 -1.0447  0.1824
   98MOL0     O13445   4.196   9.603   7.399 -0.7634 -0.1183 -0.3708
   98MOL0     C13446   4.329   9.651   7.374  0.6183 -0.5486  0.0143
   98MOL0     C13447   4.361   9.656   7.224  0.2264 -0.0836  0.3144
   98MOL0     C13448   4.504   9.703   7.184 -0.3861  0.7018  0.2233
   98MOL0     C13449   4.621   9.676   7.280  0.0415 -0.2165 -0.7597
   98MOL0     C13450   4.641   9.535   7.274 -1.1838  1.0195 -0.8591
   98MOL0     C13451   4.651   9.409   7.277 -0.6403  0.2444 -0.0812
   98MOL0     C13452   4.012   9.691   7.532 -0.4717 -0.4501  0.1666
   98MOL0     C13453   3.950   9.716   7.649 -1.5629  0.3534 -0.9529
   98MOL0     C13454   3.813   9.758   7.639 -0.6073  0.0751 -0.1647
   98MOL0     H13455   3.850   9.974   8.026 -0.3765 -3.2952 -2.2312
   98MOL0     H13456   3.740  10.024   8.265  2.0066  1.8098 -2.9050
   98MOL0     H13457   3.504   9.711   8.451  1.0460 -0.8763 -2.0422
   98MOL0     H13458   3.380   9.793   8.362  1.0521  0.5362 -1.6409
   98MOL0     H13459   3.331   9.831   8.604  0.8253  0.8964  1.6400
   98MOL0     H13460   3.490   9.897   8.624 -0.4953 -1.5436 -0.1360
   98MOL0     H13461   3.404  10.117   8.553 -1.6926 -0.0835 -0.0675
   98MOL0     H13462   3.326  10.039   8.417 -0.1560 -1.0764  0.0982
   98MOL0     H13463   3.163  10.149   8.563 -0.8695 -1.2603 -0.8777
   98MOL0     H13464   3.133   9.977   8.555  1.7492 -0.9304 -0.5813
   98MOL0     H13465   3.246   9.938   8.778 -1.3992  0.3680  3.8674
   98MOL0     H13466   3.103  10.042   8.779 -0.2527 -0.2302 -2.0401
   98MOL0     H13467   3.404  10.125   8.802  0.3395 -1.3542  2.4852
   98MOL0     H13468   3.275  10.244   8.760 -0.4475 -1.5982 -3.3682
   98MOL0     H13469   3.234  10.053   8.995  0.7923  0.0003  1.4906
   98MOL0     H13470   3.194  10.227   8.973 -1.3622  0.8469 -5.2484
   98MOL0     H13471   3.443  10.266   9.016  2.2188 -2.2860 -0.5792
   98MOL0     H13472   3.341  10.210   9.148  2.1162 -0.5921  1.4019
   98MOL0     H13473   3.333   9.975   9.220  0.6320  3.0763 -0.3837
   98MOL0     H13474   3.507   9.760   9.323  0.4907 -1.6066 -0.6493
   98MOL0     H13475   3.619   9.688   9.215 -0.7186 -2.1718  0.5297
   98MOL0     H13476   3.333   9.674   9.174  0.4778  1.3753 -0.6389
   98MOL0     H13477   3.433   9.619   9.047 -0.1727 -1.9052 -0.8248
   98MOL0     H13478   3.564   9.478   9.211 -0.0310  1.3400 -0.0289
   98MOL0     H13479   3.422   9.488   9.329 -0.8449  0.1315 -0.6500
   98MOL0     H13480   3.275   9.406   9.199 -0.3889 -0.9429 -2.0169
   98MOL0     H13481   3.379   9.372   9.059  0.8211 -0.9157 -0.1374
   98MOL0     H13482   3.403   9.175   8.969 -1.7093 -1.2658 -2.0958
   98MOL0     H13483   3.337   9.037   8.789 -0.0214 -1.0476 -1.2546
   98MOL0     H13484   3.209   8.944   8.826  0.9459 -0.5595 -0.2299
   98MOL0     H13485   3.375   8.869   8.811 -0.2763 -0.0869  0.2397
   98MOL0     H13486   3.059   8.571   9.285  0.6218  0.1389 -0.4232
   98MOL0     H13487   2.901   8.371   9.255  1.0930  0.2925  1.6189
   98MOL0     H13488   3.112   8.070   9.002 -1.8253  2.8193 -0.8961
   98MOL0     H13489   3.063   8.035   9.168  0.9256 -2.8086 -0.7674
   98MOL0     H13490   2.857   8.004   8.961  0.7605  3.0586  0.5107
   98MOL0     H13491   2.988   7.888   8.959 -0.5552  1.3584 -0.7958
   98MOL0     H13492   2.814   7.932   9.208 -3.2902 -1.4025 -1.0108
   98MOL0     H13493   2.938   7.818   9.202  2.3782 -1.5547 -2.2187
   98MOL0     H13494   2.808   7.697   9.011 -1.2940  0.9801 -2.4954
   98MOL0     H13495   2.727   7.834   8.983  1.2486 -0.9115 -1.2036
   98MOL0     H13496   2.635   7.623   9.140 -0.5928  0.1341 -2.4684
   98MOL0     H13497   2.698   7.709   9.276 -2.2289 -0.8575 -0.0272
   98MOL0     H13498   2.502   7.807   9.080 -2.4579 -1.3965  0.7681
   98MOL0     H13499   2.596   7.925   9.173 -1.4979  0.1468  1.2296
   98MOL0     H13500   2.422   7.698   9.296  2.1823 -1.1959 -0.3288
   98MOL0     H13501   2.347   7.849   9.262 -0.5436 -2.4810 -1.6410
   98MOL0     H13502   2.413   7.918   9.475 -0.6719  0.9420 -2.0901
   98MOL0     H13503   2.570   7.941   9.392 -1.7738  2.3108 -1.9255
   98MOL0     H13504   3.157   8.248   8.922  0.9717  1.0474 -0.1501
   98MOL0     H13505   3.313   8.425   8.988  1.2228  0.1191  2.2755
   98MOL0     H13506   3.250   8.835   9.294  1.0442  0.1568  1.6037
   98MOL0     H13507   3.336   9.051   9.366 -2.3964  3.3226 -0.1067
   98MOL0     H13508   3.528   9.664   8.220  3.7470 -2.4327  1.7122
   98MOL0     H13509   3.635   9.603   8.026  3.4715 -1.4546 -0.7128
   98MOL0     H13510   4.223   9.684   7.844  0.5296  1.2250 -0.8808
   98MOL0     H13511   4.325   9.642   7.628 -0.3243  0.1982 -1.4857
   98MOL0     H13512   4.343   9.749   7.420 -2.3667 -0.5835  1.2012
   98MOL0     H13513   4.387   9.571   7.421 -2.0780 -2.0668  1.0066
   98MOL0     H13514   4.285   9.722   7.182 -1.9226 -1.4314  1.8231
   98MOL0     H13515   4.333   9.562   7.176  0.7130 -0.1290  0.1115
   98MOL0     H13516   4.529   9.656   7.088 -2.8681 -0.8831  0.2753
   98MOL0     H13517   4.516   9.811   7.169  3.1734  0.1308 -2.3476
   98MOL0     H13518   4.611   9.710   7.383  1.8195 -0.6167 -0.4218
   98MOL0     H13519   4.712   9.717   7.233 -0.4681 -1.1345 -2.6271
   98MOL0     H13520   4.670   9.304   7.278 -0.9577  0.1861  1.2288
   98MOL0     H13521   3.964   9.695   7.434  0.1401 -2.3044 -0.2568
   98MOL0     H13522   3.754   9.689   7.700  1.5191 -1.1108  0.6651
   98MOL0     H13523   3.793   9.863   7.663  2.1552  1.0620 -1.6404
   98MOL0     H13524   3.788   9.765   7.533  1.0277  2.8786 -0.4843
   99MOL0     O13525   7.527   3.151   9.071  0.3995 -0.1082 -0.0455
   99MOL0     C13526   7.454   3.081   9.138 -0.7529  0.4473 -0.6237
   99MOL0     O13527   7.418   2.950   9.109  1.0058  0.6487 -0.1433
   99MOL0     C13528   7.443   2.912   8.987 -0.3513  0.5717 -0.7001
   99MOL0     C13529   7.349   2.900   8.885 -0.0354  0.2708  0.0365
   99MOL0     C13530   7.392   2.840   8.764 -0.4601  0.3386  0.0912
   99MOL0     C13531   7.515   2.784   8.748 -0.5769 -0.4714  0.2840
   99MOL0     O13532   7.556   2.713   8.638 -0.2842 -0.4197  0.1332
   99MOL0     C13533   7.457   2.653   8.551 -0.2643  0.3462  0.7754
   99MOL0     C13534   7.531   2.586   8.431 -0.5102 -0.2612 -0.4189
   99MOL0     C13535   7.620   2.675   8.355  0.6114 -0.9451  0.2846
   99MOL0     C13536   7.720   2.615   8.260 -0.0082  0.0750  1.0289
   99MOL0     C13537   7.756   2.720   8.147 -0.1149 -0.2020 -0.8193
   99MOL0     C13538   7.850   2.660   8.049 -0.1934 -0.4355  0.6607
   99MOL0     C13539   7.915   2.761   7.950  1.0657 -0.5648 -0.4036
   99MOL0     C13540   8.005   2.703   7.842  0.7033 -0.6200 -1.2696
   99MOL0     N13541   8.038   2.815   7.756 -0.0215  0.1408  0.0964
   99MOL0     C13542   7.958   2.892   7.673  0.1219  0.5815  0.5933
   99MOL0     C13543   8.043   2.929   7.572  0.5479 -0.5670  0.2301
   99MOL0     C13544   8.008   3.013   7.444 -0.1067 -0.1325 -0.1605
   99MOL0     C13545   7.901   3.124   7.466  0.2531 -0.2292  0.6024
   99MOL0     C13546   7.900   3.210   7.344 -0.0359  0.6394 -0.0803
   99MOL0     C13547   7.788   3.307   7.353 -0.5548  0.3862 -0.1926
   99MOL0     O13548   7.661   3.245   7.336  0.0575 -0.4540  0.1764
   99MOL0     C13549   7.560   3.338   7.368  0.5238 -0.3189 -0.0460
   99MOL0     C13550   7.527   3.375   7.506 -0.3744  0.0666 -0.2865
   99MOL0     C13551   7.422   3.461   7.534 -0.1828  0.2171 -0.2921
   99MOL0     C13552   7.400   3.516   7.671  0.1649 -0.3068  0.3931
   99MOL0     C13553   7.340   3.504   7.429  0.3989  0.2675 -0.2263
   99MOL0     C13554   7.225   3.594   7.446  0.5557  0.4517 -0.4893
   99MOL0     O13555   7.124   3.559   7.360  0.4838  0.8990  0.5424
   99MOL0     C13556   7.043   3.648   7.295 -0.2749  0.2299  0.5467
   99MOL0     C13557   6.936   3.603   7.214  0.7182  0.6232 -0.8670
   99MOL0     C13558   6.849   3.690   7.142 -0.3849 -0.7152 -0.2185
   99MOL0     C13559   6.875   3.830   7.144  0.0879 -0.4431 -0.0094
   99MOL0     O13560   6.792   3.896   7.060  0.9067  0.0184  0.1923
   99MOL0     C13561   6.660   3.932   7.113 -0.8047  0.4037 -0.2618
   99MOL0     C13562   6.572   3.979   7.011 -0.1913 -0.2293  0.0389
   99MOL0     C13563   6.443   4.034   7.081  0.2039 -0.6872  0.0571
   99MOL0     C13564   6.465   4.186   7.101 -0.4058  0.4381 -0.3482
   99MOL0     C13565   6.343   4.255   7.161 -0.7575 -0.3862 -0.2973
   99MOL0     C13566   6.310   4.180   7.289  0.1345  0.9282 -0.7409
   99MOL0     C13567   6.188   4.238   7.365  1.0089 -0.9806  0.1649
   99MOL0     C13568   6.207   4.374   7.442  0.8171  0.2941  0.9497
   99MOL0    Cl13569   6.052   4.402   7.508 -0.1524 -0.7544 -0.0704
   99MOL0     C13570   6.971   3.871   7.229 -0.0414 -0.9836 -1.1383
   99MOL0     C13571   7.053   3.787   7.302 -0.0632 -0.8097  0.1646
   99MOL0     O13572   7.217   3.696   7.513 -0.4453  0.3664 -0.3330
   99MOL0     C13573   7.369   3.468   7.298 -0.0498  0.7795  0.3180
   99MOL0     C13574   7.476   3.392   7.271 -0.6873  0.4860 -0.2467
   99MOL0     N13575   8.168   2.889   7.605  0.1705  0.1603 -0.6103
   99MOL0     N13576   8.164   2.818   7.714 -0.2106 -0.2090 -0.3462
   99MOL0     C13577   7.608   2.817   8.844  0.3232 -0.5105  0.4192
   99MOL0     C13578   7.572   2.872   8.962  0.1496  0.9267 -0.1094
   99MOL0     C13579   7.396   3.148   9.251  1.2274  0.8459 -0.4237
   99MOL0     C13580   7.274   3.092   9.292  0.3131 -0.3007 -0.6785
   99MOL0     C13581   7.214   3.113   9.416  0.6209  0.1799 -0.1262
   99MOL0     C13582   7.292   3.182   9.509 -0.7514 -0.5689 -0.3922
   99MOL0     O13583   7.244   3.213   9.635  0.4565 -0.2037  0.5921
   99MOL0     C13584   7.124   3.166   9.697  0.7842  0.0757  0.7626
   99MOL0     C13585   7.009   3.262   9.680 -0.0691 -0.2741  0.3205
   99MOL0     C13586   6.897   3.244   9.790  0.1986 -0.6297 -0.0561
   99MOL0     C13587   6.765   3.334   9.795  0.0325  0.0560  0.4921
   99MOL0     C13588   6.703   3.343   9.663 -0.5794  0.3787 -1.3142
   99MOL0     C13589   6.662   3.358   9.550 -0.2009  0.7679  0.1727
   99MOL0     C13590   7.413   3.243   9.470  0.0270 -0.1193  0.0596
   99MOL0     C13591   7.464   3.234   9.344  0.5140 -0.4987  0.0031
   99MOL0     C13592   7.592   3.294   9.313 -1.1830 -0.2393  0.8751
   99MOL0     H13593   7.254   2.953   8.893  0.9476  2.1405 -0.2382
   99MOL0     H13594   7.317   2.834   8.687 -2.0230 -0.3179  1.5909
   99MOL0     H13595   7.386   2.730   8.521 -0.7049  0.9401  3.1025
   99MOL0     H13596   7.412   2.574   8.612 -1.9420  1.2134  0.7071
   99MOL0     H13597   7.584   2.502   8.478  1.3046  0.6898 -0.6806
   99MOL0     H13598   7.456   2.544   8.364  0.7829  0.7920 -2.6479
   99MOL0     H13599   7.549   2.731   8.292  2.1373 -2.1711 -2.7333
   99MOL0     H13600   7.672   2.750   8.415  0.8272  1.5513 -2.7513
   99MOL0     H13601   7.813   2.579   8.304  0.5298 -0.4988 -0.5231
   99MOL0     H13602   7.674   2.528   8.212  0.8763  0.2904 -0.2393
   99MOL0     H13603   7.796   2.816   8.181 -2.2666  0.9094 -1.2313
   99MOL0     H13604   7.667   2.759   8.096 -0.4072  2.5201  1.5157
   99MOL0     H13605   7.935   2.618   8.103 -0.4932 -3.6129 -1.0546
   99MOL0     H13606   7.804   2.584   7.985  2.3190 -0.1286 -1.7350
   99MOL0     H13607   7.976   2.831   8.008  0.8223  1.3214 -2.2612
   99MOL0     H13608   7.835   2.822   7.907  1.1314  1.6382  2.3189
   99MOL0     H13609   8.084   2.661   7.905  0.0282 -0.9742 -0.6449
   99MOL0     H13610   7.955   2.626   7.784  2.5322 -1.2086 -2.1461
   99MOL0     H13611   7.851   2.907   7.683  0.0365 -0.5865  1.6277
   99MOL0     H13612   7.974   2.945   7.365 -1.0615  1.7423 -1.4306
   99MOL0     H13613   8.104   3.054   7.410 -0.8706  2.3718  0.4846
   99MOL0     H13614   7.807   3.073   7.491  2.7893 -3.3708  5.1125
   99MOL0     H13615   7.934   3.179   7.555  1.6542 -0.3777  0.1968
   99MOL0     H13616   7.995   3.257   7.319  0.2697 -0.6829 -1.5252
   99MOL0     H13617   7.889   3.144   7.258 -0.0635 -0.0789  0.4641
   99MOL0     H13618   7.810   3.344   7.453  3.8312  0.1357 -0.8630
   99MOL0     H13619   7.787   3.391   7.283 -1.6396 -0.4688 -1.2468
   99MOL0     H13620   7.593   3.331   7.580 -0.7328  1.5340  0.9542
   99MOL0     H13621   7.444   3.460   7.754  0.4390  0.2545  0.6282
   99MOL0     H13622   7.293   3.512   7.694  0.0948 -0.0500  0.1110
   99MOL0     H13623   7.441   3.617   7.677  0.2497 -0.0584 -2.6498
   99MOL0     H13624   6.927   3.500   7.183  0.2196  0.5554 -0.5121
   99MOL0     H13625   6.764   3.645   7.092 -3.1613 -0.7704  4.1144
   99MOL0     H13626   6.622   3.849   7.174  0.3462  1.0967  1.4953
   99MOL0     H13627   6.674   4.010   7.189 -0.5738 -0.0391  0.1576
   99MOL0     H13628   6.614   4.059   6.950 -3.2013  0.2105 -1.6643
   99MOL0     H13629   6.546   3.898   6.941  1.1146  2.1976 -3.5576
   99MOL0     H13630   6.430   3.971   7.170 -1.4819  0.1937  0.4585
   99MOL0     H13631   6.353   4.010   7.023  1.7276 -0.0524 -2.7873
   99MOL0     H13632   6.493   4.239   7.009  0.7605  3.3622  1.5431
   99MOL0     H13633   6.548   4.202   7.171 -0.8141  2.4172 -0.2412
   99MOL0     H13634   6.354   4.361   7.183 -3.7982  1.2168 -4.8947
   99MOL0     H13635   6.256   4.253   7.094 -0.9015 -0.9098 -0.1006
   99MOL0     H13636   6.391   4.165   7.360  0.7283  1.0870 -1.3776
   99MOL0     H13637   6.270   4.087   7.247 -1.0323  0.1763  1.8498
   99MOL0     H13638   6.159   4.157   7.432  0.6586  0.3868  1.7359
   99MOL0     H13639   6.117   4.256   7.284  5.0032  1.5177 -3.1789
   99MOL0     H13640   6.246   4.451   7.375  0.9534 -1.1835 -0.7472
   99MOL0     H13641   6.283   4.358   7.519  1.3565  2.0444  0.8194
   99MOL0     H13642   6.972   3.980   7.236  0.9791 -0.9532 -1.7310
   99MOL0     H13643   7.133   3.840   7.354  0.2642 -0.5771 -0.5731
   99MOL0     H13644   7.309   3.505   7.216 -0.2058 -0.1292  0.0135
   99MOL0     H13645   7.516   3.364   7.174  1.7580 -0.7470  1.0226
   99MOL0     H13646   7.711   2.784   8.844 -0.3000 -2.8173  3.1925
   99MOL0     H13647   7.642   2.870   9.045 -1.6279 -3.7722  1.5979
   99MOL0     H13648   7.218   3.041   9.214  1.4715  0.4986 -2.0830
   99MOL0     H13649   7.120   3.066   9.442  0.0150  2.7748  3.0533
   99MOL0     H13650   7.111   3.066   9.653  1.1876  1.7228 -3.4978
   99MOL0     H13651   7.126   3.159   9.806  0.9277  0.4222  0.7832
   99MOL0     H13652   6.962   3.242   9.583  1.4298  1.4203 -0.8167
   99MOL0     H13653   7.051   3.362   9.690 -1.3858  0.1603  2.1145
   99MOL0     H13654   6.875   3.137   9.802  4.8684 -1.6693  1.5684
   99MOL0     H13655   6.952   3.263   9.882  2.1626  0.5460 -1.3981
   99MOL0     H13656   6.781   3.433   9.837 -2.0254  0.5762  0.1834
   99MOL0     H13657   6.705   3.290   9.875  1.5352 -1.1318  1.0160
   99MOL0     H13658   6.626   3.367   9.450 -0.4631 -0.9389  0.0745
   99MOL0     H13659   7.454   3.306   9.548 -0.7862 -0.3007  0.6488
   99MOL0     H13660   7.648   3.350   9.388 -0.1332  0.9431 -0.7510
   99MOL0     H13661   7.659   3.212   9.285 -1.3080  0.9533 -3.6101
   99MOL0     H13662   7.589   3.367   9.231  0.4480  2.1486  2.8016
  100MOL0     O13663   3.776   1.302   3.981  0.2515  0.0279 -0.0797
  100MOL0     C13664   3.894   1.292   3.945  0.2186  0.0624  0.8843
  100MOL0     O13665   3.975   1.180   3.970 -0.0671 -0.3740  0.6807
  100MOL0     C13666   3.946   1.083   4.061 -0.1815 -0.8138 -0.2326
  100MOL0     C13667   3.899   1.118   4.192 -1.1057  0.0208 -0.7612
  100MOL0     C13668   3.848   1.020   4.281 -0.7116 -0.6652  0.3567
  100MOL0     C13669   3.842   0.888   4.249 -0.0607  0.1103  0.5739
  100MOL0     O13670   3.796   0.805   4.344  0.1914  0.0925 -0.1952
  100MOL0     C13671   3.715   0.692   4.311  0.3111 -0.2203  0.2455
  100MOL0     C13672   3.639   0.644   4.432  0.1450 -0.7331 -0.6256
  100MOL0     C13673   3.564   0.522   4.417  0.5538 -0.1769  0.2422
  100MOL0     C13674   3.499   0.445   4.539  0.3186  0.1784  0.0408
  100MOL0     C13675   3.410   0.326   4.497 -0.0689 -0.3234 -0.1148
  100MOL0     C13676   3.387   0.235   4.610  0.3645  0.2754  1.0136
  100MOL0     C13677   3.295   0.113   4.565 -0.7710 -0.6066 -0.1346
  100MOL0     C13678   3.244   0.032   4.684 -0.2886  0.1704 -0.2679
  100MOL0     N13679   3.327  -0.096   4.688  0.0163 -0.6453 -0.0568
  100MOL0     C13680   3.330  -0.200   4.606  0.2703  0.2631 -0.0276
  100MOL0     C13681   3.416  -0.295   4.659  0.1912 -0.1855  0.8033
  100MOL0     C13682   3.447  -0.433   4.599  0.1372  0.4765 -0.1079
  100MOL0     C13683   3.445  -0.450   4.445  0.6094  0.6194  0.0604
  100MOL0     C13684   3.505  -0.581   4.393  0.8222  0.8988 -0.3657
  100MOL0     C13685   3.654  -0.586   4.350 -0.4162 -0.0952  1.5367
  100MOL0     O13686   3.657  -0.528   4.218  0.8483 -0.2955  0.2185
  100MOL0     C13687   3.772  -0.507   4.149 -0.6240 -0.6096 -0.1719
  100MOL0     C13688   3.895  -0.508   4.211 -0.1275 -0.3069 -0.3586
  100MOL0     C13689   4.013  -0.517   4.135 -0.1746 -0.2277  0.0108
  100MOL0     C13690   4.142  -0.530   4.210 -0.6931 -0.0924 -0.0434
  100MOL0     C13691   4.012  -0.504   3.990  0.3947 -0.3677  0.2274
  100MOL0     C13692   4.128  -0.521   3.886 -0.6984 -0.1553 -0.5412
  100MOL0     O13693   4.138  -0.425   3.794 -0.6104  0.8226  0.4734
  100MOL0     C13694   4.230  -0.440   3.692 -0.2970  0.1538  0.4607
  100MOL0     C13695   4.367  -0.469   3.712  0.1352  1.0745  0.4419
  100MOL0     C13696   4.472  -0.466   3.611  0.2032 -0.2944  0.7388
  100MOL0     C13697   4.423  -0.445   3.476 -0.1955 -0.0490 -0.3545
  100MOL0     O13698   4.497  -0.435   3.367 -0.1897 -0.8440 -0.3828
  100MOL0     C13699   4.640  -0.435   3.372  0.7962 -1.0492  0.6880
  100MOL0     C13700   4.680  -0.415   3.228  0.1759 -0.0812  0.5126
  100MOL0     C13701   4.654  -0.546   3.142  0.1096  0.3183 -0.1469
  100MOL0     C13702   4.728  -0.669   3.205  0.0620  0.5033  0.1105
  100MOL0     C13703   4.702  -0.796   3.121 -0.4561  0.7443  0.0100
  100MOL0     C13704   4.825  -0.805   3.027  0.1068  0.1385 -0.4183
  100MOL0     C13705   4.795  -0.897   2.914 -0.2905  0.0457  0.7427
  100MOL0     C13706   4.740  -0.844   2.779  0.8286  1.6807 -0.5752
  100MOL0    Cl13707   4.871  -0.741   2.693  0.3491  0.0639  0.8533
  100MOL0     C13708   4.291  -0.418   3.456 -0.0394 -0.0518 -1.2351
  100MOL0     C13709   4.192  -0.413   3.563 -0.0093 -0.3647  1.3220
  100MOL0     O13710   4.193  -0.631   3.900 -0.6739 -0.2617  0.9410
  100MOL0     C13711   3.887  -0.465   3.931 -0.1355  0.3870 -0.9093
  100MOL0     C13712   3.771  -0.479   4.009  0.4586 -0.0103 -1.3226
  100MOL0     N13713   3.482  -0.237   4.765  0.1443 -1.1342 -0.3078
  100MOL0     N13714   3.426  -0.116   4.783 -0.8592 -0.3115  0.0131
  100MOL0     C13715   3.888   0.850   4.115  0.4114  0.6378 -0.6062
  100MOL0     C13716   3.928   0.951   4.024  0.7760 -0.1588 -0.1974
  100MOL0     C13717   3.941   1.401   3.852 -0.3179 -0.8415 -0.8184
  100MOL0     C13718   3.860   1.520   3.840  0.2725 -0.4532 -0.0150
  100MOL0     C13719   3.907   1.634   3.779 -0.9510 -0.6035  0.0469
  100MOL0     C13720   4.028   1.635   3.700  0.5846 -0.0698  0.1137
  100MOL0     O13721   4.080   1.749   3.637 -0.4923  0.7890 -0.6926
  100MOL0     C13722   3.983   1.849   3.598  0.3687 -0.8857  0.4336
  100MOL0     C13723   4.040   1.975   3.535  0.0236 -0.4070 -0.3728
  100MOL0     C13724   3.952   2.097   3.527  0.1524  0.3176  0.0016
  100MOL0     C13725   3.957   2.173   3.664  0.0490  0.4663  0.5285
  100MOL0     C13726   3.845   2.250   3.704 -0.7617 -0.5504  0.1732
  100MOL0     C13727   3.746   2.315   3.729  0.2738  0.7109 -1.2517
  100MOL0     C13728   4.097   1.519   3.693 -0.3851 -0.4338  0.4211
  100MOL0     C13729   4.059   1.397   3.776 -0.6178 -0.0675  0.6538
  100MOL0     C13730   4.159   1.282   3.772 -0.0518 -0.2923  0.2224
  100MOL0     H13731   3.894   1.222   4.222 -1.1308 -1.1174  4.0199
  100MOL0     H13732   3.820   1.059   4.379 -4.1054  4.1109 -2.1073
  100MOL0     H13733   3.789   0.620   4.273  0.7730  0.7471 -0.7759
  100MOL0     H13734   3.641   0.715   4.234 -0.5161  4.2143  2.0938
  100MOL0     H13735   3.712   0.630   4.513  1.3110  0.9740 -1.3333
  100MOL0     H13736   3.575   0.724   4.468  2.1735  0.1824  1.2016
  100MOL0     H13737   3.472   0.536   4.360 -0.0017  1.4249  1.4340
  100MOL0     H13738   3.629   0.449   4.368 -0.0823 -0.9566  0.5330
  100MOL0     H13739   3.581   0.422   4.609 -2.0240 -0.3477  2.7916
  100MOL0     H13740   3.428   0.513   4.587 -0.1437  2.6024 -3.6446
  100MOL0     H13741   3.452   0.267   4.415  1.3929 -1.8966  1.6658
  100MOL0     H13742   3.312   0.363   4.466 -0.4398  3.6024  4.6410
  100MOL0     H13743   3.484   0.207   4.652  0.1542 -0.5107  0.9735
  100MOL0     H13744   3.337   0.283   4.695 -0.3033 -0.7379  1.2150
  100MOL0     H13745   3.348   0.053   4.491 -1.1895 -0.1368 -0.8246
  100MOL0     H13746   3.216   0.164   4.508  0.2930  2.8877  1.2522
  100MOL0     H13747   3.263   0.082   4.779  3.3339  0.0969 -0.8024
  100MOL0     H13748   3.135   0.025   4.681 -0.4295 -0.4070  2.8389
  100MOL0     H13749   3.261  -0.220   4.525  1.6089 -0.3071 -1.0688
  100MOL0     H13750   3.368  -0.495   4.642  0.5919 -0.7547 -0.9996
  100MOL0     H13751   3.546  -0.452   4.642  0.2373  0.2204 -0.4508
  100MOL0     H13752   3.342  -0.441   4.410  0.8069  3.2795 -0.0360
  100MOL0     H13753   3.498  -0.364   4.404  0.1225 -0.0080 -1.9725
  100MOL0     H13754   3.493  -0.657   4.470 -1.0763  1.6144  0.1129
  100MOL0     H13755   3.441  -0.617   4.312 -1.1463  5.7273 -1.3223
  100MOL0     H13756   3.708  -0.530   4.427 -1.2342  0.9446  1.3780
  100MOL0     H13757   3.694  -0.688   4.346  1.5721  0.6520 -1.7644
  100MOL0     H13758   3.902  -0.509   4.320  1.0626 -1.0339 -0.4191
  100MOL0     H13759   4.181  -0.434   4.246  2.5110 -0.9752 -0.7816
  100MOL0     H13760   4.217  -0.587   4.154 -2.9691 -0.9040 -2.4786
  100MOL0     H13761   4.124  -0.594   4.296  2.1727 -1.1586 -0.1017
  100MOL0     H13762   4.415  -0.514   3.799  0.2393  0.4893  0.0950
  100MOL0     H13763   4.577  -0.492   3.625 -0.0989 -1.3221  1.1885
  100MOL0     H13764   4.669  -0.355   3.441  1.5724 -2.0691  1.5804
  100MOL0     H13765   4.686  -0.524   3.418 -2.5450 -3.4670 -0.2707
  100MOL0     H13766   4.615  -0.335   3.191 -0.7893 -1.6402 -1.3040
  100MOL0     H13767   4.784  -0.383   3.214 -0.8148  3.7122  0.4781
  100MOL0     H13768   4.700  -0.528   3.044 -1.6963  1.4676 -0.8279
  100MOL0     H13769   4.548  -0.570   3.144  0.4517 -1.3422 -0.7146
  100MOL0     H13770   4.685  -0.707   3.298  2.0093 -2.0932  0.0520
  100MOL0     H13771   4.835  -0.655   3.219  0.3365 -1.6175  0.3652
  100MOL0     H13772   4.691  -0.890   3.175 -1.4763  0.8206 -0.0458
  100MOL0     H13773   4.611  -0.773   3.064 -0.7774  1.7775  0.8937
  100MOL0     H13774   4.902  -0.844   3.095  2.0837  1.3815 -1.8159
  100MOL0     H13775   4.865  -0.709   2.995 -1.4360  0.5432 -1.2232
  100MOL0     H13776   4.735  -0.986   2.936  0.0501 -0.5046 -0.4821
  100MOL0     H13777   4.888  -0.933   2.869 -1.7176 -0.4059 -2.1204
  100MOL0     H13778   4.646  -0.790   2.795 -0.9044 -1.5306  0.9622
  100MOL0     H13779   4.720  -0.938   2.727 -4.0854  1.6160  0.9680
  100MOL0     H13780   4.253  -0.403   3.355 -0.6378 -2.3828 -1.4168
  100MOL0     H13781   4.090  -0.388   3.538  1.5897  2.3199 -4.4618
  100MOL0     H13782   3.889  -0.451   3.824  3.2958 -3.9472 -1.7086
  100MOL0     H13783   3.671  -0.474   3.967 -1.4595 -2.6149  2.3810
  100MOL0     H13784   3.875   0.746   4.087 -2.1175  0.0847  2.1189
  100MOL0     H13785   3.947   0.909   3.926  0.7753  1.2352 -0.8176
  100MOL0     H13786   3.767   1.544   3.890 -1.4529  0.2473 -3.3044
  100MOL0     H13787   3.844   1.723   3.783 -0.4648 -0.2868  1.0018
  100MOL0     H13788   3.904   1.813   3.533  0.3212  0.6872 -0.4266
  100MOL0     H13789   3.931   1.886   3.687 -1.6457 -2.4889 -0.0184
  100MOL0     H13790   4.067   1.940   3.435  0.4018  1.1584 -0.8386
  100MOL0     H13791   4.132   2.009   3.584  1.5166  0.3881 -3.4771
  100MOL0     H13792   3.994   2.159   3.448  0.6291 -0.2047 -0.1638
  100MOL0     H13793   3.854   2.061   3.495  1.0329 -1.7859 -0.5693
  100MOL0     H13794   4.047   2.234   3.667  0.2958  0.0796  1.0169
  100MOL0     H13795   3.964   2.098   3.744 -2.3757  1.9491  2.2813
  100MOL0     H13796   3.661   2.371   3.766 -0.1103 -0.8016  0.3080
  100MOL0     H13797   4.177   1.522   3.619 -1.6968 -0.7966 -1.0703
  100MOL0     H13798   4.250   1.307   3.716  0.0317 -1.8079 -0.3700
  100MOL0     H13799   4.197   1.245   3.868 -0.0862  1.2194  0.8360
  100MOL0     H13800   4.120   1.202   3.709 -1.8512 -1.0454  2.1737
  101MOL0     O13801  10.993   9.011  11.179 -1.0510 -0.2304  0.5170
  101MOL0     C13802  11.064   8.978  11.079 -0.9120 -0.1794  0.1615
  101MOL0     O13803  11.107   9.056  10.982  1.1379  0.3821  0.4462
  101MOL0     C13804  11.053   9.185  10.963 -0.5174 -0.3747 -0.0909
  101MOL0     C13805  11.131   9.302  10.954  1.4288 -0.0983  0.1565
  101MOL0     C13806  11.067   9.419  10.959 -0.4545 -0.1450  0.4692
  101MOL0     C13807  10.930   9.442  10.961 -0.4502  0.4224 -0.3871
  101MOL0     O13808  10.892   9.570  10.986  0.0425 -0.2498 -0.1241
  101MOL0     C13809  10.773   9.574  11.064  0.2994  0.4948  0.3371
  101MOL0     C13810  10.782   9.708  11.127  0.9013  0.6754 -0.7349
  101MOL0     C13811  10.792   9.826  11.040  1.2556  0.5042 -0.6697
  101MOL0     C13812  10.656   9.878  10.983 -0.8465 -0.0017  0.0231
  101MOL0     C13813  10.680   9.926  10.836  0.8672  0.8817 -0.2744
  101MOL0     C13814  10.724  10.076  10.823 -0.0992  0.8126 -0.4706
  101MOL0     C13815  10.750  10.117  10.675  0.6107 -1.3179  0.0647
  101MOL0     C13816  10.618  10.173  10.618  0.5784  0.2459 -0.7077
  101MOL0     N13817  10.615  10.170  10.472 -0.6436 -1.1686  0.9957
  101MOL0     C13818  10.599  10.057  10.391  0.7504 -0.5671  0.2494
  101MOL0     C13819  10.641  10.083  10.268 -1.1628 -0.7497 -1.3588
  101MOL0     C13820  10.640  10.003  10.137  0.5061 -0.3677 -0.0103
  101MOL0     C13821  10.692   9.860  10.148  0.7090 -0.0021  0.7685
  101MOL0     C13822  10.758   9.825  10.008 -0.1972 -0.7353  0.5313
  101MOL0     C13823  10.761   9.683   9.967 -0.2744 -0.1618 -0.1737
  101MOL0     O13824  10.817   9.602  10.074 -0.9254  0.1272  0.9715
  101MOL0     C13825  10.875   9.482  10.030  0.5198 -0.2410 -1.0996
  101MOL0     C13826  10.863   9.415   9.904 -0.4144 -0.2302 -0.2733
  101MOL0     C13827  10.932   9.297   9.875  0.7169  0.3253 -0.8609
  101MOL0     C13828  10.927   9.265   9.720 -0.3442 -0.0493  0.3180
  101MOL0     C13829  10.996   9.225   9.979  0.4938  0.7374  1.2754
  101MOL0     C13830  11.071   9.106   9.949  0.2690  0.7420  0.7553
  101MOL0     O13831  11.104   9.084   9.818 -0.1891  0.2094 -0.2175
  101MOL0     C13832  11.189   8.978   9.779 -0.2899  0.9912  0.0429
  101MOL0     C13833  11.166   8.851   9.828 -0.2281  0.1435  0.3224
  101MOL0     C13834  11.250   8.748   9.779 -0.1397  0.7213 -0.1775
  101MOL0     C13835  11.364   8.775   9.705  1.1102 -0.4589 -0.2907
  101MOL0     O13836  11.465   8.683   9.668 -0.1891 -0.4347  0.4487
  101MOL0     C13837  11.438   8.546   9.631 -0.0339 -0.0848 -1.2484
  101MOL0     C13838  11.554   8.489   9.564  0.2304  1.0927 -0.1482
  101MOL0     C13839  11.628   8.379   9.655 -0.7006 -0.4568  0.5662
  101MOL0     C13840  11.745   8.334   9.563  0.0326  1.2699  0.7291
  101MOL0     C13841  11.801   8.201   9.621  0.0624  0.1294 -0.6506
  101MOL0     C13842  11.912   8.123   9.547 -0.7118 -0.0213 -0.1018
  101MOL0     C13843  12.022   8.218   9.494 -0.2569 -0.8210 -0.3651
  101MOL0     C13844  12.118   8.132   9.419 -0.1407  0.8816  0.0470
  101MOL0    Cl13845  12.272   8.217   9.375 -0.6222  0.5019 -0.3708
  101MOL0     C13846  11.381   8.900   9.659 -0.2217 -0.4055  0.0983
  101MOL0     C13847  11.293   9.008   9.692  0.6753  0.6876  0.0198
  101MOL0     O13848  11.104   9.039  10.042  0.1141 -0.6048 -0.7467
  101MOL0     C13849  11.012   9.290  10.098 -0.1748 -0.3705 -0.1208
  101MOL0     C13850  10.952   9.417  10.117 -0.3552 -0.0566 -0.4839
  101MOL0     N13851  10.681  10.217  10.282  0.0150 -0.6506 -0.4933
  101MOL0     N13852  10.661  10.264  10.392 -0.2173 -0.4424  0.3273
  101MOL0     C13853  10.849   9.325  10.958 -0.7972  0.1702  0.3022
  101MOL0     C13854  10.910   9.205  10.972  0.2343  0.4157  0.1705
  101MOL0     C13855  11.104   8.838  11.051  0.5161  0.3678 -0.0442
  101MOL0     C13856  11.036   8.742  11.129  0.2355 -0.0316 -0.2557
  101MOL0     C13857  11.075   8.605  11.125  0.1427 -0.4438 -0.1002
  101MOL0     C13858  11.164   8.564  11.030  0.6207  0.8701 -0.2757
  101MOL0     O13859  11.194   8.434  11.013 -0.1101 -0.1728  0.4236
  101MOL0     C13860  11.102   8.337  11.063  1.1182  0.9992 -0.0388
  101MOL0     C13861  11.138   8.197  11.007 -0.4787 -0.1880  0.4161
  101MOL0     C13862  11.012   8.131  10.933  0.1844 -0.0667 -0.0562
  101MOL0     C13863  11.043   8.004  10.849  0.0989 -0.5286 -0.3203
  101MOL0     C13864  11.144   7.908  10.910  0.4030 -0.1614 -0.1427
  101MOL0     C13865  11.231   7.825  10.948 -0.1304  0.2081 -0.0117
  101MOL0     C13866  11.228   8.649  10.940  0.1182 -0.2344 -0.3331
  101MOL0     C13867  11.205   8.785  10.958  0.0106  0.0321 -0.2922
  101MOL0     C13868  11.287   8.875  10.870  0.3732  0.1794  0.3296
  101MOL0     H13869  11.239   9.295  10.949  1.3678 -0.8981 -0.2381
  101MOL0     H13870  11.121   9.513  10.961 -1.8014  0.8297 -2.9069
  101MOL0     H13871  10.761   9.493  11.137  1.3189  2.8476  3.3205
  101MOL0     H13872  10.687   9.576  10.996  0.7204 -0.6714 -0.2511
  101MOL0     H13873  10.694   9.725  11.190  1.9365  0.5032  0.8199
  101MOL0     H13874  10.870   9.694  11.191  0.8558 -2.3994 -1.1752
  101MOL0     H13875  10.826   9.911  11.100 -2.5011 -0.1955  2.9084
  101MOL0     H13876  10.854   9.802  10.954  0.5997 -1.8782 -0.5390
  101MOL0     H13877  10.580   9.800  10.983  0.8781 -1.9659 -3.5996
  101MOL0     H13878  10.622   9.968  11.036 -1.4056 -0.3266  0.2183
  101MOL0     H13879  10.584   9.920  10.784  1.0375 -0.3076 -0.4755
  101MOL0     H13880  10.753   9.862  10.786  1.5695 -0.4731  2.3115
  101MOL0     H13881  10.637  10.128  10.865 -0.4951 -0.5846  0.5089
  101MOL0     H13882  10.814  10.101  10.880  0.6887  1.0276 -1.7703
  101MOL0     H13883  10.807  10.040  10.622  4.2789 -0.8702  2.9073
  101MOL0     H13884  10.807  10.210  10.673 -2.6759  0.8699  1.0158
  101MOL0     H13885  10.532  10.118  10.657  0.4560  1.3135  0.6066
  101MOL0     H13886  10.617  10.273  10.662  3.5697  0.3987 -0.7877
  101MOL0     H13887  10.557   9.960  10.417 -0.2774 -0.0260  0.6644
  101MOL0     H13888  10.696  10.065  10.067 -0.9129 -0.7476 -1.5396
  101MOL0     H13889  10.536  10.007  10.102 -0.0612 -0.1787  1.6142
  101MOL0     H13890  10.755   9.845  10.235  0.4340  0.2203  1.0075
  101MOL0     H13891  10.612   9.787  10.161  0.9308 -0.2311  0.8387
  101MOL0     H13892  10.706   9.880   9.929 -1.2112 -1.1475  0.8995
  101MOL0     H13893  10.863   9.854  10.013 -0.5022  0.3613  0.8096
  101MOL0     H13894  10.655   9.661   9.951 -0.1897  0.7963 -2.4819
  101MOL0     H13895  10.811   9.669   9.871  0.1555  1.5195 -0.2271
  101MOL0     H13896  10.814   9.472   9.825 -0.9837 -1.9769 -1.2433
  101MOL0     H13897  11.023   9.281   9.671 -1.3203  0.1348 -1.5932
  101MOL0     H13898  10.853   9.331   9.674  1.4150  0.7902 -1.4009
  101MOL0     H13899  10.892   9.163   9.705  0.4857 -0.0033 -2.2520
  101MOL0     H13900  11.086   8.827   9.897 -0.9928 -2.5779 -1.3299
  101MOL0     H13901  11.228   8.648   9.816  0.7475  1.1337  1.6000
  101MOL0     H13902  11.419   8.487   9.720  0.7994 -4.8589 -3.9120
  101MOL0     H13903  11.351   8.542   9.565  1.6681  1.9070 -3.8570
  101MOL0     H13904  11.512   8.446   9.474 -2.7150  0.4581  1.4197
  101MOL0     H13905  11.633   8.561   9.540  1.7135 -0.4424 -0.1069
  101MOL0     H13906  11.573   8.292   9.693  2.3948 -1.9670  2.0060
  101MOL0     H13907  11.689   8.428   9.731  0.6549  0.3047 -0.9520
  101MOL0     H13908  11.822   8.412   9.562  0.8991  0.4476  0.7864
  101MOL0     H13909  11.712   8.310   9.461  0.7145  0.0661  0.7648
  101MOL0     H13910  11.830   8.214   9.725  2.5287 -1.5989 -1.0357
  101MOL0     H13911  11.705   8.148   9.626 -1.5377  2.9873  1.5493
  101MOL0     H13912  11.858   8.067   9.470 -0.2786  0.9042 -1.1039
  101MOL0     H13913  11.956   8.059   9.624  0.3892 -0.9809 -1.4863
  101MOL0     H13914  12.065   8.261   9.585 -4.1444  0.6452  0.9931
  101MOL0     H13915  11.979   8.294   9.429 -3.9247 -1.0944  1.4905
  101MOL0     H13916  12.072   8.099   9.326 -2.7422  1.8301  0.9211
  101MOL0     H13917  12.133   8.052   9.492 -2.8360 -0.6045 -0.8974
  101MOL0     H13918  11.457   8.919   9.584  0.5457  1.9874  1.3774
  101MOL0     H13919  11.304   9.102   9.639 -3.7566  1.4696  0.0409
  101MOL0     H13920  11.068   9.251  10.182  1.7622  2.2875 -0.0673
  101MOL0     H13921  10.966   9.475  10.208  1.3467 -0.1602 -0.6363
  101MOL0     H13922  10.741   9.322  10.968 -0.9284 -2.5716 -0.8340
  101MOL0     H13923  10.848   9.117  10.982 -2.2469  2.0739  0.2882
  101MOL0     H13924  10.964   8.778  11.202  2.5278 -0.1068  2.1751
  101MOL0     H13925  11.060   8.540  11.210  2.3578  2.0997  2.4782
  101MOL0     H13926  11.099   8.333  11.172 -0.3510  0.7905 -0.0762
  101MOL0     H13927  11.008   8.370  11.020  2.0180  1.4820 -1.7299
  101MOL0     H13928  11.182   8.140  11.088  0.1913  0.8235  0.7836
  101MOL0     H13929  11.215   8.210  10.930 -1.6169  1.5288 -0.5083
  101MOL0     H13930  10.941   8.096  11.009 -0.1776 -1.1418 -0.8715
  101MOL0     H13931  10.966   8.206  10.869 -0.6712 -1.9034 -1.6969
  101MOL0     H13932  11.093   8.032  10.756 -1.4076  2.2822 -0.3858
  101MOL0     H13933  10.945   7.959  10.834  0.0407 -0.3714 -0.4147
  101MOL0     H13934  11.313   7.764  10.980  1.7107  2.8270  0.6701
  101MOL0     H13935  11.306   8.608  10.877  1.7660  3.2808 -0.7924
  101MOL0     H13936  11.321   8.964  10.925  0.3270  0.4430 -0.0684
  101MOL0     H13937  11.377   8.826  10.832  0.0780  0.2468 -0.4684
  101MOL0     H13938  11.233   8.914  10.783  2.6232  1.2202 -0.7020
  102MOL0     O13939   9.690   1.994   9.905 -0.0006  0.6613 -0.4627
  102MOL0     C13940   9.637   2.096   9.859  0.0022  0.3002  0.5243
  102MOL0     O13941   9.575   2.196   9.924  0.6983 -0.0730  0.1323
  102MOL0     C13942   9.578   2.176  10.059 -0.0418  0.4697 -0.2656
  102MOL0     C13943   9.675   2.232  10.141 -0.2360  0.6361  0.5000
  102MOL0     C13944   9.671   2.211  10.275 -0.2431 -0.4458 -0.7608
  102MOL0     C13945   9.569   2.138  10.338 -0.6638 -0.6923 -0.1269
  102MOL0     O13946   9.569   2.138  10.478 -0.1921  0.5211  0.2213
  102MOL0     C13947   9.481   2.047  10.549  0.3422  0.3007 -0.0011
  102MOL0     C13948   9.578   1.940  10.615  0.2049 -0.2687  0.6386
  102MOL0     C13949   9.516   1.860  10.723  0.5163  0.3393 -0.8347
  102MOL0     C13950   9.596   1.727  10.725  1.4743 -0.4384  0.7624
  102MOL0     C13951   9.526   1.641  10.821 -0.1889 -1.1310 -0.4302
  102MOL0     C13952   9.611   1.520  10.866  0.5324  0.2449 -1.1336
  102MOL0     C13953   9.522   1.434  10.945  0.1896 -0.0711  0.3373
  102MOL0     C13954   9.547   1.446  11.096 -0.6076  0.0152  0.4293
  102MOL0     N13955   9.458   1.363  11.169  0.8321  0.0405 -0.3906
  102MOL0     C13956   9.319   1.362  11.162 -0.1757  0.0911  0.0282
  102MOL0     C13957   9.279   1.295  11.268 -0.1196  0.4043 -0.7316
  102MOL0     C13958   9.133   1.289  11.314 -0.0189 -0.1426 -0.6789
  102MOL0     C13959   9.079   1.147  11.347 -0.1337 -0.4915 -0.5913
  102MOL0     C13960   9.071   1.044  11.231  0.1648 -0.6410 -0.4324
  102MOL0     C13961   8.999   0.906  11.260 -0.3751 -0.8428 -0.5025
  102MOL0     O13962   8.869   0.925  11.322 -0.2535 -0.5337 -0.4460
  102MOL0     C13963   8.773   0.988  11.246 -0.1285  0.4306  0.4689
  102MOL0     C13964   8.747   0.976  11.107  0.0422  0.4182  0.2824
  102MOL0     C13965   8.637   1.048  11.045  0.2814 -0.5314 -0.0797
  102MOL0     C13966   8.628   1.026  10.890 -0.3990  0.7191 -0.1177
  102MOL0     C13967   8.548   1.123  11.130  1.0135 -0.6837 -0.5296
  102MOL0     C13968   8.429   1.189  11.081 -0.5807 -0.3116 -0.5929
  102MOL0     O13969   8.324   1.191  11.166 -0.0635 -0.0238  0.1605
  102MOL0     C13970   8.211   1.255  11.120 -0.4427  0.2823  0.9992
  102MOL0     C13971   8.095   1.173  11.112  0.9168  0.8754 -0.3859
  102MOL0     C13972   7.974   1.239  11.066 -0.7425  1.3471  0.2705
  102MOL0     C13973   7.978   1.373  11.020 -0.3872  0.6852  0.5639
  102MOL0     O13974   7.866   1.415  10.949 -0.1918  0.3261 -0.1360
  102MOL0     C13975   7.878   1.453  10.810  0.4217 -0.2005 -0.4289
  102MOL0     C13976   7.967   1.356  10.732 -0.2540  0.0240  0.4434
  102MOL0     C13977   7.915   1.217  10.700 -0.2809  0.0097  0.0567
  102MOL0     C13978   8.004   1.141  10.593 -0.1824 -0.6743  0.5164
  102MOL0     C13979   7.973   0.988  10.584  0.0841  0.0671  0.3557
  102MOL0     C13980   8.003   0.915  10.447  0.3331  0.0033 -0.0059
  102MOL0     C13981   8.161   0.899  10.437 -0.3635 -0.4120  0.3585
  102MOL0     C13982   8.231   0.923  10.303  0.9516  0.0582  0.3314
  102MOL0    Cl13983   8.176   0.787  10.191 -0.4387 -0.1204 -0.5564
  102MOL0     C13984   8.092   1.443  11.022  0.2375 -0.4914 -1.2241
  102MOL0     C13985   8.210   1.384  11.071 -0.5716 -0.0084  0.8482
  102MOL0     O13986   8.428   1.218  10.960 -0.0947  0.6218 -0.1102
  102MOL0     C13987   8.574   1.135  11.270  0.6772 -0.3409  1.1450
  102MOL0     C13988   8.689   1.074  11.321  0.8004 -0.8346  0.9957
  102MOL0     N13989   9.387   1.247  11.332 -0.4394 -0.8300 -0.4959
  102MOL0     N13990   9.493   1.277  11.264  0.1419  0.5125 -0.2151
  102MOL0     C13991   9.463   2.091  10.254 -0.5503 -0.0911  0.1234
  102MOL0     C13992   9.471   2.099  10.114  0.2718  0.0976 -0.4297
  102MOL0     C13993   9.643   2.099   9.706 -1.1021 -0.4945  0.7933
  102MOL0     C13994   9.760   2.041   9.649  0.3523 -0.2540  0.3946
  102MOL0     C13995   9.770   2.026   9.510 -1.2937 -0.0672  0.2445
  102MOL0     C13996   9.671   2.072   9.425  0.2766 -0.5140 -1.1009
  102MOL0     O13997   9.668   2.045   9.287  0.3755  0.1393 -0.2200
  102MOL0     C13998   9.770   1.999   9.206 -0.7384  0.1602 -0.2358
  102MOL0     C13999   9.753   1.855   9.184  0.5269 -0.1208  0.2085
  102MOL0     C14000   9.859   1.802   9.073 -0.0718  0.0174 -1.0577
  102MOL0     C14001   9.817   1.652   9.041 -0.2500  0.4193 -0.6577
  102MOL0     C14002   9.895   1.547   9.107  0.3729 -0.5283 -0.2198
  102MOL0     C14003   9.955   1.467   9.171 -0.7818  0.7699  0.1729
  102MOL0     C14004   9.556   2.128   9.478 -0.8786 -0.4061 -0.6458
  102MOL0     C14005   9.543   2.153   9.619  0.8032  0.7813 -0.6846
  102MOL0     C14006   9.416   2.213   9.673  0.7721  0.0396  0.2577
  102MOL0     H14007   9.757   2.288  10.098  0.2737 -0.3123  0.1857
  102MOL0     H14008   9.740   2.264  10.340 -3.5513  1.8061  1.1986
  102MOL0     H14009   9.403   2.004  10.486  3.2821 -1.7546 -2.5539
  102MOL0     H14010   9.426   2.111  10.619 -2.4580 -0.0504 -1.7619
  102MOL0     H14011   9.621   1.883  10.532 -0.3672 -0.5494  0.5298
  102MOL0     H14012   9.668   1.991  10.651 -0.1385  1.3600 -0.6936
  102MOL0     H14013   9.504   1.907  10.821  1.0372  0.3456 -0.7689
  102MOL0     H14014   9.416   1.844  10.681  0.1590  0.6373 -0.1156
  102MOL0     H14015   9.618   1.668  10.635  1.9367  0.6509  0.1469
  102MOL0     H14016   9.690   1.765  10.767  0.5835 -0.8058  3.2766
  102MOL0     H14017   9.437   1.609  10.765 -0.0186  0.8314 -1.9314
  102MOL0     H14018   9.510   1.699  10.913  3.3748  1.1556 -1.0786
  102MOL0     H14019   9.643   1.470  10.775  0.8440  0.7938 -1.3301
  102MOL0     H14020   9.691   1.551  10.935  0.3046 -0.2723 -0.6250
  102MOL0     H14021   9.520   1.328  10.919 -0.2290  0.0990 -0.3896
  102MOL0     H14022   9.423   1.477  10.925 -0.8906 -3.1761 -1.8746
  102MOL0     H14023   9.648   1.424  11.130 -1.4100 -1.2723  2.1536
  102MOL0     H14024   9.535   1.552  11.119  3.7338  0.7253  0.2904
  102MOL0     H14025   9.248   1.416  11.100 -0.8116 -1.7593 -0.9131
  102MOL0     H14026   9.073   1.321  11.228 -0.4022 -1.1801 -0.8119
  102MOL0     H14027   9.118   1.354  11.401 -0.2973  1.3793 -1.8120
  102MOL0     H14028   9.148   1.102  11.419 -0.2148  1.5845  0.8920
  102MOL0     H14029   8.980   1.171  11.388  0.6932  0.7249  0.8058
  102MOL0     H14030   9.033   1.085  11.137  2.7744  3.4449  0.0810
  102MOL0     H14031   9.177   1.034  11.203  0.1851  3.0637 -2.1755
  102MOL0     H14032   8.984   0.863  11.161  0.1481  3.5955 -2.7485
  102MOL0     H14033   9.052   0.833  11.321  1.7915  1.9270  1.1774
  102MOL0     H14034   8.815   0.916  11.048  0.8872 -2.9168  4.1987
  102MOL0     H14035   8.643   1.122  10.840  2.4667  1.6428  2.2406
  102MOL0     H14036   8.528   0.984  10.872  0.0207 -1.5257  2.2007
  102MOL0     H14037   8.700   0.951  10.858 -1.3055 -0.9149  1.5211
  102MOL0     H14038   8.095   1.066  11.131  0.4995  0.5716 -1.9811
  102MOL0     H14039   7.876   1.192  11.063  0.8978 -2.6594  2.1087
  102MOL0     H14040   7.782   1.457  10.756  1.0941 -0.1568 -1.6658
  102MOL0     H14041   7.922   1.553  10.799  0.8750  0.2541  3.8818
  102MOL0     H14042   7.991   1.403  10.636  0.5613 -0.8345  0.2104
  102MOL0     H14043   8.072   1.348  10.763  0.0697  1.2676 -0.2334
  102MOL0     H14044   7.809   1.217  10.670 -1.1940 -0.9148  2.9669
  102MOL0     H14045   7.903   1.157  10.791 -3.1972 -3.5871 -2.3881
  102MOL0     H14046   8.109   1.165  10.609 -0.0768  0.1991 -1.2695
  102MOL0     H14047   7.980   1.180  10.494 -0.3770  2.5850  1.7180
  102MOL0     H14048   8.042   0.937  10.652  3.7863  3.2652 -0.6337
  102MOL0     H14049   7.869   0.965  10.610 -1.0276  2.5439 -1.5141
  102MOL0     H14050   7.963   0.980  10.369  5.3251  4.1317  0.2644
  102MOL0     H14051   7.953   0.818  10.447 -1.9678  0.8641  5.0165
  102MOL0     H14052   8.178   0.797  10.472  0.3031 -0.1502  0.8285
  102MOL0     H14053   8.204   0.971  10.508 -1.2525 -0.4489  0.9487
  102MOL0     H14054   8.339   0.921  10.322  1.8999 -2.3515 -4.0829
  102MOL0     H14055   8.185   1.015  10.266 -0.3984 -1.2400 -1.3320
  102MOL0     H14056   8.088   1.546  10.988 -1.0239  0.0590  0.4410
  102MOL0     H14057   8.299   1.443  11.091 -0.3276 -0.9160  2.6075
  102MOL0     H14058   8.505   1.198  11.325  2.5703  2.5144  0.4771
  102MOL0     H14059   8.703   1.079  11.429  3.4487 -0.9334  0.7047
  102MOL0     H14060   9.374   2.040  10.290  0.1969 -3.4133 -2.2927
  102MOL0     H14061   9.394   2.054  10.051 -0.7335  2.1757 -0.7719
  102MOL0     H14062   9.833   1.996   9.716 -1.3938  0.2693  2.8043
  102MOL0     H14063   9.861   1.980   9.472  0.1462  1.7510  1.3537
  102MOL0     H14064   9.773   2.061   9.116  1.4455  1.7434  0.8333
  102MOL0     H14065   9.866   2.022   9.254 -0.4285  1.9800 -1.6102
  102MOL0     H14066   9.655   1.844   9.137  2.2166  2.2813 -4.4972
  102MOL0     H14067   9.772   1.794   9.273  2.2779  2.9822  2.1284
  102MOL0     H14068   9.877   1.862   8.983  1.7321  0.3273 -0.5341
  102MOL0     H14069   9.951   1.803   9.132 -0.7288 -1.6563  0.0718
  102MOL0     H14070   9.834   1.632   8.935  0.2251 -1.2125 -0.2939
  102MOL0     H14071   9.713   1.646   9.075  0.3185 -0.2978  1.0957
  102MOL0     H14072  10.002   1.400   9.240  1.3103 -0.9679 -2.7059
  102MOL0     H14073   9.485   2.167   9.406 -1.4253  0.8169  0.5172
  102MOL0     H14074   9.348   2.243   9.592 -4.4697 -1.3780  3.6242
  102MOL0     H14075   9.363   2.136   9.731  0.8673  0.7030  1.2557
  102MOL0     H14076   9.445   2.297   9.738 -2.3559  0.8002  0.8403
  103MOL0     O14077  10.986   4.582   2.449 -0.3766 -0.4872 -1.1433
  103MOL0     C14078  11.027   4.676   2.519  0.6059  0.2229  0.0626
  103MOL0     O14079  11.016   4.679   2.653  0.9578 -0.1613 -0.2629
  103MOL0     C14080  10.924   4.600   2.720  0.1146  1.2177  0.2691
  103MOL0     C14081  10.930   4.462   2.699  0.2343  0.5297 -0.4794
  103MOL0     C14082  10.827   4.381   2.747  0.6694  0.0779 -0.4435
  103MOL0     C14083  10.722   4.431   2.834 -0.0791 -0.0613 -0.6969
  103MOL0     O14084  10.621   4.359   2.900  0.0860 -0.5700  0.5803
  103MOL0     C14085  10.666   4.255   2.981 -0.5619  0.4217  0.2694
  103MOL0     C14086  10.593   4.235   3.112 -0.7840  1.1903 -0.2572
  103MOL0     C14087  10.624   4.324   3.231 -0.3930 -0.5936 -0.3351
  103MOL0     C14088  10.617   4.240   3.361  0.1080 -0.5281 -0.2877
  103MOL0     C14089  10.632   4.332   3.476 -0.1861 -0.1532 -0.5132
  103MOL0     C14090  10.611   4.263   3.604 -0.7070 -0.0687 -0.4992
  103MOL0     C14091  10.599   4.359   3.726  0.3664  0.7453  0.6008
  103MOL0     C14092  10.733   4.402   3.795 -0.4452  0.6323  0.2488
  103MOL0     N14093  10.821   4.286   3.808 -0.4223 -1.2599  0.2172
  103MOL0     C14094  10.835   4.213   3.926 -0.8216 -0.2682  0.5604
  103MOL0     C14095  10.949   4.143   3.909 -0.6292  0.5166  1.0756
  103MOL0     C14096  11.040   4.055   3.993 -0.5074 -0.3697 -0.1720
  103MOL0     C14097  11.134   4.163   4.058 -1.0499  0.8133  0.3722
  103MOL0     C14098  11.069   4.225   4.183 -0.3654 -0.3104 -0.6235
  103MOL0     C14099  11.107   4.370   4.197 -0.0446 -0.3211 -0.8546
  103MOL0     O14100  11.027   4.442   4.109 -0.6433 -0.5188  0.3104
  103MOL0     C14101  11.082   4.558   4.056  0.1063 -0.2185  0.3291
  103MOL0     C14102  11.020   4.614   3.943 -0.1972  0.1496 -0.0785
  103MOL0     C14103  11.066   4.732   3.881 -0.2479  0.5833  0.4407
  103MOL0     C14104  10.984   4.778   3.757 -0.3052 -0.3067 -0.2775
  103MOL0     C14105  11.179   4.797   3.939 -0.5927  0.6443  0.8683
  103MOL0     C14106  11.241   4.924   3.888  0.5171 -0.8009  0.5033
  103MOL0     O14107  11.350   4.977   3.952 -0.2892 -0.0742 -0.1208
  103MOL0     C14108  11.408   5.085   3.886 -1.0967 -0.0610  0.2081
  103MOL0     C14109  11.482   5.060   3.765  0.0339 -0.1311  0.0476
  103MOL0     C14110  11.561   5.163   3.708  0.1590  0.5387  1.4404
  103MOL0     C14111  11.561   5.291   3.761  0.4054  0.1642  0.4796
  103MOL0     O14112  11.636   5.392   3.706 -0.3308 -0.4872 -0.6226
  103MOL0     C14113  11.550   5.464   3.630  0.3955 -1.1869  0.6305
  103MOL0     C14114  11.610   5.603   3.589 -0.4130  0.5298  0.1735
  103MOL0     C14115  11.608   5.719   3.696  0.6094 -0.0100  0.3696
  103MOL0     C14116  11.498   5.823   3.670  1.7473 -0.8214 -0.9138
  103MOL0     C14117  11.462   5.908   3.788 -0.7477 -0.2559  1.0449
  103MOL0     C14118  11.550   6.039   3.753  0.1737 -1.6868  0.7289
  103MOL0     C14119  11.530   6.147   3.859 -0.0355 -0.4400  0.4576
  103MOL0     C14120  11.398   6.219   3.853 -0.3898  0.1189  0.1053
  103MOL0    Cl14121  11.372   6.276   3.686 -0.0316 -0.0505 -0.0825
  103MOL0     C14122  11.472   5.318   3.874  1.2323 -0.7476 -0.3689
  103MOL0     C14123  11.401   5.217   3.939  0.2299  0.0719  0.6784
  103MOL0     O14124  11.198   4.969   3.779  0.2742 -0.1266 -0.3924
  103MOL0     C14125  11.231   4.749   4.056  0.7182  0.2176  0.3654
  103MOL0     C14126  11.184   4.634   4.114  0.0297  0.5937 -0.1134
  103MOL0     N14127  11.002   4.173   3.781  0.1964  0.0353 -0.9449
  103MOL0     N14128  10.922   4.259   3.723 -0.6993 -0.0121 -0.2583
  103MOL0     C14129  10.729   4.576   2.868  0.7193 -0.7404 -0.3898
  103MOL0     C14130  10.823   4.659   2.798  0.3919 -0.7509 -0.3481
  103MOL0     C14131  11.070   4.802   2.448 -0.4559  0.1425 -0.3541
  103MOL0     C14132  11.155   4.879   2.523 -0.3786 -0.2673 -0.0341
  103MOL0     C14133  11.212   5.001   2.474  0.0734 -0.5534  0.0705
  103MOL0     C14134  11.160   5.047   2.355 -0.4429 -0.1497 -0.0129
  103MOL0     O14135  11.204   5.158   2.298  0.0784  0.5721  0.6382
  103MOL0     C14136  11.277   5.265   2.353  0.0875 -0.6718  0.8161
  103MOL0     C14137  11.429   5.235   2.361 -0.4020  0.0289 -0.2167
  103MOL0     C14138  11.501   5.289   2.236  0.1661 -0.7488 -0.7966
  103MOL0     C14139  11.654   5.247   2.257 -0.0455  0.9401 -1.6153
  103MOL0     C14140  11.718   5.308   2.149 -0.6242  0.1893  0.5658
  103MOL0     C14141  11.747   5.360   2.047 -0.1954  0.3396  0.4092
  103MOL0     C14142  11.083   4.962   2.280  0.9048 -0.3096 -0.3283
  103MOL0     C14143  11.024   4.842   2.320 -0.4655  0.3502  0.3970
  103MOL0     C14144  10.916   4.780   2.230  0.7243 -0.2343 -0.1561
  103MOL0     H14145  10.995   4.421   2.622 -0.8540 -1.1212 -0.5665
  103MOL0     H14146  10.821   4.273   2.732  0.4616  0.2415 -1.5912
  103MOL0     H14147  10.773   4.268   3.000 -0.4029 -1.7525  1.1440
  103MOL0     H14148  10.653   4.164   2.922 -0.6072  1.5098 -1.4470
  103MOL0     H14149  10.487   4.250   3.089 -1.8488 -0.9120  2.7233
  103MOL0     H14150  10.599   4.130   3.142 -2.4445  1.1458  0.0431
  103MOL0     H14151  10.723   4.363   3.205 -0.9591  1.5482  0.5114
  103MOL0     H14152  10.553   4.407   3.229 -0.8563 -0.9942 -1.2803
  103MOL0     H14153  10.515   4.202   3.367 -0.5556  0.6991 -2.5610
  103MOL0     H14154  10.695   4.164   3.356  0.1782 -0.5950  1.4103
  103MOL0     H14155  10.560   4.413   3.465 -2.1809 -1.6533  0.8453
  103MOL0     H14156  10.725   4.386   3.495 -1.0146  0.7856  1.0324
  103MOL0     H14157  10.519   4.208   3.582  1.2657 -3.0206 -2.1898
  103MOL0     H14158  10.696   4.194   3.614 -0.5876  0.4196  2.8387
  103MOL0     H14159  10.524   4.316   3.794 -0.3016 -1.3864 -1.3684
  103MOL0     H14160  10.551   4.453   3.695 -1.4878 -0.1844  0.5266
  103MOL0     H14161  10.772   4.475   3.724 -2.2548 -0.0593 -1.5402
  103MOL0     H14162  10.699   4.435   3.894  0.4299 -0.7460  1.0378
  103MOL0     H14163  10.772   4.221   4.015  0.1637  1.0880  1.1782
  103MOL0     H14164  11.095   3.986   3.929 -3.3089 -3.5308  0.5552
  103MOL0     H14165  10.979   3.995   4.061 -0.9665  0.2952  0.0132
  103MOL0     H14166  11.231   4.122   4.088  0.0105  0.2988 -3.1969
  103MOL0     H14167  11.140   4.244   3.985  1.9549 -0.2170 -0.6837
  103MOL0     H14168  10.962   4.203   4.187 -0.0460 -2.0033  3.7842
  103MOL0     H14169  11.116   4.166   4.263  1.6644  1.0916 -0.7286
  103MOL0     H14170  11.081   4.407   4.297 -3.8753  0.4496 -1.9557
  103MOL0     H14171  11.214   4.370   4.175 -0.3334  1.8146 -2.6152
  103MOL0     H14172  10.927   4.569   3.908 -1.4869  2.1948  0.5504
  103MOL0     H14173  10.917   4.861   3.778  1.5352  1.0868  0.4213
  103MOL0     H14174  10.931   4.683   3.746  0.8068 -1.3214  2.2911
  103MOL0     H14175  11.053   4.794   3.673  1.9136 -1.8096  1.1311
  103MOL0     H14176  11.491   4.960   3.724  0.7146  0.1757 -0.5621
  103MOL0     H14177  11.625   5.132   3.626 -0.8955  0.4875  0.6163
  103MOL0     H14178  11.511   5.399   3.552 -2.4758 -1.6033  2.2456
  103MOL0     H14179  11.462   5.499   3.685  1.2632  0.5727  0.9822
  103MOL0     H14180  11.707   5.587   3.541 -0.1134  2.8335 -0.0875
  103MOL0     H14181  11.545   5.632   3.505  0.6049 -1.6294 -1.4670
  103MOL0     H14182  11.703   5.772   3.695  2.1798 -2.3468  4.2090
  103MOL0     H14183  11.600   5.663   3.790  5.2720  0.5871  1.3530
  103MOL0     H14184  11.404   5.775   3.639 -0.8170  1.3489  2.7682
  103MOL0     H14185  11.523   5.882   3.581  0.5806 -1.2178 -1.5346
  103MOL0     H14186  11.356   5.935   3.786 -0.1488  2.4006  1.7591
  103MOL0     H14187  11.485   5.865   3.886  1.4191 -0.1624  0.6196
  103MOL0     H14188  11.531   6.071   3.651 -1.6644 -1.7901  1.0020
  103MOL0     H14189  11.656   6.013   3.762  1.2285  2.2764  1.4491
  103MOL0     H14190  11.607   6.224   3.855 -0.4633 -0.0240  0.1522
  103MOL0     H14191  11.529   6.107   3.961 -2.2677  1.0874  1.1099
  103MOL0     H14192  11.394   6.312   3.910  1.1715  0.8474 -0.9057
  103MOL0     H14193  11.320   6.154   3.894  0.3195 -1.0658 -0.3564
  103MOL0     H14194  11.473   5.417   3.917  3.5455 -0.7137 -0.3640
  103MOL0     H14195  11.344   5.235   4.030  0.6195  0.6381  0.8183
  103MOL0     H14196  11.326   4.786   4.094  0.6570  1.3606 -0.5370
  103MOL0     H14197  11.251   4.594   4.189  0.5495  1.8665  0.1210
  103MOL0     H14198  10.655   4.625   2.931 -0.6399 -1.3447 -1.4666
  103MOL0     H14199  10.819   4.767   2.811 -0.0853 -0.9481  1.4142
  103MOL0     H14200  11.182   4.846   2.623  0.5487 -1.3526 -0.6111
  103MOL0     H14201  11.286   5.047   2.539 -0.6120 -2.3885  2.2907
  103MOL0     H14202  11.264   5.353   2.289  1.6483 -0.9752  0.0423
  103MOL0     H14203  11.246   5.300   2.452  2.2799  0.1367  1.2687
  103MOL0     H14204  11.451   5.128   2.368  0.0095  0.2287  2.6889
  103MOL0     H14205  11.468   5.282   2.452 -0.2802 -0.2502 -0.1241
  103MOL0     H14206  11.454   5.257   2.143 -1.2599 -0.5994 -0.1433
  103MOL0     H14207  11.483   5.397   2.231 -3.2780 -1.1879  0.0390
  103MOL0     H14208  11.675   5.140   2.266 -2.0990  0.6668  1.1811
  103MOL0     H14209  11.685   5.295   2.350 -1.0916 -0.7417 -0.3342
  103MOL0     H14210  11.757   5.422   1.960  2.5849  0.2924  0.6011
  103MOL0     H14211  11.060   4.998   2.180 -1.7367 -0.7256  0.0431
  103MOL0     H14212  10.829   4.745   2.286  0.2008 -4.0158 -2.9169
  103MOL0     H14213  10.882   4.846   2.150  2.4281  0.9854  0.0566
  103MOL0     H14214  10.947   4.681   2.194  0.2280 -1.8126  3.3601
  104MOL0     O14215   5.340   0.691   5.879 -0.1597 -0.4921 -0.1494
  104MOL0     C14216   5.295   0.630   5.973 -0.5239 -0.3517  0.2775
  104MOL0     O14217   5.327   0.661   6.105 -0.0058  0.1682  0.0141
  104MOL0     C14218   5.423   0.758   6.119  0.5177  0.0954  1.2487
  104MOL0     C14219   5.398   0.893   6.148  0.1833  0.8648 -0.7660
  104MOL0     C14220   5.493   0.996   6.140  0.3026  0.0342 -0.6488
  104MOL0     C14221   5.625   0.958   6.128 -0.2056  0.1384  0.5188
  104MOL0     O14222   5.721   1.052   6.146  0.1119 -0.2333  0.2833
  104MOL0     C14223   5.835   1.052   6.063  0.3196  1.2111  0.5488
  104MOL0     C14224   5.791   1.149   5.958  0.9044 -0.0571  0.3041
  104MOL0     C14225   5.770   1.291   6.003  0.0433 -0.7341  0.0525
  104MOL0     C14226   5.729   1.375   5.880  0.9945  0.5095 -0.3464
  104MOL0     C14227   5.730   1.517   5.936  0.0612  0.6652  0.2187
  104MOL0     C14228   5.677   1.610   5.825  0.1644  0.0191  0.0060
  104MOL0     C14229   5.776   1.634   5.714 -0.4151  0.9661  0.4937
  104MOL0     C14230   5.739   1.745   5.616  0.9998  0.8532  0.2317
  104MOL0     N14231   5.736   1.870   5.678 -0.2649  0.1535 -0.7063
  104MOL0     C14232   5.662   1.974   5.639  0.5769  0.1662  0.2199
  104MOL0     C14233   5.699   2.077   5.716  0.6140 -1.0706  0.5344
  104MOL0     C14234   5.645   2.215   5.694 -0.5050 -0.2231 -0.8164
  104MOL0     C14235   5.709   2.286   5.567 -0.1674  0.1411 -0.3331
  104MOL0     C14236   5.605   2.343   5.461  0.1544  0.9649 -0.9188
  104MOL0     C14237   5.517   2.233   5.391  0.1007  0.1510 -0.3090
  104MOL0     O14238   5.414   2.161   5.469  0.0128  0.1863  0.1865
  104MOL0     C14239   5.321   2.086   5.408  0.1905  0.0123  0.1637
  104MOL0     C14240   5.328   2.059   5.270  0.5598  0.3265  1.0942
  104MOL0     C14241   5.252   1.966   5.201 -0.2686 -0.1452 -0.4243
  104MOL0     C14242   5.290   1.932   5.065 -0.6785 -0.0645 -0.0140
  104MOL0     C14243   5.147   1.906   5.269  0.7315  0.4025  0.9299
  104MOL0     C14244   5.053   1.816   5.196 -0.3202 -0.7914 -0.5372
  104MOL0     O14245   4.946   1.781   5.276 -0.1729 -0.9397  0.4168
  104MOL0     C14246   4.869   1.677   5.231  0.4469 -0.0070  0.3802
  104MOL0     C14247   4.921   1.551   5.255  0.4075  0.3737 -0.0370
  104MOL0     C14248   4.821   1.450   5.229 -0.0059  0.5888 -0.5892
  104MOL0     C14249   4.689   1.462   5.179  0.5072  0.5277 -0.4854
  104MOL0     O14250   4.593   1.367   5.156 -0.8671 -0.7552 -0.4752
  104MOL0     C14251   4.605   1.234   5.202  0.6499  0.6400 -0.2726
  104MOL0     C14252   4.479   1.178   5.160  0.1098 -0.0720 -0.2425
  104MOL0     C14253   4.443   1.198   5.011  0.2594  0.7372 -0.5683
  104MOL0     C14254   4.347   1.095   4.957  1.0499 -0.0144  0.7541
  104MOL0     C14255   4.276   1.138   4.823  0.1724  0.0258  0.0317
  104MOL0     C14256   4.120   1.110   4.829  0.3513 -0.5820 -0.2252
  104MOL0     C14257   4.057   1.121   4.689 -0.5442  0.0734 -0.7287
  104MOL0     C14258   3.941   1.223   4.694 -0.3358 -0.7760 -0.2862
  104MOL0    Cl14259   3.992   1.370   4.744 -0.0054  0.1507  0.4540
  104MOL0     C14260   4.650   1.596   5.164  0.2368 -1.0188 -0.2044
  104MOL0     C14261   4.734   1.697   5.188  0.1729  0.0720 -0.4119
  104MOL0     O14262   5.069   1.775   5.080 -0.3699 -0.3986 -0.3378
  104MOL0     C14263   5.120   1.942   5.401 -0.2221 -0.6087 -0.2548
  104MOL0     C14264   5.214   2.024   5.471 -0.1578 -0.3524  0.4736
  104MOL0     N14265   5.777   2.024   5.818  0.5386  0.4593  0.1494
  104MOL0     N14266   5.810   1.909   5.786  0.0478  0.0056 -0.4448
  104MOL0     C14267   5.653   0.818   6.112 -1.3972 -1.0446  0.2524
  104MOL0     C14268   5.554   0.722   6.103 -0.5687 -0.3351 -0.7208
  104MOL0     C14269   5.188   0.544   5.960 -0.6286 -0.0677 -0.0121
  104MOL0     C14270   5.055   0.561   6.012 -0.4696 -0.4437 -0.3184
  104MOL0     C14271   4.951   0.476   5.984  0.4831  0.7270 -0.5230
  104MOL0     C14272   4.976   0.353   5.916  0.8741 -0.1500  0.0295
  104MOL0     O14273   4.869   0.275   5.868 -0.1990  0.0262  0.4476
  104MOL0     C14274   4.831   0.180   5.973  0.4007  0.4005 -0.4607
  104MOL0     C14275   4.675   0.168   5.970 -1.1127 -0.0150  0.3838
  104MOL0     C14276   4.626   0.104   5.844  1.0536  0.1371 -0.4876
  104MOL0     C14277   4.474   0.058   5.854 -0.3474  0.1859  0.0490
  104MOL0     C14278   4.459  -0.057   5.944 -0.0313 -0.2362 -0.8666
  104MOL0     C14279   4.470  -0.160   5.997 -0.8877 -0.0340 -0.6045
  104MOL0     C14280   5.106   0.332   5.874  0.2210  0.1251  0.7446
  104MOL0     C14281   5.211   0.420   5.894  0.2910  0.5896  0.0718
  104MOL0     C14282   5.336   0.393   5.818  0.4746 -0.0778 -0.8466
  104MOL0     H14283   5.293   0.920   6.158 -0.0059  0.2305 -0.9527
  104MOL0     H14284   5.469   1.100   6.158  0.5104  0.0284 -0.3278
  104MOL0     H14285   5.867   0.955   6.024 -1.5700 -0.6844  3.3427
  104MOL0     H14286   5.914   1.102   6.120  0.6651 -0.4674  1.5836
  104MOL0     H14287   5.859   1.145   5.873 -1.5222 -0.8582 -1.7293
  104MOL0     H14288   5.695   1.112   5.920  1.2602 -2.3687  1.4351
  104MOL0     H14289   5.696   1.289   6.083 -0.1370 -0.5902 -0.1116
  104MOL0     H14290   5.861   1.333   6.046  1.2707 -0.9394 -2.1718
  104MOL0     H14291   5.799   1.355   5.798 -0.4190 -0.9682 -1.2478
  104MOL0     H14292   5.627   1.347   5.854  1.9202 -2.8598 -0.8352
  104MOL0     H14293   5.828   1.557   5.963  0.9907 -0.7022 -0.9874
  104MOL0     H14294   5.653   1.518   6.014 -3.4885  1.6658 -3.0120
  104MOL0     H14295   5.586   1.565   5.785 -0.2218  0.6432  0.1595
  104MOL0     H14296   5.637   1.700   5.874 -1.5676 -1.0565  0.6421
  104MOL0     H14297   5.784   1.538   5.661 -0.2200  1.3885 -0.2549
  104MOL0     H14298   5.877   1.647   5.754 -0.1227 -0.1934  0.1722
  104MOL0     H14299   5.802   1.743   5.527 -2.9367 -0.5311 -2.8328
  104MOL0     H14300   5.638   1.732   5.576  0.9254  1.2849  0.2785
  104MOL0     H14301   5.595   1.984   5.554  2.0976 -1.0073 -1.1843
  104MOL0     H14302   5.668   2.289   5.772 -0.8291 -0.8403 -0.1169
  104MOL0     H14303   5.536   2.216   5.683 -0.8542  0.9253  1.9432
  104MOL0     H14304   5.761   2.376   5.602 -1.5860 -0.1279  2.8397
  104MOL0     H14305   5.788   2.217   5.537  1.2928  0.8914  1.5255
  104MOL0     H14306   5.537   2.405   5.519 -1.4087 -4.3120  3.8214
  104MOL0     H14307   5.652   2.412   5.390  0.7833 -0.0690 -1.5360
  104MOL0     H14308   5.452   2.299   5.334 -3.4776 -2.9566 -0.1987
  104MOL0     H14309   5.582   2.176   5.324  1.9105  0.5244  1.0395
  104MOL0     H14310   5.408   2.111   5.218  0.0494  0.5483  0.5330
  104MOL0     H14311   5.207   1.961   5.000  1.8462  2.2407 -2.5117
  104MOL0     H14312   5.314   1.827   5.045  1.0101  0.2575  0.1376
  104MOL0     H14313   5.377   1.991   5.033  1.6309 -3.3061 -0.2668
  104MOL0     H14314   5.019   1.552   5.301  0.9360  0.7730 -1.1277
  104MOL0     H14315   4.866   1.353   5.242  1.2532  1.3823  1.5493
  104MOL0     H14316   4.689   1.190   5.148  0.5361  1.1192 -0.8427
  104MOL0     H14317   4.613   1.232   5.311  1.0747 -0.1699 -0.3090
  104MOL0     H14318   4.486   1.074   5.191  0.9775 -0.8215 -2.7283
  104MOL0     H14319   4.393   1.219   5.213  0.6598  0.7182  0.0571
  104MOL0     H14320   4.534   1.218   4.953  0.7902 -1.0318 -0.3934
  104MOL0     H14321   4.390   1.293   5.004 -2.6638 -0.9448 -4.2886
  104MOL0     H14322   4.273   1.081   5.036  2.1743  2.0348  2.2605
  104MOL0     H14323   4.407   1.005   4.941  1.3148  0.5542 -2.0434
  104MOL0     H14324   4.290   1.245   4.804  1.0399  0.1041  0.9822
  104MOL0     H14325   4.321   1.083   4.740  2.5031 -1.2635  2.0194
  104MOL0     H14326   4.082   1.189   4.894  3.9222  2.5456 -1.5781
  104MOL0     H14327   4.099   1.012   4.872  1.3034 -1.2958 -1.3265
  104MOL0     H14328   4.017   1.025   4.657  3.7090 -0.6590 -5.0197
  104MOL0     H14329   4.125   1.155   4.610 -1.6823  2.9898 -0.5767
  104MOL0     H14330   3.873   1.196   4.776 -0.3473  3.1384  1.2209
  104MOL0     H14331   3.888   1.223   4.598  1.5735 -0.2695 -1.3778
  104MOL0     H14332   4.547   1.622   5.138  0.1972 -0.9930 -0.0208
  104MOL0     H14333   4.696   1.799   5.181 -0.5933 -0.0581  1.2540
  104MOL0     H14334   5.038   1.910   5.465 -2.1359 -0.2067 -2.3751
  104MOL0     H14335   5.197   2.044   5.576 -0.4440  0.1603  0.3292
  104MOL0     H14336   5.752   0.786   6.084 -2.8582 -2.7313 -3.6033
  104MOL0     H14337   5.568   0.615   6.092  1.6643 -0.2942  1.0548
  104MOL0     H14338   5.035   0.647   6.075 -2.7061  1.2219 -3.0807
  104MOL0     H14339   4.853   0.516   6.010  2.1537  3.2780  2.4620
  104MOL0     H14340   4.881   0.086   5.946  0.4997  0.7084 -1.4177
  104MOL0     H14341   4.857   0.207   6.076 -4.5207 -1.7530  1.6223
  104MOL0     H14342   4.641   0.271   5.982  1.6758  0.8785  1.4314
  104MOL0     H14343   4.642   0.116   6.060 -0.1862 -1.9187 -0.3025
  104MOL0     H14344   4.628   0.187   5.772 -1.8220 -1.7495 -2.9733
  104MOL0     H14345   4.687   0.020   5.809  0.7935 -0.5423  0.6585
  104MOL0     H14346   4.447   0.026   5.753  1.4982 -2.3197  0.2598
  104MOL0     H14347   4.417   0.141   5.896 -2.6872 -2.1887  1.9121
  104MOL0     H14348   4.500  -0.244   6.056  1.4000  0.5627 -0.7907
  104MOL0     H14349   5.137   0.246   5.816 -0.6344 -0.0476  0.5265
  104MOL0     H14350   5.365   0.288   5.804  2.9105  0.5859 -1.1292
  104MOL0     H14351   5.330   0.440   5.719  0.4754  0.2005 -0.7143
  104MOL0     H14352   5.422   0.428   5.875 -0.8829 -0.2085  1.3875
  105MOL0     O14353   4.952   1.359   2.880 -0.5446  0.6962  0.2152
  105MOL0     C14354   4.903   1.242   2.876 -0.1871  0.2930  0.0834
  105MOL0     O14355   4.783   1.207   2.933 -0.0307  0.3015  0.1252
  105MOL0     C14356   4.711   1.281   3.023  0.1088  0.7583 -0.5170
  105MOL0     C14357   4.703   1.248   3.159 -0.5394  0.2787 -0.0302
  105MOL0     C14358   4.633   1.318   3.261  0.7573 -0.3659  0.5388
  105MOL0     C14359   4.571   1.434   3.226 -0.2874  1.1300  0.6900
  105MOL0     O14360   4.503   1.509   3.317  0.3556  0.2929 -0.1170
  105MOL0     C14361   4.566   1.552   3.433  0.1965  0.1484  0.3932
  105MOL0     C14362   4.688   1.630   3.408  0.2312 -0.1453  0.3504
  105MOL0     C14363   4.673   1.768   3.350  0.0329  0.6836  0.7690
  105MOL0     C14364   4.810   1.822   3.302 -0.1430  0.1976  0.1673
  105MOL0     C14365   4.816   1.981   3.269  0.5783  0.0340 -0.6368
  105MOL0     C14366   4.727   2.011   3.141  0.7291  0.6634 -0.3659
  105MOL0     C14367   4.727   2.167   3.112  0.1743  0.3175  0.0804
  105MOL0     C14368   4.868   2.225   3.089 -0.5736 -0.8122  0.0248
  105MOL0     N14369   4.877   2.365   3.038 -0.1548 -0.3471 -0.1109
  105MOL0     C14370   4.910   2.395   2.908  0.5234 -0.1393 -0.2467
  105MOL0     C14371   4.915   2.528   2.900  0.0119 -0.3699  0.2962
  105MOL0     C14372   4.954   2.606   2.771 -0.2262 -0.7032  0.2722
  105MOL0     C14373   5.068   2.713   2.792  0.1887  0.6281  0.6574
  105MOL0     C14374   5.015   2.840   2.861  0.0504  0.1487  0.3722
  105MOL0     C14375   5.123   2.944   2.920 -0.1013  0.8109  0.5310
  105MOL0     O14376   5.119   3.057   2.833 -0.0781 -0.4540 -0.8205
  105MOL0     C14377   5.149   3.188   2.877 -0.0465  0.0917 -0.0069
  105MOL0     C14378   5.108   3.291   2.788 -0.0354 -0.2539  0.0968
  105MOL0     C14379   5.124   3.427   2.823  0.6007 -0.4415 -0.4078
  105MOL0     C14380   5.078   3.526   2.723 -0.5755  0.4585  1.0234
  105MOL0     C14381   5.179   3.463   2.947 -0.6517 -0.6145  0.0045
  105MOL0     C14382   5.188   3.611   3.006  0.4756  0.3972 -0.8453
  105MOL0     O14383   5.075   3.686   3.022  0.3466  0.4479  0.3696
  105MOL0     C14384   5.073   3.798   3.104  0.2926 -0.0800 -0.7309
  105MOL0     C14385   4.999   3.907   3.063 -0.2525  0.5565  0.2956
  105MOL0     C14386   4.999   4.033   3.130  0.3845 -0.8591  0.3246
  105MOL0     C14387   5.084   4.064   3.235  0.7894  0.1058 -0.1662
  105MOL0     O14388   5.079   4.174   3.311 -0.8411  1.2426 -0.0638
  105MOL0     C14389   4.965   4.261   3.296 -0.3479  0.7623 -0.1774
  105MOL0     C14390   4.993   4.393   3.377 -0.3087 -0.1243 -0.8512
  105MOL0     C14391   4.886   4.486   3.337 -0.0315 -0.3279 -0.2357
  105MOL0     C14392   4.926   4.629   3.291  0.9098 -0.1885  0.0441
  105MOL0     C14393   5.009   4.649   3.167  0.2919  0.4688  0.0513
  105MOL0     C14394   5.037   4.798   3.131 -0.0422 -1.2084  0.3220
  105MOL0     C14395   5.105   4.823   2.990  0.6248 -0.2031  0.2801
  105MOL0     C14396   5.259   4.816   3.001 -0.3182  0.0384  0.1386
  105MOL0    Cl14397   5.326   4.850   2.841 -0.4010 -0.2578  0.2827
  105MOL0     C14398   5.152   3.955   3.274 -0.0177  0.3773 -0.5530
  105MOL0     C14399   5.148   3.829   3.221 -0.8795  1.5425  0.5475
  105MOL0     O14400   5.299   3.657   3.024  0.7738 -0.2883  0.1205
  105MOL0     C14401   5.235   3.361   3.029 -0.1663  0.7990  0.3306
  105MOL0     C14402   5.220   3.227   2.997  0.0932  0.4213 -0.5835
  105MOL0     N14403   4.912   2.578   3.028 -0.8509 -1.1778  0.1543
  105MOL0     N14404   4.883   2.483   3.108  0.2235  0.9248 -0.4311
  105MOL0     C14405   4.576   1.475   3.087  1.3039  0.0704  0.5397
  105MOL0     C14406   4.648   1.405   2.992  0.7424 -0.3615  0.9501
  105MOL0     C14407   4.979   1.137   2.802  0.9281  0.2218 -0.7543
  105MOL0     C14408   4.943   1.002   2.825  0.6715 -2.0872 -0.2764
  105MOL0     C14409   5.009   0.893   2.759  0.6558  0.0966 -0.0016
  105MOL0     C14410   5.103   0.921   2.667  0.1332 -1.0406 -0.6545
  105MOL0     O14411   5.163   0.814   2.606  0.0382  0.3613  0.5141
  105MOL0     C14412   5.125   0.783   2.472 -0.1093 -0.5643 -0.5920
  105MOL0     C14413   5.236   0.730   2.381 -0.4169  0.6260  0.0976
  105MOL0     C14414   5.338   0.832   2.328  0.0589  0.3649 -0.5360
  105MOL0     C14415   5.473   0.760   2.297  0.0799 -0.0842 -0.0353
  105MOL0     C14416   5.554   0.766   2.423 -0.0770  0.9014 -0.9351
  105MOL0     C14417   5.610   0.753   2.530 -0.4805 -0.4310 -0.4138
  105MOL0     C14418   5.150   1.047   2.639 -0.2854  0.0962 -0.4104
  105MOL0     C14419   5.089   1.151   2.711 -0.0875 -0.5902  0.1396
  105MOL0     C14420   5.139   1.294   2.685 -1.1806  0.4686 -0.5769
  105MOL0     H14421   4.756   1.156   3.183 -0.9558  0.2365  0.7425
  105MOL0     H14422   4.617   1.286   3.363 -4.1815 -0.4857 -0.0022
  105MOL0     H14423   4.587   1.465   3.495  3.0998  0.8305  0.4916
  105MOL0     H14424   4.500   1.625   3.479  0.3029  1.2336 -1.1026
  105MOL0     H14425   4.730   1.648   3.507 -1.8053  1.9730  0.9314
  105MOL0     H14426   4.756   1.587   3.334 -2.3226  1.4258 -3.2112
  105MOL0     H14427   4.606   1.754   3.265  0.0714 -3.1187  1.1902
  105MOL0     H14428   4.627   1.834   3.425  0.9278 -0.4068  2.3441
  105MOL0     H14429   4.881   1.809   3.384 -3.5955 -0.4570  3.3460
  105MOL0     H14430   4.848   1.759   3.222  3.1726  1.9639  0.1552
  105MOL0     H14431   4.918   2.019   3.267  0.5920 -0.0327 -1.1468
  105MOL0     H14432   4.775   2.032   3.357 -1.5176 -2.7458  0.1434
  105MOL0     H14433   4.764   1.962   3.050  1.3139  2.6797 -1.2712
  105MOL0     H14434   4.627   1.969   3.157  0.9084 -0.6438 -2.3929
  105MOL0     H14435   4.694   2.209   3.208  0.3195 -0.2132  0.3692
  105MOL0     H14436   4.658   2.185   3.029 -0.0540  0.6005  0.3263
  105MOL0     H14437   4.914   2.225   3.188 -3.2081  1.8129  1.4223
  105MOL0     H14438   4.933   2.158   3.031 -3.5236 -2.3439 -1.7601
  105MOL0     H14439   4.924   2.328   2.824 -0.2953  1.5307 -1.7683
  105MOL0     H14440   4.864   2.646   2.724 -0.0132  0.0479  0.4924
  105MOL0     H14441   4.996   2.537   2.697  2.3867  2.8024 -1.8192
  105MOL0     H14442   5.147   2.667   2.853  1.9750 -1.6798 -3.0529
  105MOL0     H14443   5.115   2.740   2.697  1.2813 -1.2342  0.6268
  105MOL0     H14444   4.946   2.897   2.798 -0.9220 -0.2029  1.0816
  105MOL0     H14445   4.937   2.816   2.934 -2.3731 -2.0624 -2.6886
  105MOL0     H14446   5.095   2.952   3.025 -2.6278  0.3740 -0.0461
  105MOL0     H14447   5.225   2.906   2.908  0.2068  1.2261  1.7149
  105MOL0     H14448   5.048   3.264   2.701 -1.6395 -1.7993  1.6043
  105MOL0     H14449   4.970   3.535   2.708 -0.3986 -1.5562 -2.6457
  105MOL0     H14450   5.139   3.500   2.636  2.9057 -0.3766  3.4860
  105MOL0     H14451   5.107   3.630   2.741  0.2356  0.2801  0.7903
  105MOL0     H14452   4.944   3.905   2.970 -0.4313  2.7128  0.3064
  105MOL0     H14453   4.929   4.106   3.092 -0.7702 -1.9547  0.2632
  105MOL0     H14454   4.966   4.284   3.189  1.1712 -1.3493 -0.6699
  105MOL0     H14455   4.871   4.211   3.322 -0.7561  0.3218 -2.3284
  105MOL0     H14456   4.990   4.381   3.486  1.6674  0.5272 -0.6898
  105MOL0     H14457   5.090   4.428   3.340 -1.0450  0.3470 -2.4173
  105MOL0     H14458   4.825   4.497   3.427  1.5476  1.5973  0.6830
  105MOL0     H14459   4.829   4.449   3.252  1.7786 -1.2798 -1.1015
  105MOL0     H14460   4.982   4.674   3.374  2.2026 -0.3570 -0.7123
  105MOL0     H14461   4.830   4.680   3.279  1.0024  0.3432  1.4140
  105MOL0     H14462   5.099   4.588   3.182 -1.0764 -1.4634  0.8716
  105MOL0     H14463   4.956   4.596   3.086 -0.6433  2.4717 -0.7065
  105MOL0     H14464   5.093   4.841   3.215  0.2938  0.2976 -0.6273
  105MOL0     H14465   4.943   4.855   3.130  0.2817 -0.5799  1.8180
  105MOL0     H14466   5.072   4.920   2.952 -0.0833 -1.9061 -4.0496
  105MOL0     H14467   5.072   4.749   2.916 -2.2520  0.9194  0.3114
  105MOL0     H14468   5.283   4.710   3.009  1.7484  0.4380 -0.3345
  105MOL0     H14469   5.306   4.873   3.082  1.3274  0.6927 -1.2144
  105MOL0     H14470   5.219   3.983   3.354 -1.3205  0.0153  0.6932
  105MOL0     H14471   5.220   3.757   3.260  1.6183  1.9060 -2.9280
  105MOL0     H14472   5.292   3.390   3.117 -0.1109  1.2515  0.1493
  105MOL0     H14473   5.275   3.148   3.046  0.0537 -1.7148 -3.7030
  105MOL0     H14474   4.520   1.562   3.055  1.7322  0.9816  2.2057
  105MOL0     H14475   4.641   1.437   2.888  3.6493  3.9337  1.8159
  105MOL0     H14476   4.866   1.000   2.902 -0.9177  1.9362 -1.4928
  105MOL0     H14477   4.976   0.795   2.792 -1.5196  1.5910  2.6921
  105MOL0     H14478   5.051   0.703   2.474 -0.9012  0.1584  0.9315
  105MOL0     H14479   5.095   0.874   2.420 -4.4315  0.3627  2.9576
  105MOL0     H14480   5.184   0.683   2.297  0.8411 -0.5525 -0.0479
  105MOL0     H14481   5.291   0.647   2.425 -0.0342  0.0709 -1.3906
  105MOL0     H14482   5.301   0.874   2.234  0.5171  0.1070 -0.8389
  105MOL0     H14483   5.352   0.917   2.395  0.8311 -0.4761  0.4045
  105MOL0     H14484   5.513   0.808   2.207 -4.1508  1.7597 -1.1636
  105MOL0     H14485   5.453   0.658   2.262  1.4339  0.1283 -1.5398
  105MOL0     H14486   5.665   0.736   2.620  0.2403 -2.0743 -1.1194
  105MOL0     H14487   5.236   1.064   2.576  1.5498 -0.0884  1.9165
  105MOL0     H14488   5.211   1.297   2.603 -0.4360 -0.2051  0.0386
  105MOL0     H14489   5.056   1.364   2.669 -1.2031  0.6763  0.3706
  105MOL0     H14490   5.188   1.327   2.777  0.1249  1.0889 -1.4710
  106MOL0     O14491   8.766   8.349  10.984 -0.3887  1.4332 -0.8694
  106MOL0     C14492   8.812   8.424  10.897 -1.1773  1.5296  0.2426
  106MOL0     O14493   8.937   8.447  10.876 -0.0098 -0.5080 -0.6027
  106MOL0     C14494   9.022   8.391  10.976  0.5894 -1.0600 -0.6147
  106MOL0     C14495   9.107   8.286  10.943 -0.4353 -0.5896 -0.6306
  106MOL0     C14496   9.176   8.226  11.044 -0.3735 -0.1384 -0.0999
  106MOL0     C14497   9.174   8.271  11.179  0.5224  0.3453 -0.2312
  106MOL0     O14498   9.263   8.228  11.282  0.6959  0.4163 -0.0240
  106MOL0     C14499   9.341   8.113  11.275 -0.9725 -0.0755 -0.3751
  106MOL0     C14500   9.469   8.129  11.202 -0.0266 -1.2857  0.3518
  106MOL0     C14501   9.579   8.225  11.267 -0.2021 -0.0608 -0.7902
  106MOL0     C14502   9.686   8.256  11.154  0.5186 -0.8443  0.1603
  106MOL0     C14503   9.802   8.343  11.196  0.6666 -0.7195 -0.3622
  106MOL0     C14504   9.882   8.366  11.073  0.2725  0.0040  0.6551
  106MOL0     C14505  10.032   8.369  11.125  1.1248 -0.2328 -0.0695
  106MOL0     C14506  10.063   8.498  11.217  0.1730  1.0551  0.6495
  106MOL0     N14507  10.079   8.626  11.139 -0.5897  0.3289 -0.5189
  106MOL0     C14508   9.971   8.716  11.135  0.2529  0.2539  0.7370
  106MOL0     C14509  10.010   8.803  11.037 -0.5789 -0.1459 -0.0875
  106MOL0     C14510   9.932   8.922  10.981 -0.2072 -0.1994 -0.2186
  106MOL0     C14511   9.872   8.894  10.851 -0.2411 -0.6273  0.6803
  106MOL0     C14512   9.824   9.012  10.779  0.3827 -1.3269 -0.5492
  106MOL0     C14513   9.808   9.001  10.626  0.7634 -0.4706  0.4200
  106MOL0     O14514   9.748   9.121  10.571 -0.1327 -0.2961 -0.9152
  106MOL0     C14515   9.682   9.119  10.455 -0.0796 -0.8606  0.2089
  106MOL0     C14516   9.568   9.201  10.428  1.1756  0.0332 -0.0710
  106MOL0     C14517   9.495   9.217  10.301 -0.4379 -0.3325 -0.7467
  106MOL0     C14518   9.395   9.322  10.294  0.5728  0.4442  0.5416
  106MOL0     C14519   9.533   9.127  10.205 -1.8824  0.9567  0.3905
  106MOL0     C14520   9.477   9.125  10.061  0.4902 -0.6552 -0.9167
  106MOL0     O14521   9.391   9.218  10.025 -1.0013 -0.5737  0.1538
  106MOL0     C14522   9.352   9.209   9.889  0.3502 -0.1561  0.5517
  106MOL0     C14523   9.257   9.106   9.861 -0.9340 -0.1067 -0.9212
  106MOL0     C14524   9.216   9.091   9.724 -0.2295 -0.5979 -0.0788
  106MOL0     C14525   9.270   9.180   9.625  0.3285 -0.8325  0.5934
  106MOL0     O14526   9.236   9.145   9.490  0.1491  0.7109  0.6324
  106MOL0     C14527   9.177   9.254   9.420  0.2163  0.1669  0.2658
  106MOL0     C14528   9.025   9.256   9.446  0.9919  0.4387 -0.7047
  106MOL0     C14529   8.984   9.301   9.591  0.3487 -0.0077 -0.3654
  106MOL0     C14530   9.000   9.444   9.605  0.9375 -1.1895 -0.5553
  106MOL0     C14531   8.920   9.491   9.727  0.0604 -0.2306  0.0548
  106MOL0     C14532   8.980   9.455   9.866  0.8582 -0.2293 -0.0200
  106MOL0     C14533   9.119   9.506   9.892  0.0345 -0.2268  0.8611
  106MOL0     C14534   9.175   9.456  10.026  0.9619 -0.1310  0.0127
  106MOL0    Cl14535   9.096   9.539  10.160  0.3901 -0.0656  0.1712
  106MOL0     C14536   9.358   9.277   9.656  0.4411 -0.1599  1.0434
  106MOL0     C14537   9.406   9.285   9.790  0.5044 -0.2954  0.2685
  106MOL0     O14538   9.506   9.023   9.996  0.4409 -0.2346 -0.3600
  106MOL0     C14539   9.647   9.035  10.234 -0.4338 -1.2732  1.8029
  106MOL0     C14540   9.719   9.036  10.354 -0.3009 -0.3573  0.3573
  106MOL0     N14541  10.140   8.751  10.991  0.3705 -0.4250 -0.4160
  106MOL0     N14542  10.184   8.647  11.055  0.3366 -0.0534 -0.4422
  106MOL0     C14543   9.095   8.393  11.205  0.3500 -0.1222  0.5832
  106MOL0     C14544   9.026   8.455  11.102 -0.3412 -0.2261 -0.4562
  106MOL0     C14545   8.707   8.469  10.791 -0.5595  0.3898 -0.7221
  106MOL0     C14546   8.580   8.415  10.806  0.4093  0.2274 -0.4688
  106MOL0     C14547   8.484   8.451  10.715  0.3670  0.7800  0.0478
  106MOL0     C14548   8.491   8.544  10.615 -0.0482  0.5912 -0.1683
  106MOL0     O14549   8.376   8.581  10.550 -1.0342  0.0065 -0.3784
  106MOL0     C14550   8.352   8.718  10.520  0.4667  0.4181  0.4288
  106MOL0     C14551   8.202   8.735  10.482  0.4410  0.1327 -0.5765
  106MOL0     C14552   8.156   8.878  10.534 -0.1535  0.0578  0.0275
  106MOL0     C14553   8.020   8.923  10.484  0.7797 -0.5568  1.2494
  106MOL0     C14554   7.909   8.824  10.503  0.1201 -0.7806  1.3649
  106MOL0     C14555   7.812   8.753  10.523 -0.0745 -0.0844  0.5730
  106MOL0     C14556   8.609   8.615  10.622 -0.2420 -0.3016 -0.7150
  106MOL0     C14557   8.713   8.577  10.705 -0.5597 -0.5205  0.1023
  106MOL0     C14558   8.851   8.637  10.678  0.3909 -0.4181 -0.3416
  106MOL0     H14559   9.102   8.249  10.842  0.0732  2.7500 -2.0215
  106MOL0     H14560   9.240   8.146  11.010  0.9269  0.4870  0.7771
  106MOL0     H14561   9.288   8.028  11.233 -1.9917  1.1892 -1.7931
  106MOL0     H14562   9.368   8.086  11.377  0.3781 -0.6798 -0.8609
  106MOL0     H14563   9.522   8.033  11.199  0.0344 -1.2375 -1.0199
  106MOL0     H14564   9.442   8.158  11.100  1.2606  1.9415  0.8058
  106MOL0     H14565   9.534   8.318  11.303  0.7938  0.5288 -1.0206
  106MOL0     H14566   9.629   8.173  11.350 -0.9103 -1.0152 -0.9484
  106MOL0     H14567   9.705   8.159  11.106  0.4503 -0.9239  0.2945
  106MOL0     H14568   9.625   8.310  11.080  1.5082 -0.5390 -0.4470
  106MOL0     H14569   9.857   8.291  11.275  1.5600 -1.2064 -1.2799
  106MOL0     H14570   9.754   8.438  11.221  0.7860 -0.5399 -0.8127
  106MOL0     H14571   9.878   8.299  10.987 -1.1866  1.6820 -0.6752
  106MOL0     H14572   9.859   8.465  11.032  0.5089 -1.1474 -2.5570
  106MOL0     H14573  10.101   8.372  11.041  2.9852 -4.1127  1.0729
  106MOL0     H14574  10.062   8.279  11.179  2.8464 -0.5828 -1.5532
  106MOL0     H14575   9.989   8.515  11.295  0.0484  0.0542  0.7638
  106MOL0     H14576  10.161   8.478  11.261  0.4709  1.8331  0.3504
  106MOL0     H14577   9.871   8.711  11.178 -1.2175  1.8889 -2.1969
  106MOL0     H14578   9.992   9.014  10.987 -1.3416  0.5240  0.5069
  106MOL0     H14579   9.857   8.946  11.057 -1.7625  1.4571 -2.1571
  106MOL0     H14580   9.950   8.848  10.789 -0.2986  1.0320 -0.6905
  106MOL0     H14581   9.785   8.835  10.880 -1.6399  0.5956 -0.8141
  106MOL0     H14582   9.729   9.042  10.823  0.3122 -0.1959 -1.4258
  106MOL0     H14583   9.886   9.100  10.797  0.7264 -1.7273  0.2848
  106MOL0     H14584   9.909   8.973  10.593  1.5815  0.3112  2.1266
  106MOL0     H14585   9.737   8.924  10.596  1.7286 -0.4688 -2.1517
  106MOL0     H14586   9.530   9.259  10.512  0.2568 -0.2957 -0.2462
  106MOL0     H14587   9.295   9.282  10.309 -0.1074  1.0560 -1.9770
  106MOL0     H14588   9.411   9.372  10.198  6.1986 -0.9549  0.3466
  106MOL0     H14589   9.419   9.385  10.380  0.1330 -0.8936  1.6905
  106MOL0     H14590   9.220   9.046   9.943  1.0622  3.1388  2.7443
  106MOL0     H14591   9.148   9.011   9.695  3.3925 -2.4063 -4.8208
  106MOL0     H14592   9.226   9.351   9.431  2.4323 -0.3805 -3.1600
  106MOL0     H14593   9.176   9.224   9.315 -3.3385 -0.5083  0.3903
  106MOL0     H14594   8.969   9.318   9.375  1.7091  0.4156 -1.3009
  106MOL0     H14595   8.985   9.156   9.430  2.0763 -0.5165  1.9815
  106MOL0     H14596   9.030   9.245   9.673 -0.4224 -0.4638 -0.2296
  106MOL0     H14597   8.878   9.281   9.606  0.7444 -0.8179  1.6929
  106MOL0     H14598   8.956   9.491   9.517 -3.1382 -0.8054  1.4423
  106MOL0     H14599   9.105   9.474   9.607  0.7152 -0.3572 -0.8372
  106MOL0     H14600   8.917   9.600   9.727 -1.6254 -0.2463  0.5206
  106MOL0     H14601   8.823   9.442   9.717  1.7974 -3.9325 -0.2050
  106MOL0     H14602   8.965   9.349   9.890 -2.9937 -0.2456 -1.8042
  106MOL0     H14603   8.901   9.497   9.929  0.1877 -2.5296  0.7761
  106MOL0     H14604   9.118   9.616   9.890 -0.3813 -0.2329  0.6104
  106MOL0     H14605   9.188   9.469   9.815  3.5600  0.8951  3.2517
  106MOL0     H14606   9.281   9.482  10.034  1.5081 -2.4642  1.2945
  106MOL0     H14607   9.172   9.347  10.023 -0.2116 -0.1008 -0.1742
  106MOL0     H14608   9.389   9.337   9.571 -2.6174 -0.9678 -0.8007
  106MOL0     H14609   9.484   9.356   9.818  1.4200 -1.5078  0.8674
  106MOL0     H14610   9.698   8.979  10.156 -0.1495  1.5269 -0.1422
  106MOL0     H14611   9.804   8.969  10.365  0.4737  0.2163 -1.5810
  106MOL0     H14612   9.094   8.435  11.305 -4.3277 -1.2131  1.2026
  106MOL0     H14613   8.969   8.545  11.124  0.5219  0.7701 -2.0990
  106MOL0     H14614   8.560   8.338  10.879 -1.7407 -0.1431 -1.3807
  106MOL0     H14615   8.396   8.389  10.730  1.3432 -0.5716  0.3142
  106MOL0     H14616   8.373   8.775  10.611 -0.0825 -1.2919  1.6622
  106MOL0     H14617   8.409   8.747  10.431  1.6552 -1.9682  0.3254
  106MOL0     H14618   8.144   8.665  10.543  0.0561  0.3998 -0.6316
  106MOL0     H14619   8.184   8.704  10.379 -2.2498  1.4237 -0.5966
  106MOL0     H14620   8.154   8.878  10.644  0.1408 -1.0221  0.0412
  106MOL0     H14621   8.231   8.956  10.518  1.4439 -1.4458 -0.0283
  106MOL0     H14622   8.030   8.949  10.378 -0.7500  0.9977  1.4414
  106MOL0     H14623   7.981   9.013  10.532  0.6789 -1.6705  3.4177
  106MOL0     H14624   7.728   8.689  10.540  0.1071  0.0246  1.9958
  106MOL0     H14625   8.635   8.694  10.552  2.8282 -2.7396 -2.5913
  106MOL0     H14626   8.881   8.680  10.774 -1.6459  3.9495 -1.4094
  106MOL0     H14627   8.929   8.573  10.636  0.8528 -0.8023  1.0722
  106MOL0     H14628   8.836   8.719  10.607 -1.4266  0.3784  0.8952
  107MOL0     O14629   5.091   0.776   6.926  0.4973 -0.0198 -0.2052
  107MOL0     C14630   5.178   0.695   6.896 -0.9424 -0.8505  0.5617
  107MOL0     O14631   5.147   0.576   6.854 -0.0393 -0.2606  1.1049
  107MOL0     C14632   5.016   0.551   6.840  0.9423  0.7258 -0.3995
  107MOL0     C14633   4.957   0.464   6.939 -1.0989 -0.4384  0.6891
  107MOL0     C14634   4.821   0.430   6.933 -0.2201  0.5952 -0.3051
  107MOL0     C14635   4.736   0.493   6.837  0.1674  0.5063 -0.8170
  107MOL0     O14636   4.602   0.476   6.829  0.2316  0.0856  0.2021
  107MOL0     C14637   4.544   0.356   6.896  0.0613 -0.2630 -0.3541
  107MOL0     C14638   4.571   0.232   6.820 -0.7458  0.2303 -0.8864
  107MOL0     C14639   4.503   0.220   6.688 -0.0841 -0.1739  0.6372
  107MOL0     C14640   4.559   0.108   6.605  0.1599  0.0586 -0.6138
  107MOL0     C14641   4.557  -0.033   6.682 -0.5112  0.2637  0.4277
  107MOL0     C14642   4.573  -0.160   6.594 -0.3218 -0.7428  0.1731
  107MOL0     C14643   4.637  -0.277   6.675  0.4010  0.9832  0.4827
  107MOL0     C14644   4.534  -0.335   6.770  0.0738  0.0900 -0.1497
  107MOL0     N14645   4.421  -0.407   6.704 -0.0029 -0.5528  0.1528
  107MOL0     C14646   4.293  -0.356   6.696 -0.4123 -0.2118 -0.7121
  107MOL0     C14647   4.223  -0.475   6.708 -0.5288 -0.4671 -1.1123
  107MOL0     C14648   4.073  -0.500   6.717 -0.0118  0.6019  1.0029
  107MOL0     C14649   4.007  -0.490   6.859  0.6730  0.0164  0.2953
  107MOL0     C14650   3.959  -0.349   6.879  0.3389  0.2371 -0.1449
  107MOL0     C14651   3.870  -0.330   7.015  0.2769 -1.0068  0.5288
  107MOL0     O14652   3.890  -0.191   7.052 -1.0187  0.1551 -0.3944
  107MOL0     C14653   3.807  -0.135   7.142  0.1678  0.2121  0.6031
  107MOL0     C14654   3.836  -0.004   7.181  0.4342  0.6403  0.0263
  107MOL0     C14655   3.746   0.069   7.261  0.2468 -0.0130 -0.2381
  107MOL0     C14656   3.803   0.217   7.289  1.0614  1.1998 -1.1275
  107MOL0     C14657   3.622   0.016   7.315 -0.3023 -1.1154  0.5325
  107MOL0     C14658   3.536   0.086   7.407  0.4032 -0.1647 -0.9276
  107MOL0     O14659   3.564   0.216   7.430 -0.1737 -0.1312 -0.9353
  107MOL0     C14660   3.476   0.282   7.511  0.1668 -0.5432  1.3358
  107MOL0     C14661   3.534   0.344   7.621  0.6361  0.2994  0.7538
  107MOL0     C14662   3.451   0.419   7.711 -1.3461  0.2268 -0.0977
  107MOL0     C14663   3.323   0.447   7.683 -0.3101  0.0797  0.2108
  107MOL0     O14664   3.243   0.533   7.758 -0.1775 -0.0882 -0.2398
  107MOL0     C14665   3.285   0.573   7.889  0.1360 -0.6970 -0.4054
  107MOL0     C14666   3.165   0.619   7.971  0.0386  0.2032 -0.3764
  107MOL0     C14667   3.099   0.508   8.048 -0.6717  0.3150 -0.3596
  107MOL0     C14668   3.175   0.462   8.171  0.2992  0.1399  0.0549
  107MOL0     C14669   3.158   0.313   8.196  0.0435 -0.1823  0.1920
  107MOL0     C14670   3.216   0.293   8.343  0.2979 -0.0533  0.6471
  107MOL0     C14671   3.360   0.258   8.351 -0.7969 -0.8365 -0.2300
  107MOL0     C14672   3.429   0.299   8.475  0.3701  0.1658  0.2330
  107MOL0    Cl14673   3.406   0.162   8.584  0.4048  0.0803  0.1449
  107MOL0     C14674   3.268   0.390   7.571  0.9847  0.4750 -0.4582
  107MOL0     C14675   3.340   0.306   7.478 -0.3872  0.0572  0.3038
  107MOL0     O14676   3.457   0.017   7.476  0.5083  0.6919  0.2165
  107MOL0     C14677   3.592  -0.118   7.266  0.8628 -0.2198  0.2094
  107MOL0     C14678   3.682  -0.186   7.181 -0.5584  0.3856  0.2757
  107MOL0     N14679   4.311  -0.582   6.701  0.0168 -1.0491 -0.7774
  107MOL0     N14680   4.423  -0.542   6.697 -0.4888  0.1463  0.4319
  107MOL0     C14681   4.797   0.575   6.737 -0.3414 -0.4180 -0.1608
  107MOL0     C14682   4.936   0.605   6.737 -0.2439 -0.0342 -0.1060
  107MOL0     C14683   5.318   0.744   6.889  0.5347 -0.1535 -0.1502
  107MOL0     C14684   5.347   0.869   6.953 -0.3130 -0.0904  0.0867
  107MOL0     C14685   5.473   0.913   6.963  0.2212 -0.5706 -0.4174
  107MOL0     C14686   5.581   0.839   6.919  0.8598  0.1867  0.1540
  107MOL0     O14687   5.704   0.887   6.946 -0.7465 -0.2405 -0.3011
  107MOL0     C14688   5.823   0.810   6.927  0.1983 -0.1055 -0.3704
  107MOL0     C14689   5.929   0.886   7.005  0.8776 -0.7576 -1.3536
  107MOL0     C14690   5.916   0.907   7.152 -0.3201 -0.9121  0.1327
  107MOL0     C14691   6.031   0.991   7.207 -0.1018 -0.9178 -0.5315
  107MOL0     C14692   6.055   0.966   7.351 -0.1934  0.7405 -0.0744
  107MOL0     C14693   6.058   0.964   7.470 -0.5427 -0.3899 -0.1353
  107MOL0     C14694   5.554   0.720   6.851  0.3023 -0.1280  0.3360
  107MOL0     C14695   5.420   0.670   6.827  0.0546 -0.8596 -0.3238
  107MOL0     C14696   5.407   0.539   6.764 -0.3648 -0.3188  0.1350
  107MOL0     H14697   5.022   0.425   7.016  0.7641  2.3460  0.6751
  107MOL0     H14698   4.780   0.378   7.019 -1.3515  1.9611  0.0265
  107MOL0     H14699   4.435   0.362   6.902 -0.3484 -4.2675 -0.8885
  107MOL0     H14700   4.594   0.347   6.993 -0.2687  1.9323  0.0570
  107MOL0     H14701   4.677   0.210   6.804  0.3021  4.6131 -1.3660
  107MOL0     H14702   4.523   0.162   6.889  1.4367  2.3262  3.1988
  107MOL0     H14703   4.398   0.192   6.701  0.1370 -0.4641  1.9887
  107MOL0     H14704   4.490   0.308   6.625 -2.6793 -1.4938 -0.8328
  107MOL0     H14705   4.500   0.091   6.514 -0.0012 -1.8822 -0.1849
  107MOL0     H14706   4.661   0.137   6.575  0.2342 -0.1245 -0.5399
  107MOL0     H14707   4.470  -0.047   6.746 -2.7721  0.2666 -2.4643
  107MOL0     H14708   4.647  -0.024   6.744  0.8292  3.2377 -1.6787
  107MOL0     H14709   4.478  -0.187   6.548 -1.3962 -0.4748  2.1233
  107MOL0     H14710   4.642  -0.131   6.514 -1.9111  1.8648 -0.3962
  107MOL0     H14711   4.725  -0.238   6.727  0.7518  0.9738 -0.0975
  107MOL0     H14712   4.672  -0.350   6.602  0.2802  1.7061 -0.3140
  107MOL0     H14713   4.578  -0.421   6.821 -0.1376 -0.4473 -0.8711
  107MOL0     H14714   4.492  -0.266   6.844  0.3018 -1.2291  1.2562
  107MOL0     H14715   4.245  -0.259   6.700  0.5541  0.2874 -0.9268
  107MOL0     H14716   4.061  -0.604   6.683  2.1884  0.4973  0.3905
  107MOL0     H14717   4.029  -0.442   6.636  1.4832 -1.0628 -1.1376
  107MOL0     H14718   3.922  -0.558   6.862  0.2062  0.5186 -1.0190
  107MOL0     H14719   4.076  -0.520   6.939 -0.3286 -0.7221  0.9032
  107MOL0     H14720   4.038  -0.273   6.887 -1.2413  1.8769  0.5943
  107MOL0     H14721   3.899  -0.319   6.793  1.3963 -0.3828 -1.1323
  107MOL0     H14722   3.767  -0.359   6.994 -1.3386  1.9421  3.3991
  107MOL0     H14723   3.904  -0.392   7.099 -1.9928  1.2387  3.3631
  107MOL0     H14724   3.932   0.039   7.151  0.3423  1.3104  0.6891
  107MOL0     H14725   3.738   0.298   7.255 -1.3146 -0.4080 -0.6605
  107MOL0     H14726   3.897   0.229   7.235  1.9505 -2.1360 -0.5551
  107MOL0     H14727   3.837   0.231   7.392 -2.0242  0.5456  0.0972
  107MOL0     H14728   3.640   0.354   7.642  0.5745 -0.7508  1.6706
  107MOL0     H14729   3.507   0.474   7.786 -0.3690  0.6935 -1.1432
  107MOL0     H14730   3.341   0.491   7.937 -1.1702 -0.7332  1.1347
  107MOL0     H14731   3.344   0.665   7.885 -2.9879  1.7596  3.1192
  107MOL0     H14732   3.194   0.692   8.047 -1.5353  0.6603 -0.1838
  107MOL0     H14733   3.098   0.665   7.898 -1.4552  0.6739  1.2354
  107MOL0     H14734   3.076   0.422   7.985  3.3988 -0.9737 -0.4010
  107MOL0     H14735   3.012   0.560   8.088  0.2508  1.5550  0.0913
  107MOL0     H14736   3.137   0.525   8.253  0.3729  0.0095  0.1915
  107MOL0     H14737   3.280   0.487   8.153 -0.5427  1.4600 -4.0962
  107MOL0     H14738   3.053   0.288   8.183  0.7652 -3.0402 -0.8366
  107MOL0     H14739   3.216   0.258   8.121  1.1101 -1.6509  2.0055
  107MOL0     H14740   3.161   0.211   8.391 -2.2595  1.3255  0.2439
  107MOL0     H14741   3.194   0.383   8.401 -1.0102 -0.4429  0.8030
  107MOL0     H14742   3.412   0.319   8.276 -0.9401  0.8401  0.9699
  107MOL0     H14743   3.372   0.152   8.327  2.3089 -0.4985 -0.6047
  107MOL0     H14744   3.390   0.396   8.508  0.3810  0.4421 -0.5499
  107MOL0     H14745   3.536   0.322   8.474  0.3587  0.7136  3.3153
  107MOL0     H14746   3.164   0.410   7.550  1.4980  1.8187 -1.9586
  107MOL0     H14747   3.296   0.263   7.388 -0.1102  3.5464 -1.6744
  107MOL0     H14748   3.502  -0.170   7.298  0.8627 -2.6490 -3.2016
  107MOL0     H14749   3.658  -0.287   7.149 -1.6268 -0.0558  2.3199
  107MOL0     H14750   4.730   0.641   6.681  0.1851  3.4534  3.2932
  107MOL0     H14751   4.968   0.681   6.666  1.2994  2.6725  3.1783
  107MOL0     H14752   5.263   0.919   7.002 -0.1242 -0.0681  0.3868
  107MOL0     H14753   5.493   1.006   7.014 -3.4828  0.7586 -1.0459
  107MOL0     H14754   5.818   0.716   6.982  3.6588 -0.0542  0.2724
  107MOL0     H14755   5.856   0.798   6.824  1.2511 -0.0963 -0.0421
  107MOL0     H14756   5.917   0.983   6.956  0.0722  0.0204  0.3101
  107MOL0     H14757   6.027   0.842   6.983  1.3947 -2.2936  3.0369
  107MOL0     H14758   5.819   0.949   7.180 -0.1159 -3.3069  5.7875
  107MOL0     H14759   5.914   0.806   7.193  0.8075 -1.7311 -1.6838
  107MOL0     H14760   6.007   1.097   7.194  4.2461 -0.0083 -3.2503
  107MOL0     H14761   6.127   0.982   7.155  0.6884 -0.6366  0.8288
  107MOL0     H14762   6.059   0.967   7.577 -1.2676  0.1745 -0.1369
  107MOL0     H14763   5.645   0.670   6.819  1.6498  1.2981  1.7657
  107MOL0     H14764   5.505   0.508   6.726 -0.5342 -1.1792  0.3779
  107MOL0     H14765   5.366   0.466   6.835  2.8786 -0.9589  1.5304
  107MOL0     H14766   5.341   0.539   6.676 -0.9671  1.0500  0.5554
  108MOL0     O14767   5.623   6.617   8.662 -0.0385  0.6440  0.7047
  108MOL0     C14768   5.716   6.696   8.652 -0.5656 -0.1289 -0.3550
  108MOL0     O14769   5.814   6.717   8.761 -0.1964  0.0833  0.6380
  108MOL0     C14770   5.832   6.629   8.863  0.5920 -0.1605  0.2126
  108MOL0     C14771   5.730   6.567   8.936 -0.8350  0.0941  0.3766
  108MOL0     C14772   5.759   6.472   9.043  0.0001  0.2931 -0.6539
  108MOL0     C14773   5.895   6.468   9.084 -1.1832 -0.1807 -0.0748
  108MOL0     O14774   5.915   6.412   9.206  0.0351 -0.0339  0.2738
  108MOL0     C14775   5.926   6.267   9.187 -0.4691  0.1448  0.3016
  108MOL0     C14776   6.056   6.224   9.273  0.2210 -0.1486 -0.4316
  108MOL0     C14777   6.183   6.248   9.186  0.0899  0.8178 -1.1473
  108MOL0     C14778   6.313   6.178   9.245  0.0949 -0.5684 -0.2974
  108MOL0     C14779   6.435   6.176   9.147  0.0368 -0.3691 -0.8295
  108MOL0     C14780   6.558   6.101   9.201 -0.0832 -0.5332  0.1886
  108MOL0     C14781   6.613   6.139   9.342 -0.2454  0.0743 -0.3603
  108MOL0     C14782   6.651   6.287   9.356  0.5524  0.0605  0.2727
  108MOL0     N14783   6.770   6.318   9.273 -0.2990  0.2949 -0.2816
  108MOL0     C14784   6.774   6.391   9.155  0.3441 -0.2743  0.0213
  108MOL0     C14785   6.894   6.349   9.095 -0.3754  0.5364 -0.9272
  108MOL0     C14786   6.961   6.410   8.977 -0.0237  0.2455 -0.9026
  108MOL0     C14787   6.857   6.440   8.866 -0.3403  0.2361 -0.1923
  108MOL0     C14788   6.825   6.588   8.863  0.4124  0.1161  0.0542
  108MOL0     C14789   6.694   6.634   8.781 -0.5711  0.4406 -0.2253
  108MOL0     O14790   6.594   6.542   8.840 -0.9547 -0.2634 -0.0700
  108MOL0     C14791   6.484   6.514   8.769  0.4869  0.2424 -0.8108
  108MOL0     C14792   6.448   6.583   8.647 -0.0770 -0.2521 -0.3409
  108MOL0     C14793   6.322   6.563   8.591 -0.4391 -0.4303 -0.5545
  108MOL0     C14794   6.290   6.651   8.475  0.9126  0.0193  0.9363
  108MOL0     C14795   6.236   6.463   8.650 -1.1481 -0.9523  0.1418
  108MOL0     C14796   6.092   6.431   8.606 -0.3209 -0.5802 -0.3829
  108MOL0     O14797   6.056   6.297   8.602 -0.1885  0.1644 -0.0994
  108MOL0     C14798   5.933   6.257   8.562  0.0596  1.1020 -0.3051
  108MOL0     C14799   5.810   6.300   8.626 -0.0086 -0.5097  0.5554
  108MOL0     C14800   5.683   6.270   8.578 -1.0259  0.5497 -0.1139
  108MOL0     C14801   5.670   6.178   8.477  0.2355 -0.1462 -0.0984
  108MOL0     O14802   5.544   6.133   8.429 -0.1312 -0.6348 -0.7419
  108MOL0     C14803   5.422   6.190   8.474  0.0147 -0.2933 -0.1582
  108MOL0     C14804   5.408   6.338   8.434  0.5946  0.0627 -0.1757
  108MOL0     C14805   5.283   6.409   8.499  0.2877  0.2659  0.1176
  108MOL0     C14806   5.146   6.348   8.440 -0.0558 -0.3323  0.4627
  108MOL0     C14807   5.024   6.415   8.488 -0.4541  0.6068  0.1014
  108MOL0     C14808   5.021   6.569   8.469  0.4463  0.4118 -0.4412
  108MOL0     C14809   4.889   6.640   8.506 -0.3136  0.1419 -0.1039
  108MOL0     C14810   4.853   6.624   8.654 -0.1287  1.6545 -0.5042
  108MOL0    Cl14811   4.723   6.504   8.687 -0.1488  0.4378  0.3143
  108MOL0     C14812   5.791   6.135   8.421 -0.2798  0.0761 -0.0200
  108MOL0     C14813   5.920   6.172   8.459 -0.2872  1.0146  0.5758
  108MOL0     O14814   6.012   6.524   8.588 -0.4042 -0.3699 -0.5120
  108MOL0     C14815   6.280   6.386   8.762  0.4821 -0.5227  1.5520
  108MOL0     C14816   6.407   6.409   8.815  1.1656 -0.7439 -0.3020
  108MOL0     N14817   6.963   6.259   9.178  0.1641  0.7137  0.3024
  108MOL0     N14818   6.887   6.246   9.277  0.9101  0.0810 -0.3935
  108MOL0     C14819   5.992   6.536   9.014  0.2785  0.0846  0.7443
  108MOL0     C14820   5.957   6.608   8.904  0.6526 -0.1170 -1.2249
  108MOL0     C14821   5.723   6.787   8.530  0.0732  1.0724 -0.5796
  108MOL0     C14822   5.852   6.790   8.475 -0.4694 -0.2414 -0.5299
  108MOL0     C14823   5.872   6.852   8.348 -0.6946  0.3088 -0.3705
  108MOL0     C14824   5.765   6.926   8.293  0.3072  0.2578 -0.0959
  108MOL0     O14825   5.781   6.981   8.167 -0.0084  0.1871  0.6451
  108MOL0     C14826   5.668   7.023   8.089  0.9128 -0.0772  0.6194
  108MOL0     C14827   5.709   7.051   7.938  0.1649 -0.2770  0.3906
  108MOL0     C14828   5.593   7.026   7.841  0.1526  0.4030 -0.0475
  108MOL0     C14829   5.627   7.053   7.693 -0.0925  0.0555  0.7085
  108MOL0     C14830   5.704   6.952   7.622 -0.6241 -1.1301  0.9093
  108MOL0     C14831   5.763   6.856   7.571  0.4716 -1.0590  0.1488
  108MOL0     C14832   5.640   6.926   8.367  0.2612 -0.8166  0.5073
  108MOL0     C14833   5.609   6.864   8.490 -0.8389  0.3021  0.7205
  108MOL0     C14834   5.473   6.856   8.541  0.0054  0.4993  0.8085
  108MOL0     H14835   5.629   6.582   8.900  0.3065  2.9815 -2.1080
  108MOL0     H14836   5.670   6.431   9.090  0.2595 -0.6828 -0.9911
  108MOL0     H14837   5.948   6.232   9.086  0.3955  0.7732  0.2610
  108MOL0     H14838   5.833   6.224   9.225 -2.2698  1.2546 -2.4985
  108MOL0     H14839   6.063   6.279   9.368  1.7465 -4.8558  2.5370
  108MOL0     H14840   6.038   6.120   9.302  1.5187  0.0157  1.1176
  108MOL0     H14841   6.151   6.203   9.091 -1.3213 -2.2026  0.6088
  108MOL0     H14842   6.195   6.357   9.183 -1.3503  1.1357  1.4896
  108MOL0     H14843   6.336   6.233   9.337 -0.8544 -1.5274  0.5344
  108MOL0     H14844   6.305   6.085   9.302  2.3155 -0.0924  0.9360
  108MOL0     H14845   6.465   6.280   9.130 -0.4381 -0.0895  0.0107
  108MOL0     H14846   6.412   6.138   9.047  1.0551 -1.5227 -0.6549
  108MOL0     H14847   6.530   5.996   9.219  2.6346 -1.2851  0.4120
  108MOL0     H14848   6.646   6.110   9.137 -0.4953  3.5534 -0.0619
  108MOL0     H14849   6.698   6.073   9.360 -1.7167 -2.0074 -0.6162
  108MOL0     H14850   6.532   6.128   9.415 -1.1161 -1.7233 -1.5115
  108MOL0     H14851   6.568   6.349   9.321  0.0931 -0.7103 -0.0423
  108MOL0     H14852   6.678   6.302   9.461  0.0147 -0.2477  0.4609
  108MOL0     H14853   6.712   6.471   9.116  0.2512 -1.0248 -1.4562
  108MOL0     H14854   7.038   6.345   8.934 -0.3255  0.5313 -1.8992
  108MOL0     H14855   7.021   6.496   9.005 -1.2498  1.4968 -1.9950
  108MOL0     H14856   6.906   6.424   8.769 -0.3353  0.3149 -0.2024
  108MOL0     H14857   6.763   6.384   8.867 -1.2336  1.6703 -0.7871
  108MOL0     H14858   6.801   6.624   8.964  2.3998 -1.4322  1.1458
  108MOL0     H14859   6.911   6.650   8.835  1.2710  0.3794  2.9882
  108MOL0     H14860   6.677   6.740   8.801 -1.3593  0.6705 -1.9980
  108MOL0     H14861   6.713   6.621   8.674  1.1622  0.5332  0.0410
  108MOL0     H14862   6.512   6.657   8.601  3.4056 -3.2298 -0.7412
  108MOL0     H14863   6.209   6.606   8.415  0.6732 -0.0558  1.3138
  108MOL0     H14864   6.382   6.661   8.417  0.5338  0.4082  0.3863
  108MOL0     H14865   6.253   6.746   8.514 -1.6962 -0.6400  0.2946
  108MOL0     H14866   5.817   6.372   8.706  0.6053 -0.6941  0.6754
  108MOL0     H14867   5.598   6.303   8.637  0.2318  1.0996  1.4783
  108MOL0     H14868   5.338   6.130   8.438 -0.6904 -1.1339  2.6459
  108MOL0     H14869   5.421   6.191   8.583  0.3414  2.3117 -0.1201
  108MOL0     H14870   5.491   6.392   8.481 -1.0742  0.1295  2.9961
  108MOL0     H14871   5.398   6.344   8.325  0.1473  0.5518 -0.1093
  108MOL0     H14872   5.283   6.516   8.477 -2.1324  0.2312 -0.3546
  108MOL0     H14873   5.277   6.405   8.608 -2.8591  0.0403  0.0324
  108MOL0     H14874   5.143   6.241   8.459  0.2571 -0.6838 -1.3376
  108MOL0     H14875   5.148   6.341   8.331 -2.6848  0.1648  0.3102
  108MOL0     H14876   4.935   6.374   8.439 -0.0991 -1.3789  1.0096
  108MOL0     H14877   5.008   6.388   8.593  1.3760  2.9676  1.0733
  108MOL0     H14878   5.032   6.592   8.363 -3.7858 -1.5102 -1.5374
  108MOL0     H14879   5.105   6.613   8.523  0.2529  1.3718 -0.9031
  108MOL0     H14880   4.807   6.603   8.445  1.4656 -2.5572 -1.0403
  108MOL0     H14881   4.888   6.747   8.486 -1.5919  0.3214  0.8204
  108MOL0     H14882   4.820   6.718   8.698  0.7372  1.8154 -0.1759
  108MOL0     H14883   4.943   6.593   8.708 -3.0567 -3.3092  2.2927
  108MOL0     H14884   5.794   6.077   8.329  0.7254  0.6341 -0.3526
  108MOL0     H14885   5.998   6.135   8.393 -0.2160  1.5996  0.3278
  108MOL0     H14886   6.211   6.311   8.800  0.8467 -1.1731  0.9383
  108MOL0     H14887   6.437   6.353   8.903  0.1713  0.3707  0.7819
  108MOL0     H14888   6.097   6.521   9.036  0.6115  1.2051 -0.0306
  108MOL0     H14889   6.040   6.658   8.854  0.3210 -0.2151 -1.8919
  108MOL0     H14890   5.935   6.732   8.513 -0.3151  2.9733  5.1367
  108MOL0     H14891   5.970   6.843   8.302 -1.4117  2.9512 -2.6846
  108MOL0     H14892   5.599   6.938   8.099 -0.1359 -0.1548 -4.6000
  108MOL0     H14893   5.619   7.115   8.122  0.2725  0.6899 -2.1743
  108MOL0     H14894   5.799   6.992   7.920  1.1226  0.5053  2.3038
  108MOL0     H14895   5.748   7.152   7.921  0.6011 -0.6802 -1.1470
  108MOL0     H14896   5.566   6.921   7.846  3.0816 -0.3799  1.5131
  108MOL0     H14897   5.516   7.092   7.881  1.1321  0.5102  1.7824
  108MOL0     H14898   5.675   7.150   7.675  2.1065 -1.4030 -2.1093
  108MOL0     H14899   5.528   7.054   7.648  0.5923 -2.4424 -1.1134
  108MOL0     H14900   5.814   6.770   7.532  1.6369  0.0030 -0.7254
  108MOL0     H14901   5.556   6.988   8.336  1.8486  1.5575  0.7696
  108MOL0     H14902   5.466   6.883   8.646  0.1383 -2.7986  1.7784
  108MOL0     H14903   5.403   6.921   8.486 -1.7806 -0.0948  2.2626
  108MOL0     H14904   5.436   6.754   8.525 -0.6917  1.2721 -4.3716
  109MOL0     O14905   3.177   0.190   1.221 -0.8189 -0.1992 -0.1307
  109MOL0     C14906   3.101   0.131   1.137  0.8384 -0.3145  0.5487
  109MOL0     O14907   2.967   0.143   1.136 -0.4352  0.1299  0.5488
  109MOL0     C14908   2.909   0.215   1.232 -0.4656 -0.1456  0.1737
  109MOL0     C14909   2.876   0.145   1.347  0.0199 -0.6348  0.4694
  109MOL0     C14910   2.862   0.211   1.465  0.0613  0.9442  1.1743
  109MOL0     C14911   2.860   0.346   1.468  0.2225  0.2326  1.6304
  109MOL0     O14912   2.828   0.416   1.578 -0.0737 -0.0808 -0.2671
  109MOL0     C14913   2.930   0.411   1.679  0.0902 -1.0156  0.6332
  109MOL0     C14914   3.015   0.537   1.651  0.5816  1.0940 -0.2672
  109MOL0     C14915   3.156   0.506   1.701  1.0181 -0.7736 -0.2058
  109MOL0     C14916   3.236   0.416   1.610 -0.4897 -0.5369  0.1427
  109MOL0     C14917   3.284   0.298   1.695 -0.2744 -0.2408 -0.9871
  109MOL0     C14918   3.380   0.195   1.643 -0.4494  0.5826  0.4480
  109MOL0     C14919   3.319   0.094   1.559 -0.0431  0.4191 -0.0356
  109MOL0     C14920   3.412   0.042   1.456  0.1517  0.1122  0.7833
  109MOL0     N14921   3.533  -0.028   1.495  0.2380 -0.2066 -0.3163
  109MOL0     C14922   3.656   0.034   1.502 -1.0120 -0.1511  0.3609
  109MOL0     C14923   3.747  -0.060   1.511 -0.0026 -0.5941  0.5390
  109MOL0     C14924   3.898  -0.027   1.512 -0.0811  0.1343 -0.1578
  109MOL0     C14925   3.963   0.012   1.377  0.4026  0.7095  0.2011
  109MOL0     C14926   3.955  -0.111   1.287  0.1637  0.6471 -0.0220
  109MOL0     C14927   4.024  -0.107   1.153  0.4214  0.3930  0.3269
  109MOL0     O14928   3.968  -0.003   1.072  0.5109 -0.4691  0.1385
  109MOL0     C14929   4.046   0.050   0.974  0.4954 -0.3751  0.8239
  109MOL0     C14930   4.017   0.178   0.928  0.7102 -0.1175  0.1356
  109MOL0     C14931   4.098   0.245   0.833  0.1423 -0.8592  0.4790
  109MOL0     C14932   4.059   0.389   0.787  0.1930 -0.6610 -0.5460
  109MOL0     C14933   4.214   0.171   0.782 -0.9018  0.5524 -0.5415
  109MOL0     C14934   4.305   0.240   0.687  0.0848  0.7511  0.1806
  109MOL0     O14935   4.327   0.380   0.710  0.1442 -0.1910  0.6942
  109MOL0     C14936   4.418   0.453   0.644 -0.0968  0.1240 -0.2151
  109MOL0     C14937   4.442   0.450   0.501  0.3054 -1.2217  0.2373
  109MOL0     C14938   4.530   0.545   0.445 -0.9491 -0.6704  1.1179
  109MOL0     C14939   4.610   0.630   0.526 -0.4956 -0.2809  0.1290
  109MOL0     O14940   4.700   0.715   0.468  0.3731 -0.4523 -0.3198
  109MOL0     C14941   4.672   0.758   0.336 -0.7909 -0.0374 -0.5023
  109MOL0     C14942   4.760   0.874   0.301 -0.5295  0.2208 -0.0583
  109MOL0     C14943   4.756   1.007   0.394  0.2171  0.6249 -0.5581
  109MOL0     C14944   4.607   1.068   0.410 -0.0884  0.6629  0.5023
  109MOL0     C14945   4.606   1.216   0.462 -0.6150  1.5826  0.3399
  109MOL0     C14946   4.685   1.236   0.587 -0.1197 -0.4216 -0.3392
  109MOL0     C14947   4.733   1.380   0.581 -0.5864  0.0207 -0.0095
  109MOL0     C14948   4.613   1.482   0.601 -0.2972 -0.4334 -0.6505
  109MOL0    Cl14949   4.623   1.611   0.484  0.5241 -0.2748 -0.1892
  109MOL0     C14950   4.602   0.616   0.665 -1.4331  0.5646  0.1463
  109MOL0     C14951   4.506   0.538   0.714  0.1782 -0.5123  0.2857
  109MOL0     O14952   4.381   0.171   0.611 -0.8030 -0.6220 -0.5072
  109MOL0     C14953   4.233   0.044   0.827  0.4434 -0.2039  1.4005
  109MOL0     C14954   4.156  -0.021   0.914  0.1707  0.0658  0.0840
  109MOL0     N14955   3.678  -0.179   1.535  0.0383 -0.4349 -0.3576
  109MOL0     N14956   3.550  -0.161   1.529  0.2301 -0.5485  0.6750
  109MOL0     C14957   2.880   0.418   1.347 -0.5435  0.0862 -0.3014
  109MOL0     C14958   2.906   0.354   1.229 -0.2381 -0.6271 -0.0454
  109MOL0     C14959   3.160   0.065   1.018 -0.1625 -0.5228 -0.1956
  109MOL0     C14960   3.296   0.022   1.038 -0.0103  0.0562  0.1720
  109MOL0     C14961   3.362  -0.046   0.934 -0.0123  0.4060 -0.4444
  109MOL0     C14962   3.302  -0.075   0.811 -0.5831 -0.2697  0.7714
  109MOL0     O14963   3.368  -0.144   0.715 -0.9752  0.4115 -0.8507
  109MOL0     C14964   3.290  -0.210   0.605 -0.6424 -0.9380 -0.3838
  109MOL0     C14965   3.247  -0.129   0.479  0.4569  0.1057  0.6000
  109MOL0     C14966   3.363  -0.064   0.404 -0.1970  0.7202 -0.0876
  109MOL0     C14967   3.328   0.002   0.274  0.1604  0.7146  0.3570
  109MOL0     C14968   3.434   0.074   0.217 -0.6171  0.2557  0.2855
  109MOL0     C14969   3.522   0.142   0.163 -0.5334 -0.3018  0.0613
  109MOL0     C14970   3.176  -0.019   0.788  0.6038 -0.1530  0.2530
  109MOL0     C14971   3.105   0.051   0.891 -0.3351 -0.8193 -0.1852
  109MOL0     C14972   2.974   0.121   0.859 -0.7913  0.2088 -0.0640
  109MOL0     H14973   2.865   0.038   1.337 -4.0123 -0.2415 -1.2896
  109MOL0     H14974   2.847   0.157   1.558 -1.6744  0.8104  0.8373
  109MOL0     H14975   2.988   0.319   1.669  2.4920  0.5039 -0.1537
  109MOL0     H14976   2.893   0.418   1.781  1.9646  2.6183  1.1898
  109MOL0     H14977   3.021   0.557   1.543 -3.6018  1.0418 -0.6446
  109MOL0     H14978   2.969   0.624   1.697  0.0111  1.6692 -1.8429
  109MOL0     H14979   3.212   0.599   1.712  0.0618 -0.1634 -0.3863
  109MOL0     H14980   3.148   0.467   1.803  2.5548  3.8162  1.9317
  109MOL0     H14981   3.176   0.378   1.527  0.0181  1.2445 -1.1011
  109MOL0     H14982   3.322   0.465   1.565 -0.3970 -0.5457  0.3078
  109MOL0     H14983   3.196   0.244   1.732  1.4756 -2.8789 -0.4263
  109MOL0     H14984   3.338   0.333   1.784  1.3314  0.2684 -2.1226
  109MOL0     H14985   3.463   0.242   1.590 -0.4558 -0.7666 -0.8393
  109MOL0     H14986   3.424   0.144   1.729  0.2840  1.9298  0.8917
  109MOL0     H14987   3.240   0.138   1.497 -0.0284 -0.6119 -0.8057
  109MOL0     H14988   3.285   0.013   1.624 -0.2511  0.4580 -0.0973
  109MOL0     H14989   3.346  -0.021   1.396 -0.5998  1.0705  0.5612
  109MOL0     H14990   3.455   0.121   1.393 -0.3535  1.3264  1.9220
  109MOL0     H14991   3.679   0.139   1.518  1.1423  0.0225 -2.9926
  109MOL0     H14992   3.942  -0.119   1.551 -2.2426 -0.9669 -0.1632
  109MOL0     H14993   3.928   0.051   1.583  2.1958  0.1311 -1.0260
  109MOL0     H14994   3.920   0.097   1.324  0.8565  0.3634 -0.7561
  109MOL0     H14995   4.068   0.040   1.383  0.7079  0.6702 -3.2087
  109MOL0     H14996   3.988  -0.202   1.337 -0.1188  0.8166  0.4809
  109MOL0     H14997   3.854  -0.140   1.257  1.1349 -0.6577 -2.2847
  109MOL0     H14998   4.132  -0.101   1.170  0.1600 -0.3725  2.6415
  109MOL0     H14999   4.017  -0.207   1.108  2.8916 -0.7006  2.1321
  109MOL0     H15000   3.934   0.227   0.977  1.1699  0.0061  0.8024
  109MOL0     H15001   4.111   0.460   0.852  1.6843 -0.4083 -1.9345
  109MOL0     H15002   3.951   0.404   0.793 -0.0276 -0.6683 -3.0994
  109MOL0     H15003   4.077   0.404   0.680 -0.7144  1.4944 -0.4512
  109MOL0     H15004   4.380   0.378   0.448 -0.4491 -0.6935  0.3730
  109MOL0     H15005   4.512   0.539   0.338  0.8139  2.7519  0.4914
  109MOL0     H15006   4.696   0.673   0.272  3.3431 -0.0870  0.8335
  109MOL0     H15007   4.570   0.795   0.323 -0.2408  0.7188 -3.3234
  109MOL0     H15008   4.863   0.839   0.288 -0.6279 -0.7389  1.4143
  109MOL0     H15009   4.724   0.904   0.203  0.2226 -2.3366 -1.2196
  109MOL0     H15010   4.815   1.094   0.362 -0.5048  2.2261  2.1495
  109MOL0     H15011   4.798   0.973   0.489 -0.2609  0.5780 -0.3633
  109MOL0     H15012   4.568   1.010   0.494  3.2359 -3.1173 -0.1986
  109MOL0     H15013   4.550   1.042   0.321  1.9645  0.0361 -0.7049
  109MOL0     H15014   4.646   1.284   0.386  0.2594 -0.5939 -1.2118
  109MOL0     H15015   4.502   1.243   0.486 -0.7056  0.3708  1.3929
  109MOL0     H15016   4.770   1.168   0.575  1.2170  1.6687 -5.6372
  109MOL0     H15017   4.628   1.210   0.676 -2.9612 -0.5573 -2.1012
  109MOL0     H15018   4.791   1.406   0.492  0.3819 -0.9964  0.3082
  109MOL0     H15019   4.799   1.410   0.663 -0.5224  1.0900 -0.4349
  109MOL0     H15020   4.630   1.539   0.692  0.8670 -2.8336  0.7409
  109MOL0     H15021   4.509   1.447   0.602 -2.6285  5.2919  1.7383
  109MOL0     H15022   4.652   0.681   0.735 -0.8152 -1.6592  1.8639
  109MOL0     H15023   4.480   0.537   0.819 -2.5116  0.1125 -0.2830
  109MOL0     H15024   4.317   0.002   0.773  1.2950  1.7006  1.1493
  109MOL0     H15025   4.194  -0.119   0.939  4.4951  2.4305  4.7317
  109MOL0     H15026   2.882   0.525   1.369  1.8487 -0.1777  1.0507
  109MOL0     H15027   2.923   0.422   1.146 -3.0626  2.8024  1.8910
  109MOL0     H15028   3.351   0.041   1.129 -1.8565 -4.4251  2.5582
  109MOL0     H15029   3.462  -0.084   0.953  0.5222  2.2026  0.5915
  109MOL0     H15030   3.365  -0.275   0.559  3.7063  2.4695  1.1614
  109MOL0     H15031   3.204  -0.264   0.645 -1.2535  1.3676  1.6361
  109MOL0     H15032   3.188  -0.041   0.505 -1.5913 -0.7523 -0.8587
  109MOL0     H15033   3.181  -0.183   0.411  1.7534 -1.9337  0.8494
  109MOL0     H15034   3.411   0.012   0.465  2.9956 -1.3634  0.2536
  109MOL0     H15035   3.434  -0.145   0.383  0.5984  1.2631  0.4372
  109MOL0     H15036   3.247   0.074   0.288  0.7447  1.4377  0.0535
  109MOL0     H15037   3.284  -0.075   0.210  1.1753  0.5883 -0.2090
  109MOL0     H15038   3.593   0.196   0.104 -1.9034  1.3191 -0.1725
  109MOL0     H15039   3.110  -0.021   0.703 -0.1557  0.1071  0.8263
  109MOL0     H15040   2.957   0.222   0.899  0.5391  1.2687 -2.0263
  109MOL0     H15041   2.959   0.155   0.756 -0.3338  1.4501  0.2500
  109MOL0     H15042   2.895   0.048   0.878  1.2355 -2.0935 -0.0110
  110MOL0     O15043   5.155   5.384  10.192  0.7472  0.5820  0.7460
  110MOL0     C15044   5.090   5.402  10.090 -0.3241  0.4559 -0.6305
  110MOL0     O15045   4.950   5.385  10.074  0.2866 -0.5093 -0.3252
  110MOL0     C15046   4.876   5.405  10.189  0.8058 -0.5099 -0.0628
  110MOL0     C15047   4.804   5.524  10.207  0.1544 -1.1817 -0.1478
  110MOL0     C15048   4.734   5.545  10.335  0.2486 -0.2082  0.0009
  110MOL0     C15049   4.733   5.449  10.432 -0.1953  0.0355 -1.5962
  110MOL0     O15050   4.683   5.456  10.557  0.2134 -0.1925  0.6822
  110MOL0     C15051   4.583   5.561  10.571 -0.1720  1.1199  0.6414
  110MOL0     C15052   4.535   5.569  10.720 -0.7502 -0.2236  0.2043
  110MOL0     C15053   4.400   5.635  10.692  0.6028  0.6001  0.0808
  110MOL0     C15054   4.308   5.637  10.811 -0.1130  0.4493 -0.2497
  110MOL0     C15055   4.205   5.757  10.795  0.6585 -1.0979 -0.5593
  110MOL0     C15056   4.194   5.863  10.684 -0.0198 -0.2351 -0.4288
  110MOL0     C15057   4.298   5.981  10.715  0.4051  0.2227  0.1462
  110MOL0     C15058   4.307   6.059  10.586  0.7809 -0.0445  0.4826
  110MOL0     N15059   4.380   6.188  10.600 -0.4369  0.4005 -1.0367
  110MOL0     C15060   4.362   6.290  10.698  0.4424 -0.3480 -0.2732
  110MOL0     C15061   4.448   6.386  10.662 -0.6323 -0.2070  0.1204
  110MOL0     C15062   4.447   6.508  10.750  0.3795 -0.7918 -0.4061
  110MOL0     C15063   4.552   6.613  10.701 -0.7258  0.1031  1.2272
  110MOL0     C15064   4.491   6.717  10.607 -1.0822 -0.4672 -0.4775
  110MOL0     C15065   4.588   6.829  10.601  0.3663  0.2376 -0.3050
  110MOL0     O15066   4.536   6.942  10.538 -0.3902  0.5461  0.3486
  110MOL0     C15067   4.618   7.030  10.475 -1.4076 -0.8561  1.3173
  110MOL0     C15068   4.558   7.095  10.372  0.7685  0.6246  0.9495
  110MOL0     C15069   4.628   7.183  10.289  0.4803  0.1046  0.3797
  110MOL0     C15070   4.535   7.252  10.189  0.2250 -0.1846  0.6657
  110MOL0     C15071   4.772   7.199  10.302  0.1245 -0.2345 -0.6569
  110MOL0     C15072   4.865   7.289  10.218  0.4528  0.7447  0.2103
  110MOL0     O15073   4.998   7.279  10.242  0.3448  0.1851  0.0043
  110MOL0     C15074   5.094   7.336  10.162 -0.6902  0.6605  0.5778
  110MOL0     C15075   5.213   7.331  10.231 -0.3833 -0.9766 -0.7787
  110MOL0     C15076   5.330   7.382  10.170 -0.4114 -0.9684 -0.6634
  110MOL0     C15077   5.331   7.430  10.036  0.6948  0.7624  0.3499
  110MOL0     O15078   5.435   7.497   9.987  0.6117 -0.3554 -0.2449
  110MOL0     C15079   5.437   7.570   9.861  0.2293  0.1294  0.0697
  110MOL0     C15080   5.456   7.484   9.729  0.2259  0.4877 -0.6704
  110MOL0     C15081   5.602   7.445   9.724 -0.0950  0.3986 -0.1213
  110MOL0     C15082   5.685   7.539   9.646  1.1559 -0.2138  0.8080
  110MOL0     C15083   5.824   7.485   9.641  0.3405  0.1849 -1.0061
  110MOL0     C15084   5.855   7.424   9.506  0.1011  0.0977  0.6895
  110MOL0     C15085   5.999   7.382   9.469  0.1254  0.1136 -0.4188
  110MOL0     C15086   5.992   7.326   9.327 -0.1883 -0.2119  0.1602
  110MOL0    Cl15087   5.976   7.469   9.213  0.2931  0.1787  0.3685
  110MOL0     C15088   5.210   7.425   9.972 -0.2533 -0.5423  0.7715
  110MOL0     C15089   5.093   7.378  10.028 -0.4579 -0.3032 -0.0486
  110MOL0     O15090   4.804   7.374  10.149  0.2311 -0.2249 -0.5808
  110MOL0     C15091   4.837   7.124  10.410  0.7441  0.5104  0.2006
  110MOL0     C15092   4.756   7.050  10.501 -0.6415  0.2260  0.0070
  110MOL0     N15093   4.527   6.341  10.555 -0.5472 -0.3172  0.2336
  110MOL0     N15094   4.492   6.220  10.522  0.9571 -0.1216  0.1480
  110MOL0     C15095   4.803   5.329  10.406 -0.2536 -0.7456  0.0882
  110MOL0     C15096   4.870   5.308  10.287  0.5327  0.0256  1.4462
  110MOL0     C15097   5.164   5.444   9.969 -1.0122 -0.1664 -0.4150
  110MOL0     C15098   5.096   5.490   9.856  0.0208  0.0523  0.5750
  110MOL0     C15099   5.156   5.559   9.754 -0.7103 -0.5067 -1.1537
  110MOL0     C15100   5.294   5.582   9.751  0.3473 -0.6797 -0.1600
  110MOL0     O15101   5.355   5.646   9.642 -0.6667 -0.3154  0.2766
  110MOL0     C15102   5.386   5.779   9.670 -0.5806  0.4376 -0.0886
  110MOL0     C15103   5.445   5.848   9.542 -0.2547 -0.0513  0.2008
  110MOL0     C15104   5.355   5.878   9.413 -0.8824 -0.2598 -0.0132
  110MOL0     C15105   5.445   5.934   9.302 -0.7780 -0.4846 -0.7681
  110MOL0     C15106   5.358   6.010   9.211  0.5580  0.4375 -0.2276
  110MOL0     C15107   5.277   6.076   9.149 -0.3253 -0.1294 -0.1921
  110MOL0     C15108   5.363   5.523   9.854  0.1880 -0.2749 -1.0056
  110MOL0     C15109   5.304   5.459   9.970  0.3062  0.7940  0.4332
  110MOL0     C15110   5.397   5.408  10.073  0.4127 -0.8694 -0.5816
  110MOL0     H15111   4.801   5.593  10.123 -2.6141 -1.8805 -0.7410
  110MOL0     H15112   4.673   5.633  10.351  1.2884  0.3692  0.8972
  110MOL0     H15113   4.503   5.527  10.503  0.0338  0.1838  0.8483
  110MOL0     H15114   4.612   5.658  10.530 -1.5996  1.1851 -0.3014
  110MOL0     H15115   4.524   5.466  10.756 -1.2126  0.3483  1.7862
  110MOL0     H15116   4.612   5.613  10.783  3.5511 -3.0860 -2.5337
  110MOL0     H15117   4.422   5.734  10.650 -0.0765  0.7872  0.1476
  110MOL0     H15118   4.348   5.577  10.615  3.1588 -1.4790 -0.2170
  110MOL0     H15119   4.251   5.544  10.822 -0.4219  0.1983 -3.0595
  110MOL0     H15120   4.367   5.649  10.902 -2.6327 -1.3717  1.7665
  110MOL0     H15121   4.214   5.816  10.887  2.7007 -0.1788 -1.2908
  110MOL0     H15122   4.107   5.710  10.807  0.9717 -1.3246  1.5005
  110MOL0     H15123   4.206   5.808  10.590 -1.0834  1.7156 -1.7848
  110MOL0     H15124   4.095   5.910  10.680  0.9423  1.9538 -0.1035
  110MOL0     H15125   4.399   5.949  10.740  0.5514 -1.3771 -2.1499
  110MOL0     H15126   4.276   6.052  10.796  2.2995 -0.6352  1.4711
  110MOL0     H15127   4.362   5.997  10.515 -3.9592 -1.2078 -2.6037
  110MOL0     H15128   4.203   6.077  10.559  1.1509 -0.5744 -1.4437
  110MOL0     H15129   4.292   6.294  10.781 -0.1256 -1.9789 -0.6489
  110MOL0     H15130   4.485   6.478  10.849  1.9276 -0.7240 -0.9496
  110MOL0     H15131   4.348   6.553  10.756  0.8066  0.3952 -1.7245
  110MOL0     H15132   4.589   6.672  10.786  4.3837  0.7600 -1.1065
  110MOL0     H15133   4.636   6.564  10.651 -0.7726  1.1684  0.0559
  110MOL0     H15134   4.469   6.673  10.509 -0.6641  0.6556 -1.0981
  110MOL0     H15135   4.405   6.759  10.660  0.9809  2.7671  0.5394
  110MOL0     H15136   4.619   6.864  10.700  2.0585 -2.4341  0.2125
  110MOL0     H15137   4.687   6.799  10.566  0.2585  0.2287 -0.6061
  110MOL0     H15138   4.453   7.073  10.353  1.4408 -1.0675 -1.3141
  110MOL0     H15139   4.563   7.204  10.095 -2.0835 -2.5666  1.0745
  110MOL0     H15140   4.542   7.360  10.202 -3.7364  0.0034  2.7176
  110MOL0     H15141   4.431   7.221  10.205 -0.3637  0.8550 -0.9237
  110MOL0     H15142   5.212   7.293  10.333  0.0551 -1.4907 -0.9603
  110MOL0     H15143   5.426   7.382  10.221 -0.8326 -1.2515  0.1549
  110MOL0     H15144   5.340   7.618   9.846 -0.5740 -1.5223 -0.2325
  110MOL0     H15145   5.508   7.654   9.863 -0.5503  0.8189 -0.4858
  110MOL0     H15146   5.399   7.390   9.721  3.0234 -1.2538 -1.8376
  110MOL0     H15147   5.432   7.529   9.632 -1.0041 -0.1758 -0.6895
  110MOL0     H15148   5.607   7.353   9.667  5.4292  0.1160  0.3049
  110MOL0     H15149   5.642   7.430   9.825  0.5411  0.9041 -0.2942
  110MOL0     H15150   5.698   7.635   9.696  3.1822  1.0125 -1.8265
  110MOL0     H15151   5.643   7.553   9.547 -1.8691 -1.7313  1.7442
  110MOL0     H15152   5.895   7.562   9.670  1.8152 -1.3048 -0.4997
  110MOL0     H15153   5.843   7.408   9.716 -0.7181 -0.4680 -1.3788
  110MOL0     H15154   5.815   7.492   9.429 -0.0753 -1.0817 -0.2854
  110MOL0     H15155   5.798   7.331   9.503  0.2749  0.0099 -0.2329
  110MOL0     H15156   6.029   7.297   9.532  2.1272  0.2396 -1.1276
  110MOL0     H15157   6.061   7.472   9.470 -3.1060  2.5317 -1.4673
  110MOL0     H15158   5.918   7.247   9.310  1.2933 -1.6264  0.0838
  110MOL0     H15159   6.086   7.275   9.303 -0.7503 -1.0388 -0.3401
  110MOL0     H15160   5.208   7.439   9.864  3.3154 -1.2047  0.5228
  110MOL0     H15161   5.012   7.356   9.960 -1.0144  0.6255  0.2980
  110MOL0     H15162   4.945   7.121  10.415  0.7538  1.0498  0.3835
  110MOL0     H15163   4.806   6.990  10.576 -0.6046  2.4764  1.9303
  110MOL0     H15164   4.809   5.245  10.474 -0.0883 -2.5824 -2.0614
  110MOL0     H15165   4.928   5.216  10.280  1.7684  0.9056 -3.2535
  110MOL0     H15166   4.994   5.457   9.842  0.6213 -1.3750 -0.6169
  110MOL0     H15167   5.100   5.606   9.674 -1.1385 -1.2065 -1.2657
  110MOL0     H15168   5.296   5.829   9.708  0.1000  3.3394 -1.9922
  110MOL0     H15169   5.465   5.782   9.745  0.1124 -0.7848 -0.7424
  110MOL0     H15170   5.536   5.800   9.506  0.7992  1.6961  0.4041
  110MOL0     H15171   5.483   5.945   9.577  2.3319 -1.6743  2.2600
  110MOL0     H15172   5.304   5.794   9.366 -0.1421  0.7757 -2.8813
  110MOL0     H15173   5.284   5.955   9.448  3.4114  2.6955  3.3847
  110MOL0     H15174   5.494   5.849   9.255 -1.3646 -0.8952 -0.6484
  110MOL0     H15175   5.517   6.004   9.346  1.5766 -3.7229  0.9339
  110MOL0     H15176   5.204   6.128   9.090  0.4296  1.1049 -0.0828
  110MOL0     H15177   5.472   5.529   9.847  0.2472 -1.0197 -0.7812
  110MOL0     H15178   5.382   5.454  10.171  3.7559  0.3557 -0.5250
  110MOL0     H15179   5.383   5.301  10.091 -1.8767 -0.5218  0.0887
  110MOL0     H15180   5.500   5.435  10.050 -0.0555  2.8214  0.9045
  111MOL0     O15181   5.678   7.105  10.019  0.2489  0.3457 -0.5392
  111MOL0     C15182   5.644   7.115  10.133 -0.2216 -0.1961 -0.0868
  111MOL0     O15183   5.714   7.177  10.225  0.3829 -0.1145 -0.1229
  111MOL0     C15184   5.817   7.251  10.184  0.3221 -0.1800  0.3932
  111MOL0     C15185   5.947   7.224  10.219  0.0909 -0.3110  0.0514
  111MOL0     C15186   6.050   7.307  10.182  0.0196  0.2839 -0.4415
  111MOL0     C15187   6.021   7.422  10.096  0.3156 -0.0713 -0.0980
  111MOL0     O15188   6.106   7.509  10.032  0.6866  0.3451 -0.0822
  111MOL0     C15189   6.240   7.468  10.002 -0.1315  0.6066  0.3165
  111MOL0     C15190   6.281   7.521   9.867 -0.3739  0.1567 -0.0302
  111MOL0     C15191   6.430   7.524   9.847  0.0164  0.5330  0.7289
  111MOL0     C15192   6.456   7.565   9.693 -0.5150  0.6775 -0.0328
  111MOL0     C15193   6.602   7.606   9.668 -0.0465 -0.4922  0.2312
  111MOL0     C15194   6.631   7.746   9.728  0.9083 -0.6450  0.1640
  111MOL0     C15195   6.773   7.773   9.694 -0.0896 -0.5333  0.0547
  111MOL0     C15196   6.799   7.818   9.553 -0.0498 -0.3865  0.8322
  111MOL0     N15197   6.733   7.941   9.516  0.8617  1.3344  0.9220
  111MOL0     C15198   6.779   8.064   9.555 -0.5381 -0.3252 -0.0023
  111MOL0     C15199   6.683   8.150   9.507 -0.6872  0.1021  0.4575
  111MOL0     C15200   6.709   8.298   9.490  1.0299 -0.9307  0.6125
  111MOL0     C15201   6.860   8.327   9.449 -0.8588  1.0295 -1.5983
  111MOL0     C15202   6.923   8.273   9.326  0.2164  0.3883  0.8152
  111MOL0     C15203   6.905   8.354   9.202 -0.4628 -0.0552  0.6466
  111MOL0     O15204   6.962   8.489   9.201  0.1545  0.1613  0.1115
  111MOL0     C15205   7.094   8.517   9.192 -0.3819  0.1205  0.0485
  111MOL0     C15206   7.191   8.424   9.167  0.1906  0.4349 -0.0188
  111MOL0     C15207   7.323   8.465   9.142 -0.5711  0.1272 -0.3270
  111MOL0     C15208   7.415   8.359   9.087 -0.6252 -0.2564 -0.3062
  111MOL0     C15209   7.355   8.598   9.163 -0.7170  0.3380  0.6257
  111MOL0     C15210   7.497   8.647   9.137  0.8946  0.7076  0.3841
  111MOL0     O15211   7.561   8.736   9.233 -0.2200 -0.1503  0.3286
  111MOL0     C15212   7.694   8.769   9.231 -0.2283 -0.1445 -0.4396
  111MOL0     C15213   7.718   8.894   9.300  0.5792  0.2173  0.6562
  111MOL0     C15214   7.846   8.943   9.309 -0.0232 -0.9501 -0.3826
  111MOL0     C15215   7.956   8.879   9.249  1.5671  0.2789 -0.3301
  111MOL0     O15216   8.087   8.919   9.268 -0.0887  0.8737  0.8444
  111MOL0     C15217   8.174   8.947   9.155  0.3593 -0.2596 -0.7509
  111MOL0     C15218   8.299   9.015   9.211 -0.8839 -0.1640 -1.0756
  111MOL0     C15219   8.414   9.012   9.114  0.5639 -0.2121  0.0070
  111MOL0     C15220   8.548   9.056   9.185 -0.3554  0.8834 -0.6219
  111MOL0     C15221   8.667   9.070   9.083 -0.1283  0.0384 -0.0129
  111MOL0     C15222   8.778   9.145   9.148  0.6727  0.0154  0.2524
  111MOL0     C15223   8.875   9.177   9.039  0.2515  0.3236 -0.1130
  111MOL0     C15224   8.991   9.250   9.094 -0.1333 -0.7067 -0.7255
  111MOL0    Cl15225   9.073   9.327   8.956  0.4128  0.1922 -0.3346
  111MOL0     C15226   7.931   8.756   9.185  0.3130 -0.1495  0.9036
  111MOL0     C15227   7.804   8.703   9.174  0.7229  0.5872 -1.3920
  111MOL0     O15228   7.562   8.614   9.033  0.4607  0.4218  0.2403
  111MOL0     C15229   7.258   8.684   9.206  0.3252  0.1020  1.3768
  111MOL0     C15230   7.127   8.648   9.218 -0.0455  0.2000 -0.0299
  111MOL0     N15231   6.579   8.079   9.456  0.0099  0.0484 -0.8059
  111MOL0     N15232   6.606   7.952   9.457  0.2318 -0.1097  0.5438
  111MOL0     C15233   5.887   7.452  10.078  1.0351 -0.0730 -0.0447
  111MOL0     C15234   5.782   7.364  10.113  0.3071  0.0242 -0.0579
  111MOL0     C15235   5.518   7.054  10.185  0.7658  0.8177  0.2885
  111MOL0     C15236   5.496   7.055  10.325  0.1515  0.3257  0.0907
  111MOL0     C15237   5.369   7.033  10.373 -0.4636  0.6481 -0.6235
  111MOL0     C15238   5.267   7.001  10.284  0.1987  0.7213  0.2218
  111MOL0     O15239   5.139   6.979  10.339 -0.3250 -0.3558  0.3578
  111MOL0     C15240   5.087   6.850  10.307  0.2900  0.2300 -0.4903
  111MOL0     C15241   5.000   6.804  10.425  0.2380 -0.5056  0.2409
  111MOL0     C15242   4.935   6.675  10.414  0.1094  0.5575  0.1935
  111MOL0     C15243   4.847   6.655  10.291  0.4623 -0.2960 -0.8268
  111MOL0     C15244   4.818   6.515  10.293  0.0320  0.7154  0.9741
  111MOL0     C15245   4.792   6.396  10.321 -0.0219 -0.4663  0.2257
  111MOL0     C15246   5.286   7.004  10.146  0.2959  0.0631 -0.4295
  111MOL0     C15247   5.414   7.029  10.090  0.0360  0.1246  0.2313
  111MOL0     C15248   5.414   7.078   9.948  0.0348 -0.2412  0.9541
  111MOL0     H15249   5.966   7.130  10.269 -0.2153 -0.1107  0.5579
  111MOL0     H15250   6.157   7.293  10.196  0.1694  0.7248 -1.0700
  111MOL0     H15251   6.245   7.359   9.994  0.7785  0.5221  1.7238
  111MOL0     H15252   6.305   7.494  10.086 -1.7096  1.8287  1.2369
  111MOL0     H15253   6.214   7.459   9.805 -1.6890  1.6769 -0.1890
  111MOL0     H15254   6.239   7.620   9.846  0.0706  0.0751 -1.3976
  111MOL0     H15255   6.471   7.610   9.900 -0.9530  0.9517  0.8129
  111MOL0     H15256   6.481   7.435   9.886 -0.6944  1.4873  4.1405
  111MOL0     H15257   6.433   7.477   9.632  3.7088 -0.0660 -0.9208
  111MOL0     H15258   6.387   7.649   9.681 -1.8798 -0.5937 -1.4840
  111MOL0     H15259   6.609   7.602   9.559 -2.7244 -1.4586  0.0106
  111MOL0     H15260   6.666   7.535   9.721 -0.5317 -1.0311  0.1031
  111MOL0     H15261   6.563   7.823   9.689  0.5064 -2.0365 -2.0687
  111MOL0     H15262   6.616   7.747   9.836  1.6829 -3.2317  0.3684
  111MOL0     H15263   6.837   7.695   9.735  3.0222  1.9102  0.2763
  111MOL0     H15264   6.801   7.857   9.759 -1.8658 -0.4431  0.7642
  111MOL0     H15265   6.906   7.843   9.548 -0.6153  2.0232 -0.6212
  111MOL0     H15266   6.769   7.743   9.479 -1.8883  0.6551  0.4666
  111MOL0     H15267   6.878   8.089   9.590 -0.1019 -0.5462 -1.0204
  111MOL0     H15268   6.686   8.357   9.579  2.2470  1.6987 -0.7102
  111MOL0     H15269   6.649   8.334   9.406  2.5460  1.9376  0.6401
  111MOL0     H15270   6.866   8.436   9.441  1.6343  0.9486 -1.3851
  111MOL0     H15271   6.920   8.301   9.536 -1.8135 -1.8473 -1.6933
  111MOL0     H15272   7.031   8.279   9.342  0.1000  1.5444  1.2087
  111MOL0     H15273   6.879   8.173   9.317 -0.1051  0.1623  3.9144
  111MOL0     H15274   6.955   8.307   9.116 -0.8752  0.4305  0.1354
  111MOL0     H15275   6.798   8.362   9.184 -0.3911 -0.5239 -0.0388
  111MOL0     H15276   7.171   8.320   9.142  0.3365  0.1657  0.9288
  111MOL0     H15277   7.439   8.391   8.986  0.0764  2.0320  0.5391
  111MOL0     H15278   7.360   8.264   9.091 -2.0766  0.5864  2.1930
  111MOL0     H15279   7.504   8.346   9.149  0.1138 -2.3036 -1.6514
  111MOL0     H15280   7.637   8.956   9.335  0.2812  2.2432 -3.1847
  111MOL0     H15281   7.855   9.046   9.342 -1.1652 -0.0672 -2.5833
  111MOL0     H15282   8.185   8.848   9.110 -0.6868 -0.9172  0.3863
  111MOL0     H15283   8.131   9.022   9.088  0.3775 -0.6570 -1.2128
  111MOL0     H15284   8.282   9.114   9.253  3.0836  0.6146 -0.9912
  111MOL0     H15285   8.328   8.955   9.298 -0.6587  1.1765 -0.2038
  111MOL0     H15286   8.394   9.078   9.029  1.8148  0.1710 -0.0072
  111MOL0     H15287   8.420   8.910   9.075 -1.6484 -0.1004 -0.7278
  111MOL0     H15288   8.580   8.974   9.250  0.3581  0.8255 -1.0333
  111MOL0     H15289   8.527   9.146   9.244  0.8987  0.1030  1.0972
  111MOL0     H15290   8.700   8.974   9.044 -0.6449 -0.5108  0.8609
  111MOL0     H15291   8.638   9.132   8.998 -1.0926 -0.9853 -0.4488
  111MOL0     H15292   8.826   9.089   9.229  1.0685 -0.0668 -0.0327
  111MOL0     H15293   8.749   9.240   9.195  1.1893  0.7250 -0.8136
  111MOL0     H15294   8.822   9.226   8.957 -0.8060 -1.0894 -0.3059
  111MOL0     H15295   8.902   9.077   9.002 -0.7197 -0.6589  1.6859
  111MOL0     H15296   9.065   9.177   9.129 -0.8596 -1.0899  0.0549
  111MOL0     H15297   8.965   9.326   9.169  0.4593 -0.2489 -0.9686
  111MOL0     H15298   8.014   8.701   9.143  1.1149  1.4654  0.2742
  111MOL0     H15299   7.782   8.612   9.119 -0.6312  0.8770 -1.3677
  111MOL0     H15300   7.286   8.787   9.226  0.3611  0.0924  1.3730
  111MOL0     H15301   7.058   8.732   9.225 -0.7014 -0.1006 -2.0513
  111MOL0     H15302   5.856   7.536  10.017  1.7683  0.5972  0.4835
  111MOL0     H15303   5.678   7.390  10.098 -0.0835 -1.7245 -0.5819
  111MOL0     H15304   5.572   7.102  10.386  0.7809 -1.0436  0.4235
  111MOL0     H15305   5.343   7.041  10.478  0.2495  2.5852 -0.5567
  111MOL0     H15306   5.025   6.857  10.217  1.0790 -1.9084 -1.2456
  111MOL0     H15307   5.161   6.770  10.297 -3.1619 -3.4430  0.4327
  111MOL0     H15308   4.930   6.887  10.433 -0.7792 -1.2035 -1.0013
  111MOL0     H15309   5.044   6.806  10.525 -0.8862 -1.0980  0.7613
  111MOL0     H15310   5.006   6.592  10.425  0.8200  0.6173 -3.0158
  111MOL0     H15311   4.869   6.676  10.501 -0.0902  4.7831  0.2079
  111MOL0     H15312   4.888   6.693  10.197 -2.8722  0.4219 -2.1169
  111MOL0     H15313   4.760   6.716  10.316  1.7030  0.3992  2.2960
  111MOL0     H15314   4.752   6.298  10.337 -1.2271 -0.1529 -0.7210
  111MOL0     H15315   5.198   6.987  10.084  0.7660  1.8929 -1.6666
  111MOL0     H15316   5.449   7.180   9.961  5.1234 -1.8410  2.0319
  111MOL0     H15317   5.473   7.007   9.889  1.2310  0.3648  1.3805
  111MOL0     H15318   5.314   7.078   9.904  1.0228 -2.2631 -1.5695
  112MOL0     O15319   1.260   8.219   4.692 -0.0836  0.6404 -0.4278
  112MOL0     C15320   1.332   8.244   4.593 -0.5142 -0.3554 -0.5780
  112MOL0     O15321   1.446   8.179   4.566 -0.5070 -0.1836  0.2005
  112MOL0     C15322   1.478   8.064   4.630 -0.5901 -0.3884  0.0914
  112MOL0     C15323   1.503   8.055   4.772 -0.1968 -0.7163 -1.5511
  112MOL0     C15324   1.573   7.950   4.834 -0.2942  0.7840 -0.3025
  112MOL0     C15325   1.615   7.837   4.754 -0.8125  0.3616  0.0981
  112MOL0     O15326   1.657   7.717   4.814  0.0342  0.4979  0.3574
  112MOL0     C15327   1.665   7.597   4.734 -0.3556 -1.2019  0.3760
  112MOL0     C15328   1.810   7.568   4.695 -1.6399  0.5683 -0.8155
  112MOL0     C15329   1.905   7.558   4.830 -0.9173  1.1811 -0.0056
  112MOL0     C15330   1.868   7.435   4.920  0.7276  0.4321  0.2935
  112MOL0     C15331   1.972   7.385   5.006  1.6816  0.1854 -0.0049
  112MOL0     C15332   1.923   7.268   5.092  0.3693  0.1689  1.0266
  112MOL0     C15333   2.035   7.195   5.166 -0.3116 -0.0364 -0.0376
  112MOL0     C15334   2.085   7.269   5.290  0.0931 -0.5705  0.1181
  112MOL0     N15335   1.984   7.285   5.398 -0.3885  0.3157  0.1401
  112MOL0     C15336   1.957   7.183   5.491  0.0024 -0.2719  0.1793
  112MOL0     C15337   1.847   7.227   5.561 -0.4987  0.0253  0.1621
  112MOL0     C15338   1.800   7.167   5.699  0.7125  0.3094  0.7839
  112MOL0     C15339   1.665   7.093   5.677 -0.1206  0.5207 -0.3964
  112MOL0     C15340   1.615   7.016   5.804 -0.7089  0.6647 -0.8684
  112MOL0     C15341   1.687   7.071   5.946 -0.1346  0.1238  0.6188
  112MOL0     O15342   1.631   7.190   5.984  0.2605 -0.1443  0.3830
  112MOL0     C15343   1.641   7.241   6.108 -0.4013  0.3023  0.2305
  112MOL0     C15344   1.572   7.356   6.132 -0.3524  0.3330 -0.0849
  112MOL0     C15345   1.580   7.425   6.251 -0.4729  1.3720  0.6338
  112MOL0     C15346   1.484   7.542   6.270 -1.3021  0.2891  0.7216
  112MOL0     C15347   1.661   7.370   6.351 -0.1135  0.0641  0.3656
  112MOL0     C15348   1.680   7.425   6.492  0.0338 -0.7120 -0.0339
  112MOL0     O15349   1.570   7.474   6.553  0.4675  0.3126 -0.0308
  112MOL0     C15350   1.584   7.531   6.676  0.2606  0.3526 -0.3346
  112MOL0     C15351   1.585   7.674   6.685 -1.4549 -0.7870 -0.1710
  112MOL0     C15352   1.616   7.738   6.800  0.3469 -0.7908 -0.0253
  112MOL0     C15353   1.630   7.660   6.918  0.6287  0.3517  0.1967
  112MOL0     O15354   1.673   7.716   7.036  0.2747  0.9866 -0.6099
  112MOL0     C15355   1.755   7.834   7.028 -0.1232 -0.3153 -0.6247
  112MOL0     C15356   1.687   7.951   7.101 -0.8242 -0.1701  0.4001
  112MOL0     C15357   1.555   8.005   7.049 -0.6404 -0.3883  0.7747
  112MOL0     C15358   1.567   8.121   6.952  0.2524  0.7530  0.4300
  112MOL0     C15359   1.435   8.204   6.945 -0.2045  0.5308  0.0686
  112MOL0     C15360   1.306   8.121   6.889 -0.8179  1.3267  0.0232
  112MOL0     C15361   1.185   8.205   6.872  0.2300 -0.9864  0.2136
  112MOL0     C15362   1.050   8.128   6.852  0.3297 -0.0681 -1.1419
  112MOL0    Cl15363   1.007   8.062   7.017 -0.5422 -0.2254 -0.0340
  112MOL0     C15364   1.624   7.525   6.912  1.1109 -0.4867 -0.8632
  112MOL0     C15365   1.591   7.454   6.797  1.5800 -1.3164  0.2661
  112MOL0     O15366   1.796   7.426   6.533 -0.9810  0.1233 -0.1988
  112MOL0     C15367   1.742   7.265   6.319 -0.1484 -0.1722  0.8512
  112MOL0     C15368   1.747   7.198   6.196 -0.6323  0.4014  0.6073
  112MOL0     N15369   1.825   7.362   5.514 -0.2122  0.0032  0.2881
  112MOL0     N15370   1.909   7.396   5.419  0.0151  0.0047 -0.2789
  112MOL0     C15371   1.608   7.855   4.608  0.7104 -0.2499 -1.0559
  112MOL0     C15372   1.542   7.967   4.556 -0.2769 -0.1796  0.0961
  112MOL0     C15373   1.286   8.362   4.506  0.7126 -1.1874  0.0187
  112MOL0     C15374   1.208   8.459   4.566  1.1032  0.4707 -0.3068
  112MOL0     C15375   1.166   8.573   4.495 -0.4712 -0.1982 -0.0610
  112MOL0     C15376   1.204   8.597   4.371 -0.3311 -0.4867 -0.0499
  112MOL0     O15377   1.156   8.710   4.305  0.6503  0.4497 -0.4371
  112MOL0     C15378   1.055   8.690   4.202  0.1370 -0.6222 -0.0810
  112MOL0     C15379   0.911   8.688   4.254  0.3201  0.6037 -0.4060
  112MOL0     C15380   0.854   8.818   4.320  1.0568 -0.1104  0.2365
  112MOL0     C15381   0.892   8.836   4.465  0.1878  0.4821 -1.1334
  112MOL0     C15382   0.835   8.966   4.504  0.1741 -0.0576  0.5914
  112MOL0     C15383   0.802   9.073   4.549 -0.3814 -0.0458  0.4486
  112MOL0     C15384   1.294   8.505   4.309 -0.4830 -0.2457  0.2149
  112MOL0     C15385   1.322   8.381   4.369 -0.8016  0.4204  0.7219
  112MOL0     C15386   1.410   8.281   4.299  0.2265 -0.6370 -0.0885
  112MOL0     H15387   1.462   8.132   4.838 -1.5991 -1.1287 -1.8971
  112MOL0     H15388   1.575   7.934   4.941  0.2452 -0.0233 -0.4224
  112MOL0     H15389   1.608   7.610   4.642 -1.8271  2.1721  1.5865
  112MOL0     H15390   1.607   7.522   4.788 -1.2776 -0.7211  0.0772
  112MOL0     H15391   1.812   7.472   4.643 -1.9309  0.8462 -1.3474
  112MOL0     H15392   1.855   7.631   4.618  1.1268  0.3352  0.4757
  112MOL0     H15393   2.009   7.554   4.795 -1.1409 -2.5153 -0.6500
  112MOL0     H15394   1.886   7.643   4.898 -1.7197  0.3525  0.8375
  112MOL0     H15395   1.784   7.451   4.988  0.4522 -3.7972  1.2171
  112MOL0     H15396   1.833   7.351   4.859  0.6528 -0.6930  1.8220
  112MOL0     H15397   1.984   7.470   5.074  2.5421 -1.0574  1.4750
  112MOL0     H15398   2.064   7.366   4.950  0.4316  1.6980 -2.7766
  112MOL0     H15399   1.841   7.300   5.157 -2.1243 -1.5807 -1.0493
  112MOL0     H15400   1.883   7.194   5.023  0.7993  1.9407 -1.2651
  112MOL0     H15401   2.123   7.175   5.105  2.0438  0.2366  3.0392
  112MOL0     H15402   2.009   7.094   5.196  1.3494 -0.4893 -0.0112
  112MOL0     H15403   2.176   7.242   5.344  0.9822 -2.5074 -2.1612
  112MOL0     H15404   2.114   7.368   5.254  2.5872 -1.4022 -0.3144
  112MOL0     H15405   2.011   7.089   5.502 -0.7836 -0.9570 -1.4700
  112MOL0     H15406   1.786   7.243   5.777 -2.7082  2.2564 -1.4833
  112MOL0     H15407   1.886   7.111   5.737  2.0017  1.9767  0.4781
  112MOL0     H15408   1.593   7.167   5.642 -1.8078  0.0831  1.9222
  112MOL0     H15409   1.667   7.016   5.599 -1.2182 -1.7270  1.6247
  112MOL0     H15410   1.508   7.026   5.824 -0.5998  1.3065 -0.5751
  112MOL0     H15411   1.631   6.908   5.794 -2.5899  0.1105  1.2818
  112MOL0     H15412   1.671   6.992   6.020  0.1355  0.9135  1.5392
  112MOL0     H15413   1.793   7.072   5.920 -0.0216  0.1933  1.0914
  112MOL0     H15414   1.491   7.378   6.063 -0.5303  0.9422  0.3090
  112MOL0     H15415   1.512   7.600   6.358  2.8530 -3.3650  2.1880
  112MOL0     H15416   1.379   7.512   6.278 -1.5202  0.8393 -0.0464
  112MOL0     H15417   1.480   7.602   6.179 -4.6888 -1.2712 -0.3548
  112MOL0     H15418   1.570   7.736   6.598 -2.6137  0.1358  0.6626
  112MOL0     H15419   1.618   7.846   6.791  0.3429 -0.9308 -2.5014
  112MOL0     H15420   1.853   7.818   7.073 -1.1099 -0.5279  1.5974
  112MOL0     H15421   1.766   7.871   6.925 -1.5227 -2.2522 -1.5474
  112MOL0     H15422   1.676   7.913   7.203  0.7161  0.8212  0.9587
  112MOL0     H15423   1.765   8.026   7.103 -1.3432  0.4374 -0.8386
  112MOL0     H15424   1.503   8.040   7.139 -0.3798 -0.6881  1.0433
  112MOL0     H15425   1.502   7.926   6.995 -0.8459  0.2816 -0.0285
  112MOL0     H15426   1.592   8.079   6.854  1.0333  1.0769  0.4810
  112MOL0     H15427   1.649   8.188   6.979  0.9755 -0.0951  0.3931
  112MOL0     H15428   1.414   8.251   7.042  0.3847 -0.1471  0.5352
  112MOL0     H15429   1.459   8.286   6.877 -0.5032  0.5151 -0.0567
  112MOL0     H15430   1.292   8.036   6.956  3.0044  0.4215 -0.1534
  112MOL0     H15431   1.327   8.082   6.789 -0.1785 -0.5854  0.8608
  112MOL0     H15432   1.208   8.268   6.786 -1.8079 -0.3302  0.0967
  112MOL0     H15433   1.168   8.268   6.960 -2.4136 -0.0765 -0.8525
  112MOL0     H15434   1.066   8.037   6.793  4.5712 -0.4649  0.2549
  112MOL0     H15435   0.968   8.187   6.811 -0.5938 -1.2698 -1.0764
  112MOL0     H15436   1.638   7.462   6.999 -3.6022 -0.3870  0.2378
  112MOL0     H15437   1.570   7.348   6.794  1.2513 -1.2248 -1.1056
  112MOL0     H15438   1.808   7.232   6.399 -1.0977 -2.2871  0.8294
  112MOL0     H15439   1.821   7.125   6.167 -0.1786  0.1508  2.3309
  112MOL0     H15440   1.673   7.796   4.544 -2.5352 -0.7707 -4.2078
  112MOL0     H15441   1.544   7.988   4.450  0.5274  0.3542  0.2094
  112MOL0     H15442   1.191   8.454   4.673 -2.3987 -0.2230 -0.7897
  112MOL0     H15443   1.118   8.652   4.552  0.5239  2.2255 -2.3631
  112MOL0     H15444   1.061   8.770   4.128 -0.7152  0.1891  0.7014
  112MOL0     H15445   1.079   8.596   4.153  1.3648 -0.1283 -0.4608
  112MOL0     H15446   0.897   8.603   4.321 -0.1389  0.9839 -0.0162
  112MOL0     H15447   0.853   8.665   4.164 -0.2624  1.3979 -0.2421
  112MOL0     H15448   0.876   8.903   4.255 -2.2868 -0.6351 -1.8327
  112MOL0     H15449   0.745   8.813   4.309  0.9049  3.7535 -1.9054
  112MOL0     H15450   1.001   8.843   4.462  0.1268  1.0947 -3.3326
  112MOL0     H15451   0.850   8.752   4.523 -0.0294  1.7992  0.7015
  112MOL0     H15452   0.775   9.169   4.590 -1.0605 -1.7243  4.3666
  112MOL0     H15453   1.317   8.528   4.205  1.1749 -0.5845  0.4773
  112MOL0     H15454   1.398   8.304   4.192  2.2565  1.9025  0.1280
  112MOL0     H15455   1.514   8.285   4.332 -0.1968 -4.2479  2.1731
  112MOL0     H15456   1.388   8.177   4.325  1.9050 -0.8981  0.3737
  113MOL0     O15457   1.824  10.966   4.219  0.1155  0.4169  0.2877
  113MOL0     C15458   1.817  10.973   4.346  0.1950  0.0773  0.5929
  113MOL0     O15459   1.825  11.094   4.411  0.5034  0.2723 -0.1885
  113MOL0     C15460   1.851  11.221   4.351  0.1414  0.0687  0.6145
  113MOL0     C15461   1.765  11.277   4.246  0.6163 -0.2141 -0.0300
  113MOL0     C15462   1.796  11.411   4.203 -0.5616  0.2380 -0.1120
  113MOL0     C15463   1.898  11.488   4.263  0.1426 -0.4987 -0.0183
  113MOL0     O15464   1.921  11.605   4.214  0.4014 -0.2071  0.8143
  113MOL0     C15465   2.050  11.661   4.219 -0.6367 -0.5172 -0.3678
  113MOL0     C15466   2.057  11.785   4.142  0.1370  0.3252  0.1006
  113MOL0     C15467   2.020  11.761   3.998  0.7992 -0.8819  0.1496
  113MOL0     C15468   2.106  11.845   3.907 -0.6930  0.2744  0.3446
  113MOL0     C15469   2.070  11.821   3.752  0.1957  1.0381 -0.9516
  113MOL0     C15470   2.184  11.786   3.657 -0.3677 -0.1060 -0.5469
  113MOL0     C15471   2.249  11.655   3.701 -0.4087  0.1258  0.2099
  113MOL0     C15472   2.348  11.618   3.595 -0.1864 -0.9588 -0.1180
  113MOL0     N15473   2.466  11.705   3.580 -0.5743 -0.7575 -0.3233
  113MOL0     C15474   2.569  11.718   3.670 -0.6561 -0.3979  0.4268
  113MOL0     C15475   2.666  11.792   3.616  0.2996  0.8736 -0.0822
  113MOL0     C15476   2.797  11.844   3.682 -0.1811 -0.2974 -0.0483
  113MOL0     C15477   2.890  11.900   3.577 -0.0564 -0.1494  0.2544
  113MOL0     C15478   3.004  11.978   3.629  0.5276 -0.6821  0.0389
  113MOL0     C15479   3.107  12.038   3.540  0.8341 -0.1373 -0.1070
  113MOL0     O15480   3.158  11.942   3.449  0.2016  0.1755  0.9095
  113MOL0     C15481   3.114  11.950   3.318 -0.5739 -0.3208  0.5029
  113MOL0     C15482   3.098  11.834   3.241 -0.2691 -0.1825 -0.0257
  113MOL0     C15483   3.073  11.828   3.103 -0.2544 -0.1242 -0.3452
  113MOL0     C15484   3.091  11.691   3.047  0.0104 -0.7046  0.8046
  113MOL0     C15485   3.059  11.950   3.031 -0.9572  0.2642  0.3293
  113MOL0     C15486   3.041  11.956   2.885  0.6928 -0.4948  0.2535
  113MOL0     O15487   2.983  11.848   2.836  0.3391 -0.0825 -0.1012
  113MOL0     C15488   2.874  11.870   2.749  0.2247 -0.5818 -0.1367
  113MOL0     C15489   2.786  11.976   2.779  0.9648 -0.5852 -0.4149
  113MOL0     C15490   2.667  11.984   2.699 -0.2721  0.1903  0.1609
  113MOL0     C15491   2.638  11.894   2.595  0.4852 -0.4663 -0.4347
  113MOL0     O15492   2.537  11.910   2.504 -0.3720 -0.1495  0.5745
  113MOL0     C15493   2.446  12.016   2.507  0.9923 -0.7550  0.1651
  113MOL0     C15494   2.326  11.983   2.597  0.1383 -0.2999 -0.6396
  113MOL0     C15495   2.211  11.906   2.521 -1.3374 -0.1222  0.6133
  113MOL0     C15496   2.106  11.859   2.617 -0.4682 -0.2584 -0.2672
  113MOL0     C15497   1.979  11.944   2.612 -0.5069 -0.1393 -0.2580
  113MOL0     C15498   1.915  11.928   2.754  1.0520  0.2637  0.4372
  113MOL0     C15499   1.770  11.978   2.770  0.2640 -0.2621  0.2036
  113MOL0     C15500   1.703  11.939   2.904 -0.9207 -1.1132 -0.1084
  113MOL0    Cl15501   1.772  12.048   3.038  0.3574 -0.0098 -0.1974
  113MOL0     C15502   2.722  11.794   2.577 -0.2784 -0.0051  0.8125
  113MOL0     C15503   2.840  11.784   2.652 -0.1692  0.7310  0.2351
  113MOL0     O15504   3.073  12.053   2.818  0.2094  0.0229 -0.1860
  113MOL0     C15505   3.058  12.078   3.108  0.7707  0.6713  0.0666
  113MOL0     C15506   3.094  12.072   3.249 -0.0020  0.0909  0.7343
  113MOL0     N15507   2.621  11.831   3.495  0.8985  1.1176  0.5995
  113MOL0     N15508   2.507  11.772   3.472 -0.6398  0.2240  0.3351
  113MOL0     C15509   1.991  11.419   4.357 -0.0397 -1.0912  0.2454
  113MOL0     C15510   1.969  11.290   4.393 -0.3306  0.0745 -0.1732
  113MOL0     C15511   1.792  10.842   4.406 -0.6480 -0.5710 -0.1806
  113MOL0     C15512   1.705  10.752   4.344  0.1827  0.0459 -0.0781
  113MOL0     C15513   1.687  10.621   4.394 -0.4610  0.4759 -0.8530
  113MOL0     C15514   1.750  10.579   4.513 -0.4143  0.8193  0.2686
  113MOL0     O15515   1.702  10.450   4.563 -0.0207  0.2864  1.1594
  113MOL0     C15516   1.793  10.380   4.655  0.1427 -0.1775 -0.1878
  113MOL0     C15517   1.783  10.433   4.800 -0.7384  0.5488  0.2928
  113MOL0     C15518   1.921  10.447   4.871 -0.5365 -0.5255 -0.1794
  113MOL0     C15519   1.898  10.527   4.997 -0.3162  0.0690  0.4353
  113MOL0     C15520   1.877  10.664   4.968  0.1236  0.6626 -1.3264
  113MOL0     C15521   1.844  10.776   4.961 -0.4864  0.7459  0.9783
  113MOL0     C15522   1.821  10.677   4.582 -0.4153 -0.1833  0.1368
  113MOL0     C15523   1.855  10.811   4.530 -0.8170  0.2645  0.6487
  113MOL0     C15524   1.959  10.894   4.607 -1.0518 -0.8362  0.6771
  113MOL0     H15525   1.682  11.228   4.195  0.1936  1.8930 -1.4928
  113MOL0     H15526   1.743  11.462   4.123 -1.5110 -0.4026  0.0843
  113MOL0     H15527   2.120  11.588   4.176  2.3290  2.7199 -1.5000
  113MOL0     H15528   2.096  11.690   4.313  3.0267  0.9308 -2.4228
  113MOL0     H15529   2.013  11.875   4.185  2.5119  0.1735  3.1303
  113MOL0     H15530   2.164  11.805   4.140  0.3478 -0.2556 -4.3958
  113MOL0     H15531   2.046  11.661   3.961  1.8614 -1.5636  2.5328
  113MOL0     H15532   1.917  11.787   3.970  0.4224  0.1324  2.2957
  113MOL0     H15533   2.082  11.946   3.942 -0.8385 -0.3896  2.2530
  113MOL0     H15534   2.212  11.829   3.926 -0.9309 -0.3628  1.1935
  113MOL0     H15535   2.029  11.915   3.715  1.0417  1.7772 -0.0650
  113MOL0     H15536   2.003  11.734   3.744 -1.3096  1.9581  0.8505
  113MOL0     H15537   2.153  11.770   3.554  2.4455 -3.4543 -1.0705
  113MOL0     H15538   2.258  11.864   3.642  2.4878 -2.8556 -1.8497
  113MOL0     H15539   2.172  11.579   3.719 -1.4768  0.3396 -2.8313
  113MOL0     H15540   2.305  11.673   3.793  0.8434  1.1681 -0.7253
  113MOL0     H15541   2.403  11.526   3.619  2.2372  0.1933 -0.8506
  113MOL0     H15542   2.295  11.612   3.500 -1.8142  1.7966  0.5145
  113MOL0     H15543   2.567  11.678   3.771  0.1625 -2.5193 -0.3293
  113MOL0     H15544   2.857  11.765   3.727  1.4598  0.8662 -0.0907
  113MOL0     H15545   2.765  11.918   3.755  1.9006  1.4758 -0.8325
  113MOL0     H15546   2.921  11.820   3.510 -0.6367 -0.6202  0.5484
  113MOL0     H15547   2.827  11.976   3.529 -1.9224 -1.1241  1.0815
  113MOL0     H15548   2.959  12.065   3.677 -1.4289 -0.9218 -1.2364
  113MOL0     H15549   3.070  11.924   3.697  2.8010 -1.0072 -2.2700
  113MOL0     H15550   3.050  12.117   3.491 -0.2650  2.0066  4.1520
  113MOL0     H15551   3.187  12.087   3.596  0.6748  0.8198 -0.7015
  113MOL0     H15552   3.111  11.744   3.299 -1.8258  0.6027  1.6477
  113MOL0     H15553   2.999  11.650   3.005 -1.1532 -2.9773  5.0780
  113MOL0     H15554   3.115  11.607   3.112  1.2359 -0.5135  0.6398
  113MOL0     H15555   3.163  11.701   2.965  1.1886  2.7129  2.0362
  113MOL0     H15556   2.802  12.038   2.866  2.7488 -1.4944 -0.0576
  113MOL0     H15557   2.604  12.071   2.719  2.0725  1.7748  1.1223
  113MOL0     H15558   2.497  12.105   2.546  1.6338 -0.7379 -0.6635
  113MOL0     H15559   2.399  12.049   2.413  1.1272 -0.0346  0.3452
  113MOL0     H15560   2.364  11.916   2.674 -2.2587 -3.6901 -2.1706
  113MOL0     H15561   2.276  12.070   2.641 -1.5474  0.1307 -3.1703
  113MOL0     H15562   2.248  11.819   2.466 -0.3212  1.3380 -1.0897
  113MOL0     H15563   2.176  11.976   2.445 -2.1160  2.5756  3.2507
  113MOL0     H15564   2.149  11.862   2.717 -2.5230  0.9890  0.6395
  113MOL0     H15565   2.080  11.756   2.594  1.1376 -0.7143 -0.1646
  113MOL0     H15566   2.011  12.048   2.603 -3.2093  0.9981  1.7598
  113MOL0     H15567   1.923  11.907   2.525  1.8309  0.1885 -2.0039
  113MOL0     H15568   1.975  11.979   2.830  0.1251  1.8521  0.1444
  113MOL0     H15569   1.915  11.822   2.780 -1.4429  0.7857  3.0572
  113MOL0     H15570   1.710  11.928   2.693 -0.4273 -0.1766  0.6848
  113MOL0     H15571   1.785  12.083   2.746  1.0964  0.1608  2.3652
  113MOL0     H15572   1.716  11.834   2.931 -1.0403 -1.0705  0.1216
  113MOL0     H15573   1.598  11.967   2.891 -1.0027 -2.2513 -2.2621
  113MOL0     H15574   2.717  11.728   2.491  2.8734 -0.5149  0.9085
  113MOL0     H15575   2.914  11.705   2.653 -0.4126  0.4773 -1.0090
  113MOL0     H15576   3.025  12.169   3.059 -1.2070  0.7741  1.4712
  113MOL0     H15577   3.109  12.166   3.299 -1.1817  1.6761 -1.6649
  113MOL0     H15578   2.082  11.464   4.397 -0.1262 -2.1691  1.7290
  113MOL0     H15579   2.028  11.245   4.471 -0.2753 -1.5507 -1.1061
  113MOL0     H15580   1.654  10.782   4.254 -1.1830  2.1382  1.3040
  113MOL0     H15581   1.629  10.545   4.342  0.9103 -0.8480 -0.5259
  113MOL0     H15582   1.772  10.273   4.649  2.5096 -0.7549  0.5663
  113MOL0     H15583   1.885  10.399   4.599  1.1257 -3.0013  0.2808
  113MOL0     H15584   1.732  10.355   4.857  0.3064 -0.7531 -0.5044
  113MOL0     H15585   1.720  10.522   4.801 -0.1762  0.9623 -0.2529
  113MOL0     H15586   1.973  10.353   4.893 -0.2298 -0.1117  0.9459
  113MOL0     H15587   1.990  10.500   4.804  0.7752 -1.3780  0.4522
  113MOL0     H15588   1.987  10.524   5.059 -0.1063  2.0081  0.2777
  113MOL0     H15589   1.803  10.496   5.041 -1.7434 -4.8216 -4.8350
  113MOL0     H15590   1.807  10.877   4.955 -0.5938  0.6783  0.4967
  113MOL0     H15591   1.853  10.656   4.684 -2.1889  1.8523  1.2050
  113MOL0     H15592   2.028  10.814   4.635  0.0801 -1.1172 -2.4481
  113MOL0     H15593   2.013  10.970   4.550  0.3900 -2.1445  0.2093
  113MOL0     H15594   1.917  10.947   4.692  0.9883  0.7491  0.7768
  114MOL0     O15595  10.912   8.693   5.585 -0.5832  0.4695  0.0427
  114MOL0     C15596  11.037   8.702   5.569  0.5141 -0.2294 -0.8863
  114MOL0     O15597  11.095   8.717   5.445 -0.5140 -0.1003 -0.0890
  114MOL0     C15598  11.015   8.710   5.334 -0.0046 -0.0392 -0.3905
  114MOL0     C15599  10.980   8.828   5.276  0.2710 -0.1425  0.4947
  114MOL0     C15600  10.881   8.821   5.177 -0.0923 -0.1442  0.6410
  114MOL0     C15601  10.833   8.708   5.114  0.9492 -0.0927  0.7582
  114MOL0     O15602  10.744   8.718   5.017  0.4772 -0.2690  0.1951
  114MOL0     C15603  10.746   8.623   4.908 -0.3035 -0.6540  0.5810
  114MOL0     C15604  10.638   8.510   4.927  0.3444  0.5433 -0.9138
  114MOL0     C15605  10.669   8.396   4.828  0.4747 -0.1489  0.3037
  114MOL0     C15606  10.558   8.297   4.783  0.1472  0.4660 -0.9933
  114MOL0     C15607  10.626   8.161   4.784  0.0720  0.7449  0.1703
  114MOL0     C15608  10.534   8.043   4.757 -0.3568 -0.4316 -0.4437
  114MOL0     C15609  10.616   7.907   4.745  0.9150 -0.3460  0.8410
  114MOL0     C15610  10.524   7.811   4.678  0.4001 -0.1194  0.6332
  114MOL0     N15611  10.602   7.688   4.628 -0.1161  0.1019 -0.0026
  114MOL0     C15612  10.664   7.665   4.503 -0.2025  0.4347 -0.4503
  114MOL0     C15613  10.738   7.559   4.516 -0.3730  0.4658  0.7532
  114MOL0     C15614  10.826   7.497   4.408 -0.3935 -0.1087  0.0766
  114MOL0     C15615  10.958   7.577   4.379 -0.3116  0.2090  0.0135
  114MOL0     C15616  10.939   7.721   4.352 -0.2624 -0.4257  1.0110
  114MOL0     C15617  11.034   7.779   4.249  0.6567 -0.6027  0.2870
  114MOL0     O15618  11.060   7.714   4.122 -0.2870 -0.9233 -0.0678
  114MOL0     C15619  11.028   7.800   4.021  0.0754  1.2831 -0.4451
  114MOL0     C15620  10.919   7.767   3.935  0.0605  0.1966  1.4101
  114MOL0     C15621  10.880   7.845   3.830 -0.0892  0.0318 -1.1253
  114MOL0     C15622  10.767   7.784   3.742  0.1373 -0.4405  1.3434
  114MOL0     C15623  10.963   7.958   3.793  0.1490 -0.3054 -0.2706
  114MOL0     C15624  10.950   8.042   3.673  0.0949 -0.4438  0.3105
  114MOL0     O15625  10.840   8.025   3.594  0.2536 -0.2969  0.0002
  114MOL0     C15626  10.852   8.039   3.459 -0.3757  0.4180  0.6748
  114MOL0     C15627  10.738   8.098   3.386 -0.5858  0.0539  0.5365
  114MOL0     C15628  10.747   8.123   3.247 -0.4034 -0.0559  0.0899
  114MOL0     C15629  10.859   8.091   3.174  0.1843 -1.3971  0.0796
  114MOL0     O15630  10.872   8.096   3.038 -0.1352  0.5131  0.3894
  114MOL0     C15631  10.845   8.218   2.969  0.2541 -0.4251 -0.3342
  114MOL0     C15632  10.789   8.182   2.828  0.1969  0.7710  0.2450
  114MOL0     C15633  10.701   8.298   2.771 -0.0748  0.2590 -0.7371
  114MOL0     C15634  10.784   8.422   2.745 -1.0189 -0.5272  0.3392
  114MOL0     C15635  10.704   8.543   2.785  0.3467 -0.4748 -0.5858
  114MOL0     C15636  10.756   8.676   2.740 -0.7198  0.7065 -0.1670
  114MOL0     C15637  10.684   8.800   2.792 -0.3380 -0.4766  0.2875
  114MOL0     C15638  10.750   8.940   2.742 -0.0405  0.0929 -0.7676
  114MOL0    Cl15639  10.651   9.076   2.808  0.0933  0.1265  0.5099
  114MOL0     C15640  10.964   8.041   3.245  0.2762 -0.9762 -0.9251
  114MOL0     C15641  10.958   8.008   3.382  0.1015 -0.9989 -0.8538
  114MOL0     O15642  11.015   8.140   3.660 -0.4443 -0.5112 -0.9072
  114MOL0     C15643  11.075   7.990   3.877  0.1792  0.3215 -0.5716
  114MOL0     C15644  11.104   7.907   3.987 -0.9608 -0.0597 -0.1316
  114MOL0     N15645  10.725   7.503   4.650 -0.5780 -0.1427  0.4894
  114MOL0     N15646  10.643   7.586   4.713 -0.1453 -1.5533  0.2840
  114MOL0     C15647  10.875   8.587   5.174 -0.1504 -0.0480  0.0840
  114MOL0     C15648  10.960   8.591   5.297  0.5819  0.3989 -0.2601
  114MOL0     C15649  11.127   8.707   5.692  0.5549  0.3553  0.2429
  114MOL0     C15650  11.267   8.711   5.656 -0.3533  0.0499 -1.1361
  114MOL0     C15651  11.361   8.707   5.755  0.2346 -0.1824  0.5802
  114MOL0     C15652  11.327   8.700   5.890 -0.0822  1.0253 -0.1399
  114MOL0     O15653  11.419   8.696   5.987  0.3038 -0.1728 -0.6442
  114MOL0     C15654  11.451   8.819   6.047  0.1549 -0.3866 -0.3732
  114MOL0     C15655  11.552   8.882   5.953 -0.1709  0.2673 -0.0548
  114MOL0     C15656  11.611   9.006   6.015 -0.5357 -0.5510 -0.4471
  114MOL0     C15657  11.647   9.112   5.911  0.5211 -0.3990 -0.5394
  114MOL0     C15658  11.730   9.207   5.986  0.1352  0.2617  0.1560
  114MOL0     C15659  11.786   9.272   6.067  0.0089  0.8047 -0.6867
  114MOL0     C15660  11.195   8.672   5.917 -0.1891 -1.2776 -0.2190
  114MOL0     C15661  11.089   8.686   5.829  0.5287 -1.1769  0.3714
  114MOL0     C15662  10.949   8.670   5.886 -0.8631  0.2520 -0.3695
  114MOL0     H15663  11.026   8.922   5.304  1.0516  0.0171 -1.1597
  114MOL0     H15664  10.848   8.913   5.131 -1.8463 -1.3003 -0.5253
  114MOL0     H15665  10.850   8.589   4.895  0.3884  1.9746 -1.6933
  114MOL0     H15666  10.722   8.684   4.820  1.1049  0.1406  0.7252
  114MOL0     H15667  10.626   8.467   5.027  0.9515 -1.6622 -1.7307
  114MOL0     H15668  10.542   8.551   4.895  0.7827  2.0247 -0.4278
  114MOL0     H15669  10.729   8.428   4.742 -1.1440  0.7654 -0.5215
  114MOL0     H15670  10.743   8.343   4.889  1.0651  2.5348  2.0940
  114MOL0     H15671  10.471   8.301   4.850  0.6803  0.3277 -0.2789
  114MOL0     H15672  10.524   8.319   4.682 -0.8157 -0.2388 -0.8415
  114MOL0     H15673  10.672   8.140   4.880 -1.4411 -0.6880  0.6234
  114MOL0     H15674  10.717   8.163   4.723  0.4675 -0.7933  0.6769
  114MOL0     H15675  10.462   8.031   4.839 -1.5863  2.0738 -1.0531
  114MOL0     H15676  10.476   8.078   4.672  0.8798  3.0630 -0.0417
  114MOL0     H15677  10.653   7.862   4.838  1.6431 -2.6518 -0.4593
  114MOL0     H15678  10.706   7.916   4.683 -0.9801  1.4307 -1.8730
  114MOL0     H15679  10.452   7.761   4.744 -0.4964  1.0659  0.5802
  114MOL0     H15680  10.473   7.858   4.593  2.0762  2.4605  0.9710
  114MOL0     H15681  10.680   7.742   4.428  3.8324  1.6938  1.4249
  114MOL0     H15682  10.762   7.503   4.319 -3.6865  4.5960  2.3041
  114MOL0     H15683  10.860   7.398   4.438  1.9772  0.1163 -1.5703
  114MOL0     H15684  11.023   7.571   4.467 -0.0744 -2.5233 -0.2746
  114MOL0     H15685  11.002   7.535   4.287 -1.3270  2.0468 -1.3861
  114MOL0     H15686  10.839   7.739   4.313  1.2373  0.3292 -2.9170
  114MOL0     H15687  10.952   7.769   4.450 -0.1730  0.6813  0.4695
  114MOL0     H15688  11.003   7.882   4.234  0.1983 -0.6612  0.8060
  114MOL0     H15689  11.128   7.773   4.305  1.7137 -3.5860 -1.5636
  114MOL0     H15690  10.871   7.671   3.957  0.2895  0.1642  1.7686
  114MOL0     H15691  10.672   7.836   3.755  1.8403  2.8694  1.6254
  114MOL0     H15692  10.745   7.680   3.766 -1.2654 -0.8504 -1.2988
  114MOL0     H15693  10.793   7.788   3.636  0.2302 -3.1218  1.1952
  114MOL0     H15694  10.647   8.131   3.435  0.0011 -0.0573  1.7190
  114MOL0     H15695  10.656   8.158   3.201 -1.2496 -0.7338  1.1716
  114MOL0     H15696  10.778   8.286   3.023  0.4558 -0.0333 -0.5712
  114MOL0     H15697  10.937   8.273   2.946 -1.2657  1.5256 -2.1599
  114MOL0     H15698  10.871   8.162   2.758  0.2292  0.2213  0.4401
  114MOL0     H15699  10.731   8.090   2.829 -3.2602  2.7624  2.7014
  114MOL0     H15700  10.616   8.315   2.838  1.6047 -2.3181  2.3617
  114MOL0     H15701  10.663   8.255   2.679  1.0245 -0.5289 -0.8458
  114MOL0     H15702  10.812   8.425   2.639 -3.5844  0.1861 -0.3778
  114MOL0     H15703  10.874   8.415   2.807 -1.8499 -2.8067  1.4098
  114MOL0     H15704  10.602   8.545   2.744  0.5424  2.1456 -1.1163
  114MOL0     H15705  10.708   8.558   2.893  0.3736 -0.2835 -0.6124
  114MOL0     H15706  10.759   8.679   2.631 -3.3252  1.9425 -0.2737
  114MOL0     H15707  10.858   8.683   2.778  0.0683  3.4008 -2.4192
  114MOL0     H15708  10.688   8.800   2.902  0.4418 -0.8747  0.2676
  114MOL0     H15709  10.586   8.811   2.745  1.1746  2.2765 -2.5674
  114MOL0     H15710  10.733   8.934   2.634 -1.2905 -5.3375 -0.5446
  114MOL0     H15711  10.857   8.951   2.760 -0.2541 -0.8163  1.4073
  114MOL0     H15712  11.054   8.021   3.187  0.5872 -3.2637  0.2134
  114MOL0     H15713  11.044   7.969   3.436 -1.9839 -0.4377  3.2417
  114MOL0     H15714  11.142   8.072   3.852 -0.6026  0.6580 -1.6172
  114MOL0     H15715  11.184   7.918   4.059 -0.1396 -3.0424 -0.4420
  114MOL0     H15716  10.843   8.489   5.140  0.0249 -0.1390  0.1823
  114MOL0     H15717  10.989   8.503   5.354  0.0616  0.7010  0.4807
  114MOL0     H15718  11.302   8.715   5.553  1.8666 -1.0986 -0.5049
  114MOL0     H15719  11.467   8.713   5.734  0.8402 -5.6792  0.7209
  114MOL0     H15720  11.368   8.889   6.055 -0.3901 -1.1802  1.1890
  114MOL0     H15721  11.490   8.809   6.149 -1.3033  1.7329  0.4468
  114MOL0     H15722  11.522   8.916   5.854  1.3783  0.0158 -0.6313
  114MOL0     H15723  11.636   8.815   5.933  0.4770  1.4983 -1.6345
  114MOL0     H15724  11.545   9.061   6.083  1.4530  0.6341  0.6266
  114MOL0     H15725  11.702   8.976   6.068 -2.0039 -2.2027  1.2604
  114MOL0     H15726  11.557   9.158   5.871  0.8432  2.2290  1.5026
  114MOL0     H15727  11.701   9.068   5.826 -2.5057 -1.8390 -1.8552
  114MOL0     H15728  11.847   9.317   6.143  0.7050 -0.9277 -0.1648
  114MOL0     H15729  11.183   8.649   6.022  0.5618  2.1799  0.7497
  114MOL0     H15730  10.930   8.754   5.953  4.0141  0.8903  0.5707
  114MOL0     H15731  10.871   8.657   5.810 -3.3429 -0.2932  2.1052
  114MOL0     H15732  10.957   8.575   5.941 -0.2651 -0.2567 -1.3029
  115MOL0     O15733   3.640   6.181   4.668 -0.7860 -1.1167 -0.2744
  115MOL0     C15734   3.698   6.286   4.701  0.1149  0.2587 -1.0252
  115MOL0     O15735   3.818   6.289   4.777  0.0478  0.8368 -0.9733
  115MOL0     C15736   3.919   6.194   4.756  0.4671 -0.0835  0.1558
  115MOL0     C15737   4.021   6.189   4.843  0.8133  0.5152 -0.1301
  115MOL0     C15738   4.121   6.087   4.844  0.8324 -0.2757 -0.3625
  115MOL0     C15739   4.121   5.998   4.729 -0.1011  1.0660  0.8617
  115MOL0     O15740   4.204   5.894   4.696  0.0579 -0.1764 -0.3854
  115MOL0     C15741   4.270   5.832   4.810 -0.6866  0.2259 -0.3897
  115MOL0     C15742   4.317   5.694   4.767  0.9620 -0.5116 -0.1406
  115MOL0     C15743   4.191   5.604   4.738  0.2520 -0.3799  0.7525
  115MOL0     C15744   4.223   5.460   4.684 -0.2038  0.7702  1.4197
  115MOL0     C15745   4.112   5.355   4.698  0.5067  0.8766  0.1291
  115MOL0     C15746   4.096   5.316   4.847 -0.5690  0.1549  0.5022
  115MOL0     C15747   3.982   5.223   4.873 -0.5834  0.6076  0.1143
  115MOL0     C15748   3.853   5.279   4.806 -0.4016 -0.1326  0.3785
  115MOL0     N15749   3.738   5.256   4.892  0.2536  0.2837  0.1021
  115MOL0     C15750   3.667   5.137   4.913 -0.2428 -0.2850 -0.3788
  115MOL0     C15751   3.558   5.174   4.982  0.3230  0.8435 -0.3469
  115MOL0     C15752   3.441   5.091   5.023 -0.5476  0.3639 -0.5040
  115MOL0     C15753   3.384   5.082   5.174  0.5240  0.1983 -0.1615
  115MOL0     C15754   3.357   5.216   5.238 -0.6157  0.3838  0.8161
  115MOL0     C15755   3.278   5.203   5.370 -0.4909  0.3973 -0.6259
  115MOL0     O15756   3.369   5.139   5.459  0.1954 -0.7546 -0.1479
  115MOL0     C15757   3.324   5.040   5.544  0.1418 -0.7844 -0.5866
  115MOL0     C15758   3.427   5.004   5.629  1.1702 -0.0379 -1.1275
  115MOL0     C15759   3.410   4.906   5.725  0.7876 -0.9959 -0.0746
  115MOL0     C15760   3.532   4.867   5.808  0.3853  1.0844  0.1234
  115MOL0     C15761   3.279   4.842   5.739  0.0449 -1.2547  0.4534
  115MOL0     C15762   3.245   4.753   5.853  0.4213  0.9737 -0.2390
  115MOL0     O15763   3.338   4.720   5.953  0.0111 -0.0847  0.2753
  115MOL0     C15764   3.300   4.631   6.048  0.9220  0.2079  0.0041
  115MOL0     C15765   3.194   4.669   6.140  0.6598 -0.1504 -0.2375
  115MOL0     C15766   3.140   4.579   6.233  0.2314 -0.2878  0.6682
  115MOL0     C15767   3.185   4.442   6.220  0.0211  0.2716 -1.1458
  115MOL0     O15768   3.141   4.334   6.287  0.2907  1.0476 -0.8020
  115MOL0     C15769   3.083   4.346   6.416 -0.1008 -0.4161  0.0416
  115MOL0     C15770   3.049   4.208   6.460 -0.2259 -1.5228  0.4719
  115MOL0     C15771   2.937   4.145   6.371 -0.2456  0.6633 -0.1913
  115MOL0     C15772   2.858   4.047   6.459  0.4356  0.0027  0.1318
  115MOL0     C15773   2.764   3.961   6.375 -0.2317 -0.2608  0.5894
  115MOL0     C15774   2.670   3.872   6.454 -0.2076  0.1142 -1.2424
  115MOL0     C15775   2.620   3.759   6.364 -0.2921 -0.1365 -0.2561
  115MOL0     C15776   2.556   3.827   6.244 -0.5872  0.1856  0.2446
  115MOL0    Cl15777   2.673   3.870   6.106 -0.1020  0.2380 -0.2552
  115MOL0     C15778   3.298   4.414   6.135  0.1054  0.8023  0.5973
  115MOL0     C15779   3.352   4.505   6.051  0.4643  0.2148  0.5360
  115MOL0     O15780   3.132   4.713   5.845 -0.2656  0.0692 -0.1718
  115MOL0     C15781   3.181   4.872   5.641  0.0537 -0.4849 -0.4421
  115MOL0     C15782   3.204   4.971   5.547 -1.1792  0.3642 -0.5691
  115MOL0     N15783   3.568   5.307   5.001 -0.8132  0.1198 -0.4352
  115MOL0     N15784   3.679   5.353   4.960  0.1748 -0.6624  0.2648
  115MOL0     C15785   4.024   6.012   4.638  0.5880 -0.2057 -0.1919
  115MOL0     C15786   3.922   6.106   4.653  0.6567  1.1002  0.5891
  115MOL0     C15787   3.622   6.411   4.697  0.4141  0.1348  0.7798
  115MOL0     C15788   3.485   6.410   4.666  0.0390 -0.1885 -0.0459
  115MOL0     C15789   3.405   6.519   4.671 -0.8895  0.0006  0.3271
  115MOL0     C15790   3.458   6.645   4.705 -0.1639  0.4371  0.2423
  115MOL0     O15791   3.391   6.764   4.722 -0.0522 -0.3945 -0.4416
  115MOL0     C15792   3.252   6.755   4.701 -0.3637 -0.0554  1.8572
  115MOL0     C15793   3.216   6.797   4.551  0.7965  1.0497 -0.2057
  115MOL0     C15794   3.248   6.943   4.529 -0.0935 -1.0666 -0.3729
  115MOL0     C15795   3.256   6.984   4.375  0.1680 -0.0472  0.0674
  115MOL0     C15796   3.374   6.924   4.316  0.2746  0.4281  0.5896
  115MOL0     C15797   3.463   6.860   4.261  0.1019 -0.3137  0.5250
  115MOL0     C15798   3.598   6.651   4.731  0.6431 -0.4878  0.8777
  115MOL0     C15799   3.676   6.539   4.730 -0.2607  0.5814 -0.1726
  115MOL0     C15800   3.815   6.571   4.786  0.4917 -0.0254 -0.9340
  115MOL0     H15801   4.025   6.266   4.920  2.4528 -0.5965  0.9530
  115MOL0     H15802   4.202   6.084   4.916  0.9620  2.1530 -0.3287
  115MOL0     H15803   4.203   5.830   4.896  0.6990 -0.1231  0.7236
  115MOL0     H15804   4.361   5.884   4.840 -2.1219  0.9863  3.1699
  115MOL0     H15805   4.369   5.700   4.671 -1.4348  2.4406 -1.4153
  115MOL0     H15806   4.381   5.645   4.840 -0.7502 -1.7922  0.5906
  115MOL0     H15807   4.129   5.588   4.827 -1.6154  1.0026 -0.2231
  115MOL0     H15808   4.127   5.668   4.677  1.1432 -1.1981 -1.1254
  115MOL0     H15809   4.254   5.465   4.579  0.4442 -0.4150  1.5416
  115MOL0     H15810   4.306   5.422   4.743 -1.0044 -0.9119  1.5216
  115MOL0     H15811   4.127   5.263   4.640 -5.2235 -0.3239 -0.0599
  115MOL0     H15812   4.020   5.392   4.653  0.0481 -1.6381 -1.1918
  115MOL0     H15813   4.183   5.257   4.876 -3.2242 -2.8944  3.1060
  115MOL0     H15814   4.084   5.403   4.912 -0.8211 -0.1203  0.8317
  115MOL0     H15815   3.973   5.223   4.982 -0.4978 -0.3788  0.1235
  115MOL0     H15816   4.001   5.122   4.837 -3.0036 -0.1248  0.6890
  115MOL0     H15817   3.870   5.385   4.786  2.7991 -0.7024 -0.5815
  115MOL0     H15818   3.844   5.223   4.712  0.5758  2.5954 -1.4525
  115MOL0     H15819   3.708   5.042   4.880 -1.9637 -0.7495 -1.3077
  115MOL0     H15820   3.463   4.989   4.989 -0.1781 -0.6167  2.3770
  115MOL0     H15821   3.354   5.126   4.967 -0.2067  1.7238 -0.2107
  115MOL0     H15822   3.287   5.033   5.162 -0.6963  1.6502  2.8155
  115MOL0     H15823   3.445   5.019   5.238  1.7038  1.4014 -0.0605
  115MOL0     H15824   3.453   5.265   5.254  0.3859 -1.4712  0.7511
  115MOL0     H15825   3.307   5.278   5.162  1.6856 -0.5373 -1.6042
  115MOL0     H15826   3.254   5.298   5.418  0.8675  0.6410 -0.4127
  115MOL0     H15827   3.185   5.151   5.345 -0.8029  0.1720  0.8639
  115MOL0     H15828   3.525   5.051   5.623  1.7300 -0.7025  1.4710
  115MOL0     H15829   3.542   4.758   5.797  1.3146  1.2969 -1.3560
  115MOL0     H15830   3.528   4.886   5.916 -0.0815  0.9765  0.1286
  115MOL0     H15831   3.628   4.907   5.775  0.6432 -0.8417 -1.6489
  115MOL0     H15832   3.159   4.771   6.126 -1.1794 -0.7786 -0.5445
  115MOL0     H15833   3.073   4.620   6.308 -1.9849  0.0519 -1.3522
  115MOL0     H15834   3.160   4.380   6.487  3.3540  1.6102 -4.2109
  115MOL0     H15835   3.006   4.423   6.414  3.1631  3.2000  0.6628
  115MOL0     H15836   3.136   4.143   6.469  0.3160 -0.7306  1.1713
  115MOL0     H15837   3.006   4.225   6.559 -0.2251 -2.0094  0.5583
  115MOL0     H15838   2.979   4.092   6.285  1.9548  2.5000 -0.3440
  115MOL0     H15839   2.866   4.217   6.328 -0.6218  1.1719  1.2193
  115MOL0     H15840   2.803   4.100   6.537  1.9280  1.9143 -0.0426
  115MOL0     H15841   2.930   3.982   6.510  2.1651  0.8733 -1.0847
  115MOL0     H15842   2.709   4.023   6.304 -0.1028 -1.6412 -0.7718
  115MOL0     H15843   2.839   3.897   6.327  1.4964  0.2285  2.4893
  115MOL0     H15844   2.592   3.924   6.510  2.1060 -0.2894  2.7906
  115MOL0     H15845   2.718   3.823   6.539 -1.1036  1.9409  0.4128
  115MOL0     H15846   2.541   3.704   6.415  0.1470  0.2358  0.8381
  115MOL0     H15847   2.697   3.685   6.340 -0.8310 -0.5050 -0.8844
  115MOL0     H15848   2.505   3.921   6.270  1.2969  1.6344 -0.9867
  115MOL0     H15849   2.492   3.748   6.205  0.4262 -2.1034  2.8530
  115MOL0     H15850   3.344   4.316   6.138  2.0046  1.6548  0.2663
  115MOL0     H15851   3.442   4.493   5.992 -0.0016  1.1829 -0.4124
  115MOL0     H15852   3.080   4.837   5.658  0.5860 -0.6439  3.4379
  115MOL0     H15853   3.121   4.989   5.480 -0.5382  1.2319 -1.1601
  115MOL0     H15854   4.015   5.946   4.552 -0.1590  1.7092 -1.6584
  115MOL0     H15855   3.840   6.102   4.582 -0.7574  1.5666  2.1283
  115MOL0     H15856   3.444   6.316   4.631 -0.6564  0.9853 -2.5677
  115MOL0     H15857   3.301   6.506   4.641 -1.2270  0.8678  1.0921
  115MOL0     H15858   3.208   6.658   4.727 -0.4996 -1.3660 -2.4281
  115MOL0     H15859   3.213   6.828   4.772 -0.3475 -0.8620  2.7062
  115MOL0     H15860   3.111   6.769   4.536  0.4405  0.7137  2.5367
  115MOL0     H15861   3.267   6.720   4.492 -0.2283 -0.6830  1.0797
  115MOL0     H15862   3.174   7.004   4.581  2.9826  2.4826  0.3268
  115MOL0     H15863   3.346   6.979   4.564 -0.3908  1.1124 -1.5622
  115MOL0     H15864   3.258   7.093   4.361 -0.2777 -0.0377  0.0657
  115MOL0     H15865   3.169   6.941   4.324  0.0686 -1.8747  1.6813
  115MOL0     H15866   3.536   6.807   4.203 -0.3824 -2.0647  1.4314
  115MOL0     H15867   3.623   6.752   4.763 -1.3096 -0.3291  2.0819
  115MOL0     H15868   3.893   6.528   4.723  0.4092 -0.0246 -1.0362
  115MOL0     H15869   3.844   6.676   4.783  0.4338  0.0506  0.3753
  115MOL0     H15870   3.811   6.534   4.889 -2.9857 -1.5462 -1.4795
  116MOL0     O15871   0.918   0.647   4.905 -0.4489 -0.3734  0.2176
  116MOL0     C15872   0.905   0.569   4.809 -0.9423 -0.3831  0.3827
  116MOL0     O15873   0.909   0.602   4.674 -0.9140  0.1093  0.0174
  116MOL0     C15874   0.956   0.730   4.652  0.5884  0.8446  0.5027
  116MOL0     C15875   0.874   0.817   4.576 -0.1124  0.0322  0.5459
  116MOL0     C15876   0.919   0.938   4.524  0.7196  0.0747 -0.5875
  116MOL0     C15877   1.047   0.989   4.564 -0.0656  0.0756 -0.5507
  116MOL0     O15878   1.108   1.107   4.514  0.2532 -0.2933  0.1446
  116MOL0     C15879   1.020   1.223   4.495 -0.5874  0.5303  0.0285
  116MOL0     C15880   1.105   1.347   4.465 -0.2807  0.3879 -0.8704
  116MOL0     C15881   1.197   1.378   4.582  0.5349  0.5637 -0.1730
  116MOL0     C15882   1.283   1.499   4.544  0.1240 -0.5647 -0.4773
  116MOL0     C15883   1.360   1.540   4.679 -0.3541  0.3703  1.0680
  116MOL0     C15884   1.405   1.685   4.673  0.7819  0.8793 -0.0134
  116MOL0     C15885   1.440   1.727   4.812  0.8732 -0.1066 -0.6347
  116MOL0     C15886   1.553   1.648   4.874 -0.5038  0.6537  0.4779
  116MOL0     N15887   1.597   1.704   5.004 -0.2853  0.4418 -0.0130
  116MOL0     C15888   1.528   1.783   5.101  0.0044 -0.5089 -0.4874
  116MOL0     C15889   1.612   1.797   5.202 -0.2896 -0.3809  0.4838
  116MOL0     C15890   1.594   1.880   5.329 -0.2552 -0.1951  0.3280
  116MOL0     C15891   1.670   2.023   5.309  0.9448  0.1472  0.2168
  116MOL0     C15892   1.820   2.000   5.335 -0.0723 -0.5940  0.5254
  116MOL0     C15893   1.886   2.146   5.332 -0.2998  0.1087  0.1530
  116MOL0     O15894   1.887   2.184   5.192 -1.0467  0.1971 -0.8069
  116MOL0     C15895   1.957   2.298   5.170 -1.3885  0.1464  0.4117
  116MOL0     C15896   2.075   2.297   5.089  0.3060 -0.1428 -0.7632
  116MOL0     C15897   2.153   2.416   5.061 -0.3771 -0.2658  0.5768
  116MOL0     C15898   2.276   2.405   4.968 -0.1315  0.7930 -0.9974
  116MOL0     C15899   2.094   2.531   5.108  0.5396  0.6093 -0.8384
  116MOL0     C15900   2.165   2.653   5.086  0.2400  0.3675 -0.1452
  116MOL0     O15901   2.080   2.754   5.045 -0.0562 -0.0874 -0.0958
  116MOL0     C15902   2.137   2.871   5.018 -0.2284 -0.1324 -0.4907
  116MOL0     C15903   2.153   2.932   4.890 -0.1467 -0.4295 -0.5368
  116MOL0     C15904   2.217   3.055   4.874 -0.4636 -0.2973  0.0326
  116MOL0     C15905   2.258   3.126   4.984  0.1671 -0.3231 -0.3319
  116MOL0     O15906   2.311   3.250   4.956 -0.3170  0.1642  0.1773
  116MOL0     C15907   2.389   3.311   5.061  0.1796 -0.3720 -0.9524
  116MOL0     C15908   2.471   3.427   5.024 -0.3265  0.2999  0.1302
  116MOL0     C15909   2.553   3.411   4.898 -0.2160 -0.1041 -0.3844
  116MOL0     C15910   2.484   3.482   4.785  0.3480 -0.5437  0.1684
  116MOL0     C15911   2.551   3.477   4.651  0.4303 -0.1119  0.1656
  116MOL0     C15912   2.685   3.553   4.652  0.3955 -0.3455  0.6795
  116MOL0     C15913   2.732   3.559   4.509  0.0224 -0.1339  0.1830
  116MOL0     C15914   2.743   3.424   4.429 -1.1410 -0.6244 -0.0604
  116MOL0    Cl15915   2.868   3.430   4.294  0.4435 -0.0113  0.5601
  116MOL0     C15916   2.262   3.064   5.118  0.3345 -0.4034  0.2535
  116MOL0     C15917   2.193   2.944   5.131 -0.1657  0.3881 -0.3461
  116MOL0     O15918   2.281   2.668   5.101  0.0371  0.2049  0.3094
  116MOL0     C15919   1.974   2.529   5.178 -0.6350 -0.6421 -0.2282
  116MOL0     C15920   1.906   2.417   5.207 -0.0183 -0.0307  0.6222
  116MOL0     N15921   1.726   1.729   5.167  0.0697  0.4295  0.3924
  116MOL0     N15922   1.715   1.675   5.053  0.7083 -0.1402  0.0784
  116MOL0     C15923   1.131   0.897   4.638  0.8871  0.9467 -0.6103
  116MOL0     C15924   1.083   0.777   4.671  0.7968  0.6318 -0.2970
  116MOL0     C15925   0.889   0.433   4.853  1.2035  0.3663 -0.1060
  116MOL0     C15926   0.834   0.398   4.977 -0.6624  0.9700 -0.5360
  116MOL0     C15927   0.809   0.267   5.015 -0.0257  0.1347  0.8167
  116MOL0     C15928   0.844   0.166   4.938 -0.3512  0.2030 -0.7663
  116MOL0     O15929   0.812   0.036   4.988  0.0344  0.4871 -0.1373
  116MOL0     C15930   0.879  -0.088   4.948  0.7697 -0.4583  0.1987
  116MOL0     C15931   0.859  -0.217   5.030 -0.9556 -0.6136 -0.2283
  116MOL0     C15932   0.868  -0.204   5.184  0.3335 -0.4282 -0.6488
  116MOL0     C15933   0.730  -0.163   5.240  0.0423 -0.3929  0.3233
  116MOL0     C15934   0.612  -0.234   5.195  0.4801 -0.1202  0.1520
  116MOL0     C15935   0.518  -0.271   5.126  0.2059 -0.3189  0.0100
  116MOL0     C15936   0.914   0.189   4.821 -0.4326 -0.3452 -0.3351
  116MOL0     C15937   0.927   0.321   4.775  0.6916 -0.0781 -0.3416
  116MOL0     C15938   0.984   0.347   4.635 -1.2729 -1.1062  0.3492
  116MOL0     H15939   0.772   0.782   4.563 -0.3431 -0.0045  2.1573
  116MOL0     H15940   0.850   1.002   4.470 -1.4132  1.4932  3.4213
  116MOL0     H15941   0.967   1.250   4.587 -2.0414  0.6524 -0.8223
  116MOL0     H15942   0.946   1.204   4.417  1.5252 -1.0192 -1.7055
  116MOL0     H15943   1.154   1.331   4.369  0.3718 -1.9787 -0.2043
  116MOL0     H15944   1.035   1.430   4.448 -1.4317 -0.2939  0.3268
  116MOL0     H15945   1.127   1.391   4.665 -0.2645  0.4679 -0.8195
  116MOL0     H15946   1.269   1.306   4.624  0.6204  1.4057  1.1930
  116MOL0     H15947   1.350   1.477   4.460  1.0690 -0.1447  0.1380
  116MOL0     H15948   1.214   1.577   4.511 -1.1235 -0.5964  1.8576
  116MOL0     H15949   1.431   1.460   4.699  1.5521  1.1858 -1.8104
  116MOL0     H15950   1.289   1.532   4.762 -0.7130 -0.2884  0.7066
  116MOL0     H15951   1.480   1.695   4.594 -1.3299  3.2446 -1.8409
  116MOL0     H15952   1.331   1.752   4.628  1.0783 -0.6777 -3.0845
  116MOL0     H15953   1.350   1.712   4.872  2.0825 -2.3430  0.7568
  116MOL0     H15954   1.470   1.832   4.817 -0.2849  0.2564 -0.9968
  116MOL0     H15955   1.522   1.545   4.896 -3.2844  0.2169 -4.1861
  116MOL0     H15956   1.633   1.651   4.800 -0.3674 -0.8700  0.5458
  116MOL0     H15957   1.429   1.828   5.090  0.4884  0.3947 -1.3286
  116MOL0     H15958   1.647   1.826   5.408 -1.4766 -2.0121 -0.0138
  116MOL0     H15959   1.489   1.892   5.357  0.2278 -0.0429  2.1546
  116MOL0     H15960   1.653   2.060   5.207 -0.7961  0.4149  0.5703
  116MOL0     H15961   1.645   2.093   5.389  1.4367 -1.0751  1.4877
  116MOL0     H15962   1.844   1.964   5.436 -2.0803  1.7517  1.9708
  116MOL0     H15963   1.850   1.930   5.257 -1.9971  2.0329 -2.8034
  116MOL0     H15964   1.830   2.218   5.394  2.2807  2.0313  0.4174
  116MOL0     H15965   1.990   2.136   5.362 -0.2451 -0.4698 -0.2230
  116MOL0     H15966   2.098   2.195   5.057 -0.6453 -0.6085 -0.0105
  116MOL0     H15967   2.268   2.451   4.869 -1.4748  1.4386 -0.6029
  116MOL0     H15968   2.297   2.301   4.940  3.4125  1.6301 -1.9492
  116MOL0     H15969   2.359   2.444   5.027 -2.1024  2.0019  1.1652
  116MOL0     H15970   2.116   2.881   4.801  0.7628 -0.5203 -0.8755
  116MOL0     H15971   2.241   3.095   4.776  0.1298  1.2326  0.7661
  116MOL0     H15972   2.332   3.331   5.152 -2.5351 -3.3697 -1.8131
  116MOL0     H15973   2.460   3.237   5.098 -0.2562  1.0402  3.1729
  116MOL0     H15974   2.406   3.515   5.026  0.5705  0.9608  1.5926
  116MOL0     H15975   2.538   3.452   5.107 -1.0780 -1.8767  1.4756
  116MOL0     H15976   2.563   3.305   4.873 -0.5505 -1.2793  3.7897
  116MOL0     H15977   2.655   3.452   4.902 -0.1908  0.0412 -1.8639
  116MOL0     H15978   2.463   3.587   4.806 -2.2898 -0.5026 -2.0985
  116MOL0     H15979   2.384   3.443   4.764  1.8370 -2.1148 -6.3095
  116MOL0     H15980   2.565   3.373   4.620  1.0793 -0.1994  0.7217
  116MOL0     H15981   2.482   3.523   4.580  3.4522 -0.0767 -2.9633
  116MOL0     H15982   2.754   3.494   4.714 -0.6812 -0.3297  1.9247
  116MOL0     H15983   2.694   3.655   4.692  1.3474  0.3334 -1.1132
  116MOL0     H15984   2.826   3.613   4.498 -1.8321  3.1543 -1.4455
  116MOL0     H15985   2.656   3.620   4.457 -0.7566  0.0736  1.5233
  116MOL0     H15986   2.649   3.416   4.373  1.0330 -1.9790 -3.8957
  116MOL0     H15987   2.760   3.337   4.493 -2.9492 -1.2862 -0.4118
  116MOL0     H15988   2.315   3.107   5.202 -0.5435 -0.9024  1.0736
  116MOL0     H15989   2.207   2.889   5.224  2.4620  1.9526  0.2607
  116MOL0     H15990   1.928   2.607   5.238 -0.5100 -0.2415 -0.6545
  116MOL0     H15991   1.825   2.410   5.278 -0.3564  0.7918  0.3381
  116MOL0     H15992   1.236   0.926   4.643  0.9746  0.5058  0.3730
  116MOL0     H15993   1.147   0.706   4.722 -1.0273 -1.8781 -1.3110
  116MOL0     H15994   0.813   0.474   5.052  0.8862 -0.3982  1.4102
  116MOL0     H15995   0.766   0.246   5.112  1.2818 -0.2303  1.3363
  116MOL0     H15996   0.839  -0.109   4.848 -1.6140 -0.8487  1.1671
  116MOL0     H15997   0.987  -0.072   4.960  1.2176 -4.0910  2.5745
  116MOL0     H15998   0.935  -0.288   4.996 -0.9796 -1.0475  0.6172
  116MOL0     H15999   0.770  -0.277   5.010  1.4052 -4.3082 -0.6726
  116MOL0     H16000   0.890  -0.302   5.227 -2.1977 -1.0646 -0.6773
  116MOL0     H16001   0.944  -0.131   5.214 -0.7346  0.3564  0.1967
  116MOL0     H16002   0.719  -0.059   5.208  0.4485 -0.5167 -0.2405
  116MOL0     H16003   0.720  -0.181   5.347 -0.5145  2.1575  0.7684
  116MOL0     H16004   0.431  -0.296   5.070  0.6726  0.5432 -1.1269
  116MOL0     H16005   0.952   0.106   4.762 -2.6788 -1.1163 -0.8151
  116MOL0     H16006   1.032   0.261   4.589  0.7842 -0.8596  1.8810
  116MOL0     H16007   0.895   0.378   4.580 -1.2595  0.3070  1.0590
  116MOL0     H16008   1.062   0.424   4.631 -0.4635 -1.8900  0.8050
  117MOL0     O16009   6.363   0.546   2.085  0.0366  0.2026 -0.6565
  117MOL0     C16010   6.266   0.613   2.129  0.0638  0.2994  0.8262
  117MOL0     O16011   6.256   0.742   2.104  1.1204  0.0580 -0.2273
  117MOL0     C16012   6.347   0.830   2.059  0.2310  0.7133  1.2080
  117MOL0     C16013   6.483   0.808   2.016  1.5113 -0.7191 -0.7076
  117MOL0     C16014   6.556   0.924   1.983  0.1314  0.3495 -0.8866
  117MOL0     C16015   6.514   1.058   2.004  0.3172  0.3010  0.2513
  117MOL0     O16016   6.598   1.152   1.962 -1.0866  0.5229  0.6327
  117MOL0     C16017   6.578   1.286   1.998  0.4807 -0.5353  1.2248
  117MOL0     C16018   6.679   1.387   1.949  0.3768 -0.2682 -0.1673
  117MOL0     C16019   6.640   1.532   2.001  0.1330 -0.6106  0.4437
  117MOL0     C16020   6.731   1.643   1.925  0.0007 -1.1378 -0.4824
  117MOL0     C16021   6.669   1.662   1.788  0.3156 -0.2977 -0.2840
  117MOL0     C16022   6.578   1.791   1.785 -0.3624  0.1440  0.9088
  117MOL0     C16023   6.457   1.778   1.689 -0.4502  0.8035  0.6703
  117MOL0     C16024   6.398   1.909   1.653 -0.2078  0.7138  0.3633
  117MOL0     N16025   6.361   1.992   1.761  0.2501 -0.4763  0.3762
  117MOL0     C16026   6.235   1.998   1.821  0.6437  0.3553 -0.0283
  117MOL0     C16027   6.249   2.078   1.930  0.3737  0.9244 -0.5130
  117MOL0     C16028   6.137   2.134   2.021 -0.6921  0.6139 -0.5724
  117MOL0     C16029   6.070   2.265   1.970  0.3706  0.6477  0.3238
  117MOL0     C16030   5.930   2.238   1.916  0.9225  0.1621  1.0619
  117MOL0     C16031   5.847   2.371   1.881  1.0876 -0.2418  0.7822
  117MOL0     O16032   5.891   2.428   1.756  0.2976  0.0134  0.8627
  117MOL0     C16033   5.790   2.428   1.648 -0.1679 -0.1737  0.5832
  117MOL0     C16034   5.706   2.319   1.611  0.1151 -0.0084 -0.2914
  117MOL0     C16035   5.597   2.341   1.511 -0.3629  0.7415  0.2288
  117MOL0     C16036   5.515   2.213   1.473 -0.9449  0.0260 -0.3023
  117MOL0     C16037   5.574   2.471   1.457  0.7751  0.8056  0.9557
  117MOL0     C16038   5.478   2.509   1.348  1.2712  0.9203 -0.8702
  117MOL0     O16039   5.497   2.623   1.298 -0.4766 -0.2989 -0.4661
  117MOL0     C16040   5.458   2.645   1.168 -0.9184 -1.0225  0.4467
  117MOL0     C16041   5.500   2.569   1.058  1.1466  0.5565 -1.0793
  117MOL0     C16042   5.461   2.605   0.932  0.0686  0.0081  0.2281
  117MOL0     C16043   5.398   2.731   0.910 -0.0345 -1.1079 -0.5521
  117MOL0     O16044   5.373   2.781   0.786 -0.5598  0.3979 -0.1683
  117MOL0     C16045   5.402   2.711   0.664  1.0592 -0.2488 -0.0046
  117MOL0     C16046   5.277   2.644   0.615  0.7068 -0.3283 -0.0845
  117MOL0     C16047   5.298   2.585   0.473 -0.0658  0.1244 -0.3973
  117MOL0     C16048   5.185   2.490   0.432  0.5226 -0.6000  1.1355
  117MOL0     C16049   5.200   2.413   0.297 -0.2127 -0.9046  0.6781
  117MOL0     C16050   5.086   2.309   0.283  0.4603 -0.6402 -0.2234
  117MOL0     C16051   5.117   2.172   0.354 -1.0134 -0.1251 -1.1494
  117MOL0     C16052   5.104   2.049   0.264 -0.4374 -0.2376 -0.1566
  117MOL0    Cl16053   5.116   1.901   0.379 -0.1689  0.1628  0.1302
  117MOL0     C16054   5.367   2.810   1.012  0.0659  1.3099 -0.4271
  117MOL0     C16055   5.398   2.775   1.144  0.7514  0.4704  0.3663
  117MOL0     O16056   5.395   2.428   1.308  0.0481 -0.1173 -0.1957
  117MOL0     C16057   5.667   2.572   1.494  0.7162 -0.3316 -0.1931
  117MOL0     C16058   5.765   2.550   1.589  0.9191 -0.4649 -0.0196
  117MOL0     N16059   6.378   2.104   1.948 -0.2506 -0.0419 -0.5474
  117MOL0     N16060   6.442   2.066   1.845 -0.7726 -0.6823  0.5375
  117MOL0     C16061   6.383   1.074   2.047 -0.0337  0.7012  0.0045
  117MOL0     C16062   6.302   0.962   2.071  0.1349  0.4385 -1.1389
  117MOL0     C16063   6.157   0.533   2.179 -0.2501 -0.1147  0.6540
  117MOL0     C16064   6.125   0.540   2.317  0.1388 -0.4257  0.9373
  117MOL0     C16065   6.002   0.486   2.364  0.3374 -0.3461 -0.0620
  117MOL0     C16066   5.918   0.416   2.284 -0.0019 -0.0472  0.3751
  117MOL0     O16067   5.809   0.355   2.326  0.5800 -0.5389  0.1343
  117MOL0     C16068   5.691   0.437   2.358  0.6482  0.5166  0.1357
  117MOL0     C16069   5.603   0.349   2.438  0.4852  0.3811  0.0346
  117MOL0     C16070   5.624   0.369   2.586  0.3798  0.3835 -0.1568
  117MOL0     C16071   5.765   0.354   2.650 -0.4441  0.9617 -0.1806
  117MOL0     C16072   5.770   0.377   2.802 -0.7820  0.4844 -0.2510
  117MOL0     C16073   5.768   0.387   2.922  1.3774  0.0975  0.1161
  117MOL0     C16074   5.953   0.399   2.151  0.9906  0.2121 -0.4186
  117MOL0     C16075   6.067   0.468   2.095  1.1074 -0.2932 -0.3728
  117MOL0     C16076   6.087   0.465   1.951 -0.5294  0.2676  0.3165
  117MOL0     H16077   6.532   0.713   1.994  0.4326 -1.4235 -0.1311
  117MOL0     H16078   6.654   0.915   1.940  1.0235  1.2669  0.8186
  117MOL0     H16079   6.580   1.296   2.107  0.6166  0.6634  1.1243
  117MOL0     H16080   6.483   1.326   1.962  0.9063  1.5670  2.2820
  117MOL0     H16081   6.777   1.354   1.985 -0.3474 -0.2261  2.0221
  117MOL0     H16082   6.667   1.386   1.840 -3.1625  3.4145 -0.0633
  117MOL0     H16083   6.531   1.538   2.006  0.0445 -2.0543  0.6356
  117MOL0     H16084   6.684   1.549   2.100  3.1633  1.9965 -1.1327
  117MOL0     H16085   6.742   1.739   1.977 -0.1051 -0.9894 -0.7297
  117MOL0     H16086   6.831   1.601   1.916  0.8218 -0.3563  3.2122
  117MOL0     H16087   6.610   1.580   1.746 -2.1738  0.3638  1.6527
  117MOL0     H16088   6.758   1.680   1.727 -1.1387  1.1820 -2.0898
  117MOL0     H16089   6.552   1.815   1.889  2.5971  2.4493  1.2385
  117MOL0     H16090   6.634   1.869   1.733 -1.0950 -1.5938 -2.8124
  117MOL0     H16091   6.388   1.704   1.731 -0.1883 -1.1578 -2.0832
  117MOL0     H16092   6.486   1.729   1.595 -3.2910 -0.5946  0.3964
  117MOL0     H16093   6.473   1.961   1.592  0.2626 -0.7003 -0.3086
  117MOL0     H16094   6.318   1.896   1.579  0.1584 -3.0378  0.4693
  117MOL0     H16095   6.137   1.972   1.782 -0.2139 -0.8643  2.7324
  117MOL0     H16096   6.190   2.159   2.113 -1.8218  1.7873 -0.2128
  117MOL0     H16097   6.057   2.060   2.035 -0.2832  0.1456 -0.6902
  117MOL0     H16098   6.061   2.331   2.057  1.0077 -1.3159  1.9497
  117MOL0     H16099   6.123   2.313   1.887 -1.6002  2.3974 -0.0034
  117MOL0     H16100   5.958   2.190   1.822  0.7094 -2.3845  2.2111
  117MOL0     H16101   5.877   2.166   1.979 -1.7286 -1.8407 -3.0220
  117MOL0     H16102   5.750   2.331   1.852 -0.3475  3.0330  0.5760
  117MOL0     H16103   5.844   2.436   1.969 -1.3035 -0.3056  0.7904
  117MOL0     H16104   5.724   2.222   1.656 -1.8770  0.0825  0.8021
  117MOL0     H16105   5.417   2.207   1.523 -2.1687 -4.1326 -2.7429
  117MOL0     H16106   5.570   2.125   1.506  1.3353  1.7453  0.7794
  117MOL0     H16107   5.493   2.208   1.366  0.9922 -1.9660 -0.6603
  117MOL0     H16108   5.565   2.484   1.077  2.1047  1.3964 -0.4891
  117MOL0     H16109   5.487   2.543   0.847 -4.4380  0.7761 -2.0453
  117MOL0     H16110   5.440   2.774   0.582  2.9845  1.0014  1.7438
  117MOL0     H16111   5.487   2.643   0.654  1.8903  0.8331 -0.5309
  117MOL0     H16112   5.263   2.563   0.688  3.3101  0.8098  1.8334
  117MOL0     H16113   5.193   2.713   0.628  0.3951 -1.2389  5.4412
  117MOL0     H16114   5.392   2.529   0.472 -0.8003 -1.1798  0.7539
  117MOL0     H16115   5.311   2.663   0.397  0.7413 -0.2017 -0.6065
  117MOL0     H16116   5.091   2.545   0.415  0.3086 -1.6704 -1.7563
  117MOL0     H16117   5.177   2.421   0.516 -1.2404 -1.7183  0.1255
  117MOL0     H16118   5.194   2.487   0.217 -0.9517 -1.0731  0.5694
  117MOL0     H16119   5.299   2.367   0.295  0.1204 -0.1927  0.6412
  117MOL0     H16120   5.071   2.284   0.177  1.0213 -2.7389  0.1349
  117MOL0     H16121   4.997   2.343   0.337  0.6133  0.0180 -0.3808
  117MOL0     H16122   5.045   2.148   0.433  1.4458 -1.9575  0.6967
  117MOL0     H16123   5.212   2.174   0.409 -2.2362  1.6002  1.0657
  117MOL0     H16124   5.191   2.047   0.197 -0.2903 -1.4500  0.0485
  117MOL0     H16125   5.013   2.054   0.203 -0.4221  1.0271 -0.1103
  117MOL0     H16126   5.332   2.910   0.991 -3.8084  0.4722  1.1996
  117MOL0     H16127   5.365   2.831   1.230 -2.8445 -2.3131  1.0619
  117MOL0     H16128   5.677   2.666   1.439 -1.5569 -1.2577 -2.3952
  117MOL0     H16129   5.836   2.630   1.608  2.1505 -1.5586  0.1206
  117MOL0     H16130   6.338   1.172   2.053 -1.0710  0.2758 -0.4132
  117MOL0     H16131   6.206   0.962   2.121  1.5956  2.0662  1.9992
  117MOL0     H16132   6.183   0.594   2.390 -1.9258  1.4550  1.2891
  117MOL0     H16133   5.975   0.503   2.468  3.1487 -0.1278  0.7074
  117MOL0     H16134   5.708   0.534   2.406  1.0878 -0.7474  2.7281
  117MOL0     H16135   5.656   0.456   2.256  3.3150  3.0930 -0.4151
  117MOL0     H16136   5.617   0.246   2.404 -0.6400  0.2060  0.0923
  117MOL0     H16137   5.501   0.375   2.411 -0.6543 -2.2086  1.4666
  117MOL0     H16138   5.573   0.461   2.616 -0.2398 -0.4395  1.4263
  117MOL0     H16139   5.570   0.301   2.653  1.0029 -1.1706 -1.1681
  117MOL0     H16140   5.831   0.425   2.599 -1.3547  2.2023  0.3504
  117MOL0     H16141   5.814   0.257   2.631 -0.2342  0.4790  2.4834
  117MOL0     H16142   5.773   0.414   3.025  0.6448  3.6305 -0.6237
  117MOL0     H16143   5.888   0.339   2.089 -3.0402  2.5166  1.2102
  117MOL0     H16144   6.017   0.404   1.894  0.4824 -1.5022  0.9019
  117MOL0     H16145   6.074   0.570   1.924 -1.1580 -0.1793 -1.2299
  117MOL0     H16146   6.184   0.424   1.922 -0.9864  1.0162 -2.6886
  118MOL0     O16147   8.713   2.122  11.385  0.3625 -0.6407  0.6439
  118MOL0     C16148   8.683   2.192  11.482 -0.3272 -0.3006  0.4236
  118MOL0     O16149   8.747   2.313  11.523 -0.0806  0.1871  0.3886
  118MOL0     C16150   8.851   2.350  11.453 -0.2752 -0.4865 -0.4040
  118MOL0     C16151   8.865   2.490  11.464 -0.7131  0.2060 -0.0839
  118MOL0     C16152   8.974   2.546  11.408  0.2855  0.1613  1.0696
  118MOL0     C16153   9.081   2.478  11.355 -0.0208  0.7459 -0.0349
  118MOL0     O16154   9.191   2.532  11.293  0.0394  0.7508 -0.1701
  118MOL0     C16155   9.197   2.667  11.257  0.6689 -1.1563 -0.0115
  118MOL0     C16156   9.278   2.659  11.122  0.0762 -0.2893  0.7088
  118MOL0     C16157   9.435   2.619  11.143 -0.4341 -0.7128 -0.0828
  118MOL0     C16158   9.513   2.644  11.014 -1.0156 -1.4374 -0.0310
  118MOL0     C16159   9.483   2.525  10.916 -0.2637 -0.4238 -0.2721
  118MOL0     C16160   9.551   2.559  10.774 -0.2263 -0.3677 -0.9468
  118MOL0     C16161   9.503   2.464  10.662 -0.3229 -0.1063 -0.2384
  118MOL0     C16162   9.530   2.503  10.511  0.1388  0.5031  0.4467
  118MOL0     N16163   9.665   2.562  10.487  0.7972  0.2317 -0.6196
  118MOL0     C16164   9.780   2.499  10.507  0.5070 -0.5668  0.4258
  118MOL0     C16165   9.880   2.585  10.475  0.2794 -0.1118 -0.7054
  118MOL0     C16166  10.026   2.533  10.472 -0.2048  0.2766 -0.3575
  118MOL0     C16167  10.102   2.566  10.342  0.4902  0.7691  0.8223
  118MOL0     C16168  10.018   2.545  10.218  0.5250  0.2632  0.6437
  118MOL0     C16169  10.102   2.532  10.091 -0.4034 -0.1247 -0.4989
  118MOL0     O16170  10.155   2.394  10.097  0.7549 -0.4415  0.0176
  118MOL0     C16171  10.248   2.360  10.008  0.1573  0.0842 -1.0565
  118MOL0     C16172  10.265   2.427   9.890 -0.2005  0.1123 -0.6102
  118MOL0     C16173  10.355   2.379   9.790 -0.0746 -0.9817  0.3606
  118MOL0     C16174  10.386   2.459   9.657  0.0608  0.6766  1.5052
  118MOL0     C16175  10.420   2.254   9.813  0.1794  0.1797 -0.1594
  118MOL0     C16176  10.514   2.190   9.711 -0.7026  0.1557 -0.6422
  118MOL0     O16177  10.498   2.211   9.576 -0.2139 -0.4802 -0.6930
  118MOL0     C16178  10.584   2.147   9.493  1.1999  0.1544 -0.4903
  118MOL0     C16179  10.621   2.014   9.489  0.0011  1.0391 -0.0136
  118MOL0     C16180  10.717   1.973   9.401 -0.3545  0.1369  0.6456
  118MOL0     C16181  10.794   2.063   9.333  0.0847  0.5970 -0.0126
  118MOL0     O16182  10.905   2.012   9.269  0.1053  0.5996 -0.4109
  118MOL0     C16183  11.016   2.096   9.232 -0.2883  0.0463 -0.0509
  118MOL0     C16184  11.122   2.004   9.184 -0.0330  0.3487 -0.2250
  118MOL0     C16185  11.254   2.079   9.172  0.7954 -0.5671  0.6600
  118MOL0     C16186  11.375   1.990   9.153  0.0933 -0.0490 -1.3901
  118MOL0     C16187  11.509   2.058   9.113  0.3134  0.3849  0.5776
  118MOL0     C16188  11.547   2.163   9.218 -0.4981  0.6060 -0.4191
  118MOL0     C16189  11.690   2.218   9.222  0.5046  0.4199 -0.6123
  118MOL0     C16190  11.801   2.125   9.180  0.3526  0.4176 -0.0660
  118MOL0    Cl16191  11.798   1.962   9.270 -0.7259 -0.1857  0.2606
  118MOL0     C16192  10.765   2.202   9.337 -0.2319 -0.2367 -0.2652
  118MOL0     C16193  10.652   2.237   9.416 -0.1902 -0.5985  0.0065
  118MOL0     O16194  10.594   2.118   9.769 -0.2484  0.7690  0.0387
  118MOL0     C16195  10.400   2.190   9.931 -0.5415 -0.0742 -0.1460
  118MOL0     C16196  10.318   2.233  10.028  0.9648  0.3734 -0.6634
  118MOL0     N16197   9.821   2.706  10.434  0.8561 -0.1914  0.3083
  118MOL0     N16198   9.689   2.680  10.431  0.0128 -0.7132 -0.6546
  118MOL0     C16199   9.076   2.335  11.362 -0.1131  0.0538 -0.2918
  118MOL0     C16200   8.965   2.274  11.413  0.0497  0.2156  0.2838
  118MOL0     C16201   8.582   2.136  11.576 -0.8566  0.3239 -0.1687
  118MOL0     C16202   8.625   2.021  11.648  0.1043  0.0222  0.6249
  118MOL0     C16203   8.527   1.956  11.736 -0.2464  0.1653 -0.3574
  118MOL0     C16204   8.402   2.009  11.749 -0.8847 -0.4672 -0.9276
  118MOL0     O16205   8.306   1.960  11.829 -0.3526  0.1372 -0.6119
  118MOL0     C16206   8.320   1.822  11.871  0.1276 -0.3916 -0.0536
  118MOL0     C16207   8.180   1.785  11.922 -0.3170  0.0651 -1.1915
  118MOL0     C16208   8.158   1.629  11.950 -1.1352  0.2629 -0.3987
  118MOL0     C16209   8.025   1.592  12.027 -0.7709  1.1767 -0.1186
  118MOL0     C16210   8.024   1.612  12.172 -0.7471  0.3761 -0.0941
  118MOL0     C16211   8.019   1.613  12.296 -0.1447 -0.5796 -0.2942
  118MOL0     C16212   8.373   2.124  11.678 -0.4517 -0.5851  0.0073
  118MOL0     C16213   8.459   2.188  11.584 -0.4258 -0.3043 -1.7129
  118MOL0     C16214   8.417   2.310  11.507 -0.2607  0.0663 -0.4797
  118MOL0     H16215   8.792   2.553  11.514 -0.0874 -0.9899  2.5068
  118MOL0     H16216   8.970   2.654  11.394 -0.0682  0.2083  1.5335
  118MOL0     H16217   9.254   2.738  11.318 -2.1804  1.8971 -0.6076
  118MOL0     H16218   9.099   2.714  11.243  1.4847  0.1599 -1.5725
  118MOL0     H16219   9.225   2.598  11.049  0.3950 -3.6033  3.0297
  118MOL0     H16220   9.272   2.762  11.086  0.3055 -0.8944 -1.1808
  118MOL0     H16221   9.482   2.688  11.213 -0.2861 -2.4980  1.6484
  118MOL0     H16222   9.456   2.520  11.183 -0.1061 -1.3063 -1.6316
  118MOL0     H16223   9.485   2.739  10.969  0.5234 -1.4328 -1.0467
  118MOL0     H16224   9.620   2.637  11.037 -1.1640 -2.3451  0.4116
  118MOL0     H16225   9.374   2.532  10.906 -0.4393  0.7825  1.8222
  118MOL0     H16226   9.496   2.424  10.956  2.5582 -1.3145 -3.0446
  118MOL0     H16227   9.525   2.662  10.749  2.3250  0.8149  0.8969
  118MOL0     H16228   9.659   2.541  10.770  0.0183  0.5865  0.6816
  118MOL0     H16229   9.397   2.436  10.668 -0.5330  0.9396  2.0692
  118MOL0     H16230   9.561   2.373  10.682  1.3640  0.7793 -0.9067
  118MOL0     H16231   9.528   2.412  10.449 -1.3092  1.5942 -1.2148
  118MOL0     H16232   9.459   2.576  10.470  0.9118  1.1696  0.2855
  118MOL0     H16233   9.803   2.397  10.539  2.0061 -0.8726 -1.3930
  118MOL0     H16234  10.020   2.424  10.479 -0.8700  0.1518 -2.3955
  118MOL0     H16235  10.076   2.563  10.565 -1.7797  1.1335  0.2515
  118MOL0     H16236  10.138   2.669  10.336  1.0930  0.4864 -1.0920
  118MOL0     H16237  10.183   2.495  10.328  1.0276  1.4290  0.5045
  118MOL0     H16238   9.955   2.456  10.225  1.5114 -0.7039 -1.7154
  118MOL0     H16239   9.956   2.635  10.210 -2.8819 -1.7931  1.9589
  118MOL0     H16240  10.055   2.559   9.995  0.0571 -0.2584 -0.7640
  118MOL0     H16241  10.187   2.600  10.099 -0.9227  0.4968 -0.2374
  118MOL0     H16242  10.218   2.522   9.862 -0.8394  0.1321  0.4772
  118MOL0     H16243  10.360   2.410   9.563 -1.5323  1.4350  1.5237
  118MOL0     H16244  10.492   2.483   9.648 -0.1314  0.7370 -1.9666
  118MOL0     H16245  10.316   2.542   9.648 -1.4088 -0.6457  0.0995
  118MOL0     H16246  10.563   1.935   9.537  0.8111  0.8572  0.6949
  118MOL0     H16247  10.751   1.870   9.399  1.3161  0.6566 -0.4378
  118MOL0     H16248  10.995   2.150   9.139  1.7731 -0.7883 -1.0797
  118MOL0     H16249  11.040   2.167   9.311 -1.5225 -0.8811  1.2006
  118MOL0     H16250  11.132   1.924   9.258 -1.4406  1.6385  1.4674
  118MOL0     H16251  11.100   1.959   9.087 -2.3803  0.2422  0.2989
  118MOL0     H16252  11.256   2.144   9.260  2.1232 -1.2708  1.1737
  118MOL0     H16253  11.242   2.140   9.082  0.4127 -0.6970  0.6212
  118MOL0     H16254  11.352   1.911   9.080 -1.5024 -0.3091 -0.6429
  118MOL0     H16255  11.402   1.932   9.242 -0.2844  1.7486 -0.0587
  118MOL0     H16256  11.578   1.974   9.113  0.9538  0.9029  1.4303
  118MOL0     H16257  11.516   2.105   9.014  2.8313  0.9897  0.9728
  118MOL0     H16258  11.524   2.117   9.315  2.0645  0.4902  0.1971
  118MOL0     H16259  11.483   2.252   9.212  0.7782  1.5588 -0.2129
  118MOL0     H16260  11.711   2.261   9.321  0.7126  1.7699 -1.2226
  118MOL0     H16261  11.694   2.295   9.145 -0.0151 -0.0187 -1.0807
  118MOL0     H16262  11.884   2.191   9.207 -1.0605  1.9167  0.8217
  118MOL0     H16263  11.809   2.116   9.071  2.4473  1.9684 -0.1128
  118MOL0     H16264  10.823   2.275   9.281 -1.7782 -0.5404 -2.3914
  118MOL0     H16265  10.618   2.336   9.445 -3.7890 -1.8948  0.6408
  118MOL0     H16266  10.444   2.090   9.932 -0.6384 -0.1402 -1.2637
  118MOL0     H16267  10.313   2.170  10.116  1.6148 -1.0947 -1.6219
  118MOL0     H16268   9.163   2.275  11.337  0.4369 -0.5931  2.8356
  118MOL0     H16269   8.958   2.167  11.430 -3.1265  0.2596 -0.0418
  118MOL0     H16270   8.716   1.981  11.604  0.4666  0.5484  0.8782
  118MOL0     H16271   8.561   1.858  11.767 -2.0155 -0.0764  0.9600
  118MOL0     H16272   8.327   1.763  11.779  2.1111 -1.0569  0.4786
  118MOL0     H16273   8.386   1.792  11.952 -1.5972 -1.9195  0.8684
  118MOL0     H16274   8.100   1.809  11.851 -0.3926  0.1270 -1.0857
  118MOL0     H16275   8.176   1.843  12.014  2.6497 -1.7756  0.2726
  118MOL0     H16276   8.160   1.593  11.847  1.6212  0.8688 -0.6460
  118MOL0     H16277   8.242   1.591  12.009  0.3783  2.8196 -0.7083
  118MOL0     H16278   8.006   1.485  12.012  1.2013  0.9370 -1.1633
  118MOL0     H16279   7.937   1.641  11.982 -0.4435  0.6540 -1.3760
  118MOL0     H16280   8.006   1.613  12.402  0.1126 -1.7027 -0.2556
  118MOL0     H16281   8.277   2.170  11.698  0.3396  0.9666  0.4093
  118MOL0     H16282   8.436   2.291  11.402  1.3135  0.0122 -0.2081
  118MOL0     H16283   8.316   2.341  11.534  0.3178  1.9494 -0.3097
  118MOL0     H16284   8.486   2.392  11.533  1.6120 -1.0752 -1.6943
  119MOL0     O16285  10.243   6.616   6.933  0.2785 -0.1907 -0.2609
  119MOL0     C16286  10.311   6.565   6.845 -0.6281  0.5916 -0.1807
  119MOL0     O16287  10.316   6.618   6.722  0.0036 -0.4083 -0.2266
  119MOL0     C16288  10.261   6.742   6.701  0.1346 -0.6521  0.5145
  119MOL0     C16289  10.179   6.743   6.594 -0.0965 -0.0542 -0.5751
  119MOL0     C16290  10.110   6.859   6.547  0.1992  0.1760  0.3998
  119MOL0     C16291  10.148   6.979   6.611  0.4998 -0.3629  0.0107
  119MOL0     O16292  10.094   7.083   6.548 -0.1966  0.0082 -0.7562
  119MOL0     C16293  10.019   7.177   6.629 -0.8798  0.7073  0.3762
  119MOL0     C16294   9.877   7.133   6.622 -0.4592  0.2004 -0.7424
  119MOL0     C16295   9.803   7.188   6.493 -0.4049 -0.2623  0.4575
  119MOL0     C16296   9.660   7.122   6.485 -0.2757 -0.1054  0.2354
  119MOL0     C16297   9.609   7.154   6.351 -0.5547 -0.0217  0.4433
  119MOL0     C16298   9.588   7.303   6.337  0.5516 -1.0531 -0.1637
  119MOL0     C16299   9.511   7.347   6.213  0.0248 -0.0268 -0.4462
  119MOL0     C16300   9.486   7.495   6.213  0.2452 -0.4142  0.4931
  119MOL0     N16301   9.356   7.544   6.171  0.2692  0.3624 -0.6519
  119MOL0     C16302   9.295   7.529   6.043  0.0549 -1.5150  0.1706
  119MOL0     C16303   9.186   7.611   6.057 -0.5840 -0.2326 -0.8449
  119MOL0     C16304   9.070   7.613   5.958 -1.5926  0.6355  0.3429
  119MOL0     C16305   9.076   7.733   5.868  0.0686 -0.7029 -0.9953
  119MOL0     C16306   8.971   7.718   5.756 -0.1365  0.6085  0.6657
  119MOL0     C16307   8.979   7.840   5.664 -0.6671 -0.7853  0.1848
  119MOL0     O16308   8.864   7.842   5.590  0.4394 -1.0367 -0.4824
  119MOL0     C16309   8.839   7.930   5.491 -0.7480 -0.0293 -0.9741
  119MOL0     C16310   8.714   7.930   5.423  0.9974  0.1451 -0.6005
  119MOL0     C16311   8.691   8.026   5.321 -0.1021 -0.3485 -0.9534
  119MOL0     C16312   8.553   8.014   5.256  0.4016  0.5714 -0.2116
  119MOL0     C16313   8.790   8.106   5.271 -1.0074  0.0112 -0.8098
  119MOL0     C16314   8.775   8.212   5.170  0.1474 -0.1358 -0.2350
  119MOL0     O16315   8.887   8.261   5.116 -0.0436 -0.4878  0.2288
  119MOL0     C16316   8.884   8.384   5.050  0.5807 -0.5037  0.1488
  119MOL0     C16317   8.963   8.390   4.935  0.0347 -0.7546 -0.4795
  119MOL0     C16318   8.950   8.496   4.852  0.7318  1.1120 -0.1812
  119MOL0     C16319   8.858   8.601   4.881  0.3021  0.5994 -0.3639
  119MOL0     O16320   8.826   8.693   4.790 -0.1992  0.3747 -0.2066
  119MOL0     C16321   8.934   8.780   4.754  0.4686  1.4552 -0.3190
  119MOL0     C16322   8.909   8.831   4.613 -0.5126 -0.5852  0.2730
  119MOL0     C16323   8.872   8.729   4.500 -0.8497  0.8691 -0.1387
  119MOL0     C16324   8.813   8.790   4.372  0.6795  0.7799  0.1150
  119MOL0     C16325   8.760   8.707   4.258 -0.4301 -0.5951  0.4602
  119MOL0     C16326   8.874   8.628   4.200 -0.7684 -0.3809  0.0639
  119MOL0     C16327   8.829   8.520   4.103 -0.4885 -0.3125 -0.0264
  119MOL0     C16328   8.713   8.424   4.145 -0.5410  0.1609  0.7668
  119MOL0    Cl16329   8.714   8.291   4.016  0.1148  0.1403  0.0733
  119MOL0     C16330   8.785   8.596   5.002  0.9814 -1.0410 -0.7601
  119MOL0     C16331   8.803   8.493   5.093 -0.0491  0.3177 -0.5364
  119MOL0     O16332   8.660   8.244   5.139  0.7865 -0.6077 -0.4626
  119MOL0     C16333   8.921   8.097   5.331 -0.4512  1.0177 -0.3655
  119MOL0     C16334   8.945   8.012   5.444  0.8546 -0.0088 -0.0448
  119MOL0     N16335   9.180   7.659   6.190  0.5616  0.4087  0.5385
  119MOL0     N16336   9.289   7.622   6.246  0.1900  0.2153 -0.0753
  119MOL0     C16337  10.247   6.988   6.714  1.0515 -0.3589  0.1459
  119MOL0     C16338  10.292   6.867   6.761  0.8266  0.7735 -0.7810
  119MOL0     C16339  10.382   6.437   6.870 -0.2768 -0.5922 -0.5234
  119MOL0     C16340  10.381   6.398   7.008  0.2670 -0.4719  0.0257
  119MOL0     C16341  10.448   6.281   7.041 -0.0188  0.0103 -0.1547
  119MOL0     C16342  10.512   6.204   6.947 -0.6170  1.5307  0.1953
  119MOL0     O16343  10.567   6.086   6.994 -0.0668  0.3304  0.0747
  119MOL0     C16344  10.481   5.976   6.971  0.1301  0.3576 -0.0836
  119MOL0     C16345  10.559   5.844   6.942  0.4515 -0.9116 -0.2800
  119MOL0     C16346  10.660   5.813   7.055 -0.3168 -0.4799 -0.0055
  119MOL0     C16347  10.735   5.682   7.021  0.8227  0.0891 -0.8874
  119MOL0     C16348  10.806   5.652   7.148  0.8406  0.0859 -0.3547
  119MOL0     C16349  10.868   5.614   7.249  0.7771 -0.4142  0.9235
  119MOL0     C16350  10.509   6.241   6.814 -0.0938  1.3319 -0.9019
  119MOL0     C16351  10.450   6.359   6.766 -0.2316 -0.4351 -0.2644
  119MOL0     C16352  10.457   6.381   6.621  0.3800 -0.7269  0.3307
  119MOL0     H16353  10.171   6.644   6.549  1.7429 -1.3891  1.7894
  119MOL0     H16354  10.045   6.849   6.461 -1.1527  1.7591  1.2005
  119MOL0     H16355  10.031   7.277   6.585 -4.4454  0.4617 -1.4499
  119MOL0     H16356  10.052   7.173   6.733  0.7847  1.3328 -0.0869
  119MOL0     H16357   9.870   7.024   6.631  1.5041  0.1244  0.5804
  119MOL0     H16358   9.831   7.163   6.716  1.3549  0.5550  0.0818
  119MOL0     H16359   9.785   7.294   6.516  2.1743 -0.4820  4.4497
  119MOL0     H16360   9.860   7.158   6.405  1.4611 -0.1336  1.5744
  119MOL0     H16361   9.654   7.013   6.496 -2.3547 -0.1670 -0.9299
  119MOL0     H16362   9.595   7.154   6.566 -0.0825 -2.3700  1.3470
  119MOL0     H16363   9.510   7.114   6.326 -0.7198  2.2135 -3.2181
  119MOL0     H16364   9.679   7.127   6.272 -1.4962 -2.7359  0.4106
  119MOL0     H16365   9.549   7.345   6.431 -0.0978  0.2789 -0.9948
  119MOL0     H16366   9.682   7.359   6.338 -1.9943  3.8240  1.7361
  119MOL0     H16367   9.416   7.293   6.206  0.0994  0.0358 -2.7247
  119MOL0     H16368   9.561   7.320   6.120 -0.2069  0.8228 -0.8302
  119MOL0     H16369   9.490   7.521   6.319 -0.8572  0.5469  0.3187
  119MOL0     H16370   9.562   7.554   6.162  1.7847 -1.9703  0.9031
  119MOL0     H16371   9.325   7.466   5.960  0.0772  0.5389 -1.4737
  119MOL0     H16372   8.973   7.605   6.007 -1.5061 -0.4663  0.3667
  119MOL0     H16373   9.080   7.525   5.894  1.5620 -0.0637  1.6092
  119MOL0     H16374   9.065   7.821   5.932 -1.0244 -1.6190  0.1171
  119MOL0     H16375   9.171   7.741   5.814 -0.9022  1.6867 -2.5299
  119MOL0     H16376   9.011   7.633   5.699  0.8484  2.5967 -1.7989
  119MOL0     H16377   8.870   7.701   5.794 -1.5664  0.6352 -2.7242
  119MOL0     H16378   8.991   7.935   5.716  0.3506 -1.6322  1.5695
  119MOL0     H16379   9.066   7.821   5.600 -0.3370 -0.2321  0.4680
  119MOL0     H16380   8.629   7.865   5.445  0.6091  0.8569  0.0434
  119MOL0     H16381   8.506   7.920   5.287  1.1629  0.5494  0.9057
  119MOL0     H16382   8.556   8.004   5.147 -1.3741  1.4859 -0.3961
  119MOL0     H16383   8.495   8.102   5.288  0.2721 -0.0769  1.4269
  119MOL0     H16384   9.023   8.300   4.923  0.8050 -0.1885 -0.9697
  119MOL0     H16385   9.013   8.491   4.764  1.3801 -3.4322  0.2615
  119MOL0     H16386   8.937   8.875   4.809 -1.3621  3.4005 -3.2515
  119MOL0     H16387   9.030   8.729   4.757 -0.7648 -1.0567 -1.4524
  119MOL0     H16388   8.826   8.902   4.619 -2.4135 -2.3900 -2.2433
  119MOL0     H16389   8.999   8.888   4.586 -0.8563 -0.0079  0.3370
  119MOL0     H16390   8.799   8.658   4.539  0.1701 -1.4554 -2.2097
  119MOL0     H16391   8.948   8.657   4.467 -1.7729  0.0097 -0.4236
  119MOL0     H16392   8.878   8.864   4.325  0.4701  1.6238  1.1056
  119MOL0     H16393   8.728   8.855   4.397 -0.0436  0.6680 -1.9126
  119MOL0     H16394   8.684   8.640   4.299 -1.7603 -0.0075 -0.9302
  119MOL0     H16395   8.727   8.775   4.178  0.8457 -0.3067  0.1483
  119MOL0     H16396   8.912   8.564   4.280  1.2931  1.5945  0.7596
  119MOL0     H16397   8.949   8.694   4.156 -3.0507  1.4166 -1.3795
  119MOL0     H16398   8.912   8.450   4.086 -1.3756 -2.2021  2.8357
  119MOL0     H16399   8.797   8.576   4.014 -1.9538  1.0171  1.2762
  119MOL0     H16400   8.616   8.473   4.149  0.3920  2.2640 -0.7938
  119MOL0     H16401   8.738   8.398   4.248  0.6635  4.2685  1.6893
  119MOL0     H16402   8.724   8.683   5.025  2.2521 -0.4689  0.6756
  119MOL0     H16403   8.755   8.488   5.190  1.7653 -2.2591  0.3634
  119MOL0     H16404   8.999   8.160   5.288 -1.5850 -1.0814 -6.4025
  119MOL0     H16405   9.047   8.019   5.482  1.1965  2.7921 -1.2098
  119MOL0     H16406  10.267   7.084   6.761 -2.2785 -0.7012  2.6144
  119MOL0     H16407  10.341   6.876   6.857 -2.1305  0.0094  0.8980
  119MOL0     H16408  10.322   6.455   7.078  0.1123  0.3417 -0.7497
  119MOL0     H16409  10.442   6.242   7.142 -0.0202 -0.8974 -0.5013
  119MOL0     H16410  10.421   5.972   7.062  2.2995  1.6070  1.4941
  119MOL0     H16411  10.414   5.982   6.885 -2.5056 -3.5139  1.4436
  119MOL0     H16412  10.609   5.868   6.848  1.0543 -1.5272 -0.1306
  119MOL0     H16413  10.487   5.762   6.930 -1.7972  0.6811  1.4685
  119MOL0     H16414  10.727   5.897   7.074  0.2003 -0.2326 -2.5970
  119MOL0     H16415  10.608   5.805   7.151  0.4335  0.3933  0.4860
  119MOL0     H16416  10.809   5.702   6.943 -0.3684  2.7000 -1.4655
  119MOL0     H16417  10.673   5.600   6.983  0.6361  0.5213 -1.5428
  119MOL0     H16418  10.926   5.590   7.336 -0.7827 -0.4339  1.9855
  119MOL0     H16419  10.557   6.169   6.749  0.9174 -1.0248  2.1945
  119MOL0     H16420  10.355   6.387   6.582 -1.1757  0.7286  4.1948
  119MOL0     H16421  10.497   6.483   6.614  2.2909 -1.5245 -2.0878
  119MOL0     H16422  10.531   6.324   6.563 -0.8778 -0.4678 -1.6138
  120MOL0     O16423   6.615   7.995  11.449 -0.3572 -0.4567 -0.0760
  120MOL0     C16424   6.631   8.103  11.388 -1.0931 -0.4814  0.8980
  120MOL0     O16425   6.533   8.170  11.314  0.4000 -0.1086  0.2057
  120MOL0     C16426   6.409   8.128  11.341  0.3151  0.6040 -0.6789
  120MOL0     C16427   6.362   8.002  11.292  0.2841  0.0537 -0.7072
  120MOL0     C16428   6.232   7.961  11.338  0.1761 -0.1545  0.8612
  120MOL0     C16429   6.150   8.033  11.418  0.1586 -0.9792  0.2894
  120MOL0     O16430   6.024   7.973  11.434  0.0860  0.0849 -0.0462
  120MOL0     C16431   5.932   8.054  11.515 -0.8139 -0.1139  0.4237
  120MOL0     C16432   5.828   7.968  11.585  0.8039  0.5046  0.6179
  120MOL0     C16433   5.761   7.868  11.488  0.1742 -0.9303  0.1601
  120MOL0     C16434   5.701   7.925  11.358  0.0325 -0.0929  0.3932
  120MOL0     C16435   5.558   7.964  11.398  0.7060  0.0613  0.3051
  120MOL0     C16436   5.478   8.050  11.295  0.3143 -0.6687  0.1539
  120MOL0     C16437   5.345   8.096  11.343 -0.2591 -0.5121 -0.0103
  120MOL0     C16438   5.290   8.212  11.268  0.4310  0.7290 -1.1203
  120MOL0     N16439   5.247   8.162  11.137 -0.8124  0.3337  0.8645
  120MOL0     C16440   5.339   8.156  11.031 -0.2493  0.7333 -0.3005
  120MOL0     C16441   5.267   8.129  10.918 -0.8514  0.0125  0.0520
  120MOL0     C16442   5.348   8.136  10.787  0.4793 -0.9311 -0.8614
  120MOL0     C16443   5.383   8.288  10.741 -0.7011 -1.1308  0.5177
  120MOL0     C16444   5.491   8.302  10.629  0.4294  0.3390 -0.3143
  120MOL0     C16445   5.602   8.205  10.637 -0.5780 -0.1930 -0.5390
  120MOL0     O16446   5.661   8.187  10.769 -0.1813  0.2893 -0.5656
  120MOL0     C16447   5.771   8.105  10.784 -0.4337 -0.1106 -1.0949
  120MOL0     C16448   5.813   8.081  10.916 -0.5747  0.2361 -0.8412
  120MOL0     C16449   5.910   7.987  10.954 -0.7789 -0.3369  0.2095
  120MOL0     C16450   5.938   7.971  11.101 -0.4571 -0.3768  0.1266
  120MOL0     C16451   5.975   7.910  10.846  0.3716  0.8159  0.6385
  120MOL0     C16452   6.087   7.814  10.858 -0.4470 -0.2485 -1.0968
  120MOL0     O16453   6.098   7.721  10.764 -0.5092 -0.4547  0.6367
  120MOL0     C16454   6.210   7.646  10.748 -0.2444 -0.0496 -0.9045
  120MOL0     C16455   6.209   7.503  10.777 -0.4207 -0.3830  1.1639
  120MOL0     C16456   6.315   7.413  10.743 -0.4607  0.9948 -0.7304
  120MOL0     C16457   6.431   7.464  10.694 -0.0379  0.1493  0.4607
  120MOL0     O16458   6.528   7.373  10.661 -1.6280  0.0973 -1.0232
  120MOL0     C16459   6.665   7.426  10.656 -0.0890  0.0469 -0.0545
  120MOL0     C16460   6.734   7.474  10.532  0.0886  0.5205 -0.7092
  120MOL0     C16461   6.884   7.517  10.547  0.1295 -0.8808 -1.2315
  120MOL0     C16462   6.972   7.391  10.548  0.0999  0.4853 -0.1101
  120MOL0     C16463   7.115   7.426  10.593  0.0739 -0.7454  0.0831
  120MOL0     C16464   7.219   7.306  10.573 -0.5479  0.4731  0.3208
  120MOL0     C16465   7.230   7.247  10.434 -0.3590 -0.3755  0.2006
  120MOL0     C16466   7.367   7.182  10.402 -0.6341  0.3517 -0.3423
  120MOL0    Cl16467   7.366   7.050  10.280  0.2329  0.1353 -0.1110
  120MOL0     C16468   6.441   7.610  10.675 -0.6320 -0.3984  0.6011
  120MOL0     C16469   6.330   7.686  10.694 -1.3168  0.5080 -0.2683
  120MOL0     O16470   6.163   7.819  10.959  0.1636  0.3270  0.0833
  120MOL0     C16471   5.928   7.933  10.713  0.3749  0.9460 -0.9546
  120MOL0     C16472   5.833   8.028  10.690  1.1016  0.0731 -0.0074
  120MOL0     N16473   5.126   8.130  10.950  0.6260  0.5853 -0.2499
  120MOL0     N16474   5.122   8.148  11.084 -0.0664  0.5596 -0.8655
  120MOL0     C16475   6.194   8.164  11.456 -0.4622 -1.0476 -0.2435
  120MOL0     C16476   6.318   8.211  11.411 -0.1090 -0.2168 -0.3715
  120MOL0     C16477   6.758   8.173  11.408 -0.2314 -0.3627  0.1806
  120MOL0     C16478   6.772   8.310  11.364  0.5761 -0.0618 -1.1269
  120MOL0     C16479   6.876   8.385  11.380 -0.6783 -0.5673 -1.0826
  120MOL0     C16480   6.993   8.340  11.439 -0.6055  0.0649 -1.0248
  120MOL0     O16481   7.100   8.422  11.458 -0.3746  0.3420 -0.3750
  120MOL0     C16482   7.201   8.414  11.352 -1.2621  0.3697  0.8012
  120MOL0     C16483   7.338   8.403  11.437 -1.1739  0.6273  0.2114
  120MOL0     C16484   7.429   8.284  11.399 -0.0053  0.0109  0.7061
  120MOL0     C16485   7.355   8.152  11.370 -0.0486 -0.7314  0.8714
  120MOL0     C16486   7.458   8.046  11.339 -0.3832  0.5741 -0.0446
  120MOL0     C16487   7.539   7.960  11.320 -0.2038  0.3601  0.4280
  120MOL0     C16488   6.995   8.204  11.479  1.0187  0.1727  0.4714
  120MOL0     C16489   6.881   8.121  11.454  0.6653  0.7211  0.2142
  120MOL0     C16490   6.897   7.972  11.498 -0.4951  0.1561  0.2335
  120MOL0     H16491   6.432   7.937  11.241  2.9193  2.4850 -0.4527
  120MOL0     H16492   6.205   7.862  11.302  0.3157  0.4481 -0.9856
  120MOL0     H16493   5.912   8.144  11.457  1.7867  1.3486  1.6328
  120MOL0     H16494   5.984   8.092  11.603 -2.3157 -0.8563  1.6799
  120MOL0     H16495   5.891   7.905  11.649  0.7845 -0.4619 -0.2829
  120MOL0     H16496   5.750   8.020  11.641  0.5059  1.2279 -0.4369
  120MOL0     H16497   5.841   7.795  11.469  2.6092  0.8398  2.8992
  120MOL0     H16498   5.697   7.807  11.552  1.5729 -0.2762  2.2723
  120MOL0     H16499   5.746   8.019  11.325 -0.0148 -0.6882 -1.5353
  120MOL0     H16500   5.699   7.844  11.284  0.9283  1.5304 -1.4929
  120MOL0     H16501   5.562   8.024  11.490 -1.0667 -0.0482  0.4896
  120MOL0     H16502   5.502   7.876  11.429 -1.1598  1.4014  0.9262
  120MOL0     H16503   5.537   8.135  11.259  0.4025 -0.7948 -0.0009
  120MOL0     H16504   5.465   7.993  11.203  0.2406  0.3494 -0.4915
  120MOL0     H16505   5.349   8.097  11.453  0.3452 -0.9775 -0.0196
  120MOL0     H16506   5.270   8.017  11.331 -1.1738  0.2769  0.3759
  120MOL0     H16507   5.210   8.260  11.324  0.0126 -1.1784  0.0101
  120MOL0     H16508   5.369   8.286  11.254  0.2217  0.8348 -1.7762
  120MOL0     H16509   5.446   8.153  11.019 -0.2108 -2.9277 -0.0723
  120MOL0     H16510   5.279   8.102  10.709 -1.0069 -2.3827  0.9650
  120MOL0     H16511   5.434   8.069  10.790  1.8260  0.6459 -2.4339
  120MOL0     H16512   5.286   8.332  10.714 -1.2182 -1.1111  2.3052
  120MOL0     H16513   5.424   8.343  10.826 -2.7364  0.9469  0.2597
  120MOL0     H16514   5.446   8.286  10.530 -0.6754 -3.1617  0.6180
  120MOL0     H16515   5.536   8.402  10.632 -1.3293  1.1543  0.1146
  120MOL0     H16516   5.574   8.109  10.594  1.2409 -1.7684  1.5258
  120MOL0     H16517   5.679   8.253  10.575  0.4056  3.6457  3.1076
  120MOL0     H16518   5.783   8.146  10.998 -0.6747  1.9914 -2.1928
  120MOL0     H16519   5.839   7.972  11.147 -2.5879 -0.1520 -4.0088
  120MOL0     H16520   5.990   8.060  11.137  0.7761  0.2884 -2.9660
  120MOL0     H16521   5.989   7.876  11.121  2.1959  0.9501  0.0461
  120MOL0     H16522   6.124   7.468  10.835 -0.1738 -0.2812  1.5909
  120MOL0     H16523   6.304   7.307  10.764 -2.4149  1.2843  0.0082
  120MOL0     H16524   6.677   7.499  10.736  1.4560  1.0636 -1.1529
  120MOL0     H16525   6.733   7.344  10.682 -1.3557 -0.2270  2.6548
  120MOL0     H16526   6.714   7.398  10.455 -1.9007  3.2849 -3.1523
  120MOL0     H16527   6.679   7.562  10.497 -3.3442 -1.8431 -1.8934
  120MOL0     H16528   6.890   7.572  10.642 -2.8173 -1.0419 -0.8401
  120MOL0     H16529   6.906   7.585  10.465 -1.3503 -0.1290 -1.0403
  120MOL0     H16530   6.973   7.349  10.448 -1.9051 -0.7128  0.3325
  120MOL0     H16531   6.938   7.318  10.623  2.0347  0.2841  0.6512
  120MOL0     H16532   7.150   7.511  10.535  1.0064  0.3751  2.1748
  120MOL0     H16533   7.114   7.435  10.702  0.6103 -0.8009  0.0962
  120MOL0     H16534   7.208   7.218  10.637  0.3756 -2.5952 -3.4055
  120MOL0     H16535   7.313   7.354  10.601 -0.0435 -1.7087  2.8231
  120MOL0     H16536   7.221   7.330  10.364 -2.5573  0.5928  1.5231
  120MOL0     H16537   7.151   7.173  10.416  2.3015 -3.5129  0.4023
  120MOL0     H16538   7.421   7.148  10.491  0.0623  3.2897  0.4562
  120MOL0     H16539   7.439   7.254  10.363 -1.8193  0.1724 -3.0603
  120MOL0     H16540   6.529   7.657  10.633  1.1436 -1.5148  2.8342
  120MOL0     H16541   6.354   7.792  10.690  3.4746 -0.3983 -2.8891
  120MOL0     H16542   5.982   7.893  10.628  0.4715 -0.8878 -0.0776
  120MOL0     H16543   5.827   8.046  10.583 -1.0026  0.6285  0.1559
  120MOL0     H16544   6.129   8.235  11.505  1.3982  3.3489 -3.4790
  120MOL0     H16545   6.360   8.309  11.429  0.4943 -0.6462  0.6638
  120MOL0     H16546   6.687   8.355  11.314 -0.4871  0.4915  1.0293
  120MOL0     H16547   6.863   8.492  11.362 -0.4941 -0.1302  1.0813
  120MOL0     H16548   7.183   8.330  11.285  2.6403  0.2643 -0.3688
  120MOL0     H16549   7.206   8.500  11.285  1.6997 -0.4865 -0.2520
  120MOL0     H16550   7.309   8.373  11.538 -0.3483 -1.3119 -0.0647
  120MOL0     H16551   7.399   8.494  11.439 -0.3990  0.1904 -1.6313
  120MOL0     H16552   7.499   8.320  11.323 -2.9512 -0.2709 -2.3492
  120MOL0     H16553   7.485   8.269  11.492  3.1268 -0.4958 -1.1082
  120MOL0     H16554   7.301   8.174  11.278  0.5447 -0.8000  0.5019
  120MOL0     H16555   7.283   8.132  11.450 -1.0735  1.6682  0.6176
  120MOL0     H16556   7.612   7.882  11.321 -0.9694 -0.4517 -2.0346
  120MOL0     H16557   7.069   8.156  11.542  1.6430 -0.1184 -0.4729
  120MOL0     H16558   7.003   7.966  11.523 -0.6546  0.7833  1.1216
  120MOL0     H16559   6.833   7.950  11.584  2.6379 -1.8046  2.2599
  120MOL0     H16560   6.874   7.891  11.429  2.5927 -0.6635  0.0463
  121MOL0     O16561   0.521  10.480   5.221 -0.3716 -0.3460 -0.6677
  121MOL0     C16562   0.444  10.568   5.252  0.3632 -0.1953  0.1798
  121MOL0     O16563   0.472  10.706   5.256  0.0388 -0.0635  0.5195
  121MOL0     C16564   0.594  10.764   5.250 -1.2126 -0.7489  1.1370
  121MOL0     C16565   0.719  10.708   5.288 -0.0432 -0.2851 -0.0948
  121MOL0     C16566   0.834  10.787   5.263 -0.1827 -0.1192  0.9079
  121MOL0     C16567   0.830  10.925   5.212 -0.7654 -0.0425  0.2049
  121MOL0     O16568   0.931  11.020   5.187 -0.0405 -0.3988  0.1715
  121MOL0     C16569   1.055  10.987   5.242 -0.4200  0.1240 -0.2768
  121MOL0     C16570   1.159  11.068   5.166  0.3053  0.1616  0.3043
  121MOL0     C16571   1.142  11.059   5.014  0.2367 -0.6803  0.5421
  121MOL0     C16572   1.220  11.177   4.942 -0.2407 -0.1674  0.7523
  121MOL0     C16573   1.223  11.146   4.792 -0.2888 -0.1827  0.6405
  121MOL0     C16574   1.087  11.182   4.731  0.7867 -0.3701  0.0992
  121MOL0     C16575   1.081  11.174   4.579 -0.7985  0.0832  0.4172
  121MOL0     C16576   1.146  11.301   4.521 -0.5510 -0.6640 -0.0784
  121MOL0     N16577   1.054  11.419   4.510  0.5605 -0.3982  0.0883
  121MOL0     C16578   0.956  11.427   4.411 -0.1134  0.9593 -0.9550
  121MOL0     C16579   0.872  11.527   4.451  0.3510  0.3397  0.3121
  121MOL0     C16580   0.760  11.569   4.364 -0.5642 -0.3160 -0.3995
  121MOL0     C16581   0.801  11.678   4.265  0.3399  0.1039  0.0075
  121MOL0     C16582   0.815  11.810   4.327 -0.0166 -0.2735 -0.1658
  121MOL0     C16583   0.809  11.918   4.221  0.1939  0.6922  0.7332
  121MOL0     O16584   0.695  11.924   4.132  0.3857 -0.3391 -0.0669
  121MOL0     C16585   0.581  11.975   4.183  0.1617  0.5778  0.2965
  121MOL0     C16586   0.458  11.961   4.105 -0.0382 -0.2374 -0.7672
  121MOL0     C16587   0.333  11.999   4.162  0.1124  1.0975 -0.3632
  121MOL0     C16588   0.211  11.968   4.080 -0.7030  0.8558  0.5424
  121MOL0     C16589   0.335  12.069   4.286 -0.0823  0.9685 -0.3238
  121MOL0     C16590   0.218  12.140   4.338 -0.6191 -0.1721 -1.0826
  121MOL0     O16591   0.204  12.143   4.480  0.3369 -0.5129  0.3526
  121MOL0     C16592   0.102  12.210   4.552 -0.0503  0.1039 -0.0880
  121MOL0     C16593   0.110  12.181   4.692  0.7525 -0.7236  0.2886
  121MOL0     C16594   0.011  12.249   4.778  0.1877 -0.6062  0.0299
  121MOL0     C16595  -0.082  12.341   4.728 -0.1396 -0.0665 -0.7014
  121MOL0     O16596  -0.159  12.429   4.799 -0.3013 -0.8881  0.1951
  121MOL0     C16597  -0.184  12.424   4.937 -0.3673  0.3577 -0.0095
  121MOL0     C16598  -0.336  12.397   4.965  0.2229 -1.0128  0.3378
  121MOL0     C16599  -0.375  12.248   4.968  0.6519 -0.1806 -0.3723
  121MOL0     C16600  -0.517  12.225   5.019 -0.3952  0.4645  0.5979
  121MOL0     C16601  -0.570  12.097   4.963 -0.3586  1.5333  0.5665
  121MOL0     C16602  -0.715  12.069   5.015 -0.2666 -0.3288 -1.0711
  121MOL0     C16603  -0.825  12.145   4.933  0.5417 -1.5569 -0.4897
  121MOL0     C16604  -0.825  12.082   4.793 -0.7618 -0.2221 -0.3530
  121MOL0    Cl16605  -0.970  12.130   4.702  0.3605 -0.2545 -0.0365
  121MOL0     C16606  -0.096  12.357   4.592 -0.0072 -0.0266  0.3317
  121MOL0     C16607  -0.004  12.296   4.504 -0.4531 -0.0669 -0.2027
  121MOL0     O16608   0.139  12.180   4.255  0.2972 -0.4388  0.1669
  121MOL0     C16609   0.457  12.090   4.356 -0.4133 -0.1818 -0.9744
  121MOL0     C16610   0.573  12.041   4.301  0.2416  0.0617 -0.0889
  121MOL0     N16611   0.914  11.571   4.568  0.2358 -0.6571  0.3521
  121MOL0     N16612   1.017  11.508   4.604  0.7706  0.4170 -1.3643
  121MOL0     C16613   0.700  10.972   5.197 -0.1135  1.0133 -0.0435
  121MOL0     C16614   0.585  10.890   5.197  0.9657  0.3095  0.6926
  121MOL0     C16615   0.310  10.532   5.311  0.1644  0.3208  0.6006
  121MOL0     C16616   0.265  10.596   5.427  0.0394 -1.1099 -0.3160
  121MOL0     C16617   0.141  10.560   5.488  0.2150 -0.1053 -0.5127
  121MOL0     C16618   0.066  10.461   5.443 -0.7140 -0.4821  0.3279
  121MOL0     O16619  -0.049  10.421   5.505  0.4896 -0.0720 -0.0111
  121MOL0     C16620  -0.043  10.363   5.629 -0.4965 -0.1847  0.7108
  121MOL0     C16621  -0.161  10.381   5.731  0.6776  0.2745 -0.0646
  121MOL0     C16622  -0.301  10.349   5.664 -0.2374 -0.1865 -0.0454
  121MOL0     C16623  -0.424  10.403   5.739 -0.5529  0.4079  0.7821
  121MOL0     C16624  -0.430  10.546   5.752  0.8410  0.2724 -0.0951
  121MOL0     C16625  -0.437  10.663   5.774  0.0595 -0.3172 -0.4000
  121MOL0     C16626   0.114  10.409   5.320  0.2052 -0.2598  0.9565
  121MOL0     C16627   0.228  10.430   5.254  0.1507  0.4829  0.6121
  121MOL0     C16628   0.263  10.348   5.124 -0.2560  0.4710  0.0068
  121MOL0     H16629   0.726  10.620   5.351  2.5614  1.0873  1.7358
  121MOL0     H16630   0.927  10.738   5.290  1.2055  1.7493 -0.1927
  121MOL0     H16631   1.093  10.884   5.238  1.1592  0.5344  2.2807
  121MOL0     H16632   1.059  11.014   5.347  0.6746  1.7371 -0.6924
  121MOL0     H16633   1.152  11.170   5.204  2.1877 -0.2226  1.8585
  121MOL0     H16634   1.254  11.025   5.198  0.3238  0.6942  0.9990
  121MOL0     H16635   1.199  10.968   4.993  5.1178  1.9283  0.9540
  121MOL0     H16636   1.037  11.056   4.983  0.4998  1.6731 -0.8483
  121MOL0     H16637   1.186  11.280   4.953 -1.5280 -0.7479  2.7051
  121MOL0     H16638   1.324  11.179   4.976  0.0630 -0.8661 -0.1038
  121MOL0     H16639   1.250  11.042   4.770  0.2942  0.2176 -0.6163
  121MOL0     H16640   1.287  11.222   4.746 -3.6898  2.2533 -0.4332
  121MOL0     H16641   1.021  11.097   4.753  1.1806 -0.3946  1.2510
  121MOL0     H16642   1.049  11.277   4.769 -0.9548 -1.1102  0.3066
  121MOL0     H16643   0.976  11.168   4.549 -0.7038  0.5905 -0.0345
  121MOL0     H16644   1.125  11.078   4.548 -0.5429  1.0703 -2.5966
  121MOL0     H16645   1.243  11.323   4.568 -0.5487 -1.8170  0.4774
  121MOL0     H16646   1.172  11.282   4.417 -1.1568 -0.6410 -0.2346
  121MOL0     H16647   0.949  11.381   4.312 -2.4297  0.2956 -0.5379
  121MOL0     H16648   0.691  11.616   4.435 -0.8777 -2.8397  1.0851
  121MOL0     H16649   0.706  11.486   4.318 -2.6520  1.7225 -1.8069
  121MOL0     H16650   0.899  11.642   4.232  0.0108 -1.9360  1.0750
  121MOL0     H16651   0.729  11.678   4.182 -1.3042  0.3776  1.3780
  121MOL0     H16652   0.732  11.836   4.394 -0.7178 -2.9711  0.1181
  121MOL0     H16653   0.909  11.818   4.381 -0.8295 -2.2617  1.6725
  121MOL0     H16654   0.835  12.010   4.274  0.7930  0.0512  1.5740
  121MOL0     H16655   0.889  11.879   4.158  0.3740 -0.0357  1.3924
  121MOL0     H16656   0.450  11.944   3.999 -0.6593 -2.5006 -0.4139
  121MOL0     H16657   0.242  11.918   3.988 -2.3013  1.7900 -0.5517
  121MOL0     H16658   0.173  12.066   4.053  2.1514  2.2568  1.2423
  121MOL0     H16659   0.139  11.899   4.126  0.2827 -0.1033  0.7110
  121MOL0     H16660   0.176  12.103   4.730 -0.5246 -2.0636 -0.1653
  121MOL0     H16661   0.019  12.217   4.881  1.1920  0.3724  0.2790
  121MOL0     H16662  -0.110  12.370   4.996  1.3444  2.5719 -0.0074
  121MOL0     H16663  -0.161  12.525   4.973  0.7549 -0.1142  0.6404
  121MOL0     H16664  -0.364  12.436   5.063 -2.1472 -1.9848  0.1139
  121MOL0     H16665  -0.400  12.452   4.895  1.0982 -1.1541 -0.5928
  121MOL0     H16666  -0.306  12.203   5.039  3.8769  0.5897 -2.7864
  121MOL0     H16667  -0.360  12.196   4.873  2.3455  0.9734 -0.7905
  121MOL0     H16668  -0.579  12.310   4.987 -0.6696  0.3004  0.6937
  121MOL0     H16669  -0.502  12.209   5.127  1.5859  0.2039  0.3237
  121MOL0     H16670  -0.553  12.078   4.856 -0.1427 -4.9001  1.3252
  121MOL0     H16671  -0.502  12.017   4.992 -0.0530  1.6646  0.2208
  121MOL0     H16672  -0.713  12.097   5.121  2.0342 -0.7616 -0.9471
  121MOL0     H16673  -0.759  11.969   5.020 -0.2328 -0.2898  2.5086
  121MOL0     H16674  -0.802  12.252   4.936 -0.5805 -1.3152  0.5349
  121MOL0     H16675  -0.923  12.139   4.982  0.0395 -1.4007 -1.4436
  121MOL0     H16676  -0.846  11.977   4.814  1.3095 -0.5325  0.3253
  121MOL0     H16677  -0.732  12.113   4.745 -1.7129  3.0318 -0.3865
  121MOL0     H16678  -0.167  12.426   4.547 -0.2629 -0.9011 -0.6353
  121MOL0     H16679  -0.021  12.303   4.397 -0.0284  1.6039 -0.1883
  121MOL0     H16680   0.468  12.154   4.442 -1.8658  0.7520 -1.4495
  121MOL0     H16681   0.658  12.059   4.366  0.0152  0.3925  0.1249
  121MOL0     H16682   0.676  11.071   5.159 -4.2013  0.1264 -0.1926
  121MOL0     H16683   0.484  10.924   5.177  0.7424  0.8087  2.5267
  121MOL0     H16684   0.318  10.676   5.477  0.8681 -1.3497 -0.7987
  121MOL0     H16685   0.107  10.613   5.577  0.1238 -2.1147  0.7152
  121MOL0     H16686  -0.030  10.259   5.598 -0.0117  0.8900 -3.2288
  121MOL0     H16687   0.048  10.386   5.685  1.3398 -0.1415 -2.0930
  121MOL0     H16688  -0.165  10.482   5.774 -4.1040  1.9440 -3.5524
  121MOL0     H16689  -0.147  10.307   5.810 -0.2090 -0.9044 -0.9856
  121MOL0     H16690  -0.288  10.401   5.569  0.1085  0.4377  0.3310
  121MOL0     H16691  -0.313  10.242   5.645  1.2081 -0.2765 -0.5984
  121MOL0     H16692  -0.431  10.360   5.839 -0.1004  2.4725  1.7738
  121MOL0     H16693  -0.510  10.374   5.678 -0.1394  1.5605 -0.4028
  121MOL0     H16694  -0.427  10.769   5.789  0.2624 -0.7582  3.6070
  121MOL0     H16695   0.046  10.344   5.266  2.5708 -0.7888 -1.6169
  121MOL0     H16696   0.330  10.264   5.142 -2.2861 -1.3174 -0.2676
  121MOL0     H16697   0.173  10.309   5.075  0.8954 -0.9828 -1.0054
  121MOL0     H16698   0.315  10.417   5.056  1.1745 -2.5240 -2.1657
  122MOL0     O16699   4.340   3.276   0.770 -0.1150  0.0949  0.2029
  122MOL0     C16700   4.230   3.342   0.758 -0.2274  0.3853  0.6659
  122MOL0     O16701   4.226   3.454   0.678 -0.5534 -0.0051  0.6436
  122MOL0     C16702   4.327   3.493   0.591  0.2713  0.0645 -0.3832
  122MOL0     C16703   4.282   3.557   0.476  0.8055  0.7255 -0.2332
  122MOL0     C16704   4.366   3.591   0.368 -0.4013  0.1159  0.1460
  122MOL0     C16705   4.500   3.564   0.375  0.8977 -0.3915  0.1973
  122MOL0     O16706   4.591   3.605   0.285  0.0427  0.2603 -0.2268
  122MOL0     C16707   4.592   3.506   0.176  0.6317  0.0940  0.8513
  122MOL0     C16708   4.727   3.449   0.136  0.4172 -0.8925  0.9101
  122MOL0     C16709   4.745   3.322   0.220  0.3736 -0.3884 -0.3540
  122MOL0     C16710   4.828   3.223   0.139 -0.3541 -0.6317  0.6870
  122MOL0     C16711   4.821   3.078   0.187  0.0629 -0.3138  0.2430
  122MOL0     C16712   4.884   3.059   0.327 -0.0250  0.2795 -0.3994
  122MOL0     C16713   4.908   2.909   0.366  0.4920 -0.6312 -0.8221
  122MOL0     C16714   4.788   2.818   0.340 -0.6300  0.5812 -0.2903
  122MOL0     N16715   4.780   2.753   0.209 -0.2363  0.1735  0.7953
  122MOL0     C16716   4.874   2.653   0.171  0.0528 -0.0971  0.1897
  122MOL0     C16717   4.823   2.600   0.056  0.2585  0.2998 -0.7387
  122MOL0     C16718   4.902   2.498  -0.031  0.2945 -0.1379 -0.3992
  122MOL0     C16719   4.930   2.555  -0.171 -1.5278 -0.4892  0.8240
  122MOL0     C16720   5.073   2.589  -0.200 -0.2838 -0.8505  0.3391
  122MOL0     C16721   5.082   2.694  -0.311 -0.3799  0.2938 -0.3211
  122MOL0     O16722   5.022   2.646  -0.439 -1.0066 -0.2822  0.6120
  122MOL0     C16723   5.092   2.561  -0.524  0.8894  0.5774 -0.0417
  122MOL0     C16724   5.047   2.561  -0.656  0.3704 -0.0925  0.1727
  122MOL0     C16725   5.099   2.485  -0.759  0.2222 -0.9389 -0.4248
  122MOL0     C16726   5.041   2.496  -0.902  0.5725  0.0934  0.6126
  122MOL0     C16727   5.195   2.388  -0.710  0.8678  0.3223  0.5084
  122MOL0     C16728   5.264   2.292  -0.808 -0.0825 -0.9470 -0.4177
  122MOL0     O16729   5.347   2.197  -0.763 -0.1794  0.3854 -1.2299
  122MOL0     C16730   5.388   2.105  -0.853 -0.5221  0.1006 -0.0107
  122MOL0     C16731   5.344   1.974  -0.839 -0.4168  0.2805  0.6313
  122MOL0     C16732   5.386   1.870  -0.924 -0.2527  0.4274  0.9528
  122MOL0     C16733   5.483   1.902  -1.020 -0.2429  0.6025 -0.7619
  122MOL0     O16734   5.533   1.813  -1.108 -0.0557 -0.3262  0.4256
  122MOL0     C16735   5.554   1.678  -1.066 -0.2581 -1.1393 -0.8312
  122MOL0     C16736   5.649   1.620  -1.163 -0.1262 -0.9257  0.1976
  122MOL0     C16737   5.795   1.678  -1.170  0.2177  0.5198  0.1160
  122MOL0     C16738   5.860   1.667  -1.032 -0.4404  0.3225  0.8381
  122MOL0     C16739   5.859   1.536  -0.952  0.9496  0.1486  0.5385
  122MOL0     C16740   5.899   1.564  -0.817  0.5266 -0.6131  0.4750
  122MOL0     C16741   6.043   1.615  -0.803 -0.2264  0.2734  0.7266
  122MOL0     C16742   6.105   1.590  -0.669  0.2312 -0.0769 -0.9221
  122MOL0    Cl16743   5.992   1.689  -0.554 -0.4617 -0.3648 -0.2598
  122MOL0     C16744   5.525   2.034  -1.037 -0.4637 -0.1035 -1.0058
  122MOL0     C16745   5.477   2.135  -0.955 -0.8230  0.0583  0.0638
  122MOL0     O16746   5.263   2.324  -0.926  0.0989 -0.4623 -0.7118
  122MOL0     C16747   5.236   2.378  -0.573  0.2414 -0.5495  0.6920
  122MOL0     C16748   5.191   2.472  -0.480 -0.0159  1.1857  0.2817
  122MOL0     N16749   4.710   2.680   0.021 -0.7622  0.1111  0.5899
  122MOL0     N16750   4.686   2.764   0.112 -0.0042  0.8014  0.1899
  122MOL0     C16751   4.551   3.515   0.493 -0.1540  0.9041  0.4744
  122MOL0     C16752   4.471   3.479   0.603  0.9304  0.4590 -0.4187
  122MOL0     C16753   4.111   3.305   0.831 -1.4063  0.1934 -0.6488
  122MOL0     C16754   4.122   3.184   0.909  0.6776  0.4687  0.1820
  122MOL0     C16755   4.009   3.144   0.984 -0.9971  0.5028  0.2027
  122MOL0     C16756   3.892   3.211   0.994  0.3090 -0.7085  0.4149
  122MOL0     O16757   3.782   3.168   1.060  0.2836 -0.1532 -0.1552
  122MOL0     C16758   3.788   3.053   1.142 -0.1859 -0.0933  0.2018
  122MOL0     C16759   3.648   3.024   1.195  0.5049  0.3320 -0.1973
  122MOL0     C16760   3.540   3.008   1.086  0.0098 -0.2872 -0.2698
  122MOL0     C16761   3.394   2.993   1.139 -0.5112  1.6782  0.1633
  122MOL0     C16762   3.344   3.099   1.218  0.0179 -0.4882  0.5465
  122MOL0     C16763   3.300   3.200   1.278 -0.6352 -1.0110 -0.2812
  122MOL0     C16764   3.878   3.327   0.905  0.1665 -0.6885 -0.8206
  122MOL0     C16765   3.979   3.372   0.821  0.1713 -0.3524 -0.8842
  122MOL0     C16766   3.948   3.472   0.715 -0.5116 -0.0548 -0.1033
  122MOL0     H16767   4.175   3.578   0.473  0.9653  2.4187  2.4265
  122MOL0     H16768   4.333   3.638   0.276 -3.1709 -1.3235  0.2799
  122MOL0     H16769   4.553   3.563   0.092 -0.2163  1.0244  1.8450
  122MOL0     H16770   4.524   3.423   0.192  0.4881 -0.1589 -0.8913
  122MOL0     H16771   4.726   3.421   0.030  0.2646 -0.4596  0.7945
  122MOL0     H16772   4.810   3.520   0.138  0.9857 -1.4984 -0.2810
  122MOL0     H16773   4.797   3.353   0.311 -1.1770 -0.3321  0.5688
  122MOL0     H16774   4.653   3.268   0.245  0.6767 -2.2072 -2.7988
  122MOL0     H16775   4.773   3.210   0.046 -1.2402 -1.1367  1.2717
  122MOL0     H16776   4.931   3.253   0.116 -1.2941  3.6160  1.2231
  122MOL0     H16777   4.876   3.003   0.130 -0.3616  0.1149 -0.7473
  122MOL0     H16778   4.716   3.049   0.192  0.2341 -1.5973 -2.2113
  122MOL0     H16779   4.980   3.111   0.322 -0.1186  0.3534 -2.1581
  122MOL0     H16780   4.829   3.109   0.407  2.8604 -0.7405  2.4343
  122MOL0     H16781   4.926   2.922   0.473 -0.9670  5.2672 -0.9652
  122MOL0     H16782   4.994   2.864   0.314  1.3639 -0.0650  0.0977
  122MOL0     H16783   4.791   2.738   0.413  2.9878  0.4741 -0.3557
  122MOL0     H16784   4.701   2.884   0.348 -1.7907 -0.7271 -1.6680
  122MOL0     H16785   4.969   2.628   0.216 -0.0791  1.8703  1.6473
  122MOL0     H16786   4.848   2.404  -0.043 -0.7413  0.4599 -0.4976
  122MOL0     H16787   5.001   2.474   0.009 -0.3623 -0.1470  1.2946
  122MOL0     H16788   4.908   2.475  -0.243  0.6802 -1.4955  1.1782
  122MOL0     H16789   4.865   2.638  -0.197 -0.6413  0.1606  0.6453
  122MOL0     H16790   5.118   2.642  -0.116  0.8167  0.1599 -0.8394
  122MOL0     H16791   5.130   2.497  -0.217 -0.5680 -1.0161  0.2625
  122MOL0     H16792   5.049   2.794  -0.283  2.6630  1.5033 -0.5832
  122MOL0     H16793   5.191   2.704  -0.325  0.1110  1.2956  3.3008
  122MOL0     H16794   4.974   2.641  -0.672  0.7194  0.6474  1.9585
  122MOL0     H16795   5.113   2.557  -0.958  1.4371 -2.0455 -0.7211
  122MOL0     H16796   4.942   2.539  -0.916  1.5994  1.7560 -2.4796
  122MOL0     H16797   5.032   2.398  -0.949 -0.0891  0.2537  0.3980
  122MOL0     H16798   5.281   1.957  -0.752  0.5704 -1.5857  1.0494
  122MOL0     H16799   5.339   1.773  -0.909  1.0142 -0.7811 -2.1790
  122MOL0     H16800   5.576   1.673  -0.959 -0.0525  0.4754 -0.7726
  122MOL0     H16801   5.457   1.628  -1.073 -1.0202  0.2736 -0.6200
  122MOL0     H16802   5.654   1.516  -1.128 -5.1093 -0.1690  4.5264
  122MOL0     H16803   5.609   1.627  -1.264 -0.3713  0.8279  0.3911
  122MOL0     H16804   5.780   1.782  -1.200 -0.5537  0.2878 -0.3515
  122MOL0     H16805   5.853   1.619  -1.241  0.3579  1.4775 -0.5757
  122MOL0     H16806   5.801   1.734  -0.969 -1.3852 -1.8554  2.3990
  122MOL0     H16807   5.963   1.699  -1.047 -1.5228  3.6932 -0.4942
  122MOL0     H16808   5.762   1.486  -0.951  0.5776  0.7908  2.9706
  122MOL0     H16809   5.927   1.463  -0.998  1.0800  0.7091 -0.1781
  122MOL0     H16810   5.896   1.483  -0.743  2.8460  1.6391  3.3196
  122MOL0     H16811   5.825   1.636  -0.781  1.6176  0.7673  0.0309
  122MOL0     H16812   6.052   1.722  -0.826 -1.8865  0.2608 -0.1527
  122MOL0     H16813   6.099   1.557  -0.877 -2.1353 -0.8899  0.1172
  122MOL0     H16814   6.205   1.634  -0.660  0.5616 -0.5386 -2.1443
  122MOL0     H16815   6.106   1.484  -0.643  2.7350  0.0284 -0.3264
  122MOL0     H16816   5.607   2.057  -1.104  2.4363 -2.2370  1.4930
  122MOL0     H16817   5.505   2.237  -0.978  0.9233 -0.5522 -0.7130
  122MOL0     H16818   5.309   2.306  -0.537 -0.8555 -2.1166 -0.0750
  122MOL0     H16819   5.227   2.461  -0.378  1.4694 -3.0703 -0.4981
  122MOL0     H16820   4.659   3.512   0.500 -0.2058  0.2038  1.0192
  122MOL0     H16821   4.519   3.447   0.695  1.2821 -0.6505 -0.9607
  122MOL0     H16822   4.207   3.117   0.918 -0.3632 -0.8412  0.4202
  122MOL0     H16823   4.029   3.053   1.039  3.0073  1.4969  0.6778
  122MOL0     H16824   3.830   2.964   1.093  1.8235 -0.0525  1.7266
  122MOL0     H16825   3.854   3.070   1.227  2.9312 -0.1112 -2.0416
  122MOL0     H16826   3.614   3.113   1.249  0.5509 -0.6950  1.6141
  122MOL0     H16827   3.646   2.938   1.262 -2.1348  0.5373  0.1025
  122MOL0     H16828   3.540   3.082   1.005 -1.3206 -0.2561 -0.2548
  122MOL0     H16829   3.568   2.919   1.027  2.2077  2.9792 -4.7373
  122MOL0     H16830   3.400   2.902   1.200  1.7928  2.6053  1.4527
  122MOL0     H16831   3.320   2.982   1.059 -0.6725  3.1310  0.0889
  122MOL0     H16832   3.259   3.289   1.320 -0.3741 -0.6411 -0.7977
  122MOL0     H16833   3.779   3.370   0.894 -0.3120 -0.4188  3.0031
  122MOL0     H16834   3.844   3.507   0.712 -0.3201  0.7676 -5.1356
  122MOL0     H16835   4.015   3.559   0.721 -0.8807  0.7328 -4.3238
  122MOL0     H16836   3.970   3.430   0.617  0.1214 -0.5134  0.2272
  123MOL0     O16837   6.188   1.505   8.102 -0.1776  0.2680  0.9735
  123MOL0     C16838   6.096   1.486   8.180  0.3784  0.4858  0.0328
  123MOL0     O16839   6.116   1.446   8.310 -0.1675 -0.5259 -0.1021
  123MOL0     C16840   6.238   1.454   8.369  0.8458  0.1913 -0.2201
  123MOL0     C16841   6.331   1.544   8.350 -0.5596 -0.0762 -0.0648
  123MOL0     C16842   6.452   1.537   8.420  0.0552 -0.6276  0.4670
  123MOL0     C16843   6.468   1.449   8.528  0.0209 -0.7886  0.4913
  123MOL0     O16844   6.577   1.461   8.612  0.4640 -0.5198 -1.2422
  123MOL0     C16845   6.596   1.364   8.720 -0.3603 -1.4756  0.1857
  123MOL0     C16846   6.715   1.423   8.808  1.3055  0.1810  0.6305
  123MOL0     C16847   6.779   1.327   8.921 -0.4344 -1.1290 -0.3727
  123MOL0     C16848   6.908   1.394   8.968 -0.7495 -0.7627  0.5980
  123MOL0     C16849   6.988   1.317   9.077 -1.3670  0.4345  0.2280
  123MOL0     C16850   7.107   1.392   9.138  0.2944  0.3379  0.0173
  123MOL0     C16851   7.176   1.303   9.241  0.2462  0.9441  0.7199
  123MOL0     C16852   7.251   1.386   9.349 -0.5258 -0.2401 -0.5157
  123MOL0     N16853   7.273   1.299   9.465  0.5994 -0.1389 -1.0207
  123MOL0     C16854   7.172   1.244   9.557 -1.5983  0.2983 -0.8336
  123MOL0     C16855   7.241   1.178   9.646  0.1843  1.0863  0.3983
  123MOL0     C16856   7.181   1.082   9.748 -0.1367 -0.2870  0.3469
  123MOL0     C16857   7.270   1.074   9.877  0.1428  0.4989  0.2712
  123MOL0     C16858   7.181   1.062  10.003 -1.0967  0.1006 -0.2401
  123MOL0     C16859   7.134   1.201  10.048 -0.8547 -0.1010  0.2638
  123MOL0     O16860   7.041   1.187  10.163  0.1487 -0.7495  0.4032
  123MOL0     C16861   7.016   1.296  10.241 -0.1931  0.3165 -0.6189
  123MOL0     C16862   7.077   1.425  10.241  0.9329 -0.0416  0.3712
  123MOL0     C16863   7.029   1.531  10.318 -0.0209  0.5122 -0.6265
  123MOL0     C16864   7.107   1.662  10.304  0.3786 -0.2359 -0.1257
  123MOL0     C16865   6.922   1.507  10.404 -0.1437 -0.5203 -0.3940
  123MOL0     C16866   6.874   1.606  10.498 -0.1319  0.2514 -0.2009
  123MOL0     O16867   6.750   1.580  10.560 -0.0310  0.1399 -0.0200
  123MOL0     C16868   6.682   1.674  10.637  0.8434  0.0245 -0.3766
  123MOL0     C16869   6.715   1.814  10.654  0.6030  0.3389  0.2265
  123MOL0     C16870   6.642   1.892  10.736 -0.0949  0.0627  0.1276
  123MOL0     C16871   6.522   1.843  10.795 -0.3089  0.3220 -0.0641
  123MOL0     O16872   6.459   1.934  10.873  0.1787 -0.2181  0.6636
  123MOL0     C16873   6.330   1.901  10.924  0.4037  1.0121  0.5424
  123MOL0     C16874   6.257   2.029  10.983  0.3531  0.1746  0.2297
  123MOL0     C16875   6.208   2.116  10.863  0.5374 -1.2183  0.1397
  123MOL0     C16876   6.302   2.233  10.852 -0.0824  0.4266  0.2585
  123MOL0     C16877   6.273   2.316  10.725  1.5171 -0.4921  0.0736
  123MOL0     C16878   6.398   2.390  10.692  0.0638 -0.0345 -0.4400
  123MOL0     C16879   6.367   2.473  10.560  0.4407  1.5706 -0.9663
  123MOL0     C16880   6.250   2.581  10.548  0.3697  0.2915  0.1020
  123MOL0    Cl16881   6.272   2.652  10.378 -0.1714 -0.3511  0.0114
  123MOL0     C16882   6.494   1.705  10.794 -0.1277 -0.8968 -0.0132
  123MOL0     C16883   6.567   1.628  10.712  0.4948 -0.0521 -0.0133
  123MOL0     O16884   6.932   1.715  10.506 -0.0964  0.2339 -0.0827
  123MOL0     C16885   6.865   1.382  10.397  0.4202  0.1662 -0.8710
  123MOL0     C16886   6.906   1.286  10.320  0.0307  0.1043  0.7381
  123MOL0     N16887   7.376   1.186   9.611 -0.6880  0.9690  0.5298
  123MOL0     N16888   7.395   1.268   9.511 -0.5412 -0.0492 -0.4395
  123MOL0     C16889   6.359   1.361   8.552 -0.7019 -0.5886  0.8141
  123MOL0     C16890   6.249   1.361   8.482  0.4401 -0.0814  0.7357
  123MOL0     C16891   5.961   1.488   8.124  0.4406 -0.2257  0.5398
  123MOL0     C16892   5.859   1.414   8.184  0.1881 -0.1994  1.0180
  123MOL0     C16893   5.728   1.412   8.127  1.0656 -0.7891  0.6104
  123MOL0     C16894   5.699   1.495   8.013 -0.6891 -0.7430 -0.2701
  123MOL0     O16895   5.564   1.494   7.984  0.2498 -0.6927 -0.0400
  123MOL0     C16896   5.524   1.465   7.846  0.6162  0.8842 -0.3348
  123MOL0     C16897   5.381   1.411   7.854 -0.9871  0.1361  0.4959
  123MOL0     C16898   5.320   1.381   7.730 -0.6164  0.1592  0.0514
  123MOL0     C16899   5.209   1.289   7.753 -0.3457 -0.1129  0.5078
  123MOL0     C16900   5.114   1.304   7.641 -0.0355  0.8542 -0.7204
  123MOL0     C16901   5.017   1.318   7.567  0.1559  0.1834 -0.0931
  123MOL0     C16902   5.799   1.565   7.946 -0.2740 -0.1655  0.4305
  123MOL0     C16903   5.922   1.562   8.012 -0.8096  0.1522  1.1517
  123MOL0     C16904   6.024   1.645   7.934  0.3304 -0.3193  0.2510
  123MOL0     H16905   6.316   1.630   8.285  2.1250  1.8362  1.6432
  123MOL0     H16906   6.535   1.607   8.416  0.9868 -1.7538 -0.7346
  123MOL0     H16907   6.626   1.268   8.678 -1.9447 -0.7121 -3.0109
  123MOL0     H16908   6.499   1.364   8.770  0.6551  0.3311  2.3489
  123MOL0     H16909   6.798   1.437   8.738  1.2747 -0.4525  0.4587
  123MOL0     H16910   6.685   1.520   8.848  1.3095 -0.1187  1.3646
  123MOL0     H16911   6.705   1.305   8.998 -1.7522  0.4224 -1.1322
  123MOL0     H16912   6.820   1.235   8.878 -1.1678 -1.6328 -0.0108
  123MOL0     H16913   6.967   1.409   8.878 -2.1535 -1.6692 -0.5232
  123MOL0     H16914   6.877   1.490   9.010  0.2484  0.4783 -1.4078
  123MOL0     H16915   7.024   1.229   9.024  1.7335  1.6390  0.1097
  123MOL0     H16916   6.919   1.284   9.155 -1.6492  0.2369 -0.1047
  123MOL0     H16917   7.184   1.411   9.062  2.9436 -2.9381  1.5848
  123MOL0     H16918   7.074   1.490   9.173 -1.0388  0.3827 -1.2675
  123MOL0     H16919   7.250   1.232   9.203  0.0484 -0.4975  2.8389
  123MOL0     H16920   7.099   1.237   9.282 -1.0379  2.4985  0.9328
  123MOL0     H16921   7.352   1.414   9.319  0.9002 -3.6555  0.6092
  123MOL0     H16922   7.200   1.473   9.392  0.6779  0.9679 -1.4390
  123MOL0     H16923   7.065   1.241   9.539 -1.9332  0.9714  0.8474
  123MOL0     H16924   7.170   0.980   9.709  0.0306 -1.1006  2.3229
  123MOL0     H16925   7.082   1.114   9.781  0.8186 -1.3486  4.9465
  123MOL0     H16926   7.331   0.983   9.873 -0.5975  0.0130 -0.3076
  123MOL0     H16927   7.353   1.145   9.882 -1.6911  2.6687  2.6044
  123MOL0     H16928   7.105   0.985   9.986 -1.2758  0.3333 -0.4889
  123MOL0     H16929   7.225   1.022  10.095  0.7113  0.0561 -1.0831
  123MOL0     H16930   7.229   1.250  10.074  1.2856 -2.4301 -2.5542
  123MOL0     H16931   7.092   1.256   9.963  0.4549 -2.1362 -1.8019
  123MOL0     H16932   7.161   1.442  10.174  0.7448  5.0683  0.9733
  123MOL0     H16933   7.161   1.693  10.394  3.6474 -3.4464 -0.7513
  123MOL0     H16934   7.040   1.739  10.265 -0.2268 -1.0886 -0.8020
  123MOL0     H16935   7.195   1.635  10.245  1.3916  0.4861  1.0174
  123MOL0     H16936   6.796   1.872  10.612 -1.2405  1.4260 -2.0309
  123MOL0     H16937   6.673   1.995  10.754  2.1972 -0.2329 -1.6412
  123MOL0     H16938   6.273   1.858  10.841  1.5807 -2.7728  1.5372
  123MOL0     H16939   6.347   1.822  10.997 -0.0553 -1.5786 -1.9765
  123MOL0     H16940   6.170   1.990  11.037  0.7021  0.5883  1.1156
  123MOL0     H16941   6.319   2.082  11.056  0.5113 -1.5963  1.4561
  123MOL0     H16942   6.107   2.146  10.893  0.6408 -2.6947  2.1863
  123MOL0     H16943   6.202   2.062  10.767  0.3915  0.1145 -0.6190
  123MOL0     H16944   6.405   2.195  10.841  0.7131  3.1442 -4.7654
  123MOL0     H16945   6.302   2.300  10.938  1.0129  1.5076 -0.5439
  123MOL0     H16946   6.247   2.251  10.641  2.2481 -0.2422 -0.3596
  123MOL0     H16947   6.184   2.374  10.751 -0.0283 -1.9855 -1.6097
  123MOL0     H16948   6.476   2.315  10.676  0.7988  0.8490 -1.0657
  123MOL0     H16949   6.434   2.456  10.771  1.6452 -0.6228 -0.6422
  123MOL0     H16950   6.356   2.411  10.470  2.0702 -1.5664  0.8094
  123MOL0     H16951   6.462   2.526  10.546  1.8436 -0.1794  1.2192
  123MOL0     H16952   6.264   2.666  10.615 -0.9696  0.8427 -0.2658
  123MOL0     H16953   6.146   2.553  10.566 -0.3454  3.8879  2.4984
  123MOL0     H16954   6.421   1.655  10.856 -0.0619  1.7642  2.4479
  123MOL0     H16955   6.544   1.522  10.714 -1.1058  0.1733 -2.5528
  123MOL0     H16956   6.781   1.364  10.464 -0.0506  1.1393 -1.1769
  123MOL0     H16957   6.852   1.192  10.329 -1.4690  0.9175  0.6455
  123MOL0     H16958   6.373   1.274   8.615  1.5900  1.6417  3.7335
  123MOL0     H16959   6.180   1.279   8.500 -0.9817  0.4120 -1.8322
  123MOL0     H16960   5.881   1.357   8.274  1.7813  0.5579  1.1555
  123MOL0     H16961   5.644   1.355   8.165 -0.0056  0.1578 -0.2476
  123MOL0     H16962   5.527   1.552   7.779  0.7946  1.0450 -0.1172
  123MOL0     H16963   5.588   1.390   7.797  0.6609  0.3300  0.5502
  123MOL0     H16964   5.327   1.492   7.903 -1.6537 -0.5300  0.8772
  123MOL0     H16965   5.384   1.324   7.921  3.9939 -0.7829 -0.4903
  123MOL0     H16966   5.279   1.471   7.684 -1.9912  0.4090  1.6819
  123MOL0     H16967   5.393   1.331   7.666 -2.7712 -3.1957 -0.0083
  123MOL0     H16968   5.157   1.324   7.842 -1.0769  2.1515 -0.7510
  123MOL0     H16969   5.247   1.186   7.746 -2.1099 -0.6789 -2.2926
  123MOL0     H16970   4.928   1.324   7.508 -1.6916 -0.1517  2.5214
  123MOL0     H16971   5.775   1.631   7.863 -0.8657 -0.3113  0.4821
  123MOL0     H16972   6.089   1.700   8.003  0.4126 -0.3211  0.1759
  123MOL0     H16973   6.080   1.587   7.860  0.1275 -0.9693  0.6046
  123MOL0     H16974   5.966   1.725   7.886 -1.2312 -1.0108  0.9311
  124MOL0     O16975   8.992   8.525   8.411  0.0435  0.0557 -0.5761
  124MOL0     C16976   9.060   8.486   8.506  0.2274 -0.2351 -0.9524
  124MOL0     O16977   9.083   8.557   8.624 -0.7765 -0.1934 -0.0577
  124MOL0     C16978   9.024   8.679   8.619  0.5179 -0.0300 -0.5505
  124MOL0     C16979   8.891   8.697   8.664  0.2528 -0.3100  1.6781
  124MOL0     C16980   8.820   8.816   8.664 -0.4730  0.2651  0.2886
  124MOL0     C16981   8.878   8.925   8.611 -0.1385 -0.1449 -1.3815
  124MOL0     O16982   8.806   9.040   8.602 -0.6298 -0.2905 -0.1897
  124MOL0     C16983   8.864   9.166   8.651  0.0136 -0.0866 -0.2779
  124MOL0     C16984   8.879   9.275   8.546 -0.1529 -0.2175 -0.3810
  124MOL0     C16985   8.969   9.393   8.596 -0.7057  0.0791  0.0848
  124MOL0     C16986   8.892   9.483   8.696 -0.3742 -0.3345  0.9483
  124MOL0     C16987   8.931   9.630   8.715  0.3013  0.4483 -0.3609
  124MOL0     C16988   9.050   9.655   8.801  0.4938  0.2543 -1.0399
  124MOL0     C16989   9.005   9.725   8.931 -0.4778 -0.3349  0.4879
  124MOL0     C16990   9.122   9.753   9.027 -0.9894 -0.0438  0.3167
  124MOL0     N16991   9.188   9.635   9.089  0.8415  0.8052  0.6778
  124MOL0     C16992   9.301   9.590   9.051 -0.0165 -0.7764 -0.3129
  124MOL0     C16993   9.324   9.493   9.143 -0.0185 -0.8844  0.4565
  124MOL0     C16994   9.441   9.401   9.140 -0.6086  0.4277  0.6425
  124MOL0     C16995   9.416   9.289   9.044 -0.1261 -0.8370 -0.4316
  124MOL0     C16996   9.433   9.326   8.898  0.5454 -0.8047  1.2154
  124MOL0     C16997   9.582   9.358   8.867  0.0459 -0.3865  0.6043
  124MOL0     O16998   9.573   9.376   8.724 -0.1776  0.2630 -0.0791
  124MOL0     C16999   9.670   9.454   8.666 -0.7074 -0.9183 -0.9610
  124MOL0     C17000   9.653   9.493   8.533 -0.1666 -0.3035 -0.1253
  124MOL0     C17001   9.745   9.583   8.465 -0.4002  0.9629 -1.0607
  124MOL0     C17002   9.717   9.620   8.327 -0.0615  0.4980  1.0335
  124MOL0     C17003   9.866   9.618   8.534  0.3953  0.0094 -0.1718
  124MOL0     C17004   9.990   9.687   8.476  1.0267 -0.1204  0.6427
  124MOL0     O17005  10.103   9.701   8.550 -1.2641  0.0343 -0.0702
  124MOL0     C17006  10.205   9.778   8.499  0.4307 -0.0743 -0.9165
  124MOL0     C17007  10.336   9.722   8.480  0.0778  0.0471  0.0181
  124MOL0     C17008  10.448   9.801   8.448  1.3813 -0.2535 -0.0181
  124MOL0     C17009  10.433   9.937   8.413  0.1052  0.7722 -0.0893
  124MOL0     O17010  10.521  10.017   8.359 -0.6063  0.5993 -0.3304
  124MOL0     C17011  10.649   9.965   8.310 -0.3961  0.2880  0.4486
  124MOL0     C17012  10.719  10.064   8.209 -0.0668 -0.2216 -0.9216
  124MOL0     C17013  10.848  10.018   8.146  0.3944  0.6833  0.2917
  124MOL0     C17014  10.886  10.116   8.039 -0.1797 -0.2385 -0.5754
  124MOL0     C17015  11.009  10.077   7.956 -0.9435  0.7552 -1.0016
  124MOL0     C17016  11.023  10.178   7.839  0.3662 -1.5143 -0.4830
  124MOL0     C17017  11.158  10.173   7.778 -0.0908 -0.1583 -0.8853
  124MOL0     C17018  11.208  10.028   7.727 -0.5885  0.1146 -0.5384
  124MOL0    Cl17019  11.081   9.919   7.663  0.1013  0.5875 -0.0435
  124MOL0     C17020  10.307   9.995   8.421 -0.1801 -0.7637 -0.0781
  124MOL0     C17021  10.193   9.916   8.463  0.7709 -0.1535  0.5178
  124MOL0     O17022   9.975   9.730   8.361  0.0498  0.7709  0.0429
  124MOL0     C17023   9.890   9.557   8.663  0.2994  0.0236  0.2960
  124MOL0     C17024   9.800   9.474   8.723 -0.1482 -0.1935 -0.2899
  124MOL0     N17025   9.238   9.494   9.245  0.0406 -0.5509  0.3750
  124MOL0     N17026   9.151   9.579   9.213  0.5687 -0.3937  0.1635
  124MOL0     C17027   9.009   8.920   8.577  0.3008 -0.1161  0.2194
  124MOL0     C17028   9.089   8.799   8.579 -0.2537 -1.0339 -1.8290
  124MOL0     C17029   9.157   8.365   8.491  0.1330 -0.4682 -0.9225
  124MOL0     C17030   9.233   8.319   8.605  0.5496  0.3610 -0.3539
  124MOL0     C17031   9.298   8.199   8.614  0.3438 -0.0735  0.1154
  124MOL0     C17032   9.294   8.114   8.502  0.3388  0.0239  0.4186
  124MOL0     O17033   9.371   8.000   8.511 -0.2726  0.2222  0.3512
  124MOL0     C17034   9.446   7.945   8.402  0.7214  1.0328 -1.0618
  124MOL0     C17035   9.467   7.793   8.414 -0.1304  0.7619  0.0125
  124MOL0     C17036   9.580   7.726   8.337  0.5706 -0.2410  0.1729
  124MOL0     C17037   9.586   7.575   8.370  0.3582  0.3021 -0.2974
  124MOL0     C17038   9.478   7.499   8.301 -0.6546  0.6369 -0.7597
  124MOL0     C17039   9.401   7.423   8.244  0.6131 -0.6087 -0.9437
  124MOL0     C17040   9.233   8.160   8.380 -0.5216  0.1192 -0.2497
  124MOL0     C17041   9.161   8.279   8.380 -0.7015  0.0490 -1.1659
  124MOL0     C17042   9.068   8.292   8.252 -0.7213  0.5678 -0.0619
  124MOL0     H17043   8.828   8.622   8.711 -0.2395 -0.3830  0.9176
  124MOL0     H17044   8.717   8.818   8.698 -0.5438 -0.9776  0.2050
  124MOL0     H17045   8.957   9.148   8.705  1.9991  1.3410 -2.9726
  124MOL0     H17046   8.797   9.210   8.727 -0.7830  2.3497 -2.2425
  124MOL0     H17047   8.926   9.238   8.455  3.8893  0.3107  1.2547
  124MOL0     H17048   8.778   9.313   8.529 -0.0919  2.0652  3.2587
  124MOL0     H17049   9.058   9.346   8.638  0.2828 -2.0876 -3.8764
  124MOL0     H17050   8.999   9.458   8.513 -0.9242 -1.4019 -1.2071
  124MOL0     H17051   8.795   9.508   8.652 -0.0022  2.1527  1.4005
  124MOL0     H17052   8.880   9.428   8.790  2.5387  1.3353  2.4169
  124MOL0     H17053   8.843   9.675   8.762 -0.8272 -3.5513  1.7687
  124MOL0     H17054   8.959   9.679   8.621  0.6499 -0.6681 -0.8630
  124MOL0     H17055   9.103   9.562   8.824  1.2412  0.6306 -1.1871
  124MOL0     H17056   9.126   9.712   8.747  0.8636  0.9575  0.1681
  124MOL0     H17057   8.930   9.662   8.978 -1.1841  1.1804  1.4845
  124MOL0     H17058   8.967   9.819   8.889  0.6160 -1.5610 -3.7292
  124MOL0     H17059   9.206   9.797   8.972 -0.5440 -0.9574  0.2417
  124MOL0     H17060   9.082   9.818   9.105  0.7185  1.5249 -0.0275
  124MOL0     H17061   9.354   9.617   8.960 -0.5205 -2.0344 -0.9980
  124MOL0     H17062   9.478   9.353   9.231 -1.0576 -1.2185 -0.0072
  124MOL0     H17063   9.529   9.448   9.096 -1.0767 -0.3732 -1.2335
  124MOL0     H17064   9.492   9.216   9.075 -1.7745 -1.2759  3.1146
  124MOL0     H17065   9.315   9.252   9.065 -0.4422  0.5646  0.6311
  124MOL0     H17066   9.409   9.233   8.846 -0.2651 -1.1813  2.2253
  124MOL0     H17067   9.364   9.404   8.863  0.1634 -1.7498 -0.2056
  124MOL0     H17068   9.597   9.453   8.919 -1.3470  2.1720 -3.1609
  124MOL0     H17069   9.659   9.286   8.895  1.3973 -1.0292 -3.8690
  124MOL0     H17070   9.564   9.457   8.482  0.2440 -0.0221 -1.0784
  124MOL0     H17071   9.640   9.549   8.294 -0.8393  2.4604 -1.7954
  124MOL0     H17072   9.801   9.616   8.257 -2.3391  0.9018 -1.9462
  124MOL0     H17073   9.683   9.724   8.320  2.8404  1.5778  1.6633
  124MOL0     H17074  10.344   9.619   8.513 -3.0443  0.1244  1.3308
  124MOL0     H17075  10.548   9.761   8.433  0.3865 -1.3872 -5.5413
  124MOL0     H17076  10.723   9.949   8.389  2.7910  0.7260 -2.2432
  124MOL0     H17077  10.633   9.868   8.262 -0.0696 -1.1861  3.0684
  124MOL0     H17078  10.640  10.094   8.139 -1.9467  3.1031  2.2286
  124MOL0     H17079  10.753  10.149   8.269  1.9261 -0.4724 -1.6333
  124MOL0     H17080  10.835   9.929   8.084 -2.3399 -0.9500  2.9408
  124MOL0     H17081  10.924  10.005   8.224  0.7053  1.9113  0.2242
  124MOL0     H17082  10.921  10.201   8.098  0.8827 -0.0511 -1.4521
  124MOL0     H17083  10.798  10.129   7.974  0.5889  1.3621 -1.3799
  124MOL0     H17084  11.097  10.076   8.021 -0.5804 -1.3203 -1.4440
  124MOL0     H17085  11.001   9.973   7.921 -0.7636 -0.9822  3.3773
  124MOL0     H17086  11.008  10.280   7.874 -1.5103 -1.3328 -1.6652
  124MOL0     H17087  10.948  10.159   7.761 -1.9230  0.4684  1.0915
  124MOL0     H17088  11.236  10.196   7.851  0.3944 -2.8829 -0.4102
  124MOL0     H17089  11.181  10.246   7.700  1.8171  0.1261 -0.1267
  124MOL0     H17090  11.244   9.974   7.814 -0.9591  0.8945  0.1086
  124MOL0     H17091  11.289  10.051   7.657 -1.2342  1.2127 -0.9520
  124MOL0     H17092  10.297  10.092   8.374  0.9561 -0.1496  0.8835
  124MOL0     H17093  10.106   9.979   8.480 -0.2681 -0.7775 -1.9681
  124MOL0     H17094   9.987   9.570   8.710  0.4467 -3.8410  1.4374
  124MOL0     H17095   9.809   9.426   8.820 -0.8625 -1.2737 -0.7464
  124MOL0     H17096   9.064   9.004   8.535  1.7014 -0.8778  0.4652
  124MOL0     H17097   9.197   8.799   8.570  0.1232  4.1375 -0.3089
  124MOL0     H17098   9.247   8.388   8.687  1.4908 -2.4308  1.9930
  124MOL0     H17099   9.355   8.171   8.703 -1.7143  1.9341  2.1955
  124MOL0     H17100   9.408   7.965   8.301 -0.6205  0.6708 -0.6541
  124MOL0     H17101   9.539   8.003   8.405  0.9517  0.7681  3.7017
  124MOL0     H17102   9.372   7.746   8.388 -0.9941  2.6715 -0.4564
  124MOL0     H17103   9.511   7.771   8.512  2.5455 -0.4682 -1.3748
  124MOL0     H17104   9.583   7.750   8.231  1.3177  0.5233  0.3645
  124MOL0     H17105   9.669   7.778   8.373  1.0091 -0.1275 -1.0538
  124MOL0     H17106   9.601   7.564   8.478  3.6913  2.2860 -0.3858
  124MOL0     H17107   9.679   7.535   8.328 -0.0053  0.8889 -1.7115
  124MOL0     H17108   9.325   7.363   8.199  1.3196  0.8917 -4.4531
  124MOL0     H17109   9.246   8.098   8.292  1.0882 -0.3189  0.2551
  124MOL0     H17110   9.068   8.197   8.199 -0.4575  1.7811 -2.3304
  124MOL0     H17111   8.966   8.309   8.290 -0.3821 -0.9081  1.6219
  124MOL0     H17112   9.096   8.371   8.182  6.6554 -1.4251 -0.1152
  125MOL0     O17113   4.299   1.534   0.823 -0.0138  0.2944  0.3560
  125MOL0     C17114   4.271   1.537   0.949  0.4246  1.2258  0.0164
  125MOL0     O17115   4.220   1.642   1.015 -0.4318  0.2858  0.0691
  125MOL0     C17116   4.176   1.757   0.947 -0.5126  0.2710 -0.4455
  125MOL0     C17117   4.278   1.830   0.897  0.4957 -0.3131  0.4878
  125MOL0     C17118   4.258   1.950   0.821 -0.1509 -0.2306 -0.0149
  125MOL0     C17119   4.124   1.986   0.791 -1.2874 -0.2758  0.2380
  125MOL0     O17120   4.084   2.095   0.712 -0.3888 -0.0876  0.1306
  125MOL0     C17121   4.170   2.196   0.654 -0.3474 -0.2161 -0.3126
  125MOL0     C17122   4.070   2.290   0.584  0.6406  0.5053  1.0870
  125MOL0     C17123   4.143   2.382   0.491 -0.2735  0.7811  0.5683
  125MOL0     C17124   4.051   2.468   0.411 -0.3080  0.3257 -0.6925
  125MOL0     C17125   4.024   2.614   0.472 -0.1997 -0.0341 -0.3492
  125MOL0     C17126   3.960   2.699   0.363  0.0796  0.3568  0.0335
  125MOL0     C17127   3.881   2.829   0.407  0.1847 -0.0546 -0.3641
  125MOL0     C17128   3.836   2.921   0.289 -0.1453  0.6780 -0.3802
  125MOL0     N17129   3.785   3.049   0.329 -0.0539 -1.4324 -0.3153
  125MOL0     C17130   3.696   3.128   0.255  0.3376  0.6770 -1.3517
  125MOL0     C17131   3.721   3.254   0.280  0.3642 -0.9553 -0.0651
  125MOL0     C17132   3.643   3.362   0.202 -0.8371  0.5473  0.6777
  125MOL0     C17133   3.491   3.346   0.197 -0.6060  0.5369  0.1102
  125MOL0     C17134   3.434   3.457   0.107 -0.5111 -0.0732  0.1098
  125MOL0     C17135   3.287   3.486   0.137  0.4901  0.9700  0.9511
  125MOL0     O17136   3.222   3.383   0.056 -0.2451 -0.5954  0.1353
  125MOL0     C17137   3.093   3.390   0.090  0.3169 -0.1785 -0.4335
  125MOL0     C17138   3.038   3.297   0.175  0.9029  0.6540  0.7037
  125MOL0     C17139   2.902   3.285   0.206 -0.4004  0.2986  0.0625
  125MOL0     C17140   2.869   3.198   0.315 -0.0637  0.6766 -0.0379
  125MOL0     C17141   2.810   3.387   0.161 -0.6835  1.2266  0.2847
  125MOL0     C17142   2.657   3.390   0.179  1.0550 -0.4662  0.1041
  125MOL0     O17143   2.594   3.277   0.195  0.5813  0.1952  0.5127
  125MOL0     C17144   2.461   3.278   0.228  0.6445  0.6199 -0.8080
  125MOL0     C17145   2.360   3.343   0.158  0.3865  0.9795 -0.4882
  125MOL0     C17146   2.233   3.350   0.207  0.7570 -0.2530  0.7968
  125MOL0     C17147   2.200   3.289   0.331  0.0979  0.7706  1.0474
  125MOL0     O17148   2.066   3.288   0.372 -0.1347  0.6337 -0.1745
  125MOL0     C17149   1.984   3.242   0.264 -0.7108 -0.3641 -1.4314
  125MOL0     C17150   1.836   3.217   0.304  1.1983 -0.3312  0.1592
  125MOL0     C17151   1.820   3.077   0.351  0.5806 -0.1649 -0.3327
  125MOL0     C17152   1.674   3.032   0.363 -0.3751  0.2734 -0.2207
  125MOL0     C17153   1.664   2.880   0.383  0.2650 -0.0766  0.0402
  125MOL0     C17154   1.513   2.848   0.408 -0.7993  0.8489 -0.8139
  125MOL0     C17155   1.440   2.828   0.269  0.4899  0.1946 -0.6143
  125MOL0     C17156   1.286   2.830   0.283 -0.0320 -0.1193 -0.0775
  125MOL0    Cl17157   1.227   2.954   0.390  0.4492 -0.0900 -0.5364
  125MOL0     C17158   2.299   3.227   0.404  0.4884 -0.1106 -0.4311
  125MOL0     C17159   2.431   3.231   0.355  0.5626  0.8596 -0.9772
  125MOL0     O17160   2.602   3.507   0.180 -0.7279 -0.4603  0.3656
  125MOL0     C17161   2.866   3.477   0.077 -0.2638  0.1045  0.0369
  125MOL0     C17162   3.000   3.478   0.045  0.6424  0.3137  0.4520
  125MOL0     N17163   3.825   3.261   0.376  0.0829  0.6865 -0.4351
  125MOL0     N17164   3.863   3.141   0.397 -0.4557  0.5209 -0.1849
  125MOL0     C17165   4.024   1.914   0.847  0.2845 -0.1606 -0.8314
  125MOL0     C17166   4.048   1.803   0.926 -1.1491 -0.0432 -0.0297
  125MOL0     C17167   4.288   1.409   1.032  0.6902  0.6649 -0.0141
  125MOL0     C17168   4.200   1.403   1.146 -1.7250  0.0258 -1.7455
  125MOL0     C17169   4.219   1.300   1.244 -0.3515 -0.1311 -0.1982
  125MOL0     C17170   4.310   1.194   1.219 -0.2396 -0.2478  0.4369
  125MOL0     O17171   4.321   1.101   1.316  0.5500 -1.1756  0.0958
  125MOL0     C17172   4.393   0.979   1.309  0.8625  0.0470  0.2037
  125MOL0     C17173   4.387   0.917   1.447  0.5138 -0.0531  0.1253
  125MOL0     C17174   4.236   0.899   1.485 -0.5396  0.0717 -0.2481
  125MOL0     C17175   4.225   0.809   1.610  1.1365 -0.4671 -0.8520
  125MOL0     C17176   4.290   0.877   1.728  0.8843  0.2995  0.5029
  125MOL0     C17177   4.338   0.932   1.831 -0.2229 -0.9946 -0.2477
  125MOL0     C17178   4.387   1.190   1.097 -0.1254 -0.7541 -0.2607
  125MOL0     C17179   4.378   1.302   1.005  0.2230  0.4112  0.0588
  125MOL0     C17180   4.459   1.283   0.884 -0.9561 -0.0826 -0.1916
  125MOL0     H17181   4.381   1.795   0.892  1.1770  1.6669 -2.7040
  125MOL0     H17182   4.337   2.008   0.774 -0.5519  0.3891  0.0498
  125MOL0     H17183   4.248   2.156   0.589  2.1826  2.1765  0.9745
  125MOL0     H17184   4.216   2.250   0.738 -1.8653  2.2267 -0.9400
  125MOL0     H17185   3.974   2.252   0.547 -0.4362  3.3194  0.7020
  125MOL0     H17186   4.037   2.348   0.671 -0.8916  2.9681 -0.9780
  125MOL0     H17187   4.207   2.448   0.551 -0.2392 -0.8189  2.3809
  125MOL0     H17188   4.207   2.313   0.436 -2.2884 -2.0600  1.5709
  125MOL0     H17189   4.091   2.477   0.310 -1.5432  1.7063 -1.0857
  125MOL0     H17190   3.947   2.433   0.410 -0.2505  0.0925  0.2793
  125MOL0     H17191   4.120   2.659   0.502 -0.4899  1.4193 -1.5091
  125MOL0     H17192   3.963   2.614   0.563 -1.2365  1.6916 -1.0009
  125MOL0     H17193   4.046   2.734   0.305  0.7860  0.2046  0.9512
  125MOL0     H17194   3.910   2.638   0.288  2.7167  0.0886 -1.6690
  125MOL0     H17195   3.937   2.895   0.474 -0.0305  0.0316 -0.2680
  125MOL0     H17196   3.788   2.808   0.461  0.3295  1.1515  0.3931
  125MOL0     H17197   3.923   2.927   0.223  0.3787 -2.7779 -0.1902
  125MOL0     H17198   3.765   2.861   0.231  0.9912 -0.4468 -0.6494
  125MOL0     H17199   3.629   3.084   0.183 -1.8685  2.0595 -0.2348
  125MOL0     H17200   3.683   3.372   0.101  0.0572 -2.5627  0.6244
  125MOL0     H17201   3.666   3.452   0.259 -2.6252  1.6506 -0.2586
  125MOL0     H17202   3.463   3.241   0.182 -3.1602  1.0555  0.7489
  125MOL0     H17203   3.465   3.382   0.297 -0.3119  0.9731  0.0324
  125MOL0     H17204   3.497   3.543   0.130  1.4216 -1.6499  1.0150
  125MOL0     H17205   3.442   3.437  -0.000  1.9987 -0.5214  0.3240
  125MOL0     H17206   3.259   3.487   0.243 -1.1427  3.3540  0.5756
  125MOL0     H17207   3.268   3.586   0.098 -1.4060  0.5403  0.6285
  125MOL0     H17208   3.099   3.228   0.232 -3.0272 -1.9109  2.2085
  125MOL0     H17209   2.854   3.097   0.275  2.3818  0.4280 -0.4461
  125MOL0     H17210   2.780   3.229   0.371 -0.0852 -1.0088  0.9362
  125MOL0     H17211   2.950   3.193   0.388 -1.7041  0.3359  1.8642
  125MOL0     H17212   2.376   3.399   0.066  1.5635  1.6129  0.0845
  125MOL0     H17213   2.152   3.401   0.157  0.4184 -0.1968  1.4002
  125MOL0     H17214   1.979   3.316   0.183 -0.3455  1.6065  0.2674
  125MOL0     H17215   2.027   3.143   0.245  0.3978 -0.7399  2.3166
  125MOL0     H17216   1.800   3.289   0.378  0.1493 -0.1911 -0.4728
  125MOL0     H17217   1.773   3.234   0.217  1.3188 -2.3383 -0.3773
  125MOL0     H17218   1.856   3.060   0.452 -2.2179  0.9675  0.9516
  125MOL0     H17219   1.871   3.012   0.279 -0.5262  0.0549 -1.3601
  125MOL0     H17220   1.621   3.067   0.273  1.5797 -0.9400 -1.9266
  125MOL0     H17221   1.632   3.096   0.441  1.2869  1.8520 -0.5461
  125MOL0     H17222   1.702   2.836   0.290 -0.0998  0.2590 -0.2686
  125MOL0     H17223   1.726   2.861   0.471  2.8455  4.0196 -0.5865
  125MOL0     H17224   1.472   2.929   0.469  0.7552 -0.1770  1.7453
  125MOL0     H17225   1.513   2.750   0.455  1.6084  1.5556  0.8308
  125MOL0     H17226   1.473   2.731   0.232  3.2790  0.4637  0.9066
  125MOL0     H17227   1.480   2.902   0.200  0.2343  0.7477 -0.1767
  125MOL0     H17228   1.261   2.737   0.335  1.2806 -1.1679 -1.2355
  125MOL0     H17229   1.232   2.825   0.188  0.3885 -1.4298 -0.2654
  125MOL0     H17230   2.270   3.178   0.496  1.1500  0.6431  0.1924
  125MOL0     H17231   2.511   3.179   0.407  0.9732  0.6806 -1.7705
  125MOL0     H17232   2.807   3.561   0.042 -0.5864  0.1093  0.5739
  125MOL0     H17233   3.038   3.567  -0.004 -0.6370  1.0374  0.7390
  125MOL0     H17234   3.926   1.960   0.836  0.9075  0.8850 -2.3929
  125MOL0     H17235   3.963   1.747   0.964 -1.4722  1.2505  1.2266
  125MOL0     H17236   4.148   1.491   1.182  0.3071 -0.1100  1.9586
  125MOL0     H17237   4.167   1.301   1.339  2.4811  1.2328  1.4601
  125MOL0     H17238   4.343   0.915   1.236 -2.4772  1.3622  1.1359
  125MOL0     H17239   4.494   0.993   1.269  1.0731 -0.6806  0.4729
  125MOL0     H17240   4.445   0.985   1.509  0.5508  0.8809 -0.9106
  125MOL0     H17241   4.442   0.822   1.439  1.8411  0.6258  0.8069
  125MOL0     H17242   4.181   0.992   1.504 -1.7752 -0.4532 -1.1164
  125MOL0     H17243   4.199   0.846   1.397 -0.9559  1.1345 -0.7276
  125MOL0     H17244   4.277   0.715   1.592  0.0579 -1.2974  0.1519
  125MOL0     H17245   4.117   0.801   1.627  1.2565  3.2384  3.8218
  125MOL0     H17246   4.377   0.936   1.930 -0.4631 -1.2364 -0.1420
  125MOL0     H17247   4.459   1.111   1.077  0.7883  0.1110 -0.4672
  125MOL0     H17248   4.528   1.367   0.870 -0.4183 -0.9175 -3.2569
  125MOL0     H17249   4.524   1.195   0.896  2.5112  2.4197  1.0845
  125MOL0     H17250   4.401   1.263   0.793  2.0582 -1.0908 -2.0406
  126MOL0     O17251   9.077  10.830   1.826  0.2694 -0.0395 -0.5938
  126MOL0     C17252   9.145  10.737   1.808  0.0193  0.2615  0.5860
  126MOL0     O17253   9.208  10.667   1.906 -0.3836 -0.2133  0.1037
  126MOL0     C17254   9.213  10.726   2.033  0.3283 -0.4310  0.5800
  126MOL0     C17255   9.130  10.690   2.135  0.6889 -0.7065 -0.1152
  126MOL0     C17256   9.150  10.747   2.260 -0.6597 -0.3305 -0.7666
  126MOL0     C17257   9.246  10.847   2.284  0.3891 -0.4164  0.4286
  126MOL0     O17258   9.267  10.896   2.411 -0.2331 -0.3990 -0.0399
  126MOL0     C17259   9.255  11.038   2.429  0.2926  0.0144 -0.0391
  126MOL0     C17260   9.294  11.065   2.574  0.6369 -0.3428  0.5544
  126MOL0     C17261   9.420  10.991   2.625 -0.6596 -0.1902  0.3262
  126MOL0     C17262   9.443  11.030   2.771  0.1931  1.3753 -0.0142
  126MOL0     C17263   9.538  10.937   2.843 -0.3328 -0.6561  0.3776
  126MOL0     C17264   9.522  10.968   2.998 -0.4529  0.7251  0.1179
  126MOL0     C17265   9.625  10.892   3.094  0.3862 -0.8293 -0.1736
  126MOL0     C17266   9.749  10.974   3.090 -0.1591  0.2372  0.3192
  126MOL0     N17267   9.867  10.925   3.164 -0.0224  0.2238 -0.3471
  126MOL0     C17268   9.866  10.856   3.276  0.1171  0.3556  0.8388
  126MOL0     C17269   9.992  10.850   3.322 -0.8379 -0.0320  0.3983
  126MOL0     C17270  10.040  10.807   3.452  1.1908 -0.0451 -0.1817
  126MOL0     C17271  10.063  10.931   3.546 -0.6183  0.0272 -0.2802
  126MOL0     C17272  10.173  10.897   3.659 -0.3135  0.1949  0.2512
  126MOL0     C17273  10.118  10.807   3.772  1.0117  0.6636  0.3071
  126MOL0     O17274  10.079  10.674   3.726  0.5412  0.3165  0.0320
  126MOL0     C17275  10.172  10.583   3.703 -0.5282 -0.2320  0.3644
  126MOL0     C17276  10.155  10.493   3.595  0.3497 -0.1809 -0.1342
  126MOL0     C17277  10.253  10.391   3.569 -0.6779 -0.3947 -0.2754
  126MOL0     C17278  10.237  10.307   3.450 -0.7400 -0.2818  0.1629
  126MOL0     C17279  10.376  10.396   3.641  0.1859  0.4384 -0.2958
  126MOL0     C17280  10.487  10.294   3.636 -1.1015 -0.5311  0.3071
  126MOL0     O17281  10.613  10.352   3.653 -0.2033  0.1851  0.1465
  126MOL0     C17282  10.726  10.291   3.591 -0.2649 -0.6139 -0.5616
  126MOL0     C17283  10.858  10.310   3.639  1.5042  0.1600  0.5490
  126MOL0     C17284  10.963  10.265   3.566 -0.2297  0.3731 -0.1877
  126MOL0     C17285  10.952  10.184   3.456 -0.3198  0.4363  0.0182
  126MOL0     O17286  11.073  10.135   3.413  0.3577 -0.2581 -0.3891
  126MOL0     C17287  11.082  10.084   3.277  1.2684 -0.4980  0.3104
  126MOL0     C17288  11.104  10.204   3.175  0.3556  0.5867  0.7240
  126MOL0     C17289  11.251  10.231   3.147 -0.4955 -0.9275  0.4044
  126MOL0     C17290  11.267  10.362   3.066  0.0638 -0.3609 -0.1049
  126MOL0     C17291  11.415  10.375   3.008  0.6540  0.5209  0.2830
  126MOL0     C17292  11.420  10.488   2.906 -0.7227 -0.0916  0.2483
  126MOL0     C17293  11.412  10.638   2.950  1.0432  0.6094  0.3494
  126MOL0     C17294  11.273  10.690   2.941 -0.2860 -0.0431  0.7034
  126MOL0    Cl17295  11.204  10.672   2.778 -0.4425  0.0305  0.7494
  126MOL0     C17296  10.812  10.148   3.420  0.4831  0.0594 -0.2073
  126MOL0     C17297  10.705  10.218   3.476  0.0795  0.7064  0.3465
  126MOL0     O17298  10.459  10.176   3.619 -0.2148 -0.4117  0.4892
  126MOL0     C17299  10.392  10.486   3.747  0.2349  0.3055  0.2413
  126MOL0     C17300  10.293  10.583   3.774 -0.0520 -0.3101 -1.2326
  126MOL0     N17301  10.075  10.917   3.229  0.5424 -0.1602 -0.4447
  126MOL0     N17302   9.992  10.964   3.147 -0.0126 -0.7112 -0.1148
  126MOL0     C17303   9.328  10.890   2.176  0.1046 -0.3218 -0.7619
  126MOL0     C17304   9.313  10.819   2.059  0.1024  0.0559 -0.8584
  126MOL0     C17305   9.153  10.684   1.667  0.6517 -0.7005  0.3821
  126MOL0     C17306   9.034  10.668   1.590 -0.7668  0.2849 -0.5479
  126MOL0     C17307   9.032  10.613   1.466  0.6138 -0.3806 -0.1185
  126MOL0     C17308   9.146  10.552   1.416 -0.3703  0.0735  0.0247
  126MOL0     O17309   9.138  10.490   1.293 -0.9093  0.3008  0.3474
  126MOL0     C17310   9.212  10.564   1.195 -0.2499  0.5437 -0.3377
  126MOL0     C17311   9.364  10.539   1.205 -0.4896 -0.3892  0.5241
  126MOL0     C17312   9.432  10.565   1.065  0.0036  0.4070 -0.6142
  126MOL0     C17313   9.430  10.704   1.010  0.7856  0.0201 -0.2269
  126MOL0     C17314   9.318  10.712   0.908  0.5719 -0.5301 -0.5485
  126MOL0     C17315   9.219  10.727   0.836  0.1898  1.6161  0.4897
  126MOL0     C17316   9.262  10.554   1.491 -0.0500 -0.3376 -0.0525
  126MOL0     C17317   9.268  10.617   1.615  0.0045 -0.0482  0.3998
  126MOL0     C17318   9.399  10.611   1.695 -0.1644  0.1244  0.8347
  126MOL0     H17319   9.056  10.610   2.126 -0.1696 -0.1326  1.4470
  126MOL0     H17320   9.091  10.728   2.348 -1.4204  0.0084 -1.1966
  126MOL0     H17321   9.157  11.085   2.415 -0.2027 -0.1473  2.3563
  126MOL0     H17322   9.316  11.094   2.358 -1.8590  1.2598 -0.9915
  126MOL0     H17323   9.310  11.174   2.576 -3.1160  0.3367  0.0952
  126MOL0     H17324   9.203  11.055   2.634  0.1890  2.8448  0.5782
  126MOL0     H17325   9.397  10.884   2.619 -1.8798  0.0362  0.6862
  126MOL0     H17326   9.512  11.000   2.567 -1.6677 -0.3663 -1.3575
  126MOL0     H17327   9.482  11.131   2.788 -0.3593  1.0708  4.3181
  126MOL0     H17328   9.346  11.025   2.823 -0.2300 -0.7590 -0.9175
  126MOL0     H17329   9.639  10.942   2.802 -1.0395 -2.4771 -1.7809
  126MOL0     H17330   9.492  10.839   2.830  0.5029 -0.9503 -0.4434
  126MOL0     H17331   9.540  11.069   3.034 -0.4710  0.8352 -0.1854
  126MOL0     H17332   9.422  10.939   3.033  0.3333 -0.3443  1.6542
  126MOL0     H17333   9.645  10.789   3.063  0.7262 -0.4375 -1.3215
  126MOL0     H17334   9.578  10.895   3.193 -0.4045 -3.3638 -0.4058
  126MOL0     H17335   9.773  10.981   2.983  2.0910  1.5405  0.8367
  126MOL0     H17336   9.731  11.074   3.132  1.0650  0.3446  0.6430
  126MOL0     H17337   9.785  10.801   3.322 -0.6239 -0.9198 -1.7982
  126MOL0     H17338  10.133  10.749   3.447  0.2252 -2.0260  2.6349
  126MOL0     H17339   9.965  10.736   3.488  2.2788 -1.6916 -0.9887
  126MOL0     H17340  10.102  11.019   3.493  1.6887 -0.2632  0.7785
  126MOL0     H17341   9.967  10.963   3.586 -1.7205 -1.5215 -1.5490
  126MOL0     H17342  10.268  10.855   3.623  0.6135  1.4083  1.1720
  126MOL0     H17343  10.211  10.989   3.705  1.7100 -1.1367  1.4294
  126MOL0     H17344  10.180  10.806   3.862  0.5843  2.1673  0.6515
  126MOL0     H17345  10.027  10.856   3.806  2.0435  1.2653  2.3419
  126MOL0     H17346  10.061  10.504   3.541  2.2707  0.9183 -3.5849
  126MOL0     H17347  10.132  10.291   3.425 -1.3750  2.9811  0.2936
  126MOL0     H17348  10.286  10.212   3.470  0.2987  0.4335  1.1590
  126MOL0     H17349  10.276  10.366   3.366 -1.7595  2.6274  1.6054
  126MOL0     H17350  10.870  10.365   3.733  2.4294  4.1369 -1.6685
  126MOL0     H17351  11.065  10.286   3.598  0.4993 -2.1940 -0.5636
  126MOL0     H17352  11.163  10.010   3.268  0.2978 -1.5154 -0.3518
  126MOL0     H17353  10.990  10.026   3.262 -0.3739  1.2566  2.7860
  126MOL0     H17354  11.070  10.168   3.078  0.2900 -0.7746  1.2266
  126MOL0     H17355  11.036  10.286   3.200 -2.7050 -1.7764  0.7490
  126MOL0     H17356  11.285  10.156   3.076  1.9872 -0.2642  0.8159
  126MOL0     H17357  11.310  10.245   3.238  2.0942  3.4376 -1.6047
  126MOL0     H17358  11.229  10.439   3.134 -1.0687 -2.0789  1.3056
  126MOL0     H17359  11.190  10.364   2.988 -1.7663  0.5228  1.6105
  126MOL0     H17360  11.486  10.412   3.083  0.8169  1.1376 -0.1639
  126MOL0     H17361  11.447  10.282   2.961 -1.2714  1.6115 -3.5982
  126MOL0     H17362  11.336  10.469   2.838 -1.8368  0.3217  1.4800
  126MOL0     H17363  11.510  10.479   2.844 -1.3698 -2.1629 -0.4699
  126MOL0     H17364  11.469  10.689   2.872 -0.3582 -0.5801 -1.5064
  126MOL0     H17365  11.460  10.648   3.049  2.4827 -3.0870  0.1864
  126MOL0     H17366  11.282  10.791   2.981  4.0969  0.2874 -0.6459
  126MOL0     H17367  11.206  10.657   3.021 -0.0396 -0.3178  0.7976
  126MOL0     H17368  10.786  10.081   3.339  0.4583 -0.4212  0.1937
  126MOL0     H17369  10.610  10.203   3.427 -0.4535  1.6483  1.0678
  126MOL0     H17370  10.477  10.479   3.814  0.6129 -3.3698 -0.4319
  126MOL0     H17371  10.310  10.652   3.856  0.4339 -0.6474 -1.0441
  126MOL0     H17372   9.407  10.962   2.193  0.7027 -1.2308  0.4720
  126MOL0     H17373   9.377  10.849   1.977  1.1017 -2.7389 -1.1903
  126MOL0     H17374   8.945  10.722   1.621 -0.8077  1.0206 -1.8611
  126MOL0     H17375   8.941  10.600   1.408  1.9954  1.5653 -2.9210
  126MOL0     H17376   9.182  10.522   1.099  0.1743 -0.2626 -0.1264
  126MOL0     H17377   9.202  10.673   1.200  1.7997  0.7363  1.3123
  126MOL0     H17378   9.386  10.433   1.220 -2.0249 -0.4246  3.0297
  126MOL0     H17379   9.404  10.598   1.288 -0.1708 -1.1972  0.9444
  126MOL0     H17380   9.536  10.532   1.076 -0.4603 -1.7488 -2.0872
  126MOL0     H17381   9.391  10.491   0.996 -2.0097  1.1069 -0.2418
  126MOL0     H17382   9.518  10.728   0.949 -0.3477 -0.2518 -2.0526
  126MOL0     H17383   9.411  10.779   1.087 -1.1400 -0.4174 -0.2160
  126MOL0     H17384   9.143  10.726   0.761  0.6251 -1.8746 -0.0668
  126MOL0     H17385   9.351  10.501   1.458 -0.9309 -1.0592 -1.3628
  126MOL0     H17386   9.387  10.551   1.786 -1.5715  2.6658  2.4214
  126MOL0     H17387   9.477  10.573   1.628  0.4739 -0.9762  2.1365
  126MOL0     H17388   9.428  10.714   1.718 -1.4709  0.3161  1.7000
  127MOL0     O17389   9.853   5.862   4.593 -0.3100 -0.5982  0.5246
  127MOL0     C17390   9.790   5.957   4.636 -0.4297 -0.1451  0.4108
  127MOL0     O17391   9.756   5.971   4.769 -0.7672 -0.1306  0.2062
  127MOL0     C17392   9.815   5.890   4.856  1.0034 -0.1362  0.7277
  127MOL0     C17393   9.737   5.797   4.913 -1.0370 -0.7735  0.2900
  127MOL0     C17394   9.784   5.707   5.012  0.3088 -0.3206  0.1968
  127MOL0     C17395   9.924   5.684   5.027  0.6395 -0.9045  0.0211
  127MOL0     O17396   9.959   5.598   5.129  0.5230 -0.1690 -0.1105
  127MOL0     C17397  10.080   5.514   5.118  1.0483  0.4992 -0.2340
  127MOL0     C17398  10.112   5.448   5.250  0.7927  0.5328  0.3129
  127MOL0     C17399  10.179   5.542   5.355  0.3045  0.1843 -0.5879
  127MOL0     C17400  10.213   5.464   5.486  0.4854 -0.3298  0.6245
  127MOL0     C17401  10.355   5.493   5.531 -0.0873 -0.0831 -0.1601
  127MOL0     C17402  10.380   5.645   5.528 -0.4538  0.0284  1.0185
  127MOL0     C17403  10.514   5.680   5.602  1.0257  0.6783  0.7044
  127MOL0     C17404  10.560   5.815   5.554 -0.3888  0.8995  0.6932
  127MOL0     N17405  10.460   5.911   5.599 -0.5412  0.2646  0.3478
  127MOL0     C17406  10.425   5.931   5.732  0.8953  0.1302  0.5153
  127MOL0     C17407  10.365   6.052   5.749 -0.0425  0.5716 -0.1799
  127MOL0     C17408  10.300   6.114   5.870  0.4136  0.2170 -0.1849
  127MOL0     C17409  10.157   6.067   5.896  0.6927  0.4280  0.1150
  127MOL0     C17410  10.145   5.923   5.961 -0.5506  0.1560  0.5864
  127MOL0     C17411  10.131   5.826   5.841  0.1348  0.5980  0.7133
  127MOL0     O17412  10.225   5.720   5.851  0.5874  0.7144  0.3448
  127MOL0     C17413  10.181   5.611   5.929 -0.8023  0.6322 -0.1720
  127MOL0     C17414  10.065   5.595   6.004  0.3375  0.1371 -0.3955
  127MOL0     C17415  10.039   5.487   6.093  0.8030 -0.4038 -0.5479
  127MOL0     C17416   9.901   5.470   6.156 -1.0992  0.3037 -0.6269
  127MOL0     C17417  10.136   5.381   6.099  0.2279  1.0536  0.2285
  127MOL0     C17418  10.126   5.255   6.181 -0.9219 -0.1266 -0.3643
  127MOL0     O17419  10.239   5.183   6.214  0.4920 -0.6362  0.4360
  127MOL0     C17420  10.258   5.128   6.337  1.0152  0.5101 -0.3231
  127MOL0     C17421  10.363   5.037   6.335  0.1653 -0.5233  0.7644
  127MOL0     C17422  10.387   4.957   6.446  0.1071 -1.0967 -0.2426
  127MOL0     C17423  10.299   4.947   6.558 -0.5338 -0.0325  0.4330
  127MOL0     O17424  10.326   4.850   6.648  0.5013  0.4513 -0.7674
  127MOL0     C17425  10.276   4.861   6.789 -0.7498 -0.2230  0.3939
  127MOL0     C17426  10.353   4.765   6.873 -0.3988  0.4774  0.5189
  127MOL0     C17427  10.308   4.777   7.021 -0.1370  0.2207  0.4827
  127MOL0     C17428  10.364   4.882   7.114  0.6434 -0.6193 -0.2812
  127MOL0     C17429  10.304   4.907   7.254 -0.7775  0.1587 -0.0597
  127MOL0     C17430  10.338   4.788   7.345  0.3483  0.6485 -0.2111
  127MOL0     C17431  10.231   4.768   7.459  0.0169 -0.9199  1.3876
  127MOL0     C17432  10.297   4.714   7.583 -0.0306 -0.8739  1.0353
  127MOL0    Cl17433  10.379   4.557   7.551  0.2688 -0.2391 -0.5992
  127MOL0     C17434  10.199   5.033   6.562 -0.2980  0.0020  0.1687
  127MOL0     C17435  10.176   5.120   6.453 -0.3201  0.3411  0.1423
  127MOL0     O17436  10.014   5.223   6.214  0.5127 -0.2693  0.4213
  127MOL0     C17437  10.258   5.402   6.021  0.4484  0.1225 -0.6044
  127MOL0     C17438  10.281   5.518   5.940 -0.4093 -0.4549  0.2061
  127MOL0     N17439  10.381   6.106   5.624 -0.6542 -0.2276 -0.0517
  127MOL0     N17440  10.438   6.023   5.538  0.2206 -0.0033 -0.6620
  127MOL0     C17441  10.007   5.790   4.982 -0.9667 -0.0301  0.4015
  127MOL0     C17442   9.951   5.890   4.890  0.4758  0.5165  0.1116
  127MOL0     C17443   9.746   6.054   4.528 -0.4221  0.8385 -0.4111
  127MOL0     C17444   9.774   6.025   4.394  0.1571 -0.9011 -0.4649
  127MOL0     C17445   9.749   6.108   4.284 -0.0205 -0.4824  0.2832
  127MOL0     C17446   9.669   6.215   4.302 -0.1047 -0.1427 -0.7287
  127MOL0     O17447   9.628   6.282   4.189  0.4190  0.8075  0.4651
  127MOL0     C17448   9.614   6.423   4.196 -1.2738  0.3305  0.2469
  127MOL0     C17449   9.630   6.492   4.057 -0.1522 -0.5545 -0.9233
  127MOL0     C17450   9.531   6.435   3.950  0.0600 -0.9229 -0.9533
  127MOL0     C17451   9.398   6.511   3.914 -0.4834  0.6890  0.6947
  127MOL0     C17452   9.316   6.529   4.031 -0.2961 -0.6383  0.5892
  127MOL0     C17453   9.240   6.516   4.125 -0.4115  0.0817  0.0624
  127MOL0     C17454   9.637   6.252   4.435  0.0266 -0.1653 -0.1260
  127MOL0     C17455   9.680   6.174   4.549  0.2923 -0.6876  0.4869
  127MOL0     C17456   9.668   6.243   4.682  0.4900  0.0024  0.2767
  127MOL0     H17457   9.631   5.785   4.892 -1.4928 -1.8742  2.7865
  127MOL0     H17458   9.713   5.643   5.062 -0.0354 -0.3990 -0.3875
  127MOL0     H17459  10.160   5.581   5.083  1.5615 -0.4651 -0.9694
  127MOL0     H17460  10.073   5.444   5.035  0.2417 -1.4649  1.4128
  127MOL0     H17461  10.021   5.396   5.280  0.5989 -0.1731 -1.3717
  127MOL0     H17462  10.188   5.370   5.237 -1.2463 -1.1764 -2.4845
  127MOL0     H17463  10.267   5.579   5.300 -0.8690  2.3038 -1.1421
  127MOL0     H17464  10.118   5.631   5.370  1.3633  1.1284 -1.6369
  127MOL0     H17465  10.136   5.459   5.563 -0.1703 -1.5012 -0.0878
  127MOL0     H17466  10.210   5.360   5.453 -2.1968 -1.1158  2.9730
  127MOL0     H17467  10.431   5.442   5.471 -0.2222  2.4719 -2.7093
  127MOL0     H17468  10.371   5.451   5.631 -1.7848 -0.7686 -0.1372
  127MOL0     H17469  10.401   5.666   5.422 -2.4431 -4.2894 -0.4382
  127MOL0     H17470  10.300   5.702   5.575 -0.8799 -0.2156  0.6005
  127MOL0     H17471  10.586   5.602   5.577  1.8762  1.4434  0.7341
  127MOL0     H17472  10.500   5.683   5.711  1.0426  0.8581  0.7024
  127MOL0     H17473  10.663   5.827   5.589  0.7365 -4.1363 -0.1364
  127MOL0     H17474  10.561   5.814   5.445 -0.8423  3.9456  0.5688
  127MOL0     H17475  10.432   5.853   5.807  0.7298  1.7397  2.2790
  127MOL0     H17476  10.300   6.223   5.860  0.1571  0.1838 -0.5724
  127MOL0     H17477  10.354   6.095   5.963 -2.9470 -0.3251  1.8174
  127MOL0     H17478  10.104   6.142   5.957 -0.5167 -1.7675  1.9257
  127MOL0     H17479  10.104   6.056   5.801  2.5228 -1.2730 -0.7656
  127MOL0     H17480  10.241   5.912   6.013 -0.5939  0.7857  0.8075
  127MOL0     H17481  10.052   5.912   6.018 -0.9938 -2.1374 -0.4814
  127MOL0     H17482  10.030   5.789   5.821  0.5021  0.4420 -0.9732
  127MOL0     H17483  10.160   5.865   5.743 -1.0715 -2.0394 -0.7800
  127MOL0     H17484   9.986   5.668   6.000 -0.0068 -0.2597 -0.9802
  127MOL0     H17485   9.846   5.383   6.121  0.7654 -0.9535 -0.5958
  127MOL0     H17486   9.834   5.556   6.146 -1.5137  0.4152  2.3318
  127MOL0     H17487   9.918   5.456   6.263 -0.3640 -3.7535 -1.1087
  127MOL0     H17488  10.419   5.034   6.242 -2.1985  2.2088 -0.9053
  127MOL0     H17489  10.474   4.892   6.438 -0.8674 -2.2586 -2.1660
  127MOL0     H17490  10.280   4.962   6.830 -0.2137  0.5125 -1.3637
  127MOL0     H17491  10.172   4.826   6.783 -0.7273 -0.2553  0.1605
  127MOL0     H17492  10.333   4.670   6.822 -2.5425  1.7696 -1.2215
  127MOL0     H17493  10.459   4.785   6.862 -0.1454 -1.3004 -0.5375
  127MOL0     H17494  10.331   4.678   7.061  3.0527  0.5812 -0.1377
  127MOL0     H17495  10.200   4.793   7.015  0.2335  2.5336 -2.4875
  127MOL0     H17496  10.368   4.977   7.060  4.1350 -1.4519 -1.7809
  127MOL0     H17497  10.469   4.853   7.120  0.6455 -0.7658 -0.9937
  127MOL0     H17498  10.357   4.996   7.290 -1.5247  2.1741 -3.4648
  127MOL0     H17499  10.198   4.931   7.251 -0.3406  2.6469  1.6645
  127MOL0     H17500  10.439   4.800   7.384  0.1965  1.7558 -0.1167
  127MOL0     H17501  10.330   4.693   7.292 -0.4162  0.7182 -0.2421
  127MOL0     H17502  10.147   4.708   7.423  1.1003 -0.6804 -1.8900
  127MOL0     H17503  10.196   4.869   7.483 -0.3147 -0.2298 -1.6418
  127MOL0     H17504  10.222   4.688   7.658 -2.3509  0.7877 -0.5714
  127MOL0     H17505  10.369   4.789   7.616 -1.7254  1.7482 -0.8269
  127MOL0     H17506  10.126   5.031   6.643  0.4780 -1.1040  0.8849
  127MOL0     H17507  10.081   5.171   6.455  0.0470  1.2327 -2.0222
  127MOL0     H17508  10.334   5.325   6.027 -0.6460 -0.9427  0.0819
  127MOL0     H17509  10.382   5.531   5.903 -0.9453  0.6350 -0.9356
  127MOL0     H17510  10.112   5.799   5.006 -0.3100 -1.1254 -1.8343
  127MOL0     H17511  10.019   5.965   4.853 -1.1097  1.8833 -0.1455
  127MOL0     H17512   9.827   5.934   4.367 -0.4920 -1.5903  0.4985
  127MOL0     H17513   9.791   6.088   4.186  4.0570 -1.9896  2.1192
  127MOL0     H17514   9.511   6.438   4.229 -1.0249 -0.9300  1.6843
  127MOL0     H17515   9.685   6.465   4.269 -0.3317  0.4417 -0.7090
  127MOL0     H17516   9.732   6.483   4.018 -0.1530  1.5439 -1.5307
  127MOL0     H17517   9.608   6.599   4.067  2.4510 -0.1504  3.3099
  127MOL0     H17518   9.597   6.414   3.865  1.1000 -3.0901  0.2984
  127MOL0     H17519   9.500   6.334   3.980 -1.6996 -1.1954 -3.3904
  127MOL0     H17520   9.343   6.455   3.838 -2.3908 -0.7826  3.0305
  127MOL0     H17521   9.428   6.603   3.863 -0.8519 -0.3383 -1.4743
  127MOL0     H17522   9.163   6.492   4.197 -3.4402  0.2185 -2.8766
  127MOL0     H17523   9.579   6.342   4.452  0.0838 -0.3356  1.0876
  127MOL0     H17524   9.676   6.352   4.683  1.6591 -0.0488  2.0195
  127MOL0     H17525   9.572   6.211   4.721  0.2609 -1.0481 -1.0626
  127MOL0     H17526   9.748   6.209   4.749 -2.2080 -2.0281  2.6896
  128MOL0     O17527  11.112   2.469   9.771  0.1275  0.2716 -0.2941
  128MOL0     C17528  10.999   2.411   9.773  0.7575 -0.5339  0.0530
  128MOL0     O17529  10.952   2.327   9.684  0.1659 -0.0114 -0.6863
  128MOL0     C17530  11.026   2.225   9.631  0.1790 -0.8304  0.6480
  128MOL0     C17531  11.157   2.229   9.578 -0.5611 -0.3378 -0.3311
  128MOL0     C17532  11.234   2.117   9.553  0.5177  0.3545 -0.8111
  128MOL0     C17533  11.172   1.995   9.561  0.2576 -0.9651 -0.5285
  128MOL0     O17534  11.237   1.889   9.511 -0.4696 -0.2678  0.7091
  128MOL0     C17535  11.374   1.858   9.553  0.2440 -0.0537  0.8307
  128MOL0     C17536  11.384   1.710   9.522 -0.2353 -0.6660 -0.2996
  128MOL0     C17537  11.526   1.676   9.561  0.4931  0.9539 -0.4042
  128MOL0     C17538  11.616   1.739   9.459 -0.1654  0.2104  0.5607
  128MOL0     C17539  11.763   1.684   9.488  0.4495  0.2837  0.6058
  128MOL0     C17540  11.843   1.777   9.573 -0.7173 -0.4557  0.5074
  128MOL0     C17541  11.986   1.748   9.606 -0.5264 -0.5834 -0.3842
  128MOL0     C17542  12.051   1.864   9.692  0.8955  0.5333  0.4592
  128MOL0     N17543  12.200   1.856   9.690  0.2712 -0.9693 -0.0560
  128MOL0     C17544  12.283   1.886   9.577 -0.1170  0.3085 -0.1629
  128MOL0     C17545  12.405   1.891   9.628  0.7506 -0.6210  0.4679
  128MOL0     C17546  12.514   1.925   9.540 -0.0132 -0.4529  0.4623
  128MOL0     C17547  12.570   1.811   9.456  0.3907 -0.2906 -0.4710
  128MOL0     C17548  12.609   1.687   9.544 -0.6818 -0.0035 -0.0784
  128MOL0     C17549  12.702   1.717   9.662 -0.0803 -0.1822  0.7081
  128MOL0     O17550  12.778   1.603   9.699 -0.3515 -0.5271  0.0644
  128MOL0     C17551  12.830   1.599   9.832 -0.1397  0.0361  0.0040
  128MOL0     C17552  12.902   1.707   9.889  0.2745  0.3798 -0.0698
  128MOL0     C17553  12.929   1.712  10.024 -0.4788  0.4620 -0.3989
  128MOL0     C17554  12.981   1.836  10.090  0.3691  0.6593  0.6582
  128MOL0     C17555  12.897   1.596  10.106  0.4184 -0.5734  0.4707
  128MOL0     C17556  12.921   1.581  10.256  0.1412  0.0584  0.0913
  128MOL0     O17557  12.923   1.453  10.312 -0.3336 -0.0822 -0.2578
  128MOL0     C17558  12.878   1.448  10.440 -0.3569 -0.5185 -0.3115
  128MOL0     C17559  12.750   1.492  10.481 -0.1068  0.1069  0.0039
  128MOL0     C17560  12.704   1.446  10.607 -0.1050  0.4813  0.4569
  128MOL0     C17561  12.785   1.373  10.702 -0.2265  0.0301  1.2370
  128MOL0     O17562  12.749   1.321  10.823 -0.6023  0.1373  0.5595
  128MOL0     C17563  12.618   1.270  10.826  0.0996  0.6549  0.2199
  128MOL0     C17564  12.586   1.182  10.940 -0.7388  0.5591 -0.2656
  128MOL0     C17565  12.452   1.102  10.942  0.1619 -0.1972 -0.3382
  128MOL0     C17566  12.461   0.996  10.834 -0.3762 -0.1390 -0.3108
  128MOL0     C17567  12.330   0.905  10.834  0.1014  0.0724  0.6322
  128MOL0     C17568  12.344   0.809  10.703 -0.2021  0.7702  0.6836
  128MOL0     C17569  12.412   0.673  10.722 -0.4812 -0.6733  0.0555
  128MOL0     C17570  12.321   0.550  10.715 -0.7069  0.7070  0.1874
  128MOL0    Cl17571  12.208   0.560  10.862  0.1018 -0.4750 -0.3703
  128MOL0     C17572  12.911   1.331  10.656  0.0991 -0.4954  1.2831
  128MOL0     C17573  12.954   1.368  10.526  0.6924  0.6724  0.0520
  128MOL0     O17574  12.935   1.681  10.320  0.1173  0.3966  0.7083
  128MOL0     C17575  12.840   1.483  10.036 -0.1110 -0.4391  0.3449
  128MOL0     C17576  12.823   1.480   9.905  0.0191 -0.3534 -0.3797
  128MOL0     N17577  12.395   1.883   9.765 -0.7275  0.0202 -0.3651
  128MOL0     N17578  12.272   1.864   9.806 -0.6188  0.0642 -0.6131
  128MOL0     C17579  11.035   1.987   9.600 -0.1684  0.1519  0.7789
  128MOL0     C17580  10.962   2.099   9.627 -0.1656  0.7007  0.2236
  128MOL0     C17581  10.906   2.434   9.887  0.1387 -0.3921 -0.7939
  128MOL0     C17582  10.842   2.323   9.942  0.2311  0.1918  0.3074
  128MOL0     C17583  10.752   2.331  10.043 -0.2051  0.4644 -1.0227
  128MOL0     C17584  10.725   2.454  10.100  0.2763  0.6427  0.2671
  128MOL0     O17585  10.639   2.476  10.202 -0.0849  0.1028  0.2347
  128MOL0     C17586  10.559   2.354  10.245 -0.5669 -0.5144 -0.1085
  128MOL0     C17587  10.474   2.385  10.364  0.2900  0.3659 -1.4444
  128MOL0     C17588  10.553   2.429  10.491  0.3402  0.2735  0.7704
  128MOL0     C17589  10.459   2.437  10.619 -0.7976  0.6079 -0.2828
  128MOL0     C17590  10.527   2.497  10.735  1.1237  1.0423 -0.8253
  128MOL0     C17591  10.568   2.553  10.834 -0.6885  0.5381 -0.3274
  128MOL0     C17592  10.793   2.572  10.059 -0.3439 -0.1948  0.0033
  128MOL0     C17593  10.886   2.559   9.960  0.2020 -0.5799 -0.3768
  128MOL0     C17594  10.969   2.684   9.939  0.1105 -0.5112 -0.0978
  128MOL0     H17595  11.214   2.322   9.579 -0.1729 -0.5753 -0.3117
  128MOL0     H17596  11.335   2.129   9.518  1.0528 -1.2637  0.0594
  128MOL0     H17597  11.380   1.873   9.661 -1.1661 -0.1359  0.9384
  128MOL0     H17598  11.442   1.927   9.503  0.1835  0.4335  1.4156
  128MOL0     H17599  11.313   1.652   9.581 -1.8045  0.2897 -1.1805
  128MOL0     H17600  11.362   1.696   9.415  1.2159  4.6231 -1.5886
  128MOL0     H17601  11.545   1.691   9.667 -0.1479 -0.8181 -0.0190
  128MOL0     H17602  11.516   1.568   9.549 -0.9882  1.0462 -0.2705
  128MOL0     H17603  11.597   1.698   9.359 -2.1240  0.5729  0.7501
  128MOL0     H17604  11.623   1.847   9.473 -0.9982 -0.0132  3.5389
  128MOL0     H17605  11.813   1.673   9.392  2.7130 -0.8446  1.8277
  128MOL0     H17606  11.749   1.583   9.528 -1.9745  0.6632  0.8894
  128MOL0     H17607  11.842   1.874   9.524  0.5352  0.7188  2.6559
  128MOL0     H17608  11.788   1.785   9.667 -2.1754 -1.8913 -0.1827
  128MOL0     H17609  12.037   1.716   9.515  0.0908  3.2488 -1.5572
  128MOL0     H17610  11.991   1.663   9.674 -0.6397 -1.5691 -1.5924
  128MOL0     H17611  12.028   1.958   9.641 -0.6979 -0.8436 -1.5712
  128MOL0     H17612  12.010   1.870   9.793  1.4104  0.6962  0.6633
  128MOL0     H17613  12.253   1.893   9.473 -2.2756 -1.0105  0.3048
  128MOL0     H17614  12.597   1.963   9.600 -2.0551  1.9193  1.9728
  128MOL0     H17615  12.486   2.003   9.468 -0.4582 -1.8258 -0.9183
  128MOL0     H17616  12.514   1.777   9.368  0.7620 -1.9775 -0.1067
  128MOL0     H17617  12.668   1.851   9.428  1.1638 -0.2491  2.0125
  128MOL0     H17618  12.520   1.635   9.580 -1.9382  0.8495 -1.7531
  128MOL0     H17619  12.657   1.618   9.474 -0.5565 -1.2684  1.2326
  128MOL0     H17620  12.763   1.804   9.638  0.1501 -0.5404 -0.0245
  128MOL0     H17621  12.644   1.749   9.749 -3.9622 -2.7011 -0.6653
  128MOL0     H17622  12.934   1.789   9.826 -1.0594  1.6199  0.8050
  128MOL0     H17623  13.074   1.818  10.145  0.2152 -3.3451 -0.0497
  128MOL0     H17624  12.900   1.884  10.146  0.3365  2.5193 -0.8803
  128MOL0     H17625  13.006   1.895  10.002  2.1676 -0.6717  0.2099
  128MOL0     H17626  12.691   1.564  10.425  2.6455  3.2366  0.7439
  128MOL0     H17627  12.610   1.497  10.627 -1.1513 -0.2737 -2.1680
  128MOL0     H17628  12.551   1.356  10.832 -0.1532  0.4914 -0.2142
  128MOL0     H17629  12.597   1.223  10.729  3.0036  2.1802 -1.2840
  128MOL0     H17630  12.664   1.105  10.932 -2.8170 -2.0501  2.1401
  128MOL0     H17631  12.603   1.218  11.042 -1.9673  1.5215 -0.3727
  128MOL0     H17632  12.374   1.175  10.915 -1.7359 -1.6754  0.9135
  128MOL0     H17633  12.427   1.049  11.034  3.3976 -2.0910 -0.4114
  128MOL0     H17634  12.546   0.934  10.863  0.6628  2.2405  2.1862
  128MOL0     H17635  12.462   1.039  10.733 -0.6571  0.8828  0.1079
  128MOL0     H17636  12.327   0.841  10.923  1.8556 -0.0882  0.6110
  128MOL0     H17637  12.236   0.961  10.837 -0.1915 -0.4535  2.2546
  128MOL0     H17638  12.395   0.862  10.622 -0.7201 -2.8948 -2.3186
  128MOL0     H17639  12.248   0.793  10.653  0.2305 -0.3406  0.1649
  128MOL0     H17640  12.466   0.672  10.817 -0.6789  1.7448  0.2534
  128MOL0     H17641  12.479   0.666  10.637 -1.5746 -0.3789 -0.8494
  128MOL0     H17642  12.381   0.459  10.728 -0.2775  1.1052  1.1383
  128MOL0     H17643  12.265   0.542  10.622 -0.5197  0.5232  0.0919
  128MOL0     H17644  12.953   1.247  10.711  1.9377 -1.0968 -0.9169
  128MOL0     H17645  13.038   1.332  10.467  0.3114 -0.8480  0.4086
  128MOL0     H17646  12.819   1.392  10.091  0.1352 -0.8551 -0.2423
  128MOL0     H17647  12.785   1.387   9.863  0.0260 -0.6741  0.3136
  128MOL0     H17648  10.983   1.897   9.569  1.0811 -0.7153  1.1390
  128MOL0     H17649  10.857   2.089   9.653 -0.5844  2.7968 -0.4146
  128MOL0     H17650  10.864   2.223   9.905 -1.6537  0.9962 -3.4220
  128MOL0     H17651  10.709   2.237  10.075 -1.7824  1.6406  0.4561
  128MOL0     H17652  10.512   2.302  10.161  2.4803 -1.8701 -1.0870
  128MOL0     H17653  10.624   2.270  10.270 -0.3563 -1.6029 -3.7450
  128MOL0     H17654  10.412   2.303  10.402  0.0980  2.3242  3.1598
  128MOL0     H17655  10.408   2.463  10.325  1.0616  0.0329 -3.5572
  128MOL0     H17656  10.634   2.356  10.506  0.6632  0.4278 -0.1635
  128MOL0     H17657  10.598   2.524  10.461 -0.0667  0.0983 -0.4553
  128MOL0     H17658  10.420   2.336  10.631 -2.1098  0.9860 -1.1767
  128MOL0     H17659  10.368   2.496  10.604 -1.7762 -0.3982  1.3786
  128MOL0     H17660  10.605   2.611  10.916 -0.4303  0.1861 -0.1902
  128MOL0     H17661  10.779   2.666  10.111 -0.8506 -0.0386 -0.4113
  128MOL0     H17662  10.970   2.727   9.839 -0.3721 -0.1005  0.0660
  128MOL0     H17663  10.938   2.763  10.009 -0.8645  1.3416 -2.5000
  128MOL0     H17664  11.074   2.655   9.942  0.5576  0.7016 -2.1163
  129MOL0     O17665   2.511   1.550   2.483  0.1590 -0.2799  0.1787
  129MOL0     C17666   2.618   1.560   2.550 -0.7372 -0.2467 -0.2394
  129MOL0     O17667   2.703   1.664   2.560 -0.5649 -0.1502 -0.2878
  129MOL0     C17668   2.671   1.783   2.487 -0.4615 -0.4410 -0.4323
  129MOL0     C17669   2.657   1.904   2.556 -0.0940 -0.0869 -1.0707
  129MOL0     C17670   2.622   2.018   2.496  0.7367  0.1080 -1.1936
  129MOL0     C17671   2.598   2.017   2.353  1.2436 -1.0295  0.1092
  129MOL0     O17672   2.557   2.132   2.293  0.0444  0.2165 -0.6043
  129MOL0     C17673   2.468   2.232   2.355 -0.4617  0.3238 -0.1451
  129MOL0     C17674   2.373   2.313   2.269 -1.2342  0.1843  0.5504
  129MOL0     C17675   2.246   2.253   2.207  0.5719  0.2268  0.4017
  129MOL0     C17676   2.141   2.353   2.163  0.0435  0.3500  0.6355
  129MOL0     C17677   2.190   2.449   2.053 -0.0843  0.9078  0.5228
  129MOL0     C17678   2.222   2.363   1.922 -0.2112 -1.0083 -0.3093
  129MOL0     C17679   2.301   2.450   1.814  0.9384  0.2918 -1.0730
  129MOL0     C17680   2.329   2.348   1.701  0.7175 -0.0416 -0.0529
  129MOL0     N17681   2.431   2.402   1.609 -0.4149 -0.3397 -1.0047
  129MOL0     C17682   2.405   2.463   1.491  1.0863 -0.5682 -0.3243
  129MOL0     C17683   2.518   2.455   1.408  0.5186  0.3049  0.0083
  129MOL0     C17684   2.547   2.501   1.265  0.3087  0.2769 -0.6269
  129MOL0     C17685   2.634   2.408   1.177 -0.2355  0.3426 -0.4855
  129MOL0     C17686   2.670   2.479   1.043  0.0927 -0.1211 -0.7548
  129MOL0     C17687   2.706   2.375   0.938  0.2748  0.3043 -0.6494
  129MOL0     O17688   2.594   2.355   0.857 -0.3796 -0.7299 -0.2563
  129MOL0     C17689   2.606   2.372   0.726 -0.6454 -0.4402  1.0098
  129MOL0     C17690   2.552   2.274   0.643 -0.3746  1.0555 -0.6304
  129MOL0     C17691   2.545   2.286   0.511  0.4634  0.4185 -0.0149
  129MOL0     C17692   2.499   2.168   0.434 -0.3521  0.7792  0.5966
  129MOL0     C17693   2.585   2.397   0.441 -0.1086  0.1238 -0.5367
  129MOL0     C17694   2.597   2.412   0.295 -0.0762  0.0200  0.6170
  129MOL0     O17695   2.719   2.433   0.247  0.7085  0.1451 -0.4554
  129MOL0     C17696   2.742   2.463   0.112  0.2142 -0.2496  0.1393
  129MOL0     C17697   2.861   2.406   0.056  0.0702 -0.0655  0.6582
  129MOL0     C17698   2.875   2.415  -0.090  0.0592  0.0543 -0.3874
  129MOL0     C17699   2.785   2.469  -0.172  0.2934 -0.3350  0.0638
  129MOL0     O17700   2.820   2.467  -0.299 -0.0785 -0.3541  0.2001
  129MOL0     C17701   2.726   2.414  -0.394 -0.9895 -0.0873  0.0530
  129MOL0     C17702   2.802   2.366  -0.523  0.2503  0.0379 -0.2248
  129MOL0     C17703   2.885   2.234  -0.497 -0.3266 -0.6730  0.9494
  129MOL0     C17704   2.975   2.227  -0.624  0.3027 -0.0145  0.0075
  129MOL0     C17705   3.058   2.100  -0.632  0.9563 -0.7064 -0.7051
  129MOL0     C17706   2.980   1.971  -0.638  0.3723 -0.3883 -1.6305
  129MOL0     C17707   3.073   1.861  -0.679 -0.0573 -0.3425  0.7612
  129MOL0     C17708   3.156   1.810  -0.564 -0.2712 -0.6146 -0.7460
  129MOL0    Cl17709   3.239   1.657  -0.617  0.8432  0.2147 -0.0934
  129MOL0     C17710   2.669   2.530  -0.122 -0.1678  0.1625 -0.7738
  129MOL0     C17711   2.657   2.524   0.020  0.4109 -0.2583 -0.5882
  129MOL0     O17712   2.496   2.405   0.230  0.0361  0.1443  0.2596
  129MOL0     C17713   2.654   2.497   0.522 -0.2749 -0.2324  0.9184
  129MOL0     C17714   2.661   2.484   0.655  0.3306  1.0173 -0.1849
  129MOL0     N17715   2.605   2.374   1.478 -0.6064 -0.5646 -0.4708
  129MOL0     N17716   2.554   2.358   1.593 -0.2814 -0.7825  0.5872
  129MOL0     C17717   2.619   1.898   2.282  0.7323 -0.7007 -0.3083
  129MOL0     C17718   2.658   1.787   2.350  0.0139 -0.3503 -0.2641
  129MOL0     C17719   2.663   1.440   2.620  0.3971 -0.5040  0.4900
  129MOL0     C17720   2.582   1.417   2.731 -0.3396 -0.0670 -0.5063
  129MOL0     C17721   2.617   1.322   2.827 -0.3682 -0.2335 -0.5407
  129MOL0     C17722   2.742   1.253   2.815  0.5176  0.2464  0.9417
  129MOL0     O17723   2.805   1.189   2.919 -0.8095 -1.0329 -0.2281
  129MOL0     C17724   2.733   1.170   3.035 -0.3446  0.8956 -0.5079
  129MOL0     C17725   2.825   1.060   3.100  0.5337  1.7269 -0.2271
  129MOL0     C17726   2.957   1.107   3.143  0.0099 -0.9657  0.5379
  129MOL0     C17727   3.006   1.045   3.283  0.3917  0.2149  0.2542
  129MOL0     C17728   2.919   1.086   3.389  0.4953 -0.1759  0.2523
  129MOL0     C17729   2.865   1.127   3.489 -0.5112  0.7750 -0.4049
  129MOL0     C17730   2.815   1.278   2.704 -0.3847 -0.6231  0.5157
  129MOL0     C17731   2.779   1.369   2.608  0.3215  0.8858  0.0710
  129MOL0     C17732   2.859   1.388   2.479 -0.0039 -0.3169 -0.5635
  129MOL0     H17733   2.656   1.924   2.663  0.3840  2.6855 -1.5052
  129MOL0     H17734   2.624   2.107   2.559 -1.0498 -0.8831  0.3778
  129MOL0     H17735   2.527   2.306   2.410 -1.2522  1.3855 -0.6992
  129MOL0     H17736   2.407   2.168   2.419  0.5732 -0.1453  0.4082
  129MOL0     H17737   2.335   2.401   2.321 -2.9467  2.8049 -4.4266
  129MOL0     H17738   2.431   2.349   2.184  0.5440  0.2686  1.7508
  129MOL0     H17739   2.282   2.184   2.130 -3.0263 -3.2790  1.5239
  129MOL0     H17740   2.199   2.188   2.282  2.6148  0.6504  2.1368
  129MOL0     H17741   2.052   2.296   2.135  1.8057 -2.6504  0.6946
  129MOL0     H17742   2.107   2.410   2.251 -4.3205 -2.0049  0.7826
  129MOL0     H17743   2.275   2.509   2.087 -1.4337  2.2586  1.6642
  129MOL0     H17744   2.110   2.517   2.022 -2.2744 -2.6107 -2.2466
  129MOL0     H17745   2.284   2.275   1.943 -0.9680 -1.0434  2.0967
  129MOL0     H17746   2.131   2.327   1.873  1.3058 -3.5889 -1.4515
  129MOL0     H17747   2.388   2.481   1.872  2.7592 -0.7587 -3.0943
  129MOL0     H17748   2.237   2.529   1.772 -1.0657 -1.2166 -1.0258
  129MOL0     H17749   2.370   2.255   1.740 -1.1469 -0.6255  0.5722
  129MOL0     H17750   2.236   2.328   1.648  1.8171 -0.2698 -2.0271
  129MOL0     H17751   2.307   2.505   1.472  2.2965  3.1839  0.7148
  129MOL0     H17752   2.604   2.594   1.274  3.5723 -1.7322  1.7711
  129MOL0     H17753   2.461   2.524   1.201  0.5903  0.6765 -0.8672
  129MOL0     H17754   2.730   2.401   1.228  0.4405  0.2770 -1.7475
  129MOL0     H17755   2.580   2.313   1.167 -0.9914  0.5941  0.8240
  129MOL0     H17756   2.594   2.547   1.004  0.1255 -0.2559 -1.0572
  129MOL0     H17757   2.755   2.544   1.061 -1.3101  1.8412 -0.9260
  129MOL0     H17758   2.791   2.398   0.873  0.2871 -1.0269 -1.1289
  129MOL0     H17759   2.721   2.272   0.971 -1.0294 -0.8527 -3.3436
  129MOL0     H17760   2.511   2.186   0.691  2.4041 -0.2872 -0.5420
  129MOL0     H17761   2.432   2.208   0.358  3.7435  1.5252 -2.9295
  129MOL0     H17762   2.457   2.085   0.492 -0.8654  0.2396 -0.5228
  129MOL0     H17763   2.573   2.112   0.376 -1.1524 -0.0177  0.3132
  129MOL0     H17764   2.927   2.346   0.117  0.7644 -0.3548 -0.3457
  129MOL0     H17765   2.964   2.378  -0.140 -0.5708 -3.9443  1.0394
  129MOL0     H17766   2.680   2.328  -0.344 -0.9239  1.6359  3.3559
  129MOL0     H17767   2.662   2.495  -0.428  1.5822  1.1691 -2.2164
  129MOL0     H17768   2.733   2.328  -0.599  1.4050 -2.8954  0.0637
  129MOL0     H17769   2.868   2.448  -0.553  0.3865  0.4098  1.0131
  129MOL0     H17770   2.817   2.149  -0.485 -0.9334 -0.1165  1.5038
  129MOL0     H17771   2.945   2.226  -0.406 -0.6138 -0.1160  1.1898
  129MOL0     H17772   3.038   2.316  -0.633  0.7023 -0.4743 -2.2585
  129MOL0     H17773   2.908   2.234  -0.710 -0.8593 -1.1082  0.7891
  129MOL0     H17774   3.122   2.123  -0.717 -0.3449  4.8897 -0.5593
  129MOL0     H17775   3.123   2.080  -0.546 -0.0022 -0.1303  0.1782
  129MOL0     H17776   2.896   1.988  -0.706 -0.3677 -0.8433 -0.8555
  129MOL0     H17777   2.936   1.964  -0.538  1.0844  3.2924 -0.9291
  129MOL0     H17778   3.136   1.899  -0.760 -0.1588 -0.8871  0.4262
  129MOL0     H17779   3.018   1.785  -0.735  1.8949  1.5855 -4.2817
  129MOL0     H17780   3.101   1.791  -0.472 -0.1161 -2.9090 -1.0667
  129MOL0     H17781   3.229   1.884  -0.530 -0.5341 -1.5938  2.1871
  129MOL0     H17782   2.590   2.564  -0.188 -0.3315 -0.1753 -0.7537
  129MOL0     H17783   2.563   2.567   0.054 -0.0659 -3.8400  3.4555
  129MOL0     H17784   2.668   2.595   0.477 -1.1791  0.3452  1.8493
  129MOL0     H17785   2.693   2.564   0.721 -1.7339 -0.2302  2.5198
  129MOL0     H17786   2.574   1.886   2.184 -1.2314 -1.1656  0.6050
  129MOL0     H17787   2.675   1.693   2.298  2.0134  0.0277 -0.3812
  129MOL0     H17788   2.512   1.491   2.770  1.3758 -0.1285  3.0588
  129MOL0     H17789   2.552   1.323   2.914  1.1798  0.5923  0.6584
  129MOL0     H17790   2.727   1.245   3.114 -3.1609 -1.6502  1.9747
  129MOL0     H17791   2.627   1.148   3.025 -0.6186  2.1867 -0.6011
  129MOL0     H17792   2.827   0.974   3.033 -0.7925  1.6461 -0.1977
  129MOL0     H17793   2.767   1.018   3.183 -0.6858  1.5028 -1.1483
  129MOL0     H17794   3.024   1.086   3.059  0.8549  1.2979  0.5624
  129MOL0     H17795   2.966   1.215   3.154  1.6943 -0.7655 -1.7546
  129MOL0     H17796   3.100   1.100   3.296  0.0812  1.0876 -1.0087
  129MOL0     H17797   3.018   0.937   3.269 -2.2818  0.0347 -1.3073
  129MOL0     H17798   2.816   1.157   3.579  0.1674 -1.1973  0.6790
  129MOL0     H17799   2.919   1.249   2.709 -0.3696 -0.7031 -0.1405
  129MOL0     H17800   2.834   1.322   2.396 -2.2547  0.9456 -0.9721
  129MOL0     H17801   2.842   1.493   2.450  1.8115 -0.1278 -1.0456
  129MOL0     H17802   2.965   1.367   2.499 -0.4923  0.4532  4.0368
  130MOL0     O17803   6.098   5.027   1.694  0.0736  0.8471 -0.2672
  130MOL0     C17804   6.022   4.987   1.604 -0.4807 -0.2744 -0.3171
  130MOL0     O17805   5.974   4.865   1.597  0.7322  0.2792  0.7008
  130MOL0     C17806   5.993   4.778   1.700 -0.0247 -1.0216 -0.4434
  130MOL0     C17807   5.947   4.802   1.833 -0.1342 -0.8446  0.4968
  130MOL0     C17808   5.993   4.719   1.938 -0.4145  0.9979 -0.0566
  130MOL0     C17809   6.063   4.598   1.916 -0.2919  0.3992  0.2735
  130MOL0     O17810   6.107   4.514   2.018  0.0601  0.8060 -0.0139
  130MOL0     C17811   6.034   4.502   2.148  1.3241 -0.0633  0.2310
  130MOL0     C17812   5.893   4.441   2.126  0.6446  0.3956  0.4214
  130MOL0     C17813   5.898   4.327   2.031 -0.3970 -0.0767  0.0050
  130MOL0     C17814   5.984   4.206   2.085 -0.0468 -0.0930 -1.4638
  130MOL0     C17815   5.926   4.074   2.045 -0.4948 -0.6252 -0.2130
  130MOL0     C17816   6.021   3.954   2.034 -0.2294  0.6375 -0.1643
  130MOL0     C17817   5.953   3.829   1.981  0.9401  0.0632  1.3750
  130MOL0     C17818   5.915   3.850   1.831  0.2195  0.1517 -0.1889
  130MOL0     N17819   5.886   3.720   1.777 -0.8242  1.1901  0.3825
  130MOL0     C17820   5.769   3.693   1.710  0.6401  0.7061 -0.0405
  130MOL0     C17821   5.772   3.560   1.683 -0.2405 -0.2367  0.2983
  130MOL0     C17822   5.660   3.482   1.621 -0.4364  0.3958 -0.2617
  130MOL0     C17823   5.701   3.412   1.495  0.4852  0.4644  0.1884
  130MOL0     C17824   5.576   3.378   1.409 -0.0201 -0.6521  0.3549
  130MOL0     C17825   5.471   3.281   1.467  0.1300  0.5421  0.3033
  130MOL0     O17826   5.445   3.279   1.610 -0.1190  0.1193  0.8018
  130MOL0     C17827   5.314   3.242   1.641  0.8749  0.1304  0.6677
  130MOL0     C17828   5.294   3.145   1.730 -0.3945  1.1005 -0.0463
  130MOL0     C17829   5.162   3.105   1.776  0.4573  0.4649 -0.0037
  130MOL0     C17830   5.167   3.014   1.888  0.7252 -0.4093  0.6928
  130MOL0     C17831   5.044   3.154   1.712  1.1664 -1.0984  0.8693
  130MOL0     C17832   4.901   3.129   1.755 -0.5975 -0.0044 -0.5799
  130MOL0     O17833   4.806   3.196   1.682  0.2611 -0.7720  0.0960
  130MOL0     C17834   4.687   3.237   1.741  0.8427  0.0322 -0.4960
  130MOL0     C17835   4.570   3.256   1.659 -0.4440 -0.8068 -0.2271
  130MOL0     C17836   4.447   3.312   1.711 -0.2384  0.3191  0.3154
  130MOL0     C17837   4.445   3.374   1.834  0.4014  0.7921  0.0241
  130MOL0     O17838   4.345   3.450   1.890 -0.1725  0.0232  0.1444
  130MOL0     C17839   4.223   3.475   1.820 -0.9428  0.2498  0.8092
  130MOL0     C17840   4.145   3.580   1.891  0.5877  0.8731  0.5242
  130MOL0     C17841   4.011   3.605   1.815 -0.4590 -0.5457  0.3564
  130MOL0     C17842   4.007   3.568   1.664  0.3434  0.4627  0.0033
  130MOL0     C17843   3.872   3.597   1.603  0.5222  0.1543  0.0382
  130MOL0     C17844   3.824   3.745   1.594 -0.0947 -1.1647 -0.2349
  130MOL0     C17845   3.670   3.737   1.550  0.9220 -0.1640 -0.0058
  130MOL0     C17846   3.614   3.880   1.551  0.8448 -0.4646  0.1499
  130MOL0    Cl17847   3.698   3.964   1.418 -0.0841 -0.1793  0.2567
  130MOL0     C17848   4.557   3.362   1.919 -0.6236 -1.3523  0.5727
  130MOL0     C17849   4.675   3.291   1.872  0.1846 -0.3803 -0.4037
  130MOL0     O17850   4.874   3.056   1.852  0.8309 -0.1622 -0.2370
  130MOL0     C17851   5.071   3.257   1.614 -0.4307 -0.8289 -0.6043
  130MOL0     C17852   5.198   3.296   1.580 -0.3977 -1.0482  0.2888
  130MOL0     N17853   5.881   3.501   1.734 -1.0428  0.1193 -0.5835
  130MOL0     N17854   5.952   3.597   1.788  0.5322 -0.7289 -0.9168
  130MOL0     C17855   6.103   4.572   1.784 -0.0691  0.4093 -0.0212
  130MOL0     C17856   6.070   4.668   1.678 -0.0328  0.7116 -0.5057
  130MOL0     C17857   6.006   5.089   1.501 -0.7355  0.3180  1.1661
  130MOL0     C17858   6.011   5.222   1.539 -0.1077 -0.5412 -0.1894
  130MOL0     C17859   6.006   5.325   1.443  0.6261  0.9214 -0.3557
  130MOL0     C17860   5.989   5.288   1.316 -0.1320 -0.4695  0.4214
  130MOL0     O17861   5.990   5.379   1.214 -0.5276 -0.4834 -0.0560
  130MOL0     C17862   6.097   5.343   1.115  0.2294 -0.1953  0.3213
  130MOL0     C17863   6.119   5.481   1.045 -0.4091  0.1133  0.3529
  130MOL0     C17864   6.207   5.456   0.919  0.2360  0.2223  0.4429
  130MOL0     C17865   6.148   5.351   0.817 -0.7264  0.1101 -0.6138
  130MOL0     C17866   6.001   5.362   0.808 -0.1759  0.5646  0.5681
  130MOL0     C17867   5.884   5.365   0.781 -0.2825  0.1211  0.0653
  130MOL0     C17868   5.939   5.159   1.278 -0.4826 -0.2140 -0.6858
  130MOL0     C17869   5.953   5.056   1.370 -0.0403 -1.2309 -0.4071
  130MOL0     C17870   5.920   4.923   1.323 -0.0465  0.0128  0.5896
  130MOL0     H17871   5.893   4.895   1.850  2.7253  1.4759 -1.9275
  130MOL0     H17872   5.963   4.747   2.038 -1.2075  1.1384 -0.3248
  130MOL0     H17873   6.038   4.591   2.212 -0.1774 -2.0101  3.2407
  130MOL0     H17874   6.088   4.425   2.203  2.1694 -2.8623 -4.0148
  130MOL0     H17875   5.867   4.405   2.226 -1.3466  0.6363  0.0248
  130MOL0     H17876   5.824   4.518   2.090 -0.0261 -0.6921 -0.6618
  130MOL0     H17877   5.798   4.304   1.993 -0.6301  0.9230 -0.0358
  130MOL0     H17878   5.944   4.358   1.937 -0.4310  0.0343  0.0239
  130MOL0     H17879   6.090   4.219   2.065 -0.3725  2.0122 -2.1121
  130MOL0     H17880   5.978   4.196   2.194 -1.8506  1.2822 -1.3995
  130MOL0     H17881   5.859   4.093   1.960 -1.3031  1.2030  0.7711
  130MOL0     H17882   5.862   4.052   2.130 -1.3215  3.5027  0.4596
  130MOL0     H17883   6.107   3.981   1.972 -1.2037  0.6482 -1.5480
  130MOL0     H17884   6.061   3.927   2.132 -0.1968 -1.4680 -0.7200
  130MOL0     H17885   5.862   3.811   2.040 -0.7677  2.9411 -0.1225
  130MOL0     H17886   6.024   3.749   2.003  1.4357  0.2432  0.4493
  130MOL0     H17887   5.833   3.920   1.815 -0.4306 -0.5969 -0.1745
  130MOL0     H17888   5.999   3.902   1.783  0.5836  2.4179  2.5909
  130MOL0     H17889   5.684   3.754   1.680 -1.2342 -0.4444  2.6059
  130MOL0     H17890   5.585   3.555   1.588  0.6239  1.7373  0.1870
  130MOL0     H17891   5.629   3.410   1.697  1.1247 -0.4210 -0.3611
  130MOL0     H17892   5.770   3.484   1.450  1.4917 -0.0998  0.7894
  130MOL0     H17893   5.742   3.318   1.531 -2.6029 -1.0496  0.0528
  130MOL0     H17894   5.517   3.470   1.401  0.7782 -0.1303  0.3286
  130MOL0     H17895   5.622   3.334   1.320  0.8720  0.1932  0.3766
  130MOL0     H17896   5.399   3.283   1.385  1.9163 -1.1784 -1.3791
  130MOL0     H17897   5.508   3.182   1.442  2.4845  1.1243  1.1781
  130MOL0     H17898   5.382   3.119   1.788 -3.1474  0.4158  4.3118
  130MOL0     H17899   5.112   2.920   1.877 -1.5991  0.1966  4.9892
  130MOL0     H17900   5.109   3.069   1.963  0.7400  0.3820  0.1366
  130MOL0     H17901   5.268   3.010   1.930  0.9071  4.1608  1.2082
  130MOL0     H17902   4.568   3.220   1.556 -1.3944  2.2585 -1.3756
  130MOL0     H17903   4.360   3.321   1.648 -0.3126  0.4632  0.4367
  130MOL0     H17904   4.232   3.505   1.715 -1.3462  0.4930  0.8426
  130MOL0     H17905   4.166   3.382   1.828 -0.7018  0.1983  2.1824
  130MOL0     H17906   4.123   3.557   1.996 -0.9114  2.4417  0.6052
  130MOL0     H17907   4.207   3.669   1.889  1.3286  0.3574  0.0223
  130MOL0     H17908   3.978   3.707   1.835 -1.1218 -0.0806 -2.6623
  130MOL0     H17909   3.939   3.533   1.855 -2.6529  0.2916 -1.8216
  130MOL0     H17910   4.021   3.461   1.646 -1.0458  0.5208 -1.6570
  130MOL0     H17911   4.080   3.629   1.611 -1.6986  1.1464 -2.2012
  130MOL0     H17912   3.873   3.551   1.504 -0.9392  2.3724 -1.1016
  130MOL0     H17913   3.801   3.537   1.662  1.4585 -1.1227 -0.0959
  130MOL0     H17914   3.885   3.800   1.522 -1.6012 -1.3463 -1.7155
  130MOL0     H17915   3.829   3.786   1.695 -0.6458 -1.1706 -0.1996
  130MOL0     H17916   3.621   3.670   1.621  2.9086 -1.2286  0.4351
  130MOL0     H17917   3.662   3.685   1.454  0.3836 -0.7359  0.3420
  130MOL0     H17918   3.630   3.922   1.651 -0.6416  2.7618 -0.8027
  130MOL0     H17919   3.509   3.885   1.522  1.2165  0.8059 -1.1019
  130MOL0     H17920   4.528   3.405   2.014  2.8558  0.5103  0.9495
  130MOL0     H17921   4.755   3.287   1.945  0.5349 -0.8841 -0.8031
  130MOL0     H17922   4.989   3.294   1.552 -2.4724 -0.1386  2.2815
  130MOL0     H17923   5.214   3.373   1.505 -1.2855  0.4655  1.5638
  130MOL0     H17924   6.154   4.476   1.775 -1.2016 -0.4272  1.8487
  130MOL0     H17925   6.103   4.658   1.576  1.0043 -1.6497  0.0021
  130MOL0     H17926   6.037   5.240   1.643  1.2031 -3.2510  0.0262
  130MOL0     H17927   6.012   5.429   1.472 -0.1424  0.3158  2.2444
  130MOL0     H17928   6.185   5.304   1.166  0.7966  1.2321  0.4571
  130MOL0     H17929   6.053   5.265   1.052 -0.9907  1.7945 -1.4440
  130MOL0     H17930   6.181   5.550   1.103  1.6952 -1.3571 -0.0211
  130MOL0     H17931   6.023   5.526   1.021 -0.9838 -0.8834  0.7045
  130MOL0     H17932   6.210   5.554   0.871  0.7451  0.7930  1.6221
  130MOL0     H17933   6.304   5.418   0.950 -0.4104 -2.1586 -0.1617
  130MOL0     H17934   6.174   5.246   0.835 -1.5025 -0.0803 -0.5781
  130MOL0     H17935   6.188   5.377   0.718 -1.2181 -1.1736 -1.1741
  130MOL0     H17936   5.779   5.372   0.761  0.1559  0.2861 -2.4918
  130MOL0     H17937   5.915   5.154   1.173  2.1467 -1.9917 -1.3047
  130MOL0     H17938   5.878   4.919   1.222  1.9202 -2.2007 -0.2334
  130MOL0     H17939   6.008   4.861   1.311 -0.4209 -0.8792  2.2055
  130MOL0     H17940   5.850   4.874   1.391 -3.0092  0.1418 -2.1018
  131MOL0     O17941   6.241   4.991   9.358  0.5148 -0.8227  0.1870
  131MOL0     C17942   6.349   5.011   9.310 -0.1121 -0.7061 -0.1484
  131MOL0     O17943   6.386   5.135   9.243 -0.2874 -0.4116 -0.0509
  131MOL0     C17944   6.322   5.249   9.262 -0.2174 -0.1356 -0.4845
  131MOL0     C17945   6.185   5.264   9.304 -0.4607  0.0663  0.3186
  131MOL0     C17946   6.136   5.397   9.304 -0.4009  0.1899 -0.3171
  131MOL0     C17947   6.212   5.505   9.282  0.6463 -0.7976  0.4618
  131MOL0     O17948   6.144   5.623   9.278 -0.8582 -0.3062 -0.7674
  131MOL0     C17949   6.215   5.740   9.329  0.0982 -0.5546  0.6388
  131MOL0     C17950   6.114   5.851   9.365  0.7454  0.7051  1.2374
  131MOL0     C17951   6.053   5.844   9.501 -0.6426  0.9302 -0.1529
  131MOL0     C17952   5.939   5.950   9.521 -0.1188 -0.5276  0.0677
  131MOL0     C17953   5.821   5.907   9.607 -0.8472  1.0122  0.3258
  131MOL0     C17954   5.866   5.931   9.752 -0.3644 -1.5330 -0.7134
  131MOL0     C17955   5.774   5.876   9.863 -0.7831  0.9232  0.8618
  131MOL0     C17956   5.830   5.896  10.010  0.2104 -0.1609 -0.1509
  131MOL0     N17957   5.744   5.882  10.124 -0.3275 -0.6204 -0.0747
  131MOL0     C17958   5.685   5.763  10.152  0.1210  0.1300  0.5598
  131MOL0     C17959   5.591   5.807  10.244  0.6013 -0.1635  0.8685
  131MOL0     C17960   5.494   5.719  10.303 -1.1529  0.0331 -1.1220
  131MOL0     C17961   5.360   5.786  10.327  0.1753  0.3837 -0.1218
  131MOL0     C17962   5.256   5.690  10.386 -0.5351  0.0596  0.1575
  131MOL0     C17963   5.118   5.685  10.316  0.7738 -0.7918 -0.5934
  131MOL0     O17964   5.040   5.797  10.352 -0.0952  0.7207  0.0290
  131MOL0     C17965   4.966   5.805  10.466 -0.3735 -1.6035 -0.8465
  131MOL0     C17966   4.918   5.935  10.501  1.0131 -0.2815 -0.1924
  131MOL0     C17967   4.843   5.958  10.621 -0.6201 -0.4791  0.3263
  131MOL0     C17968   4.794   6.100  10.645 -0.9322 -0.5576 -0.2592
  131MOL0     C17969   4.831   5.859  10.716  1.2343  0.8667 -0.7434
  131MOL0     C17970   4.776   5.889  10.848 -0.0660  0.2833 -0.6820
  131MOL0     O17971   4.642   5.923  10.844 -0.5397 -0.4724 -0.0219
  131MOL0     C17972   4.575   5.945  10.964  0.5924  0.0063 -0.4614
  131MOL0     C17973   4.533   6.071  10.998  0.0240  0.9107  1.2303
  131MOL0     C17974   4.459   6.092  11.107 -0.1190 -0.1445  0.1472
  131MOL0     C17975   4.438   5.981  11.202 -1.1559  0.0944  0.6286
  131MOL0     O17976   4.378   5.999  11.322 -0.6857  0.2381 -0.6983
  131MOL0     C17977   4.250   6.079  11.337 -0.5122 -0.7500 -0.5799
  131MOL0     C17978   4.136   6.015  11.256  0.3296  0.4387  0.8428
  131MOL0     C17979   4.135   5.863  11.273 -0.0899 -0.3722  0.3032
  131MOL0     C17980   4.047   5.786  11.177  0.6600  0.3882 -0.1570
  131MOL0     C17981   4.028   5.644  11.209 -0.0229  1.2359  0.8702
  131MOL0     C17982   3.941   5.583  11.102 -0.9173 -0.5224 -0.6980
  131MOL0     C17983   3.947   5.426  11.090 -0.4636 -0.8777  0.6403
  131MOL0     C17984   3.833   5.372  11.009  0.1216  0.2255  0.0983
  131MOL0    Cl17985   3.824   5.453  10.850 -0.4695 -0.5381 -0.4006
  131MOL0     C17986   4.473   5.853  11.171  0.4733  0.2100  0.5954
  131MOL0     C17987   4.543   5.839  11.052  0.1466  0.1209 -0.9927
  131MOL0     O17988   4.847   5.864  10.953 -1.0683 -0.0493 -0.4004
  131MOL0     C17989   4.889   5.732  10.682 -0.8280 -0.0475  0.1861
  131MOL0     C17990   4.955   5.705  10.562  0.6912  0.6454  0.6098
  131MOL0     N17991   5.603   5.948  10.262 -0.2800  0.5145 -0.8141
  131MOL0     N17992   5.703   5.986  10.202 -1.3416 -0.0314  0.6640
  131MOL0     C17993   6.349   5.493   9.251 -0.2865  0.2809  0.2889
  131MOL0     C17994   6.399   5.364   9.227  0.5448  0.0248 -0.0171
  131MOL0     C17995   6.442   4.899   9.300  0.4780 -0.5916  0.5000
  131MOL0     C17996   6.380   4.772   9.286 -0.3565 -0.5375 -0.3432
  131MOL0     C17997   6.449   4.652   9.313  0.3253 -0.5741 -1.3947
  131MOL0     C17998   6.593   4.656   9.320  1.2110  0.0309 -0.0560
  131MOL0     O17999   6.650   4.531   9.332  0.4367  0.6547 -0.6829
  131MOL0     C18000   6.793   4.519   9.344 -0.5398 -0.3928 -0.6440
  131MOL0     C18001   6.853   4.399   9.271  0.5598 -0.5700 -0.0712
  131MOL0     C18002   6.800   4.258   9.293  0.8113  0.1169  0.0974
  131MOL0     C18003   6.837   4.186   9.425  0.2447  0.9445 -0.3994
  131MOL0     C18004   6.980   4.157   9.411 -0.5952  0.7060 -0.9079
  131MOL0     C18005   7.101   4.167   9.392  0.0675 -0.6183 -0.3279
  131MOL0     C18006   6.659   4.778   9.305 -0.2871  0.5188 -0.1923
  131MOL0     C18007   6.592   4.907   9.306  0.9654  0.7505  0.1535
  131MOL0     C18008   6.673   5.038   9.299  0.6439 -0.0753 -0.5103
  131MOL0     H18009   6.116   5.183   9.324 -2.2528  0.6218 -2.9238
  131MOL0     H18010   6.031   5.419   9.320  0.2827  2.1299  2.3240
  131MOL0     H18011   6.291   5.782   9.262 -0.7031 -0.0179  0.0450
  131MOL0     H18012   6.281   5.714   9.413  1.0997 -2.4886 -0.6759
  131MOL0     H18013   6.176   5.942   9.358  0.5181  0.9286  2.0412
  131MOL0     H18014   6.042   5.843   9.283  1.0125  1.2604  0.9389
  131MOL0     H18015   6.006   5.745   9.497  0.3701  0.3117  1.8563
  131MOL0     H18016   6.131   5.833   9.577 -0.2546 -2.5562 -0.8489
  131MOL0     H18017   5.979   6.049   9.546 -1.0844 -0.3546  1.0279
  131MOL0     H18018   5.884   5.961   9.428  1.2602  3.2763 -0.4960
  131MOL0     H18019   5.794   5.803   9.587 -0.4271  0.2282  3.2711
  131MOL0     H18020   5.741   5.978   9.587  1.5406  3.3692 -1.6106
  131MOL0     H18021   5.963   5.889   9.782  0.1726  0.2019  0.1332
  131MOL0     H18022   5.880   6.038   9.771  0.5377 -1.7425 -0.0984
  131MOL0     H18023   5.762   5.769   9.844  0.4588  0.4975  2.2988
  131MOL0     H18024   5.675   5.921   9.850 -2.0657 -2.2901 -2.7573
  131MOL0     H18025   5.920   5.835  10.019 -0.2266 -1.5893 -3.8169
  131MOL0     H18026   5.861   6.001  10.005  2.0669 -0.5981  1.2346
  131MOL0     H18027   5.690   5.670  10.097 -1.1787  0.8284 -0.7939
  131MOL0     H18028   5.540   5.706  10.401 -0.3265  2.7038 -1.0760
  131MOL0     H18029   5.468   5.625  10.253 -1.2573 -0.5796  0.0510
  131MOL0     H18030   5.381   5.865  10.400  3.2454  0.7555 -1.2379
  131MOL0     H18031   5.328   5.819  10.228  0.5881 -2.3989 -1.2770
  131MOL0     H18032   5.296   5.589  10.394 -2.4512 -0.5928  3.0266
  131MOL0     H18033   5.236   5.722  10.489  0.5240  1.7725 -0.1337
  131MOL0     H18034   5.145   5.672  10.210  4.5389 -1.9190  0.3444
  131MOL0     H18035   5.067   5.593  10.343  0.8908 -0.5219  0.5960
  131MOL0     H18036   4.947   6.015  10.433  0.4228 -0.0196 -0.1458
  131MOL0     H18037   4.839   6.173  10.577 -0.8425  0.9112  1.2746
  131MOL0     H18038   4.817   6.136  10.746 -0.6827 -2.2609  0.3219
  131MOL0     H18039   4.686   6.101  10.626 -1.1157 -0.0813  0.7007
  131MOL0     H18040   4.541   6.158  10.933  1.0436  0.3979  0.6622
  131MOL0     H18041   4.411   6.188  11.123  0.0548  0.3307 -1.8846
  131MOL0     H18042   4.226   6.083  11.443 -0.5357 -1.4707 -0.5524
  131MOL0     H18043   4.280   6.177  11.297 -0.7584 -1.4400 -2.5981
  131MOL0     H18044   4.042   6.057  11.294 -1.0280 -0.0452 -1.7365
  131MOL0     H18045   4.154   6.028  11.149  0.8033 -3.4142  0.2796
  131MOL0     H18046   4.111   5.829  11.374 -2.9356 -3.8828 -1.3304
  131MOL0     H18047   4.229   5.813  11.249  0.8513  1.8801 -0.9345
  131MOL0     H18048   4.076   5.808  11.074 -2.5403 -1.0173 -1.4987
  131MOL0     H18049   3.943   5.821  11.175  0.7956  0.9304  1.2877
  131MOL0     H18050   4.130   5.607  11.203  1.7466  4.9617  3.8332
  131MOL0     H18051   3.994   5.622  11.310  0.2101  2.4730  1.2335
  131MOL0     H18052   3.978   5.615  11.005 -1.4208  6.6167  0.8832
  131MOL0     H18053   3.838   5.618  11.117 -1.1159 -1.1742 -0.4844
  131MOL0     H18054   3.940   5.385  11.191 -3.1653  0.1779  0.9571
  131MOL0     H18055   4.033   5.392  11.032 -1.6291 -2.6158 -0.1400
  131MOL0     H18056   3.742   5.384  11.068  0.7779  1.1625  0.9563
  131MOL0     H18057   3.845   5.264  10.996  0.5758  0.3382 -0.4634
  131MOL0     H18058   4.454   5.765  11.232 -1.7674 -0.0113 -0.3209
  131MOL0     H18059   4.586   5.742  11.026  0.3050  0.7699 -3.3669
  131MOL0     H18060   4.897   5.649  10.751 -0.8267 -0.0187  0.2200
  131MOL0     H18061   4.984   5.603  10.538 -2.5038  0.0711 -1.3774
  131MOL0     H18062   6.417   5.576   9.238 -1.3022  1.4640  2.0862
  131MOL0     H18063   6.503   5.350   9.201  1.2315  0.0840  2.4794
  131MOL0     H18064   6.272   4.767   9.271 -0.5264  0.0492  0.6353
  131MOL0     H18065   6.393   4.560   9.324  0.7977 -0.5530  2.0766
  131MOL0     H18066   6.840   4.611   9.306 -2.6046  0.3705 -1.4983
  131MOL0     H18067   6.823   4.519   9.449 -2.5463 -0.8286 -0.0267
  131MOL0     H18068   6.962   4.391   9.284  0.7815 -2.1172 -2.2508
  131MOL0     H18069   6.831   4.429   9.168 -1.7187  2.0747  1.0643
  131MOL0     H18070   6.691   4.268   9.285  0.7984 -0.4303 -0.5251
  131MOL0     H18071   6.831   4.190   9.213  0.7332  1.8977 -1.5110
  131MOL0     H18072   6.789   4.088   9.418 -1.2479  1.5214  1.0731
  131MOL0     H18073   6.805   4.235   9.517  0.2151 -0.3949  0.3265
  131MOL0     H18074   7.204   4.191   9.378 -0.0319  0.2475  0.3480
  131MOL0     H18075   6.765   4.797   9.293  0.4947 -1.5243  2.5907
  131MOL0     H18076   6.778   5.020   9.324  0.0573  0.0104  2.4452
  131MOL0     H18077   6.693   5.098   9.210  3.9448  2.3742  1.6582
  131MOL0     H18078   6.617   5.102   9.368  2.9867  0.5341  0.9518
  132MOL0     O18079   6.264   5.791   2.661 -0.0743  0.0119  0.8842
  132MOL0     C18080   6.283   5.836   2.550 -0.8115  0.8129 -1.0838
  132MOL0     O18081   6.401   5.819   2.478 -0.3304 -0.0316  0.3029
  132MOL0     C18082   6.519   5.791   2.543 -1.5647  0.8978 -0.1314
  132MOL0     C18083   6.552   5.842   2.666 -0.2180  0.4978 -0.4022
  132MOL0     C18084   6.667   5.809   2.735  0.2885  0.5358 -0.9473
  132MOL0     C18085   6.766   5.732   2.665  0.2789  0.1592 -1.0534
  132MOL0     O18086   6.886   5.698   2.721 -0.6478 -0.9936  1.3475
  132MOL0     C18087   6.912   5.706   2.856  0.0714  0.5248  0.3379
  132MOL0     C18088   6.829   5.614   2.946 -0.1355 -0.0028  0.1357
  132MOL0     C18089   6.916   5.491   2.992  0.1432 -0.3670 -0.6512
  132MOL0     C18090   6.885   5.370   2.892  0.0910 -0.5759  0.0219
  132MOL0     C18091   6.982   5.368   2.773  0.4600  0.3003 -0.3188
  132MOL0     C18092   6.991   5.237   2.685 -0.6274 -0.5639  0.0405
  132MOL0     C18093   7.060   5.311   2.562  0.8116 -0.1139 -0.6767
  132MOL0     C18094   7.156   5.209   2.494  1.0720  0.5641  0.2818
  132MOL0     N18095   7.249   5.263   2.394 -0.5514  1.0411  0.4762
  132MOL0     C18096   7.375   5.225   2.366  0.1471  0.6353  0.3132
  132MOL0     C18097   7.408   5.286   2.250  0.7036 -0.7887  1.1496
  132MOL0     C18098   7.535   5.302   2.180 -0.0288  0.7743 -0.4305
  132MOL0     C18099   7.560   5.181   2.098 -0.6281 -0.6274  0.2282
  132MOL0     C18100   7.710   5.152   2.073 -0.5267  0.3894 -0.8299
  132MOL0     C18101   7.774   5.259   1.996  0.9970 -0.6456  0.5546
  132MOL0     O18102   7.717   5.263   1.864  0.8485  0.9934  0.6178
  132MOL0     C18103   7.771   5.354   1.779  0.2516  0.2390 -0.1066
  132MOL0     C18104   7.890   5.416   1.802  0.3605  0.4019 -0.3396
  132MOL0     C18105   7.947   5.507   1.705  0.4195 -0.3444  0.2811
  132MOL0     C18106   8.082   5.563   1.735 -0.0857 -0.5039  0.4456
  132MOL0     C18107   7.882   5.519   1.573 -0.3961 -0.5929 -0.4966
  132MOL0     C18108   7.913   5.611   1.462  0.4056  0.7213  0.0572
  132MOL0     O18109   7.862   5.588   1.343 -0.5431 -0.3100  0.2826
  132MOL0     C18110   7.899   5.675   1.236 -0.2056 -0.1741 -0.5658
  132MOL0     C18111   7.820   5.760   1.170  0.2348 -0.6561 -1.0426
  132MOL0     C18112   7.865   5.829   1.056 -0.5348  0.4068  0.4099
  132MOL0     C18113   7.966   5.780   0.984 -0.3762  0.9136 -0.1981
  132MOL0     O18114   7.995   5.868   0.879 -0.1103  0.4852  0.1780
  132MOL0     C18115   8.087   5.805   0.792 -0.9877 -0.8473 -0.3289
  132MOL0     C18116   8.114   5.899   0.667 -0.4596  0.5737 -0.2979
  132MOL0     C18117   8.241   5.852   0.591 -0.0844 -0.3123  0.3941
  132MOL0     C18118   8.268   5.951   0.475 -0.7137  0.5048 -0.5413
  132MOL0     C18119   8.399   5.903   0.399 -0.4411 -0.4246  0.1569
  132MOL0     C18120   8.384   5.770   0.325 -0.8609 -0.2027  0.0867
  132MOL0     C18121   8.490   5.744   0.214 -0.3161  0.2457  0.0549
  132MOL0     C18122   8.428   5.743   0.076  0.1011 -0.2825  0.5546
  132MOL0    Cl18123   8.550   5.709  -0.043  0.1489 -0.3800 -0.4270
  132MOL0     C18124   8.047   5.678   1.037 -0.4724 -0.3251 -0.5409
  132MOL0     C18125   8.018   5.628   1.173  0.7387 -0.6236 -0.1256
  132MOL0     O18126   7.986   5.705   1.493  0.5146  0.7143  0.9029
  132MOL0     C18127   7.766   5.446   1.559  0.2770  0.0742  1.1110
  132MOL0     C18128   7.709   5.369   1.655 -0.7877 -0.7492  0.5273
  132MOL0     N18129   7.308   5.371   2.219 -0.1895  0.8631  0.4377
  132MOL0     N18130   7.220   5.364   2.309  0.0386 -0.6697 -0.9215
  132MOL0     C18131   6.740   5.679   2.544 -0.0408  0.0100  0.2979
  132MOL0     C18132   6.619   5.712   2.481  0.2048  1.1123  0.0387
  132MOL0     C18133   6.177   5.917   2.480  0.3921 -0.0697 -0.3734
  132MOL0     C18134   6.206   5.976   2.354  0.6669  0.1957 -0.3493
  132MOL0     C18135   6.117   6.063   2.301 -0.6429 -0.4425  1.0707
  132MOL0     C18136   5.994   6.083   2.350 -0.2305  0.0970  0.2216
  132MOL0     O18137   5.898   6.168   2.305 -0.0872 -0.3706 -0.1398
  132MOL0     C18138   5.935   6.282   2.223  0.4223 -0.1798  0.0270
  132MOL0     C18139   6.023   6.391   2.301  0.4251  0.4054 -0.1397
  132MOL0     C18140   5.932   6.455   2.416  0.0527 -0.2377  1.2597
  132MOL0     C18141   6.020   6.567   2.478 -0.0554 -0.2578  0.6770
  132MOL0     C18142   5.940   6.659   2.562  0.3663  0.7176  0.0048
  132MOL0     C18143   5.884   6.743   2.616  0.0743  0.4791  0.0833
  132MOL0     C18144   5.957   6.015   2.464  0.4363 -0.5069  0.3048
  132MOL0     C18145   6.044   5.936   2.536 -0.3239 -0.4040 -0.6400
  132MOL0     C18146   5.984   5.878   2.664  0.3640 -0.5396 -0.4018
  132MOL0     H18147   6.480   5.903   2.720 -1.1904 -0.8897 -0.0690
  132MOL0     H18148   6.681   5.840   2.838  2.7721  2.2713 -1.7168
  132MOL0     H18149   6.895   5.810   2.882  0.3344  0.6108  0.1732
  132MOL0     H18150   7.020   5.688   2.859  0.0278  0.4263  2.7454
  132MOL0     H18151   6.789   5.668   3.032  2.6708  0.5860  1.1919
  132MOL0     H18152   6.739   5.578   2.895 -0.9146  3.1412 -0.8895
  132MOL0     H18153   7.019   5.520   3.013 -0.1409  0.1580  0.0363
  132MOL0     H18154   6.876   5.458   3.088 -1.0861 -3.2973 -2.0401
  132MOL0     H18155   6.884   5.275   2.947 -1.7737 -0.8287 -0.3669
  132MOL0     H18156   6.783   5.365   2.854 -0.6208  2.6973  1.2173
  132MOL0     H18157   7.085   5.398   2.793  0.8473  0.4734 -2.4090
  132MOL0     H18158   6.938   5.444   2.708 -2.5180 -1.5523 -0.6597
  132MOL0     H18159   7.042   5.151   2.727 -2.1904 -2.4711 -1.7026
  132MOL0     H18160   6.895   5.188   2.663 -1.1763  0.3186  0.3974
  132MOL0     H18161   7.124   5.393   2.597 -1.3283  0.7874  1.3759
  132MOL0     H18162   6.984   5.345   2.491 -2.6021 -3.0724  1.2373
  132MOL0     H18163   7.212   5.164   2.577  0.8659 -2.0359 -0.8856
  132MOL0     H18164   7.103   5.124   2.450 -1.6980  1.5016  1.5685
  132MOL0     H18165   7.442   5.170   2.432  1.5877  2.7234  0.6942
  132MOL0     H18166   7.617   5.304   2.253 -3.0464  0.2208  3.2899
  132MOL0     H18167   7.540   5.393   2.120  2.5469  1.1649  0.2530
  132MOL0     H18168   7.503   5.091   2.125 -0.9418 -0.7254 -0.7203
  132MOL0     H18169   7.515   5.206   2.002  0.8740 -1.9896 -0.8851
  132MOL0     H18170   7.769   5.136   2.163 -0.8509  2.2319 -0.2603
  132MOL0     H18171   7.717   5.065   2.007  0.4046  1.1320 -1.7388
  132MOL0     H18172   7.771   5.357   2.045 -1.5664 -0.3256 -0.1342
  132MOL0     H18173   7.879   5.228   1.992  0.8612 -1.3209  1.6257
  132MOL0     H18174   7.941   5.397   1.896 -1.4490 -0.0608  0.5942
  132MOL0     H18175   8.061   5.669   1.757 -0.1053 -0.9197  2.6232
  132MOL0     H18176   8.138   5.551   1.642 -1.2907  1.6944 -0.6502
  132MOL0     H18177   8.135   5.526   1.822 -2.0061  1.5606  2.6727
  132MOL0     H18178   7.724   5.766   1.222  1.1694 -3.1852  1.2003
  132MOL0     H18179   7.809   5.916   1.026  0.3668  2.1223  3.3807
  132MOL0     H18180   8.183   5.798   0.844 -2.4458 -2.1229  2.3658
  132MOL0     H18181   8.058   5.706   0.754 -3.6872 -0.2065 -0.1286
  132MOL0     H18182   8.023   5.898   0.606 -0.0492  0.0206 -0.9185
  132MOL0     H18183   8.138   6.000   0.702  1.2268 -0.1480  0.7285
  132MOL0     H18184   8.213   5.756   0.546 -1.8730 -0.3629  1.5410
  132MOL0     H18185   8.328   5.850   0.658  2.2844  2.7351 -2.2342
  132MOL0     H18186   8.287   6.048   0.521 -0.3850 -0.0142  0.4495
  132MOL0     H18187   8.196   5.963   0.393  0.3229  1.0512 -1.3904
  132MOL0     H18188   8.416   5.968   0.312  3.3946 -1.5177 -0.0989
  132MOL0     H18189   8.487   5.896   0.463 -0.4745  0.5704  0.3226
  132MOL0     H18190   8.284   5.767   0.281 -1.3857  0.3139  1.1953
  132MOL0     H18191   8.392   5.696   0.405  0.4822 -1.1336 -0.8509
  132MOL0     H18192   8.532   5.645   0.232 -0.4502 -0.4740 -3.0728
  132MOL0     H18193   8.571   5.818   0.210 -0.0720  0.0730  1.4250
  132MOL0     H18194   8.392   5.845   0.059  1.7968  0.2214 -0.2963
  132MOL0     H18195   8.340   5.680   0.060 -0.3302  0.5555 -0.4924
  132MOL0     H18196   8.131   5.633   0.984 -0.7396 -1.7079  0.1624
  132MOL0     H18197   8.086   5.557   1.218 -0.3805 -2.3438 -1.0341
  132MOL0     H18198   7.722   5.446   1.460  0.6129 -0.7112  0.9541
  132MOL0     H18199   7.610   5.328   1.640 -1.6565  1.9962 -2.1718
  132MOL0     H18200   6.812   5.610   2.502 -0.3546 -1.1684  1.6396
  132MOL0     H18201   6.603   5.681   2.379  1.8977  1.2049 -0.2802
  132MOL0     H18202   6.307   5.959   2.319  1.2519  0.9864  0.8822
  132MOL0     H18203   6.158   6.121   2.218  0.8643 -0.1961  1.9494
  132MOL0     H18204   5.986   6.245   2.133  1.5560  0.2022  0.4962
  132MOL0     H18205   5.849   6.338   2.185 -0.1447  1.1016  2.9488
  132MOL0     H18206   6.051   6.470   2.231  5.5062  0.4765  1.5826
  132MOL0     H18207   6.113   6.356   2.352  2.1469  3.2143 -1.0559
  132MOL0     H18208   5.835   6.491   2.381  0.4178 -0.4692 -0.0430
  132MOL0     H18209   5.913   6.383   2.496  0.1177 -0.0812  1.4160
  132MOL0     H18210   6.077   6.611   2.395 -1.2494 -3.2700 -1.9698
  132MOL0     H18211   6.084   6.498   2.533 -1.8623 -2.5332  0.0720
  132MOL0     H18212   5.851   6.823   2.680  4.0046  0.1990  2.8397
  132MOL0     H18213   5.856   6.034   2.500  0.1620 -1.5845  0.1315
  132MOL0     H18214   6.054   5.858   2.746  0.2344  2.3771  0.5641
  132MOL0     H18215   5.907   5.945   2.704 -1.1712 -1.9613 -0.8543
  132MOL0     H18216   5.938   5.783   2.637  1.6375 -1.2202 -0.2116
  133MOL0     O18217  10.495   8.906  10.130  0.0619 -0.0763  0.7923
  133MOL0     C18218  10.619   8.902  10.136  0.5335  0.1951 -0.1944
  133MOL0     O18219  10.699   9.006  10.107 -0.2185 -0.2303 -0.0281
  133MOL0     C18220  10.628   9.117  10.069 -0.5393 -0.9788  0.4784
  133MOL0     C18221  10.620   9.154   9.938  0.0032  0.0682  0.5332
  133MOL0     C18222  10.561   9.279   9.892  0.3690 -0.3326  0.1878
  133MOL0     C18223  10.526   9.373   9.998 -0.1215  0.3471  0.6010
  133MOL0     O18224  10.457   9.491   9.974 -0.5145 -0.4746  1.1439
  133MOL0     C18225  10.428   9.522   9.836  0.2479 -0.1039  0.1063
  133MOL0     C18226  10.323   9.628   9.814  0.0431  0.8124  0.1791
  133MOL0     C18227  10.371   9.769   9.816 -0.0894 -1.0870  0.0538
  133MOL0     C18228  10.352   9.826   9.663 -1.3092 -0.2935  0.0085
  133MOL0     C18229  10.399   9.977   9.667  0.3755 -0.0498 -0.0465
  133MOL0     C18230  10.337  10.055   9.551 -1.0667  0.8074  0.4181
  133MOL0     C18231  10.420  10.028   9.417 -0.3451  0.6572 -1.0486
  133MOL0     C18232  10.375  10.086   9.285  0.7605  0.3541 -0.3889
  133MOL0     N18233  10.429  10.226   9.276  0.1188  0.1455  0.0668
  133MOL0     C18234  10.535  10.273   9.199  0.2441  1.1625  0.4567
  133MOL0     C18235  10.519  10.405   9.195  0.5228  0.5857  0.5596
  133MOL0     C18236  10.610  10.503   9.119  0.1222 -0.0190 -0.5438
  133MOL0     C18237  10.751  10.494   9.191  1.6958 -0.1712 -0.0075
  133MOL0     C18238  10.857  10.589   9.128 -0.5342  0.6279  0.0955
  133MOL0     C18239  10.911  10.536   8.994 -0.1811  0.3104  0.0995
  133MOL0     O18240  10.937  10.388   8.999 -0.6466 -0.0748 -0.0529
  133MOL0     C18241  11.057  10.347   9.045 -0.6453 -0.0839 -0.4233
  133MOL0     C18242  11.157  10.417   9.119 -0.5067  0.6516  1.0701
  133MOL0     C18243  11.273  10.349   9.182  0.0183  0.6684  0.3419
  133MOL0     C18244  11.363  10.434   9.275  0.2632 -0.1298  1.2254
  133MOL0     C18245  11.281  10.212   9.165  0.4346 -0.1914 -0.8026
  133MOL0     C18246  11.375  10.123   9.228 -1.2346  0.1630 -1.1650
  133MOL0     O18247  11.323  10.025   9.287  0.4604  0.4574  0.1997
  133MOL0     C18248  11.390   9.929   9.358  0.1721 -0.8726  0.3947
  133MOL0     C18249  11.493   9.846   9.306 -0.0182 -0.1192  0.0743
  133MOL0     C18250  11.553   9.746   9.392  0.3662 -0.1054  0.5596
  133MOL0     C18251  11.510   9.720   9.517  1.6291 -0.2862 -1.2220
  133MOL0     O18252  11.538   9.606   9.592 -0.7834  0.2472 -0.6021
  133MOL0     C18253  11.598   9.489   9.524  0.2892  0.8646 -0.4683
  133MOL0     C18254  11.755   9.481   9.535  0.5502  0.5595  0.0919
  133MOL0     C18255  11.790   9.399   9.659 -0.6313 -0.1019 -0.1903
  133MOL0     C18256  11.928   9.445   9.720  0.2311  0.2263  0.7722
  133MOL0     C18257  11.977   9.363   9.842 -0.5138  0.3437 -0.0701
  133MOL0     C18258  11.984   9.211   9.827 -0.3320 -0.0562 -0.6843
  133MOL0     C18259  12.042   9.143   9.955 -0.1132 -0.1932  0.3134
  133MOL0     C18260  12.081   8.999   9.916  0.3426 -0.1443 -0.1134
  133MOL0    Cl18261  12.113   8.923  10.078 -0.5696  0.0427  0.1651
  133MOL0     C18262  11.413   9.809   9.569  1.0841  0.1306 -0.1814
  133MOL0     C18263  11.357   9.917   9.490  0.8307  0.0804 -0.3850
  133MOL0     O18264  11.497  10.146   9.221  0.9219 -0.3195 -1.1339
  133MOL0     C18265  11.178  10.151   9.096 -0.3389  0.0978 -0.2301
  133MOL0     C18266  11.078  10.214   9.032 -1.1637 -0.0765 -0.2315
  133MOL0     N18267  10.413  10.438   9.275 -0.2833 -0.2551  0.3071
  133MOL0     N18268  10.373  10.330   9.333  0.0798  0.0051 -0.0388
  133MOL0     C18269  10.565   9.337  10.128  0.2789  0.4752 -0.1684
  133MOL0     C18270  10.602   9.213  10.166  0.9320  0.0118 -0.3328
  133MOL0     C18271  10.675   8.773  10.202 -0.0821 -0.6476 -0.6115
  133MOL0     C18272  10.587   8.680  10.240 -0.1475  0.3283  0.7431
  133MOL0     C18273  10.619   8.562  10.306 -0.7578 -0.0288 -0.3764
  133MOL0     C18274  10.754   8.531  10.333 -0.6021 -0.3851 -0.0903
  133MOL0     O18275  10.802   8.426  10.406  0.5453 -0.5233  0.7052
  133MOL0     C18276  10.758   8.303  10.347 -0.3508 -0.0821  0.1476
  133MOL0     C18277  10.825   8.197  10.438 -0.1007 -0.4966  0.1188
  133MOL0     C18278  10.974   8.186  10.409  0.0099  0.2043  0.5269
  133MOL0     C18279  11.051   8.095  10.502 -0.1538  0.3091  0.3859
  133MOL0     C18280  11.061   7.945  10.466 -0.2052 -0.7072 -0.8512
  133MOL0     C18281  11.071   7.828  10.474  1.0881 -0.2730  0.4581
  133MOL0     C18282  10.849   8.622  10.290 -0.6142 -0.1116  0.1710
  133MOL0     C18283  10.810   8.745  10.224 -0.4531  0.2176 -0.1122
  133MOL0     C18284  10.924   8.836  10.180  0.0172  0.2235  0.7632
  133MOL0     H18285  10.657   9.084   9.864 -0.9730  2.8608 -2.8633
  133MOL0     H18286  10.550   9.301   9.787 -1.7503  2.1841  0.8238
  133MOL0     H18287  10.390   9.430   9.789 -0.4301  1.3108 -2.2862
  133MOL0     H18288  10.517   9.540   9.774  0.5171  1.4851  0.9219
  133MOL0     H18289  10.293   9.596   9.714  0.2180 -1.2940  0.7573
  133MOL0     H18290  10.252   9.616   9.896  1.1520 -1.2342  0.9258
  133MOL0     H18291  10.323   9.832   9.891  3.4316  2.6088 -0.4807
  133MOL0     H18292  10.477   9.775   9.842  0.1030  0.9430 -1.0179
  133MOL0     H18293  10.420   9.773   9.595  0.9873  1.6914  0.6220
  133MOL0     H18294  10.249   9.802   9.637 -1.4795 -0.1573  0.5481
  133MOL0     H18295  10.508   9.993   9.669  0.1774  1.5997 -0.6644
  133MOL0     H18296  10.364  10.027   9.758  2.2917  1.6748 -0.1751
  133MOL0     H18297  10.232  10.025   9.556 -1.0612  0.3686 -1.4943
  133MOL0     H18298  10.340  10.163   9.570 -0.4789  0.5580  1.8976
  133MOL0     H18299  10.424   9.921   9.393  4.9686  0.6733 -1.4401
  133MOL0     H18300  10.527  10.040   9.432 -0.1134 -2.0304  0.0834
  133MOL0     H18301  10.418  10.034   9.199  0.0990  1.1673 -1.2392
  133MOL0     H18302  10.267  10.100   9.288  1.0068  2.4194  0.6911
  133MOL0     H18303  10.609  10.211   9.151 -0.9590 -1.9263  2.2698
  133MOL0     H18304  10.565  10.603   9.131 -1.7171 -1.0653  2.6672
  133MOL0     H18305  10.627  10.475   9.015  3.0683 -0.1598 -0.0843
  133MOL0     H18306  10.731  10.533   9.291 -1.4526 -0.4425 -0.4428
  133MOL0     H18307  10.769  10.386   9.189  0.3679 -0.4150  0.2508
  133MOL0     H18308  10.811  10.682   9.093 -1.8087  0.1266  0.3701
  133MOL0     H18309  10.937  10.597   9.201 -0.1315 -1.9393  0.0323
  133MOL0     H18310  10.834  10.555   8.918  0.9309  2.5899 -0.5275
  133MOL0     H18311  10.997  10.597   8.967  1.8293 -3.0115 -1.6382
  133MOL0     H18312  11.148  10.525   9.120  5.2911  1.5630 -2.2177
  133MOL0     H18313  11.331  10.419   9.378  0.8031  2.5163  1.8357
  133MOL0     H18314  11.339  10.536   9.246 -0.6715 -0.1452  1.9254
  133MOL0     H18315  11.469  10.407   9.265 -0.3155 -2.4576  0.8211
  133MOL0     H18316  11.529   9.834   9.204 -0.7375 -1.0495 -0.0884
  133MOL0     H18317  11.637   9.693   9.348  0.2178 -0.8258  1.1053
  133MOL0     H18318  11.552   9.398   9.562 -1.5483  1.9774  0.0896
  133MOL0     H18319  11.574   9.481   9.418 -2.6914  0.5970  0.1459
  133MOL0     H18320  11.799   9.423   9.452  1.1930 -0.0882  0.8650
  133MOL0     H18321  11.795   9.583   9.534  1.3729  0.2576  0.9003
  133MOL0     H18322  11.780   9.293   9.635 -0.6001 -0.5178  1.4866
  133MOL0     H18323  11.716   9.419   9.738  0.2665 -2.7673  1.4367
  133MOL0     H18324  11.913   9.552   9.738 -0.1757 -0.0682  2.2672
  133MOL0     H18325  11.997   9.439   9.635 -0.9864  1.0920 -0.3100
  133MOL0     H18326  12.079   9.395   9.863 -0.4400 -0.5662  1.0843
  133MOL0     H18327  11.906   9.371   9.925 -1.3471 -2.1288 -0.4599
  133MOL0     H18328  12.052   9.186   9.745  0.8092 -0.6971  0.4155
  133MOL0     H18329  11.889   9.168   9.794 -0.8547 -0.1715  0.9088
  133MOL0     H18330  11.959   9.157  10.024 -0.0711  3.4656 -0.2075
  133MOL0     H18331  12.132   9.193   9.991  2.5160 -0.5682 -4.7742
  133MOL0     H18332  12.173   8.999   9.858 -0.3169 -2.3776 -1.2744
  133MOL0     H18333  12.000   8.943   9.869  0.3278 -0.1459 -0.0864
  133MOL0     H18334  11.375   9.794   9.669  0.5834 -2.3852 -0.6740
  133MOL0     H18335  11.281   9.985   9.528  0.6789 -0.5084  0.3861
  133MOL0     H18336  11.193  10.048   9.068  3.1509  1.0751 -2.5502
  133MOL0     H18337  11.001  10.157   8.981 -0.9857 -0.7708  0.2561
  133MOL0     H18338  10.541   9.401  10.213 -0.6790  3.2170 -2.3477
  133MOL0     H18339  10.618   9.202  10.273 -0.8540  1.6747  0.1584
  133MOL0     H18340  10.481   8.693  10.221  0.4889  1.9695 -2.3665
  133MOL0     H18341  10.541   8.490  10.330  0.1758 -0.7461  0.5488
  133MOL0     H18342  10.652   8.296  10.374 -0.4377 -4.3504 -0.6878
  133MOL0     H18343  10.775   8.295  10.240 -1.9132  0.1123 -0.1469
  133MOL0     H18344  10.788   8.099  10.408  0.6285 -1.3092  1.7718
  133MOL0     H18345  10.807   8.219  10.543  0.8034  2.1761 -0.2038
  133MOL0     H18346  10.992   8.155  10.306 -0.7034  0.7152  0.2458
  133MOL0     H18347  11.024   8.283  10.414 -0.2047  0.4182 -1.0884
  133MOL0     H18348  11.001   8.100  10.599  2.3262 -0.2274  1.7798
  133MOL0     H18349  11.154   8.129  10.516  1.1209 -3.3866  1.2533
  133MOL0     H18350  11.081   7.722  10.487  1.5703 -0.0947  1.7760
  133MOL0     H18351  10.949   8.605  10.331 -0.7856  2.5218  1.9824
  133MOL0     H18352  10.894   8.882  10.085 -1.7747  0.1801  1.2669
  133MOL0     H18353  10.937   8.909  10.260 -2.3031 -0.7058  2.0957
  133MOL0     H18354  11.011   8.770  10.177 -0.5877 -0.5945  0.9169
  134MOL0     O18355   4.301   6.994   6.193 -0.0007  0.5275 -0.2846
  134MOL0     C18356   4.359   6.898   6.141 -0.1848 -0.5245 -0.0524
  134MOL0     O18357   4.463   6.908   6.051  0.4808 -0.7398  0.1001
  134MOL0     C18358   4.511   7.033   6.033 -1.1515  0.1780  0.6585
  134MOL0     C18359   4.501   7.090   5.901 -0.0602 -0.4496  0.3174
  134MOL0     C18360   4.563   7.218   5.864  0.3852  0.5351 -0.7861
  134MOL0     C18361   4.606   7.304   5.964 -0.6342 -0.0226 -0.0939
  134MOL0     O18362   4.673   7.428   5.955 -0.2674 -1.1586  0.3743
  134MOL0     C18363   4.679   7.511   5.833  0.4389 -0.2098  0.1986
  134MOL0     C18364   4.573   7.611   5.824  0.1669 -0.1590  0.1601
  134MOL0     C18365   4.587   7.710   5.939 -0.5222  0.5798  0.1388
  134MOL0     C18366   4.491   7.672   6.050  0.5763 -0.2692 -0.2938
  134MOL0     C18367   4.497   7.772   6.169 -0.1092 -0.4305 -0.9877
  134MOL0     C18368   4.492   7.925   6.138 -0.6638  0.2369 -0.3148
  134MOL0     C18369   4.375   7.978   6.059  0.2491 -0.2903 -0.9007
  134MOL0     C18370   4.233   7.935   6.104 -1.4122  0.1685 -0.1276
  134MOL0     N18371   4.133   8.023   6.040 -0.3454  0.4434 -0.9115
  134MOL0     C18372   4.104   8.160   6.046 -0.9054  0.3318  0.1557
  134MOL0     C18373   4.014   8.170   5.951  0.0192 -1.2606  0.9047
  134MOL0     C18374   3.953   8.301   5.913 -0.4188 -1.0265  0.6425
  134MOL0     C18375   3.806   8.274   5.903  1.0221 -1.2672  0.7836
  134MOL0     C18376   3.732   8.412   5.912  0.0371  0.6417 -0.7452
  134MOL0     C18377   3.580   8.385   5.898  0.3244 -0.1616  0.2276
  134MOL0     O18378   3.547   8.338   5.773 -0.4826  1.2444  0.4874
  134MOL0     C18379   3.418   8.308   5.746 -0.5191 -0.8643  0.3662
  134MOL0     C18380   3.395   8.288   5.614 -0.3125 -0.4805  0.4903
  134MOL0     C18381   3.263   8.269   5.575  0.8635  0.2536 -0.8855
  134MOL0     C18382   3.242   8.270   5.428 -0.3970  0.6122 -1.1018
  134MOL0     C18383   3.152   8.266   5.665 -0.4852 -0.5822 -0.3181
  134MOL0     C18384   3.010   8.223   5.623  0.3978  1.0081 -0.0513
  134MOL0     O18385   2.903   8.248   5.706 -0.5549  0.1086  0.3380
  134MOL0     C18386   2.773   8.254   5.657  0.1131 -0.1969 -0.1466
  134MOL0     C18387   2.739   8.322   5.538  0.3005 -0.5690 -0.2055
  134MOL0     C18388   2.609   8.317   5.494  0.4833  0.3102 -0.2176
  134MOL0     C18389   2.512   8.244   5.553  0.0940 -0.8140  0.0972
  134MOL0     O18390   2.390   8.245   5.491 -0.4484  0.2194 -0.4526
  134MOL0     C18391   2.276   8.178   5.539  0.2886  0.7455 -0.5156
  134MOL0     C18392   2.284   8.033   5.519 -0.6747 -0.3235 -0.1522
  134MOL0     C18393   2.160   7.952   5.536 -0.2507 -0.0367  0.3765
  134MOL0     C18394   2.181   7.812   5.483  0.7680  0.4238  0.4657
  134MOL0     C18395   2.260   7.721   5.586 -0.3928 -0.1412  0.2207
  134MOL0     C18396   2.277   7.580   5.526  0.8517  0.5479  0.7832
  134MOL0     C18397   2.341   7.480   5.627 -0.0849  0.2992  0.9437
  134MOL0     C18398   2.384   7.343   5.569 -0.9428  0.0426  0.2147
  134MOL0    Cl18399   2.522   7.362   5.457 -0.0853 -0.3082 -0.2847
  134MOL0     C18400   2.534   8.194   5.686 -1.3177 -0.8982  1.0022
  134MOL0     C18401   2.665   8.197   5.725  0.5201  0.0892 -0.2808
  134MOL0     O18402   2.990   8.176   5.512  0.0389  1.1780  0.1257
  134MOL0     C18403   3.175   8.299   5.794  0.3983  0.2097 -0.0243
  134MOL0     C18404   3.309   8.311   5.841 -0.9926 -0.0293  0.9088
  134MOL0     N18405   3.973   8.049   5.895  0.0932 -0.1515  0.1689
  134MOL0     N18406   4.039   7.963   5.967 -0.0223 -0.3306 -0.2935
  134MOL0     C18407   4.603   7.257   6.096 -0.2476  0.1223 -0.4470
  134MOL0     C18408   4.567   7.121   6.132  0.1734  0.0588 -0.5927
  134MOL0     C18409   4.306   6.766   6.166 -0.3206 -0.0582 -0.3587
  134MOL0     C18410   4.271   6.686   6.061 -0.4447  0.5581 -1.5872
  134MOL0     C18411   4.232   6.554   6.081  0.5350 -0.9067 -0.6092
  134MOL0     C18412   4.215   6.499   6.207 -0.6700 -0.6306  0.4504
  134MOL0     O18413   4.180   6.368   6.231  0.4931 -0.3705 -0.8117
  134MOL0     C18414   4.168   6.263   6.132  0.0852  0.0820  0.3479
  134MOL0     C18415   4.019   6.217   6.135 -0.8277  0.2692  0.2213
  134MOL0     C18416   3.940   6.312   6.059 -0.3075  0.0805  1.1171
  134MOL0     C18417   3.786   6.311   6.089  0.8151  0.1115 -0.1488
  134MOL0     C18418   3.734   6.169   6.076  0.3922 -0.4212  0.5835
  134MOL0     C18419   3.709   6.051   6.078  0.6078  0.1492 -0.8446
  134MOL0     C18420   4.234   6.583   6.315  0.0244  0.2460 -0.7198
  134MOL0     C18421   4.274   6.716   6.301  0.0026 -0.2297 -0.1401
  134MOL0     C18422   4.295   6.797   6.428  0.5925 -0.5221  0.5233
  134MOL0     H18423   4.456   7.028   5.824 -1.5968  0.8217  0.1338
  134MOL0     H18424   4.565   7.246   5.759 -1.5588  1.6882 -0.5640
  134MOL0     H18425   4.674   7.449   5.743  1.7082  0.5665 -0.4322
  134MOL0     H18426   4.778   7.558   5.830 -0.1974  1.1780 -0.0505
  134MOL0     H18427   4.571   7.656   5.725 -2.3248  0.0675  0.2626
  134MOL0     H18428   4.482   7.551   5.826  1.0893 -1.6375 -0.1758
  134MOL0     H18429   4.686   7.695   5.982 -0.5374 -4.3884 -0.9639
  134MOL0     H18430   4.578   7.815   5.908  1.0512  2.1011  4.1423
  134MOL0     H18431   4.392   7.671   6.005  0.2976 -1.2196  0.3119
  134MOL0     H18432   4.517   7.571   6.085 -0.3313  0.3192  2.3474
  134MOL0     H18433   4.590   7.760   6.225  0.4121  2.4073 -1.1181
  134MOL0     H18434   4.411   7.746   6.232  1.2220  0.2765  1.2513
  134MOL0     H18435   4.523   7.993   6.218  2.6822  0.1295 -1.3563
  134MOL0     H18436   4.570   7.939   6.062 -0.1998  2.2145  0.4700
  134MOL0     H18437   4.393   7.950   5.955 -2.1101 -0.7923 -1.2372
  134MOL0     H18438   4.379   8.087   6.061 -0.3211 -0.2725 -0.7442
  134MOL0     H18439   4.192   7.836   6.089 -1.0850 -0.2449  1.4515
  134MOL0     H18440   4.235   7.937   6.214  4.6530 -1.9582  0.1653
  134MOL0     H18441   4.155   8.240   6.098  0.0241 -1.0092  1.4008
  134MOL0     H18442   3.980   8.351   5.819 -2.9095 -1.8102 -0.5593
  134MOL0     H18443   3.977   8.375   5.989 -4.2939  1.8617 -0.6480
  134MOL0     H18444   3.795   8.236   5.801 -0.5302  0.4256  0.2759
  134MOL0     H18445   3.763   8.209   5.980  2.4645 -2.5848  0.5340
  134MOL0     H18446   3.753   8.450   6.012 -0.7387 -1.9080  0.4873
  134MOL0     H18447   3.774   8.473   5.832 -1.3674  1.4809 -0.8840
  134MOL0     H18448   3.556   8.326   5.987 -1.8061 -2.6208 -1.8454
  134MOL0     H18449   3.523   8.479   5.899  0.4586  0.0925 -3.5389
  134MOL0     H18450   3.481   8.302   5.549 -0.2933  0.4396  0.6967
  134MOL0     H18451   3.148   8.314   5.396 -1.6416 -0.3014  1.1010
  134MOL0     H18452   3.233   8.162   5.411  0.9190  0.2011  0.5556
  134MOL0     H18453   3.324   8.321   5.376 -1.1914  3.6858  0.4178
  134MOL0     H18454   2.807   8.386   5.482 -1.3318  1.2069 -0.2759
  134MOL0     H18455   2.568   8.372   5.409 -0.6978  0.6849  0.5596
  134MOL0     H18456   2.268   8.197   5.647  0.3979 -1.2556 -0.1270
  134MOL0     H18457   2.193   8.226   5.486 -0.4784 -0.4698 -0.4439
  134MOL0     H18458   2.314   8.036   5.414  0.5672  1.1785  0.2128
  134MOL0     H18459   2.366   8.000   5.583 -1.3052 -0.3299  0.6865
  134MOL0     H18460   2.082   8.008   5.483  0.2467 -1.3993 -1.9153
  134MOL0     H18461   2.135   7.942   5.642 -3.4453  4.9403  0.4219
  134MOL0     H18462   2.233   7.814   5.387 -0.0239 -0.1316  0.0090
  134MOL0     H18463   2.081   7.768   5.478 -0.9479  3.7744  1.9108
  134MOL0     H18464   2.358   7.763   5.611  0.0879 -1.0004 -0.1676
  134MOL0     H18465   2.215   7.717   5.686  0.2356  0.8165  0.5511
  134MOL0     H18466   2.333   7.596   5.433  3.2055 -2.0759  1.6284
  134MOL0     H18467   2.183   7.527   5.508  0.9143  1.2615 -2.2628
  134MOL0     H18468   2.267   7.456   5.704 -1.1416  0.2357 -0.0565
  134MOL0     H18469   2.425   7.527   5.678 -0.5738 -0.6925  2.7591
  134MOL0     H18470   2.299   7.306   5.509 -1.1163  3.6385 -2.0726
  134MOL0     H18471   2.412   7.275   5.650 -0.6239  0.0858  0.1417
  134MOL0     H18472   2.465   8.140   5.750  0.5196 -4.1090  0.4944
  134MOL0     H18473   2.697   8.152   5.819  2.8907 -1.3104 -1.6617
  134MOL0     H18474   3.088   8.305   5.859  0.5525 -1.7380  0.4510
  134MOL0     H18475   3.336   8.312   5.946  6.4274 -1.7804 -0.4132
  134MOL0     H18476   4.628   7.323   6.179  1.8279 -0.8277 -0.2262
  134MOL0     H18477   4.588   7.096   6.235  0.5531 -1.2249 -0.9609
  134MOL0     H18478   4.273   6.719   5.958  0.3087 -1.5752 -2.3148
  134MOL0     H18479   4.238   6.507   5.984 -2.4404 -0.7530 -0.9556
  134MOL0     H18480   4.202   6.302   6.036 -0.1184 -1.7230 -0.4913
  134MOL0     H18481   4.227   6.172   6.146  1.3931  0.9887  0.8514
  134MOL0     H18482   3.988   6.217   6.240 -3.0276 -0.3484 -0.3781
  134MOL0     H18483   4.009   6.120   6.085  1.4362  1.0093 -1.8494
  134MOL0     H18484   3.971   6.417   6.058 -0.1767  0.1941 -3.3420
  134MOL0     H18485   3.945   6.280   5.954  1.8795  3.0554  0.1840
  134MOL0     H18486   3.732   6.375   6.018  1.0111  0.6134  0.1472
  134MOL0     H18487   3.762   6.349   6.188 -1.1779 -2.5217  0.4636
  134MOL0     H18488   3.677   5.949   6.078 -1.0051  0.5766  1.5109
  134MOL0     H18489   4.210   6.555   6.417  0.2815 -0.2794 -0.8020
  134MOL0     H18490   4.259   6.899   6.413 -0.5756 -1.1103 -0.9815
  134MOL0     H18491   4.250   6.749   6.516  0.2170 -1.2581 -0.0591
  134MOL0     H18492   4.401   6.805   6.452  0.2959  1.0313  1.4744
  135MOL0     O18493   1.850   2.143   0.977  0.1270  0.3275 -0.2366
  135MOL0     C18494   1.741   2.134   0.922 -0.1387 -0.8532 -0.1154
  135MOL0     O18495   1.686   2.239   0.857  1.2309 -0.2182  0.1749
  135MOL0     C18496   1.744   2.356   0.850 -0.9573 -0.1573  0.6290
  135MOL0     C18497   1.816   2.387   0.740 -1.0683 -0.9266  0.9075
  135MOL0     C18498   1.851   2.518   0.711 -1.2542 -0.6918 -0.6709
  135MOL0     C18499   1.825   2.621   0.809  0.0180 -0.6679  0.2022
  135MOL0     O18500   1.883   2.747   0.813  0.5346 -0.3926 -0.5647
  135MOL0     C18501   2.015   2.756   0.765 -0.2573  0.6071 -0.3505
  135MOL0     C18502   2.081   2.895   0.804  0.0974 -0.2835 -0.3487
  135MOL0     C18503   2.228   2.903   0.728  0.4431  0.4271 -0.0873
  135MOL0     C18504   2.320   3.020   0.767 -0.6006  0.9427  0.1849
  135MOL0     C18505   2.446   3.032   0.686 -0.3223  0.7246 -0.1088
  135MOL0     C18506   2.569   2.938   0.710  0.6334  0.3065 -0.1709
  135MOL0     C18507   2.696   3.010   0.745  0.8962 -0.2383 -0.3375
  135MOL0     C18508   2.768   3.051   0.618  0.1343 -0.1244  0.0393
  135MOL0     N18509   2.800   2.927   0.545 -0.1628  1.1342  0.1003
  135MOL0     C18510   2.918   2.868   0.541 -0.9213  0.2515  0.1461
  135MOL0     C18511   2.919   2.774   0.445  1.5042 -1.2745  0.5040
  135MOL0     C18512   3.018   2.664   0.417  0.4219  0.2067  0.4880
  135MOL0     C18513   3.007   2.620   0.270 -0.0558  0.2032 -0.4406
  135MOL0     C18514   3.052   2.740   0.182  0.8079 -0.1876 -0.9302
  135MOL0     C18515   3.060   2.701   0.031 -0.2503 -0.6302  0.1145
  135MOL0     O18516   3.175   2.618   0.002  1.0025  0.4474 -0.3657
  135MOL0     C18517   3.203   2.591  -0.133  1.0710 -0.2595  0.4382
  135MOL0     C18518   3.326   2.520  -0.164  0.2941 -1.0312 -1.2147
  135MOL0     C18519   3.350   2.475  -0.296 -0.4893 -0.8593  0.2497
  135MOL0     C18520   3.483   2.419  -0.319  0.5080 -1.2380 -0.4988
  135MOL0     C18521   3.255   2.495  -0.399  0.3098 -0.2264  0.5293
  135MOL0     C18522   3.283   2.442  -0.537  0.7308 -0.7024  0.2324
  135MOL0     O18523   3.278   2.530  -0.637  0.1445 -0.7722  0.1008
  135MOL0     C18524   3.358   2.493  -0.733  0.0166 -0.2665 -0.0148
  135MOL0     C18525   3.498   2.473  -0.711  0.3958  0.2347  0.2717
  135MOL0     C18526   3.579   2.444  -0.818  1.0112  0.7087 -0.1971
  135MOL0     C18527   3.531   2.436  -0.948  1.0738 -1.0952 -0.7330
  135MOL0     O18528   3.624   2.412  -1.046 -0.0503  0.2318  0.1833
  135MOL0     C18529   3.594   2.371  -1.187  1.0377  0.0473 -2.0530
  135MOL0     C18530   3.695   2.276  -1.248  0.2403 -1.1990  0.0794
  135MOL0     C18531   3.649   2.129  -1.224 -1.0063 -0.2076 -0.1731
  135MOL0     C18532   3.557   2.106  -1.333  0.9734  0.5414  1.0360
  135MOL0     C18533   3.448   1.988  -1.316 -0.1730  1.3562 -0.7100
  135MOL0     C18534   3.497   1.849  -1.266 -0.3862 -0.1100  0.2674
  135MOL0     C18535   3.603   1.800  -1.362 -0.6277 -0.2563 -0.0806
  135MOL0     C18536   3.666   1.682  -1.299 -0.5796 -0.0929 -0.6070
  135MOL0    Cl18537   3.750   1.602  -1.436 -0.3321 -0.1766  0.2696
  135MOL0     C18538   3.395   2.432  -0.967 -0.1540 -1.5811  0.2916
  135MOL0     C18539   3.308   2.461  -0.865  1.1760 -0.3703  0.0674
  135MOL0     O18540   3.273   2.324  -0.551 -0.1631 -0.0652  0.6715
  135MOL0     C18541   3.132   2.561  -0.371 -0.0942 -0.0388  0.1276
  135MOL0     C18542   3.112   2.602  -0.243 -0.7226 -0.4007  0.3216
  135MOL0     N18543   2.788   2.775   0.387 -0.1131 -0.0565 -0.6370
  135MOL0     N18544   2.726   2.867   0.447 -0.9169 -0.3710  0.0262
  135MOL0     C18545   1.751   2.586   0.924  0.5086  0.4048 -0.3372
  135MOL0     C18546   1.715   2.456   0.946  0.2092  0.0976  0.3887
  135MOL0     C18547   1.668   2.007   0.925  0.6045 -0.7573  1.0116
  135MOL0     C18548   1.591   1.972   0.813 -0.7395  0.1770  0.2355
  135MOL0     C18549   1.523   1.852   0.800  0.5254  0.8545  0.2500
  135MOL0     C18550   1.532   1.758   0.909  0.9021 -0.6465 -0.3258
  135MOL0     O18551   1.457   1.641   0.890 -0.4217 -0.6228  0.2904
  135MOL0     C18552   1.524   1.513   0.927  0.6715  0.2743 -0.5067
  135MOL0     C18553   1.412   1.418   0.937  1.1529 -0.1189  0.0956
  135MOL0     C18554   1.329   1.442   1.070  0.6158  0.8241  0.5829
  135MOL0     C18555   1.194   1.501   1.041  0.0116  0.3728  0.2736
  135MOL0     C18556   1.107   1.479   1.158 -0.7668  0.0403  0.0866
  135MOL0     C18557   1.035   1.465   1.250  0.4475  0.6864  0.2405
  135MOL0     C18558   1.595   1.791   1.025 -0.2990  0.6045  1.3409
  135MOL0     C18559   1.668   1.914   1.034 -0.3625 -0.8416 -0.3609
  135MOL0     C18560   1.741   1.933   1.170 -1.0915  0.1526 -0.2990
  135MOL0     H18561   1.844   2.302   0.678 -0.1752 -0.5118  0.7293
  135MOL0     H18562   1.907   2.545   0.623 -0.7276  2.4363  0.4883
  135MOL0     H18563   2.032   2.741   0.658  2.6401  0.3036  0.0818
  135MOL0     H18564   2.077   2.677   0.809 -0.0469  1.0964  0.2299
  135MOL0     H18565   2.019   2.975   0.762  0.9166  0.9893  0.7874
  135MOL0     H18566   2.099   2.898   0.911  0.9936 -3.1870 -0.3310
  135MOL0     H18567   2.284   2.811   0.745 -0.0918  0.5423  2.8560
  135MOL0     H18568   2.202   2.909   0.622 -1.7527  2.7560  0.4799
  135MOL0     H18569   2.256   3.109   0.768 -0.0919  1.3093  0.3233
  135MOL0     H18570   2.342   3.013   0.874  1.8968  4.0102  0.0076
  135MOL0     H18571   2.475   3.136   0.701 -0.7988  0.7282  0.8939
  135MOL0     H18572   2.420   3.014   0.581 -0.4688 -3.9582  0.5153
  135MOL0     H18573   2.546   2.873   0.795  2.5465  1.4101  1.2850
  135MOL0     H18574   2.578   2.869   0.626  1.6316  1.9208 -1.4461
  135MOL0     H18575   2.768   2.951   0.802 -0.0252 -1.0400  0.0166
  135MOL0     H18576   2.677   3.100   0.804  1.0725  2.4925 -4.0707
  135MOL0     H18577   2.706   3.120   0.560  3.7187  2.7308 -0.7564
  135MOL0     H18578   2.853   3.106   0.659  0.3139 -0.7856  0.5757
  135MOL0     H18579   3.005   2.889   0.604 -1.5369 -2.2054  1.9943
  135MOL0     H18580   2.991   2.576   0.477 -0.1199 -0.5514 -0.8198
  135MOL0     H18581   3.123   2.692   0.430  2.0034 -3.9929 -1.5736
  135MOL0     H18582   3.083   2.548   0.239 -0.1803  1.1963 -3.3984
  135MOL0     H18583   2.908   2.584   0.240  0.1835  1.7434 -3.4856
  135MOL0     H18584   2.974   2.815   0.197  0.6199 -0.3984 -0.8489
  135MOL0     H18585   3.148   2.784   0.213 -1.2527  3.6260  0.6990
  135MOL0     H18586   2.972   2.646  -0.005 -1.4888  0.0623  1.8953
  135MOL0     H18587   3.078   2.792  -0.027 -0.5392 -2.5331 -3.1790
  135MOL0     H18588   3.395   2.502  -0.083  0.6737 -0.2934 -1.3654
  135MOL0     H18589   3.553   2.465  -0.248 -2.3335  2.3292  0.2414
  135MOL0     H18590   3.512   2.441  -0.422  2.1970 -1.8824 -0.1966
  135MOL0     H18591   3.472   2.312  -0.300 -1.6829 -1.2308 -1.5209
  135MOL0     H18592   3.554   2.485  -0.619  1.9788 -3.2166 -0.0768
  135MOL0     H18593   3.687   2.429  -0.820  0.5474 -3.9874 -2.3549
  135MOL0     H18594   3.489   2.347  -1.204  0.4445 -1.8761  2.7828
  135MOL0     H18595   3.624   2.463  -1.238  2.1091  1.4498  0.9223
  135MOL0     H18596   3.700   2.296  -1.355  1.1068 -4.9482 -0.7384
  135MOL0     H18597   3.798   2.299  -1.220 -0.4313  3.0086 -0.3480
  135MOL0     H18598   3.606   2.113  -1.125  1.9863  1.1900  1.5355
  135MOL0     H18599   3.736   2.063  -1.218 -2.4235 -2.2682 -1.1435
  135MOL0     H18600   3.614   2.098  -1.426  0.3947  0.4533  0.6766
  135MOL0     H18601   3.486   2.189  -1.344 -0.3416 -0.7839 -1.3838
  135MOL0     H18602   3.365   2.006  -1.248 -0.3918 -2.0156  0.1063
  135MOL0     H18603   3.412   1.970  -1.418 -1.1396  0.0428 -0.1581
  135MOL0     H18604   3.416   1.776  -1.273 -1.0721  0.7782 -1.9694
  135MOL0     H18605   3.524   1.863  -1.161 -1.9870 -0.0731  0.6947
  135MOL0     H18606   3.677   1.879  -1.378  0.8116 -1.4990  0.3161
  135MOL0     H18607   3.556   1.772  -1.457  1.0024 -0.5647 -0.8187
  135MOL0     H18608   3.596   1.604  -1.266  1.3385 -1.8219 -0.4197
  135MOL0     H18609   3.728   1.709  -1.213 -1.1196 -1.0141  0.0932
  135MOL0     H18610   3.355   2.415  -1.067  1.1575  0.6849 -0.6873
  135MOL0     H18611   3.199   2.460  -0.862  1.1753 -2.4893  2.1325
  135MOL0     H18612   3.054   2.573  -0.446 -2.5637 -1.8273  2.2127
  135MOL0     H18613   3.013   2.639  -0.217 -1.4141 -0.1660 -2.4111
  135MOL0     H18614   1.750   2.661   1.003  1.1167 -0.4740  0.5321
  135MOL0     H18615   1.665   2.423   1.036 -2.6398  1.5937 -0.5350
  135MOL0     H18616   1.587   2.043   0.730  2.4046 -4.2195 -4.2994
  135MOL0     H18617   1.480   1.821   0.705 -0.7518  2.0319  0.4176
  135MOL0     H18618   1.584   1.496   0.837  1.1641  1.8158 -0.5028
  135MOL0     H18619   1.588   1.515   1.015 -0.6036 -0.4101  0.4774
  135MOL0     H18620   1.454   1.318   0.944  4.1788  1.0254 -0.2651
  135MOL0     H18621   1.333   1.432   0.863 -0.1379  4.6265  2.0019
  135MOL0     H18622   1.300   1.342   1.101 -2.8142 -0.2263 -4.6452
  135MOL0     H18623   1.394   1.496   1.139  1.4273  0.6423 -0.0222
  135MOL0     H18624   1.138   1.457   0.958 -3.0153  0.5678  2.0794
  135MOL0     H18625   1.207   1.607   1.016 -0.0706 -0.3871 -3.6283
  135MOL0     H18626   0.980   1.445   1.340 -4.0744 -0.7554 -2.5471
  135MOL0     H18627   1.599   1.727   1.112 -2.2095 -1.7143 -0.1808
  135MOL0     H18628   1.840   1.908   1.131 -0.7957  2.7492 -1.3733
  135MOL0     H18629   1.731   2.037   1.201 -2.7871 -1.0672  4.0010
  135MOL0     H18630   1.713   1.872   1.257  0.3130 -0.1649 -0.0401
  136MOL0     O18631   6.974   2.256  10.956 -0.0442 -0.2746  0.4848
  136MOL0     C18632   6.879   2.230  11.039 -0.2328  0.3073 -0.2001
  136MOL0     O18633   6.785   2.311  11.082  0.4740  0.4418  0.0148
  136MOL0     C18634   6.751   2.414  10.996 -0.1501  0.5027 -0.5405
  136MOL0     C18635   6.737   2.388  10.855  0.2679  0.3830  0.7751
  136MOL0     C18636   6.700   2.488  10.762 -0.6418 -0.1874  0.6890
  136MOL0     C18637   6.682   2.616  10.812  0.7920 -0.0657 -0.3413
  136MOL0     O18638   6.655   2.720  10.721 -0.0107 -0.4337  0.7624
  136MOL0     C18639   6.744   2.838  10.724  1.4265  0.1093  0.3244
  136MOL0     C18640   6.883   2.807  10.679 -0.7086 -0.1576 -0.0487
  136MOL0     C18641   6.910   2.773  10.529 -0.4866 -0.1096 -0.5057
  136MOL0     C18642   6.797   2.703  10.448 -0.6702 -0.1653 -0.6022
  136MOL0     C18643   6.838   2.674  10.299 -0.0515  0.5410  0.0503
  136MOL0     C18644   6.900   2.777  10.207  1.0844 -1.2907 -0.5918
  136MOL0     C18645   6.818   2.913  10.222 -0.6687  0.4958 -0.2102
  136MOL0     C18646   6.836   3.025  10.111  0.0731 -0.0900  0.6443
  136MOL0     N18647   6.971   3.029  10.056 -0.4215 -1.1379  0.6315
  136MOL0     C18648   7.074   3.089  10.110  0.6783 -0.1576 -0.4719
  136MOL0     C18649   7.192   3.054  10.057  0.6930 -0.2193 -0.0171
  136MOL0     C18650   7.336   3.083  10.091  0.4477 -1.5320  0.1675
  136MOL0     C18651   7.374   3.008  10.218  0.4928  0.3662 -0.0102
  136MOL0     C18652   7.289   3.039  10.350  0.4761  0.1030  0.0692
  136MOL0     C18653   7.363   2.982  10.467  0.1320 -0.0319 -0.7621
  136MOL0     O18654   7.498   3.029  10.502 -0.1912 -0.4205 -0.1375
  136MOL0     C18655   7.558   2.999  10.621 -1.1184  0.6634 -0.1468
  136MOL0     C18656   7.493   2.963  10.750 -0.4617  0.3172  0.3883
  136MOL0     C18657   7.578   2.941  10.862 -0.1062  0.1641 -0.0974
  136MOL0     C18658   7.497   2.917  10.984  0.1414  0.5453  0.5278
  136MOL0     C18659   7.717   2.937  10.856  0.2315 -0.3578 -0.2922
  136MOL0     C18660   7.797   2.894  10.962  0.4387  0.1365 -0.7409
  136MOL0     O18661   7.907   2.968  10.986 -0.1712  0.4655  0.5903
  136MOL0     C18662   7.980   2.931  11.096  0.2157 -1.2375  0.5394
  136MOL0     C18663   7.927   2.917  11.222  0.1774  0.5642 -0.8821
  136MOL0     C18664   8.020   2.900  11.331 -0.7879 -0.9705  0.2505
  136MOL0     C18665   8.164   2.894  11.303 -0.0837 -0.1443 -0.4317
  136MOL0     O18666   8.247   2.865  11.407  0.2801 -0.6622  0.0446
  136MOL0     C18667   8.376   2.929  11.408 -0.5747  0.4077 -1.1746
  136MOL0     C18668   8.444   2.880  11.541  0.1102 -0.6739 -0.9397
  136MOL0     C18669   8.583   2.942  11.576 -0.9749  0.8780 -0.5930
  136MOL0     C18670   8.603   2.933  11.727 -0.5733  0.5747 -0.2488
  136MOL0     C18671   8.756   2.930  11.766  0.1004  0.4341 -0.1603
  136MOL0     C18672   8.830   2.798  11.716 -0.1722 -0.3515  0.5124
  136MOL0     C18673   8.975   2.801  11.765 -0.3462  0.5889  0.0472
  136MOL0     C18674   9.065   2.899  11.705 -0.2702 -0.4099  0.6019
  136MOL0    Cl18675   9.073   2.906  11.519  0.4971  0.4585 -0.3292
  136MOL0     C18676   8.208   2.905  11.173 -0.3373 -0.1613  0.1807
  136MOL0     C18677   8.120   2.915  11.070 -0.0555 -0.5649 -0.2851
  136MOL0     O18678   7.765   2.786  11.017  0.4513 -0.0832  0.3948
  136MOL0     C18679   7.772   2.983  10.731 -0.0755  0.6157  0.1315
  136MOL0     C18680   7.693   3.008  10.622  1.0047  0.2815 -0.5745
  136MOL0     N18681   7.156   2.963   9.959 -0.2008 -0.0485 -0.0604
  136MOL0     N18682   7.030   2.947   9.960 -0.3516 -0.3305  0.4335
  136MOL0     C18683   6.686   2.647  10.953 -0.6307  0.4063 -0.6012
  136MOL0     C18684   6.705   2.541  11.045 -0.1072 -0.1482 -0.0932
  136MOL0     C18685   6.872   2.091  11.088  0.3263  0.4038 -0.0627
  136MOL0     C18686   6.854   1.986  10.990  0.1330 -0.1979 -1.5143
  136MOL0     C18687   6.835   1.863  11.035 -0.0543  0.3892  0.4014
  136MOL0     C18688   6.831   1.827  11.172  0.6020  0.9860  0.5405
  136MOL0     O18689   6.823   1.700  11.212  0.7732  0.1922  0.0485
  136MOL0     C18690   6.858   1.584  11.124  0.0788 -0.2171 -0.1930
  136MOL0     C18691   6.797   1.455  11.166  0.3134 -0.9815 -0.4079
  136MOL0     C18692   6.648   1.445  11.193  0.4365  0.7264 -1.1399
  136MOL0     C18693   6.557   1.495  11.077 -0.4598 -0.2788  0.6242
  136MOL0     C18694   6.419   1.481  11.128 -0.6936 -0.4940  0.5450
  136MOL0     C18695   6.307   1.473  11.163  0.6059 -0.6361 -0.7951
  136MOL0     C18696   6.834   1.922  11.261  0.2813  0.1442 -0.5937
  136MOL0     C18697   6.863   2.053  11.222  0.0322 -0.0678 -0.7452
  136MOL0     C18698   6.898   2.148  11.332  0.0809 -0.0955  0.3351
  136MOL0     H18699   6.765   2.289  10.819 -0.8618  0.9061 -1.8228
  136MOL0     H18700   6.676   2.457  10.660 -0.3666 -0.3012  0.6573
  136MOL0     H18701   6.730   2.883  10.823  3.1521  1.1569  0.1400
  136MOL0     H18702   6.706   2.924  10.669  1.0957 -0.2434 -0.0001
  136MOL0     H18703   6.939   2.899  10.692 -0.2838 -0.2849 -0.8783
  136MOL0     H18704   6.925   2.738  10.752 -0.4698  2.6288  2.6410
  136MOL0     H18705   6.945   2.868  10.487 -2.0218  0.0102 -1.5893
  136MOL0     H18706   6.999   2.711  10.535  0.4647  1.3314  1.9166
  136MOL0     H18707   6.780   2.608  10.500  1.6305  0.0175  0.6374
  136MOL0     H18708   6.713   2.773  10.452  0.0553  0.6976  3.3748
  136MOL0     H18709   6.747   2.641  10.247 -1.2152  1.4178  1.4498
  136MOL0     H18710   6.915   2.597  10.305 -0.2447  0.4524  2.2981
  136MOL0     H18711   7.004   2.795  10.235  0.3767 -1.1441  2.3637
  136MOL0     H18712   6.880   2.734  10.109 -1.9073 -4.0934  1.0184
  136MOL0     H18713   6.863   2.947  10.315  0.7346 -1.7449 -0.0019
  136MOL0     H18714   6.709   2.901  10.230 -0.4867 -0.7881  0.5794
  136MOL0     H18715   6.777   3.005  10.021 -1.1018 -1.0746  1.5939
  136MOL0     H18716   6.799   3.118  10.156 -0.1363 -0.1028  0.5007
  136MOL0     H18717   7.053   3.167  10.183  1.2061 -0.1991 -0.2742
  136MOL0     H18718   7.355   3.190  10.103  1.0238 -1.4256 -1.4188
  136MOL0     H18719   7.411   3.047  10.019  1.1738 -1.1899  0.7363
  136MOL0     H18720   7.367   2.900  10.204 -0.7469  0.5279 -0.7641
  136MOL0     H18721   7.474   3.039  10.249 -0.0608  3.3626 -0.8795
  136MOL0     H18722   7.277   3.148  10.359 -0.4895  0.0607 -0.6095
  136MOL0     H18723   7.194   2.992  10.327 -0.2924  1.2941  0.6919
  136MOL0     H18724   7.304   3.005  10.556  2.1517 -0.7235  0.8503
  136MOL0     H18725   7.376   2.874  10.455  2.1526 -0.0627  0.9144
  136MOL0     H18726   7.385   2.959  10.756 -0.3848 -0.9867  1.3167
  136MOL0     H18727   7.392   2.915  10.954  0.6616  0.0012 -1.4292
  136MOL0     H18728   7.528   2.978  11.069  1.1025  0.7334  0.0637
  136MOL0     H18729   7.498   2.812  11.013 -0.0709  0.2537 -0.4862
  136MOL0     H18730   7.819   2.912  11.227 -0.2981  4.3107 -2.9149
  136MOL0     H18731   7.975   2.888  11.429  2.5851  1.0587  2.2499
  136MOL0     H18732   8.445   2.890  11.332  1.2490 -4.1925  2.4075
  136MOL0     H18733   8.370   3.039  11.407 -0.4485  0.6303  3.3704
  136MOL0     H18734   8.372   2.916  11.614  0.3743  0.0920 -1.0450
  136MOL0     H18735   8.456   2.773  11.561 -3.1942 -1.1397 -0.9548
  136MOL0     H18736   8.611   3.039  11.533 -0.9200  0.7768 -0.7879
  136MOL0     H18737   8.655   2.871  11.536 -0.8852 -0.4720  1.8018
  136MOL0     H18738   8.546   2.850  11.771 -2.1105  2.0405  0.6112
  136MOL0     H18739   8.567   3.025  11.773 -2.2759 -0.3123  0.2915
  136MOL0     H18740   8.787   3.025  11.721  1.2641 -0.3235 -1.0021
  136MOL0     H18741   8.774   2.934  11.874  0.5974  1.2584 -0.2606
  136MOL0     H18742   8.845   2.813  11.609 -0.5609  1.9591  0.7461
  136MOL0     H18743   8.765   2.713  11.741 -3.3291  1.8660  0.4132
  136MOL0     H18744   9.013   2.706  11.725  0.7539  0.1014  2.1347
  136MOL0     H18745   8.962   2.799  11.873 -3.9308  0.5311 -0.2438
  136MOL0     H18746   9.164   2.883  11.748 -0.0231  0.1785  0.2574
  136MOL0     H18747   9.024   2.995  11.737 -2.2380 -0.8736 -0.3607
  136MOL0     H18748   8.313   2.890  11.148 -0.3087  0.9063 -0.3638
  136MOL0     H18749   8.150   2.948  10.971  1.3467 -2.2623 -0.4670
  136MOL0     H18750   7.879   2.995  10.720  0.0864 -1.2734 -0.7325
  136MOL0     H18751   7.735   3.042  10.528 -0.6577  0.9444 -1.1239
  136MOL0     H18752   6.664   2.750  10.983 -0.2538  0.4677 -0.5345
  136MOL0     H18753   6.723   2.554  11.152  0.3791 -1.2140 -0.0350
  136MOL0     H18754   6.868   2.011  10.885 -1.7722 -2.8607 -2.5003
  136MOL0     H18755   6.831   1.786  10.959 -0.2089 -1.5549  2.2832
  136MOL0     H18756   6.830   1.601  11.019 -2.1767 -1.1085  0.2089
  136MOL0     H18757   6.967   1.571  11.124 -0.0536 -1.6590  1.5735
  136MOL0     H18758   6.851   1.412  11.251  1.3818  2.1480  0.6120
  136MOL0     H18759   6.817   1.386  11.083 -3.2690  0.2753 -2.5329
  136MOL0     H18760   6.624   1.339  11.209 -0.6577  1.4027  2.7213
  136MOL0     H18761   6.630   1.492  11.290  0.4836  3.4936 -2.3852
  136MOL0     H18762   6.571   1.430  10.989 -0.7275 -0.8214  0.9737
  136MOL0     H18763   6.580   1.599  11.054  0.8057 -0.2745  1.8000
  136MOL0     H18764   6.204   1.477  11.195  0.7682  2.8852 -0.2437
  136MOL0     H18765   6.814   1.902  11.366 -3.8228  0.5571 -1.1444
  136MOL0     H18766   7.003   2.171  11.312 -0.1740 -0.4909 -1.6639
  136MOL0     H18767   6.831   2.233  11.324 -0.4353 -0.0960  3.3444
  136MOL0     H18768   6.879   2.118  11.436  0.1196  1.0543  0.6852
  137MOL0     O18769  11.480  11.147   9.113 -0.7515  0.0031  0.5955
  137MOL0     C18770  11.463  11.221   9.206 -0.1424 -0.6824  0.3957
  137MOL0     O18771  11.540  11.335   9.232 -0.6816  0.4937 -0.0784
  137MOL0     C18772  11.645  11.344   9.148 -0.3076 -0.2527  0.1275
  137MOL0     C18773  11.643  11.456   9.070  0.5507  0.2287  0.7167
  137MOL0     C18774  11.763  11.490   9.000  0.7664  0.8565  0.0018
  137MOL0     C18775  11.885  11.405   9.005  0.0325 -0.1884 -0.7005
  137MOL0     O18776  11.993  11.442   8.938 -0.8502 -0.4076  0.6526
  137MOL0     C18777  12.057  11.566   8.984 -0.4780 -0.8638 -0.1650
  137MOL0     C18778  12.176  11.598   8.902  0.3195  0.0978 -0.2021
  137MOL0     C18779  12.291  11.495   8.909 -0.4908  0.2838 -0.1898
  137MOL0     C18780  12.424  11.544   8.858  0.4744  0.1313  0.4080
  137MOL0     C18781  12.430  11.588   8.705  0.1025 -0.5568 -0.4674
  137MOL0     C18782  12.370  11.484   8.607  0.4828  0.2173 -0.2752
  137MOL0     C18783  12.378  11.525   8.462 -0.2889  0.0749 -0.1971
  137MOL0     C18784  12.273  11.621   8.424 -0.3416  0.3872 -1.1756
  137MOL0     N18785  12.298  11.674   8.290 -0.4794 -0.1539  0.0843
  137MOL0     C18786  12.384  11.623   8.197 -0.5460 -0.9888 -0.2068
  137MOL0     C18787  12.366  11.699   8.087  0.0920 -0.9953 -0.1562
  137MOL0     C18788  12.425  11.677   7.952  0.4458 -1.0607  0.6537
  137MOL0     C18789  12.512  11.552   7.932  0.7456  0.5916  0.1288
  137MOL0     C18790  12.571  11.517   7.783  1.2676  0.0289 -0.9155
  137MOL0     C18791  12.476  11.524   7.667  0.0923 -0.3469 -0.5428
  137MOL0     O18792  12.382  11.414   7.675 -0.3254  0.4062 -0.0157
  137MOL0     C18793  12.385  11.306   7.587 -0.2225 -0.4934 -0.0911
  137MOL0     C18794  12.278  11.220   7.578 -0.5170  0.1836 -0.5592
  137MOL0     C18795  12.293  11.100   7.502  0.6046  0.4069 -0.3416
  137MOL0     C18796  12.196  10.982   7.534 -0.1338 -0.2999  0.4751
  137MOL0     C18797  12.401  11.085   7.413  0.3292  0.2121  0.4531
  137MOL0     C18798  12.432  10.972   7.327  0.7916 -0.6641 -0.6957
  137MOL0     O18799  12.555  10.951   7.276 -0.5743 -0.1689  0.0683
  137MOL0     C18800  12.570  10.859   7.172 -0.6515 -0.1409  0.9201
  137MOL0     C18801  12.481  10.849   7.067  0.1379  0.5838  0.3732
  137MOL0     C18802  12.507  10.762   6.958  0.0134  0.9972 -0.1073
  137MOL0     C18803  12.633  10.706   6.935  0.1102  0.5575  0.6774
  137MOL0     O18804  12.643  10.635   6.812 -0.7913  0.2437  0.4854
  137MOL0     C18805  12.643  10.500   6.843  0.3905 -0.1566  0.3298
  137MOL0     C18806  12.588  10.417   6.724  0.5245  0.3112  0.0754
  137MOL0     C18807  12.449  10.464   6.683  0.2612 -0.2525 -0.0990
  137MOL0     C18808  12.374  10.369   6.587 -0.1191  0.0304 -0.8207
  137MOL0     C18809  12.450  10.375   6.458  0.2538  0.3821  0.3954
  137MOL0     C18810  12.367  10.281   6.361  0.7464  0.1300 -0.8142
  137MOL0     C18811  12.221  10.307   6.332  0.0501 -0.4791  0.3546
  137MOL0     C18812  12.166  10.213   6.225  0.5401 -0.8078 -0.9863
  137MOL0    Cl18813  12.126  10.052   6.293  0.0670  0.4116  0.2356
  137MOL0     C18814  12.720  10.707   7.044 -0.4829 -0.5856  0.4509
  137MOL0     C18815  12.691  10.782   7.154 -0.6974  0.0909  0.7241
  137MOL0     O18816  12.335  10.897   7.306  0.0295 -0.4281  0.3882
  137MOL0     C18817  12.504  11.182   7.421 -0.3015 -0.2785  0.2844
  137MOL0     C18818  12.496  11.290   7.503  0.7342 -0.5157 -0.2943
  137MOL0     N18819  12.276  11.803   8.123  0.2198  0.1824 -1.1961
  137MOL0     N18820  12.234  11.780   8.244  0.2501 -0.3843  0.3287
  137MOL0     C18821  11.876  11.286   9.081  0.8223  0.5160  0.0162
  137MOL0     C18822  11.755  11.254   9.144  0.3436 -0.0399  0.0233
  137MOL0     C18823  11.332  11.214   9.291 -0.8699  0.2492  0.1909
  137MOL0     C18824  11.286  11.330   9.349  0.0600  0.7069  0.4953
  137MOL0     C18825  11.152  11.328   9.400  0.1868  0.6261  0.1294
  137MOL0     C18826  11.062  11.215   9.406  0.2647 -0.3613  0.0284
  137MOL0     O18827  10.923  11.210   9.437  0.4765  0.0369  0.1262
  137MOL0     C18828  10.841  11.333   9.409 -0.4189 -0.5731 -0.0455
  137MOL0     C18829  10.698  11.289   9.449  0.5611 -0.3581  0.7168
  137MOL0     C18830  10.661  11.300   9.603  0.4837 -0.0781 -0.9617
  137MOL0     C18831  10.621  11.435   9.663 -0.2092  0.3845 -0.2321
  137MOL0     C18832  10.718  11.547   9.640 -0.2097  0.4472  0.6768
  137MOL0     C18833  10.804  11.640   9.640 -1.0022  0.7580 -0.7216
  137MOL0     C18834  11.127  11.098   9.361  0.2612  0.4542  0.3463
  137MOL0     C18835  11.257  11.095   9.306 -0.3561 -0.6712  0.5720
  137MOL0     C18836  11.320  10.964   9.280  0.0821  0.5087 -0.5973
  137MOL0     H18837  11.555  11.519   9.057  3.1935  4.5938  1.9073
  137MOL0     H18838  11.762  11.579   8.938 -1.4184  0.3747 -0.7422
  137MOL0     H18839  12.078  11.566   9.091  1.0793  0.6945 -0.4235
  137MOL0     H18840  11.986  11.647   8.970  1.7135  1.1483 -0.1829
  137MOL0     H18841  12.129  11.616   8.805  1.0058  1.6650 -0.2639
  137MOL0     H18842  12.215  11.693   8.938  1.3806 -0.4412  0.1051
  137MOL0     H18843  12.307  11.459   9.011  0.0815 -1.6500 -0.9229
  137MOL0     H18844  12.267  11.402   8.857  2.4119  0.1874 -1.5168
  137MOL0     H18845  12.447  11.635   8.913 -2.0492  0.2326  1.4594
  137MOL0     H18846  12.498  11.468   8.885  0.8494  1.6151  4.2642
  137MOL0     H18847  12.537  11.606   8.691  0.5831 -0.2103  2.7717
  137MOL0     H18848  12.372  11.680   8.694 -1.2376 -1.0125  2.0641
  137MOL0     H18849  12.429  11.392   8.618  0.1524  0.0867  0.5279
  137MOL0     H18850  12.264  11.464   8.627 -0.1860  1.7003 -2.1029
  137MOL0     H18851  12.379  11.437   8.396  1.2186 -0.1373  0.0862
  137MOL0     H18852  12.471  11.576   8.436 -1.7871  2.0813 -2.0855
  137MOL0     H18853  12.176  11.572   8.436  0.2557  0.0228  5.3309
  137MOL0     H18854  12.280  11.713   8.483 -3.6661  1.2969 -1.9877
  137MOL0     H18855  12.434  11.527   8.209  0.5075 -0.3632  0.5217
  137MOL0     H18856  12.485  11.763   7.919 -3.7081  1.7018 -0.5923
  137MOL0     H18857  12.342  11.665   7.881  1.3685 -1.2868 -0.4282
  137MOL0     H18858  12.590  11.555   8.009  1.2821 -3.6866  0.0111
  137MOL0     H18859  12.457  11.463   7.964  1.7732 -1.7801 -3.9414
  137MOL0     H18860  12.661  11.579   7.770  1.7531 -0.4379  0.1024
  137MOL0     H18861  12.596  11.411   7.788  3.3923  0.4557 -1.5584
  137MOL0     H18862  12.417  11.616   7.669  1.7015  0.7579 -1.9526
  137MOL0     H18863  12.536  11.527   7.576 -0.6922 -2.1181 -1.1652
  137MOL0     H18864  12.196  11.239   7.646 -0.0409  0.5365 -0.0696
  137MOL0     H18865  12.111  11.000   7.600 -0.0152 -2.9476  1.4672
  137MOL0     H18866  12.255  10.897   7.568  2.7241  1.7393  0.9187
  137MOL0     H18867  12.138  10.951   7.446  2.1054 -0.8396 -0.8882
  137MOL0     H18868  12.385  10.899   7.065  0.6680  1.5882 -0.5671
  137MOL0     H18869  12.422  10.738   6.896 -0.4619 -0.0025  0.8905
  137MOL0     H18870  12.749  10.482   6.864  1.4815  1.2660 -3.1979
  137MOL0     H18871  12.576  10.484   6.928 -2.2729 -1.4631 -1.8525
  137MOL0     H18872  12.657  10.423   6.639  0.5568  1.2124  0.1534
  137MOL0     H18873  12.582  10.309   6.740  0.5296  0.0052 -1.7504
  137MOL0     H18874  12.456  10.570   6.657  2.1632 -0.3558 -0.1655
  137MOL0     H18875  12.396  10.467   6.779  1.1601 -0.6787  0.4157
  137MOL0     H18876  12.275  10.412   6.571 -0.4742  1.3373  3.5410
  137MOL0     H18877  12.353  10.265   6.614 -0.9043  0.2327 -0.6507
  137MOL0     H18878  12.442  10.477   6.421 -3.5193 -0.6541 -2.2405
  137MOL0     H18879  12.557  10.352   6.463  0.6346  1.9473 -0.0219
  137MOL0     H18880  12.376  10.182   6.405  0.1676 -1.0450 -3.1687
  137MOL0     H18881  12.423  10.260   6.269  1.8553 -2.5630  0.3661
  137MOL0     H18882  12.206  10.411   6.301  1.4814 -0.7261 -1.2919
  137MOL0     H18883  12.154  10.294   6.418  0.6440 -1.8194  0.6402
  137MOL0     H18884  12.237  10.215   6.142  0.5528  1.1459 -0.9674
  137MOL0     H18885  12.072  10.255   6.189  2.3821  4.5949 -0.2810
  137MOL0     H18886  12.819  10.664   7.041  0.3294  1.1879 -3.3121
  137MOL0     H18887  12.766  10.793   7.232  0.7000  1.1704 -0.7136
  137MOL0     H18888  12.594  11.182   7.360 -0.7187  0.4592 -0.3454
  137MOL0     H18889  12.583  11.355   7.507  0.4863 -0.1685 -0.4846
  137MOL0     H18890  11.961  11.219   9.084 -0.5786 -1.3479  0.1503
  137MOL0     H18891  11.746  11.167   9.209 -0.0988  1.1347  1.6101
  137MOL0     H18892  11.339  11.423   9.332 -0.9767  0.7615 -3.5818
  137MOL0     H18893  11.114  11.426   9.427 -2.8957 -0.0283 -1.3821
  137MOL0     H18894  10.865  11.418   9.473 -0.6581  2.5988 -3.7607
  137MOL0     H18895  10.859  11.350   9.302 -1.1558 -2.8032 -0.5956
  137MOL0     H18896  10.685  11.184   9.422 -0.3521 -0.6618  2.1930
  137MOL0     H18897  10.627  11.353   9.395 -1.3922 -0.5467  2.8526
  137MOL0     H18898  10.578  11.232   9.623  0.8408 -0.6756 -1.4743
  137MOL0     H18899  10.745  11.257   9.659 -0.0143 -2.5186 -1.9876
  137MOL0     H18900  10.609  11.427   9.772  1.0211 -1.8877 -0.2021
  137MOL0     H18901  10.519  11.464   9.635 -1.8316 -2.4056  2.1372
  137MOL0     H18902  10.873  11.723   9.642  2.1952 -1.7033  2.2075
  137MOL0     H18903  11.062  11.011   9.365 -1.0363  1.3958  3.0852
  137MOL0     H18904  11.407  10.949   9.345  1.1635  1.4344 -1.7773
  137MOL0     H18905  11.254  10.880   9.303 -0.1539  0.9344  0.3696
  137MOL0     H18906  11.364  10.959   9.180  2.0813  0.8597  0.2192
  138MOL0     O18907   6.439   9.000   4.817  0.5141 -0.7674  0.3002
  138MOL0     C18908   6.321   8.997   4.845  0.5285 -0.8768 -0.1158
  138MOL0     O18909   6.252   9.087   4.925  0.5133  0.5615  0.5888
  138MOL0     C18910   6.321   9.163   5.018  0.2091  0.2779 -0.4912
  138MOL0     C18911   6.455   9.163   5.054 -0.2979 -0.0618 -0.6171
  138MOL0     C18912   6.505   9.239   5.153  0.0419  0.1032  0.0333
  138MOL0     C18913   6.423   9.335   5.215 -0.0119 -0.2209 -0.3054
  138MOL0     O18914   6.476   9.412   5.314 -0.4286 -0.6042  0.2573
  138MOL0     C18915   6.429   9.553   5.326 -0.0735 -0.4484 -0.1883
  138MOL0     C18916   6.545   9.653   5.357  0.2687  1.0456  0.0928
  138MOL0     C18917   6.647   9.594   5.452 -0.2580 -0.8202  0.0854
  138MOL0     C18918   6.764   9.696   5.486 -0.5194 -0.7833  0.2164
  138MOL0     C18919   6.897   9.642   5.454 -0.5670  0.8147 -1.0883
  138MOL0     C18920   6.930   9.525   5.540  0.3214  0.7388  0.7022
  138MOL0     C18921   7.081   9.514   5.563 -0.6332 -0.1999  0.8767
  138MOL0     C18922   7.133   9.410   5.662  0.5256 -1.1672  0.1401
  138MOL0     N18923   7.276   9.425   5.693  0.8798 -0.1578 -0.2595
  138MOL0     C18924   7.326   9.473   5.807  0.3221  0.7011  0.0834
  138MOL0     C18925   7.460   9.462   5.793  0.0106 -0.6851 -0.3278
  138MOL0     C18926   7.561   9.489   5.902 -0.9680 -0.6407 -0.2501
  138MOL0     C18927   7.706   9.447   5.879  0.8925 -0.7231 -0.0921
  138MOL0     C18928   7.790   9.449   6.004  0.1162 -0.4298 -0.0229
  138MOL0     C18929   7.921   9.371   5.991 -0.8579 -0.1309 -0.6690
  138MOL0     O18930   7.984   9.374   6.117 -0.8694 -0.3464  0.0994
  138MOL0     C18931   8.119   9.345   6.136 -0.4089 -0.2247  0.4297
  138MOL0     C18932   8.160   9.332   6.271  0.4655 -1.2184 -0.1623
  138MOL0     C18933   8.298   9.298   6.298  1.3130  0.5533  0.0736
  138MOL0     C18934   8.333   9.255   6.437 -0.2482  0.5909  0.8411
  138MOL0     C18935   8.387   9.300   6.194 -0.2478  0.7509  0.1579
  138MOL0     C18936   8.527   9.286   6.226 -0.7306 -0.0828 -0.1305
  138MOL0     O18937   8.561   9.166   6.280  0.1083 -0.8344 -0.6380
  138MOL0     C18938   8.686   9.122   6.335  0.4575  0.0237  1.0998
  138MOL0     C18939   8.683   8.995   6.403 -0.4084 -0.4860 -0.4299
  138MOL0     C18940   8.790   8.939   6.472 -0.3136 -0.2119  1.1609
  138MOL0     C18941   8.912   9.017   6.466 -0.1206 -0.5655  0.2135
  138MOL0     O18942   9.021   8.977   6.538  0.4185 -0.4735 -0.4835
  138MOL0     C18943   9.123   8.934   6.445  0.1928  0.7745  0.3080
  138MOL0     C18944   9.226   8.848   6.524 -0.0927  0.3991  0.4976
  138MOL0     C18945   9.298   8.751   6.439 -0.3438 -0.0226 -0.2960
  138MOL0     C18946   9.210   8.631   6.404 -0.8280 -0.0141 -0.4667
  138MOL0     C18947   9.286   8.505   6.344  0.6511 -0.2118 -0.4330
  138MOL0     C18948   9.178   8.392   6.327  0.2937  0.6149  0.7878
  138MOL0     C18949   9.258   8.257   6.341  0.6265  0.1148  0.1143
  138MOL0     C18950   9.156   8.140   6.330 -0.1829  0.7894  0.5393
  138MOL0    Cl18951   9.045   8.120   6.463 -0.7746 -0.0564 -0.1803
  138MOL0     C18952   8.908   9.143   6.398 -0.7724  0.6835  1.1383
  138MOL0     C18953   8.795   9.192   6.325 -0.4673 -1.2319  0.0713
  138MOL0     O18954   8.599   9.383   6.212  0.3658  0.8908 -0.0523
  138MOL0     C18955   8.345   9.323   6.064  0.2090 -0.3512  0.2659
  138MOL0     C18956   8.211   9.335   6.028 -0.2301 -0.1622  0.4550
  138MOL0     N18957   7.490   9.401   5.670 -0.6244 -0.4639 -1.1646
  138MOL0     N18958   7.373   9.371   5.619  0.3904 -0.7117 -0.1405
  138MOL0     C18959   6.288   9.347   5.178  0.2921  0.5682  0.0297
  138MOL0     C18960   6.234   9.257   5.081  0.0333  0.1840  0.4088
  138MOL0     C18961   6.239   8.884   4.799  0.5500 -0.7656  0.0728
  138MOL0     C18962   6.162   8.812   4.896  0.2631  0.0559 -0.0956
  138MOL0     C18963   6.069   8.714   4.849  1.1955 -0.0447 -1.1507
  138MOL0     C18964   6.043   8.679   4.712 -1.1182 -0.8810 -0.1359
  138MOL0     O18965   5.947   8.596   4.662 -0.1335  0.2751 -0.4598
  138MOL0     C18966   5.962   8.463   4.721  0.8104  0.1790  0.0096
  138MOL0     C18967   5.831   8.427   4.781 -0.3740 -0.0370 -0.2157
  138MOL0     C18968   5.786   8.291   4.730  0.4474  1.1180  0.6024
  138MOL0     C18969   5.694   8.237   4.838  0.8315  0.6221  0.2241
  138MOL0     C18970   5.652   8.103   4.798 -0.4879  0.2143 -0.5306
  138MOL0     C18971   5.616   7.993   4.762  0.5076  0.8702 -0.3329
  138MOL0     C18972   6.129   8.744   4.625  0.6492 -0.6613 -0.0273
  138MOL0     C18973   6.230   8.842   4.662  0.2730  0.0752  0.2125
  138MOL0     C18974   6.334   8.896   4.560 -1.3648  0.3150 -0.1285
  138MOL0     H18975   6.516   9.085   5.010 -2.6559  0.3379 -5.2463
  138MOL0     H18976   6.603   9.204   5.183 -0.5212 -0.3880  1.3501
  138MOL0     H18977   6.358   9.547   5.409  1.4747 -2.5574  1.0929
  138MOL0     H18978   6.395   9.598   5.232  1.4323  4.3190  1.2853
  138MOL0     H18979   6.582   9.687   5.260 -0.0587 -0.4410 -0.5782
  138MOL0     H18980   6.490   9.734   5.406  0.5512  1.5312 -0.3818
  138MOL0     H18981   6.598   9.563   5.544 -1.9886  1.5149  0.0297
  138MOL0     H18982   6.688   9.498   5.417 -0.0107 -0.6481 -0.1043
  138MOL0     H18983   6.752   9.784   5.423  4.5845  1.0838  1.2998
  138MOL0     H18984   6.763   9.740   5.586  1.3966  2.3911 -0.9811
  138MOL0     H18985   6.973   9.720   5.463 -1.9431  2.1553 -0.7367
  138MOL0     H18986   6.905   9.601   5.353  3.3464 -0.2466 -0.4876
  138MOL0     H18987   6.862   9.527   5.626 -1.1482 -2.1167 -0.2719
  138MOL0     H18988   6.907   9.432   5.488  1.0038  0.3448  1.0820
  138MOL0     H18989   7.113   9.616   5.586 -0.7863  0.6857 -2.4547
  138MOL0     H18990   7.128   9.492   5.467 -0.7122 -4.2174  1.5722
  138MOL0     H18991   7.071   9.418   5.751  1.1049 -1.2219  0.5556
  138MOL0     H18992   7.127   9.310   5.618  0.2698  0.0546 -2.8759
  138MOL0     H18993   7.281   9.521   5.894 -0.9624  0.1064 -0.2198
  138MOL0     H18994   7.519   9.431   5.985 -1.5300  0.0264 -0.0542
  138MOL0     H18995   7.559   9.593   5.935  1.4560 -1.3265  2.4353
  138MOL0     H18996   7.692   9.342   5.853 -2.0412 -0.0816 -1.6538
  138MOL0     H18997   7.737   9.497   5.787 -1.6457 -0.1625 -0.7352
  138MOL0     H18998   7.822   9.550   6.030 -5.6183  0.9640  3.4647
  138MOL0     H18999   7.721   9.414   6.081 -1.0546  0.6725 -0.5194
  138MOL0     H19000   7.906   9.270   5.952  0.7362 -0.1678 -1.2549
  138MOL0     H19001   7.990   9.422   5.923  0.1385 -1.1980 -0.4818
  138MOL0     H19002   8.089   9.329   6.353  0.5446  1.3805  0.0834
  138MOL0     H19003   8.337   9.146   6.434  0.8374  0.6034 -2.4545
  138MOL0     H19004   8.270   9.290   6.520  0.4541  0.8606  1.2712
  138MOL0     H19005   8.435   9.279   6.467 -0.3350  0.6342  1.1075
  138MOL0     H19006   8.587   8.943   6.397 -1.7174  1.7068  0.1648
  138MOL0     H19007   8.793   8.851   6.535  0.8840 -1.8510 -1.0029
  138MOL0     H19008   9.075   8.863   6.377  2.3500 -0.6687  0.2163
  138MOL0     H19009   9.170   9.019   6.394  3.0904  1.6208  3.9762
  138MOL0     H19010   9.297   8.919   6.568  1.9269 -0.2531 -1.5398
  138MOL0     H19011   9.169   8.798   6.603 -2.7417  1.7496 -0.4165
  138MOL0     H19012   9.385   8.711   6.492 -1.1253 -0.7459  0.4634
  138MOL0     H19013   9.332   8.805   6.351 -0.1748 -0.6065 -0.5936
  138MOL0     H19014   9.129   8.661   6.336 -0.9705 -3.0906 -1.8483
  138MOL0     H19015   9.156   8.598   6.493  0.5586 -0.5811  0.1962
  138MOL0     H19016   9.324   8.517   6.242 -1.1734  1.7267 -0.9499
  138MOL0     H19017   9.371   8.479   6.407  0.0173  0.1103  0.5779
  138MOL0     H19018   9.131   8.393   6.228  0.3748  0.1654  0.7421
  138MOL0     H19019   9.104   8.403   6.407  0.5256 -0.9940  1.2641
  138MOL0     H19020   9.304   8.259   6.440  0.6629 -0.1853  0.1055
  138MOL0     H19021   9.341   8.238   6.272  1.5839  2.0027  0.6842
  138MOL0     H19022   9.216   8.050   6.316 -0.6375  0.8038 -1.9345
  138MOL0     H19023   9.101   8.142   6.235 -0.0043 -0.8696  0.3654
  138MOL0     H19024   8.992   9.210   6.381 -1.9448  1.6823 -1.2260
  138MOL0     H19025   8.810   9.291   6.282  2.3199  0.0894  3.5156
  138MOL0     H19026   8.413   9.339   5.981  0.2446 -0.0158  0.3561
  138MOL0     H19027   8.180   9.328   5.925 -1.1188 -0.3263  0.7199
  138MOL0     H19028   6.212   9.412   5.220  1.0858  1.0555  0.7467
  138MOL0     H19029   6.131   9.270   5.049 -0.4750  5.1243  3.0079
  138MOL0     H19030   6.172   8.827   5.003 -0.9653  4.8412 -0.4443
  138MOL0     H19031   6.004   8.667   4.923  1.6308  1.3372  0.1623
  138MOL0     H19032   5.993   8.389   4.647  0.4371  0.1622 -0.1327
  138MOL0     H19033   6.050   8.470   4.786  1.4957  1.6321 -0.9904
  138MOL0     H19034   5.751   8.499   4.760  0.3928  1.3966  1.4762
  138MOL0     H19035   5.844   8.433   4.889  0.8249  1.6966 -0.4131
  138MOL0     H19036   5.726   8.288   4.639 -0.1896  0.3597  1.0407
  138MOL0     H19037   5.874   8.230   4.705 -0.7028 -0.2221 -0.3630
  138MOL0     H19038   5.605   8.299   4.844  1.3476  1.2309  3.1907
  138MOL0     H19039   5.734   8.239   4.940  0.3037 -0.0178  0.4530
  138MOL0     H19040   5.605   7.906   4.702  0.1079  1.0672 -0.5519
  138MOL0     H19041   6.115   8.720   4.520 -0.3868 -2.3021  0.4378
  138MOL0     H19042   6.327   8.847   4.462 -2.0606 -3.9083  1.8202
  138MOL0     H19043   6.307   9.000   4.539  0.8155  0.4948 -2.5314
  138MOL0     H19044   6.438   8.881   4.590 -1.3477 -1.8727 -1.0534
  139MOL0     O19045   0.416   0.228  11.202  0.1467  0.0223 -0.7204
  139MOL0     C19046   0.375   0.125  11.252  0.0957  0.5994  0.5860
  139MOL0     O19047   0.394   0.006  11.192 -0.4010  0.7718  0.0009
  139MOL0     C19048   0.437   0.003  11.060  1.2304 -0.1582  0.3789
  139MOL0     C19049   0.391   0.092  10.957  0.0636  0.2676 -1.1646
  139MOL0     C19050   0.446   0.090  10.836 -0.0347  0.9129  1.7899
  139MOL0     C19051   0.543  -0.006  10.795 -0.1388  0.3864 -0.2893
  139MOL0     O19052   0.619  -0.015  10.681  0.7009  0.3886  0.1016
  139MOL0     C19053   0.599   0.097  10.588 -0.6315  0.4447 -0.3260
  139MOL0     C19054   0.694   0.073  10.462  0.2232  0.1915  0.2407
  139MOL0     C19055   0.678   0.202  10.377  0.5736  0.0770 -0.3879
  139MOL0     C19056   0.721   0.179  10.241  0.3247 -0.1463  1.2813
  139MOL0     C19057   0.623   0.119  10.138  0.0995  0.1327 -0.5944
  139MOL0     C19058   0.701   0.043  10.034  0.4666 -0.2668 -0.0420
  139MOL0     C19059   0.621  -0.024   9.928  0.0621  0.7144  0.3871
  139MOL0     C19060   0.694  -0.060   9.799  0.7128 -0.6427  0.0443
  139MOL0     N19061   0.727   0.063   9.733  0.5315 -0.4344  0.9053
  139MOL0     C19062   0.641   0.171   9.700 -0.2736  0.3475 -0.4453
  139MOL0     C19063   0.727   0.275   9.678 -0.3016  0.2552 -0.4378
  139MOL0     C19064   0.677   0.420   9.653 -0.4146  0.6947 -1.2815
  139MOL0     C19065   0.600   0.435   9.515 -1.1001  0.0756 -0.0875
  139MOL0     C19066   0.551   0.574   9.476 -0.6061  0.3161  0.0199
  139MOL0     C19067   0.489   0.570   9.334  0.5608 -0.0147  0.7553
  139MOL0     O19068   0.413   0.449   9.317  0.3886  0.4926  0.0722
  139MOL0     C19069   0.280   0.469   9.331 -0.5415  0.7872  0.0884
  139MOL0     C19070   0.202   0.464   9.214  0.4281  0.3432  0.1763
  139MOL0     C19071   0.064   0.454   9.211  0.1645  0.4079 -0.0572
  139MOL0     C19072   0.021   0.444   9.064 -1.1433 -0.6253  0.8381
  139MOL0     C19073  -0.012   0.447   9.332 -0.2981  0.3208  0.0689
  139MOL0     C19074  -0.158   0.446   9.350 -0.7571  0.6873  0.4048
  139MOL0     O19075  -0.199   0.406   9.474 -0.0199 -0.5913  0.6359
  139MOL0     C19076  -0.340   0.406   9.490 -0.5981 -0.1072  0.4180
  139MOL0     C19077  -0.419   0.320   9.415 -0.6405  0.9239 -0.3901
  139MOL0     C19078  -0.559   0.315   9.428  0.6313  0.5687 -0.2380
  139MOL0     C19079  -0.627   0.396   9.521 -0.3381  0.0878 -0.5771
  139MOL0     O19080  -0.762   0.415   9.520  0.4930 -0.5842  0.9817
  139MOL0     C19081  -0.810   0.472   9.391  0.3763 -0.1036  0.7944
  139MOL0     C19082  -0.965   0.474   9.360 -0.8545 -0.0275 -0.2805
  139MOL0     C19083  -1.039   0.339   9.332  0.0603 -1.2159  0.1307
  139MOL0     C19084  -1.190   0.361   9.315  0.0081 -0.7140 -0.2444
  139MOL0     C19085  -1.257   0.229   9.338 -0.0417 -0.8516 -0.2184
  139MOL0     C19086  -1.376   0.217   9.248  0.6987 -0.8538  0.5340
  139MOL0     C19087  -1.449   0.080   9.249 -0.2097  0.5849  0.1760
  139MOL0     C19088  -1.582   0.088   9.164  0.2460 -0.3020  0.7470
  139MOL0    Cl19089  -1.547   0.107   8.982  0.5117 -0.0303 -0.2866
  139MOL0     C19090  -0.544   0.478   9.603 -0.2607  0.8590  0.9941
  139MOL0     C19091  -0.413   0.483   9.586  0.0595 -0.4527 -0.5986
  139MOL0     O19092  -0.230   0.464   9.250 -0.3524 -0.6683 -0.1473
  139MOL0     C19093   0.065   0.453   9.454 -0.4081  1.1980 -0.2776
  139MOL0     C19094   0.204   0.460   9.451  0.0738 -0.4293 -0.1372
  139MOL0     N19095   0.857   0.236   9.693  0.1332  0.4268  0.2937
  139MOL0     N19096   0.856   0.113   9.740  0.9402 -0.1517  0.1786
  139MOL0     C19097   0.590  -0.094  10.900  0.6288 -0.9025  0.1697
  139MOL0     C19098   0.530  -0.091  11.029  0.4093  0.7141 -0.2573
  139MOL0     C19099   0.315   0.131  11.383 -0.0900 -0.0331 -0.0784
  139MOL0     C19100   0.236   0.247  11.408 -0.5638  0.2865 -0.1523
  139MOL0     C19101   0.162   0.275  11.520  0.6969  0.3778 -0.4098
  139MOL0     C19102   0.156   0.179  11.625 -0.6328  0.7937  0.2535
  139MOL0     O19103   0.082   0.180  11.745 -0.1703  0.1146 -0.1984
  139MOL0     C19104  -0.008   0.293  11.760 -1.1089 -0.4037 -0.4718
  139MOL0     C19105  -0.086   0.279  11.889 -1.1962 -0.5937 -0.1882
  139MOL0     C19106   0.002   0.252  12.010  0.4902 -0.2929  0.3527
  139MOL0     C19107   0.097   0.358  12.027  0.0056 -0.1925 -0.4739
  139MOL0     C19108   0.169   0.340  12.154 -0.4066 -0.3917  0.2408
  139MOL0     C19109   0.214   0.326  12.267 -0.5604 -0.4047 -0.0646
  139MOL0     C19110   0.236   0.063  11.604  0.1188 -0.9447 -0.0008
  139MOL0     C19111   0.317   0.040  11.490 -0.6710  0.5665 -0.5967
  139MOL0     C19112   0.409  -0.078  11.482  1.0388  0.0141  0.8439
  139MOL0     H19113   0.305   0.153  10.985  0.2956 -0.3532  1.0646
  139MOL0     H19114   0.418   0.158  10.757 -4.0586 -4.0438 -1.7539
  139MOL0     H19115   0.628   0.195  10.628  1.0420  1.9030 -4.5283
  139MOL0     H19116   0.494   0.103  10.557 -1.0047 -1.6283  0.3826
  139MOL0     H19117   0.791   0.046  10.505 -1.3155 -3.2769  1.9358
  139MOL0     H19118   0.650  -0.013  10.412 -1.7171  0.1595  1.9045
  139MOL0     H19119   0.572   0.229  10.382  0.7801  0.8955 -0.3890
  139MOL0     H19120   0.744   0.280  10.417 -0.0773 -1.0153  3.2047
  139MOL0     H19121   0.734   0.279  10.198 -1.7408 -0.7817 -1.0356
  139MOL0     H19122   0.806   0.109  10.239  0.1166 -0.3955  1.1178
  139MOL0     H19123   0.560   0.199  10.100 -0.8499  0.0851  0.7894
  139MOL0     H19124   0.563   0.052  10.201 -0.1809  0.7656 -0.1833
  139MOL0     H19125   0.776   0.108   9.986  1.5679 -0.3893  1.4290
  139MOL0     H19126   0.764  -0.033  10.081  3.2672  0.9228 -1.6280
  139MOL0     H19127   0.533   0.038   9.904  1.0571  1.4250 -1.7027
  139MOL0     H19128   0.582  -0.121   9.961  0.8492 -0.3370 -1.6122
  139MOL0     H19129   0.781  -0.125   9.810  1.8685  0.9943  0.9418
  139MOL0     H19130   0.628  -0.123   9.738 -0.3676 -0.6464  1.1778
  139MOL0     H19131   0.534   0.163   9.686  0.0514 -2.9483 -2.1512
  139MOL0     H19132   0.765   0.483   9.641 -0.5263  1.0217 -0.4875
  139MOL0     H19133   0.623   0.462   9.739  1.2207  2.8596 -1.2260
  139MOL0     H19134   0.665   0.400   9.434 -0.6860 -0.2944  0.3971
  139MOL0     H19135   0.520   0.360   9.509 -0.5532 -0.4617 -0.9602
  139MOL0     H19136   0.467   0.611   9.536  0.4597 -0.0723  1.8395
  139MOL0     H19137   0.637   0.641   9.488  0.8136 -1.5352  0.7860
  139MOL0     H19138   0.430   0.660   9.313  0.7648 -0.0647 -0.0329
  139MOL0     H19139   0.566   0.565   9.256 -0.8822  0.2910 -0.7353
  139MOL0     H19140   0.268   0.477   9.129  2.1443  1.5014  1.6007
  139MOL0     H19141   0.081   0.372   9.008  1.0836 -0.0864  2.4127
  139MOL0     H19142   0.031   0.537   9.006  0.4004 -0.3086  1.5569
  139MOL0     H19143  -0.085   0.416   9.063 -0.5815 -3.0795  2.4211
  139MOL0     H19144  -0.366   0.261   9.341 -1.3226 -0.2791  0.0710
  139MOL0     H19145  -0.619   0.257   9.358 -0.5801 -0.2927  1.4481
  139MOL0     H19146  -0.787   0.578   9.410  0.0078 -0.1128  1.3141
  139MOL0     H19147  -0.751   0.441   9.305 -0.7818  0.3401 -0.1858
  139MOL0     H19148  -1.007   0.504   9.456  2.2338 -3.4849  2.5007
  139MOL0     H19149  -0.976   0.543   9.277 -0.6583 -0.1527 -0.4113
  139MOL0     H19150  -1.022   0.263   9.408 -1.7963 -1.3153  0.4716
  139MOL0     H19151  -0.999   0.299   9.238  2.8362  3.1297 -0.8589
  139MOL0     H19152  -1.204   0.402   9.215  2.6936 -1.8263 -1.1624
  139MOL0     H19153  -1.235   0.419   9.396 -1.2158 -0.0751 -1.3430
  139MOL0     H19154  -1.180   0.156   9.312  2.0689  0.8345  0.9812
  139MOL0     H19155  -1.290   0.210   9.440  0.3444 -0.0699  0.0626
  139MOL0     H19156  -1.361   0.251   9.145 -1.7955  2.6263  1.1669
  139MOL0     H19157  -1.447   0.280   9.302  1.7969  1.7080 -0.8158
  139MOL0     H19158  -1.479   0.065   9.353  1.4294  1.5674  0.8159
  139MOL0     H19159  -1.380   0.001   9.221 -0.8391  0.8633 -2.4368
  139MOL0     H19160  -1.637   0.177   9.198 -0.1517  0.2744 -1.2723
  139MOL0     H19161  -1.644  -0.001   9.180 -1.3204  0.8777  1.5988
  139MOL0     H19162  -0.593   0.546   9.671 -1.0962  0.3464  0.9118
  139MOL0     H19163  -0.362   0.551   9.654 -1.6431 -1.0345  1.3745
  139MOL0     H19164   0.024   0.441   9.553  0.6367  1.2647  0.1711
  139MOL0     H19165   0.255   0.471   9.546 -1.1910  1.8008  0.3669
  139MOL0     H19166   0.666  -0.168  10.880  1.8020  0.3571 -0.1602
  139MOL0     H19167   0.562  -0.164  11.104  0.9169 -0.1984 -1.3391
  139MOL0     H19168   0.225   0.318  11.326 -2.5049  0.6486  0.3795
  139MOL0     H19169   0.100   0.362  11.542 -0.6380 -1.2254  2.8889
  139MOL0     H19170   0.053   0.383  11.762  0.4421 -1.4188  0.3261
  139MOL0     H19171  -0.083   0.294  11.681  0.1975 -0.2671 -1.7372
  139MOL0     H19172  -0.158   0.197  11.896 -2.3234  0.3138 -0.6767
  139MOL0     H19173  -0.152   0.367  11.893  0.7400  1.0412 -1.7765
  139MOL0     H19174  -0.062   0.242  12.099  2.2063 -0.8737  1.5646
  139MOL0     H19175   0.052   0.156  12.002  0.2748 -0.5349  1.6172
  139MOL0     H19176   0.035   0.442  12.059 -1.0963 -0.5855 -1.4863
  139MOL0     H19177   0.161   0.374  11.940 -0.1524  1.9040 -0.2628
  139MOL0     H19178   0.242   0.309  12.369 -0.8753 -1.8295 -0.1914
  139MOL0     H19179   0.235  -0.006  11.688 -0.2358  1.6370  2.2541
  139MOL0     H19180   0.509  -0.047  11.450  1.0398  2.7593  3.1094
  139MOL0     H19181   0.422  -0.122  11.582  2.0230 -3.1753 -0.5596
  139MOL0     H19182   0.358  -0.140  11.408  1.3421  0.9910 -0.2148
  140MOL0     O19183   7.000   5.898   7.071 -1.0641  0.0030 -0.0155
  140MOL0     C19184   6.931   5.952   6.984  0.0788  0.5579 -0.1627
  140MOL0     O19185   6.978   6.018   6.880 -0.3723  0.1998  0.0953
  140MOL0     C19186   7.111   5.997   6.847 -0.6834  0.2760 -0.4547
  140MOL0     C19187   7.142   5.942   6.717 -0.1670 -0.2155  0.5545
  140MOL0     C19188   7.277   5.920   6.682 -0.3031  1.3568 -0.2462
  140MOL0     C19189   7.385   5.961   6.767  0.6455  1.3942  0.3203
  140MOL0     O19190   7.509   5.930   6.714 -0.0625  0.4698  0.1456
  140MOL0     C19191   7.619   6.016   6.761  0.3506  0.3684  0.4284
  140MOL0     C19192   7.728   6.012   6.664  0.5826  0.1006 -0.5717
  140MOL0     C19193   7.703   6.052   6.512  0.7624  0.9828  0.2394
  140MOL0     C19194   7.830   6.044   6.439  0.8359 -0.7995  0.9020
  140MOL0     C19195   7.829   6.077   6.282  0.4779  0.0762 -0.5717
  140MOL0     C19196   7.953   6.087   6.204 -0.3925 -0.5181 -0.5662
  140MOL0     C19197   8.034   6.201   6.264  0.4282 -0.0436 -0.4001
  140MOL0     C19198   8.154   6.240   6.170  0.1993 -0.3862  0.2159
  140MOL0     N19199   8.254   6.125   6.182 -0.4167  0.4957  0.1317
  140MOL0     C19200   8.283   6.028   6.088  0.8094 -0.4004 -0.1888
  140MOL0     C19201   8.388   5.961   6.146 -0.3552 -0.3954  0.1129
  140MOL0     C19202   8.459   5.848   6.083  0.2346 -0.8050  0.6021
  140MOL0     C19203   8.371   5.723   6.032 -0.3658  0.1991  0.3493
  140MOL0     C19204   8.433   5.652   5.911 -0.3160  0.1684  0.6828
  140MOL0     C19205   8.330   5.555   5.849  0.6871  0.6288 -0.4019
  140MOL0     O19206   8.394   5.496   5.730 -0.5515  0.9121  0.8899
  140MOL0     C19207   8.343   5.382   5.680 -0.3303  0.4307  1.2546
  140MOL0     C19208   8.408   5.336   5.563  0.0275 -0.2531  0.0279
  140MOL0     C19209   8.377   5.219   5.496 -0.1508 -0.1364  0.2749
  140MOL0     C19210   8.478   5.181   5.396 -0.6517  1.2444  0.9790
  140MOL0     C19211   8.252   5.147   5.535 -0.3738 -0.1693  0.9013
  140MOL0     C19212   8.195   5.038   5.461 -0.3537  0.0324  0.2136
  140MOL0     O19213   8.091   4.969   5.506 -0.3234 -1.1726 -0.3468
  140MOL0     C19214   8.050   4.846   5.461 -0.3834 -0.0123  0.0120
  140MOL0     C19215   8.139   4.744   5.434  0.4081  0.7659  0.0803
  140MOL0     C19216   8.091   4.623   5.393 -0.1818 -0.1706  0.4352
  140MOL0     C19217   7.958   4.604   5.356  1.6701 -0.2485 -0.5152
  140MOL0     O19218   7.927   4.482   5.321 -0.2579 -0.6645  0.0029
  140MOL0     C19219   7.959   4.448   5.183  0.7113  1.0325  1.1494
  140MOL0     C19220   8.079   4.356   5.170 -0.0880  0.2231  0.2830
  140MOL0     C19221   8.071   4.233   5.254  0.4367  0.3174  0.0289
  140MOL0     C19222   8.101   4.093   5.174  0.2865  0.0638  0.3483
  140MOL0     C19223   8.133   3.977   5.280  0.1418  0.5689  0.0349
  140MOL0     C19224   8.168   3.841   5.214  0.0341 -0.2677  0.0601
  140MOL0     C19225   8.180   3.733   5.321 -0.2597  0.9451 -0.1064
  140MOL0     C19226   8.164   3.596   5.239  0.4822 -0.5285  0.2164
  140MOL0    Cl19227   8.302   3.583   5.109  0.0027  0.2197 -0.4386
  140MOL0     C19228   7.858   4.701   5.383  0.5002  0.0885  0.3085
  140MOL0     C19229   7.908   4.817   5.441  0.0458  0.2889  0.0417
  140MOL0     O19230   8.256   5.012   5.355  0.4368  0.0935  0.2357
  140MOL0     C19231   8.194   5.186   5.661  0.2594 -0.0537  0.1173
  140MOL0     C19232   8.229   5.303   5.727  0.2698 -0.5775 -0.3963
  140MOL0     N19233   8.432   6.027   6.257  0.0604  0.3271  0.9651
  140MOL0     N19234   8.351   6.126   6.283 -0.5110  1.0333  0.0125
  140MOL0     C19235   7.352   6.005   6.901 -0.1147  0.1942 -0.2793
  140MOL0     C19236   7.218   6.020   6.933  0.2045 -0.6954  0.0722
  140MOL0     C19237   6.782   5.954   7.014  0.0715 -0.0991  0.2571
  140MOL0     C19238   6.712   6.062   6.965 -0.6686 -0.0945  0.5212
  140MOL0     C19239   6.581   6.084   6.988  0.1684  0.2009  0.4861
  140MOL0     C19240   6.499   5.985   7.054 -0.3840  0.2886 -0.5488
  140MOL0     O19241   6.365   6.009   7.069  0.7152  0.5190  0.5725
  140MOL0     C19242   6.282   5.919   7.149  0.6788 -0.7617  0.0841
  140MOL0     C19243   6.132   5.954   7.164 -0.2602 -0.3242  0.8080
  140MOL0     C19244   6.048   5.913   7.038  0.9384 -0.0185 -1.0204
  140MOL0     C19245   5.910   5.971   7.068 -0.0108 -1.3531  0.2193
  140MOL0     C19246   5.812   5.884   6.993  0.0012  0.3759 -0.2141
  140MOL0     C19247   5.722   5.827   6.942 -0.4899  0.3688  0.5065
  140MOL0     C19248   6.570   5.870   7.097 -0.1279  0.1979 -0.3837
  140MOL0     C19249   6.706   5.860   7.078  0.1592  0.6711 -0.2691
  140MOL0     C19250   6.749   5.730   7.128 -0.3786  0.1561 -0.9211
  140MOL0     H19251   7.066   5.895   6.655  2.4359 -1.6786 -1.7628
  140MOL0     H19252   7.313   5.878   6.589 -1.0103  2.1099 -0.8751
  140MOL0     H19253   7.657   5.972   6.853 -1.0449  1.8230  1.7503
  140MOL0     H19254   7.590   6.121   6.774 -1.2505 -0.0520  0.3910
  140MOL0     H19255   7.782   6.098   6.705  0.5281  0.0397 -0.3694
  140MOL0     H19256   7.790   5.923   6.680  0.0259 -0.9393 -3.4866
  140MOL0     H19257   7.628   5.982   6.476  0.5628 -0.9907  3.9847
  140MOL0     H19258   7.657   6.152   6.513 -1.0891  0.1969 -1.0512
  140MOL0     H19259   7.888   6.122   6.490  1.1618  1.8219 -3.0584
  140MOL0     H19260   7.864   5.941   6.444  0.7524 -1.1555 -3.0210
  140MOL0     H19261   7.790   6.180   6.280  0.5594  0.1004 -1.0056
  140MOL0     H19262   7.757   6.010   6.234 -1.4382  0.2967  1.8340
  140MOL0     H19263   8.007   5.997   6.234  1.0553  0.2157 -0.8856
  140MOL0     H19264   7.934   6.083   6.096  2.1741  0.4840 -1.1238
  140MOL0     H19265   8.071   6.172   6.363 -0.5815  2.3650  0.7632
  140MOL0     H19266   7.960   6.279   6.284 -1.6603 -2.1308  0.4119
  140MOL0     H19267   8.118   6.253   6.068 -0.2617 -0.7366  0.3278
  140MOL0     H19268   8.191   6.332   6.216 -2.0717 -0.7180  3.0340
  140MOL0     H19269   8.234   6.014   5.992 -2.2758 -3.0856  1.5644
  140MOL0     H19270   8.548   5.822   6.140  0.5152 -2.2131 -0.4190
  140MOL0     H19271   8.492   5.896   5.990 -0.5042  0.8311  1.1408
  140MOL0     H19272   8.376   5.647   6.110 -0.6051 -1.9956 -1.6360
  140MOL0     H19273   8.263   5.739   6.017 -0.6431 -1.4837  0.3278
  140MOL0     H19274   8.460   5.723   5.833 -2.7414  1.6151  1.0714
  140MOL0     H19275   8.519   5.594   5.944  1.8026  1.8702 -1.5029
  140MOL0     H19276   8.295   5.484   5.924 -1.9189  0.3351 -1.7591
  140MOL0     H19277   8.240   5.608   5.817  0.3540  1.1965  1.4162
  140MOL0     H19278   8.503   5.388   5.548 -1.1105  1.9603  0.0065
  140MOL0     H19279   8.570   5.240   5.408  2.4933 -3.0609  0.5037
  140MOL0     H19280   8.425   5.186   5.300  3.1031 -0.7670 -1.4632
  140MOL0     H19281   8.509   5.076   5.404  0.4051  1.4466 -0.0895
  140MOL0     H19282   8.247   4.750   5.438  0.3673  0.8229  2.9369
  140MOL0     H19283   8.175   4.555   5.378  0.8294  1.7287 -4.5962
  140MOL0     H19284   7.875   4.389   5.143  2.3063 -0.6228  0.0373
  140MOL0     H19285   7.957   4.539   5.123 -0.3347 -0.2099 -0.8595
  140MOL0     H19286   8.089   4.321   5.067  0.8429  3.9929 -1.0672
  140MOL0     H19287   8.171   4.400   5.209  1.1304 -2.8125  1.1475
  140MOL0     H19288   7.971   4.219   5.295 -0.5662  2.3472 -1.5439
  140MOL0     H19289   8.141   4.237   5.338 -2.3627 -0.4592  2.5382
  140MOL0     H19290   8.177   4.106   5.096  0.7090  0.7171  0.8618
  140MOL0     H19291   8.016   4.073   5.107  1.2028 -1.0108 -0.5263
  140MOL0     H19292   8.215   4.012   5.343  0.7990  2.2848 -1.6688
  140MOL0     H19293   8.048   3.954   5.345 -0.9530 -3.8933 -2.5852
  140MOL0     H19294   8.256   3.848   5.150 -0.9219  0.0058 -1.2576
  140MOL0     H19295   8.084   3.827   5.146 -1.0465  1.3716  0.9926
  140MOL0     H19296   8.100   3.741   5.394 -1.5994  2.5834 -1.6547
  140MOL0     H19297   8.277   3.735   5.373 -1.2197 -0.9725  1.9090
  140MOL0     H19298   8.062   3.593   5.199 -0.6248  2.1203  2.4604
  140MOL0     H19299   8.179   3.510   5.304 -2.9937 -0.7316  0.9480
  140MOL0     H19300   7.755   4.680   5.355  0.8842  0.4770 -1.5297
  140MOL0     H19301   7.848   4.907   5.455  1.2174  0.8377  1.8268
  140MOL0     H19302   8.105   5.129   5.688  1.1538 -2.2240 -1.3076
  140MOL0     H19303   8.188   5.338   5.821  1.9007  2.0202 -0.5527
  140MOL0     H19304   7.424   6.005   6.981  0.5987 -0.0505 -0.9133
  140MOL0     H19305   7.201   6.058   7.033 -1.5611 -2.7413  0.6282
  140MOL0     H19306   6.772   6.137   6.913 -0.6675 -1.7045 -1.9429
  140MOL0     H19307   6.525   6.174   6.963 -2.4765 -1.0634  1.5211
  140MOL0     H19308   6.291   5.813   7.128  1.0804 -1.0295  1.5145
  140MOL0     H19309   6.323   5.923   7.250  3.9852 -1.6013 -1.1014
  140MOL0     H19310   6.130   6.062   7.183 -0.0537 -0.0063 -0.8810
  140MOL0     H19311   6.110   5.900   7.256  5.4630 -1.2388  2.0671
  140MOL0     H19312   6.077   5.963   6.946  2.1989  1.5708  0.1803
  140MOL0     H19313   6.042   5.805   7.020  1.8933  0.1294 -2.2924
  140MOL0     H19314   5.920   6.071   7.023  3.3206 -1.8851 -0.4994
  140MOL0     H19315   5.874   5.975   7.170 -1.2886 -1.4187 -0.2182
  140MOL0     H19316   5.642   5.789   6.881  0.4380  3.4146 -2.8981
  140MOL0     H19317   6.504   5.799   7.146 -2.7789  2.2518 -0.7442
  140MOL0     H19318   6.728   5.725   7.236  0.7889  0.3619 -0.6658
  140MOL0     H19319   6.693   5.649   7.082 -3.4568  1.4161  0.3411
  140MOL0     H19320   6.858   5.718   7.130  0.0665  2.9396  2.6256
  141MOL0     O19321   9.274   8.371   3.824  0.0428 -0.5945 -0.3924
  141MOL0     C19322   9.168   8.313   3.832 -0.1266  0.4184  0.7109
  141MOL0     O19323   9.062   8.332   3.748 -1.6406  0.1359  0.3566
  141MOL0     C19324   9.085   8.438   3.654  0.3362  0.8738 -0.7852
  141MOL0     C19325   9.076   8.411   3.511  0.0831 -0.6952 -0.4102
  141MOL0     C19326   9.107   8.506   3.414 -0.3325  0.4656 -1.1990
  141MOL0     C19327   9.129   8.639   3.453  0.0125  0.2594 -0.0583
  141MOL0     O19328   9.154   8.735   3.360  0.1834  0.1001  0.0923
  141MOL0     C19329   9.071   8.730   3.250  0.9231  0.0844  0.5359
  141MOL0     C19330   9.048   8.868   3.204 -0.2099 -0.5609 -0.3326
  141MOL0     C19331   8.904   8.911   3.217 -0.5430  1.1308  0.6669
  141MOL0     C19332   8.857   8.959   3.356  0.6763  0.7975  1.1924
  141MOL0     C19333   8.744   9.061   3.363 -1.1966  0.1842  0.8282
  141MOL0     C19334   8.701   9.079   3.508  0.5310 -0.3226 -0.2192
  141MOL0     C19335   8.797   9.160   3.593 -0.0680  0.4455 -1.3023
  141MOL0     C19336   8.735   9.244   3.710  0.0380 -0.5041 -0.9850
  141MOL0     N19337   8.640   9.343   3.664 -0.2369 -0.3052  0.6542
  141MOL0     C19338   8.664   9.429   3.560 -0.4858  0.6693  0.2724
  141MOL0     C19339   8.563   9.521   3.573 -0.0046  0.8317  0.7243
  141MOL0     C19340   8.548   9.633   3.483 -0.4767  0.1149  1.1983
  141MOL0     C19341   8.461   9.597   3.370 -0.0334 -0.6158  1.5144
  141MOL0     C19342   8.477   9.695   3.246  0.0298 -0.0508  0.4614
  141MOL0     C19343   8.359   9.684   3.151  0.3923  1.1802 -0.4649
  141MOL0     O19344   8.384   9.755   3.031  0.6315 -0.3467 -0.0420
  141MOL0     C19345   8.336   9.881   3.025  0.4023 -0.9042  0.2762
  141MOL0     C19346   8.202   9.909   2.995 -0.0194 -0.4653  0.9756
  141MOL0     C19347   8.159  10.038   2.957  0.7383 -0.3223  0.3672
  141MOL0     C19348   8.016  10.044   2.924 -0.1212  0.2695  0.3145
  141MOL0     C19349   8.255  10.144   2.963  0.1988 -0.0842 -0.2101
  141MOL0     C19350   8.227  10.283   2.943 -0.2304 -1.1642 -0.6301
  141MOL0     O19351   8.328  10.375   2.982 -0.1318 -0.5192 -0.1697
  141MOL0     C19352   8.318  10.510   2.940  0.2315 -0.2180 -0.1410
  141MOL0     C19353   8.200  10.586   2.941  0.1564  0.7328  0.9697
  141MOL0     C19354   8.206  10.728   2.919 -0.0566 -1.3671 -0.5940
  141MOL0     C19355   8.332  10.797   2.890 -0.8820  0.0834  0.2302
  141MOL0     O19356   8.319  10.936   2.870 -0.1745  0.1468  0.6225
  141MOL0     C19357   8.433  11.015   2.835  0.1372 -0.6029  0.0561
  141MOL0     C19358   8.373  11.163   2.815  0.4893  0.2743  0.5028
  141MOL0     C19359   8.313  11.169   2.674 -0.7654  0.1550 -0.5546
  141MOL0     C19360   8.412  11.146   2.560  0.2764 -0.2853 -0.3467
  141MOL0     C19361   8.340  11.147   2.428 -0.0654 -0.8395 -0.4014
  141MOL0     C19362   8.411  11.076   2.313  0.5598  0.0657 -0.5768
  141MOL0     C19363   8.325  11.095   2.188  0.2577  0.4325  0.2832
  141MOL0     C19364   8.370  11.009   2.072 -0.2407 -0.1270 -0.6007
  141MOL0    Cl19365   8.289  11.048   1.921  0.0986  0.0594  0.5113
  141MOL0     C19366   8.450  10.716   2.886  0.0972 -0.1985 -0.2251
  141MOL0     C19367   8.442  10.580   2.915  0.3781  0.9064  0.8426
  141MOL0     O19368   8.113  10.312   2.905  0.0232 -0.2382 -1.2135
  141MOL0     C19369   8.386  10.111   3.013  0.2810  0.1665 -0.6005
  141MOL0     C19370   8.425   9.985   3.039  0.5397  1.3443  0.0098
  141MOL0     N19371   8.476   9.485   3.672 -0.7692  0.7920 -0.6246
  141MOL0     N19372   8.530   9.378   3.728 -1.0680 -0.0084 -1.0575
  141MOL0     C19373   9.134   8.665   3.588 -0.0624 -0.6822 -0.2914
  141MOL0     C19374   9.113   8.572   3.683  0.4904  0.0505 -0.5161
  141MOL0     C19375   9.165   8.212   3.940 -0.0940  0.1208 -0.0713
  141MOL0     C19376   9.271   8.205   4.045 -0.3800  0.4021 -0.7871
  141MOL0     C19377   9.257   8.125   4.162  0.3238  0.5998 -0.3134
  141MOL0     C19378   9.160   8.020   4.157  0.3750  0.1253  0.5102
  141MOL0     O19379   9.126   7.927   4.248 -0.9916 -1.0557 -0.8563
  141MOL0     C19380   9.236   7.879   4.323  0.0882 -0.2138  0.6952
  141MOL0     C19381   9.205   7.748   4.397 -0.1256 -0.1361 -0.2570
  141MOL0     C19382   9.192   7.630   4.308  0.8815  1.7546  0.0806
  141MOL0     C19383   9.087   7.534   4.381 -0.1239  0.2138 -0.0636
  141MOL0     C19384   9.071   7.411   4.301  0.0139 -0.4449  0.0268
  141MOL0     C19385   9.063   7.306   4.237 -0.2617 -0.1616 -0.7459
  141MOL0     C19386   9.074   8.023   4.047 -0.3541  0.8582  0.0317
  141MOL0     C19387   9.067   8.113   3.944 -0.1482 -0.2952  0.4965
  141MOL0     C19388   8.973   8.074   3.824 -0.2103 -0.6953  0.9501
  141MOL0     H19389   9.053   8.309   3.481  0.5446 -0.5224 -1.4027
  141MOL0     H19390   9.094   8.495   3.306 -3.9030  3.7137 -1.3269
  141MOL0     H19391   8.974   8.683   3.269  0.9683 -2.1321 -3.4820
  141MOL0     H19392   9.115   8.682   3.161  1.4507 -0.0844  0.8872
  141MOL0     H19393   9.116   8.938   3.254 -1.7932 -0.0614  1.2371
  141MOL0     H19394   9.069   8.862   3.097 -4.4512 -1.5587 -1.3050
  141MOL0     H19395   8.892   8.986   3.139 -2.5799 -2.2923 -2.6421
  141MOL0     H19396   8.840   8.835   3.172  1.4305  1.4015 -2.9526
  141MOL0     H19397   8.827   8.866   3.404 -0.3015 -1.0462 -2.6140
  141MOL0     H19398   8.941   9.005   3.411  1.2509  0.1977  0.8298
  141MOL0     H19399   8.657   9.020   3.310 -0.0303 -1.8327  0.3622
  141MOL0     H19400   8.774   9.155   3.315  1.9163 -1.1267 -0.0294
  141MOL0     H19401   8.600   9.121   3.509 -0.3715 -2.1964  2.7141
  141MOL0     H19402   8.687   8.980   3.553 -4.0858  0.2954  0.1340
  141MOL0     H19403   8.849   9.228   3.525 -1.8384  1.8471 -1.3521
  141MOL0     H19404   8.867   9.092   3.640 -0.8956 -0.7280 -1.7248
  141MOL0     H19405   8.688   9.184   3.789 -0.9145  0.5931 -0.6908
  141MOL0     H19406   8.800   9.315   3.762 -2.7919  1.5332  0.0704
  141MOL0     H19407   8.740   9.420   3.483 -1.0814 -0.7456 -0.1683
  141MOL0     H19408   8.645   9.673   3.452 -0.4221 -1.4039 -0.7848
  141MOL0     H19409   8.506   9.716   3.539 -1.6632 -0.3902  1.0800
  141MOL0     H19410   8.477   9.499   3.326 -1.1706  0.5866 -1.9455
  141MOL0     H19411   8.358   9.592   3.408  0.6739  0.2195  3.7195
  141MOL0     H19412   8.504   9.798   3.269  0.4453  0.7494 -2.9857
  141MOL0     H19413   8.565   9.668   3.186  1.7808  1.3857  2.2797
  141MOL0     H19414   8.348   9.578   3.128 -1.4700  2.0797 -4.6854
  141MOL0     H19415   8.271   9.728   3.200  0.9622  1.3000  0.4951
  141MOL0     H19416   8.141   9.820   2.985  2.1093 -2.5588  4.2708
  141MOL0     H19417   7.961   9.962   2.971  0.3337 -0.7373 -0.8612
  141MOL0     H19418   8.011  10.020   2.818 -0.0623 -0.5105  0.4780
  141MOL0     H19419   7.958  10.134   2.944 -0.7872  0.0232 -0.4660
  141MOL0     H19420   8.105  10.538   2.960  0.1256  0.1883 -0.4729
  141MOL0     H19421   8.117  10.788   2.934 -0.7427 -2.2353 -1.0783
  141MOL0     H19422   8.497  11.012   2.923 -1.4452  1.0625  1.3304
  141MOL0     H19423   8.481  10.971   2.747  0.2732 -1.5542  0.5929
  141MOL0     H19424   8.300  11.173   2.896  0.4785 -1.9962  0.8354
  141MOL0     H19425   8.445  11.245   2.818 -0.0378  0.8941 -1.6494
  141MOL0     H19426   8.268  11.267   2.661 -0.3857  0.2424 -1.2587
  141MOL0     H19427   8.252  11.079   2.655 -0.1282  0.2398 -3.4666
  141MOL0     H19428   8.458  11.047   2.572 -1.9004 -1.1885  1.2118
  141MOL0     H19429   8.489  11.223   2.573 -0.4375  0.1095  2.0739
  141MOL0     H19430   8.243  11.097   2.438 -0.0828 -0.5365  1.0246
  141MOL0     H19431   8.304  11.243   2.391  3.1804 -0.0259 -1.8221
  141MOL0     H19432   8.404  10.969   2.337 -0.4930 -0.1524 -1.7620
  141MOL0     H19433   8.514  11.105   2.288  2.0073 -1.9078  2.4754
  141MOL0     H19434   8.333  11.197   2.149  1.7536  0.4419  0.5451
  141MOL0     H19435   8.220  11.067   2.201  0.3400 -0.0746 -0.1164
  141MOL0     H19436   8.355  10.904   2.098 -0.0506 -0.1864 -0.7251
  141MOL0     H19437   8.478  11.012   2.052  0.0803 -1.8805  0.6386
  141MOL0     H19438   8.549  10.757   2.866  0.5841 -1.2122  0.0808
  141MOL0     H19439   8.534  10.523   2.910  0.3644  0.6314  2.8920
  141MOL0     H19440   8.462  10.189   3.019 -1.3326  1.6969  1.3245
  141MOL0     H19441   8.528   9.959   3.065 -0.0488 -4.2617 -1.8334
  141MOL0     H19442   9.166   8.765   3.616  0.0245 -0.3138 -1.6240
  141MOL0     H19443   9.127   8.616   3.781  5.1395  0.9583 -1.3852
  141MOL0     H19444   9.332   8.294   4.061 -0.7703  0.3517  1.3287
  141MOL0     H19445   9.317   8.127   4.253  0.4542  0.0214 -0.3788
  141MOL0     H19446   9.320   7.856   4.258 -0.6436 -2.4183  0.4347
  141MOL0     H19447   9.273   7.962   4.384 -4.6866  0.5936  3.0071
  141MOL0     H19448   9.115   7.756   4.457 -1.7800 -1.2088 -2.4511
  141MOL0     H19449   9.295   7.737   4.459 -0.9755 -0.3625  0.9583
  141MOL0     H19450   9.152   7.654   4.209  1.8781 -0.5829 -0.9695
  141MOL0     H19451   9.289   7.590   4.278  0.9700  2.0467 -0.0245
  141MOL0     H19452   8.992   7.586   4.375  0.7464  1.9040  0.3084
  141MOL0     H19453   9.116   7.514   4.484 -0.3222  1.4584  0.2403
  141MOL0     H19454   9.054   7.217   4.177  0.8340  0.9021 -2.5875
  141MOL0     H19455   9.012   7.935   4.031  0.4730  0.6644 -2.5488
  141MOL0     H19456   8.899   8.153   3.807  0.5485  0.0280  0.9320
  141MOL0     H19457   9.037   8.062   3.736 -0.5832 -1.0281  0.7247
  141MOL0     H19458   8.913   7.983   3.830 -0.4843 -0.6972 -1.0529
  142MOL0     O19459   7.083   4.074   0.210 -0.2797  0.2914 -0.6009
  142MOL0     C19460   7.147   4.042   0.317 -0.3523  0.3464  0.7502
  142MOL0     O19461   7.238   3.936   0.315  0.0381  0.1703 -0.0434
  142MOL0     C19462   7.261   3.868   0.203 -0.2226  0.6882  0.4357
  142MOL0     C19463   7.304   3.929   0.083 -0.1351  0.3974 -0.8726
  142MOL0     C19464   7.327   3.847  -0.029  0.9523 -0.1417  0.2939
  142MOL0     C19465   7.335   3.705  -0.015  0.3098 -0.6441 -0.4315
  142MOL0     O19466   7.373   3.618  -0.113 -0.8935 -0.8015  0.0183
  142MOL0     C19467   7.446   3.655  -0.236 -0.8616 -0.1859  0.4608
  142MOL0     C19468   7.591   3.683  -0.195 -0.0576 -0.8434  1.0444
  142MOL0     C19469   7.682   3.680  -0.324  0.1929  0.0222 -0.1513
  142MOL0     C19470   7.822   3.670  -0.274  0.1565  0.4749 -0.7454
  142MOL0     C19471   7.912   3.698  -0.389 -1.0240  0.8940 -0.5190
  142MOL0     C19472   8.060   3.712  -0.344 -0.6194 -0.7005 -0.2014
  142MOL0     C19473   8.176   3.693  -0.448  1.5718  1.3197 -0.6702
  142MOL0     C19474   8.211   3.830  -0.510 -0.8071  0.0020  1.1850
  142MOL0     N19475   8.167   3.849  -0.652  0.1988  0.2682  0.3475
  142MOL0     C19476   8.170   3.756  -0.759 -0.3375 -0.0539 -0.7446
  142MOL0     C19477   8.149   3.831  -0.869  1.7801 -0.7195  0.8614
  142MOL0     C19478   8.153   3.778  -1.009 -0.6922 -0.1316  0.6856
  142MOL0     C19479   8.021   3.816  -1.081  0.4957 -0.4205 -0.3749
  142MOL0     C19480   8.036   3.804  -1.239 -0.4888 -0.9378 -0.2648
  142MOL0     C19481   8.073   3.928  -1.320  0.1854  0.1096 -0.0182
  142MOL0     O19482   8.066   3.868  -1.454 -0.3443 -0.1318 -0.2796
  142MOL0     C19483   8.178   3.814  -1.515  0.1864  0.6999 -0.5259
  142MOL0     C19484   8.173   3.696  -1.591 -0.1494  0.3482  0.0928
  142MOL0     C19485   8.285   3.642  -1.665 -0.8549  0.3497 -0.3541
  142MOL0     C19486   8.275   3.516  -1.747 -0.3911  0.2842 -0.0501
  142MOL0     C19487   8.410   3.721  -1.662  0.3608  0.3344  0.4425
  142MOL0     C19488   8.528   3.676  -1.739 -0.2048  0.3989 -0.1220
  142MOL0     O19489   8.636   3.753  -1.715 -0.4254  0.0506 -0.0960
  142MOL0     C19490   8.760   3.693  -1.720  0.1178 -0.1690 -0.5646
  142MOL0     C19491   8.808   3.603  -1.623  0.8747  1.2097  0.3305
  142MOL0     C19492   8.937   3.570  -1.622 -0.6090  0.4383 -0.2400
  142MOL0     C19493   9.022   3.625  -1.726 -0.2001 -0.3768  1.4154
  142MOL0     O19494   9.153   3.590  -1.733  0.1902  0.4459 -0.2642
  142MOL0     C19495   9.183   3.447  -1.743  0.1404 -0.2081  1.0058
  142MOL0     C19496   9.327   3.417  -1.772 -0.0393  0.3132  0.0899
  142MOL0     C19497   9.374   3.505  -1.890 -1.5078 -0.0864 -0.0988
  142MOL0     C19498   9.474   3.426  -1.982  0.3671  0.3396 -1.1764
  142MOL0     C19499   9.508   3.519  -2.105  0.4300  0.1879  1.0061
  142MOL0     C19500   9.615   3.453  -2.203  0.4783  0.4773 -0.6125
  142MOL0     C19501   9.674   3.554  -2.298  0.1468  0.4186  0.1378
  142MOL0     C19502   9.578   3.619  -2.390  0.5582  0.1101  0.1754
  142MOL0    Cl19503   9.671   3.722  -2.512  0.0332 -0.1872  0.3338
  142MOL0     C19504   8.971   3.713  -1.830  0.3610 -0.5131 -0.3289
  142MOL0     C19505   8.840   3.745  -1.815  0.1640 -0.6785 -0.0689
  142MOL0     O19506   8.537   3.587  -1.823  0.0560  0.5033 -0.4488
  142MOL0     C19507   8.410   3.829  -1.574  0.2989 -0.6241  0.7097
  142MOL0     C19508   8.298   3.882  -1.514 -0.1607 -0.7984 -0.5547
  142MOL0     N19509   8.128   3.964  -0.837  0.1066  0.4946 -0.9688
  142MOL0     N19510   8.141   3.975  -0.706  0.3893 -0.3582  0.4152
  142MOL0     C19511   7.299   3.646   0.109  1.6049 -0.7396 -0.3916
  142MOL0     C19512   7.269   3.727   0.218  0.0021  0.2076  0.3416
  142MOL0     C19513   7.154   4.132   0.440  0.1835 -0.0724  1.3792
  142MOL0     C19514   7.270   4.115   0.536  0.8558 -0.1565  0.3451
  142MOL0     C19515   7.285   4.212   0.631  0.3168  0.3026  0.3889
  142MOL0     C19516   7.182   4.311   0.653 -0.4760 -0.7749 -0.7268
  142MOL0     O19517   7.187   4.413   0.749 -0.5855 -0.5008 -0.2089
  142MOL0     C19518   7.305   4.439   0.824  0.2624  1.3214 -1.0665
  142MOL0     C19519   7.411   4.526   0.763  0.2731 -0.4739  0.2025
  142MOL0     C19520   7.530   4.534   0.865  0.3554 -0.1211  0.1384
  142MOL0     C19521   7.652   4.590   0.799  0.5714  0.7282  0.4160
  142MOL0     C19522   7.776   4.570   0.872  0.9537 -0.3016  0.1137
  142MOL0     C19523   7.875   4.560   0.942 -0.3450 -0.2211  0.5915
  142MOL0     C19524   7.072   4.317   0.573 -0.3727 -0.3202  0.0524
  142MOL0     C19525   7.059   4.239   0.465 -0.8535  0.9917 -0.1940
  142MOL0     C19526   6.929   4.247   0.393 -0.4773  0.4092 -0.2626
  142MOL0     H19527   7.323   4.035   0.071  0.8339  0.6659  2.2491
  142MOL0     H19528   7.371   3.888  -0.120  2.2541 -1.6608  0.1813
  142MOL0     H19529   7.395   3.740  -0.281 -3.8643 -2.7899 -1.4477
  142MOL0     H19530   7.443   3.574  -0.309  3.4916  0.8958 -1.1919
  142MOL0     H19531   7.583   3.779  -0.142 -4.3253  0.3325 -1.2083
  142MOL0     H19532   7.623   3.603  -0.129 -1.3329  0.0685  2.8533
  142MOL0     H19533   7.677   3.581  -0.369 -3.1308 -1.5087  3.0775
  142MOL0     H19534   7.667   3.767  -0.389  0.4798  0.0737 -0.1481
  142MOL0     H19535   7.827   3.760  -0.212  1.6794  0.7301 -1.1894
  142MOL0     H19536   7.856   3.577  -0.226 -1.0590 -0.4300 -1.5663
  142MOL0     H19537   7.882   3.790  -0.441 -1.9726  0.7176 -0.3121
  142MOL0     H19538   7.898   3.621  -0.466 -1.4691  1.0346 -0.5848
  142MOL0     H19539   8.071   3.800  -0.280  1.8089 -2.4725  2.0130
  142MOL0     H19540   8.080   3.627  -0.278  2.5069 -0.6140 -0.9303
  142MOL0     H19541   8.146   3.627  -0.530  0.1048 -1.0364  1.6015
  142MOL0     H19542   8.261   3.650  -0.393 -0.6138  1.2589  3.0526
  142MOL0     H19543   8.170   3.911  -0.449 -2.1841 -0.3086  0.7199
  142MOL0     H19544   8.320   3.838  -0.514 -0.6466 -2.0215  0.3564
  142MOL0     H19545   8.194   3.650  -0.765 -4.5435 -1.1407 -1.6950
  142MOL0     H19546   8.161   3.669  -1.020  0.5340  0.2149 -3.2354
  142MOL0     H19547   8.232   3.818  -1.072 -1.1104  0.4451  0.5169
  142MOL0     H19548   7.937   3.753  -1.049 -0.7942  1.1329 -0.5347
  142MOL0     H19549   7.997   3.921  -1.063 -0.3413 -0.5263 -0.7774
  142MOL0     H19550   8.115   3.731  -1.258 -0.6576 -1.7498  1.8625
  142MOL0     H19551   7.946   3.761  -1.286 -1.0578  0.4366 -0.4752
  142MOL0     H19552   7.997   4.006  -1.306 -1.1951 -1.5840  3.0801
  142MOL0     H19553   8.173   3.967  -1.301  0.5306 -1.4725  1.7165
  142MOL0     H19554   8.074   3.652  -1.593 -0.8944  1.9527  0.5597
  142MOL0     H19555   8.188   3.460  -1.713  0.9618 -1.5909  0.5182
  142MOL0     H19556   8.361   3.456  -1.716 -1.2303 -1.0145 -0.1508
  142MOL0     H19557   8.272   3.547  -1.852  0.7518 -1.8677 -0.7933
  142MOL0     H19558   8.736   3.570  -1.549  0.0289  0.9443 -0.5910
  142MOL0     H19559   8.974   3.500  -1.548  0.2102 -1.5489 -2.3885
  142MOL0     H19560   9.160   3.397  -1.648  2.0001 -1.4532  0.8582
  142MOL0     H19561   9.125   3.401  -1.823  1.0445 -1.1319  0.8579
  142MOL0     H19562   9.379   3.433  -1.677 -0.9798  1.9691  0.3524
  142MOL0     H19563   9.337   3.309  -1.790  0.5320 -0.2592  3.2015
  142MOL0     H19564   9.430   3.588  -1.845  1.6476 -2.0189 -0.1448
  142MOL0     H19565   9.289   3.546  -1.945 -1.9124 -2.5459 -1.4697
  142MOL0     H19566   9.432   3.331  -2.016  0.2772  0.9212 -2.8069
  142MOL0     H19567   9.570   3.406  -1.934 -1.9805 -0.4985  3.8069
  142MOL0     H19568   9.421   3.534  -2.170 -1.5717  0.7159  3.6426
  142MOL0     H19569   9.547   3.614  -2.067  0.2624  2.0965 -3.0564
  142MOL0     H19570   9.567   3.365  -2.246 -1.5224 -0.5758  3.2643
  142MOL0     H19571   9.696   3.408  -2.143  2.2024  1.8822 -1.7793
  142MOL0     H19572   9.746   3.490  -2.350 -2.3946 -1.3279 -1.4453
  142MOL0     H19573   9.731   3.631  -2.245  3.0975  0.8553 -3.3070
  142MOL0     H19574   9.513   3.689  -2.337  1.1933  1.2640 -0.5234
  142MOL0     H19575   9.518   3.543  -2.442 -0.5393 -0.1385  1.7362
  142MOL0     H19576   9.036   3.753  -1.907  1.7291  0.1539  1.1183
  142MOL0     H19577   8.797   3.811  -1.890 -0.8235  0.3446  1.3549
  142MOL0     H19578   8.499   3.890  -1.586  0.2243  0.6244  4.9190
  142MOL0     H19579   8.304   3.976  -1.460  0.0145 -1.2965  0.3204
  142MOL0     H19580   7.296   3.537   0.112  2.2670 -0.7750 -0.7986
  142MOL0     H19581   7.247   3.686   0.316  0.2828 -1.2024 -0.1509
  142MOL0     H19582   7.336   4.033   0.508  1.4491  1.0448 -2.0063
  142MOL0     H19583   7.364   4.189   0.702 -2.5429 -4.9740  2.4161
  142MOL0     H19584   7.265   4.484   0.915  0.3630  0.6284 -0.6709
  142MOL0     H19585   7.354   4.345   0.849  1.3799  1.2608 -3.2054
  142MOL0     H19586   7.373   4.627   0.744 -1.1256 -1.2452 -1.3202
  142MOL0     H19587   7.444   4.478   0.671 -0.8807  0.7155 -0.8668
  142MOL0     H19588   7.505   4.609   0.942 -1.4904  0.9051 -1.3736
  142MOL0     H19589   7.545   4.436   0.910  1.0185 -0.4061 -0.7090
  142MOL0     H19590   7.629   4.695   0.780 -3.6677 -0.2320 -0.8937
  142MOL0     H19591   7.654   4.550   0.696 -1.6656  2.1951 -0.2585
  142MOL0     H19592   7.969   4.561   0.992 -1.5858  2.5422  3.1994
  142MOL0     H19593   6.995   4.390   0.596  2.5942  2.5908  1.6368
  142MOL0     H19594   6.847   4.240   0.465 -1.4083 -0.6385 -1.3851
  142MOL0     H19595   6.926   4.345   0.343  1.7928 -0.3405 -2.0666
  142MOL0     H19596   6.897   4.168   0.325 -2.8937  0.4428  0.7613
  143MOL0     O19597   9.860   2.548   1.937  0.2267 -0.2078 -0.1950
  143MOL0     C19598   9.936   2.500   2.020  0.3904  0.0237 -1.1487
  143MOL0     O19599   9.890   2.440   2.133 -0.3008 -0.3563 -0.1645
  143MOL0     C19600   9.759   2.422   2.172  0.7459  0.0225 -0.5253
  143MOL0     C19601   9.645   2.455   2.096 -0.2973 -0.2290 -1.3679
  143MOL0     C19602   9.516   2.443   2.156 -0.5633 -0.4968  0.6802
  143MOL0     C19603   9.496   2.379   2.283 -0.6007  0.7117 -0.2019
  143MOL0     O19604   9.371   2.373   2.328 -0.7642 -0.8239  0.6037
  143MOL0     C19605   9.313   2.491   2.387  0.1061  0.3293 -0.0318
  143MOL0     C19606   9.161   2.470   2.349  0.1642  0.3581  0.1867
  143MOL0     C19607   9.080   2.371   2.441 -0.2020 -0.1902 -0.1163
  143MOL0     C19608   9.119   2.228   2.393 -0.3881  0.3632  0.3853
  143MOL0     C19609   9.020   2.123   2.447 -0.4799  0.1177 -0.6413
  143MOL0     C19610   9.037   2.086   2.593 -0.2349 -1.4762 -0.5341
  143MOL0     C19611   8.960   1.958   2.636  0.1418 -0.4200  1.7206
  143MOL0     C19612   9.020   1.904   2.771  0.1535 -0.5482 -0.1479
  143MOL0     N19613   8.908   1.822   2.832 -0.6394 -0.2028 -0.0097
  143MOL0     C19614   8.835   1.720   2.776  0.0408  0.3644  0.0906
  143MOL0     C19615   8.761   1.672   2.885 -0.7635  0.2055 -0.5451
  143MOL0     C19616   8.664   1.562   2.873  0.2827 -0.1256 -0.6093
  143MOL0     C19617   8.552   1.644   2.817 -0.2010  0.3217  0.5611
  143MOL0     C19618   8.411   1.593   2.844  0.2759 -0.3538 -1.0174
  143MOL0     C19619   8.360   1.495   2.734 -0.3812  0.5944 -0.3873
  143MOL0     O19620   8.316   1.575   2.617 -0.8455 -1.0144 -0.2050
  143MOL0     C19621   8.386   1.571   2.499  0.3424  0.1356  1.3203
  143MOL0     C19622   8.515   1.525   2.473  1.5734  0.3154  0.0189
  143MOL0     C19623   8.573   1.537   2.341 -0.2949 -0.3496  0.1592
  143MOL0     C19624   8.705   1.463   2.333  0.1625  0.1313 -0.4655
  143MOL0     C19625   8.505   1.593   2.233  0.9515  0.1287  0.3789
  143MOL0     C19626   8.559   1.613   2.097 -0.1139 -0.0289 -0.0911
  143MOL0     O19627   8.460   1.613   2.004  0.3585 -0.0585 -0.3880
  143MOL0     C19628   8.487   1.657   1.873  1.0306  0.6284 -1.0422
  143MOL0     C19629   8.606   1.636   1.806 -0.9193 -0.1782 -0.0529
  143MOL0     C19630   8.638   1.686   1.684  0.4354  0.0755  1.2949
  143MOL0     C19631   8.544   1.761   1.620  0.3811 -0.2224  0.3075
  143MOL0     O19632   8.602   1.829   1.512  0.0578 -0.4559 -0.2659
  143MOL0     C19633   8.524   1.930   1.447  0.4450  0.3728 -0.9154
  143MOL0     C19634   8.611   2.010   1.353  0.9372  0.0678  0.4389
  143MOL0     C19635   8.527   2.126   1.293 -0.4837  0.1890  0.4908
  143MOL0     C19636   8.620   2.202   1.202 -1.1418  0.6574  0.6939
  143MOL0     C19637   8.650   2.136   1.060 -0.1860  0.4096 -0.5692
  143MOL0     C19638   8.720   2.226   0.969  0.0365 -0.7326 -0.6659
  143MOL0     C19639   8.728   2.183   0.829 -0.7141  0.0907  0.1859
  143MOL0     C19640   8.877   2.195   0.768  1.5067  0.9880 -0.0286
  143MOL0    Cl19641   8.904   2.366   0.717  0.0383  0.0737 -0.0034
  143MOL0     C19642   8.416   1.782   1.678 -0.2898  0.0072 -0.1126
  143MOL0     C19643   8.389   1.724   1.805  0.9159  0.7820 -0.5608
  143MOL0     O19644   8.682   1.608   2.083  0.6004 -0.1711 -0.5829
  143MOL0     C19645   8.373   1.633   2.253  0.3464  0.7687  0.2733
  143MOL0     C19646   8.320   1.624   2.386 -1.3222  0.6027  0.3199
  143MOL0     N19647   8.789   1.746   2.996  0.8030  0.5383 -0.4337
  143MOL0     N19648   8.875   1.832   2.967 -0.8642 -0.2784  0.2873
  143MOL0     C19649   9.608   2.334   2.346 -0.4256  0.4498 -0.1575
  143MOL0     C19650   9.741   2.352   2.295  0.2556 -0.0677  0.2727
  143MOL0     C19651  10.087   2.514   2.005 -0.1096 -1.0019  0.3020
  143MOL0     C19652  10.157   2.505   2.125 -1.0629  0.7882  0.0399
  143MOL0     C19653  10.296   2.511   2.120  0.6982  0.5998 -0.2885
  143MOL0     C19654  10.363   2.541   2.007 -0.6138  1.0513 -0.0226
  143MOL0     O19655  10.502   2.550   2.000  0.2701 -0.5329  1.3397
  143MOL0     C19656  10.568   2.455   1.905 -0.6792  0.2993 -0.1447
  143MOL0     C19657  10.521   2.311   1.932  0.5795 -0.4401 -0.0806
  143MOL0     C19658  10.557   2.244   2.070 -0.6415 -0.4097  0.1549
  143MOL0     C19659  10.713   2.234   2.086  0.0136 -0.1241 -0.1159
  143MOL0     C19660  10.742   2.197   2.229  0.2246 -0.0478 -0.0366
  143MOL0     C19661  10.768   2.155   2.342 -0.5689 -0.4759  0.3743
  143MOL0     C19662  10.292   2.556   1.890  0.3983 -0.3461 -0.9787
  143MOL0     C19663  10.158   2.535   1.880  0.2875  0.5970 -0.9060
  143MOL0     C19664  10.093   2.572   1.747 -0.6552 -1.0595  0.7761
  143MOL0     H19665   9.648   2.513   2.004  1.0351  3.1425  0.6051
  143MOL0     H19666   9.427   2.480   2.106 -1.8143 -0.6401  2.6929
  143MOL0     H19667   9.359   2.585   2.354  0.2123  0.5097  0.6129
  143MOL0     H19668   9.334   2.496   2.494  5.8876  1.8153 -0.8666
  143MOL0     H19669   9.112   2.567   2.366 -0.0950  0.1901  0.4206
  143MOL0     H19670   9.163   2.460   2.240 -1.5157  0.5730  0.1056
  143MOL0     H19671   9.106   2.380   2.547  1.7347  0.7716 -0.6255
  143MOL0     H19672   8.972   2.385   2.430 -1.0384 -3.6493  1.9871
  143MOL0     H19673   9.109   2.229   2.284  3.7663  0.3382 -0.1620
  143MOL0     H19674   9.222   2.198   2.418 -0.4095 -2.0997 -1.9761
  143MOL0     H19675   9.029   2.029   2.392 -3.6793 -1.6587  1.5664
  143MOL0     H19676   8.919   2.163   2.440 -2.0706 -3.1880  1.0392
  143MOL0     H19677   9.145   2.082   2.608  0.4859  3.7240 -2.2723
  143MOL0     H19678   8.997   2.169   2.653 -1.0773 -0.9191 -1.8086
  143MOL0     H19679   8.962   1.881   2.559  1.0012 -0.5570  1.8687
  143MOL0     H19680   8.855   1.979   2.655 -1.0423 -1.1245 -2.9493
  143MOL0     H19681   9.107   1.842   2.748 -0.5236 -1.9618  0.9887
  143MOL0     H19682   9.042   1.990   2.836 -2.5141  0.0818  0.0268
  143MOL0     H19683   8.827   1.675   2.677  0.1767  1.6478 -0.5319
  143MOL0     H19684   8.636   1.525   2.972 -1.5962  2.0873 -0.2470
  143MOL0     H19685   8.697   1.487   2.799  1.4810  0.3813 -0.6147
  143MOL0     H19686   8.541   1.740   2.869  0.9127  0.6993  0.1245
  143MOL0     H19687   8.574   1.670   2.713  3.0040  1.3346  1.3719
  143MOL0     H19688   8.413   1.538   2.939 -4.7519 -0.2523 -0.5985
  143MOL0     H19689   8.342   1.677   2.851  1.3390  0.4643  0.1416
  143MOL0     H19690   8.443   1.427   2.715  0.6435  2.1657 -1.8232
  143MOL0     H19691   8.276   1.443   2.780 -2.0038  2.4527 -1.1065
  143MOL0     H19692   8.581   1.495   2.554  3.7661  2.6447 -0.7420
  143MOL0     H19693   8.720   1.386   2.409 -2.4607  0.6439  0.6845
  143MOL0     H19694   8.785   1.537   2.321  1.1373 -0.8912 -0.3997
  143MOL0     H19695   8.699   1.397   2.246 -1.6036 -2.2485  1.3389
  143MOL0     H19696   8.668   1.552   1.837 -3.1075 -1.6111  0.6866
  143MOL0     H19697   8.736   1.661   1.642  0.5598  0.2042  1.5042
  143MOL0     H19698   8.441   1.883   1.394 -1.1145 -1.4589  2.7742
  143MOL0     H19699   8.486   1.999   1.523 -2.4767 -3.2080  1.2015
  143MOL0     H19700   8.699   2.050   1.403  2.6718 -0.4956 -2.0112
  143MOL0     H19701   8.644   1.945   1.272 -1.0659 -0.3112 -0.1484
  143MOL0     H19702   8.485   2.193   1.368 -1.8908 -0.2220  0.1035
  143MOL0     H19703   8.451   2.082   1.227 -0.4263  0.5609  0.1728
  143MOL0     H19704   8.713   2.203   1.259 -1.0607 -3.9581  1.0153
  143MOL0     H19705   8.568   2.297   1.181 -1.0685  0.2668 -1.5013
  143MOL0     H19706   8.709   2.044   1.062  1.0082  1.1514  1.7469
  143MOL0     H19707   8.552   2.113   1.016 -0.5133 -0.5461  0.6245
  143MOL0     H19708   8.821   2.237   1.009 -1.4411  1.8422  2.8995
  143MOL0     H19709   8.674   2.325   0.977  0.8336 -0.4557  0.8183
  143MOL0     H19710   8.661   2.245   0.768 -1.3723 -1.4091 -0.6824
  143MOL0     H19711   8.682   2.084   0.813 -0.6708  0.4311 -2.4500
  143MOL0     H19712   8.886   2.120   0.689 -3.8690  1.3343 -1.3768
  143MOL0     H19713   8.952   2.178   0.845  1.8755  1.1283 -0.3524
  143MOL0     H19714   8.343   1.849   1.633  0.0306  1.4981  1.4742
  143MOL0     H19715   8.290   1.741   1.846  0.9021 -0.5593  0.0386
  143MOL0     H19716   8.302   1.684   2.189 -0.9068  3.1203  3.2684
  143MOL0     H19717   8.219   1.658   2.404 -1.8538  0.1844 -1.6162
  143MOL0     H19718   9.595   2.290   2.445 -2.2639 -0.9557 -0.9760
  143MOL0     H19719   9.825   2.318   2.354  0.2405  1.7162  1.3699
  143MOL0     H19720  10.118   2.483   2.223  2.7146  1.3030  1.8652
  143MOL0     H19721  10.358   2.510   2.210 -1.0242 -0.4855  0.9535
  143MOL0     H19722  10.545   2.478   1.800 -2.2079  0.6001  0.2307
  143MOL0     H19723  10.676   2.463   1.913 -0.7749  2.4297 -0.2595
  143MOL0     H19724  10.577   2.260   1.852  0.4883  0.4820 -0.7519
  143MOL0     H19725  10.412   2.302   1.933  0.3597  1.2656  3.2004
  143MOL0     H19726  10.508   2.299   2.152  0.3717  1.8737 -0.6854
  143MOL0     H19727  10.523   2.140   2.073 -2.0640 -0.2344 -3.8903
  143MOL0     H19728  10.764   2.326   2.056 -0.7349  0.3954  0.1678
  143MOL0     H19729  10.752   2.157   2.020 -2.3490  1.3843 -3.5900
  143MOL0     H19730  10.785   2.116   2.441 -1.1417 -4.1631 -0.8093
  143MOL0     H19731  10.354   2.588   1.807  1.1714  3.3186  0.8157
  143MOL0     H19732  10.152   2.543   1.660  0.3491  1.6256  0.4569
  143MOL0     H19733   9.997   2.523   1.725 -1.5592  1.8371 -2.5949
  143MOL0     H19734  10.077   2.680   1.752 -2.0937 -1.1120 -1.3778
  144MOL0     O19735   3.285   0.314   0.065  0.3855  0.6380 -0.5737
  144MOL0     C19736   3.264   0.404   0.157 -0.1933  1.0801  1.5073
  144MOL0     O19737   3.151   0.413   0.239  0.2016  0.3517  0.1185
  144MOL0     C19738   3.059   0.310   0.253  0.3005  0.6341 -0.0190
  144MOL0     C19739   3.048   0.246   0.380 -0.3132 -0.1928 -0.0964
  144MOL0     C19740   2.951   0.142   0.403 -0.2969 -0.1428  0.0119
  144MOL0     C19741   2.867   0.100   0.296 -0.6431 -0.5434 -0.1270
  144MOL0     O19742   2.785  -0.008   0.328 -0.1933 -0.4542  0.6462
  144MOL0     C19743   2.712  -0.057   0.223 -0.4464 -0.2585  0.0578
  144MOL0     C19744   2.636  -0.180   0.263  0.4498  0.3928 -0.2697
  144MOL0     C19745   2.564  -0.264   0.155  0.3733 -0.5724  1.3495
  144MOL0     C19746   2.638  -0.308   0.035 -0.4268 -0.5362  0.2286
  144MOL0     C19747   2.542  -0.390  -0.050  0.6126  0.7086  0.3255
  144MOL0     C19748   2.608  -0.464  -0.166  0.2186  0.5306 -0.1733
  144MOL0     C19749   2.736  -0.545  -0.121 -0.6806  0.1613 -0.1460
  144MOL0     C19750   2.784  -0.638  -0.225 -0.7968 -0.0630  0.7176
  144MOL0     N19751   2.696  -0.757  -0.218 -0.5269 -0.8761  0.7796
  144MOL0     C19752   2.578  -0.784  -0.286  0.6054 -1.1453 -0.0005
  144MOL0     C19753   2.529  -0.897  -0.242 -0.3903 -0.1318 -0.2811
  144MOL0     C19754   2.399  -0.948  -0.279  0.7321  0.2161  0.3461
  144MOL0     C19755   2.386  -1.041  -0.399 -0.4819 -0.0359  0.9048
  144MOL0     C19756   2.238  -1.034  -0.454  0.8210  0.0186 -0.3131
  144MOL0     C19757   2.131  -1.107  -0.377 -0.3111 -0.8712 -0.4480
  144MOL0     O19758   2.042  -1.179  -0.461  0.2203 -0.8998  0.2165
  144MOL0     C19759   1.941  -1.257  -0.401  0.2894  0.0931 -0.3885
  144MOL0     C19760   1.934  -1.276  -0.259 -0.3584  0.9140  0.2393
  144MOL0     C19761   1.829  -1.362  -0.201 -0.6855 -0.0893 -0.4640
  144MOL0     C19762   1.824  -1.360  -0.051  1.2762  0.0550  0.6522
  144MOL0     C19763   1.732  -1.428  -0.283 -0.5324 -0.4322 -0.3811
  144MOL0     C19764   1.626  -1.519  -0.231 -0.1691  0.1699 -0.7189
  144MOL0     O19765   1.499  -1.511  -0.290  0.3247  0.3261  0.0311
  144MOL0     C19766   1.388  -1.588  -0.259 -0.3066 -0.5945  0.4422
  144MOL0     C19767   1.307  -1.645  -0.358 -0.2706 -0.1722  0.3231
  144MOL0     C19768   1.188  -1.714  -0.330 -0.4653 -0.2646  0.0869
  144MOL0     C19769   1.148  -1.725  -0.199 -0.7645  0.4940 -0.5452
  144MOL0     O19770   1.043  -1.806  -0.161 -0.2379 -0.1163 -1.0198
  144MOL0     C19771   0.921  -1.758  -0.211  0.8202  0.6030 -0.4617
  144MOL0     C19772   0.810  -1.864  -0.172 -0.1551  0.6107 -0.7684
  144MOL0     C19773   0.844  -2.007  -0.205 -0.4702 -0.0397 -0.4487
  144MOL0     C19774   0.731  -2.093  -0.162  0.3551 -0.1036 -0.4804
  144MOL0     C19775   0.719  -2.134  -0.009 -0.1827 -0.5420 -1.4267
  144MOL0     C19776   0.581  -2.180   0.041 -0.5901 -0.2949  0.4315
  144MOL0     C19777   0.478  -2.072   0.051  0.5597 -1.0354  0.0577
  144MOL0     C19778   0.336  -2.120   0.078  1.1120  1.2614 -0.4995
  144MOL0    Cl19779   0.327  -2.210   0.236  0.4545  0.1618  0.0284
  144MOL0     C19780   1.232  -1.665  -0.105  0.5363 -0.1167 -0.1574
  144MOL0     C19781   1.353  -1.599  -0.126 -0.4822 -0.2854 -0.4692
  144MOL0     O19782   1.660  -1.599  -0.148  0.0725 -0.4302  0.4236
  144MOL0     C19783   1.742  -1.405  -0.415 -0.2117 -0.5562 -0.5137
  144MOL0     C19784   1.839  -1.324  -0.478 -0.5710  0.5196 -0.5971
  144MOL0     N19785   2.616  -0.933  -0.141  0.2292  0.0349  0.0723
  144MOL0     N19786   2.710  -0.847  -0.121  0.1056 -0.3756  0.3672
  144MOL0     C19787   2.863   0.173   0.179 -0.4472  0.0872  0.0601
  144MOL0     C19788   2.963   0.271   0.149  0.9328 -0.2109 -1.0120
  144MOL0     C19789   3.358   0.508   0.184  0.4571 -0.4708 -0.2551
  144MOL0     C19790   3.425   0.554   0.067 -0.1512  0.1126 -0.6443
  144MOL0     C19791   3.530   0.652   0.076  0.5566 -0.4003  1.3498
  144MOL0     C19792   3.565   0.710   0.195  0.0733  0.2574 -0.1816
  144MOL0     O19793   3.651   0.824   0.183 -0.6746  0.0760  0.2594
  144MOL0     C19794   3.628   0.932   0.273  0.4297  0.2497 -0.1190
  144MOL0     C19795   3.720   1.045   0.217 -0.1086  1.1149 -0.3621
  144MOL0     C19796   3.760   1.145   0.321 -0.5321  0.4446  0.5977
  144MOL0     C19797   3.826   1.265   0.245  0.9805  0.9279 -1.1452
  144MOL0     C19798   3.967   1.235   0.220 -0.8958 -0.7669  0.2747
  144MOL0     C19799   4.088   1.202   0.210 -0.5211 -0.5942 -0.1001
  144MOL0     C19800   3.501   0.663   0.312  0.0120 -0.3384  0.6310
  144MOL0     C19801   3.402   0.558   0.306  0.2495 -0.1727 -1.2107
  144MOL0     C19802   3.334   0.510   0.435  0.5262  1.1163  0.2215
  144MOL0     H19803   3.118   0.281   0.455  0.9123 -1.1134 -0.7709
  144MOL0     H19804   2.936   0.114   0.507 -0.1426 -0.9779 -0.1869
  144MOL0     H19805   2.773  -0.079   0.135 -1.6775  1.7703 -1.3789
  144MOL0     H19806   2.634   0.013   0.192  1.7353  1.9446 -0.7169
  144MOL0     H19807   2.712  -0.255   0.286 -0.3861 -0.0061  1.2434
  144MOL0     H19808   2.567  -0.171   0.347  2.7574  1.1985  1.6505
  144MOL0     H19809   2.523  -0.356   0.198 -0.3845 -0.8247  0.1453
  144MOL0     H19810   2.478  -0.202   0.128  1.7243  1.2203  0.9634
  144MOL0     H19811   2.675  -0.222  -0.022  0.1856 -1.8185 -1.4113
  144MOL0     H19812   2.728  -0.362   0.068 -0.1460 -0.4401 -0.3626
  144MOL0     H19813   2.454  -0.338  -0.089 -0.0542 -0.7225 -0.1094
  144MOL0     H19814   2.501  -0.467   0.015 -1.8951  0.5333 -1.2892
  144MOL0     H19815   2.539  -0.540  -0.204  2.0711 -1.6315  0.5644
  144MOL0     H19816   2.620  -0.391  -0.247 -0.4893  0.2952 -0.4946
  144MOL0     H19817   2.728  -0.599  -0.026  0.9517 -0.6341 -0.4297
  144MOL0     H19818   2.819  -0.476  -0.104 -0.4845  0.1043 -0.8473
  144MOL0     H19819   2.775  -0.598  -0.327 -2.7949  0.6959  1.1527
  144MOL0     H19820   2.888  -0.669  -0.209 -0.5101  1.6156  2.3895
  144MOL0     H19821   2.527  -0.726  -0.362  2.2956 -1.6115 -1.5409
  144MOL0     H19822   2.333  -0.861  -0.282 -2.1669 -1.6587  3.2062
  144MOL0     H19823   2.360  -0.997  -0.190  0.1414  1.3828  0.7529
  144MOL0     H19824   2.456  -1.005  -0.475 -3.1783  1.7479 -0.9539
  144MOL0     H19825   2.402  -1.145  -0.371 -0.6363 -0.7840 -1.5279
  144MOL0     H19826   2.209  -0.929  -0.460  1.8541  0.3892  0.8707
  144MOL0     H19827   2.239  -1.072  -0.557  2.4184  1.3844 -0.8398
  144MOL0     H19828   2.183  -1.166  -0.301  0.4962  0.9334  0.4553
  144MOL0     H19829   2.073  -1.034  -0.320  0.1160  0.8085 -2.0522
  144MOL0     H19830   2.003  -1.219  -0.198 -0.9403  1.8401  0.0528
  144MOL0     H19831   1.900  -1.296  -0.006 -0.6327  1.8804  1.4952
  144MOL0     H19832   1.817  -1.463  -0.015 -1.7549 -0.1140 -0.1583
  144MOL0     H19833   1.728  -1.313  -0.026 -0.3357 -2.6521 -0.0819
  144MOL0     H19834   1.349  -1.625  -0.456  2.0690 -2.8808  0.6535
  144MOL0     H19835   1.127  -1.761  -0.406  2.2210 -1.4958 -1.4482
  144MOL0     H19836   0.893  -1.668  -0.155 -0.9018 -0.4172  0.4129
  144MOL0     H19837   0.914  -1.747  -0.320  1.7799 -0.5265 -0.6500
  144MOL0     H19838   0.787  -1.857  -0.066 -1.1383  1.3753 -1.0137
  144MOL0     H19839   0.716  -1.836  -0.221  0.4032 -2.6747 -4.2062
  144MOL0     H19840   0.931  -2.030  -0.143  1.0933  3.4386 -1.1130
  144MOL0     H19841   0.871  -2.023  -0.310 -1.3885  4.0752 -1.5178
  144MOL0     H19842   0.741  -2.188  -0.215  1.4532  1.0233 -2.4077
  144MOL0     H19843   0.647  -2.035  -0.202  0.4690  2.0953  2.2215
  144MOL0     H19844   0.796  -2.208   0.009 -2.0230 -2.5325 -1.3697
  144MOL0     H19845   0.743  -2.044   0.049  0.6806 -1.9633  0.5138
  144MOL0     H19846   0.595  -2.211   0.145 -0.1113  0.8466  0.7222
  144MOL0     H19847   0.549  -2.264  -0.022  0.1571 -0.8963  0.8427
  144MOL0     H19848   0.471  -2.013  -0.041 -5.5073  1.5247  1.6005
  144MOL0     H19849   0.501  -2.003   0.133  1.1175 -0.0748 -0.8833
  144MOL0     H19850   0.310  -2.189  -0.003  0.3849 -0.7771  1.3599
  144MOL0     H19851   0.261  -2.041   0.071  3.4258  3.9098  2.3370
  144MOL0     H19852   1.195  -1.667  -0.003  0.7324 -0.6890 -0.0915
  144MOL0     H19853   1.425  -1.558  -0.055 -0.7479  5.4217 -2.9824
  144MOL0     H19854   1.673  -1.467  -0.472 -3.5379  1.2838  1.1868
  144MOL0     H19855   1.825  -1.313  -0.585  1.0567  2.1267 -0.6891
  144MOL0     H19856   2.785   0.149   0.108  2.1260 -0.1694 -2.9310
  144MOL0     H19857   2.951   0.320   0.053 -3.8326  0.2256 -0.4406
  144MOL0     H19858   3.411   0.505  -0.029  0.3285 -0.3864 -0.4638
  144MOL0     H19859   3.596   0.689  -0.001  1.3230  0.2620  2.2924
  144MOL0     H19860   3.528   0.975   0.276  1.4132  2.6721  0.1865
  144MOL0     H19861   3.656   0.911   0.376 -1.4105  1.6972  0.7339
  144MOL0     H19862   3.658   1.089   0.139  1.2551  0.6435 -1.7693
  144MOL0     H19863   3.811   1.006   0.169  0.3918  1.0720  0.6054
  144MOL0     H19864   3.671   1.177   0.377 -0.0844  3.5065 -0.2784
  144MOL0     H19865   3.827   1.099   0.394  1.9382  1.4402 -0.9364
  144MOL0     H19866   3.821   1.356   0.304  0.2347  1.0819 -1.4345
  144MOL0     H19867   3.786   1.283   0.145  1.1941 -0.7406 -1.5751
  144MOL0     H19868   4.190   1.172   0.197  0.0428  1.0532  0.2460
  144MOL0     H19869   3.539   0.696   0.408 -1.1659  1.5157  0.5158
  144MOL0     H19870   3.391   0.525   0.526  0.4647 -1.9870  0.8471
  144MOL0     H19871   3.235   0.558   0.437  0.0581  0.5382 -2.8454
  144MOL0     H19872   3.311   0.404   0.421  2.5921  0.9186 -2.7117
  145MOL0     O19873   7.491   8.393   6.239  0.2333  0.1852 -0.1396
  145MOL0     C19874   7.421   8.295   6.240 -0.0010  0.7303 -0.0610
  145MOL0     O19875   7.448   8.177   6.164 -0.1280 -0.0631  0.3567
  145MOL0     C19876   7.544   8.171   6.067 -0.0739 -0.0522 -0.4152
  145MOL0     C19877   7.533   8.231   5.935 -0.1294  0.1518  0.6950
  145MOL0     C19878   7.654   8.238   5.860 -0.4669  0.4903 -0.4447
  145MOL0     C19879   7.768   8.170   5.900 -0.7563 -0.0194  0.7094
  145MOL0     O19880   7.877   8.152   5.815 -0.5579  1.1346 -0.6449
  145MOL0     C19881   7.900   8.253   5.724 -0.5629 -0.8164  0.1189
  145MOL0     C19882   8.042   8.252   5.655 -0.4783 -0.3073 -0.4203
  145MOL0     C19883   8.069   8.358   5.557 -0.3399  0.2933  0.1966
  145MOL0     C19884   8.200   8.336   5.475  0.2516  0.5564 -0.3094
  145MOL0     C19885   8.238   8.453   5.385 -0.8539  1.2116  0.1047
  145MOL0     C19886   8.133   8.495   5.283 -0.5200 -0.2616 -0.8059
  145MOL0     C19887   8.111   8.384   5.178  0.7934  0.1003  1.1681
  145MOL0     C19888   8.229   8.348   5.084  0.6977 -0.5796 -0.6389
  145MOL0     N19889   8.248   8.464   5.004  0.2975 -0.1954  0.2622
  145MOL0     C19890   8.369   8.522   4.973 -0.0998 -0.6806 -0.3411
  145MOL0     C19891   8.344   8.611   4.874  1.1261 -1.1485  0.8184
  145MOL0     C19892   8.453   8.686   4.802 -0.6512 -0.3999  0.0307
  145MOL0     C19893   8.488   8.817   4.877 -0.2224 -0.7060  0.4424
  145MOL0     C19894   8.563   8.916   4.786 -0.1002  0.3781 -0.8308
  145MOL0     C19895   8.646   9.016   4.876  0.1325  0.1567 -0.0750
  145MOL0     O19896   8.734   9.092   4.792 -0.1805 -0.2110  0.4084
  145MOL0     C19897   8.688   9.178   4.699  0.0992 -0.0961  0.0012
  145MOL0     C19898   8.566   9.251   4.687  0.0787 -0.2495  0.2678
  145MOL0     C19899   8.533   9.326   4.578  0.2862  0.3714  0.7352
  145MOL0     C19900   8.400   9.395   4.590  0.3556  0.1496  0.5172
  145MOL0     C19901   8.622   9.341   4.468  0.0520 -0.1504  0.0418
  145MOL0     C19902   8.598   9.421   4.343 -1.0745  0.0038 -0.7334
  145MOL0     O19903   8.714   9.477   4.293  0.1593 -0.5263 -0.4533
  145MOL0     C19904   8.730   9.548   4.171  0.0228 -0.2649  0.2382
  145MOL0     C19905   8.853   9.619   4.158  0.5357 -0.4457  0.1661
  145MOL0     C19906   8.885   9.704   4.043  0.8740  0.3167  0.3797
  145MOL0     C19907   8.796   9.713   3.933 -0.5387  0.7045 -0.2011
  145MOL0     O19908   8.827   9.798   3.832  0.6655 -0.1436 -0.8407
  145MOL0     C19909   8.780   9.775   3.697  0.8587  0.2672 -0.5704
  145MOL0     C19910   8.894   9.805   3.604  0.3866 -0.2076  0.3505
  145MOL0     C19911   8.837   9.865   3.468  0.5556  0.1419  0.7738
  145MOL0     C19912   8.942   9.954   3.410 -0.5717  0.1002 -0.4092
  145MOL0     C19913   8.863  10.022   3.302  1.0555 -0.5276  0.5579
  145MOL0     C19914   8.948  10.124   3.230 -0.1713 -0.8859  0.0873
  145MOL0     C19915   8.861  10.240   3.164 -0.4235  0.5767  0.2710
  145MOL0     C19916   8.762  10.185   3.061  0.2290  0.3877  1.1616
  145MOL0    Cl19917   8.676  10.298   2.956 -0.2620 -0.0289  0.2173
  145MOL0     C19918   8.678   9.635   3.946  0.3966  0.0516  0.2627
  145MOL0     C19919   8.638   9.555   4.061 -0.5582 -0.3132 -0.4912
  145MOL0     O19920   8.484   9.451   4.302 -1.0207  0.1248  0.0814
  145MOL0     C19921   8.758   9.290   4.490  0.4175 -0.0808  1.1170
  145MOL0     C19922   8.779   9.209   4.600 -0.1266  0.6288 -0.2664
  145MOL0     N19923   8.206   8.631   4.862 -0.8836  0.1694  0.3074
  145MOL0     N19924   8.154   8.530   4.929 -0.5248 -0.5744  1.0891
  145MOL0     C19925   7.776   8.109   6.030  0.2624 -0.1430 -0.6467
  145MOL0     C19926   7.664   8.111   6.108  0.5631  0.3705 -0.2271
  145MOL0     C19927   7.318   8.282   6.349 -1.0058 -0.2378 -0.2617
  145MOL0     C19928   7.299   8.388   6.440 -0.7241  0.3613  1.0902
  145MOL0     C19929   7.207   8.377   6.550  0.8395 -0.4521  0.0510
  145MOL0     C19930   7.125   8.273   6.562  0.1600 -0.7106 -0.7810
  145MOL0     O19931   7.041   8.257   6.675  0.3120  0.3334 -0.5873
  145MOL0     C19932   6.956   8.366   6.722  0.7985 -0.2787 -0.7564
  145MOL0     C19933   6.836   8.388   6.628  0.0621 -0.0914  0.5858
  145MOL0     C19934   6.859   8.443   6.489  0.2807 -0.1492  0.1267
  145MOL0     C19935   6.731   8.493   6.418 -0.3434  0.2603  0.0749
  145MOL0     C19936   6.618   8.403   6.427 -0.6573 -0.1028  0.4901
  145MOL0     C19937   6.530   8.328   6.421  0.6776 -0.9275  0.1646
  145MOL0     C19938   7.136   8.178   6.473  1.0634 -0.4528 -0.7718
  145MOL0     C19939   7.229   8.171   6.372  0.3640  0.0588  1.3436
  145MOL0     C19940   7.221   8.042   6.285 -0.5231 -0.4298  0.5476
  145MOL0     H19941   7.440   8.278   5.905  1.5905  2.8056 -0.9457
  145MOL0     H19942   7.643   8.288   5.764 -1.7045 -0.3907 -0.7832
  145MOL0     H19943   7.888   8.351   5.770  1.0206 -0.0961 -0.9231
  145MOL0     H19944   7.822   8.254   5.648 -1.1764 -2.3120  0.6858
  145MOL0     H19945   8.127   8.264   5.722 -0.3515 -2.0331 -0.2378
  145MOL0     H19946   8.070   8.156   5.610  2.2848 -0.9480  2.3393
  145MOL0     H19947   7.994   8.363   5.478  3.4433 -0.2432 -3.8286
  145MOL0     H19948   8.071   8.458   5.602  2.8059  2.8674 -4.6708
  145MOL0     H19949   8.285   8.323   5.541  1.2440 -1.9242 -1.9217
  145MOL0     H19950   8.195   8.246   5.414  0.4119  1.9495 -2.5233
  145MOL0     H19951   8.330   8.424   5.333  0.4083  2.1528  1.6905
  145MOL0     H19952   8.252   8.532   5.460 -1.1177  0.6276  0.7814
  145MOL0     H19953   8.042   8.512   5.341  0.5632  1.3365  0.5027
  145MOL0     H19954   8.171   8.587   5.239 -1.4520  0.1285 -0.8197
  145MOL0     H19955   8.025   8.424   5.123 -0.5099 -1.0659  2.2523
  145MOL0     H19956   8.090   8.286   5.221  1.9751  0.0707  1.7130
  145MOL0     H19957   8.325   8.339   5.135  0.2172  1.8358  0.8673
  145MOL0     H19958   8.216   8.260   5.020  2.1656 -2.2845  1.2991
  145MOL0     H19959   8.474   8.511   4.998  0.7598  2.3073 -2.1285
  145MOL0     H19960   8.432   8.703   4.696  1.0565 -0.1510 -0.2929
  145MOL0     H19961   8.546   8.631   4.818 -0.8150 -0.1126  2.3439
  145MOL0     H19962   8.393   8.856   4.916 -2.2023 -5.2847  0.8278
  145MOL0     H19963   8.549   8.797   4.965  1.9702 -2.6637 -1.3731
  145MOL0     H19964   8.643   8.868   4.728  2.2319  1.8118  0.9897
  145MOL0     H19965   8.495   8.973   4.723 -3.1074  0.7409  2.4291
  145MOL0     H19966   8.575   9.087   4.919  0.3343  1.0955 -1.2305
  145MOL0     H19967   8.709   8.972   4.954  2.6837  1.3762 -1.2846
  145MOL0     H19968   8.491   9.248   4.764 -1.8336  2.4873 -1.3186
  145MOL0     H19969   8.321   9.340   4.537  0.4232 -1.5058  2.0275
  145MOL0     H19970   8.399   9.496   4.548  0.5832  0.3774  1.0471
  145MOL0     H19971   8.373   9.398   4.696  1.1854  1.0671  0.7206
  145MOL0     H19972   8.930   9.600   4.232  0.1091 -1.2040  0.4317
  145MOL0     H19973   8.977   9.761   4.039  0.1209  1.5154 -0.6813
  145MOL0     H19974   8.755   9.669   3.684  1.8046  0.0560 -0.7203
  145MOL0     H19975   8.692   9.838   3.680  0.6739  0.6066  1.4743
  145MOL0     H19976   8.961   9.868   3.662  4.1070 -3.8405  0.4685
  145MOL0     H19977   8.963   9.723   3.586 -0.2358 -0.8788  0.9238
  145MOL0     H19978   8.738   9.909   3.483  0.4043  0.0029  0.2086
  145MOL0     H19979   8.825   9.785   3.394  2.4801  1.9979 -1.6982
  145MOL0     H19980   9.034   9.902   3.384 -0.1642  1.5776 -2.1078
  145MOL0     H19981   8.961  10.034   3.482 -1.6082  0.7401 -0.8152
  145MOL0     H19982   8.830   9.947   3.228  1.6186 -1.2552  1.0295
  145MOL0     H19983   8.772  10.066   3.343  0.6042  0.0648 -1.0171
  145MOL0     H19984   9.010  10.072   3.157  1.1499  1.7589 -0.7895
  145MOL0     H19985   9.010  10.186   3.295 -0.2194  0.0334 -0.7307
  145MOL0     H19986   8.921  10.321   3.123 -0.4166  0.3533 -0.1582
  145MOL0     H19987   8.803  10.286   3.245  0.6662  2.2265  0.1565
  145MOL0     H19988   8.689  10.136   3.126  1.1225 -1.1268  1.0611
  145MOL0     H19989   8.807  10.107   2.999 -1.0688 -1.1929  2.1622
  145MOL0     H19990   8.611   9.635   3.860  0.9930 -0.3405 -0.2148
  145MOL0     H19991   8.545   9.500   4.053 -0.1592 -0.9230 -1.0651
  145MOL0     H19992   8.833   9.300   4.412 -2.2311 -2.1238 -1.9481
  145MOL0     H19993   8.877   9.162   4.608  0.3062  1.7315  1.4734
  145MOL0     H19994   7.877   8.077   6.054 -0.2208 -1.7070 -0.5925
  145MOL0     H19995   7.670   8.080   6.212  0.8585 -0.3582 -0.4518
  145MOL0     H19996   7.372   8.469   6.438  0.1602 -0.3856  1.9124
  145MOL0     H19997   7.182   8.461   6.614  1.2162  1.4405 -2.1358
  145MOL0     H19998   6.912   8.334   6.816  0.0637  1.7601 -0.3607
  145MOL0     H19999   7.004   8.462   6.740 -3.3063  1.5865  1.5013
  145MOL0     H20000   6.775   8.458   6.685  1.1209 -0.5164  2.3300
  145MOL0     H20001   6.775   8.297   6.619  0.8601 -0.4166 -2.6406
  145MOL0     H20002   6.925   8.528   6.510 -2.1345  2.5000 -2.1603
  145MOL0     H20003   6.903   8.364   6.428  3.4783  2.3618 -1.1364
  145MOL0     H20004   6.750   8.532   6.318  4.1096  0.0790  0.6549
  145MOL0     H20005   6.713   8.586   6.473  1.6516  1.0345 -0.4883
  145MOL0     H20006   6.444   8.267   6.398  0.1766  0.5856 -2.4325
  145MOL0     H20007   7.063   8.100   6.492  1.7387 -0.1187  4.9300
  145MOL0     H20008   7.150   7.974   6.333  1.5023 -2.7599  0.4780
  145MOL0     H20009   7.178   8.058   6.186  1.8753  0.9924 -0.3358
  145MOL0     H20010   7.321   7.998   6.282  0.0611  0.7367  1.8695
  146MOL0     O20011   6.731   5.359   7.068  0.3045  0.2538  0.8629
  146MOL0     C20012   6.696   5.240   7.051  1.1410  0.9051  0.3106
  146MOL0     O20013   6.784   5.130   7.041 -0.6003 -0.9674 -1.0212
  146MOL0     C20014   6.907   5.153   7.079 -0.7862  0.3534 -0.6254
  146MOL0     C20015   6.948   5.126   7.210  0.8735  0.1721  0.8414
  146MOL0     C20016   7.066   5.173   7.262 -0.4219 -0.4739  0.2808
  146MOL0     C20017   7.151   5.242   7.177  0.5045 -0.2497 -0.0344
  146MOL0     O20018   7.271   5.271   7.235  0.0980 -0.3361  0.6007
  146MOL0     C20019   7.371   5.355   7.183 -0.9128  0.0173 -0.5304
  146MOL0     C20020   7.475   5.371   7.299 -0.4647 -0.3113 -0.5584
  146MOL0     C20021   7.421   5.452   7.412  0.7255  0.6796 -0.4264
  146MOL0     C20022   7.537   5.492   7.513 -0.8316 -0.3263 -0.0602
  146MOL0     C20023   7.535   5.420   7.652 -0.4643 -0.9716  0.0170
  146MOL0     C20024   7.577   5.276   7.633  0.5347 -0.0241  0.0120
  146MOL0     C20025   7.651   5.214   7.757 -0.0681  0.5696 -0.2518
  146MOL0     C20026   7.566   5.172   7.875 -0.6706  0.4949 -0.6316
  146MOL0     N20027   7.466   5.071   7.838 -0.3664  0.2166 -0.2778
  146MOL0     C20028   7.488   4.935   7.838  0.6132  0.5206 -0.3722
  146MOL0     C20029   7.377   4.874   7.783  0.2587  1.1019 -1.1777
  146MOL0     C20030   7.359   4.729   7.770 -1.3610 -0.1996 -0.6090
  146MOL0     C20031   7.486   4.641   7.739 -0.2195 -0.8878  0.6269
  146MOL0     C20032   7.445   4.492   7.744 -0.2821 -0.1938 -0.8881
  146MOL0     C20033   7.469   4.438   7.892  0.2993  0.3841  0.5949
  146MOL0     O20034   7.613   4.431   7.914 -0.3971 -0.0752  0.2642
  146MOL0     C20035   7.669   4.354   8.011  0.6358 -0.1944 -0.1545
  146MOL0     C20036   7.597   4.285   8.111  0.4438  0.5600  0.4422
  146MOL0     C20037   7.676   4.231   8.216  0.4793  1.0700  0.3847
  146MOL0     C20038   7.603   4.180   8.344 -1.4275 -0.2482  1.3043
  146MOL0     C20039   7.822   4.224   8.197  1.1811  0.1629 -0.6733
  146MOL0     C20040   7.915   4.176   8.307  0.0105  0.2308  0.9616
  146MOL0     O20041   7.863   4.125   8.419  0.4306  0.6205  0.3269
  146MOL0     C20042   7.946   4.109   8.525  0.2307 -0.5032  1.4456
  146MOL0     C20043   7.991   3.975   8.559  0.0714  0.1819  0.0782
  146MOL0     C20044   8.073   3.966   8.670 -0.2860  0.2647  0.4733
  146MOL0     C20045   8.122   4.075   8.741  0.0804  0.5601 -0.4738
  146MOL0     O20046   8.215   4.043   8.841  0.3279  0.5485 -0.6575
  146MOL0     C20047   8.271   4.151   8.915  0.0003 -0.6711  0.0301
  146MOL0     C20048   8.340   4.088   9.033 -1.0715 -0.2923 -0.6193
  146MOL0     C20049   8.335   4.174   9.161  0.1865  0.0584 -1.1006
  146MOL0     C20050   8.456   4.142   9.253 -0.7962 -0.0981 -0.0116
  146MOL0     C20051   8.443   4.201   9.400  0.0846 -0.4276 -0.1107
  146MOL0     C20052   8.552   4.143   9.487  0.2066 -0.9112 -0.3928
  146MOL0     C20053   8.534   4.178   9.639  0.2436  0.6475  0.4401
  146MOL0     C20054   8.627   4.101   9.739  0.7712 -0.0542  0.4892
  146MOL0    Cl20055   8.628   4.189   9.902 -0.3278 -0.4992 -0.0508
  146MOL0     C20056   8.073   4.200   8.713 -0.3661 -0.2444  0.5032
  146MOL0     C20057   7.990   4.220   8.605 -0.6664  0.5495  1.0431
  146MOL0     O20058   8.032   4.209   8.294  0.4992 -0.3661 -0.9778
  146MOL0     C20059   7.882   4.273   8.084 -0.3493 -0.2675  0.9180
  146MOL0     C20060   7.804   4.343   7.989  0.5646  1.6890 -0.1069
  146MOL0     N20061   7.288   4.979   7.756 -0.5906 -0.5012  0.3141
  146MOL0     N20062   7.346   5.095   7.780 -0.0087  0.0970 -1.0625
  146MOL0     C20063   7.126   5.263   7.043 -0.7818 -0.5206 -0.1519
  146MOL0     C20064   6.995   5.231   7.001 -0.6361 -0.3772  0.2527
  146MOL0     C20065   6.547   5.214   7.015 -0.7264  0.1389 -0.0015
  146MOL0     C20066   6.515   5.078   6.976 -0.6622  0.4181  0.0338
  146MOL0     C20067   6.385   5.039   6.951 -0.3978 -1.0861  0.2152
  146MOL0     C20068   6.278   5.124   6.974 -0.2204  0.8097  0.7271
  146MOL0     O20069   6.153   5.081   6.947  0.7340 -0.3579 -0.5002
  146MOL0     C20070   6.061   5.092   7.049  0.4886  0.0634 -0.2155
  146MOL0     C20071   5.935   5.033   6.985  1.0072  0.1528 -0.3688
  146MOL0     C20072   5.830   5.065   7.083 -0.2059 -0.6392 -0.5421
  146MOL0     C20073   5.690   5.090   7.025 -0.7548 -0.1677 -0.2869
  146MOL0     C20074   5.586   5.124   7.124  0.5325  0.0667  0.8156
  146MOL0     C20075   5.502   5.131   7.208 -0.6924  0.2216 -0.9021
  146MOL0     C20076   6.312   5.261   7.010  0.0071 -0.6235  0.5119
  146MOL0     C20077   6.441   5.308   7.015 -0.0372  0.5644 -0.3497
  146MOL0     C20078   6.466   5.459   7.050 -0.9913  1.1046 -0.4931
  146MOL0     H20079   6.865   5.077   7.261  0.8790 -1.4394 -0.6036
  146MOL0     H20080   7.088   5.156   7.367 -0.8262  1.0919  0.6385
  146MOL0     H20081   7.328   5.450   7.151 -1.3264 -0.6278 -1.9709
  146MOL0     H20082   7.423   5.320   7.094 -2.3359  2.3433 -2.3910
  146MOL0     H20083   7.519   5.281   7.345  2.1831  0.8520 -0.6190
  146MOL0     H20084   7.562   5.422   7.257 -1.7746  3.5162  0.9866
  146MOL0     H20085   7.366   5.537   7.372 -0.4956 -0.4273 -1.2110
  146MOL0     H20086   7.347   5.400   7.474  0.5860  1.0674 -0.2675
  146MOL0     H20087   7.639   5.496   7.476 -0.1424 -0.2973  1.7551
  146MOL0     H20088   7.524   5.597   7.539 -0.5549  0.0998 -1.5462
  146MOL0     H20089   7.433   5.434   7.689  0.3657 -1.1787  2.5365
  146MOL0     H20090   7.596   5.471   7.727 -0.8014  3.5399 -2.4279
  146MOL0     H20091   7.488   5.227   7.591  1.3976 -1.5598 -0.0613
  146MOL0     H20092   7.649   5.288   7.551  0.9345  3.4995  0.6905
  146MOL0     H20093   7.734   5.278   7.790  2.3826 -2.9743  0.9787
  146MOL0     H20094   7.696   5.123   7.717 -0.4957 -0.1689  0.9097
  146MOL0     H20095   7.626   5.123   7.953 -1.1543 -1.2165 -1.2965
  146MOL0     H20096   7.519   5.263   7.913 -1.5311 -1.1591  2.6286
  146MOL0     H20097   7.574   4.891   7.887 -0.3286  0.2888  1.1491
  146MOL0     H20098   7.285   4.721   7.690 -1.8733  0.6477 -0.2321
  146MOL0     H20099   7.312   4.697   7.863  2.1614 -2.0633  0.6971
  146MOL0     H20100   7.501   4.664   7.633 -1.1270 -1.9425  0.2494
  146MOL0     H20101   7.576   4.669   7.795 -1.1062  3.5011  0.2398
  146MOL0     H20102   7.344   4.468   7.709  0.8476 -1.3960 -3.6700
  146MOL0     H20103   7.523   4.437   7.690 -0.0296 -0.8628  0.1415
  146MOL0     H20104   7.424   4.502   7.968  0.2652 -3.0054  3.6767
  146MOL0     H20105   7.420   4.340   7.893  0.9849  0.0312  0.4101
  146MOL0     H20106   7.488   4.287   8.116  0.3713 -2.4245  3.2421
  146MOL0     H20107   7.634   4.077   8.363 -0.2276  0.2385  2.1257
  146MOL0     H20108   7.494   4.179   8.332 -1.2652 -0.9573 -0.3290
  146MOL0     H20109   7.643   4.238   8.428 -0.4101  1.7244 -0.4413
  146MOL0     H20110   7.961   3.876   8.525  4.0488 -1.2711  0.2252
  146MOL0     H20111   8.096   3.866   8.704 -4.1553 -0.0970  2.6309
  146MOL0     H20112   8.350   4.190   8.850  1.9384 -1.9913  1.4913
  146MOL0     H20113   8.196   4.224   8.947  0.1575  0.0037 -1.0694
  146MOL0     H20114   8.308   3.986   9.056 -0.6837 -0.8863 -2.5328
  146MOL0     H20115   8.446   4.082   9.006 -1.1340  0.0893 -0.9781
  146MOL0     H20116   8.240   4.162   9.214 -0.6311  3.1764 -1.6417
  146MOL0     H20117   8.336   4.281   9.134  0.5515  0.3872  0.1651
  146MOL0     H20118   8.546   4.186   9.208 -0.1127  1.4109  2.5892
  146MOL0     H20119   8.460   4.033   9.262 -0.0057  0.0009  1.0847
  146MOL0     H20120   8.457   4.310   9.397  1.6513 -0.4901  2.3320
  146MOL0     H20121   8.344   4.182   9.441 -0.2262 -0.8393 -1.0295
  146MOL0     H20122   8.653   4.168   9.452 -0.5303  1.0768 -1.2323
  146MOL0     H20123   8.536   4.036   9.468 -0.7089 -0.8030 -0.2408
  146MOL0     H20124   8.430   4.146   9.656  0.6897 -2.0806 -1.2201
  146MOL0     H20125   8.539   4.286   9.649  0.2507  0.7864 -0.8413
  146MOL0     H20126   8.730   4.107   9.702 -0.1853 -0.4802 -2.5482
  146MOL0     H20127   8.601   3.997   9.762 -0.0281  0.2894  1.2006
  146MOL0     H20128   8.094   4.284   8.777  0.5571 -0.2635  0.2405
  146MOL0     H20129   7.972   4.321   8.569 -1.7623 -0.3278 -1.0159
  146MOL0     H20130   7.988   4.276   8.063 -0.7121  2.3637 -1.0611
  146MOL0     H20131   7.835   4.397   7.900 -0.7045  0.4294 -1.3476
  146MOL0     H20132   7.198   5.317   6.982  0.5949 -1.7624  0.3208
  146MOL0     H20133   6.962   5.251   6.900 -2.9142 -3.0755  0.3364
  146MOL0     H20134   6.592   5.002   6.966  0.1371  1.1758  0.3625
  146MOL0     H20135   6.374   4.938   6.912 -0.0207  0.1810 -3.6037
  146MOL0     H20136   6.091   5.047   7.144  0.4738  0.8132  0.1485
  146MOL0     H20137   6.037   5.196   7.073  1.6413  0.5345 -1.0240
  146MOL0     H20138   5.955   4.926   6.972  3.0733  0.8558 -6.3053
  146MOL0     H20139   5.912   5.080   6.889  0.4943 -1.7247 -1.2027
  146MOL0     H20140   5.811   4.986   7.156 -2.3354 -0.2769 -0.6543
  146MOL0     H20141   5.848   5.159   7.136 -0.4598 -1.2963  0.7637
  146MOL0     H20142   5.664   4.999   6.970  3.2987 -0.9475 -1.2700
  146MOL0     H20143   5.703   5.173   6.954  0.3764 -1.0821 -1.2018
  146MOL0     H20144   5.444   5.111   7.296  1.9595 -1.8525  0.5614
  146MOL0     H20145   6.235   5.326   7.050  1.5870  0.3741  2.0666
  146MOL0     H20146   6.544   5.510   6.993 -1.0446 -0.8169 -2.4088
  146MOL0     H20147   6.373   5.510   7.022 -2.8237 -1.3605  0.6526
  146MOL0     H20148   6.480   5.475   7.158 -1.8468 -1.4420  0.0676
  147MOL0     O20149   9.949   9.143   7.147 -0.0548 -0.0408  0.1124
  147MOL0     C20150   9.986   9.133   7.261 -0.6390 -0.2380  0.1390
  147MOL0     O20151   9.934   9.204   7.375 -0.2584  0.2070  0.0579
  147MOL0     C20152   9.815   9.277   7.372  0.5409  0.2600 -0.0989
  147MOL0     C20153   9.690   9.219   7.326 -0.2276  0.4946 -0.0776
  147MOL0     C20154   9.577   9.301   7.309 -1.3982  1.0875 -0.2767
  147MOL0     C20155   9.580   9.432   7.356 -0.0890  0.5395  1.0277
  147MOL0     O20156   9.449   9.480   7.339 -0.2248  0.1006 -0.2170
  147MOL0     C20157   9.437   9.619   7.358  0.4942  0.6973  0.5080
  147MOL0     C20158   9.452   9.700   7.225  0.4575 -0.0801 -0.6266
  147MOL0     C20159   9.342   9.677   7.121  0.8118 -0.0961 -0.6251
  147MOL0     C20160   9.314   9.796   7.034 -1.0654 -0.4544 -0.6761
  147MOL0     C20161   9.408   9.802   6.908  0.2800 -0.4618 -0.3572
  147MOL0     C20162   9.529   9.899   6.929  0.0439  0.9603  0.3823
  147MOL0     C20163   9.613   9.926   6.800 -0.6665 -0.8118  0.0517
  147MOL0     C20164   9.720  10.040   6.823 -0.3870  0.1703 -1.1886
  147MOL0     N20165   9.825   9.997   6.918 -1.0789  0.6631  0.0198
  147MOL0     C20166   9.932   9.915   6.885  0.3070 -0.1319  0.2257
  147MOL0     C20167  10.000   9.904   7.006  0.5243  0.3190 -0.7535
  147MOL0     C20168  10.118   9.821   7.032  0.4486  0.2578  1.0851
  147MOL0     C20169  10.074   9.676   7.003  0.4464  0.5791 -0.3008
  147MOL0     C20170   9.942   9.627   7.064 -0.5200  0.0773 -0.0023
  147MOL0     C20171   9.964   9.471   7.070 -0.2971 -0.5124  0.2518
  147MOL0     O20172   9.984   9.419   6.939  0.2698 -1.0108  0.1093
  147MOL0     C20173   9.869   9.433   6.869  0.4565 -0.3788  0.0537
  147MOL0     C20174   9.848   9.508   6.753 -0.8806 -0.1949  0.0870
  147MOL0     C20175   9.736   9.527   6.684  0.8198 -0.1506 -0.5174
  147MOL0     C20176   9.767   9.601   6.553  0.2192 -0.1854 -0.2473
  147MOL0     C20177   9.616   9.483   6.736  0.7657  0.2844  0.3588
  147MOL0     C20178   9.475   9.500   6.677  0.2730  0.4261 -0.4013
  147MOL0     O20179   9.369   9.422   6.715  0.6010 -0.7528  0.0608
  147MOL0     C20180   9.250   9.441   6.652 -0.6546  1.0160 -0.2223
  147MOL0     C20181   9.236   9.405   6.519 -0.3435  0.5568 -0.4912
  147MOL0     C20182   9.112   9.428   6.451 -0.2536 -0.0564  0.7486
  147MOL0     C20183   9.000   9.490   6.513  0.1440 -0.3308  0.3939
  147MOL0     O20184   8.884   9.512   6.439 -0.5442 -0.1554 -0.6990
  147MOL0     C20185   8.851   9.653   6.422 -0.3064 -0.4836 -0.9155
  147MOL0     C20186   8.895   9.711   6.285 -0.1242  0.1035  0.0821
  147MOL0     C20187   8.809   9.825   6.240  0.0912  0.1301 -0.0858
  147MOL0     C20188   8.673   9.775   6.180 -0.3013 -0.2994  0.4429
  147MOL0     C20189   8.551   9.851   6.231  0.3523 -0.1895  1.0532
  147MOL0     C20190   8.552   9.993   6.189 -0.0865  0.4333  0.1248
  147MOL0     C20191   8.424  10.065   6.237  1.0061  0.0852 -0.2515
  147MOL0     C20192   8.384  10.195   6.171  0.0366  1.1980 -0.5036
  147MOL0    Cl20193   8.334  10.187   5.991 -0.3433 -0.4128  0.1694
  147MOL0     C20194   9.020   9.518   6.646 -0.5993 -0.2094 -0.5834
  147MOL0     C20195   9.140   9.498   6.713 -1.2848 -1.2005  0.3857
  147MOL0     O20196   9.479   9.592   6.597  0.4429 -0.0031  1.1139
  147MOL0     C20197   9.628   9.392   6.850 -0.1524 -1.2436  0.5195
  147MOL0     C20198   9.755   9.372   6.913  0.1553  0.4433 -0.5815
  147MOL0     N20199   9.945   9.983   7.102  1.3412  0.4134 -0.0499
  147MOL0     N20200   9.849  10.037   7.046  0.1551  0.6409 -0.2997
  147MOL0     C20201   9.696   9.477   7.419  1.1112  0.8000  0.4199
  147MOL0     C20202   9.809   9.404   7.419  0.6528 -0.1770 -0.1208
  147MOL0     C20203  10.111   9.058   7.283 -0.5861  0.0038 -1.1871
  147MOL0     C20204  10.106   8.915   7.264 -0.2660  0.3798 -0.6079
  147MOL0     C20205  10.220   8.838   7.280  0.4966  0.0996 -0.0332
  147MOL0     C20206  10.338   8.904   7.305  0.7930 -0.1998  0.4372
  147MOL0     O20207  10.441   8.818   7.338 -0.4495  0.0385  0.4205
  147MOL0     C20208  10.577   8.870   7.319  0.3483  0.3860  0.0040
  147MOL0     C20209  10.607   8.921   7.180 -0.6647 -0.2638 -0.4913
  147MOL0     C20210  10.626   8.802   7.082  0.5537  0.3651 -0.5102
  147MOL0     C20211  10.711   8.844   6.961 -0.9585  0.6887 -0.2879
  147MOL0     C20212  10.659   8.964   6.901 -0.4429 -0.2241 -0.0006
  147MOL0     C20213  10.600   9.048   6.837 -0.2265  1.0353  0.6861
  147MOL0     C20214  10.340   9.047   7.325 -1.0405  0.1447 -0.3272
  147MOL0     C20215  10.231   9.124   7.311 -0.2907 -1.2008 -0.7875
  147MOL0     C20216  10.239   9.277   7.330 -0.3110  1.0460 -0.2368
  147MOL0     H20217   9.672   9.119   7.290 -0.9012  1.4321 -2.5448
  147MOL0     H20218   9.480   9.265   7.277 -1.2560 -0.4799  0.9750
  147MOL0     H20219   9.505   9.650   7.438 -0.4484  2.0121  0.8418
  147MOL0     H20220   9.335   9.642   7.392  0.3955  1.4700 -0.2807
  147MOL0     H20221   9.431   9.801   7.260  2.7566  0.3224 -0.2553
  147MOL0     H20222   9.551   9.693   7.179  0.8915 -3.8527  0.5734
  147MOL0     H20223   9.372   9.589   7.064 -2.7358 -2.6556  1.1081
  147MOL0     H20224   9.245   9.666   7.171 -0.1473 -0.7544 -2.5341
  147MOL0     H20225   9.213   9.776   6.998  0.2541 -1.3986 -4.2043
  147MOL0     H20226   9.318   9.896   7.080  0.5470  0.8244 -3.3453
  147MOL0     H20227   9.368   9.841   6.814  4.3806  1.1523 -1.6213
  147MOL0     H20228   9.442   9.701   6.886 -1.5673 -1.8044  2.2808
  147MOL0     H20229   9.490   9.995   6.965 -0.4106  1.6221 -1.7144
  147MOL0     H20230   9.588   9.856   7.010 -1.4418 -0.3327  0.8429
  147MOL0     H20231   9.544   9.969   6.727  0.6305  0.0884 -0.6954
  147MOL0     H20232   9.659   9.829   6.777  1.2193 -0.0419  0.3456
  147MOL0     H20233   9.765  10.052   6.724 -1.4003 -0.8002 -1.7764
  147MOL0     H20234   9.677  10.139   6.845 -0.3372  0.6370 -3.0513
  147MOL0     H20235   9.947   9.875   6.785  0.3374  0.2206  0.0888
  147MOL0     H20236  10.157   9.822   7.134  1.3284  2.5801  0.7870
  147MOL0     H20237  10.210   9.856   6.985  0.5691 -1.6700 -0.2334
  147MOL0     H20238  10.054   9.670   6.896 -2.2401 -1.8677  0.2013
  147MOL0     H20239  10.151   9.609   7.043 -1.6430 -1.1035  1.1644
  147MOL0     H20240   9.936   9.642   7.173  2.0474 -2.4515  0.6131
  147MOL0     H20241   9.855   9.668   7.012 -0.6260 -0.8586 -0.5780
  147MOL0     H20242  10.037   9.457   7.150 -0.3800  1.9596  0.8267
  147MOL0     H20243   9.879   9.425   7.120  1.0601 -1.0412  2.1760
  147MOL0     H20244   9.945   9.535   6.710 -1.6330  0.9847 -0.9406
  147MOL0     H20245   9.871   9.598   6.519  0.7149 -1.2693  1.2590
  147MOL0     H20246   9.723   9.701   6.549 -2.8553 -1.2850  2.0942
  147MOL0     H20247   9.695   9.558   6.483 -1.1190 -1.2661  1.6853
  147MOL0     H20248   9.326   9.366   6.473 -0.7606  2.4020 -3.0661
  147MOL0     H20249   9.090   9.396   6.350  1.9536  1.6387 -0.3458
  147MOL0     H20250   8.742   9.662   6.420 -0.3004 -0.5181 -2.7628
  147MOL0     H20251   8.878   9.724   6.501 -1.5787 -0.4660 -0.4733
  147MOL0     H20252   8.998   9.747   6.284  0.3544 -1.1230  1.4122
  147MOL0     H20253   8.881   9.639   6.203 -1.0794  1.5766 -1.0967
  147MOL0     H20254   8.880   9.876   6.175 -2.0573 -0.5145 -3.1847
  147MOL0     H20255   8.784   9.889   6.326 -0.6386  0.0720 -0.2503
  147MOL0     H20256   8.661   9.671   6.212 -1.0026 -0.4365 -0.2305
  147MOL0     H20257   8.669   9.787   6.072 -1.7956 -1.1832  0.3713
  147MOL0     H20258   8.462   9.800   6.194  0.8091  0.6186 -1.3778
  147MOL0     H20259   8.548   9.842   6.339 -0.2065  1.1845  1.1845
  147MOL0     H20260   8.555  10.003   6.080  0.1680 -2.6159 -0.2254
  147MOL0     H20261   8.645  10.046   6.209 -0.4688  0.6799  1.3274
  147MOL0     H20262   8.429  10.088   6.343  0.0063  0.1102 -0.1955
  147MOL0     H20263   8.333  10.006   6.218  0.6905 -0.1060  1.6825
  147MOL0     H20264   8.467  10.265   6.180  0.6980  0.3108  0.4916
  147MOL0     H20265   8.307  10.236   6.237 -1.9813  0.1049 -2.0607
  147MOL0     H20266   8.941   9.564   6.703  0.3507  0.8443 -0.0787
  147MOL0     H20267   9.146   9.537   6.814 -1.1885 -0.8253  0.2334
  147MOL0     H20268   9.539   9.352   6.898 -1.6118  2.2802  1.0796
  147MOL0     H20269   9.752   9.311   7.002 -0.5049 -0.0893 -0.9491
  147MOL0     H20270   9.695   9.574   7.467 -2.0000  0.1301  1.9565
  147MOL0     H20271   9.902   9.453   7.446  1.6779 -1.6660 -0.7740
  147MOL0     H20272  10.013   8.859   7.261 -1.2565  1.5466  2.9049
  147MOL0     H20273  10.215   8.734   7.249  1.9161  0.1173 -0.4206
  147MOL0     H20274  10.579   8.957   7.386  1.5301  0.3645  0.0156
  147MOL0     H20275  10.649   8.802   7.364 -1.9440 -1.3798  1.1847
  147MOL0     H20276  10.698   8.982   7.182 -0.8648  0.0173  0.7090
  147MOL0     H20277  10.526   8.987   7.149 -0.4096  2.0688  3.1942
  147MOL0     H20278  10.683   8.719   7.124 -1.2992 -1.3420 -1.1681
  147MOL0     H20279  10.533   8.750   7.056 -0.0333  0.2603  1.5470
  147MOL0     H20280  10.721   8.757   6.896  0.6653  0.2264  0.5359
  147MOL0     H20281  10.810   8.874   6.997 -1.3836  3.4323 -1.1849
  147MOL0     H20282  10.529   9.094   6.771  0.5128 -0.7537 -1.4918
  147MOL0     H20283  10.436   9.089   7.351  0.4456 -3.5488  0.7701
  147MOL0     H20284  10.164   9.324   7.394 -5.4910 -2.2323 -3.1738
  147MOL0     H20285  10.344   9.283   7.361  0.4235  1.7451 -2.6590
  147MOL0     H20286  10.232   9.326   7.233 -2.8557  1.5802  0.1570
  148MOL0     O20287   9.407  10.209   6.009 -0.1553  0.1922  0.4653
  148MOL0     C20288   9.447  10.308   5.952  0.6165 -0.0462 -0.0769
  148MOL0     O20289   9.574  10.317   5.905  0.1424  0.3249 -0.2444
  148MOL0     C20290   9.628  10.199   5.859 -0.1066 -0.7735  0.8282
  148MOL0     C20291   9.575  10.150   5.735  0.5588 -0.0462  0.6071
  148MOL0     C20292   9.632  10.026   5.689  0.3218 -0.6294  0.6450
  148MOL0     C20293   9.730   9.956   5.753  0.4305  0.5572 -0.5141
  148MOL0     O20294   9.783   9.837   5.705  0.4055  0.0022  0.2804
  148MOL0     C20295   9.805   9.824   5.565 -0.4002 -0.0632 -0.1785
  148MOL0     C20296   9.709   9.716   5.519  0.1309 -0.8332 -0.1730
  148MOL0     C20297   9.755   9.623   5.404 -0.2836  0.4086 -1.2805
  148MOL0     C20298   9.906   9.581   5.424  0.3948 -0.4678 -1.3474
  148MOL0     C20299   9.937   9.470   5.323  0.1622  1.0031  0.3868
  148MOL0     C20300  10.091   9.430   5.350  1.2384  0.5204 -0.3708
  148MOL0     C20301  10.138   9.317   5.252  1.3644 -0.9144  0.4897
  148MOL0     C20302  10.291   9.298   5.256  0.0980  0.0336 -0.2508
  148MOL0     N20303  10.336   9.226   5.137 -0.0717  0.0663  0.4169
  148MOL0     C20304  10.458   9.154   5.121  1.3091  0.4892  1.0862
  148MOL0     C20305  10.464   9.133   4.986  0.7157  0.2868 -0.6329
  148MOL0     C20306  10.584   9.059   4.925 -0.0667 -0.0585 -0.7149
  148MOL0     C20307  10.722   9.123   4.949 -0.3186 -0.9784  0.8091
  148MOL0     C20308  10.840   9.074   4.869 -0.7499  0.8607  0.6103
  148MOL0     C20309  10.860   9.124   4.725  0.2292  0.9947 -1.2808
  148MOL0     O20310  11.005   9.143   4.714  0.2338 -0.4100  0.0427
  148MOL0     C20311  11.045   9.171   4.587  0.0525  1.1030  0.7809
  148MOL0     C20312  10.971   9.175   4.462  1.0402 -0.5175  0.0419
  148MOL0     C20313  11.019   9.207   4.337  0.2422  0.1818 -0.6908
  148MOL0     C20314  10.915   9.215   4.222  0.7098 -0.4520 -0.7050
  148MOL0     C20315  11.157   9.233   4.329 -0.4658  0.7004 -0.6833
  148MOL0     C20316  11.234   9.250   4.203 -0.5056  1.1314  0.3103
  148MOL0     O20317  11.154   9.268   4.094 -0.5443  0.2375 -0.8136
  148MOL0     C20318  11.194   9.372   4.010 -0.1716 -0.4175 -0.0034
  148MOL0     C20319  11.161   9.357   3.869  0.5186  0.2749  0.5700
  148MOL0     C20320  11.195   9.465   3.778 -0.1097  0.5498  0.0245
  148MOL0     C20321  11.246   9.577   3.828 -0.7968 -1.4693 -0.1294
  148MOL0     O20322  11.275   9.682   3.752 -0.1046  0.0842  0.3691
  148MOL0     C20323  11.168   9.718   3.657 -1.6670 -0.9818 -0.9985
  148MOL0     C20324  11.171   9.860   3.606  0.0023  0.2000 -0.4125
  148MOL0     C20325  11.150   9.948   3.725  0.0041 -0.2109 -0.5027
  148MOL0     C20326  11.002   9.926   3.773  0.6326  0.3335  0.5175
  148MOL0     C20327  10.967  10.038   3.874 -1.1672 -0.1712 -0.0041
  148MOL0     C20328  10.834   9.988   3.933  0.6798  0.1115  1.8018
  148MOL0     C20329  10.795  10.059   4.068  0.4073  0.8669  0.7831
  148MOL0     C20330  10.674   9.987   4.143  0.4011 -0.1896  0.5830
  148MOL0    Cl20331  10.616  10.094   4.269  0.4369 -0.6326  0.3149
  148MOL0     C20332  11.286   9.589   3.961  0.3924 -0.1843  0.3028
  148MOL0     C20333  11.247   9.499   4.054 -0.5912  0.0901  0.7670
  148MOL0     O20334  11.355   9.240   4.197 -0.8251  0.1316 -0.0471
  148MOL0     C20335  11.233   9.235   4.441  0.0272  0.4532 -1.4760
  148MOL0     C20336  11.185   9.193   4.572 -0.5743 -0.7839 -0.2526
  148MOL0     N20337  10.367   9.200   4.919  1.2032 -0.1957  1.3740
  148MOL0     N20338  10.289   9.243   5.007 -0.9302 -0.0702  0.1317
  148MOL0     C20339   9.788  10.015   5.867  0.4691 -0.4964 -0.4289
  148MOL0     C20340   9.740  10.135   5.926  0.1034  0.1392  0.1050
  148MOL0     C20341   9.348  10.417   5.921  1.6629  0.5442  0.1488
  148MOL0     C20342   9.399  10.532   5.848  0.7443 -0.2036 -0.2626
  148MOL0     C20343   9.319  10.631   5.821 -0.5597  0.8343  1.0950
  148MOL0     C20344   9.180  10.628   5.835  0.4916  0.3599 -0.1143
  148MOL0     O20345   9.091  10.729   5.788 -1.1938 -0.5408 -0.7522
  148MOL0     C20346   9.109  10.763   5.650  0.1414 -0.5278 -0.0908
  148MOL0     C20347   8.964  10.788   5.590  0.4653  0.2792  0.2098
  148MOL0     C20348   8.869  10.669   5.606 -0.1672  0.2727 -0.9326
  148MOL0     C20349   8.930  10.538   5.555  0.6825 -0.4359 -0.8862
  148MOL0     C20350   8.950  10.541   5.410  0.7175 -0.7311 -0.8114
  148MOL0     C20351   8.942  10.523   5.296  0.3167 -1.2259  0.5356
  148MOL0     C20352   9.126  10.527   5.920 -0.6155  0.7146  0.0137
  148MOL0     C20353   9.207  10.419   5.961 -0.2970  0.1256 -0.1084
  148MOL0     C20354   9.134  10.316   6.050  0.2673  0.2401 -0.1820
  148MOL0     H20355   9.496  10.191   5.673  0.5131 -1.3741 -0.2367
  148MOL0     H20356   9.588   9.977   5.603  1.4708 -4.6499  2.1148
  148MOL0     H20357   9.908   9.789   5.549  0.1952  0.3189  2.3082
  148MOL0     H20358   9.797   9.914   5.503  2.7937 -0.6379 -1.6916
  148MOL0     H20359   9.702   9.664   5.615  1.4278  0.5896  0.7491
  148MOL0     H20360   9.612   9.758   5.493 -0.9045 -2.2228  1.2547
  148MOL0     H20361   9.687   9.539   5.411  0.9251 -0.4800  0.5363
  148MOL0     H20362   9.743   9.666   5.304  1.5820  2.6981 -0.6245
  148MOL0     H20363   9.966   9.671   5.409 -2.0077  1.3774 -0.4987
  148MOL0     H20364   9.923   9.538   5.524 -0.5823  1.0720 -0.4767
  148MOL0     H20365   9.909   9.502   5.222  0.4305  2.2797  0.6952
  148MOL0     H20366   9.878   9.383   5.353  0.4750 -0.4160 -2.7624
  148MOL0     H20367  10.159   9.517   5.348  1.3823  0.5601  2.4747
  148MOL0     H20368  10.102   9.389   5.451 -0.8563  1.3340  0.2432
  148MOL0     H20369  10.105   9.346   5.152 -1.3061 -4.5036  0.1081
  148MOL0     H20370  10.093   9.219   5.271 -0.4261 -0.5628 -1.6338
  148MOL0     H20371  10.343   9.393   5.267 -0.9726  0.5215  0.8541
  148MOL0     H20372  10.321   9.230   5.337  0.7156 -0.5150 -0.9208
  148MOL0     H20373  10.528   9.122   5.197  1.2941  0.9531  1.2957
  148MOL0     H20374  10.563   9.054   4.818 -0.8695  1.5334 -0.6670
  148MOL0     H20375  10.580   8.962   4.975 -1.2739  0.0257 -0.6070
  148MOL0     H20376  10.718   9.230   4.924  0.1651 -1.1386  0.0140
  148MOL0     H20377  10.746   9.109   5.055  0.5685 -3.5591  0.3318
  148MOL0     H20378  10.923   9.121   4.921  0.1824  0.7263 -0.7041
  148MOL0     H20379  10.854   8.965   4.866 -0.4988  0.9067 -0.2042
  148MOL0     H20380  10.816   9.056   4.653  2.2961 -0.8593 -0.8910
  148MOL0     H20381  10.809   9.219   4.708 -0.2667  1.0129  0.1337
  148MOL0     H20382  10.863   9.170   4.471  1.1429  0.3572  2.3208
  148MOL0     H20383  10.831   9.154   4.257 -0.1765 -1.7841 -4.6551
  148MOL0     H20384  10.948   9.166   4.130 -0.0266  2.6641 -2.7447
  148MOL0     H20385  10.891   9.319   4.200 -0.2426 -0.6987 -0.8538
  148MOL0     H20386  11.104   9.269   3.840 -2.5983  1.8774  1.3834
  148MOL0     H20387  11.175   9.446   3.673 -2.5759 -0.1821  0.5613
  148MOL0     H20388  11.182   9.664   3.562  0.9363  2.9794 -3.1675
  148MOL0     H20389  11.064   9.698   3.685 -2.8571  4.9042  0.0559
  148MOL0     H20390  11.265   9.885   3.556 -0.4442  2.1152 -0.3914
  148MOL0     H20391  11.086   9.863   3.537 -1.8083  0.5711  1.7366
  148MOL0     H20392  11.162  10.051   3.692 -1.3247  1.3327  3.2873
  148MOL0     H20393  11.217   9.936   3.811 -2.8291  1.7195  2.1712
  148MOL0     H20394  11.001   9.832   3.829 -0.7724 -1.3699 -2.1589
  148MOL0     H20395  10.920   9.917   3.702 -2.6909  0.6063  4.0071
  148MOL0     H20396  11.047  10.036   3.949 -1.2926 -0.2641  0.1254
  148MOL0     H20397  10.946  10.139   3.839 -2.4203  1.0341  3.8064
  148MOL0     H20398  10.840   9.881   3.956 -1.2478  0.1211  2.4808
  148MOL0     H20399  10.745   9.993   3.869 -0.0393 -0.6512  2.7101
  148MOL0     H20400  10.760  10.161   4.052 -3.4608 -0.2319  1.2511
  148MOL0     H20401  10.881  10.058   4.135 -0.0942  3.4990  1.5985
  148MOL0     H20402  10.719   9.893   4.178  2.3879  0.9161  1.1847
  148MOL0     H20403  10.588   9.986   4.076 -0.5783  0.2372  1.8014
  148MOL0     H20404  11.340   9.680   3.985  0.2413 -0.1959  0.7103
  148MOL0     H20405  11.280   9.520   4.156 -1.6808  3.2355  0.5754
  148MOL0     H20406  11.341   9.240   4.446  0.0444 -0.5846  1.6860
  148MOL0     H20407  11.251   9.188   4.658 -0.1210  0.7953 -0.4786
  148MOL0     H20408   9.882   9.982   5.909  0.1384 -1.2241 -0.2601
  148MOL0     H20409   9.793  10.180   6.009 -0.3124 -2.6282  1.9692
  148MOL0     H20410   9.504  10.541   5.822  1.8874  1.8459  4.1784
  148MOL0     H20411   9.360  10.710   5.758 -2.2678 -0.0767 -1.2696
  148MOL0     H20412   9.167  10.855   5.637  0.6812 -1.2364 -4.1314
  148MOL0     H20413   9.161  10.684   5.594  1.5033 -1.7904  2.7354
  148MOL0     H20414   8.976  10.802   5.482  1.0603  1.5713  0.4211
  148MOL0     H20415   8.916  10.875   5.636 -0.6774 -0.0329 -0.3672
  148MOL0     H20416   8.855  10.664   5.715 -2.8780  0.2157 -1.2335
  148MOL0     H20417   8.772  10.684   5.558 -2.0130  2.6379  2.9897
  148MOL0     H20418   8.864  10.453   5.576 -0.6563  1.0321  1.3332
  148MOL0     H20419   9.027  10.515   5.600 -0.6610  0.1754  2.6491
  148MOL0     H20420   8.910  10.507   5.195  1.9841 -1.7083  0.0658
  148MOL0     H20421   9.020  10.514   5.940 -0.9155 -2.1280 -2.6287
  148MOL0     H20422   9.107  10.354   6.150 -1.5025  2.3213 -1.3634
  148MOL0     H20423   9.034  10.305   6.009 -0.3569  1.5830  0.8606
  148MOL0     H20424   9.174  10.215   6.041  2.6088  1.2054 -1.4568
  149MOL0     O20425   2.489   0.894   1.215  0.4547  0.3200 -0.5913
  149MOL0     C20426   2.587   0.817   1.231  0.3192 -0.4638 -0.4315
  149MOL0     O20427   2.719   0.833   1.203  0.0800 -0.0705  0.5010
  149MOL0     C20428   2.736   0.943   1.127 -0.1622  0.2028  0.4695
  149MOL0     C20429   2.731   0.933   0.990  0.8860  0.2053 -0.0778
  149MOL0     C20430   2.749   1.053   0.915  0.7383 -0.3628 -0.0220
  149MOL0     C20431   2.766   1.174   0.981 -0.8240  0.1086 -0.1042
  149MOL0     O20432   2.815   1.277   0.895 -0.1321  0.1724 -0.3271
  149MOL0     C20433   2.837   1.416   0.938  0.0745 -1.0243 -0.4703
  149MOL0     C20434   2.977   1.455   0.902  0.5577 -0.2464 -0.7110
  149MOL0     C20435   3.059   1.489   1.031 -0.4001 -0.5313  0.6411
  149MOL0     C20436   3.181   1.581   0.979 -0.1330 -0.4460  0.2063
  149MOL0     C20437   3.267   1.646   1.089  0.6187 -0.5379 -0.3236
  149MOL0     C20438   3.285   1.575   1.219  0.4270 -0.1324  0.8116
  149MOL0     C20439   3.398   1.626   1.300  0.2371 -0.2810 -0.0258
  149MOL0     C20440   3.370   1.765   1.360  0.2867 -0.3563  0.1823
  149MOL0     N20441   3.313   1.755   1.489  0.9968  0.8535 -0.3352
  149MOL0     C20442   3.382   1.770   1.609  0.5897  0.6362 -0.2450
  149MOL0     C20443   3.292   1.748   1.707 -0.4653  0.1729 -0.7452
  149MOL0     C20444   3.333   1.770   1.858 -1.2467 -0.4011 -0.4711
  149MOL0     C20445   3.226   1.814   1.950  0.4307  0.4114 -0.7797
  149MOL0     C20446   3.153   1.948   1.905  0.6101 -0.3203  0.0685
  149MOL0     C20447   3.237   2.066   1.870 -0.0598 -1.2547 -0.1896
  149MOL0     O20448   3.348   2.083   1.961 -0.2548  0.6502 -0.1131
  149MOL0     C20449   3.399   2.202   1.983 -0.1654 -0.1801 -0.5439
  149MOL0     C20450   3.370   2.316   1.902 -0.2407  0.2959 -0.4311
  149MOL0     C20451   3.415   2.441   1.940  0.0333 -0.5996  0.6739
  149MOL0     C20452   3.376   2.565   1.852  0.5360 -0.0542  0.7387
  149MOL0     C20453   3.496   2.469   2.053 -0.1612  0.6105  0.3407
  149MOL0     C20454   3.545   2.602   2.098 -0.7819  0.3146 -0.2283
  149MOL0     O20455   3.526   2.619   2.226 -0.0400  0.2026  0.0056
  149MOL0     C20456   3.611   2.685   2.316 -0.3786 -0.9170  0.3712
  149MOL0     C20457   3.734   2.735   2.281 -0.7229 -0.1183 -0.3715
  149MOL0     C20458   3.807   2.820   2.374  0.1096  0.2798  0.3516
  149MOL0     C20459   3.768   2.845   2.506  0.1062  0.4252 -0.2294
  149MOL0     O20460   3.839   2.901   2.609  0.8805  0.2402 -0.3221
  149MOL0     C20461   3.902   2.814   2.713  0.0547 -0.0306  1.0109
  149MOL0     C20462   3.814   2.804   2.847  0.5080 -0.0357 -0.1224
  149MOL0     C20463   3.763   2.660   2.864  1.8077 -0.1747  0.0390
  149MOL0     C20464   3.683   2.647   3.006  1.3703 -0.0873  0.5005
  149MOL0     C20465   3.754   2.651   3.136 -0.1625 -0.4366  0.2866
  149MOL0     C20466   3.872   2.548   3.130  0.1904 -0.3356  0.6483
  149MOL0     C20467   3.915   2.484   3.254  0.4737 -0.1579 -0.0304
  149MOL0     C20468   3.921   2.593   3.364  0.5573  0.7463 -0.0873
  149MOL0    Cl20469   3.753   2.603   3.452 -0.1772  0.1652 -0.3622
  149MOL0     C20470   3.642   2.780   2.545  0.2648  0.2215 -0.3552
  149MOL0     C20471   3.565   2.710   2.448  0.2947  0.6905  0.4064
  149MOL0     O20472   3.610   2.671   2.022  0.7367  0.0748  0.9501
  149MOL0     C20473   3.534   2.356   2.123 -0.3911 -0.4242 -0.5300
  149MOL0     C20474   3.483   2.226   2.097 -0.3649 -0.8258 -0.3391
  149MOL0     N20475   3.179   1.706   1.650 -0.5702 -0.3838  0.5599
  149MOL0     N20476   3.182   1.708   1.521  0.0580 -0.3316  0.5943
  149MOL0     C20477   2.767   1.185   1.120 -0.9900 -0.5723  0.2867
  149MOL0     C20478   2.751   1.068   1.191 -0.2280  0.2975 -0.0140
  149MOL0     C20479   2.551   0.708   1.321  0.5097  0.3285 -0.3165
  149MOL0     C20480   2.616   0.693   1.452 -0.2710  1.1911  0.3015
  149MOL0     C20481   2.564   0.597   1.537 -0.7900  0.7765  1.1813
  149MOL0     C20482   2.470   0.503   1.482 -0.5285  0.4366  0.2169
  149MOL0     O20483   2.410   0.415   1.569  0.2723  0.7714  0.1184
  149MOL0     C20484   2.488   0.298   1.599  0.2542  0.1325 -0.3817
  149MOL0     C20485   2.459   0.179   1.495  0.0089 -0.8428 -0.2431
  149MOL0     C20486   2.316   0.151   1.476 -1.4839  0.0708  0.7847
  149MOL0     C20487   2.291   0.042   1.372  0.4013 -0.0025 -0.5346
  149MOL0     C20488   2.163   0.053   1.291  0.4691  0.0380  0.9232
  149MOL0     C20489   2.052   0.060   1.235 -0.1286 -1.1939  0.4981
  149MOL0     C20490   2.428   0.512   1.349  0.1690  0.4036 -0.8723
  149MOL0     C20491   2.462   0.614   1.266  0.0081 -0.6271 -0.3571
  149MOL0     C20492   2.400   0.623   1.126  0.3519 -0.5945 -0.1693
  149MOL0     H20493   2.706   0.838   0.945 -3.5931  1.0329  0.1868
  149MOL0     H20494   2.759   1.052   0.806  0.1640 -2.4434 -0.0977
  149MOL0     H20495   2.814   1.422   1.045 -3.5487 -1.5130 -1.1126
  149MOL0     H20496   2.774   1.492   0.892  2.3654  1.5776  0.3992
  149MOL0     H20497   3.031   1.373   0.853  2.2924 -1.3637  2.6665
  149MOL0     H20498   2.980   1.543   0.839  0.5927 -0.3983 -0.9224
  149MOL0     H20499   2.997   1.550   1.098 -2.1528 -0.8695 -0.6222
  149MOL0     H20500   3.091   1.395   1.078 -0.2078  0.2490  2.1364
  149MOL0     H20501   3.243   1.527   0.908  0.5775  0.6099 -0.0043
  149MOL0     H20502   3.138   1.665   0.924 -0.4708  0.4093  1.7016
  149MOL0     H20503   3.219   1.742   1.110 -1.0197 -0.7462 -2.7172
  149MOL0     H20504   3.365   1.678   1.051  1.2097  0.0100  1.5613
  149MOL0     H20505   3.199   1.579   1.287  1.2881  0.0275  1.9325
  149MOL0     H20506   3.309   1.471   1.195  1.0262  0.0148  0.7486
  149MOL0     H20507   3.478   1.641   1.227  0.4130 -1.5726 -0.1105
  149MOL0     H20508   3.427   1.551   1.373  1.9384 -0.6997 -1.0643
  149MOL0     H20509   3.466   1.816   1.373 -0.6773  1.2438  1.5200
  149MOL0     H20510   3.295   1.825   1.308 -1.1608 -1.5285  0.8428
  149MOL0     H20511   3.482   1.811   1.608  0.8139  0.1013 -1.4805
  149MOL0     H20512   3.404   1.854   1.860  0.3106 -1.6390 -1.5435
  149MOL0     H20513   3.381   1.687   1.910  0.2961  2.7351  3.7589
  149MOL0     H20514   3.146   1.739   1.949  0.2281  0.6281 -1.1996
  149MOL0     H20515   3.268   1.840   2.048 -3.7670  4.5199  0.3378
  149MOL0     H20516   3.080   1.927   1.826 -0.2142 -0.0627  0.7463
  149MOL0     H20517   3.092   1.986   1.988  2.7737 -0.6422  1.8973
  149MOL0     H20518   3.257   2.082   1.764 -0.2973 -1.2014 -0.2286
  149MOL0     H20519   3.166   2.144   1.897 -1.6964 -3.4136  2.1952
  149MOL0     H20520   3.319   2.306   1.807  1.6234 -1.3037 -1.3374
  149MOL0     H20521   3.275   2.599   1.878  0.7009 -0.2290  1.6468
  149MOL0     H20522   3.373   2.524   1.750  0.4492 -1.3835  1.2517
  149MOL0     H20523   3.453   2.642   1.849 -1.8268  2.4414 -0.8094
  149MOL0     H20524   3.766   2.719   2.179 -0.4937 -0.8131 -0.1921
  149MOL0     H20525   3.892   2.877   2.337 -0.1275  0.0084 -0.6590
  149MOL0     H20526   3.920   2.715   2.670  0.5345  0.4095  0.1695
  149MOL0     H20527   4.000   2.860   2.731 -0.8388  2.5258 -0.1704
  149MOL0     H20528   3.878   2.831   2.932  0.7246 -0.2316 -0.2219
  149MOL0     H20529   3.728   2.868   2.823 -0.5164 -1.2488  0.1995
  149MOL0     H20530   3.840   2.583   2.850  3.8414  2.1801 -2.7380
  149MOL0     H20531   3.687   2.648   2.787 -0.9739  2.4717  2.1560
  149MOL0     H20532   3.633   2.550   3.012  2.0859 -0.6134 -1.2287
  149MOL0     H20533   3.612   2.731   3.010  2.1265  1.0523 -3.8927
  149MOL0     H20534   3.790   2.752   3.157  3.2350 -1.5310  0.3679
  149MOL0     H20535   3.669   2.627   3.200  2.0198 -0.4598  3.3946
  149MOL0     H20536   3.954   2.611   3.095 -0.2841  1.8585  3.2133
  149MOL0     H20537   3.850   2.464   3.063  1.3686 -1.0128  1.0713
  149MOL0     H20538   4.006   2.424   3.247 -0.9611 -2.8212  2.1293
  149MOL0     H20539   3.840   2.410   3.285 -1.4548  2.1828  1.1793
  149MOL0     H20540   3.951   2.693   3.332 -4.4991  2.9732  1.1001
  149MOL0     H20541   4.000   2.561   3.433  0.1863  1.8990  0.9029
  149MOL0     H20542   3.591   2.781   2.641 -0.3264 -0.4790 -0.6536
  149MOL0     H20543   3.466   2.697   2.489  0.8732  1.4666  2.0957
  149MOL0     H20544   3.606   2.375   2.202 -0.7833  3.3920 -0.8675
  149MOL0     H20545   3.529   2.144   2.152  1.1911  0.6420  0.6359
  149MOL0     H20546   2.795   1.274   1.175 -0.1698  0.0524 -1.0911
  149MOL0     H20547   2.749   1.087   1.298  3.7012  0.1847  0.2273
  149MOL0     H20548   2.690   0.762   1.489  2.5460 -1.2093 -0.3988
  149MOL0     H20549   2.596   0.581   1.639  0.2215  0.0454  0.7659
  149MOL0     H20550   2.592   0.329   1.610  0.4994 -1.4922  3.5332
  149MOL0     H20551   2.456   0.257   1.695 -0.6282 -0.5083 -0.9436
  149MOL0     H20552   2.514   0.091   1.530  2.0236  0.6246  0.4976
  149MOL0     H20553   2.503   0.211   1.400  0.3756  1.5578  0.6751
  149MOL0     H20554   2.276   0.122   1.573  1.0333 -2.4691  1.2207
  149MOL0     H20555   2.249   0.235   1.458  0.4171  1.3863 -0.6039
  149MOL0     H20556   2.276  -0.051   1.428 -1.7691 -1.2413 -2.9269
  149MOL0     H20557   2.375   0.031   1.304 -1.2839  2.0429 -3.1799
  149MOL0     H20558   1.959   0.050   1.183 -1.0384 -0.3937  1.9049
  149MOL0     H20559   2.360   0.445   1.298  2.0711 -2.3462  0.0092
  149MOL0     H20560   2.335   0.711   1.128  2.8461  1.3215  0.6128
  149MOL0     H20561   2.477   0.649   1.053  0.8766 -1.6418  0.0013
  149MOL0     H20562   2.335   0.536   1.109 -1.2909 -0.2854  3.4791
  150MOL0     O20563   6.019  10.076  10.129  0.1819  0.0419 -0.3948
  150MOL0     C20564   6.023   9.968  10.185 -0.5236  0.9176  0.9389
  150MOL0     O20565   6.024   9.853  10.124 -0.0492  0.1389 -0.0509
  150MOL0     C20566   6.019   9.854   9.988 -0.3331  0.1719 -0.6780
  150MOL0     C20567   6.119   9.912   9.917 -0.8588 -0.5731  0.2640
  150MOL0     C20568   6.124   9.905   9.775 -0.4823 -0.0818 -0.1801
  150MOL0     C20569   6.014   9.855   9.708 -0.2940 -0.7416 -0.3725
  150MOL0     O20570   6.003   9.860   9.570 -0.2009  0.6140 -0.3798
  150MOL0     C20571   6.093   9.943   9.498  0.6422 -0.1554 -1.2846
  150MOL0     C20572   6.053   9.936   9.345  0.4097  0.4135 -0.8537
  150MOL0     C20573   6.068   9.791   9.284  1.0950 -0.2065 -0.0631
  150MOL0     C20574   6.053   9.793   9.134 -0.3164 -0.0030 -0.3071
  150MOL0     C20575   6.070   9.651   9.078  0.6518 -0.0485 -0.7531
  150MOL0     C20576   5.950   9.566   9.138  0.0225  0.2748  0.4716
  150MOL0     C20577   5.962   9.424   9.067  0.0594  0.5394  0.7574
  150MOL0     C20578   5.829   9.346   9.091 -0.8709 -0.1397 -0.0662
  150MOL0     N20579   5.758   9.352   8.963 -0.1839  0.1004  0.2180
  150MOL0     C20580   5.687   9.459   8.933  0.3194 -0.2563  0.0678
  150MOL0     C20581   5.626   9.418   8.817 -0.4630  0.8001 -0.2274
  150MOL0     C20582   5.539   9.508   8.735 -0.6911  0.5352  0.6539
  150MOL0     C20583   5.409   9.437   8.717  0.1839 -0.1051  0.8009
  150MOL0     C20584   5.310   9.516   8.628 -0.2439 -0.6068  0.4549
  150MOL0     C20585   5.238   9.627   8.704  0.0365  0.4690 -0.5616
  150MOL0     O20586   5.143   9.701   8.636 -0.2066  0.2684 -0.5078
  150MOL0     C20587   5.179   9.815   8.571  0.4586  0.3501  0.0794
  150MOL0     C20588   5.304   9.862   8.530  0.4861 -0.1922 -0.2049
  150MOL0     C20589   5.321   9.976   8.464  0.1145 -1.8551 -0.7966
  150MOL0     C20590   5.454  10.021   8.436  0.2890  0.4433  0.1132
  150MOL0     C20591   5.209  10.057   8.437  0.7885 -0.1786  0.1757
  150MOL0     C20592   5.213  10.192   8.370  0.0293  0.2367  1.5993
  150MOL0     O20593   5.165  10.215   8.248 -0.0469  0.3121  0.6614
  150MOL0     C20594   5.119  10.338   8.210 -0.8078 -0.8016 -0.3782
  150MOL0     C20595   5.137  10.380   8.081  1.3254 -0.3249  0.4271
  150MOL0     C20596   5.057  10.487   8.038 -0.5902 -0.3069 -0.6600
  150MOL0     C20597   4.984  10.560   8.133 -0.4438 -0.3060 -0.6341
  150MOL0     O20598   4.911  10.679   8.113  0.3340 -0.8580  0.1301
  150MOL0     C20599   4.821  10.674   8.006 -0.5634  0.2438 -0.0104
  150MOL0     C20600   4.726  10.797   7.992 -0.7534  0.5124 -0.5841
  150MOL0     C20601   4.646  10.833   8.121  0.3784 -0.4255 -0.1022
  150MOL0     C20602   4.534  10.731   8.151 -0.6376 -0.7295 -0.4746
  150MOL0     C20603   4.497  10.732   8.303 -0.2275  0.0285  1.0137
  150MOL0     C20604   4.594  10.712   8.419  0.4472  0.3415  0.2662
  150MOL0     C20605   4.638  10.843   8.474  0.4319  0.6111 -0.6385
  150MOL0     C20606   4.625  10.856   8.628  0.6669 -0.6635  0.2261
  150MOL0    Cl20607   4.759  10.780   8.715 -0.1910 -0.1120 -0.2922
  150MOL0     C20608   4.985  10.525   8.265 -1.0287  0.5821  1.5576
  150MOL0     C20609   5.049  10.415   8.312 -1.2520  0.7374 -0.2325
  150MOL0     O20610   5.256  10.280   8.442 -0.7028  1.0066 -0.9269
  150MOL0     C20611   5.086  10.010   8.473 -0.6220  0.0459  0.9454
  150MOL0     C20612   5.062   9.887   8.531 -0.0213 -0.9352  0.7471
  150MOL0     N20613   5.674   9.290   8.789 -0.0677 -0.2303 -0.0700
  150MOL0     N20614   5.756   9.253   8.880  0.1255  0.7638  0.1700
  150MOL0     C20615   5.917   9.795   9.781 -0.5057 -1.0092 -0.4914
  150MOL0     C20616   5.921   9.788   9.921  0.1841  0.6896  0.4514
  150MOL0     C20617   6.019   9.959  10.331 -0.7532 -0.6263  0.0795
  150MOL0     C20618   6.074   9.845  10.388 -1.4375 -0.4555  0.1102
  150MOL0     C20619   6.094   9.845  10.524  0.0796  0.5167 -0.2987
  150MOL0     C20620   6.066   9.950  10.610 -0.0889  0.4721  0.0915
  150MOL0     O20621   6.084   9.931  10.749 -0.0409 -0.3226  0.8626
  150MOL0     C20622   6.082  10.047  10.841 -0.1919  0.2588 -0.1916
  150MOL0     C20623   6.198  10.150  10.814  0.9088  0.0683  0.2596
  150MOL0     C20624   6.219  10.249  10.922  0.5017  0.1982 -0.0395
  150MOL0     C20625   6.168  10.387  10.880  0.0966  0.5536 -0.2586
  150MOL0     C20626   6.234  10.440  10.768  0.5778 -0.7535  0.0725
  150MOL0     C20627   6.301  10.497  10.685  0.4581 -0.3570  0.8008
  150MOL0     C20628   6.005  10.057  10.553 -0.1624 -0.1884  0.1788
  150MOL0     C20629   5.981  10.067  10.416 -0.6129  0.4518  0.2088
  150MOL0     C20630   5.914  10.202  10.372  0.0228  0.2514 -0.2246
  150MOL0     H20631   6.210   9.949   9.964  0.1481 -0.3679 -1.7469
  150MOL0     H20632   6.213   9.945   9.728  0.0646 -0.4630  0.5101
  150MOL0     H20633   6.196   9.914   9.520  0.2259  0.6171  2.4081
  150MOL0     H20634   6.081  10.044   9.537 -0.9843 -0.6319 -0.4665
  150MOL0     H20635   5.950   9.969   9.330  1.1548  4.5049  1.5658
  150MOL0     H20636   6.112  10.003   9.282  2.7035 -2.2373 -1.7439
  150MOL0     H20637   6.164   9.752   9.320  0.6533  0.0291  1.4525
  150MOL0     H20638   5.991   9.732   9.335  0.3002  1.4612  0.7574
  150MOL0     H20639   5.950   9.827   9.118 -1.3878 -1.8341  1.9759
  150MOL0     H20640   6.131   9.854   9.089 -0.6477  1.6402  1.2461
  150MOL0     H20641   6.170   9.611   9.096  0.8562  1.2357  1.2974
  150MOL0     H20642   6.061   9.655   8.969 -1.7637 -0.3256 -0.6295
  150MOL0     H20643   5.942   9.549   9.246 -3.4153 -2.3904 -0.0356
  150MOL0     H20644   5.860   9.610   9.095 -0.4417 -0.9810  0.1117
  150MOL0     H20645   6.043   9.361   9.104 -0.3709 -0.5809 -0.1407
  150MOL0     H20646   5.984   9.442   8.961 -1.9369 -0.7860  0.0493
  150MOL0     H20647   5.845   9.241   9.119  3.0209  0.1768 -0.5974
  150MOL0     H20648   5.789   9.396   9.180  0.4467  0.5284  0.1778
  150MOL0     H20649   5.687   9.559   8.973  5.1996  0.6735 -1.5523
  150MOL0     H20650   5.591   9.533   8.642 -0.9004  0.8859  0.6291
  150MOL0     H20651   5.519   9.598   8.794 -1.5336 -0.5292  2.0591
  150MOL0     H20652   5.431   9.338   8.676 -0.9944  0.4395 -1.3282
  150MOL0     H20653   5.358   9.443   8.814  1.3888  3.1184  1.3715
  150MOL0     H20654   5.351   9.552   8.533 -2.7236  0.7856 -0.1825
  150MOL0     H20655   5.239   9.435   8.608  0.0191 -0.7760  0.1944
  150MOL0     H20656   5.196   9.579   8.793  0.4483  0.4809 -0.3580
  150MOL0     H20657   5.314   9.699   8.737 -0.3101 -0.0751  1.5485
  150MOL0     H20658   5.396   9.810   8.555  1.1111  1.2826  0.6733
  150MOL0     H20659   5.495  10.081   8.517  0.2151 -0.6108  0.9435
  150MOL0     H20660   5.436  10.086   8.349 -0.5313 -1.0000 -0.8398
  150MOL0     H20661   5.529   9.950   8.400 -1.0376 -1.6652  1.3151
  150MOL0     H20662   5.194  10.317   8.014 -0.3614 -2.7109  1.0914
  150MOL0     H20663   5.054  10.527   7.937 -2.1089 -0.9348 -0.8840
  150MOL0     H20664   4.885  10.659   7.919  2.5259  0.4311  2.1041
  150MOL0     H20665   4.754  10.589   8.023 -0.5599  0.1762 -0.3332
  150MOL0     H20666   4.777  10.891   7.968 -1.5747  1.0351 -0.3207
  150MOL0     H20667   4.655  10.777   7.911 -0.3047  0.3981 -0.9529
  150MOL0     H20668   4.609  10.935   8.105  1.7769 -0.0508 -1.1418
  150MOL0     H20669   4.716  10.839   8.205 -0.5420  0.0818  0.6678
  150MOL0     H20670   4.567  10.632   8.118  0.4608 -1.1012  1.5716
  150MOL0     H20671   4.446  10.753   8.091 -1.5786 -0.9068  0.8019
  150MOL0     H20672   4.432  10.819   8.318 -1.1004 -0.6013  1.0168
  150MOL0     H20673   4.430  10.645   8.294 -0.8640  0.7103 -1.8476
  150MOL0     H20674   4.675  10.657   8.371  0.7636  1.0587 -0.0344
  150MOL0     H20675   4.551  10.656   8.503  0.6106  0.9974  0.7960
  150MOL0     H20676   4.589  10.931   8.430 -0.9962 -0.3919 -1.1008
  150MOL0     H20677   4.745  10.862   8.458  0.8397  2.3589  3.1384
  150MOL0     H20678   4.526  10.817   8.653 -0.7190  0.8514 -2.4812
  150MOL0     H20679   4.624  10.964   8.647 -2.5607 -0.2423 -1.5197
  150MOL0     H20680   4.930  10.584   8.338  1.3782  0.5139  3.5717
  150MOL0     H20681   5.058  10.384   8.415 -0.2585  2.1719  0.1414
  150MOL0     H20682   4.999  10.071   8.451 -0.0840  1.4102  2.3963
  150MOL0     H20683   4.963   9.847   8.554  0.1985 -1.1970  1.2434
  150MOL0     H20684   5.837   9.742   9.731  1.6048 -2.1016 -2.9746
  150MOL0     H20685   5.840   9.742   9.977  1.9059 -2.4325  0.6245
  150MOL0     H20686   6.115   9.758  10.338  2.0841 -0.0792  1.9476
  150MOL0     H20687   6.121   9.755  10.578 -1.2870 -0.1947 -0.7472
  150MOL0     H20688   5.985  10.092  10.820  0.4553  0.7880 -2.2951
  150MOL0     H20689   6.082  10.004  10.941 -2.1863  0.0536 -0.2456
  150MOL0     H20690   6.198  10.197  10.715  0.2992  0.3221  0.3749
  150MOL0     H20691   6.296  10.104  10.801  0.3379 -0.6907 -1.7408
  150MOL0     H20692   6.173  10.201  11.009 -1.1646  0.0317 -0.9641
  150MOL0     H20693   6.326  10.260  10.942  1.3554 -4.8651 -0.3623
  150MOL0     H20694   6.190  10.461  10.959 -0.6483 -2.3042  2.8514
  150MOL0     H20695   6.060  10.388  10.865 -0.2649  2.5905  1.8442
  150MOL0     H20696   6.366  10.522  10.604 -2.0494 -2.8229 -2.2862
  150MOL0     H20697   5.979  10.139  10.620 -1.5816 -0.5267  0.0839
  150MOL0     H20698   5.888  10.268  10.455 -2.0927 -2.3138  1.2857
  150MOL0     H20699   5.976  10.263  10.305  0.5256  0.3396  0.3174
  150MOL0     H20700   5.820  10.181  10.321 -1.6931 -0.2593  2.9329
  151MOL0     O20701   6.073   4.313  10.246  0.0498 -0.1913 -0.0119
  151MOL0     C20702   6.091   4.433  10.234 -0.7078  0.4085 -0.2230
  151MOL0     O20703   6.017   4.515  10.159 -0.7361  0.4008  0.3172
  151MOL0     C20704   5.921   4.452  10.078 -0.1833 -0.1756  0.3122
  151MOL0     C20705   5.958   4.374   9.965  0.2738 -0.4813  0.2905
  151MOL0     C20706   5.868   4.325   9.876  0.4809  0.3714 -0.5118
  151MOL0     C20707   5.732   4.347   9.898  0.6001 -0.2111 -1.1633
  151MOL0     O20708   5.648   4.284   9.815 -0.0591  0.1779  0.7976
  151MOL0     C20709   5.523   4.233   9.867  0.1828 -0.4279 -0.3170
  151MOL0     C20710   5.411   4.324   9.821 -0.3811  0.7490 -0.8664
  151MOL0     C20711   5.367   4.280   9.681  0.6039  0.5007 -0.8245
  151MOL0     C20712   5.222   4.326   9.640 -0.1655  0.1550  0.1250
  151MOL0     C20713   5.201   4.269   9.495  0.1185 -0.3339  0.3581
  151MOL0     C20714   5.058   4.296   9.452 -0.0233  0.3718 -0.2680
  151MOL0     C20715   5.028   4.442   9.442  0.2833  0.0779 -0.1565
  151MOL0     C20716   4.910   4.484   9.354 -0.2952 -0.0616  0.0720
  151MOL0     N20717   4.786   4.449   9.430  0.1318  0.2722 -0.3172
  151MOL0     C20718   4.720   4.552   9.492 -0.1860  0.7372  0.3518
  151MOL0     C20719   4.616   4.494   9.556 -1.4910 -0.5978 -0.1029
  151MOL0     C20720   4.514   4.564   9.639  0.5180  0.2514 -0.5813
  151MOL0     C20721   4.387   4.577   9.570 -0.0650 -1.0800 -0.7140
  151MOL0     C20722   4.274   4.632   9.652  1.3279  0.6970 -1.1235
  151MOL0     C20723   4.144   4.654   9.566  0.3821  0.6922  0.0307
  151MOL0     O20724   4.023   4.713   9.629 -0.1265  0.6528  0.6674
  151MOL0     C20725   4.032   4.851   9.664 -0.3503  0.3085 -0.3445
  151MOL0     C20726   4.122   4.942   9.599  0.6843 -0.3318 -0.2837
  151MOL0     C20727   4.107   5.081   9.633 -0.1497 -0.2011  0.4106
  151MOL0     C20728   4.196   5.181   9.567 -0.0581  0.1929 -0.1392
  151MOL0     C20729   4.010   5.133   9.721 -0.0089  0.0369 -0.1734
  151MOL0     C20730   3.999   5.276   9.758 -0.7233 -0.6116  0.6427
  151MOL0     O20731   3.867   5.327   9.763  0.8587 -0.1449  0.8861
  151MOL0     C20732   3.833   5.446   9.819  0.4568 -0.1529 -0.5571
  151MOL0     C20733   3.918   5.555   9.828  0.0250 -0.1195 -0.1362
  151MOL0     C20734   3.883   5.682   9.887  0.2108 -0.2465 -0.3897
  151MOL0     C20735   3.756   5.702   9.944 -0.2580 -0.0752  0.3206
  151MOL0     O20736   3.730   5.826   9.994 -0.3623 -0.2518 -0.3940
  151MOL0     C20737   3.603   5.878  10.014  0.0214 -0.1303  0.6275
  151MOL0     C20738   3.594   6.021  10.065  0.3226  0.1705  0.1914
  151MOL0     C20739   3.449   6.068  10.044 -0.6961  0.2017  0.1299
  151MOL0     C20740   3.408   6.135   9.913 -0.4639  0.2197  0.0235
  151MOL0     C20741   3.269   6.183   9.918  0.3507  0.1066  0.5928
  151MOL0     C20742   3.246   6.293   9.813  0.7975  0.5747 -0.3594
  151MOL0     C20743   3.102   6.340   9.792  0.2516 -0.1321  1.0547
  151MOL0     C20744   3.069   6.419   9.678  0.7016  0.8838 -0.3865
  151MOL0    Cl20745   2.885   6.422   9.653 -0.0217 -0.2742  0.9747
  151MOL0     C20746   3.677   5.595   9.934 -0.1063  0.9666 -1.2100
  151MOL0     C20747   3.712   5.466   9.883 -0.6805 -0.5071  0.0183
  151MOL0     O20748   4.106   5.335   9.799  0.4474 -0.8611  0.3352
  151MOL0     C20749   3.935   5.037   9.784  1.0424 -0.0043 -0.8691
  151MOL0     C20750   3.936   4.900   9.756 -0.4100  0.2359 -0.3787
  151MOL0     N20751   4.616   4.356   9.540 -0.7030 -0.2500 -0.6374
  151MOL0     N20752   4.726   4.330   9.461 -0.3682  0.0287 -0.8267
  151MOL0     C20753   5.689   4.420  10.009 -0.6679 -0.4414 -0.0494
  151MOL0     C20754   5.784   4.470  10.102 -0.4497  0.2848  0.0894
  151MOL0     C20755   6.224   4.489  10.296 -0.4694  1.3965 -0.5949
  151MOL0     C20756   6.282   4.586  10.226  0.6180 -0.3387  0.7171
  151MOL0     C20757   6.392   4.646  10.278  0.0756 -0.2746 -0.1693
  151MOL0     C20758   6.450   4.609  10.404  1.0294 -0.8196  0.2887
  151MOL0     O20759   6.570   4.666  10.463 -0.7536 -0.3246  0.1775
  151MOL0     C20760   6.629   4.789  10.421  0.9519 -0.5326  0.2182
  151MOL0     C20761   6.776   4.797  10.470  0.4280 -0.4776 -0.0646
  151MOL0     C20762   6.849   4.926  10.428  0.1089  0.6413 -0.0724
  151MOL0     C20763   6.788   5.061  10.433  0.3556  0.4495  0.2569
  151MOL0     C20764   6.740   5.078  10.574  0.0682 -0.0712  0.9038
  151MOL0     C20765   6.682   5.090  10.678  0.7528 -0.8255  0.3845
  151MOL0     C20766   6.397   4.497  10.471  0.0897  0.6690 -0.5869
  151MOL0     C20767   6.279   4.440  10.416 -0.4023  0.3107 -0.9396
  151MOL0     C20768   6.217   4.320  10.494 -0.3346 -0.3948 -1.1319
  151MOL0     H20769   6.063   4.364   9.942  0.0782  1.8580 -2.1772
  151MOL0     H20770   5.893   4.278   9.782 -0.4176  2.3266 -1.8050
  151MOL0     H20771   5.528   4.229   9.976 -1.0543 -0.9024 -0.2644
  151MOL0     H20772   5.504   4.128   9.842  2.0800 -1.2488  1.3540
  151MOL0     H20773   5.343   4.316   9.906 -0.7352  2.6313 -0.9392
  151MOL0     H20774   5.440   4.429   9.820 -0.1359  0.9842  3.9631
  151MOL0     H20775   5.429   4.317   9.599 -3.6968  2.0400 -3.6942
  151MOL0     H20776   5.368   4.171   9.674 -0.1417  0.3921  0.4352
  151MOL0     H20777   5.142   4.289   9.706 -1.0788 -1.1333 -1.6175
  151MOL0     H20778   5.212   4.434   9.650  0.9146  0.0141  4.9459
  151MOL0     H20779   5.224   4.162   9.495  0.0301 -0.3804  1.9547
  151MOL0     H20780   5.265   4.325   9.426  0.1942  1.2022  1.6276
  151MOL0     H20781   5.031   4.249   9.357 -1.3738  0.7624 -0.1034
  151MOL0     H20782   4.989   4.254   9.526 -2.3396  1.0918 -1.9276
  151MOL0     H20783   5.119   4.483   9.396 -0.4057  4.2157  1.7890
  151MOL0     H20784   5.018   4.482   9.543 -0.9724 -0.1908 -0.1653
  151MOL0     H20785   4.922   4.592   9.341  0.8573  0.0067  1.4657
  151MOL0     H20786   4.913   4.440   9.253 -2.0181 -0.4209  0.1493
  151MOL0     H20787   4.737   4.659   9.487 -4.2011  1.4769 -0.7314
  151MOL0     H20788   4.557   4.660   9.670 -0.8131  0.9562 -0.8577
  151MOL0     H20789   4.489   4.505   9.727 -2.3899  3.3243  0.8977
  151MOL0     H20790   4.410   4.640   9.483 -0.2033  0.9234  0.6357
  151MOL0     H20791   4.358   4.479   9.532 -0.4235 -0.8792 -0.9624
  151MOL0     H20792   4.241   4.574   9.738 -2.0960  1.7577 -1.5848
  151MOL0     H20793   4.302   4.731   9.688 -0.7074  0.8107  0.2952
  151MOL0     H20794   4.179   4.720   9.487 -1.1212  0.2240 -1.0722
  151MOL0     H20795   4.120   4.555   9.524  2.6316  0.0544  0.1201
  151MOL0     H20796   4.189   4.916   9.519 -0.9943  0.8879 -2.1898
  151MOL0     H20797   4.269   5.130   9.504  1.2205  2.2861 -0.4542
  151MOL0     H20798   4.252   5.244   9.637  3.1374 -1.1505 -1.2974
  151MOL0     H20799   4.149   5.249   9.494  0.1385  1.1789  0.6321
  151MOL0     H20800   4.022   5.554   9.798  0.6204  3.3689  1.3626
  151MOL0     H20801   3.958   5.760   9.890 -0.2761  0.2409 -0.6557
  151MOL0     H20802   3.567   5.884   9.911  1.5682 -2.3890 -0.1189
  151MOL0     H20803   3.533   5.817  10.070 -0.0571 -0.7409 -0.1171
  151MOL0     H20804   3.630   5.999  10.166  5.4363 -0.4617 -1.4883
  151MOL0     H20805   3.663   6.092  10.019 -1.6512  0.0836 -3.1668
  151MOL0     H20806   3.434   6.147  10.118 -2.6493 -0.3275  0.3469
  151MOL0     H20807   3.374   5.995  10.074 -1.3134  1.0828  0.7822
  151MOL0     H20808   3.425   6.068   9.828 -0.1552 -2.2831  1.9312
  151MOL0     H20809   3.481   6.215   9.900  0.1260 -0.1778  0.8105
  151MOL0     H20810   3.194   6.105   9.905 -2.3217  2.6682 -0.4847
  151MOL0     H20811   3.247   6.225  10.017  0.3292 -1.0030  1.0639
  151MOL0     H20812   3.279   6.246   9.720 -3.7781 -2.6723 -0.6997
  151MOL0     H20813   3.307   6.379   9.841  2.9482 -0.8789 -0.2725
  151MOL0     H20814   3.062   6.382   9.885 -1.5803  0.1320  0.1937
  151MOL0     H20815   3.044   6.248   9.790  0.9564 -0.5777  0.6874
  151MOL0     H20816   3.107   6.363   9.592  2.2096  3.1316 -1.2881
  151MOL0     H20817   3.109   6.521   9.671  1.9847  0.3000 -2.4383
  151MOL0     H20818   3.578   5.583   9.975 -0.7549  2.4600 -2.2664
  151MOL0     H20819   3.649   5.377   9.887  2.4723 -2.9226  0.1445
  151MOL0     H20820   3.854   5.075   9.845  1.1230  0.8511 -1.2770
  151MOL0     H20821   3.866   4.825   9.791 -0.7912  1.0513  0.6438
  151MOL0     H20822   5.583   4.444  10.016  0.4764  5.5309  1.6092
  151MOL0     H20823   5.743   4.528  10.184 -1.8998 -0.6086  0.0323
  151MOL0     H20824   6.254   4.608  10.123  3.2593 -0.4674 -0.0983
  151MOL0     H20825   6.434   4.722  10.213 -4.6842  1.2392 -1.9146
  151MOL0     H20826   6.635   4.793  10.312  0.7898  2.4087  0.2302
  151MOL0     H20827   6.571   4.878  10.447  2.3137  0.5172 -0.1960
  151MOL0     H20828   6.825   4.708  10.431  0.6464  0.3372 -1.6973
  151MOL0     H20829   6.773   4.788  10.579  0.2013 -1.3793 -0.1315
  151MOL0     H20830   6.935   4.920  10.495  0.8402  1.2964 -0.9286
  151MOL0     H20831   6.888   4.909  10.328 -2.1224  0.4082 -0.9553
  151MOL0     H20832   6.698   5.063  10.370  0.6394 -1.0228 -0.2222
  151MOL0     H20833   6.850   5.145  10.401 -0.6818  0.4843 -1.8681
  151MOL0     H20834   6.603   5.086  10.750  0.8542 -0.0785  0.5403
  151MOL0     H20835   6.443   4.459  10.562 -2.1810 -1.1636 -0.0997
  151MOL0     H20836   6.120   4.334  10.543 -0.5301 -2.0251 -0.9748
  151MOL0     H20837   6.217   4.231  10.430  0.7403 -0.0279 -1.6623
  151MOL0     H20838   6.289   4.291  10.570  1.8911 -0.8425 -3.2998
  152MOL0     O20839   0.127   7.860   5.082  0.2463 -0.3461 -0.2267
  152MOL0     C20840   0.125   7.985   5.069  0.2081  0.4064 -0.0424
  152MOL0     O20841   0.163   8.073   5.163 -0.8397  0.4334 -0.5254
  152MOL0     C20842   0.262   8.048   5.258  0.1212  0.1855 -0.5158
  152MOL0     C20843   0.263   8.140   5.360  0.4170 -0.1093 -0.2206
  152MOL0     C20844   0.350   8.132   5.469 -0.4378 -0.0856  1.0137
  152MOL0     C20845   0.430   8.024   5.488  0.5326 -0.0880  0.0428
  152MOL0     O20846   0.518   8.040   5.593 -0.6617 -0.5955 -0.0124
  152MOL0     C20847   0.554   7.927   5.682  0.4943 -0.5521 -0.1964
  152MOL0     C20848   0.609   7.975   5.816 -1.0597 -0.3224  0.1311
  152MOL0     C20849   0.738   8.060   5.795 -0.6234  0.0085 -0.9695
  152MOL0     C20850   0.791   8.119   5.931  0.3671  0.2097 -1.0675
  152MOL0     C20851   0.932   8.181   5.933  0.3448 -0.6238  0.3788
  152MOL0     C20852   0.942   8.297   5.834  0.5975 -0.0041  0.0448
  152MOL0     C20853   1.068   8.388   5.846  1.1291 -0.2922  0.7154
  152MOL0     C20854   1.048   8.485   5.727  1.2480  0.5133 -0.0652
  152MOL0     N20855   1.149   8.589   5.707 -1.0938 -0.0054 -1.2538
  152MOL0     C20856   1.284   8.559   5.716 -0.4985  0.0772 -0.4425
  152MOL0     C20857   1.346   8.664   5.686 -0.1976  0.9915  0.5298
  152MOL0     C20858   1.492   8.681   5.685 -0.3199  0.3182  0.0879
  152MOL0     C20859   1.556   8.692   5.832  0.7118 -0.2286  0.2974
  152MOL0     C20860   1.698   8.749   5.841  0.0258  0.3868 -0.8530
  152MOL0     C20861   1.744   8.750   5.997  0.0635 -0.1266  1.0063
  152MOL0     O20862   1.737   8.615   6.043 -0.6270  1.2454  0.7104
  152MOL0     C20863   1.770   8.580   6.170 -0.3927 -0.5922 -0.0293
  152MOL0     C20864   1.761   8.448   6.223 -0.1855  0.4886  0.7056
  152MOL0     C20865   1.814   8.401   6.347 -0.5202  0.1201  0.1594
  152MOL0     C20866   1.819   8.253   6.372  0.0230 -0.5044 -0.2172
  152MOL0     C20867   1.879   8.498   6.426  0.5342 -0.5952 -0.1262
  152MOL0     C20868   1.938   8.468   6.554  0.2433 -0.5413 -0.3458
  152MOL0     O20869   2.056   8.512   6.568  0.0332 -1.3347  0.4084
  152MOL0     C20870   2.122   8.480   6.676 -0.2284 -0.0117  0.4198
  152MOL0     C20871   2.243   8.411   6.671  0.7571 -0.5574  0.2788
  152MOL0     C20872   2.319   8.388   6.789  0.1320 -0.0145 -0.4349
  152MOL0     C20873   2.275   8.433   6.910  0.0969 -1.1917 -0.9328
  152MOL0     O20874   2.336   8.383   7.020 -0.3373  0.4163  0.0123
  152MOL0     C20875   2.307   8.458   7.144 -0.3383 -0.8225 -1.4909
  152MOL0     C20876   2.433   8.449   7.240 -0.8687 -0.5673 -0.7109
  152MOL0     C20877   2.398   8.511   7.375  0.4734 -0.2885 -0.3088
  152MOL0     C20878   2.517   8.494   7.480 -0.3440 -0.7454 -0.4207
  152MOL0     C20879   2.495   8.559   7.612  0.9152  0.4087 -0.5957
  152MOL0     C20880   2.614   8.552   7.722  0.4147  1.0135  0.3530
  152MOL0     C20881   2.568   8.598   7.858  0.7691  0.2679  0.1386
  152MOL0     C20882   2.677   8.617   7.966 -0.1232  0.3223 -0.1664
  152MOL0    Cl20883   2.779   8.470   7.986  0.0989  0.4340 -0.3135
  152MOL0     C20884   2.153   8.509   6.908  0.3169  0.8671 -0.6689
  152MOL0     C20885   2.080   8.533   6.794  1.1297 -0.6719  0.3885
  152MOL0     O20886   1.877   8.399   6.630 -0.2076  0.0891  0.5859
  152MOL0     C20887   1.888   8.641   6.376  0.9895  0.1028 -0.0207
  152MOL0     C20888   1.836   8.676   6.250  0.5231  0.1361  0.0131
  152MOL0     N20889   1.256   8.775   5.672  0.4344  0.5482  0.7411
  152MOL0     N20890   1.134   8.721   5.681 -0.5326 -0.7512 -0.3571
  152MOL0     C20891   0.426   7.924   5.390  0.1082 -0.4106  0.2045
  152MOL0     C20892   0.344   7.931   5.272  0.1058 -0.1013 -0.4418
  152MOL0     C20893   0.053   8.035   4.954 -0.4079 -0.4439  0.0087
  152MOL0     C20894   0.022   8.171   4.958  0.6315  0.8452 -0.3198
  152MOL0     C20895  -0.054   8.239   4.859 -0.8921 -0.2865  1.2485
  152MOL0     C20896  -0.097   8.174   4.740 -0.1971  0.0419  0.1206
  152MOL0     O20897  -0.167   8.220   4.631 -0.7008 -0.0807 -0.1908
  152MOL0     C20898  -0.160   8.360   4.597  0.4345 -0.3910 -0.2969
  152MOL0     C20899  -0.054   8.368   4.488 -0.2390 -0.2850  0.2736
  152MOL0     C20900  -0.122   8.368   4.348 -0.4165 -1.1929 -0.3294
  152MOL0     C20901  -0.019   8.346   4.240 -0.4968 -0.3482  0.3317
  152MOL0     C20902   0.085   8.448   4.249  0.5245  0.4761  1.2946
  152MOL0     C20903   0.179   8.522   4.251  0.4381 -0.3706 -0.1193
  152MOL0     C20904  -0.064   8.037   4.736 -0.1111 -0.9272 -0.3396
  152MOL0     C20905   0.003   7.972   4.840 -0.5598  0.2317  0.4877
  152MOL0     C20906   0.032   7.822   4.809 -0.4132  0.1876 -0.3890
  152MOL0     H20907   0.200   8.227   5.347  1.2678  0.8734  1.7068
  152MOL0     H20908   0.349   8.213   5.541  0.5316 -2.4026  3.8320
  152MOL0     H20909   0.621   7.859   5.629  0.0016 -0.4459 -0.9719
  152MOL0     H20910   0.468   7.862   5.698  0.2446 -0.3524 -0.7064
  152MOL0     H20911   0.533   8.037   5.864  0.8032 -1.4468  5.2278
  152MOL0     H20912   0.641   7.892   5.880  1.7130 -0.1167 -0.8372
  152MOL0     H20913   0.820   7.994   5.766 -0.2703 -0.1280  0.2797
  152MOL0     H20914   0.732   8.136   5.716 -1.4497  1.6381  0.5935
  152MOL0     H20915   0.721   8.197   5.963  2.8693  2.5097 -0.9218
  152MOL0     H20916   0.781   8.031   5.995 -1.1353 -0.7198 -2.4765
  152MOL0     H20917   0.994   8.095   5.907  0.5020 -0.5856  0.6147
  152MOL0     H20918   0.952   8.229   6.029  2.0432 -0.9570  0.2269
  152MOL0     H20919   0.960   8.240   5.742  2.5386 -0.1239  0.4642
  152MOL0     H20920   0.846   8.350   5.830  1.4660  1.8495  1.9070
  152MOL0     H20921   1.160   8.330   5.841 -1.0006 -3.9411  0.5501
  152MOL0     H20922   1.065   8.440   5.942  0.4640 -1.2649  1.2369
  152MOL0     H20923   1.049   8.411   5.646 -0.2215 -0.1968  0.5300
  152MOL0     H20924   0.953   8.536   5.743  0.8026 -0.8032  2.0129
  152MOL0     H20925   1.319   8.463   5.753  2.4494 -0.0664 -3.1163
  152MOL0     H20926   1.529   8.765   5.626 -1.0238  1.0410  0.6542
  152MOL0     H20927   1.543   8.590   5.651  1.8596  0.1561  3.3034
  152MOL0     H20928   1.493   8.764   5.884 -0.1910 -0.4322 -0.4882
  152MOL0     H20929   1.541   8.595   5.879 -0.6903 -0.5366 -0.7212
  152MOL0     H20930   1.759   8.671   5.793 -3.5436 -2.8770 -0.5394
  152MOL0     H20931   1.722   8.842   5.789  1.9643 -0.2174 -1.1188
  152MOL0     H20932   1.845   8.789   6.010  0.6718 -1.3895  0.2403
  152MOL0     H20933   1.674   8.815   6.050 -1.3048 -1.0488  0.3985
  152MOL0     H20934   1.711   8.380   6.155 -1.5671  1.3562  0.8194
  152MOL0     H20935   1.767   8.240   6.467 -0.5905  2.7335  0.0150
  152MOL0     H20936   1.922   8.218   6.369 -0.2485 -1.3072 -1.8101
  152MOL0     H20937   1.766   8.190   6.299 -4.0006 -0.9313  2.7358
  152MOL0     H20938   2.283   8.381   6.575 -0.4632  2.4283 -1.2958
  152MOL0     H20939   2.412   8.337   6.767  0.2705 -0.6745  1.5109
  152MOL0     H20940   2.283   8.565   7.137  0.0191 -0.6732 -0.5914
  152MOL0     H20941   2.232   8.394   7.190  2.4261 -3.4885 -0.2938
  152MOL0     H20942   2.469   8.346   7.248 -0.7575 -0.3528  3.7831
  152MOL0     H20943   2.518   8.486   7.181 -0.5166 -2.1925 -1.2895
  152MOL0     H20944   2.309   8.462   7.417  2.1126 -0.5104  3.2343
  152MOL0     H20945   2.377   8.618   7.368  2.0114 -0.0221 -1.3218
  152MOL0     H20946   2.608   8.539   7.438  0.5354 -3.0777 -1.1867
  152MOL0     H20947   2.538   8.388   7.494  1.2293 -0.1179  3.3664
  152MOL0     H20948   2.483   8.666   7.594 -3.4709 -0.1921 -2.4432
  152MOL0     H20949   2.400   8.519   7.648  0.7732  1.8516  0.7086
  152MOL0     H20950   2.709   8.595   7.689  0.1775  1.1794 -0.1198
  152MOL0     H20951   2.634   8.445   7.732  2.0126  1.1653 -0.8048
  152MOL0     H20952   2.502   8.518   7.891  2.1244 -1.3987 -1.0186
  152MOL0     H20953   2.490   8.675   7.857 -0.3623 -0.8253 -1.5208
  152MOL0     H20954   2.622   8.651   8.055 -0.1050  2.0202 -0.7563
  152MOL0     H20955   2.748   8.697   7.943 -0.3621  0.5629 -0.0763
  152MOL0     H20956   2.123   8.550   7.004  0.4884 -0.0278 -0.2135
  152MOL0     H20957   1.993   8.597   6.785  2.8098  1.4590 -2.5495
  152MOL0     H20958   1.923   8.720   6.441 -1.2641  2.7347 -1.7955
  152MOL0     H20959   1.811   8.781   6.246 -1.1699 -0.1587  1.6567
  152MOL0     H20960   0.487   7.842   5.428 -3.3215 -2.1790  2.4981
  152MOL0     H20961   0.331   7.847   5.204  0.7830 -1.3356  0.8942
  152MOL0     H20962   0.066   8.238   5.031  1.2360  0.2127 -0.0938
  152MOL0     H20963  -0.061   8.347   4.870  2.2389  0.2260 -0.5904
  152MOL0     H20964  -0.254   8.399   4.558 -0.1780 -2.2903 -0.8239
  152MOL0     H20965  -0.124   8.421   4.680 -1.1035 -2.0648  1.6998
  152MOL0     H20966   0.018   8.285   4.490 -0.8852 -0.9696 -2.1535
  152MOL0     H20967  -0.001   8.462   4.504 -1.1335  0.1382  0.8021
  152MOL0     H20968  -0.199   8.291   4.343  0.2456 -1.8483 -0.5581
  152MOL0     H20969  -0.177   8.463   4.341 -1.5630 -1.7989  0.0846
  152MOL0     H20970  -0.074   8.349   4.146 -2.2756 -0.3012  1.3438
  152MOL0     H20971   0.028   8.248   4.250  1.8038  0.1269 -3.5394
  152MOL0     H20972   0.257   8.594   4.259 -0.0417  0.2881 -1.1090
  152MOL0     H20973  -0.091   7.978   4.649  0.9554  0.2280 -1.4699
  152MOL0     H20974  -0.050   7.760   4.846  0.8742 -1.4105 -0.1051
  152MOL0     H20975   0.053   7.806   4.703  1.8899 -2.6544  0.3690
  152MOL0     H20976   0.117   7.777   4.862  1.7221  0.6490 -3.1828
  153MOL0     O20977  11.413   3.804  11.329  0.5263  0.4882 -0.3493
  153MOL0     C20978  11.290   3.839  11.340  0.6809  0.0544 -0.4901
  153MOL0     O20979  11.216   3.901  11.242 -0.3654 -1.1436 -0.3344
  153MOL0     C20980  11.272   3.904  11.119 -0.2561  0.2966 -0.0153
  153MOL0     C20981  11.282   4.023  11.056  0.3397  0.0689  0.6889
  153MOL0     C20982  11.331   4.029  10.923 -0.3915 -0.5043 -0.1069
  153MOL0     C20983  11.378   3.917  10.851  0.2541  0.1257 -0.6357
  153MOL0     O20984  11.424   3.935  10.718  0.3576  0.3040  0.5938
  153MOL0     C20985  11.394   3.827  10.618 -0.3418  0.8277  0.7979
  153MOL0     C20986  11.505   3.851  10.516 -0.1427  0.3493  0.4808
  153MOL0     C20987  11.537   3.729  10.420 -0.1625  0.6202 -0.6698
  153MOL0     C20988  11.409   3.705  10.330 -0.5498 -0.1053  0.5775
  153MOL0     C20989  11.417   3.577  10.240 -0.9292  0.1409  1.0876
  153MOL0     C20990  11.548   3.568  10.143  0.7732 -0.3168  0.9724
  153MOL0     C20991  11.528   3.433  10.060 -0.5225  0.6521  0.3576
  153MOL0     C20992  11.643   3.409   9.966 -0.1620 -0.7936  0.5371
  153MOL0     N20993  11.625   3.301   9.871  0.7876  0.1394  0.6278
  153MOL0     C20994  11.641   3.169   9.896  0.4477  0.2993 -0.5364
  153MOL0     C20995  11.602   3.102   9.787  0.2010  0.0400 -0.3963
  153MOL0     C20996  11.582   2.959   9.761  1.0235  0.1523  0.0888
  153MOL0     C20997  11.453   2.914   9.680  0.1898  0.5274 -0.4856
  153MOL0     C20998  11.326   2.935   9.755  0.2973 -0.2629  0.7067
  153MOL0     C20999  11.196   2.913   9.675  0.9814  1.3140  0.3986
  153MOL0     O21000  11.161   3.015   9.579 -0.2302 -0.2265  0.2062
  153MOL0     C21001  11.096   3.123   9.639  0.6822 -1.4281  0.2635
  153MOL0     C21002  11.162   3.232   9.682 -0.5660 -0.7695  0.0034
  153MOL0     C21003  11.097   3.355   9.712  0.8767  0.8095  0.1949
  153MOL0     C21004  11.193   3.468   9.756  1.0489  0.2452 -0.1679
  153MOL0     C21005  10.959   3.365   9.709  0.4529 -0.4509  0.1409
  153MOL0     C21006  10.883   3.494   9.729 -0.7901 -0.2395  0.1994
  153MOL0     O21007  10.755   3.469   9.776 -0.0814 -0.2157  0.0784
  153MOL0     C21008  10.664   3.574   9.793 -0.1738 -0.0213 -1.1970
  153MOL0     C21009  10.675   3.702   9.734  0.1948  0.5887 -1.3694
  153MOL0     C21010  10.594   3.810   9.765 -0.3753  0.2292  1.0302
  153MOL0     C21011  10.499   3.799   9.870 -0.3503 -0.5927  0.3951
  153MOL0     O21012  10.405   3.894   9.913  0.1759 -0.6783  0.2215
  153MOL0     C21013  10.408   4.028   9.854  0.2685  0.4070  0.8274
  153MOL0     C21014  10.532   4.103   9.896 -0.0414 -1.4504 -0.7607
  153MOL0     C21015  10.538   4.228   9.808  0.6784 -0.2651  0.0602
  153MOL0     C21016  10.686   4.271   9.800  0.1746  0.1359 -0.4892
  153MOL0     C21017  10.713   4.365   9.686 -0.1069  0.3650 -0.1599
  153MOL0     C21018  10.851   4.431   9.677  0.0406  0.1702  0.5615
  153MOL0     C21019  10.864   4.507   9.543 -0.7224 -0.7414  0.6916
  153MOL0     C21020  10.903   4.657   9.568  1.1150 -0.5885 -0.4580
  153MOL0    Cl21021  11.078   4.664   9.610 -0.1653 -0.2599  0.2858
  153MOL0     C21022  10.482   3.670   9.930  0.1261 -0.0358 -0.4054
  153MOL0     C21023  10.563   3.567   9.887  1.0700 -0.4146 -0.3410
  153MOL0     O21024  10.938   3.608   9.735 -0.0429  1.3702  0.0993
  153MOL0     C21025  10.885   3.246   9.688  0.6650  0.1789 -0.0434
  153MOL0     C21026  10.955   3.128   9.649 -0.8771  0.1294 -0.2066
  153MOL0     N21027  11.574   3.193   9.685  0.3714 -1.0196 -0.9471
  153MOL0     N21028  11.606   3.308   9.731 -0.1666 -0.3359 -0.2454
  153MOL0     C21029  11.373   3.793  10.918 -0.4106  1.1408  0.7127
  153MOL0     C21030  11.312   3.783  11.049  0.1969  0.5324 -0.5285
  153MOL0     C21031  11.213   3.844  11.470 -0.4070 -0.0869 -0.1516
  153MOL0     C21032  11.148   3.962  11.502 -0.0034 -0.2113  0.1618
  153MOL0     C21033  11.065   3.964  11.621 -0.8657 -0.6964  0.4777
  153MOL0     C21034  11.059   3.859  11.707  0.2029  0.4205 -0.0554
  153MOL0     O21035  10.987   3.880  11.824  0.2466 -0.2758  0.7467
  153MOL0     C21036  10.933   3.777  11.904 -0.8297  0.0554 -0.3775
  153MOL0     C21037  10.778   3.759  11.876 -0.1033 -0.2151  0.6598
  153MOL0     C21038  10.693   3.882  11.895 -0.0055 -1.0289 -0.7787
  153MOL0     C21039  10.554   3.842  11.905  0.7426  0.5989  0.5898
  153MOL0     C21040  10.521   3.760  12.025  0.2781 -0.1199 -0.2726
  153MOL0     C21041  10.489   3.700  12.121 -0.2185 -0.5150 -0.7190
  153MOL0     C21042  11.130   3.743  11.673 -0.3454  0.4280 -0.9114
  153MOL0     C21043  11.208   3.731  11.563 -0.1428  0.5017 -0.8315
  153MOL0     C21044  11.279   3.600  11.545 -0.8132  0.1942 -0.4102
  153MOL0     H21045  11.246   4.107  11.114  3.7087  0.3726  2.6054
  153MOL0     H21046  11.324   4.123  10.869 -0.4594  0.1657  1.0277
  153MOL0     H21047  11.297   3.844  10.571 -0.2139 -1.5961 -0.5167
  153MOL0     H21048  11.400   3.730  10.669 -3.8093  1.0585  1.8930
  153MOL0     H21049  11.483   3.938  10.454  0.7156 -0.1692 -0.5899
  153MOL0     H21050  11.598   3.868  10.572  0.3176  1.9210 -0.6700
  153MOL0     H21051  11.629   3.756  10.368  0.6617  2.6599  1.6188
  153MOL0     H21052  11.567   3.646  10.484  0.7731  0.0628 -1.8141
  153MOL0     H21053  11.318   3.702  10.390 -1.4032  1.5377 -0.5547
  153MOL0     H21054  11.400   3.797  10.272  0.6378  3.1295  4.9443
  153MOL0     H21055  11.327   3.570  10.179 -0.7649  0.9013  0.7423
  153MOL0     H21056  11.408   3.491  10.307 -0.2345  1.3282  2.7734
  153MOL0     H21057  11.555   3.648  10.068 -1.8775 -2.4682 -1.8251
  153MOL0     H21058  11.640   3.572  10.202  2.1691 -0.2965 -1.0654
  153MOL0     H21059  11.438   3.446  10.000  0.3259 -0.4237 -1.2248
  153MOL0     H21060  11.519   3.336  10.111  1.1038 -1.0720 -2.3767
  153MOL0     H21061  11.660   3.499   9.907  2.5921 -0.2481  1.9971
  153MOL0     H21062  11.734   3.386  10.022  0.9244  1.8333 -0.0480
  153MOL0     H21063  11.668   3.114   9.985 -0.2406 -1.7594 -1.5386
  153MOL0     H21064  11.586   2.906   9.856  1.9257 -1.1395 -0.6428
  153MOL0     H21065  11.661   2.930   9.691 -0.7903  1.0278 -2.4788
  153MOL0     H21066  11.435   2.977   9.593 -2.6457 -0.6179 -0.8377
  153MOL0     H21067  11.459   2.808   9.654  0.3642  0.5404 -0.4991
  153MOL0     H21068  11.313   2.866   9.839 -1.6760 -3.1977 -1.7708
  153MOL0     H21069  11.320   3.041   9.781  0.7435  0.4407 -1.7766
  153MOL0     H21070  11.198   2.821   9.616  0.5063  0.0502  2.2582
  153MOL0     H21071  11.116   2.897   9.749 -0.1153 -0.7477 -1.1395
  153MOL0     H21072  11.271   3.227   9.679 -0.4515  1.1386 -0.3804
  153MOL0     H21073  11.226   3.542   9.682  2.7001 -0.6787 -0.4055
  153MOL0     H21074  11.287   3.431   9.797  1.0747  0.3499 -0.1324
  153MOL0     H21075  11.156   3.526   9.841 -0.1248 -0.8373  0.0960
  153MOL0     H21076  10.744   3.723   9.653 -1.6430 -0.1104 -3.2024
  153MOL0     H21077  10.596   3.905   9.713 -0.6851  1.5429  3.2937
  153MOL0     H21078  10.409   4.017   9.745  3.9547 -0.0655  0.7963
  153MOL0     H21079  10.315   4.082   9.875 -0.9763 -2.1916  2.4787
  153MOL0     H21080  10.517   4.128  10.001 -2.8681  3.5112 -2.0213
  153MOL0     H21081  10.620   4.039   9.895 -1.3518 -3.4227  0.7237
  153MOL0     H21082  10.490   4.314   9.858  0.5056 -1.3558  1.8527
  153MOL0     H21083  10.502   4.224   9.705 -3.6519 -0.1038  1.3286
  153MOL0     H21084  10.751   4.185   9.783 -2.2160 -1.2547 -3.5797
  153MOL0     H21085  10.706   4.317   9.897  0.6579 -0.2242 -0.4146
  153MOL0     H21086  10.708   4.304   9.595 -0.9902  0.2520 -0.0453
  153MOL0     H21087  10.636   4.433   9.649 -0.0786  0.5787  0.1712
  153MOL0     H21088  10.928   4.355   9.687 -0.0593  0.1120  0.9214
  153MOL0     H21089  10.859   4.488   9.770 -1.1228 -1.9486  2.0564
  153MOL0     H21090  10.769   4.515   9.489 -0.4888  0.8001  0.4537
  153MOL0     H21091  10.937   4.467   9.472 -0.0658  1.6992 -0.1099
  153MOL0     H21092  10.843   4.693   9.652  1.0604  1.9564 -1.5238
  153MOL0     H21093  10.863   4.710   9.481 -1.2597 -0.2869  0.7208
  153MOL0     H21094  10.392   3.656   9.988 -0.0852  3.6893  0.4041
  153MOL0     H21095  10.535   3.484   9.951 -2.9392  0.1407 -1.1371
  153MOL0     H21096  10.777   3.245   9.702  0.3997 -3.8663 -0.9790
  153MOL0     H21097  10.901   3.036   9.628  2.5990 -1.8292 -1.1977
  153MOL0     H21098  11.392   3.700  10.865 -0.1932  1.3338  0.4488
  153MOL0     H21099  11.300   3.691  11.104  0.2331  1.5085  1.1955
  153MOL0     H21100  11.178   4.051  11.448  3.1394  1.8928  4.7836
  153MOL0     H21101  11.037   4.063  11.656  4.0176  0.1600  2.9310
  153MOL0     H21102  10.984   3.680  11.899 -1.8342 -0.4504 -4.4094
  153MOL0     H21103  10.957   3.802  12.008  0.1264  1.3840 -0.8822
  153MOL0     H21104  10.764   3.671  11.940  1.4966 -3.5283 -3.0876
  153MOL0     H21105  10.768   3.714  11.777  1.1863 -0.4822  0.6302
  153MOL0     H21106  10.724   3.954  11.971 -1.3594  0.0148 -1.1935
  153MOL0     H21107  10.699   3.943  11.805 -3.1095  0.5103 -0.0661
  153MOL0     H21108  10.533   3.789  11.812  5.1646  0.8348 -0.7857
  153MOL0     H21109  10.496   3.931  11.931 -0.1313 -0.5966  3.0777
  153MOL0     H21110  10.458   3.668  12.219 -0.7372 -0.7939 -0.9714
  153MOL0     H21111  11.132   3.663  11.747 -1.0137 -0.3199 -1.6687
  153MOL0     H21112  11.267   3.514  11.611  2.0846 -0.5045 -0.6386
  153MOL0     H21113  11.263   3.547  11.452 -1.2633 -0.7906  0.2148
  153MOL0     H21114  11.381   3.638  11.559 -0.7234 -0.7764  2.2582
  154MOL0     O21115   3.050   5.990   6.531 -0.0220  0.1892  0.1874
  154MOL0     C21116   3.118   6.088   6.490 -0.4108 -0.2757 -0.8368
  154MOL0     O21117   3.077   6.187   6.407  0.2725 -0.4144 -0.3903
  154MOL0     C21118   2.955   6.175   6.347  0.7342 -0.8584  0.3114
  154MOL0     C21119   2.869   6.287   6.342 -0.4110 -0.0255 -0.2574
  154MOL0     C21120   2.748   6.302   6.277  0.6868 -0.1026 -0.5376
  154MOL0     C21121   2.694   6.194   6.207 -0.0663 -0.1138  0.3908
  154MOL0     O21122   2.582   6.190   6.133  0.1475  0.0699  0.4889
  154MOL0     C21123   2.462   6.254   6.187  0.4059 -0.3979 -0.0205
  154MOL0     C21124   2.382   6.290   6.065  0.9926  0.2878  0.5486
  154MOL0     C21125   2.262   6.367   6.109  0.8402 -0.9738 -0.1274
  154MOL0     C21126   2.193   6.445   5.995  0.2718 -0.8207  0.2255
  154MOL0     C21127   2.099   6.539   6.067  0.4208 -0.1358 -0.3792
  154MOL0     C21128   2.015   6.616   5.955 -0.4753 -0.2867 -0.6933
  154MOL0     C21129   1.949   6.736   6.008 -0.5229 -0.6419 -0.7034
  154MOL0     C21130   2.039   6.872   6.019 -0.3061  0.6800 -1.0618
  154MOL0     N21131   2.151   6.876   6.112  1.2409 -0.6248 -0.6556
  154MOL0     C21132   2.136   6.933   6.239 -0.4403 -0.8661 -0.0697
  154MOL0     C21133   2.262   6.952   6.278 -0.2593 -0.1463  0.1457
  154MOL0     C21134   2.297   7.025   6.400  0.3291 -0.0337  0.3525
  154MOL0     C21135   2.344   6.921   6.504 -0.0701 -1.1751 -0.6839
  154MOL0     C21136   2.376   7.000   6.634 -0.2353 -0.3683  0.7090
  154MOL0     C21137   2.310   6.946   6.769  0.1636 -0.1098  0.3227
  154MOL0     O21138   2.359   6.827   6.829  0.0790  0.2041  0.8278
  154MOL0     C21139   2.466   6.836   6.910 -0.0873 -0.4214 -0.2513
  154MOL0     C21140   2.434   6.794   7.043 -0.7243  0.1331  0.1855
  154MOL0     C21141   2.528   6.809   7.145 -0.5287 -0.7633 -0.2324
  154MOL0     C21142   2.484   6.787   7.292 -0.5482 -0.7463  0.1132
  154MOL0     C21143   2.663   6.859   7.114 -0.6213  1.3780  0.1273
  154MOL0     C21144   2.770   6.892   7.215  0.9811 -0.6538 -0.3850
  154MOL0     O21145   2.850   7.003   7.179 -0.4374 -0.0064 -0.3487
  154MOL0     C21146   2.954   7.030   7.260  0.5182 -0.1278  0.7151
  154MOL0     C21147   3.084   7.019   7.209 -1.2504  0.1369  0.1373
  154MOL0     C21148   3.193   7.043   7.303  0.5983  0.3580 -0.3227
  154MOL0     C21149   3.168   7.073   7.438 -0.1998 -0.0001 -0.0797
  154MOL0     O21150   3.274   7.121   7.509  0.4139 -1.2429  0.3721
  154MOL0     C21151   3.284   7.105   7.649  0.0933  0.4218 -0.4670
  154MOL0     C21152   3.344   7.243   7.685 -0.2298 -0.0728  0.0517
  154MOL0     C21153   3.242   7.361   7.681  0.0724  0.0674  1.1039
  154MOL0     C21154   3.322   7.486   7.706  0.2866 -0.8408  0.4505
  154MOL0     C21155   3.245   7.615   7.767  0.3578 -0.1515  0.4697
  154MOL0     C21156   3.123   7.658   7.682 -0.1991 -0.8777  0.0254
  154MOL0     C21157   3.062   7.804   7.715  0.2201  0.2098  0.2253
  154MOL0     C21158   2.919   7.811   7.662  0.1848 -0.8532  0.4570
  154MOL0    Cl21159   2.914   7.785   7.486 -0.5322 -0.2507 -0.2259
  154MOL0     C21160   3.031   7.104   7.473 -0.2372 -0.9079  0.9247
  154MOL0     C21161   2.927   7.069   7.387  0.3497  0.0588 -0.3059
  154MOL0     O21162   2.790   6.820   7.314  0.0056 -0.7882 -0.4059
  154MOL0     C21163   2.685   6.905   6.989 -0.1919 -0.1670 -1.6415
  154MOL0     C21164   2.590   6.888   6.886  0.0239 -0.5581 -0.4821
  154MOL0     N21165   2.352   6.886   6.190 -0.0837 -0.1687 -0.2724
  154MOL0     N21166   2.273   6.832   6.103 -0.8325  0.6297  0.4907
  154MOL0     C21167   2.773   6.081   6.209 -0.1926  0.5242 -0.5386
  154MOL0     C21168   2.892   6.067   6.288  0.0806  0.5641  1.1088
  154MOL0     C21169   3.265   6.093   6.525  1.0213  0.0734 -0.4137
  154MOL0     C21170   3.325   6.211   6.489 -0.2572  0.0194 -0.3424
  154MOL0     C21171   3.460   6.225   6.525  0.3032  0.3353  0.8064
  154MOL0     C21172   3.536   6.112   6.591  0.0852 -0.2487  0.3685
  154MOL0     O21173   3.664   6.129   6.634 -0.0872 -0.4095 -0.4604
  154MOL0     C21174   3.770   6.150   6.522 -0.8228 -0.3986  0.1017
  154MOL0     C21175   3.896   6.223   6.575  0.0424 -1.3275 -0.2750
  154MOL0     C21176   3.963   6.159   6.693 -0.5031 -0.4044  0.6793
  154MOL0     C21177   4.064   6.252   6.761 -0.2814  0.0813  0.7706
  154MOL0     C21178   4.125   6.184   6.881 -0.7294 -0.1740 -0.4752
  154MOL0     C21179   4.181   6.130   6.974  0.3765  1.6284  0.7787
  154MOL0     C21180   3.468   5.995   6.627 -0.0540 -0.4929  0.4636
  154MOL0     C21181   3.337   5.977   6.579 -0.0805 -0.0349  0.0636
  154MOL0     C21182   3.278   5.850   6.602  0.2302 -0.8582 -0.3732
  154MOL0     H21183   2.899   6.375   6.397 -0.0588 -0.9900  1.1627
  154MOL0     H21184   2.704   6.401   6.286 -1.1811 -1.0448  1.9841
  154MOL0     H21185   2.480   6.344   6.248 -2.8160 -0.1645  0.7461
  154MOL0     H21186   2.410   6.177   6.245  2.4694 -1.4561  0.5101
  154MOL0     H21187   2.437   6.353   5.995 -1.1435  0.6499 -0.9155
  154MOL0     H21188   2.343   6.197   6.024  0.7271 -0.6300  2.7382
  154MOL0     H21189   2.180   6.308   6.151 -0.9204  1.5577  0.2424
  154MOL0     H21190   2.293   6.443   6.182  0.4639  0.1031 -1.0638
  154MOL0     H21191   2.249   6.503   5.921 -1.0591  1.5902  1.0123
  154MOL0     H21192   2.146   6.375   5.925  0.6775 -0.5132 -0.3683
  154MOL0     H21193   2.162   6.604   6.130  2.7449 -1.9399 -0.6992
  154MOL0     H21194   2.036   6.489   6.141  0.6729  1.7804  1.2372
  154MOL0     H21195   2.079   6.645   5.871  1.1277 -2.8602 -0.4549
  154MOL0     H21196   1.948   6.543   5.909 -1.5555  0.0196  0.3481
  154MOL0     H21197   1.902   6.719   6.105  2.1837  4.6638  1.9836
  154MOL0     H21198   1.866   6.749   5.938 -1.3905 -2.5492 -0.1156
  154MOL0     H21199   2.071   6.895   5.917  1.4976  4.4918  0.1778
  154MOL0     H21200   1.974   6.950   6.058 -0.5618  1.0008 -2.0984
  154MOL0     H21201   2.056   6.957   6.309  1.5290  1.7638  1.4739
  154MOL0     H21202   2.203   7.072   6.430  0.1677 -0.2429  0.1816
  154MOL0     H21203   2.382   7.090   6.378 -0.9694  2.7154  2.8725
  154MOL0     H21204   2.271   6.841   6.519  0.2230 -1.4506 -0.7095
  154MOL0     H21205   2.440   6.875   6.476  1.4945  1.4860 -0.0500
  154MOL0     H21206   2.483   7.023   6.636 -0.3327  0.0743  1.3722
  154MOL0     H21207   2.336   7.102   6.626  0.9783 -0.0148 -2.0221
  154MOL0     H21208   2.319   7.034   6.833  0.1320  0.8080 -0.8915
  154MOL0     H21209   2.205   6.920   6.754 -0.0686  2.0787 -2.7488
  154MOL0     H21210   2.334   6.760   7.069 -0.9237  0.3585 -0.2830
  154MOL0     H21211   2.519   6.694   7.337  0.4469  0.2704  1.5087
  154MOL0     H21212   2.382   6.818   7.318  0.0083  1.4009 -0.0656
  154MOL0     H21213   2.540   6.863   7.348 -0.5680 -0.1129 -0.7059
  154MOL0     H21214   3.103   6.998   7.104  0.1938 -0.1170  0.4257
  154MOL0     H21215   3.296   7.039   7.270  1.3647  3.1630  1.3681
  154MOL0     H21216   3.182   7.093   7.686 -0.4168  1.4242 -1.4735
  154MOL0     H21217   3.341   7.018   7.684  0.0006  0.5302 -0.0398
  154MOL0     H21218   3.390   7.254   7.784  2.2976  2.3143 -1.2552
  154MOL0     H21219   3.430   7.247   7.618  1.3268  3.8009  1.9622
  154MOL0     H21220   3.156   7.352   7.747 -0.5059  2.7653  0.8596
  154MOL0     H21221   3.205   7.365   7.578  1.4108  2.6623  0.6271
  154MOL0     H21222   3.362   7.511   7.607 -2.2263 -0.9748 -0.6808
  154MOL0     H21223   3.410   7.469   7.768  2.9688  2.5710 -1.9857
  154MOL0     H21224   3.214   7.593   7.870  1.1681  2.3629  1.3235
  154MOL0     H21225   3.311   7.702   7.766 -3.3444  3.0483 -3.2122
  154MOL0     H21226   3.042   7.589   7.707 -0.5545 -0.5614 -0.2637
  154MOL0     H21227   3.149   7.652   7.576 -2.0425  2.0975 -0.6967
  154MOL0     H21228   3.113   7.883   7.659  2.6300  0.6105  2.7770
  154MOL0     H21229   3.055   7.814   7.823  3.8896  3.8869  0.3698
  154MOL0     H21230   2.874   7.907   7.689 -1.8830 -1.7213  0.2518
  154MOL0     H21231   2.859   7.737   7.715  0.5645  0.4569  2.9079
  154MOL0     H21232   3.003   7.149   7.567 -1.0096  3.3706 -1.1222
  154MOL0     H21233   2.826   7.076   7.427  0.0900 -2.6358 -0.3133
  154MOL0     H21234   2.781   6.947   6.960 -0.3914 -0.2645 -2.4721
  154MOL0     H21235   2.620   6.948   6.801 -0.3029  0.7089  0.2647
  154MOL0     H21236   2.740   6.002   6.141 -0.8736  1.8355 -1.7850
  154MOL0     H21237   2.950   5.975   6.293 -0.8789 -0.2306 -1.2081
  154MOL0     H21238   3.278   6.295   6.438 -2.3271 -1.7336 -1.5444
  154MOL0     H21239   3.518   6.310   6.492  1.5682 -1.1869 -1.1311
  154MOL0     H21240   3.806   6.050   6.494 -0.5217 -0.7849  1.7504
  154MOL0     H21241   3.737   6.210   6.437  1.0680  0.1753 -0.2643
  154MOL0     H21242   3.881   6.329   6.599  1.0286 -0.9693 -1.1819
  154MOL0     H21243   3.975   6.226   6.500 -0.3122 -1.8474 -0.6792
  154MOL0     H21244   3.895   6.110   6.762  0.8042 -1.9554  0.9253
  154MOL0     H21245   4.025   6.076   6.658 -1.5239 -1.5435  1.5049
  154MOL0     H21246   4.016   6.348   6.783 -2.1883 -0.1106 -1.9516
  154MOL0     H21247   4.145   6.272   6.690 -0.3973  1.1804  0.9262
  154MOL0     H21248   4.221   6.061   7.045  0.1466 -0.0317 -0.6407
  154MOL0     H21249   3.521   5.918   6.683 -0.0095 -1.2386 -0.5935
  154MOL0     H21250   3.252   5.804   6.507 -0.5685 -0.4130 -0.3731
  154MOL0     H21251   3.337   5.775   6.656 -0.7754 -0.8791  0.7469
  154MOL0     H21252   3.185   5.863   6.658 -0.4530 -0.9601 -1.4745
  155MOL0     O21253   2.155   4.991   7.799  0.0554  0.4180  0.2616
  155MOL0     C21254   2.276   4.994   7.837  0.3918  0.0770 -1.0308
  155MOL0     O21255   2.349   5.110   7.836  0.4084 -0.2277  0.1233
  155MOL0     C21256   2.295   5.226   7.774  0.2904 -0.4083  0.2496
  155MOL0     C21257   2.310   5.346   7.842 -0.6133 -0.9072  0.1505
  155MOL0     C21258   2.266   5.470   7.785 -0.8847 -0.2112  0.2667
  155MOL0     C21259   2.182   5.465   7.670  0.9625  0.4623  0.2780
  155MOL0     O21260   2.110   5.573   7.638  0.5355  0.1411 -0.3179
  155MOL0     C21261   2.133   5.628   7.508  0.2396 -0.2356 -0.2492
  155MOL0     C21262   2.047   5.756   7.504 -0.3901  1.2476  0.2688
  155MOL0     C21263   2.060   5.818   7.356 -0.3672 -0.3914 -0.0764
  155MOL0     C21264   2.197   5.895   7.341  0.2033 -0.4523  0.3150
  155MOL0     C21265   2.188   6.033   7.399  0.7313 -0.8661  1.2575
  155MOL0     C21266   2.093   6.130   7.313  0.4205  0.9866 -0.3930
  155MOL0     C21267   2.125   6.274   7.358  0.2582  0.9631  0.3228
  155MOL0     C21268   2.070   6.293   7.501  0.2257 -0.2007  0.8177
  155MOL0     N21269   2.066   6.439   7.528  0.4620 -0.1040 -0.8000
  155MOL0     C21270   1.974   6.517   7.457 -0.8224  0.2504  0.0040
  155MOL0     C21271   2.024   6.639   7.452 -0.1999 -0.3478 -0.4726
  155MOL0     C21272   1.959   6.765   7.396  0.9279  0.0308 -1.0061
  155MOL0     C21273   1.845   6.820   7.487 -0.6174 -0.4521  0.2286
  155MOL0     C21274   1.817   6.973   7.479  0.4399 -0.8000 -0.2766
  155MOL0     C21275   1.696   7.020   7.565 -1.0239  0.6660  0.0989
  155MOL0     O21276   1.658   7.153   7.533 -0.0622  0.6657 -0.6302
  155MOL0     C21277   1.583   7.218   7.628  0.0895 -0.9309  0.3934
  155MOL0     C21278   1.484   7.302   7.579  0.9211  0.0313 -0.6566
  155MOL0     C21279   1.411   7.395   7.672  0.2253  1.0897  0.7049
  155MOL0     C21280   1.288   7.464   7.625 -1.3550 -0.5505  0.1332
  155MOL0     C21281   1.454   7.403   7.811 -0.7268  0.4662  0.1545
  155MOL0     C21282   1.394   7.487   7.919  0.0561  0.4153  0.0978
  155MOL0     O21283   1.269   7.533   7.887 -1.5059 -1.1895  0.4153
  155MOL0     C21284   1.204   7.598   7.987  0.1009  0.2800 -0.2328
  155MOL0     C21285   1.189   7.568   8.126 -0.1787  0.0625  0.4801
  155MOL0     C21286   1.109   7.646   8.219  1.1743  0.4130 -1.0726
  155MOL0     C21287   1.028   7.750   8.172  0.3126  0.5140 -0.2444
  155MOL0     O21288   0.942   7.817   8.261 -0.4197  0.2390  1.3273
  155MOL0     C21289   0.958   7.959   8.264 -0.4850 -0.5385  0.6188
  155MOL0     C21290   0.913   8.022   8.397 -0.3809 -0.3294  0.8195
  155MOL0     C21291   1.020   8.117   8.445  0.3821  0.5598 -0.0681
  155MOL0     C21292   1.142   8.052   8.518  0.3460 -0.5367  0.1854
  155MOL0     C21293   1.110   7.963   8.639 -0.1158 -0.9035 -0.6315
  155MOL0     C21294   1.059   8.058   8.749  0.9854  0.1480  0.1023
  155MOL0     C21295   1.060   7.968   8.878 -0.2477  0.0362 -0.2056
  155MOL0     C21296   1.016   8.045   8.999  0.3447  0.1025 -0.1602
  155MOL0    Cl21297   1.129   8.171   9.048  0.1137  0.2468 -0.1215
  155MOL0     C21298   1.026   7.775   8.039  0.8500 -0.1035 -1.0308
  155MOL0     C21299   1.107   7.695   7.946 -0.0925 -0.1158 -0.2028
  155MOL0     O21300   1.475   7.538   8.000  0.3565 -0.3386 -0.5010
  155MOL0     C21301   1.570   7.323   7.849 -0.7877  0.2905  1.1607
  155MOL0     C21302   1.634   7.237   7.766 -0.0507  1.7494  0.7713
  155MOL0     N21303   2.144   6.641   7.513 -0.0660 -1.2072  0.5427
  155MOL0     N21304   2.172   6.521   7.555  0.2081  0.7244 -0.4574
  155MOL0     C21305   2.172   5.339   7.602 -0.2349  0.5710  0.4767
  155MOL0     C21306   2.230   5.224   7.648 -0.7906  0.8720 -0.2444
  155MOL0     C21307   2.318   4.867   7.903 -0.7494 -0.0295 -1.7223
  155MOL0     C21308   2.280   4.739   7.855 -0.0605  0.6617 -0.5618
  155MOL0     C21309   2.314   4.619   7.919  0.2976  0.3192 -0.0266
  155MOL0     C21310   2.391   4.619   8.033  0.6717  0.7637 -0.6778
  155MOL0     O21311   2.407   4.495   8.094  0.2096 -0.2291 -0.8882
  155MOL0     C21312   2.514   4.492   8.191 -0.1042  0.3843 -0.3077
  155MOL0     C21313   2.544   4.343   8.217 -0.2234 -0.2012 -0.9064
  155MOL0     C21314   2.421   4.256   8.241 -0.1738 -0.0678 -0.1082
  155MOL0     C21315   2.332   4.320   8.344  0.9379 -0.3976  0.7547
  155MOL0     C21316   2.280   4.226   8.442 -0.0635 -0.2697  0.0165
  155MOL0     C21317   2.239   4.158   8.530 -0.5430  0.1240 -1.5539
  155MOL0     C21318   2.420   4.738   8.093  1.5228  1.2567 -0.4359
  155MOL0     C21319   2.397   4.860   8.027  0.7949 -0.4642  0.0414
  155MOL0     C21320   2.444   4.988   8.098  0.7706 -0.2193 -0.1989
  155MOL0     H21321   2.375   5.339   7.929  0.1361  4.0970  0.2774
  155MOL0     H21322   2.295   5.554   7.846 -1.1118  0.1598 -0.1267
  155MOL0     H21323   2.091   5.564   7.430 -1.8169  0.5398  0.1739
  155MOL0     H21324   2.240   5.648   7.499  0.8172 -0.6496  3.9485
  155MOL0     H21325   1.945   5.729   7.534  0.0947  0.6536  1.4336
  155MOL0     H21326   2.093   5.822   7.577  2.8929 -0.8521  0.2752
  155MOL0     H21327   2.054   5.743   7.276 -0.9315  0.1103 -0.5142
  155MOL0     H21328   1.974   5.879   7.327 -0.1840  0.0932  0.3915
  155MOL0     H21329   2.280   5.845   7.393  1.9227  0.9574 -0.9817
  155MOL0     H21330   2.219   5.907   7.235 -0.3566  0.3209  0.2794
  155MOL0     H21331   2.288   6.076   7.401 -0.0234  1.0156  0.6917
  155MOL0     H21332   2.165   6.014   7.505  0.4459 -0.4187  1.2792
  155MOL0     H21333   2.109   6.129   7.205  2.3583  1.0109 -0.1407
  155MOL0     H21334   1.989   6.108   7.341  0.7028  2.8269  2.5485
  155MOL0     H21335   2.065   6.339   7.294  0.0034  2.3446  1.8917
  155MOL0     H21336   2.230   6.305   7.361  0.2968  0.7445  2.3242
  155MOL0     H21337   1.978   6.242   7.534  1.0109 -1.8272  0.5915
  155MOL0     H21338   2.142   6.259   7.575 -3.0676 -2.6204  3.1965
  155MOL0     H21339   1.875   6.485   7.424 -0.7291 -0.6400  0.5668
  155MOL0     H21340   1.924   6.744   7.294  2.2343 -2.1399 -1.0669
  155MOL0     H21341   2.036   6.841   7.379 -0.4712  1.7211 -0.1299
  155MOL0     H21342   1.755   6.760   7.469 -0.0133 -1.0032 -1.1812
  155MOL0     H21343   1.876   6.804   7.590  2.9465  3.4473  0.0225
  155MOL0     H21344   1.906   7.031   7.503  1.6704 -3.1389  1.0728
  155MOL0     H21345   1.802   7.004   7.374  2.8520  0.6221 -0.2924
  155MOL0     H21346   1.611   6.951   7.554 -0.9955  0.4274  1.2792
  155MOL0     H21347   1.727   7.006   7.668 -0.4277 -1.8269 -0.3423
  155MOL0     H21348   1.443   7.285   7.480  0.3989 -1.7449 -0.1669
  155MOL0     H21349   1.196   7.437   7.678 -0.6460  0.9873  2.2832
  155MOL0     H21350   1.288   7.454   7.516  2.0119 -1.0224  0.0751
  155MOL0     H21351   1.303   7.570   7.650  3.9064 -0.9438 -0.1724
  155MOL0     H21352   1.257   7.492   8.162  2.8969  1.2017 -2.3554
  155MOL0     H21353   1.119   7.632   8.326  1.3095  2.7912 -0.7046
  155MOL0     H21354   1.063   7.986   8.246 -0.7929  0.5677  0.3770
  155MOL0     H21355   0.898   7.999   8.182  1.1424 -1.0499 -0.8791
  155MOL0     H21356   0.816   8.071   8.394 -1.1299 -1.6803  1.8255
  155MOL0     H21357   0.896   7.949   8.477 -0.5438 -1.3781 -0.1414
  155MOL0     H21358   0.963   8.170   8.521  1.3091 -2.3026  2.8256
  155MOL0     H21359   1.066   8.183   8.371  3.6552 -3.5506 -2.1541
  155MOL0     H21360   1.204   8.131   8.561 -0.9980  0.1351  0.9596
  155MOL0     H21361   1.199   8.010   8.435  2.4920 -0.7736  1.6766
  155MOL0     H21362   1.034   7.888   8.616 -2.2048  0.3860  1.5823
  155MOL0     H21363   1.197   7.900   8.661  2.3388  1.4525 -2.8253
  155MOL0     H21364   0.959   8.090   8.718  1.8722  2.6806 -0.3804
  155MOL0     H21365   1.105   8.156   8.746 -2.4215  1.9332  1.0550
  155MOL0     H21366   1.159   7.928   8.899  0.6769  2.5187  0.5915
  155MOL0     H21367   0.982   7.891   8.870  1.3648 -2.0377  2.3879
  155MOL0     H21368   1.005   7.973   9.080  0.1386  0.4201  0.0962
  155MOL0     H21369   0.918   8.092   8.988  0.5665  1.2829  2.2840
  155MOL0     H21370   0.957   7.849   8.000 -2.0641 -1.1567  1.6590
  155MOL0     H21371   1.115   7.725   7.842 -2.7292  0.4441 -0.3165
  155MOL0     H21372   1.612   7.328   7.949  0.4889 -1.7051  0.7848
  155MOL0     H21373   1.722   7.188   7.807 -1.0052  0.7734  1.7113
  155MOL0     H21374   2.118   5.331   7.508  0.6456  2.6350 -0.2683
  155MOL0     H21375   2.218   5.137   7.585 -3.6487  0.7045  0.4042
  155MOL0     H21376   2.218   4.740   7.767  1.7559 -0.1979 -1.9195
  155MOL0     H21377   2.270   4.538   7.862 -0.2725  1.0178 -0.5942
  155MOL0     H21378   2.607   4.537   8.155  1.8226 -2.7694  0.3187
  155MOL0     H21379   2.482   4.545   8.281  0.2448  1.4995 -0.8228
  155MOL0     H21380   2.612   4.336   8.301 -1.8791  1.6303  0.6997
  155MOL0     H21381   2.586   4.289   8.132  2.4897 -2.3135  1.6096
  155MOL0     H21382   2.357   4.258   8.153 -0.9043  1.3142  0.4210
  155MOL0     H21383   2.448   4.154   8.270  3.1476  0.9892  1.0384
  155MOL0     H21384   2.240   4.341   8.289  2.7686  0.5629 -2.1546
  155MOL0     H21385   2.357   4.411   8.400 -2.2559  0.5705  0.8248
  155MOL0     H21386   2.185   4.106   8.606 -1.6498  0.1923 -2.2724
  155MOL0     H21387   2.477   4.749   8.185  3.5891 -3.8300 -0.8049
  155MOL0     H21388   2.494   5.048   8.021 -1.5156 -0.8166 -2.2724
  155MOL0     H21389   2.355   5.048   8.117  1.7093  0.5568  2.0329
  155MOL0     H21390   2.501   4.964   8.188 -0.2672 -0.3627  0.4314
  156MOL0     O21391  10.962   1.012   3.068 -0.1393  0.6861 -1.2806
  156MOL0     C21392  10.839   1.021   3.065  0.6858 -0.9461 -1.0173
  156MOL0     O21393  10.759   0.976   2.962 -0.4021  0.3589  0.1102
  156MOL0     C21394  10.820   0.914   2.852  0.4247 -0.2601  0.0214
  156MOL0     C21395  10.849   0.996   2.738 -0.2179  0.5421 -0.1499
  156MOL0     C21396  10.920   0.941   2.629  1.0259  0.6905  1.3565
  156MOL0     C21397  10.973   0.811   2.630  0.3671 -0.2717  0.3218
  156MOL0     O21398  11.030   0.747   2.522  0.1499  0.2548 -0.5245
  156MOL0     C21399  11.066   0.814   2.402 -0.3620  0.6757  0.1025
  156MOL0     C21400  11.133   0.697   2.315  0.4961 -0.2899  0.2955
  156MOL0     C21401  11.173   0.749   2.174  0.7686  0.8617 -0.1508
  156MOL0     C21402  11.326   0.793   2.152  0.2738  0.6136 -0.5083
  156MOL0     C21403  11.353   0.814   1.996 -0.0993  0.2738  0.0609
  156MOL0     C21404  11.475   0.912   1.970  0.2666 -0.2173 -1.3591
  156MOL0     C21405  11.543   0.892   1.840 -0.1260  0.1285  0.2272
  156MOL0     C21406  11.650   1.007   1.815  0.4171  0.0904 -0.2653
  156MOL0     N21407  11.733   0.973   1.701  0.3354 -1.6001 -0.0049
  156MOL0     C21408  11.866   0.934   1.705  0.1933 -0.4779  0.0420
  156MOL0     C21409  11.896   0.925   1.572  0.4591  0.3048 -0.2220
  156MOL0     C21410  12.011   0.840   1.514  0.4259 -0.7656 -0.5781
  156MOL0     C21411  12.128   0.940   1.487  1.0307  0.8465  0.6735
  156MOL0     C21412  12.209   0.875   1.377 -0.0362 -1.5328 -0.0369
  156MOL0     C21413  12.342   0.941   1.356  0.1236  0.1247 -0.8675
  156MOL0     O21414  12.409   0.889   1.241  0.7186 -0.2859  0.1797
  156MOL0     C21415  12.344   0.927   1.124  0.1331  0.1503  0.6999
  156MOL0     C21416  12.287   0.834   1.045  0.3508  0.3689 -0.2404
  156MOL0     C21417  12.199   0.859   0.933  0.0184  0.5392 -0.3145
  156MOL0     C21418  12.151   0.748   0.843 -0.1422  0.0770  0.5273
  156MOL0     C21419  12.197   0.996   0.888  0.4024  0.0459  1.2080
  156MOL0     C21420  12.130   1.036   0.759 -0.3787 -0.3314 -0.2387
  156MOL0     O21421  12.016   0.968   0.717  0.2540  0.0341 -0.7652
  156MOL0     C21422  11.939   1.030   0.618  0.4391  0.4991 -0.0984
  156MOL0     C21423  11.969   1.021   0.484 -1.8632 -0.5755  0.1393
  156MOL0     C21424  11.888   1.088   0.391 -0.4274 -0.0652 -1.1028
  156MOL0     C21425  11.769   1.161   0.428 -0.1900  0.3198  0.7780
  156MOL0     O21426  11.700   1.246   0.339  0.3500 -0.0379 -0.8374
  156MOL0     C21427  11.758   1.303   0.224  0.4740  0.4239  0.6383
  156MOL0     C21428  11.840   1.426   0.245 -0.6740  0.0078 -0.2136
  156MOL0     C21429  11.790   1.525   0.349 -0.5990  0.3313 -0.1151
  156MOL0     C21430  11.646   1.574   0.336  0.7426  0.1327 -0.3117
  156MOL0     C21431  11.594   1.645   0.462  0.4322  0.9984  0.3332
  156MOL0     C21432  11.494   1.565   0.533  0.1677 -0.3399  0.2080
  156MOL0     C21433  11.399   1.635   0.638  0.1064  0.1916 -0.1560
  156MOL0     C21434  11.435   1.630   0.788 -0.0818 -0.0058 -0.3907
  156MOL0    Cl21435  11.297   1.690   0.894 -0.2529  0.0852  0.1840
  156MOL0     C21436  11.728   1.153   0.564 -0.5254 -0.2354 -0.4980
  156MOL0     C21437  11.816   1.092   0.650  0.5831 -0.1116  1.0409
  156MOL0     O21438  12.188   1.128   0.697  0.5197  0.0452  0.1220
  156MOL0     C21439  12.252   1.094   0.973 -0.4022 -0.8436 -0.1861
  156MOL0     C21440  12.330   1.058   1.080  0.6970  0.4211 -1.0505
  156MOL0     N21441  11.788   0.970   1.489 -0.8761  0.8473  0.2247
  156MOL0     N21442  11.688   0.999   1.568  0.0191  0.3595 -0.6654
  156MOL0     C21443  10.957   0.737   2.751  0.4146  1.5138 -0.2818
  156MOL0     C21444  10.879   0.789   2.857 -0.2985  0.4670  0.4350
  156MOL0     C21445  10.774   1.093   3.181 -1.2551  0.4599  0.4757
  156MOL0     C21446  10.661   1.164   3.148  0.8041 -0.8874 -0.6337
  156MOL0     C21447  10.615   1.261   3.247 -0.4939 -0.5003  0.0047
  156MOL0     C21448  10.676   1.270   3.372  0.3933  0.4269  0.0160
  156MOL0     O21449  10.613   1.358   3.458 -0.5252  0.3919 -0.1052
  156MOL0     C21450  10.610   1.342   3.603  0.3699 -0.1251  0.0173
  156MOL0     C21451  10.725   1.423   3.670 -1.0534 -1.3996  0.8475
  156MOL0     C21452  10.749   1.393   3.820  0.3063  0.0119 -0.0457
  156MOL0     C21453  10.656   1.486   3.892  0.2062  0.3010  0.5395
  156MOL0     C21454  10.550   1.420   3.963 -0.4327 -0.3914  0.3527
  156MOL0     C21455  10.458   1.368   4.022 -0.3880 -0.2327  0.0791
  156MOL0     C21456  10.786   1.192   3.408  0.1766 -0.3829  0.9212
  156MOL0     C21457  10.835   1.092   3.313 -0.4760 -0.3818 -0.3392
  156MOL0     C21458  10.943   0.999   3.376  0.0270 -0.6375 -1.4116
  156MOL0     H21459  10.816   1.099   2.728 -0.3810  0.3837 -1.3271
  156MOL0     H21460  10.922   1.000   2.538 -0.5984 -1.1249  0.0637
  156MOL0     H21461  11.143   0.888   2.427  1.9945 -1.0297 -1.6011
  156MOL0     H21462  10.979   0.863   2.358  1.9827  0.9276 -5.1004
  156MOL0     H21463  11.216   0.657   2.374 -1.1734 -0.9669  2.2911
  156MOL0     H21464  11.060   0.617   2.300  0.8943 -0.7540  0.8163
  156MOL0     H21465  11.162   0.663   2.109 -0.3730  1.2965 -0.5592
  156MOL0     H21466  11.105   0.821   2.127  0.3699  1.0168  0.6456
  156MOL0     H21467  11.348   0.885   2.208  1.8745  0.2419 -0.4862
  156MOL0     H21468  11.391   0.716   2.194  0.0995  0.9127  0.3287
  156MOL0     H21469  11.265   0.853   1.945  2.4705  1.4700 -3.8828
  156MOL0     H21470  11.374   0.711   1.966 -1.3490 -0.4139  1.4112
  156MOL0     H21471  11.433   1.012   1.981 -0.2761 -0.6145  0.5482
  156MOL0     H21472  11.539   0.892   2.056 -0.6156  0.5104 -0.5112
  156MOL0     H21473  11.460   0.893   1.770 -1.6684  1.8869  1.9388
  156MOL0     H21474  11.576   0.787   1.844 -1.3839 -0.2531  1.2060
  156MOL0     H21475  11.595   1.101   1.807  0.8501  0.9251  3.9915
  156MOL0     H21476  11.707   1.003   1.908  0.2207 -1.6966 -0.1919
  156MOL0     H21477  11.942   0.912   1.779  0.9005  0.2249 -0.4497
  156MOL0     H21478  11.977   0.796   1.421 -0.3840  1.5904 -1.4747
  156MOL0     H21479  12.038   0.764   1.588  0.2291 -1.0883 -0.8409
  156MOL0     H21480  12.080   1.023   1.433  0.0555  1.4165  2.3471
  156MOL0     H21481  12.181   0.972   1.577  2.3714  1.0021 -0.1432
  156MOL0     H21482  12.233   0.771   1.400  2.4912 -1.3081 -1.3032
  156MOL0     H21483  12.157   0.881   1.281  1.5381 -0.5940 -0.8720
  156MOL0     H21484  12.324   1.048   1.345  2.3351  0.6529  0.1760
  156MOL0     H21485  12.408   0.930   1.442 -0.0479  0.3537 -0.7068
  156MOL0     H21486  12.299   0.727   1.053 -1.8411 -0.2255 -3.1474
  156MOL0     H21487  12.043   0.737   0.843 -0.2231  0.6927 -0.9312
  156MOL0     H21488  12.188   0.653   0.884  0.6805  0.2117  0.1236
  156MOL0     H21489  12.174   0.763   0.737 -2.4273  0.3935  0.0233
  156MOL0     H21490  12.061   0.974   0.453 -0.5541  0.6681  1.9349
  156MOL0     H21491  11.927   1.097   0.290  1.6769  1.2195 -0.2369
  156MOL0     H21492  11.817   1.228   0.171  1.1885  0.6906  1.0491
  156MOL0     H21493  11.692   1.354   0.152  0.2471 -1.1198 -0.2854
  156MOL0     H21494  11.926   1.381   0.297 -0.4431  2.7577  2.0702
  156MOL0     H21495  11.870   1.485   0.158  0.4241  3.0718  2.0094
  156MOL0     H21496  11.858   1.611   0.347  0.3263 -0.3912 -1.2519
  156MOL0     H21497  11.803   1.478   0.447  1.7639  0.1348 -0.4437
  156MOL0     H21498  11.572   1.499   0.308  1.3482 -0.6433  0.1027
  156MOL0     H21499  11.663   1.639   0.249  1.6483  0.5142  0.1334
  156MOL0     H21500  11.685   1.648   0.521  3.9698  0.9309 -4.5432
  156MOL0     H21501  11.552   1.746   0.451 -1.5627  0.6296  3.3777
  156MOL0     H21502  11.544   1.479   0.579 -0.0295  0.0659  1.1989
  156MOL0     H21503  11.426   1.527   0.456  2.1043 -0.0121 -1.7785
  156MOL0     H21504  11.304   1.583   0.624  0.7682 -0.2595 -4.0895
  156MOL0     H21505  11.387   1.742   0.616  1.3685  1.2183  3.4349
  156MOL0     H21506  11.523   1.694   0.804  0.0953  0.0443 -1.4479
  156MOL0     H21507  11.438   1.531   0.834 -1.2653  1.2481  2.6057
  156MOL0     H21508  11.634   1.196   0.597 -2.6048 -4.7478  0.1325
  156MOL0     H21509  11.779   1.080   0.752 -1.6685 -1.2135  0.1665
  156MOL0     H21510  12.246   1.201   0.955  1.5099 -0.5065  1.0038
  156MOL0     H21511  12.361   1.148   1.132 -1.2769  1.2507 -1.2358
  156MOL0     H21512  10.977   0.630   2.750  2.4106  1.8380  1.1197
  156MOL0     H21513  10.868   0.742   2.954 -0.9188 -0.1025  0.0948
  156MOL0     H21514  10.611   1.162   3.051 -0.4527 -1.7987  0.0001
  156MOL0     H21515  10.523   1.314   3.223 -0.4226 -1.2528 -2.1233
  156MOL0     H21516  10.511   1.365   3.644 -1.6366 -4.6772 -1.5968
  156MOL0     H21517  10.620   1.233   3.610  2.3293  0.0504  0.5812
  156MOL0     H21518  10.722   1.532   3.665 -1.4211 -1.3924  1.1821
  156MOL0     H21519  10.817   1.410   3.614  0.5900 -1.2434  3.3592
  156MOL0     H21520  10.734   1.289   3.849  2.7026 -1.4489 -3.3430
  156MOL0     H21521  10.857   1.396   3.837  0.1279 -1.3546  1.5511
  156MOL0     H21522  10.611   1.564   3.830 -0.6042  1.3119  2.3535
  156MOL0     H21523  10.714   1.541   3.967  0.9989 -2.2902  1.9529
  156MOL0     H21524  10.390   1.318   4.087  0.6190 -0.7044  0.7960
  156MOL0     H21525  10.838   1.185   3.503  0.0741  0.4142  1.0431
  156MOL0     H21526  11.037   1.007   3.320  0.8313  0.9221  0.0800
  156MOL0     H21527  10.971   1.034   3.475 -2.4836  1.3108 -1.2997
  156MOL0     H21528  10.904   0.897   3.376 -2.3556  0.1928 -0.2947
  157MOL0     O21529   1.252   6.614   7.252 -0.1015  0.0340 -0.7188
  157MOL0     C21530   1.330   6.695   7.309  0.3465 -0.6449  0.3508
  157MOL0     O21531   1.435   6.665   7.390 -0.8340  0.7265  0.1721
  157MOL0     C21532   1.486   6.535   7.400 -0.1052 -0.0333 -0.7311
  157MOL0     C21533   1.580   6.510   7.510  1.7750  0.0274  1.2358
  157MOL0     C21534   1.654   6.395   7.519 -1.1100  0.0041 -0.0851
  157MOL0     C21535   1.638   6.293   7.421  0.0455  0.3006  0.7394
  157MOL0     O21536   1.703   6.178   7.418 -1.4831  0.0253  0.3358
  157MOL0     C21537   1.634   6.081   7.494  0.3440  0.1935  0.3456
  157MOL0     C21538   1.706   5.947   7.474 -0.1539  0.4720  0.8402
  157MOL0     C21539   1.692   5.906   7.333  0.2265  0.8354 -0.5302
  157MOL0     C21540   1.545   5.886   7.284  0.1173 -0.3107  0.2470
  157MOL0     C21541   1.542   5.847   7.132 -0.3559 -0.7609 -0.5649
  157MOL0     C21542   1.592   5.716   7.099  0.6294  0.3730 -0.8330
  157MOL0     C21543   1.602   5.689   6.946 -1.7207  1.0923 -0.2238
  157MOL0     C21544   1.716   5.586   6.923  0.3009 -0.7556  2.0504
  157MOL0     N21545   1.850   5.644   6.937  0.1217  0.2923 -0.8033
  157MOL0     C21546   1.908   5.739   6.867  0.6810 -0.7984 -0.3681
  157MOL0     C21547   2.030   5.762   6.922  0.5497 -0.5712 -1.2164
  157MOL0     C21548   2.132   5.864   6.871 -0.2457 -0.3041 -0.3112
  157MOL0     C21549   2.094   5.996   6.934 -0.2711 -0.4090  0.7300
  157MOL0     C21550   2.005   6.073   6.833  0.3691 -0.5595 -0.0538
  157MOL0     C21551   1.998   6.224   6.866 -0.0523 -0.1738  0.2998
  157MOL0     O21552   1.885   6.248   6.957 -0.7132 -0.8267 -0.5305
  157MOL0     C21553   1.850   6.371   6.987  0.1048 -0.1418  0.0448
  157MOL0     C21554   1.922   6.474   6.950  0.0497  0.0238  0.1889
  157MOL0     C21555   1.874   6.604   6.957  0.0020  0.9402  0.3575
  157MOL0     C21556   1.952   6.695   6.882  0.1173  0.0109  0.5505
  157MOL0     C21557   1.760   6.644   7.023  0.6339  0.1708 -0.3551
  157MOL0     C21558   1.716   6.783   7.053 -0.1804 -0.3675 -0.6532
  157MOL0     O21559   1.579   6.806   7.071  0.1067  0.8605 -0.3953
  157MOL0     C21560   1.547   6.934   7.075  0.2777 -0.8121  0.7319
  157MOL0     C21561   1.472   6.975   6.959 -1.1406 -0.3588  0.3161
  157MOL0     C21562   1.420   7.111   6.960  0.4251  0.1602 -0.4264
  157MOL0     C21563   1.449   7.196   7.066 -0.3810 -0.3041 -0.2055
  157MOL0     O21564   1.389   7.320   7.049 -0.6978  0.0032 -0.2895
  157MOL0     C21565   1.401   7.414   7.164  0.7612 -0.0453  1.0832
  157MOL0     C21566   1.327   7.547   7.140  0.9024  0.1946  1.1949
  157MOL0     C21567   1.304   7.629   7.269 -0.2911  0.3505  0.5266
  157MOL0     C21568   1.274   7.781   7.241 -0.2548  0.9702  1.1769
  157MOL0     C21569   1.259   7.875   7.376  0.9790 -0.5609  0.5018
  157MOL0     C21570   1.221   8.025   7.330 -0.6603 -0.2491  0.2473
  157MOL0     C21571   1.303   8.124   7.419 -0.6903  0.5120  0.7306
  157MOL0     C21572   1.243   8.122   7.557 -0.4208  0.6474 -0.3030
  157MOL0    Cl21573   1.291   8.263   7.637 -0.9447 -0.1622  0.0154
  157MOL0     C21574   1.542   7.151   7.159  0.6547 -0.0701 -0.4600
  157MOL0     C21575   1.580   7.018   7.168 -0.3695 -0.8165  0.2034
  157MOL0     O21576   1.809   6.862   7.074  0.9428  0.5343  0.9149
  157MOL0     C21577   1.675   6.534   7.062  0.9394  0.8184 -0.1984
  157MOL0     C21578   1.726   6.402   7.048  0.4997 -0.0299  0.6999
  157MOL0     N21579   2.043   5.672   7.024  0.0675  0.8118 -0.5670
  157MOL0     N21580   1.940   5.602   7.032  0.9776  1.3603 -0.4083
  157MOL0     C21581   1.534   6.305   7.332  0.4295  0.3974  0.1576
  157MOL0     C21582   1.456   6.423   7.327  0.1664  0.4562 -0.8583
  157MOL0     C21583   1.285   6.835   7.307  0.9043  0.6966 -0.0043
  157MOL0     C21584   1.317   6.918   7.413  0.1558 -0.5723  0.2756
  157MOL0     C21585   1.262   7.049   7.421  0.2836  0.6870  0.1452
  157MOL0     C21586   1.176   7.094   7.325  0.9754  0.4936 -0.1538
  157MOL0     O21587   1.115   7.222   7.347 -0.3279  0.6628 -1.2562
  157MOL0     C21588   1.008   7.253   7.260  0.7486 -0.6043 -0.1084
  157MOL0     C21589   0.941   7.386   7.294 -0.3979  0.0888 -0.0420
  157MOL0     C21590   0.937   7.394   7.442  0.6088  0.3783  0.4641
  157MOL0     C21591   0.830   7.494   7.477 -0.5571  0.2506  0.3967
  157MOL0     C21592   0.850   7.552   7.610  0.0749 -0.8739 -1.0353
  157MOL0     C21593   0.881   7.602   7.718  0.6378 -0.8401 -0.2313
  157MOL0     C21594   1.150   7.015   7.211  0.5092  0.0762  0.4037
  157MOL0     C21595   1.194   6.886   7.207 -0.0884  0.0399  0.2541
  157MOL0     C21596   1.151   6.808   7.085  0.3252 -1.4814 -0.4502
  157MOL0     H21597   1.584   6.595   7.578 -0.6506 -0.5669  2.2073
  157MOL0     H21598   1.728   6.382   7.597 -1.9926  0.4678  0.8488
  157MOL0     H21599   1.532   6.071   7.457 -0.0134  0.5971  1.1905
  157MOL0     H21600   1.643   6.100   7.602  2.6072 -0.4329  0.3212
  157MOL0     H21601   1.808   5.969   7.507 -0.5533  0.3530  2.2028
  157MOL0     H21602   1.663   5.870   7.539  1.6486 -0.8473  0.5450
  157MOL0     H21603   1.739   5.975   7.263 -0.6745  1.2380 -0.7478
  157MOL0     H21604   1.741   5.808   7.327  2.0836  1.3068  3.2045
  157MOL0     H21605   1.494   5.805   7.338 -2.8247  1.5260  0.4335
  157MOL0     H21606   1.477   5.970   7.299 -0.5915 -1.1130  1.8323
  157MOL0     H21607   1.610   5.912   7.078  0.9266 -1.0510  0.6294
  157MOL0     H21608   1.438   5.867   7.103 -1.2906  0.7251  3.1769
  157MOL0     H21609   1.694   5.701   7.136  0.9719  1.0721 -1.4663
  157MOL0     H21610   1.528   5.636   7.139  0.4498  1.1352  0.4562
  157MOL0     H21611   1.639   5.779   6.898  0.1905  0.1453 -0.6312
  157MOL0     H21612   1.509   5.650   6.904 -0.6345 -4.7067  1.6874
  157MOL0     H21613   1.702   5.501   6.989 -0.9983 -1.1120  1.3479
  157MOL0     H21614   1.704   5.547   6.821 -2.2412 -0.1437  2.0356
  157MOL0     H21615   1.859   5.796   6.789 -0.9384  2.3502  2.7094
  157MOL0     H21616   2.136   5.863   6.762 -2.2062 -1.3945 -0.4318
  157MOL0     H21617   2.227   5.837   6.918 -1.5965 -1.0064  2.1888
  157MOL0     H21618   2.046   5.984   7.031 -1.6841  0.6508  0.1966
  157MOL0     H21619   2.181   6.061   6.948 -2.1514  1.6794  4.0716
  157MOL0     H21620   2.060   6.063   6.739  0.1590  0.9004 -0.3443
  157MOL0     H21621   1.907   6.025   6.830  1.3441 -2.6427 -1.3514
  157MOL0     H21622   2.094   6.256   6.908 -0.0349 -1.5675  1.3849
  157MOL0     H21623   1.978   6.274   6.771  1.3876  1.9992  1.0620
  157MOL0     H21624   2.013   6.470   6.890  1.2157  0.5026  1.8456
  157MOL0     H21625   1.878   6.767   6.846  2.6314  0.8542 -3.6664
  157MOL0     H21626   2.004   6.657   6.793  0.4221 -0.1909  0.8122
  157MOL0     H21627   2.033   6.746   6.936  0.4837  1.5423 -1.3234
  157MOL0     H21628   1.441   6.907   6.880  0.0221  1.5316 -1.8837
  157MOL0     H21629   1.346   7.147   6.890 -2.6490 -1.3132  1.8427
  157MOL0     H21630   1.335   7.365   7.236 -1.5359 -0.1519 -0.9791
  157MOL0     H21631   1.507   7.428   7.189  1.8146  0.2681 -2.8636
  157MOL0     H21632   1.389   7.612   7.078 -0.6200  1.4725  0.9275
  157MOL0     H21633   1.233   7.526   7.088  2.0933  2.5266 -2.2224
  157MOL0     H21634   1.392   7.626   7.334 -1.1360  1.4916  1.7954
  157MOL0     H21635   1.224   7.584   7.329 -2.2660  1.7905 -0.9039
  157MOL0     H21636   1.181   7.788   7.184 -0.1908  3.5033  1.2659
  157MOL0     H21637   1.355   7.817   7.177  0.5579 -3.4327 -0.6051
  157MOL0     H21638   1.187   7.833   7.446  0.9584 -1.1147  0.1573
  157MOL0     H21639   1.353   7.879   7.431  1.1773  0.4902  0.1084
  157MOL0     H21640   1.116   8.048   7.347 -0.3912  1.3749 -0.1092
  157MOL0     H21641   1.267   8.034   7.231  2.0593 -1.0728  1.3489
  157MOL0     H21642   1.309   8.218   7.364  0.4735  2.1604  3.4339
  157MOL0     H21643   1.410   8.099   7.419 -0.9177 -0.9107 -2.5403
  157MOL0     H21644   1.277   8.035   7.616 -0.8786 -0.1887 -1.2538
  157MOL0     H21645   1.135   8.122   7.545 -0.6019  2.4563  0.8637
  157MOL0     H21646   1.572   7.215   7.241  3.5780  1.9425 -2.8368
  157MOL0     H21647   1.632   6.982   7.256 -2.3375 -2.1348  0.8981
  157MOL0     H21648   1.577   6.551   7.106  0.9342 -2.7338  1.4845
  157MOL0     H21649   1.670   6.316   7.084  0.4914  0.7257  2.6088
  157MOL0     H21650   1.512   6.220   7.268  0.8751  0.7580 -0.4952
  157MOL0     H21651   1.383   6.417   7.246 -0.3440  2.1869 -0.5512
  157MOL0     H21652   1.394   6.882   7.481  0.1558 -1.2124 -0.0561
  157MOL0     H21653   1.273   7.118   7.504 -0.4786  0.3971  0.4990
  157MOL0     H21654   1.044   7.266   7.158  0.8972 -0.7979 -0.0818
  157MOL0     H21655   0.940   7.167   7.260  1.2534 -1.0248  1.0351
  157MOL0     H21656   0.843   7.386   7.244  0.3456 -1.3906 -1.6194
  157MOL0     H21657   1.010   7.465   7.264  0.6278 -0.2617  1.2996
  157MOL0     H21658   0.897   7.301   7.484  1.7330 -0.1064  0.5059
  157MOL0     H21659   1.032   7.418   7.491  1.6048 -0.9983 -0.7036
  157MOL0     H21660   0.728   7.453   7.477  0.3039 -2.0979  1.0691
  157MOL0     H21661   0.835   7.582   7.412  1.9699 -1.0103 -1.2854
  157MOL0     H21662   0.923   7.657   7.800 -0.9741 -1.4420  1.0492
  157MOL0     H21663   1.080   7.056   7.139 -1.3889 -3.6120 -0.0855
  157MOL0     H21664   1.078   6.731   7.109 -0.5886 -0.1818  1.2235
  157MOL0     H21665   1.103   6.881   7.019 -0.6874 -0.3529  1.4304
  157MOL0     H21666   1.233   6.760   7.030  0.8218  1.1132 -2.1661
  158MOL0     O21667   3.859   8.861  11.272  0.0781  0.2901  0.4329
  158MOL0     C21668   3.980   8.891  11.290  1.2033  0.5410 -0.6589
  158MOL0     O21669   4.033   8.928  11.411  0.3376 -0.7093 -0.6699
  158MOL0     C21670   3.942   8.913  11.511 -1.2847 -1.2660 -0.4177
  158MOL0     C21671   3.837   9.006  11.541  0.2856 -0.5373 -0.1125
  158MOL0     C21672   3.755   8.972  11.652 -0.0865 -0.8589 -0.3141
  158MOL0     C21673   3.781   8.863  11.738  0.1567  0.3144 -0.1830
  158MOL0     O21674   3.707   8.851  11.854 -0.0123 -0.3547  0.2384
  158MOL0     C21675   3.756   8.770  11.955  0.2950  0.7425  0.1573
  158MOL0     C21676   3.660   8.806  12.067  0.8160 -0.5322  1.0919
  158MOL0     C21677   3.715   8.907  12.157 -0.1380 -0.0086 -0.0462
  158MOL0     C21678   3.843   8.864  12.231 -0.2977  0.3130  0.2395
  158MOL0     C21679   3.833   8.740  12.318 -0.7698  0.0438 -0.9410
  158MOL0     C21680   3.969   8.725  12.409  0.1992 -1.0808 -0.5149
  158MOL0     C21681   4.007   8.852  12.490 -0.3572  0.4641  0.3454
  158MOL0     C21682   4.123   8.827  12.595  0.5215  0.2955  0.4431
  158MOL0     N21683   4.149   8.953  12.649  0.6649 -0.5062 -0.6174
  158MOL0     C21684   4.071   9.005  12.753 -0.7026  0.3478 -0.8923
  158MOL0     C21685   4.134   9.115  12.794 -0.4411 -0.5933  0.8294
  158MOL0     C21686   4.096   9.196  12.915  0.1487  0.1048 -0.1169
  158MOL0     C21687   4.195   9.160  13.035 -0.8221  0.5442  0.3578
  158MOL0     C21688   4.213   9.008  13.066 -0.2846  0.0379 -0.7046
  158MOL0     C21689   4.293   8.972  13.193  0.1697  0.1316 -0.6416
  158MOL0     O21690   4.223   9.018  13.309  0.7153  0.4008  0.5954
  158MOL0     C21691   4.244   8.970  13.430  0.1693 -1.3275  0.9503
  158MOL0     C21692   4.356   8.899  13.471  0.1533  0.3140 -0.3138
  158MOL0     C21693   4.365   8.852  13.609 -0.6741  0.0311 -1.0931
  158MOL0     C21694   4.487   8.786  13.647 -0.0061 -0.5668 -0.5122
  158MOL0     C21695   4.273   8.898  13.710 -0.5908 -0.6442  0.2720
  158MOL0     C21696   4.281   8.861  13.854 -1.3848  0.0444 -0.3472
  158MOL0     O21697   4.388   8.789  13.902  0.4874 -0.0426  0.4097
  158MOL0     C21698   4.400   8.771  14.042  0.5393 -0.0229  0.0894
  158MOL0     C21699   4.415   8.647  14.095  0.0348 -0.1307 -0.0571
  158MOL0     C21700   4.428   8.618  14.237 -0.0419 -0.9581 -0.3935
  158MOL0     C21701   4.435   8.731  14.329 -0.5623 -0.2636  0.1864
  158MOL0     O21702   4.456   8.719  14.465  0.1474 -0.6713 -0.2022
  158MOL0     C21703   4.460   8.574  14.511 -0.0420 -0.2480 -0.1864
  158MOL0     C21704   4.599   8.509  14.502  0.3186 -1.0730  0.2829
  158MOL0     C21705   4.581   8.350  14.530 -1.2473 -0.5881 -0.3925
  158MOL0     C21706   4.717   8.280  14.555 -0.3363  0.1696  0.1783
  158MOL0     C21707   4.821   8.320  14.446  0.6164  0.1485  0.0707
  158MOL0     C21708   4.939   8.241  14.416 -1.0845  0.1802  0.6750
  158MOL0     C21709   4.905   8.089  14.402 -0.7286 -0.0503 -0.1734
  158MOL0     C21710   5.029   8.001  14.402  0.6204  0.7850  0.0512
  158MOL0    Cl21711   5.139   8.040  14.256 -0.2212 -0.3669  0.1136
  158MOL0     C21712   4.423   8.853  14.274  0.0264 -0.2575 -0.0658
  158MOL0     C21713   4.406   8.876  14.133 -0.4480 -0.5409  0.0630
  158MOL0     O21714   4.188   8.897  13.922  0.2496 -0.6496  0.4625
  158MOL0     C21715   4.163   8.962  13.658 -0.3659 -0.6897 -0.7706
  158MOL0     C21716   4.142   9.003  13.525 -0.5590 -0.4776  0.0888
  158MOL0     N21717   4.239   9.143  12.706  0.2158  0.6843  0.3074
  158MOL0     N21718   4.236   9.052  12.613  0.4551  0.5754  0.3231
  158MOL0     C21719   3.885   8.771  11.707  0.6089 -0.5969 -0.3057
  158MOL0     C21720   3.962   8.797  11.594  0.5982 -0.1195  0.9556
  158MOL0     C21721   4.071   8.899  11.168 -0.0757  0.0745  0.4124
  158MOL0     C21722   4.046   8.987  11.066 -0.5510  0.9831  1.0657
  158MOL0     C21723   4.126   8.992  10.941 -0.1715 -0.0901 -0.2331
  158MOL0     C21724   4.231   8.905  10.924  1.1899 -1.3163 -0.7645
  158MOL0     O21725   4.279   8.899  10.797  1.2717 -0.2398  0.5649
  158MOL0     C21726   4.281   8.753  10.756 -0.2271 -1.4259  0.5149
  158MOL0     C21727   4.248   8.732  10.610  0.2639  1.0384 -0.0499
  158MOL0     C21728   4.098   8.730  10.569 -1.0544 -0.3013 -0.2764
  158MOL0     C21729   4.077   8.714  10.417 -0.4020 -0.1004  0.4550
  158MOL0     C21730   4.196   8.748  10.334 -0.4768  0.0104  0.0061
  158MOL0     C21731   4.303   8.753  10.273  0.4368 -0.7070 -0.6497
  158MOL0     C21732   4.264   8.826  11.033 -0.8387  0.2116 -0.3694
  158MOL0     C21733   4.189   8.830  11.157  0.2343 -0.7669  0.6564
  158MOL0     C21734   4.237   8.736  11.264 -0.1389 -0.3364  0.2358
  158MOL0     H21735   3.797   9.075  11.467  0.0316 -2.8033 -2.2317
  158MOL0     H21736   3.673   9.041  11.670 -0.0314 -0.7769 -0.3768
  158MOL0     H21737   3.859   8.783  11.991  0.5818  1.6519 -0.9458
  158MOL0     H21738   3.749   8.666  11.925  2.9702  0.1974  1.1122
  158MOL0     H21739   3.562   8.841  12.033  0.4933 -2.2313  0.1405
  158MOL0     H21740   3.625   8.721  12.125 -0.9005 -0.9352 -0.4293
  158MOL0     H21741   3.742   8.994  12.096  0.5515  0.8890  1.4666
  158MOL0     H21742   3.646   8.959  12.224 -0.0274  1.9948 -1.3983
  158MOL0     H21743   3.924   8.848  12.159 -1.2164 -1.9332 -0.3648
  158MOL0     H21744   3.858   8.958  12.286 -2.5314  1.0637 -0.3367
  158MOL0     H21745   3.820   8.652  12.255 -0.7400 -0.5156 -0.1689
  158MOL0     H21746   3.751   8.743  12.389  0.7728 -0.5776  0.9462
  158MOL0     H21747   3.956   8.646  12.484  3.0654 -0.7284  0.4876
  158MOL0     H21748   4.048   8.700  12.338  0.5752  0.1543 -0.5439
  158MOL0     H21749   3.919   8.892  12.541  0.5245  0.1943  2.1599
  158MOL0     H21750   4.047   8.935  12.431 -1.8011  3.2693  3.0367
  158MOL0     H21751   4.081   8.760  12.670  2.1699 -4.0479 -2.1314
  158MOL0     H21752   4.214   8.781  12.555  0.2013 -0.0276  0.0754
  158MOL0     H21753   3.993   8.949  12.804 -0.9225  1.1510 -0.3297
  158MOL0     H21754   3.992   9.165  12.933 -0.4603  0.5186 -2.5178
  158MOL0     H21755   4.100   9.305  12.902  0.6633  0.0196 -0.6916
  158MOL0     H21756   4.284   9.219  13.009 -1.3114  1.4106  0.6216
  158MOL0     H21757   4.157   9.201  13.129 -1.9632 -0.5489  0.3871
  158MOL0     H21758   4.110   8.972  13.078  0.5515 -2.4307 -0.4427
  158MOL0     H21759   4.257   8.957  12.981  1.9642  2.9176 -1.4040
  158MOL0     H21760   4.303   8.863  13.191  2.1663  0.2336  0.9522
  158MOL0     H21761   4.397   9.006  13.190 -0.4836  2.2232 -1.1752
  158MOL0     H21762   4.432   8.892  13.393 -0.4730  0.4599 -0.9506
  158MOL0     H21763   4.468   8.701  13.713  0.4086  0.0292  0.3875
  158MOL0     H21764   4.557   8.859  13.688  2.0338 -0.9389 -3.0625
  158MOL0     H21765   4.535   8.749  13.555 -2.9610 -2.0313 -1.5924
  158MOL0     H21766   4.423   8.574  14.016  0.5056 -1.2501  0.9910
  158MOL0     H21767   4.441   8.517  14.275 -3.2070 -1.6425 -0.8737
  158MOL0     H21768   4.429   8.573  14.616 -1.5837 -2.1078 -0.5887
  158MOL0     H21769   4.391   8.500  14.470  1.4494 -1.2091 -1.0777
  158MOL0     H21770   4.646   8.544  14.410  0.8894 -1.4830  0.4140
  158MOL0     H21771   4.665   8.534  14.585 -2.1836 -3.2403  3.1535
  158MOL0     H21772   4.524   8.317  14.442 -0.9365  0.3940 -0.9795
  158MOL0     H21773   4.517   8.342  14.618 -1.9195  1.2725 -0.6791
  158MOL0     H21774   4.698   8.173  14.545  2.2683 -0.3414 -0.1702
  158MOL0     H21775   4.769   8.306  14.648 -0.4733 -0.5831  0.4748
  158MOL0     H21776   4.758   8.303  14.358  0.4634  3.4116 -0.5872
  158MOL0     H21777   4.839   8.427  14.465 -2.2250  0.2077  3.6261
  158MOL0     H21778   5.005   8.263  14.501 -2.9795 -0.9336  2.5581
  158MOL0     H21779   4.990   8.286  14.331 -1.5588  1.4027  1.0224
  158MOL0     H21780   4.850   8.074  14.308 -2.6629  3.7169  0.1341
  158MOL0     H21781   4.843   8.048  14.482 -1.5603 -3.9162 -2.5395
  158MOL0     H21782   5.001   7.895  14.396 -0.8309  0.7359  4.5271
  158MOL0     H21783   5.089   8.001  14.493  1.5135 -1.3585 -0.4739
  158MOL0     H21784   4.445   8.926  14.351  0.9656 -1.8975  1.3048
  158MOL0     H21785   4.394   8.979  14.101 -1.4324 -0.0244  1.9348
  158MOL0     H21786   4.084   8.980  13.731  0.5333  1.6040 -0.2616
  158MOL0     H21787   4.054   9.058  13.495  0.2029  0.9233  0.3638
  158MOL0     H21788   3.914   8.695  11.779 -0.5095 -0.2854  0.4992
  158MOL0     H21789   4.041   8.731  11.561  3.3967  2.5862  1.7412
  158MOL0     H21790   3.957   9.049  11.058 -0.6714  0.6619 -0.2923
  158MOL0     H21791   4.101   9.057  10.858 -1.7472 -1.0134 -0.5446
  158MOL0     H21792   4.388   8.729  10.756 -0.3389 -2.0166 -0.7104
  158MOL0     H21793   4.218   8.689  10.818  0.5912 -0.4137  2.5063
  158MOL0     H21794   4.301   8.645  10.570  1.8456  0.5138  2.8827
  158MOL0     H21795   4.294   8.815  10.555  0.6379  0.0594 -1.2688
  158MOL0     H21796   4.045   8.643  10.611  0.7629 -0.6809  1.4149
  158MOL0     H21797   4.044   8.820  10.597 -2.3453 -1.4988  1.2868
  158MOL0     H21798   3.999   8.775  10.371  0.4057 -0.0424 -0.8922
  158MOL0     H21799   4.037   8.613  10.404 -1.5779  0.4348 -0.3141
  158MOL0     H21800   4.392   8.777  10.219 -0.1100  0.6233 -1.0233
  158MOL0     H21801   4.347   8.755  11.035 -0.9594  0.0815  0.0935
  158MOL0     H21802   4.338   8.700  11.242 -0.0683 -1.6460  2.4412
  158MOL0     H21803   4.247   8.799  11.353 -1.4475 -2.3039  1.8774
  158MOL0     H21804   4.181   8.642  11.277  1.4954 -1.9274 -2.9509
  159MOL0     O21805   9.637   0.344   7.837  0.0065 -0.2961 -0.9836
  159MOL0     C21806   9.748   0.329   7.777  0.4094  0.4493  0.3675
  159MOL0     O21807   9.879   0.309   7.844 -0.2885  0.0013 -0.5074
  159MOL0     C21808   9.861   0.295   7.979 -0.2267  1.0023  1.0172
  159MOL0     C21809   9.859   0.160   8.034 -1.1504 -0.0394 -0.4350
  159MOL0     C21810   9.867   0.157   8.170 -0.5840  0.4876 -0.1036
  159MOL0     C21811   9.832   0.265   8.256  0.3009 -0.4329  0.0176
  159MOL0     O21812   9.817   0.238   8.389  0.1542 -0.2742 -0.3058
  159MOL0     C21813   9.722   0.326   8.456  0.3478 -0.2502 -0.1615
  159MOL0     C21814   9.691   0.269   8.595  0.1990  0.3420 -0.0787
  159MOL0     C21815   9.794   0.318   8.698  0.0375 -0.0729 -0.6630
  159MOL0     C21816   9.778   0.226   8.824 -0.3268  0.3561 -0.2904
  159MOL0     C21817   9.634   0.219   8.882 -0.0468 -0.1924  0.2676
  159MOL0     C21818   9.575   0.352   8.912  0.6100 -0.9189  0.8280
  159MOL0     C21819   9.667   0.440   9.004 -0.7284 -0.1274 -0.2812
  159MOL0     C21820   9.618   0.578   9.039  0.0272  0.4807 -0.7876
  159MOL0     N21821   9.478   0.566   9.084  0.5203 -0.0166 -0.0099
  159MOL0     C21822   9.436   0.609   9.210  0.4291 -0.4941  1.2699
  159MOL0     C21823   9.301   0.625   9.200  0.1895  0.1106 -0.2708
  159MOL0     C21824   9.206   0.653   9.312 -0.5912 -0.2967 -0.5968
  159MOL0     C21825   9.186   0.807   9.338  0.7227  1.2250 -0.2816
  159MOL0     C21826   9.079   0.871   9.244  0.4941  1.1980  0.5900
  159MOL0     C21827   9.137   0.927   9.119 -0.3945 -1.8732 -0.1725
  159MOL0     O21828   9.254   1.007   9.156  0.8352  0.3726  1.2606
  159MOL0     C21829   9.322   1.064   9.053  0.3198 -0.4549 -0.5746
  159MOL0     C21830   9.418   1.152   9.099  0.3598 -0.3017  0.4523
  159MOL0     C21831   9.503   1.220   9.006 -0.4329  1.3415 -0.7251
  159MOL0     C21832   9.611   1.321   9.054 -0.0763  0.7161 -0.5647
  159MOL0     C21833   9.487   1.208   8.866 -0.2134 -0.4630 -0.2227
  159MOL0     C21834   9.572   1.271   8.763  0.1582 -0.3038 -1.6054
  159MOL0     O21835   9.702   1.290   8.803 -0.1956  0.1948 -0.3966
  159MOL0     C21836   9.812   1.313   8.718 -0.5518  0.1839 -0.1745
  159MOL0     C21837   9.816   1.307   8.579  0.1200  0.4614  0.3601
  159MOL0     C21838   9.933   1.338   8.508  0.3943 -0.0382 -0.6354
  159MOL0     C21839  10.047   1.375   8.580  0.5110  0.6936  0.6342
  159MOL0     O21840  10.151   1.419   8.498  0.0210  0.3223 -0.0727
  159MOL0     C21841  10.199   1.550   8.531 -0.2551  0.8327  1.5252
  159MOL0     C21842  10.107   1.655   8.475  0.0929  0.5031  0.6764
  159MOL0     C21843  10.151   1.799   8.526  0.1952  0.5729 -0.0921
  159MOL0     C21844  10.053   1.907   8.476  0.0847  0.7461  0.0711
  159MOL0     C21845  10.102   2.050   8.498  0.2961 -0.2995 -0.3856
  159MOL0     C21846  10.044   2.157   8.413  0.6098 -0.3643 -0.5615
  159MOL0     C21847  10.135   2.194   8.286  0.4532  0.3854  0.1053
  159MOL0     C21848  10.066   2.259   8.166  0.6014 -0.9322  0.3065
  159MOL0    Cl21849   9.933   2.151   8.093  0.4196 -0.0666  0.1427
  159MOL0     C21850  10.045   1.367   8.717  0.3466 -0.3952  0.7692
  159MOL0     C21851   9.924   1.345   8.783 -0.5704  0.4707 -0.9399
  159MOL0     O21852   9.523   1.304   8.658  0.3361 -0.0925  0.2791
  159MOL0     C21853   9.389   1.122   8.826 -0.1740 -0.6797  0.5429
  159MOL0     C21854   9.315   1.040   8.915 -1.1745 -0.0460  0.4254
  159MOL0     N21855   9.268   0.598   9.068 -0.6932 -0.4651 -0.4992
  159MOL0     N21856   9.370   0.573   8.999 -0.4140 -0.4938 -0.0991
  159MOL0     C21857   9.827   0.398   8.204  0.6910  0.1957 -0.0706
  159MOL0     C21858   9.843   0.405   8.061 -0.1966 -0.3071 -0.5734
  159MOL0     C21859   9.741   0.331   7.627  0.2521 -0.6836  0.3506
  159MOL0     C21860   9.865   0.350   7.566  0.9854  0.1052  0.9500
  159MOL0     C21861   9.874   0.373   7.423 -0.3161 -0.2225 -0.5338
  159MOL0     C21862   9.764   0.363   7.342  0.2598  0.0514  0.7732
  159MOL0     O21863   9.780   0.373   7.200  0.4074  0.3014 -1.2413
  159MOL0     C21864   9.664   0.370   7.113 -0.7187  0.6744 -0.6677
  159MOL0     C21865   9.686   0.369   6.961 -0.3871  0.1249  0.7252
  159MOL0     C21866   9.805   0.450   6.910 -0.5697  0.8050 -0.0426
  159MOL0     C21867   9.807   0.465   6.754 -0.0005  0.1147 -1.3469
  159MOL0     C21868   9.763   0.606   6.727  0.7724  0.0130 -0.1772
  159MOL0     C21869   9.696   0.708   6.698 -0.0940  0.3485 -0.0251
  159MOL0     C21870   9.639   0.337   7.405 -0.0214 -0.1499  0.6450
  159MOL0     C21871   9.625   0.320   7.543  0.3494  0.8166 -0.4999
  159MOL0     C21872   9.482   0.289   7.595 -0.2394 -0.3091 -0.1088
  159MOL0     H21873   9.870   0.072   7.971  2.6152 -2.8060  3.4439
  159MOL0     H21874   9.883   0.055   8.202 -2.9488  0.0840 -0.0229
  159MOL0     H21875   9.630   0.353   8.404  0.4008 -0.0207 -0.1392
  159MOL0     H21876   9.773   0.422   8.470  0.5593 -0.5564  1.3167
  159MOL0     H21877   9.592   0.305   8.623 -0.4029 -2.2514  1.5466
  159MOL0     H21878   9.684   0.161   8.580 -2.7482  0.4878 -0.2566
  159MOL0     H21879   9.890   0.295   8.650 -0.3443 -0.6106 -1.1849
  159MOL0     H21880   9.784   0.422   8.730  2.0662 -0.2706  0.7890
  159MOL0     H21881   9.806   0.127   8.787  0.0409  0.8552 -1.3811
  159MOL0     H21882   9.845   0.248   8.908  1.2716  0.8748 -1.6350
  159MOL0     H21883   9.643   0.167   8.978  0.1958 -2.6837 -1.0133
  159MOL0     H21884   9.563   0.162   8.822  1.3599 -3.2725  1.3248
  159MOL0     H21885   9.550   0.410   8.823  1.3935 -0.1477  1.0919
  159MOL0     H21886   9.476   0.330   8.952  0.5053 -0.0568  1.0694
  159MOL0     H21887   9.761   0.446   8.948 -1.0054 -0.4239 -0.7905
  159MOL0     H21888   9.683   0.393   9.101  1.6171  1.3911  0.1366
  159MOL0     H21889   9.689   0.632   9.103  0.9074 -0.3272 -1.0744
  159MOL0     H21890   9.627   0.635   8.946 -0.9811  0.9849 -0.5921
  159MOL0     H21891   9.496   0.625   9.299  0.3666  1.6153  0.9866
  159MOL0     H21892   9.226   0.609   9.410 -4.0115  2.0018  1.3651
  159MOL0     H21893   9.101   0.628   9.295 -1.4229  1.3332  1.5929
  159MOL0     H21894   9.152   0.830   9.440 -3.1449  1.8003 -1.5308
  159MOL0     H21895   9.287   0.849   9.329  1.4520 -0.2501  0.6944
  159MOL0     H21896   8.998   0.799   9.228  4.2428 -3.2558 -0.4897
  159MOL0     H21897   9.043   0.950   9.311  0.7807 -0.8570  3.3493
  159MOL0     H21898   9.160   0.848   9.047  0.6867  0.7152 -2.9304
  159MOL0     H21899   9.063   0.990   9.069  1.1052 -1.7652 -2.4178
  159MOL0     H21900   9.439   1.163   9.205  1.0792  0.9209  0.1962
  159MOL0     H21901   9.581   1.337   9.158 -1.9250 -3.2195 -0.3104
  159MOL0     H21902   9.617   1.414   8.997  1.8575  0.9069 -0.1268
  159MOL0     H21903   9.715   1.285   9.058  0.1050  1.2277 -0.6375
  159MOL0     H21904   9.730   1.278   8.520  0.4962  0.2341 -0.0952
  159MOL0     H21905   9.944   1.339   8.400  3.0361  0.3131 -0.4381
  159MOL0     H21906  10.220   1.558   8.638  0.0453 -0.0076  1.5371
  159MOL0     H21907  10.294   1.550   8.476  0.5645 -1.7129  2.7747
  159MOL0     H21908  10.107   1.655   8.365  0.2631 -0.4310  0.6615
  159MOL0     H21909  10.004   1.636   8.506  0.1642 -0.1344  0.5510
  159MOL0     H21910  10.255   1.818   8.496  1.4223  0.2202  3.5190
  159MOL0     H21911  10.142   1.808   8.635  1.0665  0.3599  0.0007
  159MOL0     H21912   9.960   1.906   8.533 -1.1304  1.5912 -1.8184
  159MOL0     H21913  10.034   1.883   8.371 -0.7305 -3.5522  1.0208
  159MOL0     H21914  10.074   2.073   8.601  0.7142 -1.7113  0.0732
  159MOL0     H21915  10.211   2.054   8.498  0.3440  1.3118  2.4351
  159MOL0     H21916  10.039   2.249   8.471 -2.2372 -1.4838  1.1414
  159MOL0     H21917   9.943   2.135   8.379 -0.0298 -0.4869  1.3467
  159MOL0     H21918  10.185   2.105   8.246 -1.4033  0.0790 -1.6937
  159MOL0     H21919  10.217   2.256   8.321  1.7911 -1.2235 -0.0712
  159MOL0     H21920  10.145   2.294   8.100  0.5776  2.5344  1.9278
  159MOL0     H21921   9.998   2.339   8.196 -1.0894 -1.5717 -1.5112
  159MOL0     H21922  10.130   1.409   8.769  0.4990 -1.5559  1.5045
  159MOL0     H21923   9.919   1.357   8.891 -1.0065  1.2343 -1.0342
  159MOL0     H21924   9.366   1.102   8.722  0.1820  3.1809 -0.4098
  159MOL0     H21925   9.240   0.971   8.877  2.3590 -2.4402 -2.9455
  159MOL0     H21926   9.806   0.484   8.268 -2.2079 -1.2012  1.0461
  159MOL0     H21927   9.827   0.491   7.998 -0.1728 -1.0755 -1.6686
  159MOL0     H21928   9.955   0.353   7.626  0.3309 -1.6746  2.0984
  159MOL0     H21929   9.970   0.405   7.383  0.1723  2.2691  2.2700
  159MOL0     H21930   9.605   0.281   7.134 -0.8809  0.6818 -1.0790
  159MOL0     H21931   9.612   0.463   7.140 -2.1896 -0.4747  0.6716
  159MOL0     H21932   9.600   0.412   6.909 -0.4387  1.3469  1.7698
  159MOL0     H21933   9.703   0.267   6.925  2.4079  0.9689 -0.6432
  159MOL0     H21934   9.802   0.548   6.958  1.3533  0.3283  1.1886
  159MOL0     H21935   9.901   0.418   6.952 -0.7222  2.0508  1.3526
  159MOL0     H21936   9.732   0.395   6.715 -4.1014  1.6747  2.8614
  159MOL0     H21937   9.901   0.440   6.704  1.8636  5.3656 -1.0209
  159MOL0     H21938   9.636   0.797   6.695 -0.2358  0.2963  0.9070
  159MOL0     H21939   9.553   0.352   7.341 -0.4898 -0.1764  1.2605
  159MOL0     H21940   9.436   0.240   7.509 -0.6128  0.8737 -0.6068
  159MOL0     H21941   9.491   0.218   7.678  0.5240 -0.5387 -0.3747
  159MOL0     H21942   9.430   0.380   7.627 -1.9583 -1.9799  2.1333
  160MOL0     O21943   5.016   4.071   5.785 -0.5377 -0.1977 -0.7358
  160MOL0     C21944   5.069   4.115   5.690  0.5625 -0.0950 -0.8614
  160MOL0     O21945   5.024   4.214   5.611 -0.9331  0.4625 -0.5805
  160MOL0     C21946   4.977   4.330   5.665 -0.1156 -0.2394  0.0264
  160MOL0     C21947   5.047   4.401   5.764  0.3971  0.5721 -0.8795
  160MOL0     C21948   5.000   4.521   5.825  0.1614  0.7278  0.5282
  160MOL0     C21949   4.870   4.574   5.772  0.7699 -0.6853  1.2991
  160MOL0     O21950   4.817   4.689   5.824 -0.1085  0.3661  0.3119
  160MOL0     C21951   4.860   4.725   5.950 -0.2811 -0.0230  0.3545
  160MOL0     C21952   4.783   4.849   5.974  0.1121  0.0577  1.2763
  160MOL0     C21953   4.793   4.898   6.117 -0.5700 -0.5609 -0.0864
  160MOL0     C21954   4.704   5.020   6.137 -0.3020 -0.6783 -0.5856
  160MOL0     C21955   4.706   5.058   6.292  0.0410  0.0367 -0.6396
  160MOL0     C21956   4.839   5.092   6.356 -0.1574 -0.2533 -0.2116
  160MOL0     C21957   4.802   5.158   6.496 -0.3046 -0.3113 -0.1563
  160MOL0     C21958   4.831   5.054   6.604  0.2038 -0.5694  0.4060
  160MOL0     N21959   4.964   5.014   6.626 -0.3556 -0.0457  0.4135
  160MOL0     C21960   5.008   4.891   6.605 -0.3575 -1.0854  0.5560
  160MOL0     C21961   5.131   4.884   6.653  0.5540  0.6293  0.0596
  160MOL0     C21962   5.228   4.767   6.653 -0.7969 -0.0288 -0.1793
  160MOL0     C21963   5.326   4.771   6.772  0.3893  0.3412  0.3391
  160MOL0     C21964   5.460   4.823   6.729  0.0206  0.1712  0.6727
  160MOL0     C21965   5.471   4.961   6.689 -0.2195  0.0839  0.3123
  160MOL0     O21966   5.608   4.989   6.655  0.2203 -0.6145  0.5372
  160MOL0     C21967   5.654   4.979   6.522  0.4087  0.3860 -0.5384
  160MOL0     C21968   5.784   5.016   6.503  0.1813 -0.0555 -0.3971
  160MOL0     C21969   5.846   5.020   6.379  0.4905  0.2582  0.7282
  160MOL0     C21970   5.985   5.066   6.356 -1.1196  0.5974 -0.4918
  160MOL0     C21971   5.767   4.970   6.272 -0.1881  0.4818  0.5667
  160MOL0     C21972   5.800   4.999   6.129 -0.0492  0.7396  0.4007
  160MOL0     O21973   5.746   4.917   6.037 -0.1641  0.2410 -0.4649
  160MOL0     C21974   5.794   4.897   5.906 -0.2645 -0.3390  0.0902
  160MOL0     C21975   5.921   4.932   5.851 -0.7758 -0.2462  0.0372
  160MOL0     C21976   5.952   4.917   5.713 -0.3500 -0.3226 -0.9393
  160MOL0     C21977   5.855   4.871   5.619 -1.1140 -0.6546 -0.4036
  160MOL0     O21978   5.885   4.842   5.480 -0.6626 -0.4794 -0.7889
  160MOL0     C21979   6.008   4.779   5.440  0.9019  0.5310 -0.5062
  160MOL0     C21980   5.988   4.615   5.440  0.5913  0.2986  0.1876
  160MOL0     C21981   5.980   4.566   5.585 -0.1787  1.3926 -0.2448
  160MOL0     C21982   6.021   4.418   5.596  0.3974  0.1424 -0.8212
  160MOL0     C21983   6.008   4.357   5.747  0.5578  0.7333 -0.2242
  160MOL0     C21984   5.897   4.409   5.827 -0.7079 -0.2948 -0.7453
  160MOL0     C21985   5.867   4.329   5.955 -0.6501  0.9444  0.5610
  160MOL0     C21986   5.731   4.349   6.001 -0.7727 -0.7528 -0.5570
  160MOL0    Cl21987   5.704   4.517   6.064  0.4847 -0.2322 -0.0624
  160MOL0     C21988   5.721   4.834   5.672  0.6170 -0.8686  0.3087
  160MOL0     C21989   5.696   4.856   5.810  0.7192  0.0984 -0.1196
  160MOL0     O21990   5.865   5.098   6.094  0.4556 -0.0972 -0.0746
  160MOL0     C21991   5.636   4.926   6.295 -0.4009 -1.3740  0.4278
  160MOL0     C21992   5.582   4.925   6.418  0.8624  0.0574 -0.4190
  160MOL0     N21993   5.168   5.014   6.673  0.3250 -0.3828  0.9263
  160MOL0     N21994   5.070   5.093   6.658  0.0377  0.5157 -0.6102
  160MOL0     C21995   4.806   4.506   5.671 -0.4438 -0.1448  0.6543
  160MOL0     C21996   4.859   4.386   5.616  0.7105 -0.7124  0.4327
  160MOL0     C21997   5.177   4.021   5.628  0.8592 -0.3362  0.1375
  160MOL0     C21998   5.215   3.911   5.699 -0.1622 -0.6540 -0.1709
  160MOL0     C21999   5.289   3.808   5.649  0.0661 -0.3690  0.8290
  160MOL0     C22000   5.360   3.824   5.523 -0.2358 -0.8177 -0.0850
  160MOL0     O22001   5.427   3.728   5.458  0.7765  0.3105 -0.7401
  160MOL0     C22002   5.479   3.613   5.531  0.0281  0.3829  0.4974
  160MOL0     C22003   5.566   3.547   5.420 -0.0898  1.0804  0.3500
  160MOL0     C22004   5.556   3.397   5.450  0.6355 -0.8347  0.3233
  160MOL0     C22005   5.632   3.329   5.344  0.5307 -0.1581  0.5595
  160MOL0     C22006   5.566   3.346   5.213 -0.2667  0.3669  0.2711
  160MOL0     C22007   5.514   3.362   5.104 -0.8152 -0.0917 -0.2913
  160MOL0     C22008   5.321   3.932   5.448 -0.4032 -0.0945  0.2875
  160MOL0     C22009   5.232   4.034   5.494 -0.6491  0.5463  0.0464
  160MOL0     C22010   5.205   4.130   5.382  0.2175 -0.3720 -0.4152
  160MOL0     H22011   5.142   4.374   5.808 -1.0052  1.0301  2.7029
  160MOL0     H22012   5.043   4.555   5.919 -0.1734 -0.7571  1.2517
  160MOL0     H22013   4.964   4.760   5.956 -0.2603  0.0994 -0.5180
  160MOL0     H22014   4.842   4.655   6.031 -1.9395  0.4369  0.4221
  160MOL0     H22015   4.820   4.921   5.900 -0.3287 -0.7057  0.2922
  160MOL0     H22016   4.676   4.836   5.957  0.2800  1.2999 -1.1812
  160MOL0     H22017   4.774   4.825   6.195  2.8734  0.2789  1.7748
  160MOL0     H22018   4.896   4.931   6.139 -1.5281  1.4715  1.7046
  160MOL0     H22019   4.740   5.108   6.083 -1.3647  0.3288  0.2885
  160MOL0     H22020   4.601   4.999   6.106 -0.0098 -3.2440 -0.0548
  160MOL0     H22021   4.656   4.979   6.348  1.4880 -0.0076  0.6525
  160MOL0     H22022   4.635   5.141   6.301  0.9408  0.7389  0.1990
  160MOL0     H22023   4.898   5.000   6.362 -1.2043 -0.8612  1.3689
  160MOL0     H22024   4.887   5.169   6.296 -2.8344  2.1306  0.4939
  160MOL0     H22025   4.695   5.178   6.511  0.1916  1.0683  1.8915
  160MOL0     H22026   4.856   5.252   6.506 -0.7003  0.5975 -4.3758
  160MOL0     H22027   4.797   5.097   6.699 -0.8093 -3.5534  1.5251
  160MOL0     H22028   4.776   4.960   6.593  0.3802 -1.0249  2.8056
  160MOL0     H22029   4.950   4.813   6.558  0.4032 -1.4137  0.1398
  160MOL0     H22030   5.279   4.763   6.557 -3.4771  0.1108 -1.6988
  160MOL0     H22031   5.169   4.676   6.663 -0.1983 -0.2587  1.6344
  160MOL0     H22032   5.287   4.815   6.864  0.3109  3.3138 -0.9923
  160MOL0     H22033   5.332   4.667   6.805 -0.4323  0.9711  2.6525
  160MOL0     H22034   5.528   4.811   6.815  1.7569  0.5001 -0.5960
  160MOL0     H22035   5.507   4.764   6.649 -1.4391  0.9581 -0.8157
  160MOL0     H22036   5.396   4.998   6.619 -2.9416 -0.4550  2.7305
  160MOL0     H22037   5.461   5.018   6.782  1.2352  2.9383 -1.1703
  160MOL0     H22038   5.836   5.044   6.594 -0.0042  1.2507 -0.6861
  160MOL0     H22039   6.031   5.007   6.277 -0.9219 -1.2102  0.9047
  160MOL0     H22040   6.042   5.054   6.449  3.0319  2.6861 -2.4985
  160MOL0     H22041   5.989   5.174   6.340  1.6896  0.5281 -0.7700
  160MOL0     H22042   5.997   4.976   5.915  1.2535 -1.3575 -1.5103
  160MOL0     H22043   6.053   4.940   5.681 -1.0622  0.2436 -2.9065
  160MOL0     H22044   6.016   4.812   5.336 -0.6018  1.6242 -0.3078
  160MOL0     H22045   6.098   4.804   5.496  0.6002 -2.0374  1.3295
  160MOL0     H22046   5.902   4.589   5.378  1.7083  1.7720 -2.1166
  160MOL0     H22047   6.079   4.566   5.403  0.1255 -0.3082 -0.1655
  160MOL0     H22048   5.873   4.569   5.608 -0.2295 -0.4809 -0.0874
  160MOL0     H22049   6.026   4.635   5.656 -0.1331  0.7930  0.3092
  160MOL0     H22050   6.126   4.408   5.567  0.4231 -1.2294 -0.2851
  160MOL0     H22051   5.950   4.362   5.535 -0.7962  0.8867 -0.1775
  160MOL0     H22052   5.987   4.250   5.733 -4.0708  1.4517 -0.2577
  160MOL0     H22053   6.105   4.363   5.799  0.7940  0.7190 -0.6531
  160MOL0     H22054   5.813   4.409   5.756 -2.3513  1.6839  1.0495
  160MOL0     H22055   5.924   4.509   5.863 -0.3977  0.1541 -2.1638
  160MOL0     H22056   5.933   4.366   6.035 -0.6807 -1.1032  1.6163
  160MOL0     H22057   5.894   4.223   5.964  2.4914  1.7451  1.8142
  160MOL0     H22058   5.712   4.281   6.085 -0.6250 -1.7004 -1.2699
  160MOL0     H22059   5.665   4.321   5.918 -1.7567 -0.3245  0.0554
  160MOL0     H22060   5.646   4.790   5.607  0.0679 -1.6716  1.4437
  160MOL0     H22061   5.599   4.812   5.832  2.1664 -5.0051 -2.3095
  160MOL0     H22062   5.567   4.900   6.215 -2.5375  0.7866  1.4277
  160MOL0     H22063   5.474   4.914   6.419  0.9456 -2.1102 -3.2298
  160MOL0     H22064   4.710   4.536   5.628  0.2969 -0.4971 -1.3818
  160MOL0     H22065   4.811   4.327   5.539  0.1331 -0.4739  0.6022
  160MOL0     H22066   5.194   3.909   5.806  1.6529 -1.9964  0.2146
  160MOL0     H22067   5.315   3.720   5.707  2.4405 -0.9962 -0.9907
  160MOL0     H22068   5.516   3.622   5.633  1.6064 -1.3926  0.1554
  160MOL0     H22069   5.386   3.557   5.544 -0.2138 -0.0546 -2.4772
  160MOL0     H22070   5.668   3.587   5.414 -0.1185  0.9815 -0.9844
  160MOL0     H22071   5.515   3.573   5.327 -1.4249 -2.4574 -0.0786
  160MOL0     H22072   5.599   3.389   5.550  4.8285  1.2012 -1.0808
  160MOL0     H22073   5.454   3.358   5.446  0.4365 -0.2379 -1.2134
  160MOL0     H22074   5.628   3.223   5.371 -2.3249 -0.1978  0.2546
  160MOL0     H22075   5.735   3.365   5.342  0.2882  0.5808  1.1827
  160MOL0     H22076   5.438   3.388   5.034 -2.9189 -0.1512  1.8658
  160MOL0     H22077   5.353   3.937   5.345  1.0218 -4.6582  0.2449
  160MOL0     H22078   5.245   4.097   5.285 -0.5717  0.4146 -1.0305
  160MOL0     H22079   5.102   4.160   5.362 -0.2276 -1.4313  0.1845
  160MOL0     H22080   5.255   4.222   5.414  2.3769 -1.7639  0.4110
  161MOL0     O22081   4.950   3.782   2.527 -0.9861  0.1255  0.5298
  161MOL0     C22082   4.854   3.799   2.595  0.4276  0.1571  0.2454
  161MOL0     O22083   4.830   3.900   2.676 -0.7153 -0.3945  0.1505
  161MOL0     C22084   4.896   4.011   2.634  0.3971  0.3367 -0.5857
  161MOL0     C22085   5.017   4.052   2.683  0.4058  0.8521  0.4219
  161MOL0     C22086   5.075   4.166   2.623  0.1247  1.1967 -0.1621
  161MOL0     C22087   5.007   4.241   2.532  0.0932 -0.3099  0.5377
  161MOL0     O22088   5.052   4.355   2.471 -0.2652 -0.1287  0.4704
  161MOL0     C22089   5.194   4.384   2.461  0.0723  0.5229  0.0685
  161MOL0     C22090   5.261   4.321   2.333  0.5682  0.5084 -0.7080
  161MOL0     C22091   5.254   4.408   2.201 -0.3371  0.2526 -0.6091
  161MOL0     C22092   5.362   4.498   2.166  0.5549  0.5675 -0.7104
  161MOL0     C22093   5.344   4.590   2.048 -0.5642 -0.7295  0.0648
  161MOL0     C22094   5.218   4.678   2.057 -0.1438  0.3415 -0.1121
  161MOL0     C22095   5.249   4.809   2.011  0.1556 -1.3829 -0.3409
  161MOL0     C22096   5.132   4.903   2.015  0.1178  0.7607 -0.7576
  161MOL0     N22097   5.151   5.036   1.955  0.2605  0.2779 -0.1830
  161MOL0     C22098   5.181   5.056   1.819  0.3318 -0.4688 -0.2967
  161MOL0     C22099   5.203   5.187   1.809 -0.1345 -0.1189  0.3714
  161MOL0     C22100   5.208   5.262   1.673 -0.0011 -0.2143 -0.5539
  161MOL0     C22101   5.101   5.364   1.651 -0.7568  0.3941 -0.1730
  161MOL0     C22102   5.123   5.441   1.514  0.8466 -0.0433 -0.4757
  161MOL0     C22103   5.163   5.365   1.386 -0.8218  0.3364  0.5641
  161MOL0     O22104   5.045   5.299   1.335  0.0269  0.2401  0.2703
  161MOL0     C22105   5.023   5.171   1.373  0.5163  0.2881  0.5108
  161MOL0     C22106   4.912   5.138   1.448  0.4872  0.5722 -0.5190
  161MOL0     C22107   4.891   4.997   1.489 -0.6986  0.2608 -0.2826
  161MOL0     C22108   4.756   4.972   1.565 -0.3421  0.0382  0.2826
  161MOL0     C22109   4.982   4.899   1.461  0.1420  1.0956  0.4852
  161MOL0     C22110   4.975   4.749   1.490 -0.6172  0.1667  0.2951
  161MOL0     O22111   5.094   4.692   1.534 -0.3043 -0.0396 -0.2601
  161MOL0     C22112   5.100   4.556   1.575  0.7870  0.6447 -0.1398
  161MOL0     C22113   5.017   4.452   1.530 -0.2470 -0.8245  0.4156
  161MOL0     C22114   5.037   4.321   1.591  0.6709  0.1320  0.2369
  161MOL0     C22115   5.128   4.290   1.689  0.8510  0.5885  0.0453
  161MOL0     O22116   5.146   4.155   1.730 -0.7474  0.4996 -0.0468
  161MOL0     C22117   5.150   4.132   1.878  0.6181  0.3894  0.8164
  161MOL0     C22118   5.114   3.984   1.897  1.0706 -0.0474  0.5750
  161MOL0     C22119   5.069   3.947   2.046 -0.3909 -0.3745 -0.1129
  161MOL0     C22120   5.182   3.944   2.150 -1.1148 -0.0485  0.0160
  161MOL0     C22121   5.125   3.899   2.278  0.7468 -0.9106 -1.2670
  161MOL0     C22122   5.231   3.848   2.366 -0.5167  0.0352  0.7695
  161MOL0     C22123   5.280   3.703   2.327 -0.2477  0.9656  0.0316
  161MOL0     C22124   5.417   3.638   2.370 -0.6896  0.1988 -0.4319
  161MOL0    Cl22125   5.471   3.469   2.310 -0.1205 -0.4235  0.6134
  161MOL0     C22126   5.207   4.394   1.725 -0.7747  0.1274 -0.4155
  161MOL0     C22127   5.195   4.519   1.666  0.2595 -0.6749 -0.0750
  161MOL0     O22128   4.868   4.695   1.475  0.1337  0.1888  1.0758
  161MOL0     C22129   5.105   4.937   1.395  0.0961  0.3029  0.9988
  161MOL0     C22130   5.116   5.065   1.346 -0.7266  0.4324  0.3883
  161MOL0     N22131   5.206   5.237   1.934 -0.6491  0.1534 -1.1158
  161MOL0     N22132   5.171   5.149   2.020 -0.1097 -0.3695  0.5714
  161MOL0     C22133   4.880   4.198   2.487  0.6340  0.8094  0.2897
  161MOL0     C22134   4.822   4.082   2.541  0.3728 -0.0020 -0.6774
  161MOL0     C22135   4.758   3.701   2.583 -0.3952  0.3512 -0.2706
  161MOL0     C22136   4.691   3.663   2.701 -0.8224  0.6718  0.6903
  161MOL0     C22137   4.612   3.544   2.701  0.1736 -0.8465 -0.4348
  161MOL0     C22138   4.591   3.458   2.585 -0.2278  0.6790  0.8199
  161MOL0     O22139   4.494   3.357   2.601 -0.1004  0.2694  0.6002
  161MOL0     C22140   4.464   3.276   2.481  1.0397 -0.2393 -0.3170
  161MOL0     C22141   4.369   3.165   2.513 -0.0987  0.5838  0.4114
  161MOL0     C22142   4.340   3.053   2.406 -0.3854  0.4361  0.3788
  161MOL0     C22143   4.203   2.996   2.414  0.1019 -0.0223  0.4266
  161MOL0     C22144   4.190   2.864   2.345  0.0267  1.0037  0.9239
  161MOL0     C22145   4.191   2.766   2.270  0.2684 -0.4117  0.4646
  161MOL0     C22146   4.645   3.513   2.473 -0.1246  0.0393  0.4500
  161MOL0     C22147   4.724   3.627   2.466  0.3240  0.4486 -0.7720
  161MOL0     C22148   4.761   3.678   2.325  0.7036 -0.3393  0.6881
  161MOL0     H22149   5.074   3.994   2.756  1.1821 -1.4149 -1.8198
  161MOL0     H22150   5.177   4.190   2.653 -0.0370  0.0460  1.4850
  161MOL0     H22151   5.249   4.357   2.552  1.2753 -1.0427 -1.0645
  161MOL0     H22152   5.181   4.493   2.458 -6.1235  0.1325 -0.8811
  161MOL0     H22153   5.363   4.318   2.372 -0.5902  1.5527  2.8136
  161MOL0     H22154   5.220   4.220   2.325  0.4654  0.0573  3.4611
  161MOL0     H22155   5.243   4.347   2.111  4.5875 -0.5407 -0.9232
  161MOL0     H22156   5.157   4.458   2.206 -1.5121 -1.6496 -2.5222
  161MOL0     H22157   5.373   4.556   2.258  2.1538 -1.4715  0.4735
  161MOL0     H22158   5.451   4.441   2.138 -0.3763 -1.2482 -0.1038
  161MOL0     H22159   5.336   4.521   1.963 -1.2417 -1.9206  1.0582
  161MOL0     H22160   5.432   4.653   2.036 -2.3682  2.0273  0.4150
  161MOL0     H22161   5.138   4.638   1.993 -0.9078  2.3315 -0.4509
  161MOL0     H22162   5.191   4.677   2.163  1.0481 -1.5627  0.2212
  161MOL0     H22163   5.270   4.793   1.905 -4.7784 -3.5005 -1.2777
  161MOL0     H22164   5.336   4.844   2.067  0.6756 -0.7298 -1.5218
  161MOL0     H22165   5.044   4.842   1.991  0.8592 -0.7044  0.0973
  161MOL0     H22166   5.124   4.923   2.122  1.0904 -4.5185  0.6169
  161MOL0     H22167   5.160   4.988   1.738 -1.8530  1.2225 -1.2292
  161MOL0     H22168   5.199   5.188   1.593 -2.9925 -0.9768  0.3727
  161MOL0     H22169   5.301   5.318   1.662  0.2560  0.2517  2.8204
  161MOL0     H22170   5.007   5.309   1.664 -0.9241  1.0390  1.7207
  161MOL0     H22171   5.118   5.442   1.726  0.7477  0.9101 -1.0228
  161MOL0     H22172   5.045   5.514   1.488 -2.5894 -3.0029  0.6081
  161MOL0     H22173   5.208   5.507   1.535  0.1729  0.2458  1.5884
  161MOL0     H22174   5.205   5.426   1.305  0.4458 -1.3268 -0.0913
  161MOL0     H22175   5.247   5.299   1.408  0.9674  2.6186  0.9335
  161MOL0     H22176   4.842   5.212   1.483 -0.3744 -1.2321  1.8069
  161MOL0     H22177   4.763   4.913   1.657 -0.2477  1.3489  1.1601
  161MOL0     H22178   4.675   4.930   1.505  0.1181  2.0654 -1.9229
  161MOL0     H22179   4.712   5.071   1.587  2.0039  0.5687  3.2311
  161MOL0     H22180   4.963   4.479   1.440  1.4494 -0.0805 -0.4294
  161MOL0     H22181   4.984   4.239   1.542  0.9960 -0.4667  0.8677
  161MOL0     H22182   5.243   4.161   1.928  0.8479  0.7906  0.1618
  161MOL0     H22183   5.062   4.174   1.929 -0.4219  0.3172 -0.8508
  161MOL0     H22184   5.032   3.959   1.828  1.4976 -2.2637  0.7937
  161MOL0     H22185   5.199   3.923   1.863  0.0049 -2.6187  2.1809
  161MOL0     H22186   5.026   3.846   2.048 -1.1274 -0.0653  0.6560
  161MOL0     H22187   4.992   4.011   2.091  0.1469 -1.4996  2.5972
  161MOL0     H22188   5.231   4.041   2.161  3.3048 -2.0847  0.3382
  161MOL0     H22189   5.255   3.875   2.108  0.3009  1.5919 -0.3176
  161MOL0     H22190   5.083   3.982   2.335  1.9278  0.0187 -1.7050
  161MOL0     H22191   5.042   3.828   2.273  0.8720 -1.1925  0.3457
  161MOL0     H22192   5.196   3.840   2.470 -2.1374 -2.4278  0.1235
  161MOL0     H22193   5.309   3.924   2.369  1.8439 -2.2232  0.4508
  161MOL0     H22194   5.268   3.690   2.219  1.4984 -1.2448  0.0205
  161MOL0     H22195   5.203   3.634   2.364  1.6093 -1.3916 -0.2131
  161MOL0     H22196   5.418   3.619   2.477  1.9759 -1.3839 -0.6466
  161MOL0     H22197   5.495   3.706   2.332 -0.9618  0.7485 -0.0161
  161MOL0     H22198   5.283   4.367   1.798 -0.1436  3.2244  0.2366
  161MOL0     H22199   5.271   4.594   1.682 -2.1000  1.9825 -0.5432
  161MOL0     H22200   5.181   4.864   1.369  3.0420  3.1118  1.1126
  161MOL0     H22201   5.201   5.096   1.286  0.7564 -3.8263 -0.0471
  161MOL0     H22202   4.820   4.254   2.416 -0.1534 -2.9815 -2.2853
  161MOL0     H22203   4.727   4.039   2.511  0.2744 -1.1111  1.1365
  161MOL0     H22204   4.708   3.726   2.787  1.9113  0.3185  0.5062
  161MOL0     H22205   4.557   3.527   2.793 -1.2423  0.5321 -0.9834
  161MOL0     H22206   4.435   3.323   2.387 -0.3939 -2.8896 -1.3122
  161MOL0     H22207   4.558   3.225   2.456 -0.2875 -2.2672 -1.4413
  161MOL0     H22208   4.268   3.198   2.539 -0.6268  0.6854 -1.5695
  161MOL0     H22209   4.408   3.106   2.596  1.0167 -1.7657 -1.6261
  161MOL0     H22210   4.363   3.098   2.309  1.8773 -0.6494  0.3570
  161MOL0     H22211   4.419   2.978   2.416 -0.9334 -0.8129 -3.1287
  161MOL0     H22212   4.128   3.057   2.363 -0.3823  2.0519  3.3527
  161MOL0     H22213   4.162   2.989   2.515 -2.6162  1.4862 -0.4801
  161MOL0     H22214   4.189   2.686   2.199 -2.6580 -0.8692  0.9689
  161MOL0     H22215   4.622   3.458   2.382 -0.7755 -2.5356  2.0648
  161MOL0     H22216   4.866   3.659   2.303  0.0191 -2.5180 -1.0636
  161MOL0     H22217   4.688   3.646   2.250  1.5510  0.3029 -0.4534
  161MOL0     H22218   4.757   3.787   2.311 -2.0886 -0.4932 -0.4754
  162MOL0     O22219   6.225   4.014  11.521 -0.6038  0.1842  0.5282
  162MOL0     C22220   6.144   4.053  11.608 -0.0644  0.5340  0.7984
  162MOL0     O22221   6.133   4.005  11.733 -0.0770  0.2540  0.1566
  162MOL0     C22222   6.196   3.891  11.786  0.4902  0.2491 -0.2758
  162MOL0     C22223   6.263   3.793  11.715 -0.1308 -0.2180  0.5867
  162MOL0     C22224   6.308   3.679  11.773  0.0773 -1.7142 -0.2340
  162MOL0     C22225   6.292   3.656  11.908 -0.3054  0.2788  0.4143
  162MOL0     O22226   6.332   3.531  11.955 -0.3334 -0.2400 -0.7122
  162MOL0     C22227   6.271   3.412  11.896 -0.7940  0.1772 -0.9818
  162MOL0     C22228   6.341   3.284  11.943  0.0831  1.3048 -0.1372
  162MOL0     C22229   6.336   3.269  12.095 -0.2003  0.2460  0.6829
  162MOL0     C22230   6.398   3.133  12.128  0.0879 -0.1066  0.8840
  162MOL0     C22231   6.547   3.172  12.161 -0.7536  0.6884 -0.8782
  162MOL0     C22232   6.634   3.046  12.171 -0.2138 -0.1983  0.3823
  162MOL0     C22233   6.624   2.973  12.306 -0.1928  0.9674 -0.3673
  162MOL0     C22234   6.736   2.867  12.325 -0.5254  0.1971  0.2201
  162MOL0     N22235   6.696   2.738  12.381  0.8998  0.1405  0.1556
  162MOL0     C22236   6.591   2.667  12.335  0.5423 -1.5239  0.0137
  162MOL0     C22237   6.585   2.548  12.407 -0.3686 -0.1854 -0.3174
  162MOL0     C22238   6.508   2.424  12.370  0.1452 -0.3530  0.6603
  162MOL0     C22239   6.399   2.397  12.476  0.3010 -0.0717  0.4870
  162MOL0     C22240   6.289   2.503  12.455  0.1915  0.2565 -0.4733
  162MOL0     C22241   6.167   2.464  12.541 -0.3598 -0.6726  0.0318
  162MOL0     O22242   6.058   2.554  12.528 -0.5534  0.0207 -1.1111
  162MOL0     C22243   5.964   2.508  12.440 -0.6858  0.1244  0.3846
  162MOL0     C22244   5.882   2.396  12.473 -0.1908  1.0768  0.8189
  162MOL0     C22245   5.785   2.352  12.385 -0.0469 -0.3106  0.1960
  162MOL0     C22246   5.702   2.228  12.409  0.3957 -0.6656  0.3972
  162MOL0     C22247   5.761   2.427  12.265 -0.2997  0.9420 -0.0465
  162MOL0     C22248   5.672   2.389  12.158  0.6677 -0.3776 -0.3249
  162MOL0     O22249   5.728   2.373  12.042  0.3580  0.2406 -0.0969
  162MOL0     C22250   5.647   2.325  11.942  0.5590 -0.0418 -0.2586
  162MOL0     C22251   5.601   2.193  11.944  0.5134  0.2020 -0.3741
  162MOL0     C22252   5.553   2.142  11.834  0.1433  0.2981  1.0251
  162MOL0     C22253   5.557   2.208  11.706  0.1718 -0.1523 -0.0318
  162MOL0     O22254   5.521   2.147  11.587  0.4447  0.6905 -0.1316
  162MOL0     C22255   5.519   2.006  11.581 -0.7109 -0.1295  0.3723
  162MOL0     C22256   5.464   1.964  11.450 -0.5465 -0.4102  0.8149
  162MOL0     C22257   5.561   1.978  11.327  0.0133 -0.6097  1.1352
  162MOL0     C22258   5.490   2.026  11.197 -0.3688  0.5358 -0.5338
  162MOL0     C22259   5.586   2.083  11.092  0.5893 -0.5648 -0.7269
  162MOL0     C22260   5.682   1.980  11.041 -0.6122 -1.0040  0.4486
  162MOL0     C22261   5.748   2.054  10.926 -0.1565  0.3126  0.1071
  162MOL0     C22262   5.840   1.961  10.840 -0.2191  0.0348 -0.8878
  162MOL0    Cl22263   5.925   2.052  10.715 -0.3158 -0.0098 -0.0716
  162MOL0     C22264   5.594   2.338  11.707 -0.0788 -0.4464  0.0515
  162MOL0     C22265   5.644   2.399  11.823  0.1737  0.1572  0.6358
  162MOL0     O22266   5.551   2.388  12.189 -0.0523  0.3466 -0.5676
  162MOL0     C22267   5.834   2.537  12.236 -1.0777 -0.4258  0.2167
  162MOL0     C22268   5.934   2.581  12.320 -0.6841  0.1359 -0.4153
  162MOL0     N22269   6.688   2.560  12.501 -0.3445  0.6058 -0.3776
  162MOL0     N22270   6.744   2.677  12.488 -0.8498 -0.4404  0.3343
  162MOL0     C22271   6.236   3.763  11.989 -1.3446  0.0655  0.6856
  162MOL0     C22272   6.188   3.878  11.929 -0.2317  0.7307 -0.2021
  162MOL0     C22273   6.061   4.171  11.572 -0.1205  0.0298  0.3787
  162MOL0     C22274   5.949   4.194  11.655 -0.2428 -0.0625 -0.6756
  162MOL0     C22275   5.867   4.320  11.636 -1.5422 -0.5070 -0.3574
  162MOL0     C22276   5.909   4.415  11.538 -0.6022  0.4203 -0.8143
  162MOL0     O22277   5.834   4.526  11.534 -0.0158 -0.4102  0.7118
  162MOL0     C22278   5.862   4.635  11.442 -0.5411  1.1468  0.1825
  162MOL0     C22279   5.770   4.749  11.472  0.7516  0.4811 -0.0918
  162MOL0     C22280   5.773   4.862  11.366 -0.8157  0.0255 -0.5243
  162MOL0     C22281   5.641   4.950  11.341  0.3139 -0.5201 -0.7823
  162MOL0     C22282   5.645   5.089  11.394  0.5904  0.3964 -0.7098
  162MOL0     C22283   5.644   5.212  11.422 -0.1517  0.8400 -0.4583
  162MOL0     C22284   6.017   4.386  11.457 -0.0305 -0.1131  0.5791
  162MOL0     C22285   6.091   4.264  11.467  0.6047 -0.4431  0.3740
  162MOL0     C22286   6.203   4.249  11.372  0.9074  0.9311  0.2863
  162MOL0     H22287   6.287   3.808  11.611  4.1958  1.8739  1.6252
  162MOL0     H22288   6.355   3.612  11.702  0.3943  0.5378 -2.2757
  162MOL0     H22289   6.274   3.418  11.787  0.4670 -1.4185 -1.0741
  162MOL0     H22290   6.163   3.400  11.909 -0.6796 -2.7056 -1.9933
  162MOL0     H22291   6.308   3.191  11.894  2.8125  0.0383  0.2302
  162MOL0     H22292   6.446   3.285  11.913  0.7775 -0.8241  1.8514
  162MOL0     H22293   6.397   3.346  12.143  1.6302 -0.1227 -0.8841
  162MOL0     H22294   6.235   3.286  12.132 -0.6480  0.9741 -0.7954
  162MOL0     H22295   6.343   3.083  12.209 -0.5133  0.2654  0.7109
  162MOL0     H22296   6.397   3.067  12.041  2.8524  1.8942 -0.8335
  162MOL0     H22297   6.564   3.230  12.252  3.3136 -2.2729  0.5286
  162MOL0     H22298   6.571   3.228  12.070 -1.0724  2.5872  0.1683
  162MOL0     H22299   6.614   2.977  12.089  3.1126 -1.1210  0.1901
  162MOL0     H22300   6.737   3.076  12.152  0.7373 -1.5371  2.8764
  162MOL0     H22301   6.521   2.938  12.316 -0.0318  0.4793 -0.4004
  162MOL0     H22302   6.644   3.045  12.386  3.3560 -0.0176 -0.1629
  162MOL0     H22303   6.778   2.838  12.228 -0.0679 -3.7816  1.4521
  162MOL0     H22304   6.816   2.909  12.387 -1.2320  1.4583  0.3179
  162MOL0     H22305   6.532   2.697  12.249  3.5430 -1.7188 -2.2581
  162MOL0     H22306   6.569   2.334  12.362  0.0735 -0.2264 -4.2262
  162MOL0     H22307   6.468   2.441  12.270  1.2222 -3.1634 -0.3423
  162MOL0     H22308   6.356   2.300  12.452  0.8899 -0.6325  1.6166
  162MOL0     H22309   6.433   2.386  12.579 -0.2299  1.2918  0.8295
  162MOL0     H22310   6.329   2.600  12.486 -1.8725  0.6337  1.2529
  162MOL0     H22311   6.259   2.512  12.350 -0.4000 -0.3057 -0.3575
  162MOL0     H22312   6.149   2.360  12.512 -0.8513 -0.6012  0.0834
  162MOL0     H22313   6.210   2.461  12.642 -2.7855 -2.8260  1.1018
  162MOL0     H22314   5.891   2.343  12.567 -0.3329  2.9344  1.9411
  162MOL0     H22315   5.722   2.151  12.334  0.3528  3.0587 -3.8789
  162MOL0     H22316   5.595   2.245  12.419  0.6050 -0.2236  2.1617
  162MOL0     H22317   5.710   2.196  12.513 -2.9622  0.8760  1.2538
  162MOL0     H22318   5.595   2.139  12.038 -1.5426  0.7683 -0.1414
  162MOL0     H22319   5.511   2.042  11.829 -0.7879  0.7620 -1.6638
  162MOL0     H22320   5.613   1.957  11.610 -0.5968  1.7618  3.7419
  162MOL0     H22321   5.449   1.961  11.653 -1.4253 -0.2892 -0.4149
  162MOL0     H22322   5.427   1.861  11.446 -1.3221 -0.0993 -0.9323
  162MOL0     H22323   5.376   2.029  11.445 -0.9286 -0.1551  5.6026
  162MOL0     H22324   5.609   1.881  11.314  0.3475 -0.3565  0.4755
  162MOL0     H22325   5.646   2.041  11.353 -1.6655  1.7883  1.2377
  162MOL0     H22326   5.428   2.110  11.231 -0.5992  0.0179  0.3561
  162MOL0     H22327   5.436   1.935  11.167 -0.5715 -1.1263  4.0329
  162MOL0     H22328   5.525   2.118  11.008 -1.7613 -2.5486  0.0488
  162MOL0     H22329   5.641   2.168  11.134 -1.3345  0.6805 -0.6197
  162MOL0     H22330   5.626   1.890  11.014 -0.9306 -0.9609  0.9558
  162MOL0     H22331   5.764   1.941  11.103  1.9803 -1.3876 -2.9519
  162MOL0     H22332   5.822   2.122  10.968 -0.6161 -1.0163  3.3903
  162MOL0     H22333   5.675   2.097  10.857  0.9338 -0.1689 -1.4007
  162MOL0     H22334   5.781   1.873  10.813 -1.3667  0.3515  0.4514
  162MOL0     H22335   5.918   1.919  10.905  1.0283 -1.1981 -3.0787
  162MOL0     H22336   5.588   2.400  11.618 -1.5396  0.0225  0.4480
  162MOL0     H22337   5.688   2.498  11.814  0.7138  0.3297  3.9480
  162MOL0     H22338   5.827   2.591  12.142  1.5506  1.5525  1.0398
  162MOL0     H22339   5.991   2.671  12.300  3.7471 -2.4593 -0.6946
  162MOL0     H22340   6.221   3.742  12.095  1.6150  0.7295  1.3319
  162MOL0     H22341   6.143   3.964  11.977  0.8368  1.4709 -0.4661
  162MOL0     H22342   5.926   4.116  11.726 -2.3503  0.4672 -0.7006
  162MOL0     H22343   5.781   4.353  11.693 -2.8859  0.6993 -2.8638
  162MOL0     H22344   5.965   4.671  11.452 -0.1411  0.9544 -2.3959
  162MOL0     H22345   5.856   4.596  11.340 -1.1313 -1.5611  1.1498
  162MOL0     H22346   5.797   4.790  11.569  0.2581 -2.0837  1.2261
  162MOL0     H22347   5.673   4.700  11.489  1.5407 -0.3705  2.2565
  162MOL0     H22348   5.858   4.930  11.382 -0.0889 -1.3975  2.4777
  162MOL0     H22349   5.797   4.817  11.270  3.0531 -0.3402  0.4380
  162MOL0     H22350   5.553   4.896  11.377  0.7646 -0.7599 -0.0373
  162MOL0     H22351   5.639   4.971  11.233 -1.8109  0.2414 -0.6395
  162MOL0     H22352   5.650   5.317  11.441 -4.4133  0.8780  1.7204
  162MOL0     H22353   6.044   4.463  11.385 -0.5210 -1.4939 -1.1410
  162MOL0     H22354   6.185   4.160  11.313 -0.5762  0.9112  0.7190
  162MOL0     H22355   6.215   4.336  11.307  1.3925  0.1370 -0.7077
  162MOL0     H22356   6.297   4.232  11.426  1.8037 -0.5975 -1.6545
  163MOL0     O22357   2.836   9.289   1.400  0.2724  0.2028 -0.3008
  163MOL0     C22358   2.731   9.345   1.370 -0.5647  0.2263  0.2241
  163MOL0     O22359   2.617   9.281   1.337  0.5404  0.1584 -0.0011
  163MOL0     C22360   2.606   9.150   1.310 -0.0118 -1.2926 -0.0043
  163MOL0     C22361   2.511   9.070   1.367  1.1473 -0.2059 -0.5594
  163MOL0     C22362   2.517   8.922   1.360  1.4601 -0.2409 -0.3886
  163MOL0     C22363   2.614   8.866   1.274 -0.6166  0.3288 -0.2277
  163MOL0     O22364   2.643   8.732   1.246  0.1614  0.1422 -0.8141
  163MOL0     C22365   2.602   8.635   1.348  0.3606 -0.4290 -0.0133
  163MOL0     C22366   2.562   8.505   1.276 -0.3486  0.0476 -0.3066
  163MOL0     C22367   2.527   8.387   1.369  0.4027  0.5747 -0.4605
  163MOL0     C22368   2.649   8.346   1.455 -0.2174 -0.4472  0.7599
  163MOL0     C22369   2.605   8.237   1.551 -0.2781  0.0391 -0.2206
  163MOL0     C22370   2.588   8.108   1.484 -0.7250  0.0924  0.0628
  163MOL0     C22371   2.719   8.028   1.457 -0.2894 -1.4653  0.7337
  163MOL0     C22372   2.694   7.886   1.412 -0.8638 -0.1984 -0.5591
  163MOL0     N22373   2.637   7.808   1.527 -0.3117  0.1638  1.0974
  163MOL0     C22374   2.527   7.731   1.522  0.4162 -1.0214 -0.4312
  163MOL0     C22375   2.510   7.684   1.650 -0.0315 -0.0762  0.0893
  163MOL0     C22376   2.400   7.594   1.701 -0.1758  0.4396 -0.8838
  163MOL0     C22377   2.346   7.658   1.827  0.5737  0.8166 -0.4449
  163MOL0     C22378   2.266   7.553   1.907  0.0466  0.5505 -0.4539
  163MOL0     C22379   2.205   7.610   2.023 -0.7321 -0.8875 -0.9475
  163MOL0     O22380   2.121   7.496   2.077 -0.2326  0.3939 -0.2657
  163MOL0     C22381   2.061   7.519   2.191 -0.3809 -1.0853  1.0151
  163MOL0     C22382   1.923   7.501   2.183 -0.1731  0.1846 -0.5354
  163MOL0     C22383   1.844   7.521   2.303  0.8300  0.0234 -0.1401
  163MOL0     C22384   1.694   7.529   2.289  0.1247 -0.7885 -0.0910
  163MOL0     C22385   1.905   7.530   2.433 -0.7257 -0.2394  0.0471
  163MOL0     C22386   1.839   7.537   2.569 -0.8143 -0.7162 -0.0821
  163MOL0     O22387   1.714   7.499   2.580 -0.8926  0.2708  0.5171
  163MOL0     C22388   1.651   7.498   2.704 -0.5430  0.4963 -0.2868
  163MOL0     C22389   1.561   7.391   2.717 -0.5906  0.5216 -0.8631
  163MOL0     C22390   1.476   7.375   2.829  0.6539 -0.2948  0.0948
  163MOL0     C22391   1.490   7.474   2.929  1.1652 -1.0428  0.6807
  163MOL0     O22392   1.431   7.458   3.055 -0.2405  0.0107  0.2714
  163MOL0     C22393   1.318   7.367   3.063 -0.3811  0.1693  0.1035
  163MOL0     C22394   1.245   7.375   3.188  0.3667 -0.2251 -0.2772
  163MOL0     C22395   1.329   7.324   3.308 -0.0865 -0.6572  0.2719
  163MOL0     C22396   1.285   7.391   3.440  0.0056  0.0368  0.5047
  163MOL0     C22397   1.356   7.332   3.559  0.4557 -0.4457 -0.3746
  163MOL0     C22398   1.496   7.396   3.586 -0.4142  0.0171  0.7661
  163MOL0     C22399   1.546   7.355   3.735 -0.3001 -0.0760 -1.5108
  163MOL0     C22400   1.696   7.331   3.744 -0.0526 -0.3619 -0.9109
  163MOL0    Cl22401   1.744   7.210   3.625 -0.0871  0.0430 -0.2405
  163MOL0     C22402   1.596   7.563   2.921  0.5107  0.1572 -0.4517
  163MOL0     C22403   1.674   7.586   2.807  0.4330 -0.5056 -0.9165
  163MOL0     O22404   1.913   7.575   2.660 -0.3305  0.0811 -0.5697
  163MOL0     C22405   2.046   7.537   2.433 -0.3477  1.0609 -0.1569
  163MOL0     C22406   2.119   7.533   2.312 -0.6977  0.1782 -0.3794
  163MOL0     N22407   2.623   7.718   1.726  0.5452  0.0174  0.2856
  163MOL0     N22408   2.697   7.794   1.646  0.0287 -0.6692 -0.0455
  163MOL0     C22409   2.712   8.948   1.208 -0.2154  1.1931  0.7171
  163MOL0     C22410   2.705   9.081   1.233  0.3811 -0.1763  0.3092
  163MOL0     C22411   2.722   9.481   1.403 -1.0324 -0.3696  0.7539
  163MOL0     C22412   2.778   9.538   1.530  0.3893  1.0278  0.8725
  163MOL0     C22413   2.773   9.676   1.557  0.9266  0.6319 -0.1067
  163MOL0     C22414   2.725   9.767   1.456 -0.6944  0.6749 -0.6944
  163MOL0     O22415   2.743   9.901   1.480  0.9490  0.1412 -0.6359
  163MOL0     C22416   2.727   9.994   1.378 -0.3741  0.9779 -0.2041
  163MOL0     C22417   2.754  10.132   1.432 -0.2527 -0.4365 -0.6058
  163MOL0     C22418   2.650  10.171   1.537 -0.7629  0.3073 -0.0575
  163MOL0     C22419   2.662  10.312   1.597  0.2674 -0.4660 -0.7315
  163MOL0     C22420   2.797  10.355   1.646 -0.6520  0.1174 -0.5057
  163MOL0     C22421   2.899  10.395   1.700  0.9909  0.5084 -0.4514
  163MOL0     C22422   2.668   9.716   1.338 -0.0890  0.4296  0.7952
  163MOL0     C22423   2.670   9.577   1.303  0.3072  0.2902  0.2249
  163MOL0     C22424   2.629   9.538   1.162  0.0915  0.6370 -0.1937
  163MOL0     H22425   2.429   9.108   1.427  1.7977 -1.3433  1.0937
  163MOL0     H22426   2.436   8.865   1.402 -0.3718  0.5926 -2.5684
  163MOL0     H22427   2.525   8.672   1.415  1.7673  0.3997  1.2150
  163MOL0     H22428   2.689   8.617   1.412 -0.3637 -1.4687  0.6961
  163MOL0     H22429   2.478   8.529   1.210  1.4243  0.7027 -2.4352
  163MOL0     H22430   2.656   8.476   1.228 -0.9851  0.0240 -1.5806
  163MOL0     H22431   2.456   8.415   1.447  0.3723 -0.5834 -0.0691
  163MOL0     H22432   2.491   8.307   1.303  0.0709  1.1867 -1.0436
  163MOL0     H22433   2.732   8.317   1.391 -1.8663  0.2076 -1.8041
  163MOL0     H22434   2.691   8.427   1.516  1.0484 -1.7235  1.6565
  163MOL0     H22435   2.517   8.267   1.608  0.4852 -1.0649  1.6073
  163MOL0     H22436   2.685   8.221   1.624  0.6970 -1.8758 -1.6019
  163MOL0     H22437   2.520   8.048   1.545 -0.5349 -3.6887 -3.1025
  163MOL0     H22438   2.539   8.122   1.387  1.0195 -0.0773 -0.8770
  163MOL0     H22439   2.791   8.030   1.540 -1.5483 -0.2934  1.8556
  163MOL0     H22440   2.773   8.084   1.381 -0.1504  1.8145  3.0215
  163MOL0     H22441   2.613   7.895   1.339  0.1901  1.8786 -1.5248
  163MOL0     H22442   2.777   7.825   1.377 -1.2718  1.1971 -4.4652
  163MOL0     H22443   2.461   7.726   1.437 -1.9361 -2.3970  1.3427
  163MOL0     H22444   2.440   7.497   1.731 -1.5477 -0.0040 -0.4109
  163MOL0     H22445   2.316   7.593   1.631 -1.6592 -0.2319  0.8194
  163MOL0     H22446   2.426   7.689   1.895  2.2158 -0.6919 -1.5848
  163MOL0     H22447   2.284   7.747   1.817 -0.1222  0.2538 -1.2992
  163MOL0     H22448   2.181   7.509   1.854 -1.8526  0.6198  2.3284
  163MOL0     H22449   2.324   7.463   1.929  0.3267 -0.0471 -3.2185
  163MOL0     H22450   2.273   7.646   2.101 -0.6910  0.6571 -1.6626
  163MOL0     H22451   2.127   7.684   2.004  0.1320  1.0217  2.2669
  163MOL0     H22452   1.867   7.475   2.094  0.2491 -2.2119 -0.1747
  163MOL0     H22453   1.646   7.446   2.342  0.8920 -0.0223  1.8792
  163MOL0     H22454   1.663   7.531   2.184 -3.1802 -1.5692  0.7682
  163MOL0     H22455   1.655   7.616   2.342 -2.1712 -2.2447  0.7431
  163MOL0     H22456   1.538   7.331   2.629  0.2947 -0.8752 -0.1770
  163MOL0     H22457   1.390   7.310   2.828 -1.0504  1.8575 -0.5814
  163MOL0     H22458   1.250   7.383   2.979  0.7657 -3.8138 -1.8628
  163MOL0     H22459   1.346   7.262   3.049 -2.4743 -0.4552  0.2740
  163MOL0     H22460   1.222   7.481   3.204  0.1669 -0.6298  2.6587
  163MOL0     H22461   1.150   7.322   3.175 -0.8885  1.9996 -0.6459
  163MOL0     H22462   1.437   7.332   3.296 -0.2000 -2.4975 -2.8353
  163MOL0     H22463   1.297   7.221   3.329 -2.1673  0.3929  2.9528
  163MOL0     H22464   1.178   7.377   3.456  0.3167 -0.4827  2.3698
  163MOL0     H22465   1.297   7.499   3.427  0.3488  0.2342  2.2081
  163MOL0     H22466   1.294   7.336   3.649  0.4831  2.4253 -0.3927
  163MOL0     H22467   1.362   7.223   3.555 -2.4343 -0.7258  0.2184
  163MOL0     H22468   1.483   7.505   3.585 -0.6145 -0.0059 -0.2904
  163MOL0     H22469   1.565   7.367   3.506  1.8624  0.3058  2.5318
  163MOL0     H22470   1.509   7.259   3.771  1.6122  0.2021  1.6112
  163MOL0     H22471   1.530   7.433   3.810  1.4258  2.3158 -3.4349
  163MOL0     H22472   1.720   7.290   3.843  1.7575  0.0722 -1.1360
  163MOL0     H22473   1.743   7.428   3.730  1.9485 -1.0795  0.4410
  163MOL0     H22474   1.625   7.618   3.011  0.0954 -1.9579  1.0625
  163MOL0     H22475   1.741   7.670   2.818 -2.6500  1.8054  2.7880
  163MOL0     H22476   2.097   7.538   2.529 -0.9800 -2.6573  0.3814
  163MOL0     H22477   2.227   7.523   2.317 -0.8485 -1.0010  3.1836
  163MOL0     H22478   2.789   8.901   1.147 -1.6545 -1.9434  1.0973
  163MOL0     H22479   2.774   9.149   1.184 -3.1511  1.8836 -2.2262
  163MOL0     H22480   2.820   9.479   1.610 -3.9122 -1.9986  1.2953
  163MOL0     H22481   2.805   9.733   1.643 -0.7548 -0.0219  0.9881
  163MOL0     H22482   2.797   9.966   1.299 -0.9263  1.3553 -0.8476
  163MOL0     H22483   2.625   9.985   1.338 -0.3264 -0.1693 -0.0879
  163MOL0     H22484   2.754  10.203   1.349  1.0794 -2.5594 -2.5765
  163MOL0     H22485   2.855  10.130   1.476  0.8744  1.8545 -2.8193
  163MOL0     H22486   2.549  10.159   1.497 -1.2550 -1.1437  1.5151
  163MOL0     H22487   2.671  10.105   1.622 -0.7553  0.7411  0.2829
  163MOL0     H22488   2.589  10.308   1.679 -0.8798  0.6643 -1.6511
  163MOL0     H22489   2.624  10.383   1.523  3.5069  2.3555  0.0453
  163MOL0     H22490   2.983  10.446   1.742  1.2144  0.3218 -0.6763
  163MOL0     H22491   2.627   9.788   1.267  1.6151 -0.2537 -0.9821
  163MOL0     H22492   2.654   9.612   1.085  2.4889 -1.8944 -2.0353
  163MOL0     H22493   2.675   9.448   1.120 -0.7466 -0.9246  2.0692
  163MOL0     H22494   2.519   9.536   1.154 -0.3208 -0.9763  3.7864
  164MOL0     O22495   9.391   1.905   2.895  0.0752 -0.4243  1.1329
  164MOL0     C22496   9.449   1.966   2.983 -0.3188  0.3662  1.1070
  164MOL0     O22497   9.453   1.928   3.117  0.3375 -0.6289 -0.6547
  164MOL0     C22498   9.363   1.838   3.168  0.3559 -0.2708  0.9616
  164MOL0     C22499   9.393   1.765   3.288 -0.8066  0.7119  0.4855
  164MOL0     C22500   9.299   1.685   3.356 -0.7818 -0.5743 -0.1297
  164MOL0     C22501   9.167   1.662   3.302 -0.0401  0.7219 -0.2547
  164MOL0     O22502   9.080   1.581   3.365  0.4621 -0.0061 -0.1198
  164MOL0     C22503   9.081   1.561   3.509 -0.3596  0.0220  0.0779
  164MOL0     C22504   8.953   1.488   3.559  0.1231  0.1722 -0.5694
  164MOL0     C22505   8.971   1.469   3.712 -0.2402  0.2143 -0.7453
  164MOL0     C22506   8.943   1.603   3.788 -0.8414 -0.4408 -0.3979
  164MOL0     C22507   8.933   1.580   3.948 -1.2517  0.6043  0.0948
  164MOL0     C22508   9.048   1.502   4.013  0.4285 -0.5114  1.1268
  164MOL0     C22509   9.015   1.466   4.159 -0.5819  0.4790 -0.1314
  164MOL0     C22510   8.986   1.598   4.235 -0.1089  0.7607 -0.5077
  164MOL0     N22511   8.961   1.568   4.377  0.2731 -0.0964 -0.3370
  164MOL0     C22512   8.849   1.606   4.447  1.0200 -0.6675 -0.0444
  164MOL0     C22513   8.847   1.526   4.557  0.7734  0.3565 -0.5398
  164MOL0     C22514   8.731   1.520   4.657  0.0246 -0.2828 -0.8410
  164MOL0     C22515   8.601   1.449   4.612 -0.9182 -0.5006  0.5825
  164MOL0     C22516   8.629   1.313   4.544  0.1500 -0.1326 -1.1985
  164MOL0     C22517   8.650   1.207   4.655 -1.0921 -0.2227  0.8449
  164MOL0     O22518   8.792   1.209   4.678 -0.0197  0.3777  0.0542
  164MOL0     C22519   8.846   1.109   4.752 -0.4523  0.2705 -0.2409
  164MOL0     C22520   8.972   1.064   4.710 -0.0461 -0.7811  0.3539
  164MOL0     C22521   9.041   0.977   4.789  0.0049 -0.7447  0.0046
  164MOL0     C22522   9.178   0.950   4.751 -0.0784  0.6187 -0.4623
  164MOL0     C22523   8.975   0.914   4.897 -1.0217  1.3235  0.2720
  164MOL0     C22524   9.033   0.811   4.990  0.8704  1.1061 -0.2276
  164MOL0     O22525   9.165   0.839   5.029 -0.1836  0.8942  0.0443
  164MOL0     C22526   9.244   0.732   5.062 -0.5200  0.6529 -0.1641
  164MOL0     C22527   9.318   0.741   5.187 -0.2155  1.0949  1.2608
  164MOL0     C22528   9.392   0.629   5.226  0.5673  1.2444  0.0234
  164MOL0     C22529   9.390   0.511   5.144  0.4009 -0.0857 -0.1376
  164MOL0     O22530   9.457   0.394   5.176  0.1485 -0.2076  0.3030
  164MOL0     C22531   9.432   0.336   5.305 -0.2754  0.2423  0.2423
  164MOL0     C22532   9.397   0.183   5.292  0.1598  0.3228  0.1080
  164MOL0     C22533   9.525   0.102   5.253 -0.4991  0.0098  0.0381
  164MOL0     C22534   9.506  -0.057   5.253 -0.4070  0.0317  0.1572
  164MOL0     C22535   9.639  -0.125   5.280 -0.7128  0.3075 -0.0017
  164MOL0     C22536   9.623  -0.264   5.235  0.2865  0.4479 -0.1097
  164MOL0     C22537   9.742  -0.353   5.244  0.1040  0.4914  0.3219
  164MOL0     C22538   9.809  -0.363   5.389 -0.6899 -0.1053 -0.5636
  164MOL0    Cl22539   9.938  -0.489   5.382  0.1727  0.0710 -0.1281
  164MOL0     C22540   9.319   0.502   5.030 -0.4261 -0.8396 -0.0425
  164MOL0     C22541   9.255   0.615   4.990  0.1190 -0.2213 -0.7817
  164MOL0     O22542   8.973   0.704   5.005  0.4410 -0.6388  0.3942
  164MOL0     C22543   8.841   0.950   4.931  1.0112  0.0749  0.3915
  164MOL0     C22544   8.777   1.054   4.861 -0.4737  0.9390 -1.3367
  164MOL0     N22545   8.957   1.441   4.562 -0.0864 -0.4623  0.3689
  164MOL0     N22546   9.026   1.472   4.449  1.5363 -0.4903 -0.0344
  164MOL0     C22547   9.135   1.737   3.179  0.5160  0.3599 -0.8238
  164MOL0     C22548   9.235   1.819   3.122 -0.4726  0.0119 -0.0737
  164MOL0     C22549   9.532   2.072   2.934  0.4790 -0.9397  0.8424
  164MOL0     C22550   9.668   2.064   2.954 -0.2223  0.6746  0.2464
  164MOL0     C22551   9.764   2.157   2.903 -0.8395  0.0925  0.2707
  164MOL0     C22552   9.722   2.262   2.819  0.3502 -0.2651 -0.1570
  164MOL0     O22553   9.798   2.349   2.750 -0.3840 -0.5212 -1.0045
  164MOL0     C22554   9.920   2.384   2.806 -0.3215  1.3929 -0.5998
  164MOL0     C22555   9.994   2.498   2.724 -0.6059 -0.0409  0.2137
  164MOL0     C22556   9.948   2.503   2.570 -0.1797 -0.0788 -0.0992
  164MOL0     C22557   9.997   2.638   2.507  0.5089  0.3337 -0.0657
  164MOL0     C22558   9.915   2.750   2.547 -0.6246 -0.3086  0.7171
  164MOL0     C22559   9.856   2.848   2.567  0.6432 -0.0300  0.4515
  164MOL0     C22560   9.590   2.261   2.787 -0.0165 -1.0817 -0.2127
  164MOL0     C22561   9.489   2.180   2.848  0.5175  0.2496 -1.1637
  164MOL0     C22562   9.348   2.215   2.820 -0.0075 -0.2634 -0.5460
  164MOL0     H22563   9.483   1.780   3.348 -1.6372  0.5389  1.8182
  164MOL0     H22564   9.334   1.632   3.444  3.5822 -0.7465 -1.7177
  164MOL0     H22565   9.087   1.659   3.558  0.2418 -0.3640  0.7860
  164MOL0     H22566   9.174   1.511   3.535 -0.3864  1.8563  4.6300
  164MOL0     H22567   8.859   1.540   3.542 -0.2774 -0.2961  0.1725
  164MOL0     H22568   8.946   1.393   3.505  0.5754  0.0854 -0.4847
  164MOL0     H22569   8.895   1.401   3.752  0.5462 -0.0805  0.2724
  164MOL0     H22570   9.065   1.421   3.737 -2.0725 -3.6618 -0.6157
  164MOL0     H22571   9.019   1.681   3.779 -1.7400  0.5236  0.2412
  164MOL0     H22572   8.851   1.645   3.748 -2.0797 -1.2855  1.4202
  164MOL0     H22573   8.845   1.520   3.970 -0.0467 -2.0095 -1.7768
  164MOL0     H22574   8.947   1.683   3.983  4.7777  1.0308 -2.2526
  164MOL0     H22575   9.042   1.405   3.962 -1.9877  0.4155 -0.5597
  164MOL0     H22576   9.151   1.539   4.011  1.7631 -3.8227 -1.2138
  164MOL0     H22577   9.092   1.404   4.205 -1.5652  0.3659  1.4467
  164MOL0     H22578   8.922   1.410   4.173 -0.2997  0.1021  0.2779
  164MOL0     H22579   9.075   1.660   4.226  1.1440 -0.7996  0.5401
  164MOL0     H22580   8.902   1.655   4.194 -2.3255  1.0737  3.8865
  164MOL0     H22581   8.773   1.677   4.416  1.4213 -0.6206 -0.9707
  164MOL0     H22582   8.700   1.618   4.696 -1.9350  0.5281 -4.0776
  164MOL0     H22583   8.773   1.463   4.740 -2.3892  0.4644  0.9958
  164MOL0     H22584   8.541   1.450   4.704 -0.6405  1.9764  0.7902
  164MOL0     H22585   8.547   1.515   4.543 -1.6342 -1.3972  0.2628
  164MOL0     H22586   8.530   1.285   4.505 -1.1304  1.2782  0.7933
  164MOL0     H22587   8.704   1.318   4.465  0.2945 -0.1581 -1.0617
  164MOL0     H22588   8.593   1.219   4.748  1.9180  0.3917  2.7525
  164MOL0     H22589   8.608   1.119   4.606 -0.0467  0.2564 -1.0216
  164MOL0     H22590   9.008   1.105   4.616 -0.7184  0.4408  0.6043
  164MOL0     H22591   9.204   0.843   4.749 -2.6697 -0.0710 -0.7900
  164MOL0     H22592   9.244   1.014   4.810  1.2518 -2.7269  1.9818
  164MOL0     H22593   9.199   0.978   4.647  2.1652 -2.6454 -1.0617
  164MOL0     H22594   9.323   0.833   5.244  0.6752 -0.3077  3.5712
  164MOL0     H22595   9.455   0.651   5.312  3.2688  2.4491 -2.0951
  164MOL0     H22596   9.518   0.356   5.370 -0.6091  1.4604  0.3338
  164MOL0     H22597   9.340   0.379   5.347 -1.0771  0.5089 -1.6791
  164MOL0     H22598   9.370   0.141   5.389 -0.3125 -1.6981 -0.8540
  164MOL0     H22599   9.318   0.172   5.217 -0.1700 -0.1024  0.5107
  164MOL0     H22600   9.597   0.122   5.333 -0.1277 -1.6886  0.1789
  164MOL0     H22601   9.562   0.146   5.160 -1.1519  1.0969  0.2763
  164MOL0     H22602   9.484  -0.085   5.150  1.4075  3.5618 -1.3604
  164MOL0     H22603   9.423  -0.089   5.316  0.2252 -2.7640 -0.3009
  164MOL0     H22604   9.716  -0.072   5.224 -1.3963 -1.1494 -2.4521
  164MOL0     H22605   9.658  -0.120   5.388 -2.2810 -1.7572  0.4270
  164MOL0     H22606   9.587  -0.274   5.132 -0.8087 -0.4628  0.3419
  164MOL0     H22607   9.548  -0.318   5.293  0.3709 -1.1047 -1.3772
  164MOL0     H22608   9.813  -0.320   5.168 -2.2960  1.2040 -1.7604
  164MOL0     H22609   9.714  -0.455   5.215  1.1988  0.7023 -1.6283
  164MOL0     H22610   9.746  -0.370   5.478  0.2540  1.0908  0.2317
  164MOL0     H22611   9.851  -0.262   5.397  1.4435 -0.9437 -0.3815
  164MOL0     H22612   9.328   0.408   4.976  2.9877 -2.1080  2.4104
  164MOL0     H22613   9.212   0.616   4.891 -2.5629  1.3578  0.2937
  164MOL0     H22614   8.801   0.902   5.020  2.6441  0.7530  1.5552
  164MOL0     H22615   8.680   1.084   4.898 -0.0315  0.2975  0.4335
  164MOL0     H22616   9.040   1.728   3.127  0.0963 -1.2172  0.1739
  164MOL0     H22617   9.196   1.879   3.041  0.4585 -0.1483 -0.6511
  164MOL0     H22618   9.698   1.983   3.019 -1.5580  0.8399  1.1055
  164MOL0     H22619   9.867   2.142   2.931 -0.7486  0.0883 -0.0573
  164MOL0     H22620   9.915   2.421   2.909 -0.7339 -0.8137  0.2118
  164MOL0     H22621   9.980   2.293   2.808 -1.4855  0.5815 -1.3549
  164MOL0     H22622  10.102   2.485   2.740 -0.2098  1.5213 -0.9199
  164MOL0     H22623   9.963   2.595   2.766 -2.8547  0.0712 -1.5417
  164MOL0     H22624   9.988   2.418   2.513 -0.6559  0.6233 -1.5196
  164MOL0     H22625   9.839   2.505   2.569 -0.2885  3.1201  2.0446
  164MOL0     H22626   9.980   2.617   2.401 -0.2909 -1.3684  0.3713
  164MOL0     H22627  10.102   2.664   2.525  0.0581  1.5942  0.8123
  164MOL0     H22628   9.785   2.923   2.598  0.4527 -0.6652  1.6241
  164MOL0     H22629   9.564   2.353   2.736 -2.4574 -1.0828  0.9034
  164MOL0     H22630   9.291   2.134   2.865  0.5022 -1.5842 -2.1759
  164MOL0     H22631   9.339   2.307   2.879  1.9029  1.5688 -2.8631
  164MOL0     H22632   9.307   2.232   2.720 -0.7474  4.5491  0.3140
  165MOL0     O22633   9.794   3.679   6.625 -0.1009  0.4433  0.2466
  165MOL0     C22634   9.904   3.626   6.627 -0.2298  0.4012  0.7302
  165MOL0     O22635   9.967   3.588   6.739 -0.1162 -0.0469 -0.3154
  165MOL0     C22636   9.934   3.651   6.854  0.5663 -0.4190 -0.3821
  165MOL0     C22637   9.835   3.591   6.931 -0.7047  0.5126  0.4906
  165MOL0     C22638   9.786   3.666   7.042 -0.2814 -0.2276  0.8410
  165MOL0     C22639   9.824   3.790   7.074 -0.0070  1.0281 -0.1775
  165MOL0     O22640   9.761   3.862   7.174 -0.1720  0.0414  0.1633
  165MOL0     C22641   9.847   3.942   7.255  0.2587  0.5142  0.8626
  165MOL0     C22642   9.786   3.964   7.395 -0.6422  0.3176  0.8142
  165MOL0     C22643   9.722   3.851   7.473 -0.4292  0.3601  0.2992
  165MOL0     C22644   9.797   3.712   7.468 -0.7882 -0.5410 -0.0893
  165MOL0     C22645   9.734   3.607   7.563  0.5575 -0.1419  0.3103
  165MOL0     C22646   9.850   3.513   7.617  0.5427  0.1224  0.7532
  165MOL0     C22647   9.788   3.393   7.694  0.3981 -0.1084  0.5076
  165MOL0     C22648   9.900   3.304   7.766  0.1176  0.2767 -0.2684
  165MOL0     N22649   9.995   3.372   7.854 -0.4098 -0.8436  1.4524
  165MOL0     C22650   9.981   3.424   7.982 -1.1511 -0.1230  0.7578
  165MOL0     C22651  10.096   3.482   8.012 -0.0180 -0.5534  0.6303
  165MOL0     C22652  10.120   3.569   8.135 -0.2363 -0.8190 -0.0098
  165MOL0     C22653  10.147   3.711   8.088  0.0450 -0.4089 -0.1580
  165MOL0     C22654  10.181   3.786   8.212 -0.5576 -0.3720 -0.2552
  165MOL0     C22655  10.223   3.929   8.187 -0.0724  0.6376  0.2509
  165MOL0     O22656  10.113   4.017   8.150 -0.0673 -0.1108  0.2296
  165MOL0     C22657  10.042   4.087   8.251  0.4699 -0.1523  0.0525
  165MOL0     C22658   9.932   4.157   8.216  0.3618  0.8048 -0.0699
  165MOL0     C22659   9.851   4.219   8.316 -0.0171 -0.1125 -0.6397
  165MOL0     C22660   9.735   4.300   8.256 -0.4603 -0.3084 -0.2916
  165MOL0     C22661   9.904   4.229   8.457 -0.4978  0.0893 -0.2595
  165MOL0     C22662   9.845   4.322   8.566  0.4261 -0.1923  0.0796
  165MOL0     O22663   9.895   4.309   8.695  0.2517  0.5040 -1.2577
  165MOL0     C22664   9.855   4.390   8.798 -0.4145 -0.1216  0.5105
  165MOL0     C22665   9.748   4.352   8.885  0.1019 -0.4247  0.0675
  165MOL0     C22666   9.696   4.439   8.982  0.7121 -0.9732 -0.3397
  165MOL0     C22667   9.755   4.563   9.003  0.7015  0.6681  0.1996
  165MOL0     O22668   9.688   4.654   9.076 -0.5385  0.2730 -0.6043
  165MOL0     C22669   9.755   4.776   9.096  0.4830  0.4131  0.1517
  165MOL0     C22670   9.672   4.874   9.172 -0.2923  0.0083 -0.1696
  165MOL0     C22671   9.538   4.923   9.111  0.0034 -0.3373  0.0406
  165MOL0     C22672   9.450   5.007   9.203  0.1414 -0.7728 -0.5297
  165MOL0     C22673   9.313   5.058   9.132 -1.1962  0.6392  0.4965
  165MOL0     C22674   9.214   5.150   9.213  0.2762  0.2332  0.1594
  165MOL0     C22675   9.175   5.091   9.343  0.6007 -0.3926  1.2817
  165MOL0     C22676   9.124   5.193   9.435  0.2616 -0.2658 -0.9214
  165MOL0    Cl22677   8.991   5.302   9.370  0.3514 -0.4282  0.1933
  165MOL0     C22678   9.871   4.592   8.931  0.3147 -0.6110 -0.3177
  165MOL0     C22679   9.925   4.510   8.829  0.9847 -0.1302 -0.1374
  165MOL0     O22680   9.772   4.412   8.532 -0.7544  0.0740  0.4378
  165MOL0     C22681  10.021   4.151   8.482  0.9519  0.5056  0.6399
  165MOL0     C22682  10.078   4.079   8.382  0.0078  0.7095  1.0679
  165MOL0     N22683  10.188   3.464   7.901 -0.0652 -0.3131 -0.2066
  165MOL0     N22684  10.118   3.409   7.805 -0.9006 -0.0190 -0.3894
  165MOL0     C22685   9.920   3.848   6.995  0.1380 -0.3683  0.1090
  165MOL0     C22686   9.976   3.778   6.887 -0.8972  0.0574  0.4473
  165MOL0     C22687   9.934   3.570   6.499 -1.0266  0.0176 -0.2646
  165MOL0     C22688  10.002   3.447   6.488 -0.2232  1.1655  0.5342
  165MOL0     C22689  10.016   3.383   6.367  0.1624  0.3004 -0.7932
  165MOL0     C22690  10.013   3.455   6.246  0.7539 -0.2659 -1.1671
  165MOL0     O22691  10.042   3.408   6.124 -1.0015 -0.4911 -0.8076
  165MOL0     C22692  10.073   3.267   6.099  0.1698 -0.0363 -0.3973
  165MOL0     C22693   9.995   3.225   5.980  0.0709  0.5942 -0.3030
  165MOL0     C22694   9.844   3.230   6.023  0.5320 -1.6794 -0.6001
  165MOL0     C22695   9.745   3.305   5.930 -0.0322 -0.3767 -0.0856
  165MOL0     C22696   9.780   3.303   5.792 -0.4826  0.0635 -0.6970
  165MOL0     C22697   9.775   3.318   5.670 -0.1034  0.3269  0.0033
  165MOL0     C22698   9.948   3.574   6.256 -0.4370  0.2213 -0.4800
  165MOL0     C22699   9.918   3.638   6.377 -0.5114  0.4253  0.3824
  165MOL0     C22700   9.848   3.769   6.378  1.6712  0.1053  0.7917
  165MOL0     H22701   9.810   3.487   6.911 -1.1528 -0.4484  4.9838
  165MOL0     H22702   9.710   3.619   7.104 -3.1070  0.2222 -2.0104
  165MOL0     H22703   9.850   4.044   7.217 -1.0602  0.4930  0.6797
  165MOL0     H22704   9.947   3.897   7.261 -0.5773 -1.3723  1.3098
  165MOL0     H22705   9.864   4.018   7.448 -0.8787  1.1346  0.3509
  165MOL0     H22706   9.703   4.035   7.391 -1.7835 -1.0026 -2.3083
  165MOL0     H22707   9.726   3.882   7.578  2.4084  1.2878 -0.0062
  165MOL0     H22708   9.622   3.827   7.436  1.0832 -0.2310 -3.8715
  165MOL0     H22709   9.798   3.670   7.367  0.8507  0.4779 -0.5293
  165MOL0     H22710   9.900   3.724   7.503 -0.4420 -0.7210 -1.0264
  165MOL0     H22711   9.662   3.542   7.514  0.6511 -1.2811  1.6474
  165MOL0     H22712   9.690   3.651   7.653  1.2909 -1.6545  1.4509
  165MOL0     H22713   9.923   3.479   7.542  0.9516  2.0484  0.2325
  165MOL0     H22714   9.902   3.587   7.678 -1.2831  1.7578  0.4421
  165MOL0     H22715   9.742   3.320   7.626  0.0344 -0.0416  0.6782
  165MOL0     H22716   9.701   3.416   7.756 -1.7301 -0.0237 -2.2981
  165MOL0     H22717   9.846   3.225   7.819 -0.2380 -0.3073 -1.4584
  165MOL0     H22718   9.946   3.249   7.683  2.4364  0.5044  0.8043
  165MOL0     H22719   9.896   3.428   8.050 -1.3617 -0.1563  0.5007
  165MOL0     H22720  10.202   3.528   8.195  1.4044 -0.2329 -1.7394
  165MOL0     H22721  10.035   3.574   8.204  0.6099  3.3502  1.0217
  165MOL0     H22722  10.237   3.708   8.025 -0.1354 -0.0702 -0.4319
  165MOL0     H22723  10.068   3.767   8.038 -0.0155  3.4218  3.7009
  165MOL0     H22724  10.108   3.778   8.293  2.7199 -1.3645  2.8359
  165MOL0     H22725  10.271   3.743   8.256  0.9720  2.5280 -0.3018
  165MOL0     H22726  10.277   3.974   8.270 -1.4433  1.5880  0.6639
  165MOL0     H22727  10.298   3.923   8.107 -0.2993 -1.1213  0.1400
  165MOL0     H22728   9.898   4.153   8.113 -0.6543 -2.3611  0.2752
  165MOL0     H22729   9.771   4.392   8.209 -1.6651  0.5050  0.3441
  165MOL0     H22730   9.667   4.321   8.338 -0.9637 -0.2519 -0.7164
  165MOL0     H22731   9.680   4.243   8.180  1.9491 -1.6378 -1.1496
  165MOL0     H22732   9.696   4.261   8.859 -1.6073  0.9433 -1.5799
  165MOL0     H22733   9.604   4.408   9.030 -1.6487  2.0490 -2.5062
  165MOL0     H22734   9.839   4.754   9.162  3.3451  0.4267 -3.2250
  165MOL0     H22735   9.792   4.825   9.006  0.0236 -0.0026 -0.2672
  165MOL0     H22736   9.652   4.833   9.271  1.3066  0.4435  0.3553
  165MOL0     H22737   9.735   4.953   9.213  2.0464 -2.7755  2.0011
  165MOL0     H22738   9.484   4.852   9.048 -0.5412 -0.6240  0.8033
  165MOL0     H22739   9.562   4.995   9.033 -2.2968 -0.1403 -0.5491
  165MOL0     H22740   9.499   5.097   9.242  0.3024 -1.6702  1.4864
  165MOL0     H22741   9.423   4.951   9.293  2.4673  0.2220  0.9075
  165MOL0     H22742   9.338   5.103   9.035 -0.7691  0.4824  0.5334
  165MOL0     H22743   9.252   4.970   9.111  2.0960 -1.6983 -0.0070
  165MOL0     H22744   9.120   5.168   9.160 -0.1114  1.1896  1.1286
  165MOL0     H22745   9.268   5.241   9.239  2.1686 -1.3202  1.9516
  165MOL0     H22746   9.267   5.049   9.385  2.8801  2.2498 -0.6556
  165MOL0     H22747   9.105   5.007   9.333  0.0229  0.2406 -0.4690
  165MOL0     H22748   9.210   5.244   9.479 -0.9640 -1.4477  3.4255
  165MOL0     H22749   9.078   5.134   9.516  2.1485 -0.0934  0.3455
  165MOL0     H22750   9.929   4.676   8.967  2.0275 -1.2790 -1.3663
  165MOL0     H22751  10.022   4.527   8.783  1.3434 -5.5040 -2.0750
  165MOL0     H22752  10.070   4.138   8.578  0.1922 -2.7817  0.6760
  165MOL0     H22753  10.148   4.001   8.413  0.3076 -0.7333 -2.6545
  165MOL0     H22754   9.936   3.955   7.003 -3.3782  0.7160 -3.5911
  165MOL0     H22755  10.036   3.835   6.817 -1.5903  1.6598  1.1108
  165MOL0     H22756  10.029   3.400   6.583  0.7594 -0.4563 -0.4953
  165MOL0     H22757  10.055   3.283   6.383 -0.3778  0.3891  1.2493
  165MOL0     H22758  10.175   3.262   6.058 -0.8918 -0.1546 -3.2277
  165MOL0     H22759  10.054   3.207   6.189 -3.3680  3.1709  1.2713
  165MOL0     H22760  10.019   3.120   5.963  2.7381  0.5578  2.6069
  165MOL0     H22761  10.004   3.289   5.892 -1.8222 -0.6045 -1.4203
  165MOL0     H22762   9.804   3.128   6.029 -2.6942 -0.4739  4.1490
  165MOL0     H22763   9.830   3.272   6.123 -2.8121  1.3060 -2.0846
  165MOL0     H22764   9.746   3.410   5.962  0.1927 -1.6338  4.8491
  165MOL0     H22765   9.646   3.263   5.952  0.9119 -1.5359  2.2811
  165MOL0     H22766   9.788   3.323   5.564  1.7012  6.1248  0.1817
  165MOL0     H22767   9.935   3.630   6.163  0.1435  2.0521  0.4818
  165MOL0     H22768   9.917   3.840   6.425  2.1814  1.8705 -2.3388
  165MOL0     H22769   9.831   3.809   6.277 -0.0488  0.1137  1.0524
  165MOL0     H22770   9.750   3.780   6.426  2.0596  1.4630  1.3413
  166MOL0     O22771   7.789   7.000   0.102 -0.2083 -0.5328  0.5441
  166MOL0     C22772   7.893   6.984   0.168 -0.1099 -0.0889 -0.1711
  166MOL0     O22773   7.924   6.882   0.246  0.3696  0.8908 -0.7014
  166MOL0     C22774   7.832   6.777   0.253 -0.1571 -0.8182  0.1040
  166MOL0     C22775   7.872   6.650   0.203 -0.0319 -0.7424 -0.5903
  166MOL0     C22776   7.792   6.539   0.212 -0.4795 -0.1282  0.4253
  166MOL0     C22777   7.664   6.546   0.276 -0.3060  0.9645 -0.0946
  166MOL0     O22778   7.574   6.439   0.268 -0.5519 -0.2423 -0.8832
  166MOL0     C22779   7.456   6.437   0.344  0.5033  0.0740 -0.0464
  166MOL0     C22780   7.424   6.283   0.376 -0.7905 -0.3949  0.1161
  166MOL0     C22781   7.409   6.202   0.246 -0.2174 -0.1213 -0.9358
  166MOL0     C22782   7.357   6.058   0.268 -0.7165  0.3106 -0.5519
  166MOL0     C22783   7.319   5.991   0.135  0.1485 -0.0680 -0.8218
  166MOL0     C22784   7.436   5.958   0.053  0.2492 -0.2012 -0.7913
  166MOL0     C22785   7.394   5.883  -0.066  0.7736  0.6770  0.1148
  166MOL0     C22786   7.511   5.866  -0.166 -0.7662 -0.0894  0.9800
  166MOL0     N22787   7.628   5.786  -0.120  0.0060 -0.1510  0.5484
  166MOL0     C22788   7.630   5.675  -0.045 -0.9961  0.5715 -0.7918
  166MOL0     C22789   7.758   5.646  -0.012 -0.1519  0.5103 -0.3348
  166MOL0     C22790   7.812   5.550   0.092 -0.4525  0.2406 -0.1635
  166MOL0     C22791   7.828   5.405   0.042 -0.0206  0.3653  0.5748
  166MOL0     C22792   7.695   5.336   0.017  0.0228  0.7139 -0.0916
  166MOL0     C22793   7.605   5.330   0.148 -0.1532  0.5002  0.4933
  166MOL0     O22794   7.530   5.452   0.168 -0.7678 -0.5633 -0.5158
  166MOL0     C22795   7.436   5.448   0.274  0.5834  0.3483  1.7540
  166MOL0     C22796   7.361   5.564   0.286 -0.0408  0.0434 -0.4877
  166MOL0     C22797   7.277   5.586   0.394 -0.0348  0.4389  0.1188
  166MOL0     C22798   7.207   5.715   0.402  0.5137  0.1860  1.3853
  166MOL0     C22799   7.264   5.487   0.493  0.5520  0.1238 -0.9912
  166MOL0     C22800   7.191   5.500   0.619  1.4369  0.2723 -0.9971
  166MOL0     O22801   7.080   5.582   0.628  0.0056 -0.1286 -0.4796
  166MOL0     C22802   7.008   5.626   0.735 -0.9631  0.5538 -0.1176
  166MOL0     C22803   7.055   5.613   0.873  0.3535  0.0977  0.7977
  166MOL0     C22804   6.960   5.627   0.985 -0.7086 -0.0744 -0.1884
  166MOL0     C22805   6.839   5.698   0.962 -0.2656  0.2672 -0.1050
  166MOL0     O22806   6.773   5.736   1.084  0.3168  0.1579  0.5049
  166MOL0     C22807   6.634   5.765   1.076 -0.5438 -0.0710  0.7055
  166MOL0     C22808   6.554   5.625   1.084 -0.7903 -0.2664  0.8730
  166MOL0     C22809   6.606   5.546   1.206 -0.4935  0.0040 -1.3501
  166MOL0     C22810   6.494   5.441   1.258 -0.6311 -0.6689  0.2433
  166MOL0     C22811   6.546   5.340   1.354 -0.2612  0.4372 -0.0567
  166MOL0     C22812   6.427   5.272   1.429  0.0373 -0.0077 -0.2076
  166MOL0     C22813   6.479   5.158   1.520 -0.3347  0.7330 -0.5285
  166MOL0     C22814   6.525   5.028   1.455  0.4459 -0.6042  0.4810
  166MOL0    Cl22815   6.397   4.951   1.349  0.3342  0.2667 -0.3428
  166MOL0     C22816   6.821   5.738   0.825  0.1438  0.6083 -0.5783
  166MOL0     C22817   6.896   5.708   0.719 -0.2616 -0.6292  0.5300
  166MOL0     O22818   7.226   5.421   0.709 -0.3735  0.4293 -0.9827
  166MOL0     C22819   7.331   5.355   0.476  1.0333  1.1168  0.2969
  166MOL0     C22820   7.424   5.343   0.368  0.4511 -0.3358  0.6958
  166MOL0     N22821   7.835   5.739  -0.076  0.2982 -0.0638 -0.5879
  166MOL0     N22822   7.756   5.817  -0.141 -0.0232 -0.3903 -0.1867
  166MOL0     C22823   7.620   6.677   0.312  0.1901 -0.2341  0.2154
  166MOL0     C22824   7.698   6.794   0.298 -0.0044 -0.5081  1.2288
  166MOL0     C22825   7.993   7.105   0.160 -0.3240 -0.5099 -0.0447
  166MOL0     C22826   8.109   7.103   0.240 -0.0911 -0.2402 -0.5783
  166MOL0     C22827   8.212   7.198   0.231  0.3377 -0.4666  0.2674
  166MOL0     C22828   8.199   7.312   0.150  0.0581  0.8835  0.5736
  166MOL0     O22829   8.297   7.405   0.143 -0.0811 -1.0927  0.7577
  166MOL0     C22830   8.276   7.526   0.069  0.1449 -0.6709 -1.1798
  166MOL0     C22831   8.405   7.607   0.081 -0.0700 -0.8155  0.9934
  166MOL0     C22832   8.404   7.730  -0.018 -1.0294  0.9751 -0.5829
  166MOL0     C22833   8.534   7.814  -0.012 -0.3901  0.0248  0.5660
  166MOL0     C22834   8.646   7.752  -0.076  0.3147 -0.5741  0.6666
  166MOL0     C22835   8.737   7.698  -0.133  0.6508  0.8067  0.8132
  166MOL0     C22836   8.078   7.312   0.073  0.0890 -0.7738  0.8414
  166MOL0     C22837   7.972   7.215   0.074 -0.2406 -0.7195  0.1647
  166MOL0     C22838   7.845   7.249  -0.001 -0.3278 -0.3005 -0.1633
  166MOL0     H22839   7.978   6.654   0.178  0.0599  3.4223 -0.2150
  166MOL0     H22840   7.830   6.450   0.162 -0.2072  0.8069 -1.0925
  166MOL0     H22841   7.376   6.501   0.307  1.0720  2.2986  2.2757
  166MOL0     H22842   7.471   6.481   0.443 -2.8030  3.7483 -0.8797
  166MOL0     H22843   7.507   6.250   0.438  0.9890  1.3742 -1.1775
  166MOL0     H22844   7.336   6.279   0.441  1.2162 -3.1417  2.9653
  166MOL0     H22845   7.342   6.254   0.177  0.4264 -0.9855 -2.2553
  166MOL0     H22846   7.505   6.188   0.195 -1.1490 -2.0997 -2.2749
  166MOL0     H22847   7.434   6.007   0.326  0.4348  0.3588 -1.9717
  166MOL0     H22848   7.269   6.075   0.331 -0.6290  3.1456 -1.0804
  166MOL0     H22849   7.253   6.061   0.082  0.4003  1.2150  0.4677
  166MOL0     H22850   7.264   5.900   0.161 -1.1859  0.5549 -1.3691
  166MOL0     H22851   7.499   6.043   0.027  1.7472 -1.3838 -1.2024
  166MOL0     H22852   7.498   5.894   0.117  0.9032  0.7622 -0.4404
  166MOL0     H22853   7.312   5.928  -0.121 -1.4393 -1.0408  1.7803
  166MOL0     H22854   7.363   5.781  -0.040 -0.6548  1.4601  1.6714
  166MOL0     H22855   7.486   5.830  -0.266  2.4851  1.6753 -0.6244
  166MOL0     H22856   7.558   5.963  -0.187  2.2828 -1.7074 -0.2962
  166MOL0     H22857   7.543   5.626  -0.002 -0.3047 -0.8892 -1.0208
  166MOL0     H22858   7.756   5.557   0.186 -0.6408 -0.9537 -0.1727
  166MOL0     H22859   7.913   5.588   0.106 -0.0797 -0.5036 -0.7330
  166MOL0     H22860   7.877   5.410  -0.056  0.2724  0.7652  0.7383
  166MOL0     H22861   7.883   5.341   0.111  1.5913  0.8327 -0.2076
  166MOL0     H22862   7.630   5.371  -0.064 -1.6058 -0.8536  0.4802
  166MOL0     H22863   7.704   5.230  -0.008 -1.9564  0.3728  0.4465
  166MOL0     H22864   7.542   5.241   0.144  1.4389 -1.1819  5.4048
  166MOL0     H22865   7.678   5.316   0.228  2.4835  0.1842 -1.7845
  166MOL0     H22866   7.370   5.637   0.206 -3.0344 -1.1341 -2.0572
  166MOL0     H22867   7.216   5.774   0.310 -0.1472 -1.5102  0.1800
  166MOL0     H22868   7.239   5.775   0.487  0.3223  1.9626  0.2619
  166MOL0     H22869   7.099   5.698   0.403  0.4911 -0.5864 -1.9889
  166MOL0     H22870   7.146   5.572   0.914  0.4710 -0.6932 -0.2111
  166MOL0     H22871   6.992   5.596   1.084  2.8126  2.8463 -0.2014
  166MOL0     H22872   6.612   5.835   1.158  0.7242  0.3479  0.7080
  166MOL0     H22873   6.613   5.814   0.981  0.4615 -0.8880  0.0383
  166MOL0     H22874   6.447   5.648   1.085 -1.2562 -2.3174  1.7357
  166MOL0     H22875   6.586   5.564   0.999 -2.5805 -0.0053 -0.0374
  166MOL0     H22876   6.628   5.614   1.289  1.9230 -2.0657 -0.1767
  166MOL0     H22877   6.699   5.490   1.193 -0.2577  0.4365 -1.5523
  166MOL0     H22878   6.455   5.392   1.169  0.3571  0.3795 -0.8105
  166MOL0     H22879   6.418   5.499   1.311 -1.3595 -2.7389  1.5988
  166MOL0     H22880   6.614   5.268   1.308  2.0461  2.2097  0.4198
  166MOL0     H22881   6.600   5.392   1.434  0.9824 -0.6340 -0.1640
  166MOL0     H22882   6.362   5.221   1.356 -5.2238  0.9291  3.2867
  166MOL0     H22883   6.352   5.340   1.470 -0.4830 -0.5841 -0.1975
  166MOL0     H22884   6.398   5.115   1.579  0.2875 -2.1181 -1.5774
  166MOL0     H22885   6.555   5.201   1.586 -0.1250  0.3055 -0.4859
  166MOL0     H22886   6.536   4.955   1.536 -0.5309 -3.6154 -1.8809
  166MOL0     H22887   6.618   5.040   1.399 -1.0470 -2.4037 -2.6541
  166MOL0     H22888   6.753   5.819   0.798  1.8162  1.3407 -3.0390
  166MOL0     H22889   6.860   5.738   0.621 -3.7445 -1.9448  1.2568
  166MOL0     H22890   7.304   5.264   0.528 -1.7282  1.4958 -0.2930
  166MOL0     H22891   7.483   5.252   0.381  1.3390  0.4177  2.2527
  166MOL0     H22892   7.514   6.684   0.334  0.7011  0.1764  2.9060
  166MOL0     H22893   7.654   6.893   0.310 -0.9341 -0.9201  1.2929
  166MOL0     H22894   8.114   7.016   0.305 -0.0767 -0.5552 -0.9955
  166MOL0     H22895   8.302   7.192   0.291 -1.5961 -0.1973  3.4666
  166MOL0     H22896   8.263   7.504  -0.038 -2.0293  2.9618 -1.8399
  166MOL0     H22897   8.184   7.575   0.101  0.4858 -0.5085 -0.4258
  166MOL0     H22898   8.494   7.546   0.063  0.6649 -0.1983  2.3584
  166MOL0     H22899   8.408   7.639   0.186 -0.7560  0.7245  0.5711
  166MOL0     H22900   8.406   7.696  -0.122 -3.2887 -2.8471  0.3990
  166MOL0     H22901   8.320   7.790   0.019  1.1692  2.1089  3.0820
  166MOL0     H22902   8.551   7.835   0.095  4.9221 -1.5124  0.3130
  166MOL0     H22903   8.513   7.911  -0.058 -2.2612  0.4271  2.1426
  166MOL0     H22904   8.806   7.625  -0.168 -0.4686  0.2220 -0.2901
  166MOL0     H22905   8.053   7.399   0.013 -1.8061 -2.3880 -0.8772
  166MOL0     H22906   7.759   7.237   0.065 -0.9171 -2.4462 -1.2339
  166MOL0     H22907   7.855   7.353  -0.034 -2.0743 -0.5635 -1.7396
  166MOL0     H22908   7.832   7.180  -0.085  3.9705  0.3397 -1.6173
  167MOL0     O22909   7.081   4.655   2.405 -0.7358 -0.4559 -0.5663
  167MOL0     C22910   7.182   4.596   2.448  0.4075 -0.0481  0.9995
  167MOL0     O22911   7.272   4.651   2.531 -0.4646 -0.3084  0.0307
  167MOL0     C22912   7.237   4.749   2.616 -0.6087 -0.1158 -0.9797
  167MOL0     C22913   7.120   4.734   2.689  0.0060 -1.2495  0.3689
  167MOL0     C22914   7.099   4.799   2.810  0.2470  0.0736  0.5423
  167MOL0     C22915   7.190   4.904   2.851  0.3062  0.3155 -0.4656
  167MOL0     O22916   7.178   4.980   2.964 -0.2702 -0.0694  0.5365
  167MOL0     C22917   7.071   4.960   3.062  0.1491 -0.2808  0.7528
  167MOL0     C22918   7.097   5.065   3.183 -1.0276 -0.6341 -1.1884
  167MOL0     C22919   7.171   5.187   3.141 -1.2323 -0.4819 -0.1518
  167MOL0     C22920   7.212   5.266   3.270  0.0718  0.6241 -0.0392
  167MOL0     C22921   7.288   5.405   3.246 -0.5953 -0.5475 -0.0612
  167MOL0     C22922   7.417   5.398   3.155  0.8206 -1.1837  0.1308
  167MOL0     C22923   7.494   5.542   3.157 -1.2031  0.1536 -0.7527
  167MOL0     C22924   7.420   5.674   3.091 -0.9517  0.9292  0.0575
  167MOL0     N22925   7.385   5.630   2.955  0.1084 -0.5356  0.4213
  167MOL0     C22926   7.462   5.665   2.850 -1.6077  0.8716 -0.5267
  167MOL0     C22927   7.415   5.596   2.741 -0.7619  0.1436 -0.9886
  167MOL0     C22928   7.492   5.597   2.610 -0.0750  0.2442  1.0535
  167MOL0     C22929   7.429   5.710   2.514 -0.1206  0.7402 -0.0340
  167MOL0     C22930   7.271   5.696   2.508 -0.5698 -0.2181 -0.5908
  167MOL0     C22931   7.222   5.735   2.368 -0.3462 -0.3981  1.4246
  167MOL0     O22932   7.253   5.876   2.351 -0.7063  0.0533  0.4935
  167MOL0     C22933   7.183   5.975   2.408  0.0373  0.3141  0.2584
  167MOL0     C22934   7.235   6.101   2.399 -0.2740  0.0567 -0.9406
  167MOL0     C22935   7.176   6.210   2.462 -0.0853 -0.1667  0.0426
  167MOL0     C22936   7.249   6.343   2.457  0.2634  0.2645  0.3402
  167MOL0     C22937   7.058   6.201   2.543  0.0700  0.4859 -0.0249
  167MOL0     C22938   6.989   6.315   2.614 -0.8270  0.9543  0.3504
  167MOL0     O22939   7.083   6.392   2.696 -0.2167 -0.7117  0.1929
  167MOL0     C22940   7.028   6.490   2.779 -0.5903 -0.1031  0.5362
  167MOL0     C22941   7.072   6.510   2.911  0.1206 -0.6001 -0.0480
  167MOL0     C22942   7.021   6.614   2.990  1.5609  0.2440 -0.5748
  167MOL0     C22943   6.928   6.702   2.943 -0.1850 -1.0293 -0.2080
  167MOL0     O22944   6.869   6.806   3.022  0.6441 -0.0528 -0.1504
  167MOL0     C22945   6.943   6.924   3.022  0.2655 -1.0465 -0.8986
  167MOL0     C22946   6.908   7.012   2.902 -0.0983 -0.9398  0.4792
  167MOL0     C22947   6.972   7.160   2.913 -0.2946  0.1133  0.1538
  167MOL0     C22948   6.915   7.248   2.793  0.9754  1.1536 -0.0733
  167MOL0     C22949   6.984   7.379   2.782 -0.6034  0.2736  1.1662
  167MOL0     C22950   7.128   7.368   2.729  0.1348  0.5779 -0.2849
  167MOL0     C22951   7.218   7.491   2.772 -0.4652  0.5498  0.6596
  167MOL0     C22952   7.356   7.512   2.718  0.0547 -0.2321  0.1891
  167MOL0    Cl22953   7.359   7.527   2.545  0.9020  0.0331  0.5612
  167MOL0     C22954   6.879   6.683   2.815 -1.1281 -0.6637  0.3069
  167MOL0     C22955   6.928   6.584   2.727 -0.4364  0.0964  0.1145
  167MOL0     O22956   6.867   6.327   2.610 -0.5173 -1.1384 -0.6151
  167MOL0     C22957   7.001   6.072   2.554 -0.1768  0.1123 -0.1580
  167MOL0     C22958   7.068   5.961   2.487  1.3357 -0.1883  0.4854
  167MOL0     N22959   7.304   5.526   2.777 -0.0900 -0.5684 -0.1795
  167MOL0     N22960   7.285   5.547   2.905 -0.0819 -1.2326 -1.2640
  167MOL0     C22961   7.307   4.916   2.781  0.2599 -0.8039 -1.0315
  167MOL0     C22962   7.332   4.836   2.665  0.1759 -1.0837 -0.4783
  167MOL0     C22963   7.217   4.462   2.391  0.8588 -0.2782  0.1423
  167MOL0     C22964   7.332   4.396   2.435  0.1337  0.1643  0.5577
  167MOL0     C22965   7.367   4.265   2.404  0.2981 -0.4904  0.5124
  167MOL0     C22966   7.293   4.201   2.303  0.4565  0.0268 -0.3592
  167MOL0     O22967   7.332   4.079   2.241 -0.1763  0.0484  0.8519
  167MOL0     C22968   7.456   4.000   2.264  1.2960 -0.0603  0.4830
  167MOL0     C22969   7.411   3.871   2.324  0.6479 -0.5064  0.7179
  167MOL0     C22970   7.316   3.788   2.230 -0.5165  0.2900  0.0573
  167MOL0     C22971   7.229   3.691   2.313  0.6256  0.3435  0.4867
  167MOL0     C22972   7.156   3.597   2.230  0.3770 -0.1181  0.4270
  167MOL0     C22973   7.078   3.509   2.193 -0.2412  0.2873 -0.1825
  167MOL0     C22974   7.178   4.260   2.249 -1.0374  0.8267  0.6931
  167MOL0     C22975   7.142   4.389   2.295 -0.4708 -0.4999 -0.0497
  167MOL0     C22976   7.018   4.449   2.235  0.2745 -0.1234 -0.3801
  167MOL0     H22977   7.044   4.663   2.656 -1.7026 -0.2613  1.9670
  167MOL0     H22978   7.009   4.777   2.866 -1.3042  3.7163 -0.2403
  167MOL0     H22979   7.068   4.861   3.108 -5.0373 -0.1171  1.3089
  167MOL0     H22980   6.968   4.961   3.028  0.3256 -3.2958 -0.1498
  167MOL0     H22981   6.999   5.090   3.224  0.4337 -1.0001  3.0221
  167MOL0     H22982   7.144   5.005   3.262 -0.8207 -0.7975 -1.4349
  167MOL0     H22983   7.261   5.179   3.080 -1.2841  0.9235 -0.4482
  167MOL0     H22984   7.097   5.244   3.084 -2.5346 -0.7859  1.1765
  167MOL0     H22985   7.122   5.279   3.331 -0.3416  0.7723 -0.6640
  167MOL0     H22986   7.283   5.209   3.330  0.2623 -0.6599 -1.4274
  167MOL0     H22987   7.321   5.449   3.341 -2.8995  0.9132  0.1323
  167MOL0     H22988   7.224   5.484   3.205 -1.7519 -1.6258 -0.3677
  167MOL0     H22989   7.482   5.319   3.194  2.3523  0.1144  0.2931
  167MOL0     H22990   7.377   5.366   3.058 -1.9230 -1.8944  1.4039
  167MOL0     H22991   7.588   5.533   3.101  0.3509 -0.3884  1.7907
  167MOL0     H22992   7.518   5.558   3.262 -0.9983  3.2638 -1.1932
  167MOL0     H22993   7.330   5.689   3.151 -0.4462  2.5607  0.4655
  167MOL0     H22994   7.474   5.768   3.104 -0.4785  0.2855  3.6461
  167MOL0     H22995   7.551   5.727   2.847 -0.3998 -0.6768  0.8902
  167MOL0     H22996   7.474   5.496   2.572 -0.5799 -0.0134  1.9331
  167MOL0     H22997   7.600   5.617   2.618 -0.3399  1.3980  2.1105
  167MOL0     H22998   7.463   5.810   2.542 -0.7194  1.3113 -1.2512
  167MOL0     H22999   7.490   5.700   2.423  3.9059 -1.9098  2.6067
  167MOL0     H23000   7.238   5.593   2.529  1.3861 -1.9561 -4.7873
  167MOL0     H23001   7.232   5.766   2.583 -1.9588 -4.1523  2.7686
  167MOL0     H23002   7.281   5.678   2.296  0.5024  0.9696  1.0029
  167MOL0     H23003   7.115   5.714   2.358 -0.2262 -0.4437  0.0652
  167MOL0     H23004   7.321   6.133   2.340 -0.8147  4.2760  0.2300
  167MOL0     H23005   7.276   6.375   2.558  2.5297  0.4480 -0.2457
  167MOL0     H23006   7.199   6.426   2.407  1.0758 -1.5353 -3.8973
  167MOL0     H23007   7.346   6.336   2.406 -0.1018  0.1791 -0.3453
  167MOL0     H23008   7.142   6.446   2.963 -2.0125 -2.5989  0.5253
  167MOL0     H23009   7.053   6.624   3.093 -1.7184 -4.4403  1.2137
  167MOL0     H23010   6.931   6.977   3.116  3.9336 -0.6816 -0.4750
  167MOL0     H23011   7.047   6.890   3.011  0.0193 -1.4469 -2.1669
  167MOL0     H23012   6.938   6.972   2.805  0.7514 -1.3412  0.8970
  167MOL0     H23013   6.799   7.017   2.899 -0.0274  1.9476 -1.3827
  167MOL0     H23014   7.080   7.144   2.900 -0.5691 -0.7611 -1.3821
  167MOL0     H23015   6.940   7.201   3.009 -0.5820 -0.6284  0.3803
  167MOL0     H23016   6.810   7.263   2.821  1.1046 -0.4786  1.4843
  167MOL0     H23017   6.916   7.201   2.695  0.1753  2.1281 -0.5662
  167MOL0     H23018   6.942   7.456   2.718  0.6546  0.0967  0.0836
  167MOL0     H23019   6.989   7.415   2.886  1.9299 -1.9285  1.9294
  167MOL0     H23020   7.133   7.363   2.619  1.0688  1.0481 -0.2692
  167MOL0     H23021   7.167   7.270   2.760  1.7698  1.1858 -0.3362
  167MOL0     H23022   7.234   7.479   2.880  0.5530 -0.3484  0.4262
  167MOL0     H23023   7.163   7.584   2.758 -0.6940  0.5322  1.3851
  167MOL0     H23024   7.404   7.422   2.757 -1.8843 -1.5426 -0.3243
  167MOL0     H23025   7.409   7.606   2.737  4.0998 -0.9868 -4.8255
  167MOL0     H23026   6.795   6.741   2.778  0.2139  1.9321  1.0813
  167MOL0     H23027   6.888   6.576   2.626  1.9162  1.7263 -1.0446
  167MOL0     H23028   6.908   6.058   2.610  0.2276  0.3213  0.5861
  167MOL0     H23029   7.037   5.863   2.520 -1.4603  1.4982  3.4703
  167MOL0     H23030   7.359   5.005   2.812 -0.5668 -0.5967 -0.1845
  167MOL0     H23031   7.421   4.851   2.603  1.5100  0.2221  1.6194
  167MOL0     H23032   7.397   4.449   2.503  4.1771  0.2079 -2.9156
  167MOL0     H23033   7.462   4.223   2.435  0.2381 -1.3385 -0.4204
  167MOL0     H23034   7.508   3.996   2.167  0.2029  1.4793 -0.2172
  167MOL0     H23035   7.533   4.047   2.325  0.7530  1.9898 -0.3322
  167MOL0     H23036   7.354   3.904   2.412  0.6936  4.0967 -0.7005
  167MOL0     H23037   7.495   3.807   2.354 -0.3774 -2.2014  0.0870
  167MOL0     H23038   7.260   3.855   2.163 -0.3309  0.7967  0.4016
  167MOL0     H23039   7.375   3.726   2.162 -0.2769  0.6103 -0.0341
  167MOL0     H23040   7.149   3.742   2.367  0.2784  0.7428 -0.3856
  167MOL0     H23041   7.293   3.649   2.391  2.1172 -1.0024 -1.3578
  167MOL0     H23042   7.009   3.438   2.153  0.4984 -1.8137  2.0081
  167MOL0     H23043   7.135   4.212   2.162 -0.9814 -0.7386  1.4848
  167MOL0     H23044   6.961   4.374   2.179 -2.7247  1.1168  0.7653
  167MOL0     H23045   6.941   4.474   2.309  1.0184 -1.8969  1.0830
  167MOL0     H23046   7.051   4.535   2.176  0.6861  2.5480  3.4153
  168MOL0     O23047   5.913   8.227   5.113 -0.6600 -0.5029 -0.6068
  168MOL0     C23048   6.018   8.186   5.053  1.1541 -0.3122  0.1897
  168MOL0     O23049   6.139   8.250   5.041 -0.1245  0.1464 -0.5390
  168MOL0     C23050   6.163   8.375   5.094 -0.3548  0.0375 -0.6468
  168MOL0     C23051   6.293   8.423   5.083  0.3600  0.2438  0.4378
  168MOL0     C23052   6.323   8.552   5.140 -0.5469  0.4251 -0.5061
  168MOL0     C23053   6.233   8.633   5.199  0.1649  0.5157  0.1854
  168MOL0     O23054   6.279   8.757   5.245 -0.1178  1.1230 -0.1599
  168MOL0     C23055   6.194   8.842   5.330 -0.4816 -0.3226 -0.3726
  168MOL0     C23056   6.278   8.919   5.434 -0.1682 -0.3421 -0.5714
  168MOL0     C23057   6.352   8.831   5.541  0.2205 -0.6638  0.4925
  168MOL0     C23058   6.341   8.900   5.682 -0.1756  0.2013 -0.4369
  168MOL0     C23059   6.420   8.821   5.788 -0.3428  0.1375  0.6383
  168MOL0     C23060   6.408   8.897   5.922 -0.1095  0.2530 -0.0792
  168MOL0     C23061   6.446   8.807   6.043 -0.0226 -1.2457  0.3316
  168MOL0     C23062   6.507   8.892   6.163 -0.1723 -0.4058  0.0348
  168MOL0     N23063   6.433   9.000   6.231 -0.2534  0.4697 -0.8518
  168MOL0     C23064   6.306   8.980   6.287 -0.2050 -0.5876 -0.6212
  168MOL0     C23065   6.271   9.110   6.330 -1.1896 -0.3850 -0.3218
  168MOL0     C23066   6.155   9.139   6.409 -0.3182 -0.2366 -0.5183
  168MOL0     C23067   6.103   9.283   6.383  0.2877 -0.5261  0.2761
  168MOL0     C23068   6.030   9.306   6.252 -0.2717  0.5879 -0.4873
  168MOL0     C23069   5.932   9.427   6.236  0.4691 -0.0967 -0.5264
  168MOL0     O23070   6.003   9.554   6.209  1.1578  0.6141 -0.5582
  168MOL0     C23071   5.940   9.673   6.231  0.5890  0.7284  0.0170
  168MOL0     C23072   6.012   9.784   6.284  0.6458 -0.1716 -0.1827
  168MOL0     C23073   5.955   9.905   6.311  0.4854 -0.0991  0.0648
  168MOL0     C23074   6.036  10.030   6.357 -0.2266  0.7405 -0.6832
  168MOL0     C23075   5.817   9.912   6.313  0.2348 -0.4105  0.2462
  168MOL0     C23076   5.731  10.019   6.366 -0.3517 -0.2235  0.2805
  168MOL0     O23077   5.712  10.119   6.272 -0.5172 -0.0113 -0.0570
  168MOL0     C23078   5.659  10.239   6.319  0.9634 -0.1592  0.6192
  168MOL0     C23079   5.735  10.362   6.352  0.0620  0.5706 -0.2479
  168MOL0     C23080   5.677  10.492   6.385 -0.3388 -0.0529  0.5897
  168MOL0     C23081   5.532  10.493   6.385 -0.6094 -1.0432 -0.0906
  168MOL0     O23082   5.483  10.615   6.430 -0.2598 -0.0136  0.1611
  168MOL0     C23083   5.340  10.629   6.403  0.4836  0.3651 -0.1589
  168MOL0     C23084   5.290  10.761   6.450  0.2133  0.3570  0.0383
  168MOL0     C23085   5.373  10.871   6.392  0.8038 -0.0865  0.7770
  168MOL0     C23086   5.311  10.998   6.423 -0.0413 -0.5180 -1.0056
  168MOL0     C23087   5.380  11.123   6.361 -0.0653 -0.1658 -0.3822
  168MOL0     C23088   5.530  11.133   6.393 -0.6675  0.0392  0.1143
  168MOL0     C23089   5.626  11.059   6.288  0.1373 -0.8346  0.5662
  168MOL0     C23090   5.767  11.091   6.329  1.1679  0.1432  1.0469
  168MOL0    Cl23091   5.819  10.994   6.468  0.1598 -0.4913 -0.3816
  168MOL0     C23092   5.460  10.382   6.360  0.3772 -0.1299 -0.8655
  168MOL0     C23093   5.522  10.261   6.316 -0.3433 -0.7179  0.4028
  168MOL0     O23094   5.684  10.021   6.488  0.4272  0.3185  0.6628
  168MOL0     C23095   5.744   9.801   6.260 -0.2100  0.3451  0.2564
  168MOL0     C23096   5.797   9.681   6.224 -1.6121  0.0216 -0.4736
  168MOL0     N23097   6.371   9.194   6.289 -0.4363 -0.2521 -0.4774
  168MOL0     N23098   6.462   9.131   6.235 -0.7311  0.4284 -0.4973
  168MOL0     C23099   6.097   8.585   5.204 -0.9146 -0.5134 -0.2776
  168MOL0     C23100   6.066   8.461   5.149  0.1896  0.1094 -0.0871
  168MOL0     C23101   6.029   8.049   5.006 -0.1474 -0.0174 -0.5680
  168MOL0     C23102   5.948   7.948   5.080  0.3798 -0.5742 -0.0037
  168MOL0     C23103   5.933   7.819   5.028 -0.9568  0.5943 -0.5511
  168MOL0     C23104   6.002   7.782   4.918 -0.0898 -0.4109  0.8584
  168MOL0     O23105   5.998   7.658   4.861  0.7202 -0.4702  0.4227
  168MOL0     C23106   5.938   7.545   4.935  0.9748 -0.3287  0.4967
  168MOL0     C23107   5.783   7.525   4.912  0.5828  0.3409  1.0629
  168MOL0     C23108   5.726   7.407   5.012 -0.0271  0.5941  0.4910
  168MOL0     C23109   5.714   7.276   4.938 -0.2143 -0.1368 -0.6291
  168MOL0     C23110   5.848   7.227   4.902 -1.5836 -0.1406  0.6640
  168MOL0     C23111   5.962   7.192   4.869 -0.4558  0.3705 -1.3394
  168MOL0     C23112   6.081   7.869   4.855  0.4022  0.1203  0.4106
  168MOL0     C23113   6.089   8.002   4.892  0.1690 -0.2636 -1.0665
  168MOL0     C23114   6.142   8.098   4.797  0.3361 -1.0914  0.6923
  168MOL0     H23115   6.367   8.363   5.031 -0.9793  1.3009 -2.9550
  168MOL0     H23116   6.424   8.592   5.130 -0.0883 -1.1373 -2.9910
  168MOL0     H23117   6.126   8.778   5.387 -0.9678  0.7220  0.2432
  168MOL0     H23118   6.135   8.914   5.273 -1.9586 -2.0134 -1.0840
  168MOL0     H23119   6.342   8.984   5.374 -0.6659 -0.5426 -1.3263
  168MOL0     H23120   6.210   8.985   5.488  0.8722  1.7639 -1.6911
  168MOL0     H23121   6.300   8.735   5.548  1.7341 -1.4534  1.6010
  168MOL0     H23122   6.457   8.817   5.514  0.0359  0.0245 -0.6215
  168MOL0     H23123   6.391   8.997   5.682  3.2403 -1.4351 -0.6445
  168MOL0     H23124   6.236   8.908   5.712  0.2774  0.1145  1.2864
  168MOL0     H23125   6.526   8.820   5.763  0.0311  0.5649  2.1055
  168MOL0     H23126   6.392   8.716   5.793 -0.6474 -0.0861 -3.0518
  168MOL0     H23127   6.484   8.974   5.912 -0.1712  0.0610 -2.6417
  168MOL0     H23128   6.316   8.953   5.940 -0.5194 -0.7848  1.2198
  168MOL0     H23129   6.512   8.725   6.015 -1.1456 -2.1570  0.2563
  168MOL0     H23130   6.350   8.760   6.067 -1.3421  1.5800  0.9457
  168MOL0     H23131   6.555   8.827   6.237  1.5415  2.1842  1.3689
  168MOL0     H23132   6.594   8.944   6.122  0.6704 -0.2866  1.8617
  168MOL0     H23133   6.254   8.887   6.306  3.9276 -2.9439  0.4619
  168MOL0     H23134   6.189   9.132   6.513  1.8685 -1.4508 -1.2536
  168MOL0     H23135   6.075   9.068   6.387 -1.1125 -0.2620  2.1867
  168MOL0     H23136   6.037   9.311   6.465  1.0127  0.9066  0.3937
  168MOL0     H23137   6.183   9.357   6.393  1.2383 -1.0870 -2.3472
  168MOL0     H23138   6.094   9.299   6.164 -0.3282  3.9672 -0.9062
  168MOL0     H23139   5.971   9.213   6.251  0.7809 -0.2831  2.8796
  168MOL0     H23140   5.866   9.395   6.156  1.2594  1.7672 -2.0105
  168MOL0     H23141   5.865   9.448   6.320  0.5912  2.4254 -0.9633
  168MOL0     H23142   6.120   9.776   6.279  0.6380 -1.0100  0.7590
  168MOL0     H23143   6.057  10.038   6.464  3.7988  1.7018 -1.3750
  168MOL0     H23144   5.992  10.125   6.324 -0.6394  1.3370  1.4300
  168MOL0     H23145   6.137  10.026   6.315  0.3192 -0.7324  0.6934
  168MOL0     H23146   5.842  10.347   6.338  0.4787  0.9031  2.1673
  168MOL0     H23147   5.722  10.590   6.395  0.7130 -0.2358 -1.7004
  168MOL0     H23148   5.312  10.621   6.297  0.9545  0.3737 -0.2857
  168MOL0     H23149   5.284  10.556   6.462 -0.6437  0.1367 -1.4584
  168MOL0     H23150   5.185  10.773   6.421  0.3515 -0.7362 -0.9882
  168MOL0     H23151   5.284  10.763   6.559  0.9309 -1.8816  0.1638
  168MOL0     H23152   5.376  10.856   6.284 -3.2936  0.0225  0.4819
  168MOL0     H23153   5.469  10.848   6.438  0.3879 -1.4099  1.0449
  168MOL0     H23154   5.316  11.018   6.531  0.1617 -1.6247 -0.7987
  168MOL0     H23155   5.210  10.998   6.381 -0.2212  0.7119 -0.6141
  168MOL0     H23156   5.364  11.117   6.252  0.6155 -1.2568 -0.4441
  168MOL0     H23157   5.325  11.212   6.392  2.7716  0.8779  2.0501
  168MOL0     H23158   5.557  11.111   6.497 -0.0477 -1.0518 -0.2628
  168MOL0     H23159   5.553  11.237   6.372 -3.5849  0.6326 -0.5702
  168MOL0     H23160   5.616  11.093   6.185 -0.9145 -2.5112  0.0794
  168MOL0     H23161   5.591  10.956   6.298 -2.9147  0.2397  2.6234
  168MOL0     H23162   5.773  11.198   6.352  0.7933  0.4102 -0.0290
  168MOL0     H23163   5.818  11.062   6.236 -2.9211 -1.2627 -0.9883
  168MOL0     H23164   5.354  10.373   6.379 -0.1470 -2.9291 -4.1499
  168MOL0     H23165   5.461  10.179   6.279  0.1237 -0.8103 -0.1590
  168MOL0     H23166   5.636   9.806   6.255 -0.1375  0.8682 -2.1113
  168MOL0     H23167   5.729   9.600   6.199 -1.0397 -0.4447 -0.5373
  168MOL0     H23168   6.026   8.653   5.250  1.6295  1.2661  1.2578
  168MOL0     H23169   5.960   8.440   5.145  0.2110 -0.1846  0.8066
  168MOL0     H23170   5.887   7.980   5.164  0.7721 -0.2416  0.1558
  168MOL0     H23171   5.868   7.748   5.079  0.8956  0.4147  1.7220
  168MOL0     H23172   5.982   7.452   4.898 -2.1221 -2.5012  1.8137
  168MOL0     H23173   5.963   7.553   5.041 -1.0813 -1.3540  1.1273
  168MOL0     H23174   5.755   7.503   4.809 -0.5157 -0.7307  1.5657
  168MOL0     H23175   5.722   7.609   4.946 -1.1614 -0.4145 -0.0892
  168MOL0     H23176   5.786   7.395   5.103 -0.0949  0.8373  0.5683
  168MOL0     H23177   5.624   7.426   5.047 -1.2011  0.2148 -2.4236
  168MOL0     H23178   5.655   7.301   4.850 -2.4181  1.9091  1.2798
  168MOL0     H23179   5.663   7.201   4.999  2.8125 -0.8403  1.2964
  168MOL0     H23180   6.052   7.142   4.837 -0.9451 -1.1884 -0.3658
  168MOL0     H23181   6.127   7.836   4.762  0.8072 -0.1303  0.6989
  168MOL0     H23182   6.225   8.158   4.837  0.7410  0.3108 -1.9959
  168MOL0     H23183   6.198   8.053   4.714  0.8887  1.3086 -0.3419
  168MOL0     H23184   6.066   8.163   4.753  1.8793 -0.1413 -0.7336
  169MOL0     O23185  10.731  10.255   7.588  0.1684 -1.0429  0.0367
  169MOL0     C23186  10.606  10.245   7.602  0.1114  0.2692 -0.0259
  169MOL0     O23187  10.516  10.342   7.569  0.3694 -0.0469  0.6240
  169MOL0     C23188  10.534  10.426   7.464 -0.7870  0.1109 -0.5726
  169MOL0     C23189  10.609  10.393   7.346  0.5023 -0.4208 -0.4485
  169MOL0     C23190  10.622  10.493   7.245 -0.2304  0.0423 -0.3038
  169MOL0     C23191  10.558  10.617   7.261  0.2996  0.4266  0.2980
  169MOL0     O23192  10.579  10.711   7.159 -0.3500  0.0092  0.3578
  169MOL0     C23193  10.641  10.834   7.189  0.2750 -0.4831 -0.4401
  169MOL0     C23194  10.644  10.934   7.066  0.0949  0.0638  0.1145
  169MOL0     C23195  10.509  10.999   7.036 -0.2047 -0.1384 -0.4971
  169MOL0     C23196  10.434  10.932   6.921 -0.2428  0.7201 -0.4721
  169MOL0     C23197  10.282  10.977   6.931 -0.0922 -0.4565  0.2265
  169MOL0     C23198  10.187  10.887   6.994  0.2743  0.1985 -0.9118
  169MOL0     C23199  10.051  10.945   7.048  0.6296 -0.9725 -0.3206
  169MOL0     C23200   9.954  10.971   6.935 -0.4157  0.2576 -0.5966
  169MOL0     N23201   9.820  11.011   6.989 -0.2529  0.0558 -0.0685
  169MOL0     C23202   9.804  11.126   7.068 -0.8658  0.4825  0.1625
  169MOL0     C23203   9.681  11.118   7.119  0.3571  0.9147 -0.5256
  169MOL0     C23204   9.612  11.218   7.211 -0.1839 -0.4605 -0.3337
  169MOL0     C23205   9.708  11.330   7.262  0.2271 -0.5996  0.4978
  169MOL0     C23206   9.729  11.436   7.146 -0.1633 -0.8372  0.3113
  169MOL0     C23207   9.833  11.541   7.176  0.1965 -0.6751 -0.2801
  169MOL0     O23208   9.961  11.483   7.194  0.5534 -0.1450 -0.4676
  169MOL0     C23209  10.044  11.566   7.256  0.4565 -0.1106  0.3692
  169MOL0     C23210  10.119  11.513   7.365 -0.2124 -0.2658  0.2911
  169MOL0     C23211  10.192  11.596   7.441  0.2690 -0.5122  0.3500
  169MOL0     C23212  10.247  11.528   7.567 -0.2900 -0.7338  0.9241
  169MOL0     C23213  10.202  11.740   7.409 -0.6496  0.7397  0.6781
  169MOL0     C23214  10.266  11.831   7.502  0.7154 -0.3846  0.6150
  169MOL0     O23215  10.274  11.802   7.637  0.4698  0.1902  0.0892
  169MOL0     C23216  10.313  11.882   7.741  0.0586 -1.0239  0.0525
  169MOL0     C23217  10.259  11.873   7.870  0.0782  0.2224  0.6121
  169MOL0     C23218  10.286  11.959   7.976 -0.0874 -0.5203  0.0282
  169MOL0     C23219  10.391  12.054   7.961  0.5340 -0.7289  0.1304
  169MOL0     O23220  10.435  12.136   8.065  0.0440 -0.7838 -0.1698
  169MOL0     C23221  10.386  12.122   8.200 -0.6225  0.2879 -0.0364
  169MOL0     C23222  10.452  12.221   8.293  0.7065  0.8472  0.7850
  169MOL0     C23223  10.601  12.196   8.317 -1.0881 -0.7391 -0.0273
  169MOL0     C23224  10.655  12.250   8.455 -0.5076 -0.0335 -0.1971
  169MOL0     C23225  10.804  12.264   8.441 -0.2330  0.4186 -0.3139
  169MOL0     C23226  10.851  12.412   8.393  1.3366  0.2879  0.0807
  169MOL0     C23227  11.003  12.428   8.359 -0.1962  1.2293 -0.1370
  169MOL0     C23228  11.076  12.559   8.395 -0.4146 -0.1349 -0.2919
  169MOL0    Cl23229  11.040  12.696   8.276  0.3191  0.2568  0.4947
  169MOL0     C23230  10.455  12.051   7.829  0.0920 -1.1879 -0.1934
  169MOL0     C23231  10.416  11.967   7.727  0.8627 -0.3421  0.0588
  169MOL0     O23232  10.296  11.944   7.462 -0.9920 -0.0112 -0.0977
  169MOL0     C23233  10.147  11.782   7.294  0.1387 -0.2315  0.4437
  169MOL0     C23234  10.066  11.702   7.218  0.2843 -1.0975  0.2061
  169MOL0     N23235   9.630  10.991   7.072  0.0151  0.2739  0.6356
  169MOL0     N23236   9.717  10.930   6.992  0.4415 -0.5417  0.1884
  169MOL0     C23237  10.495  10.654   7.380 -0.4460  0.1641  0.8978
  169MOL0     C23238  10.487  10.560   7.477 -0.2321 -0.0403 -0.3913
  169MOL0     C23239  10.566  10.130   7.675 -0.5909  0.4309 -0.5580
  169MOL0     C23240  10.469  10.140   7.778 -0.0431 -0.4097  0.2967
  169MOL0     C23241  10.433  10.028   7.862 -0.7792 -0.1703  0.3355
  169MOL0     C23242  10.493   9.904   7.845 -0.2847  0.3086  0.6185
  169MOL0     O23243  10.461   9.784   7.908  0.6305  0.4929  0.1572
  169MOL0     C23244  10.413   9.786   8.042 -0.0678 -0.0779 -1.3205
  169MOL0     C23245  10.259   9.788   8.053  0.1104 -0.3897 -0.1056
  169MOL0     C23246  10.187   9.658   7.996 -0.3626 -1.2777 -0.3048
  169MOL0     C23247  10.030   9.681   8.010 -1.3401  1.0366 -0.7172
  169MOL0     C23248   9.970   9.580   7.925 -0.5043 -0.1477  0.3633
  169MOL0     C23249   9.897   9.516   7.848  0.5394  0.1149 -0.2235
  169MOL0     C23250  10.590   9.903   7.747  0.6388  0.9909 -0.2972
  169MOL0     C23251  10.623  10.002   7.658  0.4417 -0.2210  0.4574
  169MOL0     C23252  10.717   9.984   7.541  1.0097  0.6078 -0.6733
  169MOL0     H23253  10.655  10.294   7.344 -0.2659 -0.7717 -1.4705
  169MOL0     H23254  10.673  10.476   7.151  0.8321 -0.7947  0.3775
  169MOL0     H23255  10.745  10.806   7.210 -0.0968 -2.2642 -0.7898
  169MOL0     H23256  10.606  10.887   7.277  0.1297  1.8795 -1.8302
  169MOL0     H23257  10.724  11.005   7.089  1.8977 -2.3494  1.7977
  169MOL0     H23258  10.683  10.882   6.978  0.6680 -3.6416  2.3371
  169MOL0     H23259  10.449  10.978   7.125 -0.3873 -3.3466 -1.2415
  169MOL0     H23260  10.533  11.105   7.023  2.8396 -0.6074  0.3847
  169MOL0     H23261  10.487  10.982   6.839 -0.2173  1.6170  0.0797
  169MOL0     H23262  10.436  10.823   6.925 -3.1943  0.3842 -3.3911
  169MOL0     H23263  10.240  11.008   6.834  0.2493 -1.7229 -0.3511
  169MOL0     H23264  10.273  11.064   6.997 -2.1122 -0.5296  0.1300
  169MOL0     H23265  10.147  10.810   6.927 -2.0444  0.3940  0.1412
  169MOL0     H23266  10.239  10.834   7.074 -0.1686  0.0031 -0.7507
  169MOL0     H23267  10.056  11.037   7.107 -3.1156 -0.8575  0.0785
  169MOL0     H23268  10.009  10.870   7.116 -2.1493  0.1141 -0.7087
  169MOL0     H23269   9.994  11.055   6.878  0.3309  0.1594 -0.2349
  169MOL0     H23270   9.951  10.883   6.870  1.6721  1.7282 -2.8354
  169MOL0     H23271   9.873  11.209   7.072 -1.4160  1.1449 -2.2239
  169MOL0     H23272   9.568  11.169   7.298 -1.0664 -1.0416 -1.0935
  169MOL0     H23273   9.533  11.260   7.148 -2.6899 -2.3412  1.3717
  169MOL0     H23274   9.660  11.378   7.348  0.7211  1.0536 -0.1305
  169MOL0     H23275   9.805  11.306   7.306  2.0116 -0.1863 -2.9103
  169MOL0     H23276   9.769  11.392   7.054  0.8124  1.8937 -0.6719
  169MOL0     H23277   9.638  11.491   7.120 -0.2337 -0.4100  1.4147
  169MOL0     H23278   9.822  11.601   7.085 -2.7532 -1.3334 -0.4434
  169MOL0     H23279   9.810  11.608   7.259  1.2378  0.0232 -0.5345
  169MOL0     H23280  10.108  11.407   7.387 -1.4358  0.1474  1.8626
  169MOL0     H23281  10.196  11.548   7.662  1.4169  1.6225  1.4600
  169MOL0     H23282  10.350  11.552   7.594 -0.0397 -1.9562  1.1285
  169MOL0     H23283  10.247  11.419   7.557  0.7764 -0.9591  2.8657
  169MOL0     H23284  10.183  11.796   7.878  0.1009  0.3462  2.4859
  169MOL0     H23285  10.239  11.948   8.073 -1.8259 -0.6210 -0.7961
  169MOL0     H23286  10.277  12.131   8.200 -0.6837  0.4105  2.5001
  169MOL0     H23287  10.422  12.024   8.233  0.3079 -0.7697 -3.8043
  169MOL0     H23288  10.435  12.325   8.263 -0.5956  0.4403  0.0175
  169MOL0     H23289  10.403  12.202   8.389  3.0437 -2.9546  1.3890
  169MOL0     H23290  10.646  12.266   8.247 -4.4354 -0.0008 -1.6499
  169MOL0     H23291  10.631  12.092   8.299  0.1309 -1.1257  3.3815
  169MOL0     H23292  10.624  12.167   8.519  1.5717 -1.9267 -1.4489
  169MOL0     H23293  10.605  12.341   8.489 -3.7372 -0.3653 -3.4035
  169MOL0     H23294  10.839  12.233   8.540 -2.3578 -3.8864 -0.6840
  169MOL0     H23295  10.831  12.197   8.359  1.4170  0.6228  0.0131
  169MOL0     H23296  10.826  12.485   8.470  0.6712  0.4307 -0.2707
  169MOL0     H23297  10.792  12.436   8.305  0.8901 -1.2094 -0.0650
  169MOL0     H23298  11.018  12.410   8.252 -1.5525  3.3390 -0.7512
  169MOL0     H23299  11.051  12.353   8.423 -1.9507 -1.4406 -1.7701
  169MOL0     H23300  11.184  12.556   8.414 -0.5761  1.2473  1.1024
  169MOL0     H23301  11.036  12.581   8.495  1.8035 -1.3643  0.9631
  169MOL0     H23302  10.550  12.102   7.813 -0.7889 -0.2619 -3.1544
  169MOL0     H23303  10.479  11.966   7.639 -0.6241 -2.8926 -1.0821
  169MOL0     H23304  10.159  11.884   7.259 -2.9913  0.2250  0.4007
  169MOL0     H23305  10.023  11.751   7.131 -0.6072 -0.0072  1.2161
  169MOL0     H23306  10.466  10.759   7.390  1.9129  0.9808 -0.2872
  169MOL0     H23307  10.429  10.576   7.567  2.0689 -6.2349  2.8306
  169MOL0     H23308  10.407  10.229   7.781  0.4001 -0.0191 -1.1685
  169MOL0     H23309  10.352  10.035   7.934 -2.7017 -1.5912 -1.5772
  169MOL0     H23310  10.454   9.695   8.087 -2.7545 -0.8067 -0.1789
  169MOL0     H23311  10.449   9.877   8.092  1.8162 -0.9497 -1.0324
  169MOL0     H23312  10.219   9.873   7.997  1.2060  0.6988  0.7179
  169MOL0     H23313  10.226   9.808   8.156  0.4146 -1.8489  0.3027
  169MOL0     H23314  10.224   9.643   7.894  0.1097 -1.1028 -0.1626
  169MOL0     H23315  10.212   9.576   8.064  3.8363 -0.9112 -1.1284
  169MOL0     H23316  10.006   9.784   7.980 -1.4437  0.9709 -0.8598
  169MOL0     H23317  10.001   9.665   8.114 -1.8349 -0.9349 -1.1267
  169MOL0     H23318   9.833   9.448   7.796  2.2334 -2.4224  0.7706
  169MOL0     H23319  10.643   9.809   7.736 -1.1687 -0.4110  2.1099
  169MOL0     H23320  10.815  10.029   7.558  1.2850  0.0047 -0.6471
  169MOL0     H23321  10.726   9.876   7.527 -2.1086  0.2514 -0.6007
  169MOL0     H23322  10.679  10.023   7.446 -1.1480  0.1561 -0.0472
  170MOL0     O23323   3.085  11.109   4.530 -0.8185  0.3254 -0.7596
  170MOL0     C23324   2.979  11.070   4.480 -0.2661  0.1737 -0.2092
  170MOL0     O23325   2.873  11.150   4.448 -0.3790 -0.4123 -0.5421
  170MOL0     C23326   2.881  11.284   4.469  0.5206 -1.7786  0.3499
  170MOL0     C23327   2.878  11.337   4.597 -0.5917  0.7150  0.5573
  170MOL0     C23328   2.894  11.479   4.616  0.8721  0.5909 -0.2680
  170MOL0     C23329   2.905  11.565   4.508  0.1319  0.6375 -0.0236
  170MOL0     O23330   2.914  11.696   4.512  0.1538  0.1076  0.1027
  170MOL0     C23331   2.905  11.781   4.630 -0.8668 -0.7943  0.4574
  170MOL0     C23332   2.891  11.925   4.569  0.6229  0.7933  0.0958
  170MOL0     C23333   3.020  11.990   4.541 -0.6434 -0.8577 -1.2320
  170MOL0     C23334   3.004  12.134   4.494  1.0202  0.5114 -0.2046
  170MOL0     C23335   3.125  12.188   4.431  0.1975  0.1049 -0.5005
  170MOL0     C23336   3.111  12.343   4.429 -0.8424  1.0631 -0.0936
  170MOL0     C23337   3.032  12.388   4.299  1.1324  0.7109 -0.4378
  170MOL0     C23338   3.080  12.522   4.266  0.1789 -0.6888  0.1130
  170MOL0     N23339   3.056  12.623   4.374  0.2270 -0.5954 -0.1896
  170MOL0     C23340   3.134  12.720   4.411 -0.3463  0.7125 -0.7397
  170MOL0     C23341   3.064  12.784   4.507  0.1095 -1.0972  0.2019
  170MOL0     C23342   3.116  12.912   4.579  0.1945  0.3337  0.5626
  170MOL0     C23343   3.138  13.020   4.469  0.5746 -0.7144  0.3313
  170MOL0     C23344   3.126  13.158   4.533  0.0540 -0.6125 -0.3515
  170MOL0     C23345   3.255  13.225   4.574 -0.6780  0.0251  0.2641
  170MOL0     O23346   3.303  13.135   4.669 -0.1480 -0.1648  0.7090
  170MOL0     C23347   3.428  13.160   4.723 -0.0656 -0.0000 -0.3751
  170MOL0     C23348   3.459  13.096   4.847 -0.0167  0.1930  0.0137
  170MOL0     C23349   3.576  13.131   4.913 -0.4141 -0.3306  0.2796
  170MOL0     C23350   3.598  13.063   5.049  0.6676  0.2602  0.6670
  170MOL0     C23351   3.662  13.231   4.857  0.6486  0.3040 -0.0848
  170MOL0     C23352   3.793  13.257   4.921  0.2164  0.0546 -0.1116
  170MOL0     O23353   3.865  13.156   4.981 -0.0367 -0.5442  0.0523
  170MOL0     C23354   3.969  13.178   5.068  1.4148 -0.0173  0.5347
  170MOL0     C23355   4.067  13.072   5.090 -0.0501  0.6433 -0.5665
  170MOL0     C23356   4.152  13.080   5.204 -0.5685  0.7619 -0.3064
  170MOL0     C23357   4.142  13.189   5.290  0.6478 -0.4122 -1.1569
  170MOL0     O23358   4.215  13.198   5.401 -0.4232 -0.5087 -0.7293
  170MOL0     C23359   4.340  13.145   5.405 -1.2206 -0.0539 -0.1291
  170MOL0     C23360   4.422  13.175   5.529  0.1888 -0.5241 -0.4402
  170MOL0     C23361   4.558  13.133   5.500 -0.0209  0.2951  0.0296
  170MOL0     C23362   4.659  13.155   5.618 -0.0548  0.7260 -0.4971
  170MOL0     C23363   4.804  13.124   5.577 -0.2100 -0.8337 -0.3539
  170MOL0     C23364   4.900  13.165   5.691 -0.0852  1.0815  1.2464
  170MOL0     C23365   4.924  13.316   5.689  0.3918 -0.5058  0.4390
  170MOL0     C23366   5.013  13.362   5.794 -1.1250  1.1153  0.1755
  170MOL0    Cl23367   5.177  13.356   5.745  0.1212  0.0986 -0.2627
  170MOL0     C23368   4.041  13.293   5.278 -0.3644  0.7744  0.7593
  170MOL0     C23369   3.960  13.282   5.162  0.2719 -0.1443 -0.3232
  170MOL0     O23370   3.831  13.371   4.908  0.2375 -0.0669  0.1294
  170MOL0     C23371   3.626  13.300   4.739  0.4701  0.3894  0.1658
  170MOL0     C23372   3.506  13.263   4.672 -0.4743 -0.0223  0.7925
  170MOL0     N23373   2.947  12.727   4.527  0.3607  0.6243 -0.1337
  170MOL0     N23374   2.945  12.625   4.449 -0.8163 -0.6500 -0.4471
  170MOL0     C23375   2.892  11.507   4.379 -0.7371  0.8615 -0.4618
  170MOL0     C23376   2.888  11.371   4.364  0.9203 -0.0852  0.5586
  170MOL0     C23377   2.960  10.924   4.440  0.0152 -1.4304 -0.7111
  170MOL0     C23378   2.862  10.890   4.340 -0.8638 -0.6769 -0.0572
  170MOL0     C23379   2.835  10.761   4.298 -0.6717 -0.3685 -0.6890
  170MOL0     C23380   2.916  10.655   4.339  0.1002  0.1615 -0.0322
  170MOL0     O23381   2.890  10.525   4.302  0.0181  0.5993  0.2835
  170MOL0     C23382   2.787  10.494   4.201  0.1798  0.0690  0.9959
  170MOL0     C23383   2.772  10.342   4.181  1.5173 -0.1522 -0.1849
  170MOL0     C23384   2.905  10.265   4.192  0.2154  0.5179 -0.0639
  170MOL0     C23385   2.893  10.111   4.168  0.1326 -0.4300  0.0969
  170MOL0     C23386   2.781  10.049   4.248 -0.1195  0.5417  0.8573
  170MOL0     C23387   2.687   9.993   4.301 -0.7680  0.0078 -0.5498
  170MOL0     C23388   3.018  10.682   4.436 -0.6639 -1.2039  0.3332
  170MOL0     C23389   3.039  10.819   4.488 -0.0480 -0.0819 -0.4125
  170MOL0     C23390   3.158  10.856   4.572 -0.5330  0.0607 -1.0431
  170MOL0     H23391   2.878  11.275   4.687  0.4670 -1.7628 -1.0197
  170MOL0     H23392   2.896  11.525   4.715  0.8806  0.1146 -0.0414
  170MOL0     H23393   2.993  11.788   4.695 -1.8381 -0.2128  1.7486
  170MOL0     H23394   2.815  11.764   4.689 -1.1858 -0.3215  0.1119
  170MOL0     H23395   2.826  11.905   4.483  0.0731 -3.3823  1.2369
  170MOL0     H23396   2.836  11.981   4.646 -1.2993 -0.3353 -0.3839
  170MOL0     H23397   3.074  11.983   4.636 -0.2671 -4.3159 -1.5543
  170MOL0     H23398   3.068  11.926   4.466  0.9126 -3.0967  1.4663
  170MOL0     H23399   2.923  12.146   4.422  0.0693 -0.1037  0.7151
  170MOL0     H23400   2.980  12.183   4.589 -0.4448  0.0135 -0.2880
  170MOL0     H23401   3.134  12.145   4.331  0.7189 -2.3796  0.5347
  170MOL0     H23402   3.208  12.160   4.497 -1.2420 -0.0693  1.3020
  170MOL0     H23403   3.054  12.389   4.510 -2.9533  2.1797 -2.0839
  170MOL0     H23404   3.210  12.391   4.427  0.8253 -2.1134 -0.2817
  170MOL0     H23405   2.926  12.380   4.327  1.3487 -1.1275 -0.0121
  170MOL0     H23406   3.044  12.322   4.213  0.7495 -0.2220  0.1943
  170MOL0     H23407   3.188  12.510   4.254 -0.1666 -1.5284 -2.9300
  170MOL0     H23408   3.021  12.563   4.184 -1.4176  1.3375  2.1432
  170MOL0     H23409   3.238  12.740   4.388  0.1077 -1.2382 -0.5547
  170MOL0     H23410   3.210  12.912   4.636 -0.1450 -1.0266  1.1458
  170MOL0     H23411   3.039  12.953   4.645  1.1645  1.3261  1.1126
  170MOL0     H23412   3.239  13.015   4.429  0.4060  1.4066 -0.4670
  170MOL0     H23413   3.064  13.018   4.389  1.7178  1.0861 -0.8262
  170MOL0     H23414   3.092  13.229   4.458 -0.4202  0.7516  1.1037
  170MOL0     H23415   3.052  13.160   4.614 -1.0248  2.6750 -1.2800
  170MOL0     H23416   3.320  13.246   4.488 -3.6494 -2.4487 -2.8748
  170MOL0     H23417   3.233  13.315   4.632  1.1801  0.6518  0.0855
  170MOL0     H23418   3.387  13.024   4.886  1.5993 -2.1428 -1.0705
  170MOL0     H23419   3.519  12.994   5.080  1.6066 -1.6108 -0.9059
  170MOL0     H23420   3.600  13.142   5.124  2.3466  0.3520  0.5613
  170MOL0     H23421   3.693  13.008   5.050  1.2059  1.1757  0.7801
  170MOL0     H23422   4.069  12.991   5.017  0.7723  0.7210 -0.6398
  170MOL0     H23423   4.202  12.989   5.235 -2.3160  0.4603  1.9555
  170MOL0     H23424   4.346  13.036   5.390  1.0513  0.1772 -1.2563
  170MOL0     H23425   4.392  13.204   5.329 -1.0571  2.1481  1.6072
  170MOL0     H23426   4.414  13.283   5.541 -2.1586 -0.8708  2.5694
  170MOL0     H23427   4.377  13.136   5.621  1.5524 -2.5516 -0.5654
  170MOL0     H23428   4.593  13.199   5.420  1.2648  0.3514  0.6209
  170MOL0     H23429   4.565  13.030   5.464 -0.2092 -0.4716  2.0490
  170MOL0     H23430   4.630  13.084   5.696  1.6082 -0.0566 -0.5627
  170MOL0     H23431   4.641  13.252   5.666 -1.9945  0.7419 -1.1558
  170MOL0     H23432   4.817  13.017   5.559 -0.8410 -0.9815  0.0551
  170MOL0     H23433   4.810  13.180   5.483 -2.6840  0.3336  0.1229
  170MOL0     H23434   4.998  13.126   5.662 -2.1262 -1.5760 -2.9598
  170MOL0     H23435   4.871  13.126   5.790  2.4889 -2.4254  0.8018
  170MOL0     H23436   4.826  13.364   5.702  1.8197  2.4085  1.0613
  170MOL0     H23437   4.970  13.351   5.596  2.8344 -1.7017  1.1144
  170MOL0     H23438   4.995  13.300   5.882 -0.0324 -1.3691 -1.2554
  170MOL0     H23439   5.002  13.466   5.827  4.4200  2.0248  0.0136
  170MOL0     H23440   4.033  13.366   5.358 -0.1420  3.1304 -1.2332
  170MOL0     H23441   3.900  13.371   5.146 -0.7753 -0.4902  1.3528
  170MOL0     H23442   3.699  13.373   4.705  3.2234 -3.5553 -3.3351
  170MOL0     H23443   3.486  13.318   4.581 -1.5457  1.6553  1.9618
  170MOL0     H23444   2.896  11.560   4.284  1.3897 -1.0969 -1.5645
  170MOL0     H23445   2.893  11.325   4.266  3.0361 -0.2945  0.7241
  170MOL0     H23446   2.811  10.972   4.290 -0.7554 -0.4248  0.2384
  170MOL0     H23447   2.769  10.742   4.214  1.3539 -1.5165 -2.0898
  170MOL0     H23448   2.688  10.530   4.232 -1.2841 -1.0971 -1.9290
  170MOL0     H23449   2.807  10.533   4.100 -2.1068  1.4445  0.9844
  170MOL0     H23450   2.707  10.322   4.095 -1.8061 -0.2059  2.1420
  170MOL0     H23451   2.718  10.303   4.267 -2.1497  0.0060 -2.1982
  170MOL0     H23452   2.976  10.305   4.119  0.0300 -0.7887 -0.9877
  170MOL0     H23453   2.947  10.277   4.293  0.9158 -0.0889 -0.2684
  170MOL0     H23454   2.994  10.070   4.179 -0.3297 -1.5534  0.2984
  170MOL0     H23455   2.863  10.087   4.065  0.7249  2.5277 -0.8357
  170MOL0     H23456   2.613   9.930   4.345 -1.7929  1.1291 -0.6220
  170MOL0     H23457   3.078  10.603   4.480 -0.8202 -0.7171  1.4480
  170MOL0     H23458   3.233  10.926   4.534  0.2244 -0.3405 -0.3209
  170MOL0     H23459   3.126  10.905   4.664 -0.1534 -2.4805  0.5370
  170MOL0     H23460   3.217  10.767   4.593 -1.0560 -0.2491 -0.8671
  171MOL0     O23461  11.511   3.126   4.295  0.0724 -0.2950  0.3338
  171MOL0     C23462  11.407   3.107   4.225 -0.2329  0.4064 -0.3467
  171MOL0     O23463  11.377   3.170   4.106 -0.3533  0.0100 -0.0448
  171MOL0     C23464  11.470   3.233   4.026 -0.1519 -1.4258 -0.0172
  171MOL0     C23465  11.409   3.291   3.910 -0.2446 -0.2990  0.5547
  171MOL0     C23466  11.491   3.361   3.819 -0.9811  0.1980 -0.6863
  171MOL0     C23467  11.629   3.382   3.846 -0.4562  0.3638 -0.4663
  171MOL0     O23468  11.700   3.470   3.761  0.7587  0.7163 -0.4548
  171MOL0     C23469  11.829   3.522   3.792  0.7802  0.4384  0.4185
  171MOL0     C23470  11.886   3.614   3.680  0.5833 -0.4030  0.1346
  171MOL0     C23471  12.031   3.642   3.695  0.0637  1.2195  0.3960
  171MOL0     C23472  12.137   3.535   3.657  0.6058  0.1380  0.2910
  171MOL0     C23473  12.123   3.468   3.521  0.0968  0.3640  0.4753
  171MOL0     C23474  12.128   3.577   3.413 -0.2871  0.2626 -0.4834
  171MOL0     C23475  12.109   3.517   3.275 -0.7845  0.1031  0.3293
  171MOL0     C23476  12.208   3.570   3.157 -0.5642 -0.8814  0.6494
  171MOL0     N23477  12.192   3.503   3.027  0.2896  0.8238 -0.0654
  171MOL0     C23478  12.096   3.516   2.923 -0.0269 -0.3438 -0.7952
  171MOL0     C23479  12.131   3.419   2.834 -0.4769 -0.0675 -0.2398
  171MOL0     C23480  12.049   3.374   2.712  0.4304  0.4200  0.4211
  171MOL0     C23481  12.140   3.370   2.590  0.7185  0.0064  1.0131
  171MOL0     C23482  12.221   3.238   2.562 -0.9206 -0.6481  0.1542
  171MOL0     C23483  12.325   3.247   2.454 -1.0245 -0.1053 -0.9185
  171MOL0     O23484  12.391   3.369   2.460 -0.0676 -0.5169  0.9285
  171MOL0     C23485  12.480   3.406   2.358 -0.0803 -0.2576  0.3658
  171MOL0     C23486  12.462   3.378   2.219  0.1353 -0.4677 -0.0437
  171MOL0     C23487  12.563   3.405   2.123 -1.0657  0.5237 -0.3615
  171MOL0     C23488  12.547   3.369   1.986  0.0139  0.5219  0.9462
  171MOL0     C23489  12.667   3.490   2.162 -0.5025 -0.3410 -0.3144
  171MOL0     C23490  12.767   3.545   2.064 -1.2011  0.2138 -0.3325
  171MOL0     O23491  12.840   3.458   1.988 -0.1830 -0.1878  0.6175
  171MOL0     C23492  12.931   3.516   1.905 -0.3988  0.3394  0.3417
  171MOL0     C23493  13.052   3.445   1.882  0.6024 -0.2558  0.1145
  171MOL0     C23494  13.148   3.475   1.781  1.2172  0.2118  0.4254
  171MOL0     C23495  13.115   3.587   1.701  0.1783 -0.4860 -0.6308
  171MOL0     O23496  13.203   3.617   1.598  0.0892 -0.2388  0.3794
  171MOL0     C23497  13.210   3.741   1.529 -1.5895 -1.3335  0.4554
  171MOL0     C23498  13.283   3.846   1.613  0.1594 -0.1940 -0.4716
  171MOL0     C23499  13.320   3.971   1.535  0.0216  0.0730  0.5117
  171MOL0     C23500  13.421   4.040   1.612  0.8735 -0.0753  0.0185
  171MOL0     C23501  13.423   4.196   1.572  0.3782 -0.2031  0.4798
  171MOL0     C23502  13.527   4.266   1.642 -0.7777  0.6950 -0.2140
  171MOL0     C23503  13.516   4.417   1.639 -0.6029 -0.7019  1.0601
  171MOL0     C23504  13.654   4.483   1.675  0.4984  0.6608  0.3027
  171MOL0    Cl23505  13.645   4.658   1.654  0.4725 -0.3173  0.1639
  171MOL0     C23506  12.990   3.652   1.715  1.3794 -0.4646  0.3501
  171MOL0     C23507  12.904   3.625   1.820  0.3176  0.6076 -0.1380
  171MOL0     O23508  12.791   3.663   2.086 -0.1502  0.0359 -0.2588
  171MOL0     C23509  12.682   3.516   2.300  0.1876 -0.3917  0.3836
  171MOL0     C23510  12.590   3.476   2.393  1.2690  0.2569  0.6223
  171MOL0     N23511  12.240   3.343   2.874  0.4007 -0.2172  0.6829
  171MOL0     N23512  12.257   3.385   2.989 -0.1827 -0.3801 -0.5303
  171MOL0     C23513  11.683   3.329   3.970  0.3177 -0.2358  0.6660
  171MOL0     C23514  11.608   3.260   4.052  1.1191 -0.0791  0.3766
  171MOL0     C23515  11.301   3.017   4.276  0.1570  0.8533  0.5475
  171MOL0     C23516  11.169   3.053   4.240  0.8621  0.9681  0.6575
  171MOL0     C23517  11.065   2.970   4.285  0.4369  0.1530 -0.2504
  171MOL0     C23518  11.085   2.844   4.344  0.0681  1.1266 -0.4028
  171MOL0     O23519  10.990   2.754   4.380 -0.1043 -0.3029 -0.2660
  171MOL0     C23520  10.959   2.778   4.520  0.1071  0.8146  0.2673
  171MOL0     C23521  10.920   2.643   4.581  0.4790  0.0232  0.9278
  171MOL0     C23522  10.904   2.656   4.732  0.3163  0.0079 -0.3422
  171MOL0     C23523  10.768   2.715   4.782  0.2649 -0.3466 -0.6130
  171MOL0     C23524  10.757   2.703   4.933 -0.3232 -0.0513  0.3400
  171MOL0     C23525  10.777   2.700   5.050 -0.1962 -0.7077 -0.3580
  171MOL0     C23526  11.214   2.794   4.354  0.2484 -0.1870 -0.2674
  171MOL0     C23527  11.321   2.886   4.327 -0.9106  0.2978 -0.0363
  171MOL0     C23528  11.454   2.821   4.367  0.5364 -0.1829  0.5945
  171MOL0     H23529  11.302   3.276   3.900 -0.2155  1.0121 -4.2575
  171MOL0     H23530  11.447   3.405   3.730 -0.9746  1.3946 -0.1249
  171MOL0     H23531  11.892   3.433   3.781 -1.0709 -1.2014  2.1184
  171MOL0     H23532  11.844   3.558   3.894 -0.6119 -0.7460  1.0768
  171MOL0     H23533  11.868   3.570   3.581 -1.1087 -1.5027  0.8742
  171MOL0     H23534  11.836   3.710   3.691 -3.0415 -2.0133 -0.8387
  171MOL0     H23535  12.060   3.723   3.627 -1.3435  0.3663 -1.3281
  171MOL0     H23536  12.039   3.676   3.798 -2.0741 -1.4137  1.5660
  171MOL0     H23537  12.233   3.588   3.659  3.1823 -3.9840 -0.8461
  171MOL0     H23538  12.124   3.456   3.732 -2.4233 -1.5066 -1.7491
  171MOL0     H23539  12.025   3.420   3.513  1.1729 -2.0458  0.9515
  171MOL0     H23540  12.202   3.396   3.497  1.7578  2.6834 -1.5196
  171MOL0     H23541  12.049   3.648   3.439 -0.7763 -0.9955  1.7669
  171MOL0     H23542  12.223   3.631   3.417 -0.0648 -0.1668  2.9305
  171MOL0     H23543  12.006   3.524   3.238  0.3482  0.4446 -3.1672
  171MOL0     H23544  12.122   3.409   3.283  1.5472  0.2980 -0.1621
  171MOL0     H23545  12.188   3.677   3.148 -0.6126 -0.8957  0.5856
  171MOL0     H23546  12.313   3.562   3.186  0.4447 -0.0130 -2.4163
  171MOL0     H23547  12.012   3.581   2.902 -1.2083 -2.0072 -1.3496
  171MOL0     H23548  11.955   3.428   2.700  0.3790  0.1986 -0.2036
  171MOL0     H23549  12.017   3.270   2.720 -0.2152  0.4934 -0.9585
  171MOL0     H23550  12.071   3.397   2.509  1.7513  0.9161  0.4134
  171MOL0     H23551  12.211   3.452   2.585  1.4002 -0.5639  1.1339
  171MOL0     H23552  12.262   3.197   2.654  1.2373 -1.1933 -0.9990
  171MOL0     H23553  12.150   3.172   2.511 -2.2827  0.7671  0.1303
  171MOL0     H23554  12.406   3.174   2.462  1.8417  2.7281 -1.8514
  171MOL0     H23555  12.279   3.236   2.355 -1.6816  2.4167 -0.9614
  171MOL0     H23556  12.371   3.331   2.184 -1.8784  2.4769  0.8252
  171MOL0     H23557  12.457   3.308   1.979 -0.8214  1.7808  0.0971
  171MOL0     H23558  12.633   3.311   1.953 -1.3701 -2.2917  1.9980
  171MOL0     H23559  12.530   3.462   1.930 -1.3983  1.0978  2.2555
  171MOL0     H23560  13.074   3.358   1.942 -0.5091 -1.3308 -0.9832
  171MOL0     H23561  13.240   3.417   1.782 -1.8639 -5.4493 -0.2813
  171MOL0     H23562  13.271   3.725   1.439  2.2259  2.8479  1.8894
  171MOL0     H23563  13.111   3.774   1.497 -2.4628 -3.4419  0.8809
  171MOL0     H23564  13.211   3.877   1.690 -0.4340  1.1114 -1.5126
  171MOL0     H23565  13.370   3.807   1.666 -1.4712  0.7825  3.2673
  171MOL0     H23566  13.228   4.027   1.513 -0.7870 -0.7178  1.7244
  171MOL0     H23567  13.365   3.951   1.437 -0.5673 -0.8808  0.4234
  171MOL0     H23568  13.518   3.994   1.589 -0.5754 -1.2338 -5.1042
  171MOL0     H23569  13.404   4.036   1.720  1.2950  0.6183  0.1207
  171MOL0     H23570  13.437   4.196   1.463  1.1637 -2.1785  0.5249
  171MOL0     H23571  13.336   4.257   1.597  1.5053  2.7327 -2.1144
  171MOL0     H23572  13.620   4.228   1.600 -1.2929 -3.9044  2.1067
  171MOL0     H23573  13.530   4.247   1.750  3.9219 -0.1275 -0.3134
  171MOL0     H23574  13.435   4.450   1.705 -1.2921  0.9951 -0.5308
  171MOL0     H23575  13.495   4.449   1.536 -1.8614 -1.3040  1.1110
  171MOL0     H23576  13.734   4.441   1.613  0.8942 -2.4670  2.6813
  171MOL0     H23577  13.682   4.469   1.780  2.0617 -0.0521 -0.1797
  171MOL0     H23578  12.966   3.722   1.636  5.1140  0.3737 -0.2593
  171MOL0     H23579  12.806   3.672   1.818 -0.1303 -0.3251 -0.1879
  171MOL0     H23580  12.756   3.588   2.335 -0.5273  1.4783 -1.7149
  171MOL0     H23581  12.623   3.503   2.493  5.8397 -3.8622  0.5976
  171MOL0     H23582  11.786   3.351   3.994  0.4701  0.7489 -0.7534
  171MOL0     H23583  11.658   3.215   4.137  1.1420 -0.3269  0.2341
  171MOL0     H23584  11.146   3.138   4.177  1.6572 -1.4947 -3.3516
  171MOL0     H23585  10.965   3.011   4.277  0.2634  0.3528  2.1437
  171MOL0     H23586  11.040   2.825   4.576  1.3186 -0.6571 -0.1941
  171MOL0     H23587  10.862   2.829   4.525 -1.5691 -2.1380  0.0462
  171MOL0     H23588  11.005   2.577   4.560 -0.4748 -0.4717 -1.9213
  171MOL0     H23589  10.835   2.593   4.536  2.0988 -0.5073 -1.7995
  171MOL0     H23590  10.903   2.555   4.774 -1.5693  0.2403  0.2581
  171MOL0     H23591  10.982   2.714   4.783 -1.0476  2.2530 -0.6731
  171MOL0     H23592  10.690   2.663   4.727  0.6475 -2.7508  1.0041
  171MOL0     H23593  10.761   2.820   4.749 -0.6000 -0.4047 -0.6469
  171MOL0     H23594  10.765   2.711   5.156  0.8711  2.7670 -0.4675
  171MOL0     H23595  11.219   2.692   4.391  2.1043 -0.0752 -0.0700
  171MOL0     H23596  11.494   2.756   4.288  1.5379 -0.7423  1.5311
  171MOL0     H23597  11.533   2.894   4.382  1.0881 -0.1789 -1.9031
  171MOL0     H23598  11.434   2.772   4.463 -0.9956 -2.0272 -0.5684
  172MOL0     O23599   7.012   7.988   2.041 -0.7735  0.0670 -1.0294
  172MOL0     C23600   7.076   7.918   2.113 -0.7104 -0.2340 -0.1070
  172MOL0     O23601   7.163   7.813   2.058 -0.1460 -0.7941 -0.1330
  172MOL0     C23602   7.156   7.785   1.921 -0.1832 -0.2578  0.9560
  172MOL0     C23603   7.121   7.658   1.890  0.0422 -0.7318 -0.9300
  172MOL0     C23604   7.106   7.623   1.759  0.1886  0.2720  0.3377
  172MOL0     C23605   7.148   7.714   1.646 -0.1780 -0.1447 -1.3376
  172MOL0     O23606   7.148   7.673   1.518  1.1206 -0.1275 -0.7475
  172MOL0     C23607   7.012   7.625   1.476 -0.5152 -0.2864  1.3141
  172MOL0     C23608   7.011   7.648   1.323 -0.9231  0.1251 -0.1547
  172MOL0     C23609   7.059   7.790   1.273 -0.2896 -0.2428 -0.5014
  172MOL0     C23610   6.971   7.903   1.332  0.6605  0.5888  0.5970
  172MOL0     C23611   6.965   8.022   1.252 -0.3337  0.6469 -1.1905
  172MOL0     C23612   6.865   8.031   1.132 -0.8700 -0.4349  0.0773
  172MOL0     C23613   6.897   8.169   1.062 -0.3627  0.3083 -0.0023
  172MOL0     C23614   6.849   8.276   1.157 -0.7632  0.4986 -0.2654
  172MOL0     N23615   6.846   8.410   1.089  0.0386 -0.0224 -0.1095
  172MOL0     C23616   6.823   8.532   1.158 -0.0967 -0.5686  0.3380
  172MOL0     C23617   6.825   8.622   1.062 -0.5562  0.2287 -0.2966
  172MOL0     C23618   6.840   8.767   1.086  0.2977  0.1835  0.4600
  172MOL0     C23619   6.975   8.833   1.046  0.2364 -0.2567  0.7499
  172MOL0     C23620   7.013   8.950   1.141 -0.1138 -0.9405 -0.1356
  172MOL0     C23621   6.943   9.081   1.120 -0.1755 -0.4669 -0.0171
  172MOL0     O23622   6.973   9.166   1.221 -0.1921  0.3652  0.9777
  172MOL0     C23623   6.900   9.283   1.236 -0.5380  0.3622  0.2977
  172MOL0     C23624   6.805   9.339   1.143  0.7786 -0.2961  0.6107
  172MOL0     C23625   6.742   9.463   1.181  0.8621 -0.2969 -0.3779
  172MOL0     C23626   6.657   9.527   1.075 -0.5930 -0.2987  0.0621
  172MOL0     C23627   6.775   9.525   1.301 -0.2504 -0.1388  0.5144
  172MOL0     C23628   6.730   9.666   1.339  0.0434 -0.2006 -0.0460
  172MOL0     O23629   6.733   9.700   1.472  0.6189  0.2373 -0.4293
  172MOL0     C23630   6.697   9.819   1.542  0.3627 -0.4203 -0.7499
  172MOL0     C23631   6.716   9.834   1.681 -0.3068  0.3777 -0.2567
  172MOL0     C23632   6.703   9.961   1.747 -0.1957  0.9434  0.5423
  172MOL0     C23633   6.671  10.074   1.675 -0.1143 -0.5107 -0.2706
  172MOL0     O23634   6.638  10.191   1.737  0.4632 -0.3222  0.5478
  172MOL0     C23635   6.686  10.212   1.867  0.1822  0.4147  0.4106
  172MOL0     C23636   6.672  10.351   1.913  0.3866  0.3382  0.1859
  172MOL0     C23637   6.737  10.375   2.051 -0.0316  0.2317 -0.4771
  172MOL0     C23638   6.641  10.455   2.132  0.1047  0.6546 -1.6954
  172MOL0     C23639   6.540  10.376   2.208  1.0358  0.9303 -1.2447
  172MOL0     C23640   6.427  10.459   2.278 -0.6650  0.5560 -1.0358
  172MOL0     C23641   6.491  10.580   2.351  0.5331 -0.4985 -0.6660
  172MOL0     C23642   6.387  10.646   2.443 -0.6801  0.2158  0.4570
  172MOL0    Cl23643   6.301  10.565   2.581  0.0227 -0.0624 -0.1219
  172MOL0     C23644   6.645  10.059   1.531 -0.0722 -0.3382 -0.6046
  172MOL0     C23645   6.655   9.933   1.476  0.0633 -0.7149  0.0374
  172MOL0     O23646   6.724   9.746   1.245 -0.1328 -0.5563  0.5458
  172MOL0     C23647   6.848   9.455   1.396 -0.2104 -0.6465  0.6423
  172MOL0     C23648   6.920   9.340   1.362  0.1506  0.3572  0.2963
  172MOL0     N23649   6.848   8.565   0.935 -0.1720  0.7332 -0.6098
  172MOL0     N23650   6.875   8.440   0.955 -0.3232  0.4131 -0.0547
  172MOL0     C23651   7.200   7.844   1.682  0.4676 -0.0674 -0.3698
  172MOL0     C23652   7.202   7.876   1.821  0.6214  0.6462 -0.4180
  172MOL0     C23653   7.085   7.932   2.271 -1.9217  0.4284  0.2671
  172MOL0     C23654   7.203   7.883   2.328 -0.9757 -0.2057  0.1810
  172MOL0     C23655   7.215   7.889   2.462 -0.3051  1.2361 -0.8314
  172MOL0     C23656   7.118   7.950   2.547 -0.5794 -0.0761 -0.3923
  172MOL0     O23657   7.141   7.950   2.683 -0.1544 -0.1723 -0.3629
  172MOL0     C23658   7.141   8.076   2.741  0.0387 -0.4315  0.2387
  172MOL0     C23659   7.072   8.089   2.880  0.3363  0.8657 -0.9685
  172MOL0     C23660   7.163   8.031   2.993  0.8044 -0.2682 -0.3857
  172MOL0     C23661   7.096   8.052   3.133 -0.0122 -0.9378  0.6565
  172MOL0     C23662   7.082   8.190   3.174 -0.2478 -0.9565 -0.7694
  172MOL0     C23663   7.080   8.312   3.189  1.0986 -0.0501 -0.5947
  172MOL0     C23664   7.009   8.013   2.493  0.0427 -0.6272  0.1938
  172MOL0     C23665   7.001   8.016   2.350 -0.0554 -0.3224 -0.4158
  172MOL0     C23666   6.875   8.082   2.281 -0.3214  0.4017  0.0026
  172MOL0     H23667   7.085   7.597   1.973  1.7768 -0.8588 -0.2244
  172MOL0     H23668   7.048   7.534   1.735  0.1291  0.8582 -1.8730
  172MOL0     H23669   6.934   7.688   1.519  2.3851  1.2843  4.7812
  172MOL0     H23670   6.980   7.522   1.490 -0.9345 -1.0124 -3.4606
  172MOL0     H23671   7.069   7.567   1.278 -2.3668  0.6506 -3.2579
  172MOL0     H23672   6.915   7.618   1.280 -0.0596 -2.8670 -0.2750
  172MOL0     H23673   7.162   7.814   1.300 -0.9536 -0.5832  2.6168
  172MOL0     H23674   7.063   7.780   1.164 -0.4471 -2.6649 -0.3342
  172MOL0     H23675   6.872   7.862   1.353  1.2061 -1.7815 -1.1160
  172MOL0     H23676   7.009   7.926   1.432  2.6073 -1.7721  0.4874
  172MOL0     H23677   7.067   8.044   1.221  1.2960 -0.8845  2.5540
  172MOL0     H23678   6.939   8.108   1.315 -0.5559  0.3831 -0.9173
  172MOL0     H23679   6.879   7.951   1.058  0.2984  1.9139 -2.4257
  172MOL0     H23680   6.764   8.020   1.172 -1.2069 -2.3309 -1.1369
  172MOL0     H23681   6.836   8.176   0.972 -2.3123  0.8760  1.3047
  172MOL0     H23682   7.003   8.184   1.037  0.8504  0.7178  4.5252
  172MOL0     H23683   6.756   8.245   1.206 -0.8707 -0.5902 -1.1064
  172MOL0     H23684   6.917   8.289   1.242 -1.3769 -0.1134  0.3344
  172MOL0     H23685   6.819   8.557   1.264 -2.0721 -1.3725  0.4933
  172MOL0     H23686   6.814   8.779   1.191 -2.7104 -1.8503  0.0885
  172MOL0     H23687   6.759   8.815   1.029  0.9246 -0.8600 -1.3762
  172MOL0     H23688   7.049   8.756   1.065 -0.7925 -3.0362 -4.4927
  172MOL0     H23689   6.981   8.867   0.942  0.2969  0.9819  1.1382
  172MOL0     H23690   7.003   8.913   1.244  2.1729 -0.5886  0.2830
  172MOL0     H23691   7.118   8.976   1.123 -0.8773  2.2167 -0.5432
  172MOL0     H23692   6.962   9.126   1.022 -3.9767  2.4080  0.3460
  172MOL0     H23693   6.837   9.055   1.112 -0.9500  2.5367 -0.6453
  172MOL0     H23694   6.785   9.296   1.046  1.0439 -4.1050  2.0855
  172MOL0     H23695   6.597   9.609   1.117  0.4422  1.0427 -0.9664
  172MOL0     H23696   6.595   9.453   1.023 -0.2200 -1.2603  0.9569
  172MOL0     H23697   6.710   9.582   0.996 -1.2577  1.3008  0.6765
  172MOL0     H23698   6.759   9.751   1.737  1.3138  1.5847  0.3655
  172MOL0     H23699   6.717   9.961   1.855 -1.6577 -0.9711  0.7858
  172MOL0     H23700   6.619  10.148   1.925 -0.7040 -0.2436 -1.2656
  172MOL0     H23701   6.790  10.180   1.872  0.0251 -0.4333 -1.0835
  172MOL0     H23702   6.724  10.426   1.853  0.6905  3.0505  3.5147
  172MOL0     H23703   6.564  10.370   1.908  0.0186 -1.8617 -1.6443
  172MOL0     H23704   6.822  10.442   2.036  0.7101 -0.1977  1.5824
  172MOL0     H23705   6.759  10.281   2.101  1.3275  0.0014 -1.4581
  172MOL0     H23706   6.596  10.530   2.066  0.3038  1.5253 -0.8718
  172MOL0     H23707   6.696  10.512   2.208 -2.0566 -0.9706  1.3172
  172MOL0     H23708   6.486  10.304   2.147 -1.0478 -3.1479  4.5080
  172MOL0     H23709   6.591  10.314   2.282  0.9766  0.9616 -1.1774
  172MOL0     H23710   6.376  10.395   2.351 -2.0852 -0.9499 -3.2355
  172MOL0     H23711   6.355  10.501   2.207 -1.8193 -0.7326 -0.6697
  172MOL0     H23712   6.517  10.654   2.275 -1.7009  0.1744 -0.8483
  172MOL0     H23713   6.580  10.551   2.408 -0.1386 -0.4987  0.3881
  172MOL0     H23714   6.307  10.691   2.385 -1.4308 -1.1455  0.3964
  172MOL0     H23715   6.436  10.730   2.492 -1.0473 -0.0972  1.4015
  172MOL0     H23716   6.624  10.150   1.476  0.4189 -1.7237 -3.2322
  172MOL0     H23717   6.648   9.918   1.369  1.6282 -1.1186 -0.0334
  172MOL0     H23718   6.870   9.502   1.492  0.3126  0.2426  0.1050
  172MOL0     H23719   6.987   9.299   1.437  1.9233  0.5347 -1.1040
  172MOL0     H23720   7.247   7.907   1.607 -1.9611  0.6836 -1.3405
  172MOL0     H23721   7.241   7.974   1.845 -0.7477  2.0177 -3.3063
  172MOL0     H23722   7.277   7.826   2.272  0.2816  1.5687 -0.0622
  172MOL0     H23723   7.291   7.842   2.525 -0.7584  3.4330  1.5451
  172MOL0     H23724   7.242   8.112   2.761 -1.3393  3.3701  1.1656
  172MOL0     H23725   7.101   8.162   2.686  1.8527  2.9622  3.8025
  172MOL0     H23726   6.972   8.046   2.865  0.6699 -1.7166  2.7457
  172MOL0     H23727   7.058   8.198   2.878 -0.8781  0.7395 -0.5358
  172MOL0     H23728   7.195   7.929   2.970  4.9878  0.6049  0.6361
  172MOL0     H23729   7.257   8.088   2.998  2.1895 -2.5462  1.8279
  172MOL0     H23730   7.163   7.997   3.200  0.2736 -2.6725 -0.9453
  172MOL0     H23731   6.995   8.009   3.128 -2.5728  3.8364  3.6837
  172MOL0     H23732   7.058   8.415   3.206  3.5394  0.6223 -1.1621
  172MOL0     H23733   6.931   8.059   2.554 -2.0813 -2.3739 -1.0691
  172MOL0     H23734   6.786   8.090   2.344 -0.8537 -0.8063 -0.5717
  172MOL0     H23735   6.895   8.187   2.255  1.6572  0.3739  1.2226
  172MOL0     H23736   6.839   8.014   2.204 -1.5060 -1.7921  2.3351
  173MOL0     O23737   4.728   2.801   0.778  0.2479 -0.2552  0.7711
  173MOL0     C23738   4.819   2.874   0.823 -1.2607  0.0206 -0.9443
  173MOL0     O23739   4.890   2.852   0.945 -0.6628  1.3055  0.2566
  173MOL0     C23740   4.870   2.735   1.015  0.3433 -0.7493  0.2292
  173MOL0     C23741   4.985   2.681   1.062 -0.9083  0.9706  0.1407
  173MOL0     C23742   4.977   2.568   1.148 -0.2773 -0.8685  0.7148
  173MOL0     C23743   4.856   2.510   1.185 -0.3952 -0.9499  0.1619
  173MOL0     O23744   4.839   2.393   1.257 -0.1507 -0.6765 -0.6659
  173MOL0     C23745   4.897   2.392   1.386 -0.9551  0.3125  0.0189
  173MOL0     C23746   5.029   2.303   1.402  0.1307 -1.9473  0.0737
  173MOL0     C23747   5.039   2.177   1.314  0.1041 -0.3771 -0.8024
  173MOL0     C23748   5.172   2.113   1.295  0.1208 -0.1603 -0.2478
  173MOL0     C23749   5.157   2.017   1.174  0.3573 -0.3805 -0.6475
  173MOL0     C23750   5.292   1.947   1.167  1.2468 -0.7890  0.1331
  173MOL0     C23751   5.353   1.875   1.291  0.2051 -0.7126 -0.4273
  173MOL0     C23752   5.499   1.816   1.289 -0.3228  0.4765 -0.3742
  173MOL0     N23753   5.513   1.681   1.214  0.0176  0.2245  0.3133
  173MOL0     C23754   5.411   1.591   1.204 -0.0881 -0.7962  0.2261
  173MOL0     C23755   5.481   1.486   1.151  0.1949  0.0615 -0.4550
  173MOL0     C23756   5.438   1.342   1.169  0.3953  0.0733 -0.3770
  173MOL0     C23757   5.509   1.259   1.290  0.9085  0.1796  0.1467
  173MOL0     C23758   5.480   1.112   1.296 -0.0631 -1.1933 -0.8671
  173MOL0     C23759   5.562   1.044   1.408 -0.5543  0.4437  0.7903
  173MOL0     O23760   5.570   1.111   1.533  0.3820  0.4086 -0.1388
  173MOL0     C23761   5.691   1.140   1.585 -0.3749 -1.1921 -0.6879
  173MOL0     C23762   5.823   1.129   1.531 -0.1006 -0.1415 -0.8252
  173MOL0     C23763   5.944   1.184   1.595  0.0058 -0.8675 -0.2464
  173MOL0     C23764   6.070   1.166   1.524  0.1547 -0.4754 -1.3066
  173MOL0     C23765   5.928   1.240   1.730  0.2980 -0.9422 -0.2636
  173MOL0     C23766   6.031   1.297   1.817 -1.0940 -0.3760  1.0027
  173MOL0     O23767   5.985   1.363   1.927  0.1993  0.4781 -0.3372
  173MOL0     C23768   6.088   1.435   1.996  0.1074 -0.4864 -0.5119
  173MOL0     C23769   6.169   1.378   2.088 -0.3661  0.4682 -0.3029
  173MOL0     C23770   6.277   1.455   2.137 -0.9212 -0.7392  0.0841
  173MOL0     C23771   6.280   1.600   2.118 -0.3780  0.9927  0.6338
  173MOL0     O23772   6.375   1.673   2.196  0.7114 -0.3688  0.2057
  173MOL0     C23773   6.360   1.813   2.201  1.2930  0.2558  0.0400
  173MOL0     C23774   6.448   1.878   2.311  0.6346 -0.4468  0.4753
  173MOL0     C23775   6.422   2.034   2.313  0.7096 -0.3897 -0.3493
  173MOL0     C23776   6.441   2.096   2.452 -0.2602 -0.0953 -0.4791
  173MOL0     C23777   6.575   2.185   2.457  0.1175  1.2636 -0.5782
  173MOL0     C23778   6.692   2.092   2.462 -0.2968  0.2161  0.3547
  173MOL0     C23779   6.821   2.169   2.498  0.4284 -0.9811 -0.3976
  173MOL0     C23780   6.862   2.275   2.402  0.3039  0.5188  0.8109
  173MOL0    Cl23781   7.019   2.335   2.459  0.0866  0.3278  0.3796
  173MOL0     C23782   6.180   1.654   2.031 -1.0519  0.1757  1.0761
  173MOL0     C23783   6.099   1.564   1.965 -0.4467 -0.8566 -1.4341
  173MOL0     O23784   6.153   1.285   1.784 -0.5157 -0.4932 -0.4345
  173MOL0     C23785   5.794   1.253   1.773 -0.0056  0.1963 -0.8715
  173MOL0     C23786   5.683   1.205   1.704 -0.1899  0.1147  0.0801
  173MOL0     N23787   5.605   1.518   1.121  0.3098 -0.2459 -0.5446
  173MOL0     N23788   5.626   1.639   1.142  0.5584 -0.0093 -0.6574
  173MOL0     C23789   4.739   2.561   1.126 -0.8196  1.0770 -0.1380
  173MOL0     C23790   4.752   2.669   1.040  1.7285  0.8808 -0.5302
  173MOL0     C23791   4.840   3.011   0.762 -0.2481  0.1718 -0.1039
  173MOL0     C23792   4.731   3.084   0.730 -0.2172 -0.5579  0.0459
  173MOL0     C23793   4.753   3.211   0.682  0.9636  0.1368  0.8462
  173MOL0     C23794   4.881   3.269   0.674  0.3893  0.0137 -0.0453
  173MOL0     O23795   4.906   3.392   0.627  0.0219 -0.6815 -0.2561
  173MOL0     C23796   4.924   3.482   0.734 -1.1597 -0.5376  0.0591
  173MOL0     C23797   4.807   3.562   0.766  0.1462  0.7011 -0.4889
  173MOL0     C23798   4.847   3.700   0.802 -0.4521  0.2464  0.6621
  173MOL0     C23799   4.732   3.806   0.810 -0.3832 -0.1093  0.2915
  173MOL0     C23800   4.776   3.943   0.842  0.7959  0.0219 -0.0852
  173MOL0     C23801   4.818   4.055   0.861  0.6382 -0.2660 -0.5529
  173MOL0     C23802   4.996   3.179   0.700  0.5254 -0.1620 -0.3791
  173MOL0     C23803   4.977   3.055   0.748  0.2134  0.0856 -0.0165
  173MOL0     C23804   5.096   2.967   0.774 -0.7057 -0.1586  0.1300
  173MOL0     H23805   5.075   2.736   1.036 -1.7292  0.7566 -3.7022
  173MOL0     H23806   5.071   2.519   1.170  0.5070 -0.3203 -1.1508
  173MOL0     H23807   4.822   2.336   1.443  0.3663 -1.6377 -0.0635
  173MOL0     H23808   4.907   2.496   1.421 -3.1314  0.3310  0.7450
  173MOL0     H23809   5.115   2.370   1.388  0.3441 -1.8428  1.6798
  173MOL0     H23810   5.023   2.276   1.508 -0.4412  1.5025  1.0582
  173MOL0     H23811   4.971   2.107   1.362 -0.6873 -0.0660 -1.4361
  173MOL0     H23812   4.993   2.207   1.219  0.7219  1.4531 -0.5655
  173MOL0     H23813   5.243   2.193   1.274 -0.7386  0.8438  0.5795
  173MOL0     H23814   5.194   2.063   1.390  0.0466 -0.7577 -0.5382
  173MOL0     H23815   5.142   2.079   1.084  0.5464  1.3779  0.4859
  173MOL0     H23816   5.075   1.945   1.178 -0.9358  1.0754  0.2970
  173MOL0     H23817   5.281   1.883   1.079  0.7165 -0.5664  0.0338
  173MOL0     H23818   5.367   2.025   1.145  0.2087  1.4945  3.7840
  173MOL0     H23819   5.279   1.797   1.313  1.2250 -1.6251 -0.1303
  173MOL0     H23820   5.352   1.944   1.376  2.5004  1.2371 -1.8559
  173MOL0     H23821   5.577   1.883   1.252 -0.5277  0.6528 -0.4871
  173MOL0     H23822   5.525   1.772   1.386  1.1609 -2.8531 -2.1160
  173MOL0     H23823   5.309   1.591   1.241  1.3803  2.1971  5.3121
  173MOL0     H23824   5.478   1.284   1.085  1.2276 -2.4703  1.6430
  173MOL0     H23825   5.330   1.326   1.178  0.4595  0.8243  3.4386
  173MOL0     H23826   5.614   1.283   1.270  0.2899  3.5042  0.3270
  173MOL0     H23827   5.468   1.311   1.377  0.0570  2.9905 -1.7754
  173MOL0     H23828   5.372   1.102   1.305 -0.2625  0.7821 -0.5460
  173MOL0     H23829   5.509   1.057   1.206  1.0097 -1.8395 -0.1467
  173MOL0     H23830   5.520   0.943   1.414 -0.6378  0.3485 -0.9374
  173MOL0     H23831   5.656   1.014   1.361 -1.4846 -1.5828  0.0835
  173MOL0     H23832   5.824   1.079   1.434  0.8133 -3.5576  0.8037
  173MOL0     H23833   6.129   1.090   1.575 -1.2486  0.0980  1.3555
  173MOL0     H23834   6.133   1.252   1.501  1.4841 -1.1806 -0.4220
  173MOL0     H23835   6.049   1.130   1.423  1.2486  2.9509 -2.9212
  173MOL0     H23836   6.162   1.273   2.115  1.5207  0.9854  2.5629
  173MOL0     H23837   6.357   1.415   2.199  0.6939 -0.7999 -1.9475
  173MOL0     H23838   6.405   1.843   2.106 -0.0605 -1.2950 -1.1581
  173MOL0     H23839   6.253   1.834   2.206  0.8943 -1.7074  0.6476
  173MOL0     H23840   6.413   1.834   2.404  0.5171  0.6818  0.9788
  173MOL0     H23841   6.549   1.857   2.275  1.4978  0.5256  2.2308
  173MOL0     H23842   6.320   2.045   2.276 -0.2037  0.0856  2.1019
  173MOL0     H23843   6.483   2.083   2.236 -2.0769  3.7731 -0.2580
  173MOL0     H23844   6.435   2.019   2.528  0.6030  1.1329  0.8881
  173MOL0     H23845   6.345   2.146   2.467 -0.4298 -0.4678 -0.3416
  173MOL0     H23846   6.575   2.252   2.370 -1.1216  0.9672 -0.8288
  173MOL0     H23847   6.563   2.239   2.551 -1.9338 -0.8240  0.4762
  173MOL0     H23848   6.709   2.030   2.374 -0.4310  2.4261 -1.3047
  173MOL0     H23849   6.669   2.011   2.532  0.6485 -5.2755 -4.9452
  173MOL0     H23850   6.905   2.103   2.521  0.7207 -0.3741  0.3288
  173MOL0     H23851   6.807   2.218   2.595  1.5882  0.1708 -0.7739
  173MOL0     H23852   6.787   2.354   2.401 -1.3406 -0.9204  2.7209
  173MOL0     H23853   6.880   2.240   2.300 -1.7855 -2.0671  1.2317
  173MOL0     H23854   6.189   1.760   2.008 -1.2045  0.8436  3.7277
  173MOL0     H23855   6.028   1.610   1.897  0.0417 -1.7425 -2.5768
  173MOL0     H23856   5.770   1.302   1.867  0.0072 -0.8895 -0.2873
  173MOL0     H23857   5.588   1.188   1.753 -1.0186  1.8194 -0.8367
  173MOL0     H23858   4.648   2.505   1.145  0.8255 -0.8326  2.8448
  173MOL0     H23859   4.656   2.715   1.020 -0.2158 -0.4387  4.4406
  173MOL0     H23860   4.627   3.056   0.741 -1.7141  4.6205  2.1370
  173MOL0     H23861   4.657   3.253   0.653  0.4664 -0.9278  0.8853
  173MOL0     H23862   4.968   3.442   0.825  0.7444 -0.4843 -0.7986
  173MOL0     H23863   5.008   3.541   0.698 -1.3770  0.5260  1.2261
  173MOL0     H23864   4.765   3.512   0.854  0.3877  0.2276 -0.6385
  173MOL0     H23865   4.728   3.563   0.689 -0.9854  2.6332  0.6184
  173MOL0     H23866   4.912   3.701   0.890 -1.2965  3.2960  1.3540
  173MOL0     H23867   4.926   3.722   0.729  0.3085 -1.3345  0.9439
  173MOL0     H23868   4.672   3.784   0.899 -1.7756  1.3503 -0.2394
  173MOL0     H23869   4.666   3.799   0.723  1.3567 -0.6546 -1.0368
  173MOL0     H23870   4.848   4.154   0.888  0.2982 -0.5321  0.8732
  173MOL0     H23871   5.098   3.217   0.702 -0.4767  3.0427 -2.5736
  173MOL0     H23872   5.130   2.964   0.878  1.3256 -0.9297 -0.5108
  173MOL0     H23873   5.086   2.865   0.736 -0.0091  0.3098 -1.4125
  173MOL0     H23874   5.172   3.017   0.713 -0.7203  1.2439  1.1991
  174MOL0     O23875   9.734   8.143   3.029  0.3854  0.0447 -0.2504
  174MOL0     C23876   9.719   8.226   2.945  0.6834 -0.4580 -0.3092
  174MOL0     O23877   9.770   8.348   2.957  0.1363 -0.2015 -0.3746
  174MOL0     C23878   9.845   8.391   3.070 -0.5258  0.4303 -0.1685
  174MOL0     C23879   9.940   8.488   3.053 -1.2073 -0.5341 -0.0415
  174MOL0     C23880  10.001   8.554   3.167 -0.2908 -0.8347  0.4157
  174MOL0     C23881   9.983   8.516   3.295 -0.2383 -0.0414 -0.3741
  174MOL0     O23882  10.034   8.593   3.391 -0.3497  0.7778 -0.4917
  174MOL0     C23883  10.018   8.560   3.529 -0.5189  0.4381  0.6369
  174MOL0     C23884  10.112   8.639   3.620  0.8004 -0.1266 -0.4412
  174MOL0     C23885  10.255   8.579   3.625 -0.7604 -0.1734 -0.6776
  174MOL0     C23886  10.343   8.682   3.693 -0.3271  0.0644 -0.4316
  174MOL0     C23887  10.491   8.637   3.692 -0.0643  0.2455 -0.6964
  174MOL0     C23888  10.525   8.546   3.818 -0.1746 -0.3627 -0.6924
  174MOL0     C23889  10.570   8.411   3.765 -0.7152 -0.6582  0.9547
  174MOL0     C23890  10.728   8.398   3.748 -0.4330  0.1584  0.3250
  174MOL0     N23891  10.813   8.373   3.867  0.4674  1.1652  0.0303
  174MOL0     C23892  10.951   8.367   3.875  0.0745  0.2703 -0.9508
  174MOL0     C23893  10.977   8.377   4.006 -0.1970  0.2736 -0.5515
  174MOL0     C23894  11.113   8.390   4.079  0.1544 -0.5797  0.1633
  174MOL0     C23895  11.191   8.521   4.057  0.0703  0.2638 -0.2071
  174MOL0     C23896  11.178   8.619   4.172  1.1142 -0.9774  0.1524
  174MOL0     C23897  11.218   8.761   4.133 -0.0077  0.7073  0.5433
  174MOL0     O23898  11.123   8.816   4.045  0.0045  0.1749 -0.2424
  174MOL0     C23899  11.155   8.864   3.930  0.1424 -0.0876  0.2315
  174MOL0     C23900  11.074   8.836   3.819 -1.4751  0.3105 -0.5260
  174MOL0     C23901  11.102   8.898   3.693 -0.7262  0.4715  0.8743
  174MOL0     C23902  11.017   8.869   3.569 -0.1270  0.2706 -0.4848
  174MOL0     C23903  11.213   8.986   3.677  0.4078 -0.1326 -0.1550
  174MOL0     C23904  11.244   9.054   3.555  0.3129 -0.4320  0.8135
  174MOL0     O23905  11.375   9.069   3.518 -0.4472  0.7208 -0.0804
  174MOL0     C23906  11.416   9.130   3.399  0.2593 -0.0609 -1.0178
  174MOL0     C23907  11.404   9.083   3.265 -0.2154 -0.2411  0.0733
  174MOL0     C23908  11.457   9.160   3.156 -0.2783  0.7133  0.3554
  174MOL0     C23909  11.498   9.290   3.184 -0.2963  0.0176 -0.2276
  174MOL0     O23910  11.540   9.371   3.075 -1.0887  0.3477 -0.9254
  174MOL0     C23911  11.682   9.399   3.073 -0.2014 -0.9767  0.0324
  174MOL0     C23912  11.779   9.289   3.118  0.9137 -0.1441  0.3009
  174MOL0     C23913  11.805   9.194   3.005  0.3182  0.3566 -0.3327
  174MOL0     C23914  11.934   9.113   3.026 -0.0828  0.6632  0.1081
  174MOL0     C23915  11.987   9.031   2.901  0.0507 -0.0797 -0.3695
  174MOL0     C23916  12.082   9.128   2.824 -0.5409 -0.5170  0.0627
  174MOL0     C23917  12.139   9.048   2.710  0.0365  0.8794  0.2441
  174MOL0     C23918  12.278   8.994   2.745 -0.2964 -0.7082 -0.3712
  174MOL0    Cl23919  12.384   8.980   2.598 -0.0981 -0.5018 -0.0506
  174MOL0     C23920  11.494   9.340   3.308  0.1002  0.1744 -0.1918
  174MOL0     C23921  11.456   9.264   3.413 -0.8592  0.6200  0.0870
  174MOL0     O23922  11.151   9.104   3.489  0.0008  0.2477 -0.0598
  174MOL0     C23923  11.298   9.005   3.789  0.2654 -0.3644 -0.2442
  174MOL0     C23924  11.264   8.939   3.908  0.4663 -1.3810 -0.4944
  174MOL0     N23925  10.857   8.367   4.074  0.6036 -0.2937  0.2917
  174MOL0     N23926  10.757   8.379   3.990  0.3067  0.4110 -0.0383
  174MOL0     C23927   9.908   8.404   3.314 -0.1716 -0.4577  0.5755
  174MOL0     C23928   9.839   8.349   3.206  1.2882 -0.4847 -0.2494
  174MOL0     C23929   9.652   8.188   2.822  0.2075 -0.3112  0.2383
  174MOL0     C23930   9.647   8.285   2.715 -1.1998 -0.9754  0.0901
  174MOL0     C23931   9.586   8.261   2.598  0.5178  0.5792  1.0277
  174MOL0     C23932   9.514   8.141   2.588 -0.3545 -0.2931  0.3716
  174MOL0     O23933   9.453   8.107   2.474  0.2507 -0.3922 -0.3715
  174MOL0     C23934   9.309   8.112   2.468  0.1350  0.4794  0.3398
  174MOL0     C23935   9.256   8.252   2.436  0.1121 -0.5190  0.7158
  174MOL0     C23936   9.188   8.321   2.552  0.6595  0.8662 -0.0765
  174MOL0     C23937   9.212   8.473   2.540 -0.3048  0.0634 -0.1952
  174MOL0     C23938   9.159   8.556   2.644 -0.1876  0.5090 -0.0089
  174MOL0     C23939   9.125   8.605   2.749 -0.4778  0.0041 -0.5625
  174MOL0     C23940   9.506   8.047   2.691  0.3915  0.0251 -0.1854
  174MOL0     C23941   9.570   8.071   2.816 -0.5431 -0.5161 -0.2393
  174MOL0     C23942   9.529   7.972   2.924  0.5256  0.4728  0.2564
  174MOL0     H23943   9.970   8.532   2.958  1.1554 -1.3232  0.2818
  174MOL0     H23944  10.075   8.632   3.159 -1.4530  0.3066  0.5058
  174MOL0     H23945  10.023   8.451   3.542 -0.5017  0.2559 -0.7493
  174MOL0     H23946   9.915   8.590   3.549 -0.6103  2.2915 -2.0488
  174MOL0     H23947  10.121   8.743   3.587  0.6125  0.2317  0.6053
  174MOL0     H23948  10.073   8.639   3.722  3.1309 -2.0016  0.5371
  174MOL0     H23949  10.240   8.490   3.686 -0.8345 -0.8597 -1.6698
  174MOL0     H23950  10.290   8.556   3.523  2.5292 -1.6040  0.6371
  174MOL0     H23951  10.345   8.767   3.625  3.9167  0.9188  0.4497
  174MOL0     H23952  10.297   8.695   3.792 -0.9260  0.6419 -0.7825
  174MOL0     H23953  10.551   8.725   3.718 -1.9087  0.9318  1.5872
  174MOL0     H23954  10.521   8.606   3.592 -0.9741  1.7504 -1.4727
  174MOL0     H23955  10.601   8.593   3.881  0.0940 -2.9501  1.0743
  174MOL0     H23956  10.434   8.544   3.879 -0.5264  2.6487 -0.9845
  174MOL0     H23957  10.519   8.391   3.671  0.5936  0.7799 -0.0897
  174MOL0     H23958  10.547   8.333   3.839 -0.4814 -1.2015  0.4663
  174MOL0     H23959  10.740   8.313   3.680 -0.2346  0.1870  0.3225
  174MOL0     H23960  10.759   8.499   3.720 -1.5194  0.8764  1.5926
  174MOL0     H23961  11.031   8.356   3.803  0.7796 -0.4985 -0.0929
  174MOL0     H23962  11.183   8.314   4.045  2.4136  0.9046  1.2269
  174MOL0     H23963  11.101   8.361   4.184 -1.1764  1.0652  0.5176
  174MOL0     H23964  11.295   8.497   4.029 -0.2473 -1.2100 -0.1852
  174MOL0     H23965  11.154   8.566   3.964 -0.7822  0.9316  0.4427
  174MOL0     H23966  11.074   8.610   4.202  0.4692  0.3460 -1.5437
  174MOL0     H23967  11.245   8.587   4.252  0.3663 -2.0847  0.3515
  174MOL0     H23968  11.212   8.808   4.232  1.6110  1.5106  0.2913
  174MOL0     H23969  11.322   8.751   4.099  0.2933 -3.4429  2.1288
  174MOL0     H23970  10.982   8.781   3.836 -0.8707 -0.5741 -0.0754
  174MOL0     H23971  10.940   8.803   3.610 -1.9501  1.3437 -1.9717
  174MOL0     H23972  11.069   8.824   3.484  1.4865  0.3731  0.4275
  174MOL0     H23973  10.970   8.963   3.537 -0.0248  1.5584  2.7974
  174MOL0     H23974  11.370   8.984   3.238  1.2530 -1.0237  0.9689
  174MOL0     H23975  11.455   9.130   3.052  3.3775  0.6353  0.1872
  174MOL0     H23976  11.702   9.448   2.977 -0.0195 -0.2262  0.4452
  174MOL0     H23977  11.688   9.478   3.149 -1.5742 -0.8649  0.0531
  174MOL0     H23978  11.873   9.342   3.134 -0.1385  3.5902 -3.8778
  174MOL0     H23979  11.751   9.241   3.212  0.1326  2.4584  1.5128
  174MOL0     H23980  11.820   9.253   2.914  2.9930 -0.8196 -0.7499
  174MOL0     H23981  11.727   9.117   3.001  2.0044 -1.7672  3.2530
  174MOL0     H23982  11.908   9.039   3.103  0.3551 -0.7384 -1.0453
  174MOL0     H23983  11.996   9.189   3.075 -1.6980 -0.0589  3.6343
  174MOL0     H23984  12.047   8.947   2.936 -1.0969 -1.0570 -0.6849
  174MOL0     H23985  11.910   8.987   2.838 -1.6424  1.1705  0.7325
  174MOL0     H23986  12.154   9.173   2.892 -1.2142 -1.1049  1.2006
  174MOL0     H23987  12.027   9.214   2.782 -0.1341  0.3492  1.2536
  174MOL0     H23988  12.149   9.109   2.620  0.0201 -1.6059 -1.5504
  174MOL0     H23989  12.077   8.960   2.691  2.2188 -1.1430  1.9841
  174MOL0     H23990  12.265   8.890   2.778 -2.1022 -0.9091 -1.5779
  174MOL0     H23991  12.327   9.051   2.824 -1.5109  0.1023 -0.1919
  174MOL0     H23992  11.521   9.444   3.323 -0.9525  0.9318 -2.8399
  174MOL0     H23993  11.467   9.315   3.508  4.9027 -0.0402  0.1247
  174MOL0     H23994  11.383   9.072   3.774  1.3541 -1.7501 -0.4682
  174MOL0     H23995  11.328   8.957   3.993  1.8666 -1.1696 -1.5542
  174MOL0     H23996   9.890   8.366   3.414  0.7062  2.8261  2.1156
  174MOL0     H23997   9.758   8.283   3.233 -0.4378  0.4835 -2.7135
  174MOL0     H23998   9.679   8.388   2.730 -1.7747 -0.8330  0.3431
  174MOL0     H23999   9.577   8.335   2.519 -0.6856 -1.4047 -0.8208
  174MOL0     H24000   9.290   8.047   2.383  5.5182  0.9376 -1.6265
  174MOL0     H24001   9.261   8.062   2.552  3.5382 -1.2001  1.5021
  174MOL0     H24002   9.197   8.246   2.344  4.0084  1.4112 -2.2133
  174MOL0     H24003   9.335   8.316   2.396  0.1353 -0.5094  0.7755
  174MOL0     H24004   9.081   8.307   2.533  0.4922  1.7111  0.1917
  174MOL0     H24005   9.199   8.278   2.652 -1.0312  3.2582  1.2630
  174MOL0     H24006   9.178   8.515   2.445 -2.5434  0.3197  0.6701
  174MOL0     H24007   9.320   8.484   2.555 -0.3628  1.3602 -0.6232
  174MOL0     H24008   9.081   8.641   2.840  3.4498 -0.4103  1.7778
  174MOL0     H24009   9.437   7.969   2.662  0.4902  0.4711 -1.6895
  174MOL0     H24010   9.438   7.915   2.903  0.6419 -0.3799  1.8917
  174MOL0     H24011   9.613   7.905   2.946 -0.1198 -0.4975 -0.1659
  174MOL0     H24012   9.504   8.031   3.013 -1.4628  1.5355 -0.9573
  175MOL0     O24013   1.884  11.395   9.077 -0.2807  0.7954 -0.1859
  175MOL0     C24014   1.938  11.499   9.100 -1.0159  0.4135 -0.4208
  175MOL0     O24015   2.073  11.531   9.081  0.6065 -1.1176 -0.5261
  175MOL0     C24016   2.164  11.437   9.041 -1.0542  0.4068 -0.9090
  175MOL0     C24017   2.183  11.303   9.080  0.0779  0.6949 -0.1476
  175MOL0     C24018   2.291  11.225   9.016  1.1005  1.3661 -0.8970
  175MOL0     C24019   2.379  11.268   8.922  0.1008  0.6074  0.5144
  175MOL0     O24020   2.481  11.192   8.868 -0.1599  0.7101 -0.7891
  175MOL0     C24021   2.440  11.059   8.840  0.2315 -0.7081 -0.9816
  175MOL0     C24022   2.554  10.988   8.786 -0.4932 -0.1469  0.5032
  175MOL0     C24023   2.518  10.842   8.752 -0.0365  0.7978  0.9624
  175MOL0     C24024   2.586  10.739   8.842 -0.9831  0.3182 -0.1459
  175MOL0     C24025   2.742  10.744   8.824  0.6582 -0.3926 -0.8686
  175MOL0     C24026   2.804  10.631   8.743 -0.2128 -0.4032 -0.1310
  175MOL0     C24027   2.755  10.492   8.783 -0.0214  1.6063  0.7924
  175MOL0     C24028   2.847  10.374   8.742 -0.4325  1.0844  0.2814
  175MOL0     N24029   2.908  10.361   8.608 -1.5756  0.4740 -0.6672
  175MOL0     C24030   2.853  10.330   8.493  0.0110 -0.1111  0.1463
  175MOL0     C24031   2.943  10.352   8.390  0.6898 -0.0313  0.3030
  175MOL0     C24032   2.933  10.318   8.238  1.0242 -0.5998  0.0390
  175MOL0     C24033   3.009  10.190   8.207  1.0998 -0.1858 -0.4570
  175MOL0     C24034   2.945  10.055   8.254 -0.1021 -0.1206  0.0727
  175MOL0     C24035   2.800  10.026   8.201  0.9341  0.3373  0.6471
  175MOL0     O24036   2.796  10.050   8.059 -0.6842 -1.1254 -0.0748
  175MOL0     C24037   2.672  10.069   8.010  0.0622 -1.4465 -0.6586
  175MOL0     C24038   2.580   9.968   8.014  0.6003 -0.1154  0.3070
  175MOL0     C24039   2.449   9.976   7.963 -0.6174  0.6758  0.5114
  175MOL0     C24040   2.375   9.838   7.953  1.0725 -0.4501  0.1756
  175MOL0     C24041   2.393  10.096   7.918  0.6968  0.3882  0.0974
  175MOL0     C24042   2.250  10.109   7.874 -0.0885 -0.0513 -0.0004
  175MOL0     O24043   2.158  10.010   7.892  0.1773 -0.6712 -0.3659
  175MOL0     C24044   2.050  10.018   7.813  0.2303 -0.1509 -0.0582
  175MOL0     C24045   2.050   9.960   7.684 -0.0340  0.0000  0.0526
  175MOL0     C24046   1.937   9.974   7.598 -0.0214 -0.7657 -0.5007
  175MOL0     C24047   1.820  10.040   7.642 -0.6666 -0.6875 -0.3356
  175MOL0     O24048   1.713  10.058   7.555 -1.0248 -0.1770  0.3561
  175MOL0     C24049   1.701  10.190   7.503 -0.0165 -0.2263 -0.0147
  175MOL0     C24050   1.741  10.209   7.355  0.9777 -0.1045 -1.0269
  175MOL0     C24051   1.716  10.352   7.312  0.7689  0.1665  0.1557
  175MOL0     C24052   1.800  10.372   7.182 -0.7315 -0.4875 -0.0556
  175MOL0     C24053   1.780  10.504   7.114  0.6530  1.0168 -0.4375
  175MOL0     C24054   1.832  10.614   7.196  0.1241 -1.4134  0.7576
  175MOL0     C24055   1.838  10.756   7.121 -0.0286  0.6639  0.0379
  175MOL0     C24056   1.704  10.780   7.038 -1.0263 -0.9612  0.3517
  175MOL0    Cl24057   1.704  10.702   6.876 -0.2397  0.0764 -0.3164
  175MOL0     C24058   1.822  10.093   7.767 -0.6898 -0.4910  1.2590
  175MOL0     C24059   1.931  10.081   7.862  0.0263  0.2295 -0.6099
  175MOL0     O24060   2.225  10.219   7.825  0.2755 -0.3742  0.0044
  175MOL0     C24061   2.501  10.208   7.922  0.9136  0.4965 -0.6322
  175MOL0     C24062   2.625  10.189   7.970  0.3442 -0.7609 -1.2191
  175MOL0     N24063   3.063  10.391   8.454 -0.3525 -0.3544  0.0319
  175MOL0     N24064   3.040  10.398   8.586 -0.3174 -0.5929 -0.1212
  175MOL0     C24065   2.359  11.400   8.889 -0.2136  0.7324  0.1528
  175MOL0     C24066   2.247  11.477   8.938  0.3605 -0.1702  0.1005
  175MOL0     C24067   1.860  11.594   9.162 -0.0054  0.5669  0.0857
  175MOL0     C24068   1.913  11.730   9.164 -0.0238  0.5962  0.8331
  175MOL0     C24069   1.849  11.832   9.217  0.8693 -0.6832 -0.2758
  175MOL0     C24070   1.721  11.816   9.270  0.9260 -0.3270 -0.6697
  175MOL0     O24071   1.644  11.922   9.312 -0.7195 -0.2793  0.4642
  175MOL0     C24072   1.707  12.048   9.336 -0.4520  0.2076  0.1015
  175MOL0     C24073   1.630  12.129   9.436  0.7208  0.8911 -0.4611
  175MOL0     C24074   1.721  12.233   9.491 -0.5181 -0.2119 -1.2662
  175MOL0     C24075   1.656  12.297   9.610  0.4293 -0.3776 -0.1470
  175MOL0     C24076   1.744  12.413   9.663 -0.4336 -1.2449  0.1423
  175MOL0     C24077   1.773  12.513   9.727 -0.4021 -0.5133  0.1926
  175MOL0     C24078   1.656  11.692   9.263 -0.8903 -0.0134  0.0118
  175MOL0     C24079   1.726  11.573   9.222  0.6768 -0.7735  0.3827
  175MOL0     C24080   1.643  11.449   9.229 -0.1934  0.5646 -0.6361
  175MOL0     H24081   2.123  11.252   9.155  0.2231  0.4164 -0.2207
  175MOL0     H24082   2.300  11.126   9.060 -1.8957 -0.2274 -3.4331
  175MOL0     H24083   2.362  11.070   8.765 -1.9806 -0.5207  1.1969
  175MOL0     H24084   2.411  11.010   8.934  1.3104  0.0716 -0.2187
  175MOL0     H24085   2.601  11.033   8.698  0.6787 -0.0190  1.1769
  175MOL0     H24086   2.627  10.984   8.867  2.1875 -1.5613 -1.7924
  175MOL0     H24087   2.410  10.824   8.753  0.0923 -0.1651 -0.4914
  175MOL0     H24088   2.539  10.835   8.645  1.0758  3.9691  0.8527
  175MOL0     H24089   2.567  10.761   8.947 -1.1322 -0.3440 -0.0286
  175MOL0     H24090   2.553  10.636   8.823  2.4744 -0.9238 -0.2662
  175MOL0     H24091   2.781  10.727   8.924 -2.0621 -2.3518 -0.0138
  175MOL0     H24092   2.777  10.844   8.798  0.5313  0.7128  2.7874
  175MOL0     H24093   2.785  10.642   8.636 -2.0264 -1.2528  0.0774
  175MOL0     H24094   2.913  10.630   8.753 -0.0155 -0.2751 -1.9387
  175MOL0     H24095   2.651  10.470   8.759  0.6848 -0.5810 -0.5932
  175MOL0     H24096   2.741  10.492   8.892 -3.8433  0.3425  0.4465
  175MOL0     H24097   2.933  10.367   8.809 -0.2002 -0.6962 -0.1443
  175MOL0     H24098   2.800  10.275   8.748  1.0888  0.3800  1.1752
  175MOL0     H24099   2.749  10.299   8.481  0.5382 -0.7539 -3.9077
  175MOL0     H24100   2.964  10.401   8.174 -0.7650 -0.0316 -0.1448
  175MOL0     H24101   2.826  10.301   8.222  0.7187  1.0898  0.0876
  175MOL0     H24102   3.020  10.187   8.099  1.6948  2.0892 -0.4991
  175MOL0     H24103   3.105  10.200   8.258 -0.5985  1.8404  2.7665
  175MOL0     H24104   3.007   9.973   8.218  0.1653  0.1470 -0.0828
  175MOL0     H24105   2.947  10.051   8.363 -2.6330  4.2596  0.5198
  175MOL0     H24106   2.777   9.921   8.223  1.4148 -0.1307 -0.9373
  175MOL0     H24107   2.733  10.097   8.250  0.5655  0.6169 -0.2410
  175MOL0     H24108   2.606   9.865   8.036 -0.0850 -0.7632 -1.7224
  175MOL0     H24109   2.290   9.850   8.021  0.9406  2.3394 -0.3687
  175MOL0     H24110   2.440   9.758   7.988  2.0071 -0.0126 -0.5191
  175MOL0     H24111   2.331   9.815   7.856 -2.4796 -0.4986  1.6472
  175MOL0     H24112   2.138   9.911   7.645  0.9971  0.3140  1.8949
  175MOL0     H24113   1.937   9.934   7.497 -0.0612 -1.6648 -0.1612
  175MOL0     H24114   1.596  10.221   7.502  0.1363  0.3282  0.6015
  175MOL0     H24115   1.755  10.268   7.557 -1.6690  0.6017  0.5255
  175MOL0     H24116   1.849  10.196   7.348  1.0782 -0.1152  0.3707
  175MOL0     H24117   1.670  10.149   7.297 -1.8107  3.6051 -1.8961
  175MOL0     H24118   1.753  10.413   7.396 -0.7703  1.5725 -0.1340
  175MOL0     H24119   1.612  10.381   7.295  0.1825 -0.7394  1.9205
  175MOL0     H24120   1.778  10.294   7.109  0.2476 -0.5935 -0.2489
  175MOL0     H24121   1.900  10.341   7.212 -2.3425 -4.5183  1.7361
  175MOL0     H24122   1.841  10.507   7.023 -0.0703  1.2217 -0.9310
  175MOL0     H24123   1.676  10.528   7.086  0.6237  0.6264 -0.6723
  175MOL0     H24124   1.924  10.579   7.243  0.5702  0.2418  1.1798
  175MOL0     H24125   1.770  10.636   7.284  0.5628  1.1063  0.5021
  175MOL0     H24126   1.920  10.743   7.050  0.7225 -0.1547  1.0029
  175MOL0     H24127   1.870  10.826   7.199  1.3851  0.2940 -0.1798
  175MOL0     H24128   1.712  10.888   7.022  1.3219 -0.9989  0.8612
  175MOL0     H24129   1.621  10.744   7.099  1.3152 -5.9602  1.0804
  175MOL0     H24130   1.734  10.152   7.788 -0.3244  0.2809  0.6536
  175MOL0     H24131   1.919  10.107   7.966 -0.1591 -1.1430 -0.2748
  175MOL0     H24132   2.474  10.308   7.888 -0.7887  0.3236  0.0852
  175MOL0     H24133   2.681  10.279   7.995 -0.8671 -0.6739  1.7047
  175MOL0     H24134   2.433  11.441   8.820  0.6223 -1.0305 -0.0639
  175MOL0     H24135   2.242  11.581   8.906 -2.1187  0.3364  1.9090
  175MOL0     H24136   2.014  11.763   9.140  0.5337  1.8975  4.3201
  175MOL0     H24137   1.905  11.925   9.220  0.2625 -0.3034 -0.4744
  175MOL0     H24138   1.804  12.039   9.385 -0.4898  2.7360  0.7554
  175MOL0     H24139   1.717  12.099   9.239 -1.1024 -0.0043 -0.0855
  175MOL0     H24140   1.595  12.066   9.518  0.4606  0.0017 -1.2345
  175MOL0     H24141   1.539  12.166   9.387  1.0772 -0.6905 -2.4750
  175MOL0     H24142   1.818  12.200   9.531 -0.8863  0.1926 -0.0039
  175MOL0     H24143   1.735  12.306   9.411 -2.5641 -0.4227 -1.8542
  175MOL0     H24144   1.632  12.224   9.688  2.1127 -2.2795 -1.3364
  175MOL0     H24145   1.562  12.346   9.584  0.7015  0.9352  1.1917
  175MOL0     H24146   1.816  12.600   9.773 -0.1407 -0.1624 -0.6823
  175MOL0     H24147   1.553  11.687   9.294 -0.7220 -1.1334  0.4552
  175MOL0     H24148   1.693  11.364   9.277 -1.2829  1.7076  2.8942
  175MOL0     H24149   1.549  11.468   9.281 -1.5664  1.5259 -3.2864
  175MOL0     H24150   1.599  11.427   9.132 -4.3925  3.2112  0.3960
  176MOL0     O24151   4.825   0.403   2.524 -0.5613  0.1581  1.3713
  176MOL0     C24152   4.884   0.459   2.430  0.0898  0.0264  0.3145
  176MOL0     O24153   5.013   0.426   2.386  0.4597 -0.6242 -0.8263
  176MOL0     C24154   5.087   0.355   2.480 -0.3398 -0.6751  0.3144
  176MOL0     C24155   5.126   0.225   2.451  0.2269 -0.4765  0.5813
  176MOL0     C24156   5.215   0.154   2.531  0.0099  1.4104 -0.5872
  176MOL0     C24157   5.265   0.211   2.655 -0.1103  0.5274  0.5137
  176MOL0     O24158   5.339   0.130   2.741 -0.4517  0.6726 -0.4106
  176MOL0     C24159   5.358   0.167   2.873 -0.1954 -0.0630 -0.5938
  176MOL0     C24160   5.420   0.053   2.950  0.5290 -0.6508  0.2367
  176MOL0     C24161   5.324  -0.040   3.031 -0.2472 -0.1371  0.0980
  176MOL0     C24162   5.258  -0.144   2.938  0.5870 -0.6705  0.2096
  176MOL0     C24163   5.345  -0.260   2.896 -0.3549 -0.2459  0.4324
  176MOL0     C24164   5.297  -0.362   2.792 -0.4585  0.1222 -1.1548
  176MOL0     C24165   5.410  -0.460   2.762  0.2536 -0.0821 -0.6916
  176MOL0     C24166   5.378  -0.597   2.696 -0.6247 -0.1807  1.0444
  176MOL0     N24167   5.361  -0.592   2.550  0.7038 -0.0768 -0.8810
  176MOL0     C24168   5.429  -0.519   2.460  0.9628 -0.6360 -0.2995
  176MOL0     C24169   5.372  -0.555   2.343 -0.2150 -0.9171 -0.1684
  176MOL0     C24170   5.411  -0.470   2.210  0.2145  0.2347 -0.6951
  176MOL0     C24171   5.503  -0.526   2.116  0.0244  1.5440  0.1930
  176MOL0     C24172   5.478  -0.674   2.109 -0.0547  0.1436  0.3323
  176MOL0     C24173   5.345  -0.732   2.056 -0.8895 -0.6561  0.6282
  176MOL0     O24174   5.336  -0.686   1.915  0.5561  0.1916  0.1117
  176MOL0     C24175   5.208  -0.670   1.859  0.2810 -0.1939 -0.9727
  176MOL0     C24176   5.200  -0.636   1.722  0.4974  0.4169 -0.1686
  176MOL0     C24177   5.076  -0.637   1.656  0.4254 -0.9323  0.0051
  176MOL0     C24178   5.073  -0.594   1.510  0.0604  0.7580 -0.1258
  176MOL0     C24179   4.960  -0.667   1.729  0.1028 -0.2682  0.1197
  176MOL0     C24180   4.813  -0.671   1.673 -0.2160  1.0567 -0.1729
  176MOL0     O24181   4.707  -0.673   1.761  0.1241  0.5833 -0.4910
  176MOL0     C24182   4.572  -0.693   1.727  0.6522 -0.4165  0.3274
  176MOL0     C24183   4.493  -0.588   1.680  0.2727 -0.0429  0.1089
  176MOL0     C24184   4.357  -0.602   1.673 -0.1876 -0.0318 -0.2009
  176MOL0     C24185   4.298  -0.727   1.685 -0.2048  0.1978  0.7573
  176MOL0     O24186   4.167  -0.760   1.657 -0.0572 -0.6168 -0.1131
  176MOL0     C24187   4.091  -0.655   1.578  1.3612  0.4209  0.7602
  176MOL0     C24188   3.951  -0.706   1.541  0.6400  0.5281 -0.3462
  176MOL0     C24189   3.846  -0.598   1.516 -0.2528 -0.4062 -0.7789
  176MOL0     C24190   3.729  -0.622   1.416  0.6284  0.8307  0.1417
  176MOL0     C24191   3.624  -0.514   1.415 -1.2755 -0.0770 -0.3839
  176MOL0     C24192   3.524  -0.526   1.299 -0.3805  0.4807 -0.3356
  176MOL0     C24193   3.484  -0.390   1.247 -0.3169 -0.7259 -0.3378
  176MOL0     C24194   3.595  -0.320   1.167  0.4430  1.5507  0.1584
  176MOL0    Cl24195   3.559  -0.349   0.992  0.0458 -0.0076 -0.1722
  176MOL0     C24196   4.383  -0.832   1.717 -1.2066 -0.0971 -0.8170
  176MOL0     C24197   4.524  -0.818   1.739 -0.4914  0.1418  0.2959
  176MOL0     O24198   4.799  -0.696   1.550 -0.1895 -0.6349  0.0049
  176MOL0     C24199   4.968  -0.685   1.867  0.1101 -0.1006  0.3651
  176MOL0     C24200   5.093  -0.700   1.932  0.2318 -0.3071  0.5594
  176MOL0     N24201   5.267  -0.644   2.364  0.2793  1.1948  0.3784
  176MOL0     N24202   5.277  -0.678   2.490 -0.0411  0.2970  0.3475
  176MOL0     C24203   5.222   0.344   2.685  0.1801 -0.7646 -0.3307
  176MOL0     C24204   5.141   0.418   2.598 -0.7565 -0.4970  0.8488
  176MOL0     C24205   4.824   0.570   2.359 -0.0906 -0.3505  0.8175
  176MOL0     C24206   4.891   0.625   2.250 -0.3224 -0.0111  1.0102
  176MOL0     C24207   4.849   0.744   2.192 -0.2563  0.0828 -0.1704
  176MOL0     C24208   4.729   0.800   2.222  0.2300 -0.6084 -0.5752
  176MOL0     O24209   4.662   0.900   2.154  0.0544 -0.4614  0.2269
  176MOL0     C24210   4.731   0.973   2.053  0.7056 -0.3302  0.2367
  176MOL0     C24211   4.645   1.066   1.980  0.3741 -0.0222 -0.0606
  176MOL0     C24212   4.568   1.148   2.075  0.7102 -0.0723 -0.0043
  176MOL0     C24213   4.504   1.265   2.012 -0.3892  0.2789  0.7427
  176MOL0     C24214   4.425   1.343   2.102  0.1285  0.6148  0.1408
  176MOL0     C24215   4.355   1.406   2.176 -0.6969 -0.5226  1.0391
  176MOL0     C24216   4.662   0.754   2.337  0.4542 -0.4811 -0.1174
  176MOL0     C24217   4.704   0.649   2.410 -0.7268  0.5643 -0.1352
  176MOL0     C24218   4.603   0.604   2.518  1.1166  0.9548 -0.1073
  176MOL0     H24219   5.087   0.172   2.364 -0.8211  0.7331  0.2875
  176MOL0     H24220   5.238   0.052   2.500  1.4114  1.1981  1.0076
  176MOL0     H24221   5.259   0.184   2.917 -1.2408 -1.8970 -2.0860
  176MOL0     H24222   5.417   0.259   2.871 -0.8044  0.3675  0.5537
  176MOL0     H24223   5.481  -0.011   2.885 -0.7078 -0.5377 -1.1073
  176MOL0     H24224   5.486   0.098   3.024 -1.6617  1.8815  0.8156
  176MOL0     H24225   5.377  -0.086   3.115 -0.4818  0.8156  0.7890
  176MOL0     H24226   5.245   0.018   3.078  0.8872  0.8891  0.8134
  176MOL0     H24227   5.170  -0.184   2.990  0.1601  1.4712  1.2651
  176MOL0     H24228   5.219  -0.095   2.847 -1.1215 -3.2121 -0.5353
  176MOL0     H24229   5.374  -0.311   2.988 -1.4952 -1.6583  0.0594
  176MOL0     H24230   5.431  -0.210   2.850 -1.4004 -0.0868 -1.4639
  176MOL0     H24231   5.210  -0.412   2.836  1.0136  2.2450  5.2674
  176MOL0     H24232   5.252  -0.324   2.700 -3.7295  0.7519  0.5612
  176MOL0     H24233   5.438  -0.484   2.865 -1.5059 -0.7663 -0.3497
  176MOL0     H24234   5.498  -0.416   2.713  0.5742  0.4207  0.2960
  176MOL0     H24235   5.462  -0.659   2.726 -1.3727 -1.1736  1.1343
  176MOL0     H24236   5.294  -0.651   2.742 -0.3716 -0.3228  1.3435
  176MOL0     H24237   5.507  -0.448   2.485  0.2620  0.0585 -0.0698
  176MOL0     H24238   5.462  -0.383   2.253  1.7255 -0.1709 -1.5906
  176MOL0     H24239   5.318  -0.447   2.158 -1.0974 -2.1798  0.4143
  176MOL0     H24240   5.494  -0.487   2.014 -2.2694 -1.6427 -1.0126
  176MOL0     H24241   5.607  -0.508   2.143  0.7922 -0.9189 -0.8216
  176MOL0     H24242   5.552  -0.698   2.033 -0.7341  3.0790 -1.3946
  176MOL0     H24243   5.510  -0.706   2.208 -1.6877  0.1701  0.9015
  176MOL0     H24244   5.348  -0.839   2.074  0.4268 -0.7542 -0.0403
  176MOL0     H24245   5.267  -0.688   2.118 -2.3739  0.8014 -2.0499
  176MOL0     H24246   5.292  -0.632   1.664 -1.2576  0.7635 -3.1630
  176MOL0     H24247   5.012  -0.660   1.447  1.7608 -0.1318 -0.9079
  176MOL0     H24248   5.175  -0.590   1.472  0.7135 -2.5065  0.9404
  176MOL0     H24249   5.024  -0.496   1.505 -0.2912  0.5376 -3.0961
  176MOL0     H24250   4.536  -0.492   1.656  0.7032 -1.1461 -4.2946
  176MOL0     H24251   4.305  -0.510   1.649  1.5415  1.5351  1.6814
  176MOL0     H24252   4.086  -0.558   1.628 -2.4868  0.1575  1.2032
  176MOL0     H24253   4.141  -0.638   1.483 -2.8069  2.2320 -1.3921
  176MOL0     H24254   3.964  -0.769   1.452 -0.1346 -0.2978  0.1019
  176MOL0     H24255   3.911  -0.777   1.614 -0.2935  1.1371 -0.2528
  176MOL0     H24256   3.902  -0.511   1.478  1.8902 -0.6912  1.4592
  176MOL0     H24257   3.805  -0.565   1.612  0.9228 -2.6514  0.5758
  176MOL0     H24258   3.688  -0.716   1.455  0.6271  0.3459 -0.9822
  176MOL0     H24259   3.779  -0.643   1.321  0.4883  0.2925  0.1833
  176MOL0     H24260   3.579  -0.497   1.513 -0.8116  1.6707 -0.4295
  176MOL0     H24261   3.679  -0.420   1.403  0.2008 -0.4344  2.6635
  176MOL0     H24262   3.439  -0.580   1.343 -2.2979  1.1559 -2.9414
  176MOL0     H24263   3.550  -0.597   1.221 -1.1454 -2.7080  2.0875
  176MOL0     H24264   3.453  -0.327   1.331  0.1193 -1.0370  0.0674
  176MOL0     H24265   3.393  -0.407   1.188 -1.5775 -3.7870  2.1756
  176MOL0     H24266   3.692  -0.366   1.188 -0.1024  0.0942 -0.3794
  176MOL0     H24267   3.592  -0.214   1.196  3.1197  1.3695  1.3268
  176MOL0     H24268   4.351  -0.935   1.722  0.9197 -0.7357  0.4089
  176MOL0     H24269   4.591  -0.902   1.757 -0.4267 -1.0895 -4.4834
  176MOL0     H24270   4.875  -0.698   1.921 -0.5318  0.0714 -0.6571
  176MOL0     H24271   5.088  -0.732   2.036  0.1608 -0.2522  0.5733
  176MOL0     H24272   5.241   0.385   2.785 -2.4706 -2.3710  0.9377
  176MOL0     H24273   5.129   0.525   2.608 -0.6874 -0.0183 -2.8001
  176MOL0     H24274   4.982   0.582   2.211 -0.1477  0.8473  0.4390
  176MOL0     H24275   4.918   0.789   2.121  3.6906 -3.2400  1.1152
  176MOL0     H24276   4.811   1.021   2.110  0.1053  0.3567  0.5180
  176MOL0     H24277   4.776   0.914   1.972 -0.5228  0.3442 -0.9781
  176MOL0     H24278   4.586   1.018   1.902 -0.2156  1.6925 -0.7090
  176MOL0     H24279   4.713   1.136   1.930  1.6962 -1.2658 -0.0713
  176MOL0     H24280   4.489   1.087   2.119 -2.2299  2.1881 -1.7396
  176MOL0     H24281   4.636   1.180   2.154  0.8952 -1.8372  0.6029
  176MOL0     H24282   4.431   1.232   1.938 -0.1761  2.5173 -0.5422
  176MOL0     H24283   4.581   1.335   1.976  0.6739 -1.5074 -0.6583
  176MOL0     H24284   4.299   1.465   2.246  1.7668 -1.4179  3.9757
  176MOL0     H24285   4.570   0.806   2.361  0.2384 -1.0273  0.2677
  176MOL0     H24286   4.509   0.656   2.501  0.3164 -0.9605 -2.0948
  176MOL0     H24287   4.570   0.500   2.527  1.0776  0.9166 -0.6563
  176MOL0     H24288   4.650   0.632   2.612 -0.1711 -1.3264  1.3063
  177MOL0     O24289   2.595   4.458   7.360 -0.0479 -0.5818  0.1950
  177MOL0     C24290   2.700   4.499   7.403 -1.1084 -0.0215  0.5885
  177MOL0     O24291   2.730   4.627   7.435  0.4681 -0.0277 -0.3578
  177MOL0     C24292   2.646   4.729   7.398 -0.6335 -0.4647  0.0686
  177MOL0     C24293   2.575   4.748   7.281 -0.9946 -0.6315 -0.8245
  177MOL0     C24294   2.496   4.861   7.262  0.4310  0.5641  0.3973
  177MOL0     C24295   2.477   4.951   7.371 -0.7104  0.3209 -0.9054
  177MOL0     O24296   2.375   5.040   7.365  0.3181  0.6889  0.4094
  177MOL0     C24297   2.433   5.163   7.321 -0.3148  0.8511  0.2678
  177MOL0     C24298   2.313   5.248   7.279  0.1284  0.2982 -0.0231
  177MOL0     C24299   2.338   5.390   7.290 -0.7956  0.9592 -0.2773
  177MOL0     C24300   2.440   5.442   7.198  0.3123 -0.2942  0.6831
  177MOL0     C24301   2.447   5.593   7.218  0.7245  0.2829  0.1323
  177MOL0     C24302   2.471   5.674   7.088 -0.3074  0.2155  0.5163
  177MOL0     C24303   2.506   5.818   7.111  0.0109 -0.3082 -0.3692
  177MOL0     C24304   2.558   5.880   6.982 -0.9039 -0.0961 -0.5967
  177MOL0     N24305   2.699   5.836   6.971  0.2395  0.6064 -0.3326
  177MOL0     C24306   2.803   5.871   7.053 -0.7959 -0.1961  0.5847
  177MOL0     C24307   2.907   5.833   6.966  0.2024  0.8642  0.3316
  177MOL0     C24308   3.045   5.861   7.015  0.1391 -0.4634 -0.3415
  177MOL0     C24309   3.165   5.787   6.949  0.7489  0.7640  0.4258
  177MOL0     C24310   3.297   5.784   7.031  0.6131 -0.7169  0.5604
  177MOL0     C24311   3.317   5.657   7.112  0.5008  0.1961  0.9383
  177MOL0     O24312   3.211   5.606   7.192 -0.9481 -0.4498  0.4432
  177MOL0     C24313   3.184   5.680   7.305 -0.7760 -0.7386 -0.0604
  177MOL0     C24314   3.048   5.675   7.322  0.4318  0.3717 -0.5717
  177MOL0     C24315   2.986   5.724   7.433 -0.6731 -0.0806 -0.2536
  177MOL0     C24316   2.838   5.714   7.434 -0.3278 -0.0461 -0.3049
  177MOL0     C24317   3.064   5.780   7.533  0.2640  0.1643 -1.0042
  177MOL0     C24318   3.014   5.859   7.656  0.1361  1.0882  0.4061
  177MOL0     O24319   3.102   5.931   7.731 -0.2240  0.3128 -0.1393
  177MOL0     C24320   3.051   6.030   7.805 -0.5845  0.0953 -0.8573
  177MOL0     C24321   3.118   6.048   7.931  0.2713  0.3877  0.0759
  177MOL0     C24322   3.084   6.163   7.996  0.9295  0.3468  0.0660
  177MOL0     C24323   2.971   6.244   7.956 -0.6194  0.2045 -0.7974
  177MOL0     O24324   2.937   6.344   8.044  0.5589 -1.1920 -0.4852
  177MOL0     C24325   2.902   6.476   7.992 -0.1910 -0.6442  1.1765
  177MOL0     C24326   2.866   6.553   8.116 -1.0566 -0.1570 -0.3240
  177MOL0     C24327   2.795   6.683   8.093  0.5798  0.5029 -0.0740
  177MOL0     C24328   2.764   6.756   8.226 -0.7373  0.9371  0.3430
  177MOL0     C24329   2.676   6.876   8.213  0.0417  0.5167 -0.3386
  177MOL0     C24330   2.641   6.941   8.347 -0.4540 -0.7635  0.1852
  177MOL0     C24331   2.569   7.078   8.301 -0.1404 -0.0240  0.4149
  177MOL0     C24332   2.585   7.187   8.400 -0.8250  1.1181  0.3968
  177MOL0    Cl24333   2.760   7.254   8.402 -0.4568 -0.2252  0.0652
  177MOL0     C24334   2.919   6.230   7.824  0.5251 -1.2541  0.1519
  177MOL0     C24335   2.957   6.124   7.748  1.5073  0.5119 -1.4042
  177MOL0     O24336   2.895   5.867   7.662  0.3381  0.6286  0.1111
  177MOL0     C24337   3.205   5.786   7.520  0.9280  0.3100  1.8512
  177MOL0     C24338   3.268   5.742   7.403  0.5707  0.4771  0.2728
  177MOL0     N24339   2.868   5.776   6.852 -0.0150  0.5250  0.4402
  177MOL0     N24340   2.744   5.779   6.857  0.5528  0.3769  0.6994
  177MOL0     C24341   2.552   4.935   7.487  0.4480  0.5692 -0.3540
  177MOL0     C24342   2.635   4.826   7.500 -0.2742  0.0716  0.2054
  177MOL0     C24343   2.796   4.389   7.445 -0.3070  0.3960  0.7491
  177MOL0     C24344   2.926   4.433   7.495  0.7612  0.5598  0.5834
  177MOL0     C24345   3.022   4.345   7.535  1.0134 -0.5314 -0.3250
  177MOL0     C24346   2.995   4.207   7.540  0.2427 -0.1484 -0.0361
  177MOL0     O24347   3.092   4.125   7.568 -2.2213 -0.7822  0.2856
  177MOL0     C24348   3.073   4.040   7.673  0.1467  0.8645  0.0727
  177MOL0     C24349   3.068   3.893   7.630 -0.1333  0.7939  0.3984
  177MOL0     C24350   3.089   3.795   7.750 -0.7219 -0.3579  0.5595
  177MOL0     C24351   3.080   3.640   7.731  0.1584 -0.5383  0.1503
  177MOL0     C24352   3.112   3.569   7.851  0.5322 -0.3697  0.2889
  177MOL0     C24353   3.147   3.514   7.949  0.1140  0.2728 -0.1428
  177MOL0     C24354   2.875   4.158   7.496 -0.9207  0.3951  0.0250
  177MOL0     C24355   2.777   4.249   7.436  0.2890  0.7261 -0.0581
  177MOL0     C24356   2.646   4.181   7.398 -0.8916  1.0239  1.1506
  177MOL0     H24357   2.585   4.669   7.208 -2.1464 -0.0221 -1.6758
  177MOL0     H24358   2.443   4.878   7.169  2.8088  0.2848 -1.0819
  177MOL0     H24359   2.512   5.149   7.246  1.0278  1.0290  1.5977
  177MOL0     H24360   2.489   5.209   7.403  1.3163  4.4821 -2.6073
  177MOL0     H24361   2.296   5.218   7.175 -0.3107 -4.6150  1.2200
  177MOL0     H24362   2.228   5.207   7.334  0.9867 -3.2515 -1.0447
  177MOL0     H24363   2.244   5.445   7.283 -1.0926  0.2500 -2.6533
  177MOL0     H24364   2.393   5.419   7.380  2.1115  1.0191 -1.9396
  177MOL0     H24365   2.540   5.400   7.210  0.2557 -0.3009  1.1410
  177MOL0     H24366   2.409   5.414   7.097  1.0030 -1.1754  0.7016
  177MOL0     H24367   2.536   5.605   7.280  1.4142 -2.7751 -0.0950
  177MOL0     H24368   2.360   5.631   7.271 -0.6016 -0.2503 -1.5558
  177MOL0     H24369   2.554   5.627   7.034 -1.4753  0.8796 -2.0183
  177MOL0     H24370   2.380   5.679   7.028  0.6394  0.2836 -0.9680
  177MOL0     H24371   2.580   5.833   7.189 -1.8340 -1.2019  1.6825
  177MOL0     H24372   2.419   5.875   7.143  0.6322  1.8880 -2.3487
  177MOL0     H24373   2.505   5.856   6.890 -0.4234  1.6996 -1.3903
  177MOL0     H24374   2.554   5.990   6.985 -2.2222 -0.0805 -1.8056
  177MOL0     H24375   2.812   5.939   7.138  0.7051  1.8959 -1.1422
  177MOL0     H24376   3.052   5.842   7.123  0.3312  2.4134  0.2307
  177MOL0     H24377   3.068   5.968   7.015  3.0957 -0.9935 -0.0255
  177MOL0     H24378   3.124   5.692   6.914  0.3775  0.8859  0.5281
  177MOL0     H24379   3.202   5.835   6.858  1.0374 -1.6650 -0.8165
  177MOL0     H24380   3.390   5.796   6.975  0.5727 -1.3048  0.3601
  177MOL0     H24381   3.300   5.866   7.103  1.8895 -0.6224  0.4145
  177MOL0     H24382   3.319   5.579   7.035 -2.2466  1.8156 -0.9637
  177MOL0     H24383   3.415   5.659   7.160  1.8461 -3.3408 -1.2836
  177MOL0     H24384   2.983   5.625   7.251  1.2392 -1.4603 -0.0647
  177MOL0     H24385   2.805   5.669   7.340 -1.7564  1.2193 -0.4458
  177MOL0     H24386   2.803   5.817   7.433 -0.3519 -0.0458 -1.8453
  177MOL0     H24387   2.814   5.651   7.520  0.6459 -2.7622 -1.8856
  177MOL0     H24388   3.200   5.979   7.949 -1.7355 -2.1761 -0.0598
  177MOL0     H24389   3.124   6.183   8.095 -1.3006  0.8619  0.9324
  177MOL0     H24390   2.987   6.507   7.930 -2.2609  0.4076 -1.2819
  177MOL0     H24391   2.807   6.474   7.938  0.7726 -1.6237 -0.5796
  177MOL0     H24392   2.812   6.492   8.189 -0.5618 -2.8694 -2.0842
  177MOL0     H24393   2.963   6.579   8.160  0.5535 -2.7793 -2.0631
  177MOL0     H24394   2.707   6.648   8.038  0.9460 -0.9671  0.2136
  177MOL0     H24395   2.852   6.747   8.026  1.1131 -3.4586 -3.7827
  177MOL0     H24396   2.858   6.796   8.266  0.2549 -0.1260 -0.8517
  177MOL0     H24397   2.726   6.681   8.296  1.2122  1.2913  1.8742
  177MOL0     H24398   2.724   6.954   8.154  3.3877  1.1544  2.9091
  177MOL0     H24399   2.580   6.844   8.170 -0.7462 -1.0890  2.3406
  177MOL0     H24400   2.737   6.953   8.399 -0.0039 -1.2660 -0.5078
  177MOL0     H24401   2.586   6.896   8.430  3.1203 -3.3546  1.4252
  177MOL0     H24402   2.461   7.062   8.295  0.1872 -2.2451 -0.9047
  177MOL0     H24403   2.593   7.129   8.207 -0.5069  1.6864  1.2200
  177MOL0     H24404   2.562   7.141   8.497 -1.6642 -1.2695 -0.8423
  177MOL0     H24405   2.518   7.268   8.369 -0.1663  1.5568  0.1021
  177MOL0     H24406   2.845   6.296   7.781  2.0933 -0.2290 -1.1196
  177MOL0     H24407   2.916   6.099   7.651  0.4461  0.8334 -1.0525
  177MOL0     H24408   3.260   5.836   7.599 -0.1016  1.9006  1.6086
  177MOL0     H24409   3.376   5.740   7.394  0.5984  2.3698 -0.1070
  177MOL0     H24410   2.550   5.003   7.572 -0.2285 -2.0744  1.8912
  177MOL0     H24411   2.696   4.812   7.588 -2.3636  2.6813  2.2609
  177MOL0     H24412   2.947   4.539   7.495 -2.3398  1.2604 -0.1218
  177MOL0     H24413   3.119   4.379   7.568  0.5199 -1.6769  2.6365
  177MOL0     H24414   3.160   4.056   7.738 -0.4389  0.4571  0.9760
  177MOL0     H24415   2.983   4.059   7.731  0.5175 -0.1565  1.0248
  177MOL0     H24416   3.155   3.867   7.569  0.6160  0.0610  1.7226
  177MOL0     H24417   2.969   3.869   7.588 -1.7442  1.0354  3.6969
  177MOL0     H24418   3.193   3.813   7.779 -0.4255 -0.8746 -0.1581
  177MOL0     H24419   3.033   3.837   7.835  0.1834 -0.3719  1.1784
  177MOL0     H24420   3.154   3.618   7.655 -2.2614  0.5335 -2.7002
  177MOL0     H24421   2.977   3.627   7.696 -0.8052  0.9644  2.1686
  177MOL0     H24422   3.154   3.450   8.035 -2.6107 -1.3218 -0.9999
  177MOL0     H24423   2.867   4.051   7.484 -3.2876  0.3618  1.1876
  177MOL0     H24424   2.559   4.220   7.450 -1.7676 -3.0866  3.2073
  177MOL0     H24425   2.624   4.175   7.291  0.6516 -0.3718  0.8660
  177MOL0     H24426   2.662   4.074   7.414  3.9931  1.2703 -0.3812
  178MOL0     O24427   2.987   9.667  11.345  0.0306  0.2312 -0.3954
  178MOL0     C24428   2.941   9.589  11.266 -0.0185 -0.5821 -0.0682
  178MOL0     O24429   2.997   9.467  11.244 -0.1306 -0.7816 -0.3229
  178MOL0     C24430   3.085   9.410  11.342 -0.4297 -0.0559 -0.3144
  178MOL0     C24431   3.216   9.392  11.295  0.0430  0.4591 -0.1324
  178MOL0     C24432   3.316   9.360  11.379 -0.7270  0.9137 -1.1490
  178MOL0     C24433   3.286   9.334  11.518 -0.4388  0.3965 -1.2017
  178MOL0     O24434   3.383   9.323  11.609  0.5498 -0.7157 -0.1117
  178MOL0     C24435   3.496   9.408  11.608 -0.2020 -0.1420  0.5562
  178MOL0     C24436   3.581   9.363  11.736 -0.9459  0.3660  0.5830
  178MOL0     C24437   3.723   9.425  11.727  0.0709  0.9360  0.4850
  178MOL0     C24438   3.804   9.395  11.853 -0.8917  0.1204 -0.0035
  178MOL0     C24439   3.941   9.469  11.858 -0.7193  0.1653 -0.0940
  178MOL0     C24440   3.945   9.612  11.919 -0.2521 -0.0149 -0.0101
  178MOL0     C24441   3.846   9.715  11.854 -0.7629  0.4014  0.8091
  178MOL0     C24442   3.871   9.852  11.913  0.0073  0.4279  0.0286
  178MOL0     N24443   3.775   9.949  11.865  0.9423 -0.9553 -0.2181
  178MOL0     C24444   3.807  10.065  11.802 -0.0235 -0.9538 -0.1664
  178MOL0     C24445   3.696  10.118  11.751 -0.0168  1.1129 -0.5746
  178MOL0     C24446   3.668  10.234  11.669 -0.0835 -0.1070  0.1908
  178MOL0     C24447   3.751  10.360  11.717 -0.7188  0.6714 -0.1744
  178MOL0     C24448   3.717  10.392  11.865 -0.7074  0.9550 -1.2254
  178MOL0     C24449   3.760  10.529  11.903 -0.7303 -0.4366 -0.6857
  178MOL0     O24450   3.904  10.522  11.910  0.3142 -0.2171  0.2988
  178MOL0     C24451   3.975  10.639  11.941  0.0637 -0.0346  0.0046
  178MOL0     C24452   4.113  10.633  11.950  1.8092  0.6777 -0.3042
  178MOL0     C24453   4.192  10.749  11.958 -0.3247 -0.6062  0.2820
  178MOL0     C24454   4.339  10.720  11.934 -0.2495  0.0035  0.4408
  178MOL0     C24455   4.133  10.877  11.969  0.0572  0.3668 -0.5798
  178MOL0     C24456   4.210  10.997  11.974 -0.5031 -0.2911  0.1143
  178MOL0     O24457   4.176  11.096  12.065 -0.2993 -0.6009 -0.0113
  178MOL0     C24458   4.287  11.162  12.116 -0.4737  0.7902 -0.3191
  178MOL0     C24459   4.363  11.102  12.208  0.1830  0.7478  0.1252
  178MOL0     C24460   4.465  11.167  12.270  0.6117 -0.6234 -0.5277
  178MOL0     C24461   4.496  11.294  12.237  0.2298 -1.4638  0.1539
  178MOL0     O24462   4.593  11.372  12.300 -0.3581  0.4155  0.2021
  178MOL0     C24463   4.669  11.317  12.405  1.2041 -0.5342  0.4924
  178MOL0     C24464   4.580  11.320  12.532 -0.6367  1.1113 -0.1098
  178MOL0     C24465   4.560  11.461  12.573 -0.9662  0.8749 -0.4834
  178MOL0     C24466   4.487  11.479  12.713 -0.2052  0.3702  0.5912
  178MOL0     C24467   4.440  11.618  12.741 -0.6510  0.4730 -1.2187
  178MOL0     C24468   4.398  11.645  12.881 -0.3433  0.7861 -0.8036
  178MOL0     C24469   4.362  11.791  12.943 -0.4520  0.7149  0.1627
  178MOL0     C24470   4.339  11.776  13.092  0.2360 -0.6050 -0.3916
  178MOL0    Cl24471   4.290  11.948  13.150  0.5246 -0.2567 -0.5643
  178MOL0     C24472   4.417  11.363  12.140  0.4045  0.1969 -0.7299
  178MOL0     C24473   4.310  11.292  12.077 -0.7118  0.3894 -0.2530
  178MOL0     O24474   4.308  11.002  11.902 -0.4755 -0.2784  0.3936
  178MOL0     C24475   3.994  10.886  11.982 -0.3539 -0.9031  0.0409
  178MOL0     C24476   3.916  10.771  11.961  0.3428  0.5195  0.1151
  178MOL0     N24477   3.596  10.043  11.800  0.3310 -0.0087  0.7069
  178MOL0     N24478   3.638   9.938  11.860 -1.2346  0.2533  0.1757
  178MOL0     C24479   3.145   9.341  11.562 -1.1306  0.2246 -0.0223
  178MOL0     C24480   3.056   9.385  11.473  0.5319 -0.0187  0.6333
  178MOL0     C24481   2.835   9.633  11.165 -0.0735 -0.3144 -0.2880
  178MOL0     C24482   2.820   9.549  11.058 -0.1665 -0.1201 -0.3608
  178MOL0     C24483   2.730   9.579  10.950 -0.0934 -0.0237  0.4280
  178MOL0     C24484   2.640   9.688  10.965 -0.1385  0.6607  0.4068
  178MOL0     O24485   2.547   9.719  10.862 -0.2499 -0.0091  0.7670
  178MOL0     C24486   2.553   9.839  10.782 -0.1800 -0.2548 -0.4626
  178MOL0     C24487   2.630   9.803  10.664 -0.2201 -0.2887  0.3268
  178MOL0     C24488   2.555   9.705  10.574 -0.2889 -0.2632  0.2401
  178MOL0     C24489   2.643   9.653  10.458 -0.4401  0.3422 -0.2574
  178MOL0     C24490   2.667   9.761  10.362 -0.7260 -0.3995  0.1425
  178MOL0     C24491   2.685   9.850  10.282  0.7907 -0.2399 -0.0212
  178MOL0     C24492   2.646   9.780  11.080 -0.3524  0.6379  0.4307
  178MOL0     C24493   2.752   9.754  11.172  0.5046 -0.4255  0.0702
  178MOL0     C24494   2.750   9.827  11.310  0.0449  0.0929 -0.4555
  178MOL0     H24495   3.240   9.412  11.191  1.4026 -1.7170 -0.2963
  178MOL0     H24496   3.417   9.369  11.341  1.0035 -1.4688  2.3062
  178MOL0     H24497   3.469   9.513  11.617 -0.3186 -0.0445 -0.6986
  178MOL0     H24498   3.565   9.411  11.522  1.1716  0.4014  1.6387
  178MOL0     H24499   3.524   9.400  11.822 -0.3598  2.1737  0.2360
  178MOL0     H24500   3.584   9.254  11.737  1.2441  0.3647  0.3764
  178MOL0     H24501   3.785   9.398  11.640 -0.6812 -1.4509  0.6244
  178MOL0     H24502   3.701   9.532  11.726 -3.8948  0.2444 -0.2187
  178MOL0     H24503   3.748   9.401  11.947  0.2270  1.1971  0.6170
  178MOL0     H24504   3.846   9.295  11.851 -2.1944 -0.4434 -0.2460
  178MOL0     H24505   3.967   9.481  11.753 -3.4339  1.3819 -0.7233
  178MOL0     H24506   4.021   9.418  11.912  0.5419  0.6810 -1.4305
  178MOL0     H24507   3.921   9.611  12.025 -1.1922  2.3042 -0.1310
  178MOL0     H24508   4.051   9.636  11.915 -0.4208  0.6111 -1.3279
  178MOL0     H24509   3.742   9.684  11.862 -0.3026 -1.2668  0.6499
  178MOL0     H24510   3.860   9.725  11.745  0.8818 -0.6792  0.8944
  178MOL0     H24511   3.852   9.844  12.020  0.9884  3.0767  0.4726
  178MOL0     H24512   3.977   9.876  11.899  1.1071 -2.5818  2.1207
  178MOL0     H24513   3.903  10.112  11.784 -1.2852  1.2521 -1.6081
  178MOL0     H24514   3.561  10.251  11.674 -0.1227 -0.4774  0.6817
  178MOL0     H24515   3.690  10.218  11.563 -1.1521 -0.7283  0.0573
  178MOL0     H24516   3.857  10.334  11.712 -1.2512 -1.7173 -0.5648
  178MOL0     H24517   3.725  10.442  11.649 -1.6282  0.1473 -0.4828
  178MOL0     H24518   3.611  10.381  11.891 -0.1319 -2.3322  0.3061
  178MOL0     H24519   3.769  10.322  11.931  1.6710  1.4341 -2.5011
  178MOL0     H24520   3.725  10.591  11.821  1.1514  1.0971 -0.4009
  178MOL0     H24521   3.705  10.560  11.993 -2.0099  0.8423 -1.8634
  178MOL0     H24522   4.144  10.531  11.928  2.1805  0.8664 -0.6650
  178MOL0     H24523   4.398  10.786  11.998  0.1908  1.2254 -1.1472
  178MOL0     H24524   4.373  10.732  11.831 -0.6048 -4.0550 -0.2927
  178MOL0     H24525   4.366  10.617  11.960  1.7465  0.3737  0.0616
  178MOL0     H24526   4.337  10.999  12.233 -0.0178  0.7921  0.1035
  178MOL0     H24527   4.525  11.117  12.345 -0.6863  2.8409  3.1639
  178MOL0     H24528   4.698  11.214  12.384 -1.1108 -0.8394 -1.6277
  178MOL0     H24529   4.761  11.369  12.433  0.1955  1.3527  0.4257
  178MOL0     H24530   4.484  11.269  12.517 -0.5273  1.3966 -2.0078
  178MOL0     H24531   4.640  11.276  12.612 -2.0413  1.1728  1.0268
  178MOL0     H24532   4.492  11.498  12.495  2.1016  0.3225 -3.6754
  178MOL0     H24533   4.651  11.521  12.577  0.1164 -0.7074 -0.7092
  178MOL0     H24534   4.569  11.457  12.783  0.5393  2.7064  0.5508
  178MOL0     H24535   4.405  11.408  12.725 -0.0478  0.4482  2.5450
  178MOL0     H24536   4.522  11.685  12.712 -1.7028  1.8000 -1.2312
  178MOL0     H24537   4.361  11.649  12.673 -1.1723 -2.0069 -1.8274
  178MOL0     H24538   4.479  11.610  12.946 -0.3053 -1.7196 -2.0625
  178MOL0     H24539   4.316  11.580  12.912 -1.1244  3.1098  2.4784
  178MOL0     H24540   4.275  11.833  12.892 -1.7262 -1.2097  0.6507
  178MOL0     H24541   4.444  11.861  12.926  0.3671 -0.0446  0.8692
  178MOL0     H24542   4.435  11.758  13.141  2.2175 -0.5624 -3.9012
  178MOL0     H24543   4.258  11.704  13.104 -0.8174  0.3786 -1.4394
  178MOL0     H24544   4.429  11.468  12.114 -0.5621  0.4177 -0.3317
  178MOL0     H24545   4.249  11.346  12.006 -0.4379 -0.0100 -0.7979
  178MOL0     H24546   3.957  10.985  12.004  4.8249  1.5652 -0.7570
  178MOL0     H24547   3.813  10.781  11.928  0.5146  1.4255 -0.1692
  178MOL0     H24548   3.120   9.313  11.664 -2.2317  2.3587  0.3375
  178MOL0     H24549   2.954   9.409  11.501  1.3322  2.0942  2.0773
  178MOL0     H24550   2.888   9.465  11.051 -0.1846 -0.8550  4.5706
  178MOL0     H24551   2.721   9.514  10.863 -0.0864  1.1052 -0.4425
  178MOL0     H24552   2.458   9.883  10.753 -1.0256 -1.5174  0.3052
  178MOL0     H24553   2.608   9.919  10.834  0.2382 -1.5281  1.1387
  178MOL0     H24554   2.727   9.765  10.698 -1.1632  0.4303  4.3602
  178MOL0     H24555   2.658   9.899  10.620  0.9477 -1.3414 -1.3602
  178MOL0     H24556   2.515   9.623  10.635  0.7553  0.8980  2.6100
  178MOL0     H24557   2.465   9.751  10.533  1.4884  0.8133 -2.8268
  178MOL0     H24558   2.579   9.574  10.418 -1.1501  0.2524  0.9915
  178MOL0     H24559   2.744   9.618  10.478  1.2921  2.6762 -3.8095
  178MOL0     H24560   2.701   9.941  10.226 -2.0722 -1.1788 -2.6305
  178MOL0     H24561   2.581   9.866  11.095  0.6654  1.7164 -0.9879
  178MOL0     H24562   2.845   9.876  11.333 -0.4678  0.8656  0.0373
  178MOL0     H24563   2.677   9.907  11.298  0.9963  1.2161  0.9789
  178MOL0     H24564   2.734   9.766  11.399  4.0540  2.0814  1.8735
  179MOL0     O24565   8.246   9.929   3.472  1.1281 -0.3283 -0.4517
  179MOL0     C24566   8.211  10.023   3.398 -0.5123  0.2337  0.0424
  179MOL0     O24567   8.105  10.017   3.307  0.4659  0.0205  0.5821
  179MOL0     C24568   7.999   9.934   3.345 -0.8237 -0.1750  0.5156
  179MOL0     C24569   7.921   9.993   3.443 -0.1875  0.2075 -0.1396
  179MOL0     C24570   7.800   9.928   3.487  0.1726 -0.1123  0.0217
  179MOL0     C24571   7.766   9.794   3.441 -0.2068 -0.6916 -0.5824
  179MOL0     O24572   7.656   9.722   3.485  0.5860  0.1318  0.0998
  179MOL0     C24573   7.536   9.795   3.459  0.2578 -0.8547 -0.5234
  179MOL0     C24574   7.433   9.691   3.437 -0.7970 -0.0558  0.5001
  179MOL0     C24575   7.292   9.742   3.417  0.7088 -1.5012 -0.2466
  179MOL0     C24576   7.249   9.843   3.304  0.2553 -1.2966 -0.5188
  179MOL0     C24577   7.234   9.759   3.181  0.5998 -0.2161 -0.2705
  179MOL0     C24578   7.216   9.845   3.054 -0.2183  0.9039 -0.3792
  179MOL0     C24579   7.129   9.783   2.949  0.2038 -0.7627  0.9551
  179MOL0     C24580   7.157   9.847   2.805 -0.3613  0.5081 -1.1996
  179MOL0     N24581   7.045   9.823   2.713 -0.2549 -0.1312  0.0928
  179MOL0     C24582   7.057   9.753   2.588 -0.2847  0.5233  0.0257
  179MOL0     C24583   6.935   9.765   2.523 -0.2083 -1.5101 -0.7031
  179MOL0     C24584   6.881   9.737   2.382 -0.4754 -0.0904  0.7191
  179MOL0     C24585   6.893   9.847   2.270  0.1236  0.9642  0.1508
  179MOL0     C24586   6.758   9.918   2.240  0.4766 -0.3737  0.2785
  179MOL0     C24587   6.715   9.999   2.357 -0.1726  1.2231  1.1075
  179MOL0     O24588   6.817  10.097   2.387  0.1421 -0.0350 -0.8971
  179MOL0     C24589   6.771  10.208   2.463 -0.4608  0.8034  0.0705
  179MOL0     C24590   6.850  10.321   2.447  0.5078  0.1111  0.7939
  179MOL0     C24591   6.829  10.443   2.505  0.0809  0.5199 -0.7338
  179MOL0     C24592   6.931  10.550   2.489 -0.4841  0.2487 -0.1454
  179MOL0     C24593   6.706  10.455   2.580 -0.6117  0.0971  0.0667
  179MOL0     C24594   6.665  10.575   2.666 -0.0755 -0.0590 -0.3974
  179MOL0     O24595   6.570  10.569   2.764 -0.5811 -0.4914 -0.6216
  179MOL0     C24596   6.556  10.678   2.840 -0.1037 -0.0767  0.3411
  179MOL0     C24597   6.589  10.659   2.972  1.3625 -0.6734  0.1446
  179MOL0     C24598   6.553  10.753   3.067 -0.0660 -0.0804 -0.0141
  179MOL0     C24599   6.502  10.872   3.034  0.5746 -0.3359  0.9751
  179MOL0     O24600   6.485  10.979   3.115  0.6885  0.0610  0.0778
  179MOL0     C24601   6.577  10.994   3.221 -0.2532 -0.5071  0.0731
  179MOL0     C24602   6.575  11.138   3.255 -0.9002 -0.2505  0.4398
  179MOL0     C24603   6.645  11.168   3.384  0.5388 -0.3198  0.0844
  179MOL0     C24604   6.648  11.311   3.420  0.7709 -0.5916  0.5356
  179MOL0     C24605   6.761  11.342   3.518 -0.0109  0.3021 -1.2658
  179MOL0     C24606   6.901  11.298   3.466  0.0992  1.1179 -1.1815
  179MOL0     C24607   7.008  11.390   3.532  0.3272 -0.0524 -0.5871
  179MOL0     C24608   7.148  11.335   3.535  0.0468  0.2459  0.6226
  179MOL0    Cl24609   7.189  11.312   3.372  0.1914  0.2946 -0.3002
  179MOL0     C24610   6.468  10.895   2.902 -0.2643  0.0697  0.6826
  179MOL0     C24611   6.494  10.798   2.804  0.7066 -0.5289 -0.4980
  179MOL0     O24612   6.743  10.673   2.663 -0.2021 -0.1029  0.3838
  179MOL0     C24613   6.627  10.341   2.598  0.5169 -0.3496  0.8070
  179MOL0     C24614   6.657  10.220   2.536 -0.3613 -0.8897  0.6948
  179MOL0     N24615   6.860   9.838   2.613  0.6405  0.4625  1.1978
  179MOL0     N24616   6.924   9.879   2.719 -0.5652 -0.0018  0.4618
  179MOL0     C24617   7.855   9.739   3.354  0.5030 -0.9110 -0.2664
  179MOL0     C24618   7.961   9.805   3.297  0.0310  0.1530  0.9460
  179MOL0     C24619   8.308  10.148   3.390  0.7730 -0.6029  0.3859
  179MOL0     C24620   8.247  10.265   3.336  0.1286  0.1879 -0.5698
  179MOL0     C24621   8.309  10.382   3.323 -0.8036  0.3362  0.4285
  179MOL0     C24622   8.444  10.395   3.351 -0.5060  0.5785 -0.0505
  179MOL0     O24623   8.521  10.506   3.335 -0.4048  0.2355  0.4924
  179MOL0     C24624   8.460  10.633   3.305  0.2328 -1.2820 -0.9529
  179MOL0     C24625   8.563  10.735   3.276  0.4803 -0.2044  0.7302
  179MOL0     C24626   8.681  10.681   3.197 -0.9814  0.6283 -0.2252
  179MOL0     C24627   8.767  10.800   3.162  0.4254  0.3142  0.6470
  179MOL0     C24628   8.906  10.768   3.126  0.2639 -0.9803 -0.1901
  179MOL0     C24629   9.023  10.747   3.081 -0.9007 -0.2565 -0.2910
  179MOL0     C24630   8.503  10.293   3.426 -0.4655  0.3308 -0.5532
  179MOL0     C24631   8.435  10.173   3.450 -1.1714  0.6219  0.3909
  179MOL0     C24632   8.511  10.066   3.531 -0.3566  0.3791  0.1226
  179MOL0     H24633   7.949  10.092   3.477  1.3762 -1.0015  2.3534
  179MOL0     H24634   7.743   9.989   3.557  1.7530 -0.3696  1.6194
  179MOL0     H24635   7.550   9.858   3.370  4.1567 -0.4328  0.2270
  179MOL0     H24636   7.524   9.854   3.550 -0.9029  1.7857 -2.2566
  179MOL0     H24637   7.473   9.641   3.348  3.3725  2.3618  0.7414
  179MOL0     H24638   7.433   9.615   3.516 -0.9301 -3.6259 -2.6208
  179MOL0     H24639   7.229   9.654   3.404 -2.5061  0.2148  2.1791
  179MOL0     H24640   7.247   9.789   3.505 -2.2227 -2.1621 -1.2745
  179MOL0     H24641   7.159   9.901   3.328  3.0501  2.5995  1.7995
  179MOL0     H24642   7.310   9.934   3.304 -2.3991  0.6022 -1.1109
  179MOL0     H24643   7.140   9.706   3.200  0.9364 -0.5956  0.3864
  179MOL0     H24644   7.311   9.684   3.166  1.5383  1.1986 -3.2795
  179MOL0     H24645   7.192   9.949   3.080 -0.0776  0.4741  1.6682
  179MOL0     H24646   7.321   9.848   3.024  0.5811 -0.7036  1.9578
  179MOL0     H24647   7.028   9.817   2.973  1.1321  5.2852 -1.8123
  179MOL0     H24648   7.125   9.674   2.954  3.7345 -0.9919  0.8212
  179MOL0     H24649   7.161   9.955   2.818  1.3617  0.1677  2.0865
  179MOL0     H24650   7.252   9.803   2.770 -0.9424 -2.6061  0.7129
  179MOL0     H24651   7.143   9.701   2.546  0.4354  1.7002  0.0189
  179MOL0     H24652   6.777   9.704   2.388  0.5093 -3.9006 -0.5156
  179MOL0     H24653   6.947   9.665   2.333  1.0311 -0.1023  2.6246
  179MOL0     H24654   6.976   9.917   2.287 -0.5450  1.0415  3.8518
  179MOL0     H24655   6.922   9.795   2.178 -0.8675 -0.7016  0.7334
  179MOL0     H24656   6.763   9.987   2.155  1.2782 -2.3261 -1.3251
  179MOL0     H24657   6.676   9.846   2.234  0.1842 -0.1438  1.2481
  179MOL0     H24658   6.619  10.045   2.331  2.0354  4.3307 -2.7689
  179MOL0     H24659   6.694   9.941   2.447  2.1447 -1.9721 -0.2038
  179MOL0     H24660   6.925  10.286   2.376 -1.6694 -4.6642  0.4864
  179MOL0     H24661   6.997  10.544   2.403  0.6528  2.4797  0.5170
  179MOL0     H24662   7.005  10.549   2.569 -0.3600 -0.7591 -0.2545
  179MOL0     H24663   6.891  10.651   2.475  0.8017  0.5726 -1.6844
  179MOL0     H24664   6.634  10.565   3.000 -3.2046 -3.4155 -0.8226
  179MOL0     H24665   6.579  10.723   3.168 -0.4391 -0.7193 -0.1048
  179MOL0     H24666   6.548  10.939   3.311  1.2312 -0.3403  0.6836
  179MOL0     H24667   6.677  10.970   3.183 -0.4446 -1.5499  0.2008
  179MOL0     H24668   6.618  11.208   3.183 -0.6725 -0.8406 -0.0065
  179MOL0     H24669   6.468  11.161   3.259 -0.7984  0.1406  1.0286
  179MOL0     H24670   6.741  11.116   3.382  0.3476 -0.6599 -2.0434
  179MOL0     H24671   6.570  11.119   3.448  0.1330 -1.8219 -1.4467
  179MOL0     H24672   6.553  11.342   3.464 -0.3190  0.5540 -2.3894
  179MOL0     H24673   6.672  11.374   3.334  3.2275 -3.0148 -0.7176
  179MOL0     H24674   6.757  11.451   3.527  0.1435  0.1479  1.6623
  179MOL0     H24675   6.747  11.297   3.617  1.9880 -0.2010 -1.1785
  179MOL0     H24676   6.909  11.301   3.357  0.9937 -0.5910 -1.2022
  179MOL0     H24677   6.912  11.190   3.472 -0.7341  1.0797  0.1156
  179MOL0     H24678   6.984  11.413   3.637  1.8676  1.5228 -0.5382
  179MOL0     H24679   7.016  11.485   3.478  0.5120  1.1415  1.4106
  179MOL0     H24680   7.160  11.232   3.571  0.1484  0.4800  1.2628
  179MOL0     H24681   7.210  11.395   3.601 -1.4733 -2.2290  4.6941
  179MOL0     H24682   6.416  10.982   2.863 -0.4241 -1.3520 -2.5409
  179MOL0     H24683   6.453  10.834   2.710  0.0215 -0.9989 -0.3901
  179MOL0     H24684   6.549  10.338   2.674  0.1703  2.5214  0.6529
  179MOL0     H24685   6.592  10.134   2.532 -2.5082  0.6026 -3.6531
  179MOL0     H24686   7.830   9.641   3.313  2.7596 -1.3963 -0.6473
  179MOL0     H24687   8.009   9.764   3.209 -0.7662  1.3914 -0.0964
  179MOL0     H24688   8.146  10.255   3.298 -0.1350 -1.8063  0.5187
  179MOL0     H24689   8.259  10.456   3.262 -1.2458 -1.6902 -1.8060
  179MOL0     H24690   8.391  10.632   3.220 -1.3685  2.6155  0.1231
  179MOL0     H24691   8.396  10.664   3.388  0.6624  0.9794 -1.3971
  179MOL0     H24692   8.598  10.781   3.369  0.4292  1.6616 -0.1490
  179MOL0     H24693   8.523  10.820   3.222  1.1485 -0.1870  0.2495
  179MOL0     H24694   8.731  10.615   3.268 -2.1219 -3.2931 -2.7039
  179MOL0     H24695   8.653  10.625   3.107 -1.0156  0.6572 -0.2330
  179MOL0     H24696   8.767  10.869   3.247  0.5894  1.0909  0.0239
  179MOL0     H24697   8.726  10.860   3.080 -1.1132  1.2427  2.0469
  179MOL0     H24698   9.119  10.734   3.035 -1.2701 -1.2630 -0.8097
  179MOL0     H24699   8.604  10.315   3.461 -1.0874  0.8654  1.0041
  179MOL0     H24700   8.614  10.098   3.548  0.6862 -2.6024 -0.1264
  179MOL0     H24701   8.457  10.064   3.626 -1.7586 -0.3927 -0.6442
  179MOL0     H24702   8.511   9.965   3.489  3.1407  1.0573 -1.8678
  180MOL0     O24703   0.269   2.877   0.675  0.4148  0.3455  0.1135
  180MOL0     C24704   0.262   2.758   0.685 -0.2954 -0.1667 -0.1868
  180MOL0     O24705   0.182   2.684   0.768 -0.3511  1.0385  0.2303
  180MOL0     C24706   0.063   2.737   0.809  0.8829 -0.4172  0.1687
  180MOL0     C24707  -0.025   2.813   0.722 -0.3418  0.1323  0.6378
  180MOL0     C24708  -0.145   2.863   0.772 -0.0330  0.1374 -0.4374
  180MOL0     C24709  -0.189   2.843   0.909 -0.5859  0.6722 -0.6053
  180MOL0     O24710  -0.308   2.882   0.955  0.4605  0.0763  0.6776
  180MOL0     C24711  -0.404   2.962   0.873  0.3571  1.1162  0.1798
  180MOL0     C24712  -0.342   3.109   0.841 -1.1701  0.1132  0.4701
  180MOL0     C24713  -0.348   3.202   0.961 -0.5925  1.0377  0.3832
  180MOL0     C24714  -0.310   3.342   0.920 -0.5494 -0.2493  0.4264
  180MOL0     C24715  -0.307   3.438   1.034  0.0632 -0.1830 -0.8712
  180MOL0     C24716  -0.216   3.563   1.015  0.5083  0.1579  0.4974
  180MOL0     C24717  -0.238   3.638   0.886 -0.8191 -0.2504  0.7393
  180MOL0     C24718  -0.158   3.760   0.865 -0.2494  0.3632 -0.9708
  180MOL0     N24719  -0.229   3.841   0.763 -0.0763 -0.1583  0.7782
  180MOL0     C24720  -0.179   3.876   0.642  0.0224  0.1940 -1.0929
  180MOL0     C24721  -0.239   3.987   0.607  0.3969 -0.6968  0.3125
  180MOL0     C24722  -0.198   4.089   0.504  0.1040  0.5127 -0.0700
  180MOL0     C24723  -0.139   4.214   0.562  0.0196 -0.4719 -0.2460
  180MOL0     C24724  -0.135   4.325   0.461  0.0665  0.4402  0.9719
  180MOL0     C24725  -0.264   4.401   0.436 -0.0918 -0.0426  0.2240
  180MOL0     O24726  -0.236   4.528   0.388  0.2194 -0.1083 -0.1875
  180MOL0     C24727  -0.341   4.601   0.341 -0.2425 -0.1863  0.7569
  180MOL0     C24728  -0.448   4.637   0.419 -0.0761 -0.6478  0.9067
  180MOL0     C24729  -0.560   4.703   0.355 -0.1589  0.3459  0.6314
  180MOL0     C24730  -0.680   4.732   0.437  0.1196  0.7894  0.3748
  180MOL0     C24731  -0.550   4.741   0.219 -0.7074  0.4514 -0.3215
  180MOL0     C24732  -0.665   4.807   0.147  0.4751  0.3563 -0.0122
  180MOL0     O24733  -0.638   4.855   0.023 -0.3114  0.2344 -0.1971
  180MOL0     C24734  -0.738   4.925  -0.035  0.0879 -0.0516 -1.2099
  180MOL0     C24735  -0.856   4.996   0.025 -0.3399  0.5374  0.6161
  180MOL0     C24736  -0.958   5.041  -0.060 -0.3161 -0.0028 -0.1549
  180MOL0     C24737  -0.960   5.028  -0.196  0.2039 -0.3737 -0.1636
  180MOL0     O24738  -1.077   5.059  -0.257 -0.1380  0.0276  1.2959
  180MOL0     C24739  -1.099   5.013  -0.393 -0.2880 -0.1241  0.2868
  180MOL0     C24740  -1.048   5.117  -0.493  0.2266  0.5175 -0.0372
  180MOL0     C24741  -1.086   5.089  -0.639  0.6271  0.4636 -0.1205
  180MOL0     C24742  -0.990   4.993  -0.719  0.6324  0.9159 -0.5991
  180MOL0     C24743  -0.978   4.845  -0.678  0.0345  0.8264  0.1240
  180MOL0     C24744  -0.894   4.760  -0.776  0.0956 -0.8707  0.3525
  180MOL0     C24745  -0.979   4.691  -0.884  0.6253  1.2783  0.8416
  180MOL0     C24746  -0.893   4.626  -0.998  0.7509  0.3417  0.3262
  180MOL0    Cl24747  -0.795   4.485  -0.934 -0.1810  0.0270 -0.0794
  180MOL0     C24748  -0.839   4.977  -0.253  0.1589 -0.4512 -0.9534
  180MOL0     C24749  -0.734   4.922  -0.173  0.0723 -0.5303  0.4110
  180MOL0     O24750  -0.776   4.797   0.194 -0.1202  0.3190  0.3663
  180MOL0     C24751  -0.435   4.709   0.159  0.3477  0.3939  0.9659
  180MOL0     C24752  -0.335   4.636   0.208 -0.4793  0.0533  0.7595
  180MOL0     N24753  -0.340   4.013   0.696 -0.2495  0.5529  0.3269
  180MOL0     N24754  -0.338   3.920   0.788  0.7358 -0.6687 -0.5312
  180MOL0     C24755  -0.104   2.752   0.983  0.0753 -0.9095  1.1171
  180MOL0     C24756   0.026   2.707   0.931  1.1056 -0.6075 -0.4774
  180MOL0     C24757   0.372   2.686   0.620 -0.2024 -0.5703  0.1489
  180MOL0     C24758   0.504   2.704   0.668 -1.0083  0.4290 -0.1045
  180MOL0     C24759   0.610   2.614   0.646 -0.7869  0.1245 -0.2452
  180MOL0     C24760   0.587   2.514   0.554 -0.5187 -0.3505 -1.3101
  180MOL0     O24761   0.690   2.429   0.520  0.2329 -0.8266  0.5322
  180MOL0     C24762   0.763   2.355   0.622  0.6715 -0.7854 -0.6565
  180MOL0     C24763   0.725   2.214   0.607 -0.6624  0.6591 -0.0396
  180MOL0     C24764   0.801   2.117   0.688  0.0887  0.5481 -0.3942
  180MOL0     C24765   0.778   1.971   0.645  1.1266 -0.1326 -0.6648
  180MOL0     C24766   0.823   1.949   0.514  0.2220 -0.6044 -0.2232
  180MOL0     C24767   0.876   1.936   0.402  0.4124 -0.7594 -0.9347
  180MOL0     C24768   0.457   2.477   0.512 -0.3830 -0.8173 -0.4933
  180MOL0     C24769   0.347   2.560   0.546  0.2753 -0.5455  0.4791
  180MOL0     C24770   0.212   2.523   0.512 -0.3276  0.4916 -0.2361
  180MOL0     H24771  -0.003   2.831   0.617 -1.8313 -0.1105  0.2611
  180MOL0     H24772  -0.209   2.919   0.706 -2.7811 -1.3502  0.7879
  180MOL0     H24773  -0.495   2.977   0.932  0.4848  3.0780 -0.0337
  180MOL0     H24774  -0.430   2.898   0.788  0.3165 -0.2694  1.2143
  180MOL0     H24775  -0.234   3.109   0.820 -0.7906  0.1842  2.2899
  180MOL0     H24776  -0.396   3.154   0.758 -0.4144  0.6379  0.2506
  180MOL0     H24777  -0.453   3.194   0.989  0.2241 -0.8075  3.4171
  180MOL0     H24778  -0.293   3.166   1.048 -0.7346 -1.1070 -0.3672
  180MOL0     H24779  -0.208   3.331   0.882 -0.9593 -2.3539 -0.2500
  180MOL0     H24780  -0.369   3.385   0.839  0.2133 -0.3046 -0.1673
  180MOL0     H24781  -0.288   3.390   1.130  1.2164  0.5911 -0.7039
  180MOL0     H24782  -0.406   3.485   1.039  0.7658  1.6345 -2.7038
  180MOL0     H24783  -0.227   3.634   1.097 -2.4511 -1.3028  1.5276
  180MOL0     H24784  -0.112   3.530   1.022  0.4552  0.0021  0.5442
  180MOL0     H24785  -0.343   3.667   0.878 -0.0771  2.8421  1.1148
  180MOL0     H24786  -0.223   3.581   0.794  2.7995  3.3169 -1.1972
  180MOL0     H24787  -0.176   3.804   0.964 -3.3281 -0.5268 -1.0305
  180MOL0     H24788  -0.050   3.747   0.860  0.0575  2.0954  0.1732
  180MOL0     H24789  -0.088   3.845   0.592 -1.4555 -2.1836 -2.4798
  180MOL0     H24790  -0.282   4.127   0.446  0.2280  2.7375  1.1008
  180MOL0     H24791  -0.135   4.029   0.437 -0.4738 -1.3255  0.9911
  180MOL0     H24792  -0.209   4.236   0.643 -0.2106 -1.5767 -0.1194
  180MOL0     H24793  -0.044   4.186   0.610  0.2786  1.5931  0.5167
  180MOL0     H24794  -0.065   4.391   0.514  1.4566 -0.4649  0.3254
  180MOL0     H24795  -0.082   4.290   0.372  2.2906 -0.8549  2.6838
  180MOL0     H24796  -0.330   4.347   0.368 -0.9676 -0.6344  1.5057
  180MOL0     H24797  -0.317   4.417   0.530 -0.1092 -2.4838  0.6998
  180MOL0     H24798  -0.448   4.623   0.526 -1.0285 -3.0481  0.6546
  180MOL0     H24799  -0.706   4.837   0.425  0.5719  1.1746  2.5087
  180MOL0     H24800  -0.683   4.690   0.538  2.1486 -3.7398 -1.1798
  180MOL0     H24801  -0.763   4.678   0.389 -1.0051  0.6128  2.3823
  180MOL0     H24802  -0.869   5.013   0.131  0.3467  2.3270  0.4531
  180MOL0     H24803  -1.042   5.100  -0.025 -1.0885  0.5612 -2.7470
  180MOL0     H24804  -1.059   4.914  -0.418 -1.9689 -0.4821 -1.2227
  180MOL0     H24805  -1.207   4.998  -0.402 -0.1357 -1.8214  0.8376
  180MOL0     H24806  -1.088   5.216  -0.469  2.0391  1.1585  0.4710
  180MOL0     H24807  -0.940   5.124  -0.483  0.7012 -0.3108 -3.3284
  180MOL0     H24808  -1.098   5.185  -0.691  1.2106 -0.5404 -2.2350
  180MOL0     H24809  -1.185   5.043  -0.635  1.7689 -2.0884  2.1136
  180MOL0     H24810  -0.892   5.042  -0.718  1.2577 -0.1654  2.1468
  180MOL0     H24811  -1.027   5.003  -0.821 -1.3503 -0.7357 -0.0984
  180MOL0     H24812  -0.913   4.841  -0.590  1.6600  1.4185 -1.0065
  180MOL0     H24813  -1.073   4.793  -0.661  2.0091 -2.0266  3.4962
  180MOL0     H24814  -0.842   4.681  -0.721 -0.3687  0.8153  3.4698
  180MOL0     H24815  -0.815   4.818  -0.824 -0.0960 -2.1555 -1.6430
  180MOL0     H24816  -1.056   4.759  -0.922 -0.7727 -0.5072  0.3007
  180MOL0     H24817  -1.034   4.605  -0.844 -0.8408  2.1949  0.8742
  180MOL0     H24818  -0.829   4.705  -1.038  2.4537 -1.0605  0.1651
  180MOL0     H24819  -0.959   4.594  -1.078 -0.0526 -0.6977  1.3774
  180MOL0     H24820  -0.847   4.964  -0.361 -3.6419  1.1049 -1.0355
  180MOL0     H24821  -0.667   4.854  -0.226 -0.3525 -0.9618  0.4160
  180MOL0     H24822  -0.412   4.733   0.056 -1.3568 -1.7736  0.0141
  180MOL0     H24823  -0.254   4.611   0.140 -0.6229 -0.0968  0.6434
  180MOL0     H24824  -0.121   2.732   1.089  0.8610  3.7247  2.2988
  180MOL0     H24825   0.083   2.655   1.008  0.5411  2.7177  2.4522
  180MOL0     H24826   0.525   2.795   0.723  0.0340  0.6710 -0.8765
  180MOL0     H24827   0.709   2.635   0.685  0.1098  0.2264 -2.4765
  180MOL0     H24828   0.868   2.379   0.604  0.0105  3.9185  0.4529
  180MOL0     H24829   0.736   2.393   0.721  2.7949  1.7940 -0.9641
  180MOL0     H24830   0.736   2.197   0.500  0.4987  0.8492  0.0384
  180MOL0     H24831   0.619   2.210   0.633 -0.5666 -0.4840  0.2284
  180MOL0     H24832   0.910   2.129   0.691  0.2859 -1.2964  0.9217
  180MOL0     H24833   0.779   2.115   0.795 -1.1631 -0.4080 -0.6509
  180MOL0     H24834   0.670   1.957   0.658  0.9533  1.9431  0.6795
  180MOL0     H24835   0.832   1.902   0.711  1.3745  1.9775  1.4672
  180MOL0     H24836   0.936   1.936   0.313  0.4512  1.0305 -0.9353
  180MOL0     H24837   0.436   2.396   0.443 -0.6117  0.1943 -1.6380
  180MOL0     H24838   0.215   2.482   0.410  4.6465  2.5464 -1.2266
  180MOL0     H24839   0.182   2.437   0.572  0.0756 -0.7782 -1.7890
  180MOL0     H24840   0.143   2.608   0.510  1.6876  2.3031  2.0621
  181MOL0     O24841   3.832   1.275   9.543 -0.9060 -0.4508  0.0793
  181MOL0     C24842   3.816   1.158   9.521 -0.1783  0.6861 -0.0483
  181MOL0     O24843   3.876   1.089   9.420 -0.1503  0.1335 -0.7669
  181MOL0     C24844   3.989   1.148   9.365  0.3130  0.1265  1.4410
  181MOL0     C24845   3.979   1.155   9.227 -0.4239  0.0150  0.3450
  181MOL0     C24846   4.083   1.211   9.145 -0.2280  0.0601 -0.8220
  181MOL0     C24847   4.200   1.264   9.215 -0.2502 -1.1343 -0.8987
  181MOL0     O24848   4.312   1.328   9.146  0.3695 -0.1773 -0.6250
  181MOL0     C24849   4.320   1.301   9.004 -0.5210 -0.2415 -0.1182
  181MOL0     C24850   4.448   1.372   8.970  0.0154 -0.0439  0.8055
  181MOL0     C24851   4.424   1.527   8.963  0.7349  0.1366 -0.0875
  181MOL0     C24852   4.564   1.599   8.942  0.9438  0.2093  0.6577
  181MOL0     C24853   4.566   1.755   8.917 -0.2913 -1.3605 -0.2411
  181MOL0     C24854   4.443   1.805   8.854  0.0853 -0.1177 -0.2633
  181MOL0     C24855   4.465   1.949   8.822 -0.2501 -0.5247 -0.0450
  181MOL0     C24856   4.334   2.007   8.759  0.4507  0.0067 -0.0209
  181MOL0     N24857   4.278   1.926   8.648 -0.3276 -1.0162  0.0978
  181MOL0     C24858   4.366   1.867   8.552 -0.9124  0.6608 -0.7042
  181MOL0     C24859   4.282   1.841   8.452  1.0035  0.1385 -0.1661
  181MOL0     C24860   4.320   1.778   8.314 -0.1043 -0.1469  0.2982
  181MOL0     C24861   4.407   1.898   8.250  0.3431  1.1700 -0.1560
  181MOL0     C24862   4.429   1.875   8.097  0.2671 -0.4513 -0.0742
  181MOL0     C24863   4.501   1.743   8.072 -0.7680 -0.0481 -0.0789
  181MOL0     O24864   4.494   1.724   7.933  0.2528  0.1385 -0.3488
  181MOL0     C24865   4.544   1.605   7.895 -0.9201 -0.5032  0.4887
  181MOL0     C24866   4.629   1.525   7.965 -0.4521 -0.2652  0.9493
  181MOL0     C24867   4.659   1.396   7.916 -1.5871  0.5325 -0.2896
  181MOL0     C24868   4.752   1.302   7.982  0.5327 -0.0720 -0.8921
  181MOL0     C24869   4.605   1.353   7.794 -0.6340  0.0746 -0.1251
  181MOL0     C24870   4.607   1.216   7.749 -0.5465  0.3848  0.9125
  181MOL0     O24871   4.522   1.130   7.810  0.3721  0.2530 -0.7333
  181MOL0     C24872   4.522   1.002   7.757  0.3411  1.2112 -1.3947
  181MOL0     C24873   4.437   0.961   7.661  0.0643  0.4622  0.1966
  181MOL0     C24874   4.436   0.829   7.610 -0.8310 -0.1052  0.1868
  181MOL0     C24875   4.527   0.726   7.661  0.3721 -0.1077  0.0914
  181MOL0     O24876   4.535   0.598   7.600 -0.7764  0.3298 -0.4934
  181MOL0     C24877   4.638   0.505   7.636  0.3936 -0.0914  0.5653
  181MOL0     C24878   4.589   0.362   7.593 -0.1999 -0.4667 -0.4924
  181MOL0     C24879   4.669   0.328   7.467  0.0379  0.1418 -0.1022
  181MOL0     C24880   4.621   0.200   7.393  0.5105  0.2888 -0.0771
  181MOL0     C24881   4.683   0.192   7.249 -0.5845 -0.1994 -0.6267
  181MOL0     C24882   4.661   0.048   7.188  0.2938  0.3319 -1.1544
  181MOL0     C24883   4.741  -0.071   7.248 -0.3562 -0.8651  0.4963
  181MOL0     C24884   4.683  -0.199   7.182  0.4168 -0.8835 -0.4123
  181MOL0    Cl24885   4.784  -0.249   7.036  0.0724  0.4097  0.3118
  181MOL0     C24886   4.613   0.774   7.759  0.1534 -0.6716 -0.8385
  181MOL0     C24887   4.610   0.911   7.805 -0.1662 -0.0125  0.1912
  181MOL0     O24888   4.685   1.181   7.657  0.3396 -0.0949 -0.2558
  181MOL0     C24889   4.523   1.442   7.715 -0.5323  0.2092 -0.5798
  181MOL0     C24890   4.506   1.567   7.765  0.0644  0.2619 -0.2801
  181MOL0     N24891   4.146   1.862   8.489  0.0940  0.7115  0.1708
  181MOL0     N24892   4.148   1.904   8.614 -0.7747  0.1348  0.0902
  181MOL0     C24893   4.202   1.256   9.354 -0.2817  0.2219 -0.1092
  181MOL0     C24894   4.097   1.206   9.432  0.2581 -0.8776  0.6257
  181MOL0     C24895   3.719   1.086   9.603 -0.2133 -0.1882 -0.9488
  181MOL0     C24896   3.636   1.001   9.538  0.0430 -0.9252 -0.3240
  181MOL0     C24897   3.535   0.941   9.611 -0.1673 -0.8567  0.4173
  181MOL0     C24898   3.514   0.972   9.749 -0.0152  0.9167 -0.0930
  181MOL0     O24899   3.399   0.908   9.800  0.4730 -1.3238 -0.1669
  181MOL0     C24900   3.358   0.940   9.933  0.4605  0.2835 -0.3331
  181MOL0     C24901   3.220   0.868   9.967 -0.4706 -1.1253 -0.0235
  181MOL0     C24902   3.233   0.712   9.945  0.0896 -0.3892 -0.0943
  181MOL0     C24903   3.326   0.642  10.026 -0.5422 -0.0078 -0.2780
  181MOL0     C24904   3.298   0.627  10.170  0.2208  0.1128 -0.4139
  181MOL0     C24905   3.271   0.614  10.286  0.4714 -0.5787 -0.7887
  181MOL0     C24906   3.596   1.060   9.818 -0.4137  0.6714 -0.2793
  181MOL0     C24907   3.692   1.124   9.744  0.4514 -0.3599 -0.1335
  181MOL0     C24908   3.759   1.235   9.821  0.5210 -0.2897 -0.5197
  181MOL0     H24909   3.890   1.124   9.174 -1.8670  3.6224  0.3608
  181MOL0     H24910   4.079   1.212   9.036  2.5994  0.7412 -0.9853
  181MOL0     H24911   4.239   1.336   8.939 -0.8063 -2.6033 -1.1397
  181MOL0     H24912   4.318   1.194   8.981 -1.1629 -0.5105  1.1253
  181MOL0     H24913   4.523   1.338   9.041 -1.6311 -1.7268  1.8194
  181MOL0     H24914   4.476   1.340   8.869 -2.4734  2.2624 -0.7930
  181MOL0     H24915   4.352   1.543   8.883  0.2120  1.1770  0.5632
  181MOL0     H24916   4.376   1.562   9.055 -4.4008 -0.2818 -2.2470
  181MOL0     H24917   4.633   1.571   9.022  1.6164 -2.0699 -0.6359
  181MOL0     H24918   4.604   1.559   8.848  0.6231  0.2151  0.5175
  181MOL0     H24919   4.657   1.788   8.867 -0.9417 -2.3996 -2.2456
  181MOL0     H24920   4.563   1.797   9.018 -0.4268 -3.0950  0.5192
  181MOL0     H24921   4.416   1.746   8.767  0.3803  0.4403 -0.7396
  181MOL0     H24922   4.368   1.796   8.933  0.8883 -2.1567  0.3321
  181MOL0     H24923   4.556   1.970   8.766  0.7556  0.1870  1.7481
  181MOL0     H24924   4.480   1.994   8.921 -0.5179 -2.7334  1.0612
  181MOL0     H24925   4.254   2.014   8.835  0.0302 -3.0396 -0.0801
  181MOL0     H24926   4.344   2.108   8.718  0.0618  0.7955  1.7063
  181MOL0     H24927   4.474   1.872   8.539 -0.8643  2.3329  0.1586
  181MOL0     H24928   4.238   1.750   8.247  1.1598  1.7461 -2.2218
  181MOL0     H24929   4.387   1.693   8.330  1.0191  0.8715  1.2077
  181MOL0     H24930   4.347   1.989   8.256 -2.6007 -0.6875  0.8989
  181MOL0     H24931   4.494   1.915   8.315 -0.0738 -1.6078  1.2919
  181MOL0     H24932   4.335   1.890   8.043  0.0272  0.3162  0.5305
  181MOL0     H24933   4.498   1.948   8.053 -0.9934 -0.4967 -2.3168
  181MOL0     H24934   4.608   1.740   8.094 -0.8335  0.3837  0.3202
  181MOL0     H24935   4.452   1.662   8.127 -1.3279 -0.3008 -0.9421
  181MOL0     H24936   4.668   1.556   8.061 -0.0555  2.9915 -0.1403
  181MOL0     H24937   4.838   1.296   7.914  0.3025  1.7023 -1.3898
  181MOL0     H24938   4.706   1.204   7.996 -2.5580  1.2064 -1.4173
  181MOL0     H24939   4.796   1.348   8.071  0.9990  0.9297 -1.6303
  181MOL0     H24940   4.370   1.037   7.623 -1.2297 -1.0979 -0.7813
  181MOL0     H24941   4.371   0.807   7.525 -0.2532  1.7258 -0.7707
  181MOL0     H24942   4.732   0.531   7.588  0.1644  1.3394  0.8432
  181MOL0     H24943   4.654   0.500   7.744  0.5170 -2.6473  0.5035
  181MOL0     H24944   4.601   0.292   7.677 -0.7993  1.5119  1.3304
  181MOL0     H24945   4.481   0.374   7.579 -0.8191 -1.6254  2.4461
  181MOL0     H24946   4.775   0.315   7.493 -0.3231 -1.1098  0.8714
  181MOL0     H24947   4.653   0.414   7.402  1.0652  1.5343  1.4158
  181MOL0     H24948   4.512   0.207   7.388  0.4538 -0.6706 -0.4551
  181MOL0     H24949   4.641   0.104   7.442 -0.6377 -0.7870 -1.6375
  181MOL0     H24950   4.650   0.275   7.187  2.7439  2.5313  0.9669
  181MOL0     H24951   4.791   0.205   7.259 -0.5198 -2.1552  2.9460
  181MOL0     H24952   4.694   0.044   7.084  2.9225 -1.2846 -0.3536
  181MOL0     H24953   4.554   0.032   7.202  0.4632  0.6653  0.7870
  181MOL0     H24954   4.723  -0.075   7.356  1.7429 -2.3534  0.8495
  181MOL0     H24955   4.847  -0.059   7.223 -1.1188  2.2224 -1.9253
  181MOL0     H24956   4.581  -0.192   7.145 -0.0723  1.1665  1.1705
  181MOL0     H24957   4.687  -0.285   7.249  0.8833 -1.0494 -0.6435
  181MOL0     H24958   4.675   0.702   7.813 -0.8056  0.3824  1.8158
  181MOL0     H24959   4.671   0.936   7.892 -1.5680 -3.7205  2.4845
  181MOL0     H24960   4.475   1.397   7.628 -2.0061 -0.9151  0.7621
  181MOL0     H24961   4.429   1.630   7.722 -0.2694 -0.7775 -1.2237
  181MOL0     H24962   4.287   1.286   9.414  0.8348 -1.5135 -0.7429
  181MOL0     H24963   4.094   1.204   9.540  0.5902 -2.7364  0.6266
  181MOL0     H24964   3.630   0.976   9.433 -0.4807  0.9755 -0.7888
  181MOL0     H24965   3.468   0.877   9.555  0.8131 -0.1828 -1.6159
  181MOL0     H24966   3.440   0.903   9.995 -1.4168 -1.1656  1.4303
  181MOL0     H24967   3.348   1.048   9.924  1.7333  0.3053 -1.9676
  181MOL0     H24968   3.149   0.917   9.899 -0.1319  0.5734  0.7850
  181MOL0     H24969   3.178   0.879  10.068 -0.9703 -2.4441 -0.0714
  181MOL0     H24970   3.136   0.664   9.961 -0.5550  1.0963  0.7021
  181MOL0     H24971   3.265   0.706   9.841 -0.3780  0.1547 -0.2723
  181MOL0     H24972   3.425   0.683  10.006 -1.9278  2.6567 -2.1745
  181MOL0     H24973   3.317   0.537   9.996 -4.4370  0.7753 -2.5080
  181MOL0     H24974   3.237   0.592  10.386  0.9536  1.4101 -0.1451
  181MOL0     H24975   3.584   1.056   9.925 -3.8207 -2.4452 -0.6047
  181MOL0     H24976   3.742   1.337   9.787  0.6401  0.0149  0.3164
  181MOL0     H24977   3.717   1.241   9.922  2.5267  0.5958  0.3161
  181MOL0     H24978   3.868   1.221   9.829  0.4081  0.0715  2.6792
  182MOL0     O24979   7.796  11.448   6.531 -0.2410  0.2142  0.0256
  182MOL0     C24980   7.818  11.491   6.416  0.1343  0.3336 -0.1807
  182MOL0     O24981   7.724  11.507   6.321  0.7062  0.5783  0.6507
  182MOL0     C24982   7.603  11.448   6.328  0.0509 -0.2225  0.5238
  182MOL0     C24983   7.496  11.538   6.342 -0.5777 -0.2320  0.6021
  182MOL0     C24984   7.361  11.496   6.334 -0.7543 -0.4910 -0.3561
  182MOL0     C24985   7.335  11.359   6.311 -1.5113  0.3920  0.7310
  182MOL0     O24986   7.206  11.315   6.286  0.3650 -0.7241  0.4023
  182MOL0     C24987   7.117  11.415   6.230  0.6534 -0.1694  0.4174
  182MOL0     C24988   6.979  11.364   6.193 -1.1418  0.1999  0.6471
  182MOL0     C24989   6.903  11.289   6.308  0.7970 -0.0686 -0.2028
  182MOL0     C24990   6.755  11.250   6.267 -0.1930  0.4906  0.9574
  182MOL0     C24991   6.673  11.226   6.398  0.2377  0.6142  0.2836
  182MOL0     C24992   6.716  11.090   6.456  0.1566  0.3629 -0.2841
  182MOL0     C24993   6.682  10.967   6.363 -0.5814 -1.8522 -0.3677
  182MOL0     C24994   6.671  10.827   6.424  0.2851 -0.5240 -0.3659
  182MOL0     N24995   6.651  10.725   6.316 -0.1784  0.2806 -0.8839
  182MOL0     C24996   6.560  10.733   6.216 -0.3580 -0.0625 -0.4944
  182MOL0     C24997   6.573  10.611   6.155  0.6053 -0.3996  0.5113
  182MOL0     C24998   6.483  10.574   6.043 -0.2174  0.0877  0.3009
  182MOL0     C24999   6.358  10.497   6.093  0.6496  0.0418  1.0093
  182MOL0     C25000   6.386  10.358   6.146 -1.5120  0.2986 -0.2825
  182MOL0     C25001   6.283  10.318   6.259 -0.1685 -1.1753  0.9565
  182MOL0     O25002   6.146  10.356   6.229  0.3612  0.5508  0.1520
  182MOL0     C25003   6.089  10.307   6.115  0.3398 -0.3107 -0.2112
  182MOL0     C25004   6.135  10.187   6.054  0.5877 -0.0139  1.1862
  182MOL0     C25005   6.096  10.155   5.926 -0.1417 -0.0774  0.0155
  182MOL0     C25006   6.148  10.039   5.855 -0.6514 -0.6093  0.3797
  182MOL0     C25007   6.013  10.242   5.847 -0.5238  0.1509 -0.3660
  182MOL0     C25008   5.969  10.220   5.712  0.5071  0.5459 -0.8440
  182MOL0     O25009   6.022  10.293   5.611  0.8204  0.8926  0.2358
  182MOL0     C25010   5.984  10.261   5.489  0.2282 -0.3570 -0.2649
  182MOL0     C25011   5.851  10.295   5.455 -0.4732 -0.4203  0.4214
  182MOL0     C25012   5.814  10.288   5.330  0.6223  0.1410 -0.0429
  182MOL0     C25013   5.904  10.251   5.222 -0.0674 -0.2701 -1.2873
  182MOL0     O25014   5.846  10.252   5.096 -0.2267  0.0724  0.1034
  182MOL0     C25015   5.932  10.222   4.981  0.5032 -0.1116  0.4158
  182MOL0     C25016   5.957  10.079   4.967 -0.2767  0.3881  0.4706
  182MOL0     C25017   5.851  10.005   4.893 -0.3240 -0.4898  1.2831
  182MOL0     C25018   5.720   9.978   4.977  0.9030  0.0573  0.0542
  182MOL0     C25019   5.625   9.883   4.910 -0.3061 -0.8438  0.2804
  182MOL0     C25020   5.511   9.852   5.008  0.3884  0.2502  0.3672
  182MOL0     C25021   5.431   9.735   4.968  0.1080  0.6274  0.5399
  182MOL0     C25022   5.300   9.717   5.048  0.1528  0.1235  0.5062
  182MOL0    Cl25023   5.338   9.665   5.220  0.5335  0.1376  0.0407
  182MOL0     C25024   6.036  10.225   5.255 -0.3683  0.1320 -0.7809
  182MOL0     C25025   6.073  10.227   5.393 -0.9262  0.7306 -0.3986
  182MOL0     O25026   5.883  10.126   5.705 -0.9879  0.1010 -0.1817
  182MOL0     C25027   5.974  10.370   5.903 -0.0256 -0.3218  0.7691
  182MOL0     C25028   6.003  10.398   6.038  0.7909 -0.0076 -0.1213
  182MOL0     N25029   6.681  10.548   6.205 -0.0061  0.3832  0.1639
  182MOL0     N25030   6.737  10.617   6.298 -0.2827  0.1179  0.3338
  182MOL0     C25031   7.445  11.261   6.300 -0.1184 -0.8058 -0.4648
  182MOL0     C25032   7.579  11.310   6.309  0.0344  1.3519 -0.8572
  182MOL0     C25033   7.952  11.523   6.366 -0.9086 -0.6270  0.7908
  182MOL0     C25034   7.967  11.557   6.232  0.0187  0.3928  0.1043
  182MOL0     C25035   8.095  11.569   6.172  0.3633  0.2386 -0.8860
  182MOL0     C25036   8.209  11.547   6.249 -0.2555 -0.8167 -0.3110
  182MOL0     O25037   8.336  11.567   6.199 -0.4578 -0.9545  0.1455
  182MOL0     C25038   8.381  11.705   6.171 -0.7145 -0.2408 -0.5285
  182MOL0     C25039   8.376  11.720   6.024 -0.1029 -0.4228  0.5754
  182MOL0     C25040   8.349  11.858   5.975  0.8842 -0.6852 -0.2821
  182MOL0     C25041   8.481  11.936   5.947  0.2507  0.3089  0.3010
  182MOL0     C25042   8.580  11.951   6.063 -0.0756  1.0363 -1.0450
  182MOL0     C25043   8.667  11.967   6.142 -0.2653 -1.0877 -0.9837
  182MOL0     C25044   8.189  11.540   6.380  0.3571  0.8988 -0.0189
  182MOL0     C25045   8.072  11.527   6.447  0.0275  0.3822 -0.4068
  182MOL0     C25046   8.077  11.527   6.594  0.1303 -0.4901 -0.8722
  182MOL0     H25047   7.522  11.644   6.344 -0.1512 -0.3281  0.3833
  182MOL0     H25048   7.282  11.570   6.340 -0.3291 -0.1463  2.0558
  182MOL0     H25049   7.156  11.467   6.142 -1.8421 -1.7236 -1.7800
  182MOL0     H25050   7.087  11.494   6.298  2.0090  0.3804  0.4014
  182MOL0     H25051   6.923  11.453   6.164 -1.5909 -0.6901 -1.3301
  182MOL0     H25052   6.971  11.296   6.109  0.6240  0.3878  0.2931
  182MOL0     H25053   6.962  11.200   6.332 -1.1253 -0.8390  2.1129
  182MOL0     H25054   6.905  11.346   6.402  1.7119 -1.4076  0.6261
  182MOL0     H25055   6.710  11.332   6.210 -0.4998 -2.7300 -4.0115
  182MOL0     H25056   6.752  11.171   6.191  0.8085  0.0058  1.3972
  182MOL0     H25057   6.566  11.251   6.389 -0.5692 -2.4106  0.3553
  182MOL0     H25058   6.698  11.295   6.479 -1.1595 -1.8512  3.0353
  182MOL0     H25059   6.821  11.095   6.484  1.2576  2.3813 -4.0424
  182MOL0     H25060   6.665  11.090   6.553 -1.4875  2.9304 -1.0636
  182MOL0     H25061   6.766  10.964   6.293 -0.7260  3.0754 -1.1053
  182MOL0     H25062   6.592  10.998   6.310 -1.7278  1.9794  3.2804
  182MOL0     H25063   6.759  10.798   6.481  1.1909 -2.5884 -2.6672
  182MOL0     H25064   6.589  10.833   6.497  0.5949 -1.2770  0.0473
  182MOL0     H25065   6.482  10.807   6.196  1.1980  1.6738 -0.3995
  182MOL0     H25066   6.544  10.509   5.980  0.3284  0.8792  0.0057
  182MOL0     H25067   6.456  10.669   5.997 -3.7253  0.3260  2.4447
  182MOL0     H25068   6.311  10.556   6.172  0.0086 -1.0436  1.4562
  182MOL0     H25069   6.280  10.498   6.015 -2.9066 -0.9808  4.2516
  182MOL0     H25070   6.388  10.293   6.058  1.4255 -0.0026 -0.0772
  182MOL0     H25071   6.487  10.349   6.186 -0.6844  1.2949 -2.0434
  182MOL0     H25072   6.284  10.212   6.283 -2.9911 -1.5029  0.0553
  182MOL0     H25073   6.305  10.379   6.347 -2.3898  0.8949  0.2113
  182MOL0     H25074   6.196  10.113   6.103  1.1893  0.0843  0.5971
  182MOL0     H25075   6.082   9.953   5.871  0.3874 -1.7864 -1.3036
  182MOL0     H25076   6.246  10.015   5.899  1.1132 -2.6786 -4.0554
  182MOL0     H25077   6.145  10.061   5.748 -1.0043  0.8769  0.6752
  182MOL0     H25078   5.779  10.329   5.529 -0.2070 -1.4675  1.1809
  182MOL0     H25079   5.712  10.318   5.311 -0.6514 -3.2032  0.7771
  182MOL0     H25080   5.887  10.274   4.896  1.8263 -2.4761 -1.8621
  182MOL0     H25081   6.034  10.262   4.991  1.3651 -1.1127 -3.1089
  182MOL0     H25082   6.053  10.068   4.915 -0.0790 -2.4859  1.2494
  182MOL0     H25083   5.982  10.026   5.060 -1.4591 -4.8057 -1.8003
  182MOL0     H25084   5.901   9.914   4.859  0.0774 -0.5784  2.0716
  182MOL0     H25085   5.817  10.069   4.811 -1.3648 -1.0858  1.2268
  182MOL0     H25086   5.662  10.069   4.998  0.4523 -0.3472  0.6051
  182MOL0     H25087   5.743   9.934   5.074  0.3658 -1.8378 -0.6331
  182MOL0     H25088   5.598   9.914   4.808  0.2598 -1.2805 -0.0080
  182MOL0     H25089   5.674   9.785   4.914 -0.1803 -0.7558  1.1827
  182MOL0     H25090   5.436   9.931   5.012  0.1092  0.0325 -0.3991
  182MOL0     H25091   5.553   9.844   5.109 -2.7448 -0.6927  1.7061
  182MOL0     H25092   5.502   9.652   4.981 -0.1301  0.3204 -0.0886
  182MOL0     H25093   5.409   9.744   4.861 -3.7485  1.8919  1.2797
  182MOL0     H25094   5.234   9.644   4.999  0.9610 -0.2332 -0.0693
  182MOL0     H25095   5.255   9.817   5.047  2.7376  1.3744 -0.6346
  182MOL0     H25096   6.117  10.204   5.186 -0.5575 -1.5778 -0.5363
  182MOL0     H25097   6.176  10.233   5.427 -1.0757  3.0565 -0.1747
  182MOL0     H25098   5.920  10.443   5.843  1.1071 -3.6346 -5.0643
  182MOL0     H25099   5.967  10.492   6.079 -1.6849 -0.9866  0.0866
  182MOL0     H25100   7.424  11.158   6.275 -0.4340 -0.4908 -1.5890
  182MOL0     H25101   7.668  11.247   6.314 -0.1082  1.2316  1.1268
  182MOL0     H25102   7.882  11.573   6.166 -0.0614 -0.2262  0.0513
  182MOL0     H25103   8.120  11.595   6.070  3.6980 -1.0865 -0.5689
  182MOL0     H25104   8.311  11.776   6.218  0.3321  0.6871 -0.3245
  182MOL0     H25105   8.480  11.723   6.213 -1.2723 -2.0418  1.7250
  182MOL0     H25106   8.301  11.654   5.979 -0.4814  0.1252  0.3791
  182MOL0     H25107   8.465  11.676   5.978 -0.3575 -0.6645  0.3107
  182MOL0     H25108   8.292  11.842   5.883  0.5711 -2.5204  0.1946
  182MOL0     H25109   8.288  11.910   6.051  1.1579 -2.6686  1.3704
  182MOL0     H25110   8.463  12.036   5.909 -0.9674  0.1914  0.5430
  182MOL0     H25111   8.533  11.889   5.863  1.7993  0.8870  0.8872
  182MOL0     H25112   8.742  11.992   6.214  1.0850 -1.0316 -2.3533
  182MOL0     H25113   8.276  11.535   6.444 -0.0545  2.0617  0.6743
  182MOL0     H25114   7.996  11.591   6.630 -0.4328 -2.4118  1.6359
  182MOL0     H25115   8.045  11.429   6.631  1.4405 -1.7726 -2.9530
  182MOL0     H25116   8.170  11.570   6.633 -0.6415  2.0021 -1.6396
  183MOL0     O25117   4.755   8.564   0.760 -0.1223 -0.2988  0.0739
  183MOL0     C25118   4.779   8.458   0.699  0.4594 -0.1804 -0.0667
  183MOL0     O25119   4.686   8.360   0.681 -0.0988 -0.7610 -0.1468
  183MOL0     C25120   4.555   8.383   0.733 -0.4946  0.1399 -0.9183
  183MOL0     C25121   4.511   8.284   0.827 -0.2209 -0.9942  0.5061
  183MOL0     C25122   4.381   8.298   0.886 -0.0373 -0.3430 -0.1782
  183MOL0     C25123   4.288   8.402   0.853  0.1932  0.1380  0.6228
  183MOL0     O25124   4.163   8.412   0.908  1.1665  0.1063  0.1784
  183MOL0     C25125   4.108   8.297   0.969  0.3404 -0.5703  0.5715
  183MOL0     C25126   3.966   8.312   1.016  0.6833  1.0388  0.3616
  183MOL0     C25127   3.956   8.400   1.141 -0.2145  1.1139 -0.0772
  183MOL0     C25128   3.827   8.443   1.188 -0.3612 -0.4953 -0.7635
  183MOL0     C25129   3.769   8.554   1.107  0.5837  0.4981  0.9764
  183MOL0     C25130   3.622   8.569   1.132 -0.4054 -0.7452 -0.7090
  183MOL0     C25131   3.559   8.673   1.044 -0.0686 -0.6917 -0.7280
  183MOL0     C25132   3.608   8.818   1.064  0.2584  0.6320 -0.3093
  183MOL0     N25133   3.533   8.921   0.985 -0.4601  0.6508 -0.3141
  183MOL0     C25134   3.462   8.885   0.867 -0.2279  0.5202 -0.0395
  183MOL0     C25135   3.422   8.998   0.814  1.0041  0.2421 -0.2234
  183MOL0     C25136   3.338   9.012   0.691 -0.5284 -0.5668 -0.1129
  183MOL0     C25137   3.360   9.156   0.618  0.8287  0.7901 -0.1709
  183MOL0     C25138   3.257   9.145   0.498 -0.5213  0.3842 -0.3003
  183MOL0     C25139   3.258   9.262   0.400  0.3851  0.1341  0.0335
  183MOL0     O25140   3.207   9.383   0.460 -0.0671  0.2536 -0.0689
  183MOL0     C25141   3.200   9.493   0.389 -0.7545 -1.2793  0.8799
  183MOL0     C25142   3.163   9.608   0.462 -0.2639  1.1507 -0.8279
  183MOL0     C25143   3.171   9.739   0.416  0.0422 -0.8465 -0.3176
  183MOL0     C25144   3.142   9.851   0.515 -0.0051 -0.5663 -0.0006
  183MOL0     C25145   3.173   9.752   0.269  0.2210 -0.0380  0.4177
  183MOL0     C25146   3.146   9.877   0.182 -0.6527 -0.3596  0.6596
  183MOL0     O25147   3.192   9.878   0.052  0.4455  1.3910 -0.8513
  183MOL0     C25148   3.184   9.983  -0.024  0.3657 -0.1584 -0.0960
  183MOL0     C25149   3.065  10.036  -0.081  1.0386  1.5295  0.7394
  183MOL0     C25150   3.060  10.160  -0.150 -0.7531  0.7011  0.4373
  183MOL0     C25151   3.181  10.226  -0.164  0.0122  0.7654  0.6013
  183MOL0     O25152   3.186  10.329  -0.252 -0.0059 -0.6146 -0.0574
  183MOL0     C25153   3.244  10.449  -0.205  0.1181 -0.5369  0.3089
  183MOL0     C25154   3.157  10.565  -0.248  0.4297 -1.5776 -0.1658
  183MOL0     C25155   3.184  10.608  -0.396  0.0671 -0.8752 -0.4979
  183MOL0     C25156   3.090  10.729  -0.434  0.8034  0.3860  0.6657
  183MOL0     C25157   3.114  10.776  -0.574 -0.6389 -0.7421  0.1665
  183MOL0     C25158   3.031  10.899  -0.607  0.3220  0.8400 -0.6910
  183MOL0     C25159   3.110  10.982  -0.711 -1.3942  0.6591 -0.1581
  183MOL0     C25160   3.027  11.088  -0.785 -0.3981  0.3571 -0.5412
  183MOL0    Cl25161   2.944  11.176  -0.662 -0.2979  0.4081  0.6074
  183MOL0     C25162   3.303  10.179  -0.111  0.5016  0.5791 -0.2767
  183MOL0     C25163   3.303  10.063  -0.028  0.3284 -0.1187  0.2414
  183MOL0     O25164   3.079   9.967   0.231 -0.5570  0.0882 -0.7522
  183MOL0     C25165   3.209   9.635   0.189 -0.8983  0.3544 -0.8166
  183MOL0     C25166   3.223   9.505   0.246 -0.7653 -0.7578 -0.4946
  183MOL0     N25167   3.469   9.099   0.900 -0.6800  0.3588 -0.3599
  183MOL0     N25168   3.538   9.051   0.999  0.8256  0.0080  0.3927
  183MOL0     C25169   4.347   8.502   0.774  0.1906 -0.2562 -0.1178
  183MOL0     C25170   4.475   8.499   0.709 -0.1003  0.0528 -0.1510
  183MOL0     C25171   4.919   8.439   0.637  0.8093 -0.0915 -0.2672
  183MOL0     C25172   4.928   8.387   0.509 -0.4454  0.5806  0.1457
  183MOL0     C25173   5.040   8.378   0.433  0.5105 -0.0957  0.2377
  183MOL0     C25174   5.161   8.431   0.485 -0.2061  0.4238  0.9393
  183MOL0     O25175   5.279   8.420   0.403 -0.3934 -0.1628  0.3947
  183MOL0     C25176   5.291   8.545   0.330 -0.2587  0.6349 -0.6760
  183MOL0     C25177   5.331   8.672   0.406 -1.0194  0.1507 -0.4224
  183MOL0     C25178   5.478   8.658   0.458  1.3992  1.0265 -0.2057
  183MOL0     C25179   5.533   8.776   0.534  0.0975 -0.2154  0.1364
  183MOL0     C25180   5.443   8.814   0.647 -0.7296 -0.5803  0.1912
  183MOL0     C25181   5.355   8.845   0.724  0.1260  0.3871  0.2953
  183MOL0     C25182   5.163   8.482   0.619  0.5556 -0.1590  0.7035
  183MOL0     C25183   5.041   8.483   0.696 -0.7596 -0.4492  0.8372
  183MOL0     C25184   5.043   8.539   0.836  0.1122  0.1777  0.4032
  183MOL0     H25185   4.585   8.212   0.862  0.9543  0.5270  1.2880
  183MOL0     H25186   4.365   8.223   0.962  0.1261 -1.4135 -1.1626
  183MOL0     H25187   4.171   8.267   1.053 -0.7699  0.1680  1.7025
  183MOL0     H25188   4.102   8.221   0.889 -1.0021  1.1480 -1.0530
  183MOL0     H25189   3.889   8.328   0.940  0.0853  1.5297  1.0530
  183MOL0     H25190   3.945   8.213   1.058  1.7481  0.5330 -0.2897
  183MOL0     H25191   4.018   8.369   1.226  1.5065  3.6931 -0.2852
  183MOL0     H25192   4.004   8.492   1.110  2.8806  0.2478  1.6918
  183MOL0     H25193   3.776   8.348   1.207  2.7260 -2.2176 -0.5175
  183MOL0     H25194   3.827   8.475   1.292 -2.5204  1.4902 -1.2957
  183MOL0     H25195   3.787   8.536   1.000 -0.5192  1.5519  0.5821
  183MOL0     H25196   3.810   8.654   1.127  1.1804  0.9013 -1.7922
  183MOL0     H25197   3.575   8.472   1.112 -2.8155  0.4371 -1.1364
  183MOL0     H25198   3.621   8.585   1.240  1.1204 -3.7402 -0.1472
  183MOL0     H25199   3.453   8.670   1.067 -0.5902  0.6278 -2.7317
  183MOL0     H25200   3.576   8.641   0.940 -2.5574 -0.0952 -1.3770
  183MOL0     H25201   3.605   8.840   1.171  1.7200 -1.1079  0.1387
  183MOL0     H25202   3.714   8.835   1.045 -0.2607  1.0971 -3.3226
  183MOL0     H25203   3.462   8.786   0.823  5.2409 -0.1469  0.7665
  183MOL0     H25204   3.233   9.005   0.722 -0.2694 -1.6290  0.5485
  183MOL0     H25205   3.365   8.934   0.620  0.2248  1.4287 -2.1673
  183MOL0     H25206   3.346   9.235   0.692  1.6520  1.0889 -0.3260
  183MOL0     H25207   3.453   9.160   0.560 -0.2963  1.6474 -2.0223
  183MOL0     H25208   3.277   9.051   0.445  0.6315 -0.8867  2.2003
  183MOL0     H25209   3.160   9.146   0.547  0.2497  1.0993  1.2810
  183MOL0     H25210   3.360   9.284   0.366  0.1421  0.2807 -0.6082
  183MOL0     H25211   3.198   9.242   0.311  0.6108 -0.0924 -0.0710
  183MOL0     H25212   3.138   9.591   0.566 -3.5320  0.0768 -1.6416
  183MOL0     H25213   3.208   9.933   0.486 -0.2168 -0.6057 -0.6061
  183MOL0     H25214   3.159   9.818   0.618 -0.9204  0.2232  0.4137
  183MOL0     H25215   3.035   9.868   0.499 -0.3541  0.4754  2.8711
  183MOL0     H25216   2.974   9.981  -0.058  0.9071 -0.0051 -2.7980
  183MOL0     H25217   2.973  10.210  -0.190 -1.2661 -0.5638 -0.0830
  183MOL0     H25218   3.240  10.454  -0.096 -1.3303 -1.4395  0.3205
  183MOL0     H25219   3.344  10.458  -0.248 -0.6054  0.4227 -1.2405
  183MOL0     H25220   3.052  10.547  -0.224 -0.1870  1.8031  0.2369
  183MOL0     H25221   3.174  10.646  -0.177  0.6162 -1.0360 -0.8129
  183MOL0     H25222   3.183  10.528  -0.471  5.4376  0.7125 -2.7414
  183MOL0     H25223   3.291  10.628  -0.389  0.0774 -1.4387  1.8480
  183MOL0     H25224   3.092  10.808  -0.359 -1.5501 -0.5168  1.7967
  183MOL0     H25225   2.986  10.695  -0.436  1.9354 -3.8030  2.0065
  183MOL0     H25226   3.219  10.809  -0.579 -1.5684  2.4448 -0.6837
  183MOL0     H25227   3.087  10.703  -0.650  0.0902  0.5611 -1.3924
  183MOL0     H25228   3.027  10.964  -0.520 -2.1565  3.3137 -2.4555
  183MOL0     H25229   2.942  10.850  -0.648  0.9437  0.1919 -1.3020
  183MOL0     H25230   3.153  10.908  -0.779  1.2061  0.2867  1.7448
  183MOL0     H25231   3.195  11.036  -0.669 -1.1642  0.2869 -0.1403
  183MOL0     H25232   2.943  11.043  -0.839  0.2979 -1.3272 -0.3082
  183MOL0     H25233   3.081  11.157  -0.851 -1.9830  4.7386  2.3009
  183MOL0     H25234   3.390  10.231  -0.151  1.5771  0.5908  1.9268
  183MOL0     H25235   3.386  10.021   0.028  2.4346  3.0052 -0.2609
  183MOL0     H25236   3.212   9.650   0.081  0.0156  1.7140 -0.6302
  183MOL0     H25237   3.255   9.415   0.195 -0.8732 -1.3246  0.4073
  183MOL0     H25238   4.304   8.599   0.752  0.9340  0.1090  0.0039
  183MOL0     H25239   4.519   8.569   0.639  0.7022  1.4857  1.7066
  183MOL0     H25240   4.836   8.341   0.477 -0.6285  0.6728  0.5282
  183MOL0     H25241   5.039   8.334   0.334 -3.0717  2.5975 -1.1512
  183MOL0     H25242   5.370   8.526   0.256  1.0177 -0.8642  0.9809
  183MOL0     H25243   5.198   8.567   0.277 -0.4011  1.3837 -0.1270
  183MOL0     H25244   5.260   8.684   0.489  0.0343 -0.5171  0.5996
  183MOL0     H25245   5.333   8.762   0.344 -0.5011 -0.2147 -0.9447
  183MOL0     H25246   5.463   8.587   0.541 -2.0364  1.7863 -0.0079
  183MOL0     H25247   5.537   8.615   0.378 -0.0210  0.1061 -0.7977
  183MOL0     H25248   5.542   8.860   0.465  0.8291 -1.7619 -1.7723
  183MOL0     H25249   5.627   8.749   0.584  0.5662  2.1335  0.6268
  183MOL0     H25250   5.263   8.864   0.775  0.3561 -0.9301  1.2580
  183MOL0     H25251   5.247   8.526   0.670 -0.3273  3.2398 -0.4718
  183MOL0     H25252   5.150   8.545   0.857  0.7224 -2.7449 -1.2281
  183MOL0     H25253   5.001   8.639   0.824 -1.0297 -0.4404 -1.1596
  183MOL0     H25254   4.975   8.491   0.906 -0.2680  1.3426  0.8373
  184MOL0     O25255   7.965  10.086   4.283  0.3051  0.5034  0.2797
  184MOL0     C25256   7.973  10.012   4.380  0.0446 -1.2289  0.3614
  184MOL0     O25257   8.016  10.048   4.505 -0.4887 -0.0490  0.1412
  184MOL0     C25258   8.110  10.153   4.528  0.7414 -0.1498  1.3723
  184MOL0     C25259   8.211  10.194   4.435 -0.1759 -0.2128 -0.8402
  184MOL0     C25260   8.306  10.293   4.481  0.3318 -0.3990 -0.7114
  184MOL0     C25261   8.297  10.352   4.612  0.9584 -0.0318  0.0657
  184MOL0     O25262   8.385  10.449   4.648 -0.3430 -0.8401 -0.7174
  184MOL0     C25263   8.372  10.533   4.766  0.8487 -0.0418 -0.1320
  184MOL0     C25264   8.391  10.671   4.734  0.4542 -0.0302  1.5351
  184MOL0     C25265   8.400  10.750   4.867  0.2439 -0.8188 -0.6576
  184MOL0     C25266   8.402  10.900   4.836  0.4817 -0.0630  0.0328
  184MOL0     C25267   8.377  10.980   4.960 -0.1902  0.1618 -1.3527
  184MOL0     C25268   8.391  11.127   4.955 -0.4053 -0.6127 -0.0038
  184MOL0     C25269   8.361  11.210   5.076 -0.2232  0.1945 -0.5982
  184MOL0     C25270   8.457  11.195   5.196  0.0145  0.7907 -0.0060
  184MOL0     N25271   8.593  11.243   5.164  0.5499 -0.1557  0.5102
  184MOL0     C25272   8.624  11.361   5.108  0.6470 -0.2105 -0.1870
  184MOL0     C25273   8.762  11.373   5.113 -0.7551  0.1268  0.0572
  184MOL0     C25274   8.841  11.491   5.060  0.0973  0.2321  0.0362
  184MOL0     C25275   8.947  11.448   4.957 -0.2615 -0.2915 -0.0916
  184MOL0     C25276   8.887  11.403   4.823 -0.6919 -0.3813  0.3486
  184MOL0     C25277   8.841  11.514   4.737  0.2994  0.1541  0.9110
  184MOL0     O25278   8.730  11.581   4.791  0.8056  0.2098  0.0702
  184MOL0     C25279   8.603  11.532   4.761 -0.1409 -1.0063  0.3718
  184MOL0     C25280   8.499  11.600   4.825 -0.1234 -0.5070 -0.7095
  184MOL0     C25281   8.366  11.564   4.825  0.4413 -0.0471  0.4610
  184MOL0     C25282   8.281  11.649   4.911  0.3553 -0.6564 -0.5976
  184MOL0     C25283   8.330  11.445   4.755 -0.8291  1.4321  0.0189
  184MOL0     C25284   8.191  11.388   4.740  0.0208 -0.3524  0.7640
  184MOL0     O25285   8.183  11.255   4.726  0.8180 -1.4229  0.4225
  184MOL0     C25286   8.062  11.203   4.701  0.7386  0.3456 -0.6609
  184MOL0     C25287   7.984  11.243   4.598 -0.0553  0.0728  0.4675
  184MOL0     C25288   7.866  11.178   4.571 -0.4673 -1.6468 -0.0110
  184MOL0     C25289   7.807  11.082   4.657 -0.4165 -0.3449 -0.0098
  184MOL0     O25290   7.701  11.023   4.609  0.1853 -0.4206 -0.0012
  184MOL0     C25291   7.642  10.908   4.672 -0.3766  0.6679 -0.1970
  184MOL0     C25292   7.504  10.886   4.622 -1.2636  0.1359 -0.4918
  184MOL0     C25293   7.445  10.756   4.659  0.4476  0.6509  0.7071
  184MOL0     C25294   7.488  10.642   4.572 -0.0698  0.2010  0.2150
  184MOL0     C25295   7.452  10.501   4.627 -0.4836 -0.6405  0.7713
  184MOL0     C25296   7.314  10.456   4.603 -0.7769 -0.8227 -0.5649
  184MOL0     C25297   7.292  10.316   4.657  0.6336 -0.2368  1.3700
  184MOL0     C25298   7.142  10.272   4.618 -0.8322  0.5907 -0.4355
  184MOL0    Cl25299   7.085  10.121   4.711 -0.0570 -0.0818  0.1976
  184MOL0     C25300   7.889  11.044   4.766  0.7108 -1.0640  0.4112
  184MOL0     C25301   8.007  11.108   4.784 -0.7307  0.4697 -0.2441
  184MOL0     O25302   8.104  11.473   4.753 -0.4982  0.5814 -0.1748
  184MOL0     C25303   8.432  11.368   4.689  0.0627  0.4947 -0.3813
  184MOL0     C25304   8.566  11.415   4.698 -0.1541  0.5260  0.1188
  184MOL0     N25305   8.808  11.255   5.170  0.3981 -0.3668 -0.7601
  184MOL0     N25306   8.700  11.171   5.192 -0.9527 -0.3776  1.0726
  184MOL0     C25307   8.199  10.296   4.698 -0.9001  0.0849  0.2557
  184MOL0     C25308   8.106  10.204   4.655 -0.0221 -0.2963  0.1720
  184MOL0     C25309   7.933   9.872   4.366  0.7635 -0.3534 -0.1917
  184MOL0     C25310   7.837   9.822   4.460  0.7477  0.1755 -0.5916
  184MOL0     C25311   7.780   9.694   4.441 -0.7032  0.1903  0.1929
  184MOL0     C25312   7.806   9.607   4.336 -0.4833 -1.0372  0.8833
  184MOL0     O25313   7.743   9.484   4.334 -0.1016  0.1652 -0.2931
  184MOL0     C25314   7.811   9.378   4.258 -0.3659 -0.1422  0.4828
  184MOL0     C25315   7.784   9.235   4.306  1.1005 -0.5298 -0.5079
  184MOL0     C25316   7.779   9.230   4.462 -0.0690  0.0263  0.5422
  184MOL0     C25317   7.901   9.283   4.542  0.5308 -1.2287 -1.3504
  184MOL0     C25318   8.020   9.208   4.530 -0.2393  0.2381 -0.7207
  184MOL0     C25319   8.123   9.141   4.524 -0.4460  0.3727  0.4330
  184MOL0     C25320   7.902   9.656   4.245 -0.6572 -0.6995  0.5303
  184MOL0     C25321   7.966   9.785   4.262 -0.2526 -0.6643 -0.2244
  184MOL0     C25322   8.076   9.825   4.174 -0.1949 -0.1444 -0.0401
  184MOL0     H25323   8.224  10.141   4.341 -2.6011 -1.6326 -0.4667
  184MOL0     H25324   8.390  10.314   4.416  0.0717 -2.4784 -1.8069
  184MOL0     H25325   8.453  10.503   4.832  0.9267  0.6016  0.0696
  184MOL0     H25326   8.276  10.523   4.817  1.4963 -2.2295  0.7697
  184MOL0     H25327   8.490  10.678   4.687 -0.2681 -2.4763 -0.5791
  184MOL0     H25328   8.312  10.704   4.667 -0.3437 -0.6672  2.1441
  184MOL0     H25329   8.316  10.733   4.935 -1.3924  1.9169 -1.8239
  184MOL0     H25330   8.486  10.709   4.921  0.0582 -3.4935 -2.2019
  184MOL0     H25331   8.496  10.935   4.792  0.0366 -0.2640 -1.1162
  184MOL0     H25332   8.322  10.927   4.767 -1.3227 -1.4270  1.4716
  184MOL0     H25333   8.457  10.941   5.024 -0.8918 -0.1167 -0.6206
  184MOL0     H25334   8.277  10.959   5.000  0.0995 -1.5383 -1.4604
  184MOL0     H25335   8.491  11.146   4.916 -0.2267  0.8051  1.0713
  184MOL0     H25336   8.315  11.162   4.884 -1.0481  0.4670  1.1670
  184MOL0     H25337   8.261  11.183   5.113 -0.3811  0.4905 -0.8078
  184MOL0     H25338   8.351  11.315   5.047  1.2889  0.9765  1.5253
  184MOL0     H25339   8.427  11.269   5.271 -2.7939 -0.2421  0.0056
  184MOL0     H25340   8.469  11.092   5.229 -0.4999  1.2315  1.6280
  184MOL0     H25341   8.556  11.440   5.078  0.8690  0.2498  0.5008
  184MOL0     H25342   8.880  11.539   5.150  1.4673 -5.6231  3.0812
  184MOL0     H25343   8.770  11.563   5.020 -1.0857 -0.3109  1.1087
  184MOL0     H25344   9.021  11.529   4.951  0.1792 -0.6336  0.5886
  184MOL0     H25345   8.999  11.368   5.010 -0.1555  2.3436  4.3620
  184MOL0     H25346   8.953  11.331   4.776  1.0063  0.0961  1.8906
  184MOL0     H25347   8.794  11.349   4.845 -1.0188 -0.2027 -0.5530
  184MOL0     H25348   8.926  11.579   4.716  1.9268 -1.8488  1.0230
  184MOL0     H25349   8.810  11.472   4.641 -2.8126  1.5940  1.1539
  184MOL0     H25350   8.524  11.692   4.878  0.6463 -0.2749 -1.4390
  184MOL0     H25351   8.328  11.745   4.930  0.9559 -0.9088 -0.7938
  184MOL0     H25352   8.270  11.598   5.007  1.6925  0.2843  0.0736
  184MOL0     H25353   8.178  11.664   4.876 -0.3420 -4.1767 -0.4031
  184MOL0     H25354   8.017  11.319   4.527  1.1611 -0.2370  0.6767
  184MOL0     H25355   7.812  11.207   4.481  1.8134 -0.7292 -1.1715
  184MOL0     H25356   7.711  10.830   4.639  1.5758  1.9398  0.7432
  184MOL0     H25357   7.636  10.911   4.781 -1.6533  1.2854 -0.2580
  184MOL0     H25358   7.444  10.967   4.664  0.9014  2.0264 -0.8222
  184MOL0     H25359   7.507  10.903   4.514 -2.3143  1.6609 -0.3193
  184MOL0     H25360   7.337  10.760   4.644  0.6663 -1.2769 -2.1313
  184MOL0     H25361   7.455  10.742   4.767 -0.9423 -0.7851  0.6784
  184MOL0     H25362   7.594  10.651   4.547 -0.4075 -0.2072 -1.4515
  184MOL0     H25363   7.447  10.651   4.471 -2.4446 -0.2424  1.0741
  184MOL0     H25364   7.524  10.433   4.579 -2.0753 -0.7370 -1.6947
  184MOL0     H25365   7.477  10.488   4.732  2.9963 -0.3252  0.1097
  184MOL0     H25366   7.280  10.469   4.499 -1.3314  2.1434 -0.1037
  184MOL0     H25367   7.248  10.519   4.663  0.0070  3.3669 -3.6679
  184MOL0     H25368   7.281  10.307   4.765 -2.2571 -0.9625  1.1017
  184MOL0     H25369   7.373  10.260   4.609  0.9568  1.4210 -0.0957
  184MOL0     H25370   7.133  10.261   4.510  0.1022  2.8827 -0.8003
  184MOL0     H25371   7.072  10.349   4.651 -2.0395  0.3407 -2.2403
  184MOL0     H25372   7.875  10.961   4.836 -0.6110 -0.0407  1.4060
  184MOL0     H25373   8.055  11.089   4.880  1.9073  2.2353 -1.0935
  184MOL0     H25374   8.419  11.281   4.625 -1.0932  1.2838 -1.2863
  184MOL0     H25375   8.637  11.344   4.657 -1.0880 -1.5779  1.9347
  184MOL0     H25376   8.192  10.318   4.804 -3.3694 -0.8518  0.3587
  184MOL0     H25377   8.049  10.147   4.728  1.0930  1.7945  2.8470
  184MOL0     H25378   7.803   9.875   4.548  0.7853 -1.3505  0.3804
  184MOL0     H25379   7.707   9.665   4.516 -0.0214 -3.1085 -0.2615
  184MOL0     H25380   7.775   9.379   4.155 -1.1072 -1.0773  0.7107
  184MOL0     H25381   7.918   9.391   4.270 -0.7131  5.5734  0.0151
  184MOL0     H25382   7.854   9.157   4.275 -1.2037 -1.7789 -2.9864
  184MOL0     H25383   7.689   9.203   4.262  0.9964  1.6906 -2.0668
  184MOL0     H25384   7.688   9.274   4.502  0.0089 -1.4206  2.4412
  184MOL0     H25385   7.783   9.122   4.483 -1.7473 -0.2358 -0.2746
  184MOL0     H25386   7.883   9.290   4.649  2.7166  1.6402 -1.0285
  184MOL0     H25387   7.926   9.386   4.513 -0.4184 -0.7647 -0.5746
  184MOL0     H25388   8.210   9.081   4.504 -0.8773  0.4769 -2.0319
  184MOL0     H25389   7.943   9.609   4.157 -1.5684  0.1407 -0.3628
  184MOL0     H25390   8.105   9.747   4.104 -0.6814  0.1834 -0.6232
  184MOL0     H25391   8.054   9.910   4.108  1.9525  0.7067  0.2406
  184MOL0     H25392   8.161   9.846   4.239 -2.3566 -3.5639  4.3805
  185MOL0     O25393   4.763   9.486   4.216  0.6829  0.0774 -0.2972
  185MOL0     C25394   4.800   9.424   4.315 -0.0637 -0.0740  0.0563
  185MOL0     O25395   4.929   9.378   4.340  0.3560  1.1158  1.1206
  185MOL0     C25396   5.024   9.415   4.253  0.7028  0.5491 -0.4368
  185MOL0     C25397   5.023   9.348   4.133  0.1669  0.8168  0.4706
  185MOL0     C25398   5.126   9.355   4.045 -0.0725  1.4297  0.2865
  185MOL0     C25399   5.237   9.428   4.079  0.5308  0.2783 -0.6296
  185MOL0     O25400   5.355   9.428   4.014  0.4806  0.0192  1.0024
  185MOL0     C25401   5.397   9.310   3.943  0.8556 -0.0909 -0.9533
  185MOL0     C25402   5.545   9.295   3.938 -0.0783  0.3709  0.4640
  185MOL0     C25403   5.578   9.198   3.829 -0.3919  0.7434 -0.3173
  185MOL0     C25404   5.605   9.281   3.708 -0.8337 -0.5315  1.2539
  185MOL0     C25405   5.647   9.197   3.583  0.0235 -0.7778  0.2558
  185MOL0     C25406   5.684   9.286   3.461 -0.2423  0.0638 -0.7979
  185MOL0     C25407   5.815   9.362   3.488 -1.0915 -0.3916 -0.1619
  185MOL0     C25408   5.859   9.434   3.361 -0.7215 -0.5149  0.3506
  185MOL0     N25409   5.918   9.339   3.259  0.2627 -0.3425 -0.2392
  185MOL0     C25410   5.992   9.232   3.293 -1.2500  0.3746  0.8035
  185MOL0     C25411   6.033   9.174   3.174  0.8646  0.2659 -1.2811
  185MOL0     C25412   6.131   9.059   3.163  0.3102 -0.4520 -0.1837
  185MOL0     C25413   6.274   9.120   3.134  0.4964 -0.3619 -0.0192
  185MOL0     C25414   6.321   9.150   2.994  0.5382 -0.1424  0.5030
  185MOL0     C25415   6.470   9.194   2.997  1.1015  0.1618 -0.4272
  185MOL0     O25416   6.570   9.091   2.985  0.0260  0.1026  0.4539
  185MOL0     C25417   6.610   9.058   2.855  0.0236  0.3334 -0.1661
  185MOL0     C25418   6.544   9.094   2.737 -0.2956 -0.4290 -0.5956
  185MOL0     C25419   6.572   9.043   2.612  0.6182  0.3333 -0.7637
  185MOL0     C25420   6.476   9.092   2.502  1.3528 -0.0075 -0.3781
  185MOL0     C25421   6.676   8.955   2.595  0.0806 -1.2984  0.0508
  185MOL0     C25422   6.705   8.892   2.466  0.0195 -1.9127  0.5384
  185MOL0     O25423   6.646   8.941   2.353 -0.5136 -0.6545 -0.3193
  185MOL0     C25424   6.704   8.899   2.230  0.1378  0.7157  0.3650
  185MOL0     C25425   6.633   8.814   2.155 -0.7641  0.6780  0.2846
  185MOL0     C25426   6.683   8.778   2.029  1.0985 -0.0781  0.8993
  185MOL0     C25427   6.814   8.812   1.984 -0.1346 -0.0917 -0.5575
  185MOL0     O25428   6.865   8.774   1.867 -0.0635 -0.3618 -0.6366
  185MOL0     C25429   6.842   8.645   1.823  0.3030 -0.0845  0.9651
  185MOL0     C25430   6.920   8.635   1.689 -0.2176 -0.3773 -1.5116
  185MOL0     C25431   6.961   8.494   1.659  0.6587 -0.1992 -0.7336
  185MOL0     C25432   7.036   8.491   1.527 -0.3908  0.3575 -0.3827
  185MOL0     C25433   7.078   8.349   1.479  0.0318 -0.4032  0.1705
  185MOL0     C25434   7.218   8.306   1.510 -0.0781  0.0664  0.0710
  185MOL0     C25435   7.272   8.180   1.432 -1.0807  0.3595  0.3950
  185MOL0     C25436   7.424   8.150   1.445  0.1138  0.2603  0.3459
  185MOL0    Cl25437   7.439   8.115   1.620 -0.0032  0.2840  0.3519
  185MOL0     C25438   6.888   8.885   2.076  0.4223 -0.4704 -0.6266
  185MOL0     C25439   6.827   8.935   2.192 -0.3322  0.4749 -0.4842
  185MOL0     O25440   6.793   8.806   2.462 -0.6535  0.7641  0.4268
  185MOL0     C25441   6.757   8.924   2.710 -0.5382  0.1685  0.4189
  185MOL0     C25442   6.726   8.975   2.839  1.7585 -0.5428 -0.0269
  185MOL0     N25443   5.983   9.258   3.074  0.2055  0.4155  1.1417
  185MOL0     N25444   5.911   9.355   3.123 -0.4150 -0.3440  0.7056
  185MOL0     C25445   5.245   9.499   4.198 -0.2962 -0.1781 -0.3794
  185MOL0     C25446   5.141   9.468   4.295  0.4205  0.0975  0.1782
  185MOL0     C25447   4.684   9.372   4.400 -1.0709 -0.1944  0.0930
  185MOL0     C25448   4.724   9.311   4.521  1.2026  0.3749 -0.4561
  185MOL0     C25449   4.619   9.272   4.609 -0.6342  0.4714  0.2575
  185MOL0     C25450   4.488   9.291   4.596 -0.3708 -0.3465  1.3036
  185MOL0     O25451   4.393   9.243   4.674  0.3656 -0.1241  0.2447
  185MOL0     C25452   4.428   9.209   4.814  0.1008 -0.1841 -0.3762
  185MOL0     C25453   4.289   9.183   4.884 -0.7487 -0.4064  0.0455
  185MOL0     C25454   4.216   9.069   4.834  1.2995 -0.1715  0.0389
  185MOL0     C25455   4.072   9.068   4.895  0.0887  0.1942  0.1119
  185MOL0     C25456   4.060   9.001   5.022  0.3878  0.3412  0.3517
  185MOL0     C25457   4.053   8.930   5.121  0.4799 -0.5363 -0.3100
  185MOL0     C25458   4.449   9.367   4.478 -0.2856  1.5210 -0.9818
  185MOL0     C25459   4.544   9.407   4.385  0.3412  0.2939  0.3816
  185MOL0     C25460   4.498   9.482   4.269  0.2937 -0.9576  0.1689
  185MOL0     H25461   4.928   9.297   4.121 -0.0462  0.5636  2.7582
  185MOL0     H25462   5.117   9.314   3.945 -5.3814 -3.9357  2.3231
  185MOL0     H25463   5.347   9.326   3.847 -1.1849 -0.0565  0.0709
  185MOL0     H25464   5.358   9.213   3.976  0.9570 -0.3795 -1.6760
  185MOL0     H25465   5.577   9.399   3.934 -1.1598  1.0805  4.7973
  185MOL0     H25466   5.590   9.248   4.026  1.3042  0.1547 -0.3360
  185MOL0     H25467   5.668   9.141   3.853  0.8994  2.6594 -0.3622
  185MOL0     H25468   5.503   9.120   3.816  0.9110 -0.5897 -0.0986
  185MOL0     H25469   5.520   9.339   3.671 -2.5718 -2.5949  1.8099
  185MOL0     H25470   5.685   9.351   3.733 -1.9460  1.8415 -1.2178
  185MOL0     H25471   5.564   9.130   3.557 -1.5851  0.6987  1.3428
  185MOL0     H25472   5.727   9.126   3.604 -0.0122 -0.4358  1.6487
  185MOL0     H25473   5.694   9.226   3.371  0.5004 -1.6398  0.3755
  185MOL0     H25474   5.614   9.367   3.439 -1.6366 -0.6711  0.7291
  185MOL0     H25475   5.893   9.296   3.525  0.5778 -0.2715 -3.1582
  185MOL0     H25476   5.810   9.440   3.565 -1.7509 -2.0570  1.5675
  185MOL0     H25477   5.785   9.492   3.306  2.5740  2.3162 -1.4811
  185MOL0     H25478   5.949   9.495   3.370 -1.6015  0.8915 -0.2023
  185MOL0     H25479   6.008   9.202   3.396  0.7066 -1.1111  0.1187
  185MOL0     H25480   6.096   9.001   3.077  1.1112  0.3021 -1.0313
  185MOL0     H25481   6.134   9.006   3.258 -1.8248  1.3912  1.0252
  185MOL0     H25482   6.270   9.211   3.195  0.8397  1.1329 -2.0964
  185MOL0     H25483   6.348   9.054   3.180 -0.9108 -1.4656  0.7624
  185MOL0     H25484   6.304   9.072   2.920 -2.8004  0.7303  0.2033
  185MOL0     H25485   6.256   9.236   2.974  0.5247  0.8959  4.1831
  185MOL0     H25486   6.480   9.272   2.920 -0.7499  3.1300  2.0685
  185MOL0     H25487   6.491   9.242   3.093  4.0519 -0.1411 -0.8346
  185MOL0     H25488   6.464   9.168   2.729  2.7478  3.1427 -0.7537
  185MOL0     H25489   6.430   9.006   2.453 -3.1196  1.1546  1.2930
  185MOL0     H25490   6.539   9.146   2.430  2.7128 -1.0553 -0.0109
  185MOL0     H25491   6.398   9.163   2.531 -0.0145 -1.2337 -0.9289
  185MOL0     H25492   6.541   8.778   2.199  0.3014 -3.5356 -0.5070
  185MOL0     H25493   6.617   8.726   1.961 -2.6876  5.2197 -0.1500
  185MOL0     H25494   6.877   8.569   1.894  0.1683 -1.0699 -0.0074
  185MOL0     H25495   6.739   8.614   1.806  1.1613 -2.3473 -0.6386
  185MOL0     H25496   6.860   8.671   1.606 -2.8662  0.4267  0.5991
  185MOL0     H25497   7.015   8.687   1.708  0.6758 -2.9060  2.1294
  185MOL0     H25498   6.875   8.428   1.644  0.0548  0.5256 -0.5293
  185MOL0     H25499   7.013   8.448   1.744 -1.8948 -0.2340  0.9145
  185MOL0     H25500   7.127   8.551   1.531  0.4578 -0.9057 -0.1131
  185MOL0     H25501   6.972   8.534   1.450 -2.1027 -3.7609 -1.5184
  185MOL0     H25502   7.020   8.266   1.521  1.6904 -0.4201  2.6748
  185MOL0     H25503   7.073   8.354   1.370  2.1534 -1.3867 -0.0138
  185MOL0     H25504   7.223   8.281   1.617 -2.4446 -2.9816 -0.3782
  185MOL0     H25505   7.284   8.390   1.486 -2.2798  1.5176 -1.2776
  185MOL0     H25506   7.242   8.187   1.328 -1.5870  0.8789  0.5713
  185MOL0     H25507   7.229   8.088   1.472  0.4050 -0.1616  0.8636
  185MOL0     H25508   7.486   8.234   1.411  0.3597 -0.5775 -1.3831
  185MOL0     H25509   7.454   8.055   1.398 -1.6795 -0.5929  0.8439
  185MOL0     H25510   6.983   8.933   2.056 -0.3396  0.8974 -1.1643
  185MOL0     H25511   6.893   8.993   2.256 -1.5693  1.1844  0.1824
  185MOL0     H25512   6.840   8.855   2.705  0.4932  1.4188 -0.3686
  185MOL0     H25513   6.782   8.948   2.928  0.8838 -2.3450  0.0336
  185MOL0     H25514   5.342   9.546   4.212  0.7088 -1.7353 -1.7851
  185MOL0     H25515   5.143   9.511   4.394 -2.0980  0.7400  0.0166
  185MOL0     H25516   4.826   9.287   4.550  1.1363  0.7931  0.1262
  185MOL0     H25517   4.642   9.203   4.690  0.1774 -1.6968 -1.6943
  185MOL0     H25518   4.496   9.123   4.810 -0.5776 -0.6983 -1.4661
  185MOL0     H25519   4.480   9.296   4.853 -2.5353  2.1540 -1.6911
  185MOL0     H25520   4.229   9.272   4.864 -0.0175 -0.3944 -2.3394
  185MOL0     H25521   4.308   9.181   4.992  1.0652 -0.8973 -0.2589
  185MOL0     H25522   4.215   9.071   4.725  3.6937  0.9299 -0.0209
  185MOL0     H25523   4.268   8.978   4.866  2.2623 -0.0786 -1.1886
  185MOL0     H25524   4.003   9.029   4.820 -0.0331 -1.4064  1.0231
  185MOL0     H25525   4.036   9.170   4.908  2.2438  0.7953  2.0729
  185MOL0     H25526   4.034   8.878   5.213  0.8257 -1.1820 -0.5967
  185MOL0     H25527   4.343   9.383   4.464 -0.4396 -0.5356 -2.4627
  185MOL0     H25528   4.521   9.429   4.176 -1.2244  0.2132 -0.9330
  185MOL0     H25529   4.391   9.504   4.275  0.6278  0.4166  1.6701
  185MOL0     H25530   4.549   9.578   4.276  2.1722 -2.0256  2.8208
  186MOL0     O25531   3.904   1.747  11.148  0.6092  1.0309 -0.4676
  186MOL0     C25532   3.930   1.721  11.263 -0.3151  0.5802 -0.5849
  186MOL0     O25533   3.989   1.807  11.351 -0.6025 -0.3007 -0.0678
  186MOL0     C25534   3.971   1.940  11.315 -0.3733 -0.0169  0.3126
  186MOL0     C25535   4.077   2.022  11.274 -0.3681 -0.4981  0.2317
  186MOL0     C25536   4.052   2.156  11.248 -0.1115 -0.8478 -0.7367
  186MOL0     C25537   3.926   2.214  11.259  0.6530  0.0678  0.4054
  186MOL0     O25538   3.901   2.347  11.210 -0.1051  0.0398 -0.0182
  186MOL0     C25539   3.971   2.434  11.295 -0.8940  0.3635  0.4849
  186MOL0     C25540   3.974   2.578  11.240  0.2120 -0.2716 -0.4163
  186MOL0     C25541   3.831   2.641  11.218  0.8444 -0.3076 -0.9195
  186MOL0     C25542   3.816   2.710  11.085 -1.0899  0.9161  0.0985
  186MOL0     C25543   3.695   2.801  11.055 -0.6438  0.6424 -0.1399
  186MOL0     C25544   3.569   2.762  11.127  0.3586 -0.0723  0.1664
  186MOL0     C25545   3.465   2.869  11.100  0.7828 -0.8192  0.4428
  186MOL0     C25546   3.422   2.861  10.948  0.0804  0.2199  0.9188
  186MOL0     N25547   3.292   2.932  10.936 -0.1461 -0.7204  0.4056
  186MOL0     C25548   3.169   2.872  10.940 -1.0230 -0.2808  0.6301
  186MOL0     C25549   3.085   2.978  10.960 -0.0331  0.7366 -0.4657
  186MOL0     C25550   2.933   2.961  10.981 -0.7088 -0.7899  0.1163
  186MOL0     C25551   2.876   2.836  10.923  0.3937 -0.4702  0.5641
  186MOL0     C25552   2.720   2.826  10.955 -0.4569  0.2843  1.4163
  186MOL0     C25553   2.672   2.692  10.898  0.3742  0.5528 -0.6407
  186MOL0     O25554   2.715   2.675  10.763 -0.5160 -0.2395  0.4366
  186MOL0     C25555   2.703   2.545  10.718 -0.5163 -0.0804  0.0444
  186MOL0     C25556   2.814   2.475  10.674  0.1432  0.0487 -0.2457
  186MOL0     C25557   2.809   2.338  10.641 -0.0375 -0.4781 -1.2795
  186MOL0     C25558   2.926   2.275  10.581  0.5540 -0.9823 -0.0125
  186MOL0     C25559   2.688   2.271  10.638 -0.1804 -0.6468  0.7350
  186MOL0     C25560   2.662   2.122  10.609 -0.6248 -0.2428 -0.2017
  186MOL0     O25561   2.555   2.093  10.526  0.3434  0.4824  0.2212
  186MOL0     C25562   2.541   1.964  10.485 -0.3308  0.3362 -0.5219
  186MOL0     C25563   2.409   1.916  10.468 -1.0918 -0.1184  0.5243
  186MOL0     C25564   2.389   1.791  10.407  0.5259  0.5180  0.0622
  186MOL0     C25565   2.495   1.703  10.375  0.9652 -0.4510  0.3143
  186MOL0     O25566   2.466   1.579  10.319  0.0637 -0.2183 -0.0657
  186MOL0     C25567   2.384   1.593  10.201  0.3479 -0.1722 -0.5782
  186MOL0     C25568   2.455   1.545  10.079 -0.4155  0.7851 -0.3494
  186MOL0     C25569   2.513   1.402  10.081  0.1227 -0.4586  1.0257
  186MOL0     C25570   2.568   1.367   9.945  1.1680  0.1496  0.7786
  186MOL0     C25571   2.446   1.347   9.841  0.3284 -0.1446 -1.2834
  186MOL0     C25572   2.511   1.336   9.704  0.5471 -0.3916  0.4612
  186MOL0     C25573   2.388   1.341   9.606  0.0484  0.3770  0.2122
  186MOL0     C25574   2.431   1.340   9.468  1.5133  1.0099 -1.3671
  186MOL0    Cl25575   2.517   1.495   9.434  0.5230 -0.1965  0.6356
  186MOL0     C25576   2.623   1.744  10.409 -0.1116  0.5385 -0.4988
  186MOL0     C25577   2.648   1.874  10.466  0.7314  0.0756  1.7938
  186MOL0     O25578   2.732   2.043  10.676 -0.0482 -0.4676 -0.3361
  186MOL0     C25579   2.572   2.348  10.674 -0.1754 -1.4079  0.0467
  186MOL0     C25580   2.580   2.484  10.706  0.4711 -0.2827 -1.0005
  186MOL0     N25581   3.154   3.096  10.985 -0.3738 -0.0469  0.1394
  186MOL0     N25582   3.280   3.065  10.968  0.0211 -0.6893 -0.3832
  186MOL0     C25583   3.827   2.137  11.323  0.0698 -0.8172 -0.8756
  186MOL0     C25584   3.842   2.000  11.347 -0.5127  0.3147 -0.7002
  186MOL0     C25585   3.929   1.578  11.316 -0.1024  0.2312 -0.7590
  186MOL0     C25586   3.985   1.547  11.444  0.1175  0.9144 -0.2407
  186MOL0     C25587   3.990   1.410  11.487  0.1701 -0.1821 -0.2465
  186MOL0     C25588   3.934   1.312  11.402  0.5946 -1.2756 -0.0979
  186MOL0     O25589   3.947   1.183  11.428 -0.5581  0.7053  0.5837
  186MOL0     C25590   3.824   1.109  11.450 -0.2093  0.2334  0.0400
  186MOL0     C25591   3.856   0.964  11.405  0.6250  0.2983 -0.2831
  186MOL0     C25592   3.946   0.898  11.524 -0.0045 -0.1079  0.1581
  186MOL0     C25593   4.094   0.912  11.489  0.7536 -0.7192  0.7098
  186MOL0     C25594   4.132   0.821  11.377 -0.2524  0.1970  0.1539
  186MOL0     C25595   4.168   0.748  11.285 -0.5151  0.2130  0.0115
  186MOL0     C25596   3.883   1.343  11.283  0.0598  0.1996  0.4067
  186MOL0     C25597   3.881   1.470  11.233 -0.7660  0.3598 -0.2535
  186MOL0     C25598   3.828   1.493  11.094  0.7637  0.0402  1.0148
  186MOL0     H25599   4.175   1.974  11.272 -0.3770 -0.5036 -0.0188
  186MOL0     H25600   4.142   2.201  11.206  0.2255 -0.4995  0.3237
  186MOL0     H25601   4.074   2.399  11.307 -1.2331 -0.3176  1.5240
  186MOL0     H25602   3.918   2.438  11.390 -2.1330 -0.5579 -0.1238
  186MOL0     H25603   4.040   2.638  11.304 -0.1072 -2.0027  1.6742
  186MOL0     H25604   4.015   2.580  11.139  0.7924  2.3426 -0.2030
  186MOL0     H25605   3.748   2.576  11.249  1.3111 -1.0285 -1.1630
  186MOL0     H25606   3.823   2.723  11.289  0.8109 -0.2765 -0.9586
  186MOL0     H25607   3.907   2.770  11.074 -0.6475  0.0007 -1.7338
  186MOL0     H25608   3.828   2.628  11.012 -1.5869  0.4915  0.4885
  186MOL0     H25609   3.687   2.802  10.946  1.4271 -0.9584 -0.3660
  186MOL0     H25610   3.721   2.902  11.086 -1.4939  0.2356  2.1365
  186MOL0     H25611   3.536   2.660  11.106  2.0922 -0.6528  0.0688
  186MOL0     H25612   3.586   2.756  11.235 -2.2841  0.1327  0.6501
  186MOL0     H25613   3.492   2.962  11.151  2.1857 -2.1291  2.1763
  186MOL0     H25614   3.380   2.834  11.158 -0.3811  2.0355  0.6390
  186MOL0     H25615   3.495   2.904  10.877  2.3905 -0.0204  3.0095
  186MOL0     H25616   3.406   2.756  10.922  0.6909  0.0784  1.0958
  186MOL0     H25617   3.146   2.766  10.928 -0.7978 -0.3840  1.0858
  186MOL0     H25618   2.889   3.051  10.936  0.4438  1.6441  3.3905
  186MOL0     H25619   2.906   2.968  11.087 -4.8150 -1.7987 -0.6679
  186MOL0     H25620   2.879   2.845  10.814 -2.1036 -1.0598  0.3793
  186MOL0     H25621   2.921   2.743  10.961  1.1649 -0.5349 -0.4678
  186MOL0     H25622   2.710   2.829  11.063 -1.7153  2.6847  1.2967
  186MOL0     H25623   2.662   2.912  10.919 -1.8920 -1.3013 -0.3085
  186MOL0     H25624   2.707   2.610  10.961 -1.4142 -0.3015 -0.6724
  186MOL0     H25625   2.563   2.680  10.891  0.4947 -1.7320  0.6867
  186MOL0     H25626   2.909   2.528  10.684  0.6156 -0.8767  0.2611
  186MOL0     H25627   2.978   2.225  10.663  0.4087 -3.1836 -1.1831
  186MOL0     H25628   2.991   2.346  10.530  1.0002 -3.8152 -3.7898
  186MOL0     H25629   2.902   2.212  10.495  1.8460  0.6378 -1.6299
  186MOL0     H25630   2.326   1.980  10.497 -1.4779 -0.8699  1.1189
  186MOL0     H25631   2.285   1.760  10.395 -0.0588  2.7205 -1.0454
  186MOL0     H25632   2.288   1.542  10.211  0.9634 -0.9391  1.9587
  186MOL0     H25633   2.372   1.698  10.170  0.5025  0.2316  0.6777
  186MOL0     H25634   2.395   1.571   9.991 -0.0867 -3.7326 -2.1876
  186MOL0     H25635   2.536   1.618  10.071  0.2637 -0.0985 -2.1524
  186MOL0     H25636   2.439   1.329  10.114 -3.4844  1.9374 -1.1229
  186MOL0     H25637   2.598   1.409  10.151 -0.3851  1.2785  1.5295
  186MOL0     H25638   2.620   1.271   9.955 -2.3417 -2.0913 -0.5976
  186MOL0     H25639   2.630   1.446   9.903  1.7093 -1.0867 -0.8715
  186MOL0     H25640   2.375   1.271   9.874  0.7879  0.2516  0.7305
  186MOL0     H25641   2.389   1.440   9.840 -1.1511 -0.9439  0.9097
  186MOL0     H25642   2.561   1.241   9.683 -1.0014 -0.4724 -3.8666
  186MOL0     H25643   2.579   1.419   9.679 -0.4264  0.5252  0.7709
  186MOL0     H25644   2.323   1.429   9.608  2.1514  2.4772 -5.2741
  186MOL0     H25645   2.331   1.250   9.630  1.8770 -1.1037 -0.8256
  186MOL0     H25646   2.333   1.328   9.420  3.0977 -1.8974 -4.2386
  186MOL0     H25647   2.501   1.258   9.452  1.3524  0.7998 -0.9980
  186MOL0     H25648   2.707   1.675  10.407 -1.7036 -1.5064 -0.2525
  186MOL0     H25649   2.748   1.907  10.491  0.1515  1.5298  2.2698
  186MOL0     H25650   2.470   2.310  10.677 -1.8259  2.5602  0.1423
  186MOL0     H25651   2.490   2.538  10.736  2.5470  0.7734  4.4885
  186MOL0     H25652   3.732   2.183  11.348  0.0649 -1.3532  0.1388
  186MOL0     H25653   3.757   1.945  11.388  0.2671 -3.7162 -3.8047
  186MOL0     H25654   4.014   1.622  11.517 -1.8992 -0.6979  2.4186
  186MOL0     H25655   4.021   1.381  11.587  0.4688 -2.9775 -1.0632
  186MOL0     H25656   3.788   1.119  11.553 -1.5605  1.8416 -0.5398
  186MOL0     H25657   3.745   1.151  11.388 -0.0649  3.0498  1.5832
  186MOL0     H25658   3.908   0.967  11.309 -2.4058  0.6094 -2.0620
  186MOL0     H25659   3.763   0.907  11.400 -0.4759  1.8952  0.7509
  186MOL0     H25660   3.930   0.959  11.614 -3.3622 -1.0780  0.3508
  186MOL0     H25661   3.916   0.794  11.542  1.0459 -0.5712 -0.6708
  186MOL0     H25662   4.141   0.870  11.579 -0.2688 -2.8843  0.2856
  186MOL0     H25663   4.121   1.015  11.466  0.0162 -1.1850 -2.8765
  186MOL0     H25664   4.205   0.692  11.201 -1.1279 -0.6800  0.3198
  186MOL0     H25665   3.851   1.254  11.231 -0.1818  0.3953  0.2192
  186MOL0     H25666   3.749   1.569  11.098  1.1255  0.3810  3.1038
  186MOL0     H25667   3.904   1.521  11.021  0.9595  0.9168  1.5497
  186MOL0     H25668   3.776   1.402  11.062 -0.8539  0.9765  0.8760
  187MOL0     O25669   8.971   6.423   5.482 -0.8746 -0.3410 -0.3648
  187MOL0     C25670   8.885   6.484   5.544  0.2499 -0.0871  0.3440
  187MOL0     O25671   8.847   6.611   5.504  0.4820  0.8277 -1.1865
  187MOL0     C25672   8.747   6.666   5.590 -0.5199 -0.9487  0.2140
  187MOL0     C25673   8.610   6.661   5.551  0.0147  1.1091 -0.2287
  187MOL0     C25674   8.511   6.734   5.612 -0.6838 -0.2552  0.2345
  187MOL0     C25675   8.551   6.823   5.710 -0.2522 -0.1352 -0.0659
  187MOL0     O25676   8.453   6.887   5.773 -0.4306  0.7214 -0.9064
  187MOL0     C25677   8.478   7.003   5.862  0.4725 -0.6959  0.2293
  187MOL0     C25678   8.354   7.057   5.932  0.5705 -0.2191 -0.0805
  187MOL0     C25679   8.256   7.137   5.835 -0.6786  0.1590 -0.0812
  187MOL0     C25680   8.120   7.153   5.915 -0.2491  0.4035  1.1814
  187MOL0     C25681   8.002   7.211   5.827 -0.0174  0.8158  0.0147
  187MOL0     C25682   7.890   7.235   5.932 -0.9345  0.8334 -0.0089
  187MOL0     C25683   7.769   7.291   5.863  0.1263 -0.4638  0.3006
  187MOL0     C25684   7.682   7.188   5.793  0.1742  0.2865 -0.2352
  187MOL0     N25685   7.585   7.252   5.711  0.5271 -0.4329 -0.3397
  187MOL0     C25686   7.452   7.255   5.725  0.8798 -0.1126  0.1505
  187MOL0     C25687   7.399   7.336   5.625  0.3267  1.0691  0.1306
  187MOL0     C25688   7.257   7.349   5.585  0.7172  0.9349 -0.5694
  187MOL0     C25689   7.173   7.226   5.591  0.1647  0.2038  0.2530
  187MOL0     C25690   7.017   7.252   5.562  0.0269  0.0049 -0.6658
  187MOL0     C25691   6.926   7.118   5.560  0.3259 -0.2450  0.3216
  187MOL0     O25692   6.969   7.014   5.656  0.0041  0.3249 -0.2334
  187MOL0     C25693   6.885   6.914   5.684  0.3146 -0.5383  0.4535
  187MOL0     C25694   6.931   6.807   5.758 -0.0046 -0.5007 -0.1500
  187MOL0     C25695   6.850   6.708   5.817  1.1537  0.6134 -0.0279
  187MOL0     C25696   6.910   6.622   5.916  0.1847 -0.6680  0.1103
  187MOL0     C25697   6.710   6.706   5.774  0.0709 -1.1657 -0.0330
  187MOL0     C25698   6.604   6.610   5.825  0.0829  1.2674  0.3927
  187MOL0     O25699   6.474   6.641   5.814 -0.1305  0.3811  0.5970
  187MOL0     C25700   6.381   6.567   5.857  0.2365 -0.4751 -0.8998
  187MOL0     C25701   6.331   6.603   5.982  0.5414 -0.6603 -0.2691
  187MOL0     C25702   6.235   6.518   6.035 -0.0184  0.2224 -0.6707
  187MOL0     C25703   6.183   6.401   5.979 -0.8841  0.2075 -0.1148
  187MOL0     O25704   6.086   6.326   6.044 -0.1316  0.1713 -0.1449
  187MOL0     C25705   6.112   6.183   6.053 -0.6278 -0.4147  0.0296
  187MOL0     C25706   5.993   6.100   6.114  0.3278 -0.7586 -0.9890
  187MOL0     C25707   5.872   6.073   6.021  0.2928 -0.2412  0.3885
  187MOL0     C25708   5.897   5.935   5.956  0.0345  0.2405  0.1201
  187MOL0     C25709   5.787   5.906   5.844  0.4251 -0.0978  0.3173
  187MOL0     C25710   5.642   5.905   5.891 -0.6718  0.3071 -0.3727
  187MOL0     C25711   5.540   5.877   5.785 -0.5720  0.3790 -0.4304
  187MOL0     C25712   5.505   6.005   5.704 -0.1535  0.1181  1.0066
  187MOL0    Cl25713   5.419   5.953   5.568  0.1216  0.3801 -0.0569
  187MOL0     C25714   6.234   6.371   5.846  0.3445 -1.5589  0.5518
  187MOL0     C25715   6.335   6.456   5.795  0.4227 -0.1181  0.2642
  187MOL0     O25716   6.650   6.491   5.854  0.6240 -0.3211 -0.5583
  187MOL0     C25717   6.667   6.805   5.687  0.3876  0.0814  0.5247
  187MOL0     C25718   6.752   6.906   5.638  0.0021  0.3311 -0.0076
  187MOL0     N25719   7.502   7.397   5.562  0.6986 -0.6900  0.5382
  187MOL0     N25720   7.612   7.337   5.606 -0.4200 -0.0624 -0.0040
  187MOL0     C25721   8.685   6.857   5.728 -0.0727 -0.8269 -0.1109
  187MOL0     C25722   8.782   6.767   5.679 -0.0487  0.3334 -0.0736
  187MOL0     C25723   8.824   6.411   5.653  0.2251 -0.6217  0.3680
  187MOL0     C25724   8.868   6.451   5.778  0.1075  0.3565 -0.3024
  187MOL0     C25725   8.820   6.383   5.888  0.5727  0.2087  0.0927
  187MOL0     C25726   8.719   6.284   5.884 -0.2132 -0.0284 -0.5267
  187MOL0     O25727   8.662   6.229   5.992 -0.3264  0.5554  0.7376
  187MOL0     C25728   8.729   6.236   6.122 -0.4233  0.2081  0.3570
  187MOL0     C25729   8.873   6.167   6.117 -0.5400 -0.6793  1.0259
  187MOL0     C25730   8.869   6.016   6.085 -0.5204 -0.3962 -0.7279
  187MOL0     C25731   9.014   5.963   6.080 -0.2878 -0.7271 -0.1961
  187MOL0     C25732   9.092   5.993   6.202  0.0712  0.1346  0.3010
  187MOL0     C25733   9.176   6.046   6.273 -0.7784  1.0520 -0.8348
  187MOL0     C25734   8.674   6.259   5.758 -0.8443 -0.3991 -0.2792
  187MOL0     C25735   8.720   6.318   5.642 -0.6661 -0.1990 -0.3248
  187MOL0     C25736   8.657   6.284   5.519 -0.1357 -0.2224  0.8639
  187MOL0     H25737   8.587   6.598   5.466  2.3378 -6.1480  3.6427
  187MOL0     H25738   8.406   6.731   5.586 -0.9737 -0.1411  1.3678
  187MOL0     H25739   8.541   7.075   5.810  1.5762 -0.4326  1.8734
  187MOL0     H25740   8.541   6.968   5.944  2.3303  4.2988  1.2888
  187MOL0     H25741   8.298   6.978   5.982 -1.1888  1.4672  0.7675
  187MOL0     H25742   8.380   7.130   6.010 -0.5749 -1.5006  1.5635
  187MOL0     H25743   8.296   7.236   5.809 -0.9276 -0.4468 -3.1099
  187MOL0     H25744   8.238   7.090   5.738  0.5557  2.6552 -1.6245
  187MOL0     H25745   8.102   7.057   5.965  3.8817 -0.5250  1.2483
  187MOL0     H25746   8.139   7.227   5.993 -0.9002  1.0311  0.7561
  187MOL0     H25747   7.953   7.132   5.770 -0.6591  1.8486 -0.8961
  187MOL0     H25748   8.025   7.284   5.748 -1.8281 -1.3176 -2.6734
  187MOL0     H25749   7.859   7.142   5.980 -1.3045 -0.6774 -2.9163
  187MOL0     H25750   7.938   7.304   6.001  2.4688 -0.5369 -0.7796
  187MOL0     H25751   7.804   7.370   5.797 -0.3619 -1.7507 -1.5659
  187MOL0     H25752   7.704   7.332   5.941 -3.6588  0.9492 -3.2709
  187MOL0     H25753   7.741   7.114   5.738 -1.3503 -2.7540  1.9046
  187MOL0     H25754   7.629   7.127   5.867  0.0329 -0.3411 -0.8363
  187MOL0     H25755   7.393   7.186   5.785  0.7660 -2.0883 -2.0869
  187MOL0     H25756   7.263   7.388   5.483  2.1603 -0.1887 -0.9466
  187MOL0     H25757   7.215   7.425   5.652  2.5320  0.0719  1.6615
  187MOL0     H25758   7.222   7.156   5.523  1.4503  0.1109  1.2310
  187MOL0     H25759   7.176   7.193   5.695  0.5015 -0.1715  0.1243
  187MOL0     H25760   6.988   7.329   5.633  1.5475  1.8787 -1.9722
  187MOL0     H25761   7.012   7.294   5.461 -2.2603  2.3035  0.3185
  187MOL0     H25762   6.822   7.148   5.568 -0.0310 -0.9102 -1.3008
  187MOL0     H25763   6.939   7.063   5.466  1.4718  1.5324 -0.6151
  187MOL0     H25764   7.037   6.822   5.776  0.3633 -0.3434 -2.1891
  187MOL0     H25765   7.016   6.645   5.930  0.0274 -0.2056  0.5741
  187MOL0     H25766   6.900   6.520   5.877  2.4405 -0.1879 -1.9531
  187MOL0     H25767   6.860   6.632   6.013 -5.4544 -3.4043 -2.0656
  187MOL0     H25768   6.361   6.682   6.050  0.3408  0.4022 -1.3755
  187MOL0     H25769   6.196   6.548   6.132  2.8473  0.8798  0.3976
  187MOL0     H25770   6.140   6.144   5.955  2.5913 -2.9089  1.7277
  187MOL0     H25771   6.198   6.157   6.116 -0.8269 -3.0414 -0.6839
  187MOL0     H25772   6.042   6.015   6.162 -1.4813 -1.0078  0.5266
  187MOL0     H25773   5.953   6.160   6.196 -0.0174 -1.4347 -0.6599
  187MOL0     H25774   5.853   6.153   5.949  0.1047 -3.4629 -3.4826
  187MOL0     H25775   5.783   6.057   6.082 -0.4639  1.5680 -0.1529
  187MOL0     H25776   5.902   5.851   6.025  1.1928 -0.4278 -0.7493
  187MOL0     H25777   5.999   5.940   5.917 -0.0135  1.5400  0.0947
  187MOL0     H25778   5.806   5.978   5.763  0.6535  0.0191  0.4754
  187MOL0     H25779   5.805   5.811   5.793 -1.9161 -1.1066  1.2305
  187MOL0     H25780   5.622   5.997   5.947 -0.2137  0.8645 -1.1178
  187MOL0     H25781   5.646   5.826   5.968  0.8481  1.5904  0.9442
  187MOL0     H25782   5.449   5.848   5.838 -0.4479 -0.4390 -0.6555
  187MOL0     H25783   5.572   5.788   5.729 -0.1282 -1.4362  2.4890
  187MOL0     H25784   5.596   6.058   5.673  1.8923 -2.1803  2.6393
  187MOL0     H25785   5.455   6.073   5.773  1.8044  0.1388  2.4962
  187MOL0     H25786   6.204   6.286   5.786 -1.5050 -0.2644 -0.4771
  187MOL0     H25787   6.364   6.440   5.692  0.2080 -0.2833  0.2283
  187MOL0     H25788   6.567   6.805   5.645  1.0598  0.4933 -1.1664
  187MOL0     H25789   6.708   6.963   5.557 -0.5470  1.7136  1.2208
  187MOL0     H25790   8.717   6.947   5.779 -1.8036 -0.2646  0.0618
  187MOL0     H25791   8.887   6.777   5.703 -0.1671  1.4316  0.0346
  187MOL0     H25792   8.946   6.526   5.780 -0.8384  1.3707  1.7455
  187MOL0     H25793   8.869   6.409   5.981  0.5328  4.0146 -0.7841
  187MOL0     H25794   8.747   6.339   6.153  1.6448 -0.6474  2.2813
  187MOL0     H25795   8.662   6.190   6.194 -1.6791 -0.1067 -0.9708
  187MOL0     H25796   8.936   6.174   6.206  3.6377  1.2101 -1.7707
  187MOL0     H25797   8.938   6.213   6.041  1.7597 -4.5177  0.3849
  187MOL0     H25798   8.823   5.964   6.169 -2.4662  1.8366 -0.3126
  187MOL0     H25799   8.820   6.001   5.989 -1.4367  1.8752 -0.6802
  187MOL0     H25800   9.060   6.021   6.000  1.2603 -2.1103 -0.3476
  187MOL0     H25801   9.028   5.858   6.051 -0.3297 -0.9012  0.3884
  187MOL0     H25802   9.252   6.110   6.312 -1.7377  0.3405  2.4619
  187MOL0     H25803   8.593   6.186   5.751  0.6072 -2.0614 -0.5997
  187MOL0     H25804   8.549   6.295   5.522  0.0194  3.2247 -1.0780
  187MOL0     H25805   8.693   6.332   5.427 -1.6904  0.0966  0.3951
  187MOL0     H25806   8.680   6.178   5.507 -2.5722 -0.6084 -1.2924
  188MOL0     O25807   0.784   7.590   4.925  0.1784  0.4293 -0.4807
  188MOL0     C25808   0.840   7.606   5.039 -0.1204  0.0936 -0.5633
  188MOL0     O25809   0.855   7.723   5.097 -0.4000  0.2065 -0.4894
  188MOL0     C25810   0.803   7.831   5.034 -0.6698 -0.2819  0.6492
  188MOL0     C25811   0.886   7.928   4.987  0.0069 -0.0668  0.8271
  188MOL0     C25812   0.845   8.039   4.918  0.5034  1.0680 -0.2935
  188MOL0     C25813   0.707   8.059   4.910 -0.4126 -0.2637  0.1239
  188MOL0     O25814   0.654   8.170   4.843  0.5536  0.1899 -0.2340
  188MOL0     C25815   0.741   8.271   4.802  0.7117  0.5635 -0.4415
  188MOL0     C25816   0.653   8.384   4.751 -0.0029 -0.7137  0.5224
  188MOL0     C25817   0.725   8.479   4.646  0.5160  0.5272  0.3387
  188MOL0     C25818   0.630   8.569   4.561 -0.6243 -0.4290  0.0192
  188MOL0     C25819   0.588   8.703   4.619 -0.6746 -0.0100  0.7809
  188MOL0     C25820   0.455   8.747   4.548  0.0533 -1.0000  0.1397
  188MOL0     C25821   0.475   8.799   4.402 -0.1902  0.0775 -0.4021
  188MOL0     C25822   0.345   8.864   4.351  0.1911 -1.0737 -1.2834
  188MOL0     N25823   0.374   8.930   4.222  0.2189 -0.9872 -0.5586
  188MOL0     C25824   0.458   9.046   4.207 -0.0088  0.0345  0.4839
  188MOL0     C25825   0.460   9.057   4.071  0.6909 -0.3057  0.2577
  188MOL0     C25826   0.556   9.157   4.002  0.7969 -0.1722  0.5645
  188MOL0     C25827   0.665   9.096   3.918 -0.2336  0.3989  0.4879
  188MOL0     C25828   0.767   9.025   4.012 -0.3639  1.0027  0.1282
  188MOL0     C25829   0.902   8.998   3.926  0.9308 -0.1255 -0.6445
  188MOL0     O25830   0.877   8.883   3.846  0.3025  0.3564  0.7274
  188MOL0     C25831   0.965   8.778   3.843  1.3552 -0.4802 -0.5150
  188MOL0     C25832   0.912   8.647   3.802 -0.0556 -0.0153  0.7645
  188MOL0     C25833   0.999   8.534   3.798  0.6733 -0.0794 -0.6519
  188MOL0     C25834   0.922   8.400   3.776  0.8403 -0.7234 -0.2887
  188MOL0     C25835   1.139   8.555   3.800  0.0826 -0.0892  0.8136
  188MOL0     C25836   1.234   8.441   3.790  0.3066  1.3716 -0.0493
  188MOL0     O25837   1.366   8.474   3.775  0.3558  0.1313 -0.1028
  188MOL0     C25838   1.464   8.379   3.790  0.5598 -0.4919  0.0710
  188MOL0     C25839   1.460   8.275   3.888 -0.3290 -0.0915 -0.1552
  188MOL0     C25840   1.568   8.184   3.897 -0.0636 -0.8861  0.0299
  188MOL0     C25841   1.682   8.194   3.823  0.4508 -0.8324 -0.9285
  188MOL0     O25842   1.782   8.105   3.826 -0.4294 -0.1901 -0.2711
  188MOL0     C25843   1.782   8.017   3.716  0.7210  0.3898  0.7671
  188MOL0     C25844   1.802   7.873   3.767  0.7588 -0.5461  0.0738
  188MOL0     C25845   1.671   7.808   3.817  0.2834  0.1493  0.3297
  188MOL0     C25846   1.572   7.756   3.710 -0.3500  0.4256  0.2555
  188MOL0     C25847   1.419   7.761   3.760 -0.0078  0.3005  0.5860
  188MOL0     C25848   1.315   7.686   3.682 -0.2676 -0.5686 -0.4710
  188MOL0     C25849   1.174   7.738   3.699  0.2059 -0.5682 -0.1055
  188MOL0     C25850   1.083   7.675   3.595  0.1097  0.3495 -0.6376
  188MOL0    Cl25851   1.114   7.726   3.427 -0.4372  0.1117  0.2728
  188MOL0     C25852   1.697   8.305   3.734  0.3335 -0.7613 -0.4277
  188MOL0     C25853   1.582   8.396   3.720  0.1855  0.2378  0.2574
  188MOL0     O25854   1.194   8.324   3.790 -0.0906  0.6563  0.4873
  188MOL0     C25855   1.186   8.686   3.827  1.1047 -0.2800 -0.8595
  188MOL0     C25856   1.101   8.798   3.856 -0.9512  0.1623 -0.3149
  188MOL0     N25857   0.390   8.948   4.013  0.7758 -0.3339 -0.5605
  188MOL0     N25858   0.335   8.873   4.100 -0.3787 -0.0095 -0.7242
  188MOL0     C25859   0.619   7.963   4.962 -0.1365 -0.2698  0.3968
  188MOL0     C25860   0.670   7.852   5.029 -0.3420 -0.2074  0.2096
  188MOL0     C25861   0.894   7.482   5.105  0.3622 -0.4958  0.2704
  188MOL0     C25862   0.837   7.458   5.228  0.0905 -0.2467 -0.6941
  188MOL0     C25863   0.893   7.360   5.317 -0.3524 -0.9613 -0.0444
  188MOL0     C25864   1.000   7.280   5.272  0.5792  1.4428  0.4107
  188MOL0     O25865   1.060   7.188   5.361  0.8047  0.3938  0.4780
  188MOL0     C25866   1.182   7.132   5.324 -0.2278 -0.4544 -1.4200
  188MOL0     C25867   1.296   7.224   5.315 -0.5203  0.0290  0.5256
  188MOL0     C25868   1.434   7.149   5.332  0.7642 -0.0802  0.2313
  188MOL0     C25869   1.542   7.254   5.309  0.0087  0.9170 -0.5752
  188MOL0     C25870   1.552   7.301   5.175  0.0712  0.2682  1.2143
  188MOL0     C25871   1.546   7.342   5.054  0.1133  0.3390 -0.8906
  188MOL0     C25872   1.040   7.292   5.137  0.7930 -0.7833  0.0402
  188MOL0     C25873   0.994   7.400   5.056  0.3960 -0.0204 -0.1935
  188MOL0     C25874   1.065   7.419   4.927  0.2437 -0.1092  0.6389
  188MOL0     H25875   0.992   7.904   4.984 -0.4067 -2.6783 -4.2860
  188MOL0     H25876   0.923   8.099   4.871 -0.6715  2.2256 -0.8160
  188MOL0     H25877   0.799   8.229   4.720 -3.3100 -0.9677 -2.8228
  188MOL0     H25878   0.808   8.301   4.883  3.1816  1.6231 -2.7402
  188MOL0     H25879   0.569   8.341   4.694 -2.1026  1.7826  1.5062
  188MOL0     H25880   0.590   8.430   4.827 -3.0049 -3.7144  0.1033
  188MOL0     H25881   0.800   8.540   4.697  1.7401 -1.8042  1.4881
  188MOL0     H25882   0.770   8.411   4.573 -3.1257 -2.6137  0.6770
  188MOL0     H25883   0.689   8.587   4.471 -4.1388 -1.7301 -2.8220
  188MOL0     H25884   0.543   8.511   4.529 -2.3823  2.3271 -0.4801
  188MOL0     H25885   0.655   8.788   4.605  0.7767 -1.4595 -1.9350
  188MOL0     H25886   0.572   8.690   4.726  1.3843 -0.3139  1.0981
  188MOL0     H25887   0.373   8.674   4.550  0.1775 -1.2210 -1.6240
  188MOL0     H25888   0.427   8.829   4.616  2.2333 -1.6725  1.9734
  188MOL0     H25889   0.497   8.711   4.341 -2.4016 -1.0907  0.3789
  188MOL0     H25890   0.552   8.877   4.395  0.8266 -0.9378 -0.8822
  188MOL0     H25891   0.275   8.781   4.337 -2.3746  0.1745  2.5208
  188MOL0     H25892   0.309   8.933   4.427  2.3736  2.4595 -3.1786
  188MOL0     H25893   0.504   9.112   4.279  1.4594  0.5367 -0.8450
  188MOL0     H25894   0.606   9.224   4.072  0.6708 -2.6354  3.2040
  188MOL0     H25895   0.497   9.227   3.942  4.0246  0.5868 -2.0275
  188MOL0     H25896   0.625   9.031   3.840  2.2970  0.5848 -1.0799
  188MOL0     H25897   0.713   9.176   3.861 -0.8210  1.0872  0.9261
  188MOL0     H25898   0.797   9.086   4.098  0.0499  0.0697  0.6546
  188MOL0     H25899   0.728   8.929   4.048  0.3730  1.0249  1.0007
  188MOL0     H25900   0.926   9.082   3.860 -0.1869 -0.6291 -1.7288
  188MOL0     H25901   0.991   8.985   3.988  2.9450  2.3531 -2.7907
  188MOL0     H25902   0.805   8.632   3.794  0.0480 -1.6778  1.8888
  188MOL0     H25903   0.972   8.349   3.693  2.1302 -0.7160  0.4494
  188MOL0     H25904   0.820   8.397   3.737  0.4539  2.8362  0.1778
  188MOL0     H25905   0.928   8.328   3.859  2.4961  1.0824  1.2650
  188MOL0     H25906   1.375   8.251   3.952  1.5582  1.4609  3.2153
  188MOL0     H25907   1.563   8.098   3.963  2.4901 -0.2494  1.1887
  188MOL0     H25908   1.703   8.019   3.641  1.2118  1.3396  0.2659
  188MOL0     H25909   1.873   8.028   3.656  0.0196 -0.9577 -0.6119
  188MOL0     H25910   1.860   7.801   3.708  1.8051  0.2430  0.1335
  188MOL0     H25911   1.867   7.877   3.854  0.3455  0.9102  0.3403
  188MOL0     H25912   1.614   7.889   3.865  0.0120  2.6304 -3.7174
  188MOL0     H25913   1.696   7.736   3.895 -0.7677 -0.7547 -0.1267
  188MOL0     H25914   1.613   7.654   3.704  2.7953  1.6184 -0.5349
  188MOL0     H25915   1.594   7.809   3.616 -0.3103 -1.8394 -1.1000
  188MOL0     H25916   1.412   7.721   3.862  0.0677 -1.0258  0.0990
  188MOL0     H25917   1.400   7.868   3.754 -1.6608  0.0949  1.4786
  188MOL0     H25918   1.313   7.580   3.710 -2.0082 -0.0897  1.4729
  188MOL0     H25919   1.346   7.690   3.577 -1.4371  2.2491 -0.7941
  188MOL0     H25920   1.155   7.845   3.690 -2.0971 -1.0044 -1.0940
  188MOL0     H25921   1.146   7.704   3.799  0.3772 -3.3931 -0.9305
  188MOL0     H25922   0.983   7.705   3.627  0.4439 -0.3701  1.1695
  188MOL0     H25923   1.094   7.566   3.603  2.3628  0.5978  0.3677
  188MOL0     H25924   1.782   8.315   3.668  1.1328  2.2271  0.8785
  188MOL0     H25925   1.579   8.481   3.653  0.8461 -1.9885 -2.8111
  188MOL0     H25926   1.292   8.703   3.843  0.5012  4.2943 -0.1039
  188MOL0     H25927   1.142   8.898   3.870 -0.1905 -0.4223  2.0762
  188MOL0     H25928   0.512   7.978   4.950 -0.4424 -0.8561  2.1478
  188MOL0     H25929   0.606   7.784   5.083  3.2061 -2.2715  2.2139
  188MOL0     H25930   0.768   7.530   5.272  2.2017  1.4231  0.0543
  188MOL0     H25931   0.851   7.347   5.416 -2.2889 -0.3578 -0.7399
  188MOL0     H25932   1.199   7.071   5.412 -0.7725  0.9068 -0.3320
  188MOL0     H25933   1.171   7.075   5.231 -1.2881 -1.4591 -0.7005
  188MOL0     H25934   1.288   7.309   5.384  2.0262  2.4231 -1.8487
  188MOL0     H25935   1.296   7.265   5.214  3.3878  4.3365  1.8730
  188MOL0     H25936   1.455   7.121   5.436  0.8993 -0.5347  0.0816
  188MOL0     H25937   1.433   7.086   5.243  3.2999  3.0125 -2.2240
  188MOL0     H25938   1.640   7.210   5.331  0.9283  3.0032 -0.1445
  188MOL0     H25939   1.523   7.342   5.371 -0.1946  0.3542  0.1749
  188MOL0     H25940   1.526   7.388   4.959  1.9059  4.1925  0.3872
  188MOL0     H25941   1.102   7.213   5.096  1.5744 -0.6936  0.9955
  188MOL0     H25942   1.027   7.339   4.864  0.7075 -0.0384  0.2609
  188MOL0     H25943   1.047   7.517   4.881  1.7212  0.0547  0.3663
  188MOL0     H25944   1.173   7.405   4.935 -0.0270 -1.3290  3.2229
  189MOL0     O25945   3.012   9.019  11.524  0.1217 -0.1311 -0.3810
  189MOL0     C25946   2.964   9.056  11.418  0.1742 -0.6674  0.5810
  189MOL0     O25947   3.026   9.027  11.299 -0.2242  0.5430  0.2631
  189MOL0     C25948   3.137   8.948  11.288 -0.8141  0.5484  0.3834
  189MOL0     C25949   3.264   8.986  11.337  0.3092  0.2885 -1.2071
  189MOL0     C25950   3.367   8.894  11.351  0.0943  0.4226  0.3732
  189MOL0     C25951   3.348   8.766  11.292 -0.2804  0.1517 -0.1650
  189MOL0     O25952   3.440   8.662  11.284 -0.2336  0.4180  0.3708
  189MOL0     C25953   3.583   8.676  11.318  1.2363  0.8659 -0.5031
  189MOL0     C25954   3.647   8.538  11.310 -0.3873  0.2624  0.0922
  189MOL0     C25955   3.789   8.546  11.359 -0.0521 -0.7736  0.1928
  189MOL0     C25956   3.844   8.411  11.371 -0.0198  0.5032 -0.1986
  189MOL0     C25957   3.981   8.415  11.419 -0.1514  1.0345 -0.9409
  189MOL0     C25958   4.048   8.271  11.428 -0.6276  0.1970 -1.2458
  189MOL0     C25959   4.141   8.276  11.546  0.5051  0.2458  1.0760
  189MOL0     C25960   4.235   8.163  11.521  0.3997  0.0238 -0.2445
  189MOL0     N25961   4.360   8.173  11.607 -0.3072 -0.6547  0.8551
  189MOL0     C25962   4.438   8.275  11.618  0.5591  0.0799 -0.0040
  189MOL0     C25963   4.537   8.238  11.711  1.0644 -0.7984 -0.3020
  189MOL0     C25964   4.644   8.316  11.769 -0.9599  0.2899  0.3443
  189MOL0     C25965   4.744   8.392  11.677 -0.1864 -0.7924 -0.8039
  189MOL0     C25966   4.816   8.298  11.587  0.4825 -0.4614  0.3590
  189MOL0     C25967   4.938   8.366  11.523  0.0699 -0.3077  0.2709
  189MOL0     O25968   5.038   8.392  11.620  0.0253  0.1565 -0.0821
  189MOL0     C25969   5.128   8.495  11.600 -0.2605 -0.1936  0.0904
  189MOL0     C25970   5.093   8.634  11.599  1.0140  0.0963 -0.6251
  189MOL0     C25971   5.180   8.739  11.577  0.0651 -0.0813  0.4950
  189MOL0     C25972   5.122   8.878  11.576 -1.1636 -0.4511  0.0219
  189MOL0     C25973   5.315   8.707  11.545 -0.7545 -0.3316 -0.1015
  189MOL0     C25974   5.413   8.799  11.509 -0.8514 -0.0366 -0.7784
  189MOL0     O25975   5.509   8.765  11.414  0.0865  0.4181  0.8336
  189MOL0     C25976   5.626   8.831  11.391  0.2474 -0.8228  0.2264
  189MOL0     C25977   5.718   8.842  11.492  0.3014  1.0790 -0.4002
  189MOL0     C25978   5.835   8.912  11.464 -0.6280 -0.0930  0.3160
  189MOL0     C25979   5.848   8.976  11.341 -0.6805 -0.5161  0.1268
  189MOL0     O25980   5.962   9.052  11.308 -0.1640  0.8072 -0.3418
  189MOL0     C25981   6.063   8.992  11.214  0.0255  0.3260 -0.0807
  189MOL0     C25982   6.061   9.082  11.084 -0.0910 -0.1776  0.4259
  189MOL0     C25983   6.183   9.181  11.073  0.3532  0.0041  1.1984
  189MOL0     C25984   6.162   9.258  10.945  0.9889  0.6417  0.7164
  189MOL0     C25985   6.293   9.336  10.904  0.1017 -0.1225 -0.0635
  189MOL0     C25986   6.413   9.239  10.871 -0.1654 -0.7590 -0.1720
  189MOL0     C25987   6.544   9.308  10.830  1.0215 -0.2148  0.6366
  189MOL0     C25988   6.633   9.208  10.756 -0.8031 -0.1456  0.3233
  189MOL0    Cl25989   6.660   9.068  10.850  0.1977  0.4792 -0.3774
  189MOL0     C25990   5.764   8.957  11.239  0.0132  0.8508 -0.0061
  189MOL0     C25991   5.650   8.877  11.260 -0.1616  0.1795  0.1048
  189MOL0     O25992   5.417   8.905  11.573  0.2643  0.2995  0.4006
  189MOL0     C25993   5.356   8.570  11.549  0.4556  0.0428  0.3257
  189MOL0     C25994   5.263   8.465  11.572 -0.4341 -0.8914  0.8883
  189MOL0     N25995   4.510   8.113  11.755 -0.2794  0.3577 -0.3252
  189MOL0     N25996   4.414   8.075  11.689 -0.1595 -0.4425  0.4589
  189MOL0     C25997   3.235   8.740  11.222  0.3407  0.5407  0.6544
  189MOL0     C25998   3.129   8.832  11.223 -0.4874  0.0931 -0.0733
  189MOL0     C25999   2.842   9.137  11.420 -0.9248  0.7533 -0.2592
  189MOL0     C26000   2.770   9.143  11.544  0.2901 -0.6591 -0.0713
  189MOL0     C26001   2.661   9.234  11.561  0.0391 -0.4055  0.3168
  189MOL0     C26002   2.613   9.301  11.438 -0.0723 -0.7145  0.0305
  189MOL0     O26003   2.509   9.382  11.459  0.0437 -0.6669  0.9838
  189MOL0     C26004   2.463   9.466  11.341 -0.5327  0.0700 -0.7716
  189MOL0     C26005   2.373   9.577  11.380 -0.2034 -0.6658 -0.3748
  189MOL0     C26006   2.224   9.527  11.395  0.2334  0.6921  0.7378
  189MOL0     C26007   2.191   9.389  11.464 -0.2238 -0.5587 -0.2232
  189MOL0     C26008   2.227   9.403  11.607  0.1095 -0.2631 -0.9189
  189MOL0     C26009   2.271   9.415  11.723  0.0106  0.2969 -0.1073
  189MOL0     C26010   2.681   9.280  11.314  0.1512  0.3255 -0.0636
  189MOL0     C26011   2.794   9.193  11.304  0.2289  0.4433  0.9140
  189MOL0     C26012   2.864   9.189  11.173 -0.1106  0.8073 -0.2644
  189MOL0     H26013   3.275   9.076  11.396  0.7424 -1.3145  1.2995
  189MOL0     H26014   3.457   8.915  11.407 -0.5217 -1.6641  2.2767
  189MOL0     H26015   3.588   8.723  11.417 -0.5579 -0.0880  0.0872
  189MOL0     H26016   3.628   8.742  11.244  1.2754  1.9709  0.4669
  189MOL0     H26017   3.590   8.469  11.373  2.3757 -1.1436  1.2134
  189MOL0     H26018   3.638   8.506  11.206 -0.5046 -1.9742  0.7254
  189MOL0     H26019   3.853   8.599  11.288 -0.7888 -1.3540 -0.9353
  189MOL0     H26020   3.806   8.602  11.451 -1.8321  1.4723 -0.7434
  189MOL0     H26021   3.784   8.344  11.434 -0.0555  0.3920 -0.3513
  189MOL0     H26022   3.853   8.358  11.276  1.7483  0.7827 -0.2046
  189MOL0     H26023   3.992   8.471  11.513  0.0496  2.9560 -2.0662
  189MOL0     H26024   4.031   8.475  11.343  2.3037  1.7914  1.1222
  189MOL0     H26025   3.983   8.185  11.443 -0.0919 -0.4578 -2.5416
  189MOL0     H26026   4.102   8.271  11.333  0.9335  4.4202 -0.5823
  189MOL0     H26027   4.086   8.256  11.639  0.9238 -2.2425  0.8426
  189MOL0     H26028   4.201   8.368  11.541  0.7013  0.0251 -1.4139
  189MOL0     H26029   4.185   8.067  11.532 -0.4648  0.4410 -0.5137
  189MOL0     H26030   4.277   8.163  11.420 -0.0079 -0.4223 -0.4118
  189MOL0     H26031   4.442   8.364  11.556 -1.2329  0.4125  0.2856
  189MOL0     H26032   4.713   8.251  11.823 -1.7528 -0.5894  0.3190
  189MOL0     H26033   4.600   8.379  11.847 -2.2971 -2.8794  2.3409
  189MOL0     H26034   4.691   8.468  11.619 -0.8466 -1.2456 -0.8034
  189MOL0     H26035   4.826   8.436  11.735 -0.7066  0.7922 -1.2262
  189MOL0     H26036   4.864   8.213  11.635 -0.2053 -0.7741  0.5062
  189MOL0     H26037   4.742   8.275  11.510 -1.3872  0.4981  1.7725
  189MOL0     H26038   4.974   8.301  11.442  1.8682 -0.0391  0.8056
  189MOL0     H26039   4.921   8.465  11.479 -1.8899 -0.5668  0.3784
  189MOL0     H26040   4.990   8.664  11.617  1.4479  0.1498  2.3422
  189MOL0     H26041   5.176   8.946  11.642 -0.2186 -2.0842  1.0081
  189MOL0     H26042   5.016   8.879  11.599 -1.0631  0.6640  0.4823
  189MOL0     H26043   5.128   8.924  11.477 -1.4795 -0.5470 -0.0424
  189MOL0     H26044   5.698   8.790  11.585  2.1909 -3.3757 -2.2418
  189MOL0     H26045   5.902   8.935  11.546  0.7073 -1.7754 -0.2580
  189MOL0     H26046   6.158   9.008  11.265  0.1352  4.2444 -1.1848
  189MOL0     H26047   6.049   8.884  11.205 -2.1259  0.6535 -1.5138
  189MOL0     H26048   6.065   9.008  11.004  2.3800  0.5921 -0.2521
  189MOL0     H26049   5.975   9.150  11.085  0.5673  0.6839  0.4564
  189MOL0     H26050   6.264   9.108  11.067 -1.0649 -1.5467 -1.8385
  189MOL0     H26051   6.177   9.257  11.152 -0.2242  1.8150 -0.5111
  189MOL0     H26052   6.082   9.333  10.945 -1.0444 -1.4385  1.3295
  189MOL0     H26053   6.122   9.196  10.865 -3.8016  1.1879  2.3708
  189MOL0     H26054   6.274   9.399  10.816  2.0184  0.7872  0.1310
  189MOL0     H26055   6.321   9.402  10.986  0.9264 -2.0703  1.2883
  189MOL0     H26056   6.380   9.156  10.807 -1.8654 -0.1081 -0.2075
  189MOL0     H26057   6.425   9.187  10.966 -1.5850 -1.5600 -0.3909
  189MOL0     H26058   6.588   9.367  10.911 -1.3966  3.5084 -0.4971
  189MOL0     H26059   6.519   9.386  10.757  1.3537 -0.5292  0.1830
  189MOL0     H26060   6.733   9.249  10.745  0.0666 -2.2482  0.0302
  189MOL0     H26061   6.601   9.193  10.652  3.1584  0.2719 -1.1036
  189MOL0     H26062   5.793   9.010  11.149  0.5273 -1.2027 -1.1003
  189MOL0     H26063   5.575   8.866  11.182 -0.5654 -0.2419  0.5468
  189MOL0     H26064   5.457   8.534  11.533  0.3353  0.0257 -0.4634
  189MOL0     H26065   5.291   8.361  11.558 -1.0525 -0.7602 -2.0457
  189MOL0     H26066   3.231   8.641  11.176 -0.0965 -0.6645  3.1492
  189MOL0     H26067   3.047   8.815  11.155  0.9016  1.5208 -2.2247
  189MOL0     H26068   2.812   9.096  11.633  2.1010 -2.7900 -1.9279
  189MOL0     H26069   2.608   9.240  11.655  1.9468 -2.2954  1.6080
  189MOL0     H26070   2.543   9.532  11.307 -0.0012  0.0776  0.4299
  189MOL0     H26071   2.417   9.416  11.255 -1.6188  4.5357 -3.0978
  189MOL0     H26072   2.381   9.660  11.309  0.5638 -0.0839  0.3664
  189MOL0     H26073   2.410   9.609  11.478  0.8420  1.4442 -1.3825
  189MOL0     H26074   2.171   9.609  11.444  0.6097  1.0159  0.6127
  189MOL0     H26075   2.188   9.512  11.292 -0.2043 -0.7358  1.0839
  189MOL0     H26076   2.252   9.309  11.419  0.9050 -0.4391  1.0233
  189MOL0     H26077   2.084   9.373  11.454 -0.0786 -4.3229  2.3086
  189MOL0     H26078   2.292   9.455  11.820  1.2157  2.3655 -1.1536
  189MOL0     H26079   2.635   9.325  11.226  2.4288  1.2279 -0.8747
  189MOL0     H26080   2.826   9.267  11.107 -1.6990 -1.6729 -2.5113
  189MOL0     H26081   2.969   9.216  11.187  0.8766 -2.4602 -0.3573
  189MOL0     H26082   2.837   9.093  11.127  0.4264  1.3859 -1.8497
  190MOL0     O26083   7.281   9.040   5.747  0.2910  0.1056  0.3852
  190MOL0     C26084   7.403   9.074   5.739  0.2229 -1.2728  0.3958
  190MOL0     O26085   7.471   9.086   5.623 -0.9026 -0.6674  0.0745
  190MOL0     C26086   7.407   9.053   5.503 -0.6680 -0.3312 -1.0869
  190MOL0     C26087   7.448   9.130   5.398 -0.4443 -0.4923 -0.1121
  190MOL0     C26088   7.383   9.111   5.273 -0.8031  0.0593  0.4195
  190MOL0     C26089   7.285   9.004   5.255 -0.1675 -0.9158 -0.3602
  190MOL0     O26090   7.232   8.974   5.133  0.2293  0.0780 -0.3929
  190MOL0     C26091   7.318   8.986   5.018 -1.0169  0.2102  0.5031
  190MOL0     C26092   7.264   8.898   4.907 -0.3211  0.2736  0.1609
  190MOL0     C26093   7.365   8.912   4.793 -0.1403  0.1606  0.1654
  190MOL0     C26094   7.281   8.871   4.667 -0.4594  0.7292  0.3228
  190MOL0     C26095   7.255   8.717   4.662  0.9033 -0.3893 -0.1332
  190MOL0     C26096   7.378   8.625   4.662  0.3184  0.2750  0.1315
  190MOL0     C26097   7.339   8.487   4.622 -0.5623  0.5114  0.4181
  190MOL0     C26098   7.334   8.386   4.738  0.2362  0.5826 -0.2045
  190MOL0     N26099   7.464   8.329   4.773 -0.0058  0.0958 -1.2624
  190MOL0     C26100   7.544   8.379   4.870  1.2801 -0.4341  0.0580
  190MOL0     C26101   7.642   8.283   4.873 -0.4268 -0.0496  0.3094
  190MOL0     C26102   7.770   8.300   4.938  0.4002 -0.3148  0.1532
  190MOL0     C26103   7.885   8.202   4.914  0.6649 -0.4207 -0.0309
  190MOL0     C26104   7.874   8.073   4.998  0.1977  0.0733  0.6647
  190MOL0     C26105   8.003   7.985   4.993  0.8017  0.4547  0.4421
  190MOL0     O26106   8.093   8.018   5.099 -1.1531  0.2463 -0.1262
  190MOL0     C26107   8.077   7.974   5.228 -0.0422 -1.1251 -0.1216
  190MOL0     C26108   7.964   7.905   5.269  0.6485  0.2422 -0.8565
  190MOL0     C26109   7.963   7.849   5.406  0.1848  0.5434  0.3264
  190MOL0     C26110   7.852   7.756   5.433 -0.2549 -0.1887 -0.0619
  190MOL0     C26111   8.069   7.859   5.499  0.5873  1.3790 -0.6496
  190MOL0     C26112   8.069   7.809   5.640  0.0042 -0.7833 -0.1012
  190MOL0     O26113   7.996   7.698   5.667  0.2799  0.5124 -0.2567
  190MOL0     C26114   7.969   7.680   5.798  0.7690 -0.3055 -0.5613
  190MOL0     C26115   8.045   7.585   5.865  0.9512 -1.1127 -0.7127
  190MOL0     C26116   8.016   7.560   6.000  0.3011  0.6490  0.2530
  190MOL0     C26117   7.899   7.607   6.060  0.1148  0.1138 -0.9421
  190MOL0     O26118   7.870   7.601   6.195 -0.3181  0.0169 -0.4809
  190MOL0     C26119   7.887   7.470   6.256  0.3772  0.0125 -0.3153
  190MOL0     C26120   7.866   7.471   6.401  0.7244 -0.6863 -0.3166
  190MOL0     C26121   7.719   7.485   6.444  1.4583  0.2940 -0.6144
  190MOL0     C26122   7.680   7.453   6.595 -0.0565 -0.3933 -0.7913
  190MOL0     C26123   7.714   7.311   6.635  0.0234  0.2280 -0.8824
  190MOL0     C26124   7.647   7.297   6.774  0.6021 -0.0635 -0.3188
  190MOL0     C26125   7.498   7.265   6.767  0.2749  0.3421  0.7931
  190MOL0     C26126   7.429   7.273   6.901 -0.1010  0.5392  0.1378
  190MOL0    Cl26127   7.258   7.287   6.869  0.4632 -0.0809 -0.1302
  190MOL0     C26128   7.820   7.695   5.987  0.2982 -0.0981  0.2419
  190MOL0     C26129   7.863   7.738   5.862  0.4515  0.3810  0.2813
  190MOL0     O26130   8.131   7.878   5.729 -0.2114  0.6632  0.4122
  190MOL0     C26131   8.171   7.944   5.458  0.0717  0.0870 -0.2866
  190MOL0     C26132   8.179   7.994   5.323 -0.7270  1.1286 -0.5483
  190MOL0     N26133   7.608   8.171   4.802 -0.2071  0.0616  0.4018
  190MOL0     N26134   7.502   8.197   4.734  0.0692  0.1485  0.6806
  190MOL0     C26135   7.256   8.922   5.364 -0.1707 -0.1489 -0.1603
  190MOL0     C26136   7.306   8.958   5.490  0.0235  0.4488 -0.2126
  190MOL0     C26137   7.470   9.095   5.859 -0.9469 -1.1040  0.1379
  190MOL0     C26138   7.606   9.052   5.867 -0.5206 -0.2796 -1.0672
  190MOL0     C26139   7.693   9.059   5.992  0.8399  0.4167  0.4545
  190MOL0     C26140   7.641   9.127   6.097 -0.0005 -0.6437  0.3727
  190MOL0     O26141   7.723   9.145   6.203  0.1229  0.0457  0.2869
  190MOL0     C26142   7.831   9.057   6.225 -0.0423  0.1246  0.1558
  190MOL0     C26143   7.853   9.042   6.366  0.1203 -1.1736 -0.6282
  190MOL0     C26144   7.974   8.956   6.395 -1.0694 -0.7551 -0.5003
  190MOL0     C26145   8.008   8.969   6.543 -1.1332 -0.2157 -0.3001
  190MOL0     C26146   7.930   8.871   6.624 -0.1184  0.3442  0.1556
  190MOL0     C26147   7.872   8.785   6.685  0.0314 -0.5254  0.1900
  190MOL0     C26148   7.497   9.168   6.089  0.5063  0.0108  0.0950
  190MOL0     C26149   7.412   9.152   5.974  0.0544  0.4721  0.1918
  190MOL0     C26150   7.261   9.190   5.992  0.6400 -0.5049 -0.9538
  190MOL0     H26151   7.526   9.204   5.403 -1.0669  0.3690 -2.1376
  190MOL0     H26152   7.411   9.170   5.186 -3.0382 -0.6607 -0.8721
  190MOL0     H26153   7.420   8.952   5.039  0.0881  0.4757 -3.5854
  190MOL0     H26154   7.323   9.090   4.984 -3.5755  1.2412  2.8352
  190MOL0     H26155   7.260   8.791   4.933  1.5920 -0.4188 -2.0628
  190MOL0     H26156   7.164   8.931   4.881 -0.4737  0.0615  0.4641
  190MOL0     H26157   7.405   9.014   4.784 -2.7844  1.2151 -0.4891
  190MOL0     H26158   7.446   8.842   4.814  1.2964  1.6285 -0.2766
  190MOL0     H26159   7.190   8.925   4.641 -0.2566  0.3542 -1.2404
  190MOL0     H26160   7.342   8.882   4.577 -0.4226 -4.9537 -0.7208
  190MOL0     H26161   7.208   8.696   4.566 -0.1269  0.7817  0.1022
  190MOL0     H26162   7.185   8.682   4.738 -2.7465 -2.0140 -3.8799
  190MOL0     H26163   7.454   8.654   4.589  0.7185  0.9720  0.8190
  190MOL0     H26164   7.415   8.630   4.765  0.0572  0.8402  0.2004
  190MOL0     H26165   7.421   8.449   4.560  1.0266  1.0844  2.0781
  190MOL0     H26166   7.245   8.484   4.566 -1.0041 -0.2664  1.1726
  190MOL0     H26167   7.295   8.435   4.828 -2.0199 -2.0928  0.3963
  190MOL0     H26168   7.259   8.310   4.717 -2.8588  3.4550 -0.2121
  190MOL0     H26169   7.556   8.478   4.913  1.5944 -0.2332 -0.4751
  190MOL0     H26170   7.749   8.297   5.045 -0.2590 -1.5486  0.0022
  190MOL0     H26171   7.809   8.397   4.906 -2.2931  0.0876 -2.3615
  190MOL0     H26172   7.888   8.179   4.808  0.8647 -0.2798 -0.0560
  190MOL0     H26173   7.977   8.251   4.946 -1.5088  2.6723  2.0818
  190MOL0     H26174   7.846   8.105   5.099 -1.8500  0.4727  0.0224
  190MOL0     H26175   7.787   8.010   4.975  0.9356 -1.6639  2.4023
  190MOL0     H26176   7.976   7.879   4.998  0.5845  0.4643 -0.3033
  190MOL0     H26177   8.042   8.005   4.892 -1.2668  1.7841 -0.1604
  190MOL0     H26178   7.876   7.878   5.211 -0.4698 -0.8828  1.2510
  190MOL0     H26179   7.890   7.656   5.456 -1.3358 -0.2608  1.5727
  190MOL0     H26180   7.791   7.738   5.344 -0.3130 -0.4561  0.0324
  190MOL0     H26181   7.794   7.798   5.515  0.9214  4.2336 -1.1842
  190MOL0     H26182   8.128   7.534   5.817  0.1199 -1.2966 -2.0226
  190MOL0     H26183   8.096   7.504   6.048  2.6758  0.8233 -3.1347
  190MOL0     H26184   7.820   7.406   6.199 -0.5153  2.7264 -2.5417
  190MOL0     H26185   7.986   7.428   6.239  0.3773 -0.3701  0.5660
  190MOL0     H26186   7.908   7.382   6.449 -1.1285 -0.7850  1.2565
  190MOL0     H26187   7.919   7.553   6.450  0.5989 -1.4128  1.1163
  190MOL0     H26188   7.669   7.413   6.378  0.0933  1.3986 -0.8364
  190MOL0     H26189   7.690   7.590   6.433  1.1887  0.2597 -0.2548
  190MOL0     H26190   7.576   7.480   6.613 -0.7107 -4.5666  4.5455
  190MOL0     H26191   7.734   7.528   6.654 -0.7096  0.6651 -1.5127
  190MOL0     H26192   7.666   7.240   6.566  0.8296 -1.6489  0.4021
  190MOL0     H26193   7.820   7.289   6.629 -0.1707 -0.3876 -2.3038
  190MOL0     H26194   7.658   7.390   6.830  2.1418 -0.4861  0.1230
  190MOL0     H26195   7.697   7.213   6.823  0.0815 -0.4960 -0.5101
  190MOL0     H26196   7.476   7.166   6.725  0.0629  0.4284  0.6997
  190MOL0     H26197   7.450   7.343   6.707 -0.5086 -0.6018  0.1705
  190MOL0     H26198   7.466   7.358   6.959  0.6793 -0.1738  0.7176
  190MOL0     H26199   7.450   7.178   6.952 -2.3937 -0.1128 -0.0097
  190MOL0     H26200   7.733   7.731   6.041  0.2761  1.5574 -0.8320
  190MOL0     H26201   7.805   7.810   5.805  1.9526 -0.0357 -1.9248
  190MOL0     H26202   8.259   7.976   5.512  0.2041  4.0405 -2.4334
  190MOL0     H26203   8.259   8.056   5.284  0.6671 -0.3390 -0.1117
  190MOL0     H26204   7.186   8.840   5.350 -1.3092  1.0698 -1.9037
  190MOL0     H26205   7.263   8.908   5.576 -1.4462  3.5210  0.9958
  190MOL0     H26206   7.643   8.998   5.781 -3.3203  0.0798 -2.6292
  190MOL0     H26207   7.792   9.016   5.983  0.2003 -0.6651 -2.7787
  190MOL0     H26208   7.821   8.954   6.189 -1.0742 -0.8499  2.9276
  190MOL0     H26209   7.921   9.093   6.175  0.1671 -0.6856 -0.0777
  190MOL0     H26210   7.772   8.999   6.425  0.2436 -2.0599 -1.0832
  190MOL0     H26211   7.850   9.148   6.392  0.4158 -0.5493 -2.9242
  190MOL0     H26212   7.973   8.852   6.359  1.2358 -0.7341 -0.7811
  190MOL0     H26213   8.056   8.992   6.332 -0.1048 -4.2417 -1.5155
  190MOL0     H26214   8.006   9.071   6.582  1.1655  0.7569 -2.4844
  190MOL0     H26215   8.110   8.931   6.552 -0.5779  0.6326 -2.5108
  190MOL0     H26216   7.802   8.714   6.724 -1.6950  1.3010  0.5812
  190MOL0     H26217   7.445   9.210   6.174 -2.1893  0.3800 -1.6171
  190MOL0     H26218   7.245   9.232   6.092 -0.0879 -0.2565 -1.1691
  190MOL0     H26219   7.226   9.256   5.912  0.1211 -1.0974 -1.2165
  190MOL0     H26220   7.206   9.096   5.993  0.5653 -0.4610 -0.5815
  191MOL0     O26221   9.647   4.203   3.200  0.2238  0.0336 -0.1911
  191MOL0     C26222   9.685   4.298   3.278  0.4735  0.0414  0.1627
  191MOL0     O26223   9.741   4.409   3.229  0.3400  0.8017 -0.1962
  191MOL0     C26224   9.751   4.434   3.092  0.4189 -1.1766 -0.6033
  191MOL0     C26225   9.720   4.564   3.050 -0.5687 -0.0911 -0.8938
  191MOL0     C26226   9.725   4.603   2.921 -0.0526  0.1590  0.9779
  191MOL0     C26227   9.765   4.509   2.819 -0.1983 -0.2382  0.1242
  191MOL0     O26228   9.783   4.549   2.689 -0.4105  0.6864 -0.3784
  191MOL0     C26229   9.678   4.626   2.634 -0.3847  0.1168 -1.0322
  191MOL0     C26230   9.719   4.624   2.492  0.3354 -0.2979 -0.2759
  191MOL0     C26231   9.822   4.727   2.464  0.7990 -0.0329  0.4797
  191MOL0     C26232   9.848   4.730   2.312  0.1234 -0.7709  0.2315
  191MOL0     C26233   9.929   4.849   2.269  0.8419 -1.1695 -0.4335
  191MOL0     C26234  10.051   4.882   2.361 -0.0442  0.5616 -0.5574
  191MOL0     C26235  10.116   5.003   2.305 -1.1608 -0.9638  1.0721
  191MOL0     C26236  10.207   4.974   2.178 -1.2902 -0.2108 -0.2465
  191MOL0     N26237  10.241   5.091   2.104 -0.5734  0.2893  1.0048
  191MOL0     C26238  10.342   5.181   2.132 -0.3036 -0.2713  1.0234
  191MOL0     C26239  10.319   5.285   2.061 -1.1260 -0.1503  0.1315
  191MOL0     C26240  10.392   5.421   2.078  0.1094 -0.3269 -0.0856
  191MOL0     C26241  10.322   5.521   2.162  0.1995 -0.0269 -0.0823
  191MOL0     C26242  10.400   5.659   2.148 -0.4474  0.5959 -0.5407
  191MOL0     C26243  10.344   5.777   2.221 -0.5991 -0.3273  0.0621
  191MOL0     O26244  10.207   5.808   2.191  0.0344 -1.0310  0.1271
  191MOL0     C26245  10.184   5.940   2.216  0.1572 -0.1297 -0.1775
  191MOL0     C26246  10.147   6.023   2.115  0.3412 -1.1327 -0.2586
  191MOL0     C26247  10.108   6.159   2.136  0.0970 -0.0426 -0.4211
  191MOL0     C26248  10.078   6.229   2.009 -0.8458  0.4570 -0.4350
  191MOL0     C26249  10.127   6.222   2.262 -0.2572 -0.1854  1.1156
  191MOL0     C26250  10.103   6.363   2.307  0.6993 -0.4207 -0.7795
  191MOL0     O26251  10.023   6.394   2.420 -0.0615  0.2345 -0.1472
  191MOL0     C26252  10.011   6.526   2.456  0.3614 -0.1159  0.2319
  191MOL0     C26253  10.118   6.614   2.467  0.3008  0.4029  0.8201
  191MOL0     C26254  10.099   6.740   2.508  0.4825  0.8912  0.3602
  191MOL0     C26255   9.973   6.792   2.534  0.1653 -0.5509 -0.4541
  191MOL0     O26256   9.970   6.926   2.560  0.4686  0.4496 -1.1032
  191MOL0     C26257   9.851   6.973   2.624 -0.6604  0.6509  0.7519
  191MOL0     C26258   9.837   6.925   2.771 -0.4397  0.5513 -0.0436
  191MOL0     C26259   9.725   7.008   2.850  0.1585 -0.7254 -0.2996
  191MOL0     C26260   9.749   7.145   2.918 -0.2437 -0.7671  0.4882
  191MOL0     C26261   9.851   7.130   3.022  0.0799 -0.3647 -0.1100
  191MOL0     C26262   9.874   7.266   3.092  0.5998 -0.4290  0.3847
  191MOL0     C26263   9.911   7.390   3.015 -0.0453 -0.1099 -0.1573
  191MOL0     C26264   9.895   7.506   3.113  0.6740 -0.4678 -0.3120
  191MOL0    Cl26265   9.992   7.486   3.279  0.1591 -0.2247  0.1862
  191MOL0     C26266   9.861   6.701   2.514  0.7002  0.2611  0.2880
  191MOL0     C26267   9.886   6.566   2.479  0.5062  0.7869 -0.0757
  191MOL0     O26268  10.142   6.445   2.234 -0.1002  0.5730  0.3296
  191MOL0     C26269  10.175   6.136   2.368  0.9859  0.3462 -0.0455
  191MOL0     C26270  10.203   5.997   2.345 -0.0291 -0.1208  0.1884
  191MOL0     N26271  10.212   5.260   1.984 -0.2566  0.1547  1.7965
  191MOL0     N26272  10.162   5.142   2.001  0.6571 -0.4536 -0.6749
  191MOL0     C26273   9.802   4.380   2.864 -0.3727  0.2434  0.0953
  191MOL0     C26274   9.783   4.342   2.997 -0.1720 -1.1832  0.3914
  191MOL0     C26275   9.692   4.291   3.421 -0.1377  0.1485 -0.3300
  191MOL0     C26276   9.747   4.176   3.479 -1.3112 -0.4460  0.4158
  191MOL0     C26277   9.769   4.164   3.609  0.1058  0.1522  0.0814
  191MOL0     C26278   9.722   4.261   3.698  0.1360  0.1729 -0.3469
  191MOL0     O26279   9.732   4.258   3.834  0.5832  0.7374 -0.5239
  191MOL0     C26280   9.650   4.158   3.891  0.4658 -0.2372 -0.7207
  191MOL0     C26281   9.554   4.220   4.002  0.2230 -0.2345 -0.5405
  191MOL0     C26282   9.462   4.327   3.939  1.1002  0.1481 -0.4130
  191MOL0     C26283   9.345   4.364   4.033  0.5965  0.3010 -0.4100
  191MOL0     C26284   9.386   4.466   4.132  1.2605  0.2903  0.6409
  191MOL0     C26285   9.422   4.560   4.202 -1.3017  1.4429  0.3560
  191MOL0     C26286   9.649   4.365   3.647  0.6896  0.2882 -0.4011
  191MOL0     C26287   9.645   4.390   3.508  0.1003  0.8474  0.1707
  191MOL0     C26288   9.588   4.512   3.462  0.3200 -0.5659 -1.0863
  191MOL0     H26289   9.695   4.640   3.124 -2.0764 -2.0656  0.7588
  191MOL0     H26290   9.696   4.707   2.909  0.2281  0.2584  1.1294
  191MOL0     H26291   9.674   4.731   2.663  2.9139  0.4160 -1.3062
  191MOL0     H26292   9.583   4.576   2.652  0.2622 -0.3574  1.4246
  191MOL0     H26293   9.757   4.528   2.455  0.8555  0.3093 -1.3688
  191MOL0     H26294   9.632   4.643   2.428  0.4126  1.3970  0.0721
  191MOL0     H26295   9.787   4.825   2.497 -2.7311 -0.4246 -1.5314
  191MOL0     H26296   9.918   4.696   2.504  1.5973  0.7465 -0.7335
  191MOL0     H26297   9.887   4.632   2.284 -0.0536 -0.0596 -2.9039
  191MOL0     H26298   9.750   4.744   2.264 -0.9000 -0.5814  2.2777
  191MOL0     H26299   9.872   4.943   2.266  2.3376 -0.1906  0.4480
  191MOL0     H26300   9.950   4.832   2.163 -2.8448  0.0497 -1.5474
  191MOL0     H26301  10.038   4.890   2.469  2.3459  1.0768 -0.2510
  191MOL0     H26302  10.132   4.809   2.361 -2.4367 -2.3347 -2.8450
  191MOL0     H26303  10.177   5.045   2.385  1.5486  0.2283 -1.4330
  191MOL0     H26304  10.043   5.071   2.260  1.2728 -0.0572 -1.8070
  191MOL0     H26305  10.298   4.919   2.206 -0.7838  1.3079  1.2321
  191MOL0     H26306  10.154   4.913   2.104 -0.1193  0.5967 -1.8098
  191MOL0     H26307  10.414   5.181   2.213 -0.8680  2.7074  1.6357
  191MOL0     H26308  10.422   5.465   1.982  3.6066 -0.3450  0.8578
  191MOL0     H26309  10.493   5.410   2.118  0.6189  0.8195 -0.9845
  191MOL0     H26310  10.226   5.550   2.119  0.0520  0.7942  0.7630
  191MOL0     H26311  10.304   5.497   2.267 -0.5880  3.2600  0.6666
  191MOL0     H26312  10.509   5.652   2.157 -0.6225  0.3864  2.7183
  191MOL0     H26313  10.388   5.689   2.044 -1.9900  1.3014 -0.1912
  191MOL0     H26314  10.341   5.759   2.329  0.2277 -2.1041 -0.1779
  191MOL0     H26315  10.402   5.869   2.206 -1.3518  1.0263  4.0526
  191MOL0     H26316  10.136   5.970   2.021 -2.0802  2.1053 -2.0246
  191MOL0     H26317   9.994   6.187   1.953  1.2583 -0.6852 -2.9412
  191MOL0     H26318  10.162   6.225   1.939 -3.2652 -2.4376 -3.4759
  191MOL0     H26319  10.057   6.335   2.027  2.7367  1.0393  1.1913
  191MOL0     H26320  10.217   6.569   2.466  0.3807  0.5693  1.1713
  191MOL0     H26321  10.184   6.805   2.521  1.4016 -0.5138  1.7126
  191MOL0     H26322   9.864   7.081   2.637 -0.5445  0.4029  3.2576
  191MOL0     H26323   9.769   6.938   2.560  0.5889 -3.3181  1.0451
  191MOL0     H26324   9.809   6.820   2.776 -0.5154  0.5823  0.2042
  191MOL0     H26325   9.941   6.933   2.805 -0.0058 -1.0959 -0.8724
  191MOL0     H26326   9.688   6.946   2.933 -1.8817 -0.3551 -0.8729
  191MOL0     H26327   9.646   7.023   2.776 -1.1292  2.7295  1.5620
  191MOL0     H26328   9.661   7.195   2.960  1.5710  1.9090  1.3808
  191MOL0     H26329   9.795   7.207   2.839  1.6383 -2.3668  0.2485
  191MOL0     H26330   9.826   7.055   3.098  2.2882 -0.0450  1.0215
  191MOL0     H26331   9.942   7.094   2.972 -0.4167 -1.0920 -0.5017
  191MOL0     H26332   9.943   7.238   3.172  0.4225 -2.1911 -0.0525
  191MOL0     H26333   9.784   7.304   3.142  1.2685  0.7555  0.7259
  191MOL0     H26334   9.854   7.414   2.924 -0.1724  1.0608  0.2123
  191MOL0     H26335  10.016   7.383   2.988 -0.4002  1.1224 -2.0296
  191MOL0     H26336   9.794   7.544   3.132  1.3653  0.6542  1.3534
  191MOL0     H26337   9.926   7.597   3.062 -1.2783  1.1112  1.1581
  191MOL0     H26338   9.760   6.739   2.529 -1.6291 -3.3364 -3.5949
  191MOL0     H26339   9.816   6.483   2.470  1.8738 -1.1064  3.9773
  191MOL0     H26340  10.167   6.168   2.471 -3.2466 -1.4371  0.3721
  191MOL0     H26341  10.240   5.933   2.425 -0.6276  1.5025  1.8146
  191MOL0     H26342   9.847   4.314   2.791 -1.8424 -0.3733 -0.2856
  191MOL0     H26343   9.820   4.243   3.024 -0.2691 -1.2591  0.2475
  191MOL0     H26344   9.776   4.098   3.410 -0.1395 -1.2986  1.8136
  191MOL0     H26345   9.789   4.064   3.645 -4.9552 -2.7457 -3.8739
  191MOL0     H26346   9.594   4.099   3.818  1.0120 -3.1432  1.0341
  191MOL0     H26347   9.720   4.093   3.944 -0.7514  0.0694  1.3609
  191MOL0     H26348   9.611   4.268   4.081  1.9394 -1.7278 -0.8137
  191MOL0     H26349   9.489   4.139   4.035  1.3974 -2.4886 -3.3309
  191MOL0     H26350   9.516   4.415   3.902  2.2566 -1.7284 -3.5804
  191MOL0     H26351   9.412   4.284   3.851  1.5887 -1.7898  0.2176
  191MOL0     H26352   9.311   4.273   4.082  0.1463 -0.0908 -1.4210
  191MOL0     H26353   9.266   4.406   3.970  1.1131 -1.2450 -2.1753
  191MOL0     H26354   9.464   4.633   4.268 -1.1483  1.3252  0.3895
  191MOL0     H26355   9.583   4.428   3.706 -1.8155 -1.3889 -1.2401
  191MOL0     H26356   9.651   4.581   3.405 -2.1646  0.4351 -2.7958
  191MOL0     H26357   9.504   4.488   3.397 -0.8416 -2.0610  0.8854
  191MOL0     H26358   9.557   4.579   3.543  0.0925  0.2705 -1.8496
  192MOL0     O26359  10.389   5.286   0.939  0.0154  0.0837 -0.6191
  192MOL0     C26360  10.295   5.224   0.991  0.9649  0.8804 -0.3214
  192MOL0     O26361  10.306   5.140   1.100 -0.8662  0.4473 -0.1340
  192MOL0     C26362  10.425   5.129   1.169 -0.5245 -0.3836  0.5537
  192MOL0     C26363  10.476   5.230   1.257 -0.4965  0.7441  0.5110
  192MOL0     C26364  10.593   5.210   1.331 -1.3523  0.3564  0.1896
  192MOL0     C26365  10.670   5.093   1.306 -0.2208  0.4567 -0.0945
  192MOL0     O26366  10.784   5.055   1.360 -0.1508 -1.1336 -0.2313
  192MOL0     C26367  10.837   5.132   1.463 -0.2439  0.0503  0.6369
  192MOL0     C26368  10.912   5.041   1.560 -0.0063  0.1136 -0.1101
  192MOL0     C26369  10.943   5.097   1.684 -0.7075 -0.1461  0.1495
  192MOL0     C26370  11.075   5.032   1.752 -0.7926  0.1742 -0.4417
  192MOL0     C26371  11.114   5.106   1.882 -0.6038  1.0985  0.4408
  192MOL0     C26372  11.249   5.063   1.946 -0.7264 -0.3835 -0.0709
  192MOL0     C26373  11.382   5.097   1.877 -0.0185 -0.1487  0.2812
  192MOL0     C26374  11.393   5.244   1.831 -0.2342 -0.0473  0.7621
  192MOL0     N26375  11.500   5.247   1.724 -0.6403  0.1359  0.6225
  192MOL0     C26376  11.631   5.212   1.722  0.7738 -0.8080 -0.1373
  192MOL0     C26377  11.679   5.236   1.595  0.9728 -0.0498 -0.2528
  192MOL0     C26378  11.813   5.202   1.543 -0.4027  0.1312 -0.1962
  192MOL0     C26379  11.829   5.136   1.407 -0.4430 -0.3323  0.7972
  192MOL0     C26380  11.820   5.237   1.293  1.1170 -0.2661 -0.7927
  192MOL0     C26381  11.813   5.165   1.165 -0.2197  0.9453  1.2044
  192MOL0     O26382  11.934   5.082   1.155  0.1504  0.3113 -0.1565
  192MOL0     C26383  11.919   4.944   1.133  0.4055  0.3606  0.7291
  192MOL0     C26384  12.012   4.847   1.172  1.6731  0.6181 -0.4392
  192MOL0     C26385  12.018   4.707   1.141  0.3191 -0.4688 -0.9629
  192MOL0     C26386  12.136   4.616   1.181  0.3257 -0.0814 -0.9671
  192MOL0     C26387  11.912   4.662   1.062  0.0274  0.3225 -0.4354
  192MOL0     C26388  11.899   4.526   1.029 -0.3773  1.0473 -1.0661
  192MOL0     O26389  11.780   4.469   1.065  0.0759  0.3875  0.6285
  192MOL0     C26390  11.755   4.333   1.045  0.0106  0.5567 -0.4321
  192MOL0     C26391  11.636   4.281   0.983  0.0165 -0.3775  0.1306
  192MOL0     C26392  11.598   4.155   0.982  0.7902 -0.3406 -0.1207
  192MOL0     C26393  11.668   4.066   1.050 -0.1825 -0.2127  0.6503
  192MOL0     O26394  11.626   3.940   1.046  0.6568  0.2437  0.3509
  192MOL0     C26395  11.681   3.842   1.132 -0.0365 -0.2169  0.5016
  192MOL0     C26396  11.798   3.774   1.066  0.7235 -0.3678 -0.9954
  192MOL0     C26397  11.915   3.741   1.163 -0.8007  0.0044 -0.4366
  192MOL0     C26398  12.046   3.721   1.092  0.5884  0.0888 -0.3094
  192MOL0     C26399  12.115   3.593   1.128  0.5080 -0.2263 -0.2507
  192MOL0     C26400  12.064   3.468   1.055  0.4648 -0.3617 -0.1226
  192MOL0     C26401  12.174   3.359   1.046 -0.5269  0.3315  0.8026
  192MOL0     C26402  12.223   3.323   0.900 -0.3293 -0.5243 -0.2434
  192MOL0    Cl26403  12.263   3.472   0.812 -0.5967 -0.1434  0.4035
  192MOL0     C26404  11.784   4.109   1.120  0.2961 -0.9373  0.6827
  192MOL0     C26405  11.829   4.236   1.112 -0.7499  0.7386 -0.1763
  192MOL0     O26406  11.993   4.465   0.984 -0.7113 -0.3018 -0.4302
  192MOL0     C26407  11.820   4.752   1.012 -0.0660 -0.7225 -0.0893
  192MOL0     C26408  11.826   4.891   1.047  0.9088  1.3328  0.0670
  192MOL0     N26409  11.571   5.278   1.519 -0.5022 -0.1390  0.9810
  192MOL0     N26410  11.471   5.280   1.597  0.3495  0.7604  1.2655
  192MOL0     C26411  10.632   4.995   1.217  0.9306  0.6182  0.4841
  192MOL0     C26412  10.504   5.015   1.152 -0.0377 -1.2882 -0.1731
  192MOL0     C26413  10.171   5.245   0.924 -0.4351  0.1717 -0.4865
  192MOL0     C26414  10.183   5.226   0.783  0.4127 -0.3924  0.1562
  192MOL0     C26415  10.078   5.234   0.700 -0.6602 -0.3880 -0.7141
  192MOL0     C26416   9.947   5.247   0.745 -0.3738 -0.6146 -1.1573
  192MOL0     O26417   9.831   5.247   0.668 -0.1139  0.0436 -0.0155
  192MOL0     C26418   9.839   5.307   0.539 -0.3195  0.3423  0.2570
  192MOL0     C26419   9.702   5.375   0.511 -0.2773 -0.3809  0.9817
  192MOL0     C26420   9.607   5.266   0.465  0.0892  0.4181  0.0249
  192MOL0     C26421   9.461   5.301   0.447 -1.7971  0.3562  0.2142
  192MOL0     C26422   9.392   5.362   0.557 -0.5822 -0.1505  0.1260
  192MOL0     C26423   9.330   5.407   0.644  1.2111  0.3758 -0.3131
  192MOL0     C26424   9.929   5.273   0.883 -0.4259  0.0512  0.3751
  192MOL0     C26425  10.040   5.272   0.974  0.2254 -0.5463  0.0526
  192MOL0     C26426  10.001   5.313   1.116 -0.6916 -0.2971  0.2295
  192MOL0     H26427  10.422   5.322   1.281 -1.2392  0.5448 -0.3333
  192MOL0     H26428  10.645   5.282   1.394 -1.9752  1.3653 -0.4228
  192MOL0     H26429  10.755   5.177   1.521 -0.5560  0.5362 -0.1696
  192MOL0     H26430  10.898   5.210   1.417  1.0123 -3.0264 -3.4668
  192MOL0     H26431  10.839   4.963   1.583  0.3288 -0.6106 -1.3649
  192MOL0     H26432  11.004   5.008   1.511  0.9821 -0.0553  1.7890
  192MOL0     H26433  10.963   5.204   1.670 -1.5191 -0.1887 -1.5334
  192MOL0     H26434  10.854   5.083   1.746 -1.4809 -0.2199 -0.9582
  192MOL0     H26435  11.036   4.935   1.783 -1.4946  1.2720  2.4369
  192MOL0     H26436  11.148   5.021   1.672 -0.5768  0.3791 -0.2763
  192MOL0     H26437  11.031   5.076   1.947 -1.2892 -1.9444 -1.5722
  192MOL0     H26438  11.098   5.212   1.863  0.6419  1.5069  1.5307
  192MOL0     H26439  11.255   5.107   2.046  1.1261 -2.2260  0.7267
  192MOL0     H26440  11.238   4.956   1.969 -0.1298 -0.9735 -2.2724
  192MOL0     H26441  11.396   5.026   1.796  1.8987 -0.6476  0.9698
  192MOL0     H26442  11.469   5.079   1.942  0.0934 -0.0053  0.1738
  192MOL0     H26443  11.300   5.290   1.795  0.8314  0.5161 -1.4515
  192MOL0     H26444  11.426   5.306   1.915 -3.7865  0.4127  1.9988
  192MOL0     H26445  11.688   5.170   1.805 -1.6452 -4.3463 -0.0481
  192MOL0     H26446  11.852   5.124   1.608 -0.9374  0.4382  0.5081
  192MOL0     H26447  11.874   5.293   1.545 -0.2642  0.0858 -1.5404
  192MOL0     H26448  11.926   5.088   1.393  0.8631  2.5757 -1.0888
  192MOL0     H26449  11.762   5.050   1.395 -2.2271  1.0521  0.2572
  192MOL0     H26450  11.731   5.299   1.306  0.0318 -2.0319  0.6281
  192MOL0     H26451  11.912   5.295   1.286  0.9733  0.2292  0.9700
  192MOL0     H26452  11.718   5.111   1.153  0.5914 -0.1628 -0.6155
  192MOL0     H26453  11.801   5.243   1.089  2.2803  1.5318  1.3199
  192MOL0     H26454  12.104   4.880   1.220  1.7051  0.9472 -0.7236
  192MOL0     H26455  12.099   4.513   1.187 -0.8363  0.1582 -2.9782
  192MOL0     H26456  12.181   4.643   1.277 -1.4939 -1.8428  0.4827
  192MOL0     H26457  12.205   4.618   1.096 -1.3125 -0.2492 -2.3533
  192MOL0     H26458  11.572   4.348   0.928 -0.6090 -1.8204 -0.9733
  192MOL0     H26459  11.501   4.127   0.940 -0.7783  0.6448  2.6268
  192MOL0     H26460  11.711   3.873   1.233 -0.8415 -2.6562  1.5682
  192MOL0     H26461  11.600   3.772   1.157  0.5266 -0.3796  1.9456
  192MOL0     H26462  11.767   3.686   1.010 -2.1079 -0.5152  0.6247
  192MOL0     H26463  11.850   3.838   0.994  1.8478 -1.3323 -1.0683
  192MOL0     H26464  11.890   3.652   1.222  1.2672  0.1624  0.7463
  192MOL0     H26465  11.945   3.823   1.228  2.7210  2.2313 -4.4333
  192MOL0     H26466  12.117   3.801   1.114  1.9151 -1.3826  1.0223
  192MOL0     H26467  12.029   3.719   0.984 -3.6696 -0.5024  0.2111
  192MOL0     H26468  12.220   3.602   1.102  2.0708 -1.2539  4.5641
  192MOL0     H26469  12.101   3.585   1.237 -1.0626  2.2962 -0.1761
  192MOL0     H26470  12.037   3.490   0.951 -0.1850 -2.2825 -0.3912
  192MOL0     H26471  11.975   3.433   1.108 -2.2231 -0.2688 -4.0961
  192MOL0     H26472  12.139   3.259   1.074 -2.5453 -0.1230 -2.7383
  192MOL0     H26473  12.266   3.382   1.101 -0.7847  2.3302  0.4691
  192MOL0     H26474  12.139   3.272   0.853 -0.6993 -2.0197  1.9052
  192MOL0     H26475  12.305   3.250   0.907 -1.5624 -1.7814  2.3982
  192MOL0     H26476  11.846   4.039   1.176 -1.2548 -0.9153  2.5455
  192MOL0     H26477  11.921   4.273   1.156  0.1995 -1.6378 -0.0370
  192MOL0     H26478  11.742   4.721   0.942 -2.0310 -1.0229  2.1121
  192MOL0     H26479  11.741   4.945   1.009 -0.6892 -0.6018  0.6966
  192MOL0     H26480  10.671   4.896   1.198 -2.0679 -0.3611 -1.2223
  192MOL0     H26481  10.472   4.942   1.078  0.4629 -2.0648  0.3582
  192MOL0     H26482  10.280   5.201   0.742  0.3846 -1.8008  0.9028
  192MOL0     H26483  10.100   5.236   0.593  0.7061 -0.8634 -0.4620
  192MOL0     H26484   9.915   5.385   0.542 -1.3903  1.3921  0.7461
  192MOL0     H26485   9.869   5.228   0.469  4.1532  0.3142  1.8697
  192MOL0     H26486   9.719   5.447   0.431  5.3257  0.5338  2.5716
  192MOL0     H26487   9.669   5.434   0.598 -0.7928 -0.1166  0.6163
  192MOL0     H26488   9.647   5.237   0.367  1.3467  2.4005 -0.1181
  192MOL0     H26489   9.596   5.176   0.525  0.7354  0.3374  0.0253
  192MOL0     H26490   9.409   5.216   0.403  1.6722 -1.8052 -0.0692
  192MOL0     H26491   9.459   5.380   0.371  1.3168  0.3409 -0.0078
  192MOL0     H26492   9.277   5.455   0.724  1.5116  1.1353 -0.5705
  192MOL0     H26493   9.831   5.311   0.910 -0.2659 -1.3787  3.3654
  192MOL0     H26494   9.905   5.270   1.146 -0.3502 -0.8921  0.5024
  192MOL0     H26495  10.072   5.283   1.194 -0.8529 -0.7199  0.2123
  192MOL0     H26496   9.979   5.420   1.128  1.1142 -0.1464  3.4917
  193MOL0     O26497   9.395   0.964   9.684  0.9319 -0.3756 -0.1237
  193MOL0     C26498   9.382   1.037   9.784  0.0457 -0.2799  0.0096
  193MOL0     O26499   9.308   1.140   9.790  0.6198  0.2913  0.3435
  193MOL0     C26500   9.222   1.166   9.685  0.2399  0.4879  0.4742
  193MOL0     C26501   9.276   1.185   9.555 -0.2569 -0.4649 -0.6675
  193MOL0     C26502   9.185   1.216   9.452 -0.0054 -0.4008  0.2686
  193MOL0     C26503   9.049   1.229   9.480 -0.2692  0.0227 -0.9891
  193MOL0     O26504   8.947   1.265   9.403 -0.0635 -0.5811  0.5999
  193MOL0     C26505   8.972   1.293   9.269 -0.2973 -0.3427 -1.1346
  193MOL0     C26506   8.866   1.391   9.229 -0.1975  0.5999 -0.5642
  193MOL0     C26507   8.906   1.456   9.105  1.0892 -0.4620  1.2013
  193MOL0     C26508   8.826   1.590   9.084 -0.9415 -0.7775  0.1874
  193MOL0     C26509   8.888   1.714   9.137  0.1876 -0.0934 -0.1294
  193MOL0     C26510   9.000   1.780   9.056 -0.5048  0.1628 -0.4940
  193MOL0     C26511   8.954   1.850   8.932  1.2812  0.0739  0.1063
  193MOL0     C26512   8.846   1.951   8.951  0.9827  1.4791  0.2706
  193MOL0     N26513   8.843   2.028   8.819  0.3640  0.7526  0.2665
  193MOL0     C26514   8.920   2.006   8.704 -0.6003 -0.9689 -0.0949
  193MOL0     C26515   8.877   2.111   8.620  0.7762  0.3410 -0.5263
  193MOL0     C26516   8.920   2.130   8.472 -0.1019 -0.4458  1.1278
  193MOL0     C26517   8.799   2.092   8.383 -0.1326 -0.7462  0.7933
  193MOL0     C26518   8.719   2.209   8.337 -0.2593 -0.5631  0.0647
  193MOL0     C26519   8.797   2.291   8.247  0.7341  0.8823  0.9469
  193MOL0     O26520   8.830   2.223   8.124 -0.0979 -0.2321 -0.0405
  193MOL0     C26521   8.941   2.265   8.053  0.8119 -0.5554  0.5045
  193MOL0     C26522   8.981   2.401   8.046 -0.0883 -0.3955  1.1213
  193MOL0     C26523   9.088   2.449   7.962  0.4029  0.4866  0.0107
  193MOL0     C26524   9.121   2.599   7.972 -0.6972  0.0872  0.4918
  193MOL0     C26525   9.155   2.357   7.885  0.2002 -0.2001  0.9463
  193MOL0     C26526   9.257   2.395   7.787 -0.1799  0.0977 -0.9604
  193MOL0     O26527   9.340   2.505   7.803 -0.9440 -0.7222 -0.2836
  193MOL0     C26528   9.413   2.580   7.713  0.1889  0.1999 -0.4781
  193MOL0     C26529   9.437   2.552   7.577  0.2220  0.1091 -0.2419
  193MOL0     C26530   9.529   2.618   7.495 -0.1151 -0.7592  0.6135
  193MOL0     C26531   9.590   2.727   7.540  0.5738 -0.3547 -1.3976
  193MOL0     O26532   9.669   2.800   7.455 -0.0036 -0.3606 -0.2458
  193MOL0     C26533   9.599   2.921   7.412 -0.6495  0.1533  0.1647
  193MOL0     C26534   9.699   3.031   7.344  0.4221  0.2937  0.1012
  193MOL0     C26535   9.746   3.004   7.195 -0.3226  0.1620  0.2313
  193MOL0     C26536   9.890   3.056   7.171  0.2891 -0.1485 -0.3326
  193MOL0     C26537   9.920   3.042   7.021  0.1124  0.6144 -0.6004
  193MOL0     C26538  10.045   3.124   6.980  0.4826 -0.4611 -0.1238
  193MOL0     C26539  10.065   3.130   6.831 -0.0789 -0.4417  0.4048
  193MOL0     C26540  10.184   3.238   6.799  0.5734  0.7461  0.1026
  193MOL0    Cl26541  10.237   3.213   6.624 -0.0048 -0.0848  0.3515
  193MOL0     C26542   9.556   2.769   7.675 -0.0224 -0.4009  0.1050
  193MOL0     C26543   9.474   2.694   7.761  0.3768  0.1992 -0.2819
  193MOL0     O26544   9.269   2.314   7.696 -0.7814  0.4157 -0.0774
  193MOL0     C26545   9.114   2.220   7.892 -0.3640  0.8103  0.3093
  193MOL0     C26546   9.003   2.173   7.971 -0.2191 -0.2772 -0.6529
  193MOL0     N26547   8.773   2.169   8.678  0.1046 -0.7298 -0.5914
  193MOL0     N26548   8.760   2.128   8.796  0.1005  0.3723  0.6811
  193MOL0     C26549   9.000   1.201   9.606 -0.5454  0.6290 -0.0794
  193MOL0     C26550   9.086   1.166   9.712  0.6764 -0.9391  0.6979
  193MOL0     C26551   9.444   0.987   9.907  0.8707 -0.4312 -0.7723
  193MOL0     C26552   9.425   0.851   9.946  0.0144  0.7617 -0.5541
  193MOL0     C26553   9.492   0.803  10.059  0.2548 -0.5603 -1.1637
  193MOL0     C26554   9.588   0.885  10.124 -0.6787 -0.4277  0.7948
  193MOL0     O26555   9.667   0.831  10.223  0.5051  0.3243  0.4647
  193MOL0     C26556   9.711   0.918  10.333 -0.3427 -0.9441  0.9677
  193MOL0     C26557   9.698   0.841  10.459 -1.0991 -1.0625 -0.2473
  193MOL0     C26558   9.754   0.904  10.591 -0.0276 -0.2862 -0.0021
  193MOL0     C26559   9.694   1.032  10.628  0.5312 -0.0715  0.2131
  193MOL0     C26560   9.722   1.144  10.537 -0.3440  0.2655  0.2208
  193MOL0     C26561   9.772   1.235  10.468  0.6186  0.1431  0.3893
  193MOL0     C26562   9.604   1.020  10.083  0.0713  0.3254 -0.6232
  193MOL0     C26563   9.537   1.070   9.973 -0.8920  0.0867  0.4903
  193MOL0     C26564   9.573   1.209   9.934 -0.5042 -0.2448  0.0129
  193MOL0     H26565   9.381   1.189   9.531  0.0093  3.8798  0.3552
  193MOL0     H26566   9.240   1.241   9.362  1.8442  1.9076  1.9187
  193MOL0     H26567   8.963   1.210   9.199  0.8319  0.0122 -1.7284
  193MOL0     H26568   9.067   1.346   9.258 -1.8928  3.2171  0.4670
  193MOL0     H26569   8.768   1.342   9.229  0.3760 -0.6429  1.0323
  193MOL0     H26570   8.865   1.465   9.309  0.6164  2.9800 -2.6514
  193MOL0     H26571   9.014   1.469   9.095  0.6808  2.0023 -1.3850
  193MOL0     H26572   8.881   1.384   9.026 -0.5297  0.8421  0.4684
  193MOL0     H26573   8.813   1.591   8.975 -1.5331 -1.1516  0.2495
  193MOL0     H26574   8.725   1.562   9.116 -1.7891  0.2468 -1.4657
  193MOL0     H26575   8.941   1.696   9.231  0.8958 -0.5244 -0.6018
  193MOL0     H26576   8.815   1.794   9.156  1.2757  0.4492  2.2217
  193MOL0     H26577   9.044   1.848   9.130  2.1866 -1.8818 -0.0886
  193MOL0     H26578   9.079   1.712   9.025  1.1552 -0.2099  3.8850
  193MOL0     H26579   8.925   1.776   8.856  1.3886 -2.2701  2.2247
  193MOL0     H26580   9.048   1.897   8.900  1.9628 -1.3798 -0.0977
  193MOL0     H26581   8.758   1.888   8.963  1.3962  1.1253  1.5900
  193MOL0     H26582   8.879   2.016   9.033  3.6968  2.1306 -1.2184
  193MOL0     H26583   9.005   1.941   8.688  0.6304  0.6965 -0.6654
  193MOL0     H26584   9.013   2.073   8.464  0.6878  0.8412  0.7833
  193MOL0     H26585   8.962   2.230   8.455  0.6970 -1.0338 -0.5789
  193MOL0     H26586   8.839   2.044   8.293  0.6522 -1.3348  1.4487
  193MOL0     H26587   8.746   2.020   8.445  1.2849 -2.6606 -0.1244
  193MOL0     H26588   8.628   2.170   8.290 -2.1815  1.2141  2.0821
  193MOL0     H26589   8.689   2.269   8.423 -1.0701  0.6884 -1.0432
  193MOL0     H26590   8.738   2.381   8.225  2.7684  2.2353  0.7742
  193MOL0     H26591   8.889   2.328   8.294  2.0143  3.6786 -3.2443
  193MOL0     H26592   8.930   2.477   8.104 -0.5351  1.0639 -1.0769
  193MOL0     H26593   9.141   2.651   7.878 -1.7677  1.3697  0.9581
  193MOL0     H26594   9.216   2.601   8.026  0.2032 -0.5057 -1.0061
  193MOL0     H26595   9.041   2.660   8.014  0.5026  3.7150 -2.0449
  193MOL0     H26596   9.390   2.464   7.536  1.6732 -2.3411  2.9234
  193MOL0     H26597   9.550   2.587   7.393  0.5022  2.1185 -0.2232
  193MOL0     H26598   9.542   2.884   7.326  0.2032  1.1355 -0.8582
  193MOL0     H26599   9.532   2.971   7.483  0.4996 -0.4282  1.7319
  193MOL0     H26600   9.655   3.131   7.355  2.6596  1.0494  5.1407
  193MOL0     H26601   9.778   3.039   7.419  0.4672  0.3640  0.0453
  193MOL0     H26602   9.670   3.055   7.135 -0.2319  4.0579  3.0557
  193MOL0     H26603   9.746   2.895   7.182  2.7601  0.3214 -2.4267
  193MOL0     H26604   9.960   2.995   7.229  3.8997  2.9889 -0.9520
  193MOL0     H26605   9.908   3.160   7.202 -1.0757  0.1696 -0.5494
  193MOL0     H26606   9.943   2.940   6.990 -1.6140  0.1402 -0.4120
  193MOL0     H26607   9.834   3.083   6.966 -0.2066  0.2505 -0.3774
  193MOL0     H26608  10.139   3.089   7.024  2.3394  3.4750 -0.5052
  193MOL0     H26609  10.030   3.227   7.015 -1.3613  0.2900 -2.8363
  193MOL0     H26610   9.976   3.164   6.776 -0.2534  0.7000  1.3652
  193MOL0     H26611  10.095   3.028   6.806  1.8075  0.0358  0.5422
  193MOL0     H26612  10.272   3.221   6.860  0.1063 -0.8410  0.3946
  193MOL0     H26613  10.142   3.338   6.815  0.6645  0.6698  0.8237
  193MOL0     H26614   9.594   2.856   7.727  0.7832 -0.9132  0.3941
  193MOL0     H26615   9.478   2.723   7.865 -0.0006 -2.2436  0.4767
  193MOL0     H26616   9.162   2.146   7.828 -1.9235 -0.6003  0.7011
  193MOL0     H26617   8.967   2.071   7.962 -0.9095 -0.1704  0.6506
  193MOL0     H26618   8.893   1.189   9.616 -0.7259  3.3297  2.5428
  193MOL0     H26619   9.054   1.138   9.812 -0.8514 -1.4847  0.0874
  193MOL0     H26620   9.346   0.795   9.897  0.1029  1.0785 -1.0648
  193MOL0     H26621   9.480   0.708  10.110  1.8095 -0.0258  0.2648
  193MOL0     H26622   9.812   0.955  10.312 -0.7415 -1.8276 -3.4008
  193MOL0     H26623   9.641   1.002  10.337 -1.1219 -1.2841 -2.3811
  193MOL0     H26624   9.752   0.747  10.447  1.9099  0.3723  1.1478
  193MOL0     H26625   9.590   0.823  10.471 -1.3952  1.3091  1.4258
  193MOL0     H26626   9.747   0.828  10.669  0.0225  2.1130  2.4808
  193MOL0     H26627   9.863   0.914  10.582 -0.1243 -0.4278 -1.7358
  193MOL0     H26628   9.740   1.065  10.722  1.2313  0.6118 -0.3638
  193MOL0     H26629   9.586   1.018  10.643  0.6518  0.5069  1.7948
  193MOL0     H26630   9.799   1.320  10.409  1.2968  0.5850  1.3078
  193MOL0     H26631   9.669   1.090  10.134 -2.7284  2.0682  0.8146
  193MOL0     H26632   9.511   1.274   9.996  0.2059 -1.6935  2.3656
  193MOL0     H26633   9.678   1.234   9.951 -0.8073  0.1231  1.5494
  193MOL0     H26634   9.556   1.220   9.827  0.2858  0.7297 -0.0250
  194MOL0     O26635   6.397   3.201   8.183  0.0763 -0.4879  0.1441
  194MOL0     C26636   6.410   3.080   8.198  0.0577  1.2121 -0.0675
  194MOL0     O26637   6.342   2.980   8.127  0.8594  0.5926  0.2631
  194MOL0     C26638   6.248   3.013   8.029 -0.0509  0.5371  0.2646
  194MOL0     C26639   6.268   2.962   7.903 -0.0502 -0.1931 -0.1996
  194MOL0     C26640   6.185   2.984   7.799  0.2168 -0.2668  0.4812
  194MOL0     C26641   6.061   3.054   7.828 -0.3988  0.8528 -0.0020
  194MOL0     O26642   5.966   3.047   7.723 -0.3381 -0.0728 -0.3545
  194MOL0     C26643   5.849   3.136   7.727 -0.0952 -1.3242  0.1529
  194MOL0     C26644   5.782   3.146   7.585  0.4074 -0.1405 -0.4087
  194MOL0     C26645   5.658   3.238   7.593  0.3260  0.1729  0.0911
  194MOL0     C26646   5.699   3.386   7.596 -0.0248  0.3772 -0.3423
  194MOL0     C26647   5.568   3.466   7.618  0.6420  0.2397 -1.1917
  194MOL0     C26648   5.549   3.484   7.765 -0.7579 -0.0402  0.2127
  194MOL0     C26649   5.604   3.623   7.808 -0.2734 -0.5337  1.2891
  194MOL0     C26650   5.761   3.644   7.807 -0.1992 -0.8645 -0.0201
  194MOL0     N26651   5.805   3.786   7.804 -0.5713 -0.6547  0.8308
  194MOL0     C26652   5.902   3.834   7.711 -0.4191  0.9554  0.1491
  194MOL0     C26653   5.945   3.948   7.765 -0.6967  1.0870 -0.0499
  194MOL0     C26654   6.052   4.032   7.707 -0.0299 -0.5051 -0.0365
  194MOL0     C26655   6.184   3.972   7.704 -0.4963 -0.0508 -0.6327
  194MOL0     C26656   6.204   3.874   7.586 -0.7224 -0.8104 -0.2097
  194MOL0     C26657   6.357   3.836   7.563  1.0294  0.1463  0.1306
  194MOL0     O26658   6.349   3.773   7.437 -0.1963 -0.3300 -0.0681
  194MOL0     C26659   6.418   3.658   7.412 -0.5898 -0.4325  0.7134
  194MOL0     C26660   6.376   3.581   7.302  0.3534 -0.7044 -0.0383
  194MOL0     C26661   6.440   3.458   7.269  0.0003  0.7117 -0.1918
  194MOL0     C26662   6.393   3.397   7.143 -1.0744  0.7147  1.0329
  194MOL0     C26663   6.557   3.418   7.335 -0.1054  0.4137 -1.0238
  194MOL0     C26664   6.628   3.297   7.302 -0.4210 -0.6040 -1.5005
  194MOL0     O26665   6.762   3.312   7.313 -0.6366  0.6521  0.2672
  194MOL0     C26666   6.840   3.199   7.330 -0.2978  0.0484  0.0497
  194MOL0     C26667   6.978   3.227   7.305  0.1519  0.7107 -0.5221
  194MOL0     C26668   7.068   3.127   7.294  0.0873 -0.2331  0.3789
  194MOL0     C26669   7.033   3.000   7.318  0.5377  1.1976  0.1490
  194MOL0     O26670   7.136   2.909   7.305  0.4420  0.5959  0.8822
  194MOL0     C26671   7.087   2.774   7.275 -0.5626 -0.0349  0.4997
  194MOL0     C26672   7.210   2.708   7.207 -0.0961 -0.7085 -0.1094
  194MOL0     C26673   7.171   2.565   7.173  0.0140 -0.5243 -0.2823
  194MOL0     C26674   7.131   2.532   7.031 -0.0108  0.7501 -0.6336
  194MOL0     C26675   7.231   2.552   6.907  0.0333  0.0315  0.0960
  194MOL0     C26676   7.386   2.535   6.936  0.3497 -1.1945  0.1222
  194MOL0     C26677   7.416   2.387   6.943  0.5449 -0.2168  0.1819
  194MOL0     C26678   7.570   2.366   6.962  0.0838 -0.5358  0.0663
  194MOL0    Cl26679   7.649   2.381   6.793  0.4283 -0.5727 -0.0462
  194MOL0     C26680   6.902   2.966   7.350  0.1775 -0.5568 -0.2743
  194MOL0     C26681   6.805   3.062   7.355 -0.1522 -0.0321  0.6043
  194MOL0     O26682   6.568   3.192   7.281 -0.2181 -0.2348  0.6316
  194MOL0     C26683   6.590   3.480   7.455 -0.6933 -0.3845  0.3294
  194MOL0     C26684   6.526   3.603   7.493 -0.3315 -0.3148  0.3253
  194MOL0     N26685   5.883   3.963   7.886 -0.7155  0.0515 -0.4675
  194MOL0     N26686   5.798   3.880   7.908 -0.4901  0.6032 -0.5093
  194MOL0     C26687   6.043   3.108   7.952  0.2984  0.3858 -0.5149
  194MOL0     C26688   6.138   3.091   8.053  0.2791 -0.2305 -0.6116
  194MOL0     C26689   6.486   3.034   8.326  0.5019 -1.0398  0.6533
  194MOL0     C26690   6.443   2.911   8.372 -0.3054  0.3711  0.0136
  194MOL0     C26691   6.496   2.867   8.493 -0.7202  0.9031 -0.4612
  194MOL0     C26692   6.596   2.934   8.559 -0.2351  0.1913 -0.2977
  194MOL0     O26693   6.650   2.886   8.678  0.1111 -0.1060  0.0805
  194MOL0     C26694   6.737   2.961   8.755  0.3896 -0.6535 -0.1835
  194MOL0     C26695   6.806   2.868   8.857  1.3122  0.4567 -0.7168
  194MOL0     C26696   6.876   2.949   8.961 -1.6786  0.5566  0.5430
  194MOL0     C26697   6.773   2.963   9.067  0.4109 -0.5255  0.3469
  194MOL0     C26698   6.833   3.044   9.170 -0.1246  0.1325  0.6177
  194MOL0     C26699   6.883   3.117   9.257 -0.4041  0.9048  0.7540
  194MOL0     C26700   6.640   3.059   8.507 -0.8882  0.3488  0.3711
  194MOL0     C26701   6.585   3.112   8.386  0.7166  0.4203 -0.0051
  194MOL0     C26702   6.640   3.245   8.345 -0.1795  0.0786  1.1169
  194MOL0     H26703   6.369   2.923   7.893  0.7476  0.8787  2.6391
  194MOL0     H26704   6.202   2.934   7.704 -1.4861  1.9025 -1.0618
  194MOL0     H26705   5.895   3.228   7.763 -0.1860 -1.2883  0.1789
  194MOL0     H26706   5.775   3.104   7.801 -0.5009  1.9926  1.3732
  194MOL0     H26707   5.854   3.187   7.513  1.0990  2.6434  1.6756
  194MOL0     H26708   5.752   3.043   7.562 -0.7287 -0.7026  3.0135
  194MOL0     H26709   5.592   3.222   7.507 -2.4205  0.6709  1.9813
  194MOL0     H26710   5.595   3.215   7.680  3.6476 -4.9952  1.6218
  194MOL0     H26711   5.761   3.391   7.685 -1.4778  3.5227  0.6561
  194MOL0     H26712   5.750   3.417   7.504  2.9711  0.7379  1.3273
  194MOL0     H26713   5.481   3.413   7.579 -0.2573  0.2750  0.6498
  194MOL0     H26714   5.551   3.563   7.569  0.2801 -1.1453 -3.9721
  194MOL0     H26715   5.442   3.493   7.787 -1.0671  2.0361 -1.7501
  194MOL0     H26716   5.594   3.414   7.836  0.6417 -1.0808 -1.6104
  194MOL0     H26717   5.573   3.650   7.909  0.3183 -1.1925  1.6578
  194MOL0     H26718   5.556   3.696   7.742  2.9017  0.0185 -0.6394
  194MOL0     H26719   5.817   3.581   7.877  1.4682 -2.6170 -2.7154
  194MOL0     H26720   5.793   3.596   7.714  0.0501 -1.1643  0.2181
  194MOL0     H26721   5.933   3.799   7.613 -1.7085 -0.0022  0.0530
  194MOL0     H26722   6.064   4.121   7.769  0.3386  0.4844 -1.4837
  194MOL0     H26723   6.016   4.067   7.610  0.8726 -0.0951 -0.2314
  194MOL0     H26724   6.248   4.060   7.700 -0.4302 -0.1304 -3.8957
  194MOL0     H26725   6.201   3.923   7.800  0.2115  0.6442 -0.3984
  194MOL0     H26726   6.131   3.795   7.605 -0.7413 -0.7950 -0.2166
  194MOL0     H26727   6.180   3.931   7.496  2.3309 -0.5401 -0.9422
  194MOL0     H26728   6.421   3.924   7.566  1.5203 -0.2376  1.1791
  194MOL0     H26729   6.404   3.781   7.645 -1.0537  0.7828  1.8360
  194MOL0     H26730   6.286   3.610   7.248 -0.5655 -1.5980  0.9727
  194MOL0     H26731   6.313   3.447   7.087 -0.6361  2.5165  1.9428
  194MOL0     H26732   6.362   3.292   7.150 -0.0575 -0.0071 -2.9189
  194MOL0     H26733   6.481   3.395   7.078 -2.4108 -2.5082 -0.9665
  194MOL0     H26734   7.004   3.331   7.290  1.6477  0.5264  0.5710
  194MOL0     H26735   7.169   3.163   7.279  0.1490 -0.0125  1.2816
  194MOL0     H26736   7.058   2.720   7.365  1.2281 -2.8635 -0.4515
  194MOL0     H26737   7.000   2.774   7.209  0.4356 -1.0214 -0.8794
  194MOL0     H26738   7.227   2.761   7.113  0.2985  2.3271  1.5126
  194MOL0     H26739   7.288   2.715   7.283  1.4335 -0.9706 -1.6108
  194MOL0     H26740   7.088   2.539   7.239  1.4730  0.3940  2.0914
  194MOL0     H26741   7.251   2.495   7.198  2.0665  2.1408  1.3184
  194MOL0     H26742   7.041   2.591   7.012  1.5652  2.7595 -2.3900
  194MOL0     H26743   7.094   2.430   7.027 -5.0796  2.3751 -3.1950
  194MOL0     H26744   7.202   2.494   6.819 -1.5597 -0.5011  0.9462
  194MOL0     H26745   7.222   2.657   6.878  1.3029  0.9317  2.6011
  194MOL0     H26746   7.413   2.594   7.024 -0.9918  0.2058 -0.3559
  194MOL0     H26747   7.437   2.577   6.849 -1.4776 -2.7242 -1.7857
  194MOL0     H26748   7.380   2.340   6.852  0.9190  1.3492 -0.8095
  194MOL0     H26749   7.354   2.353   7.026 -2.7794 -0.3223 -2.1660
  194MOL0     H26750   7.592   2.265   6.998 -0.4155 -1.4733 -2.0406
  194MOL0     H26751   7.607   2.446   7.027  0.0810  0.9426 -1.6631
  194MOL0     H26752   6.858   2.872   7.382 -0.7829  0.7776  2.6603
  194MOL0     H26753   6.704   3.024   7.368 -0.6754  0.8614 -0.6960
  194MOL0     H26754   6.681   3.459   7.511 -0.3592 -0.8495 -0.3717
  194MOL0     H26755   6.564   3.653   7.582  1.4862 -0.3608 -0.3785
  194MOL0     H26756   5.948   3.154   7.977  1.1540  2.1345 -0.2923
  194MOL0     H26757   6.118   3.134   8.150  1.0246 -1.9464  0.3573
  194MOL0     H26758   6.369   2.836   8.345 -2.4453  0.9013  3.7371
  194MOL0     H26759   6.467   2.769   8.531  0.5521 -0.4233 -2.6745
  194MOL0     H26760   6.814   3.007   8.693  0.2007 -0.3136 -0.1681
  194MOL0     H26761   6.672   3.032   8.806 -1.3154 -2.2719  0.0286
  194MOL0     H26762   6.881   2.801   8.813  2.6161 -1.8951  4.2979
  194MOL0     H26763   6.736   2.796   8.899 -0.2293  0.5443 -2.9579
  194MOL0     H26764   6.954   2.886   9.004  0.7443  2.3928 -0.8661
  194MOL0     H26765   6.911   3.045   8.922 -1.1993 -0.3120 -1.2603
  194MOL0     H26766   6.736   2.865   9.099  0.4997 -0.6719  0.0025
  194MOL0     H26767   6.686   3.025   9.041  0.8476 -0.3000 -0.5970
  194MOL0     H26768   6.945   3.177   9.321  2.0703 -0.4031 -0.2375
  194MOL0     H26769   6.722   3.117   8.547 -1.2779  0.4864  0.9740
  194MOL0     H26770   6.745   3.256   8.372 -0.2793  1.4630  0.9962
  194MOL0     H26771   6.636   3.260   8.237 -0.6066  3.7210  1.5102
  194MOL0     H26772   6.579   3.323   8.392 -0.7696  0.5488 -0.3597
  195MOL0     O26773   5.033   3.813  10.795  0.0530  0.2406  0.1641
  195MOL0     C26774   4.919   3.823  10.847 -1.3260  0.0844  0.3392
  195MOL0     O26775   4.823   3.736  10.819  0.7212 -0.1883  0.7822
  195MOL0     C26776   4.859   3.601  10.831  0.3660 -0.1782 -0.8286
  195MOL0     C26777   4.798   3.521  10.741 -0.3649  0.1000  0.9981
  195MOL0     C26778   4.835   3.385  10.729 -0.7085 -0.2683  0.1406
  195MOL0     C26779   4.933   3.329  10.813  0.3648 -0.4916  0.0862
  195MOL0     O26780   4.970   3.198  10.815 -0.4498  0.0741  0.9290
  195MOL0     C26781   4.876   3.091  10.791  0.5355  0.4904 -0.1784
  195MOL0     C26782   4.779   3.077  10.914  0.3296 -0.0120 -0.5565
  195MOL0     C26783   4.846   3.050  11.051 -0.1929 -0.7399  0.0633
  195MOL0     C26784   4.731   3.042  11.161 -0.9629 -1.0714  0.0156
  195MOL0     C26785   4.681   2.902  11.162 -0.2995  0.1023  0.4401
  195MOL0     C26786   4.565   2.888  11.254 -0.3159  0.3838  0.1099
  195MOL0     C26787   4.512   2.747  11.257  0.8148 -0.1120  0.3491
  195MOL0     C26788   4.362   2.757  11.304  0.4503 -0.5227  0.6834
  195MOL0     N26789   4.280   2.843  11.225  0.7672  0.1348  0.3647
  195MOL0     C26790   4.248   2.811  11.096  0.1332 -0.2660  0.4100
  195MOL0     C26791   4.185   2.924  11.051  0.1267  0.0934  0.6372
  195MOL0     C26792   4.153   2.957  10.910 -0.3440  0.0261  0.6544
  195MOL0     C26793   4.051   3.083  10.902  0.2917 -0.4080  0.6938
  195MOL0     C26794   3.913   3.043  10.942  0.6920 -0.8151 -0.3953
  195MOL0     C26795   3.804   3.148  10.926 -0.2549 -0.2520  0.9494
  195MOL0     O26796   3.808   3.175  10.783  0.9608 -0.5283 -0.7430
  195MOL0     C26797   3.692   3.135  10.730 -0.2290  0.3066  0.0566
  195MOL0     C26798   3.698   3.007  10.682 -0.2078 -0.5603 -0.3646
  195MOL0     C26799   3.583   2.944  10.638 -0.5539 -0.5962  0.1969
  195MOL0     C26800   3.594   2.806  10.605 -0.3572  0.0705 -0.3696
  195MOL0     C26801   3.455   3.019  10.626 -0.5871  1.1320 -0.7254
  195MOL0     C26802   3.333   2.967  10.571 -0.4696  0.3122  0.4476
  195MOL0     O26803   3.326   2.837  10.549  0.3233  0.7477  0.2604
  195MOL0     C26804   3.209   2.768  10.518  0.2533 -0.7932 -0.2891
  195MOL0     C26805   3.087   2.814  10.550  0.4283 -0.0639  0.4152
  195MOL0     C26806   2.971   2.754  10.495 -0.3583  0.4034 -0.9007
  195MOL0     C26807   2.984   2.639  10.422  0.1168 -0.1249  0.4771
  195MOL0     O26808   2.870   2.567  10.373 -0.2797 -0.0780  0.6071
  195MOL0     C26809   2.752   2.640  10.349  0.0738 -0.1182 -0.3821
  195MOL0     C26810   2.674   2.570  10.233  0.3097 -0.2238  0.0204
  195MOL0     C26811   2.667   2.420  10.241  0.2423 -0.9359  0.0879
  195MOL0     C26812   2.555   2.370  10.153  0.0884 -0.2716  0.5905
  195MOL0     C26813   2.548   2.214  10.144  0.8943  0.8207 -0.0755
  195MOL0     C26814   2.471   2.174  10.013  0.2619 -0.3438 -0.5167
  195MOL0     C26815   2.456   2.026   9.990 -0.2321  0.1656  0.5236
  195MOL0     C26816   2.364   2.015   9.868  1.0107  0.6930  0.3960
  195MOL0    Cl26817   2.356   1.840   9.821  0.9203 -0.1570 -0.8429
  195MOL0     C26818   3.104   2.582  10.417  0.6469  0.2593 -0.1803
  195MOL0     C26819   3.223   2.647  10.453 -0.8052 -0.5323  0.5584
  195MOL0     O26820   3.235   3.044  10.546  0.7224 -1.0528 -0.3331
  195MOL0     C26821   3.464   3.154  10.659  0.2561 -0.7135 -0.5622
  195MOL0     C26822   3.580   3.213  10.721  0.2588 -0.3415  0.6325
  195MOL0     N26823   4.170   3.014  11.150 -0.8624  0.1160  0.6236
  195MOL0     N26824   4.233   2.970  11.251 -0.3051  1.3312  0.4108
  195MOL0     C26825   4.997   3.409  10.914  0.7085 -0.6879  0.2828
  195MOL0     C26826   4.959   3.548  10.919  0.2219  0.9447  0.8651
  195MOL0     C26827   4.892   3.952  10.910  0.2785  0.4169 -0.1174
  195MOL0     C26828   4.774   4.027  10.867  0.6800 -0.2955 -0.0778
  195MOL0     C26829   4.759   4.160  10.914 -0.3462  0.3656  0.1566
  195MOL0     C26830   4.842   4.222  11.006 -0.3517 -0.1460 -0.1772
  195MOL0     O26831   4.806   4.344  11.054  0.2993 -0.5305 -0.0453
  195MOL0     C26832   4.900   4.439  11.104 -1.0386  0.4890  0.0731
  195MOL0     C26833   4.902   4.441  11.258 -0.1088 -0.4444 -0.2314
  195MOL0     C26834   5.038   4.497  11.313 -1.2130  0.3117  0.6433
  195MOL0     C26835   5.059   4.651  11.282 -0.5143 -0.4332  0.2042
  195MOL0     C26836   5.108   4.667  11.145  0.1789  0.6951  0.1898
  195MOL0     C26837   5.154   4.652  11.035 -0.5278  0.9356  0.1558
  195MOL0     C26838   4.940   4.140  11.065  0.2870 -0.0885  0.4476
  195MOL0     C26839   4.971   4.008  11.013  0.0909  0.2824  0.0830
  195MOL0     C26840   5.088   3.938  11.085  0.5608  0.5835  0.1277
  195MOL0     H26841   4.736   3.563  10.662 -0.0718  2.8206  2.1412
  195MOL0     H26842   4.786   3.334  10.646  2.8386 -1.2723 -1.5517
  195MOL0     H26843   4.926   2.994  10.784  1.4679  0.9463 -0.0501
  195MOL0     H26844   4.823   3.117  10.699 -0.7934  1.7989  0.9062
  195MOL0     H26845   4.723   3.172  10.914  0.4218  0.0455  0.2128
  195MOL0     H26846   4.706   2.998  10.894 -0.7444  0.6027  0.7402
  195MOL0     H26847   4.906   2.959  11.040  0.5886 -0.3659  1.0257
  195MOL0     H26848   4.916   3.132  11.070  1.1939 -1.8801  0.0936
  195MOL0     H26849   4.771   3.063  11.261 -0.7241 -2.6565  0.2854
  195MOL0     H26850   4.651   3.111  11.133  1.4109  1.0705 -1.9436
  195MOL0     H26851   4.758   2.832  11.196 -3.2438 -4.0739 -0.6405
  195MOL0     H26852   4.653   2.873  11.060  0.7586  0.9947 -0.1320
  195MOL0     H26853   4.587   2.928  11.353  0.0572  1.0138 -0.2172
  195MOL0     H26854   4.488   2.948  11.204 -0.7430  1.4971  1.9958
  195MOL0     H26855   4.570   2.678  11.318  1.7790  1.0916  0.8521
  195MOL0     H26856   4.514   2.716  11.152  4.8820  2.0823 -0.4566
  195MOL0     H26857   4.319   2.656  11.301 -3.9468  1.1770 -0.7705
  195MOL0     H26858   4.357   2.787  11.409 -2.1184  2.1668 -0.0755
  195MOL0     H26859   4.289   2.730  11.036 -0.1457 -2.4710  2.9784
  195MOL0     H26860   4.092   2.872  10.879 -1.9005  1.5129 -0.5517
  195MOL0     H26861   4.236   2.980  10.843 -0.7676  0.2979  0.2097
  195MOL0     H26862   4.079   3.168  10.965 -0.3582 -1.3025  2.2385
  195MOL0     H26863   4.050   3.111  10.796 -3.0258 -0.6098  0.5518
  195MOL0     H26864   3.885   2.941  10.917  2.3070 -1.4374  0.2014
  195MOL0     H26865   3.908   3.031  11.050 -2.1623  1.3460 -0.1581
  195MOL0     H26866   3.709   3.119  10.974 -0.9415 -3.6163 -2.0115
  195MOL0     H26867   3.833   3.241  10.976 -2.9691  0.4509  1.4289
  195MOL0     H26868   3.796   2.961  10.677  0.5299  0.9824 -4.4501
  195MOL0     H26869   3.599   2.784  10.498  1.7416  1.3183 -0.5862
  195MOL0     H26870   3.526   2.744  10.664 -1.7472  2.0843  0.2767
  195MOL0     H26871   3.691   2.768  10.635 -1.4247 -1.2017  1.6702
  195MOL0     H26872   3.074   2.896  10.620  0.6882  0.6848 -0.3980
  195MOL0     H26873   2.871   2.788  10.520 -0.6776 -0.7667 -0.5238
  195MOL0     H26874   2.695   2.642  10.442  1.2194  0.4100  0.3330
  195MOL0     H26875   2.772   2.745  10.326  0.9013  0.5906  3.0462
  195MOL0     H26876   2.568   2.598  10.241  0.5901  0.7982  0.2284
  195MOL0     H26877   2.718   2.597  10.136  3.5229 -3.2161  0.4547
  195MOL0     H26878   2.648   2.395  10.345  0.5781 -1.1054  0.1086
  195MOL0     H26879   2.762   2.376  10.209 -0.2522 -1.4802 -0.6672
  195MOL0     H26880   2.571   2.417  10.055  0.7120 -1.6983 -0.0245
  195MOL0     H26881   2.458   2.413  10.179  1.2333 -0.0296  5.2808
  195MOL0     H26882   2.644   2.162  10.141  0.7500  0.5080  0.5817
  195MOL0     H26883   2.500   2.179  10.236  1.0567 -0.8365 -0.5753
  195MOL0     H26884   2.531   2.215   9.932  2.6089 -0.4108  1.0842
  195MOL0     H26885   2.371   2.218  10.025 -0.1295 -0.9639 -1.3771
  195MOL0     H26886   2.407   1.974  10.073  1.0662 -1.4102  0.3674
  195MOL0     H26887   2.552   1.977   9.972  0.1897  1.2186 -0.1603
  195MOL0     H26888   2.407   2.060   9.778  0.1070  0.6371 -0.0786
  195MOL0     H26889   2.265   2.059   9.882 -0.0301 -1.0391 -1.1143
  195MOL0     H26890   3.121   2.479  10.387 -1.5247  0.3499 -1.9825
  195MOL0     H26891   3.325   2.611  10.450 -0.4972  0.3252  0.6873
  195MOL0     H26892   3.378   3.219  10.648 -0.6474 -1.4337  1.6617
  195MOL0     H26893   3.585   3.318  10.748  2.2651  0.9976 -4.0621
  195MOL0     H26894   5.088   3.367  10.955  1.4427 -0.5959 -1.1969
  195MOL0     H26895   5.016   3.629  10.964  1.0798 -0.0684  1.6257
  195MOL0     H26896   4.702   3.974  10.805 -1.5891  0.8556  1.4058
  195MOL0     H26897   4.667   4.199  10.869 -2.2486 -3.8925 -0.1020
  195MOL0     H26898   5.001   4.428  11.065 -0.6329  1.9561  0.6168
  195MOL0     H26899   4.867   4.537  11.068 -2.7533 -0.6748 -1.7122
  195MOL0     H26900   4.894   4.338  11.294 -0.0801 -0.7888 -1.1795
  195MOL0     H26901   4.816   4.499  11.292 -0.3381 -0.2138 -1.1564
  195MOL0     H26902   5.050   4.486  11.421  1.2036  2.5093  0.7049
  195MOL0     H26903   5.125   4.437  11.283 -0.3759  0.9845  1.6275
  195MOL0     H26904   5.130   4.703  11.346  0.9142  1.1239 -2.4528
  195MOL0     H26905   4.965   4.705  11.288 -0.4790 -0.3216 -0.2090
  195MOL0     H26906   5.202   4.647  10.939  0.1277 -0.2595  0.5278
  195MOL0     H26907   5.011   4.174  11.141  0.9897  1.1172 -0.6983
  195MOL0     H26908   5.054   3.837  11.113  1.6677 -0.4048 -1.8835
  195MOL0     H26909   5.172   3.936  11.016  0.4131  3.0896 -0.2150
  195MOL0     H26910   5.127   3.994  11.171  0.3483  1.4502 -0.3296
  196MOL0     O26911   3.325  10.528   0.235  0.1403 -0.7806 -0.2337
  196MOL0     C26912   3.241  10.566   0.164  0.3055  0.1582  0.4825
  196MOL0     O26913   3.254  10.682   0.085 -0.3681 -0.3974 -1.1427
  196MOL0     C26914   3.365  10.748   0.099 -0.5566 -0.2212  0.0492
  196MOL0     C26915   3.467  10.728   0.003 -0.0768  0.1653 -0.4783
  196MOL0     C26916   3.590  10.789   0.018 -0.3912 -0.7457  0.4674
  196MOL0     C26917   3.624  10.866   0.131  0.0840 -0.6201 -0.1433
  196MOL0     O26918   3.744  10.931   0.133 -0.8066 -0.5106 -0.6823
  196MOL0     C26919   3.756  11.063   0.088 -0.3412  0.0017 -0.7995
  196MOL0     C26920   3.839  11.134   0.195 -0.5981 -0.6811 -0.2062
  196MOL0     C26921   3.843  11.289   0.183 -0.5087  0.8246 -0.6120
  196MOL0     C26922   3.960  11.345   0.264 -0.1909 -0.2912  0.2965
  196MOL0     C26923   3.961  11.496   0.295  0.6576  1.0498  0.1661
  196MOL0     C26924   3.980  11.571   0.160 -0.9497 -0.1705  1.0225
  196MOL0     C26925   3.981  11.729   0.187  0.2543 -0.1786 -0.5870
  196MOL0     C26926   4.115  11.782   0.252  0.3613  0.1393 -0.2771
  196MOL0     N26927   4.126  11.928   0.232  0.5997  0.5651 -0.1307
  196MOL0     C26928   4.024  12.018   0.261  0.2807 -0.7597  0.4357
  196MOL0     C26929   4.067  12.147   0.238 -0.1569  0.8654 -0.0605
  196MOL0     C26930   3.985  12.282   0.240 -0.1634  0.7951 -0.1336
  196MOL0     C26931   3.982  12.342   0.379 -0.4464 -0.4730  0.1459
  196MOL0     C26932   3.856  12.321   0.457 -0.0711 -0.1006  0.2342
  196MOL0     C26933   3.877  12.201   0.556 -0.8517  0.0196 -0.5250
  196MOL0     O26934   3.941  12.238   0.688 -0.7832  0.0561 -0.2950
  196MOL0     C26935   3.879  12.321   0.786 -0.6795 -0.0251 -0.7231
  196MOL0     C26936   3.751  12.362   0.787  0.6416  0.2355 -0.4026
  196MOL0     C26937   3.691  12.445   0.878  0.5258 -0.5587  0.3576
  196MOL0     C26938   3.543  12.470   0.882  0.1050  0.1157 -0.0249
  196MOL0     C26939   3.777  12.509   0.970  0.1038  1.2235 -0.3475
  196MOL0     C26940   3.729  12.617   1.055  0.6421  0.4612  0.6086
  196MOL0     O26941   3.761  12.619   1.186  0.1828 -0.2607 -0.1903
  196MOL0     C26942   3.719  12.714   1.277  0.3832 -0.1058  0.3689
  196MOL0     C26943   3.603  12.796   1.272 -0.9648  0.0633  0.2867
  196MOL0     C26944   3.558  12.865   1.388  0.0817 -0.6011  1.0441
  196MOL0     C26945   3.636  12.862   1.510 -0.2143  0.3450  0.8548
  196MOL0     O26946   3.592  12.938   1.620  0.0639  0.2982  0.1422
  196MOL0     C26947   3.456  12.906   1.658 -0.2697  0.0947  0.9342
  196MOL0     C26948   3.417  12.990   1.769 -0.0584  0.0222 -0.8799
  196MOL0     C26949   3.269  12.983   1.800 -0.0244 -0.0758 -0.4574
  196MOL0     C26950   3.211  13.029   1.938  0.8294  0.6924 -0.0264
  196MOL0     C26951   3.060  13.067   1.938  1.1148  0.0896 -0.3300
  196MOL0     C26952   2.995  13.128   2.069 -0.3486  0.5311 -0.6947
  196MOL0     C26953   2.843  13.133   2.071 -0.1116 -0.6580 -0.1828
  196MOL0     C26954   2.783  13.260   1.988  0.4215 -0.4972  0.3327
  196MOL0    Cl26955   2.850  13.421   2.044 -0.2470  0.0858 -0.8451
  196MOL0     C26956   3.755  12.786   1.510  1.0835  0.3813 -0.0611
  196MOL0     C26957   3.788  12.703   1.399 -0.4335  0.2048  0.7507
  196MOL0     O26958   3.677  12.709   0.994 -0.0507  0.9786  0.4500
  196MOL0     C26959   3.909  12.472   0.977  0.5677  0.6109 -0.4202
  196MOL0     C26960   3.957  12.381   0.879 -0.3027 -0.6590  0.5160
  196MOL0     N26961   4.194  12.124   0.199  0.6500  0.1136  1.1588
  196MOL0     N26962   4.229  12.000   0.189  0.2948 -0.5295  0.3077
  196MOL0     C26963   3.524  10.882   0.239  0.6124  0.5409 -0.5874
  196MOL0     C26964   3.401  10.815   0.220 -0.3175  0.3853 -0.0652
  196MOL0     C26965   3.117  10.485   0.153  0.0474  0.0274  0.4677
  196MOL0     C26966   3.016  10.536   0.078 -0.1045 -0.6077  1.3255
  196MOL0     C26967   2.892  10.469   0.051 -0.2259 -0.0205  0.1889
  196MOL0     C26968   2.862  10.344   0.112  0.2461 -0.6002  0.5654
  196MOL0     O26969   2.752  10.273   0.094  0.4009  0.0482  0.0282
  196MOL0     C26970   2.648  10.302  -0.005  0.7298  0.2604  0.0104
  196MOL0     C26971   2.720  10.267  -0.138 -0.2310  0.7047  0.6652
  196MOL0     C26972   2.639  10.295  -0.265 -0.1368  0.2936 -0.2454
  196MOL0     C26973   2.722  10.349  -0.382 -0.1503 -0.3082 -0.0146
  196MOL0     C26974   2.821  10.256  -0.438  0.3385 -0.0315  0.6919
  196MOL0     C26975   2.901  10.180  -0.492 -0.5308 -0.3624 -0.2781
  196MOL0     C26976   2.965  10.302   0.198  0.0032  1.2450  0.4569
  196MOL0     C26977   3.087  10.368   0.226  0.2207  1.0102 -0.0343
  196MOL0     C26978   3.178  10.305   0.324 -0.5600  0.0617 -0.8573
  196MOL0     H26979   3.416  10.680  -0.080  1.8438  0.1111 -1.6779
  196MOL0     H26980   3.656  10.767  -0.065 -2.0606 -3.0226 -0.3499
  196MOL0     H26981   3.658  11.112   0.080 -0.2633  0.4851  0.8979
  196MOL0     H26982   3.807  11.081  -0.007  1.4342 -0.9834 -0.0709
  196MOL0     H26983   3.787  11.114   0.289 -1.6881 -1.5954 -0.9702
  196MOL0     H26984   3.940  11.091   0.188 -1.0465 -1.6966 -0.6409
  196MOL0     H26985   3.846  11.312   0.076 -2.5124  0.9211 -0.6823
  196MOL0     H26986   3.753  11.335   0.224 -2.2980 -0.3958 -2.9839
  196MOL0     H26987   3.974  11.288   0.357  1.6085 -1.1752 -0.4563
  196MOL0     H26988   4.056  11.327   0.214 -1.1917  0.1101 -1.8804
  196MOL0     H26989   4.041  11.496   0.369  1.7876  0.0789 -0.9982
  196MOL0     H26990   3.868  11.524   0.346  0.2470 -1.3256  0.8444
  196MOL0     H26991   4.079  11.556   0.117 -0.5637 -0.4730  1.9948
  196MOL0     H26992   3.904  11.537   0.089  0.9622  0.8804 -1.6732
  196MOL0     H26993   3.889  11.745   0.243  1.8486  1.4634  1.7874
  196MOL0     H26994   3.982  11.784   0.093  1.5974  2.0654  0.6384
  196MOL0     H26995   4.124  11.758   0.358 -0.2426  0.1892 -0.2109
  196MOL0     H26996   4.196  11.737   0.194 -0.1014 -1.7917  0.4829
  196MOL0     H26997   3.923  11.984   0.281 -0.2975 -0.3212 -1.4820
  196MOL0     H26998   3.883  12.258   0.211 -1.3320  3.7442  1.0485
  196MOL0     H26999   4.018  12.354   0.164 -2.9704  0.6355 -1.6458
  196MOL0     H27000   4.070  12.316   0.439 -1.0113  0.7730  1.5696
  196MOL0     H27001   3.997  12.450   0.374  2.6825 -0.8287 -0.7377
  196MOL0     H27002   3.829  12.417   0.502 -3.3268 -0.7545 -0.1137
  196MOL0     H27003   3.770  12.304   0.392  0.7889 -2.1441 -0.4600
  196MOL0     H27004   3.777  12.159   0.570  0.4887 -3.7242 -0.8399
  196MOL0     H27005   3.937  12.121   0.510  2.1680  1.7883  0.0829
  196MOL0     H27006   3.691  12.337   0.700 -0.1943  2.7128 -0.5966
  196MOL0     H27007   3.503  12.420   0.794  4.0594 -1.9496 -0.8810
  196MOL0     H27008   3.531  12.578   0.871 -0.7416  0.3729  2.7008
  196MOL0     H27009   3.488  12.441   0.972  0.6289 -1.1189 -0.0760
  196MOL0     H27010   3.549  12.805   1.178  0.0366  0.2579 -0.2979
  196MOL0     H27011   3.472  12.932   1.385 -0.0624 -0.4382  4.6014
  196MOL0     H27012   3.392  12.920   1.570  1.3170 -0.7824 -0.4185
  196MOL0     H27013   3.446  12.801   1.684 -3.9354  0.0070 -0.2066
  196MOL0     H27014   3.475  12.949   1.852 -1.4926 -1.3583 -0.5292
  196MOL0     H27015   3.455  13.093   1.762  0.5099  0.0103  1.2058
  196MOL0     H27016   3.220  12.889   1.772  0.2418 -0.4249  0.2155
  196MOL0     H27017   3.228  13.051   1.725  2.6557 -0.6721 -2.6396
  196MOL0     H27018   3.266  13.111   1.984 -1.8423  1.7126  1.5676
  196MOL0     H27019   3.232  12.951   2.011  1.3849  3.4186  2.9364
  196MOL0     H27020   3.037  13.141   1.860 -1.5673  1.2945  1.4443
  196MOL0     H27021   3.008  12.971   1.924  2.1400 -0.7740  1.5029
  196MOL0     H27022   3.039  13.227   2.083 -2.4024  1.3239  0.5395
  196MOL0     H27023   3.043  13.068   2.147 -0.9950  3.1183  1.8156
  196MOL0     H27024   2.812  13.146   2.176 -2.4691 -0.1070 -0.8854
  196MOL0     H27025   2.808  13.036   2.033 -0.7148 -1.0965  1.3808
  196MOL0     H27026   2.675  13.254   1.975  0.6724 -0.4346 -2.4016
  196MOL0     H27027   2.800  13.244   1.881 -1.9644 -0.0571 -0.1628
  196MOL0     H27028   3.819  12.793   1.598  1.5663 -1.6001 -0.1889
  196MOL0     H27029   3.862  12.623   1.398  1.7132  1.8686 -4.1522
  196MOL0     H27030   3.980  12.519   1.045 -0.0233  0.4980  0.2924
  196MOL0     H27031   4.064  12.365   0.888  0.2598  2.4855  0.8143
  196MOL0     H27032   3.549  10.951   0.319  3.5608  1.1610 -1.9009
  196MOL0     H27033   3.319  10.820   0.291  0.3570  1.5795  0.6567
  196MOL0     H27034   3.038  10.633   0.036  2.4754 -1.0528  1.5057
  196MOL0     H27035   2.820  10.526  -0.007 -1.6330  0.4020  2.2483
  196MOL0     H27036   2.567  10.230   0.009  0.8059  0.3443  0.9548
  196MOL0     H27037   2.607  10.402   0.013 -2.1192 -0.8646  0.2468
  196MOL0     H27038   2.731  10.159  -0.132  1.2850  0.8532  0.9501
  196MOL0     H27039   2.818  10.316  -0.134  0.4382 -0.6794  2.1817
  196MOL0     H27040   2.587  10.201  -0.289  0.8414 -0.3084 -0.0631
  196MOL0     H27041   2.561  10.368  -0.243 -4.0297 -3.1012 -1.4271
  196MOL0     H27042   2.764  10.444  -0.349  0.5544 -1.0741  1.4101
  196MOL0     H27043   2.649  10.376  -0.458  2.8885  0.8155 -2.7275
  196MOL0     H27044   2.975  10.111  -0.527 -0.9495 -2.1566  2.0476
  196MOL0     H27045   2.940  10.205   0.239 -0.6560  1.0158 -0.4571
  196MOL0     H27046   3.132  10.237   0.396  3.3822 -1.2602  0.6692
  196MOL0     H27047   3.260  10.252   0.275  1.1966 -0.1611  2.0489
  196MOL0     H27048   3.208  10.384   0.394 -0.7539 -1.0359  0.5189
  197MOL0     O27049   7.179   6.743  11.584  1.1019 -0.2205 -0.7296
  197MOL0     C27050   7.256   6.649  11.617 -0.3155  0.0407 -0.3074
  197MOL0     O27051   7.234   6.558  11.707  0.8686  0.1729  0.2565
  197MOL0     C27052   7.110   6.501  11.724 -0.2977  0.8594 -0.5522
  197MOL0     C27053   7.008   6.495  11.631 -0.6001  0.5076  0.0253
  197MOL0     C27054   6.890   6.436  11.661 -0.2161  0.0716  0.5540
  197MOL0     C27055   6.869   6.391  11.790  0.2971 -0.8096  0.6838
  197MOL0     O27056   6.744   6.335  11.809  0.5397  0.2200 -0.4072
  197MOL0     C27057   6.659   6.422  11.890 -0.5669 -0.3834  0.0142
  197MOL0     C27058   6.510   6.386  11.860  1.0915  0.8643  0.6601
  197MOL0     C27059   6.390   6.445  11.936 -0.6224 -0.7147 -0.0030
  197MOL0     C27060   6.409   6.423  12.088 -0.5970  0.8652 -0.0153
  197MOL0     C27061   6.306   6.498  12.177  0.8844 -0.3387  0.4562
  197MOL0     C27062   6.160   6.477  12.133 -0.1859  0.4619 -0.6289
  197MOL0     C27063   6.062   6.562  12.219 -0.8653  0.0036 -0.2045
  197MOL0     C27064   6.076   6.712  12.215  0.1634 -0.2177 -0.4267
  197MOL0     N27065   6.072   6.763  12.075  0.0843 -0.9183  0.3478
  197MOL0     C27066   5.961   6.801  12.000  0.6481  0.5829  0.2144
  197MOL0     C27067   6.022   6.842  11.880 -0.3992 -0.5643  0.6459
  197MOL0     C27068   5.972   6.911  11.766 -0.4986  0.4696  0.7052
  197MOL0     C27069   5.918   7.052  11.804 -0.0105 -0.2008  0.3381
  197MOL0     C27070   6.018   7.125  11.893 -0.8928 -0.5857 -0.0929
  197MOL0     C27071   5.943   7.251  11.954 -1.4396 -0.7689 -1.0601
  197MOL0     O27072   5.854   7.223  12.052  0.5167  0.3877 -0.6467
  197MOL0     C27073   5.760   7.311  12.102  0.3381 -0.4630 -0.4749
  197MOL0     C27074   5.776   7.448  12.123  0.3294 -0.0415  0.2263
  197MOL0     C27075   5.686   7.531  12.184  0.2443 -0.4775  0.5479
  197MOL0     C27076   5.718   7.682  12.196 -0.3466  0.7295 -0.1734
  197MOL0     C27077   5.568   7.468  12.232  0.3575 -0.6032  0.6066
  197MOL0     C27078   5.471   7.538  12.321 -0.3810  0.2334 -0.2328
  197MOL0     O27079   5.421   7.469  12.428  0.4043 -0.4314  0.1700
  197MOL0     C27080   5.297   7.487  12.477  0.4499  0.2400 -0.5441
  197MOL0     C27081   5.220   7.605  12.481  0.5129 -0.6558 -0.8949
  197MOL0     C27082   5.096   7.613  12.546 -0.4400  0.3202 -0.7066
  197MOL0     C27083   5.046   7.508  12.621 -0.6931 -0.5562  0.8249
  197MOL0     O27084   4.939   7.508  12.700  0.9351  0.0430 -0.2520
  197MOL0     C27085   4.824   7.586  12.660  0.5800 -0.5471  0.3882
  197MOL0     C27086   4.761   7.509  12.540  0.0642 -0.2888  0.5199
  197MOL0     C27087   4.633   7.569  12.486 -0.7432 -0.1634 -0.3692
  197MOL0     C27088   4.517   7.518  12.561 -0.4135 -1.0770 -1.0934
  197MOL0     C27089   4.375   7.545  12.510  0.6919  0.2114 -0.1829
  197MOL0     C27090   4.328   7.673  12.569 -1.0263 -0.0405  1.4121
  197MOL0     C27091   4.188   7.712  12.520  0.1915 -0.3178 -0.4051
  197MOL0     C27092   4.136   7.851  12.564 -0.1800 -0.0250 -0.6176
  197MOL0    Cl27093   4.258   7.978  12.530  0.0713 -0.2385  0.6056
  197MOL0     C27094   5.118   7.389  12.613 -0.5627 -0.4922 -0.1186
  197MOL0     C27095   5.246   7.381  12.545  0.5313  0.0222 -0.4811
  197MOL0     O27096   5.428   7.645  12.280 -0.5895  0.6840  0.4884
  197MOL0     C27097   5.548   7.338  12.211  0.2012  0.2949  0.8410
  197MOL0     C27098   5.647   7.256  12.151  1.0201 -0.0149 -0.1460
  197MOL0     N27099   6.160   6.824  11.888 -0.0879  0.3667  0.1858
  197MOL0     N27100   6.192   6.783  12.005  0.3530 -0.2477  0.1087
  197MOL0     C27101   6.962   6.399  11.886  0.0323 -0.0278 -0.2837
  197MOL0     C27102   7.090   6.451  11.852  0.1618  0.4495 -1.0720
  197MOL0     C27103   7.395   6.648  11.561 -0.0315  0.5400  0.0153
  197MOL0     C27104   7.466   6.532  11.569 -0.4030  0.0570 -0.7130
  197MOL0     C27105   7.601   6.508  11.537  0.4519  0.1872 -0.8828
  197MOL0     C27106   7.662   6.603  11.463 -0.3376 -0.1436 -0.3439
  197MOL0     O27107   7.772   6.555  11.402  0.3059  0.1783  0.3383
  197MOL0     C27108   7.858   6.642  11.340  0.4080  0.3818 -0.0956
  197MOL0     C27109   7.942   6.713  11.446  1.0479  0.6141 -0.2294
  197MOL0     C27110   8.071   6.777  11.392 -0.5984 -0.6294  0.0651
  197MOL0     C27111   8.145   6.853  11.507 -0.1814  0.2414  0.5712
  197MOL0     C27112   8.191   6.752  11.602  0.7100  0.1181  0.5693
  197MOL0     C27113   8.209   6.666  11.682 -0.5120 -0.4369  0.4512
  197MOL0     C27114   7.593   6.721  11.433  0.5684  0.7656  0.6380
  197MOL0     C27115   7.471   6.753  11.505 -0.2304  0.0475  0.8352
  197MOL0     C27116   7.426   6.889  11.513  0.6545 -0.0487 -0.4144
  197MOL0     H27117   7.037   6.524  11.530  3.1552 -3.7119 -0.4407
  197MOL0     H27118   6.820   6.405  11.584  0.6263 -1.5542  0.3925
  197MOL0     H27119   6.679   6.527  11.865 -0.7231 -0.2915  0.2684
  197MOL0     H27120   6.682   6.417  11.997  2.4294 -2.2464 -0.6151
  197MOL0     H27121   6.483   6.408  11.757 -3.8468  0.5089  1.6023
  197MOL0     H27122   6.490   6.280  11.880 -0.8185  1.0556  0.0265
  197MOL0     H27123   6.387   6.553  11.921 -1.0314 -0.9620 -1.9854
  197MOL0     H27124   6.298   6.396  11.905 -0.4789  0.0315 -1.7226
  197MOL0     H27125   6.387   6.316  12.096  0.4887  0.3247 -2.9160
  197MOL0     H27126   6.513   6.443  12.116  0.3170 -4.3951  1.5373
  197MOL0     H27127   6.337   6.601  12.160 -1.6682  0.2650 -1.0459
  197MOL0     H27128   6.313   6.476  12.284  2.1365 -4.1037 -0.2563
  197MOL0     H27129   6.159   6.511  12.029  0.0790 -1.4746 -1.3035
  197MOL0     H27130   6.138   6.370  12.126  2.0829  0.0472 -3.1967
  197MOL0     H27131   6.081   6.535  12.323  2.6761  0.6805 -0.5449
  197MOL0     H27132   5.959   6.543  12.189 -1.1956  3.4797 -1.8601
  197MOL0     H27133   5.995   6.764  12.267  1.2199  3.1123 -1.8088
  197MOL0     H27134   6.171   6.740  12.262  0.6427 -0.0818 -1.4466
  197MOL0     H27135   5.857   6.810  12.031 -0.7729 -2.7408 -2.8827
  197MOL0     H27136   5.894   6.849  11.721 -0.8795  1.2172  0.3234
  197MOL0     H27137   6.053   6.925  11.693 -0.3467 -2.1518  0.2851
  197MOL0     H27138   5.904   7.109  11.712  1.6399 -0.5371 -0.1498
  197MOL0     H27139   5.823   7.031  11.855  0.5247 -0.5899  1.1954
  197MOL0     H27140   6.074   7.072  11.971 -1.6653  1.2844  1.8406
  197MOL0     H27141   6.099   7.143  11.821 -3.9325  0.2346 -3.6588
  197MOL0     H27142   6.011   7.326  11.997 -4.5774  0.9141  1.3858
  197MOL0     H27143   5.890   7.315  11.882  0.2568  3.9163  1.4061
  197MOL0     H27144   5.858   7.498  12.071 -0.5831  0.5508 -0.6818
  197MOL0     H27145   5.823   7.704  12.214  0.6221 -2.2511 -1.5950
  197MOL0     H27146   5.658   7.725  12.276 -0.0502  0.3472  0.2580
  197MOL0     H27147   5.684   7.734  12.105 -1.6280  2.0790  1.0246
  197MOL0     H27148   5.243   7.695  12.425  0.9052  1.7287  2.8122
  197MOL0     H27149   5.036   7.703  12.542  1.3186  1.5525 -0.1573
  197MOL0     H27150   4.749   7.589  12.739 -1.4145 -2.4125 -1.3028
  197MOL0     H27151   4.855   7.688  12.633  0.8827  0.1503  3.1204
  197MOL0     H27152   4.838   7.516  12.464  0.1498  5.8538  0.6892
  197MOL0     H27153   4.738   7.408  12.575 -1.1351  0.3502  1.6913
  197MOL0     H27154   4.614   7.542  12.382  1.2698 -1.4970 -0.4312
  197MOL0     H27155   4.626   7.678  12.489 -3.9285 -0.2832  0.4325
  197MOL0     H27156   4.523   7.558  12.663 -2.2120  5.2802 -3.0487
  197MOL0     H27157   4.531   7.410  12.553  4.6243 -0.6323 -1.1734
  197MOL0     H27158   4.397   7.561  12.404 -2.2808 -1.5520 -1.1718
  197MOL0     H27159   4.307   7.463  12.536  0.1631  1.4083  2.5495
  197MOL0     H27160   4.407   7.746  12.550 -0.1508 -1.6758 -1.8413
  197MOL0     H27161   4.319   7.653  12.677  2.0484  1.0555  1.9664
  197MOL0     H27162   4.112   7.639  12.549 -0.8313  0.4308 -1.1237
  197MOL0     H27163   4.200   7.711  12.411  2.7897 -0.0076 -0.1849
  197MOL0     H27164   4.114   7.851  12.672  1.5163 -0.1032 -0.2413
  197MOL0     H27165   4.045   7.882  12.512  1.2653  3.0096 -1.5348
  197MOL0     H27166   5.089   7.305  12.675  1.7654 -1.3294 -0.0696
  197MOL0     H27167   5.299   7.286  12.551 -1.4824 -1.2886 -2.0070
  197MOL0     H27168   5.456   7.288  12.241  1.5362 -0.3200  4.3460
  197MOL0     H27169   5.628   7.152  12.127 -0.9534  0.8714 -3.0050
  197MOL0     H27170   6.933   6.368  11.986 -1.4360  1.8095 -0.0893
  197MOL0     H27171   7.152   6.467  11.940 -1.0015  0.5304 -0.2422
  197MOL0     H27172   7.420   6.440  11.603 -1.0979  0.1135 -1.4868
  197MOL0     H27173   7.646   6.418  11.579 -2.1025 -1.0213 -0.5668
  197MOL0     H27174   7.924   6.576  11.283  0.3250 -0.4715  0.7690
  197MOL0     H27175   7.813   6.721  11.280  0.2696  1.7646  1.7134
  197MOL0     H27176   7.959   6.662  11.542 -1.4123  1.4919  0.7594
  197MOL0     H27177   7.878   6.793  11.484  0.5656 -0.9663  2.6374
  197MOL0     H27178   8.138   6.708  11.342 -0.8598  0.7243 -2.2832
  197MOL0     H27179   8.036   6.846  11.314 -0.6502 -0.6232  0.0940
  197MOL0     H27180   8.071   6.924  11.544 -0.6171  2.4344 -3.8370
  197MOL0     H27181   8.227   6.910  11.463  0.4034 -2.6357 -2.5024
  197MOL0     H27182   8.226   6.594  11.759 -0.0907 -0.4588  0.3395
  197MOL0     H27183   7.636   6.806  11.380 -0.5290  0.6808 -0.4315
  197MOL0     H27184   7.327   6.911  11.472  0.7805  4.1968  1.0852
  197MOL0     H27185   7.430   6.922  11.617  0.7155  1.1725 -0.7919
  197MOL0     H27186   7.493   6.958  11.461 -0.0468 -0.6971 -2.2735
  198MOL0     O27187   9.716   3.236   2.877  0.3809 -0.9647  0.2690
  198MOL0     C27188   9.633   3.299   2.939 -0.6903  0.7707  0.4456
  198MOL0     O27189   9.656   3.413   3.016  0.5006 -0.2004 -0.1468
  198MOL0     C27190   9.778   3.433   3.058 -0.1153 -1.2037 -1.8884
  198MOL0     C27191   9.862   3.524   2.991 -0.1837  0.2962 -0.3262
  198MOL0     C27192   9.981   3.555   3.046 -0.5081 -0.6479 -1.1076
  198MOL0     C27193  10.029   3.496   3.164  0.6740 -0.3537  0.9653
  198MOL0     O27194  10.155   3.519   3.207 -0.3734 -0.2125  0.4597
  198MOL0     C27195  10.260   3.499   3.110 -0.3403  0.1530  0.5465
  198MOL0     C27196  10.393   3.485   3.183 -0.4346 -0.0368  0.8474
  198MOL0     C27197  10.421   3.600   3.278 -0.1351  0.2759  0.2523
  198MOL0     C27198  10.575   3.638   3.281 -0.3179  0.3579  0.6148
  198MOL0     C27199  10.618   3.726   3.409 -0.5891 -0.8653 -0.0169
  198MOL0     C27200  10.767   3.781   3.395  0.6220  0.6986 -0.6879
  198MOL0     C27201  10.803   3.888   3.495 -0.0093  0.0873  0.0563
  198MOL0     C27202  10.954   3.930   3.499  0.5497 -0.2993 -0.3333
  198MOL0     N27203  10.982   4.032   3.390  0.3145 -0.4144 -0.4689
  198MOL0     C27204  11.017   4.164   3.406 -0.8760  0.8560 -0.0879
  198MOL0     C27205  11.020   4.218   3.285  0.7078  0.3643 -0.2208
  198MOL0     C27206  11.061   4.351   3.256 -1.0360 -0.0170  0.3733
  198MOL0     C27207  11.034   4.413   3.120  0.5290 -0.1776 -0.7141
  198MOL0     C27208  11.119   4.545   3.108 -0.2802 -0.0127  0.0800
  198MOL0     C27209  11.077   4.660   3.211 -1.2970 -0.5524 -1.4158
  198MOL0     O27210  11.095   4.632   3.354 -0.2627  0.1949  0.4558
  198MOL0     C27211  11.214   4.667   3.410 -1.2097 -0.7299 -0.2206
  198MOL0     C27212  11.333   4.713   3.349 -0.0290  0.4183 -0.0119
  198MOL0     C27213  11.455   4.725   3.419 -0.3480  0.5880 -0.4549
  198MOL0     C27214  11.575   4.763   3.328  0.0207  0.7142 -0.1453
  198MOL0     C27215  11.466   4.705   3.560  0.2030 -0.0059 -0.4992
  198MOL0     C27216  11.588   4.716   3.648 -0.1096  0.3354  0.1059
  198MOL0     O27217  11.562   4.700   3.784  0.1262 -0.6766  0.1106
  198MOL0     C27218  11.667   4.700   3.870  1.1242 -0.2332  0.1300
  198MOL0     C27219  11.783   4.619   3.866  1.0738 -0.3520 -0.5555
  198MOL0     C27220  11.885   4.644   3.955 -0.5660  0.7754  0.3326
  198MOL0     C27221  11.871   4.728   4.067  1.3677 -0.5284 -0.1566
  198MOL0     O27222  11.965   4.770   4.159  0.7509  0.0737 -0.5369
  198MOL0     C27223  12.074   4.683   4.183 -0.7676 -0.1694  0.2784
  198MOL0     C27224  12.026   4.572   4.278 -0.6231  0.6416 -0.2402
  198MOL0     C27225  12.069   4.427   4.250  0.5202 -0.2397 -0.0655
  198MOL0     C27226  12.217   4.403   4.221 -1.5109 -1.0226  1.0093
  198MOL0     C27227  12.251   4.264   4.186 -0.2318  0.1135  0.2522
  198MOL0     C27228  12.236   4.226   4.037  0.1288 -0.4207  0.1157
  198MOL0     C27229  12.268   4.079   4.011 -1.1298 -0.6149 -0.8036
  198MOL0     C27230  12.270   4.035   3.863 -0.7191 -0.3915 -0.1042
  198MOL0    Cl27231  12.300   3.855   3.852  0.5291  0.2845 -0.1800
  198MOL0     C27232  11.747   4.796   4.074  0.2121 -0.2470 -0.2293
  198MOL0     C27233  11.649   4.780   3.980 -0.0440 -0.6509 -0.3702
  198MOL0     O27234  11.699   4.735   3.597  0.0891 -0.2075 -0.2025
  198MOL0     C27235  11.342   4.667   3.625 -0.2220 -0.3533  0.5223
  198MOL0     C27236  11.223   4.645   3.547  0.4554  0.2335 -0.7260
  198MOL0     N27237  10.990   4.118   3.198 -0.3470 -0.4064 -0.1295
  198MOL0     N27238  10.964   4.015   3.261 -0.0945  0.7114  0.3175
  198MOL0     C27239   9.947   3.416   3.238 -0.5750  0.7796 -0.1749
  198MOL0     C27240   9.825   3.380   3.185  0.6107 -0.7112  0.1628
  198MOL0     C27241   9.496   3.257   2.923  0.5764 -0.0124  0.5121
  198MOL0     C27242   9.444   3.136   2.963  0.6741 -0.5695 -0.0062
  198MOL0     C27243   9.325   3.087   2.920  0.6902  0.2574 -0.7182
  198MOL0     C27244   9.259   3.158   2.814 -0.2686 -0.7339 -0.5501
  198MOL0     O27245   9.132   3.121   2.773 -0.4875 -0.2349  0.8812
  198MOL0     C27246   9.024   3.216   2.774  0.3760 -0.2993 -0.2405
  198MOL0     C27247   8.906   3.164   2.852  0.3481 -0.2582  0.4632
  198MOL0     C27248   8.940   3.116   2.990  0.7159  0.0712 -0.2811
  198MOL0     C27249   8.973   2.969   3.019  0.2156  0.3110 -0.3378
  198MOL0     C27250   8.852   2.888   2.996  0.1239  0.0012 -0.2893
  198MOL0     C27251   8.751   2.834   2.955  1.1157 -0.2341 -0.7033
  198MOL0     C27252   9.308   3.276   2.770  0.4354 -0.4079  0.2857
  198MOL0     C27253   9.430   3.331   2.818  0.0733 -1.0045  0.8787
  198MOL0     C27254   9.477   3.461   2.749  0.6646 -0.0889  0.4322
  198MOL0     H27255   9.836   3.564   2.894  2.1520  0.9249 -0.7781
  198MOL0     H27256  10.030   3.636   2.993 -0.0708 -0.9965 -1.2380
  198MOL0     H27257  10.267   3.585   3.043  3.8283 -0.6496 -0.2847
  198MOL0     H27258  10.227   3.409   3.058  0.5956 -1.4602  2.5613
  198MOL0     H27259  10.401   3.394   3.244  1.2649 -0.9195 -0.6020
  198MOL0     H27260  10.475   3.466   3.114 -1.4661  3.0393 -1.4200
  198MOL0     H27261  10.369   3.693   3.252 -0.6637  0.3307  1.4277
  198MOL0     H27262  10.382   3.576   3.377  2.6608  1.9949  1.9052
  198MOL0     H27263  10.624   3.541   3.285 -1.4606 -0.2696  0.0435
  198MOL0     H27264  10.590   3.688   3.185 -1.4172  0.3620  0.4279
  198MOL0     H27265  10.608   3.662   3.497 -2.5747 -0.6239 -0.0282
  198MOL0     H27266  10.546   3.807   3.420 -0.1363 -0.5964  1.0976
  198MOL0     H27267  10.828   3.692   3.413 -3.0870 -2.1532 -0.9873
  198MOL0     H27268  10.786   3.811   3.292 -2.9870 -2.9680 -2.7175
  198MOL0     H27269  10.764   3.855   3.592  0.2648  2.0988  0.8991
  198MOL0     H27270  10.756   3.983   3.469  1.9597  0.9922 -0.3690
  198MOL0     H27271  10.968   3.983   3.593  2.8812  2.3616 -2.0231
  198MOL0     H27272  11.019   3.843   3.499  1.5101  0.4053  0.1980
  198MOL0     H27273  11.037   4.221   3.497 -2.8672  3.5859 -1.2111
  198MOL0     H27274  11.167   4.355   3.280 -0.3476  0.0539 -2.3430
  198MOL0     H27275  11.003   4.408   3.329 -3.5677 -2.3179  0.3562
  198MOL0     H27276  11.039   4.349   3.031 -4.7031 -0.2938 -1.2344
  198MOL0     H27277  10.929   4.441   3.116  0.9482  1.8699  0.9705
  198MOL0     H27278  11.227   4.526   3.115 -0.3522 -0.0218  1.6457
  198MOL0     H27279  11.097   4.583   3.008  0.2994  1.2389  0.4138
  198MOL0     H27280  11.117   4.759   3.190  0.3768 -1.0037 -0.5187
  198MOL0     H27281  10.968   4.667   3.213 -1.4459 -1.7481  1.9359
  198MOL0     H27282  11.334   4.740   3.244  0.5224  3.4929  0.6583
  198MOL0     H27283  11.576   4.872   3.330  1.1304  0.7145 -0.3218
  198MOL0     H27284  11.564   4.733   3.223  2.3977  1.7658 -0.7414
  198MOL0     H27285  11.670   4.719   3.358  1.8451  4.2999 -0.1511
  198MOL0     H27286  11.800   4.537   3.797  3.3197 -0.0712 -0.3844
  198MOL0     H27287  11.980   4.593   3.939  1.4121  3.8733  1.1793
  198MOL0     H27288  12.114   4.642   4.090 -0.4108  0.1119  0.3076
  198MOL0     H27289  12.163   4.731   4.224 -2.3874  1.9901  1.4798
  198MOL0     H27290  12.076   4.605   4.370 -0.2107  1.9965 -0.9266
  198MOL0     H27291  11.921   4.578   4.309 -0.4429 -1.3286  0.9262
  198MOL0     H27292  12.025   4.406   4.152 -0.4403  1.1865  0.0338
  198MOL0     H27293  12.051   4.359   4.334  1.7066  0.8963  1.1420
  198MOL0     H27294  12.278   4.437   4.305 -0.5988  1.2557 -0.4541
  198MOL0     H27295  12.255   4.464   4.138  1.4098 -2.5765  1.0987
  198MOL0     H27296  12.352   4.233   4.215  0.7841  1.5069 -1.6245
  198MOL0     H27297  12.191   4.188   4.238  3.8609 -2.5153  1.5601
  198MOL0     H27298  12.295   4.282   3.965 -2.1170  0.2648 -1.3011
  198MOL0     H27299  12.130   4.236   4.010  0.4642  0.6133 -0.8769
  198MOL0     H27300  12.192   4.018   4.062  0.1376 -1.4731  0.1174
  198MOL0     H27301  12.368   4.056   4.047 -0.5419  2.2325 -0.4265
  198MOL0     H27302  12.347   4.086   3.805 -1.4778  0.7697 -0.1188
  198MOL0     H27303  12.182   4.068   3.807 -0.2900  0.2899 -0.3924
  198MOL0     H27304  11.720   4.873   4.146  0.8129  1.2284 -1.5472
  198MOL0     H27305  11.565   4.847   3.989  0.7063  0.1103  1.2126
  198MOL0     H27306  11.346   4.634   3.728  1.3323  2.9673  1.6978
  198MOL0     H27307  11.134   4.607   3.596  1.5646 -1.5453 -0.0007
  198MOL0     H27308   9.977   3.379   3.336 -0.5145  0.5346 -0.2856
  198MOL0     H27309   9.760   3.307   3.233  3.9478 -3.4979  0.8147
  198MOL0     H27310   9.506   3.067   3.018 -0.0671 -1.1352  0.1266
  198MOL0     H27311   9.287   2.986   2.935 -0.8898  0.9555  0.2616
  198MOL0     H27312   9.048   3.307   2.830 -0.8078  0.0437 -0.2644
  198MOL0     H27313   8.997   3.251   2.674 -1.3927 -0.7686  0.0431
  198MOL0     H27314   8.846   3.101   2.784 -1.1913  4.8460 -3.6082
  198MOL0     H27315   8.843   3.251   2.873 -1.3348 -1.5834  1.1573
  198MOL0     H27316   9.028   3.168   3.028 -0.3190  0.8062  1.2229
  198MOL0     H27317   8.860   3.150   3.057  0.8210 -1.6742  0.7901
  198MOL0     H27318   9.005   2.957   3.123 -2.2426  0.0505  0.4478
  198MOL0     H27319   9.046   2.927   2.950  1.8850  0.8849  1.0179
  198MOL0     H27320   8.678   2.791   2.889 -0.3512  3.8314 -2.0257
  198MOL0     H27321   9.251   3.323   2.690 -0.3544  0.9836  1.6052
  198MOL0     H27322   9.502   3.538   2.822  0.1636 -1.6984  2.4185
  198MOL0     H27323   9.567   3.447   2.689  1.6279  2.7673  1.0632
  198MOL0     H27324   9.391   3.503   2.697  0.6563 -1.9483 -1.1751
  199MOL0     O27325   3.018   1.295  11.326  0.2351 -0.5132  0.2007
  199MOL0     C27326   3.013   1.416  11.357  0.6113  1.5842 -0.6304
  199MOL0     O27327   3.006   1.526  11.273 -0.2666  0.1846 -0.4782
  199MOL0     C27328   2.948   1.519  11.150  0.2051 -0.5773  0.5990
  199MOL0     C27329   2.960   1.418  11.055  0.2932 -0.4591 -0.0547
  199MOL0     C27330   2.895   1.425  10.935 -0.3687 -0.3533  0.7314
  199MOL0     C27331   2.815   1.537  10.913 -0.0141  0.0889 -0.9356
  199MOL0     O27332   2.763   1.565  10.796  0.8024  0.0923  0.1398
  199MOL0     C27333   2.618   1.578  10.799 -1.0319  0.7449 -1.1538
  199MOL0     C27334   2.548   1.500  10.686 -0.0985 -0.3576 -0.3094
  199MOL0     C27335   2.617   1.373  10.648  0.9888 -0.4781 -0.8576
  199MOL0     C27336   2.560   1.295  10.529 -0.5109 -0.3915 -0.1251
  199MOL0     C27337   2.654   1.184  10.477  0.0950 -0.1297  0.8767
  199MOL0     C27338   2.602   1.132  10.347  0.4032 -0.0397 -0.5254
  199MOL0     C27339   2.630   0.983  10.324  0.5235  0.0527  0.4599
  199MOL0     C27340   2.781   0.945  10.301 -0.1020  0.0695  0.2194
  199MOL0     N27341   2.858   1.005  10.188  0.0972  1.1450  0.1334
  199MOL0     C27342   2.924   1.128  10.192 -0.1334  0.2775  0.4914
  199MOL0     C27343   2.954   1.157  10.063  0.4712 -0.3738 -0.5214
  199MOL0     C27344   3.038   1.286  10.049  0.3185  0.1631 -0.9172
  199MOL0     C27345   2.948   1.373   9.963  0.0440 -0.0108  0.4495
  199MOL0     C27346   2.986   1.516   9.944 -1.2040  0.5704  0.0210
  199MOL0     C27347   3.139   1.538   9.938  0.1268  0.4782  0.5244
  199MOL0     O27348   3.170   1.672   9.905  0.0796  0.0671  0.3715
  199MOL0     C27349   3.304   1.697   9.904  0.0907  0.3326  0.3820
  199MOL0     C27350   3.339   1.834   9.894  0.1844  1.2652 -0.6184
  199MOL0     C27351   3.471   1.874   9.866  1.0854 -0.4428 -0.1746
  199MOL0     C27352   3.488   2.021   9.868 -0.0056  0.2547 -0.0107
  199MOL0     C27353   3.562   1.776   9.843  0.0949 -0.2442 -0.0119
  199MOL0     C27354   3.707   1.795   9.802  0.5160  0.1748  0.1275
  199MOL0     O27355   3.763   1.682   9.783  0.5161  0.1149 -0.3052
  199MOL0     C27356   3.892   1.689   9.735 -0.3716 -0.2042  1.2522
  199MOL0     C27357   3.919   1.612   9.621 -0.6114 -0.4466 -1.3439
  199MOL0     C27358   4.042   1.602   9.565  0.0837  0.9281 -0.2275
  199MOL0     C27359   4.153   1.672   9.624 -0.7867  1.5873  0.2091
  199MOL0     O27360   4.282   1.675   9.564 -0.4093  0.1746 -0.0504
  199MOL0     C27361   4.295   1.670   9.422  0.0196 -0.9517  0.0922
  199MOL0     C27362   4.442   1.681   9.382 -0.8655  0.5724 -0.0589
  199MOL0     C27363   4.544   1.563   9.417 -0.8765  1.3379  1.1257
  199MOL0     C27364   4.685   1.589   9.355 -1.2938  0.7403 -0.7940
  199MOL0     C27365   4.796   1.506   9.426 -0.1189 -0.1049 -1.0961
  199MOL0     C27366   4.777   1.351   9.439 -0.3882 -0.0202  0.3907
  199MOL0     C27367   4.739   1.279   9.297  0.1897 -0.3659  1.0388
  199MOL0     C27368   4.852   1.198   9.254  0.0071 -0.0192  0.9368
  199MOL0    Cl27369   4.971   1.337   9.217 -0.0769  0.0224  0.7065
  199MOL0     C27370   4.137   1.747   9.738 -0.3005  1.1634 -0.5064
  199MOL0     C27371   4.003   1.761   9.786  0.5972  0.3969 -0.2380
  199MOL0     O27372   3.757   1.903   9.770 -0.2549  0.0582  0.1801
  199MOL0     C27373   3.518   1.642   9.851 -0.8087  0.3485  1.0877
  199MOL0     C27374   3.395   1.601   9.884 -0.6998 -0.5437 -0.4529
  199MOL0     N27375   2.897   1.064   9.973  0.8172 -0.4794 -0.9906
  199MOL0     N27376   2.837   0.979  10.056  0.7813  0.0492 -0.0058
  199MOL0     C27377   2.809   1.644  11.007  0.4763  0.6536  0.8593
  199MOL0     C27378   2.874   1.634  11.116 -0.2787  0.1217 -0.6512
  199MOL0     C27379   3.033   1.447  11.506 -0.6845 -0.4228 -0.5638
  199MOL0     C27380   3.103   1.573  11.534 -0.0656  0.5733 -0.8378
  199MOL0     C27381   3.145   1.596  11.664 -0.4567 -1.1285  0.2089
  199MOL0     C27382   3.130   1.510  11.767 -0.4310  0.1574  0.4688
  199MOL0     O27383   3.163   1.542  11.899 -0.0974 -0.2895  0.1548
  199MOL0     C27384   3.281   1.628  11.913 -0.6705 -0.0155 -1.4502
  199MOL0     C27385   3.353   1.612  12.052 -0.8132 -0.1960 -0.5048
  199MOL0     C27386   3.473   1.518  12.064 -0.2536 -0.1461  0.1280
  199MOL0     C27387   3.532   1.517  12.200 -0.2150  0.1741 -0.7374
  199MOL0     C27388   3.622   1.637  12.228  0.3409  0.2523 -0.5593
  199MOL0     C27389   3.716   1.711  12.231  0.0792  0.3378  0.1245
  199MOL0     C27390   3.061   1.389  11.741 -0.1022 -0.4283 -0.0483
  199MOL0     C27391   3.013   1.356  11.609 -0.6200  0.6859 -0.4301
  199MOL0     C27392   2.965   1.214  11.595  0.5412  0.2759 -0.3621
  199MOL0     H27393   3.022   1.329  11.061 -2.7762 -3.1477 -3.5324
  199MOL0     H27394   2.904   1.365  10.845  0.4071  3.3580 -1.8907
  199MOL0     H27395   2.605   1.687  10.794  1.6506  1.5462  3.6109
  199MOL0     H27396   2.570   1.549  10.893  0.7569  0.4063 -0.3203
  199MOL0     H27397   2.446   1.470  10.712 -0.7882  3.3017  2.0458
  199MOL0     H27398   2.538   1.569  10.601 -1.1506 -0.2503 -0.1100
  199MOL0     H27399   2.724   1.392  10.630  1.1213  0.7585  0.9584
  199MOL0     H27400   2.614   1.303  10.732 -0.7219 -0.0283 -0.5002
  199MOL0     H27401   2.470   1.240  10.560  0.7301 -1.8629  1.0551
  199MOL0     H27402   2.519   1.361  10.453 -0.4011 -2.0433 -1.6879
  199MOL0     H27403   2.651   1.101  10.548 -0.0618 -1.3507 -0.5161
  199MOL0     H27404   2.756   1.221  10.464  0.2656 -1.3156 -1.7715
  199MOL0     H27405   2.493   1.136  10.342  0.3382  2.8503  1.1173
  199MOL0     H27406   2.644   1.183  10.259  1.1028  3.0099  1.4475
  199MOL0     H27407   2.583   0.962  10.227  3.0407 -1.0129 -0.6256
  199MOL0     H27408   2.583   0.922  10.402 -0.3259  1.0369  0.7464
  199MOL0     H27409   2.846   0.980  10.381  0.4770 -1.0657  0.2662
  199MOL0     H27410   2.787   0.836  10.291  2.2914  0.3240 -1.8397
  199MOL0     H27411   2.961   1.194  10.270  1.0385  1.5537 -1.0585
  199MOL0     H27412   3.138   1.270  10.009  0.2318  0.4611 -1.2574
  199MOL0     H27413   3.055   1.339  10.143 -2.8004 -0.8997  0.4037
  199MOL0     H27414   2.964   1.322   9.868  4.9418  3.4633 -0.9614
  199MOL0     H27415   2.840   1.361   9.978 -0.3514  0.9473 -1.3083
  199MOL0     H27416   2.944   1.552   9.849  2.8962 -0.6792 -2.5312
  199MOL0     H27417   2.960   1.585  10.025  2.6357  2.2572  0.0506
  199MOL0     H27418   3.180   1.496  10.031 -0.2628  0.5250  0.7208
  199MOL0     H27419   3.170   1.474   9.855  0.7377 -0.1306  1.2025
  199MOL0     H27420   3.267   1.913   9.915 -0.6390 -0.2912  3.1964
  199MOL0     H27421   3.545   2.056   9.781  3.4524 -3.2806  0.5344
  199MOL0     H27422   3.560   2.044   9.947 -1.2086  2.8019  0.4480
  199MOL0     H27423   3.392   2.073   9.878 -0.1721 -0.2130  0.8837
  199MOL0     H27424   3.833   1.553   9.591 -0.8913 -0.7429 -0.0258
  199MOL0     H27425   4.072   1.540   9.480  4.0654  1.6736  0.4156
  199MOL0     H27426   4.238   1.586   9.381 -2.8792  0.8415  0.2146
  199MOL0     H27427   4.239   1.757   9.385 -0.2727 -1.6512 -1.1896
  199MOL0     H27428   4.446   1.687   9.273 -2.8466 -2.3947 -0.3961
  199MOL0     H27429   4.472   1.766   9.445 -4.9237  2.5345 -0.4665
  199MOL0     H27430   4.514   1.469   9.370  4.0587  0.2931 -0.5841
  199MOL0     H27431   4.560   1.546   9.524 -1.5367 -1.9244  0.8155
  199MOL0     H27432   4.709   1.696   9.358 -1.2728  0.7492 -1.2696
  199MOL0     H27433   4.682   1.559   9.250 -0.7710 -2.0967 -0.0888
  199MOL0     H27434   4.900   1.524   9.396 -0.6624  1.8309 -1.9905
  199MOL0     H27435   4.781   1.528   9.532  3.9270 -0.7169 -0.2214
  199MOL0     H27436   4.686   1.340   9.500 -0.2741  2.2330  1.0538
  199MOL0     H27437   4.850   1.294   9.497  0.0155 -1.8408 -1.7610
  199MOL0     H27438   4.705   1.343   9.215  0.7381 -0.9056  0.3821
  199MOL0     H27439   4.649   1.217   9.312 -0.3589  0.6732  2.2569
  199MOL0     H27440   4.837   1.135   9.166  5.3725 -0.3435 -0.0964
  199MOL0     H27441   4.892   1.142   9.340 -2.6327 -0.5560  1.8895
  199MOL0     H27442   4.221   1.800   9.782 -0.0591  2.7086 -2.6500
  199MOL0     H27443   3.974   1.829   9.865 -0.6487 -0.5633  0.1734
  199MOL0     H27444   3.581   1.559   9.820 -0.4544  0.8660  0.3881
  199MOL0     H27445   3.389   1.493   9.871  1.6030 -0.8171  0.3543
  199MOL0     H27446   2.749   1.732  10.986 -1.3994 -0.8891 -0.7642
  199MOL0     H27447   2.866   1.706  11.197  3.2288 -0.5957  0.4820
  199MOL0     H27448   3.144   1.642  11.461  1.2231  1.0660  0.3028
  199MOL0     H27449   3.192   1.694  11.665 -2.8920  0.3534 -4.1496
  199MOL0     H27450   3.349   1.607  11.830  0.6770  1.6802 -0.8360
  199MOL0     H27451   3.237   1.729  11.913  0.8631  0.6914 -0.1258
  199MOL0     H27452   3.276   1.571  12.118 -1.3761 -2.8703 -2.6423
  199MOL0     H27453   3.394   1.708  12.084  2.4053 -1.1736 -1.3371
  199MOL0     H27454   3.439   1.418  12.036  2.9948 -2.1834  2.7224
  199MOL0     H27455   3.555   1.539  11.994  0.3338  0.4805  0.9864
  199MOL0     H27456   3.585   1.424  12.224 -2.0644 -0.9499 -0.8210
  199MOL0     H27457   3.452   1.515  12.274  1.4209 -0.5888  1.1131
  199MOL0     H27458   3.793   1.783  12.249  0.8229 -0.6394  0.9503
  199MOL0     H27459   3.024   1.324  11.820 -2.4114 -0.0034 -0.6968
  199MOL0     H27460   3.045   1.141  11.578  1.2248  0.0578  3.0315
  199MOL0     H27461   2.899   1.180  11.675  0.7268  1.8526  0.5094
  199MOL0     H27462   2.897   1.195  11.512 -0.6935  0.7808  0.5067
  200MOL0     O27463  11.102   7.825   5.799 -0.2845  0.0912  0.1767
  200MOL0     C27464  11.038   7.861   5.893  0.1723 -0.3752  0.4982
  200MOL0     O27465  11.079   7.931   6.003 -0.5421 -0.2890  0.3665
  200MOL0     C27466  11.211   7.941   6.023 -0.8052  0.5492  0.2656
  200MOL0     C27467  11.299   8.000   5.937  0.5130 -1.3234  1.0573
  200MOL0     C27468  11.428   8.003   5.951  0.5996 -0.1542 -0.5418
  200MOL0     C27469  11.478   7.950   6.067  0.1099  0.4972  0.6746
  200MOL0     O27470  11.609   7.945   6.098 -0.5705 -0.9269 -0.7996
  200MOL0     C27471  11.696   8.026   6.019 -0.3559  0.5474 -0.2598
  200MOL0     C27472  11.842   8.022   6.074 -0.1321 -1.2743  0.7975
  200MOL0     C27473  11.888   7.876   6.085  0.5682  0.3576 -0.1436
  200MOL0     C27474  12.026   7.847   6.138  0.3241 -0.1471  0.1564
  200MOL0     C27475  12.064   7.696   6.128  0.6621  0.7267 -0.9519
  200MOL0     C27476  11.955   7.603   6.172  0.2954 -0.2414  0.7548
  200MOL0     C27477  12.012   7.465   6.202  0.0056  0.1561 -0.7985
  200MOL0     C27478  11.912   7.386   6.276 -0.4958  0.3855 -0.6799
  200MOL0     N27479  11.957   7.244   6.291 -0.3725 -0.4099 -0.3252
  200MOL0     C27480  12.071   7.211   6.377  0.4770  0.3027  0.8083
  200MOL0     C27481  12.060   7.080   6.389  0.9795  0.3362 -0.9536
  200MOL0     C27482  12.143   7.002   6.476  0.2747  0.2033  0.5918
  200MOL0     C27483  12.192   6.877   6.395  0.3520  1.2352 -0.0298
  200MOL0     C27484  12.315   6.908   6.311  0.0782 -0.0396 -0.0973
  200MOL0     C27485  12.282   7.017   6.195 -0.7224 -0.7633 -0.2620
  200MOL0     O27486  12.394   7.055   6.118 -0.1478 -0.2974 -0.4637
  200MOL0     C27487  12.432   7.186   6.118 -1.0582  1.1416  0.8646
  200MOL0     C27488  12.568   7.227   6.144  0.8166  0.2889 -0.2719
  200MOL0     C27489  12.614   7.358   6.145  1.3113  0.3253  0.1001
  200MOL0     C27490  12.758   7.371   6.190  0.3520 -0.6834 -0.2832
  200MOL0     C27491  12.534   7.458   6.090  1.0227  0.4045  0.7310
  200MOL0     C27492  12.573   7.593   6.033  0.5136 -0.4854 -0.4060
  200MOL0     O27493  12.657   7.672   6.107  0.2159  0.5408  0.0069
  200MOL0     C27494  12.690   7.800   6.077 -0.0460 -0.5011  0.3542
  200MOL0     C27495  12.666   7.907   6.165  0.4116 -0.2671 -0.0619
  200MOL0     C27496  12.726   8.029   6.148  0.3737  0.2499  0.4643
  200MOL0     C27497  12.817   8.049   6.047 -1.0113  0.3999  0.4499
  200MOL0     O27498  12.889   8.161   6.024  0.2561  0.0700 -0.3134
  200MOL0     C27499  12.884   8.268   6.122 -1.2182 -0.1805 -0.0906
  200MOL0     C27500  12.989   8.366   6.086 -0.6106 -0.1383 -0.4736
  200MOL0     C27501  12.986   8.503   6.156 -0.5840  0.2672  0.3364
  200MOL0     C27502  12.878   8.587   6.082  0.1817  0.8247 -0.1747
  200MOL0     C27503  12.885   8.731   6.132  0.1784 -0.9862 -0.4580
  200MOL0     C27504  12.824   8.837   6.032 -1.0238 -0.0009 -0.4528
  200MOL0     C27505  12.676   8.855   6.055 -0.0700  0.1878  0.0111
  200MOL0     C27506  12.646   8.995   6.100 -0.3539  0.2092 -0.9565
  200MOL0    Cl27507  12.720   9.005   6.263 -0.0848  0.6025 -0.1036
  200MOL0     C27508  12.855   7.943   5.962  0.6454  0.4505  0.2112
  200MOL0     C27509  12.795   7.811   5.980 -0.5053 -0.7977  0.0467
  200MOL0     O27510  12.528   7.626   5.926 -0.4294  0.2878  0.7188
  200MOL0     C27511  12.402   7.417   6.046 -0.4838  0.1479 -0.9299
  200MOL0     C27512  12.360   7.286   6.062  0.5930  0.8025 -0.0487
  200MOL0     N27513  11.965   7.032   6.294 -0.6644  0.4186  0.1826
  200MOL0     N27514  11.905   7.131   6.243  0.2850  0.0852  0.0125
  200MOL0     C27515  11.398   7.889   6.160  0.2557  0.1282  0.3482
  200MOL0     C27516  11.265   7.880   6.138  0.3464 -0.0447 -0.1163
  200MOL0     C27517  10.889   7.845   5.882 -0.3278  0.1695 -0.0044
  200MOL0     C27518  10.816   7.793   5.993 -0.6563 -0.1670 -0.3938
  200MOL0     C27519  10.688   7.776   5.998  0.2382 -0.5746  0.0126
  200MOL0     C27520  10.614   7.793   5.879  0.6528 -0.0726 -0.3664
  200MOL0     O27521  10.475   7.773   5.871  0.0000 -0.3841  0.2659
  200MOL0     C27522  10.404   7.712   5.985 -1.6157 -0.2640 -0.5999
  200MOL0     C27523  10.429   7.560   5.989 -0.3725 -0.9237  0.7409
  200MOL0     C27524  10.461   7.509   6.140  0.0173 -0.4741 -0.8199
  200MOL0     C27525  10.551   7.386   6.117 -0.8544 -0.2340  0.1288
  200MOL0     C27526  10.675   7.418   6.044 -0.4967  0.8772 -0.2023
  200MOL0     C27527  10.787   7.450   6.001 -0.7998 -0.7580 -0.5780
  200MOL0     C27528  10.679   7.842   5.764 -0.0674 -0.9639  0.3174
  200MOL0     C27529  10.813   7.865   5.762 -0.4208 -0.6393  0.3679
  200MOL0     C27530  10.872   7.922   5.640  0.7441 -0.8553  1.0589
  200MOL0     H27531  11.265   8.029   5.838 -0.3591  2.1227  2.1940
  200MOL0     H27532  11.473   8.026   5.855 -0.1152  1.3020 -0.5545
  200MOL0     H27533  11.664   8.130   6.026 -0.5476  0.3748  2.4670
  200MOL0     H27534  11.697   8.003   5.912  4.6557  2.1070 -0.8115
  200MOL0     H27535  11.909   8.082   6.013  2.7197 -2.1854  2.8207
  200MOL0     H27536  11.848   8.074   6.170  1.8991 -1.9408  1.0810
  200MOL0     H27537  11.820   7.838   6.162 -1.7566  4.6301  0.2356
  200MOL0     H27538  11.874   7.829   5.988 -1.9006  2.1537 -0.7577
  200MOL0     H27539  12.100   7.894   6.074  0.4284 -1.1038 -0.4491
  200MOL0     H27540  12.042   7.884   6.240  0.8185 -0.2909  0.1313
  200MOL0     H27541  12.145   7.678   6.200  1.8770  1.2819 -2.1274
  200MOL0     H27542  12.108   7.660   6.035  1.4756  1.4786 -0.8752
  200MOL0     H27543  11.924   7.657   6.262  3.8818  1.7414  0.9903
  200MOL0     H27544  11.872   7.603   6.100  0.6280 -1.7257  0.3465
  200MOL0     H27545  12.102   7.461   6.264  0.1546  0.4559 -0.9882
  200MOL0     H27546  12.036   7.408   6.111  0.7112  0.7455 -0.9980
  200MOL0     H27547  11.914   7.420   6.380 -2.7167 -1.8549  0.2050
  200MOL0     H27548  11.816   7.396   6.225 -0.6506 -1.5553 -0.8313
  200MOL0     H27549  12.135   7.273   6.438  1.5538  0.8228 -0.7927
  200MOL0     H27550  12.081   6.972   6.560  0.2166  4.2702  2.2260
  200MOL0     H27551  12.234   7.049   6.514 -0.6271  1.1080  1.7005
  200MOL0     H27552  12.219   6.788   6.452  2.6661  1.2834 -0.9749
  200MOL0     H27553  12.109   6.833   6.338  0.2959  1.7181 -0.3266
  200MOL0     H27554  12.388   6.953   6.378 -1.8844  0.9190  1.5157
  200MOL0     H27555  12.364   6.819   6.272  1.2820  1.7272 -2.9715
  200MOL0     H27556  12.205   6.973   6.131  1.1157 -1.9993 -1.7282
  200MOL0     H27557  12.236   7.108   6.233 -1.5500 -0.8314 -1.0661
  200MOL0     H27558  12.632   7.144   6.175 -0.4998 -0.6028  0.1442
  200MOL0     H27559  12.799   7.272   6.213  0.2814 -0.9265 -1.1768
  200MOL0     H27560  12.759   7.428   6.284 -1.4119  0.0163 -0.6420
  200MOL0     H27561  12.820   7.415   6.112  1.5822 -1.1727  0.3918
  200MOL0     H27562  12.589   7.893   6.241  0.9986 -1.8936  0.2702
  200MOL0     H27563  12.698   8.104   6.222  0.9683 -0.1651  1.1344
  200MOL0     H27564  12.787   8.317   6.126 -2.5950 -2.8470  2.0926
  200MOL0     H27565  12.902   8.236   6.225  1.1187  0.7680 -0.1301
  200MOL0     H27566  13.089   8.323   6.099  0.6087  2.6000 -0.0841
  200MOL0     H27567  12.984   8.384   5.979 -1.2332  0.8495 -0.2904
  200MOL0     H27568  13.087   8.545   6.150  0.1588 -1.5925 -0.7585
  200MOL0     H27569  12.961   8.506   6.262 -0.5386  0.6075  0.3396
  200MOL0     H27570  12.778   8.551   6.109  0.5141 -1.4492 -1.6754
  200MOL0     H27571  12.895   8.583   5.974  3.2434  1.5326  0.1853
  200MOL0     H27572  12.845   8.735   6.234 -2.5891 -2.0202 -1.4034
  200MOL0     H27573  12.990   8.760   6.141  0.1501  0.5541 -3.7516
  200MOL0     H27574  12.853   8.806   5.931 -2.2361  2.3757 -1.6042
  200MOL0     H27575  12.877   8.929   6.056  1.5637 -1.7171  0.9683
  200MOL0     H27576  12.643   8.779   6.126  6.3129 -2.9248  0.3686
  200MOL0     H27577  12.625   8.838   5.960  3.1869 -1.6388 -1.5761
  200MOL0     H27578  12.537   9.000   6.106 -0.5375 -2.7762 -0.4594
  200MOL0     H27579  12.681   9.076   6.036  2.8419 -0.9003 -0.7932
  200MOL0     H27580  12.949   7.960   5.910  0.9554  1.3483  1.0402
  200MOL0     H27581  12.832   7.725   5.926  0.5178  1.1873 -2.6494
  200MOL0     H27582  12.328   7.483   6.001 -0.6680 -0.4567 -1.5214
  200MOL0     H27583  12.254   7.268   6.048  0.6026 -0.4106  1.1932
  200MOL0     H27584  11.433   7.858   6.258 -2.9566  0.1460  1.6024
  200MOL0     H27585  11.191   7.844   6.209 -0.1183 -0.6498 -0.8970
  200MOL0     H27586  10.870   7.762   6.082 -0.2302  0.3862 -0.4494
  200MOL0     H27587  10.634   7.739   6.084 -2.1999  3.8934  0.7140
  200MOL0     H27588  10.426   7.751   6.084 -0.0969 -3.1368  0.3067
  200MOL0     H27589  10.299   7.738   5.970 -1.2843  1.0985 -0.6998
  200MOL0     H27590  10.503   7.534   5.912 -0.7909  0.6971 -0.2531
  200MOL0     H27591  10.337   7.519   5.945  1.5841 -0.8135 -4.0797
  200MOL0     H27592  10.525   7.574   6.199 -1.2401 -1.5565  1.8904
  200MOL0     H27593  10.377   7.478   6.204 -1.7222  2.7460 -1.3512
  200MOL0     H27594  10.508   7.308   6.053  5.1434 -3.6395 -0.4440
  200MOL0     H27595  10.571   7.358   6.220 -1.9084  0.3878  0.5238
  200MOL0     H27596  10.890   7.473   5.982 -1.3644  2.8048  0.0144
  200MOL0     H27597  10.623   7.857   5.672 -1.7247  1.2263  1.5687
  200MOL0     H27598  10.969   7.963   5.672 -0.3396  3.4680 -0.4446
  200MOL0     H27599  10.887   7.851   5.558  2.5116  0.4077  0.2147
  200MOL0     H27600  10.793   7.993   5.615  0.4278 -1.0374  1.5359
  201MOL0     O27601   3.046  10.330   7.701 -0.1282 -0.1657 -0.6526
  201MOL0     C27602   3.070  10.439   7.649 -0.0834 -0.2581 -0.2629
  201MOL0     O27603   2.977  10.515   7.584 -0.8179 -0.2015 -0.6170
  201MOL0     C27604   2.844  10.487   7.624  1.0106 -0.7963 -1.3858
  201MOL0     C27605   2.742  10.453   7.534  0.2068  0.9528 -0.2275
  201MOL0     C27606   2.612  10.446   7.582  0.1348  0.3651  0.3100
  201MOL0     C27607   2.576  10.492   7.704  0.3881  0.1101  0.7544
  201MOL0     O27608   2.442  10.500   7.726  0.0472  1.2525 -0.0668
  201MOL0     C27609   2.392  10.558   7.854  0.3902  0.0561  0.5066
  201MOL0     C27610   2.362  10.707   7.835  1.1928  0.8990  0.6252
  201MOL0     C27611   2.484  10.803   7.822 -0.2624  0.5085 -0.2310
  201MOL0     C27612   2.460  10.953   7.849  0.8133 -0.7532 -0.4686
  201MOL0     C27613   2.426  10.975   7.996 -0.4475 -0.6976  0.5930
  201MOL0     C27614   2.439  11.131   8.023 -0.5563 -0.7463 -0.4274
  201MOL0     C27615   2.584  11.178   8.037 -1.6290 -0.6387  0.5826
  201MOL0     C27616   2.658  11.143   8.169  0.3873  1.0599 -0.2589
  201MOL0     N27617   2.585  11.200   8.277  0.3394 -0.7462 -0.3247
  201MOL0     C27618   2.582  11.334   8.319  0.1419 -0.5781  0.1777
  201MOL0     C27619   2.531  11.333   8.444  0.7920 -0.0331 -0.6298
  201MOL0     C27620   2.528  11.454   8.537  0.3977 -0.0370 -0.1042
  201MOL0     C27621   2.389  11.513   8.528  0.1831  0.3744 -0.7642
  201MOL0     C27622   2.380  11.664   8.556 -0.2055 -0.5102  0.8016
  201MOL0     C27623   2.427  11.752   8.442  0.4182  0.1948  0.3591
  201MOL0     O27624   2.496  11.858   8.500  0.0871 -0.7872  0.2662
  201MOL0     C27625   2.551  11.961   8.422 -1.5211 -0.9544  0.7079
  201MOL0     C27626   2.650  12.040   8.487  0.5104 -1.0729  0.0062
  201MOL0     C27627   2.720  12.145   8.418  0.5503  0.9887  0.7791
  201MOL0     C27628   2.817  12.225   8.508 -0.3899 -0.0856 -1.3253
  201MOL0     C27629   2.682  12.177   8.282 -0.7172  0.6946  1.2421
  201MOL0     C27630   2.739  12.289   8.204  0.7178  0.0666 -0.2783
  201MOL0     O27631   2.852  12.354   8.248 -0.5453  0.8316  0.8270
  201MOL0     C27632   2.929  12.446   8.179 -1.2097 -1.2011  0.1658
  201MOL0     C27633   2.871  12.538   8.089 -0.5181  0.1016 -0.4116
  201MOL0     C27634   2.934  12.646   8.039 -0.8545  0.0747 -0.4192
  201MOL0     C27635   3.064  12.671   8.075  0.2243  1.4280 -0.3384
  201MOL0     O27636   3.129  12.783   8.025  0.2015 -0.3572  0.2503
  201MOL0     C27637   3.270  12.797   8.026 -0.9087  0.0571  1.1335
  201MOL0     C27638   3.307  12.884   8.142  0.8431 -0.4911 -0.6765
  201MOL0     C27639   3.219  13.011   8.172  0.1681 -0.1789 -0.0459
  201MOL0     C27640   3.276  13.142   8.123  0.0096  0.1952  0.0909
  201MOL0     C27641   3.167  13.252   8.150 -0.6205  0.0937  0.5242
  201MOL0     C27642   3.244  13.385   8.118 -0.3015 -0.1705  0.7423
  201MOL0     C27643   3.137  13.497   8.113 -0.0816  0.1022  0.2134
  201MOL0     C27644   3.066  13.497   7.976  0.0503 -0.5372 -0.1189
  201MOL0    Cl27645   2.950  13.634   7.960  0.1489 -0.0727 -0.1640
  201MOL0     C27646   3.132  12.579   8.162 -0.3740  0.0478  0.0700
  201MOL0     C27647   3.066  12.470   8.214  0.0824  0.2163 -0.3494
  201MOL0     O27648   2.674  12.322   8.100 -0.1750 -0.2023 -1.3359
  201MOL0     C27649   2.580  12.101   8.223 -0.1938  0.3738  0.5007
  201MOL0     C27650   2.519  11.990   8.295  0.4087 -0.1871 -0.5171
  201MOL0     N27651   2.489  11.205   8.473  0.2866  0.0618 -0.1346
  201MOL0     N27652   2.511  11.130   8.366 -0.5819  0.8776 -0.8032
  201MOL0     C27653   2.678  10.513   7.802 -0.0957  0.4709 -0.0489
  201MOL0     C27654   2.810  10.514   7.765 -0.5533 -0.8982  0.2579
  201MOL0     C27655   3.212  10.473   7.628 -0.2056 -0.2557  0.3380
  201MOL0     C27656   3.295  10.422   7.732 -0.1940 -1.6246 -0.1662
  201MOL0     C27657   3.437  10.456   7.739  0.0022 -0.6069  0.2706
  201MOL0     C27658   3.491  10.534   7.627  0.0174  0.6159 -0.6362
  201MOL0     O27659   3.624  10.534   7.623  0.4311 -0.6830 -0.2567
  201MOL0     C27660   3.703  10.630   7.560 -0.5663  0.7545 -0.1104
  201MOL0     C27661   3.733  10.604   7.404  0.4724  0.1784 -0.1912
  201MOL0     C27662   3.777  10.464   7.386 -0.4191  1.0072  0.5716
  201MOL0     C27663   3.785  10.413   7.244  0.4420 -0.9383 -0.5204
  201MOL0     C27664   3.871  10.490   7.149  0.0177 -1.2013 -0.2231
  201MOL0     C27665   3.952  10.522   7.063  0.1362  0.0196  0.8498
  201MOL0     C27666   3.405  10.588   7.530  0.7802  0.6090 -0.2535
  201MOL0     C27667   3.266  10.563   7.534 -0.0601  0.4803  0.1657
  201MOL0     C27668   3.179  10.622   7.428  0.0258 -0.6705  0.6022
  201MOL0     H27669   2.771  10.418   7.435 -0.1568 -1.6496  0.5282
  201MOL0     H27670   2.537  10.402   7.517  0.2345 -2.0859  1.7265
  201MOL0     H27671   2.463  10.538   7.935  1.2002 -1.6703 -0.5821
  201MOL0     H27672   2.303  10.502   7.887  0.8580 -0.1819  1.4174
  201MOL0     H27673   2.294  10.705   7.749  2.6182 -1.8076 -0.5261
  201MOL0     H27674   2.293  10.724   7.919 -0.2715 -2.6920  0.3166
  201MOL0     H27675   2.560  10.764   7.890 -0.4418 -0.0374 -0.3417
  201MOL0     H27676   2.521  10.806   7.719  1.6821  1.1214  0.4380
  201MOL0     H27677   2.546  11.017   7.831 -0.2228  1.2163  1.1727
  201MOL0     H27678   2.374  10.978   7.785  2.3506  1.8693 -1.6507
  201MOL0     H27679   2.487  10.916   8.066 -0.8814  1.0701  2.5535
  201MOL0     H27680   2.334  10.930   8.034  0.7773 -1.2844  3.0472
  201MOL0     H27681   2.400  11.185   7.936 -2.0588 -0.0110  0.6519
  201MOL0     H27682   2.385  11.134   8.118  1.8505 -1.4039  1.0618
  201MOL0     H27683   2.586  11.287   8.030  2.1505 -0.6752 -2.1135
  201MOL0     H27684   2.640  11.145   7.948 -1.2357 -2.1510  1.3526
  201MOL0     H27685   2.663  11.036   8.192  0.7382  1.0373 -0.4447
  201MOL0     H27686   2.762  11.175   8.161  0.4515  0.5675 -1.6815
  201MOL0     H27687   2.642  11.412   8.272  2.2944 -3.7001 -2.7535
  201MOL0     H27688   2.602  11.533   8.521  1.8246 -0.9247  1.6272
  201MOL0     H27689   2.550  11.425   8.641 -0.4820  1.8171  0.6473
  201MOL0     H27690   2.339  11.509   8.431 -1.4928  0.7555  0.0361
  201MOL0     H27691   2.321  11.468   8.601  0.9153 -1.4101 -1.1398
  201MOL0     H27692   2.274  11.689   8.562  0.2239  1.4435  0.8738
  201MOL0     H27693   2.432  11.688   8.649 -0.4443 -3.1539  1.6905
  201MOL0     H27694   2.486  11.699   8.366  0.2580 -1.2679  1.2213
  201MOL0     H27695   2.344  11.790   8.382  1.3165 -1.7480 -2.3268
  201MOL0     H27696   2.675  12.022   8.590  0.3126 -0.3048  0.1952
  201MOL0     H27697   2.783  12.327   8.523  3.2165  0.7936  3.3509
  201MOL0     H27698   2.924  12.215   8.485 -0.5438  0.2736 -2.2354
  201MOL0     H27699   2.810  12.191   8.612  2.3661  0.2450 -0.9389
  201MOL0     H27700   2.768  12.526   8.059 -1.1400  2.1302  0.7580
  201MOL0     H27701   2.875  12.721   7.987 -0.8884 -0.1330 -0.6833
  201MOL0     H27702   3.319  12.702   8.050 -0.4635  0.3386  1.3422
  201MOL0     H27703   3.300  12.846   7.933 -0.1326 -1.5963  0.4578
  201MOL0     H27704   3.301  12.818   8.229  1.1964 -0.7532 -0.8493
  201MOL0     H27705   3.407  12.927   8.134 -0.4969  3.3780  0.7151
  201MOL0     H27706   3.211  13.008   8.281 -0.1710 -2.5234 -0.0841
  201MOL0     H27707   3.121  12.991   8.127  0.4954 -2.7451  0.2407
  201MOL0     H27708   3.310  13.152   8.019 -4.5521  6.2333 -1.4198
  201MOL0     H27709   3.356  13.171   8.191  3.5009  0.5437 -3.7558
  201MOL0     H27710   3.098  13.243   8.066  0.3497  0.8227 -0.3906
  201MOL0     H27711   3.116  13.241   8.246  0.3794 -2.2202  0.8446
  201MOL0     H27712   3.297  13.379   8.022 -0.3848 -0.1538  0.6952
  201MOL0     H27713   3.309  13.406   8.204 -0.3643  1.5897  0.3995
  201MOL0     H27714   3.187  13.594   8.127 -1.1495  0.3201  3.1930
  201MOL0     H27715   3.063  13.483   8.192 -0.2056 -1.0802 -0.0916
  201MOL0     H27716   3.008  13.404   7.970 -2.4632  0.7091  2.2909
  201MOL0     H27717   3.142  13.509   7.899  0.2142 -1.1628 -0.0668
  201MOL0     H27718   3.232  12.594   8.201 -1.6099  1.4092  3.1205
  201MOL0     H27719   3.114  12.395   8.276  0.9873  1.2362  0.2209
  201MOL0     H27720   2.540  12.138   8.129  0.4915  0.0357  0.0678
  201MOL0     H27721   2.432  11.944   8.248  0.9691 -1.4621 -0.3452
  201MOL0     H27722   2.665  10.547   7.905  1.3888  2.9683 -0.5978
  201MOL0     H27723   2.888  10.533   7.838 -0.1540 -0.1405 -0.3523
  201MOL0     H27724   3.249  10.371   7.815 -2.5194  0.7681  0.1547
  201MOL0     H27725   3.502  10.394   7.801  0.0499 -3.9611 -2.8271
  201MOL0     H27726   3.644  10.721   7.565  1.1039  1.9995 -1.8517
  201MOL0     H27727   3.793  10.651   7.619  0.0603  1.6566 -1.3672
  201MOL0     H27728   3.812  10.670   7.368 -1.0048  1.1835 -1.7606
  201MOL0     H27729   3.635  10.620   7.357  0.2526  0.3944  0.3281
  201MOL0     H27730   3.879  10.453   7.422 -0.8417 -2.9857  1.0991
  201MOL0     H27731   3.709  10.398   7.441 -0.7210  1.9624  1.3747
  201MOL0     H27732   3.683  10.414   7.205 -0.6023  0.2467  2.0074
  201MOL0     H27733   3.825  10.311   7.242  0.0267 -1.1061 -2.6607
  201MOL0     H27734   4.026  10.540   6.987  0.9328  1.3833  1.9020
  201MOL0     H27735   3.441  10.652   7.450 -0.1199 -0.0660 -1.2295
  201MOL0     H27736   3.123  10.537   7.390 -0.7283 -0.4029  1.1066
  201MOL0     H27737   3.110  10.700   7.459 -1.4315 -0.9272 -1.7447
  201MOL0     H27738   3.232  10.671   7.345 -1.1672  1.5049  1.0658
  202MOL0     O27739   7.399   7.080   6.495 -0.7306 -0.0336  0.3956
  202MOL0     C27740   7.371   6.961   6.532 -0.1582 -0.2152 -0.5454
  202MOL0     O27741   7.457   6.876   6.585  0.3314 -0.2834 -0.9901
  202MOL0     C27742   7.587   6.933   6.605  0.3563  1.2150  0.2737
  202MOL0     C27743   7.633   6.950   6.745  0.1012 -0.0251  0.9513
  202MOL0     C27744   7.767   6.976   6.776  0.3843  0.0865 -0.9963
  202MOL0     C27745   7.851   7.004   6.660 -0.2009  0.3607  0.2359
  202MOL0     O27746   7.979   7.046   6.680 -0.6270 -0.2035  0.0166
  202MOL0     C27747   8.043   7.043   6.796 -0.2876 -0.6162 -0.2297
  202MOL0     C27748   8.183   7.123   6.786  0.9279  0.2878 -0.1548
  202MOL0     C27749   8.243   7.137   6.918  0.8237  0.1536 -0.3856
  202MOL0     C27750   8.387   7.162   6.893  0.0381 -0.2220 -0.0566
  202MOL0     C27751   8.452   7.201   7.024  0.7842  0.0428  0.1136
  202MOL0     C27752   8.591   7.258   7.005 -0.5575 -0.3455 -0.3569
  202MOL0     C27753   8.673   7.248   7.133  0.1416 -0.2911  0.1822
  202MOL0     C27754   8.633   7.347   7.235 -0.5959 -0.5523 -1.1962
  202MOL0     N27755   8.668   7.490   7.213  0.2612  0.2910  1.1868
  202MOL0     C27756   8.769   7.525   7.128  0.1949  0.2674 -0.0184
  202MOL0     C27757   8.781   7.658   7.139 -0.3200  0.2653  0.8589
  202MOL0     C27758   8.894   7.734   7.082 -0.9929  0.0782  0.9377
  202MOL0     C27759   8.875   7.892   7.129  0.6612  0.9755  0.0637
  202MOL0     C27760   8.891   7.996   7.008 -0.4700  0.8128 -0.0641
  202MOL0     C27761   9.043   8.030   6.996 -0.6102 -0.0455  0.8197
  202MOL0     O27762   9.046   8.118   6.876  0.1204  0.7795  0.1134
  202MOL0     C27763   9.139   8.209   6.864 -0.7040 -0.1736 -0.2856
  202MOL0     C27764   9.250   8.216   6.944 -0.0511 -0.6878  0.7607
  202MOL0     C27765   9.346   8.313   6.914 -0.4266 -0.2695  0.2394
  202MOL0     C27766   9.463   8.313   6.994 -1.2043 -0.5094 -0.3224
  202MOL0     C27767   9.325   8.403   6.806 -0.4745 -0.9475  0.1935
  202MOL0     C27768   9.421   8.504   6.774  0.1850 -0.4906 -0.7275
  202MOL0     O27769   9.477   8.578   6.877 -0.7681  0.1287 -0.6052
  202MOL0     C27770   9.616   8.581   6.894  0.8140 -0.5186  0.7115
  202MOL0     C27771   9.708   8.502   6.831  0.4383  0.6702  0.0963
  202MOL0     C27772   9.843   8.517   6.856  0.3183  0.2378 -0.0189
  202MOL0     C27773   9.900   8.610   6.942  1.1689 -0.7140 -0.1241
  202MOL0     O27774  10.039   8.639   6.955  1.0993 -0.1379 -0.5760
  202MOL0     C27775  10.130   8.613   6.852 -0.5200 -0.2452 -0.1545
  202MOL0     C27776  10.261   8.677   6.892  0.7883 -0.2205 -0.1154
  202MOL0     C27777  10.351   8.707   6.774 -0.3317  0.8090  1.0663
  202MOL0     C27778  10.350   8.589   6.665 -0.6548 -0.5566 -0.1471
  202MOL0     C27779  10.441   8.471   6.717  0.0125 -0.2795 -0.0395
  202MOL0     C27780  10.443   8.360   6.611 -0.1523  0.4842 -0.0832
  202MOL0     C27781  10.309   8.281   6.604 -0.7680 -0.9939  0.1288
  202MOL0     C27782  10.310   8.164   6.509 -0.9328 -0.3436  0.0986
  202MOL0    Cl27783  10.147   8.096   6.512  0.4446 -0.0184 -0.0628
  202MOL0     C27784   9.803   8.696   6.996 -0.1971  0.5311 -0.5459
  202MOL0     C27785   9.659   8.680   6.975 -0.8872 -0.2237 -0.2434
  202MOL0     O27786   9.457   8.521   6.654  0.5177 -1.1520  0.2614
  202MOL0     C27787   9.218   8.392   6.723 -0.1934 -0.5707 -1.1244
  202MOL0     C27788   9.129   8.295   6.749 -0.2232 -0.5267 -0.9922
  202MOL0     N27789   8.674   7.707   7.216 -0.7936  0.8651 -0.3155
  202MOL0     N27790   8.610   7.605   7.267  0.5462 -0.5254 -0.5753
  202MOL0     C27791   7.804   6.990   6.523  0.1043  0.1212 -0.4737
  202MOL0     C27792   7.674   6.950   6.500  0.3376 -0.1023  0.2213
  202MOL0     C27793   7.226   6.932   6.543 -0.7140 -1.2701 -0.4409
  202MOL0     C27794   7.149   7.038   6.575  0.0649  1.2861  0.3712
  202MOL0     C27795   7.011   7.021   6.587  0.1049 -0.8002 -0.6556
  202MOL0     C27796   6.950   6.891   6.574 -0.4678  0.2244 -0.1214
  202MOL0     O27797   6.819   6.889   6.574  0.3867 -0.1521  0.5027
  202MOL0     C27798   6.761   6.809   6.668  0.2176 -0.2036 -0.1474
  202MOL0     C27799   6.697   6.692   6.580 -0.8427 -0.5606  0.8229
  202MOL0     C27800   6.641   6.579   6.672 -0.0297  0.1516 -0.3088
  202MOL0     C27801   6.622   6.446   6.595 -0.4657 -0.2516  0.4084
  202MOL0     C27802   6.551   6.346   6.664  0.4917  0.5689 -0.3306
  202MOL0     C27803   6.479   6.270   6.724  0.6289 -0.5755 -0.3369
  202MOL0     C27804   7.032   6.788   6.536  0.3705  0.3945  0.2011
  202MOL0     C27805   7.172   6.803   6.525  0.6436 -1.0063  0.5729
  202MOL0     C27806   7.249   6.681   6.482 -0.6114 -0.7710  0.1004
  202MOL0     H27807   7.576   6.920   6.832  0.2688 -0.1367  1.0238
  202MOL0     H27808   7.798   6.987   6.880  3.2894  1.4792 -1.9219
  202MOL0     H27809   8.043   6.937   6.824 -2.1085 -1.2618 -2.3589
  202MOL0     H27810   7.988   7.106   6.866 -1.1777 -0.6037 -0.9188
  202MOL0     H27811   8.245   7.064   6.718 -0.6545 -0.8756 -0.6577
  202MOL0     H27812   8.175   7.224   6.745  0.6340  0.4544  0.3112
  202MOL0     H27813   8.198   7.213   6.982 -2.7271 -1.6261 -0.5370
  202MOL0     H27814   8.241   7.050   6.984 -0.4298 -0.6899 -1.4929
  202MOL0     H27815   8.441   7.072   6.863 -0.8655 -3.1897  5.7016
  202MOL0     H27816   8.390   7.244   6.821  0.6894 -0.7352 -0.6231
  202MOL0     H27817   8.460   7.128   7.105 -0.0417 -0.8800 -0.6073
  202MOL0     H27818   8.388   7.273   7.075 -2.1194 -1.4635 -1.1631
  202MOL0     H27819   8.635   7.193   6.929 -0.4410  0.4676 -0.9955
  202MOL0     H27820   8.597   7.361   6.967  4.2264 -1.7640 -4.5635
  202MOL0     H27821   8.780   7.258   7.115  0.1507  1.6433  1.0587
  202MOL0     H27822   8.653   7.149   7.175 -0.8360 -0.4220 -0.5324
  202MOL0     H27823   8.531   7.333   7.271  0.0250 -1.5193  0.2589
  202MOL0     H27824   8.702   7.319   7.315  0.6724  1.9149 -1.3305
  202MOL0     H27825   8.847   7.466   7.082  0.9791  1.4789 -0.2983
  202MOL0     H27826   8.885   7.733   6.973  2.0358  2.3494  0.5483
  202MOL0     H27827   8.992   7.698   7.116  1.0144  3.9943 -0.1353
  202MOL0     H27828   8.773   7.914   7.161  0.5708 -1.0396  1.2937
  202MOL0     H27829   8.938   7.916   7.215  1.3050 -2.5084  0.6906
  202MOL0     H27830   8.854   7.956   6.914 -0.2274 -0.2525  0.2812
  202MOL0     H27831   8.837   8.088   7.032 -0.9588  0.5065  0.0275
  202MOL0     H27832   9.069   8.088   7.085  2.1436 -0.5599  0.4652
  202MOL0     H27833   9.109   7.944   6.982  2.9680  2.3309  1.7110
  202MOL0     H27834   9.265   8.136   7.016 -0.0584 -3.9633 -2.5437
  202MOL0     H27835   9.557   8.326   6.939  0.7043 -1.8540  2.4182
  202MOL0     H27836   9.470   8.216   7.044  2.3331  1.1534  2.9873
  202MOL0     H27837   9.456   8.384   7.077  1.9043 -0.0733 -0.2946
  202MOL0     H27838   9.671   8.424   6.765  0.0318  0.3489  0.6940
  202MOL0     H27839   9.916   8.449   6.814  0.9917 -0.6721  2.4496
  202MOL0     H27840  10.143   8.506   6.836 -0.0789 -0.0863 -0.9153
  202MOL0     H27841  10.087   8.658   6.762 -0.7132 -0.8617 -0.3759
  202MOL0     H27842  10.233   8.770   6.943  0.7177 -1.2930  1.8911
  202MOL0     H27843  10.309   8.621   6.972  1.3632  3.1630  2.1010
  202MOL0     H27844  10.452   8.708   6.814 -0.2545 -0.1457  0.9113
  202MOL0     H27845  10.333   8.806   6.732 -1.9825  0.5602  1.1055
  202MOL0     H27846  10.396   8.626   6.573 -3.3502  0.3345 -1.2358
  202MOL0     H27847  10.249   8.558   6.640 -0.8811 -1.0093  1.2303
  202MOL0     H27848  10.543   8.506   6.733  0.7688 -2.1313 -0.5017
  202MOL0     H27849  10.400   8.432   6.811 -1.7389 -0.0202 -0.6683
  202MOL0     H27850  10.521   8.284   6.623 -1.1262 -1.0101 -2.3980
  202MOL0     H27851  10.459   8.402   6.511  0.3809  0.7539  0.1130
  202MOL0     H27852  10.231   8.353   6.578 -0.6267  0.4265  3.2805
  202MOL0     H27853  10.283   8.243   6.703 -3.3055 -3.3919 -1.2692
  202MOL0     H27854  10.381   8.086   6.537 -0.2303  0.3447  0.2713
  202MOL0     H27855  10.330   8.207   6.410  1.6371 -1.2212  0.1556
  202MOL0     H27856   9.844   8.781   7.050  1.0084  0.1476 -0.8257
  202MOL0     H27857   9.590   8.754   7.014  0.5302  0.9187  0.1780
  202MOL0     H27858   9.191   8.462   6.645  2.1789  0.1934 -1.3083
  202MOL0     H27859   9.042   8.307   6.686  0.2068 -1.5856 -1.8322
  202MOL0     H27860   7.884   6.980   6.451  1.1327 -1.3840  0.8034
  202MOL0     H27861   7.650   6.935   6.395 -0.2101  0.0617  0.3153
  202MOL0     H27862   7.185   7.140   6.586 -4.6407  3.3626 -0.9132
  202MOL0     H27863   6.946   7.106   6.603  2.2527  0.5992  1.1059
  202MOL0     H27864   6.830   6.758   6.736  1.7261 -2.0197 -2.8522
  202MOL0     H27865   6.687   6.863   6.728  0.9198  0.8450 -0.1978
  202MOL0     H27866   6.773   6.646   6.517 -0.5138  2.3639 -1.1138
  202MOL0     H27867   6.622   6.749   6.525 -0.1999 -2.2507 -1.9719
  202MOL0     H27868   6.708   6.560   6.756  0.4023  0.0206 -0.6813
  202MOL0     H27869   6.553   6.625   6.718  0.3144  1.6520 -1.1010
  202MOL0     H27870   6.723   6.422   6.561  0.5848  3.0784  0.8734
  202MOL0     H27871   6.567   6.470   6.504 -1.0775 -0.2561  0.7690
  202MOL0     H27872   6.413   6.204   6.777  0.5116  0.5990  1.0595
  202MOL0     H27873   6.988   6.690   6.517  1.6948  0.2791 -2.7590
  202MOL0     H27874   7.241   6.602   6.558 -1.0732 -4.6133 -3.5878
  202MOL0     H27875   7.209   6.657   6.384  0.6475  2.1794 -1.2541
  202MOL0     H27876   7.355   6.693   6.457  0.1352 -0.4781  3.0420
  203MOL0     O27877   7.257  11.197  10.228  0.3525  0.9333  0.7640
  203MOL0     C27878   7.267  11.155  10.338  1.6921  0.0220 -0.9117
  203MOL0     O27879   7.349  11.051  10.374 -0.3158 -0.1153 -0.5084
  203MOL0     C27880   7.447  11.000  10.292 -0.0748  0.3804 -1.8439
  203MOL0     C27881   7.439  10.860  10.286 -0.3279  0.3462  0.7137
  203MOL0     C27882   7.529  10.786  10.199 -1.0015  0.1507 -0.5663
  203MOL0     C27883   7.641  10.854  10.143  0.0421 -0.5168  0.6615
  203MOL0     O27884   7.731  10.785  10.059  0.7279 -0.5510 -0.5119
  203MOL0     C27885   7.867  10.821  10.074 -0.2071  0.1874 -0.9466
  203MOL0     C27886   7.957  10.727   9.999  0.2371  1.1683  0.5092
  203MOL0     C27887   8.113  10.730  10.008 -0.9430 -1.1962 -0.1903
  203MOL0     C27888   8.147  10.684  10.145 -0.2698  0.7872 -0.1170
  203MOL0     C27889   8.298  10.668  10.165 -0.7153  0.5017  0.1372
  203MOL0     C27890   8.342  10.546  10.084 -0.4049 -0.1491  0.3361
  203MOL0     C27891   8.479  10.496  10.129  0.6714  0.5691  0.0541
  203MOL0     C27892   8.585  10.582  10.079  0.1056  0.3462 -0.0419
  203MOL0     N27893   8.708  10.495  10.087 -0.0068  1.0294  0.9525
  203MOL0     C27894   8.749  10.411  10.182  0.3691  0.2793 -0.7398
  203MOL0     C27895   8.865  10.353  10.137  0.8126  0.4506 -0.1393
  203MOL0     C27896   8.943  10.246  10.214  1.1899 -0.4836  0.2658
  203MOL0     C27897   9.067  10.313  10.258 -0.1059  0.2090  0.5872
  203MOL0     C27898   9.040  10.416  10.372  1.2845  0.4147  0.3324
  203MOL0     C27899   9.170  10.479  10.421  0.0719 -0.0740 -0.1142
  203MOL0     O27900   9.288  10.404  10.446  0.6198  0.5176 -0.1912
  203MOL0     C27901   9.402  10.480  10.466 -0.0516 -0.5779  0.3062
  203MOL0     C27902   9.459  10.503  10.590 -0.5604  0.7317  0.0225
  203MOL0     C27903   9.594  10.554  10.613 -0.1026 -0.0480 -0.3294
  203MOL0     C27904   9.641  10.565  10.757 -0.2079 -0.3845  0.1047
  203MOL0     C27905   9.673  10.574  10.500  0.8344 -0.0995  0.0021
  203MOL0     C27906   9.809  10.608  10.504  1.1286  0.0729 -1.1604
  203MOL0     O27907   9.844  10.720  10.437 -0.4645  0.7915 -0.6982
  203MOL0     C27908   9.970  10.754  10.404 -0.4723  0.3570  0.4061
  203MOL0     C27909   9.986  10.838  10.291  0.7949  0.3268  0.3355
  203MOL0     C27910  10.108  10.874  10.246  0.2150  0.4878  0.0680
  203MOL0     C27911  10.223  10.828  10.313  0.4958  0.1347 -0.5619
  203MOL0     O27912  10.351  10.846  10.272 -0.9521 -0.6425 -0.0015
  203MOL0     C27913  10.380  10.891  10.138 -0.4965 -0.4892 -0.3104
  203MOL0     C27914  10.373  10.783  10.024 -0.1619  0.4885 -0.4632
  203MOL0     C27915  10.480  10.680  10.040  0.1162  0.4433 -0.9768
  203MOL0     C27916  10.613  10.719   9.978 -0.2656  0.1139 -0.3005
  203MOL0     C27917  10.716  10.606   9.987  0.4335 -0.7059 -0.1999
  203MOL0     C27918  10.855  10.647   9.958 -0.6641 -0.6576 -0.3768
  203MOL0     C27919  10.870  10.708   9.816 -0.8587  0.1377  0.5337
  203MOL0     C27920  10.904  10.612   9.703  0.6544 -0.3103  0.2298
  203MOL0    Cl27921  11.021  10.683   9.589  0.1619 -0.3368  0.2979
  203MOL0     C27922  10.211  10.758  10.432  0.9498 -0.7696 -0.8667
  203MOL0     C27923  10.082  10.728  10.483 -1.0122  0.2010  0.2966
  203MOL0     O27924   9.889  10.525  10.549 -0.0644 -0.2083  0.3511
  203MOL0     C27925   9.613  10.562  10.364  0.6188 -0.5118 -0.6789
  203MOL0     C27926   9.489  10.506  10.354 -0.2625  0.8577  0.0873
  203MOL0     N27927   8.877  10.383  10.002  0.3684  0.2469  0.3887
  203MOL0     N27928   8.789  10.472   9.973 -0.3468  0.4815  0.3655
  203MOL0     C27929   7.648  10.994  10.163  0.7159  0.4391 -0.0829
  203MOL0     C27930   7.551  11.068  10.233  0.3002  1.0199  0.0081
  203MOL0     C27931   7.180  11.217  10.443 -0.5575 -1.2767  0.5562
  203MOL0     C27932   7.209  11.343  10.499  0.7828  0.0684 -0.4836
  203MOL0     C27933   7.124  11.409  10.581 -0.0316 -0.3925  0.5126
  203MOL0     C27934   7.002  11.344  10.629 -1.1030  0.7805  0.5007
  203MOL0     O27935   6.929  11.413  10.718  0.8129 -0.1656 -0.0829
  203MOL0     C27936   6.807  11.362  10.766 -0.4310  0.5808  0.6825
  203MOL0     C27937   6.825  11.265  10.879 -0.6060 -0.3509  0.4081
  203MOL0     C27938   6.695  11.192  10.920  0.6133 -0.1164  0.7161
  203MOL0     C27939   6.730  11.086  11.021  0.5353  0.3478 -0.4198
  203MOL0     C27940   6.624  11.081  11.134 -0.2414  0.2281 -0.9889
  203MOL0     C27941   6.562  11.056  11.243 -1.0089  0.1486 -0.1860
  203MOL0     C27942   6.979  11.220  10.573  0.0081 -0.6944  0.5093
  203MOL0     C27943   7.064  11.154  10.484  0.2398  0.5173  0.1160
  203MOL0     C27944   7.006  11.013  10.427 -0.1829  0.9114  0.0735
  203MOL0     H27945   7.359  10.799  10.328 -0.4777  0.3446  0.4241
  203MOL0     H27946   7.508  10.681  10.180 -2.7917  0.6255 -1.4612
  203MOL0     H27947   7.883  10.817  10.182 -4.0567  0.0956 -0.2304
  203MOL0     H27948   7.885  10.917  10.024  1.9647  0.3044 -0.0508
  203MOL0     H27949   7.940  10.625  10.035  1.7488  0.2292 -1.2664
  203MOL0     H27950   7.916  10.722   9.898 -0.6756 -1.3874  0.9407
  203MOL0     H27951   8.153  10.664   9.931  1.2683 -1.5189  1.1540
  203MOL0     H27952   8.143  10.834   9.988 -0.8064 -1.6305 -2.5962
  203MOL0     H27953   8.121  10.767  10.212  0.0959  0.0729  0.9337
  203MOL0     H27954   8.094  10.594  10.176 -0.3171  0.6224 -0.6757
  203MOL0     H27955   8.323  10.649  10.269 -0.0615  1.1176  0.0987
  203MOL0     H27956   8.355  10.758  10.139  1.9020 -0.2650  2.8012
  203MOL0     H27957   8.264  10.470  10.094  1.3346 -2.4620 -2.0073
  203MOL0     H27958   8.334  10.580   9.981 -0.7968  2.0830  1.0452
  203MOL0     H27959   8.483  10.396  10.085 -0.6723  0.7743 -0.5850
  203MOL0     H27960   8.494  10.483  10.236 -0.7604  0.9837  0.3219
  203MOL0     H27961   8.561  10.591   9.973 -1.7538 -1.9414  0.1113
  203MOL0     H27962   8.599  10.677  10.133 -1.8129  1.7857 -1.9190
  203MOL0     H27963   8.710  10.377  10.277  0.6533 -0.2575 -0.8091
  203MOL0     H27964   8.956  10.160  10.147 -1.2695 -0.8641  0.1837
  203MOL0     H27965   8.886  10.210  10.300 -0.9335 -1.1721 -1.3488
  203MOL0     H27966   9.144  10.243  10.293  0.5729 -0.5277 -2.1501
  203MOL0     H27967   9.122  10.354  10.172  0.4682 -0.8965  0.4151
  203MOL0     H27968   8.975  10.499  10.344  1.2351  0.6515  1.1419
  203MOL0     H27969   8.996  10.350  10.447  0.2716  0.8187  0.1091
  203MOL0     H27970   9.196  10.557  10.349  1.1561  1.5798  1.9675
  203MOL0     H27971   9.145  10.527  10.516  0.0576  1.6685 -0.9571
  203MOL0     H27972   9.400  10.478  10.677 -0.9069  0.0992 -0.3837
  203MOL0     H27973   9.565  10.551  10.834 -1.1407  4.0471  0.2625
  203MOL0     H27974   9.683  10.665  10.768  0.7549 -0.8291  0.6283
  203MOL0     H27975   9.714  10.488  10.784  3.4482  3.5984  3.0364
  203MOL0     H27976   9.888  10.873  10.259  1.1286  1.1322  0.1866
  203MOL0     H27977  10.117  10.935  10.157 -0.2082 -0.0336 -0.3432
  203MOL0     H27978  10.320  10.982  10.121  1.3715  1.3904  2.2861
  203MOL0     H27979  10.484  10.926  10.138 -0.2765 -0.9941  1.9224
  203MOL0     H27980  10.277  10.733  10.039 -0.6184  1.9106  1.8502
  203MOL0     H27981  10.385  10.823   9.923  0.2415 -1.3045 -1.1721
  203MOL0     H27982  10.455  10.599   9.970  0.1737  2.8189 -3.9640
  203MOL0     H27983  10.502  10.653  10.144 -2.3140  0.8706 -0.2859
  203MOL0     H27984  10.658  10.801  10.034 -1.6523  0.1417  0.8485
  203MOL0     H27985  10.591  10.746   9.874 -1.3647 -0.6808 -0.3044
  203MOL0     H27986  10.716  10.562  10.088  0.5567  2.7474  1.4499
  203MOL0     H27987  10.684  10.523   9.923  1.1081 -1.7423  0.7501
  203MOL0     H27988  10.919  10.560   9.974 -2.7274 -1.9399  1.3947
  203MOL0     H27989  10.899  10.711  10.035  0.3387  0.9413 -2.1675
  203MOL0     H27990  10.961  10.768   9.829  0.4780 -2.1057  2.2396
  203MOL0     H27991  10.796  10.779   9.778 -0.7000  1.3910  2.4019
  203MOL0     H27992  10.812  10.588   9.648  0.4017  0.0001  0.5087
  203MOL0     H27993  10.939  10.516   9.741 -1.4008 -1.3111 -0.2588
  203MOL0     H27994  10.300  10.719  10.481 -0.8438 -1.4925  2.0600
  203MOL0     H27995  10.077  10.660  10.568 -0.4621 -4.1078 -2.7949
  203MOL0     H27996   9.666  10.577  10.270  2.4127 -0.9607  0.1985
  203MOL0     H27997   9.449  10.498  10.253  0.7487 -2.7899 -0.1532
  203MOL0     H27998   7.718  11.044  10.097  0.7364 -0.7637 -1.0009
  203MOL0     H27999   7.554  11.176  10.244 -1.0556  1.2148 -1.2338
  203MOL0     H28000   7.297  11.403  10.478  1.1348 -0.0218  0.6730
  203MOL0     H28001   7.146  11.501  10.633  2.9681 -1.8133  2.0172
  203MOL0     H28002   6.742  11.436  10.813 -2.2263 -1.5400  1.6826
  203MOL0     H28003   6.747  11.315  10.689 -2.1138  2.4772  0.7454
  203MOL0     H28004   6.874  11.317  10.962 -2.1437  0.2399  0.9917
  203MOL0     H28005   6.883  11.191  10.824 -0.0119  0.2813  0.1714
  203MOL0     H28006   6.613  11.259  10.946 -0.7991 -0.4338 -2.4923
  203MOL0     H28007   6.656  11.146  10.829 -1.7243  1.7514  0.6830
  203MOL0     H28008   6.834  11.084  11.057  1.0786 -1.9715 -1.9057
  203MOL0     H28009   6.728  10.990  10.969  0.5471 -0.6183  1.2958
  203MOL0     H28010   6.508  11.045  11.335  0.9052 -1.0062  0.8697
  203MOL0     H28011   6.890  11.157  10.584  2.6436 -4.4082  3.2994
  203MOL0     H28012   7.011  10.951  10.517  0.5320  2.2305  0.9620
  203MOL0     H28013   6.907  11.011  10.380 -1.0851 -0.7050  1.8839
  203MOL0     H28014   7.072  10.963  10.356  0.3063 -0.3682  1.3771
  204MOL0     O28015  10.424   5.440  10.224  1.5692 -0.1185  0.8864
  204MOL0     C28016  10.453   5.548  10.179 -0.0559  0.4337  0.5950
  204MOL0     O28017  10.431   5.664  10.246  0.6412 -0.2751 -0.0729
  204MOL0     C28018  10.352   5.683  10.350 -0.3960 -0.5095 -0.6599
  204MOL0     C28019  10.277   5.803  10.348 -0.2439 -0.4599  1.4330
  204MOL0     C28020  10.172   5.825  10.439 -0.1698 -0.2217 -0.1124
  204MOL0     C28021  10.150   5.733  10.540 -0.2117  0.4843  0.2237
  204MOL0     O28022  10.036   5.726  10.619 -0.5415 -0.2565 -0.0173
  204MOL0     C28023   9.977   5.849  10.643  0.4265  0.4493  0.7372
  204MOL0     C28024   9.871   5.831  10.749  0.9063 -0.1263 -0.6479
  204MOL0     C28025   9.769   5.939  10.773  0.3330  0.7997 -0.3146
  204MOL0     C28026   9.821   6.073  10.832 -0.6724  1.0813  0.0052
  204MOL0     C28027   9.700   6.157  10.878 -0.1406 -0.0335  0.1538
  204MOL0     C28028   9.638   6.094  11.008 -0.1631 -0.0400 -0.3783
  204MOL0     C28029   9.544   6.179  11.084  1.1680  0.3545  0.4795
  204MOL0     C28030   9.482   6.106  11.210  0.8224  1.2780  1.2384
  204MOL0     N28031   9.461   6.202  11.318 -0.3924 -0.3962 -0.1302
  204MOL0     C28032   9.392   6.322  11.312  0.1485 -1.0057 -0.3054
  204MOL0     C28033   9.425   6.391  11.428 -0.2813  0.2509  0.1154
  204MOL0     C28034   9.388   6.534  11.462  1.0699  0.4263 -0.5883
  204MOL0     C28035   9.253   6.597  11.400 -0.5235 -0.9172  0.4424
  204MOL0     C28036   9.123   6.544  11.473 -0.5045 -0.6223 -0.2795
  204MOL0     C28037   8.995   6.569  11.383  0.0120 -0.1864 -0.3969
  204MOL0     O28038   8.964   6.705  11.399  0.8380  0.0423 -0.0013
  204MOL0     C28039   8.894   6.758  11.291 -0.5175 -0.0461 -0.4169
  204MOL0     C28040   8.768   6.725  11.252  0.9920 -0.8244 -0.2639
  204MOL0     C28041   8.703   6.778  11.138 -0.4070  0.0129  0.5912
  204MOL0     C28042   8.563   6.723  11.113  0.3066  0.1498  0.0582
  204MOL0     C28043   8.783   6.861  11.056 -0.2575  1.3795  0.7098
  204MOL0     C28044   8.735   6.916  10.927  0.1764  0.5210  1.2677
  204MOL0     O28045   8.603   6.926  10.907  0.4802 -0.0623  0.5235
  204MOL0     C28046   8.522   6.975  10.806 -0.3126  0.6390  0.0918
  204MOL0     C28047   8.564   7.017  10.676 -0.7084  0.5549  0.4941
  204MOL0     C28048   8.471   7.080  10.594 -0.0916 -0.2956  0.5978
  204MOL0     C28049   8.328   7.070  10.613  0.1905 -0.8789  0.4650
  204MOL0     O28050   8.241   7.127  10.523  0.2251 -0.5336 -0.0420
  204MOL0     C28051   8.290   7.196  10.397  0.3218  0.2494  0.5188
  204MOL0     C28052   8.176   7.244  10.304 -0.8901 -0.4539  0.2287
  204MOL0     C28053   8.061   7.319  10.387  0.1911  0.4370  0.3015
  204MOL0     C28054   7.946   7.229  10.427  0.1044 -0.8062  0.8964
  204MOL0     C28055   7.836   7.303  10.519  0.2378  0.0250 -0.3346
  204MOL0     C28056   7.742   7.194  10.567 -0.6469  0.0004 -0.8179
  204MOL0     C28057   7.810   7.107  10.680 -0.3150 -0.6828 -0.2263
  204MOL0     C28058   7.705   7.034  10.758 -0.0262  0.8844  0.1296
  204MOL0    Cl28059   7.545   7.009  10.690  0.1032 -0.3382 -0.1079
  204MOL0     C28060   8.284   7.022  10.728 -0.1526 -0.5045 -0.2809
  204MOL0     C28061   8.383   6.985  10.824 -0.3997 -0.2783  0.1122
  204MOL0     O28062   8.816   6.954  10.844 -0.3770 -0.2821 -0.1928
  204MOL0     C28063   8.916   6.884  11.090 -0.3457 -0.2441  0.5027
  204MOL0     C28064   8.964   6.833  11.204 -0.3308  0.0859  0.3202
  204MOL0     N28065   9.515   6.317  11.500 -0.2977 -0.8625  1.0821
  204MOL0     N28066   9.533   6.203  11.434 -0.5454 -0.4039 -0.5702
  204MOL0     C28067  10.243   5.622  10.553  0.8513 -0.2133  0.5130
  204MOL0     C28068  10.342   5.597  10.459 -0.0441 -0.6505  0.6814
  204MOL0     C28069  10.535   5.556  10.045 -0.5048  0.2899 -0.2631
  204MOL0     C28070  10.551   5.684   9.995 -1.0597 -0.6438  0.6036
  204MOL0     C28071  10.601   5.706   9.870 -0.6745  0.1928 -0.9242
  204MOL0     C28072  10.621   5.598   9.783 -0.5485  0.2198  0.3309
  204MOL0     O28073  10.667   5.627   9.664 -0.2305 -0.4273  0.1045
  204MOL0     C28074  10.615   5.545   9.557 -0.5444 -0.8566  0.5423
  204MOL0     C28075  10.624   5.627   9.419  0.2829 -0.0067 -0.2287
  204MOL0     C28076  10.777   5.666   9.378  0.3680  0.2989  0.7803
  204MOL0     C28077  10.878   5.546   9.383  0.9674  0.5545  0.2099
  204MOL0     C28078  10.840   5.433   9.296  0.6164  0.3279 -0.7066
  204MOL0     C28079  10.798   5.332   9.236 -0.3469  0.2039  0.0739
  204MOL0     C28080  10.601   5.463   9.833  0.2742  0.8292  0.3678
  204MOL0     C28081  10.562   5.439   9.962 -0.2619 -0.1997 -0.2838
  204MOL0     C28082  10.532   5.297  10.009  0.2361 -0.3458 -0.4613
  204MOL0     H28083  10.290   5.868  10.261 -3.2297 -1.2821  0.2608
  204MOL0     H28084  10.115   5.917  10.432 -0.1341 -0.1929 -0.0255
  204MOL0     H28085   9.933   5.887  10.550  1.8219 -1.4483 -0.7762
  204MOL0     H28086  10.057   5.914  10.682  1.8230 -1.9091  2.0356
  204MOL0     H28087   9.817   5.739  10.729  1.5305 -1.0345  1.5302
  204MOL0     H28088   9.924   5.826  10.844  0.8479  4.3111 -0.1395
  204MOL0     H28089   9.700   5.957  10.690 -2.2389  0.0195  1.5077
  204MOL0     H28090   9.697   5.896  10.844 -0.3316  2.6744  0.2029
  204MOL0     H28091   9.888   6.053  10.916 -1.6779 -1.6484  0.2446
  204MOL0     H28092   9.882   6.123  10.757  0.4796 -0.3910 -0.0771
  204MOL0     H28093   9.622   6.164  10.802 -0.1957  1.6731  0.3428
  204MOL0     H28094   9.746   6.252  10.904 -0.0616 -0.2109  0.6670
  204MOL0     H28095   9.588   6.000  10.984  1.2042 -0.4476 -1.8231
  204MOL0     H28096   9.716   6.069  11.080  2.4149  0.1199 -2.9186
  204MOL0     H28097   9.454   6.197  11.025  0.8713 -0.2268  0.7461
  204MOL0     H28098   9.606   6.261  11.122  0.5605  0.7511  0.6326
  204MOL0     H28099   9.385   6.064  11.182  0.4686  2.2084  1.0363
  204MOL0     H28100   9.542   6.024  11.252  1.8277  0.9480 -0.7051
  204MOL0     H28101   9.338   6.347  11.221  1.8751  0.1388 -1.0686
  204MOL0     H28102   9.477   6.588  11.429  0.7255 -0.4851 -3.2065
  204MOL0     H28103   9.379   6.548  11.570 -1.0515  0.9247 -0.7858
  204MOL0     H28104   9.239   6.706  11.406  0.5418 -0.7721  0.4627
  204MOL0     H28105   9.251   6.574  11.293  0.3195  3.6519 -0.7933
  204MOL0     H28106   9.128   6.435  11.482 -0.6879 -0.5714  0.4468
  204MOL0     H28107   9.103   6.583  11.573  0.7075 -0.0996 -0.2361
  204MOL0     H28108   9.021   6.555  11.278 -1.6627  2.4961 -1.2781
  204MOL0     H28109   8.909   6.508  11.414  0.3448 -0.5000 -0.0828
  204MOL0     H28110   8.712   6.651  11.310  2.1542 -1.3555  0.2227
  204MOL0     H28111   8.530   6.650  11.188 -0.1411 -1.7780 -1.9312
  204MOL0     H28112   8.555   6.674  11.016 -0.3237 -4.3427  2.1087
  204MOL0     H28113   8.497   6.810  11.115  1.8466  1.4079 -1.0327
  204MOL0     H28114   8.667   7.044  10.654 -1.4778  0.8449 -3.6572
  204MOL0     H28115   8.506   7.137  10.509  0.5306  1.2977  1.8566
  204MOL0     H28116   8.365   7.269  10.429  0.6348 -0.0417  0.4566
  204MOL0     H28117   8.343   7.115  10.347 -0.1796  0.0044  0.3801
  204MOL0     H28118   8.222   7.322  10.243 -0.8441 -1.7650 -1.4936
  204MOL0     H28119   8.135   7.170  10.235 -2.2863  0.0698  0.4379
  204MOL0     H28120   8.019   7.401  10.329 -1.1263 -1.2685 -1.2819
  204MOL0     H28121   8.099   7.352  10.485  1.4854  0.4234 -0.1679
  204MOL0     H28122   7.981   7.136  10.474  0.9452 -0.7873  0.3175
  204MOL0     H28123   7.900   7.187  10.337 -0.2738  0.4937  0.4655
  204MOL0     H28124   7.895   7.344  10.602  1.8382 -1.3013 -0.7468
  204MOL0     H28125   7.780   7.376  10.461  0.9941  2.1778  1.4907
  204MOL0     H28126   7.702   7.135  10.484 -1.1777 -2.2894  0.9710
  204MOL0     H28127   7.654   7.248  10.605  0.2340 -0.6720  2.4997
  204MOL0     H28128   7.868   7.173  10.746  1.0566 -2.6832  0.6910
  204MOL0     H28129   7.877   7.031  10.638 -1.4995 -1.5538 -0.5721
  204MOL0     H28130   7.678   7.087  10.849 -0.7092 -0.3982  0.7115
  204MOL0     H28131   7.748   6.935  10.778 -2.0745 -0.4554 -1.5571
  204MOL0     H28132   8.177   7.036  10.734  0.1132  2.1914 -0.2104
  204MOL0     H28133   8.334   6.975  10.921  2.0378  1.5960  1.6682
  204MOL0     H28134   8.981   6.949  11.032 -2.0294  1.1713  0.0939
  204MOL0     H28135   9.061   6.858  11.247  0.2318 -3.5363  1.5087
  204MOL0     H28136  10.232   5.541  10.624  2.0180 -1.1937 -0.3781
  204MOL0     H28137  10.397   5.503  10.466 -0.4624 -0.9552 -0.0478
  204MOL0     H28138  10.532   5.772  10.055  1.6825  0.9457 -0.6649
  204MOL0     H28139  10.619   5.807   9.835 -3.1111  1.3830  0.9897
  204MOL0     H28140  10.664   5.447   9.552 -0.6382 -0.8487 -1.6488
  204MOL0     H28141  10.508   5.523   9.571 -0.7202  0.4294  1.4349
  204MOL0     H28142  10.572   5.723   9.428  2.5277  1.7573 -3.7029
  204MOL0     H28143  10.577   5.570   9.339  0.2681  0.3838 -0.5012
  204MOL0     H28144  10.787   5.701   9.275  0.7190 -0.4334  0.5545
  204MOL0     H28145  10.812   5.743   9.447  0.1410  1.9544 -0.8830
  204MOL0     H28146  10.890   5.510   9.486 -1.5477  0.4353  0.5202
  204MOL0     H28147  10.975   5.589   9.356  1.1186  1.2473  1.7459
  204MOL0     H28148  10.765   5.236   9.202  0.8096 -0.8787  1.8252
  204MOL0     H28149  10.626   5.372   9.781  3.4075  0.7885  1.7134
  204MOL0     H28150  10.626   5.252  10.043  0.6949  2.3890  2.3323
  204MOL0     H28151  10.458   5.279  10.088 -0.3366  3.5999  0.0984
  204MOL0     H28152  10.505   5.225   9.931  0.7827  0.9845 -1.9102
  205MOL0     O28153   1.562   6.010  10.460  0.3628  0.0615 -0.1360
  205MOL0     C28154   1.515   5.929  10.542  0.2422 -0.4931 -0.6704
  205MOL0     O28155   1.385   5.903  10.556  0.1348 -0.0486 -0.7826
  205MOL0     C28156   1.288   5.924  10.457  0.4057  0.9475  0.2187
  205MOL0     C28157   1.152   5.921  10.490  0.1875  0.0192 -0.5878
  205MOL0     C28158   1.051   5.931  10.397  0.0146 -0.0495 -0.0594
  205MOL0     C28159   1.088   5.947  10.262  1.3183 -0.3245 -0.7043
  205MOL0     O28160   1.005   5.950  10.154 -0.7337  0.0499  0.5276
  205MOL0     C28161   0.863   5.906  10.172 -0.6197 -0.5534  1.1619
  205MOL0     C28162   0.805   5.845  10.039  0.0706 -0.6308  0.1205
  205MOL0     C28163   0.878   5.717  10.005 -0.3017 -0.4114  1.2837
  205MOL0     C28164   0.793   5.631   9.904 -1.2584 -0.2147 -0.6643
  205MOL0     C28165   0.850   5.498   9.874 -0.5622 -0.2829  0.2988
  205MOL0     C28166   0.922   5.419   9.991 -1.1569  0.1121 -1.1290
  205MOL0     C28167   0.821   5.387  10.099 -0.2650  1.6059 -0.1596
  205MOL0     C28168   0.885   5.314  10.219  0.4484 -0.0167 -0.3793
  205MOL0     N28169   0.959   5.408  10.310  0.0369 -0.5924 -0.4876
  205MOL0     C28170   1.097   5.418  10.338 -0.6238 -0.2306  0.0641
  205MOL0     C28171   1.106   5.519  10.429  0.7334  1.4323 -0.0488
  205MOL0     C28172   1.224   5.575  10.487 -1.4197 -0.3180  0.5658
  205MOL0     C28173   1.336   5.470  10.521 -0.1396  0.0464 -0.4579
  205MOL0     C28174   1.305   5.394  10.656 -0.1376  0.0609 -1.0964
  205MOL0     C28175   1.379   5.453  10.778  0.0431  0.3789  0.9758
  205MOL0     O28176   1.346   5.591  10.782  0.2388  0.1998  0.2211
  205MOL0     C28177   1.408   5.667  10.876 -0.3076 -0.4723  0.8375
  205MOL0     C28178   1.511   5.630  10.969  0.2050 -0.2788 -0.3441
  205MOL0     C28179   1.572   5.725  11.062 -0.8790  0.5639 -0.4175
  205MOL0     C28180   1.705   5.685  11.139  0.2378  0.5641  0.2111
  205MOL0     C28181   1.528   5.859  11.068 -0.6339 -0.6100  0.7922
  205MOL0     C28182   1.588   5.963  11.160  0.0333  0.3036  0.4203
  205MOL0     O28183   1.658   5.932  11.267  0.0443  0.3137 -0.0500
  205MOL0     C28184   1.703   6.025  11.353 -0.2189 -0.1822 -0.4558
  205MOL0     C28185   1.834   6.076  11.338  0.8599  0.3526 -0.7798
  205MOL0     C28186   1.869   6.191  11.424 -0.6391  0.0399 -0.1999
  205MOL0     C28187   1.788   6.246  11.517  0.8465 -0.6645  0.1714
  205MOL0     O28188   1.845   6.357  11.583 -0.5200 -0.4543  0.6810
  205MOL0     C28189   1.819   6.364  11.724  0.6833 -0.2035 -0.2227
  205MOL0     C28190   1.869   6.491  11.789 -0.1879  0.7735 -0.1819
  205MOL0     C28191   1.795   6.507  11.920 -0.1822  1.1582  0.5693
  205MOL0     C28192   1.807   6.651  11.974  0.3740 -0.0535  0.7110
  205MOL0     C28193   1.952   6.691  12.020 -0.1951 -0.5827  0.1821
  205MOL0     C28194   1.937   6.835  12.066  0.2979  0.2414  0.0719
  205MOL0     C28195   2.051   6.871  12.164  0.0472 -0.4838 -0.2260
  205MOL0     C28196   2.060   7.022  12.203  1.0976  0.6583  0.3923
  205MOL0    Cl28197   1.961   7.047  12.338 -0.3010  0.3856 -0.5239
  205MOL0     C28198   1.659   6.182  11.541 -0.1331 -0.3515 -0.1882
  205MOL0     C28199   1.624   6.073  11.461  0.0015  0.2267 -0.3876
  205MOL0     O28200   1.574   6.083  11.121 -1.1063  0.4456  0.0245
  205MOL0     C28201   1.433   5.892  10.966 -0.1115  0.3349 -0.3102
  205MOL0     C28202   1.374   5.803  10.878 -0.6703 -0.8508  0.0356
  205MOL0     N28203   0.985   5.574  10.446 -0.2622  0.2820  0.2955
  205MOL0     N28204   0.900   5.504  10.378  0.4718  1.0216 -0.2212
  205MOL0     C28205   1.224   5.935  10.221 -0.0455  0.2123 -0.5260
  205MOL0     C28206   1.316   5.927  10.322 -0.2486  0.2461  0.1859
  205MOL0     C28207   1.617   5.881  10.634 -0.5895  0.6722  1.2204
  205MOL0     C28208   1.650   5.747  10.625  0.0608  0.2476 -0.4069
  205MOL0     C28209   1.753   5.708  10.707  0.5519 -0.4172 -0.1563
  205MOL0     C28210   1.800   5.775  10.817 -0.1592  1.3261  0.3660
  205MOL0     O28211   1.895   5.700  10.891 -0.1151 -0.6923  0.2348
  205MOL0     C28212   1.993   5.782  10.962  0.4565  0.2380  0.0632
  205MOL0     C28213   2.105   5.848  10.876 -0.3526  0.1444 -0.0196
  205MOL0     C28214   2.242   5.844  10.948 -0.4124  0.0775  0.0692
  205MOL0     C28215   2.251   5.956  11.050 -0.6069 -0.3300 -1.4204
  205MOL0     C28216   2.193   5.904  11.173  0.0998 -0.6147  0.0938
  205MOL0     C28217   2.128   5.868  11.269  0.5256  0.5995 -0.8001
  205MOL0     C28218   1.763   5.907  10.833 -0.3928  0.2890  0.6858
  205MOL0     C28219   1.667   5.965  10.739 -0.0507 -0.4876  0.3997
  205MOL0     C28220   1.625   6.111  10.747 -0.8486 -0.0885  0.7276
  205MOL0     H28221   1.126   5.918  10.595  2.3498 -0.7193 -0.0226
  205MOL0     H28222   0.948   5.942  10.431 -0.0661 -1.0578  0.0580
  205MOL0     H28223   0.794   5.991  10.182 -3.0868 -2.3287  0.2476
  205MOL0     H28224   0.850   5.829  10.249 -1.7451  0.9214  2.5157
  205MOL0     H28225   0.702   5.816  10.062 -0.0485  1.5189  2.7626
  205MOL0     H28226   0.809   5.908   9.949 -1.0968 -1.9384 -0.8833
  205MOL0     H28227   0.976   5.743   9.964 -1.6820  3.6549  0.1079
  205MOL0     H28228   0.884   5.655  10.095 -1.1889 -1.2431  0.7843
  205MOL0     H28229   0.691   5.630   9.942 -1.6157 -1.5423 -1.5968
  205MOL0     H28230   0.785   5.686   9.809 -0.1238  2.3980  0.6564
  205MOL0     H28231   0.929   5.515   9.800 -0.2842 -3.3346 -0.2131
  205MOL0     H28232   0.774   5.434   9.830 -0.2771 -0.4291  0.0203
  205MOL0     H28233   0.974   5.329   9.957  0.0256  1.1850 -2.2653
  205MOL0     H28234   1.001   5.483  10.032 -0.4910 -1.6492  0.4843
  205MOL0     H28235   0.746   5.320  10.055  0.2169  0.8791  0.1037
  205MOL0     H28236   0.767   5.475  10.136  3.2988  3.3312  1.4092
  205MOL0     H28237   0.800   5.271  10.272 -0.3591  0.5363 -1.1969
  205MOL0     H28238   0.955   5.239  10.179  0.3836 -1.0232  1.3129
  205MOL0     H28239   1.182   5.362  10.301 -0.0932 -0.6053  1.7564
  205MOL0     H28240   1.186   5.632  10.572 -0.8951  4.6819 -2.2133
  205MOL0     H28241   1.269   5.651  10.423 -2.6584  2.6217  2.9491
  205MOL0     H28242   1.354   5.399  10.440 -1.4747 -0.0618 -0.6875
  205MOL0     H28243   1.430   5.525  10.526  0.4923 -1.0813  0.3114
  205MOL0     H28244   1.198   5.399  10.677  0.3204  0.9760  1.3563
  205MOL0     H28245   1.323   5.286  10.651  3.0051  0.1444  2.8463
  205MOL0     H28246   1.347   5.401  10.869 -0.5859  0.2134  0.6631
  205MOL0     H28247   1.488   5.442  10.771  0.1701  2.2308 -2.2861
  205MOL0     H28248   1.558   5.533  10.986 -1.3866 -0.8863  0.9602
  205MOL0     H28249   1.698   5.684  11.248 -1.8269  1.2308  0.1185
  205MOL0     H28250   1.780   5.759  11.109  0.6392  0.1098  0.0832
  205MOL0     H28251   1.749   5.590  11.108  0.9681  1.0015 -0.1320
  205MOL0     H28252   1.902   6.045  11.259  0.9764  0.2362 -0.6360
  205MOL0     H28253   1.960   6.251  11.420  0.2216 -0.8405  3.1131
  205MOL0     H28254   1.711   6.380  11.731  1.0325  1.8682  1.2158
  205MOL0     H28255   1.846   6.269  11.771 -2.2888 -2.6188 -2.9004
  205MOL0     H28256   1.975   6.479  11.813 -0.4233  1.8693  1.5023
  205MOL0     H28257   1.854   6.574  11.718  1.8997  0.5215 -1.0150
  205MOL0     H28258   1.830   6.428  11.987  3.2548 -1.9812 -4.2315
  205MOL0     H28259   1.687   6.496  11.907 -0.4931  3.9833  0.1051
  205MOL0     H28260   1.749   6.666  12.066 -1.2281 -0.2763 -0.2322
  205MOL0     H28261   1.762   6.725  11.907 -2.4499 -2.0039  0.2983
  205MOL0     H28262   1.997   6.622  12.092 -0.4041  0.1479  1.0333
  205MOL0     H28263   2.019   6.691  11.933 -2.2874 -1.0979 -1.4899
  205MOL0     H28264   1.839   6.843  12.113 -0.7506  1.9830 -2.1939
  205MOL0     H28265   1.941   6.905  11.982  0.5805 -0.8897 -0.8980
  205MOL0     H28266   2.141   6.825  12.119  1.3024 -0.2411  1.9007
  205MOL0     H28267   2.046   6.817  12.259  0.8311  0.9097  0.6470
  205MOL0     H28268   2.025   7.079  12.117 -2.7763  3.2836  3.3006
  205MOL0     H28269   2.159   7.057  12.232  1.1534  1.5190 -0.7608
  205MOL0     H28270   1.586   6.216  11.614  1.4367 -1.1059  1.8246
  205MOL0     H28271   1.524   6.031  11.466  0.2110 -0.2041  0.3059
  205MOL0     H28272   1.410   5.997  10.972  2.4581  1.2217 -3.0816
  205MOL0     H28273   1.293   5.838  10.815 -0.5532 -0.9613 -0.1752
  205MOL0     H28274   1.236   5.922  10.114 -6.9235 -3.3276 -1.4887
  205MOL0     H28275   1.409   5.882  10.289 -0.0697 -0.6008  1.7389
  205MOL0     H28276   1.592   5.693  10.551 -1.3921  1.4894 -0.2200
  205MOL0     H28277   1.793   5.607  10.695  3.9858  0.8009 -0.1140
  205MOL0     H28278   1.954   5.870  11.015  0.1113  1.1221 -1.5779
  205MOL0     H28279   2.035   5.723  11.044  5.0657  2.0847 -0.7028
  205MOL0     H28280   2.092   5.954  10.854  2.4691  0.5866  0.0667
  205MOL0     H28281   2.108   5.785  10.787  0.3540  1.6388 -1.0823
  205MOL0     H28282   2.257   5.747  10.997 -0.2891 -0.0411 -0.1971
  205MOL0     H28283   2.318   5.854  10.870  1.6372 -1.7232  1.7172
  205MOL0     H28284   2.185   6.036  11.013 -1.4973  1.0613  2.6048
  205MOL0     H28285   2.355   5.990  11.059  0.6653 -4.3287  1.8233
  205MOL0     H28286   2.074   5.847  11.359 -0.7856  1.8739 -1.2559
  205MOL0     H28287   1.825   5.959  10.904  1.2552 -0.6964  0.0227
  205MOL0     H28288   1.654   6.169  10.835 -1.3878  1.7408 -0.2338
  205MOL0     H28289   1.657   6.157  10.653  0.1344 -1.5761  0.3010
  205MOL0     H28290   1.516   6.109  10.734 -0.9811  0.8072  1.5327
  206MOL0     O28291   0.981   9.842  10.843  0.1021  0.1933 -0.0872
  206MOL0     C28292   0.893   9.872  10.924  0.5779  0.1226  0.6156
  206MOL0     O28293   0.868  10.000  10.966 -0.6122  0.4282  0.0876
  206MOL0     C28294   0.976  10.084  10.938 -0.3241 -1.0493 -0.0946
  206MOL0     C28295   0.999  10.132  10.802  1.1266  0.6559 -0.4885
  206MOL0     C28296   1.104  10.223  10.770 -0.1090  0.0457 -0.0683
  206MOL0     C28297   1.191  10.268  10.870  0.4505  0.5682 -0.4461
  206MOL0     O28298   1.283  10.376  10.868 -0.8585  1.1011  0.5456
  206MOL0     C28299   1.333  10.411  10.738 -0.5115  0.7756 -0.3898
  206MOL0     C28300   1.436  10.520  10.759 -0.1252 -0.4773 -0.1581
  206MOL0     C28301   1.491  10.580  10.638  0.0436  0.3570 -0.6009
  206MOL0     C28302   1.616  10.672  10.657  0.3390 -0.7874 -0.3742
  206MOL0     C28303   1.618  10.787  10.557  0.5529  0.0322 -0.4535
  206MOL0     C28304   1.673  10.728  10.423 -0.0036  0.2588 -0.4937
  206MOL0     C28305   1.681  10.839  10.320  0.2879  0.0621  0.2949
  206MOL0     C28306   1.585  10.820  10.202 -0.0046 -0.0453  0.2675
  206MOL0     N28307   1.441  10.800  10.235 -0.9357 -0.0143 -0.0821
  206MOL0     C28308   1.371  10.682  10.205 -0.2284  0.0200  0.1336
  206MOL0     C28309   1.248  10.694  10.265 -0.3059  1.2075 -1.1508
  206MOL0     C28310   1.144  10.583  10.282 -0.4275  0.6426  0.3412
  206MOL0     C28311   1.213  10.457  10.343 -0.1099  0.5775 -0.8303
  206MOL0     C28312   1.116  10.326  10.329  0.9039  0.6788 -0.0801
  206MOL0     C28313   1.183  10.195  10.310 -0.2596  0.4932  0.3351
  206MOL0     O28314   1.300  10.218  10.226  0.0960 -0.3527 -0.4797
  206MOL0     C28315   1.284  10.198  10.094 -0.5056 -0.9337  0.3822
  206MOL0     C28316   1.322  10.291   9.994 -0.0950  0.2737 -0.4231
  206MOL0     C28317   1.321  10.261   9.858 -1.0926 -0.3988 -0.1998
  206MOL0     C28318   1.361  10.368   9.765  0.2356 -0.2715  0.4485
  206MOL0     C28319   1.268  10.131   9.820 -1.0496 -0.3236  0.5815
  206MOL0     C28320   1.235  10.100   9.676  0.2949  0.7166 -0.1318
  206MOL0     O28321   1.216   9.960   9.648 -0.3951  0.6713 -0.2445
  206MOL0     C28322   1.202   9.927   9.517 -0.0806  0.4808  0.2424
  206MOL0     C28323   1.306   9.857   9.448  0.6598 -0.5265  0.2844
  206MOL0     C28324   1.280   9.823   9.322 -0.6129  0.1128 -0.3274
  206MOL0     C28325   1.155   9.854   9.255 -0.5105  0.5446 -0.3718
  206MOL0     O28326   1.150   9.805   9.127 -0.1187  0.5401 -0.3574
  206MOL0     C28327   1.110   9.899   9.021  0.1617  1.0556  0.0744
  206MOL0     C28328   1.030   9.822   8.918 -0.2418 -0.7529 -0.0829
  206MOL0     C28329   0.901   9.775   8.959  0.6905  0.4191  0.0702
  206MOL0     C28330   0.823   9.691   8.862 -0.5807  0.1468 -0.2879
  206MOL0     C28331   0.820   9.751   8.720  0.1054  0.4838  0.3525
  206MOL0     C28332   0.753   9.660   8.620  1.5142 -0.2465 -0.5582
  206MOL0     C28333   0.770   9.699   8.475 -0.5038  0.5598  0.6536
  206MOL0     C28334   0.667   9.799   8.423  0.1382 -0.4824 -0.3086
  206MOL0    Cl28335   0.707   9.835   8.247  0.0748  0.2080 -0.1773
  206MOL0     C28336   1.056   9.928   9.326 -0.6267 -0.3112 -0.2641
  206MOL0     C28337   1.082   9.971   9.461 -0.2210 -0.6316 -0.1194
  206MOL0     O28338   1.249  10.179   9.592  0.0140 -0.4671  0.0643
  206MOL0     C28339   1.223  10.034   9.916 -0.1213 -1.1569  0.4864
  206MOL0     C28340   1.241  10.066  10.051 -1.0489 -0.7310  0.6475
  206MOL0     N28341   1.243  10.812  10.331 -0.2196  0.1857  0.5015
  206MOL0     N28342   1.358  10.877  10.306 -0.0947  0.2215  0.1497
  206MOL0     C28343   1.173  10.211  10.997 -0.1301  0.2213 -0.6146
  206MOL0     C28344   1.069  10.123  11.034 -0.1719 -0.7388  0.4068
  206MOL0     C28345   0.800   9.774  10.981 -0.2824  0.0158  0.7114
  206MOL0     C28346   0.666   9.811  11.015 -0.2423  0.2918  0.8683
  206MOL0     C28347   0.573   9.719  11.054 -0.2817  0.5278  1.1140
  206MOL0     C28348   0.609   9.586  11.071  0.5148 -0.1048  0.0945
  206MOL0     O28349   0.531   9.488  11.107  0.7190 -0.2484 -0.3177
  206MOL0     C28350   0.402   9.507  11.168 -0.4370 -0.6032  0.4144
  206MOL0     C28351   0.298   9.510  11.059  0.5087  0.6056  0.4083
  206MOL0     C28352   0.167   9.448  11.108 -0.2172 -0.2256  0.1303
  206MOL0     C28353   0.052   9.518  11.023 -0.7141  0.2784 -1.1631
  206MOL0     C28354  -0.077   9.489  11.087 -0.5791 -0.0573  0.0973
  206MOL0     C28355  -0.184   9.451  11.126  0.2436  0.4983  0.0257
  206MOL0     C28356   0.742   9.549  11.039 -0.7052  0.3032 -0.1154
  206MOL0     C28357   0.836   9.639  11.000 -0.8496  0.1867  0.6850
  206MOL0     C28358   0.973   9.586  10.995  0.4593 -0.0184 -0.3374
  206MOL0     H28359   0.919  10.107  10.734  1.1503 -1.7967  0.3001
  206MOL0     H28360   1.099  10.274  10.675  0.9876  1.1882  0.4542
  206MOL0     H28361   1.240  10.444  10.691 -1.6757  2.3682  2.7601
  206MOL0     H28362   1.383  10.337  10.675 -0.7291  1.5018 -1.4313
  206MOL0     H28363   1.396  10.596  10.827  3.8523  2.3288 -0.6154
  206MOL0     H28364   1.523  10.481  10.812 -0.7457 -1.0904  0.4225
  206MOL0     H28365   1.516  10.498  10.571 -1.1284 -0.0994 -0.5067
  206MOL0     H28366   1.411  10.632  10.585 -0.6206 -1.0611 -1.0343
  206MOL0     H28367   1.611  10.714  10.758 -2.7304 -1.5372 -0.1339
  206MOL0     H28368   1.712  10.620  10.653  0.9917  0.3794 -0.2775
  206MOL0     H28369   1.681  10.868  10.597  1.6391 -0.7673 -0.5188
  206MOL0     H28370   1.516  10.820  10.537  0.3395 -1.0661 -1.2228
  206MOL0     H28371   1.778  10.707  10.445 -0.1353  3.3749  5.2441
  206MOL0     H28372   1.617  10.638  10.396 -0.3873 -0.1053  1.3343
  206MOL0     H28373   1.785  10.834  10.286  0.0699  0.0752 -0.3737
  206MOL0     H28374   1.671  10.937  10.368 -1.5052 -0.7423  1.6890
  206MOL0     H28375   1.586  10.909  10.138 -1.9479 -0.0831  0.1190
  206MOL0     H28376   1.620  10.741  10.134  2.3004  0.7320  0.4562
  206MOL0     H28377   1.414  10.597  10.153  0.9042  0.4483  0.3649
  206MOL0     H28378   1.083  10.566  10.193  2.2465  0.9905 -1.6842
  206MOL0     H28379   1.076  10.632  10.353  0.7149  1.2073  1.0701
  206MOL0     H28380   1.312  10.438  10.299  1.4621  0.6243  2.3682
  206MOL0     H28381   1.223  10.462  10.452 -0.5695 -1.0644 -0.6866
  206MOL0     H28382   1.053  10.307  10.417  2.4152 -2.0052  0.5085
  206MOL0     H28383   1.043  10.332  10.248  0.6807 -1.8182 -0.1385
  206MOL0     H28384   1.210  10.158  10.409  0.5457  0.3176  0.0628
  206MOL0     H28385   1.112  10.130  10.258  0.7575  0.3658 -0.9495
  206MOL0     H28386   1.349  10.390  10.029  1.8878 -0.1957 -0.5503
  206MOL0     H28387   1.273  10.397   9.707  1.2157  0.3982 -0.7466
  206MOL0     H28388   1.437  10.340   9.691  4.1925  2.0106  3.3162
  206MOL0     H28389   1.385  10.460   9.817 -0.5352  1.7966 -2.5616
  206MOL0     H28390   1.396   9.814   9.490  1.2772  0.0704 -0.3975
  206MOL0     H28391   1.344   9.769   9.253 -1.3389 -0.5154 -0.5264
  206MOL0     H28392   1.046   9.978   9.061 -1.3947 -0.4447  0.6997
  206MOL0     H28393   1.204   9.937   8.979  2.3903 -1.6410  2.2411
  206MOL0     H28394   1.021   9.891   8.834 -1.7233  0.0000  0.6532
  206MOL0     H28395   1.090   9.736   8.887 -0.2641 -0.6826 -0.3170
  206MOL0     H28396   0.842   9.865   8.977  1.9697  1.4914 -0.8841
  206MOL0     H28397   0.905   9.715   9.050 -3.7220  0.1348  0.3065
  206MOL0     H28398   0.722   9.666   8.897  1.0105 -6.1554  1.1942
  206MOL0     H28399   0.873   9.594   8.854  0.1405  0.5265 -0.4043
  206MOL0     H28400   0.773   9.850   8.718 -3.7278 -1.0833  3.0812
  206MOL0     H28401   0.919   9.766   8.674 -0.9806 -0.3265 -2.4748
  206MOL0     H28402   0.645   9.669   8.639  1.0600  0.6888 -3.1103
  206MOL0     H28403   0.789   9.561   8.646  2.0644  0.0177 -0.3000
  206MOL0     H28404   0.742   9.607   8.423 -0.8253  1.5986 -1.0884
  206MOL0     H28405   0.868   9.735   8.442 -0.3269  1.6367  2.2204
  206MOL0     H28406   0.683   9.886   8.488 -2.7796  0.0485 -0.1304
  206MOL0     H28407   0.564   9.761   8.429  0.2328 -0.6303  0.5157
  206MOL0     H28408   0.972   9.959   9.266  0.9092  3.6107 -0.7396
  206MOL0     H28409   1.014  10.039   9.512 -1.7617 -1.8167 -0.4903
  206MOL0     H28410   1.190   9.935   9.886 -1.1570 -0.4565 -0.8028
  206MOL0     H28411   1.236   9.987  10.125 -0.4686  1.2553  2.9124
  206MOL0     H28412   1.232  10.255  11.077 -0.8476  0.9177 -0.4536
  206MOL0     H28413   1.046  10.114  11.140 -1.2979 -0.7428  0.1811
  206MOL0     H28414   0.633   9.912  10.991 -0.5835 -0.2003 -0.8722
  206MOL0     H28415   0.468   9.747  11.061 -0.7803 -0.5449 -0.9503
  206MOL0     H28416   0.383   9.417  11.227 -0.3657  0.5915  2.3281
  206MOL0     H28417   0.379   9.587  11.239 -3.8261  1.0769 -2.2725
  206MOL0     H28418   0.334   9.464  10.967  0.1223 -1.2469  1.1397
  206MOL0     H28419   0.286   9.616  11.035 -2.2647  0.1347 -0.6430
  206MOL0     H28420   0.168   9.341  11.083 -0.6602  0.2448 -2.1314
  206MOL0     H28421   0.147   9.462  11.215  1.9841  0.4182  0.5011
  206MOL0     H28422   0.061   9.482  10.919 -0.9836 -1.8142 -0.5205
  206MOL0     H28423   0.064   9.626  11.026 -2.1640  0.4517 -0.6374
  206MOL0     H28424  -0.274   9.399  11.151  2.1543 -2.9089  0.5192
  206MOL0     H28425   0.756   9.442  11.044  2.2595  0.4443 -2.5111
  206MOL0     H28426   1.051   9.663  10.995 -0.1948  0.6681 -1.4343
  206MOL0     H28427   1.006   9.523  11.078  2.0703  0.2350 -0.7310
  206MOL0     H28428   0.992   9.521  10.909  1.6767 -1.1384  0.7383
  207MOL0     O28429   9.675   2.421   9.076  0.1019  0.6250 -0.4953
  207MOL0     C28430   9.679   2.535   9.109  0.2557 -1.2956  0.4910
  207MOL0     O28431   9.705   2.628   9.019 -0.3941 -0.6554 -0.1356
  207MOL0     C28432   9.729   2.607   8.879  0.6384 -0.1005  0.3024
  207MOL0     C28433   9.801   2.703   8.812  0.2168 -1.0843  0.6337
  207MOL0     C28434   9.818   2.723   8.670 -0.1342 -0.3274 -0.2648
  207MOL0     C28435   9.764   2.617   8.591 -0.7665  0.1763  0.5943
  207MOL0     O28436   9.754   2.633   8.450 -0.5931  0.4469 -0.4153
  207MOL0     C28437   9.710   2.540   8.362  0.8271 -1.0341 -0.3031
  207MOL0     C28438   9.685   2.600   8.221 -0.9113 -0.5903  0.3175
  207MOL0     C28439   9.819   2.631   8.155 -0.1189 -0.8575 -0.2828
  207MOL0     C28440   9.791   2.677   8.009  0.0143  0.3868 -0.6951
  207MOL0     C28441   9.756   2.820   7.990  0.4124  1.9558  0.2328
  207MOL0     C28442   9.847   2.926   8.048  0.7646  0.1492  0.0125
  207MOL0     C28443   9.998   2.923   8.013 -0.0589  0.2370 -0.6440
  207MOL0     C28444  10.062   3.046   8.066  0.2108 -0.6654  0.6483
  207MOL0     N28445  10.208   3.033   8.070 -0.9510 -0.1688 -0.4869
  207MOL0     C28446  10.295   3.129   8.037 -0.7529 -0.3297 -0.3499
  207MOL0     C28447  10.404   3.124   8.122 -0.1880 -0.8623  0.8030
  207MOL0     C28448  10.522   3.220   8.137  0.9748 -0.7108  0.1873
  207MOL0     C28449  10.479   3.347   8.206 -0.2231 -0.0923 -0.4734
  207MOL0     C28450  10.604   3.435   8.224  0.3096 -0.0778  1.4079
  207MOL0     C28451  10.581   3.548   8.328 -0.4513  0.1680 -0.5152
  207MOL0     O28452  10.705   3.611   8.367 -0.3187 -0.5427 -0.0357
  207MOL0     C28453  10.706   3.749   8.361 -0.2759 -0.5045  0.5927
  207MOL0     C28454  10.597   3.829   8.398  0.2488 -0.4263 -0.2472
  207MOL0     C28455  10.603   3.974   8.391 -0.4136 -0.2969 -0.0199
  207MOL0     C28456  10.482   4.058   8.417  0.7426 -1.0570 -0.6571
  207MOL0     C28457  10.727   4.030   8.360 -0.1004 -0.5103  0.3919
  207MOL0     C28458  10.757   4.183   8.361  0.0904  0.1884  0.8660
  207MOL0     O28459  10.660   4.259   8.414  0.0755  0.5416 -0.6408
  207MOL0     C28460  10.689   4.389   8.423  0.6991  0.5787  0.4186
  207MOL0     C28461  10.613   4.462   8.322  1.4338 -0.0202 -1.1111
  207MOL0     C28462  10.629   4.605   8.313 -0.1223 -0.2975  0.6826
  207MOL0     C28463  10.726   4.676   8.394  0.3518  1.0906  0.2475
  207MOL0     O28464  10.746   4.808   8.399 -0.0356 -0.0388  0.3994
  207MOL0     C28465  10.749   4.868   8.269  1.0300 -0.3807 -0.3957
  207MOL0     C28466  10.856   4.970   8.275 -0.0213  0.5308 -0.0216
  207MOL0     C28467  10.877   5.044   8.147  0.7740  0.6776  0.1311
  207MOL0     C28468  11.008   5.124   8.163 -0.1628  0.1856 -0.3210
  207MOL0     C28469  11.024   5.182   8.022  0.3390  0.2239  0.3294
  207MOL0     C28470  10.931   5.297   7.979 -0.1370  0.7671 -0.0619
  207MOL0     C28471  11.016   5.428   7.955 -0.0161  0.2546 -0.6021
  207MOL0     C28472  10.957   5.516   7.840  0.4605 -1.1382 -0.9148
  207MOL0    Cl28473  11.069   5.544   7.692  0.0023  0.4454 -0.4529
  207MOL0     C28474  10.796   4.603   8.492 -0.0739  1.1240 -0.0177
  207MOL0     C28475  10.785   4.462   8.495 -1.3905 -0.2300  0.2924
  207MOL0     O28476  10.859   4.223   8.312  0.7858  0.8650  0.3476
  207MOL0     C28477  10.833   3.946   8.328  0.2682 -0.3861  0.1309
  207MOL0     C28478  10.824   3.813   8.322 -0.0970  0.2963 -0.0225
  207MOL0     N28479  10.383   3.002   8.199 -0.0744 -1.1264  0.1820
  207MOL0     N28480  10.265   2.952   8.172 -0.4272  0.1702  0.2865
  207MOL0     C28481   9.682   2.517   8.657  0.2656  0.3368 -0.1286
  207MOL0     C28482   9.661   2.512   8.795  0.4170 -0.3255  0.6054
  207MOL0     C28483   9.666   2.550   9.253  0.3269  0.1297 -0.4251
  207MOL0     C28484   9.666   2.434   9.336  0.3072  0.0073  0.0686
  207MOL0     C28485   9.678   2.452   9.476  0.2199 -0.1326 -0.2248
  207MOL0     C28486   9.691   2.582   9.531 -0.5918  0.8300 -0.3256
  207MOL0     O28487   9.720   2.591   9.668  0.7585 -0.4896  0.4301
  207MOL0     C28488   9.782   2.483   9.734  0.0924  0.2352 -0.2868
  207MOL0     C28489   9.803   2.538   9.879 -0.3667  0.0783 -0.0327
  207MOL0     C28490   9.661   2.573   9.943  1.2107 -0.2360  0.5166
  207MOL0     C28491   9.668   2.577  10.101  0.1307 -0.6930 -0.2827
  207MOL0     C28492   9.531   2.577  10.145  1.1063 -0.4611 -0.1344
  207MOL0     C28493   9.417   2.575  10.181 -0.1407 -0.1938  0.0203
  207MOL0     C28494   9.665   2.690   9.452 -0.2477 -0.0229  0.5741
  207MOL0     C28495   9.664   2.680   9.312  0.3496 -0.6158  0.5942
  207MOL0     C28496   9.666   2.801   9.230 -0.7864 -0.4161  0.2302
  207MOL0     H28497   9.828   2.790   8.872 -1.5047 -0.6478  0.8433
  207MOL0     H28498   9.863   2.813   8.629 -0.5664 -0.5474 -1.2338
  207MOL0     H28499   9.618   2.494   8.399 -0.9120  1.8773 -0.7408
  207MOL0     H28500   9.782   2.458   8.353  0.9415 -0.7383 -2.7687
  207MOL0     H28501   9.633   2.518   8.169 -2.6842  0.6552  0.0361
  207MOL0     H28502   9.622   2.687   8.240 -0.4622 -0.6095  2.0322
  207MOL0     H28503   9.868   2.712   8.210  0.9172 -1.5758 -0.1078
  207MOL0     H28504   9.874   2.537   8.168 -0.9179 -0.9377  3.8906
  207MOL0     H28505   9.884   2.659   7.954 -0.7200 -0.1228 -1.8111
  207MOL0     H28506   9.716   2.617   7.958 -0.2928  3.8525 -4.9037
  207MOL0     H28507   9.656   2.835   8.033  0.4568  2.3976  0.1780
  207MOL0     H28508   9.749   2.841   7.882 -2.9728  0.9118  0.1191
  207MOL0     H28509   9.811   3.022   8.010 -0.3156 -0.7534 -1.3721
  207MOL0     H28510   9.820   2.927   8.154 -2.0825  1.4710 -0.6334
  207MOL0     H28511  10.007   2.915   7.904  1.5922 -3.1480 -0.3649
  207MOL0     H28512  10.048   2.840   8.063  1.7979  0.3899 -2.1286
  207MOL0     H28513  10.019   3.126   8.005 -1.7768  0.4101  3.2256
  207MOL0     H28514  10.017   3.065   8.164 -0.9427 -0.6082  0.1316
  207MOL0     H28515  10.266   3.209   7.969  1.9350 -1.0176 -2.4816
  207MOL0     H28516  10.572   3.240   8.041  1.5963 -3.4015 -0.1260
  207MOL0     H28517  10.600   3.161   8.186  0.2329 -0.6901  1.4346
  207MOL0     H28518  10.394   3.388   8.150 -2.2105 -1.9174  1.0146
  207MOL0     H28519  10.445   3.317   8.306  0.9545 -0.3737 -0.1361
  207MOL0     H28520  10.684   3.373   8.266  1.8252  2.3696  2.3809
  207MOL0     H28521  10.645   3.477   8.132 -0.1090 -1.4848  0.5497
  207MOL0     H28522  10.515   3.618   8.275  1.7093  2.3561 -0.4993
  207MOL0     H28523  10.539   3.495   8.414 -0.9852  1.2976 -0.0597
  207MOL0     H28524  10.505   3.780   8.429 -1.0683  2.5307  0.8234
  207MOL0     H28525  10.397   3.995   8.446  1.2483 -1.9402 -1.0549
  207MOL0     H28526  10.460   4.120   8.330  2.2353  1.1364  0.4394
  207MOL0     H28527  10.491   4.124   8.504  0.9113  0.0290 -1.4962
  207MOL0     H28528  10.538   4.405   8.269  1.6753  0.2104 -1.7085
  207MOL0     H28529  10.562   4.666   8.253 -0.8178 -1.7907 -0.1213
  207MOL0     H28530  10.780   4.795   8.195  0.1352 -0.3292 -0.8440
  207MOL0     H28531  10.651   4.909   8.241  1.5256 -1.0560 -3.4604
  207MOL0     H28532  10.832   5.033   8.361 -2.9223  0.8088 -0.9155
  207MOL0     H28533  10.955   4.932   8.302  0.7304  0.9650 -1.9883
  207MOL0     H28534  10.789   5.110   8.146  0.5959  0.4395 -0.1966
  207MOL0     H28535  10.875   4.996   8.048 -0.3059  4.4035 -1.8564
  207MOL0     H28536  11.086   5.051   8.188  0.0332 -0.0954 -1.6744
  207MOL0     H28537  10.991   5.198   8.242 -1.3008 -0.5556  0.1645
  207MOL0     H28538  11.131   5.206   8.014  0.8354 -2.1343 -1.5680
  207MOL0     H28539  11.017   5.104   7.945  0.8673  0.5290 -0.0357
  207MOL0     H28540  10.856   5.309   8.057 -1.8039 -0.5574 -1.3946
  207MOL0     H28541  10.871   5.265   7.893  1.4988  0.2270 -1.0549
  207MOL0     H28542  11.117   5.398   7.924  0.3292  1.0691 -0.2990
  207MOL0     H28543  10.996   5.474   8.052 -1.7870  0.9463 -1.2593
  207MOL0     H28544  10.933   5.617   7.873  0.1367 -1.9397  1.5235
  207MOL0     H28545  10.865   5.477   7.795  1.1031  0.2088 -3.5995
  207MOL0     H28546  10.858   4.653   8.565  0.9571  0.5546 -0.4821
  207MOL0     H28547  10.845   4.419   8.575 -0.0244 -0.4479 -0.8053
  207MOL0     H28548  10.932   3.984   8.306  0.0947 -0.8609 -1.6904
  207MOL0     H28549  10.910   3.751   8.301 -0.5358 -0.9292  1.5993
  207MOL0     H28550   9.622   2.456   8.592  1.7297 -0.9942 -0.2939
  207MOL0     H28551   9.602   2.434   8.842  1.6487 -0.0569  2.7167
  207MOL0     H28552   9.635   2.339   9.295 -0.7309  0.8899 -1.2730
  207MOL0     H28553   9.678   2.356   9.526 -3.6661 -1.2599 -1.9368
  207MOL0     H28554   9.734   2.385   9.736  2.6383 -1.1210  2.4327
  207MOL0     H28555   9.878   2.481   9.681  0.3104 -0.3294  0.1102
  207MOL0     H28556   9.876   2.619   9.886  0.8279 -1.0567  1.9551
  207MOL0     H28557   9.844   2.459   9.943  0.7477  1.0945  0.5572
  207MOL0     H28558   9.626   2.668   9.901  1.0515 -0.6143 -0.2188
  207MOL0     H28559   9.600   2.489   9.907 -2.2004  2.1263  0.3359
  207MOL0     H28560   9.708   2.677  10.121  2.1589 -1.6904  1.0338
  207MOL0     H28561   9.730   2.492  10.134 -0.0757 -0.5473  0.4847
  207MOL0     H28562   9.319   2.565  10.221 -0.9940  0.1884 -1.8415
  207MOL0     H28563   9.668   2.785   9.503  0.1804 -1.6011  3.7370
  207MOL0     H28564   9.668   2.890   9.294 -0.4934 -1.3381  1.5558
  207MOL0     H28565   9.751   2.816   9.163 -0.2788  0.5758  1.0582
  207MOL0     H28566   9.579   2.797   9.164 -0.3715  1.2199 -0.4609
  208MOL0     O28567   6.437   5.259   6.093 -0.1137 -0.1079  0.3438
  208MOL0     C28568   6.317   5.257   6.106 -0.2195 -0.5992 -0.3134
  208MOL0     O28569   6.258   5.235   6.225 -0.5277  0.6423 -0.2252
  208MOL0     C28570   6.329   5.158   6.329  0.4323 -0.9634 -1.2363
  208MOL0     C28571   6.399   5.042   6.296  0.1822  1.2079 -0.8340
  208MOL0     C28572   6.483   4.984   6.390 -0.2826  0.9193  0.3747
  208MOL0     C28573   6.502   5.045   6.519 -0.5492 -0.8324  0.3324
  208MOL0     O28574   6.560   4.985   6.628 -0.0923 -0.3550  0.0782
  208MOL0     C28575   6.692   5.035   6.663  0.9538  0.6644  0.0956
  208MOL0     C28576   6.802   4.959   6.582 -0.6811 -0.8867 -0.3330
  208MOL0     C28577   6.933   5.001   6.642  0.1898  0.7168  0.4365
  208MOL0     C28578   7.050   4.906   6.596 -0.8966 -0.4709 -0.2218
  208MOL0     C28579   7.146   4.980   6.500  0.1042 -0.2759  0.1670
  208MOL0     C28580   7.267   4.904   6.475 -0.4912 -0.1110 -0.0050
  208MOL0     C28581   7.385   5.002   6.431  0.6562  0.2943  0.0998
  208MOL0     C28582   7.525   4.944   6.453 -0.0710  1.4394  0.8166
  208MOL0     N28583   7.537   4.823   6.371 -0.3884  0.3290  0.1545
  208MOL0     C28584   7.578   4.706   6.425 -0.1993  0.7089  0.2519
  208MOL0     C28585   7.616   4.630   6.320 -0.3643 -0.4382 -0.3037
  208MOL0     C28586   7.664   4.495   6.324 -0.5939  0.2059 -0.1147
  208MOL0     C28587   7.558   4.401   6.390 -0.4549  0.4328  1.0499
  208MOL0     C28588   7.434   4.390   6.298  0.2319 -0.2205  0.9208
  208MOL0     C28589   7.310   4.316   6.355  0.7345 -0.5229  0.7445
  208MOL0     O28590   7.204   4.329   6.253 -0.0518 -0.4402  0.1119
  208MOL0     C28591   7.120   4.225   6.242 -0.0970  1.0247 -0.1773
  208MOL0     C28592   7.078   4.200   6.111 -0.3224 -0.6524 -1.4079
  208MOL0     C28593   6.976   4.099   6.074  0.2643  0.4335 -0.5390
  208MOL0     C28594   6.941   4.070   5.931 -0.3150 -0.3801  0.4364
  208MOL0     C28595   6.941   4.003   6.179 -0.1125 -0.3540  0.0967
  208MOL0     C28596   6.857   3.886   6.165  0.2673 -0.0009  0.0432
  208MOL0     O28597   6.756   3.882   6.067  0.2601 -0.4157  0.3241
  208MOL0     C28598   6.702   3.756   6.041 -0.0401 -0.5987  0.9197
  208MOL0     C28599   6.776   3.666   5.959  0.7416 -0.7301  0.3527
  208MOL0     C28600   6.727   3.541   5.952  0.0320 -0.5902 -0.2233
  208MOL0     C28601   6.598   3.506   6.009  0.4486 -0.8080 -0.5977
  208MOL0     O28602   6.548   3.382   6.000  0.0077 -0.2017 -0.5336
  208MOL0     C28603   6.634   3.267   5.970  0.6576 -0.0924 -1.0359
  208MOL0     C28604   6.618   3.218   5.830 -0.3114 -0.2005 -0.6129
  208MOL0     C28605   6.715   3.108   5.783  0.3197  0.8873  0.1154
  208MOL0     C28606   6.736   3.002   5.893 -0.3116  1.1121 -0.1272
  208MOL0     C28607   6.616   2.910   5.926  0.4055 -0.5038 -0.3403
  208MOL0     C28608   6.559   2.855   5.798  0.9077 -0.5835  0.0074
  208MOL0     C28609   6.464   2.735   5.825  0.0172 -0.2300  0.5384
  208MOL0     C28610   6.346   2.772   5.912 -0.0250 -0.2631  1.4367
  208MOL0    Cl28611   6.251   2.907   5.826  0.4378 -0.1911 -0.4157
  208MOL0     C28612   6.522   3.601   6.072  0.1088 -1.0024  0.7588
  208MOL0     C28613   6.584   3.718   6.103  0.2593  0.1376 -0.2086
  208MOL0     O28614   6.875   3.797   6.246 -0.2756 -0.0381  0.8751
  208MOL0     C28615   6.991   4.024   6.314 -0.2604  0.3425 -0.1154
  208MOL0     C28616   7.078   4.132   6.340  0.4652  0.5887 -0.0665
  208MOL0     N28617   7.633   4.712   6.220 -0.8037 -0.3197  0.0550
  208MOL0     N28618   7.584   4.819   6.245 -0.2157  0.0347 -0.2462
  208MOL0     C28619   6.432   5.168   6.545 -0.8900 -0.3797 -0.0267
  208MOL0     C28620   6.339   5.218   6.453 -0.4913  0.6956  0.4686
  208MOL0     C28621   6.242   5.303   5.988  0.7800  0.1945  0.2594
  208MOL0     C28622   6.117   5.246   5.975  0.4717  0.0962 -0.5759
  208MOL0     C28623   6.022   5.279   5.874 -0.4249 -1.3416  0.0659
  208MOL0     C28624   6.049   5.384   5.782  0.6851  0.1047  0.7233
  208MOL0     O28625   5.959   5.424   5.687 -0.3495 -0.1325  0.1261
  208MOL0     C28626   5.888   5.318   5.614  0.8850 -0.6398 -0.7496
  208MOL0     C28627   5.742   5.349   5.653 -0.1519  0.5437  0.0503
  208MOL0     C28628   5.648   5.235   5.598 -0.0697  0.6781  0.8330
  208MOL0     C28629   5.614   5.259   5.451  0.9062  0.8128  0.0643
  208MOL0     C28630   5.707   5.190   5.366  0.6014  0.4499  0.3038
  208MOL0     C28631   5.790   5.113   5.310 -0.2411  0.9913  0.7421
  208MOL0     C28632   6.172   5.437   5.795  0.5211  0.0111 -0.0589
  208MOL0     C28633   6.280   5.392   5.878 -0.4031  0.2844 -0.5901
  208MOL0     C28634   6.422   5.457   5.879 -0.2418 -0.0749 -0.5434
  208MOL0     H28635   6.375   5.006   6.196 -3.4809 -0.0184  0.2965
  208MOL0     H28636   6.516   4.881   6.380 -1.5112  0.6373 -1.2135
  208MOL0     H28637   6.710   5.009   6.768  0.6754 -0.7415 -0.1893
  208MOL0     H28638   6.721   5.139   6.647 -1.4517  1.8373  2.6239
  208MOL0     H28639   6.780   4.852   6.595  2.2380 -1.3690  1.6248
  208MOL0     H28640   6.801   4.990   6.477  1.1602  2.9655  0.6150
  208MOL0     H28641   6.942   5.101   6.599 -1.6739 -0.7567 -4.0168
  208MOL0     H28642   6.916   5.007   6.750 -3.5044 -1.9074  0.1966
  208MOL0     H28643   7.116   4.871   6.675  0.2785  1.4154 -0.3167
  208MOL0     H28644   6.998   4.819   6.554 -1.5564  0.7157 -1.9778
  208MOL0     H28645   7.170   5.081   6.536  0.0331  0.1558 -0.9705
  208MOL0     H28646   7.102   4.982   6.400  0.8674 -0.9736 -0.1939
  208MOL0     H28647   7.298   4.868   6.574 -2.1791 -0.0542  0.5770
  208MOL0     H28648   7.242   4.831   6.397 -0.5188 -2.4805  2.1054
  208MOL0     H28649   7.397   5.086   6.500  0.7970  1.8497 -1.7492
  208MOL0     H28650   7.365   5.035   6.329  0.7647  0.1666  0.0363
  208MOL0     H28651   7.595   5.020   6.417  2.5559 -0.2823  1.9833
  208MOL0     H28652   7.541   4.913   6.557 -0.1448 -0.3575  0.3208
  208MOL0     H28653   7.558   4.673   6.526  0.3934 -1.5789 -0.3370
  208MOL0     H28654   7.757   4.487   6.381 -0.2112  1.5995 -0.5092
  208MOL0     H28655   7.690   4.458   6.224 -2.2222  0.5719 -0.7045
  208MOL0     H28656   7.610   4.304   6.389  1.2093  1.2721  0.0065
  208MOL0     H28657   7.526   4.437   6.487 -2.2936  0.0425  0.6166
  208MOL0     H28658   7.401   4.488   6.264  2.1669  0.6652  1.4138
  208MOL0     H28659   7.456   4.324   6.214  0.4434  1.6280 -0.5428
  208MOL0     H28660   7.328   4.212   6.382  0.0418 -0.2410  2.3925
  208MOL0     H28661   7.277   4.375   6.440  1.2917 -0.2772  0.7922
  208MOL0     H28662   7.123   4.263   6.035 -0.2241 -0.0484 -0.8539
  208MOL0     H28663   6.967   3.966   5.910  0.6902 -0.0967  0.2683
  208MOL0     H28664   6.994   4.141   5.867 -3.9675  1.5779 -0.6938
  208MOL0     H28665   6.837   4.094   5.907  0.6020  2.9080 -0.8205
  208MOL0     H28666   6.868   3.685   5.905  0.3146  1.5631  0.3354
  208MOL0     H28667   6.781   3.468   5.893 -3.1182 -4.2669  0.9685
  208MOL0     H28668   6.737   3.299   5.992  0.9512 -0.0911 -2.3233
  208MOL0     H28669   6.615   3.187   6.043  2.7692 -2.9815 -3.3745
  208MOL0     H28670   6.515   3.181   5.827  0.0502 -1.6782  2.0633
  208MOL0     H28671   6.630   3.301   5.760  1.5925  0.5741  0.5584
  208MOL0     H28672   6.809   3.155   5.751 -0.7477  3.8014  0.9723
  208MOL0     H28673   6.680   3.062   5.690  1.4303 -2.5054  1.2365
  208MOL0     H28674   6.781   3.063   5.972  0.4549  0.5762 -0.1310
  208MOL0     H28675   6.824   2.941   5.867  0.9822  2.2423  1.3797
  208MOL0     H28676   6.656   2.835   5.994  2.2813  1.9289  1.3828
  208MOL0     H28677   6.537   2.967   5.976 -0.1884 -2.5241  1.1743
  208MOL0     H28678   6.631   2.815   5.726 -0.4741  0.5387 -2.1363
  208MOL0     H28679   6.504   2.924   5.733 -0.6430 -1.7237  0.0611
  208MOL0     H28680   6.506   2.644   5.869 -1.9011 -1.7954 -0.7075
  208MOL0     H28681   6.426   2.709   5.726  1.4364 -1.9201  0.3844
  208MOL0     H28682   6.384   2.810   6.008  1.4535 -2.3868  1.7675
  208MOL0     H28683   6.294   2.677   5.929  3.7067 -2.4831  1.5241
  208MOL0     H28684   6.423   3.574   6.108  0.1112 -4.0179 -1.1321
  208MOL0     H28685   6.517   3.785   6.155  0.6465 -0.7247  1.4785
  208MOL0     H28686   6.958   3.951   6.388 -1.0908 -3.9328 -4.2314
  208MOL0     H28687   7.120   4.156   6.437  1.5943  0.6636 -0.5494
  208MOL0     H28688   6.422   5.210   6.644 -2.7707  0.0355 -0.3514
  208MOL0     H28689   6.281   5.308   6.470 -0.5146  0.6987  0.3771
  208MOL0     H28690   6.096   5.180   6.059 -0.1675 -0.0785 -0.8723
  208MOL0     H28691   5.936   5.212   5.872 -0.9538 -0.6516 -0.6921
  208MOL0     H28692   5.912   5.330   5.508  2.8737  0.4987 -0.2304
  208MOL0     H28693   5.938   5.224   5.641  3.4553  1.3825  2.2467
  208MOL0     H28694   5.702   5.441   5.610 -1.5411  0.2273  0.5797
  208MOL0     H28695   5.756   5.354   5.762  0.7034 -1.1662  0.0547
  208MOL0     H28696   5.681   5.131   5.600  2.4020  1.3161 -1.3122
  208MOL0     H28697   5.551   5.251   5.647  0.6157  3.1347  1.5396
  208MOL0     H28698   5.605   5.364   5.422  2.1546  1.4686  1.8777
  208MOL0     H28699   5.519   5.210   5.424  1.6843 -0.8339  0.1927
  208MOL0     H28700   5.862   5.048   5.264 -0.1712  0.0783  2.0875
  208MOL0     H28701   6.191   5.528   5.739  0.2174 -0.3490 -0.7650
  208MOL0     H28702   6.463   5.508   5.792  0.4640 -2.6743 -1.8436
  208MOL0     H28703   6.424   5.524   5.965 -1.4031 -0.6201 -0.0630
  208MOL0     H28704   6.502   5.384   5.890  1.1298  1.5763  0.8580
  209MOL0     O28705   2.639   3.898   4.682  0.5690 -0.2630 -0.0046
  209MOL0     C28706   2.519   3.919   4.707 -0.0170 -0.8061 -0.2321
  209MOL0     O28707   2.429   3.950   4.614  0.1182  0.2557  0.1913
  209MOL0     C28708   2.479   4.012   4.498  0.8475 -1.1648 -0.6980
  209MOL0     C28709   2.502   3.939   4.382  1.1468  0.2093 -0.0571
  209MOL0     C28710   2.560   3.995   4.270  0.1083 -0.4963 -0.1936
  209MOL0     C28711   2.589   4.131   4.271  0.5542 -1.3432  0.1106
  209MOL0     O28712   2.631   4.210   4.167 -0.3676  0.3049  0.4387
  209MOL0     C28713   2.665   4.131   4.056 -0.2647  0.5700 -0.2316
  209MOL0     C28714   2.706   4.215   3.936 -0.1286  0.7880 -0.8837
  209MOL0     C28715   2.594   4.251   3.846  0.4796 -0.9196 -0.4863
  209MOL0     C28716   2.550   4.149   3.743 -0.5387 -0.8447 -0.2780
  209MOL0     C28717   2.426   4.202   3.670 -0.8113 -0.7089 -0.3210
  209MOL0     C28718   2.447   4.322   3.582  0.0138 -0.1592 -0.0104
  209MOL0     C28719   2.323   4.382   3.541 -0.9575  0.1880 -0.1863
  209MOL0     C28720   2.266   4.320   3.412  1.4211 -0.7958  0.9139
  209MOL0     N28721   2.126   4.365   3.403 -0.0446  0.0983 -0.1322
  209MOL0     C28722   2.033   4.364   3.515 -0.3941 -0.6091 -0.1083
  209MOL0     C28723   1.940   4.453   3.470 -0.3748 -0.5259 -1.2763
  209MOL0     C28724   1.819   4.496   3.555 -0.2736  0.5065  0.3276
  209MOL0     C28725   1.770   4.387   3.664 -1.0195  0.0628  0.6758
  209MOL0     C28726   1.661   4.303   3.600  0.1553  0.2732  0.3530
  209MOL0     C28727   1.593   4.195   3.687  0.8524  0.1970 -0.1124
  209MOL0     O28728   1.551   4.078   3.610  0.3803 -0.3900 -0.4898
  209MOL0     C28729   1.447   4.087   3.522  0.4750 -0.6916  0.5378
  209MOL0     C28730   1.337   4.178   3.529 -1.6317 -0.4479  0.1870
  209MOL0     C28731   1.237   4.198   3.430 -0.2723  0.0794  0.5876
  209MOL0     C28732   1.143   4.310   3.447  0.0735 -0.2993 -0.3691
  209MOL0     C28733   1.242   4.099   3.325  0.4711  0.4021  0.1290
  209MOL0     C28734   1.139   4.089   3.217  0.3358  0.2600 -1.0187
  209MOL0     O28735   1.096   3.963   3.190  0.0609 -0.0361 -0.1747
  209MOL0     C28736   1.014   3.948   3.077  0.7615 -1.2159 -0.0825
  209MOL0     C28737   0.880   3.900   3.090  0.2791 -1.1348 -0.4910
  209MOL0     C28738   0.801   3.877   2.980 -0.5256  0.0913  0.5397
  209MOL0     C28739   0.855   3.915   2.854  0.3935 -0.2174  0.5402
  209MOL0     O28740   0.784   3.906   2.731  0.0902  0.0532 -1.4032
  209MOL0     C28741   0.646   3.852   2.734  0.3049  0.4356  0.8783
  209MOL0     C28742   0.614   3.816   2.591  0.0001 -0.0415 -0.2470
  209MOL0     C28743   0.459   3.788   2.586  0.0959 -0.1520 -0.7100
  209MOL0     C28744   0.418   3.757   2.442  0.3607 -0.4909  0.4310
  209MOL0     C28745   0.430   3.870   2.337  0.7328  0.2104 -0.6141
  209MOL0     C28746   0.354   3.841   2.208 -0.1048  0.0242 -0.1073
  209MOL0     C28747   0.365   3.960   2.110  0.2074  0.2774  0.8634
  209MOL0     C28748   0.487   3.944   2.015  0.1430  0.0828 -0.2269
  209MOL0    Cl28749   0.479   4.056   1.880  0.0641  0.3702 -0.2101
  209MOL0     C28750   0.982   3.969   2.842  0.1555 -0.1942 -0.2298
  209MOL0     C28751   1.060   3.983   2.952  1.0241  0.0106 -0.8618
  209MOL0     O28752   1.097   4.197   3.168  0.3351 -0.5142 -0.0812
  209MOL0     C28753   1.351   4.011   3.314 -0.0251  0.4127  0.6844
  209MOL0     C28754   1.455   4.006   3.410  0.9492  0.4677  0.2504
  209MOL0     N28755   1.970   4.491   3.341  0.8505 -0.1939  0.0258
  209MOL0     N28756   2.074   4.438   3.303 -0.1305 -0.5392  0.1380
  209MOL0     C28757   2.568   4.204   4.391 -0.5567 -0.2016  0.0290
  209MOL0     C28758   2.514   4.146   4.507  0.4262 -0.1563  0.2812
  209MOL0     C28759   2.467   3.878   4.839  0.3724 -0.2734  0.3896
  209MOL0     C28760   2.333   3.835   4.843  1.5030 -0.4483  0.1195
  209MOL0     C28761   2.266   3.791   4.962 -0.2594 -1.0190  0.7102
  209MOL0     C28762   2.352   3.770   5.075  0.5709  1.1561 -0.8677
  209MOL0     O28763   2.296   3.684   5.167  0.2366 -0.0486 -0.1174
  209MOL0     C28764   2.296   3.739   5.300 -0.7419  0.0927 -0.3176
  209MOL0     C28765   2.220   3.868   5.317 -0.2806  0.2262 -0.7542
  209MOL0     C28766   2.246   3.938   5.453 -0.1734 -0.5060 -0.2491
  209MOL0     C28767   2.154   4.056   5.485 -0.3412 -0.0658  0.1636
  209MOL0     C28768   2.007   4.027   5.506  0.1280 -0.5754 -0.1752
  209MOL0     C28769   1.895   3.983   5.530  0.3614 -0.1486  0.2599
  209MOL0     C28770   2.483   3.813   5.077 -0.2007 -0.1044 -0.3793
  209MOL0     C28771   2.540   3.870   4.961  0.0408  0.1021  0.8319
  209MOL0     C28772   2.684   3.915   4.964 -0.3399 -0.2519 -0.1683
  209MOL0     H28773   2.496   3.831   4.395 -2.3592  0.3791  0.6982
  209MOL0     H28774   2.577   3.927   4.187 -0.1373 -0.2480 -0.4491
  209MOL0     H28775   2.576   4.073   4.030  0.5904 -0.5520 -0.7037
  209MOL0     H28776   2.744   4.058   4.074  0.4078  1.5953  1.1895
  209MOL0     H28777   2.764   4.304   3.963 -2.3002  2.5627 -1.7649
  209MOL0     H28778   2.774   4.149   3.881 -1.6675  1.3390 -3.6911
  209MOL0     H28779   2.506   4.267   3.908  1.7226 -0.2493  1.2041
  209MOL0     H28780   2.631   4.336   3.787  0.5341 -2.4370 -2.7643
  209MOL0     H28781   2.623   4.129   3.664 -0.7113  0.0696 -0.6742
  209MOL0     H28782   2.529   4.054   3.794  0.3867  0.3229  2.4790
  209MOL0     H28783   2.341   4.219   3.737 -0.3063 -0.2181  0.2151
  209MOL0     H28784   2.387   4.117   3.614  0.4511 -2.4972  1.3537
  209MOL0     H28785   2.498   4.407   3.629  4.3675 -1.3573 -2.0317
  209MOL0     H28786   2.521   4.306   3.503  0.8431  0.2225  0.6673
  209MOL0     H28787   2.353   4.482   3.509  3.1196  0.1041  2.6581
  209MOL0     H28788   2.252   4.397   3.622  0.2632 -0.3431  1.0114
  209MOL0     H28789   2.330   4.343   3.326 -0.0712 -1.1470 -0.3381
  209MOL0     H28790   2.260   4.211   3.421  1.5908 -1.0032 -1.0110
  209MOL0     H28791   2.031   4.316   3.612  1.0497  0.5623  0.5317
  209MOL0     H28792   1.733   4.521   3.494  0.3551 -2.3563 -1.9525
  209MOL0     H28793   1.847   4.583   3.616  2.2708 -1.6566  2.5497
  209MOL0     H28794   1.850   4.318   3.694 -0.0877 -3.4345 -7.1284
  209MOL0     H28795   1.731   4.438   3.752  2.4597  1.7705  1.4354
  209MOL0     H28796   1.577   4.371   3.580  0.1828 -0.0785 -1.0855
  209MOL0     H28797   1.704   4.259   3.510  1.2709 -2.0995  1.9556
  209MOL0     H28798   1.671   4.159   3.756  2.9343  0.1821 -2.3332
  209MOL0     H28799   1.513   4.238   3.748 -1.1658 -4.5113  1.0442
  209MOL0     H28800   1.315   4.239   3.616  0.4187  0.7127 -0.0504
  209MOL0     H28801   1.195   4.392   3.497  1.8073 -0.8527 -1.1813
  209MOL0     H28802   1.046   4.286   3.492 -0.0134 -0.1273 -0.4624
  209MOL0     H28803   1.123   4.349   3.346 -0.1501 -0.6285 -0.4549
  209MOL0     H28804   0.845   3.880   3.190  0.7063 -1.3655 -0.3860
  209MOL0     H28805   0.707   3.822   2.985  0.2960 -1.2810  1.4725
  209MOL0     H28806   0.638   3.762   2.796  2.6273 -0.9457 -0.6544
  209MOL0     H28807   0.578   3.933   2.760  0.7713  1.8859 -2.0562
  209MOL0     H28808   0.645   3.895   2.522 -0.6344 -0.7394 -1.3709
  209MOL0     H28809   0.678   3.735   2.556  1.1444  1.4281 -1.7088
  209MOL0     H28810   0.399   3.873   2.619  0.9346 -0.1426  0.8506
  209MOL0     H28811   0.426   3.713   2.658 -2.0267  2.1708  0.8934
  209MOL0     H28812   0.316   3.719   2.444  0.8043 -1.7689  0.4260
  209MOL0     H28813   0.480   3.677   2.400  3.0387  1.6368  0.0400
  209MOL0     H28814   0.382   3.962   2.374 -0.0156  0.6854 -2.6202
  209MOL0     H28815   0.535   3.897   2.326  1.3014 -1.5753  0.1138
  209MOL0     H28816   0.249   3.814   2.226 -0.4877  0.1911 -1.9151
  209MOL0     H28817   0.402   3.755   2.161 -0.1621 -0.3379  0.4794
  209MOL0     H28818   0.376   4.058   2.158 -0.9246 -0.3169  2.4115
  209MOL0     H28819   0.276   3.956   2.045  2.2605  4.3275 -2.6911
  209MOL0     H28820   0.495   3.844   1.971 -1.3671 -0.5551  0.8256
  209MOL0     H28821   0.579   3.953   2.072 -0.2717 -1.4873  0.7577
  209MOL0     H28822   1.026   3.986   2.744 -0.1955  0.3824 -0.2921
  209MOL0     H28823   1.163   4.017   2.948  0.4088  2.5574  1.6909
  209MOL0     H28824   1.355   3.931   3.241  1.0028  1.6450 -0.6726
  209MOL0     H28825   1.530   3.928   3.403  1.0328  0.0591  3.7216
  209MOL0     H28826   2.591   4.309   4.406 -0.7751  0.0030 -1.0402
  209MOL0     H28827   2.514   4.198   4.603 -1.5347 -0.3713  0.4552
  209MOL0     H28828   2.275   3.853   4.752  1.6678 -0.3903  0.0262
  209MOL0     H28829   2.164   3.756   4.973 -0.4367 -0.9448 -0.5501
  209MOL0     H28830   2.255   3.664   5.368  1.9241  1.0115  2.6203
  209MOL0     H28831   2.403   3.756   5.319 -0.7653 -2.4129  3.0664
  209MOL0     H28832   2.116   3.836   5.329 -0.5662  0.8426 -1.5439
  209MOL0     H28833   2.232   3.936   5.233  2.6624 -0.3333 -0.8966
  209MOL0     H28834   2.260   3.866   5.534 -1.0816 -2.6852 -1.9120
  209MOL0     H28835   2.338   3.997   5.450 -0.9048  0.8865  2.2217
  209MOL0     H28836   2.179   4.142   5.422  1.4592 -0.5049  0.2067
  209MOL0     H28837   2.180   4.093   5.584 -1.8802 -0.2228  0.6492
  209MOL0     H28838   1.795   3.951   5.551  0.3553 -0.5659 -0.3987
  209MOL0     H28839   2.547   3.791   5.162  0.3373 -0.8223 -0.9502
  209MOL0     H28840   2.748   3.854   4.900  4.5360  2.9289  1.0856
  209MOL0     H28841   2.704   4.019   4.936  3.6459  0.0369  2.8000
  209MOL0     H28842   2.722   3.903   5.066  2.1644  0.8976 -0.8767
  210MOL0     O28843   4.341   2.374   6.984  0.3733  0.8282 -1.0452
  210MOL0     C28844   4.341   2.474   7.049  0.2153  0.2649 -0.0851
  210MOL0     O28845   4.346   2.473   7.178 -0.9298  0.1069 -0.6917
  210MOL0     C28846   4.325   2.349   7.251 -0.0587  0.0392  0.1218
  210MOL0     C28847   4.219   2.354   7.344 -0.5613  0.3669  0.6103
  210MOL0     C28848   4.173   2.247   7.418  0.7958 -0.4394 -0.3948
  210MOL0     C28849   4.230   2.120   7.395  0.8080 -0.1307  1.0754
  210MOL0     O28850   4.178   2.011   7.459  0.1239 -0.1566  0.0338
  210MOL0     C28851   4.230   1.880   7.438 -0.0355  0.2510 -0.2728
  210MOL0     C28852   4.195   1.780   7.559 -1.3025 -0.5191 -0.4074
  210MOL0     C28853   4.048   1.743   7.560 -0.5343  0.3045  0.1341
  210MOL0     C28854   3.997   1.792   7.690 -0.2851 -0.0771  0.0513
  210MOL0     C28855   3.845   1.769   7.692 -0.0664 -0.0477 -0.1259
  210MOL0     C28856   3.806   1.634   7.755 -0.3250 -0.1954 -0.2051
  210MOL0     C28857   3.670   1.566   7.716  0.1205  0.7418  0.6299
  210MOL0     C28858   3.673   1.417   7.694  0.1196  0.2842 -0.7659
  210MOL0     N28859   3.683   1.344   7.819  0.1377  0.0774 -0.5761
  210MOL0     C28860   3.793   1.292   7.892  1.0646  0.0054  0.4291
  210MOL0     C28861   3.739   1.218   7.993 -1.2421 -0.2831 -0.0703
  210MOL0     C28862   3.836   1.138   8.075  0.0113 -0.2717  0.3916
  210MOL0     C28863   3.803   1.140   8.226  0.6766  0.4898  0.2104
  210MOL0     C28864   3.886   1.244   8.307 -0.3434 -0.0591 -0.6664
  210MOL0     C28865   3.895   1.393   8.255  0.5252  0.4340  0.0947
  210MOL0     O28866   3.762   1.446   8.233  0.0673 -0.8241  0.2334
  210MOL0     C28867   3.735   1.574   8.186  0.6459 -0.0404 -0.8197
  210MOL0     C28868   3.828   1.680   8.193 -0.0685  0.0046 -0.2310
  210MOL0     C28869   3.802   1.799   8.128  0.5179 -0.1424  0.3297
  210MOL0     C28870   3.912   1.901   8.140  0.8823  0.1878  0.1817
  210MOL0     C28871   3.686   1.820   8.058 -0.2115  0.5616  0.4631
  210MOL0     C28872   3.648   1.937   7.973 -0.5542  0.5019  0.0664
  210MOL0     O28873   3.729   2.048   7.978  0.0385 -0.0966 -0.7778
  210MOL0     C28874   3.724   2.135   7.879 -0.4851 -0.3869  0.3805
  210MOL0     C28875   3.607   2.217   7.858  0.2065 -0.6795  0.5917
  210MOL0     C28876   3.617   2.331   7.773 -0.7154  0.3501  0.2844
  210MOL0     C28877   3.732   2.374   7.712 -0.4529  0.5142  0.6141
  210MOL0     O28878   3.731   2.481   7.619  0.1010 -0.5620 -0.3632
  210MOL0     C28879   3.854   2.553   7.626 -0.6725 -1.1428 -0.6127
  210MOL0     C28880   3.846   2.702   7.581  0.0716 -0.4775  0.9088
  210MOL0     C28881   3.832   2.704   7.425  0.2563  0.2674 -0.3926
  210MOL0     C28882   3.961   2.755   7.355  0.4989  0.0565 -0.2311
  210MOL0     C28883   3.939   2.748   7.205  0.5342 -0.1057 -0.3228
  210MOL0     C28884   3.979   2.610   7.149  0.8892  0.7780  0.2763
  210MOL0     C28885   4.002   2.602   6.990 -0.1290 -0.1997  0.2099
  210MOL0     C28886   3.882   2.637   6.894  0.3254 -0.5823  0.3756
  210MOL0    Cl28887   3.957   2.651   6.727  0.1680 -0.3867 -0.4363
  210MOL0     C28888   3.846   2.298   7.735  0.8443  0.4139 -0.0901
  210MOL0     C28889   3.841   2.181   7.814 -0.1474  0.2118  0.4055
  210MOL0     O28890   3.545   1.921   7.910  0.2391 -0.1969  0.2139
  210MOL0     C28891   3.592   1.711   8.058  0.4660  0.1406  0.0668
  210MOL0     C28892   3.619   1.590   8.119 -0.0522 -0.3520  0.7530
  210MOL0     N28893   3.605   1.223   7.984 -0.2257 -1.3742 -1.1299
  210MOL0     N28894   3.570   1.302   7.887 -0.3961 -0.4388 -0.4271
  210MOL0     C28895   4.342   2.117   7.305 -0.0863 -0.0744 -0.0356
  210MOL0     C28896   4.393   2.231   7.237  0.6378 -0.6672 -0.1075
  210MOL0     C28897   4.361   2.600   6.969  0.1734  0.7331 -0.4810
  210MOL0     C28898   4.428   2.706   7.035  0.4026  0.3598 -0.1568
  210MOL0     C28899   4.444   2.825   6.971  0.2343  0.1821 -0.1654
  210MOL0     C28900   4.411   2.845   6.832  0.4770  0.5443  0.3180
  210MOL0     O28901   4.430   2.969   6.768  0.0369  0.0635  0.3715
  210MOL0     C28902   4.467   2.939   6.635 -0.8170 -0.4063  0.1431
  210MOL0     C28903   4.548   3.055   6.580 -1.0988 -0.5160  0.4012
  210MOL0     C28904   4.683   3.064   6.654 -0.8726 -0.3522  0.1541
  210MOL0     C28905   4.764   3.182   6.596  0.2771  0.9878  0.9887
  210MOL0     C28906   4.866   3.216   6.693 -1.4722 -0.9818 -0.5043
  210MOL0     C28907   4.941   3.257   6.793  0.0889  0.3143  0.2628
  210MOL0     C28908   4.340   2.738   6.770 -0.2631 -0.6237 -0.9995
  210MOL0     C28909   4.320   2.612   6.829 -0.1173 -0.5133  0.4483
  210MOL0     C28910   4.247   2.500   6.757 -0.1445  0.0318  0.4272
  210MOL0     H28911   4.167   2.449   7.356 -0.2874  0.7268 -0.8625
  210MOL0     H28912   4.090   2.266   7.486  0.5130  2.3762 -1.3940
  210MOL0     H28913   4.338   1.890   7.421  1.1034 -3.0660  3.5585
  210MOL0     H28914   4.181   1.836   7.350 -3.6890 -0.1313  1.7570
  210MOL0     H28915   4.256   1.692   7.536 -0.5511 -0.1559  0.1486
  210MOL0     H28916   4.235   1.819   7.653  0.9902  1.9815 -2.2864
  210MOL0     H28917   3.995   1.793   7.479 -1.5831 -0.5928  0.2413
  210MOL0     H28918   4.040   1.634   7.549 -2.5904  0.5576 -1.5217
  210MOL0     H28919   4.048   1.739   7.772 -0.3362 -0.3831 -0.1138
  210MOL0     H28920   4.014   1.900   7.688  1.1689 -0.2187 -4.2934
  210MOL0     H28921   3.808   1.790   7.591  3.4711 -4.4109 -2.7153
  210MOL0     H28922   3.802   1.846   7.756  0.1566  0.9320 -1.1300
  210MOL0     H28923   3.879   1.556   7.732  0.2610  1.0132 -2.7471
  210MOL0     H28924   3.812   1.643   7.864  1.3208  0.5183 -0.3164
  210MOL0     H28925   3.634   1.595   7.617 -1.3040  0.2801  0.9965
  210MOL0     H28926   3.587   1.601   7.777 -1.4745  0.3690 -1.2031
  210MOL0     H28927   3.592   1.379   7.632  2.3162 -0.9944 -3.0613
  210MOL0     H28928   3.763   1.378   7.644  1.0561 -0.8851  1.6571
  210MOL0     H28929   3.895   1.319   7.867  0.3132  0.9885 -1.8251
  210MOL0     H28930   3.931   1.193   8.070 -0.5863  0.6940 -1.6823
  210MOL0     H28931   3.842   1.036   8.036  0.1846 -0.0601 -0.1509
  210MOL0     H28932   3.694   1.148   8.231  0.3846 -2.4494  0.0708
  210MOL0     H28933   3.825   1.045   8.275  1.8840 -0.9780 -2.9232
  210MOL0     H28934   3.844   1.254   8.408  0.2757  1.0051 -0.4967
  210MOL0     H28935   3.987   1.211   8.333 -0.6589  1.0718  2.5069
  210MOL0     H28936   3.950   1.457   8.324  1.3198  1.4519 -1.4457
  210MOL0     H28937   3.947   1.386   8.159 -0.8693  0.3784 -0.6980
  210MOL0     H28938   3.920   1.670   8.251 -0.9734 -0.0125  1.2587
  210MOL0     H28939   3.947   1.937   8.043  3.9048  0.3016  1.1996
  210MOL0     H28940   4.005   1.859   8.178  0.7006 -0.8855 -0.5217
  210MOL0     H28941   3.869   1.985   8.196 -1.1391  0.0654 -1.0748
  210MOL0     H28942   3.514   2.205   7.914 -0.9300  3.6370 -0.0149
  210MOL0     H28943   3.528   2.389   7.751 -0.3350  2.4027  3.5245
  210MOL0     H28944   3.883   2.544   7.730 -0.6937  4.2962  0.1605
  210MOL0     H28945   3.927   2.506   7.559  0.9051  0.0154  0.2493
  210MOL0     H28946   3.750   2.743   7.615  0.4497 -0.6458  2.2397
  210MOL0     H28947   3.924   2.769   7.618  1.4392 -2.0860  1.0530
  210MOL0     H28948   3.760   2.780   7.394 -0.0477 -0.7715 -2.4522
  210MOL0     H28949   3.797   2.610   7.379 -2.6961  2.3862 -2.9060
  210MOL0     H28950   4.042   2.690   7.390  0.2962  0.0287  0.1890
  210MOL0     H28951   3.975   2.853   7.401 -0.5241  1.0423 -1.9329
  210MOL0     H28952   3.836   2.767   7.173  0.2940 -1.3082 -0.3184
  210MOL0     H28953   4.004   2.823   7.159 -0.0301 -0.0698 -1.0798
  210MOL0     H28954   3.901   2.537   7.172  1.5736 -0.6608 -1.7092
  210MOL0     H28955   4.073   2.578   7.194  0.7047 -1.6197 -0.9194
  210MOL0     H28956   4.040   2.502   6.970 -1.1250 -0.7417  0.9278
  210MOL0     H28957   4.089   2.665   6.970  0.6759 -1.8303 -1.7111
  210MOL0     H28958   3.827   2.725   6.930  0.4654  0.0175 -0.8450
  210MOL0     H28959   3.815   2.551   6.901 -0.3530 -0.0260  0.9009
  210MOL0     H28960   3.936   2.326   7.681  0.1797 -0.7279 -1.8535
  210MOL0     H28961   3.921   2.108   7.826 -2.5102 -2.2952  2.1339
  210MOL0     H28962   3.496   1.714   8.008 -0.5875  1.0017  2.0253
  210MOL0     H28963   3.549   1.509   8.101 -1.9548  1.0570  1.4276
  210MOL0     H28964   4.405   2.030   7.289 -0.9371 -0.5623 -0.7614
  210MOL0     H28965   4.479   2.223   7.171  0.1301  0.8117 -0.9981
  210MOL0     H28966   4.463   2.692   7.137  2.3539  0.1506 -0.8027
  210MOL0     H28967   4.464   2.910   7.036  2.1022 -1.5871  1.7364
  210MOL0     H28968   4.518   2.843   6.625 -0.8025 -0.2796 -1.2060
  210MOL0     H28969   4.380   2.919   6.571 -1.0478 -1.1545  0.6759
  210MOL0     H28970   4.499   3.152   6.586  0.8949  0.5104  1.1876
  210MOL0     H28971   4.578   3.041   6.476  3.9261  1.5245  1.2950
  210MOL0     H28972   4.655   3.096   6.755 -2.4373 -0.4230 -0.2298
  210MOL0     H28973   4.730   2.966   6.655 -3.2789 -1.6275  2.6356
  210MOL0     H28974   4.701   3.271   6.585 -0.1785  0.8061  2.0177
  210MOL0     H28975   4.813   3.153   6.503 -2.7352  3.7595 -1.7350
  210MOL0     H28976   5.015   3.279   6.868 -1.2487  1.6682  1.2368
  210MOL0     H28977   4.311   2.741   6.665 -0.0519  1.9642 -1.0478
  210MOL0     H28978   4.196   2.433   6.826 -0.3665 -0.4570 -0.1983
  210MOL0     H28979   4.176   2.532   6.680  0.4120 -2.1701 -1.0977
  210MOL0     H28980   4.313   2.425   6.713 -0.9039 -0.9212  0.8734
  211MOL0     O28981   3.686   8.000  10.022  1.0037  0.5482 -0.5980
  211MOL0     C28982   3.571   8.012   9.975  0.1791  0.1996  0.2438
  211MOL0     O28983   3.526   8.107   9.890 -0.1229  0.0404 -0.4441
  211MOL0     C28984   3.598   8.229   9.873 -0.1506  0.7171  0.1207
  211MOL0     C28985   3.625   8.318   9.971  0.6101  0.4349  1.0231
  211MOL0     C28986   3.715   8.416   9.952  1.0000 -0.9139 -0.0982
  211MOL0     C28987   3.789   8.436   9.834  0.5917 -0.2728 -0.5502
  211MOL0     O28988   3.889   8.527   9.828  0.2257  0.2190  0.3710
  211MOL0     C28989   3.932   8.580   9.700  0.3889 -0.2644 -0.6002
  211MOL0     C28990   3.987   8.721   9.726 -1.1952  0.0466  0.8916
  211MOL0     C28991   4.075   8.777   9.600  0.3080 -0.1131  0.9100
  211MOL0     C28992   3.986   8.853   9.504 -0.1000  0.2666 -0.0570
  211MOL0     C28993   4.057   8.927   9.386  0.0858 -0.4616  0.0105
  211MOL0     C28994   4.147   9.035   9.452 -0.0224  0.3445  0.0888
  211MOL0     C28995   4.123   9.182   9.395  0.3873 -0.9312  0.7990
  211MOL0     C28996   4.169   9.203   9.240 -0.5390  0.0677 -0.2250
  211MOL0     N28997   4.083   9.313   9.194  0.3106  0.5872 -0.2551
  211MOL0     C28998   4.110   9.444   9.232 -0.4307 -0.6156 -0.3846
  211MOL0     C28999   4.009   9.514   9.182 -0.7762  0.1944 -0.4007
  211MOL0     C29000   3.985   9.662   9.200 -0.1441 -0.5434  0.1789
  211MOL0     C29001   4.012   9.760   9.081  0.6085  0.2524 -0.7924
  211MOL0     C29002   4.038   9.897   9.154  0.1023 -0.2763 -0.2993
  211MOL0     C29003   4.043  10.009   9.046 -0.0954 -0.0708 -0.6820
  211MOL0     O29004   4.079  10.133   9.101  0.0419 -0.2636 -0.0751
  211MOL0     C29005   4.141  10.232   9.028  1.3856 -0.0984  0.2388
  211MOL0     C29006   4.199  10.225   8.900  0.6758 -0.0247  0.2871
  211MOL0     C29007   4.274  10.334   8.851 -0.8563  0.1164  0.4988
  211MOL0     C29008   4.347  10.323   8.714  0.5413  0.1008 -0.4907
  211MOL0     C29009   4.289  10.452   8.918  0.2977 -0.2877  0.6520
  211MOL0     C29010   4.367  10.569   8.883  0.0155 -0.9826  0.2575
  211MOL0     O29011   4.314  10.694   8.891  1.3731  0.4101 -0.3665
  211MOL0     C29012   4.175  10.708   8.864 -0.6038 -1.6419  0.1969
  211MOL0     C29013   4.097  10.783   8.955  0.3356  0.4529  1.3446
  211MOL0     C29014   3.959  10.806   8.917 -0.0293  0.3177  0.1365
  211MOL0     C29015   3.907  10.771   8.793 -0.1623 -0.0622  0.0149
  211MOL0     O29016   3.777  10.808   8.760  0.2423  0.0990  0.1172
  211MOL0     C29017   3.682  10.851   8.859  0.2571  0.2244 -0.6535
  211MOL0     C29018   3.567  10.903   8.789  0.0703 -0.1702  0.6136
  211MOL0     C29019   3.599  11.036   8.730 -1.0708  0.2932  0.3189
  211MOL0     C29020   3.499  11.062   8.616 -0.1240 -0.0405  0.5226
  211MOL0     C29021   3.498  11.207   8.567 -0.2823 -0.7805 -0.3600
  211MOL0     C29022   3.408  11.252   8.452  1.3483  0.3932 -0.0670
  211MOL0     C29023   3.475  11.205   8.313  0.1893 -0.0164 -0.8879
  211MOL0     C29024   3.417  11.071   8.256 -0.0755  0.4054 -0.0124
  211MOL0    Cl29025   3.252  11.034   8.294 -0.5565  0.0550  0.0697
  211MOL0     C29026   3.985  10.699   8.708  0.4317  0.2047  0.2991
  211MOL0     C29027   4.118  10.675   8.737 -0.4363  0.5153  0.9850
  211MOL0     O29028   4.491  10.554   8.858  0.5443 -0.2520  0.3752
  211MOL0     C29029   4.226  10.461   9.044  1.6753  0.1247  0.2044
  211MOL0     C29030   4.156  10.351   9.100 -0.1028 -0.0494 -0.0703
  211MOL0     N29031   3.935   9.423   9.108  0.1810 -0.3703 -0.7523
  211MOL0     N29032   3.987   9.307   9.106  0.4470 -0.0069 -0.5894
  211MOL0     C29033   3.764   8.341   9.733 -0.3769 -0.9339 -0.3036
  211MOL0     C29034   3.667   8.238   9.756 -0.3539  0.9851  0.5660
  211MOL0     C29035   3.468   7.914  10.021  0.0921  0.0049  0.2293
  211MOL0     C29036   3.497   7.822  10.128 -0.2520  0.2651  0.2074
  211MOL0     C29037   3.402   7.725  10.175  0.3790 -0.2571 -0.8093
  211MOL0     C29038   3.277   7.716  10.116  0.0115  0.1017 -0.6842
  211MOL0     O29039   3.173   7.628  10.142  0.1124 -0.4752  0.5979
  211MOL0     C29040   3.174   7.569  10.270  0.1451  0.6958 -0.2621
  211MOL0     C29041   3.240   7.425  10.270  0.5494 -0.0372 -1.1319
  211MOL0     C29042   3.215   7.355  10.403 -0.4117  0.7289  0.1222
  211MOL0     C29043   3.283   7.212  10.399 -0.8165  0.6183  0.2414
  211MOL0     C29044   3.283   7.138  10.534 -0.5414 -0.5045 -0.2116
  211MOL0     C29045   3.272   7.051  10.617 -0.1920 -0.3102 -1.4400
  211MOL0     C29046   3.258   7.788  10.003 -0.0856 -0.3227  0.4110
  211MOL0     C29047   3.349   7.888   9.957 -0.6552  0.2944 -0.5984
  211MOL0     C29048   3.304   7.976   9.844  0.8320  0.0325  0.0299
  211MOL0     H29049   3.575   8.314  10.067 -1.8932  1.5822 -0.1228
  211MOL0     H29050   3.724   8.484  10.037  1.2778  0.6454 -1.3191
  211MOL0     H29051   3.862   8.573   9.617  2.0015 -1.5081 -1.9261
  211MOL0     H29052   4.020   8.523   9.668  5.4000  5.5273  0.9840
  211MOL0     H29053   3.910   8.789   9.764 -1.2425  1.7094 -1.9133
  211MOL0     H29054   4.067   8.722   9.801 -0.9747  0.2123  0.6542
  211MOL0     H29055   4.149   8.846   9.641  1.0245 -0.8782  0.9547
  211MOL0     H29056   4.129   8.696   9.549 -0.1147  0.4762 -0.5227
  211MOL0     H29057   3.907   8.784   9.475  0.5985 -0.4913 -0.1954
  211MOL0     H29058   3.930   8.934   9.551  1.3344  1.3265 -0.1099
  211MOL0     H29059   3.976   8.963   9.322 -0.9719 -1.4624  0.7265
  211MOL0     H29060   4.123   8.854   9.339  3.0116  1.0933  1.4910
  211MOL0     H29061   4.114   9.051   9.555  0.0574 -0.9245  0.3296
  211MOL0     H29062   4.254   9.019   9.443 -0.0340 -0.1425  0.7556
  211MOL0     H29063   4.174   9.249   9.464  0.9351 -1.1654  0.6217
  211MOL0     H29064   4.017   9.207   9.409  0.9027  1.1470  1.2872
  211MOL0     H29065   4.276   9.228   9.235 -0.1124 -1.8249 -2.5587
  211MOL0     H29066   4.157   9.117   9.174 -0.5740  1.2012 -1.7404
  211MOL0     H29067   4.180   9.492   9.300 -1.0101  0.2677 -0.3944
  211MOL0     H29068   4.035   9.694   9.291  0.1218  1.5196 -0.6384
  211MOL0     H29069   3.880   9.666   9.232 -0.2117 -1.0692  0.0395
  211MOL0     H29070   4.104   9.730   9.030  1.0095 -2.4456  1.2948
  211MOL0     H29071   3.927   9.752   9.012 -0.0703  0.5054  0.0073
  211MOL0     H29072   3.952   9.924   9.217  0.2756 -1.1947  0.3405
  211MOL0     H29073   4.133   9.896   9.208 -0.5550 -1.0811  0.8877
  211MOL0     H29074   4.131   9.989   8.984  0.8154 -0.1960  0.5988
  211MOL0     H29075   3.950  10.013   8.988 -0.8728  2.9583  0.5821
  211MOL0     H29076   4.184  10.137   8.839  3.8122 -0.5881  0.1885
  211MOL0     H29077   4.453  10.330   8.743 -0.1524  1.4501  1.9848
  211MOL0     H29078   4.309  10.406   8.653 -0.8642 -1.5614 -1.9724
  211MOL0     H29079   4.327  10.226   8.668 -0.1316 -0.0939  0.2046
  211MOL0     H29080   4.128  10.835   9.045  2.9353  0.7966  0.3459
  211MOL0     H29081   3.906  10.867   8.989  1.1419  1.1845  0.2770
  211MOL0     H29082   3.650  10.779   8.935  0.6691  1.6096  0.8960
  211MOL0     H29083   3.736  10.928   8.915  1.1277 -0.9248  0.1354
  211MOL0     H29084   3.549  10.824   8.715 -0.9115  0.4081  0.2135
  211MOL0     H29085   3.477  10.909   8.851  1.1277 -1.4367  2.3390
  211MOL0     H29086   3.694  11.041   8.676 -0.5508 -1.3632  1.0261
  211MOL0     H29087   3.618  11.116   8.802 -0.4853  0.3717  0.0822
  211MOL0     H29088   3.402  11.018   8.641 -0.4394 -2.5789 -4.2298
  211MOL0     H29089   3.531  11.005   8.529  3.8285 -1.4496  2.6466
  211MOL0     H29090   3.478  11.271   8.653 -0.7673 -2.4893  0.8332
  211MOL0     H29091   3.598  11.242   8.536 -1.0067  2.5519  0.6718
  211MOL0     H29092   3.390  11.360   8.453 -1.9918 -0.0527  0.1432
  211MOL0     H29093   3.307  11.214   8.473  1.2916 -1.7766 -3.5375
  211MOL0     H29094   3.583  11.194   8.326  0.0444 -0.1692  0.3576
  211MOL0     H29095   3.459  11.287   8.242 -0.4290  0.5462 -0.1157
  211MOL0     H29096   3.477  10.985   8.288  1.0620  1.8013  1.8803
  211MOL0     H29097   3.437  11.074   8.148  0.0599  0.5923  0.0159
  211MOL0     H29098   3.943  10.671   8.612  0.7048  1.6074 -0.2405
  211MOL0     H29099   4.173  10.616   8.665  1.1910 -0.3352  2.8435
  211MOL0     H29100   4.220  10.553   9.101  2.0184  0.9178 -0.9949
  211MOL0     H29101   4.110  10.371   9.196  0.6116  0.8640  0.0984
  211MOL0     H29102   3.819   8.345   9.640  0.3162  1.2416  0.1612
  211MOL0     H29103   3.646   8.163   9.681  1.7364  0.7951  0.0954
  211MOL0     H29104   3.594   7.820  10.178 -0.8562 -1.2933  1.3695
  211MOL0     H29105   3.429   7.645  10.243 -0.2196  1.4710  1.5953
  211MOL0     H29106   3.239   7.630  10.334  1.8764 -0.3862 -0.9032
  211MOL0     H29107   3.077   7.571  10.319  0.4496  0.4744  0.3638
  211MOL0     H29108   3.348   7.443  10.265  1.1159 -1.9900  1.6535
  211MOL0     H29109   3.199   7.364  10.189 -0.9927 -0.2813 -0.1937
  211MOL0     H29110   3.260   7.413  10.484  0.0489 -0.1865  0.5419
  211MOL0     H29111   3.109   7.348  10.428 -0.6879  2.0741 -0.6053
  211MOL0     H29112   3.380   7.211  10.348 -0.6465  2.1984  0.5036
  211MOL0     H29113   3.224   7.157  10.325  2.2041 -0.9480 -1.1660
  211MOL0     H29114   3.262   6.987  10.702  0.2584 -0.2733 -1.3547
  211MOL0     H29115   3.168   7.769   9.947  0.7073 -0.2923 -0.9241
  211MOL0     H29116   3.376   7.980   9.761  1.6414 -1.2604  0.6335
  211MOL0     H29117   3.207   7.948   9.801  0.3817  2.9501 -1.0897
  211MOL0     H29118   3.287   8.080   9.872 -2.9383 -0.4188 -0.1078
  212MOL0     O29119   3.478   5.160   7.019 -1.0445 -0.2144  0.1639
  212MOL0     C29120   3.527   5.107   6.920 -0.5554 -0.5772  0.9749
  212MOL0     O29121   3.586   5.165   6.813  0.5964 -0.6843 -1.2746
  212MOL0     C29122   3.574   5.298   6.818 -0.0229 -1.3429 -0.3938
  212MOL0     C29123   3.673   5.363   6.906  0.5600 -0.3210  1.0812
  212MOL0     C29124   3.683   5.507   6.905  0.8765  0.0470 -1.2440
  212MOL0     C29125   3.612   5.581   6.808 -0.6755 -0.8933  0.0458
  212MOL0     O29126   3.619   5.715   6.812 -0.1147 -0.2949 -0.2894
  212MOL0     C29127   3.751   5.787   6.817 -0.3311  0.7178  0.8747
  212MOL0     C29128   3.752   5.902   6.912  0.0664 -0.0032  0.5237
  212MOL0     C29129   3.718   5.865   7.060 -0.2914 -0.1172 -0.3308
  212MOL0     C29130   3.711   5.996   7.145  0.4780  0.1236  0.5624
  212MOL0     C29131   3.630   5.977   7.270 -0.1326  0.3309 -0.6934
  212MOL0     C29132   3.658   5.868   7.377 -0.5157  0.3072 -0.6939
  212MOL0     C29133   3.807   5.865   7.440  0.0406 -0.2172 -0.1952
  212MOL0     C29134   3.833   5.980   7.540  0.2200  0.1431 -0.9909
  212MOL0     N29135   3.965   5.950   7.603 -0.4911  0.2602 -0.2311
  212MOL0     C29136   4.037   6.010   7.706  0.1184  0.0890  0.4658
  212MOL0     C29137   4.149   5.939   7.733 -0.2202  0.5759  0.7466
  212MOL0     C29138   4.235   5.966   7.842 -0.6637 -0.3647 -0.9134
  212MOL0     C29139   4.340   6.072   7.817  0.5103 -1.5770 -0.1032
  212MOL0     C29140   4.426   6.087   7.945  0.5023 -0.5628  0.2612
  212MOL0     C29141   4.511   6.209   7.942  0.4422 -0.3842 -0.3557
  212MOL0     O29142   4.580   6.219   7.816  0.3093 -1.2003  0.0393
  212MOL0     C29143   4.682   6.132   7.784  0.6122  0.4698 -1.2290
  212MOL0     C29144   4.738   6.124   7.659  0.5701 -0.7561 -0.0861
  212MOL0     C29145   4.838   6.030   7.634  0.0501  1.7536 -0.9473
  212MOL0     C29146   4.903   6.016   7.500 -0.6031 -0.2475  0.3019
  212MOL0     C29147   4.897   5.950   7.744 -1.0943  0.6849 -0.8036
  212MOL0     C29148   5.023   5.860   7.734  1.1544  0.5580  0.9009
  212MOL0     O29149   5.105   5.863   7.842  0.2656  1.2256 -0.4323
  212MOL0     C29150   5.240   5.826   7.836  0.3687 -0.5592  1.1154
  212MOL0     C29151   5.309   5.823   7.945 -0.7459 -0.4762 -1.4092
  212MOL0     C29152   5.451   5.793   7.947  0.0669  0.1736 -0.5904
  212MOL0     C29153   5.512   5.759   7.831  0.3124  0.2607  0.0628
  212MOL0     O29154   5.643   5.734   7.833 -1.0854  0.0770  0.3857
  212MOL0     C29155   5.698   5.642   7.727 -0.5834 -0.7213 -0.9417
  212MOL0     C29156   5.841   5.609   7.769 -0.5733  0.0517  0.1119
  212MOL0     C29157   5.848   5.565   7.920  0.0572 -0.1608  0.1864
  212MOL0     C29158   5.754   5.453   7.957  0.4244  0.2541  0.9986
  212MOL0     C29159   5.766   5.406   8.099  0.1821 -0.2042 -0.1763
  212MOL0     C29160   5.704   5.261   8.113  0.0809 -0.4057 -0.0755
  212MOL0     C29161   5.588   5.289   8.205 -0.1887 -0.6002 -0.1224
  212MOL0     C29162   5.527   5.159   8.259 -0.2930 -0.3762 -0.5606
  212MOL0    Cl29163   5.467   5.068   8.121 -0.2544 -0.2963  0.0643
  212MOL0     C29164   5.441   5.794   7.710 -0.1301  0.0535 -0.6852
  212MOL0     C29165   5.308   5.818   7.715  0.9316  0.4983  0.5697
  212MOL0     O29166   5.049   5.793   7.631 -0.1356 -0.7705  0.5330
  212MOL0     C29167   4.844   5.962   7.865 -0.5963  0.0993 -0.1312
  212MOL0     C29168   4.740   6.051   7.884  0.5080  0.4187 -1.3132
  212MOL0     N29169   4.146   5.828   7.639 -0.3454  0.1403 -0.7790
  212MOL0     N29170   4.046   5.841   7.560 -0.3313 -0.0502 -0.3825
  212MOL0     C29171   3.517   5.517   6.723  0.3645  0.3084  0.1676
  212MOL0     C29172   3.499   5.379   6.728  0.3954 -1.0024 -0.3223
  212MOL0     C29173   3.574   4.964   6.924  0.2946 -0.2448 -0.7412
  212MOL0     C29174   3.711   4.951   6.953 -0.3429  0.0132 -1.3550
  212MOL0     C29175   3.756   4.829   6.985 -0.5308  0.5007 -0.4168
  212MOL0     C29176   3.679   4.710   6.997 -0.0623 -0.2772  0.7076
  212MOL0     O29177   3.747   4.603   7.030 -0.0304  1.2137 -0.1497
  212MOL0     C29178   3.686   4.479   6.982  0.3212 -0.3527  0.3256
  212MOL0     C29179   3.772   4.362   7.024  0.2694  0.1099 -0.7711
  212MOL0     C29180   3.747   4.234   6.941 -0.8732 -0.0982 -0.7356
  212MOL0     C29181   3.835   4.118   6.991 -0.2378  0.2749  0.0116
  212MOL0     C29182   3.977   4.161   6.972  0.0817  0.3710 -0.2490
  212MOL0     C29183   4.089   4.200   6.959 -0.0323 -0.1777  0.6991
  212MOL0     C29184   3.548   4.723   6.971  0.0440 -0.8246  1.1922
  212MOL0     C29185   3.488   4.849   6.928 -0.8610 -0.3483 -0.3508
  212MOL0     C29186   3.337   4.862   6.935 -0.2624  0.0063 -0.8371
  212MOL0     H29187   3.752   5.309   6.956  1.6053  0.7838  0.6732
  212MOL0     H29188   3.771   5.552   6.950  0.8206 -1.6631  0.7499
  212MOL0     H29189   3.779   5.807   6.713  1.9690 -3.3891  0.5137
  212MOL0     H29190   3.837   5.729   6.853  0.8328  1.4622 -0.5620
  212MOL0     H29191   3.850   5.949   6.907  0.5937 -0.8243  2.4765
  212MOL0     H29192   3.672   5.973   6.891 -0.3606 -0.1761  1.5445
  212MOL0     H29193   3.620   5.816   7.064 -1.4415  2.1491  1.3588
  212MOL0     H29194   3.795   5.798   7.099 -0.4863 -0.4737 -0.5523
  212MOL0     H29195   3.813   6.006   7.184  0.6958  1.3939 -0.2463
  212MOL0     H29196   3.684   6.088   7.091  0.1688  0.5822  1.4713
  212MOL0     H29197   3.527   5.966   7.236 -0.7136  1.3263  0.6478
  212MOL0     H29198   3.629   6.071   7.327 -1.7169 -0.8872  1.3811
  212MOL0     H29199   3.580   5.876   7.454 -1.2690  0.5899 -1.4805
  212MOL0     H29200   3.640   5.774   7.324 -0.6320 -0.0499 -0.0405
  212MOL0     H29201   3.886   5.870   7.364  2.7917 -4.0169  2.1112
  212MOL0     H29202   3.809   5.778   7.505 -3.4606 -0.3016  0.0093
  212MOL0     H29203   3.837   6.080   7.496 -1.2896  0.1824 -1.0705
  212MOL0     H29204   3.758   5.989   7.618  2.1068  1.6328  0.7778
  212MOL0     H29205   4.008   6.097   7.763  2.9424  1.0738  0.5596
  212MOL0     H29206   4.275   5.870   7.876 -3.4936 -1.1032  0.7369
  212MOL0     H29207   4.174   6.008   7.923 -0.3638 -1.7619  0.0731
  212MOL0     H29208   4.412   6.033   7.744  0.1230 -3.2017  0.3548
  212MOL0     H29209   4.294   6.168   7.792 -0.8471 -2.0126  0.6340
  212MOL0     H29210   4.352   6.096   8.026 -1.9057 -1.2595 -1.7183
  212MOL0     H29211   4.488   5.998   7.960  1.0018 -0.0354  1.4553
  212MOL0     H29212   4.452   6.299   7.958  1.5313  0.0570  1.3270
  212MOL0     H29213   4.578   6.207   8.028 -0.2840  0.6929  0.2466
  212MOL0     H29214   4.703   6.193   7.583  3.2641 -0.0682 -0.8228
  212MOL0     H29215   4.878   5.924   7.446 -0.6660  0.5335 -1.0305
  212MOL0     H29216   5.012   6.017   7.513 -0.5207 -0.4953 -0.3452
  212MOL0     H29217   4.888   6.099   7.431  1.0927  0.2911  0.5348
  212MOL0     H29218   5.248   5.863   8.025  0.8274  0.7152 -0.7446
  212MOL0     H29219   5.508   5.783   8.038 -0.4858 -3.6621 -0.5029
  212MOL0     H29220   5.632   5.557   7.708 -0.1481 -0.4716 -3.9890
  212MOL0     H29221   5.710   5.705   7.639  3.7489  0.2073  0.0348
  212MOL0     H29222   5.879   5.532   7.701  3.6092  4.0028 -2.7208
  212MOL0     H29223   5.909   5.695   7.760  2.1019 -1.8159  1.2047
  212MOL0     H29224   5.837   5.655   7.982 -2.6457  0.5705 -1.1856
  212MOL0     H29225   5.946   5.522   7.942  1.8434  1.6541 -3.4096
  212MOL0     H29226   5.773   5.358   7.905 -0.7546  1.6726 -2.3149
  212MOL0     H29227   5.650   5.479   7.934  0.5188  0.9705  1.3590
  212MOL0     H29228   5.872   5.407   8.125  0.3191 -0.1894 -0.7292
  212MOL0     H29229   5.720   5.481   8.164  4.2953  1.4305  1.1986
  212MOL0     H29230   5.773   5.207   8.179 -2.2109 -3.0966  0.3525
  212MOL0     H29231   5.676   5.198   8.028 -3.4815 -0.3133  0.8519
  212MOL0     H29232   5.509   5.346   8.155  1.1446  0.3605 -1.2063
  212MOL0     H29233   5.613   5.341   8.298  2.0305 -2.7818  0.6280
  212MOL0     H29234   5.441   5.189   8.320 -1.8611  1.6253 -3.5134
  212MOL0     H29235   5.592   5.094   8.318  0.2077 -1.1187 -1.8826
  212MOL0     H29236   5.480   5.799   7.609 -0.6918 -2.9014 -1.1432
  212MOL0     H29237   5.271   5.854   7.620 -2.2868  0.0552  1.5088
  212MOL0     H29238   4.884   5.897   7.942 -3.0963 -2.8365 -1.1094
  212MOL0     H29239   4.703   6.057   7.986  0.8850 -3.1617 -0.8527
  212MOL0     H29240   3.469   5.576   6.646  1.5751  1.3966  0.1973
  212MOL0     H29241   3.440   5.326   6.654 -0.4021 -1.6306  0.7377
  212MOL0     H29242   3.771   5.041   6.961 -2.4884  1.4728 -0.7741
  212MOL0     H29243   3.858   4.811   7.018 -1.2641  1.0162  2.4940
  212MOL0     H29244   3.582   4.467   7.014 -0.5219  3.5298 -0.5022
  212MOL0     H29245   3.678   4.504   6.876  0.4687  3.0965  1.0137
  212MOL0     H29246   3.741   4.340   7.127  0.8785 -1.1266 -0.8382
  212MOL0     H29247   3.876   4.396   7.027  0.1743  0.3983 -0.7189
  212MOL0     H29248   3.643   4.199   6.938 -0.2927 -1.9396 -1.1374
  212MOL0     H29249   3.770   4.261   6.838  1.2723 -1.0184 -0.5642
  212MOL0     H29250   3.805   4.034   6.928  2.0329  0.0955 -0.9330
  212MOL0     H29251   3.815   4.091   7.095 -2.0223  0.6108 -0.2067
  212MOL0     H29252   4.189   4.229   6.936  1.0824 -3.5242  0.8441
  212MOL0     H29253   3.484   4.638   6.989  2.0135 -2.3376  1.3849
  212MOL0     H29254   3.286   4.880   6.840  0.8326  1.8952 -1.1029
  212MOL0     H29255   3.302   4.763   6.966  1.6686 -0.0894  1.3290
  212MOL0     H29256   3.293   4.937   7.002 -0.6860  0.8864 -2.0631
  213MOL0     O29257  10.804   0.895   7.654  0.2056 -0.2854 -0.1345
  213MOL0     C29258  10.904   0.949   7.711  0.1392  0.7042 -0.2004
  213MOL0     O29259  10.905   1.005   7.835  0.0707 -0.3522  0.2836
  213MOL0     C29260  10.804   0.996   7.925  1.1551 -0.1469  0.3094
  213MOL0     C29261  10.803   1.087   8.028  0.7961  1.0551  0.2890
  213MOL0     C29262  10.694   1.090   8.128 -0.0096  1.0791  0.3255
  213MOL0     C29263  10.588   0.992   8.121 -0.1780 -0.2356 -0.8055
  213MOL0     O29264  10.476   0.985   8.196 -0.4714 -0.2933  0.2222
  213MOL0     C29265  10.478   1.027   8.335  0.0865 -0.0096  0.5710
  213MOL0     C29266  10.336   1.016   8.393 -0.6770  0.2677 -0.9643
  213MOL0     C29267  10.339   1.063   8.543  0.3117  1.1277  0.4914
  213MOL0     C29268  10.435   0.973   8.631 -0.1422  0.0039 -0.8428
  213MOL0     C29269  10.440   1.029   8.776 -0.1983 -0.2677 -0.3381
  213MOL0     C29270  10.324   0.986   8.853 -0.8460 -0.1273 -0.5214
  213MOL0     C29271  10.341   1.023   9.002  0.9409  0.3588  0.0983
  213MOL0     C29272  10.289   1.160   9.054  0.3981 -0.0707 -0.1806
  213MOL0     N29273  10.272   1.151   9.199  1.1536 -1.3897  0.3622
  213MOL0     C29274  10.358   1.132   9.295 -0.4263 -0.4851 -0.6950
  213MOL0     C29275  10.281   1.108   9.404 -1.7983 -0.2706  0.3610
  213MOL0     C29276  10.345   1.082   9.540 -0.1989  0.6949 -0.5758
  213MOL0     C29277  10.400   0.932   9.555  1.1389  0.0031  0.4054
  213MOL0     C29278  10.301   0.822   9.591 -0.9059  0.2793  0.4330
  213MOL0     C29279  10.358   0.678   9.599 -0.3193 -1.1063 -1.0528
  213MOL0     O29280  10.268   0.567   9.625 -0.2132  0.0834  0.0526
  213MOL0     C29281  10.219   0.550   9.749  0.2513  0.8848  0.2544
  213MOL0     C29282  10.118   0.460   9.759 -0.4705  0.2102 -0.8613
  213MOL0     C29283  10.066   0.424   9.880  0.7092  0.3496 -0.0402
  213MOL0     C29284   9.948   0.329   9.875 -0.0680 -0.5140 -0.4431
  213MOL0     C29285  10.123   0.478  10.006  0.8589 -1.1679 -0.0070
  213MOL0     C29286  10.083   0.434  10.136 -0.6823 -0.7828  0.2963
  213MOL0     O29287  10.077   0.532  10.229 -0.2060  0.2149 -0.3135
  213MOL0     C29288  10.023   0.508  10.354  0.4368  0.2432  0.7331
  213MOL0     C29289  10.097   0.464  10.464 -0.2544  0.9112 -0.7165
  213MOL0     C29290  10.051   0.421  10.586 -0.4328 -0.4580 -0.2886
  213MOL0     C29291   9.911   0.437  10.599 -1.0025 -0.0701 -0.6941
  213MOL0     O29292   9.840   0.409  10.713  0.1506  0.5033 -0.1702
  213MOL0     C29293   9.884   0.334  10.824 -0.2241 -0.3779  0.8686
  213MOL0     C29294   9.795   0.356  10.943  0.8607 -0.9272  0.1240
  213MOL0     C29295   9.783   0.508  10.980 -0.0870  0.2419 -0.5616
  213MOL0     C29296   9.683   0.549  11.089 -0.2342  0.3634 -0.8553
  213MOL0     C29297   9.732   0.682  11.173  0.5911 -0.3294  0.8743
  213MOL0     C29298   9.710   0.808  11.083 -0.2353 -0.5271 -0.7844
  213MOL0     C29299   9.780   0.926  11.145  0.4871 -0.5108  0.1934
  213MOL0     C29300   9.721   1.052  11.100 -0.5078 -0.4289  0.5603
  213MOL0    Cl29301   9.770   1.182  11.196  0.2026  0.1212 -0.2509
  213MOL0     C29302   9.830   0.492  10.498  0.1992 -0.3524  0.6819
  213MOL0     C29303   9.888   0.529  10.376 -0.1328 -0.1077 -0.5656
  213MOL0     O29304  10.058   0.322  10.159  0.3232  0.0128 -0.1878
  213MOL0     C29305  10.223   0.574   9.995 -0.0685  0.5363 -0.1845
  213MOL0     C29306  10.272   0.603   9.868  0.0659 -0.0784 -0.3420
  213MOL0     N29307  10.151   1.137   9.378  0.2502  0.4144  0.9562
  213MOL0     N29308  10.142   1.152   9.247  0.5544  0.1614 -1.7698
  213MOL0     C29309  10.600   0.899   8.026  0.1610  0.0409  0.4130
  213MOL0     C29310  10.696   0.904   7.929 -0.3697 -0.1782  0.7715
  213MOL0     C29311  11.033   0.933   7.642  1.0602 -0.4363  0.2834
  213MOL0     C29312  11.128   1.031   7.674 -0.0025  0.0607  0.3356
  213MOL0     C29313  11.256   1.025   7.621  0.4923 -0.3474 -0.0721
  213MOL0     C29314  11.295   0.930   7.534 -0.9777  0.1915 -0.3565
  213MOL0     O29315  11.416   0.924   7.464 -0.1230 -1.2256 -0.6692
  213MOL0     C29316  11.534   1.000   7.508  1.0924 -0.1083  0.4069
  213MOL0     C29317  11.527   1.127   7.428  0.5047 -0.8446 -0.3287
  213MOL0     C29318  11.620   1.239   7.470 -0.1571 -0.3301 -0.1233
  213MOL0     C29319  11.581   1.367   7.411 -0.7689  0.2287 -0.8628
  213MOL0     C29320  11.690   1.462   7.380  0.2546  0.1866  0.2922
  213MOL0     C29321  11.774   1.536   7.355 -0.3950  0.1940 -2.2036
  213MOL0     C29322  11.199   0.832   7.500 -0.0754 -0.2852 -0.0333
  213MOL0     C29323  11.067   0.831   7.550 -0.7949  0.4150 -0.7254
  213MOL0     C29324  10.972   0.738   7.482 -0.2538 -0.3591  0.0403
  213MOL0     H29325  10.882   1.162   8.029 -0.5129  2.4793  1.6759
  213MOL0     H29326  10.700   1.168   8.204  2.8510  2.7821 -1.4507
  213MOL0     H29327  10.489   1.134   8.352  0.3982 -0.1223  1.1043
  213MOL0     H29328  10.541   0.950   8.381  0.7624 -1.6831 -2.7928
  213MOL0     H29329  10.268   1.076   8.332  2.1661  1.1063 -3.5170
  213MOL0     H29330  10.287   0.919   8.385 -1.0570  0.4886 -1.3986
  213MOL0     H29331  10.368   1.168   8.557  2.5816  0.2812  3.1793
  213MOL0     H29332  10.238   1.051   8.582 -0.3790  1.1954 -1.1999
  213MOL0     H29333  10.394   0.871   8.634 -2.9930  0.9033  4.8189
  213MOL0     H29334  10.536   0.975   8.589  0.8619  1.5276  1.4530
  213MOL0     H29335  10.438   1.138   8.770 -0.5517 -0.1478  1.5703
  213MOL0     H29336  10.531   1.008   8.833  1.7401  2.8372 -1.9945
  213MOL0     H29337  10.233   1.036   8.819 -1.0512  1.4512  2.0215
  213MOL0     H29338  10.307   0.881   8.830 -1.8999  0.4821 -2.7620
  213MOL0     H29339  10.441   1.036   9.044 -0.5791  2.2051  3.5316
  213MOL0     H29340  10.298   0.942   9.062 -0.1718  2.2922  2.0549
  213MOL0     H29341  10.354   1.245   9.029  0.8188 -0.4598 -0.4082
  213MOL0     H29342  10.198   1.178   8.995  2.5236  1.3133 -3.3593
  213MOL0     H29343  10.465   1.120   9.282 -0.6402 -3.7562 -0.2240
  213MOL0     H29344  10.262   1.083   9.611 -2.2866  2.2965 -2.8492
  213MOL0     H29345  10.412   1.164   9.568 -1.8639  2.3173 -1.1422
  213MOL0     H29346  10.447   0.897   9.463  0.9584 -2.8622  1.3252
  213MOL0     H29347  10.467   0.951   9.639 -1.5763  2.4378  2.2428
  213MOL0     H29348  10.264   0.841   9.692  0.5466  0.4867  0.9520
  213MOL0     H29349  10.222   0.834   9.517  0.4481  1.9741 -0.8308
  213MOL0     H29350  10.405   0.666   9.501  0.4263 -0.6433 -0.7588
  213MOL0     H29351  10.435   0.682   9.677  0.2351 -1.1544 -1.5889
  213MOL0     H29352  10.081   0.421   9.665 -1.1450  1.9697 -1.3653
  213MOL0     H29353   9.856   0.367   9.829 -0.3343  1.4828  1.5907
  213MOL0     H29354   9.930   0.303   9.980  1.7676  1.5093  0.4516
  213MOL0     H29355   9.979   0.239   9.822  0.4801 -0.5180 -0.1209
  213MOL0     H29356  10.202   0.456  10.439 -0.8608 -0.5651 -3.1482
  213MOL0     H29357  10.106   0.373  10.667 -0.9195  1.8947  1.5323
  213MOL0     H29358   9.878   0.230  10.790 -1.0008  0.1647 -0.7799
  213MOL0     H29359   9.985   0.352  10.862 -0.6352 -3.5739  4.0294
  213MOL0     H29360   9.694   0.317  10.928  0.6411  0.0348 -0.9906
  213MOL0     H29361   9.838   0.306  11.031  0.2239  1.1763  1.7227
  213MOL0     H29362   9.759   0.560  10.886  4.0659 -1.5171 -2.8436
  213MOL0     H29363   9.873   0.559  11.016 -0.3618  0.3482 -0.0174
  213MOL0     H29364   9.682   0.475  11.170 -3.9300  1.4942  0.3283
  213MOL0     H29365   9.585   0.563  11.043  0.6505 -0.6490 -3.1778
  213MOL0     H29366   9.663   0.697  11.257 -1.2134 -2.3265 -0.1631
  213MOL0     H29367   9.831   0.680  11.219  1.2094  3.0775  0.0360
  213MOL0     H29368   9.602   0.822  11.091 -0.5790 -2.3564 -1.6998
  213MOL0     H29369   9.744   0.794  10.980 -1.2103  0.2219 -1.2156
  213MOL0     H29370   9.881   0.922  11.104  0.0843 -0.6808 -0.8142
  213MOL0     H29371   9.772   0.912  11.254 -0.6189  1.5606  0.4464
  213MOL0     H29372   9.612   1.045  11.106 -0.5181 -1.3349 -0.2979
  213MOL0     H29373   9.742   1.069  10.994  1.2933 -1.9279  0.6142
  213MOL0     H29374   9.724   0.510  10.514  0.3503 -1.1324  2.8825
  213MOL0     H29375   9.836   0.572  10.291  0.4842 -0.1295 -0.9586
  213MOL0     H29376  10.268   0.633  10.075  0.3990  4.3097 -2.9428
  213MOL0     H29377  10.347   0.681   9.861  0.1156 -0.2468 -2.9647
  213MOL0     H29378  10.517   0.835   7.996 -1.1653  3.0470 -2.9915
  213MOL0     H29379  10.689   0.838   7.842 -1.1598  1.7417 -0.6992
  213MOL0     H29380  11.104   1.107   7.748 -2.1772 -0.9239  0.7380
  213MOL0     H29381  11.321   1.111   7.638 -3.0317  2.0566  2.8076
  213MOL0     H29382  11.531   1.020   7.616 -1.2447  3.6098 -0.1639
  213MOL0     H29383  11.625   0.944   7.486  0.3759 -0.6866 -1.2257
  213MOL0     H29384  11.423   1.161   7.437  0.7431 -0.4303  1.0381
  213MOL0     H29385  11.556   1.106   7.324  0.7162 -0.5610 -0.3289
  213MOL0     H29386  11.623   1.256   7.579  4.3849  3.1645 -0.4541
  213MOL0     H29387  11.723   1.215   7.442 -0.7004 -0.6537 -1.9461
  213MOL0     H29388  11.510   1.423   7.474 -0.2717 -2.3325  2.1939
  213MOL0     H29389  11.526   1.343   7.319 -1.3088 -0.0195 -0.4787
  213MOL0     H29390  11.855   1.604   7.339  1.7586 -1.8447 -0.6793
  213MOL0     H29391  11.239   0.764   7.426  3.6504  1.4628  0.1321
  213MOL0     H29392  10.918   0.683   7.559 -2.2978  1.0830 -0.2799
  213MOL0     H29393  10.900   0.803   7.431 -0.4696  2.1178  3.2000
  213MOL0     H29394  11.016   0.676   7.403 -1.4846 -0.8856 -0.2517
  214MOL0     O29395  10.192   1.388   6.410 -0.2019 -0.1165  0.4035
  214MOL0     C29396  10.250   1.355   6.308  0.4505 -0.5859  0.7686
  214MOL0     O29397  10.241   1.428   6.189 -0.6670 -0.8051 -0.2455
  214MOL0     C29398  10.173   1.549   6.181 -0.1915  1.0125 -0.3972
  214MOL0     C29399  10.149   1.630   6.291 -0.1630  1.1762  0.4213
  214MOL0     C29400  10.061   1.734   6.292 -0.4120 -0.2188  0.2702
  214MOL0     C29401   9.983   1.762   6.177 -0.1878  0.2792  0.7106
  214MOL0     O29402   9.882   1.857   6.148  0.2983  0.3618  0.7300
  214MOL0     C29403   9.872   1.975   6.228  0.3340  0.4127 -0.2463
  214MOL0     C29404   9.996   2.054   6.224 -0.7542 -0.2432 -0.1676
  214MOL0     C29405  10.029   2.131   6.090  0.0749  0.3279 -0.1527
  214MOL0     C29406  10.128   2.047   6.013  0.7048  0.7788 -0.3261
  214MOL0     C29407  10.134   2.086   5.866 -0.6391 -0.2230  0.4061
  214MOL0     C29408  10.231   2.007   5.783  1.1679  0.2725 -0.6433
  214MOL0     C29409  10.274   2.058   5.653  0.5137 -0.5033  0.0712
  214MOL0     C29410  10.166   2.060   5.543 -0.1128  0.4432  0.9115
  214MOL0     N29411  10.228   2.137   5.428 -0.3432 -0.2116  0.4516
  214MOL0     C29412  10.335   2.090   5.360  0.1111  0.2017 -0.6774
  214MOL0     C29413  10.334   2.185   5.268  0.3433  0.3878  0.1005
  214MOL0     C29414  10.422   2.178   5.148  0.5794  0.0332 -0.5922
  214MOL0     C29415  10.560   2.239   5.171 -0.8251 -0.3698  0.1009
  214MOL0     C29416  10.647   2.210   5.046 -0.1723 -0.4446 -0.5359
  214MOL0     C29417  10.776   2.294   5.064 -0.4072  0.2278  0.3095
  214MOL0     O29418  10.854   2.286   4.944  0.1982 -0.2890  0.6097
  214MOL0     C29419  10.914   2.161   4.908  1.2021 -0.7954  0.7578
  214MOL0     C29420  10.990   2.089   5.008 -0.1062 -0.2592  0.2068
  214MOL0     C29421  11.067   1.983   4.965  0.3220 -0.1339 -1.0165
  214MOL0     C29422  11.142   1.911   5.078 -0.5243 -0.3498  0.8550
  214MOL0     C29423  11.067   1.941   4.829  0.5727  0.1960 -0.6902
  214MOL0     C29424  11.152   1.828   4.790 -0.1956 -0.2213  0.9435
  214MOL0     O29425  11.095   1.747   4.686  0.3425  0.6689  0.6887
  214MOL0     C29426  11.153   1.629   4.660  0.5896  0.1022 -0.5960
  214MOL0     C29427  11.144   1.596   4.530  0.5495  1.0816 -0.4432
  214MOL0     C29428  11.215   1.484   4.473  0.1706  0.2023 -0.6177
  214MOL0     C29429  11.276   1.390   4.566 -1.2249 -0.3771  0.3346
  214MOL0     O29430  11.357   1.282   4.520  0.3989 -0.3504 -0.1550
  214MOL0     C29431  11.324   1.228   4.395 -0.1913  0.8496  0.2930
  214MOL0     C29432  11.358   1.081   4.395  0.1711  0.0928  0.1149
  214MOL0     C29433  11.324   1.016   4.259 -0.1165  0.1193  0.7021
  214MOL0     C29434  11.370   0.868   4.254  0.2383 -0.0065  0.2151
  214MOL0     C29435  11.352   0.808   4.116 -0.6852 -0.7940 -0.5444
  214MOL0     C29436  11.429   0.678   4.075 -1.1391 -1.1846 -0.3736
  214MOL0     C29437  11.355   0.554   4.124 -0.2834 -0.5284 -2.1115
  214MOL0     C29438  11.432   0.429   4.107  0.1101 -0.1348  0.3294
  214MOL0    Cl29439  11.474   0.408   3.936 -0.2659  0.5425 -0.2446
  214MOL0     C29440  11.286   1.431   4.700 -0.5758 -1.3674 -0.2519
  214MOL0     C29441  11.212   1.537   4.748 -0.1735  1.0117  0.2026
  214MOL0     O29442  11.260   1.801   4.845  0.8769  0.2447  0.0028
  214MOL0     C29443  10.992   2.018   4.737 -0.6139  0.1739 -0.0366
  214MOL0     C29444  10.919   2.126   4.771 -0.0776  0.2126  0.1729
  214MOL0     N29445  10.253   2.295   5.302  1.1795  0.3430 -0.1436
  214MOL0     N29446  10.190   2.260   5.404  0.1580 -0.5273  0.2326
  214MOL0     C29447  10.010   1.673   6.063 -0.1885 -0.9716 -0.3196
  214MOL0     C29448  10.109   1.583   6.061 -0.1257  0.2368  0.1010
  214MOL0     C29449  10.319   1.224   6.295 -0.4423  0.7372 -0.6550
  214MOL0     C29450  10.320   1.150   6.175  0.9378 -0.0451 -0.1829
  214MOL0     C29451  10.383   1.026   6.162  0.5918 -0.8903 -0.2278
  214MOL0     C29452  10.470   0.988   6.260 -0.8672 -0.1428  0.1381
  214MOL0     O29453  10.545   0.869   6.251 -0.8814  0.1883 -0.5867
  214MOL0     C29454  10.623   0.835   6.370  0.2410 -0.2610  0.3184
  214MOL0     C29455  10.725   0.720   6.334  0.6468 -0.0842  0.1939
  214MOL0     C29456  10.804   0.680   6.460  0.8574 -0.5031 -0.3978
  214MOL0     C29457  10.926   0.601   6.430 -0.6676  0.3118 -0.2857
  214MOL0     C29458  10.895   0.457   6.400 -1.3129  0.2579 -0.2244
  214MOL0     C29459  10.853   0.347   6.374 -0.1730 -0.0427  0.4499
  214MOL0     C29460  10.444   1.042   6.386 -1.1291 -0.8784  0.2789
  214MOL0     C29461  10.378   1.167   6.408 -0.7796 -0.7820 -0.6748
  214MOL0     C29462  10.392   1.226   6.548  0.5838  0.1607 -0.3742
  214MOL0     H29463  10.197   1.617   6.388 -0.5347  0.9735  0.5800
  214MOL0     H29464  10.048   1.799   6.378 -3.3309  0.0190 -0.2442
  214MOL0     H29465   9.858   1.923   6.323 -0.0998 -2.9601 -2.0038
  214MOL0     H29466   9.778   2.027   6.208  0.1365 -0.6131 -2.2176
  214MOL0     H29467   9.981   2.133   6.298  1.4586  1.0909 -1.0472
  214MOL0     H29468  10.083   1.998   6.260  0.3787 -0.2846 -2.7183
  214MOL0     H29469   9.933   2.161   6.046 -1.5767 -0.0365  2.8554
  214MOL0     H29470  10.069   2.230   6.110  1.0442 -0.0133 -0.3899
  214MOL0     H29471  10.228   2.050   6.059 -0.0960  1.1639  1.4644
  214MOL0     H29472  10.094   1.943   6.013 -0.0173  0.9723 -2.4874
  214MOL0     H29473  10.154   2.193   5.852 -1.0721 -0.1703  0.1369
  214MOL0     H29474  10.029   2.078   5.836 -1.7768  1.9527  3.2996
  214MOL0     H29475  10.318   1.984   5.845  0.8868 -1.2557 -0.7618
  214MOL0     H29476  10.185   1.909   5.768 -0.4478  0.2581  3.1966
  214MOL0     H29477  10.334   1.974   5.619  2.8424  1.5545 -1.2331
  214MOL0     H29478  10.338   2.146   5.661  0.7567 -0.4744 -1.8114
  214MOL0     H29479  10.150   1.954   5.522  0.0986  0.9726 -2.3384
  214MOL0     H29480  10.070   2.105   5.569  0.2651  1.2953  0.8629
  214MOL0     H29481  10.379   1.991   5.366 -2.3947 -0.8917  2.9977
  214MOL0     H29482  10.378   2.236   5.067  2.3004  3.6770  0.8899
  214MOL0     H29483  10.432   2.074   5.115  2.3664  0.4915 -1.6067
  214MOL0     H29484  10.551   2.346   5.187  0.1458 -0.2797  0.0994
  214MOL0     H29485  10.611   2.190   5.255  0.0800  1.1537  0.4800
  214MOL0     H29486  10.656   2.101   5.044  1.4146 -0.3643  0.5651
  214MOL0     H29487  10.600   2.234   4.950  0.2364  2.8652 -0.0221
  214MOL0     H29488  10.744   2.398   5.072  3.0924  1.5233 -0.4993
  214MOL0     H29489  10.835   2.262   5.150  0.7408 -2.6644 -1.4184
  214MOL0     H29490  10.983   2.112   5.114  0.8111  0.2347  0.1710
  214MOL0     H29491  11.120   1.805   5.069 -0.1729 -0.3241 -0.4311
  214MOL0     H29492  11.105   1.951   5.173 -0.7392 -1.0340  1.0623
  214MOL0     H29493  11.248   1.933   5.060 -0.1660 -0.8786  2.1970
  214MOL0     H29494  11.082   1.671   4.482 -0.9535  0.3791  0.3613
  214MOL0     H29495  11.207   1.473   4.366 -1.0431  0.8844 -0.6257
  214MOL0     H29496  11.220   1.229   4.362  0.7835 -1.0923 -3.3571
  214MOL0     H29497  11.378   1.272   4.311 -1.1071 -1.9652 -1.9610
  214MOL0     H29498  11.466   1.079   4.412 -0.2549  2.2241  4.5283
  214MOL0     H29499  11.309   1.022   4.474  1.9117 -1.0198  0.4098
  214MOL0     H29500  11.369   1.075   4.178 -0.9454 -2.7715 -2.0724
  214MOL0     H29501  11.217   1.010   4.235  0.6498  2.7581 -4.9821
  214MOL0     H29502  11.318   0.812   4.333  0.9368  1.4080  1.7382
  214MOL0     H29503  11.476   0.866   4.284  0.3725  1.0875 -0.1677
  214MOL0     H29504  11.246   0.783   4.105 -0.0180 -3.6971 -1.4309
  214MOL0     H29505  11.383   0.886   4.046  2.2931 -2.6596 -1.4855
  214MOL0     H29506  11.532   0.678   4.112 -0.3268 -1.8271 -2.4756
  214MOL0     H29507  11.429   0.686   3.966  0.3393 -0.8969 -0.3644
  214MOL0     H29508  11.254   0.537   4.084 -1.8604  0.2791  1.1794
  214MOL0     H29509  11.340   0.555   4.232 -2.2611  0.1831 -2.3546
  214MOL0     H29510  11.362   0.352   4.141 -2.4344  0.8627 -2.2733
  214MOL0     H29511  11.521   0.438   4.171  1.1350  0.5823 -1.1372
  214MOL0     H29512  11.340   1.376   4.776  0.1024 -0.5049 -0.0931
  214MOL0     H29513  11.239   1.545   4.853  1.3536  0.9121 -0.1589
  214MOL0     H29514  11.004   2.004   4.630 -0.5259 -0.2576  0.0264
  214MOL0     H29515  10.874   2.182   4.690  0.4389 -2.2967 -2.0037
  214MOL0     H29516   9.951   1.692   5.974  0.8142 -0.1301 -0.8192
  214MOL0     H29517  10.129   1.527   5.970  1.5692  0.7132  0.1487
  214MOL0     H29518  10.257   1.176   6.090 -2.7217 -0.1769  2.2968
  214MOL0     H29519  10.381   0.960   6.077  1.3046  0.0989 -1.0279
  214MOL0     H29520  10.680   0.918   6.412  3.1657 -1.6653 -0.6197
  214MOL0     H29521  10.559   0.791   6.448 -0.0390 -3.5003 -1.5713
  214MOL0     H29522  10.792   0.760   6.257  1.2228 -0.7295  0.3546
  214MOL0     H29523  10.675   0.633   6.290 -1.2351  1.1277 -0.1727
  214MOL0     H29524  10.827   0.768   6.520 -3.4678  0.2013  0.5613
  214MOL0     H29525  10.740   0.628   6.532  2.8612  0.6214  2.3240
  214MOL0     H29526  10.995   0.606   6.514 -0.9555 -2.7712  0.2541
  214MOL0     H29527  10.981   0.637   6.342  0.1598  1.0801  0.5277
  214MOL0     H29528  10.813   0.248   6.386  0.2261  0.0388  2.7211
  214MOL0     H29529  10.504   1.021   6.474  0.7664 -0.7074 -0.9006
  214MOL0     H29530  10.431   1.148   6.614  0.3757 -2.5245 -3.1754
  214MOL0     H29531  10.462   1.309   6.535  2.1706 -1.2382 -1.0864
  214MOL0     H29532  10.292   1.255   6.584 -0.1967 -3.8946  1.2773
  215MOL0     O29533   1.975   9.885   5.499 -0.0649 -0.0024 -0.6681
  215MOL0     C29534   1.990   9.768   5.521  0.3094 -0.0484 -0.5359
  215MOL0     O29535   2.082   9.719   5.609 -0.5559 -0.1730 -0.2591
  215MOL0     C29536   2.179   9.802   5.668  1.0593 -0.0704 -1.0383
  215MOL0     C29537   2.279   9.863   5.591 -0.4069 -1.2391 -0.0491
  215MOL0     C29538   2.380   9.941   5.657 -0.3306 -0.8283 -0.0828
  215MOL0     C29539   2.388   9.951   5.801  0.3924  0.0953  0.7307
  215MOL0     O29540   2.495  10.010   5.846 -1.0851 -0.1272  0.0061
  215MOL0     C29541   2.523  10.021   5.987  0.0120 -0.3206 -0.2908
  215MOL0     C29542   2.435  10.118   6.077 -0.5756  0.5636  0.6444
  215MOL0     C29543   2.446  10.100   6.232  0.1452 -0.9223  0.8245
  215MOL0     C29544   2.587  10.106   6.283 -0.2040 -0.1681 -1.2140
  215MOL0     C29545   2.595  10.076   6.434  0.1277 -0.9161  0.7431
  215MOL0     C29546   2.703  10.160   6.505  0.5702  0.3292  0.5418
  215MOL0     C29547   2.703  10.118   6.653  0.1367 -0.0405  0.9769
  215MOL0     C29548   2.807  10.204   6.727 -0.2558 -0.4048  0.2389
  215MOL0     N29549   2.856  10.124   6.840 -0.3612 -0.1832 -0.3583
  215MOL0     C29550   2.814  10.135   6.967  0.0190  0.1812 -0.3205
  215MOL0     C29551   2.884  10.040   7.030  0.5263 -0.1004  0.6323
  215MOL0     C29552   2.867  10.005   7.178  1.4933 -0.0129  0.4604
  215MOL0     C29553   2.938  10.104   7.270 -0.2993  0.7060 -0.0930
  215MOL0     C29554   3.009  10.047   7.399 -0.7696 -0.0152 -1.0054
  215MOL0     C29555   3.128   9.947   7.368  1.0733  0.0127 -0.4566
  215MOL0     O29556   3.210  10.001   7.263  0.3734  0.5611  0.8655
  215MOL0     C29557   3.276   9.911   7.189  0.8931  0.5298  0.1177
  215MOL0     C29558   3.251   9.906   7.050 -0.9098 -0.3688 -0.5110
  215MOL0     C29559   3.309   9.806   6.972 -0.3380  0.1376 -0.5019
  215MOL0     C29560   3.289   9.841   6.821 -0.6450  0.2676 -0.0785
  215MOL0     C29561   3.392   9.713   7.032 -0.1924 -0.0588  0.1709
  215MOL0     C29562   3.470   9.626   6.944 -0.1214 -0.0259 -1.1917
  215MOL0     O29563   3.399   9.573   6.835  0.0782 -0.5264 -0.7006
  215MOL0     C29564   3.432   9.450   6.793  0.7567  0.1572  0.8810
  215MOL0     C29565   3.569   9.408   6.760 -0.3332 -1.4600  0.2296
  215MOL0     C29566   3.599   9.270   6.747  0.7607  0.0330 -0.2797
  215MOL0     C29567   3.492   9.181   6.739 -0.9031 -0.4779 -0.8124
  215MOL0     O29568   3.526   9.050   6.718 -1.1861 -0.3154 -0.3569
  215MOL0     C29569   3.449   8.951   6.783 -0.6595 -0.1432 -0.1538
  215MOL0     C29570   3.552   8.857   6.843  0.5177 -0.3427 -0.1475
  215MOL0     C29571   3.479   8.747   6.926  0.3348 -1.1343 -0.3605
  215MOL0     C29572   3.352   8.690   6.854 -0.5084  0.3608 -0.2419
  215MOL0     C29573   3.281   8.581   6.922 -1.0668  0.3488 -0.2864
  215MOL0     C29574   3.364   8.453   6.945 -0.7549  0.1934  0.1052
  215MOL0     C29575   3.281   8.328   6.970  0.3924  0.7036  0.0946
  215MOL0     C29576   3.385   8.216   6.943 -0.5581 -0.4386 -0.6670
  215MOL0    Cl29577   3.542   8.213   7.033 -0.1829 -0.2183  0.0754
  215MOL0     C29578   3.365   9.222   6.762  0.2036  0.4291  0.5721
  215MOL0     C29579   3.329   9.357   6.793  0.5374 -0.8215  0.0992
  215MOL0     O29580   3.571   9.578   6.990 -0.4972 -0.2646 -0.1756
  215MOL0     C29581   3.421   9.720   7.173  0.6167  0.5561  1.1198
  215MOL0     C29582   3.364   9.816   7.248  1.1501  0.2024 -0.8488
  215MOL0     N29583   2.963   9.971   6.944 -0.1087 -1.1594 -0.4747
  215MOL0     N29584   2.950  10.025   6.829 -0.1653  0.4735  0.8055
  215MOL0     C29585   2.279   9.889   5.870 -0.7096  0.3299  0.0199
  215MOL0     C29586   2.187   9.802   5.810  0.1354 -0.5991  0.2408
  215MOL0     C29587   1.900   9.665   5.464  0.6586 -1.1899  0.8038
  215MOL0     C29588   1.887   9.552   5.534 -0.8779  0.2694  0.6541
  215MOL0     C29589   1.788   9.452   5.497 -0.3840  0.5400 -0.6622
  215MOL0     C29590   1.705   9.461   5.384 -0.4722 -1.0711  0.1556
  215MOL0     O29591   1.617   9.360   5.345 -0.3098 -0.9087  0.3655
  215MOL0     C29592   1.498   9.367   5.422 -0.3960 -0.5399 -0.3579
  215MOL0     C29593   1.410   9.245   5.394  0.4875 -0.1686  0.1805
  215MOL0     C29594   1.366   9.248   5.244 -0.2296 -0.1034 -0.4193
  215MOL0     C29595   1.262   9.362   5.231 -0.6141  0.1491  0.3257
  215MOL0     C29596   1.322   9.482   5.178  0.0988  0.3705 -0.1633
  215MOL0     C29597   1.361   9.590   5.136 -1.3338 -0.0640 -1.5347
  215MOL0     C29598   1.722   9.577   5.299 -0.6000  0.2309  0.1427
  215MOL0     C29599   1.818   9.676   5.338  0.7209 -0.3949 -0.1888
  215MOL0     C29600   1.823   9.777   5.229 -0.0474 -0.2999  0.6514
  215MOL0     H29601   2.298   9.845   5.486  0.2317 -4.9211  0.5591
  215MOL0     H29602   2.456   9.996   5.604 -2.2792  1.4548 -0.6546
  215MOL0     H29603   2.630  10.046   5.988  0.8368 -3.3280 -1.6338
  215MOL0     H29604   2.516   9.923   6.036  0.2224 -0.1289  0.1311
  215MOL0     H29605   2.468  10.220   6.056 -2.1559  1.0807  0.5393
  215MOL0     H29606   2.333  10.105   6.040 -0.3249  1.9412 -0.6183
  215MOL0     H29607   2.380  10.180   6.267 -0.7423 -0.0373 -2.5100
  215MOL0     H29608   2.406  10.006   6.271  2.4405 -1.5690  1.7865
  215MOL0     H29609   2.655  10.046   6.222 -0.6834 -1.5228 -0.4647
  215MOL0     H29610   2.614  10.211   6.271 -3.3374  0.5128 -3.6933
  215MOL0     H29611   2.601   9.969   6.454 -1.8774 -1.5453 -1.5617
  215MOL0     H29612   2.499  10.088   6.484  2.2047  1.8813  4.6285
  215MOL0     H29613   2.800  10.139   6.458 -0.0735 -0.8098 -0.3422
  215MOL0     H29614   2.674  10.265   6.497 -1.1067 -0.0419  1.3590
  215MOL0     H29615   2.723  10.012   6.673  3.6129  0.3929  0.3020
  215MOL0     H29616   2.602  10.141   6.689 -2.3294 -1.9166 -3.9043
  215MOL0     H29617   2.889  10.227   6.658  3.0319 -0.9770  3.5921
  215MOL0     H29618   2.769  10.301   6.761  0.5469  0.5256 -1.3932
  215MOL0     H29619   2.740  10.209   6.996  0.2748  0.8510 -1.3289
  215MOL0     H29620   2.915   9.908   7.198  1.8247 -0.1675 -0.9522
  215MOL0     H29621   2.760   9.997   7.199  1.7354 -4.6237  1.0254
  215MOL0     H29622   3.020  10.153   7.217  2.6048  1.0938  4.2861
  215MOL0     H29623   2.873  10.186   7.302 -1.4872 -0.2032 -0.0750
  215MOL0     H29624   3.056  10.138   7.438  1.2894  0.2262 -3.7526
  215MOL0     H29625   2.939   9.996   7.466 -0.5726  2.4315  1.2314
  215MOL0     H29626   3.182   9.941   7.463  0.6024  0.0047 -0.1833
  215MOL0     H29627   3.089   9.850   7.335  2.3533 -0.3885 -0.8579
  215MOL0     H29628   3.196   9.989   7.007  0.2300  0.1335 -1.0390
  215MOL0     H29629   3.382   9.823   6.767 -0.0524  1.1526  0.6177
  215MOL0     H29630   3.255   9.944   6.808 -1.4934  0.0020 -0.0444
  215MOL0     H29631   3.211   9.781   6.774 -2.5852  1.4603  1.4357
  215MOL0     H29632   3.637   9.492   6.758  1.1227 -2.5511  1.3066
  215MOL0     H29633   3.702   9.242   6.731  0.8699  0.9106 -1.1367
  215MOL0     H29634   3.383   8.988   6.862 -0.8797 -0.8045 -0.0249
  215MOL0     H29635   3.389   8.917   6.699 -1.8796 -1.1718  1.0894
  215MOL0     H29636   3.623   8.825   6.766  2.0833  4.0944 -0.8494
  215MOL0     H29637   3.612   8.916   6.913  0.2889  3.1922 -2.6630
  215MOL0     H29638   3.445   8.788   7.022  0.8318  5.1279 -2.4162
  215MOL0     H29639   3.543   8.661   6.950 -2.1117 -3.2188 -0.8790
  215MOL0     H29640   3.387   8.657   6.756  0.7251  0.9420 -0.0165
  215MOL0     H29641   3.282   8.772   6.838 -0.8395  0.3497  1.0537
  215MOL0     H29642   3.240   8.616   7.017  0.5573 -0.0031  0.5783
  215MOL0     H29643   3.198   8.558   6.855 -0.4064  2.6737 -2.0455
  215MOL0     H29644   3.438   8.465   7.025 -0.6268  1.7072 -0.2069
  215MOL0     H29645   3.414   8.430   6.850 -0.3151 -2.0362  0.8313
  215MOL0     H29646   3.187   8.313   6.915 -1.1921  1.6531  2.4284
  215MOL0     H29647   3.253   8.338   7.075 -1.9845 -0.3275 -0.3761
  215MOL0     H29648   3.402   8.186   6.839  2.7679 -1.6159  0.0841
  215MOL0     H29649   3.332   8.130   6.985  2.1668 -0.7883  2.4973
  215MOL0     H29650   3.283   9.150   6.756  2.3978 -2.1405 -2.9289
  215MOL0     H29651   3.233   9.393   6.828  1.0232 -0.0907  0.6946
  215MOL0     H29652   3.479   9.634   7.204  0.7939 -0.5804 -1.9947
  215MOL0     H29653   3.370   9.834   7.355 -0.4250 -0.4561 -0.6281
  215MOL0     H29654   2.285   9.886   5.978  0.7090 -0.3289 -0.0531
  215MOL0     H29655   2.108   9.746   5.859 -0.5635  1.2253  1.2956
  215MOL0     H29656   1.954   9.534   5.618  1.4925  1.3380 -0.8891
  215MOL0     H29657   1.792   9.365   5.562  1.5068  3.2193  3.1139
  215MOL0     H29658   1.543   9.344   5.519 -1.2089  0.1277  0.1894
  215MOL0     H29659   1.450   9.465   5.431  2.2136  1.0333 -2.0946
  215MOL0     H29660   1.318   9.263   5.452 -2.0975  1.7935 -4.0113
  215MOL0     H29661   1.460   9.151   5.418  0.9547  0.4254  1.6743
  215MOL0     H29662   1.452   9.263   5.179  0.4027 -1.7806 -0.0258
  215MOL0     H29663   1.325   9.148   5.227 -0.5883  0.3307 -2.2950
  215MOL0     H29664   1.197   9.366   5.318 -1.7708 -4.0802 -0.1277
  215MOL0     H29665   1.193   9.338   5.150  1.2068 -3.3568 -0.3690
  215MOL0     H29666   1.382   9.688   5.098 -0.4193  0.3823  0.0762
  215MOL0     H29667   1.658   9.587   5.212 -1.6762 -0.4393  0.8293
  215MOL0     H29668   1.731   9.834   5.210  1.8853  3.1800  0.8141
  215MOL0     H29669   1.909   9.845   5.235 -0.1214 -0.3179  4.2945
  215MOL0     H29670   1.846   9.719   5.140 -1.9424 -0.3701  0.1715
  216MOL0     O29671   8.690   3.073   0.462  0.0235  0.0620  0.1079
  216MOL0     C29672   8.742   3.178   0.496  0.0365  0.3125 -0.6442
  216MOL0     O29673   8.714   3.302   0.436 -0.4744 -0.0826 -0.9885
  216MOL0     C29674   8.580   3.321   0.397  0.8635  0.6230  0.3131
  216MOL0     C29675   8.470   3.287   0.478 -0.6399  0.2295  0.6134
  216MOL0     C29676   8.341   3.308   0.424 -0.1957 -0.4557  0.7185
  216MOL0     C29677   8.323   3.351   0.289 -0.2315 -0.5647  0.2740
  216MOL0     O29678   8.196   3.344   0.228 -0.0393  0.1874 -0.4326
  216MOL0     C29679   8.100   3.420   0.297  0.7321 -0.7216  0.9991
  216MOL0     C29680   8.099   3.573   0.256 -0.3958  0.4944 -0.0272
  216MOL0     C29681   8.091   3.589   0.098  0.3091 -0.5682 -0.4791
  216MOL0     C29682   8.075   3.735   0.046  0.9190 -0.5551  0.6801
  216MOL0     C29683   8.211   3.807   0.018  0.0588  0.0022  0.2299
  216MOL0     C29684   8.291   3.845   0.151  0.2812 -0.0836  0.4135
  216MOL0     C29685   8.223   3.957   0.229  1.1835  0.2250 -0.0680
  216MOL0     C29686   8.129   3.909   0.343  0.3517  1.0913 -0.1882
  216MOL0     N29687   8.111   4.002   0.455 -0.3399  0.2826 -0.7985
  216MOL0     C29688   8.045   3.964   0.566  1.0827  1.1095 -0.2783
  216MOL0     C29689   8.048   4.073   0.655 -0.3787  0.2362  0.4080
  216MOL0     C29690   8.009   4.079   0.801 -0.9291 -0.2278 -0.0934
  216MOL0     C29691   7.873   4.141   0.826  0.1019  0.1606  0.1067
  216MOL0     C29692   7.771   4.058   0.761  1.1946  0.5209  0.4701
  216MOL0     C29693   7.637   4.105   0.812 -0.1893  0.1306  0.1668
  216MOL0     O29694   7.534   4.018   0.765  0.2585 -0.1895  0.5915
  216MOL0     C29695   7.511   3.892   0.804  0.3924  0.0213 -0.7679
  216MOL0     C29696   7.441   3.803   0.723  0.3649 -1.1181 -0.0569
  216MOL0     C29697   7.417   3.675   0.757 -0.2077  0.8412  0.1564
  216MOL0     C29698   7.332   3.599   0.656 -0.1188  0.1116 -0.7220
  216MOL0     C29699   7.463   3.620   0.886  0.6447  0.4733 -0.3349
  216MOL0     C29700   7.450   3.482   0.937 -0.6028  0.6917  0.1201
  216MOL0     O29701   7.514   3.457   1.051  0.3280  0.0631 -0.5648
  216MOL0     C29702   7.534   3.322   1.094 -0.3341 -0.6572  0.0711
  216MOL0     C29703   7.653   3.253   1.075  0.0221  0.4500 -0.6731
  216MOL0     C29704   7.660   3.115   1.124  0.5558 -0.5140 -0.9244
  216MOL0     C29705   7.546   3.047   1.168 -0.2539 -0.1423  0.4110
  216MOL0     O29706   7.561   2.914   1.159 -0.1294 -0.1641  0.2860
  216MOL0     C29707   7.451   2.814   1.164 -0.5738 -0.3054 -0.1917
  216MOL0     C29708   7.503   2.675   1.218 -0.4859 -0.8037  0.0345
  216MOL0     C29709   7.648   2.651   1.156  0.5084  0.4583  0.9558
  216MOL0     C29710   7.699   2.508   1.188 -0.6811  0.1207 -0.0768
  216MOL0     C29711   7.848   2.501   1.141 -0.2688  0.1971  0.5435
  216MOL0     C29712   7.956   2.500   1.253  1.0853 -0.7226  0.9334
  216MOL0     C29713   8.094   2.476   1.193  0.2936 -0.3729  0.7816
  216MOL0     C29714   8.197   2.520   1.290 -1.5292 -0.0887  1.0199
  216MOL0    Cl29715   8.346   2.409   1.262  0.1314 -0.0073 -0.0627
  216MOL0     C29716   7.426   3.121   1.179  1.7916  0.3958 -0.7078
  216MOL0     C29717   7.423   3.250   1.144 -0.2517  0.4322  0.0605
  216MOL0     O29718   7.383   3.397   0.870 -1.0467 -0.3091  0.1051
  216MOL0     C29719   7.535   3.717   0.965  0.4268 -0.4673 -0.3965
  216MOL0     C29720   7.543   3.850   0.928  1.1297  0.0595 -0.0894
  216MOL0     N29721   8.115   4.171   0.584 -0.7605  0.1509 -0.6886
  216MOL0     N29722   8.157   4.131   0.466  0.8053 -0.1213  0.0548
  216MOL0     C29723   8.435   3.384   0.207  0.2677 -0.0843 -0.7078
  216MOL0     C29724   8.559   3.367   0.265  0.0586  0.4040  0.2273
  216MOL0     C29725   8.831   3.171   0.610  0.3141 -0.1529 -0.7231
  216MOL0     C29726   8.813   3.071   0.704 -0.4369  1.1411  0.5837
  216MOL0     C29727   8.868   3.063   0.829  0.0844  0.1381  0.4808
  216MOL0     C29728   8.961   3.157   0.856  0.5054 -0.0477 -0.1589
  216MOL0     O29729   9.000   3.147   0.988 -0.4205  0.5659  0.3409
  216MOL0     C29730   9.103   3.233   1.032  0.6821 -0.5960 -0.0270
  216MOL0     C29731   9.134   3.184   1.177 -0.2781 -0.2308  0.1904
  216MOL0     C29732   9.216   3.300   1.242  0.3455  0.2959  0.1407
  216MOL0     C29733   9.248   3.259   1.393  0.0302  0.5071  0.0048
  216MOL0     C29734   9.335   3.144   1.380 -0.1321 -0.2421  0.4645
  216MOL0     C29735   9.401   3.046   1.392  0.3304  0.0189  0.4740
  216MOL0     C29736   9.006   3.245   0.769 -0.2351  0.2798 -0.7525
  216MOL0     C29737   8.941   3.258   0.644 -0.2517  0.0822  0.1446
  216MOL0     C29738   8.985   3.374   0.569 -0.0545  0.4150  0.0530
  216MOL0     H29739   8.481   3.265   0.583 -0.7774 -1.0249  0.3799
  216MOL0     H29740   8.246   3.296   0.476 -0.1047  0.5689  1.1478
  216MOL0     H29741   8.111   3.421   0.406 -1.6190 -0.9327  1.2772
  216MOL0     H29742   7.999   3.388   0.271 -1.0428 -0.6063  6.5844
  216MOL0     H29743   8.014   3.628   0.297 -1.3641 -3.4508  3.9799
  216MOL0     H29744   8.187   3.623   0.295 -0.5028 -0.3897  1.4246
  216MOL0     H29745   8.166   3.528   0.047  1.8023  0.2376  0.6630
  216MOL0     H29746   8.001   3.538   0.063  1.0563 -1.6204 -0.9421
  216MOL0     H29747   8.025   3.726  -0.051 -0.9704 -0.5203  1.6083
  216MOL0     H29748   8.022   3.804   0.112 -0.5742 -1.2643  0.2446
  216MOL0     H29749   8.203   3.888  -0.056  1.7606 -2.2022 -2.5941
  216MOL0     H29750   8.286   3.742  -0.029 -0.6597  0.0029 -0.9794
  216MOL0     H29751   8.318   3.762   0.217  0.6714  2.7139  4.0548
  216MOL0     H29752   8.387   3.886   0.118 -0.3769  1.3453  0.2028
  216MOL0     H29753   8.171   4.023   0.158 -0.9653  0.1534  1.3532
  216MOL0     H29754   8.302   4.007   0.287  0.8926  1.2621 -0.5309
  216MOL0     H29755   8.029   3.885   0.305  0.9299 -4.3828  0.9532
  216MOL0     H29756   8.168   3.816   0.386 -0.7456  0.7092  0.0217
  216MOL0     H29757   8.025   3.866   0.607  1.4897  1.5863  1.1357
  216MOL0     H29758   8.084   4.127   0.864  0.0142 -1.9029  0.1146
  216MOL0     H29759   7.998   3.975   0.833 -1.2689 -0.2099 -0.1483
  216MOL0     H29760   7.861   4.121   0.933  2.1713 -0.1438  0.3407
  216MOL0     H29761   7.858   4.245   0.796 -1.1007 -0.5701 -2.0172
  216MOL0     H29762   7.784   4.060   0.653  0.7010 -0.9683  0.3560
  216MOL0     H29763   7.780   3.954   0.793  3.4560  0.8363  1.0379
  216MOL0     H29764   7.631   4.117   0.920 -1.0904 -1.6394  0.3596
  216MOL0     H29765   7.621   4.205   0.771  1.0166 -0.1414 -1.0532
  216MOL0     H29766   7.397   3.839   0.631  0.3310 -2.3094 -0.5157
  216MOL0     H29767   7.381   3.511   0.614 -0.1865 -0.7198  0.8644
  216MOL0     H29768   7.297   3.662   0.574 -2.5694  0.8217  0.7642
  216MOL0     H29769   7.236   3.575   0.702 -2.2848  3.5436 -2.9258
  216MOL0     H29770   7.740   3.304   1.034  0.3475  0.4038 -0.0493
  216MOL0     H29771   7.747   3.053   1.111 -0.9621 -2.9093 -0.3389
  216MOL0     H29772   7.377   2.854   1.234 -2.2611  0.7047 -2.4190
  216MOL0     H29773   7.403   2.805   1.066  0.8049  0.0721 -0.9303
  216MOL0     H29774   7.530   2.678   1.324  2.3776 -1.1180 -0.6105
  216MOL0     H29775   7.428   2.595   1.214 -0.8743 -0.4533  0.1463
  216MOL0     H29776   7.724   2.715   1.203  2.9916 -1.0966 -0.7200
  216MOL0     H29777   7.643   2.659   1.047  1.3408 -1.0131  0.7836
  216MOL0     H29778   7.637   2.431   1.141  2.0638 -0.7840 -2.4480
  216MOL0     H29779   7.702   2.488   1.296  0.4548  1.0315  0.0715
  216MOL0     H29780   7.866   2.419   1.070  0.4818  0.5726  0.2868
  216MOL0     H29781   7.871   2.591   1.084 -1.1644  0.3222  0.3580
  216MOL0     H29782   7.925   2.425   1.327 -0.7856 -1.0476 -0.1155
  216MOL0     H29783   7.956   2.596   1.306  1.6475 -0.1138 -0.1393
  216MOL0     H29784   8.101   2.521   1.094 -1.0668 -2.0312 -0.1173
  216MOL0     H29785   8.106   2.371   1.167 -0.2116  0.1391 -1.8305
  216MOL0     H29786   8.167   2.512   1.395 -2.1749  3.3683  1.2188
  216MOL0     H29787   8.222   2.624   1.268 -1.7264 -0.0819  0.8248
  216MOL0     H29788   7.335   3.066   1.197  4.0539 -5.5292 -4.2739
  216MOL0     H29789   7.332   3.309   1.149  0.5255  1.5403  1.5292
  216MOL0     H29790   7.580   3.676   1.055  3.3257 -1.4162 -2.1653
  216MOL0     H29791   7.571   3.922   1.005 -1.4975 -2.0623  3.1160
  216MOL0     H29792   8.413   3.430   0.111 -2.4835  3.6561  1.4528
  216MOL0     H29793   8.644   3.360   0.199  0.6119  1.1757  0.8327
  216MOL0     H29794   8.733   2.998   0.689  1.3459 -0.7577 -0.2164
  216MOL0     H29795   8.815   2.994   0.894 -1.0890  0.2435 -0.3435
  216MOL0     H29796   9.188   3.226   0.964  0.2632 -1.2059 -0.4984
  216MOL0     H29797   9.069   3.337   1.039  2.7060  0.0207  1.9622
  216MOL0     H29798   9.190   3.090   1.165  0.3816  0.1717  0.0746
  216MOL0     H29799   9.047   3.180   1.244 -0.4758  0.7470 -0.0014
  216MOL0     H29800   9.304   3.328   1.183 -0.1673 -1.4442 -1.5655
  216MOL0     H29801   9.158   3.393   1.241  1.2821  0.9147 -2.2031
  216MOL0     H29802   9.160   3.249   1.457 -0.8702  3.7354 -0.5515
  216MOL0     H29803   9.310   3.336   1.441  1.6487 -0.9350  0.3256
  216MOL0     H29804   9.453   2.952   1.397  1.2565  0.4299 -0.9981
  216MOL0     H29805   9.085   3.312   0.799  0.6449  0.1250 -2.5969
  216MOL0     H29806   9.094   3.378   0.568  0.1267 -2.5194  0.0211
  216MOL0     H29807   8.942   3.375   0.468 -2.0968  2.3968  0.8647
  216MOL0     H29808   8.946   3.458   0.626  0.5081  1.9680 -1.7484
  217MOL0     O29809   2.890   5.087   5.355 -0.6650  1.3297 -0.3530
  217MOL0     C29810   2.808   5.174   5.343 -0.3955 -1.0986 -0.2113
  217MOL0     O29811   2.727   5.233   5.438  0.0189  0.1931 -0.4715
  217MOL0     C29812   2.713   5.159   5.549  0.5370  0.1518  0.1774
  217MOL0     C29813   2.816   5.128   5.637  0.7902 -0.0354  0.0767
  217MOL0     C29814   2.787   5.030   5.740  0.3625  0.7437  0.5138
  217MOL0     C29815   2.651   4.990   5.763 -0.1992 -0.3363  0.0952
  217MOL0     O29816   2.610   4.897   5.857 -0.8450 -0.3514 -0.5883
  217MOL0     C29817   2.707   4.822   5.937  0.8050 -0.5693 -0.7015
  217MOL0     C29818   2.624   4.718   6.007 -0.2464 -0.5351  0.0488
  217MOL0     C29819   2.721   4.636   6.099 -0.2546  0.8304  0.1147
  217MOL0     C29820   2.640   4.587   6.212  0.2873  0.1265 -0.2165
  217MOL0     C29821   2.724   4.505   6.310 -0.0479  0.4896 -0.4805
  217MOL0     C29822   2.633   4.478   6.437 -0.5039 -0.6599  1.2602
  217MOL0     C29823   2.682   4.372   6.514 -0.5128 -0.4273 -0.2629
  217MOL0     C29824   2.614   4.316   6.629  1.4754 -0.5250 -0.2729
  217MOL0     N29825   2.460   4.306   6.608 -1.0511  1.2013 -0.1309
  217MOL0     C29826   2.362   4.372   6.676  0.2275  0.2632 -0.5822
  217MOL0     C29827   2.246   4.326   6.622 -0.0613 -1.4464 -0.4779
  217MOL0     C29828   2.110   4.356   6.683 -0.9696  0.3936  0.5149
  217MOL0     C29829   2.070   4.507   6.658  0.8883  0.1903  0.3525
  217MOL0     C29830   1.944   4.538   6.734  0.7415  0.0209 -0.1295
  217MOL0     C29831   1.828   4.431   6.731 -0.1991 -0.3672  0.5114
  217MOL0     O29832   1.770   4.461   6.602  0.3213 -0.0494 -0.7410
  217MOL0     C29833   1.668   4.377   6.559 -1.3310  0.5246 -0.6339
  217MOL0     C29834   1.675   4.301   6.433 -0.1552 -1.1068 -0.6894
  217MOL0     C29835   1.569   4.223   6.378 -0.0955 -0.0158 -0.1772
  217MOL0     C29836   1.583   4.169   6.239 -0.1430  0.4524 -0.9557
  217MOL0     C29837   1.450   4.210   6.458 -0.5666  0.0291  0.7967
  217MOL0     C29838   1.333   4.130   6.418 -0.4797 -0.7619  0.5520
  217MOL0     O29839   1.351   4.036   6.321 -0.4125  0.9753 -0.3742
  217MOL0     C29840   1.244   3.945   6.278  0.4011 -0.1157 -0.2054
  217MOL0     C29841   1.247   3.889   6.153  0.4144 -0.0076 -0.3263
  217MOL0     C29842   1.144   3.791   6.120 -0.4922 -0.0631 -0.0596
  217MOL0     C29843   1.054   3.746   6.216 -0.4283 -0.2210 -0.0602
  217MOL0     O29844   0.976   3.638   6.199 -0.1108 -0.1738 -0.3941
  217MOL0     C29845   1.001   3.521   6.271 -0.3235  0.3060 -0.4238
  217MOL0     C29846   0.863   3.457   6.274 -0.5995 -0.4861 -0.2329
  217MOL0     C29847   0.892   3.310   6.299  0.2449  0.2044  0.7440
  217MOL0     C29848   0.796   3.208   6.230 -0.1410 -0.0494  0.8674
  217MOL0     C29849   0.819   3.070   6.291  0.4468 -0.5860  0.0917
  217MOL0     C29850   0.738   2.973   6.216  0.7674 -0.5880  0.6270
  217MOL0     C29851   0.735   2.843   6.291  0.7000  0.4860 -0.0878
  217MOL0     C29852   0.739   2.734   6.192  0.0937 -0.3983  0.3306
  217MOL0    Cl29853   0.621   2.763   6.058  0.0520  0.1967 -0.0359
  217MOL0     C29854   1.058   3.799   6.344  0.0667  0.8297  0.1704
  217MOL0     C29855   1.155   3.893   6.372  0.3984  0.3187 -0.0557
  217MOL0     O29856   1.231   4.154   6.485  0.3632 -0.0150  0.2826
  217MOL0     C29857   1.441   4.292   6.572 -0.1643 -0.1687  0.3079
  217MOL0     C29858   1.552   4.366   6.628  0.1024  0.7478  0.6845
  217MOL0     N29859   2.279   4.254   6.504 -0.6898  0.0460 -0.5587
  217MOL0     N29860   2.403   4.249   6.496  0.2679 -0.5083  0.1752
  217MOL0     C29861   2.556   5.035   5.682 -0.2512 -0.6838 -0.5689
  217MOL0     C29862   2.578   5.133   5.582  0.1219  0.6277  0.9228
  217MOL0     C29863   2.791   5.248   5.211  0.2497  0.2365 -0.0150
  217MOL0     C29864   2.707   5.364   5.208  0.7753 -0.6838  1.6561
  217MOL0     C29865   2.681   5.429   5.085  0.4690 -0.1713 -0.4595
  217MOL0     C29866   2.730   5.362   4.967 -0.1022 -1.1810  0.3873
  217MOL0     O29867   2.706   5.432   4.851  0.6632  0.0906 -0.5349
  217MOL0     C29868   2.806   5.532   4.800 -0.7003 -0.8048 -1.0188
  217MOL0     C29869   2.738   5.649   4.719  1.2050  0.1406 -0.4513
  217MOL0     C29870   2.846   5.744   4.659 -0.2341  0.1309  0.3217
  217MOL0     C29871   2.776   5.858   4.576  0.0361 -0.1769 -1.1431
  217MOL0     C29872   2.738   5.790   4.450 -0.2589 -0.0812 -0.0351
  217MOL0     C29873   2.716   5.720   4.354  0.2213 -0.3219 -0.5995
  217MOL0     C29874   2.820   5.257   4.974 -0.3093  0.2999  0.7130
  217MOL0     C29875   2.856   5.205   5.100  0.1349 -0.8634  0.3513
  217MOL0     C29876   2.964   5.105   5.083  0.4063  1.2022 -0.4600
  217MOL0     H29877   2.922   5.148   5.633  0.8560 -0.2441  0.7078
  217MOL0     H29878   2.867   4.985   5.797 -0.4605  1.1134  2.0176
  217MOL0     H29879   2.758   4.887   6.009  0.0370  0.4894 -1.0876
  217MOL0     H29880   2.789   4.780   5.878  1.9316 -0.4090  0.7035
  217MOL0     H29881   2.564   4.769   6.083  1.9995 -0.8792  2.1678
  217MOL0     H29882   2.564   4.656   5.939 -0.6928  2.8862 -2.9942
  217MOL0     H29883   2.772   4.559   6.040  2.0006  2.0741  0.3135
  217MOL0     H29884   2.799   4.699   6.143  1.1911  0.1249 -1.3192
  217MOL0     H29885   2.586   4.666   6.266 -0.2786 -1.1028  1.1042
  217MOL0     H29886   2.564   4.515   6.182 -1.3077  0.7172  2.0567
  217MOL0     H29887   2.821   4.550   6.332 -0.6093  2.3340 -1.5383
  217MOL0     H29888   2.753   4.417   6.252  2.1437  1.4703 -0.9892
  217MOL0     H29889   2.633   4.572   6.493 -1.0785  1.4781 -2.0995
  217MOL0     H29890   2.532   4.448   6.408 -0.5432 -2.8342  3.2861
  217MOL0     H29891   2.783   4.383   6.553 -0.9050 -3.3866  1.9002
  217MOL0     H29892   2.689   4.285   6.447  3.1771 -0.7097  0.3008
  217MOL0     H29893   2.652   4.219   6.662  1.1153  0.1244  2.2973
  217MOL0     H29894   2.622   4.380   6.718 -1.8184  2.1002 -1.6408
  217MOL0     H29895   2.382   4.414   6.774  4.3391 -0.6371 -0.8536
  217MOL0     H29896   2.126   4.352   6.791 -1.0084 -0.5314  0.4951
  217MOL0     H29897   2.041   4.279   6.645  0.3611 -0.0952 -1.0364
  217MOL0     H29898   2.151   4.569   6.695  1.1031 -2.4410  5.0678
  217MOL0     H29899   2.049   4.522   6.552  1.1826  0.6998  0.3645
  217MOL0     H29900   1.955   4.571   6.838 -1.2875  2.9133 -0.6983
  217MOL0     H29901   1.896   4.627   6.692 -2.2496 -1.0087  0.8408
  217MOL0     H29902   1.838   4.323   6.746  0.5331 -0.0672  2.4919
  217MOL0     H29903   1.766   4.466   6.814  1.2478 -1.7442  2.2647
  217MOL0     H29904   1.762   4.339   6.381  0.1246  1.5277  1.4702
  217MOL0     H29905   1.644   4.235   6.177 -2.8706  2.1205 -2.0658
  217MOL0     H29906   1.483   4.164   6.194 -1.9944  1.6761  2.5729
  217MOL0     H29907   1.624   4.068   6.242  0.0125  0.5302  1.9176
  217MOL0     H29908   1.320   3.917   6.078  1.2274  0.4686  0.6160
  217MOL0     H29909   1.157   3.736   6.028 -1.0413 -2.6134  1.2839
  217MOL0     H29910   1.077   3.477   6.205  0.2194  1.6454 -0.7360
  217MOL0     H29911   1.047   3.534   6.369 -1.6027  0.1874  0.2058
  217MOL0     H29912   0.804   3.508   6.350  1.3058 -0.7490  1.5155
  217MOL0     H29913   0.808   3.470   6.180 -0.9275 -5.2021 -0.9217
  217MOL0     H29914   0.896   3.287   6.406  0.2961 -1.5827  0.3813
  217MOL0     H29915   0.988   3.284   6.254 -1.5014 -1.0166 -2.6687
  217MOL0     H29916   0.813   3.214   6.122 -2.8869  1.7015  0.4347
  217MOL0     H29917   0.692   3.240   6.245 -0.1172 -0.0494  1.0431
  217MOL0     H29918   0.924   3.037   6.288  0.5758 -0.1698  0.0400
  217MOL0     H29919   0.795   3.084   6.396  1.3194 -1.3460  0.4147
  217MOL0     H29920   0.783   2.955   6.118 -0.4989 -4.0943  0.5542
  217MOL0     H29921   0.634   3.002   6.201  1.4680  0.6323 -2.4667
  217MOL0     H29922   0.644   2.843   6.352  1.7193  1.8789  1.5141
  217MOL0     H29923   0.810   2.821   6.368 -0.8959  0.0077  1.3957
  217MOL0     H29924   0.717   2.639   6.242 -2.4193 -0.6322 -1.0495
  217MOL0     H29925   0.843   2.731   6.156  0.0524 -3.1872  0.2213
  217MOL0     H29926   0.986   3.758   6.414 -1.4578 -1.3119 -2.4469
  217MOL0     H29927   1.159   3.935   6.472 -1.9302  1.2090 -0.2717
  217MOL0     H29928   1.359   4.278   6.642  0.1368 -0.4978  0.6000
  217MOL0     H29929   1.534   4.417   6.723 -0.0986 -2.7130  2.6876
  217MOL0     H29930   2.458   4.989   5.693 -1.6416  2.0828 -0.5051
  217MOL0     H29931   2.501   5.165   5.513  1.2451  3.4796  0.8467
  217MOL0     H29932   2.668   5.424   5.289 -0.1175 -1.1202  1.5653
  217MOL0     H29933   2.635   5.523   5.057 -3.4922 -0.9192  2.5011
  217MOL0     H29934   2.859   5.574   4.886 -0.1580 -2.3559 -0.5611
  217MOL0     H29935   2.884   5.486   4.739 -1.0494  0.4259 -2.4821
  217MOL0     H29936   2.686   5.715   4.788  3.5242 -0.3314  1.9137
  217MOL0     H29937   2.658   5.607   4.658 -1.4353  0.5767  2.4528
  217MOL0     H29938   2.896   5.792   4.743  0.7593 -2.3222  1.2334
  217MOL0     H29939   2.918   5.686   4.600 -0.1829  2.4671 -2.1341
  217MOL0     H29940   2.840   5.940   4.542 -0.4573  0.1764 -1.2275
  217MOL0     H29941   2.692   5.906   4.626  0.5749 -0.0893 -0.2840
  217MOL0     H29942   2.698   5.644   4.281  0.5046 -2.2243  1.2491
  217MOL0     H29943   2.870   5.224   4.883 -1.7939 -0.8676  0.2703
  217MOL0     H29944   3.033   5.132   5.003  1.6346  0.5069  0.3227
  217MOL0     H29945   3.032   5.103   5.170  0.3963 -0.6132 -0.4598
  217MOL0     H29946   2.926   5.005   5.062  3.5321  0.1413 -1.6554
  218MOL0     O29947   6.221   8.231   6.019 -0.1252  0.0518 -1.1665
  218MOL0     C29948   6.276   8.329   6.063 -0.6418  0.1403 -0.3638
  218MOL0     O29949   6.413   8.345   6.065 -0.0584  0.2027  0.2270
  218MOL0     C29950   6.497   8.241   6.049  0.7442  0.4086  0.0413
  218MOL0     C29951   6.489   8.122   6.127 -0.4195  0.4592 -0.0675
  218MOL0     C29952   6.582   8.025   6.123 -1.0710 -0.1055 -0.1991
  218MOL0     C29953   6.692   8.030   6.034 -1.0393  0.3435  1.0149
  218MOL0     O29954   6.799   7.943   6.029  0.6661  0.1809  0.7478
  218MOL0     C29955   6.800   7.809   6.083  0.8290  0.1756  0.1208
  218MOL0     C29956   6.900   7.728   5.998  0.5558 -0.4642  0.2226
  218MOL0     C29957   7.039   7.795   5.992  0.2213 -0.2288 -0.4333
  218MOL0     C29958   7.123   7.739   5.892  0.6494  1.4826 -0.0026
  218MOL0     C29959   7.259   7.791   5.902 -0.6920 -0.1164  0.5793
  218MOL0     C29960   7.335   7.753   5.779  0.0316 -0.4467 -0.0160
  218MOL0     C29961   7.484   7.788   5.786  0.1302 -0.0940  0.4234
  218MOL0     C29962   7.522   7.938   5.778 -0.8415  0.8195  0.7515
  218MOL0     N29963   7.494   8.006   5.645  0.5412  0.6959  0.0370
  218MOL0     C29964   7.583   8.014   5.537  0.1719  0.0926  0.7228
  218MOL0     C29965   7.525   8.100   5.449  0.2491 -0.7073  0.7914
  218MOL0     C29966   7.590   8.147   5.328 -0.1435  0.2648 -0.1573
  218MOL0     C29967   7.526   8.072   5.209  1.2390 -0.5426 -0.4673
  218MOL0     C29968   7.409   8.145   5.150  0.3945  0.2186 -0.1588
  218MOL0     C29969   7.341   8.091   5.021 -0.7354  0.7627 -0.5151
  218MOL0     O29970   7.245   7.989   5.058  0.1564 -0.1852 -0.7928
  218MOL0     C29971   7.165   7.959   4.951 -0.2990  0.1109 -0.2662
  218MOL0     C29972   7.222   7.902   4.834  0.6632 -0.2458 -0.5619
  218MOL0     C29973   7.149   7.869   4.725  0.6087 -0.7439  0.3960
  218MOL0     C29974   7.215   7.791   4.613 -0.1260 -0.3937 -0.0604
  218MOL0     C29975   7.007   7.906   4.723  0.5408  0.3787 -0.3317
  218MOL0     C29976   6.914   7.874   4.609 -0.1257  0.3890  0.0186
  218MOL0     O29977   6.784   7.839   4.636 -0.3461  0.2427  0.0309
  218MOL0     C29978   6.694   7.812   4.535  0.2828  0.5369 -0.9574
  218MOL0     C29979   6.733   7.711   4.445  0.3032 -0.2390  0.7014
  218MOL0     C29980   6.654   7.658   4.338  0.1289 -0.8904 -0.3938
  218MOL0     C29981   6.519   7.719   4.330  0.5843  0.4213  0.1055
  218MOL0     O29982   6.434   7.693   4.223  0.2283  0.1365  0.1549
  218MOL0     C29983   6.458   7.592   4.132  0.1732 -0.2378  0.1024
  218MOL0     C29984   6.441   7.450   4.185  0.3301 -0.4576  0.6852
  218MOL0     C29985   6.305   7.421   4.244 -0.1835 -0.6077 -0.0763
  218MOL0     C29986   6.197   7.391   4.138 -0.2018  0.7000 -0.0003
  218MOL0     C29987   6.222   7.252   4.071  0.4676  0.1091 -0.5658
  218MOL0     C29988   6.094   7.211   3.992 -0.0668 -0.7419  0.4128
  218MOL0     C29989   6.112   7.062   3.934  0.9777  0.5019  0.6382
  218MOL0     C29990   6.007   7.037   3.822  0.5339  0.1959 -0.1315
  218MOL0    Cl29991   5.839   7.049   3.874 -0.1572  0.5504 -0.1943
  218MOL0     C29992   6.484   7.822   4.418 -0.0166 -0.6411  0.7636
  218MOL0     C29993   6.572   7.874   4.512  0.6335  0.5777 -0.2515
  218MOL0     O29994   6.957   7.883   4.495 -0.3867 -0.0247 -0.4254
  218MOL0     C29995   6.956   7.975   4.835 -0.5816  1.0997  0.3839
  218MOL0     C29996   7.035   8.002   4.941  0.0365  0.4762 -0.6824
  218MOL0     N29997   7.408   8.147   5.501  0.7922  0.9267 -0.3142
  218MOL0     N29998   7.391   8.087   5.614 -0.8260 -0.2225  0.4702
  218MOL0     C29999   6.697   8.144   5.949 -0.1995 -0.4058 -0.5954
  218MOL0     C30000   6.598   8.245   5.962  0.0182  0.1895  0.3724
  218MOL0     C30001   6.199   8.440   6.120 -0.3374  0.2724  0.1334
  218MOL0     C30002   6.276   8.534   6.215  0.0907 -0.3365  0.2511
  218MOL0     C30003   6.208   8.629   6.289 -0.6552  0.5515 -0.2848
  218MOL0     C30004   6.070   8.647   6.267 -1.0597  0.3947  0.1029
  218MOL0     O30005   6.019   8.741   6.353  0.3162  1.2386 -0.2262
  218MOL0     C30006   5.870   8.760   6.381  0.2083 -0.5918  0.7760
  218MOL0     C30007   5.798   8.805   6.249 -0.0215 -0.4628 -0.3785
  218MOL0     C30008   5.738   8.947   6.277 -0.1090 -0.1956 -1.1417
  218MOL0     C30009   5.687   9.010   6.158  0.3915 -0.0874 -0.1451
  218MOL0     C30010   5.800   9.058   6.078  0.2583  0.1351 -0.4511
  218MOL0     C30011   5.887   9.102   6.010  0.1845 -0.0197  0.3939
  218MOL0     C30012   6.000   8.559   6.187 -0.7299  0.7361  0.3169
  218MOL0     C30013   6.058   8.463   6.110  0.8107  0.3947 -1.0466
  218MOL0     C30014   5.977   8.395   5.995  0.6670 -0.2286  0.1764
  218MOL0     H30015   6.417   8.106   6.207  1.8100 -3.9590  1.4298
  218MOL0     H30016   6.589   7.936   6.185  1.4127  0.9988  1.2542
  218MOL0     H30017   6.705   7.760   6.061 -0.9513  3.7484 -1.0308
  218MOL0     H30018   6.821   7.789   6.189  1.8601 -0.5584 -0.2067
  218MOL0     H30019   6.894   7.629   6.044 -1.4123  0.3640  1.9246
  218MOL0     H30020   6.862   7.715   5.897  0.9944 -1.1185  0.1381
  218MOL0     H30021   7.016   7.896   5.957 -0.7658  0.0356  0.8974
  218MOL0     H30022   7.084   7.807   6.091  0.8688 -0.7714 -0.6547
  218MOL0     H30023   7.119   7.629   5.887 -0.3170  1.5022  0.1462
  218MOL0     H30024   7.082   7.766   5.795  0.5950  0.1053 -0.3804
  218MOL0     H30025   7.305   7.744   5.989 -0.0333  0.1752  0.3976
  218MOL0     H30026   7.258   7.898   5.926 -0.7618 -0.1494  0.7221
  218MOL0     H30027   7.324   7.645   5.768  0.7522 -0.7827  2.1224
  218MOL0     H30028   7.297   7.805   5.690 -0.4339  1.0025  0.9897
  218MOL0     H30029   7.534   7.739   5.702  2.0347  1.6391  0.4839
  218MOL0     H30030   7.530   7.746   5.876 -2.0167 -0.0977  1.5914
  218MOL0     H30031   7.472   7.988   5.862 -0.9588  0.5230  0.8568
  218MOL0     H30032   7.631   7.938   5.791 -0.7644  1.7994  0.2433
  218MOL0     H30033   7.667   7.952   5.508 -0.3920  0.1921 -1.2537
  218MOL0     H30034   7.694   8.113   5.332  0.2689  1.1854 -2.0808
  218MOL0     H30035   7.578   8.251   5.298 -1.3685 -0.1623 -1.2587
  218MOL0     H30036   7.602   8.034   5.140 -0.9421 -1.6596 -2.4172
  218MOL0     H30037   7.478   7.984   5.253 -2.7536  0.8230 -1.6418
  218MOL0     H30038   7.332   8.145   5.227 -2.1436 -2.0253 -2.4698
  218MOL0     H30039   7.440   8.247   5.126 -1.1038  0.6511 -0.3903
  218MOL0     H30040   7.298   8.178   4.970 -0.4406  1.5922  0.6068
  218MOL0     H30041   7.413   8.046   4.951 -1.4910  0.7560 -1.2973
  218MOL0     H30042   7.330   7.887   4.826  0.5079 -0.6768 -2.4287
  218MOL0     H30043   7.323   7.779   4.626  0.2015  0.3323 -1.9546
  218MOL0     H30044   7.195   7.837   4.516  2.9101 -0.3879 -0.7876
  218MOL0     H30045   7.167   7.693   4.611  0.6995 -0.8722  1.5132
  218MOL0     H30046   6.834   7.671   4.456  2.7063  5.1096  1.0628
  218MOL0     H30047   6.702   7.595   4.264 -0.6682 -0.3232 -1.4125
  218MOL0     H30048   6.390   7.608   4.048 -1.1287  0.5674  1.2706
  218MOL0     H30049   6.562   7.612   4.103  0.1501  3.0415  1.7827
  218MOL0     H30050   6.464   7.389   4.097  0.3979 -1.1203  1.1550
  218MOL0     H30051   6.509   7.445   4.270  0.2012  0.7059  0.8672
  218MOL0     H30052   6.268   7.508   4.300 -1.6486 -0.7331 -0.8018
  218MOL0     H30053   6.310   7.331   4.307 -0.8063  0.5941  1.7803
  218MOL0     H30054   6.205   7.457   4.051  5.1654 -2.9241 -2.8218
  218MOL0     H30055   6.096   7.383   4.179  0.6902 -1.0987  2.0523
  218MOL0     H30056   6.310   7.262   4.006 -0.8438  0.9849 -2.3110
  218MOL0     H30057   6.236   7.176   4.148 -2.7271 -0.4364 -0.3791
  218MOL0     H30058   6.084   7.279   3.907  0.0778 -2.7677 -1.3146
  218MOL0     H30059   6.000   7.211   4.048 -0.4737 -1.0507 -0.2438
  218MOL0     H30060   6.081   6.998   4.018  0.1532  2.8620  2.2193
  218MOL0     H30061   6.208   7.031   3.892  0.6448 -0.1546  0.3486
  218MOL0     H30062   6.013   6.935   3.782  1.8154 -1.0576  2.9793
  218MOL0     H30063   6.032   7.100   3.736 -2.5375  0.1374 -1.1966
  218MOL0     H30064   6.384   7.861   4.401  0.3383  0.4205  1.0074
  218MOL0     H30065   6.534   7.952   4.577 -0.4157 -2.5658  3.2314
  218MOL0     H30066   6.851   7.997   4.844 -0.7073  0.8055 -0.3215
  218MOL0     H30067   6.998   8.049   5.032 -0.4159 -0.4771 -0.3535
  218MOL0     H30068   6.782   8.169   5.885 -1.1470  1.1700 -1.2774
  218MOL0     H30069   6.613   8.339   5.910 -4.0527  2.1657  2.2428
  218MOL0     H30070   6.384   8.529   6.220  0.2617 -0.0786 -2.0320
  218MOL0     H30071   6.266   8.688   6.360  2.2600  3.0480 -4.2913
  218MOL0     H30072   5.822   8.663   6.398 -1.0388 -0.3269 -0.9291
  218MOL0     H30073   5.855   8.829   6.464  4.2547  0.5011  0.8092
  218MOL0     H30074   5.722   8.730   6.227 -1.0613  0.3747  0.2721
  218MOL0     H30075   5.868   8.810   6.165 -0.2140  3.5953 -0.5155
  218MOL0     H30076   5.653   8.938   6.345  0.3914  0.1400 -0.4670
  218MOL0     H30077   5.822   9.003   6.318 -0.8251 -0.2177  0.4265
  218MOL0     H30078   5.626   9.095   6.190  3.4144  2.5460 -0.9213
  218MOL0     H30079   5.633   8.933   6.101  1.8788 -1.1660 -0.1301
  218MOL0     H30080   5.939   9.154   5.932 -1.5361  1.8714  0.4409
  218MOL0     H30081   5.894   8.572   6.167 -0.5620 -0.5081 -1.6006
  218MOL0     H30082   6.041   8.395   5.907  1.3408 -0.5595  0.6653
  218MOL0     H30083   5.953   8.290   6.014  1.2036  0.1811  3.8257
  218MOL0     H30084   5.881   8.442   5.968 -1.5624 -5.1782 -1.6735
  219MOL0     O30085   0.805   2.022   8.769 -0.6624  0.3862 -0.3325
  219MOL0     C30086   0.798   1.908   8.722 -0.0487  1.0273  0.3523
  219MOL0     O30087   0.688   1.853   8.657 -0.3983 -0.1562  0.5473
  219MOL0     C30088   0.551   1.896   8.692  0.4633 -0.6701  0.1267
  219MOL0     C30089   0.452   1.801   8.697 -0.1580 -0.3433 -0.4896
  219MOL0     C30090   0.321   1.828   8.735 -0.2984  0.7121  0.4818
  219MOL0     C30091   0.285   1.962   8.762  0.1863  1.0377  0.1764
  219MOL0     O30092   0.154   2.003   8.792 -1.0156  1.1304 -0.7237
  219MOL0     C30093   0.032   1.920   8.756 -0.2778 -0.3639  0.1140
  219MOL0     C30094   0.020   1.917   8.599 -0.3186 -0.3325  0.5555
  219MOL0     C30095  -0.010   2.059   8.554  0.5055 -0.3088  0.0843
  219MOL0     C30096  -0.066   2.056   8.407  0.4169  0.3004  0.1496
  219MOL0     C30097  -0.119   2.192   8.347  0.1209 -0.7569 -0.9362
  219MOL0     C30098  -0.223   2.267   8.433  0.3175 -0.3724  0.6959
  219MOL0     C30099  -0.354   2.185   8.451  0.0518 -0.3716 -0.9113
  219MOL0     C30100  -0.404   2.140   8.318  0.5005 -0.9892  0.9784
  219MOL0     N30101  -0.512   2.045   8.356  0.2436  0.7020  0.2427
  219MOL0     C30102  -0.637   2.079   8.348 -0.4704 -0.5784 -0.4403
  219MOL0     C30103  -0.698   1.968   8.403 -0.5539 -0.0804 -0.1855
  219MOL0     C30104  -0.847   1.954   8.433  0.1062  0.0019 -0.8387
  219MOL0     C30105  -0.897   1.834   8.360  0.4186  0.3748  0.1121
  219MOL0     C30106  -1.049   1.796   8.392 -0.6753 -0.3376 -1.1945
  219MOL0     C30107  -1.070   1.748   8.535 -0.2164  0.7682 -0.1408
  219MOL0     O30108  -0.987   1.637   8.564  0.1372 -0.4901 -0.3983
  219MOL0     C30109  -0.965   1.605   8.695  0.2448 -0.2807 -0.4749
  219MOL0     C30110  -0.845   1.641   8.747  0.2839 -0.1739 -0.8042
  219MOL0     C30111  -0.799   1.584   8.867 -1.0490  0.7773  0.2807
  219MOL0     C30112  -0.659   1.616   8.900  0.5148 -0.5188  0.3196
  219MOL0     C30113  -0.882   1.498   8.939  0.0093  1.4538  0.0044
  219MOL0     C30114  -0.838   1.440   9.072 -0.3584 -0.0916 -1.1372
  219MOL0     O30115  -0.721   1.482   9.126 -0.3234  0.5669  1.0343
  219MOL0     C30116  -0.658   1.413   9.229 -0.4078 -0.1745  0.5982
  219MOL0     C30117  -0.705   1.427   9.354 -0.7480  0.5655  0.0147
  219MOL0     C30118  -0.639   1.362   9.457 -0.0927  0.5858  0.4822
  219MOL0     C30119  -0.523   1.289   9.435  0.6715 -0.5905 -0.8815
  219MOL0     O30120  -0.484   1.223   9.547  0.4903 -0.8425  0.0879
  219MOL0     C30121  -0.345   1.235   9.560 -0.9356 -0.2219  0.1732
  219MOL0     C30122  -0.306   1.142   9.680 -0.4976  0.0593  0.1299
  219MOL0     C30123  -0.153   1.120   9.705  0.0941  0.1792 -0.2110
  219MOL0     C30124  -0.049   1.227   9.662  0.3157 -0.1319  0.3728
  219MOL0     C30125   0.094   1.163   9.689 -0.4718  0.7224 -0.6628
  219MOL0     C30126   0.206   1.265   9.665 -0.1793  0.2376 -0.7787
  219MOL0     C30127   0.347   1.216   9.699 -0.6727 -0.2576 -0.2920
  219MOL0     C30128   0.455   1.332   9.705  0.8732  1.0656  0.3983
  219MOL0    Cl30129   0.419   1.462   9.818  0.1070  0.5097 -0.0325
  219MOL0     C30130  -0.477   1.265   9.298 -0.5032 -0.8805 -1.1756
  219MOL0     C30131  -0.540   1.339   9.196  0.4097  0.2102  0.4131
  219MOL0     O30132  -0.908   1.350   9.120 -0.0850 -0.2880 -0.1938
  219MOL0     C30133  -1.011   1.470   8.889 -0.4287  0.2059 -0.5174
  219MOL0     C30134  -1.051   1.515   8.763  0.6361 -0.6371 -0.2508
  219MOL0     N30135  -0.601   1.871   8.443  0.4935 -0.4841  0.2706
  219MOL0     N30136  -0.490   1.927   8.423  0.1922  0.0846 -0.3740
  219MOL0     C30137   0.382   2.061   8.765 -0.6849 -0.2043  0.6892
  219MOL0     C30138   0.515   2.026   8.743 -0.5543 -0.2701  1.1731
  219MOL0     C30139   0.927   1.823   8.718 -0.2023  0.3909 -0.5499
  219MOL0     C30140   0.918   1.693   8.647 -0.1788 -1.4746 -0.1296
  219MOL0     C30141   1.034   1.616   8.627 -0.8472 -0.3368  0.3107
  219MOL0     C30142   1.161   1.673   8.661 -0.5345  0.3875  1.8889
  219MOL0     O30143   1.278   1.620   8.625 -0.0806 -0.2348  0.1937
  219MOL0     C30144   1.280   1.516   8.518  0.8914 -0.8589 -0.2875
  219MOL0     C30145   1.412   1.520   8.447  0.1594 -0.7270  0.7297
  219MOL0     C30146   1.424   1.625   8.339  0.3965 -0.2621 -0.0184
  219MOL0     C30147   1.413   1.557   8.198 -0.0329  0.6251  0.1577
  219MOL0     C30148   1.402   1.658   8.092  0.0121  0.6950  0.5375
  219MOL0     C30149   1.399   1.729   7.998  0.4179  0.1059 -0.1129
  219MOL0     C30150   1.165   1.799   8.718 -0.3256  0.0885  0.5581
  219MOL0     C30151   1.055   1.864   8.763  1.3243 -0.4235  0.4187
  219MOL0     C30152   1.088   1.978   8.850 -0.1767 -0.1063  0.3410
  219MOL0     H30153   0.483   1.697   8.682  0.9809 -0.4611  2.1531
  219MOL0     H30154   0.256   1.742   8.736 -0.6533  0.9808  0.7969
  219MOL0     H30155  -0.051   1.964   8.812  1.3477  2.0125  0.8328
  219MOL0     H30156   0.043   1.819   8.795  0.9322 -1.2155 -2.1930
  219MOL0     H30157   0.108   1.876   8.548  0.2741  0.9990  0.4677
  219MOL0     H30158  -0.061   1.848   8.573  1.5217 -1.7102 -1.9286
  219MOL0     H30159  -0.075   2.114   8.623 -0.6088 -1.1062 -0.3150
  219MOL0     H30160   0.085   2.114   8.561 -0.0821  0.7745 -0.0992
  219MOL0     H30161   0.012   2.017   8.340  0.2026  1.9418 -1.1191
  219MOL0     H30162  -0.151   1.989   8.404  2.1564 -2.0069 -0.4044
  219MOL0     H30163  -0.154   2.181   8.245  1.3167  2.7370 -1.8705
  219MOL0     H30164  -0.031   2.253   8.322 -0.5055 -0.7690 -3.3585
  219MOL0     H30165  -0.165   2.302   8.519  1.8504  0.5396 -0.6572
  219MOL0     H30166  -0.246   2.356   8.374  0.3339 -2.0907 -2.0799
  219MOL0     H30167  -0.429   2.246   8.501  1.4059  0.2659  0.4005
  219MOL0     H30168  -0.321   2.098   8.509  0.1365 -0.3086 -0.8651
  219MOL0     H30169  -0.437   2.221   8.251  1.1605 -0.7434  0.9370
  219MOL0     H30170  -0.335   2.078   8.259  2.1499  1.3385  0.2921
  219MOL0     H30171  -0.683   2.164   8.299 -1.2739  0.6900  2.3196
  219MOL0     H30172  -0.909   2.034   8.391 -2.0895 -0.2152  1.7016
  219MOL0     H30173  -0.853   1.959   8.542 -2.2931 -1.4347 -0.8251
  219MOL0     H30174  -0.893   1.846   8.252  0.4067  0.4193  0.1167
  219MOL0     H30175  -0.829   1.750   8.376  0.4251 -0.2856 -2.9467
  219MOL0     H30176  -1.115   1.883   8.382 -1.2908 -0.1927  2.7115
  219MOL0     H30177  -1.085   1.727   8.315  0.7636 -0.5225 -1.7299
  219MOL0     H30178  -1.065   1.835   8.601 -3.0255 -0.3367  1.6740
  219MOL0     H30179  -1.174   1.718   8.548  0.1969  0.1315  2.2215
  219MOL0     H30180  -0.801   1.709   8.674 -0.3898 -1.2085 -2.2203
  219MOL0     H30181  -0.596   1.662   8.823 -0.9253  3.7191  1.3955
  219MOL0     H30182  -0.610   1.522   8.926  0.5032  0.1052  2.8844
  219MOL0     H30183  -0.651   1.685   8.985  4.0671 -2.4774  1.7574
  219MOL0     H30184  -0.793   1.489   9.358 -0.8205  0.5160 -0.7439
  219MOL0     H30185  -0.674   1.369   9.559 -1.3976  0.0663  0.0819
  219MOL0     H30186  -0.288   1.197   9.474 -0.4012  2.7807 -0.9244
  219MOL0     H30187  -0.309   1.337   9.577 -0.6300 -0.4439  0.9123
  219MOL0     H30188  -0.348   1.186   9.771 -1.1811  1.4070 -0.8014
  219MOL0     H30189  -0.348   1.048   9.645 -1.6594  1.2523 -1.8575
  219MOL0     H30190  -0.120   1.023   9.669 -1.8698 -1.1639  1.3790
  219MOL0     H30191  -0.142   1.126   9.814  5.4273  1.6728 -0.5415
  219MOL0     H30192  -0.057   1.322   9.715  5.7677  0.3224  0.9887
  219MOL0     H30193  -0.041   1.250   9.555  3.4638  4.2091  1.2767
  219MOL0     H30194   0.092   1.132   9.794 -1.1636 -0.2354 -0.9350
  219MOL0     H30195   0.110   1.065   9.642 -1.8369 -1.5702  3.1469
  219MOL0     H30196   0.187   1.341   9.742  0.6118 -1.4285  1.1282
  219MOL0     H30197   0.210   1.307   9.564  3.7528  1.9668 -0.0680
  219MOL0     H30198   0.382   1.131   9.640 -1.6892 -1.1258  0.3086
  219MOL0     H30199   0.339   1.188   9.805  1.5892  1.6741  0.4948
  219MOL0     H30200   0.468   1.360   9.600  2.5347 -0.4598  0.1374
  219MOL0     H30201   0.554   1.296   9.735  0.2798 -2.3352 -1.2606
  219MOL0     H30202  -0.388   1.207   9.278  1.0146  1.2376 -0.8683
  219MOL0     H30203  -0.494   1.333   9.098 -0.3864 -0.6285  0.0686
  219MOL0     H30204  -1.080   1.419   8.956  2.2014  1.8081  3.8228
  219MOL0     H30205  -1.141   1.468   8.726 -1.1141  0.4529  2.3017
  219MOL0     H30206   0.349   2.161   8.792 -0.8685  0.0362 -0.3777
  219MOL0     H30207   0.590   2.104   8.753 -2.2594  1.6934 -0.4884
  219MOL0     H30208   0.820   1.660   8.614 -1.3254 -0.3217  1.9103
  219MOL0     H30209   1.026   1.515   8.589 -0.1577 -0.3948  0.3033
  219MOL0     H30210   1.266   1.423   8.575  0.7488 -1.5481 -1.4175
  219MOL0     H30211   1.206   1.521   8.438  0.4417 -0.4338  0.1516
  219MOL0     H30212   1.436   1.426   8.396  0.4002  0.8849 -2.3296
  219MOL0     H30213   1.494   1.526   8.520  5.0399  0.2709 -4.2076
  219MOL0     H30214   1.351   1.705   8.351 -0.8890 -1.0497 -2.0760
  219MOL0     H30215   1.522   1.671   8.357  1.0148 -2.1069  1.7847
  219MOL0     H30216   1.326   1.492   8.192  1.2702 -1.1377 -0.5324
  219MOL0     H30217   1.504   1.499   8.180  1.0001  1.5604  1.9741
  219MOL0     H30218   1.381   1.803   7.923 -1.4661 -1.4218 -1.2570
  219MOL0     H30219   1.260   1.848   8.737 -2.5247  4.9949  0.2052
  219MOL0     H30220   1.009   2.021   8.913 -1.2616  1.9003 -2.1914
  219MOL0     H30221   1.180   1.966   8.908  0.7764  0.5135 -0.9818
  219MOL0     H30222   1.108   2.063   8.784 -0.0579  1.3991  2.2265
  220MOL0     O30223   0.445   5.072   7.561  0.1900  0.8055  0.5239
  220MOL0     C30224   0.325   5.040   7.553 -1.0476  0.0016  0.5092
  220MOL0     O30225   0.229   5.103   7.638  0.0604 -0.3375  0.3418
  220MOL0     C30226   0.266   5.203   7.720  0.8373 -0.0934 -0.1814
  220MOL0     C30227   0.246   5.339   7.685 -0.0021 -0.2309 -0.2424
  220MOL0     C30228   0.278   5.435   7.777  1.1347 -0.4242  0.2547
  220MOL0     C30229   0.337   5.417   7.909  0.2399  0.2749 -0.4766
  220MOL0     O30230   0.364   5.520   7.991 -0.0890 -0.4917 -0.4933
  220MOL0     C30231   0.477   5.501   8.073 -1.2441 -0.4949 -0.7285
  220MOL0     C30232   0.488   5.636   8.140 -0.1027  0.1186  1.4070
  220MOL0     C30233   0.632   5.661   8.194  0.8318 -0.1850  0.5016
  220MOL0     C30234   0.638   5.789   8.272 -0.2353 -0.1445  0.6376
  220MOL0     C30235   0.746   5.812   8.377  0.4357  0.2979 -0.5043
  220MOL0     C30236   0.699   5.777   8.520  0.0535  0.3974  0.9591
  220MOL0     C30237   0.784   5.840   8.637 -0.6466 -0.1697  0.1550
  220MOL0     C30238   0.724   5.837   8.774  0.1124 -0.5034 -0.0065
  220MOL0     N30239   0.622   5.936   8.783  0.4698  0.4342 -0.0182
  220MOL0     C30240   0.638   6.067   8.805  0.4405 -0.2896 -0.4349
  220MOL0     C30241   0.511   6.122   8.791 -0.0898  0.5177 -0.5090
  220MOL0     C30242   0.468   6.268   8.814 -0.4826  0.1183 -0.7652
  220MOL0     C30243   0.369   6.293   8.934 -0.4398 -0.4820  0.0003
  220MOL0     C30244   0.445   6.293   9.071 -0.3079  0.9417  0.2610
  220MOL0     C30245   0.369   6.376   9.169  0.1922 -0.3767  1.3738
  220MOL0     O30246   0.442   6.372   9.291  0.3230  0.0341  0.3517
  220MOL0     C30247   0.414   6.470   9.378  0.6022 -0.1916 -0.1468
  220MOL0     C30248   0.284   6.527   9.403  0.7644  0.0501 -0.5065
  220MOL0     C30249   0.266   6.628   9.490  0.7550 -0.1943  0.0034
  220MOL0     C30250   0.136   6.710   9.483  0.1928  1.0868  0.9146
  220MOL0     C30251   0.368   6.665   9.584 -1.2342 -0.1754  0.1887
  220MOL0     C30252   0.367   6.765   9.696 -0.0019  0.0150 -0.2284
  220MOL0     O30253   0.249   6.813   9.745  1.3690 -0.1417 -0.0184
  220MOL0     C30254   0.252   6.906   9.846  0.5684 -0.1595  0.2195
  220MOL0     C30255   0.333   7.020   9.847  0.2205 -0.0328 -0.2046
  220MOL0     C30256   0.328   7.112   9.952  0.2827 -0.4782 -1.2034
  220MOL0     C30257   0.221   7.105  10.043 -0.1614 -0.3566 -0.0183
  220MOL0     O30258   0.207   7.218  10.115  0.2060  0.5274  0.3812
  220MOL0     C30259   0.192   7.201  10.257 -0.7259 -0.3518  1.1281
  220MOL0     C30260   0.170   7.339  10.317  0.3166  0.4283  0.1656
  220MOL0     C30261   0.167   7.325  10.469 -0.5867  0.2544  0.1163
  220MOL0     C30262   0.130   7.463  10.514  0.4746 -0.0706 -0.0554
  220MOL0     C30263   0.110   7.462  10.667  1.0085  0.7478 -0.4978
  220MOL0     C30264   0.086   7.601  10.730 -0.2794  0.3224  0.1328
  220MOL0     C30265  -0.053   7.664  10.706  0.5495  1.1692 -0.1789
  220MOL0     C30266  -0.039   7.809  10.672 -0.2867  0.6572  0.6948
  220MOL0    Cl30267  -0.196   7.875  10.647 -0.1730 -0.0872  0.3595
  220MOL0     C30268   0.133   7.002  10.037  0.1245  0.6537  0.0986
  220MOL0     C30269   0.143   6.903   9.936 -0.3107  0.6465 -0.1758
  220MOL0     O30270   0.477   6.797   9.747  1.0678 -0.9203  0.0381
  220MOL0     C30271   0.494   6.594   9.568  0.3835 -0.1968  0.0923
  220MOL0     C30272   0.515   6.508   9.462  0.5426  1.1407 -0.6261
  220MOL0     N30273   0.421   6.027   8.753  0.0755  0.8646 -0.6290
  220MOL0     N30274   0.490   5.914   8.747 -0.0647 -0.5773  0.7017
  220MOL0     C30275   0.363   5.274   7.933 -1.2492 -1.0980 -0.5733
  220MOL0     C30276   0.328   5.172   7.841 -1.0097 -1.4208 -0.1495
  220MOL0     C30277   0.304   4.930   7.460  1.1624  0.1484 -0.8651
  220MOL0     C30278   0.413   4.872   7.403  0.3259 -0.4494 -0.2660
  220MOL0     C30279   0.401   4.789   7.296 -0.1528  1.0168 -1.1757
  220MOL0     C30280   0.283   4.739   7.251  0.1241  0.0907 -0.1088
  220MOL0     O30281   0.293   4.652   7.151  0.1369 -0.1011 -0.5712
  220MOL0     C30282   0.177   4.574   7.120  0.1719  0.8600 -0.1409
  220MOL0     C30283   0.168   4.466   7.235  0.1826 -0.4613  0.2996
  220MOL0     C30284   0.050   4.364   7.220  1.0904 -0.7160  0.1866
  220MOL0     C30285   0.056   4.262   7.332 -0.9852  0.4091 -0.0884
  220MOL0     C30286  -0.055   4.176   7.350  0.4933 -0.9299 -0.1365
  220MOL0     C30287  -0.156   4.118   7.362  0.1175  0.0346  0.1879
  220MOL0     C30288   0.166   4.793   7.314 -0.5686  0.3157 -0.5647
  220MOL0     C30289   0.171   4.885   7.420 -1.4342  1.1912  0.1375
  220MOL0     C30290   0.040   4.922   7.466 -0.6030 -0.7309 -0.2310
  220MOL0     H30291   0.191   5.364   7.595 -0.9910 -3.4964 -0.6393
  220MOL0     H30292   0.260   5.536   7.740  2.2679 -1.2400 -2.8564
  220MOL0     H30293   0.570   5.481   8.020 -0.5198  2.0137 -0.5354
  220MOL0     H30294   0.452   5.424   8.146 -1.1811 -2.7868 -2.9779
  220MOL0     H30295   0.461   5.714   8.068  2.7427 -0.4343 -0.4397
  220MOL0     H30296   0.429   5.635   8.232 -0.0769  2.1823  1.4825
  220MOL0     H30297   0.650   5.578   8.263 -1.9546 -1.8052 -0.5845
  220MOL0     H30298   0.708   5.657   8.116 -0.2197 -1.2712 -0.5069
  220MOL0     H30299   0.662   5.861   8.193  0.3168 -0.1666  0.7843
  220MOL0     H30300   0.539   5.807   8.317 -0.0910 -1.8868  1.7701
  220MOL0     H30301   0.764   5.919   8.386 -2.2072  0.9056 -1.4760
  220MOL0     H30302   0.836   5.753   8.354  2.0382  2.8359 -1.1304
  220MOL0     H30303   0.596   5.811   8.533 -0.5016 -0.9955  0.3631
  220MOL0     H30304   0.690   5.668   8.518  1.6415  0.2427  0.7262
  220MOL0     H30305   0.820   5.938   8.603  2.5626 -0.7818  1.4798
  220MOL0     H30306   0.879   5.787   8.645 -0.1230  0.7746  0.3541
  220MOL0     H30307   0.670   5.743   8.785 -3.7793  1.1635 -2.5839
  220MOL0     H30308   0.791   5.862   8.857  0.3808 -0.9869 -0.0747
  220MOL0     H30309   0.724   6.114   8.850 -1.0838  1.1489  1.1400
  220MOL0     H30310   0.425   6.311   8.723  0.2180 -1.3497 -1.8395
  220MOL0     H30311   0.563   6.320   8.826  0.6681 -1.8354 -0.9982
  220MOL0     H30312   0.318   6.388   8.914  1.9515  1.1055  1.0309
  220MOL0     H30313   0.290   6.218   8.934 -2.2727  1.1604 -3.8159
  220MOL0     H30314   0.450   6.189   9.104  1.4999 -0.3741 -3.5252
  220MOL0     H30315   0.544   6.338   9.054 -0.0071  0.3682  0.4773
  220MOL0     H30316   0.354   6.479   9.138 -0.5902 -0.4342  1.5395
  220MOL0     H30317   0.266   6.341   9.184 -0.8438  0.7152 -2.3053
  220MOL0     H30318   0.203   6.495   9.338  1.2586  0.5217 -1.3723
  220MOL0     H30319   0.073   6.661   9.559 -1.4867  2.2653  0.3351
  220MOL0     H30320   0.088   6.693   9.386 -0.4330  1.1455  1.2069
  220MOL0     H30321   0.140   6.818   9.499  0.6759  1.4538 -1.3324
  220MOL0     H30322   0.395   7.048   9.763 -1.1129  0.3361 -1.0991
  220MOL0     H30323   0.404   7.189   9.953  1.5277 -1.6590  0.0285
  220MOL0     H30324   0.105   7.138  10.281 -0.1988 -0.2949  3.3791
  220MOL0     H30325   0.285   7.158  10.294 -0.7615 -1.0084  0.4865
  220MOL0     H30326   0.254   7.408  10.304  1.5881 -0.6390  2.1641
  220MOL0     H30327   0.072   7.374  10.282  0.0273 -1.1762 -0.7893
  220MOL0     H30328   0.263   7.298  10.512 -1.5274 -1.7704  1.0862
  220MOL0     H30329   0.092   7.250  10.497 -1.3673  1.3338  1.0351
  220MOL0     H30330   0.039   7.489  10.460  0.2624 -0.0464  0.3108
  220MOL0     H30331   0.215   7.529  10.494  2.5408 -3.0618 -1.9477
  220MOL0     H30332   0.022   7.403  10.693  2.4365 -3.2688 -3.6965
  220MOL0     H30333   0.202   7.421  10.710 -0.0338  0.8776  2.0081
  220MOL0     H30334   0.164   7.669  10.694  0.7722 -0.4470  0.9025
  220MOL0     H30335   0.105   7.595  10.837  1.3466  0.2723 -0.1246
  220MOL0     H30336  -0.121   7.639  10.788 -2.8033  1.3838 -2.6895
  220MOL0     H30337  -0.114   7.618  10.628  2.1756 -1.6212  0.0378
  220MOL0     H30338   0.025   7.821  10.584 -0.0930  0.2341  0.7733
  220MOL0     H30339  -0.008   7.867  10.760 -2.1767  1.6719  0.7326
  220MOL0     H30340   0.049   7.005  10.106 -0.5677  0.9946 -0.7381
  220MOL0     H30341   0.065   6.828   9.926 -3.2513  3.7551 -3.4988
  220MOL0     H30342   0.579   6.626   9.628  0.6109 -1.0887  0.2653
  220MOL0     H30343   0.616   6.467   9.471 -0.0457 -0.0494  0.9334
  220MOL0     H30344   0.413   5.239   8.023 -3.3982 -0.7340  0.8361
  220MOL0     H30345   0.361   5.070   7.859  1.0195 -0.4489  2.4382
  220MOL0     H30346   0.511   4.900   7.440 -0.9590  0.6510  2.5286
  220MOL0     H30347   0.494   4.739   7.270 -0.7641 -1.3049  0.7288
  220MOL0     H30348   0.082   4.628   7.110 -1.7366 -0.9353  5.0773
  220MOL0     H30349   0.189   4.528   7.022  0.9862  0.1488  0.2767
  220MOL0     H30350   0.162   4.513   7.334 -2.1777 -0.8169  0.3898
  220MOL0     H30351   0.261   4.409   7.244  1.7622  1.6020 -1.5976
  220MOL0     H30352  -0.038   4.428   7.229  0.6672 -1.3636  0.7095
  220MOL0     H30353   0.050   4.321   7.119 -2.5328 -1.0511  0.1975
  220MOL0     H30354   0.083   4.295   7.433  3.0882  1.2387 -1.2504
  220MOL0     H30355   0.140   4.197   7.309 -0.5033  1.4794 -1.5132
  220MOL0     H30356  -0.253   4.074   7.372 -0.7183  2.0444  1.6405
  220MOL0     H30357   0.071   4.759   7.272 -0.5282 -0.2345 -0.2286
  220MOL0     H30358   0.048   5.023   7.507 -2.0458 -1.2447  1.4230
  220MOL0     H30359  -0.043   4.912   7.395 -1.3414 -3.0579  0.8775
  220MOL0     H30360   0.018   4.874   7.561  1.8244 -0.3643  0.5854
  221MOL0     O30361   8.763   0.146  10.266  0.4257  0.2904  0.3507
  221MOL0     C30362   8.642   0.131  10.291 -0.9288 -0.2947  0.0897
  221MOL0     O30363   8.601   0.074  10.411  0.2015 -0.1916  0.0306
  221MOL0     C30364   8.681   0.036  10.514  0.2416  0.3706  0.5064
  221MOL0     C30365   8.810   0.083  10.544 -1.0202 -0.4196  0.6324
  221MOL0     C30366   8.873   0.048  10.662 -0.0969  1.0009  0.1917
  221MOL0     C30367   8.815  -0.050  10.735 -0.2337 -0.3281 -0.7994
  221MOL0     O30368   8.874  -0.087  10.851  0.3991 -0.0333 -0.1923
  221MOL0     C30369   8.948  -0.214  10.831 -0.2108 -0.8102  0.5708
  221MOL0     C30370   8.886  -0.325  10.919 -0.7857  0.0476 -0.1094
  221MOL0     C30371   8.911  -0.320  11.071  0.1320  0.4655 -0.6852
  221MOL0     C30372   9.047  -0.265  11.105  0.2923  0.6250 -0.1303
  221MOL0     C30373   9.063  -0.291  11.255  0.3156 -0.9115 -0.0320
  221MOL0     C30374   9.211  -0.252  11.289  0.6057 -0.2464 -0.0394
  221MOL0     C30375   9.212  -0.136  11.391  0.4215  0.5347  0.3138
  221MOL0     C30376   9.172  -0.003  11.342  0.2037  0.0128  0.1197
  221MOL0     N30377   9.244   0.039  11.222  0.5302 -0.1106  0.1986
  221MOL0     C30378   9.178   0.054  11.098 -0.0679 -0.2096 -0.2815
  221MOL0     C30379   9.274   0.113  11.025 -0.2747 -0.3438  0.5307
  221MOL0     C30380   9.252   0.162  10.891 -1.0256 -0.8888  0.0512
  221MOL0     C30381   9.381   0.208  10.811 -0.4428  0.3719 -0.3416
  221MOL0     C30382   9.424   0.358  10.825 -0.3264 -0.0924 -0.5672
  221MOL0     C30383   9.519   0.387  10.708 -0.1763  0.0618  0.8570
  221MOL0     O30384   9.449   0.369  10.587 -0.3408  0.3087 -0.2572
  221MOL0     C30385   9.392   0.487  10.527 -0.4522  0.2657  0.1266
  221MOL0     C30386   9.348   0.471  10.405 -0.1051 -0.1902  0.4304
  221MOL0     C30387   9.286   0.565  10.327  0.3400 -0.9948 -0.2398
  221MOL0     C30388   9.269   0.528  10.177  0.4588 -0.5407 -0.0367
  221MOL0     C30389   9.249   0.688  10.382 -0.5336 -0.8922 -0.7014
  221MOL0     C30390   9.172   0.787  10.312  1.0098 -0.0541 -1.1816
  221MOL0     O30391   9.193   0.915  10.354  0.3574  0.4171 -0.4354
  221MOL0     C30392   9.137   1.016  10.277  0.0930  0.2408 -0.3727
  221MOL0     C30393   9.000   1.049  10.277 -0.8480  0.5245  0.5444
  221MOL0     C30394   8.952   1.153  10.190  1.5284  0.1047  0.0907
  221MOL0     C30395   9.038   1.214  10.102 -0.8324 -0.2973 -0.0095
  221MOL0     O30396   9.006   1.313  10.010 -0.1889 -0.1837 -0.2723
  221MOL0     C30397   8.869   1.338   9.976  0.6072 -0.1567 -1.0683
  221MOL0     C30398   8.859   1.485   9.945 -0.4379  0.1678  1.0795
  221MOL0     C30399   8.934   1.504   9.813 -0.4116 -0.1105 -0.5048
  221MOL0     C30400   8.916   1.652   9.766  1.2785  0.5302  0.2288
  221MOL0     C30401   9.012   1.685   9.660 -0.2830  0.7112  0.2610
  221MOL0     C30402   8.994   1.836   9.626  0.6365  0.0368 -0.9093
  221MOL0     C30403   9.076   1.888   9.514 -0.2280  0.4917  0.3093
  221MOL0     C30404   9.087   2.036   9.532  1.1199  0.3178 -0.7674
  221MOL0    Cl30405   9.130   2.129   9.385 -0.0609 -0.2582  0.1158
  221MOL0     C30406   9.169   1.177  10.104  0.4520  0.6593  0.8829
  221MOL0     C30407   9.224   1.088  10.197  0.2181 -0.4389  1.1010
  221MOL0     O30408   9.107   0.764  10.210 -0.1237  0.1978 -1.0127
  221MOL0     C30409   9.315   0.719  10.506  0.0061  0.3554 -0.0756
  221MOL0     C30410   9.378   0.618  10.578 -0.3151 -0.4681 -0.7092
  221MOL0     N30411   9.386   0.147  11.103  0.0350  0.4389  0.2627
  221MOL0     N30412   9.368   0.104  11.223  0.6488  0.4948 -0.2233
  221MOL0     C30413   8.693  -0.108  10.710 -0.1543  0.7540  0.3542
  221MOL0     C30414   8.625  -0.063  10.595 -0.0812 -0.2004  0.1802
  221MOL0     C30415   8.549   0.191  10.191  0.2894  0.1765  0.1292
  221MOL0     C30416   8.419   0.134  10.192  1.0470  0.8942  0.3502
  221MOL0     C30417   8.313   0.171  10.100 -0.1855 -0.2701  0.4409
  221MOL0     C30418   8.332   0.278  10.014 -0.2402  0.3176 -0.4102
  221MOL0     O30419   8.239   0.348   9.946  0.6859 -0.7668  0.5197
  221MOL0     C30420   8.109   0.356  10.000 -0.2283  0.9103 -1.1275
  221MOL0     C30421   8.116   0.447  10.121  0.6204  0.5883 -0.2984
  221MOL0     C30422   8.006   0.411  10.219 -0.1589 -0.0329  0.4765
  221MOL0     C30423   7.879   0.503  10.226 -0.6578 -0.3162  0.1149
  221MOL0     C30424   7.825   0.506  10.095  0.3992  0.1067 -0.7339
  221MOL0     C30425   7.762   0.506   9.994 -0.5736 -0.1377 -0.0115
  221MOL0     C30426   8.460   0.337  10.017 -0.3257  0.1224  0.3632
  221MOL0     C30427   8.573   0.302  10.101  0.1427  0.0884 -0.3282
  221MOL0     C30428   8.708   0.377  10.085  0.2464 -0.4012  1.5472
  221MOL0     H30429   8.851   0.156  10.476 -0.0776  0.7383  2.3750
  221MOL0     H30430   8.970   0.084  10.697  1.7001 -3.1844  0.1024
  221MOL0     H30431   9.053  -0.188  10.846 -0.6948  0.2522  2.4401
  221MOL0     H30432   8.932  -0.247  10.728  1.1790  2.7015 -0.9399
  221MOL0     H30433   8.778  -0.339  10.908 -0.6583 -0.1016 -1.3461
  221MOL0     H30434   8.925  -0.418  10.877 -0.5277 -0.7342  1.7982
  221MOL0     H30435   8.827  -0.270  11.119 -2.7543 -0.4012 -4.3924
  221MOL0     H30436   8.905  -0.426  11.095 -1.7847  0.3119 -1.6836
  221MOL0     H30437   9.120  -0.323  11.048  2.2097 -0.7869  3.3967
  221MOL0     H30438   9.063  -0.159  11.086  1.6924  0.5349  0.4911
  221MOL0     H30439   9.049  -0.398  11.273 -0.1979 -1.0343 -1.0825
  221MOL0     H30440   8.994  -0.235  11.319  1.4501  0.8980 -0.3395
  221MOL0     H30441   9.259  -0.344  11.325  0.8175  0.4147  1.4094
  221MOL0     H30442   9.267  -0.236  11.196  0.2382 -0.4755 -0.3043
  221MOL0     H30443   9.313  -0.127  11.433 -0.3299 -0.2034  2.3927
  221MOL0     H30444   9.161  -0.178  11.478  1.4761  0.8420  1.1097
  221MOL0     H30445   9.063  -0.006  11.327 -0.1238 -2.0795  2.3520
  221MOL0     H30446   9.182   0.075  11.417  0.7110  0.7752 -0.7200
  221MOL0     H30447   9.074   0.037  11.073 -0.3398 -0.8605  1.1882
  221MOL0     H30448   9.189   0.251  10.893  1.0510  0.7012 -1.2935
  221MOL0     H30449   9.195   0.088  10.833 -0.2100 -1.6700  0.2144
  221MOL0     H30450   9.465   0.147  10.847 -1.1006 -0.4468 -0.1602
  221MOL0     H30451   9.366   0.173  10.708 -1.5432 -1.0656  0.2717
  221MOL0     H30452   9.339   0.426  10.821  0.3140  0.8698  1.2459
  221MOL0     H30453   9.473   0.381  10.920 -2.8083  3.1836  0.1213
  221MOL0     H30454   9.559   0.488  10.722 -0.0551  0.1570 -0.0988
  221MOL0     H30455   9.603   0.318  10.719 -3.9976 -4.9754  2.3669
  221MOL0     H30456   9.371   0.371  10.370  5.2649  0.8271  0.2339
  221MOL0     H30457   9.291   0.621  10.125  0.7581  1.2087  3.0258
  221MOL0     H30458   9.165   0.500  10.157 -0.9130  2.9334  1.4014
  221MOL0     H30459   9.335   0.446  10.148 -0.4745 -0.9889 -0.9904
  221MOL0     H30460   8.941   1.001  10.354 -1.5515 -1.5414 -1.1697
  221MOL0     H30461   8.851   1.191  10.202  0.2299 -2.7470 -0.8356
  221MOL0     H30462   8.832   1.277   9.893  2.6048 -2.1702 -0.5723
  221MOL0     H30463   8.803   1.329  10.062  0.9415  2.5691 -0.4465
  221MOL0     H30464   8.753   1.507   9.932 -0.8435 -1.8527  0.5303
  221MOL0     H30465   8.902   1.543  10.027  2.0793  0.4101 -0.2981
  221MOL0     H30466   8.888   1.446   9.732 -0.0643 -0.8539 -0.1798
  221MOL0     H30467   9.038   1.477   9.836 -0.3795  0.2440 -0.2269
  221MOL0     H30468   8.935   1.718   9.851 -2.6600  1.2725  0.7063
  221MOL0     H30469   8.816   1.668   9.724  0.8617 -1.6431  0.2833
  221MOL0     H30470   9.115   1.663   9.690 -0.0745 -2.1041 -2.1079
  221MOL0     H30471   8.983   1.619   9.578  1.5179 -0.0246  0.1706
  221MOL0     H30472   8.996   1.879   9.726  0.8681 -2.4840  0.2257
  221MOL0     H30473   8.892   1.854   9.592 -0.1105 -1.3638  0.5101
  221MOL0     H30474   9.042   1.871   9.411 -1.0564  1.6859  0.3642
  221MOL0     H30475   9.179   1.851   9.508 -0.2425  0.5636 -0.5928
  221MOL0     H30476   9.165   2.064   9.604  3.0416  0.2539 -2.7266
  221MOL0     H30477   9.001   2.080   9.584  0.9318 -2.6541  1.7002
  221MOL0     H30478   9.229   1.230  10.030  0.2696  1.4766  1.2981
  221MOL0     H30479   9.331   1.071  10.202  0.0249 -1.4783  3.2937
  221MOL0     H30480   9.300   0.822  10.537  3.7796  1.8095 -2.3725
  221MOL0     H30481   9.423   0.659  10.668  0.7795 -0.0562 -1.4274
  221MOL0     H30482   8.650  -0.168  10.789 -2.0516 -0.2714 -1.3484
  221MOL0     H30483   8.523  -0.092  10.571 -0.5754 -0.7966  2.6594
  221MOL0     H30484   8.388   0.059  10.264  0.7378  1.3069  0.6439
  221MOL0     H30485   8.226   0.106  10.096  1.4896 -2.5581 -0.9029
  221MOL0     H30486   8.046   0.402   9.924 -0.6400  1.1938 -0.6236
  221MOL0     H30487   8.066   0.257  10.018  0.5652 -0.1338 -4.3493
  221MOL0     H30488   8.105   0.551  10.089 -3.6626  0.7527  1.1643
  221MOL0     H30489   8.211   0.433  10.173  0.4096  1.4319  0.3361
  221MOL0     H30490   7.973   0.307  10.206 -0.3978 -0.1879  2.1291
  221MOL0     H30491   8.055   0.392  10.314  1.2050  0.6564 -0.0585
  221MOL0     H30492   7.914   0.596  10.272 -1.2269  0.4156 -0.8885
  221MOL0     H30493   7.815   0.467  10.307  0.6548 -0.5379  1.0821
  221MOL0     H30494   7.707   0.516   9.903 -0.7516  1.3036  0.2419
  221MOL0     H30495   8.478   0.427   9.959 -3.4841 -1.2120 -3.0965
  221MOL0     H30496   8.794   0.310  10.072  0.9849  1.0761 -3.0927
  221MOL0     H30497   8.710   0.450  10.003  2.5392  2.2163  3.7252
  221MOL0     H30498   8.717   0.431  10.180 -1.4829 -1.8360  2.5890
  222MOL0     O30499   6.715   2.760   9.836 -0.6652  0.3744 -1.0046
  222MOL0     C30500   6.700   2.678   9.751 -0.0709 -0.2437 -0.1959
  222MOL0     O30501   6.701   2.535   9.762 -0.0414 -1.0640  0.4292
  222MOL0     C30502   6.719   2.480   9.887 -1.3926 -0.0886 -0.5020
  222MOL0     C30503   6.815   2.392   9.918 -0.0641 -1.1586  0.7022
  222MOL0     C30504   6.819   2.324  10.040  0.2905 -0.3738  0.2150
  222MOL0     C30505   6.729   2.351  10.143 -0.2224 -0.3543 -0.4008
  222MOL0     O30506   6.726   2.299  10.269 -0.1759  0.8833  0.1273
  222MOL0     C30507   6.750   2.150  10.271 -0.7597 -1.0049  0.7081
  222MOL0     C30508   6.735   2.108  10.414 -0.2107 -0.4677 -0.4199
  222MOL0     C30509   6.593   2.104  10.463 -0.1788  0.2612  0.0528
  222MOL0     C30510   6.512   1.980  10.438 -0.6470 -0.1833 -0.6422
  222MOL0     C30511   6.366   1.987  10.481 -0.0704  0.1920  0.3802
  222MOL0     C30512   6.300   1.853  10.511  0.3996  0.5218  0.4875
  222MOL0     C30513   6.333   1.744  10.407  0.0479 -0.9810 -0.3214
  222MOL0     C30514   6.269   1.604  10.453 -0.1422  0.0417  0.8556
  222MOL0     N30515   6.362   1.494  10.449  0.5180 -0.3659 -0.2229
  222MOL0     C30516   6.418   1.453  10.334 -0.3702 -0.6516 -0.5645
  222MOL0     C30517   6.478   1.335  10.372 -0.4265  0.9892 -0.8429
  222MOL0     C30518   6.555   1.241  10.296 -0.5537  0.4313  0.4797
  222MOL0     C30519   6.471   1.129  10.252  0.6303 -0.4497 -0.1178
  222MOL0     C30520   6.379   1.162  10.140  0.1400  0.1871 -0.9458
  222MOL0     C30521   6.278   1.049  10.116  0.8137 -0.6948  0.7552
  222MOL0     O30522   6.355   0.939  10.063 -0.0045 -0.2007  0.1121
  222MOL0     C30523   6.309   0.819  10.111  0.5393 -0.1289 -0.5538
  222MOL0     C30524   6.231   0.733  10.036  0.5138  0.1640  0.0959
  222MOL0     C30525   6.182   0.608  10.085 -1.1691  0.2922 -0.6901
  222MOL0     C30526   6.121   0.513   9.982 -0.1317  0.9080  0.3459
  222MOL0     C30527   6.208   0.569  10.217 -0.6526 -0.1799  0.1497
  222MOL0     C30528   6.155   0.447  10.272 -0.6415  0.5257  0.3425
  222MOL0     O30529   6.060   0.470  10.372 -0.1585  0.2125 -0.8801
  222MOL0     C30530   6.007   0.364  10.456 -0.6756 -0.3564  0.2263
  222MOL0     C30531   6.068   0.242  10.500 -1.0046 -1.0152 -0.1286
  222MOL0     C30532   5.996   0.173  10.602 -0.0380  0.3540  0.2866
  222MOL0     C30533   5.873   0.211  10.651 -0.6391 -0.0620  0.1850
  222MOL0     O30534   5.795   0.135  10.742 -0.1034 -0.4329  0.1642
  222MOL0     C30535   5.695   0.047  10.690 -0.2850 -0.2466  0.9815
  222MOL0     C30536   5.579   0.025  10.789 -1.0174 -0.0434  0.5281
  222MOL0     C30537   5.457  -0.029  10.725 -0.1859  0.6716 -0.5852
  222MOL0     C30538   5.454  -0.180  10.679 -0.5976 -0.5050 -0.5524
  222MOL0     C30539   5.321  -0.242  10.686 -0.2140  0.6517 -1.3591
  222MOL0     C30540   5.302  -0.366  10.581 -0.0813  0.0919 -0.0199
  222MOL0     C30541   5.169  -0.446  10.592  1.0238  0.5221  0.3484
  222MOL0     C30542   5.159  -0.567  10.498  0.3430  0.8092 -0.2787
  222MOL0    Cl30543   5.119  -0.499  10.334 -0.1412 -0.3042 -0.2884
  222MOL0     C30544   5.819   0.332  10.601  0.3589 -0.0294 -0.0365
  222MOL0     C30545   5.881   0.404  10.503 -0.1802 -0.8991 -0.5972
  222MOL0     O30546   6.195   0.332  10.236  0.3240  0.1649  0.6255
  222MOL0     C30547   6.307   0.645  10.286  0.4293 -0.3566  0.7131
  222MOL0     C30548   6.358   0.767  10.236  0.9291  0.5606 -0.2992
  222MOL0     N30549   6.452   1.306  10.506  0.3575 -0.6486 -0.2755
  222MOL0     N30550   6.392   1.413  10.551 -0.0499 -0.0465 -0.1954
  222MOL0     C30551   6.639   2.448  10.116  0.2481 -0.2835  0.8274
  222MOL0     C30552   6.619   2.498   9.980 -0.9652  0.0194 -0.9497
  222MOL0     C30553   6.670   2.722   9.613 -0.0285  0.4707  0.3904
  222MOL0     C30554   6.657   2.625   9.505  0.5719 -0.1482  0.2391
  222MOL0     C30555   6.606   2.662   9.380  1.5650 -0.0172  0.1868
  222MOL0     C30556   6.590   2.793   9.348  0.4377 -0.5656 -0.1210
  222MOL0     O30557   6.531   2.825   9.229  0.3290 -0.1961  0.4425
  222MOL0     C30558   6.388   2.846   9.221  0.3311  0.2453 -0.0055
  222MOL0     C30559   6.348   2.985   9.262  0.2245 -0.6354  0.6651
  222MOL0     C30560   6.195   2.985   9.258 -0.2767  0.2987  0.1172
  222MOL0     C30561   6.136   3.123   9.314 -0.5519  0.1832  0.9754
  222MOL0     C30562   6.183   3.163   9.444 -0.9617 -0.9162  1.3950
  222MOL0     C30563   6.240   3.186   9.545  0.0612  0.6274  0.3415
  222MOL0     C30564   6.636   2.899   9.437  0.0695  0.4611  0.7288
  222MOL0     C30565   6.670   2.860   9.567 -0.9033 -0.2988 -0.3368
  222MOL0     C30566   6.695   2.980   9.651  0.7549 -1.0222  0.2672
  222MOL0     H30567   6.884   2.378   9.835  0.1781  0.6022  0.5725
  222MOL0     H30568   6.911   2.270  10.059  0.7420  0.1167 -0.5537
  222MOL0     H30569   6.852   2.123  10.243 -0.6682 -1.2397  1.2637
  222MOL0     H30570   6.684   2.090  10.208 -2.6686  0.7276  0.9620
  222MOL0     H30571   6.766   2.003  10.418 -1.3123 -0.7884  1.5766
  222MOL0     H30572   6.793   2.176  10.477 -3.5863  1.4856  0.8493
  222MOL0     H30573   6.591   2.110  10.572  0.3918  0.8831  0.0295
  222MOL0     H30574   6.544   2.197  10.432  0.2791  0.5429  0.1744
  222MOL0     H30575   6.528   1.977  10.330  1.0732  3.3107 -0.6267
  222MOL0     H30576   6.553   1.890  10.484 -0.7126  0.3033  0.4052
  222MOL0     H30577   6.309   2.045  10.408  0.1193 -0.3928 -0.2356
  222MOL0     H30578   6.365   2.058  10.564 -1.7599  1.9938 -1.0661
  222MOL0     H30579   6.329   1.825  10.613  1.9205  3.9000  1.1199
  222MOL0     H30580   6.190   1.860  10.512  0.3702  0.1994 -0.0105
  222MOL0     H30581   6.440   1.724  10.397  0.2807  1.0910 -3.2368
  222MOL0     H30582   6.308   1.783  10.308 -1.4971 -0.7322  0.1290
  222MOL0     H30583   6.234   1.600  10.557  1.9896 -2.3909  1.5911
  222MOL0     H30584   6.190   1.582  10.381 -0.3897 -2.5233  1.7858
  222MOL0     H30585   6.420   1.505  10.239  1.3508  2.5693  1.0676
  222MOL0     H30586   6.629   1.197  10.363 -0.7065  0.2054  0.5007
  222MOL0     H30587   6.610   1.289  10.214  3.0284  0.3977  2.6416
  222MOL0     H30588   6.550   1.057  10.228  1.1502  0.4750 -1.3207
  222MOL0     H30589   6.420   1.100  10.345  2.8824 -0.4389  1.1994
  222MOL0     H30590   6.327   1.254  10.167  1.8702  0.3189  2.3719
  222MOL0     H30591   6.435   1.179  10.048  0.5930  0.9731 -0.5275
  222MOL0     H30592   6.233   1.022  10.212 -0.0646 -0.6409  0.3707
  222MOL0     H30593   6.201   1.078  10.043  0.8401  1.1569  1.4181
  222MOL0     H30594   6.207   0.764   9.935  1.3355  2.2550  0.4790
  222MOL0     H30595   6.027   0.476  10.024  0.0104  1.3166  1.0371
  222MOL0     H30596   6.186   0.428   9.956  0.0959  1.3538 -0.5906
  222MOL0     H30597   6.098   0.560   9.886 -4.1153 -2.3296 -0.5708
  222MOL0     H30598   6.162   0.199  10.467  0.8971  0.8538  2.4748
  222MOL0     H30599   6.031   0.079  10.643 -1.6916 -0.3618  0.1177
  222MOL0     H30600   5.668   0.098  10.598 -0.7688 -0.2719  1.1093
  222MOL0     H30601   5.730  -0.053  10.664 -1.1638 -0.4369  0.5226
  222MOL0     H30602   5.604  -0.042  10.872 -0.1016  0.3622  0.5952
  222MOL0     H30603   5.558   0.120  10.837  0.1033  0.1455  0.6836
  222MOL0     H30604   5.432   0.041  10.645 -0.2424  2.0687  0.6165
  222MOL0     H30605   5.374  -0.024  10.795 -1.3988  0.0382 -1.9238
  222MOL0     H30606   5.519  -0.246  10.737 -1.7256 -1.8217 -0.7038
  222MOL0     H30607   5.492  -0.187  10.577  0.0931  2.6785 -0.5976
  222MOL0     H30608   5.294  -0.267  10.789  0.0071  1.3234 -1.1350
  222MOL0     H30609   5.249  -0.164  10.659 -1.1876  1.6068  3.1766
  222MOL0     H30610   5.373  -0.446  10.608 -0.9873 -0.2456  1.5213
  222MOL0     H30611   5.325  -0.339  10.478  3.1766  1.4581  0.9394
  222MOL0     H30612   5.090  -0.373  10.574  1.6508  1.4606  1.3076
  222MOL0     H30613   5.170  -0.488  10.692  3.5307 -1.9305 -0.5806
  222MOL0     H30614   5.075  -0.631  10.525  0.7986  0.3762  0.1309
  222MOL0     H30615   5.255  -0.614  10.522 -1.2594 -1.1386  3.1204
  222MOL0     H30616   5.720   0.363  10.636  0.4430  2.2242 -1.5529
  222MOL0     H30617   5.837   0.496  10.463  2.4753  0.5642 -0.3557
  222MOL0     H30618   6.328   0.627  10.391  0.5382  3.7524  1.5689
  222MOL0     H30619   6.415   0.836  10.297 -0.4350  0.5073  1.0914
  222MOL0     H30620   6.577   2.474  10.201  1.8174  0.8768  1.6760
  222MOL0     H30621   6.548   2.580   9.973  0.0272  0.9057 -0.8405
  222MOL0     H30622   6.670   2.518   9.523 -1.3141 -0.2562  1.2252
  222MOL0     H30623   6.572   2.589   9.307 -0.1816  1.9423 -1.0755
  222MOL0     H30624   6.369   2.842   9.114 -2.0199  4.3609  0.0400
  222MOL0     H30625   6.332   2.770   9.276  0.9015  0.6467  1.1770
  222MOL0     H30626   6.392   3.055   9.190 -0.7720  1.1623  1.7266
  222MOL0     H30627   6.385   3.011   9.362 -1.2925  0.4457  0.9735
  222MOL0     H30628   6.154   2.963   9.159  0.1398 -0.3855  0.0847
  222MOL0     H30629   6.151   2.906   9.319 -1.4722 -0.3732 -1.5407
  222MOL0     H30630   6.028   3.113   9.327 -0.9965 -0.6514 -2.4043
  222MOL0     H30631   6.155   3.204   9.243 -2.8001 -0.1915 -0.1187
  222MOL0     H30632   6.278   3.198   9.644 -0.5130  0.0549  0.6427
  222MOL0     H30633   6.631   2.998   9.394  3.0407 -1.0049 -3.7462
  222MOL0     H30634   6.608   3.023   9.703 -1.1468  0.9633 -4.0703
  222MOL0     H30635   6.777   2.951   9.718  1.1776 -0.6738 -0.0982
  222MOL0     H30636   6.738   3.057   9.587  1.3080 -0.3447  1.4065
  223MOL0     O30637   3.660   2.004   1.401  0.5222  0.0235 -0.2832
  223MOL0     C30638   3.740   1.928   1.459  0.2397 -0.6428  0.3300
  223MOL0     O30639   3.775   1.800   1.419  0.3846  0.4141  0.5232
  223MOL0     C30640   3.729   1.737   1.307  0.7359  0.2151 -0.8685
  223MOL0     C30641   3.723   1.601   1.311 -0.4165  0.1555  0.7822
  223MOL0     C30642   3.713   1.523   1.195 -0.9183 -0.5240  0.1039
  223MOL0     C30643   3.697   1.594   1.071  0.5900  0.3379 -0.1847
  223MOL0     O30644   3.670   1.521   0.953 -0.4536  1.1752  0.8015
  223MOL0     C30645   3.769   1.414   0.920  0.0041  0.6827 -0.7354
  223MOL0     C30646   3.896   1.465   0.854  0.4699  0.2709  0.1097
  223MOL0     C30647   3.961   1.382   0.737  0.2813 -0.5755 -0.2082
  223MOL0     C30648   3.993   1.237   0.786 -0.3138  0.2574 -0.2352
  223MOL0     C30649   4.092   1.187   0.689 -0.2082 -0.2414  0.3349
  223MOL0     C30650   4.160   1.044   0.730  0.9683 -0.1351 -0.2476
  223MOL0     C30651   4.272   1.020   0.634 -0.6039 -0.2490  0.8575
  223MOL0     C30652   4.345   0.887   0.656 -0.4405 -0.1506  0.9994
  223MOL0     N30653   4.428   0.901   0.775  0.2492 -0.2506 -0.1197
  223MOL0     C30654   4.565   0.929   0.776 -0.2489 -0.6674  0.2092
  223MOL0     C30655   4.603   0.909   0.905 -0.1408  0.1834  0.0109
  223MOL0     C30656   4.752   0.901   0.947 -0.0911  0.1656 -1.2110
  223MOL0     C30657   4.811   1.009   1.045  0.2362  0.0096 -0.5074
  223MOL0     C30658   4.811   1.154   0.987 -0.1467  0.3158 -0.1515
  223MOL0     C30659   4.831   1.260   1.101 -0.1132 -0.4081  0.0780
  223MOL0     O30660   4.932   1.213   1.194 -0.0297 -0.3140 -0.0126
  223MOL0     C30661   4.998   1.296   1.288 -0.2170  0.2327  0.0312
  223MOL0     C30662   5.085   1.243   1.385  0.0459  0.1940 -0.1697
  223MOL0     C30663   5.159   1.317   1.480  0.0049 -0.5042  0.3984
  223MOL0     C30664   5.251   1.251   1.579 -0.1534  0.3097  0.5133
  223MOL0     C30665   5.136   1.464   1.476 -1.2446  0.4505  0.3664
  223MOL0     C30666   5.224   1.563   1.544  0.0214 -0.6670  0.3891
  223MOL0     O30667   5.167   1.696   1.558  0.0082  0.2785 -0.0211
  223MOL0     C30668   5.233   1.806   1.609 -0.1625  0.1370  0.2270
  223MOL0     C30669   5.364   1.794   1.656  0.1671 -1.1991 -0.4389
  223MOL0     C30670   5.420   1.903   1.724  0.1814  0.0860  0.2531
  223MOL0     C30671   5.347   2.023   1.747 -0.4871  0.1663 -0.3530
  223MOL0     O30672   5.417   2.124   1.810  0.6698 -0.1554 -0.0800
  223MOL0     C30673   5.437   2.098   1.950  0.3189 -0.5974 -0.2675
  223MOL0     C30674   5.511   2.221   2.017  0.0240 -1.1149  0.9320
  223MOL0     C30675   5.475   2.222   2.166  0.7589 -0.3234  0.4235
  223MOL0     C30676   5.564   2.321   2.236 -0.4820  0.6166  0.7516
  223MOL0     C30677   5.520   2.322   2.385 -0.5225  0.5170  0.2376
  223MOL0     C30678   5.444   2.445   2.435 -0.5808  0.4152  0.1396
  223MOL0     C30679   5.405   2.429   2.579 -0.2116 -0.8610 -0.3170
  223MOL0     C30680   5.266   2.360   2.593 -0.5973  0.4898 -0.8892
  223MOL0    Cl30681   5.218   2.323   2.764 -0.0468 -0.2185  0.0144
  223MOL0     C30682   5.220   2.033   1.688  0.4460  0.1964 -0.4679
  223MOL0     C30683   5.164   1.920   1.630  1.3015 -1.2422 -0.4199
  223MOL0     O30684   5.340   1.531   1.544  0.0814 -0.2936 -0.6989
  223MOL0     C30685   5.058   1.512   1.382 -0.4738  0.7394 -0.6311
  223MOL0     C30686   4.987   1.432   1.286  0.0429 -0.2718 -0.0314
  223MOL0     N30687   4.500   0.862   0.977  0.7308  0.4348 -0.3163
  223MOL0     N30688   4.394   0.852   0.901 -0.5141  0.1978  1.1325
  223MOL0     C30689   3.685   1.732   1.069 -0.6566 -0.7570  0.3893
  223MOL0     C30690   3.715   1.807   1.190  0.3422  0.2425  0.1435
  223MOL0     C30691   3.801   1.984   1.584  0.3156  0.6302 -0.2810
  223MOL0     C30692   3.927   1.925   1.610  0.5832 -1.3365 -0.2402
  223MOL0     C30693   4.002   1.955   1.729 -0.5984 -0.3726  0.3309
  223MOL0     C30694   3.951   2.051   1.818 -0.5230 -0.6015 -0.0279
  223MOL0     O30695   4.034   2.088   1.919  0.3490 -0.2011 -0.5745
  223MOL0     C30696   4.140   2.176   1.881 -0.3852 -0.2589 -0.3091
  223MOL0     C30697   4.085   2.319   1.867  0.3310  0.3859 -0.8698
  223MOL0     C30698   4.082   2.403   1.997  1.0086 -0.5288  0.3388
  223MOL0     C30699   3.965   2.350   2.098  0.0115  0.1640 -0.7992
  223MOL0     C30700   3.986   2.406   2.234 -0.1092 -0.0976 -0.5364
  223MOL0     C30701   3.992   2.459   2.339  0.7610  0.2835 -0.2270
  223MOL0     C30702   3.828   2.103   1.790 -0.5194 -0.0276  0.3467
  223MOL0     C30703   3.756   2.075   1.676  0.3978 -0.0628  0.8658
  223MOL0     C30704   3.615   2.114   1.691 -0.6813 -0.0342  0.3823
  223MOL0     H30705   3.753   1.570   1.411 -3.2965 -1.0616  1.3844
  223MOL0     H30706   3.721   1.414   1.199 -0.5818 -0.5949 -1.6708
  223MOL0     H30707   3.724   1.343   0.850  5.4816 -0.2644 -3.9469
  223MOL0     H30708   3.796   1.365   1.014  0.7447  2.0825 -0.1848
  223MOL0     H30709   3.872   1.560   0.804 -2.3458 -0.6720 -0.5183
  223MOL0     H30710   3.977   1.483   0.926  0.9308  1.7699 -0.7395
  223MOL0     H30711   3.901   1.379   0.646  0.2444  4.2612 -0.5796
  223MOL0     H30712   4.052   1.434   0.706  1.1047 -1.2419  1.0048
  223MOL0     H30713   4.048   1.245   0.880  0.6031  0.6430 -0.7877
  223MOL0     H30714   3.910   1.165   0.789  3.2825 -4.2849  1.2832
  223MOL0     H30715   4.173   1.260   0.689  1.4819 -2.0303  0.3892
  223MOL0     H30716   4.051   1.196   0.588  0.8599 -1.3011 -0.2200
  223MOL0     H30717   4.199   1.043   0.833 -0.6418 -0.3919  0.3860
  223MOL0     H30718   4.089   0.962   0.716  1.8054 -0.4938 -3.0374
  223MOL0     H30719   4.340   1.105   0.621 -0.4421 -0.7536 -2.7986
  223MOL0     H30720   4.228   1.013   0.534  1.3974 -1.9890  0.0221
  223MOL0     H30721   4.269   0.809   0.671  2.1979 -3.2179 -0.4120
  223MOL0     H30722   4.402   0.854   0.568 -1.3452  0.9998 -0.0500
  223MOL0     H30723   4.620   0.954   0.687 -0.6959 -1.2738 -0.2479
  223MOL0     H30724   4.804   0.888   0.851  2.1988 -0.4228  0.0490
  223MOL0     H30725   4.782   0.805   0.988  1.4846  0.4289 -1.6798
  223MOL0     H30726   4.754   1.021   1.137  1.3152 -1.0051  0.3296
  223MOL0     H30727   4.916   0.994   1.071  1.0641  2.0598 -2.2489
  223MOL0     H30728   4.885   1.179   0.911  0.6691  3.0662  1.4319
  223MOL0     H30729   4.714   1.181   0.944  0.6626  0.6048 -1.8746
  223MOL0     H30730   4.848   1.357   1.053  0.4240 -1.6115 -2.3025
  223MOL0     H30731   4.731   1.277   1.143  0.7870  2.0814  1.4241
  223MOL0     H30732   5.104   1.139   1.363 -0.5343  0.3926 -1.7709
  223MOL0     H30733   5.203   1.163   1.623  0.3890 -0.1812  0.1421
  223MOL0     H30734   5.295   1.313   1.658  0.1327  1.2821 -0.3782
  223MOL0     H30735   5.341   1.212   1.529  0.9714  3.4040 -0.0733
  223MOL0     H30736   5.421   1.701   1.654  0.9285 -0.7293 -0.7530
  223MOL0     H30737   5.525   1.891   1.748  0.2562 -0.4957 -0.3543
  223MOL0     H30738   5.340   2.081   1.999  1.2838 -3.1887  0.9181
  223MOL0     H30739   5.500   2.010   1.963 -1.3933 -2.2544 -2.4637
  223MOL0     H30740   5.618   2.214   1.994 -0.3972 -2.3444 -0.8343
  223MOL0     H30741   5.473   2.310   1.966  3.1100 -0.0266  0.3437
  223MOL0     H30742   5.498   2.122   2.205  2.3775  0.0554  0.5304
  223MOL0     H30743   5.373   2.254   2.186  1.3843  1.5341  0.8015
  223MOL0     H30744   5.568   2.420   2.190 -0.5711  0.7757  1.0841
  223MOL0     H30745   5.668   2.287   2.228 -0.3658  1.4778 -2.5812
  223MOL0     H30746   5.460   2.234   2.409  0.3457  0.6328  3.2461
  223MOL0     H30747   5.606   2.313   2.452 -2.5873 -0.9243  2.8916
  223MOL0     H30748   5.358   2.475   2.375  1.6489  1.1981 -2.9227
  223MOL0     H30749   5.508   2.533   2.432  1.2317 -0.8481  0.0903
  223MOL0     H30750   5.392   2.530   2.620 -2.6110  0.1382 -3.1973
  223MOL0     H30751   5.476   2.370   2.638  0.8385 -2.6972 -3.2020
  223MOL0     H30752   5.259   2.267   2.536 -1.0922  1.4091 -2.3793
  223MOL0     H30753   5.184   2.419   2.551 -0.6819 -0.3854 -1.9919
  223MOL0     H30754   5.169   2.128   1.705  1.5479  0.9370 -1.1940
  223MOL0     H30755   5.060   1.933   1.603  0.3110 -2.0010  2.5854
  223MOL0     H30756   5.042   1.617   1.361  0.3993  1.0142  0.0627
  223MOL0     H30757   4.924   1.490   1.219  0.3241  0.2869  0.1746
  223MOL0     H30758   3.672   1.779   0.972 -0.1580  0.1764  0.7705
  223MOL0     H30759   3.730   1.914   1.180  4.1337 -0.1346  0.3854
  223MOL0     H30760   3.963   1.847   1.544  0.2950 -0.6143 -1.2814
  223MOL0     H30761   4.098   1.916   1.758 -0.2233  2.7811  4.1170
  223MOL0     H30762   4.233   2.168   1.938  1.8144  1.6675 -3.2795
  223MOL0     H30763   4.180   2.143   1.785  3.0983  0.0921  0.8584
  223MOL0     H30764   3.984   2.302   1.829 -0.5370 -0.0560  1.4360
  223MOL0     H30765   4.139   2.363   1.783  0.7384  0.7146 -0.4401
  223MOL0     H30766   4.179   2.400   2.047  1.0080 -1.3411  0.3019
  223MOL0     H30767   4.070   2.510   1.981  3.5431  0.1536  2.2194
  223MOL0     H30768   3.964   2.241   2.101  2.6268  0.1058  0.3280
  223MOL0     H30769   3.868   2.386   2.062 -1.4171  2.0703  4.1009
  223MOL0     H30770   3.991   2.501   2.437  2.6164 -0.4266  0.1473
  223MOL0     H30771   3.789   2.167   1.869 -0.5889 -1.8354  1.8420
  223MOL0     H30772   3.584   2.200   1.631  1.0487 -0.7586 -1.6569
  223MOL0     H30773   3.550   2.036   1.652 -0.0873  0.1060 -0.9348
  223MOL0     H30774   3.586   2.137   1.794  1.2603 -0.2667  1.0193
  224MOL0     O30775   4.841   1.453  10.391 -0.7362  0.4763  0.2929
  224MOL0     C30776   4.845   1.531  10.303  0.4678  0.0310  0.3408
  224MOL0     O30777   4.809   1.509  10.176  0.0380 -0.2331  0.1632
  224MOL0     C30778   4.753   1.388  10.147  0.3420 -0.3216  0.6834
  224MOL0     C30779   4.646   1.341  10.228 -0.1459 -0.3124  0.3370
  224MOL0     C30780   4.581   1.230  10.178 -0.7739 -0.2789  1.0042
  224MOL0     C30781   4.604   1.161  10.059 -0.7358 -0.4118  0.8550
  224MOL0     O30782   4.526   1.055  10.011 -0.1210  0.1239  0.1314
  224MOL0     C30783   4.492   1.067   9.868 -0.1203  0.2426 -0.2994
  224MOL0     C30784   4.548   0.959   9.787  0.2006  0.2424  0.4281
  224MOL0     C30785   4.500   0.961   9.632 -0.2546 -0.2351 -1.4587
  224MOL0     C30786   4.534   0.827   9.573 -0.1954  0.1492 -0.1028
  224MOL0     C30787   4.461   0.807   9.443  0.3974  0.3013 -0.0467
  224MOL0     C30788   4.530   0.871   9.330  0.1177  0.0618  0.7386
  224MOL0     C30789   4.458   0.837   9.193  0.5863  0.3660 -0.2873
  224MOL0     C30790   4.314   0.877   9.169  0.2920 -0.3782 -0.4695
  224MOL0     N30791   4.283   0.856   9.026 -0.0118  0.4817 -0.6986
  224MOL0     C30792   4.296   0.730   8.957  0.3247 -0.2601  0.4534
  224MOL0     C30793   4.285   0.758   8.823  0.0156  0.5318  0.0644
  224MOL0     C30794   4.282   0.662   8.708 -0.4669  0.7591 -0.4848
  224MOL0     C30795   4.149   0.589   8.711 -0.6393  0.2663 -0.4302
  224MOL0     C30796   4.109   0.504   8.580 -0.1176  0.4738 -0.4789
  224MOL0     C30797   4.079   0.607   8.463 -0.0765 -0.4191 -0.2060
  224MOL0     O30798   4.099   0.542   8.333  0.7041 -0.8621  0.1802
  224MOL0     C30799   4.100   0.621   8.220 -0.2355  0.6065  0.0391
  224MOL0     C30800   4.152   0.576   8.102 -0.1951  0.4937  0.1059
  224MOL0     C30801   4.152   0.656   7.992 -0.3077  0.6973  0.5901
  224MOL0     C30802   4.221   0.591   7.879  0.3532 -0.0148  0.5469
  224MOL0     C30803   4.107   0.788   7.990  0.7241 -0.7882 -0.3324
  224MOL0     C30804   4.127   0.881   7.875 -0.3037 -0.0843 -0.7602
  224MOL0     O30805   4.119   1.017   7.912  0.2252  0.2663  0.4960
  224MOL0     C30806   4.082   1.106   7.811 -0.1724 -1.0434  0.3050
  224MOL0     C30807   4.176   1.201   7.775  0.9054  0.2938 -0.1178
  224MOL0     C30808   4.140   1.279   7.666 -0.3023  0.0120  1.0013
  224MOL0     C30809   4.023   1.265   7.589 -0.4144  0.8704 -0.4052
  224MOL0     O30810   4.006   1.344   7.473 -0.1131  0.2513  0.8895
  224MOL0     C30811   3.943   1.282   7.363  0.6868 -0.4364 -0.1953
  224MOL0     C30812   3.801   1.323   7.334 -0.0545  0.0220  0.1309
  224MOL0     C30813   3.799   1.482   7.312 -0.1804  0.0906  0.8726
  224MOL0     C30814   3.890   1.530   7.197  0.5074  0.6790  0.5546
  224MOL0     C30815   3.845   1.686   7.189  0.0634  1.0818 -0.1448
  224MOL0     C30816   3.915   1.771   7.085 -0.2092 -0.4504  0.0909
  224MOL0     C30817   4.064   1.727   7.077 -0.0060 -0.3847 -0.5528
  224MOL0     C30818   4.144   1.811   6.979  0.4185  1.0468 -0.6336
  224MOL0    Cl30819   4.156   1.973   7.057 -0.1049  0.2479  0.2494
  224MOL0     C30820   3.937   1.156   7.631  1.3347 -0.0342 -1.4045
  224MOL0     C30821   3.964   1.088   7.747  0.9541  0.2696  0.0337
  224MOL0     O30822   4.127   0.842   7.756 -0.3964  0.5501  0.1314
  224MOL0     C30823   4.065   0.840   8.113  1.1121 -0.4768 -1.0810
  224MOL0     C30824   4.046   0.752   8.227 -0.2650  0.3855 -0.3859
  224MOL0     N30825   4.266   0.890   8.812  0.7983 -0.7086 -0.1256
  224MOL0     N30826   4.265   0.949   8.922  0.2649  0.3309  0.1993
  224MOL0     C30827   4.718   1.205   9.992  0.6434  0.1127 -0.3052
  224MOL0     C30828   4.787   1.319  10.027 -0.2544 -0.7532 -0.7043
  224MOL0     C30829   4.876   1.673  10.337 -0.4221 -0.8427 -0.1338
  224MOL0     C30830   4.816   1.780  10.272  0.6744 -0.3521  0.0632
  224MOL0     C30831   4.854   1.911  10.293 -0.5288 -0.6163  0.8690
  224MOL0     C30832   4.960   1.946  10.373 -0.1049  0.2856  0.3904
  224MOL0     O30833   5.007   2.073  10.369 -0.6746  0.3461 -0.5667
  224MOL0     C30834   5.143   2.095  10.401  0.1132  0.2425  0.4845
  224MOL0     C30835   5.246   2.070  10.285  0.5195 -0.0366 -0.1672
  224MOL0     C30836   5.264   1.917  10.254  0.0280 -1.0235 -0.6115
  224MOL0     C30837   5.364   1.888  10.150 -0.6548 -0.6598  0.0109
  224MOL0     C30838   5.501   1.933  10.183 -0.5464  0.2539  0.8342
  224MOL0     C30839   5.614   1.982  10.208  0.4578 -0.3990 -0.5535
  224MOL0     C30840   5.032   1.845  10.439  0.5243  0.2560 -0.7293
  224MOL0     C30841   4.986   1.707  10.422 -0.2107  0.1595 -0.2446
  224MOL0     C30842   5.077   1.607  10.491 -0.3388 -0.6325 -0.1183
  224MOL0     H30843   4.605   1.402  10.308 -1.2957  1.6264 -1.6294
  224MOL0     H30844   4.494   1.205  10.237 -2.2436  1.0718 -0.4926
  224MOL0     H30845   4.523   1.165   9.830  5.6516 -1.0806  0.0030
  224MOL0     H30846   4.385   1.057   9.852  0.0025  0.3021 -1.1734
  224MOL0     H30847   4.654   0.982   9.793  0.9034 -2.5572  0.1688
  224MOL0     H30848   4.531   0.859   9.827 -0.5598  0.6386  1.1463
  224MOL0     H30849   4.391   0.971   9.628 -0.3808 -0.3468  0.7153
  224MOL0     H30850   4.549   1.049   9.589 -1.5180  0.8466 -0.7614
  224MOL0     H30851   4.643   0.825   9.574 -0.1574  0.9307  1.2683
  224MOL0     H30852   4.497   0.745   9.636  0.7911  1.3570  2.2025
  224MOL0     H30853   4.357   0.840   9.444  0.8631  2.0423 -1.9833
  224MOL0     H30854   4.456   0.700   9.417 -0.0893  0.5653 -1.0940
  224MOL0     H30855   4.530   0.981   9.336 -0.8705  0.0336  1.3366
  224MOL0     H30856   4.636   0.845   9.316  0.5711  3.1378 -4.7107
  224MOL0     H30857   4.459   0.731   9.166 -2.2183  0.3724 -0.7863
  224MOL0     H30858   4.519   0.887   9.117 -0.0569  1.3103 -0.1956
  224MOL0     H30859   4.256   0.808   9.229 -0.7947 -0.3694 -1.4770
  224MOL0     H30860   4.302   0.982   9.199 -0.0379 -0.5558  0.0228
  224MOL0     H30861   4.303   0.634   9.007 -1.5218  0.9887  3.3401
  224MOL0     H30862   4.358   0.584   8.718 -0.1674  1.3071  2.0611
  224MOL0     H30863   4.300   0.715   8.614 -2.5472  1.4773 -0.5294
  224MOL0     H30864   4.168   0.522   8.795 -0.5349  3.3693  2.2275
  224MOL0     H30865   4.063   0.649   8.740 -0.8932  0.4588 -1.5208
  224MOL0     H30866   4.199   0.453   8.544  0.8449  2.9930 -1.8467
  224MOL0     H30867   4.024   0.438   8.598  0.5660 -0.2718  0.0757
  224MOL0     H30868   3.979   0.652   8.462  0.2847  0.4677  0.9689
  224MOL0     H30869   4.134   0.701   8.468 -2.7809  1.2708  0.2280
  224MOL0     H30870   4.192   0.475   8.095 -0.2361  0.3919  1.2276
  224MOL0     H30871   4.289   0.507   7.900 -0.6176 -1.1829 -0.7877
  224MOL0     H30872   4.281   0.663   7.823  1.5251 -0.1892  1.5363
  224MOL0     H30873   4.145   0.552   7.810  0.9542  1.1887 -0.8442
  224MOL0     H30874   4.272   1.211   7.825 -0.1326 -2.0446  2.5744
  224MOL0     H30875   4.200   1.360   7.626  1.3183 -1.9179 -0.7024
  224MOL0     H30876   4.009   1.301   7.279  1.4641  3.2890  1.0681
  224MOL0     H30877   3.939   1.173   7.373 -0.1221 -0.2224  2.9003
  224MOL0     H30878   3.772   1.264   7.246 -1.5724 -1.0293  1.2907
  224MOL0     H30879   3.736   1.300   7.418 -0.0710 -2.4632 -0.4728
  224MOL0     H30880   3.835   1.534   7.401  1.7676 -0.5135  0.4953
  224MOL0     H30881   3.694   1.504   7.288 -0.3883  0.6101  2.1834
  224MOL0     H30882   3.870   1.469   7.109  2.4519 -0.0418  0.5734
  224MOL0     H30883   3.997   1.513   7.212  0.2735  0.1528  1.6875
  224MOL0     H30884   3.736   1.698   7.185 -0.6691 -3.1341  2.0274
  224MOL0     H30885   3.872   1.734   7.283 -0.5454  0.2259  0.4821
  224MOL0     H30886   3.908   1.876   7.115  0.9205  0.4481 -2.5023
  224MOL0     H30887   3.881   1.772   6.981 -0.9373 -0.5432  0.3269
  224MOL0     H30888   4.085   1.629   7.034  1.0336 -1.1118  1.4486
  224MOL0     H30889   4.108   1.731   7.178 -0.3342 -2.2402 -0.2964
  224MOL0     H30890   4.108   1.810   6.875 -2.9546 -0.8496  0.3807
  224MOL0     H30891   4.249   1.784   6.976 -0.2533 -2.2705  1.2299
  224MOL0     H30892   3.841   1.131   7.587  0.4158  0.7676  0.0836
  224MOL0     H30893   3.887   1.024   7.788 -0.9137  2.8677  0.8805
  224MOL0     H30894   4.038   0.945   8.119 -0.3128 -0.8834 -0.1050
  224MOL0     H30895   3.997   0.794   8.315  0.8010 -1.8149  1.3473
  224MOL0     H30896   4.765   1.148   9.912 -2.0264 -3.7758  0.6040
  224MOL0     H30897   4.865   1.356   9.961  1.6295  1.9787  2.6875
  224MOL0     H30898   4.743   1.758  10.195  3.2658  1.3253 -3.1142
  224MOL0     H30899   4.809   1.994  10.239  0.5910  0.4285  1.4866
  224MOL0     H30900   5.157   2.198  10.435 -2.0992  0.3264  1.3404
  224MOL0     H30901   5.169   2.037  10.490  1.8276  0.1074 -0.0684
  224MOL0     H30902   5.343   2.101  10.325  0.5404 -0.1425 -0.1345
  224MOL0     H30903   5.222   2.118  10.189  3.1572  1.6058 -0.0968
  224MOL0     H30904   5.295   1.873  10.349  1.1197  1.0476  0.0511
  224MOL0     H30905   5.169   1.874  10.220 -2.9783  2.5481  2.2196
  224MOL0     H30906   5.348   1.927  10.049  1.7223 -0.4786 -0.3708
  224MOL0     H30907   5.364   1.779  10.145  1.3323 -0.6657 -1.2687
  224MOL0     H30908   5.708   2.033  10.213  1.0534 -1.5046 -0.1004
  224MOL0     H30909   5.127   1.857  10.490  0.2462 -2.3312  0.5598
  224MOL0     H30910   5.113   1.534  10.418  2.2406 -0.8051  1.1708
  224MOL0     H30911   5.167   1.659  10.526 -1.5826  0.5330  1.5086
  224MOL0     H30912   5.014   1.545  10.556 -0.4738 -1.4845 -1.0339
  225MOL0     O30913   5.161   9.763   0.224  0.6828 -0.9038 -0.2448
  225MOL0     C30914   5.251   9.848   0.213 -0.0715 -0.0276  0.5795
  225MOL0     O30915   5.261   9.958   0.133 -0.3969  0.1964 -0.2523
  225MOL0     C30916   5.191   9.949   0.016  0.7994 -0.4638 -0.8651
  225MOL0     C30917   5.070  10.026   0.008  0.6276  0.7569  0.7156
  225MOL0     C30918   4.987  10.018  -0.107  0.1097  0.2086  0.1422
  225MOL0     C30919   5.015   9.935  -0.212 -0.0165 -0.9755  0.5680
  225MOL0     O30920   4.942   9.960  -0.328 -0.0527  0.1245  0.1725
  225MOL0     C30921   4.903   9.859  -0.424  0.0852 -0.0414 -0.2709
  225MOL0     C30922   4.872   9.929  -0.555  0.4063 -0.5805  0.2143
  225MOL0     C30923   4.788  10.055  -0.554 -0.8836  1.1197 -0.4016
  225MOL0     C30924   4.669  10.036  -0.451 -0.3614 -0.0789  0.5954
  225MOL0     C30925   4.581  10.166  -0.454  0.8271 -0.0564 -0.9056
  225MOL0     C30926   4.469  10.167  -0.345  0.0760  0.0099 -0.0137
  225MOL0     C30927   4.411  10.300  -0.301 -0.5176  0.2508 -0.2445
  225MOL0     C30928   4.340  10.370  -0.420  0.1598 -0.2645 -0.4189
  225MOL0     N30929   4.227  10.287  -0.476 -0.5335 -0.5435 -0.2396
  225MOL0     C30930   4.248  10.188  -0.574  0.5860  0.6240  0.9114
  225MOL0     C30931   4.121  10.174  -0.623  0.3092  0.5450 -0.2113
  225MOL0     C30932   4.078  10.101  -0.754  0.0902 -0.9855 -0.9974
  225MOL0     C30933   4.133  10.173  -0.879  0.0723 -0.3077  0.7180
  225MOL0     C30934   4.086  10.099  -1.009  0.5628  0.8208  0.1333
  225MOL0     C30935   4.138  10.158  -1.142 -0.4323  0.7633  0.2799
  225MOL0     O30936   4.096  10.288  -1.160  0.4997 -0.2232 -0.0070
  225MOL0     C30937   4.139  10.356  -1.271 -0.2890  0.7959 -0.3765
  225MOL0     C30938   4.234  10.455  -1.255 -0.0833 -0.7695 -0.1253
  225MOL0     C30939   4.270  10.517  -1.376 -0.8801 -0.3337  0.2114
  225MOL0     C30940   4.359  10.643  -1.370  0.0298  0.3399 -0.8644
  225MOL0     C30941   4.210  10.484  -1.506  0.1581  1.2684 -0.3534
  225MOL0     C30942   4.261  10.531  -1.639  0.3104 -0.5527 -0.6148
  225MOL0     O30943   4.285  10.434  -1.743 -0.1528 -0.2856 -0.6165
  225MOL0     C30944   4.314  10.471  -1.870  0.4095 -0.3227  0.5505
  225MOL0     C30945   4.245  10.416  -1.973 -0.1993 -0.0207  0.1661
  225MOL0     C30946   4.271  10.444  -2.102 -0.4061 -0.1859 -0.0266
  225MOL0     C30947   4.381  10.523  -2.132 -0.4647 -1.0744  0.1290
  225MOL0     O30948   4.394  10.560  -2.266  0.1971 -0.0983 -0.7052
  225MOL0     C30949   4.504  10.643  -2.312 -0.6879  0.3120 -0.1538
  225MOL0     C30950   4.481  10.794  -2.308  0.1738 -0.3139  0.6193
  225MOL0     C30951   4.459  10.862  -2.443 -0.2799 -1.0315 -0.2968
  225MOL0     C30952   4.467  11.016  -2.429  0.6021 -0.0532  1.3901
  225MOL0     C30953   4.458  11.109  -2.545 -0.2605 -0.0086 -0.2754
  225MOL0     C30954   4.312  11.093  -2.602  0.7287  1.0286  0.0495
  225MOL0     C30955   4.291  11.176  -2.723 -0.1411 -0.0605  0.0436
  225MOL0     C30956   4.143  11.185  -2.755 -0.3586 -0.9809 -0.6067
  225MOL0    Cl30957   4.066  11.331  -2.687 -0.1540  0.1865 -0.8608
  225MOL0     C30958   4.457  10.574  -2.025  0.3150 -0.0479  0.5048
  225MOL0     C30959   4.421  10.556  -1.894 -0.8190  0.7886 -0.0111
  225MOL0     O30960   4.293  10.646  -1.641 -0.3108  0.3288  0.9157
  225MOL0     C30961   4.112  10.381  -1.508 -0.2091  0.6604 -0.1327
  225MOL0     C30962   4.077  10.316  -1.387  1.0329 -0.4749  0.2165
  225MOL0     N30963   4.032  10.240  -0.539  0.0786 -0.7353 -0.9753
  225MOL0     N30964   4.095  10.308  -0.452 -0.4268  0.5476 -0.0892
  225MOL0     C30965   5.133   9.855  -0.208  1.0767 -0.1896  0.0664
  225MOL0     C30966   5.222   9.865  -0.086  0.9871  0.2150  0.5149
  225MOL0     C30967   5.349   9.839   0.327  0.4912  0.0808  0.8614
  225MOL0     C30968   5.367   9.956   0.406  0.3072  0.6122  0.4496
  225MOL0     C30969   5.464   9.953   0.506  0.0045  0.5560 -0.5371
  225MOL0     C30970   5.537   9.845   0.547  0.2048  0.2005 -0.0509
  225MOL0     O30971   5.615   9.851   0.653 -0.5485 -0.9412  0.0637
  225MOL0     C30972   5.621   9.738   0.736  0.1085  0.3557 -0.2808
  225MOL0     C30973   5.592   9.801   0.882 -0.1253 -0.0210 -0.2458
  225MOL0     C30974   5.715   9.850   0.955  0.4924 -0.3874 -0.1808
  225MOL0     C30975   5.683   9.886   1.104  0.1940 -0.2120  0.5460
  225MOL0     C30976   5.795   9.969   1.155 -0.0645  0.7338  0.4442
  225MOL0     C30977   5.886  10.030   1.207 -0.1772 -0.6444  0.6425
  225MOL0     C30978   5.514   9.726   0.470  0.1758  0.0532  0.0676
  225MOL0     C30979   5.428   9.722   0.359  0.6456 -1.2476 -0.6347
  225MOL0     C30980   5.401   9.597   0.278  0.3449  0.6095  0.2719
  225MOL0     H30981   5.034  10.094   0.085  1.2377  1.7878  0.1097
  225MOL0     H30982   4.895  10.076  -0.109  0.7030  1.1983  0.5623
  225MOL0     H30983   4.818   9.804  -0.382  0.2970  0.9980  1.6783
  225MOL0     H30984   4.991   9.796  -0.434 -0.4124 -0.9598  0.8001
  225MOL0     H30985   4.972   9.961  -0.583  0.5164  2.7246  3.5910
  225MOL0     H30986   4.823   9.853  -0.618 -1.0289 -0.5687  1.2549
  225MOL0     H30987   4.847  10.143  -0.528 -0.5612  1.7892 -3.0401
  225MOL0     H30988   4.739  10.076  -0.650 -0.8975  1.8451 -0.2417
  225MOL0     H30989   4.616   9.945  -0.482 -1.7234  0.7627  0.3652
  225MOL0     H30990   4.708  10.012  -0.351 -1.3136 -1.1152  0.7447
  225MOL0     H30991   4.539  10.171  -0.555 -1.2155 -0.1773 -0.1131
  225MOL0     H30992   4.629  10.261  -0.429 -0.0497 -0.3951  2.7111
  225MOL0     H30993   4.392  10.096  -0.377  2.9471 -1.1626 -5.8386
  225MOL0     H30994   4.515  10.127  -0.255 -0.3458 -0.6683 -0.0953
  225MOL0     H30995   4.490  10.374  -0.287  0.2081  0.0432 -2.6862
  225MOL0     H30996   4.360  10.296  -0.205  1.7475  2.4700  1.2050
  225MOL0     H30997   4.300  10.468  -0.396  0.6137  0.4152 -2.2607
  225MOL0     H30998   4.418  10.384  -0.495  2.6701  1.5465  2.3255
  225MOL0     H30999   4.334  10.145  -0.624 -1.9834 -3.0662 -0.8185
  225MOL0     H31000   3.968  10.099  -0.755  0.0779 -1.4420  0.1374
  225MOL0     H31001   4.122  10.002  -0.764 -1.7725 -1.6039 -5.2565
  225MOL0     H31002   4.090  10.274  -0.885 -0.6416 -0.6748 -0.7447
  225MOL0     H31003   4.240  10.194  -0.883  0.5980 -2.2199  2.9146
  225MOL0     H31004   4.121   9.996  -0.994 -2.5655 -0.9087 -3.0856
  225MOL0     H31005   3.977  10.097  -1.013  0.5030  1.8990  1.0091
  225MOL0     H31006   4.245  10.143  -1.161 -0.8032 -1.2929 -0.3902
  225MOL0     H31007   4.091  10.088  -1.212  0.3611 -0.7191  1.1733
  225MOL0     H31008   4.272  10.473  -1.155  0.8939 -3.9717  0.2179
  225MOL0     H31009   4.372  10.659  -1.263 -1.7649 -1.4903 -0.3079
  225MOL0     H31010   4.309  10.733  -1.405  0.6912  0.3173 -1.8945
  225MOL0     H31011   4.451  10.631  -1.428  0.4959  0.3213 -0.1354
  225MOL0     H31012   4.157  10.354  -1.955 -0.0287 -0.8960 -1.6924
  225MOL0     H31013   4.214  10.397  -2.182  1.8083 -2.4834 -0.3763
  225MOL0     H31014   4.596  10.604  -2.266 -0.2437  2.4016  0.8395
  225MOL0     H31015   4.515  10.623  -2.419 -0.0222 -1.1652  0.1698
  225MOL0     H31016   4.391  10.812  -2.249 -0.8508  1.8050 -1.4172
  225MOL0     H31017   4.567  10.840  -2.259 -0.4631  0.8366  0.6816
  225MOL0     H31018   4.360  10.844  -2.486 -0.6072  2.6537 -1.4284
  225MOL0     H31019   4.535  10.837  -2.519  0.8594 -1.0781  0.8210
  225MOL0     H31020   4.572  11.028  -2.400  1.6009 -3.5712 -0.1848
  225MOL0     H31021   4.402  11.052  -2.349 -1.7791 -1.0807  0.0607
  225MOL0     H31022   4.488  11.209  -2.515  0.2799 -1.0265  2.9687
  225MOL0     H31023   4.532  11.080  -2.621  0.5896 -0.9868  0.8775
  225MOL0     H31024   4.234  11.097  -2.525  1.3855 -0.4253  0.8383
  225MOL0     H31025   4.289  10.993  -2.641 -0.0888 -0.5153  3.9602
  225MOL0     H31026   4.337  11.118  -2.802  0.6545 -1.0159  1.1765
  225MOL0     H31027   4.347  11.270  -2.715  1.0567 -0.7933  0.4931
  225MOL0     H31028   4.092  11.097  -2.714 -1.8076 -1.4025 -3.1224
  225MOL0     H31029   4.120  11.183  -2.862 -0.8804 -4.1670 -0.5141
  225MOL0     H31030   4.544  10.626  -2.063  1.1329 -3.2632 -2.5071
  225MOL0     H31031   4.480  10.601  -1.815  0.0689  2.2254 -1.4313
  225MOL0     H31032   4.067  10.340  -1.598 -1.4480 -2.6395  1.8192
  225MOL0     H31033   3.998  10.243  -1.374  0.9412 -0.2010  1.3297
  225MOL0     H31034   5.162   9.792  -0.291  0.8406 -0.4722  0.1955
  225MOL0     H31035   5.311   9.803  -0.079 -0.7459 -2.4783  0.0522
  225MOL0     H31036   5.306  10.042   0.380  0.2525  0.2330 -0.7792
  225MOL0     H31037   5.468  10.051   0.552  0.9373 -0.9072  2.8432
  225MOL0     H31038   5.548   9.658   0.721 -0.6522  0.6506  1.5814
  225MOL0     H31039   5.718   9.688   0.730  0.3542  0.6752  0.8112
  225MOL0     H31040   5.534   9.729   0.940 -0.6977  1.1257  0.6559
  225MOL0     H31041   5.523   9.885   0.888  0.6600  0.7257 -1.2691
  225MOL0     H31042   5.791   9.771   0.951 -0.8616 -1.7544  0.3496
  225MOL0     H31043   5.756   9.934   0.899  1.9230 -2.0012 -1.6938
  225MOL0     H31044   5.667   9.790   1.154  1.4546 -0.4168  0.6067
  225MOL0     H31045   5.591   9.945   1.101  0.4194  0.1101 -0.7501
  225MOL0     H31046   5.952  10.100   1.254 -0.0779 -0.8866  0.8694
  225MOL0     H31047   5.574   9.637   0.486 -1.0516 -0.9152 -0.5487
  225MOL0     H31048   5.295   9.575   0.296 -0.7364  3.0887 -2.2052
  225MOL0     H31049   5.403   9.602   0.168 -4.0089 -0.3483 -0.0572
  225MOL0     H31050   5.468   9.526   0.327 -1.5270 -0.9066  0.7677
  226MOL0     O31051   0.853   7.021   2.500 -0.3338  0.8054  0.5738
  226MOL0     C31052   0.917   6.915   2.508  0.3460  0.6864  0.4400
  226MOL0     O31053   0.872   6.800   2.567  0.3611 -1.2961  0.1602
  226MOL0     C31054   0.752   6.815   2.642  0.1914 -0.5944 -0.3018
  226MOL0     C31055   0.756   6.871   2.770  0.4393 -0.1795  0.0663
  226MOL0     C31056   0.641   6.900   2.843  0.9096  0.1023 -0.8895
  226MOL0     C31057   0.513   6.876   2.793 -0.1172 -0.6777  0.3329
  226MOL0     O31058   0.414   6.921   2.876  0.7461  0.0041  0.1792
  226MOL0     C31059   0.276   6.933   2.820 -0.1402 -0.0252 -0.2901
  226MOL0     C31060   0.173   6.967   2.938  0.2366 -0.1984 -0.4226
  226MOL0     C31061   0.221   7.102   2.996 -0.5502 -0.2009 -0.1921
  226MOL0     C31062   0.147   7.136   3.127  0.6662  0.2015  0.3353
  226MOL0     C31063   0.017   7.213   3.084 -0.2098  0.5028 -0.4763
  226MOL0     C31064  -0.061   7.251   3.213 -0.1345 -0.2315  1.2837
  226MOL0     C31065  -0.192   7.316   3.187 -0.3922 -0.5323  0.3826
  226MOL0     C31066  -0.308   7.219   3.208  0.8038 -0.3976 -0.3033
  226MOL0     N31067  -0.332   7.115   3.109  0.3450 -0.6289  0.4674
  226MOL0     C31068  -0.290   6.987   3.112  0.4190 -0.4579  0.6454
  226MOL0     C31069  -0.340   6.931   3.001 -0.5562 -0.4089 -1.2104
  226MOL0     C31070  -0.315   6.791   2.957 -1.3425 -0.3318  0.3073
  226MOL0     C31071  -0.284   6.780   2.806  0.0771 -0.9323 -0.2732
  226MOL0     C31072  -0.205   6.648   2.787 -0.0030 -0.5621  0.2710
  226MOL0     C31073  -0.159   6.617   2.642 -0.3163 -0.6614  0.0224
  226MOL0     O31074  -0.067   6.727   2.603 -0.5596 -0.3897 -0.0220
  226MOL0     C31075   0.007   6.730   2.483 -0.4987 -0.1592  0.1507
  226MOL0     C31076   0.096   6.844   2.467 -0.1125  0.8490 -0.7907
  226MOL0     C31077   0.203   6.838   2.377  0.2170 -0.3837  0.2510
  226MOL0     C31078   0.295   6.958   2.356  0.2784  0.9051  0.0051
  226MOL0     C31079   0.216   6.722   2.298 -0.4330  0.1944  0.6438
  226MOL0     C31080   0.322   6.704   2.202  0.3352 -0.0874  0.0985
  226MOL0     O31081   0.448   6.707   2.257  0.3630 -0.3905 -0.4084
  226MOL0     C31082   0.552   6.701   2.172 -0.6121 -0.0805 -0.2762
  226MOL0     C31083   0.605   6.809   2.113  0.6579 -0.2630 -0.3549
  226MOL0     C31084   0.726   6.811   2.041 -0.3403  1.0005 -0.6385
  226MOL0     C31085   0.788   6.691   2.011 -0.2304 -0.9787  0.0686
  226MOL0     O31086   0.899   6.679   1.929  0.3145 -0.0026 -0.0738
  226MOL0     C31087   1.012   6.751   1.984  0.0534 -0.6759 -0.2482
  226MOL0     C31088   1.122   6.767   1.881 -0.4398 -0.0487 -0.1113
  226MOL0     C31089   1.252   6.846   1.939  0.1652 -0.3111  0.3010
  226MOL0     C31090   1.345   6.828   1.820  0.3399  0.1561  0.2848
  226MOL0     C31091   1.477   6.903   1.844 -0.9483 -0.4144 -0.8670
  226MOL0     C31092   1.487   7.061   1.850 -0.2489 -0.9559  0.1617
  226MOL0     C31093   1.432   7.145   1.734  1.2760 -0.1422 -0.0177
  226MOL0     C31094   1.492   7.121   1.595 -0.3779  0.5467 -0.8816
  226MOL0    Cl31095   1.669   7.155   1.577  0.0239 -0.1824  0.3434
  226MOL0     C31096   0.729   6.576   2.062  0.2638  0.9344 -0.9557
  226MOL0     C31097   0.608   6.575   2.141 -0.8780  0.1448 -0.7769
  226MOL0     O31098   0.300   6.687   2.085  0.7770 -0.2987 -0.5261
  226MOL0     C31099   0.122   6.618   2.314 -0.3174 -0.7765  1.0831
  226MOL0     C31100   0.027   6.618   2.408  0.2852 -0.7112  0.6109
  226MOL0     N31101  -0.413   7.023   2.930 -0.1879 -0.2667 -0.1614
  226MOL0     N31102  -0.410   7.136   2.996 -0.6424 -0.3138  0.2220
  226MOL0     C31103   0.506   6.825   2.661 -0.1528 -0.5424 -0.4374
  226MOL0     C31104   0.623   6.786   2.597  0.1324 -0.0370 -0.1258
  226MOL0     C31105   1.061   6.931   2.473 -1.2352  0.0933 -0.3835
  226MOL0     C31106   1.128   7.042   2.517  0.4231  0.0061 -0.0399
  226MOL0     C31107   1.249   7.074   2.467 -0.7873 -0.5923 -0.4266
  226MOL0     C31108   1.320   6.983   2.393  0.7069 -0.0714 -0.0004
  226MOL0     O31109   1.443   7.019   2.346 -0.4573 -0.1911 -0.1100
  226MOL0     C31110   1.547   7.039   2.444  0.2422  0.0303 -0.4706
  226MOL0     C31111   1.688   7.049   2.378 -0.0359 -0.1752 -0.6982
  226MOL0     C31112   1.753   6.911   2.326 -0.8225 -0.1559 -0.4411
  226MOL0     C31113   1.857   6.922   2.212  0.8014 -1.1705  0.0867
  226MOL0     C31114   1.952   7.033   2.235 -0.4339 -0.0649 -0.3991
  226MOL0     C31115   2.021   7.127   2.267  0.3990  0.0503  1.5891
  226MOL0     C31116   1.258   6.861   2.345 -0.2723  0.0170  0.5419
  226MOL0     C31117   1.128   6.833   2.392 -0.6663  0.1106 -0.6155
  226MOL0     C31118   1.057   6.718   2.343  0.6321  0.1223 -0.0595
  226MOL0     H31119   0.850   6.906   2.811 -0.8556  2.8290  0.7351
  226MOL0     H31120   0.644   6.939   2.945 -0.1091 -1.5370 -0.1934
  226MOL0     H31121   0.249   6.837   2.777  0.1074 -1.7901  3.1363
  226MOL0     H31122   0.273   7.015   2.747 -0.2215  1.0524  0.8803
  226MOL0     H31123   0.071   6.989   2.907  1.2632  2.5766 -2.2359
  226MOL0     H31124   0.182   6.884   3.009  1.9957  1.5977  1.5885
  226MOL0     H31125   0.327   7.088   3.017 -0.5556 -0.2827 -0.2214
  226MOL0     H31126   0.216   7.178   2.917 -3.2931  1.9309  1.8456
  226MOL0     H31127   0.126   7.046   3.186 -0.5438 -0.2803 -0.7683
  226MOL0     H31128   0.209   7.203   3.187  0.1792  1.3656 -0.4299
  226MOL0     H31129  -0.049   7.157   3.017 -3.2869 -1.3448  3.6614
  226MOL0     H31130   0.056   7.301   3.033  2.9620 -0.3275  0.2737
  226MOL0     H31131  -0.074   7.153   3.261  1.9078 -0.2644  1.8869
  226MOL0     H31132  -0.003   7.309   3.285  1.2773  0.2208 -0.1590
  226MOL0     H31133  -0.197   7.363   3.088  2.1285 -0.9617 -0.0303
  226MOL0     H31134  -0.195   7.394   3.263 -3.3055 -0.5860  0.4004
  226MOL0     H31135  -0.302   7.173   3.308 -0.1897  1.8962  0.8749
  226MOL0     H31136  -0.397   7.282   3.211  2.2314  1.9060 -2.7550
  226MOL0     H31137  -0.223   6.946   3.187 -0.3603  1.7082  2.6698
  226MOL0     H31138  -0.406   6.734   2.979 -3.7304  3.2414  0.5019
  226MOL0     H31139  -0.229   6.751   3.011 -0.9272  2.6080  2.0497
  226MOL0     H31140  -0.367   6.792   2.736  1.0928  1.6869 -1.1379
  226MOL0     H31141  -0.213   6.860   2.785  0.0866 -0.6228  0.8605
  226MOL0     H31142  -0.108   6.663   2.833  0.5991  0.3865 -1.2097
  226MOL0     H31143  -0.267   6.569   2.829 -0.1311 -0.2171  0.7354
  226MOL0     H31144  -0.091   6.534   2.664 -0.1890 -0.5804 -0.0649
  226MOL0     H31145  -0.232   6.605   2.562  1.2325 -1.1852 -1.3833
  226MOL0     H31146   0.081   6.929   2.533  2.6439 -0.5913  1.9080
  226MOL0     H31147   0.263   7.043   2.417 -2.9730 -1.9022  2.5981
  226MOL0     H31148   0.312   6.979   2.250 -0.3470 -0.6181 -0.4137
  226MOL0     H31149   0.392   6.920   2.389 -0.2437  0.1125  0.6715
  226MOL0     H31150   0.572   6.910   2.133  1.2237  0.1074 -1.2540
  226MOL0     H31151   0.769   6.903   2.003  2.0927 -0.1491 -0.7867
  226MOL0     H31152   0.989   6.851   2.023  1.0180 -1.0234  1.2689
  226MOL0     H31153   1.042   6.699   2.075  1.2691  3.1737  1.7840
  226MOL0     H31154   1.153   6.665   1.856  0.9777 -0.1473  1.8241
  226MOL0     H31155   1.081   6.822   1.796 -1.3646 -0.2698  0.1749
  226MOL0     H31156   1.284   6.791   2.028 -1.9782 -0.3281  1.1400
  226MOL0     H31157   1.240   6.952   1.959 -0.3232 -0.1927 -0.5734
  226MOL0     H31158   1.296   6.872   1.733 -1.9998  0.8987  1.8933
  226MOL0     H31159   1.357   6.719   1.818  0.9490 -0.0570  4.8296
  226MOL0     H31160   1.512   6.859   1.938  0.2354  1.2391 -0.4877
  226MOL0     H31161   1.547   6.876   1.765 -2.3693  2.3308 -3.2781
  226MOL0     H31162   1.592   7.091   1.857 -0.4442  0.0704 -1.0865
  226MOL0     H31163   1.435   7.097   1.940 -0.4274 -1.1024  0.1180
  226MOL0     H31164   1.441   7.253   1.748  2.7491 -0.2586  0.0744
  226MOL0     H31165   1.327   7.116   1.720  1.0631 -0.6181  2.1939
  226MOL0     H31166   1.434   7.185   1.528 -1.3985 -0.2915 -0.8164
  226MOL0     H31167   1.485   7.016   1.566  1.7667  0.7376 -2.3469
  226MOL0     H31168   0.785   6.485   2.043 -0.4694 -0.7539  3.6097
  226MOL0     H31169   0.567   6.489   2.192  1.4062 -0.2263  0.5610
  226MOL0     H31170   0.127   6.534   2.246  0.1718  1.1469 -1.4160
  226MOL0     H31171  -0.019   6.520   2.418 -1.4864 -0.0582 -0.5338
  226MOL0     H31172   0.413   6.795   2.611  1.1998 -1.1175 -2.7753
  226MOL0     H31173   0.607   6.741   2.499 -2.2447  1.7180 -0.6252
  226MOL0     H31174   1.068   7.113   2.574  1.5857  0.6286  0.4640
  226MOL0     H31175   1.293   7.168   2.499  1.5894 -2.2375  1.4834
  226MOL0     H31176   1.538   7.137   2.494 -1.0612 -0.2239 -0.1681
  226MOL0     H31177   1.534   6.958   2.516 -1.6139 -0.6189 -1.4886
  226MOL0     H31178   1.762   7.101   2.440 -0.6978  1.3161 -1.1280
  226MOL0     H31179   1.678   7.121   2.297  0.2163 -3.4000 -3.8397
  226MOL0     H31180   1.791   6.863   2.417 -0.1742 -0.0196 -0.6342
  226MOL0     H31181   1.674   6.854   2.277  0.3301 -1.7131 -0.5750
  226MOL0     H31182   1.812   6.933   2.113 -1.2089 -1.0993  0.9510
  226MOL0     H31183   1.912   6.828   2.205 -0.4523 -1.7804 -2.8693
  226MOL0     H31184   2.072   7.220   2.278 -0.6742  1.1646 -1.6701
  226MOL0     H31185   1.316   6.797   2.280 -0.3264 -1.4135  1.8472
  226MOL0     H31186   0.980   6.767   2.282  1.8884 -1.0423 -2.7651
  226MOL0     H31187   1.132   6.671   2.279  0.6179 -2.2160  1.5201
  226MOL0     H31188   1.012   6.653   2.419  2.2468  0.3038  1.0952
  227MOL0     O31189   3.631  10.173   4.390  0.6350 -1.3628 -1.4319
  227MOL0     C31190   3.703  10.081   4.356 -0.5048  0.5370  0.5445
  227MOL0     O31191   3.730  10.034   4.229  0.0349  0.2332 -0.2295
  227MOL0     C31192   3.681  10.097   4.119 -0.4069 -0.5284 -0.0131
  227MOL0     C31193   3.731  10.218   4.075 -0.1494  0.4875 -0.1957
  227MOL0     C31194   3.673  10.290   3.962 -0.4914 -0.7054  0.3197
  227MOL0     C31195   3.562  10.237   3.896 -0.0398  0.1810 -0.7783
  227MOL0     O31196   3.519  10.297   3.783 -0.1446 -0.2424 -0.0201
  227MOL0     C31197   3.592  10.248   3.667 -0.3157 -0.2961  1.0484
  227MOL0     C31198   3.584  10.346   3.548 -0.3291 -0.0651 -0.7464
  227MOL0     C31199   3.660  10.274   3.436 -0.2673  0.9242  0.8277
  227MOL0     C31200   3.643  10.336   3.291  0.5421  1.0931 -0.8992
  227MOL0     C31201   3.742  10.450   3.260 -1.3410 -0.6809  0.4647
  227MOL0     C31202   3.680  10.585   3.282 -0.6338 -0.0973  0.3002
  227MOL0     C31203   3.765  10.694   3.223 -0.2575 -0.0558 -0.1370
  227MOL0     C31204   3.735  10.842   3.252  1.2075 -0.3273 -0.4790
  227MOL0     N31205   3.734  10.874   3.397  0.3633  1.0512  0.4638
  227MOL0     C31206   3.839  10.830   3.479 -0.6369 -0.4168  0.5435
  227MOL0     C31207   3.800  10.850   3.602  0.5440 -0.4708 -0.0278
  227MOL0     C31208   3.879  10.842   3.734 -1.1401  0.9771 -0.2715
  227MOL0     C31209   3.891  10.705   3.796 -0.0833  0.5987  0.2475
  227MOL0     C31210   3.946  10.723   3.936 -0.0879  0.6826  0.2518
  227MOL0     C31211   3.988  10.593   4.003  0.9734 -0.1176  0.6577
  227MOL0     O31212   3.886  10.543   4.097  0.7990 -0.6700  1.1372
  227MOL0     C31213   3.855  10.603   4.213  0.0464  0.3530  0.0461
  227MOL0     C31214   3.940  10.684   4.278 -0.6948  0.1607 -0.1800
  227MOL0     C31215   3.901  10.743   4.405 -0.6173 -0.5855  0.3082
  227MOL0     C31216   4.015  10.817   4.477 -0.5735  0.3684 -0.4002
  227MOL0     C31217   3.780  10.708   4.470 -0.2125 -0.4844  0.1769
  227MOL0     C31218   3.736  10.752   4.606  0.0485 -0.1856 -0.6462
  227MOL0     O31219   3.728  10.881   4.639 -0.9054 -0.5116 -0.0270
  227MOL0     C31220   3.724  10.906   4.778  0.8809  0.4531 -0.0828
  227MOL0     C31221   3.595  10.907   4.844 -0.7202  0.0297  0.0663
  227MOL0     C31222   3.583  10.951   4.975 -0.7740 -0.0235 -0.9965
  227MOL0     C31223   3.697  10.975   5.058 -0.7849  0.2492  0.1874
  227MOL0     O31224   3.668  10.990   5.192 -0.0898 -0.1122  0.5445
  227MOL0     C31225   3.774  10.981   5.284 -0.3522 -0.3243  0.0287
  227MOL0     C31226   3.729  11.019   5.422 -0.0241 -0.7475 -0.0415
  227MOL0     C31227   3.854  11.029   5.519 -0.0096 -0.3488  0.6819
  227MOL0     C31228   3.788  11.056   5.654  0.5874  0.6043  0.0725
  227MOL0     C31229   3.879  11.077   5.778  0.9810 -0.4612  0.6478
  227MOL0     C31230   3.972  11.201   5.771 -0.1541 -0.4385 -0.9042
  227MOL0     C31231   4.054  11.216   5.901  0.5907 -0.9312  0.1453
  227MOL0     C31232   4.162  11.324   5.885 -0.9051  0.6487 -0.5554
  227MOL0    Cl31233   4.108  11.489   5.827 -0.1208  0.1680 -0.4142
  227MOL0     C31234   3.829  10.960   4.998  0.3610  0.4962  0.4896
  227MOL0     C31235   3.835  10.926   4.867  0.2095  1.1020  0.1368
  227MOL0     O31236   3.695  10.664   4.675  0.8991  0.0169 -0.1515
  227MOL0     C31237   3.698  10.616   4.402 -0.2225  0.0438 -0.0151
  227MOL0     C31238   3.736  10.569   4.278 -0.4669 -0.1321  0.2261
  227MOL0     N31239   3.674  10.896   3.604  0.2415 -0.4290 -0.2487
  227MOL0     N31240   3.627  10.898   3.485 -0.8431 -0.1443  0.3275
  227MOL0     C31241   3.495  10.122   3.954  1.1727 -0.4257 -0.0085
  227MOL0     C31242   3.559  10.053   4.062 -0.7338  0.1690  0.1539
  227MOL0     C31243   3.790  10.021   4.466 -0.4512  0.0164  0.4754
  227MOL0     C31244   3.901   9.942   4.435  0.2051 -0.4374 -0.1564
  227MOL0     C31245   3.979   9.877   4.530  0.4984 -0.7039  0.4744
  227MOL0     C31246   3.954   9.875   4.660 -0.6117 -0.4171 -0.3122
  227MOL0     O31247   4.033   9.829   4.764 -0.0309  0.2886  0.5348
  227MOL0     C31248   4.129   9.723   4.733 -0.2735 -0.3694 -0.6238
  227MOL0     C31249   4.052   9.592   4.706  1.3551 -1.2049 -0.9919
  227MOL0     C31250   4.121   9.473   4.634  0.7041 -1.5928  0.0332
  227MOL0     C31251   4.022   9.362   4.610  1.4059 -0.2645 -1.0725
  227MOL0     C31252   4.070   9.257   4.524  0.0957 -0.5143 -0.9819
  227MOL0     C31253   4.108   9.176   4.442  0.2552 -0.6535  0.5614
  227MOL0     C31254   3.845   9.952   4.694  0.1421 -0.8095 -0.1202
  227MOL0     C31255   3.763  10.027   4.603 -0.3633 -1.0978 -0.5693
  227MOL0     C31256   3.659  10.108   4.682  1.5661  0.5052 -0.1577
  227MOL0     H31257   3.818  10.262   4.123 -1.0436  0.6386  1.3635
  227MOL0     H31258   3.723  10.377   3.920  0.9572 -0.3034  2.6647
  227MOL0     H31259   3.547  10.153   3.637 -1.2360  0.0392  1.3342
  227MOL0     H31260   3.695  10.217   3.688  0.0083 -2.7777 -3.1039
  227MOL0     H31261   3.480  10.371   3.523 -0.3281  1.2940  0.5188
  227MOL0     H31262   3.637  10.440   3.566 -1.1918  0.7549 -2.2283
  227MOL0     H31263   3.768  10.270   3.454  0.0475  2.4730 -0.4655
  227MOL0     H31264   3.644  10.166   3.427  2.0634  0.2280  3.6764
  227MOL0     H31265   3.677  10.258   3.223 -1.2284 -1.0706  0.5450
  227MOL0     H31266   3.540  10.346   3.254 -0.7801 -0.3694  2.0524
  227MOL0     H31267   3.771  10.446   3.155  0.9428 -1.8010  1.0922
  227MOL0     H31268   3.834  10.436   3.317 -0.2922  2.2678 -0.3161
  227MOL0     H31269   3.576  10.586   3.249 -1.2266  2.6346  1.9681
  227MOL0     H31270   3.666  10.596   3.390 -1.1455 -2.1187  0.4732
  227MOL0     H31271   3.779  10.676   3.116  4.0936  1.7145 -0.0648
  227MOL0     H31272   3.864  10.687   3.269 -0.6673 -0.4618  0.7041
  227MOL0     H31273   3.815  10.897   3.202  2.4797 -1.5957  0.0858
  227MOL0     H31274   3.633  10.858   3.215  1.5846 -0.9119 -1.8327
  227MOL0     H31275   3.941  10.820   3.443  0.3917  2.2666  2.3516
  227MOL0     H31276   3.829  10.910   3.804 -3.3210  2.2652 -2.8506
  227MOL0     H31277   3.978  10.881   3.712 -0.1503 -0.3882  1.5081
  227MOL0     H31278   3.793  10.655   3.790 -1.9033  3.7299  1.6255
  227MOL0     H31279   3.956  10.650   3.727  0.2860  1.8803 -0.4609
  227MOL0     H31280   4.027  10.796   3.941  0.6888 -0.2053  1.0086
  227MOL0     H31281   3.862  10.765   3.992 -0.3897 -0.9884  1.1238
  227MOL0     H31282   3.991  10.524   3.918 -2.6634 -1.4035  1.3823
  227MOL0     H31283   4.082  10.606   4.058 -0.3030 -0.4016  3.0528
  227MOL0     H31284   4.041  10.698   4.240 -1.3790  2.3067 -1.3182
  227MOL0     H31285   4.020  10.785   4.581  1.4289 -0.4124 -0.7005
  227MOL0     H31286   4.010  10.926   4.472  4.5584  0.9285  1.2914
  227MOL0     H31287   4.110  10.789   4.430  0.6121 -0.9336  2.5235
  227MOL0     H31288   3.502  10.905   4.788 -0.2564  2.7119 -0.9881
  227MOL0     H31289   3.487  10.939   5.024 -1.5020  1.2557 -2.0405
  227MOL0     H31290   3.818  10.881   5.284  2.0810  0.6704 -0.2557
  227MOL0     H31291   3.844  11.058   5.251  1.2414 -2.4931 -1.9649
  227MOL0     H31292   3.681  11.117   5.413 -2.9474 -2.1644 -1.1419
  227MOL0     H31293   3.664  10.944   5.469  0.7973 -1.2836  0.2642
  227MOL0     H31294   3.928  11.099   5.479 -1.1517  0.1081 -0.7126
  227MOL0     H31295   3.904  10.932   5.528  0.5198 -0.4528 -2.4193
  227MOL0     H31296   3.725  10.967   5.658  0.7873  0.3766 -1.2774
  227MOL0     H31297   3.717  11.139   5.648 -2.6910 -1.9255  0.6540
  227MOL0     H31298   3.811  11.091   5.862  0.5054  1.1456  0.0127
  227MOL0     H31299   3.935  10.983   5.791 -0.5064 -1.4556  0.1353
  227MOL0     H31300   3.923  11.299   5.765  1.0976  0.2732  0.0239
  227MOL0     H31301   4.033  11.195   5.681  0.4954 -1.3115 -0.4207
  227MOL0     H31302   4.099  11.119   5.925  2.2559  0.3152  2.3758
  227MOL0     H31303   3.985  11.243   5.982  0.0157 -1.4045 -0.1733
  227MOL0     H31304   4.225  11.281   5.807  0.3518 -0.8580  1.2207
  227MOL0     H31305   4.212  11.334   5.981 -1.4813 -1.0913 -0.0394
  227MOL0     H31306   3.923  10.984   5.047  0.1155  2.3170  0.1365
  227MOL0     H31307   3.935  10.929   4.825  1.1943 -1.3543  2.0675
  227MOL0     H31308   3.602  10.588   4.445  0.0891 -3.3894 -1.2485
  227MOL0     H31309   3.663  10.502   4.233 -3.5416  0.8943  3.2468
  227MOL0     H31310   3.404  10.087   3.907  1.6396  0.7107 -1.8782
  227MOL0     H31311   3.513   9.965   4.106 -0.1471  0.3800  1.2344
  227MOL0     H31312   3.935   9.940   4.332 -1.5074 -1.0742 -0.7470
  227MOL0     H31313   4.073   9.848   4.485  0.4529 -1.6764  0.9697
  227MOL0     H31314   4.189   9.764   4.651 -0.2381  1.1919  0.1507
  227MOL0     H31315   4.190   9.699   4.820 -0.8090  0.5980  0.0324
  227MOL0     H31316   3.962   9.626   4.653  2.1368  2.7088 -0.0737
  227MOL0     H31317   4.027   9.550   4.803  4.7273 -0.3901  0.3584
  227MOL0     H31318   4.163   9.500   4.537 -1.9429 -1.4573 -1.1612
  227MOL0     H31319   4.206   9.437   4.693  2.0181  1.6267  0.2867
  227MOL0     H31320   3.929   9.406   4.572  2.0525  2.5169  0.2844
  227MOL0     H31321   4.003   9.322   4.710 -0.2549  2.8029 -0.0050
  227MOL0     H31322   4.148   9.110   4.368 -1.3372 -0.6428 -0.3676
  227MOL0     H31323   3.825   9.944   4.800 -3.1770  3.0982 -0.2047
  227MOL0     H31324   3.567  10.051   4.693  3.7601 -3.5103 -0.5802
  227MOL0     H31325   3.687  10.118   4.787 -1.2576  0.4580  0.6759
  227MOL0     H31326   3.649  10.206   4.635 -1.0722  0.8048  0.8593
  228MOL0     O31327   1.284   0.521   1.798  0.3224  0.4554  0.4219
  228MOL0     C31328   1.308   0.639   1.804 -0.5603 -0.8949  0.6738
  228MOL0     O31329   1.356   0.708   1.913 -0.8509  0.5449 -0.2654
  228MOL0     C31330   1.370   0.650   2.040  0.6094 -0.3110  0.3717
  228MOL0     C31331   1.474   0.685   2.125  0.3429 -0.0880  0.3967
  228MOL0     C31332   1.478   0.636   2.256 -0.0470 -1.5311 -0.2188
  228MOL0     C31333   1.387   0.552   2.313 -0.3432  0.4063  0.5216
  228MOL0     O31334   1.393   0.498   2.437  0.7727 -0.3425  0.3340
  228MOL0     C31335   1.484   0.561   2.531  0.6080  0.3256 -0.1471
  228MOL0     C31336   1.394   0.588   2.657  0.2589  0.5697 -0.3493
  228MOL0     C31337   1.463   0.661   2.770 -0.4196  0.5885  0.8288
  228MOL0     C31338   1.375   0.651   2.895 -0.2376 -0.5498 -0.5576
  228MOL0     C31339   1.403   0.765   2.992 -0.1578  0.0366  0.0918
  228MOL0     C31340   1.543   0.779   3.050 -0.2382 -0.6567 -0.3271
  228MOL0     C31341   1.556   0.889   3.163  0.6862 -0.0159 -0.3281
  228MOL0     C31342   1.457   0.856   3.267  0.7998 -0.0601  0.5668
  228MOL0     N31343   1.466   0.961   3.370  0.8052  0.7651  0.2202
  228MOL0     C31344   1.420   1.086   3.344 -0.8683  0.6810 -0.4633
  228MOL0     C31345   1.504   1.162   3.426  0.8141 -0.1535  0.2718
  228MOL0     C31346   1.516   1.318   3.438  1.0389  0.1167 -0.6584
  228MOL0     C31347   1.408   1.399   3.500 -0.1356  0.8453 -0.8957
  228MOL0     C31348   1.262   1.391   3.439 -0.7541 -0.2771  0.2660
  228MOL0     C31349   1.258   1.401   3.277  0.9388  0.2625 -1.4643
  228MOL0     O31350   1.337   1.507   3.228  0.2641  0.0519  0.4607
  228MOL0     C31351   1.291   1.633   3.263  0.5755  0.1488  0.2960
  228MOL0     C31352   1.379   1.742   3.291 -0.5025 -0.4727 -0.4681
  228MOL0     C31353   1.339   1.877   3.287  0.1470  0.3954 -0.2066
  228MOL0     C31354   1.451   1.977   3.308 -0.0846 -0.1195  0.1055
  228MOL0     C31355   1.201   1.907   3.278 -0.8862 -0.0965 -0.0749
  228MOL0     C31356   1.153   2.043   3.297  0.2200  0.3901 -0.3982
  228MOL0     O31357   1.230   2.143   3.345  0.0321  0.5130 -0.2089
  228MOL0     C31358   1.168   2.259   3.381  0.0327 -0.0574  1.0969
  228MOL0     C31359   1.148   2.353   3.282  0.3736 -0.5530  1.5520
  228MOL0     C31360   1.127   2.482   3.300  0.0813  0.2344  0.5472
  228MOL0     C31361   1.117   2.536   3.434  1.2533  0.2002  0.1920
  228MOL0     O31362   1.109   2.667   3.479 -0.3543 -0.1593  0.0645
  228MOL0     C31363   1.051   2.756   3.378 -0.2926  0.2926 -0.4105
  228MOL0     C31364   0.906   2.721   3.346  0.0918  0.0315  0.1304
  228MOL0     C31365   0.852   2.811   3.228 -0.2293  0.2408  0.1561
  228MOL0     C31366   0.702   2.832   3.265  0.2726  0.2346  0.2729
  228MOL0     C31367   0.626   2.926   3.169 -0.3449  0.5765 -0.1547
  228MOL0     C31368   0.670   3.077   3.178 -0.0481  1.2040  0.0605
  228MOL0     C31369   0.667   3.153   3.310  0.5412  0.0290 -0.2111
  228MOL0     C31370   0.796   3.241   3.333  0.0439  0.8287  0.4789
  228MOL0    Cl31371   0.934   3.128   3.386 -0.0746 -0.0549 -0.1464
  228MOL0     C31372   1.134   2.443   3.535 -0.3897 -0.8896  0.0699
  228MOL0     C31373   1.165   2.311   3.517 -0.5398 -0.2652  1.2521
  228MOL0     O31374   1.037   2.061   3.268  0.8336  0.8702  0.0515
  228MOL0     C31375   1.109   1.800   3.271 -0.0560  0.8979  0.7253
  228MOL0     C31376   1.158   1.669   3.262  0.5415 -0.3144  0.7710
  228MOL0     N31377   1.571   1.072   3.509 -0.3846 -0.0265  0.3989
  228MOL0     N31378   1.546   0.957   3.482  0.5518  0.3052  0.4201
  228MOL0     C31379   1.288   0.507   2.226  0.8574 -0.2058 -0.0104
  228MOL0     C31380   1.281   0.559   2.098  0.4075  0.5601 -0.2797
  228MOL0     C31381   1.262   0.726   1.693  0.6203 -0.8436  0.5605
  228MOL0     C31382   1.138   0.693   1.629 -0.0307 -0.1096  1.0545
  228MOL0     C31383   1.082   0.784   1.538  0.0980 -0.0526  0.7414
  228MOL0     C31384   1.149   0.896   1.499  0.0679 -0.4516  0.4638
  228MOL0     O31385   1.091   0.987   1.407 -0.4072  0.5641 -0.1982
  228MOL0     C31386   1.092   0.948   1.272 -0.3597  0.7512 -0.7690
  228MOL0     C31387   1.234   0.972   1.208 -0.0715 -0.3762 -0.6404
  228MOL0     C31388   1.232   0.975   1.063  0.2202 -0.4234  0.5872
  228MOL0     C31389   1.156   1.097   1.002 -0.4852 -0.1443 -0.0674
  228MOL0     C31390   1.066   1.052   0.899 -0.3260  0.1099  0.3114
  228MOL0     C31391   0.994   1.019   0.813  0.1736 -0.5182  0.6919
  228MOL0     C31392   1.274   0.917   1.544 -0.5975 -0.0422 -0.0547
  228MOL0     C31393   1.331   0.838   1.647 -0.6676  0.3241 -0.4791
  228MOL0     C31394   1.462   0.888   1.706  0.5305 -1.0554  0.3636
  228MOL0     H31395   1.550   0.745   2.076 -0.6531 -0.7260 -2.0356
  228MOL0     H31396   1.568   0.671   2.306  0.2110  0.7462 -2.1152
  228MOL0     H31397   1.511   0.665   2.509 -1.5885  2.1479  4.3764
  228MOL0     H31398   1.558   0.484   2.552  1.0256  0.8769  0.4530
  228MOL0     H31399   1.317   0.654   2.616 -1.5084 -0.8143  0.6061
  228MOL0     H31400   1.365   0.486   2.682 -1.2536 -0.1228 -4.1841
  228MOL0     H31401   1.562   0.622   2.795 -0.6036  0.4467  1.3523
  228MOL0     H31402   1.480   0.767   2.748  5.0115 -0.2915 -0.6353
  228MOL0     H31403   1.271   0.678   2.872  0.4128  0.7173 -2.2111
  228MOL0     H31404   1.391   0.552   2.938 -2.2897 -0.4103  0.6468
  228MOL0     H31405   1.327   0.746   3.068  0.4068 -1.5310  0.2897
  228MOL0     H31406   1.373   0.858   2.943 -1.1409  0.6616  1.8276
  228MOL0     H31407   1.567   0.683   3.096  1.0288 -0.5344 -0.6982
  228MOL0     H31408   1.614   0.811   2.974 -2.6184  1.1336 -1.9648
  228MOL0     H31409   1.538   0.993   3.132  1.9020  0.2132 -0.3106
  228MOL0     H31410   1.650   0.882   3.218 -0.2452  1.4911  1.5740
  228MOL0     H31411   1.357   0.872   3.227  0.6158  1.5414  1.5536
  228MOL0     H31412   1.453   0.754   3.305 -0.3307 -0.0414  0.5257
  228MOL0     H31413   1.353   1.113   3.263 -1.0506  2.0000  0.0946
  228MOL0     H31414   1.528   1.349   3.333  2.4722 -1.0996 -0.8971
  228MOL0     H31415   1.614   1.339   3.482  1.4140  1.4933 -2.0423
  228MOL0     H31416   1.400   1.355   3.600  0.5618  1.1031 -0.7242
  228MOL0     H31417   1.446   1.501   3.506  2.4907 -0.0430 -1.0836
  228MOL0     H31418   1.206   1.302   3.470 -1.7145  0.7077  1.4683
  228MOL0     H31419   1.197   1.472   3.472 -1.6727 -0.5122 -0.8917
  228MOL0     H31420   1.282   1.304   3.233 -0.2389 -0.0688 -1.4073
  228MOL0     H31421   1.152   1.413   3.257 -0.1083 -0.6346  2.6827
  228MOL0     H31422   1.478   1.708   3.321  0.3518  1.4000 -1.0127
  228MOL0     H31423   1.432   2.015   3.408  2.3670 -1.1755  1.0748
  228MOL0     H31424   1.436   2.058   3.235 -1.3775 -0.8333 -0.4501
  228MOL0     H31425   1.554   1.939   3.299  0.5760  1.8095 -1.0985
  228MOL0     H31426   1.149   2.331   3.176  1.8446 -2.2422  1.8653
  228MOL0     H31427   1.098   2.538   3.212  1.1932 -1.0587 -0.6851
  228MOL0     H31428   1.065   2.859   3.410  0.4464 -0.0378  0.3497
  228MOL0     H31429   1.095   2.742   3.279 -0.2645 -4.3572  0.0397
  228MOL0     H31430   0.902   2.619   3.307  2.9538  0.0725 -0.5382
  228MOL0     H31431   0.847   2.736   3.437  3.5568  0.5431  2.5074
  228MOL0     H31432   0.860   2.755   3.134 -1.7861  1.4248 -0.7332
  228MOL0     H31433   0.908   2.904   3.232 -4.6289  3.1891  2.3977
  228MOL0     H31434   0.679   2.865   3.367 -2.9921 -2.2306  0.5000
  228MOL0     H31435   0.649   2.737   3.255 -1.2312  0.8771  1.7434
  228MOL0     H31436   0.649   2.893   3.068  0.7965  0.4875  0.1187
  228MOL0     H31437   0.520   2.910   3.191 -0.1723 -1.5779 -0.7111
  228MOL0     H31438   0.638   3.128   3.087  0.1662  0.7105 -0.3043
  228MOL0     H31439   0.773   3.075   3.139 -0.1642 -3.8190 -0.7607
  228MOL0     H31440   0.661   3.089   3.399  1.2402 -0.2890 -0.3825
  228MOL0     H31441   0.574   3.210   3.319  0.6377 -0.0018  1.3628
  228MOL0     H31442   0.778   3.313   3.413 -2.3776 -1.5071  2.1885
  228MOL0     H31443   0.831   3.290   3.242  0.7458 -0.1271  0.2130
  228MOL0     H31444   1.131   2.476   3.638  1.1224  0.6701 -0.3269
  228MOL0     H31445   1.191   2.264   3.611  0.2747  0.7158  1.5289
  228MOL0     H31446   1.003   1.822   3.283 -0.1424  1.8370 -1.3963
  228MOL0     H31447   1.085   1.589   3.255  1.9164 -1.5210 -0.3241
  228MOL0     H31448   1.213   0.444   2.273  0.9191  0.7795  1.4757
  228MOL0     H31449   1.189   0.537   2.044  0.7663  0.4428 -0.8434
  228MOL0     H31450   1.096   0.594   1.647 -0.6852  0.2648  1.6152
  228MOL0     H31451   0.997   0.770   1.471 -0.9196 -1.1726  2.1979
  228MOL0     H31452   1.066   0.842   1.270  2.1368 -0.0138  1.5566
  228MOL0     H31453   1.019   1.014   1.225  2.0345  1.9786 -3.0180
  228MOL0     H31454   1.296   0.894   1.253  1.7869  0.8955 -0.8880
  228MOL0     H31455   1.277   1.069   1.234  5.8675 -2.3845 -1.3411
  228MOL0     H31456   1.336   0.982   1.028  0.4485  3.1980  1.6303
  228MOL0     H31457   1.192   0.879   1.031 -1.7708  1.1411 -1.9595
  228MOL0     H31458   1.225   1.173   0.965  1.0177 -0.6260  1.6020
  228MOL0     H31459   1.101   1.140   1.086 -0.2408 -1.5819  0.8517
  228MOL0     H31460   0.940   1.001   0.722 -1.0567  1.9031  0.8633
  228MOL0     H31461   1.330   1.005   1.515 -1.1785  0.5937  0.7000
  228MOL0     H31462   1.511   0.966   1.648 -0.7216 -0.7743 -0.3479
  228MOL0     H31463   1.440   0.928   1.806  0.5096 -1.1245  0.3865
  228MOL0     H31464   1.528   0.803   1.725  3.8193  1.7460  2.9901
  229MOL0     O31465   8.645   3.869   1.384  0.0304  0.4735  0.1055
  229MOL0     C31466   8.652   3.985   1.345 -0.3150  0.2155 -0.4556
  229MOL0     O31467   8.620   4.092   1.407 -0.3527  0.5315  0.2214
  229MOL0     C31468   8.565   4.085   1.531 -0.1859 -0.2419  0.6875
  229MOL0     C31469   8.427   4.080   1.543 -0.6000 -0.4235 -0.3828
  229MOL0     C31470   8.366   4.042   1.660  0.8028 -0.5374  0.3865
  229MOL0     C31471   8.443   4.042   1.776  1.0818 -0.3780 -0.2406
  229MOL0     O31472   8.399   4.014   1.906  0.1535  0.2498 -0.0829
  229MOL0     C31473   8.278   3.955   1.918 -0.0023 -1.0445 -0.6423
  229MOL0     C31474   8.259   3.903   2.057  0.5745  0.3477 -0.4533
  229MOL0     C31475   8.329   3.763   2.086  0.4287 -0.6096 -0.9442
  229MOL0     C31476   8.305   3.707   2.235 -0.9259  0.2251  0.1513
  229MOL0     C31477   8.378   3.568   2.257 -0.6837 -0.2605  0.5899
  229MOL0     C31478   8.360   3.509   2.395 -0.7058  0.4699 -1.0157
  229MOL0     C31479   8.444   3.380   2.397  0.5411 -0.8299 -0.4469
  229MOL0     C31480   8.471   3.323   2.537 -0.1760  0.2494  0.8268
  229MOL0     N31481   8.542   3.195   2.522 -0.5068 -0.5299 -0.0204
  229MOL0     C31482   8.642   3.166   2.434  0.3510  0.1718  0.2625
  229MOL0     C31483   8.661   3.039   2.461 -0.5775  0.6910  0.0205
  229MOL0     C31484   8.769   2.974   2.387  0.2459 -0.0187  0.1766
  229MOL0     C31485   8.902   2.940   2.466  0.6851 -0.6886  0.7088
  229MOL0     C31486   8.895   2.818   2.544  0.0263  0.0037  0.6551
  229MOL0     C31487   9.036   2.783   2.577 -0.7634 -0.0145 -0.1568
  229MOL0     O31488   9.034   2.692   2.688  0.0600  0.1546 -0.4454
  229MOL0     C31489   9.147   2.686   2.764 -0.4116  0.2268  1.1257
  229MOL0     C31490   9.273   2.731   2.714 -0.6200 -0.6281  0.3385
  229MOL0     C31491   9.387   2.727   2.794 -0.5139 -0.3245  0.2638
  229MOL0     C31492   9.519   2.763   2.736 -0.0637 -0.2589 -0.0567
  229MOL0     C31493   9.369   2.693   2.928 -0.4600  0.8548 -0.3553
  229MOL0     C31494   9.479   2.702   3.016  0.5235 -0.3370 -0.1959
  229MOL0     O31495   9.507   2.589   3.098  0.4777 -0.2189 -0.4018
  229MOL0     C31496   9.609   2.601   3.193 -0.3188  0.1970  0.1440
  229MOL0     C31497   9.735   2.605   3.161  0.2152 -0.7756  0.5006
  229MOL0     C31498   9.834   2.621   3.255 -0.3038  0.6143  0.5045
  229MOL0     C31499   9.805   2.625   3.396 -0.1270  0.4858  0.4332
  229MOL0     O31500   9.897   2.635   3.494 -0.2069  0.4935  0.4021
  229MOL0     C31501  10.029   2.680   3.453  0.5570  0.1767 -0.3323
  229MOL0     C31502  10.117   2.687   3.584 -0.2786 -0.7689  0.3535
  229MOL0     C31503  10.158   2.554   3.657  0.6958  0.3144 -0.0086
  229MOL0     C31504  10.176   2.437   3.564 -0.3256  0.2632 -0.1986
  229MOL0     C31505  10.236   2.312   3.619 -0.2734 -0.1635 -0.5331
  229MOL0     C31506  10.253   2.199   3.521  0.4068 -0.3374 -0.2083
  229MOL0     C31507  10.341   2.095   3.600 -0.6484  0.5520 -0.1392
  229MOL0     C31508  10.402   1.994   3.502  0.5211 -0.2176 -0.7339
  229MOL0    Cl31509  10.277   1.946   3.373  0.2275  0.2439  0.6128
  229MOL0     C31510   9.667   2.604   3.435 -0.0624 -1.5293  0.6697
  229MOL0     C31511   9.576   2.576   3.325 -0.2113  0.2957 -0.1375
  229MOL0     O31512   9.527   2.811   3.036 -0.4161  0.1238  0.4608
  229MOL0     C31513   9.252   2.625   2.975  0.4636  0.5013  0.0759
  229MOL0     C31514   9.141   2.633   2.891 -0.4014  0.3321  0.6129
  229MOL0     N31515   8.581   2.993   2.557  0.2891  0.0925 -0.0893
  229MOL0     N31516   8.499   3.086   2.582  0.0317  0.7573 -0.2079
  229MOL0     C31517   8.578   4.060   1.763  0.1540 -0.0573  0.4001
  229MOL0     C31518   8.643   4.071   1.639 -0.4121 -0.8659  0.5366
  229MOL0     C31519   8.718   4.002   1.205 -0.5354 -0.6243 -0.0329
  229MOL0     C31520   8.805   4.104   1.184 -0.1244 -0.0979  0.3359
  229MOL0     C31521   8.870   4.115   1.066 -0.1929 -0.1535  0.1202
  229MOL0     C31522   8.841   4.035   0.955 -0.1309  0.7875 -0.6815
  229MOL0     O31523   8.915   4.024   0.842 -0.8622 -0.3564  0.7006
  229MOL0     C31524   9.064   4.032   0.845  0.1997 -0.0539  0.8055
  229MOL0     C31525   9.133   3.987   0.723  1.1353  0.8075  0.3250
  229MOL0     C31526   9.270   4.025   0.687 -1.1307  0.5385 -0.1763
  229MOL0     C31527   9.337   3.952   0.555  0.1806 -0.0802 -0.0482
  229MOL0     C31528   9.321   3.810   0.561 -0.1334 -0.2406 -1.3713
  229MOL0     C31529   9.332   3.691   0.577  0.7291  0.0820  0.8695
  229MOL0     C31530   8.738   3.942   0.974  0.0426  0.0870 -0.5750
  229MOL0     C31531   8.680   3.922   1.099  0.5220 -0.9065  0.1747
  229MOL0     C31532   8.588   3.807   1.115 -0.3711 -0.0330 -0.1685
  229MOL0     H31533   8.358   4.099   1.462 -2.2552 -1.1982  0.7804
  229MOL0     H31534   8.258   4.028   1.654  0.4764  1.0345  1.7681
  229MOL0     H31535   8.261   3.865   1.859 -5.3339 -0.3310 -0.7433
  229MOL0     H31536   8.194   4.022   1.895 -0.6726 -2.1076 -1.3715
  229MOL0     H31537   8.297   3.974   2.131 -0.1173  0.4652 -0.2007
  229MOL0     H31538   8.151   3.909   2.074  0.6148  1.5790 -0.5617
  229MOL0     H31539   8.312   3.683   2.013 -0.8068  0.5133 -1.9374
  229MOL0     H31540   8.437   3.779   2.075  1.8569 -4.5189  3.9587
  229MOL0     H31541   8.335   3.782   2.309 -1.2484 -0.8576  1.4137
  229MOL0     H31542   8.200   3.683   2.250 -0.6349 -2.6710 -1.7117
  229MOL0     H31543   8.484   3.584   2.235 -0.1390 -1.6303  2.0479
  229MOL0     H31544   8.336   3.502   2.180 -0.6798 -1.6580  1.7438
  229MOL0     H31545   8.391   3.578   2.474  0.5682 -0.8837 -0.3106
  229MOL0     H31546   8.258   3.479   2.421  0.4035 -0.0924  3.5818
  229MOL0     H31547   8.548   3.391   2.364  0.9689  0.7299  1.2584
  229MOL0     H31548   8.394   3.300   2.342 -0.7386  0.3402 -1.0398
  229MOL0     H31549   8.527   3.382   2.610 -0.9372 -0.1403  1.7519
  229MOL0     H31550   8.375   3.297   2.581  0.3121 -0.1645  1.6597
  229MOL0     H31551   8.673   3.215   2.342 -0.9327 -2.5575 -1.7633
  229MOL0     H31552   8.799   3.033   2.300  4.0761 -1.7737  0.0761
  229MOL0     H31553   8.732   2.882   2.340 -0.5748  0.5912 -0.4070
  229MOL0     H31554   8.979   2.931   2.388 -1.0975 -0.9085 -1.1039
  229MOL0     H31555   8.916   3.030   2.525 -1.0059 -1.0766  1.7793
  229MOL0     H31556   8.832   2.828   2.632 -0.2613  0.0880  0.4432
  229MOL0     H31557   8.844   2.742   2.484  1.7987  0.1965 -1.2098
  229MOL0     H31558   9.084   2.736   2.491  2.2905 -0.5547  1.6671
  229MOL0     H31559   9.087   2.878   2.594  1.3475 -1.2304  0.7406
  229MOL0     H31560   9.297   2.778   2.619 -1.6136 -0.4156  0.1836
  229MOL0     H31561   9.597   2.688   2.754 -0.1655 -0.6163 -1.0647
  229MOL0     H31562   9.540   2.862   2.776 -2.5814 -0.8259  3.2132
  229MOL0     H31563   9.530   2.773   2.628 -2.2334  0.5837 -0.2422
  229MOL0     H31564   9.762   2.608   3.056 -2.0075 -1.8069 -0.1682
  229MOL0     H31565   9.932   2.648   3.217 -0.0014  0.4313  1.1328
  229MOL0     H31566  10.063   2.601   3.386 -2.8185 -0.6633 -1.2644
  229MOL0     H31567  10.035   2.774   3.396  0.8118 -0.5737 -1.5790
  229MOL0     H31568  10.208   2.736   3.549 -0.0835 -1.2279  0.2148
  229MOL0     H31569  10.068   2.745   3.663 -0.9687  1.1019 -1.3465
  229MOL0     H31570  10.073   2.530   3.722 -0.6299 -2.1020 -2.4716
  229MOL0     H31571  10.244   2.574   3.721 -2.0064  3.5222  3.0753
  229MOL0     H31572  10.230   2.461   3.471 -1.2318 -0.2832 -0.8871
  229MOL0     H31573  10.075   2.413   3.530 -0.4635 -2.3336  1.8283
  229MOL0     H31574  10.338   2.330   3.655 -0.6223 -1.5067  1.2569
  229MOL0     H31575  10.176   2.275   3.702  2.7807  1.7906  2.8307
  229MOL0     H31576  10.300   2.238   3.430 -0.9820 -1.9752 -1.6970
  229MOL0     H31577  10.149   2.175   3.499 -0.0953  2.4369 -1.2710
  229MOL0     H31578  10.284   2.035   3.671  1.0307 -0.8618  0.0820
  229MOL0     H31579  10.421   2.146   3.654  0.1837 -3.8501  3.3423
  229MOL0     H31580  10.431   1.906   3.560 -0.2094 -1.3411 -2.0369
  229MOL0     H31581  10.482   2.038   3.441 -0.9250 -0.4262 -2.8760
  229MOL0     H31582   9.638   2.593   3.539 -0.3092 -1.6308  0.5915
  229MOL0     H31583   9.476   2.544   3.353 -0.1998  1.4789  1.3680
  229MOL0     H31584   9.246   2.590   3.078 -2.4121  0.4106 -0.0463
  229MOL0     H31585   9.041   2.611   2.928 -0.5122  0.2854  0.2871
  229MOL0     H31586   8.630   4.055   1.859 -1.4432  2.1913  1.4994
  229MOL0     H31587   8.749   4.093   1.630 -0.7777  0.6646 -0.3844
  229MOL0     H31588   8.842   4.165   1.265  2.5188  2.5156 -2.5536
  229MOL0     H31589   8.939   4.198   1.053 -1.5691  1.4027  2.2177
  229MOL0     H31590   9.093   4.131   0.882 -2.7755  2.0057 -1.8232
  229MOL0     H31591   9.103   3.969   0.925  1.8346 -0.0028  0.0768
  229MOL0     H31592   9.064   4.011   0.642 -2.5114 -1.9262  2.2830
  229MOL0     H31593   9.126   3.877   0.723 -0.6992  0.8575 -1.6782
  229MOL0     H31594   9.274   4.134   0.676  0.7126  0.3775 -1.6306
  229MOL0     H31595   9.329   3.999   0.776  0.6566  0.9447 -1.1839
  229MOL0     H31596   9.442   3.982   0.546 -0.2714  1.1053 -2.0855
  229MOL0     H31597   9.286   3.989   0.466 -1.4470 -1.5151  0.2548
  229MOL0     H31598   9.343   3.586   0.595  1.7098 -0.2111 -1.1635
  229MOL0     H31599   8.703   3.896   0.882  1.0774  0.0379 -0.9523
  229MOL0     H31600   8.556   3.765   1.020 -0.8642 -1.7556  0.7318
  229MOL0     H31601   8.634   3.735   1.183 -1.8402  0.1380  1.0438
  229MOL0     H31602   8.497   3.846   1.161  0.2736 -0.4567  1.5281
  230MOL0     O31603   3.701  10.269   8.245  0.4928  0.0468  0.1998
  230MOL0     C31604   3.680  10.383   8.208 -0.4084 -0.1312  0.7503
  230MOL0     O31605   3.730  10.441   8.101  0.3064 -0.5569  0.3043
  230MOL0     C31606   3.818  10.372   8.016 -0.1719 -0.2309 -0.4903
  230MOL0     C31607   3.825  10.411   7.882  0.1498  0.1224  0.1157
  230MOL0     C31608   3.912  10.356   7.791  0.3806 -0.9674 -0.2189
  230MOL0     C31609   4.007  10.259   7.825 -0.7292  0.5619 -0.2105
  230MOL0     O31610   4.085  10.213   7.719 -0.0715 -0.1534  0.4930
  230MOL0     C31611   4.104  10.070   7.721 -0.5937 -0.2144  1.2225
  230MOL0     C31612   4.252  10.034   7.745 -0.5127 -0.6324  0.5978
  230MOL0     C31613   4.355  10.081   7.639 -0.1993 -1.9046  0.0466
  230MOL0     C31614   4.492  10.018   7.641  0.2530  0.7671 -0.7067
  230MOL0     C31615   4.589  10.082   7.546 -0.5301  0.8200 -0.4340
  230MOL0     C31616   4.720  10.014   7.540  0.7072  0.8042 -0.9584
  230MOL0     C31617   4.826  10.112   7.489 -0.2276 -0.6852  0.3113
  230MOL0     C31618   4.778  10.189   7.362  0.0672  0.4005  0.6949
  230MOL0     N31619   4.779  10.102   7.244  0.1919 -0.3454 -0.2022
  230MOL0     C31620   4.887  10.032   7.200  0.3744  0.5581  0.4505
  230MOL0     C31621   4.842   9.946   7.104 -0.1791 -0.1833  0.2041
  230MOL0     C31622   4.904   9.841   7.023  0.2657  0.8069 -0.1917
  230MOL0     C31623   4.990   9.900   6.911  0.1193  0.4723  0.1030
  230MOL0     C31624   5.066   9.782   6.851 -0.1716 -1.3765 -0.0784
  230MOL0     C31625   4.973   9.724   6.748  1.0701 -0.5617  0.5845
  230MOL0     O31626   5.044   9.627   6.663 -0.4592  0.2662 -0.1713
  230MOL0     C31627   4.982   9.564   6.556  0.9899  0.2145 -0.4727
  230MOL0     C31628   5.054   9.494   6.465  0.8475 -0.2889 -0.2442
  230MOL0     C31629   5.001   9.420   6.361  0.5254  0.2896  0.4366
  230MOL0     C31630   5.080   9.335   6.266  0.0948 -0.4110  0.2573
  230MOL0     C31631   4.858   9.424   6.335 -0.4299 -0.3732  0.4340
  230MOL0     C31632   4.781   9.368   6.214 -0.6443  0.5007 -0.4030
  230MOL0     O31633   4.661   9.314   6.234  0.3212  0.5766  0.1361
  230MOL0     C31634   4.576   9.268   6.133  0.0518 -0.3382 -0.5651
  230MOL0     C31635   4.533   9.345   6.023  0.9628 -0.2267  0.4348
  230MOL0     C31636   4.430   9.285   5.939  0.0808 -0.0968 -0.1820
  230MOL0     C31637   4.376   9.165   5.968 -0.8250 -0.3335  0.9637
  230MOL0     O31638   4.283   9.103   5.882 -0.0508  0.9580  0.2655
  230MOL0     C31639   4.151   9.153   5.897 -0.4923 -0.1133 -1.0130
  230MOL0     C31640   4.056   9.119   5.782  1.1593 -0.0869  0.0387
  230MOL0     C31641   3.941   9.213   5.788  0.6891  0.2253  0.7533
  230MOL0     C31642   3.947   9.344   5.702 -0.2483 -0.0157  0.4776
  230MOL0     C31643   3.805   9.403   5.676  0.5608 -0.4154 -0.9067
  230MOL0     C31644   3.802   9.520   5.579  0.2544 -0.3465 -0.0826
  230MOL0     C31645   3.675   9.606   5.586  0.5042 -1.1910  1.1792
  230MOL0     C31646   3.557   9.520   5.520 -0.5279 -0.9706  0.2045
  230MOL0    Cl31647   3.416   9.625   5.558 -0.1311 -0.3721  0.1965
  230MOL0     C31648   4.406   9.093   6.088 -0.7451  0.3504  1.0191
  230MOL0     C31649   4.510   9.150   6.167 -0.3754  0.4564  0.7978
  230MOL0     O31650   4.835   9.379   6.106 -0.0880  0.5035 -0.5432
  230MOL0     C31651   4.778   9.492   6.425  0.2529 -0.0773  0.2298
  230MOL0     C31652   4.840   9.560   6.532 -0.2088  0.4829 -0.1652
  230MOL0     N31653   4.709   9.969   7.091 -0.0850  0.1155  0.3200
  230MOL0     N31654   4.671  10.064   7.168 -0.0339 -0.0978  0.1880
  230MOL0     C31655   4.002  10.211   7.962  0.0073 -0.3297 -0.9499
  230MOL0     C31656   3.919  10.274   8.058  0.9880  0.7308  0.0601
  230MOL0     C31657   3.599  10.473   8.294 -0.1109 -0.5979  0.1895
  230MOL0     C31658   3.644  10.605   8.341  0.6076 -0.1730 -0.5284
  230MOL0     C31659   3.575  10.690   8.430  0.9284  0.2096 -0.1913
  230MOL0     C31660   3.452  10.646   8.470 -0.3980  0.3099 -0.6904
  230MOL0     O31661   3.399  10.738   8.565  0.1769 -0.5278 -0.0307
  230MOL0     C31662   3.269  10.708   8.626 -0.0059 -0.0184  0.0160
  230MOL0     C31663   3.290  10.597   8.731 -0.0618 -0.8478 -0.7815
  230MOL0     C31664   3.313  10.668   8.879  0.1416 -0.8029  0.1640
  230MOL0     C31665   3.286  10.561   8.982 -0.7504 -0.0860 -0.1326
  230MOL0     C31666   3.141  10.536   8.995 -0.1884 -0.6282 -0.5586
  230MOL0     C31667   3.026  10.543   9.017  0.0952  0.4685  0.1561
  230MOL0     C31668   3.401  10.521   8.437  0.4535  0.3740 -0.0281
  230MOL0     C31669   3.470  10.435   8.345 -0.3991 -1.1582 -0.2127
  230MOL0     C31670   3.398  10.303   8.311  0.2401  0.8704  0.1616
  230MOL0     H31671   3.757  10.488   7.847 -0.4904  1.9164  4.5868
  230MOL0     H31672   3.898  10.371   7.685 -3.0288 -0.3373  0.1994
  230MOL0     H31673   4.074  10.035   7.621 -1.2738 -1.2105  1.7529
  230MOL0     H31674   4.054  10.024   7.807  0.2454 -0.6617  1.4833
  230MOL0     H31675   4.274  10.074   7.845 -0.5967  0.6196  0.1296
  230MOL0     H31676   4.256   9.925   7.746  2.3767 -0.6970 -2.2963
  230MOL0     H31677   4.305  10.058   7.544 -2.0291 -0.3880  0.5805
  230MOL0     H31678   4.364  10.189   7.653 -2.3386 -1.5971 -0.5038
  230MOL0     H31679   4.524  10.031   7.744 -0.5001  2.5627 -0.6629
  230MOL0     H31680   4.489   9.911   7.614  2.5783  0.5388 -0.2613
  230MOL0     H31681   4.612  10.177   7.596  4.1641 -1.0234  1.5044
  230MOL0     H31682   4.536  10.096   7.451  0.0618  2.5831 -0.5587
  230MOL0     H31683   4.752   9.978   7.639 -0.3807  2.5762  0.1007
  230MOL0     H31684   4.715   9.929   7.472  0.9361 -1.4701  1.7077
  230MOL0     H31685   4.914  10.048   7.475  2.4948  2.5422  1.4081
  230MOL0     H31686   4.841  10.198   7.555 -1.7462  0.9383 -1.3602
  230MOL0     H31687   4.681  10.237   7.372 -0.1093  0.6375 -1.4832
  230MOL0     H31688   4.840  10.278   7.351  0.1964  0.3964  1.3601
  230MOL0     H31689   4.987  10.048   7.240  0.5456 -0.1272  0.3184
  230MOL0     H31690   4.827   9.769   6.994  0.9840 -0.5655  1.1921
  230MOL0     H31691   4.974   9.795   7.092  0.5764  0.2585 -0.8641
  230MOL0     H31692   4.927   9.955   6.840 -4.0853 -3.1246  0.5522
  230MOL0     H31693   5.061   9.972   6.953  2.2907 -1.0511 -0.7761
  230MOL0     H31694   5.152   9.826   6.800 -1.7465  2.1690 -0.0411
  230MOL0     H31695   5.112   9.719   6.928 -2.0488 -3.9032 -0.9049
  230MOL0     H31696   4.890   9.671   6.796 -1.2315  0.9123 -1.5276
  230MOL0     H31697   4.936   9.808   6.688  3.3121  0.7591  0.9625
  230MOL0     H31698   5.160   9.476   6.480  0.8987  0.7556  0.7819
  230MOL0     H31699   5.069   9.230   6.295 -1.1566 -0.6573 -1.0237
  230MOL0     H31700   5.186   9.359   6.280  0.1637  0.4723 -1.5306
  230MOL0     H31701   5.059   9.357   6.161 -0.1989 -0.2720  0.3435
  230MOL0     H31702   4.573   9.443   6.001  0.4467 -0.5464 -2.2900
  230MOL0     H31703   4.399   9.311   5.839  1.0781 -3.0227 -1.3551
  230MOL0     H31704   4.114   9.111   5.991 -0.9290 -1.0920 -1.6126
  230MOL0     H31705   4.158   9.263   5.902  4.0677 -0.1749 -1.4374
  230MOL0     H31706   4.100   9.130   5.682  0.7862 -2.0258 -0.3827
  230MOL0     H31707   4.020   9.017   5.797  0.6686 -0.2296 -1.8712
  230MOL0     H31708   3.917   9.231   5.893 -0.1584 -1.4965  0.8861
  230MOL0     H31709   3.861   9.148   5.752 -0.1007  1.1726  0.7586
  230MOL0     H31710   3.991   9.321   5.605  0.5069 -0.9367  1.0169
  230MOL0     H31711   4.016   9.414   5.749 -0.2536  0.1833  0.1914
  230MOL0     H31712   3.741   9.319   5.649 -2.7900 -0.8120  6.0492
  230MOL0     H31713   3.757   9.442   5.766  0.6053 -1.9083 -0.2028
  230MOL0     H31714   3.816   9.479   5.479 -0.6635 -0.1045 -0.3231
  230MOL0     H31715   3.894   9.579   5.589 -1.2410  2.0046  0.6933
  230MOL0     H31716   3.675   9.697   5.525  1.8279 -1.2851  1.0153
  230MOL0     H31717   3.655   9.648   5.685 -0.4443  0.5916  0.2845
  230MOL0     H31718   3.555   9.422   5.569 -1.5467 -1.2874 -0.4378
  230MOL0     H31719   3.571   9.512   5.412  3.8682 -2.2057  0.6651
  230MOL0     H31720   4.360   8.996   6.105  1.7179 -1.5633 -2.2641
  230MOL0     H31721   4.545   9.093   6.253  2.3799 -1.2094 -1.2581
  230MOL0     H31722   4.670   9.488   6.416 -0.2632 -0.7634  4.4124
  230MOL0     H31723   4.772   9.625   6.586  0.9448  0.8988  0.8243
  230MOL0     H31724   4.086  10.149   7.990 -1.6597 -1.6091  1.5137
  230MOL0     H31725   3.943  10.259   8.162  1.0645  4.3688  0.7152
  230MOL0     H31726   3.746  10.628   8.310  1.2164  0.5078  1.7551
  230MOL0     H31727   3.618  10.783   8.465 -0.7170  0.5205  1.0965
  230MOL0     H31728   3.216  10.797   8.661  0.1815 -0.2669  0.9427
  230MOL0     H31729   3.197  10.663   8.556  0.5988  2.0158 -2.0111
  230MOL0     H31730   3.383  10.541   8.711 -0.8067 -2.5627  0.3423
  230MOL0     H31731   3.205  10.530   8.720 -2.0626  1.6032 -1.2222
  230MOL0     H31732   3.419  10.692   8.889 -0.1580 -0.1894  2.6391
  230MOL0     H31733   3.239  10.749   8.888 -0.9271 -1.8509  1.2511
  230MOL0     H31734   3.331  10.582   9.079 -3.2821  0.0407  1.0888
  230MOL0     H31735   3.338  10.468   8.957  2.9908  2.5216 -3.3262
  230MOL0     H31736   2.921  10.554   9.032  0.0260 -1.7910  2.0275
  230MOL0     H31737   3.304  10.486   8.472  0.0368  1.5835  0.0725
  230MOL0     H31738   3.373  10.322   8.206  0.7447  1.1734  0.0902
  230MOL0     H31739   3.467  10.218   8.320  1.3735  1.5449 -1.6788
  230MOL0     H31740   3.313  10.280   8.376 -0.1761  0.2909 -0.5721
  231MOL0     O31741   1.738   8.131  10.582  0.2467  0.5988  0.2335
  231MOL0     C31742   1.711   8.014  10.600 -0.5330  0.1130 -0.1348
  231MOL0     O31743   1.622   7.945  10.528  0.4819 -0.2526  0.2184
  231MOL0     C31744   1.554   8.000  10.421  0.8666 -0.8152 -0.1229
  231MOL0     C31745   1.419   8.048  10.439 -0.8025 -0.2425 -0.6631
  231MOL0     C31746   1.355   8.101  10.333  0.5041 -0.0847 -0.2782
  231MOL0     C31747   1.419   8.108  10.205  0.6212  0.6666 -0.2846
  231MOL0     O31748   1.347   8.163  10.095  0.4810  0.2102 -0.1934
  231MOL0     C31749   1.300   8.293  10.093  0.0496 -0.4277  0.6266
  231MOL0     C31750   1.423   8.394  10.070  0.2187 -0.6789  0.8414
  231MOL0     C31751   1.383   8.541  10.092  0.3115 -0.1459  0.0169
  231MOL0     C31752   1.509   8.641  10.096 -0.3746  1.7170 -0.0581
  231MOL0     C31753   1.478   8.789  10.123  0.3798 -0.4545 -0.3325
  231MOL0     C31754   1.379   8.819  10.237 -0.2306 -0.0225 -0.5855
  231MOL0     C31755   1.323   8.961  10.234  0.4050 -0.3311  0.0142
  231MOL0     C31756   1.181   8.978  10.299 -0.4210 -1.1650  0.2527
  231MOL0     N31757   1.078   8.909  10.222  0.1906  0.0907  0.1096
  231MOL0     C31758   1.045   8.779  10.259  0.6619 -1.1695 -0.7248
  231MOL0     C31759   0.958   8.735  10.162 -1.1580  0.2994  0.9037
  231MOL0     C31760   0.895   8.599  10.154 -1.2743  0.0018 -0.5409
  231MOL0     C31761   0.978   8.512  10.062 -0.7207 -0.3170  0.6028
  231MOL0     C31762   0.941   8.543   9.903 -0.4608  0.5858  0.4193
  231MOL0     C31763   1.005   8.430   9.815 -0.2215  0.1551  0.5422
  231MOL0     O31764   1.147   8.465   9.809  0.1991  0.2978 -0.0102
  231MOL0     C31765   1.235   8.375   9.746 -0.4442 -0.8482  0.2219
  231MOL0     C31766   1.214   8.245   9.730 -0.3694  0.1951 -0.4688
  231MOL0     C31767   1.301   8.162   9.661 -0.1168  0.3582 -0.2292
  231MOL0     C31768   1.255   8.017   9.648 -0.3595 -0.3673  0.1613
  231MOL0     C31769   1.423   8.217   9.591  0.7665 -0.1637  0.1094
  231MOL0     C31770   1.510   8.147   9.512  0.2112  0.1171  0.6698
  231MOL0     O31771   1.622   8.207   9.454  0.0767 -0.4331 -0.3286
  231MOL0     C31772   1.723   8.139   9.394 -0.3166  0.0503 -0.5383
  231MOL0     C31773   1.849   8.123   9.456 -0.0912 -0.0020 -0.1012
  231MOL0     C31774   1.950   8.040   9.399 -0.2304 -0.1917 -0.0449
  231MOL0     C31775   1.923   7.966   9.283  0.7787  0.5101  0.3823
  231MOL0     O31776   2.020   7.867   9.261  0.9241 -0.0046  0.4999
  231MOL0     C31777   1.994   7.756   9.165  0.1972 -0.1414 -0.1062
  231MOL0     C31778   2.041   7.795   9.021 -0.6975 -0.0193  0.5270
  231MOL0     C31779   1.992   7.693   8.922  0.4976  0.2665 -0.3722
  231MOL0     C31780   2.044   7.702   8.785  0.4609  0.6337  0.3615
  231MOL0     C31781   2.016   7.578   8.711  0.9287  0.0424  0.3473
  231MOL0     C31782   2.144   7.555   8.614  0.7857  0.7301 -1.0049
  231MOL0     C31783   2.125   7.422   8.542  0.0670  0.0050  0.3505
  231MOL0     C31784   2.223   7.396   8.428  0.5887 -0.7791  0.5219
  231MOL0    Cl31785   2.252   7.224   8.401 -0.4275  0.1599 -0.1592
  231MOL0     C31786   1.799   7.984   9.222  0.8504 -1.1959  0.0591
  231MOL0     C31787   1.700   8.071   9.273 -0.1090 -0.6333  0.1436
  231MOL0     O31788   1.487   8.030   9.486 -0.1604 -0.6929 -0.9811
  231MOL0     C31789   1.438   8.353   9.612 -0.8976 -0.7451 -0.5112
  231MOL0     C31790   1.352   8.429   9.692  0.4205 -0.5488  0.0438
  231MOL0     N31791   0.931   8.841  10.076  0.3262 -0.1664 -1.1042
  231MOL0     N31792   0.997   8.946  10.113  0.4009  1.0829 -0.0154
  231MOL0     C31793   1.551   8.049  10.189  0.3440 -0.1900  0.4940
  231MOL0     C31794   1.614   7.996  10.292  0.6284 -1.2425 -1.2851
  231MOL0     C31795   1.777   7.934  10.709 -0.9308 -0.2058 -0.8585
  231MOL0     C31796   1.766   7.793  10.715  0.0758 -0.7008  0.5060
  231MOL0     C31797   1.816   7.713  10.806  0.2471  0.5685  0.5619
  231MOL0     C31798   1.872   7.774  10.914 -0.6276  0.4563  0.3585
  231MOL0     O31799   1.922   7.701  11.024 -0.2982 -0.8883  0.0793
  231MOL0     C31800   2.061   7.676  11.006  0.2683 -0.6222 -1.0805
  231MOL0     C31801   2.081   7.521  10.974 -0.1402  0.9354 -1.0022
  231MOL0     C31802   2.089   7.446  11.109 -0.2823 -0.5914 -0.4970
  231MOL0     C31803   1.957   7.387  11.142  0.3473 -0.5571 -0.8691
  231MOL0     C31804   1.933   7.270  11.060 -0.2234  0.7002 -0.0594
  231MOL0     C31805   1.922   7.188  10.975  0.5637  0.0788 -0.0556
  231MOL0     C31806   1.889   7.911  10.921 -0.9556 -0.4421 -0.5206
  231MOL0     C31807   1.853   7.989  10.820  0.0207 -0.4529  1.3530
  231MOL0     C31808   1.880   8.139  10.841  0.4991  0.4832  0.5135
  231MOL0     H31809   1.370   8.059  10.535 -0.8575  2.7987 -0.9300
  231MOL0     H31810   1.260   8.151  10.344  1.8147  2.2838  0.8827
  231MOL0     H31811   1.258   8.319  10.191  0.7358  0.1461  0.7766
  231MOL0     H31812   1.218   8.299  10.022 -0.1189  0.2104  0.8742
  231MOL0     H31813   1.505   8.371  10.138  0.8929 -1.5444 -0.2301
  231MOL0     H31814   1.450   8.388   9.964  0.3655 -0.2197  0.8506
  231MOL0     H31815   1.296   8.569  10.032 -0.9810 -2.2986  0.7414
  231MOL0     H31816   1.342   8.542  10.193  2.9585 -1.4438  1.2015
  231MOL0     H31817   1.584   8.607  10.168  0.5720 -0.0274 -1.7832
  231MOL0     H31818   1.558   8.634   9.999  2.7436  2.6882  1.3416
  231MOL0     H31819   1.426   8.826  10.034  2.2485  1.4358 -0.7282
  231MOL0     H31820   1.565   8.855  10.133 -0.3257  0.2314  2.0582
  231MOL0     H31821   1.296   8.748  10.230  1.9520 -2.7628 -0.5035
  231MOL0     H31822   1.426   8.797  10.333  1.2776  1.9454 -0.8297
  231MOL0     H31823   1.325   8.997  10.131 -0.4999  0.4766  0.2650
  231MOL0     H31824   1.383   9.027  10.297  0.9527 -1.1393  0.3587
  231MOL0     H31825   1.202   8.930  10.395  1.3638 -1.0644 -0.0631
  231MOL0     H31826   1.150   9.080  10.325  5.4062  1.3967 -1.2200
  231MOL0     H31827   1.077   8.699  10.325  0.3716 -2.5473 -2.1841
  231MOL0     H31828   0.792   8.593  10.119 -1.1600  0.0199 -0.8835
  231MOL0     H31829   0.901   8.561  10.256  0.3595  2.2127  0.2793
  231MOL0     H31830   1.085   8.533  10.070 -0.4508 -1.1464 -0.4966
  231MOL0     H31831   0.969   8.407  10.092 -1.5830 -0.2371  0.6617
  231MOL0     H31832   0.833   8.544   9.885 -0.0187  0.8846 -2.9455
  231MOL0     H31833   0.983   8.640   9.875  1.6906  0.7136  3.5968
  231MOL0     H31834   0.984   8.333   9.863  3.4368 -0.7186  0.6414
  231MOL0     H31835   0.975   8.445   9.711  3.9905  0.1045 -0.8311
  231MOL0     H31836   1.127   8.202   9.778 -0.6852  1.3455  0.0283
  231MOL0     H31837   1.172   7.990   9.714 -1.3241 -2.6815 -1.8709
  231MOL0     H31838   1.340   7.959   9.684 -0.2400  0.4155  1.1997
  231MOL0     H31839   1.239   7.990   9.543  1.3236  1.8028 -0.7345
  231MOL0     H31840   1.880   8.158   9.554  1.4818 -1.0383 -0.1847
  231MOL0     H31841   2.044   8.014   9.448 -1.8547 -0.5219  3.1265
  231MOL0     H31842   2.055   7.667   9.186 -0.8949 -0.3913  2.4246
  231MOL0     H31843   1.889   7.724   9.165 -0.0778  0.5309 -3.0256
  231MOL0     H31844   1.998   7.890   8.989 -3.9886 -1.6280 -0.2627
  231MOL0     H31845   2.149   7.809   9.013 -0.9221  1.1833 -0.7620
  231MOL0     H31846   1.883   7.684   8.917  0.7375 -3.2445 -3.0714
  231MOL0     H31847   2.044   7.604   8.957 -1.4417 -0.3889  0.9526
  231MOL0     H31848   2.153   7.717   8.791  0.0977  3.7179  0.9146
  231MOL0     H31849   2.000   7.787   8.732  3.5444  1.0369 -1.8495
  231MOL0     H31850   1.998   7.486   8.767  0.2237 -1.3373 -2.0186
  231MOL0     H31851   1.921   7.594   8.659  0.7471 -4.3251 -1.0453
  231MOL0     H31852   2.237   7.554   8.673 -1.3668  0.9062  2.7293
  231MOL0     H31853   2.149   7.633   8.538 -2.5466  1.5588 -0.5212
  231MOL0     H31854   2.019   7.417   8.515  0.0142  4.0865 -0.8570
  231MOL0     H31855   2.150   7.352   8.623  3.1554 -0.2471 -0.6981
  231MOL0     H31856   2.316   7.452   8.443 -0.2460  1.0665 -0.7367
  231MOL0     H31857   2.173   7.446   8.344 -0.6433 -0.4230  1.4367
  231MOL0     H31858   1.774   7.940   9.127  2.2678 -3.3330  0.5910
  231MOL0     H31859   1.601   8.073   9.229 -0.4840 -0.6373  0.9766
  231MOL0     H31860   1.524   8.404   9.568 -1.4461 -2.1193 -3.4596
  231MOL0     H31861   1.372   8.535   9.706  0.8589 -0.4854 -0.9423
  231MOL0     H31862   1.610   8.058  10.099  0.8079 -1.9882  0.5700
  231MOL0     H31863   1.715   7.961  10.271  0.7972 -2.3402  1.0674
  231MOL0     H31864   1.720   7.739  10.632 -1.1240  2.0097 -0.7179
  231MOL0     H31865   1.813   7.605  10.795 -1.0123  0.7163 -0.8629
  231MOL0     H31866   2.110   7.742  10.934  2.6449 -0.4048  0.5894
  231MOL0     H31867   2.112   7.698  11.101 -0.8403  4.0246 -1.3229
  231MOL0     H31868   2.177   7.504  10.925  1.1766 -1.2882  2.0939
  231MOL0     H31869   2.018   7.485  10.891  0.1710 -0.5042 -0.6354
  231MOL0     H31870   2.167   7.369  11.102  1.7210  1.3810 -0.9576
  231MOL0     H31871   2.131   7.504  11.191  1.5708 -2.6020  0.0515
  231MOL0     H31872   1.882   7.467  11.134  3.4174  2.5026 -1.7934
  231MOL0     H31873   1.965   7.353  11.245 -0.2727  1.0532 -0.2441
  231MOL0     H31874   1.900   7.112  10.903 -0.0253 -0.8359  1.0590
  231MOL0     H31875   1.945   7.953  11.003  1.4466  2.8351 -3.5155
  231MOL0     H31876   1.937   8.167  10.752  2.6144  1.0477  1.9651
  231MOL0     H31877   1.784   8.189  10.856  1.3761  1.9492  1.5420
  231MOL0     H31878   1.942   8.159  10.929  0.9066 -0.7771  0.5388
  232MOL0     O31879   8.089   3.033   1.308 -0.1322 -0.1996  0.0702
  232MOL0     C31880   8.191   3.055   1.246  0.7047  0.1332 -0.6670
  232MOL0     O31881   8.313   3.071   1.311 -0.0525  0.9312  0.4041
  232MOL0     C31882   8.330   3.103   1.447 -0.0771  0.6635 -1.0081
  232MOL0     C31883   8.241   3.175   1.529  1.0978  0.2613 -0.3798
  232MOL0     C31884   8.258   3.197   1.663  0.1757 -0.1116  0.2723
  232MOL0     C31885   8.353   3.126   1.728  0.7433 -0.3252  0.4907
  232MOL0     O31886   8.367   3.141   1.866  0.6976 -0.4953  0.8772
  232MOL0     C31887   8.463   3.071   1.940 -0.4173 -1.2482 -0.4375
  232MOL0     C31888   8.470   3.096   2.098 -0.4983 -0.0788 -1.1286
  232MOL0     C31889   8.351   3.037   2.166 -0.6010 -0.3229 -0.1647
  232MOL0     C31890   8.331   2.884   2.147 -0.3658  0.1539  1.0338
  232MOL0     C31891   8.212   2.826   2.214 -0.1645  0.2777 -0.6796
  232MOL0     C31892   8.207   2.812   2.362 -0.3036 -0.0394  0.1388
  232MOL0     C31893   8.317   2.709   2.415 -0.2618  1.2224  0.3746
  232MOL0     C31894   8.283   2.681   2.569 -0.5690 -0.0535 -0.4976
  232MOL0     N31895   8.398   2.597   2.618 -0.3443  0.5386  0.3934
  232MOL0     C31896   8.505   2.638   2.692 -0.5127 -0.3216  0.0231
  232MOL0     C31897   8.592   2.533   2.692 -0.9215  0.8018 -0.2268
  232MOL0     C31898   8.721   2.517   2.774  0.2297  0.2925 -0.1239
  232MOL0     C31899   8.692   2.436   2.899  0.7026  0.4098  0.4426
  232MOL0     C31900   8.823   2.407   2.975  0.8098 -0.9575  0.0073
  232MOL0     C31901   8.934   2.337   2.907 -0.3170 -0.0539 -0.3616
  232MOL0     O31902   9.058   2.334   2.980  0.2057 -0.8987  0.1416
  232MOL0     C31903   9.071   2.265   3.102 -0.0236  1.4601 -0.2166
  232MOL0     C31904   8.983   2.171   3.159 -0.3832 -0.4029  0.6189
  232MOL0     C31905   9.010   2.099   3.279 -1.0300 -0.0490  0.2482
  232MOL0     C31906   8.919   1.985   3.307  0.6392  0.4127  0.6857
  232MOL0     C31907   9.130   2.128   3.348  0.0538 -0.1555 -1.4692
  232MOL0     C31908   9.167   2.059   3.479 -0.9018 -0.3354  0.4026
  232MOL0     O31909   9.301   2.085   3.516 -0.6525  0.5219 -0.2799
  232MOL0     C31910   9.330   2.058   3.650 -0.8811 -0.5553 -0.3425
  232MOL0     C31911   9.401   2.153   3.718  0.6049 -0.1177  0.4052
  232MOL0     C31912   9.429   2.135   3.858 -0.9274  0.4803  0.9320
  232MOL0     C31913   9.396   2.016   3.922  0.5349 -0.2215 -0.4145
  232MOL0     O31914   9.400   2.000   4.059 -0.2881  0.4167 -0.0796
  232MOL0     C31915   9.527   2.021   4.123 -0.7587 -0.1056 -0.1355
  232MOL0     C31916   9.523   1.979   4.265  0.1889  0.3528  0.2566
  232MOL0     C31917   9.553   1.832   4.267 -0.3315 -0.3955  0.1066
  232MOL0     C31918   9.527   1.749   4.397 -0.1341 -0.1412 -1.2782
  232MOL0     C31919   9.643   1.651   4.417  0.0422 -0.8984 -0.3991
  232MOL0     C31920   9.593   1.560   4.528 -0.8514  0.0884  0.3824
  232MOL0     C31921   9.701   1.452   4.571 -0.2816 -0.1185 -0.5321
  232MOL0     C31922   9.665   1.395   4.707 -0.7815 -0.4660  0.5394
  232MOL0    Cl31923   9.805   1.303   4.756 -0.1368  0.2704 -0.3912
  232MOL0     C31924   9.334   1.913   3.851  0.2644 -0.2916  0.5643
  232MOL0     C31925   9.304   1.933   3.719  0.1752  0.1370 -0.3797
  232MOL0     O31926   9.080   2.014   3.554 -0.0891  0.2127  0.0859
  232MOL0     C31927   9.219   2.220   3.287  0.0187 -0.4009  0.2991
  232MOL0     C31928   9.194   2.291   3.168  0.0190 -0.0444 -0.1730
  232MOL0     N31929   8.543   2.436   2.609  0.1177 -0.2096 -0.5542
  232MOL0     N31930   8.427   2.473   2.566  0.9746 -0.3356 -0.4975
  232MOL0     C31931   8.452   3.063   1.654  0.8778 -0.1689  0.2568
  232MOL0     C31932   8.434   3.051   1.517 -0.7530  0.4097  0.5345
  232MOL0     C31933   8.203   3.036   1.105 -0.2545  1.2875  0.3288
  232MOL0     C31934   8.289   3.124   1.030 -0.4902  0.1726  0.2857
  232MOL0     C31935   8.286   3.126   0.889  0.5426  0.1121  0.1538
  232MOL0     C31936   8.210   3.042   0.816  0.3953 -0.1830 -0.2923
  232MOL0     O31937   8.220   3.055   0.681  0.6423 -0.2428  0.5688
  232MOL0     C31938   8.160   2.955   0.609  0.0204 -0.5845 -0.8561
  232MOL0     C31939   8.196   2.966   0.463  0.6956  0.3750 -0.5819
  232MOL0     C31940   8.353   2.950   0.442  0.0677 -0.7363 -1.2458
  232MOL0     C31941   8.387   2.802   0.435 -0.5952 -0.3598  0.3766
  232MOL0     C31942   8.347   2.737   0.309 -0.4173  0.7704 -0.7195
  232MOL0     C31943   8.315   2.658   0.214 -0.5687  0.5181  0.2481
  232MOL0     C31944   8.138   2.940   0.890 -0.0354  0.1259 -0.0324
  232MOL0     C31945   8.135   2.938   1.028 -0.9207 -0.1201  1.0754
  232MOL0     C31946   8.047   2.831   1.074  0.0859  0.2006 -0.9594
  232MOL0     H31947   8.156   3.227   1.486  1.2222  0.9124  0.1358
  232MOL0     H31948   8.182   3.252   1.719 -1.2123  0.4917 -2.0609
  232MOL0     H31949   8.564   3.103   1.913 -0.7674 -0.0842 -0.3921
  232MOL0     H31950   8.452   2.967   1.907 -0.0620 -0.9469 -1.5444
  232MOL0     H31951   8.572   3.071   2.130  0.2557  1.4783 -2.1457
  232MOL0     H31952   8.447   3.202   2.110 -0.9789 -0.3477  0.4187
  232MOL0     H31953   8.365   3.053   2.273 -0.1924 -1.1095 -0.1012
  232MOL0     H31954   8.264   3.093   2.129  0.5196  1.4861 -0.1577
  232MOL0     H31955   8.312   2.871   2.040 -1.3273 -1.8423  1.4146
  232MOL0     H31956   8.424   2.829   2.163 -0.0689  0.3222 -0.0077
  232MOL0     H31957   8.210   2.723   2.175  1.7166  0.2485 -0.8224
  232MOL0     H31958   8.117   2.867   2.179 -0.2039  0.8394  0.0674
  232MOL0     H31959   8.208   2.909   2.412 -1.4836 -0.4030  0.8959
  232MOL0     H31960   8.109   2.770   2.384 -0.5237 -0.3765 -1.4135
  232MOL0     H31961   8.417   2.751   2.403  0.5922 -1.3715 -2.9270
  232MOL0     H31962   8.309   2.619   2.354 -0.1079 -0.5222  2.7638
  232MOL0     H31963   8.288   2.778   2.620 -1.7256  0.2698 -0.9610
  232MOL0     H31964   8.184   2.642   2.591 -0.5293 -0.0525 -0.3169
  232MOL0     H31965   8.512   2.736   2.738 -0.9509 -0.0420 -0.4934
  232MOL0     H31966   8.752   2.619   2.798 -1.3619  1.4965 -2.7555
  232MOL0     H31967   8.800   2.477   2.709  1.8381  0.9205  1.3749
  232MOL0     H31968   8.620   2.501   2.949 -1.5013 -0.2277 -1.6905
  232MOL0     H31969   8.642   2.344   2.868  2.5377 -0.7335  0.7254
  232MOL0     H31970   8.857   2.508   3.001 -2.3886  0.1397  0.2958
  232MOL0     H31971   8.805   2.370   3.076 -1.8566  1.3639  0.4981
  232MOL0     H31972   8.900   2.237   2.880 -0.6777 -0.3770  1.1830
  232MOL0     H31973   8.953   2.384   2.810  2.9137  1.5682  0.9231
  232MOL0     H31974   8.891   2.150   3.106  0.1945 -0.3447 -0.4472
  232MOL0     H31975   8.887   1.937   3.214 -2.4005 -0.1981  1.9192
  232MOL0     H31976   8.827   2.023   3.353 -0.3320 -4.7997  4.0058
  232MOL0     H31977   8.955   1.903   3.371  0.7364 -0.1767 -0.1035
  232MOL0     H31978   9.439   2.241   3.666 -0.0816  0.5879  1.0759
  232MOL0     H31979   9.460   2.227   3.906 -0.4870  0.9299 -0.1902
  232MOL0     H31980   9.615   1.982   4.071  1.3874  4.0330 -0.0848
  232MOL0     H31981   9.541   2.130   4.124 -0.9294 -0.0613 -1.3818
  232MOL0     H31982   9.597   2.033   4.325 -0.1516  0.9536  0.1463
  232MOL0     H31983   9.422   1.998   4.302  0.1136 -0.2579  0.3596
  232MOL0     H31984   9.660   1.821   4.246 -0.3160 -1.2260  0.5990
  232MOL0     H31985   9.492   1.796   4.183  1.2849 -1.2289 -0.7795
  232MOL0     H31986   9.438   1.689   4.376  1.5698 -2.5720 -1.9519
  232MOL0     H31987   9.507   1.829   4.468  0.5223  2.7929 -4.1541
  232MOL0     H31988   9.654   1.593   4.325  2.5842 -1.2460  0.0441
  232MOL0     H31989   9.736   1.701   4.447 -1.1061  1.3092 -0.2828
  232MOL0     H31990   9.493   1.519   4.509  0.2102 -2.6832  0.2219
  232MOL0     H31991   9.587   1.619   4.620 -1.6498 -1.6740  1.5164
  232MOL0     H31992   9.799   1.499   4.589 -0.7803  0.9708 -0.5822
  232MOL0     H31993   9.714   1.372   4.498 -1.8442 -1.4097  0.5493
  232MOL0     H31994   9.573   1.336   4.714 -0.7648 -0.3777  1.6473
  232MOL0     H31995   9.646   1.477   4.777 -1.5607 -1.5927  1.7112
  232MOL0     H31996   9.301   1.820   3.897  0.9625 -1.3908 -1.0623
  232MOL0     H31997   9.249   1.852   3.673  3.2370 -2.3238  0.0013
  232MOL0     H31998   9.317   2.230   3.332 -1.2263  0.5089  3.0519
  232MOL0     H31999   9.269   2.368   3.155  0.5684 -0.0585  2.3997
  232MOL0     H32000   8.550   3.029   1.687  2.6017  1.6229 -2.6128
  232MOL0     H32001   8.504   2.986   1.465 -0.8254 -0.1426  1.1141
  232MOL0     H32002   8.349   3.191   1.091 -0.4939  1.3449 -0.9536
  232MOL0     H32003   8.354   3.186   0.830 -2.2316  1.8675 -1.4820
  232MOL0     H32004   8.186   2.853   0.641 -1.7255 -1.2954 -1.5328
  232MOL0     H32005   8.051   2.955   0.622  0.0886  1.0658 -0.0115
  232MOL0     H32006   8.166   3.067   0.433  1.7488  1.2596  1.2033
  232MOL0     H32007   8.156   2.880   0.409  1.1421 -0.6818  0.7218
  232MOL0     H32008   8.379   2.995   0.346  3.0910 -0.5647 -0.4210
  232MOL0     H32009   8.406   2.983   0.532 -1.7703 -3.7924  1.1589
  232MOL0     H32010   8.333   2.753   0.516  2.7601  0.3368  3.3026
  232MOL0     H32011   8.494   2.786   0.450 -0.5379 -0.5932 -0.2508
  232MOL0     H32012   8.298   2.599   0.127  0.2336 -0.2288  0.5880
  232MOL0     H32013   8.069   2.879   0.834 -0.5234  2.2634 -1.9027
  232MOL0     H32014   8.084   2.733   1.046 -1.3444 -0.9521  0.9536
  232MOL0     H32015   8.056   2.834   1.183  2.1906  3.8021 -1.0637
  232MOL0     H32016   7.942   2.853   1.051 -0.4033  1.8893  2.3178
  233MOL0     O32017  10.084   8.638   5.154 -0.2897 -0.5304  0.4324
  233MOL0     C32018  10.206   8.649   5.139  0.1768 -0.2736  0.6631
  233MOL0     O32019  10.278   8.607   5.021  1.2086  0.4245 -0.6426
  233MOL0     C32020  10.202   8.537   4.931 -0.1886  0.5792  0.3302
  233MOL0     C32021  10.123   8.430   4.970  0.1096  0.5692 -0.6155
  233MOL0     C32022  10.059   8.349   4.874 -1.8202 -0.2455 -1.0362
  233MOL0     C32023  10.082   8.383   4.740  1.1804 -0.2537  0.5560
  233MOL0     O32024  10.027   8.287   4.656 -0.5351 -0.1405 -0.0670
  233MOL0     C32025  10.095   8.250   4.542 -0.7251  1.0946  0.0959
  233MOL0     C32026  10.086   8.096   4.521  0.2842  1.2370 -0.3196
  233MOL0     C32027  10.210   8.021   4.473 -0.8841  0.2532  0.0061
  233MOL0     C32028  10.172   7.892   4.394  0.6192  0.6483 -0.7356
  233MOL0     C32029  10.223   7.762   4.453 -0.0106 -0.3107  0.6569
  233MOL0     C32030  10.152   7.701   4.576  0.2437 -0.6733  0.5177
  233MOL0     C32031  10.008   7.664   4.542  0.2696 -0.0993  0.8518
  233MOL0     C32032   9.958   7.568   4.648 -0.2904 -0.9434 -0.6671
  233MOL0     N32033   9.966   7.637   4.782 -0.1904  0.1392 -0.0324
  233MOL0     C32034   9.941   7.767   4.812 -0.3891  0.4585 -0.9828
  233MOL0     C32035   9.957   7.767   4.950 -0.1040 -1.1698  0.5232
  233MOL0     C32036   9.980   7.891   5.039  0.8777  0.9539 -0.0320
  233MOL0     C32037  10.126   7.923   5.049  0.5428 -0.5917  0.3595
  233MOL0     C32038  10.157   8.067   5.120  0.7793  1.0368 -0.0573
  233MOL0     C32039  10.302   8.081   5.139 -1.0438 -0.5486  0.3671
  233MOL0     O32040  10.329   8.205   5.205  0.0549 -0.6868 -0.1163
  233MOL0     C32041  10.456   8.227   5.244 -0.3859  0.8010 -0.8340
  233MOL0     C32042  10.469   8.331   5.339  0.2206 -0.3238  0.5039
  233MOL0     C32043  10.591   8.347   5.413 -0.8639 -0.0892  0.3284
  233MOL0     C32044  10.603   8.460   5.510  0.0164 -0.1011 -0.4186
  233MOL0     C32045  10.698   8.261   5.397  0.2717  0.3949  0.1561
  233MOL0     C32046  10.829   8.273   5.480 -0.4312  0.3989  0.8321
  233MOL0     O32047  10.821   8.314   5.610  0.2991  0.0376 -0.0591
  233MOL0     C32048  10.923   8.290   5.692 -0.1820 -0.0511 -0.6713
  233MOL0     C32049  10.887   8.241   5.823 -0.2205 -0.6849  0.7494
  233MOL0     C32050  10.988   8.242   5.923 -0.1673 -0.5703 -0.1561
  233MOL0     C32051  11.114   8.278   5.899 -0.3258 -0.0128 -0.4814
  233MOL0     O32052  11.192   8.289   6.014  0.4755  0.2377  0.0609
  233MOL0     C32053  11.329   8.332   6.005 -0.2593 -0.4442 -0.2895
  233MOL0     C32054  11.384   8.330   6.151 -0.4304  0.8208  0.5021
  233MOL0     C32055  11.515   8.402   6.154  0.8216 -0.8647 -0.1372
  233MOL0     C32056  11.615   8.341   6.262  0.7323  0.9879 -0.5439
  233MOL0     C32057  11.767   8.385   6.251  0.6150 -0.8871  0.3523
  233MOL0     C32058  11.773   8.539   6.245  0.9878 -0.2295 -0.6569
  233MOL0     C32059  11.909   8.590   6.223 -0.0997  0.4822 -0.3339
  233MOL0     C32060  11.888   8.753   6.231 -0.1739  0.3628  0.1989
  233MOL0    Cl32061  11.890   8.807   6.396 -0.0301  0.1129  0.7361
  233MOL0     C32062  11.150   8.329   5.771  0.3897 -0.0395  1.0842
  233MOL0     C32063  11.055   8.335   5.664  0.1810  1.1673 -0.4064
  233MOL0     O32064  10.933   8.222   5.429  0.7816  0.5200 -0.7673
  233MOL0     C32065  10.686   8.168   5.293  0.6805  0.5134 -0.3127
  233MOL0     C32066  10.572   8.158   5.211  0.1606 -0.1050  0.7723
  233MOL0     N32067   9.991   7.643   4.996  0.8527 -0.1576 -0.0622
  233MOL0     N32068  10.000   7.558   4.891 -0.7417  0.2649 -0.2271
  233MOL0     C32069  10.158   8.498   4.705  1.5334 -0.4388  0.6521
  233MOL0     C32070  10.216   8.574   4.802 -0.5217  0.6550 -0.2039
  233MOL0     C32071  10.286   8.721   5.241 -0.5177 -0.0053 -0.1124
  233MOL0     C32072  10.424   8.711   5.230 -0.0209  1.2178 -0.3591
  233MOL0     C32073  10.509   8.777   5.316  0.2304 -0.6363 -1.3115
  233MOL0     C32074  10.466   8.871   5.411  0.9134 -0.8990  0.3101
  233MOL0     O32075  10.551   8.944   5.491  0.0562  0.1827 -0.2589
  233MOL0     C32076  10.691   8.960   5.437 -0.4480  0.0596  0.5271
  233MOL0     C32077  10.753   9.070   5.515 -0.0154 -0.0944 -0.2189
  233MOL0     C32078  10.692   9.203   5.488 -0.0148  0.4826 -0.1323
  233MOL0     C32079  10.737   9.281   5.369  1.0566 -0.1593 -0.5462
  233MOL0     C32080  10.882   9.285   5.363 -0.2126  0.3571  0.1970
  233MOL0     C32081  11.002   9.294   5.333 -0.5016  0.2946 -0.3002
  233MOL0     C32082  10.331   8.886   5.415  0.8274 -0.1273  0.1287
  233MOL0     C32083  10.240   8.819   5.338 -0.3081 -0.4830  0.4347
  233MOL0     C32084  10.091   8.846   5.379 -0.2684  0.2115 -0.1252
  233MOL0     H32085  10.118   8.410   5.076  1.6874 -0.6123 -0.7207
  233MOL0     H32086  10.012   8.256   4.906  1.4736 -0.8145  3.0431
  233MOL0     H32087  10.200   8.279   4.556 -1.5318  3.2299  2.3392
  233MOL0     H32088  10.061   8.310   4.457  3.6075  3.8215 -0.0124
  233MOL0     H32089  10.037   8.059   4.612  2.5453  0.8274  0.8060
  233MOL0     H32090  10.004   8.074   4.452  1.4374 -1.9418 -0.8494
  233MOL0     H32091  10.267   8.091   4.410  0.1912  0.3637  1.0590
  233MOL0     H32092  10.272   7.987   4.556 -0.6420 -1.6494 -0.9161
  233MOL0     H32093  10.066   7.876   4.371  1.1840 -2.3717 -1.6069
  233MOL0     H32094  10.215   7.895   4.294  2.1830  2.8382 -0.0676
  233MOL0     H32095  10.332   7.774   4.454  0.3284 -2.8082 -0.2671
  233MOL0     H32096  10.203   7.683   4.380 -0.9686  0.6781 -0.1920
  233MOL0     H32097  10.208   7.615   4.612  0.0414  0.2229  3.2558
  233MOL0     H32098  10.160   7.781   4.651 -2.4654 -1.2759  1.5750
  233MOL0     H32099   9.987   7.598   4.457 -3.9943 -0.2820  1.8237
  233MOL0     H32100   9.937   7.747   4.531 -1.3960 -1.7061 -1.9523
  233MOL0     H32101   9.855   7.534   4.636 -0.0031 -2.1750  0.1957
  233MOL0     H32102  10.019   7.478   4.656 -3.1879 -2.8449  2.5274
  233MOL0     H32103   9.913   7.853   4.751  2.2831  3.6962  1.8899
  233MOL0     H32104   9.936   7.873   5.138  0.0209  2.2251 -0.1603
  233MOL0     H32105   9.936   7.983   4.999 -1.5747 -0.7959 -1.5744
  233MOL0     H32106  10.184   7.845   5.098 -1.0316 -1.1803  1.3615
  233MOL0     H32107  10.160   7.915   4.945  0.4933  0.1370  0.2824
  233MOL0     H32108  10.114   8.154   5.069  0.3683  0.3846 -0.8529
  233MOL0     H32109  10.111   8.068   5.219  1.5743  5.6388  0.4749
  233MOL0     H32110  10.335   7.997   5.201 -0.4779  0.4518  1.4888
  233MOL0     H32111  10.358   8.079   5.045 -1.1631  1.9262  0.1739
  233MOL0     H32112  10.381   8.391   5.361 -1.4434 -2.9866  1.5237
  233MOL0     H32113  10.574   8.422   5.609 -1.1217 -0.8754 -1.0207
  233MOL0     H32114  10.518   8.527   5.497  2.2522  3.7361  2.5723
  233MOL0     H32115  10.698   8.511   5.526  0.4661 -0.3667 -2.0859
  233MOL0     H32116  10.788   8.214   5.856 -0.1660  1.3097  2.7607
  233MOL0     H32117  10.974   8.204   6.024  1.6738  0.8419  0.6974
  233MOL0     H32118  11.391   8.275   5.936  0.4327 -1.3054  1.0046
  233MOL0     H32119  11.330   8.438   5.976 -1.0968 -0.4666 -0.4247
  233MOL0     H32120  11.304   8.376   6.209 -0.7876  0.8837 -0.0326
  233MOL0     H32121  11.394   8.227   6.186  0.2661 -0.0261 -1.9875
  233MOL0     H32122  11.493   8.504   6.190  3.0634 -0.9055  1.5352
  233MOL0     H32123  11.557   8.406   6.054  1.6937  0.6897  0.2531
  233MOL0     H32124  11.617   8.233   6.250  1.4418  0.6906  1.7664
  233MOL0     H32125  11.567   8.363   6.358 -1.0476 -2.0073 -0.6444
  233MOL0     H32126  11.834   8.348   6.330  3.1842 -1.6524 -2.0410
  233MOL0     H32127  11.805   8.348   6.156  2.0699  0.5390  0.3396
  233MOL0     H32128  11.734   8.574   6.341  0.1483  0.2928 -1.1839
  233MOL0     H32129  11.714   8.580   6.163  1.0400  0.3595 -0.4084
  233MOL0     H32130  11.945   8.553   6.126 -1.9299 -1.1882 -0.4494
  233MOL0     H32131  11.980   8.545   6.293  0.2941  0.9116 -0.4525
  233MOL0     H32132  11.795   8.784   6.181 -0.5587 -0.1709  0.5683
  233MOL0     H32133  11.969   8.794   6.170 -0.1373 -2.6907 -2.0525
  233MOL0     H32134  11.252   8.361   5.753  1.4876 -2.5045  2.4593
  233MOL0     H32135  11.086   8.387   5.574 -2.0684  1.2452 -1.2010
  233MOL0     H32136  10.762   8.092   5.279 -1.9372 -2.6628  1.2913
  233MOL0     H32137  10.578   8.088   5.128  0.6079  3.8936 -2.9530
  233MOL0     H32138  10.156   8.532   4.602 -1.8855 -1.8192  0.1177
  233MOL0     H32139  10.262   8.671   4.782 -2.1685  1.6701  0.6569
  233MOL0     H32140  10.467   8.643   5.157 -1.9592 -0.0100 -0.4250
  233MOL0     H32141  10.616   8.763   5.298  0.9438 -0.8197  2.3106
  233MOL0     H32142  10.741   8.864   5.453 -4.3803 -1.9849  1.5848
  233MOL0     H32143  10.699   9.000   5.336  2.2310 -0.2783  0.5266
  233MOL0     H32144  10.861   9.070   5.496 -0.3909 -0.4135 -2.5882
  233MOL0     H32145  10.729   9.042   5.618  0.0336  0.9077  0.0714
  233MOL0     H32146  10.585   9.186   5.503  0.1565 -0.9302 -0.4006
  233MOL0     H32147  10.725   9.261   5.574  5.9567  0.5296 -2.0003
  233MOL0     H32148  10.699   9.383   5.372  1.2347 -0.0138 -2.0124
  233MOL0     H32149  10.694   9.236   5.279 -2.4322  1.3668  0.2006
  233MOL0     H32150  11.106   9.302   5.310  0.0073  0.6222  1.8462
  233MOL0     H32151  10.297   8.951   5.495 -2.2162 -1.5729  0.1521
  233MOL0     H32152  10.098   8.913   5.465  2.1198 -0.0651 -0.0347
  233MOL0     H32153  10.044   8.900   5.296 -0.0927  0.5921  0.0212
  233MOL0     H32154  10.043   8.750   5.401 -1.3708  0.0739 -2.7661
  234MOL0     O32155   1.876   5.601   5.582 -0.2593 -0.0777 -0.5226
  234MOL0     C32156   1.810   5.496   5.601 -0.7654  0.3537  0.5353
  234MOL0     O32157   1.837   5.405   5.694  0.5625 -0.3906 -1.0885
  234MOL0     C32158   1.967   5.388   5.741  0.9208 -0.4717 -0.5774
  234MOL0     C32159   1.981   5.374   5.885  0.0665  0.2928  0.1548
  234MOL0     C32160   2.115   5.366   5.931  0.5616  1.1904  0.8995
  234MOL0     C32161   2.225   5.356   5.852  0.3231  0.0223  0.0725
  234MOL0     O32162   2.341   5.328   5.905  0.8544  0.1514 -0.4504
  234MOL0     C32163   2.445   5.425   5.867 -0.4149  0.5584 -0.3719
  234MOL0     C32164   2.440   5.575   5.921 -1.0787  0.3997  0.9659
  234MOL0     C32165   2.346   5.666   5.843 -0.4439  0.5490  0.6712
  234MOL0     C32166   2.360   5.815   5.877  0.7897  0.5182  0.2056
  234MOL0     C32167   2.469   5.890   5.794 -1.0919 -0.2182 -0.3692
  234MOL0     C32168   2.508   6.027   5.851 -0.5145 -0.2143 -0.1288
  234MOL0     C32169   2.605   6.110   5.772 -0.3966  0.6276 -0.4917
  234MOL0     C32170   2.547   6.178   5.654  0.2048 -0.0119 -0.1746
  234MOL0     N32171   2.635   6.231   5.553 -0.7161  0.2565 -0.3764
  234MOL0     C32172   2.647   6.358   5.485 -0.3718 -0.3052 -1.1022
  234MOL0     C32173   2.760   6.349   5.413  0.2107 -0.7617 -0.2049
  234MOL0     C32174   2.824   6.462   5.344 -0.6953  0.8019  0.0629
  234MOL0     C32175   2.874   6.579   5.439 -0.8928 -0.1179 -0.8217
  234MOL0     C32176   2.806   6.705   5.396 -0.3479 -0.7945  0.7681
  234MOL0     C32177   2.850   6.818   5.485 -0.9580 -0.3017  1.1731
  234MOL0     O32178   2.862   6.774   5.623  0.0182 -0.9539  0.4466
  234MOL0     C32179   2.946   6.849   5.695  0.2151 -0.8159  0.9635
  234MOL0     C32180   2.992   6.977   5.672  0.0261 -0.4190  0.1061
  234MOL0     C32181   3.086   7.042   5.763  0.2007  0.6037  0.1096
  234MOL0     C32182   3.158   7.164   5.718 -0.5646  1.0020 -0.2040
  234MOL0     C32183   3.099   6.989   5.892 -0.6399  0.3931 -0.2116
  234MOL0     C32184   3.177   7.053   6.005 -0.8229  0.3784 -0.6334
  234MOL0     O32185   3.233   6.960   6.092  0.8745  0.4445 -0.4016
  234MOL0     C32186   3.291   7.000   6.219  0.5549 -0.0753  1.1113
  234MOL0     C32187   3.419   6.965   6.253  0.4422  0.2063  0.8553
  234MOL0     C32188   3.457   6.995   6.383 -0.2558 -0.0469 -0.1383
  234MOL0     C32189   3.369   7.059   6.477  0.1135  0.1696  0.6489
  234MOL0     O32190   3.432   7.070   6.599 -0.9237 -0.8146 -0.7362
  234MOL0     C32191   3.401   7.185   6.680 -0.3898  0.3950 -0.2576
  234MOL0     C32192   3.454   7.154   6.812 -0.4458  0.6502 -0.5117
  234MOL0     C32193   3.409   7.257   6.917 -0.4452  0.6879  0.4973
  234MOL0     C32194   3.269   7.237   6.971 -1.0603 -0.0033 -0.8314
  234MOL0     C32195   3.228   7.320   7.094 -0.5528 -0.4007  0.4738
  234MOL0     C32196   3.226   7.470   7.070  0.1271 -1.4322 -0.1339
  234MOL0     C32197   3.180   7.552   7.195 -0.2938  0.4072  0.7542
  234MOL0     C32198   3.282   7.553   7.307  0.1549 -0.5899 -0.2847
  234MOL0    Cl32199   3.454   7.566   7.264 -0.2271 -0.2035  0.2200
  234MOL0     C32200   3.248   7.109   6.434  0.8945  1.1306 -0.0013
  234MOL0     C32201   3.208   7.072   6.304  0.2103  0.5147  0.8354
  234MOL0     O32202   3.192   7.173   6.018  0.3785 -0.0125  0.5993
  234MOL0     C32203   3.044   6.859   5.913 -0.3766 -0.3321 -0.4631
  234MOL0     C32204   2.985   6.786   5.819 -0.1375 -0.0188  1.4689
  234MOL0     N32205   2.821   6.226   5.433  0.0939  0.0841  0.0281
  234MOL0     N32206   2.743   6.157   5.514 -0.3450  0.2467  1.0111
  234MOL0     C32207   2.203   5.367   5.714  0.5869 -0.8152  0.5662
  234MOL0     C32208   2.075   5.393   5.654 -0.8161 -1.0323  0.5871
  234MOL0     C32209   1.691   5.488   5.512  0.6244 -0.2850  0.1143
  234MOL0     C32210   1.671   5.591   5.417  0.2603  0.2093  0.0417
  234MOL0     C32211   1.555   5.592   5.335 -0.0426  0.1783 -0.2862
  234MOL0     C32212   1.456   5.491   5.340 -0.2430  0.3306  0.7342
  234MOL0     O32213   1.334   5.498   5.271  0.4436 -0.0265  0.6236
  234MOL0     C32214   1.278   5.620   5.230  0.4488  0.2003  0.3684
  234MOL0     C32215   1.122   5.622   5.249 -0.1134  0.0434 -0.2629
  234MOL0     C32216   1.043   5.760   5.220 -0.0774  0.8667  0.6052
  234MOL0     C32217   1.023   5.791   5.074  0.1372  1.0006 -0.0744
  234MOL0     C32218   0.986   5.681   4.986  0.1225  0.7565  0.1281
  234MOL0     C32219   0.960   5.594   4.913 -0.4453  0.4906  0.6669
  234MOL0     C32220   1.485   5.380   5.422 -0.0897  0.1733  0.5219
  234MOL0     C32221   1.597   5.379   5.512 -0.2210  0.4805 -0.1414
  234MOL0     C32222   1.601   5.261   5.606  0.2216  0.7406  0.2773
  234MOL0     H32223   1.903   5.373   5.960  0.2320  2.9587  0.4718
  234MOL0     H32224   2.127   5.372   6.039  4.3794  0.1838  0.6876
  234MOL0     H32225   2.466   5.437   5.760  1.0724  3.5339  0.1502
  234MOL0     H32226   2.536   5.390   5.916  1.2175  2.5418 -1.7696
  234MOL0     H32227   2.401   5.585   6.023  0.6736  0.0100  1.7015
  234MOL0     H32228   2.538   5.623   5.918 -0.9816  0.2364 -2.7972
  234MOL0     H32229   2.362   5.646   5.736  0.1426  0.9569  0.6760
  234MOL0     H32230   2.240   5.647   5.859 -0.7205 -0.0292 -1.5418
  234MOL0     H32231   2.267   5.867   5.854  0.2685 -0.7022 -0.5016
  234MOL0     H32232   2.381   5.810   5.984 -0.4536 -1.2743  0.4018
  234MOL0     H32233   2.441   5.902   5.689  2.5792 -0.2506 -1.4997
  234MOL0     H32234   2.557   5.825   5.802 -2.0116 -1.2573  2.5283
  234MOL0     H32235   2.414   6.082   5.846  1.3490  3.1139 -1.0587
  234MOL0     H32236   2.534   6.020   5.957  2.7658  3.1387 -0.5117
  234MOL0     H32237   2.683   6.038   5.743 -2.5443 -1.3602 -1.6769
  234MOL0     H32238   2.642   6.184   5.843 -2.3406  1.1755  0.0031
  234MOL0     H32239   2.479   6.103   5.614 -4.4755  2.8454  1.6447
  234MOL0     H32240   2.474   6.252   5.688 -1.3876  0.5004 -4.2263
  234MOL0     H32241   2.593   6.451   5.498  0.7985  0.7275 -3.1957
  234MOL0     H32242   2.763   6.498   5.260  0.5407  0.3063 -1.0676
  234MOL0     H32243   2.905   6.411   5.291 -1.1183  0.4331 -0.2413
  234MOL0     H32244   2.858   6.552   5.544 -1.5951 -1.5577 -1.2814
  234MOL0     H32245   2.981   6.585   5.419 -0.8577 -1.0963 -0.9512
  234MOL0     H32246   2.835   6.744   5.297  3.8029 -0.7201  1.8071
  234MOL0     H32247   2.698   6.700   5.407 -0.7047  2.6565  0.0841
  234MOL0     H32248   2.941   6.862   5.444 -1.7890 -1.9982 -3.0152
  234MOL0     H32249   2.780   6.902   5.490  0.7893  1.1666  1.8347
  234MOL0     H32250   2.947   7.028   5.587 -2.7466 -0.9581  1.1782
  234MOL0     H32251   3.266   7.143   5.713 -0.6869  0.6897 -2.2237
  234MOL0     H32252   3.122   7.255   5.767  0.5713  0.3452  1.9972
  234MOL0     H32253   3.123   7.172   5.615 -0.3310  2.5262 -0.1957
  234MOL0     H32254   3.481   6.908   6.186 -0.8078 -0.6865  0.4216
  234MOL0     H32255   3.558   6.961   6.402  0.4744 -1.5672 -5.2464
  234MOL0     H32256   3.457   7.272   6.644  3.4910  0.7863  5.3473
  234MOL0     H32257   3.294   7.201   6.697 -0.2786  0.3603  0.5102
  234MOL0     H32258   3.421   7.053   6.837  1.3701 -0.3716 -1.9977
  234MOL0     H32259   3.564   7.153   6.811 -0.3282 -0.9964  2.4882
  234MOL0     H32260   3.431   7.357   6.880  1.1217  0.4414  0.6826
  234MOL0     H32261   3.477   7.238   7.001 -0.5857 -1.6431  0.1601
  234MOL0     H32262   3.256   7.129   6.983 -3.6872  0.4404  1.4514
  234MOL0     H32263   3.207   7.277   6.890  0.1724 -0.1890 -1.8982
  234MOL0     H32264   3.126   7.286   7.111 -1.1225  0.3102 -1.2706
  234MOL0     H32265   3.293   7.301   7.180  0.8547  1.3205 -0.1582
  234MOL0     H32266   3.165   7.493   6.982  0.3917  0.4730  0.1358
  234MOL0     H32267   3.326   7.506   7.045  0.0396 -1.4092 -0.4549
  234MOL0     H32268   3.084   7.510   7.224 -2.7474  1.5181 -4.5265
  234MOL0     H32269   3.157   7.657   7.174  0.6221  0.6661  0.9990
  234MOL0     H32270   3.275   7.452   7.348 -0.4347 -0.3742  0.1551
  234MOL0     H32271   3.265   7.620   7.391  4.5647  1.4633 -0.7338
  234MOL0     H32272   3.178   7.139   6.511  1.0384  1.7023 -0.0945
  234MOL0     H32273   3.117   7.098   6.251 -0.0050  0.7746  1.3229
  234MOL0     H32274   3.046   6.795   6.001 -0.3316  0.0912 -0.1514
  234MOL0     H32275   2.938   6.694   5.852  0.4169 -0.3260  1.4045
  234MOL0     H32276   2.286   5.373   5.644 -0.5285  1.3473 -0.7071
  234MOL0     H32277   2.059   5.426   5.552  1.1845 -1.1648  0.1809
  234MOL0     H32278   1.744   5.668   5.399  0.7278 -0.3490 -0.4836
  234MOL0     H32279   1.540   5.671   5.262 -0.4133 -0.5343 -0.9937
  234MOL0     H32280   1.321   5.696   5.296  4.7367 -1.9630  0.4437
  234MOL0     H32281   1.319   5.655   5.135  2.1092 -0.3755  0.8306
  234MOL0     H32282   1.099   5.579   5.346  1.8283 -2.1542 -0.6834
  234MOL0     H32283   1.082   5.556   5.172 -1.4502  1.0587 -0.4690
  234MOL0     H32284   0.944   5.758   5.265  0.0513  3.1507  1.1149
  234MOL0     H32285   1.105   5.834   5.272 -0.2789 -0.7796  3.3446
  234MOL0     H32286   1.115   5.840   5.042  0.0423  1.2418  0.0264
  234MOL0     H32287   0.944   5.867   5.065  1.6850  2.9627  1.9289
  234MOL0     H32288   0.943   5.509   4.851  1.8130  1.4248 -1.3788
  234MOL0     H32289   1.423   5.292   5.412  1.1948 -0.8109  0.8836
  234MOL0     H32290   1.503   5.214   5.591  1.3810 -1.2548 -1.5550
  234MOL0     H32291   1.687   5.193   5.605  0.4806  1.0734 -0.4221
  234MOL0     H32292   1.603   5.299   5.709  1.3601  2.3570 -0.3024
  235MOL0     O32293  10.978   0.445   0.534  0.1646  0.5495 -0.7468
  235MOL0     C32294  11.049   0.400   0.444  0.3643 -0.1512  0.0732
  235MOL0     O32295  11.168   0.343   0.455  0.8108 -0.0636 -0.7000
  235MOL0     C32296  11.189   0.269   0.566 -0.3656  0.4408 -0.5635
  235MOL0     C32297  11.242   0.323   0.683  0.0177 -0.3742  0.6893
  235MOL0     C32298  11.279   0.245   0.792 -0.9416  0.2724  0.0594
  235MOL0     C32299  11.243   0.114   0.801  0.1239 -0.1876 -0.3696
  235MOL0     O32300  11.271   0.050   0.919  0.1194  0.5005  0.6543
  235MOL0     C32301  11.188  -0.064   0.937  0.2185 -0.5388  0.0883
  235MOL0     C32302  11.213  -0.125   1.086  0.4611  0.1839 -0.2321
  235MOL0     C32303  11.110  -0.234   1.119 -0.5444 -0.4460 -0.0010
  235MOL0     C32304  11.162  -0.289   1.259 -0.3479  0.3705  0.1200
  235MOL0     C32305  11.059  -0.388   1.322 -0.3505  0.9557 -0.5923
  235MOL0     C32306  11.088  -0.396   1.471 -0.1535 -0.0298  0.2619
  235MOL0     C32307  11.016  -0.507   1.541  0.3637  0.4473 -0.2894
  235MOL0     C32308  10.863  -0.498   1.572  0.6622  0.1854  0.2428
  235MOL0     N32309  10.799  -0.532   1.444 -0.6016  1.0226  0.2029
  235MOL0     C32310  10.785  -0.659   1.404 -0.0261 -0.1455  0.0078
  235MOL0     C32311  10.697  -0.657   1.303 -0.3797  0.6397  1.7672
  235MOL0     C32312  10.651  -0.779   1.237  0.4006 -0.0346  0.1796
  235MOL0     C32313  10.751  -0.817   1.130 -0.3643  0.3026 -0.5779
  235MOL0     C32314  10.710  -0.929   1.038  0.2639  0.6322 -0.2035
  235MOL0     C32315  10.824  -1.000   0.959 -0.3283 -0.3388 -0.2736
  235MOL0     O32316  10.919  -0.918   0.886 -0.1680  0.4127 -0.6610
  235MOL0     C32317  10.871  -0.829   0.803  0.7752  0.1252  0.4817
  235MOL0     C32318  10.969  -0.743   0.756 -0.6371 -0.3585  0.9938
  235MOL0     C32319  10.938  -0.638   0.669 -1.2065  0.6745 -0.3490
  235MOL0     C32320  11.051  -0.539   0.654 -0.2069  0.1236  0.3096
  235MOL0     C32321  10.818  -0.624   0.610 -0.3003 -0.4270 -0.5244
  235MOL0     C32322  10.789  -0.527   0.506 -0.1076  0.3361 -0.4946
  235MOL0     O32323  10.773  -0.595   0.386 -0.2598 -0.3296  0.1351
  235MOL0     C32324  10.698  -0.538   0.285  0.8658 -1.0612 -0.9065
  235MOL0     C32325  10.761  -0.456   0.199  1.0432 -0.0074 -0.3130
  235MOL0     C32326  10.688  -0.392   0.094 -0.7364  0.1780 -0.2021
  235MOL0     C32327  10.554  -0.409   0.080 -0.4227  0.3337 -0.5087
  235MOL0     O32328  10.503  -0.349  -0.028  0.7788  0.0653  0.3721
  235MOL0     C32329  10.367  -0.310  -0.029 -0.4497  0.8440 -0.1595
  235MOL0     C32330  10.331  -0.270  -0.164  0.2099  0.0862 -0.1580
  235MOL0     C32331  10.416  -0.176  -0.246 -0.6826  0.5134  0.4803
  235MOL0     C32332  10.406  -0.031  -0.204  0.0852  0.6512 -0.5495
  235MOL0     C32333  10.503   0.068  -0.286  0.6829 -0.1396 -0.2954
  235MOL0     C32334  10.510   0.201  -0.219 -0.1157  0.3515 -0.6603
  235MOL0     C32335  10.610   0.283  -0.290  0.4205  0.0677 -0.5185
  235MOL0     C32336  10.559   0.351  -0.417  0.3188 -0.5442  0.4261
  235MOL0    Cl32337  10.686   0.444  -0.498 -0.1006 -0.6157  0.7396
  235MOL0     C32338  10.485  -0.494   0.171 -0.0224  0.9318 -0.0272
  235MOL0     C32339  10.564  -0.563   0.273  0.3327 -0.0436  0.4402
  235MOL0     O32340  10.784  -0.408   0.528  0.1546 -0.2318  0.1773
  235MOL0     C32341  10.715  -0.707   0.648 -0.8014 -1.2547  0.2729
  235MOL0     C32342  10.738  -0.805   0.746  0.1350  0.3869  0.1957
  235MOL0     N32343  10.641  -0.529   1.299  0.4326 -0.0215  0.2416
  235MOL0     N32344  10.705  -0.457   1.385 -0.0948  0.5604 -1.3080
  235MOL0     C32345  11.172   0.061   0.686 -0.3322  0.5615 -0.1499
  235MOL0     C32346  11.144   0.139   0.572 -0.3098 -0.1191 -1.1498
  235MOL0     C32347  11.004   0.441   0.306  0.1667  0.3720  0.6655
  235MOL0     C32348  11.100   0.478   0.220  0.7459 -0.2599  0.8377
  235MOL0     C32349  11.064   0.521   0.096  0.5907 -0.3383  0.0621
  235MOL0     C32350  10.944   0.503   0.038 -0.3392 -0.4497  0.5483
  235MOL0     O32351  10.919   0.526  -0.092 -0.0348  0.2303 -0.0800
  235MOL0     C32352  11.014   0.563  -0.192 -0.1052  0.5130  0.1480
  235MOL0     C32353  11.115   0.443  -0.230  0.0322 -0.4360 -0.3167
  235MOL0     C32354  11.172   0.471  -0.368  0.3760  0.2957 -0.9331
  235MOL0     C32355  11.103   0.369  -0.474 -0.3748 -0.1116  0.2593
  235MOL0     C32356  11.184   0.377  -0.598 -0.3953 -0.1133 -0.0028
  235MOL0     C32357  11.251   0.374  -0.698 -0.0768  0.4784 -0.1966
  235MOL0     C32358  10.838   0.473   0.121 -1.0154 -0.1365 -0.6552
  235MOL0     C32359  10.869   0.436   0.261  0.3219 -0.1260 -0.4082
  235MOL0     C32360  10.756   0.407   0.353 -0.4014  0.4764 -0.0533
  235MOL0     H32361  11.278   0.425   0.681  0.5311 -0.5366 -2.4372
  235MOL0     H32362  11.333   0.286   0.877  1.4521  1.1369 -1.7659
  235MOL0     H32363  11.214  -0.141   0.864  1.0796  0.2690 -0.4704
  235MOL0     H32364  11.085  -0.026   0.940  0.3007 -0.2943 -0.1300
  235MOL0     H32365  11.313  -0.168   1.083  0.8684  1.1329 -0.7698
  235MOL0     H32366  11.209  -0.048   1.163 -0.5309 -1.6081  1.5884
  235MOL0     H32367  11.008  -0.196   1.125 -0.8808 -1.0559 -1.4222
  235MOL0     H32368  11.101  -0.310   1.041 -0.4743 -1.5177  1.0152
  235MOL0     H32369  11.252  -0.351   1.250 -2.1810 -3.0079  2.8697
  235MOL0     H32370  11.171  -0.203   1.326  2.7939 -0.9130  1.5313
  235MOL0     H32371  11.072  -0.487   1.277  3.3899  0.4393  1.1891
  235MOL0     H32372  10.953  -0.366   1.310 -1.3676 -1.9836  1.7062
  235MOL0     H32373  11.194  -0.394   1.495 -0.4485  3.8065  2.0206
  235MOL0     H32374  11.036  -0.305   1.503  0.3972  0.1609  0.6232
  235MOL0     H32375  11.068  -0.522   1.636  0.6818 -1.0760 -0.6831
  235MOL0     H32376  11.036  -0.598   1.484  0.5657  1.2844 -1.6125
  235MOL0     H32377  10.829  -0.577   1.640  0.3386 -2.7735 -3.0577
  235MOL0     H32378  10.840  -0.399   1.613  1.3580  1.4945 -2.3239
  235MOL0     H32379  10.835  -0.747   1.445  1.6743  0.4875 -0.5886
  235MOL0     H32380  10.550  -0.765   1.197 -0.7039 -2.7588  1.7321
  235MOL0     H32381  10.655  -0.866   1.304  1.0119 -0.1269  0.0344
  235MOL0     H32382  10.777  -0.731   1.068  3.6268 -0.6086 -0.4700
  235MOL0     H32383  10.839  -0.842   1.191 -0.8230 -1.0562 -0.4426
  235MOL0     H32384  10.661  -1.005   1.099  2.2164 -3.3383 -3.1265
  235MOL0     H32385  10.629  -0.896   0.972 -1.3351  1.4060  2.0012
  235MOL0     H32386  10.873  -1.045   1.046  0.8503 -2.1839 -1.8088
  235MOL0     H32387  10.777  -1.073   0.893  1.8113 -0.4506 -1.7864
  235MOL0     H32388  11.072  -0.743   0.790  0.2730  0.7002 -1.5418
  235MOL0     H32389  11.091  -0.513   0.753  0.0145  0.4434  0.1385
  235MOL0     H32390  11.018  -0.451   0.597 -3.7673  0.3189  2.3411
  235MOL0     H32391  11.142  -0.580   0.610  1.4522  3.2227  0.5556
  235MOL0     H32392  10.864  -0.432   0.225  0.5882  2.6071 -0.6740
  235MOL0     H32393  10.743  -0.329   0.025 -2.3912  0.8647 -0.9617
  235MOL0     H32394  10.289  -0.387  -0.021 -0.4449  0.9333  1.0031
  235MOL0     H32395  10.365  -0.229   0.044  0.7797  0.0281  0.8247
  235MOL0     H32396  10.325  -0.361  -0.224  1.6344 -1.4288  1.8736
  235MOL0     H32397  10.226  -0.238  -0.153 -0.6280 -1.9101 -1.7404
  235MOL0     H32398  10.396  -0.177  -0.354  0.2341  2.0046  0.2672
  235MOL0     H32399  10.519  -0.209  -0.229 -1.0135 -0.4544  0.7123
  235MOL0     H32400  10.429  -0.025  -0.097 -3.0392  0.2986  0.2432
  235MOL0     H32401  10.305   0.008  -0.214 -0.8708 -1.9262 -1.7355
  235MOL0     H32402  10.603   0.024  -0.278  0.2762 -0.8588  1.2096
  235MOL0     H32403  10.471   0.081  -0.390  1.6120 -0.4779 -0.6313
  235MOL0     H32404  10.547   0.195  -0.117  0.3543  0.4366 -0.8190
  235MOL0     H32405  10.413   0.252  -0.217 -0.5345 -0.4040 -1.1907
  235MOL0     H32406  10.705   0.230  -0.304  0.5692  0.9833 -3.8669
  235MOL0     H32407  10.638   0.364  -0.223 -0.6097 -0.3145  0.3910
  235MOL0     H32408  10.469   0.408  -0.393 -0.3697 -2.2023  2.0241
  235MOL0     H32409  10.537   0.273  -0.491 -0.4366  0.7581 -0.7764
  235MOL0     H32410  10.384  -0.518   0.139  1.6885 -2.5067 -3.5980
  235MOL0     H32411  10.515  -0.631   0.343 -0.8185  0.2097 -0.0861
  235MOL0     H32412  10.620  -0.684   0.602  0.5342  1.6282 -1.3060
  235MOL0     H32413  10.650  -0.859   0.780 -0.4293  2.9116  3.1629
  235MOL0     H32414  11.133  -0.040   0.698  3.1390 -0.8830  0.1421
  235MOL0     H32415  11.085   0.088   0.496  1.0144 -1.5395 -1.2449
  235MOL0     H32416  11.205   0.480   0.248  0.8905 -0.7115  0.3317
  235MOL0     H32417  11.140   0.560   0.029  0.1521  1.0555  0.3271
  235MOL0     H32418  10.953   0.582  -0.281 -1.5743  3.1920  1.6122
  235MOL0     H32419  11.062   0.656  -0.159 -2.6303  1.6979  0.7678
  235MOL0     H32420  11.066   0.346  -0.215 -0.2490  0.0298  2.3619
  235MOL0     H32421  11.201   0.443  -0.163  1.6142 -1.3460 -2.2497
  235MOL0     H32422  11.145   0.570  -0.406 -1.0061  0.4122  0.2381
  235MOL0     H32423  11.281   0.469  -0.364  0.4882  3.3399 -0.5636
  235MOL0     H32424  11.004   0.399  -0.510 -0.2686 -2.1723 -2.0064
  235MOL0     H32425  11.068   0.271  -0.439 -3.7094  1.4513  1.6288
  235MOL0     H32426  11.306   0.392  -0.788 -2.8454  3.4986 -1.4796
  235MOL0     H32427  10.732   0.469   0.099 -1.3636 -1.1028  1.0097
  235MOL0     H32428  10.660   0.411   0.300 -0.2469  3.7031 -0.2816
  235MOL0     H32429  10.764   0.309   0.401  0.9008  1.8050  2.6955
  235MOL0     H32430  10.752   0.480   0.435 -0.3233 -0.4011  0.7537
  236MOL0     O32431  11.388   1.560  11.196  0.5610 -0.6730  0.2878
  236MOL0     C32432  11.354   1.528  11.083 -0.0268  0.2239 -0.3778
  236MOL0     O32433  11.237   1.459  11.047 -1.1016  1.1791  0.0102
  236MOL0     C32434  11.138   1.448  11.131  0.2303 -0.0639 -0.4301
  236MOL0     C32435  11.091   1.319  11.160 -0.5549  0.1455 -0.0664
  236MOL0     C32436  11.005   1.306  11.276 -0.0309 -0.3024  0.1381
  236MOL0     C32437  10.941   1.417  11.331 -0.0556 -0.1537 -0.1997
  236MOL0     O32438  10.851   1.393  11.434 -0.3689  0.9583  1.0702
  236MOL0     C32439  10.765   1.501  11.484  0.2770 -0.4143  0.3181
  236MOL0     C32440  10.658   1.429  11.560  0.6597 -0.7001 -0.4251
  236MOL0     C32441  10.526   1.427  11.481  0.2330 -0.4190  0.6151
  236MOL0     C32442  10.453   1.295  11.473  0.0335 -0.7831 -0.4213
  236MOL0     C32443  10.427   1.210  11.599  0.2705 -0.7863 -0.6863
  236MOL0     C32444  10.332   1.293  11.691  0.5730 -0.0714 -0.3415
  236MOL0     C32445  10.263   1.192  11.790 -0.1051  0.4198 -0.2650
  236MOL0     C32446  10.214   1.279  11.909 -0.0068 -0.2688  0.5466
  236MOL0     N32447  10.160   1.195  12.017 -0.4782 -0.4716  0.8966
  236MOL0     C32448  10.223   1.090  12.077 -0.1574  0.4233  0.3839
  236MOL0     C32449  10.146   1.061  12.184  0.2802 -0.6032 -0.3149
  236MOL0     C32450  10.199   0.970  12.295  0.8615  0.2622 -0.0877
  236MOL0     C32451  10.105   0.854  12.318  0.2339  0.0793 -0.9480
  236MOL0     C32452  10.105   0.743  12.215 -0.6193 -0.1507  0.0287
  236MOL0     C32453   9.993   0.639  12.238 -0.4140  0.4645 -0.8968
  236MOL0     O32454   9.869   0.699  12.215  0.4906 -0.0495 -0.2890
  236MOL0     C32455   9.759   0.634  12.273 -0.6799  1.1271  0.2126
  236MOL0     C32456   9.764   0.526  12.349  0.3068  0.5716  0.2184
  236MOL0     C32457   9.653   0.477  12.416  0.2433  0.1184 -0.6486
  236MOL0     C32458   9.679   0.366  12.509  0.8987  0.4789 -0.3794
  236MOL0     C32459   9.527   0.539  12.395 -0.2495  0.5867 -0.0043
  236MOL0     C32460   9.402   0.492  12.450 -0.1223  0.6027 -0.2370
  236MOL0     O32461   9.385   0.357  12.460 -0.0608  0.8480 -0.3531
  236MOL0     C32462   9.272   0.312  12.516  1.0405  0.2914 -0.1208
  236MOL0     C32463   9.287   0.229  12.627  0.1298  0.1468  0.1741
  236MOL0     C32464   9.176   0.169  12.690  0.0606 -0.2620 -0.1260
  236MOL0     C32465   9.047   0.180  12.632  1.0216  0.0734  0.5084
  236MOL0     O32466   8.934   0.113  12.692 -0.7936  0.0204 -0.2436
  236MOL0     C32467   8.933  -0.025  12.713 -0.0390  0.3435  0.3116
  236MOL0     C32468   8.812  -0.073  12.639  0.1080  0.8353  0.8289
  236MOL0     C32469   8.728  -0.193  12.702 -0.0928  1.0578  0.2524
  236MOL0     C32470   8.807  -0.327  12.691  0.7281 -0.2814  0.2054
  236MOL0     C32471   8.721  -0.428  12.779 -1.0969  0.8845  1.2963
  236MOL0     C32472   8.733  -0.567  12.715 -0.9752 -0.0274  0.7945
  236MOL0     C32473   8.683  -0.675  12.802  0.5851  0.1330 -0.9925
  236MOL0     C32474   8.740  -0.814  12.750 -0.8184  0.1031  0.0030
  236MOL0    Cl32475   8.918  -0.822  12.774 -0.1598 -0.0642 -0.2359
  236MOL0     C32476   9.038   0.265  12.524 -0.5585 -0.4048 -0.1745
  236MOL0     C32477   9.145   0.336  12.463  1.0914 -0.4437 -0.2813
  236MOL0     O32478   9.318   0.578  12.489  0.0504 -0.4892 -0.1029
  236MOL0     C32479   9.524   0.643  12.303 -0.0568  0.2722  0.1642
  236MOL0     C32480   9.643   0.689  12.247  0.4394  0.0575 -0.7523
  236MOL0     N32481  10.048   1.157  12.196  0.4576  0.1281  0.5209
  236MOL0     N32482  10.056   1.232  12.092 -0.2523 -0.5827  1.0343
  236MOL0     C32483  10.975   1.547  11.293 -0.3867  0.6883 -0.3449
  236MOL0     C32484  11.079   1.559  11.195  0.0860  0.0604 -0.1210
  236MOL0     C32485  11.433   1.571  10.965  0.4299 -0.2827 -0.4551
  236MOL0     C32486  11.362   1.588  10.846  0.7280 -0.4736 -0.0323
  236MOL0     C32487  11.420   1.634  10.732  0.5657  0.0908  0.9750
  236MOL0     C32488  11.563   1.655  10.728 -0.0331  0.1922  0.2045
  236MOL0     O32489  11.631   1.693  10.613  0.3412  0.7935  0.6729
  236MOL0     C32490  11.561   1.703  10.489  0.5320 -0.0696 -0.1632
  236MOL0     C32491  11.660   1.697  10.375 -0.4740 -0.5728  1.1653
  236MOL0     C32492  11.598   1.685  10.244 -0.1123 -0.1773 -0.3753
  236MOL0     C32493  11.715   1.702  10.143  0.0957 -0.1591 -0.2518
  236MOL0     C32494  11.677   1.635  10.019 -0.3315 -1.0233  0.3342
  236MOL0     C32495  11.654   1.580   9.915 -0.0564  0.0245  0.6557
  236MOL0     C32496  11.637   1.630  10.845 -0.5484 -0.2986  0.1109
  236MOL0     C32497  11.577   1.594  10.965  0.8437  0.5892 -0.8429
  236MOL0     C32498  11.666   1.552  11.074  0.6852  0.5383 -0.2850
  236MOL0     H32499  11.152   1.240  11.117  0.4260  2.3187 -3.0102
  236MOL0     H32500  10.985   1.204  11.307 -0.0275 -0.5803 -0.7274
  236MOL0     H32501  10.733   1.566  11.403 -3.1479  1.2751  2.7594
  236MOL0     H32502  10.814   1.566  11.556 -3.0032  0.8851  1.5778
  236MOL0     H32503  10.682   1.325  11.584  0.1931 -1.0305 -1.3314
  236MOL0     H32504  10.653   1.477  11.658  2.9839  0.0835 -0.6190
  236MOL0     H32505  10.462   1.494  11.540  1.2690  0.4513  0.7853
  236MOL0     H32506  10.546   1.489  11.393  1.6125  2.2302  2.6559
  236MOL0     H32507  10.354   1.319  11.432 -0.1657 -0.7271  0.0813
  236MOL0     H32508  10.507   1.231  11.402  1.7611 -0.9320  0.9705
  236MOL0     H32509  10.528   1.186  11.634  1.4943  0.6862 -2.9283
  236MOL0     H32510  10.374   1.118  11.571 -0.4990 -0.0313 -1.8322
  236MOL0     H32511  10.391   1.365  11.748 -0.5470 -0.5589  1.5091
  236MOL0     H32512  10.253   1.352  11.644  1.2525  1.2304  0.1101
  236MOL0     H32513  10.333   1.125  11.840 -0.8708  0.3187  0.6789
  236MOL0     H32514  10.181   1.150  11.732 -0.3985  0.8199 -0.1459
  236MOL0     H32515  10.298   1.329  11.958  3.2125 -3.3970 -1.2701
  236MOL0     H32516  10.128   1.336  11.871  1.3425  2.1016  0.8240
  236MOL0     H32517  10.308   1.034  12.040 -1.6267 -2.1402  0.6523
  236MOL0     H32518  10.185   1.033  12.383 -2.7073 -1.2357  0.5786
  236MOL0     H32519  10.306   0.950  12.286  0.7521  0.6719 -4.8580
  236MOL0     H32520  10.127   0.818  12.420 -0.9305  1.2469 -0.2493
  236MOL0     H32521  10.003   0.894  12.317 -0.5089 -1.7039 -2.4560
  236MOL0     H32522  10.078   0.779  12.115  1.2075  1.8071  0.1815
  236MOL0     H32523  10.199   0.687  12.210 -2.2732 -3.0409 -1.0834
  236MOL0     H32524  10.005   0.553  12.170  0.5246 -0.1375  0.0054
  236MOL0     H32525  10.004   0.607  12.342 -1.1041  0.4427 -0.8250
  236MOL0     H32526   9.855   0.468  12.366  0.6274  0.1142 -2.6208
  236MOL0     H32527   9.776   0.373  12.558  0.5160  0.3347  0.4245
  236MOL0     H32528   9.679   0.270  12.457 -2.9783 -0.3835  0.8680
  236MOL0     H32529   9.611   0.370  12.595 -1.2471  2.6057 -2.0451
  236MOL0     H32530   9.384   0.205  12.668 -1.4746 -1.2699  3.6092
  236MOL0     H32531   9.186   0.114  12.782 -0.2277 -1.3671 -0.7378
  236MOL0     H32532   9.028  -0.069  12.679  0.1444 -1.7397  3.1023
  236MOL0     H32533   8.929  -0.054  12.819 -0.3235  0.6059  0.3719
  236MOL0     H32534   8.736   0.005  12.641 -0.8045  0.0639 -1.2095
  236MOL0     H32535   8.831  -0.085  12.532  3.8568 -1.0134  1.5430
  236MOL0     H32536   8.635  -0.208  12.647  0.2342  0.5134 -0.1622
  236MOL0     H32537   8.684  -0.175  12.800  0.9084  2.0578  0.5385
  236MOL0     H32538   8.913  -0.331  12.719  0.7876 -0.8391 -0.1072
  236MOL0     H32539   8.805  -0.358  12.587  1.3918 -0.9625  0.3900
  236MOL0     H32540   8.754  -0.424  12.883  1.3120  3.0277  0.5482
  236MOL0     H32541   8.614  -0.408  12.768 -1.3296  1.2418  3.7111
  236MOL0     H32542   8.836  -0.590  12.688 -1.4846 -2.4012  0.5941
  236MOL0     H32543   8.687  -0.567  12.616 -0.8787  2.5673  0.6794
  236MOL0     H32544   8.574  -0.680  12.807  0.6059  0.8430  1.0047
  236MOL0     H32545   8.724  -0.666  12.903  2.0429 -3.0312 -1.1637
  236MOL0     H32546   8.697  -0.845  12.654 -1.1343 -4.2187  1.3465
  236MOL0     H32547   8.691  -0.887  12.814 -2.5500  1.0777 -0.1543
  236MOL0     H32548   8.943   0.262  12.472 -0.4816  0.6497 -0.3916
  236MOL0     H32549   9.128   0.406  12.381  1.2667 -0.3635 -0.2495
  236MOL0     H32550   9.437   0.708  12.306  0.8873  1.5713  0.0788
  236MOL0     H32551   9.640   0.771  12.176 -4.9335 -0.4944 -1.6049
  236MOL0     H32552  10.945   1.635  11.349  1.1844  2.4636 -2.1526
  236MOL0     H32553  11.103   1.662  11.172  0.2884  0.5030  1.8805
  236MOL0     H32554  11.256   1.568  10.844  0.7521 -0.5957 -0.1456
  236MOL0     H32555  11.359   1.640  10.642  0.7694 -3.8209  0.3898
  236MOL0     H32556  11.500   1.615  10.469 -1.2598  0.9137  0.7110
  236MOL0     H32557  11.489   1.785  10.496 -0.5285 -1.0827  1.6863
  236MOL0     H32558  11.723   1.609  10.389  0.0115 -0.2090  1.2927
  236MOL0     H32559  11.721   1.787  10.384 -0.5210 -0.6265  2.1189
  236MOL0     H32560  11.552   1.588  10.228  1.3622 -0.7570 -1.3117
  236MOL0     H32561  11.531   1.772  10.240  2.0679  1.6448  0.4769
  236MOL0     H32562  11.807   1.655  10.179  1.4269  1.6666 -1.1051
  236MOL0     H32563  11.734   1.808  10.123  0.1527 -0.2943 -0.9437
  236MOL0     H32564  11.647   1.513   9.831  1.0644 -0.0489  0.5992
  236MOL0     H32565  11.745   1.637  10.833 -0.4323 -0.1808  1.1913
  236MOL0     H32566  11.768   1.588  11.058  2.7951 -4.0843  1.0804
  236MOL0     H32567  11.617   1.569  11.171 -2.1881 -1.6963 -1.1850
  236MOL0     H32568  11.664   1.443  11.062 -1.1561 -0.3677  5.1115
  237MOL0     O32569  11.508   7.829   1.653  0.0441 -0.0783  0.4316
  237MOL0     C32570  11.531   7.924   1.724 -1.4311  0.7384  1.0164
  237MOL0     O32571  11.448   8.030   1.739  0.0818  0.1134  0.0397
  237MOL0     C32572  11.427   8.062   1.869 -0.1687 -0.0154  0.1820
  237MOL0     C32573  11.394   7.964   1.966  0.2943 -0.6618  0.7985
  237MOL0     C32574  11.378   8.018   2.103 -1.0912  0.7315 -0.2336
  237MOL0     C32575  11.386   8.149   2.132 -0.4763 -0.4790 -0.4513
  237MOL0     O32576  11.341   8.207   2.261 -0.0593 -0.7458  0.5606
  237MOL0     C32577  11.373   8.127   2.381 -0.3028 -0.0070 -0.6674
  237MOL0     C32578  11.301   8.211   2.484  0.3858  0.1599  0.0376
  237MOL0     C32579  11.323   8.167   2.636  0.1863 -0.8322  0.1101
  237MOL0     C32580  11.215   8.234   2.716 -0.5875  0.1177  0.2123
  237MOL0     C32581  11.247   8.266   2.859  0.2087 -0.6306 -0.1826
  237MOL0     C32582  11.287   8.146   2.952 -0.3915 -0.0858  0.1477
  237MOL0     C32583  11.344   8.191   3.083 -0.2330  0.3325  0.2819
  237MOL0     C32584  11.418   8.077   3.162  0.3591 -0.2117 -0.3365
  237MOL0     N32585  11.482   8.150   3.279  0.1984  0.5728 -0.0224
  237MOL0     C32586  11.426   8.135   3.402 -0.4659 -0.1984  0.1093
  237MOL0     C32587  11.509   8.206   3.479 -0.6927  0.3818 -0.6999
  237MOL0     C32588  11.508   8.222   3.626  0.6353  0.9059  0.5289
  237MOL0     C32589  11.527   8.089   3.700 -0.7781  0.2583 -1.7531
  237MOL0     C32590  11.569   8.137   3.839  1.4810  0.5463 -1.1855
  237MOL0     C32591  11.593   8.018   3.934  1.6124 -0.6788 -0.5514
  237MOL0     O32592  11.544   8.054   4.064 -0.4784 -0.5319  0.5003
  237MOL0     C32593  11.548   7.960   4.162  0.6562  0.2103  0.7037
  237MOL0     C32594  11.619   7.845   4.157 -0.6821  0.1655 -0.6074
  237MOL0     C32595  11.585   7.748   4.251 -0.4267 -0.0569  0.7098
  237MOL0     C32596  11.672   7.625   4.235  0.2134 -0.4413  0.0126
  237MOL0     C32597  11.480   7.777   4.343  0.3126  0.1567  0.4147
  237MOL0     C32598  11.440   7.673   4.440 -0.7810  0.2685 -0.3436
  237MOL0     O32599  11.413   7.545   4.396  0.7600 -0.1714 -0.4367
  237MOL0     C32600  11.383   7.448   4.481 -0.3357  0.5160 -0.1733
  237MOL0     C32601  11.398   7.321   4.416  0.6649 -1.5404 -0.5427
  237MOL0     C32602  11.370   7.206   4.498  0.2510  0.7626 -0.8534
  237MOL0     C32603  11.321   7.215   4.624 -0.2625 -0.6335  0.3160
  237MOL0     O32604  11.286   7.103   4.687  0.3283 -0.0360  0.2602
  237MOL0     C32605  11.298   7.106   4.828  0.1964  0.2827  0.2586
  237MOL0     C32606  11.304   6.949   4.863 -0.1134 -0.0852 -0.6028
  237MOL0     C32607  11.425   6.881   4.784 -0.4430 -0.0033  0.0341
  237MOL0     C32608  11.416   6.721   4.805  0.5547 -0.2230  0.8141
  237MOL0     C32609  11.524   6.653   4.731  0.4246  0.2041 -0.5232
  237MOL0     C32610  11.524   6.501   4.758 -0.1231  0.7471  1.0543
  237MOL0     C32611  11.396   6.433   4.709 -0.5283 -0.4604  0.8387
  237MOL0     C32612  11.347   6.442   4.563  0.4400  0.4508  0.3824
  237MOL0    Cl32613  11.182   6.374   4.547  0.6292  0.2687 -0.2900
  237MOL0     C32614  11.313   7.346   4.683  0.9755 -0.3827 -0.5855
  237MOL0     C32615  11.337   7.461   4.611 -0.5243 -0.0982 -0.3632
  237MOL0     O32616  11.457   7.709   4.557 -0.7638  0.0243 -0.0531
  237MOL0     C32617  11.420   7.899   4.350  0.1889  0.6697 -0.0169
  237MOL0     C32618  11.453   7.996   4.258 -0.1839  0.4250 -0.6019
  237MOL0     N32619  11.616   8.251   3.401 -0.2478  0.4700 -0.1001
  237MOL0     N32620  11.606   8.208   3.281 -0.5133 -0.3744  0.6031
  237MOL0     C32621  11.413   8.246   2.031  0.3939 -0.4522 -0.0999
  237MOL0     C32622  11.421   8.196   1.897 -1.1129  1.7896 -0.3688
  237MOL0     C32623  11.678   7.949   1.762 -0.8904  0.0946  0.4385
  237MOL0     C32624  11.722   8.081   1.781  0.4252 -0.3914 -0.1128
  237MOL0     C32625  11.843   8.105   1.834  0.5711  0.5063  0.8577
  237MOL0     C32626  11.930   8.000   1.873 -0.4025 -0.0895  0.2008
  237MOL0     O32627  12.060   8.019   1.916  0.7556  0.7135  0.2251
  237MOL0     C32628  12.094   8.139   1.974 -0.0995  0.1158 -0.1081
  237MOL0     C32629  12.224   8.110   2.066  0.0567  0.0168  0.1494
  237MOL0     C32630  12.327   8.011   1.999 -0.3631 -0.3161 -0.2389
  237MOL0     C32631  12.414   7.947   2.102  0.1346  0.1737 -0.1256
  237MOL0     C32632  12.521   7.875   2.040 -0.1267  0.4937 -0.0357
  237MOL0     C32633  12.617   7.810   1.997  0.2931  0.4722  1.1725
  237MOL0     C32634  11.900   7.877   1.836 -0.3118  0.2856  0.1778
  237MOL0     C32635  11.777   7.849   1.776  0.3098  0.0236  0.8272
  237MOL0     C32636  11.748   7.704   1.734 -0.1415 -0.3884 -0.0308
  237MOL0     H32637  11.378   7.858   1.952 -3.0834  0.1328 -3.5237
  237MOL0     H32638  11.362   7.950   2.186  2.3956  0.2597  0.2104
  237MOL0     H32639  11.483   8.125   2.389 -0.3500  0.0487  0.0670
  237MOL0     H32640  11.333   8.026   2.378  1.4438 -0.8294  1.2523
  237MOL0     H32641  11.345   8.311   2.478  0.2133  0.3184  1.1152
  237MOL0     H32642  11.194   8.217   2.464  0.2162 -0.4600  0.7283
  237MOL0     H32643  11.310   8.060   2.649 -2.0222 -1.0121 -2.6916
  237MOL0     H32644  11.424   8.193   2.670  0.6009 -0.2295 -1.4635
  237MOL0     H32645  11.183   8.324   2.663 -0.0004 -1.9484 -4.0969
  237MOL0     H32646  11.131   8.163   2.716 -1.6217  1.3052  0.5186
  237MOL0     H32647  11.161   8.320   2.898  1.9647  1.8650  0.4525
  237MOL0     H32648  11.328   8.340   2.858 -0.6955  0.3751 -0.5852
  237MOL0     H32649  11.194   8.090   2.970 -0.1640 -0.5622 -0.1370
  237MOL0     H32650  11.356   8.082   2.897 -0.3664  1.8145 -2.1704
  237MOL0     H32651  11.279   8.259   3.139 -3.1079 -3.3979  1.8939
  237MOL0     H32652  11.431   8.250   3.053  0.1164 -1.2633 -2.1396
  237MOL0     H32653  11.346   8.002   3.193  2.4754 -1.7506  1.1190
  237MOL0     H32654  11.495   8.029   3.101 -0.9711 -1.0499 -1.4206
  237MOL0     H32655  11.330   8.091   3.428 -1.2275  0.4584 -1.4661
  237MOL0     H32656  11.414   8.265   3.661  0.3916  1.0885 -0.3282
  237MOL0     H32657  11.575   8.304   3.652 -1.4270  2.5860  0.8640
  237MOL0     H32658  11.437   8.029   3.716 -1.2711  1.4456  0.3456
  237MOL0     H32659  11.612   8.025   3.672 -1.3558 -1.8555  0.9314
  237MOL0     H32660  11.659   8.200   3.833  1.2262  1.1325  0.5187
  237MOL0     H32661  11.488   8.203   3.872  0.5082  1.0131 -4.1758
  237MOL0     H32662  11.552   7.925   3.894 -1.0274  1.1440 -2.4408
  237MOL0     H32663  11.699   7.995   3.950  1.3082 -0.8257  1.4884
  237MOL0     H32664  11.692   7.813   4.083  2.8486  0.5815  2.3829
  237MOL0     H32665  11.778   7.649   4.222  0.2382 -0.8211 -0.5284
  237MOL0     H32666  11.636   7.578   4.144  0.4021 -2.8901  1.1260
  237MOL0     H32667  11.656   7.556   4.319 -2.7785 -0.2600 -0.3036
  237MOL0     H32668  11.414   7.303   4.310 -0.4230  0.5187 -1.0913
  237MOL0     H32669  11.370   7.114   4.439  0.4078  0.7589 -0.8478
  237MOL0     H32670  11.387   7.160   4.863  1.1262  0.6000 -2.3612
  237MOL0     H32671  11.212   7.152   4.877  1.3344  0.7646  1.8814
  237MOL0     H32672  11.322   6.936   4.970 -1.3125  1.1211 -0.2351
  237MOL0     H32673  11.207   6.914   4.827 -0.7669  1.8938 -0.8930
  237MOL0     H32674  11.516   6.918   4.832 -1.3377 -0.7808  2.5130
  237MOL0     H32675  11.418   6.907   4.678 -2.9757 -0.9359 -0.1041
  237MOL0     H32676  11.323   6.678   4.766  1.6806  0.0164 -2.4788
  237MOL0     H32677  11.420   6.700   4.912  1.9378  2.0066  1.2594
  237MOL0     H32678  11.518   6.670   4.623  1.5131  1.4360 -0.4044
  237MOL0     H32679  11.611   6.705   4.771 -2.1885  2.6570  2.6170
  237MOL0     H32680  11.544   6.489   4.865  2.4355  4.6206  1.2084
  237MOL0     H32681  11.606   6.456   4.703 -1.5696 -0.2675 -0.3705
  237MOL0     H32682  11.319   6.468   4.778 -1.0003 -0.8268  0.5061
  237MOL0     H32683  11.405   6.334   4.754 -2.8412 -0.6781  0.9406
  237MOL0     H32684  11.419   6.406   4.488  2.7138  4.8665  0.1404
  237MOL0     H32685  11.343   6.547   4.535  1.3454  0.3476 -0.1750
  237MOL0     H32686  11.289   7.335   4.788  1.1317  1.9449 -0.2532
  237MOL0     H32687  11.324   7.556   4.662  0.1966 -0.4176  0.4602
  237MOL0     H32688  11.348   7.919   4.429  1.1512  0.4205  0.9491
  237MOL0     H32689  11.411   8.095   4.272 -0.6974  0.1418 -0.0924
  237MOL0     H32690  11.396   8.351   2.049  3.2415  0.4192 -1.8169
  237MOL0     H32691  11.434   8.271   1.820  3.5855  3.3942  1.6101
  237MOL0     H32692  11.659   8.167   1.765 -0.0641 -0.8624 -0.7546
  237MOL0     H32693  11.875   8.202   1.870  3.3950  0.9106 -2.2496
  237MOL0     H32694  12.120   8.209   1.894  0.2701  0.2537  0.1297
  237MOL0     H32695  12.015   8.183   2.035 -0.4639 -0.9208  0.1856
  237MOL0     H32696  12.181   8.063   2.155 -0.6905 -1.1089 -0.7700
  237MOL0     H32697  12.272   8.205   2.088  0.8554  0.8424 -4.2529
  237MOL0     H32698  12.275   7.930   1.946 -2.5344  0.3800  0.7367
  237MOL0     H32699  12.388   8.068   1.928  0.5018  0.2292  0.9074
  237MOL0     H32700  12.358   7.883   2.171 -0.5763 -1.0579 -1.7742
  237MOL0     H32701  12.461   8.027   2.159 -0.8829  1.6982 -1.3282
  237MOL0     H32702  12.694   7.753   1.949 -0.4464  0.7162 -0.3522
  237MOL0     H32703  11.962   7.790   1.854  0.2005  0.0165 -2.4116
  237MOL0     H32704  11.762   7.703   1.625  1.3345  3.3399 -0.0223
  237MOL0     H32705  11.832   7.641   1.764  1.5772  0.5211 -2.5725
  237MOL0     H32706  11.655   7.665   1.777 -0.4280  1.5601  1.2234
  238MOL0     O32707  10.357   8.877   1.978 -0.3609 -1.0144 -0.0582
  238MOL0     C32708  10.371   8.770   1.923  0.2406 -1.0639  0.4325
  238MOL0     O32709  10.430   8.753   1.794 -0.2588  0.8054  0.3416
  238MOL0     C32710  10.468   8.855   1.720  0.6699  0.6243  0.5716
  238MOL0     C32711  10.400   8.978   1.708 -0.0811  0.4903 -0.8679
  238MOL0     C32712  10.454   9.075   1.623 -0.4066 -0.2382 -0.0528
  238MOL0     C32713  10.559   9.053   1.534 -0.3713  0.5432  0.8241
  238MOL0     O32714  10.609   9.162   1.467 -0.6229  0.1433  0.5165
  238MOL0     C32715  10.672   9.127   1.336  0.8561 -0.6035  0.1003
  238MOL0     C32716  10.782   9.233   1.314  0.9159  0.7109 -0.5557
  238MOL0     C32717  10.855   9.208   1.183  0.3670  0.1307  0.1374
  238MOL0     C32718  10.923   9.323   1.124 -0.3001 -0.1414 -0.4133
  238MOL0     C32719  11.024   9.398   1.217  0.0231  0.2419  0.4676
  238MOL0     C32720  11.141   9.302   1.262  1.1316  0.1840 -0.7147
  238MOL0     C32721  11.244   9.383   1.355 -0.4458  0.2347 -1.0620
  238MOL0     C32722  11.203   9.365   1.501 -0.4076 -0.5971  0.8634
  238MOL0     N32723  11.282   9.452   1.588  0.8038  0.1053 -0.2604
  238MOL0     C32724  11.268   9.469   1.728  0.9968 -1.3665 -0.0744
  238MOL0     C32725  11.352   9.566   1.763 -0.0138  0.0299 -0.1066
  238MOL0     C32726  11.373   9.613   1.904  0.6627 -0.2564 -0.2166
  238MOL0     C32727  11.460   9.508   1.982  0.5573  0.1668  0.8596
  238MOL0     C32728  11.495   9.549   2.127 -0.0426  0.1709 -0.9734
  238MOL0     C32729  11.598   9.471   2.197 -0.7165 -0.0881  1.4679
  238MOL0     O32730  11.536   9.341   2.242 -0.1150  0.1812  0.0108
  238MOL0     C32731  11.449   9.331   2.343  0.1098  0.1112 -0.4253
  238MOL0     C32732  11.359   9.229   2.339  0.1177 -0.5141 -0.5094
  238MOL0     C32733  11.248   9.218   2.429 -0.0361  0.3350  0.3167
  238MOL0     C32734  11.161   9.086   2.419 -0.4341 -0.2833 -0.6426
  238MOL0     C32735  11.236   9.322   2.532  0.0930 -0.3121  0.6613
  238MOL0     C32736  11.132   9.321   2.632  0.0731  0.3294 -0.6420
  238MOL0     O32737  11.166   9.400   2.738 -0.3900  1.0425  0.2464
  238MOL0     C32738  11.086   9.380   2.849  0.1302 -0.4788 -1.2227
  238MOL0     C32739  11.161   9.369   2.972  0.3733  0.4973  0.6873
  238MOL0     C32740  11.093   9.331   3.090  0.6960  0.2477 -0.9269
  238MOL0     C32741  10.957   9.332   3.099  0.2448 -0.3215 -0.0937
  238MOL0     O32742  10.884   9.300   3.210 -0.1914  0.7096  0.7053
  238MOL0     C32743  10.938   9.334   3.338  0.1241 -0.2709 -0.1861
  238MOL0     C32744  10.829   9.313   3.443  0.1359 -0.2238 -1.1993
  238MOL0     C32745  10.875   9.319   3.590 -0.3796  0.8276 -0.4656
  238MOL0     C32746  10.743   9.296   3.679  1.1477 -0.1565 -0.1502
  238MOL0     C32747  10.738   9.149   3.730 -0.4008  0.8733 -0.6278
  238MOL0     C32748  10.658   9.150   3.863 -0.5478  0.1121 -0.0895
  238MOL0     C32749  10.643   9.007   3.937  0.5952 -0.0533 -0.4449
  238MOL0     C32750  10.760   8.930   3.993  0.1001  0.7032 -0.0593
  238MOL0    Cl32751  10.694   8.794   4.078 -0.2160 -0.5261  0.5254
  238MOL0     C32752  10.887   9.349   2.982  0.5578 -0.1801 -0.1449
  238MOL0     C32753  10.946   9.372   2.860 -0.0314  0.1723  0.0991
  238MOL0     O32754  11.026   9.261   2.611 -0.4548  0.8034  0.0324
  238MOL0     C32755  11.334   9.421   2.539 -0.4301  0.8755 -0.9491
  238MOL0     C32756  11.435   9.422   2.446  0.0935  0.2955 -0.5298
  238MOL0     N32757  11.418   9.607   1.654 -0.3299  0.1867 -0.5913
  238MOL0     N32758  11.369   9.545   1.545  0.3100  0.7697  0.1652
  238MOL0     C32759  10.616   8.922   1.539  0.2025 -0.6939 -0.1040
  238MOL0     C32760  10.567   8.831   1.631 -0.5089 -0.4127  0.2872
  238MOL0     C32761  10.314   8.645   1.988 -0.5609 -0.5617  0.7727
  238MOL0     C32762  10.339   8.520   1.930  0.0154 -0.2127 -0.0111
  238MOL0     C32763  10.288   8.404   1.981 -0.7940 -0.0958 -1.2613
  238MOL0     C32764  10.189   8.406   2.082 -0.6215  0.2747 -0.3055
  238MOL0     O32765  10.137   8.287   2.124  0.0738 -0.2883  0.2577
  238MOL0     C32766   9.991   8.289   2.143  0.8668  0.7081 -0.1066
  238MOL0     C32767   9.920   8.165   2.092  0.1890 -0.5377 -1.0268
  238MOL0     C32768   9.961   8.030   2.149  0.4135  0.1921  0.2407
  238MOL0     C32769   9.911   7.984   2.293  0.7815 -0.5090  0.0866
  238MOL0     C32770   9.771   7.981   2.289 -0.5353  0.8435 -0.0500
  238MOL0     C32771   9.654   7.994   2.257 -0.3419  0.5676  0.7579
  238MOL0     C32772  10.159   8.530   2.135  0.8016  0.7420  0.6087
  238MOL0     C32773  10.214   8.655   2.087  0.3742 -0.6408 -0.5470
  238MOL0     C32774  10.174   8.776   2.175 -0.6373 -1.0297  0.2356
  238MOL0     H32775  10.305   8.993   1.758 -1.8737  1.0379 -4.1921
  238MOL0     H32776  10.394   9.166   1.628  0.0026 -0.0358  2.2616
  238MOL0     H32777  10.605   9.137   1.251  2.0612  1.3311 -0.6845
  238MOL0     H32778  10.710   9.024   1.333 -0.6318 -1.2643  2.1038
  238MOL0     H32779  10.731   9.329   1.320 -0.8555 -0.1797  5.8206
  238MOL0     H32780  10.844   9.215   1.403 -1.6737 -2.4975  0.8190
  238MOL0     H32781  10.921   9.122   1.203  2.5450  1.4810 -0.8374
  238MOL0     H32782  10.783   9.172   1.110  0.7006 -1.9544  0.7517
  238MOL0     H32783  10.981   9.297   1.036  1.8230  0.8805  0.6054
  238MOL0     H32784  10.850   9.395   1.086  3.1716  2.4063 -2.9149
  238MOL0     H32785  10.979   9.429   1.311  1.7709  2.2110  0.7067
  238MOL0     H32786  11.048   9.489   1.162 -1.5110 -1.1198 -2.7570
  238MOL0     H32787  11.114   9.206   1.306  1.1143  1.6021  2.6524
  238MOL0     H32788  11.193   9.271   1.171  2.6156 -2.2331  0.8395
  238MOL0     H32789  11.265   9.482   1.316  3.0104  1.0886  2.3486
  238MOL0     H32790  11.344   9.341   1.339  1.1022  3.4533 -0.5549
  238MOL0     H32791  11.096   9.373   1.520 -0.7211 -1.2661 -0.5381
  238MOL0     H32792  11.222   9.262   1.533  3.2266 -0.9566 -1.8391
  238MOL0     H32793  11.211   9.413   1.801 -0.8944 -0.6180 -0.8977
  238MOL0     H32794  11.279   9.637   1.953  0.4897 -1.3920  0.0409
  238MOL0     H32795  11.442   9.697   1.895 -0.2996  0.7240  1.2399
  238MOL0     H32796  11.412   9.410   1.990  1.2183 -0.1568  0.9313
  238MOL0     H32797  11.557   9.499   1.931  0.3475 -1.1154  0.6540
  238MOL0     H32798  11.536   9.651   2.135  3.1650 -1.1447  1.6838
  238MOL0     H32799  11.399   9.534   2.177  0.4814 -1.2352 -0.3536
  238MOL0     H32800  11.680   9.450   2.127 -1.4087  2.0466 -0.0973
  238MOL0     H32801  11.646   9.521   2.282 -0.1417 -0.6932  1.5143
  238MOL0     H32802  11.361   9.167   2.250  1.9151 -0.7286 -0.3480
  238MOL0     H32803  11.210   9.023   2.344  1.6132  1.3747 -0.7928
  238MOL0     H32804  11.062   9.096   2.375 -0.3281 -0.4594 -0.9254
  238MOL0     H32805  11.156   9.039   2.518  0.3973  2.5350  0.8458
  238MOL0     H32806  11.268   9.383   2.966  0.1156  2.2349 -1.0008
  238MOL0     H32807  11.146   9.296   3.178 -2.6258  0.0505  1.1487
  238MOL0     H32808  11.024   9.270   3.358  0.3188 -0.1069 -0.4854
  238MOL0     H32809  10.979   9.435   3.351 -0.1269 -0.4508  2.6154
  238MOL0     H32810  10.738   9.374   3.436  0.3470  0.9421  3.3349
  238MOL0     H32811  10.804   9.208   3.422  2.3411 -0.5722 -2.3574
  238MOL0     H32812  10.910   9.421   3.609 -0.3273  1.0126 -1.4741
  238MOL0     H32813  10.950   9.245   3.618  0.4894  1.4537 -1.0757
  238MOL0     H32814  10.649   9.327   3.633  2.0436  0.2930 -1.7362
  238MOL0     H32815  10.755   9.363   3.765 -1.4009 -0.9629  0.9464
  238MOL0     H32816  10.694   9.077   3.660  0.4138 -2.4898  2.0162
  238MOL0     H32817  10.829   9.097   3.762 -1.1910 -3.0763 -3.9262
  238MOL0     H32818  10.557   9.188   3.844 -0.4160  1.5577  1.7915
  238MOL0     H32819  10.705   9.223   3.930 -4.9095  1.6755  1.6784
  238MOL0     H32820  10.585   8.943   3.871 -3.7432  1.7453  1.2470
  238MOL0     H32821  10.576   9.025   4.022 -0.8713  1.1208 -1.7993
  238MOL0     H32822  10.823   8.995   4.054  1.8719 -0.0700 -0.9856
  238MOL0     H32823  10.830   8.900   3.914 -0.0521 -1.1263  0.4579
  238MOL0     H32824  10.778   9.348   2.985  0.5582  0.8527  0.8916
  238MOL0     H32825  10.892   9.374   2.765  1.5598 -1.3590 -0.9083
  238MOL0     H32826  11.323   9.496   2.617 -3.2585  0.8981 -1.2652
  238MOL0     H32827  11.515   9.496   2.451  1.2719 -0.8669 -1.4834
  238MOL0     H32828  10.697   8.876   1.484 -0.9274 -6.0827  2.1280
  238MOL0     H32829  10.604   8.730   1.642  1.9545  0.3530 -0.3269
  238MOL0     H32830  10.397   8.504   1.840 -0.8804 -1.5848 -0.3728
  238MOL0     H32831  10.307   8.309   1.932  3.7039 -1.3521  2.2174
  238MOL0     H32832   9.974   8.302   2.250  0.5883 -2.6375  0.3622
  238MOL0     H32833   9.941   8.372   2.092 -3.4531 -1.1337  0.7197
  238MOL0     H32834   9.930   8.172   1.983 -2.3562  0.4692 -1.2475
  238MOL0     H32835   9.813   8.175   2.109  0.5868 -1.1663  2.7086
  238MOL0     H32836   9.929   7.952   2.078  2.3929 -3.5800  3.1164
  238MOL0     H32837  10.070   8.023   2.147  0.3808 -0.2790 -0.4958
  238MOL0     H32838   9.954   8.057   2.363  0.4748  0.6489 -0.8859
  238MOL0     H32839   9.948   7.884   2.315  0.1309 -0.1411  3.3871
  238MOL0     H32840   9.550   8.005   2.234 -0.0217 -1.8077 -2.6668
  238MOL0     H32841  10.095   8.514   2.222 -0.2045 -1.3806 -0.4232
  238MOL0     H32842  10.100   8.741   2.247  2.5598 -2.6305  2.9995
  238MOL0     H32843  10.263   8.815   2.226  0.0520 -2.6480  0.3024
  238MOL0     H32844  10.117   8.849   2.116  0.5212 -0.1401  0.1771
  239MOL0     O32845   4.642   9.230   3.351 -0.5828  0.2566  0.0346
  239MOL0     C32846   4.660   9.107   3.380  0.4013 -1.5604 -0.2194
  239MOL0     O32847   4.571   9.004   3.337  0.1897  0.9025  0.1804
  239MOL0     C32848   4.449   9.024   3.267  0.3382 -0.6450 -0.0023
  239MOL0     C32849   4.369   9.130   3.299  0.7848 -0.5974  0.1476
  239MOL0     C32850   4.245   9.151   3.232  0.5028  0.9101 -1.1606
  239MOL0     C32851   4.207   9.058   3.137  0.7757 -0.1368 -0.0537
  239MOL0     O32852   4.081   9.073   3.080  1.0155 -0.1125 -0.2596
  239MOL0     C32853   4.067   9.042   2.932  0.5901  0.1202 -0.7384
  239MOL0     C32854   4.149   9.144   2.858 -0.9155 -0.2210 -0.3698
  239MOL0     C32855   4.137   9.127   2.705 -0.9872 -0.2880 -0.4862
  239MOL0     C32856   3.991   9.138   2.648 -0.5026  0.4090  0.9465
  239MOL0     C32857   3.979   9.072   2.509  0.1065 -0.5658 -0.0909
  239MOL0     C32858   3.882   9.134   2.405  0.0294 -0.2967 -1.2939
  239MOL0     C32859   3.809   9.032   2.322  0.0435  0.6761  0.1594
  239MOL0     C32860   3.791   9.085   2.182 -0.0819 -0.4222  0.0245
  239MOL0     N32861   3.742   8.988   2.088  0.5107 -0.1035  0.9996
  239MOL0     C32862   3.616   8.925   2.089 -0.1110  0.1288  0.2763
  239MOL0     C32863   3.619   8.821   1.997  0.4559 -0.8255 -0.2139
  239MOL0     C32864   3.504   8.721   1.966  0.2145 -0.6815 -0.1608
  239MOL0     C32865   3.527   8.617   2.076  0.5059  0.1629 -0.9055
  239MOL0     C32866   3.417   8.511   2.069  0.4959 -0.4912  0.7975
  239MOL0     C32867   3.456   8.385   2.137 -0.2165  0.5224 -1.0093
  239MOL0     O32868   3.484   8.413   2.272 -0.0231 -1.0202 -0.7420
  239MOL0     C32869   3.527   8.310   2.353  0.1760 -0.2381 -0.3835
  239MOL0     C32870   3.545   8.352   2.486  0.1931  0.3912  1.2722
  239MOL0     C32871   3.590   8.264   2.579  0.0827 -0.9076 -0.0113
  239MOL0     C32872   3.580   8.324   2.720 -0.1071 -0.7800  0.3138
  239MOL0     C32873   3.644   8.143   2.540 -0.4697 -0.0942 -0.2636
  239MOL0     C32874   3.727   8.055   2.628  0.8338 -0.5317  1.0270
  239MOL0     O32875   3.798   7.954   2.578  0.0869  0.1424 -0.7923
  239MOL0     C32876   3.916   7.913   2.637  0.3035 -1.2182 -0.3942
  239MOL0     C32877   4.001   8.008   2.695  0.7394 -0.1029 -0.8267
  239MOL0     C32878   4.117   7.977   2.762  0.3557 -0.1898  0.1606
  239MOL0     C32879   4.156   7.847   2.769  0.2205 -0.8835 -0.3905
  239MOL0     O32880   4.274   7.802   2.831 -0.3705  0.1297 -0.3683
  239MOL0     C32881   4.306   7.834   2.965  0.7783 -0.3146 -0.2552
  239MOL0     C32882   4.370   7.718   3.051 -0.1288  0.1548 -0.5006
  239MOL0     C32883   4.512   7.683   3.011  0.8426 -0.8051  0.8271
  239MOL0     C32884   4.614   7.783   3.029  0.3578  0.3565 -0.3640
  239MOL0     C32885   4.713   7.754   3.142 -0.1824  0.7642  0.3243
  239MOL0     C32886   4.821   7.856   3.159  0.3416 -0.9523  0.2228
  239MOL0     C32887   4.927   7.835   3.274 -0.3080  1.7031 -0.4156
  239MOL0     C32888   5.052   7.920   3.252  0.3284 -0.0800  0.1113
  239MOL0    Cl32889   5.001   8.092   3.269  0.1435  0.3717  0.1112
  239MOL0     C32890   4.080   7.747   2.713  0.2615  0.4425  0.2272
  239MOL0     C32891   3.960   7.785   2.638 -0.7246  0.4238 -0.6955
  239MOL0     O32892   3.723   8.088   2.747  0.0582  0.4077  0.0684
  239MOL0     C32893   3.625   8.100   2.405  0.0773  0.4958 -0.4640
  239MOL0     C32894   3.559   8.183   2.306 -0.5510 -0.4903 -0.8986
  239MOL0     N32895   3.754   8.807   1.958  0.0961  0.3077  0.8965
  239MOL0     N32896   3.821   8.909   2.007  0.4161  0.0476  0.2861
  239MOL0     C32897   4.284   8.949   3.104 -0.8106  0.6923  0.0524
  239MOL0     C32898   4.400   8.925   3.171  0.9946  0.1997  0.2209
  239MOL0     C32899   4.790   9.055   3.423 -0.2535 -0.3351  0.1746
  239MOL0     C32900   4.838   8.934   3.372  0.2107  0.0361 -0.1688
  239MOL0     C32901   4.971   8.895   3.416  0.5858  0.6371  1.3085
  239MOL0     C32902   5.050   8.970   3.496  0.0886 -0.2295 -0.6644
  239MOL0     O32903   5.185   8.937   3.516  0.3889 -0.2915  0.3385
  239MOL0     C32904   5.249   8.830   3.447 -0.2871  0.2946  0.2768
  239MOL0     C32905   5.264   8.859   3.299  0.2924 -0.5263 -0.7233
  239MOL0     C32906   5.371   8.960   3.275  0.2942  0.0438  0.5781
  239MOL0     C32907   5.518   8.911   3.285  0.5573 -0.0712 -0.4061
  239MOL0     C32908   5.603   8.971   3.184  0.5838  0.0048  0.0573
  239MOL0     C32909   5.687   9.030   3.114  0.9454 -0.1928 -0.5214
  239MOL0     C32910   4.998   9.091   3.539  0.2908  0.8537 -0.1247
  239MOL0     C32911   4.872   9.132   3.508 -0.2219  0.5849 -0.1100
  239MOL0     C32912   4.829   9.257   3.574 -0.2807  0.5433  0.0029
  239MOL0     H32913   4.387   9.207   3.374 -1.2156 -0.8076  0.9006
  239MOL0     H32914   4.177   9.232   3.259  1.0751  1.0633 -0.1163
  239MOL0     H32915   3.962   9.048   2.903  0.1635 -1.0802  0.4686
  239MOL0     H32916   4.111   8.943   2.917  1.2294  0.0698  1.1381
  239MOL0     H32917   4.132   9.248   2.888 -1.1098 -0.8983  2.0619
  239MOL0     H32918   4.252   9.124   2.887 -0.5001  0.2226 -1.4821
  239MOL0     H32919   4.199   9.207   2.664  2.2008  0.6704  5.1797
  239MOL0     H32920   4.173   9.026   2.679  0.2416 -0.1426  0.5246
  239MOL0     H32921   3.927   9.070   2.704 -3.6424 -1.3035 -4.0143
  239MOL0     H32922   3.950   9.239   2.637 -0.0331  0.3441 -2.4185
  239MOL0     H32923   3.946   8.970   2.531  1.2799 -1.0713 -0.5700
  239MOL0     H32924   4.078   9.074   2.462 -1.0532 -1.1985 -2.7847
  239MOL0     H32925   3.810   9.198   2.458 -1.1356  0.3064 -3.5076
  239MOL0     H32926   3.946   9.205   2.353  0.7740  0.6640  0.7967
  239MOL0     H32927   3.718   8.992   2.367  1.6649 -3.4388  0.1937
  239MOL0     H32928   3.879   8.949   2.309  2.0394  2.7152 -3.6774
  239MOL0     H32929   3.718   9.166   2.185  4.1434  3.7655  1.6037
  239MOL0     H32930   3.885   9.131   2.149 -0.1313  1.4069  2.2308
  239MOL0     H32931   3.526   8.949   2.144  0.0556  0.9740  0.1861
  239MOL0     H32932   3.515   8.685   1.863  1.9616 -1.6097  0.3109
  239MOL0     H32933   3.408   8.774   1.967  0.8935  0.6662 -1.7456
  239MOL0     H32934   3.622   8.562   2.083  1.1195  1.0914 -1.7813
  239MOL0     H32935   3.526   8.654   2.179  2.1729 -1.3122 -0.2987
  239MOL0     H32936   3.335   8.557   2.125  2.6132  1.8936  2.1341
  239MOL0     H32937   3.390   8.502   1.964  0.7140 -0.2479  0.7197
  239MOL0     H32938   3.381   8.307   2.123  1.8409 -1.6740 -0.3101
  239MOL0     H32939   3.547   8.352   2.087 -1.1025  0.0896 -2.3972
  239MOL0     H32940   3.525   8.457   2.505  0.3209  1.0297 -1.6550
  239MOL0     H32941   3.515   8.412   2.724 -0.3419 -0.9016 -0.6520
  239MOL0     H32942   3.677   8.348   2.764 -0.8203  1.5173  0.7913
  239MOL0     H32943   3.536   8.243   2.778  0.2677 -0.7941  0.5857
  239MOL0     H32944   3.976   8.113   2.693 -0.8122 -0.3113  2.3117
  239MOL0     H32945   4.179   8.058   2.801 -1.5314  1.9933 -1.1222
  239MOL0     H32946   4.385   7.906   2.943  1.8476 -1.7599 -1.3447
  239MOL0     H32947   4.223   7.880   3.018  0.7783  0.2218 -0.7170
  239MOL0     H32948   4.383   7.760   3.151  3.4283  0.6308 -1.0026
  239MOL0     H32949   4.306   7.629   3.050  1.5735 -1.1503  0.6449
  239MOL0     H32950   4.520   7.662   2.904  0.4354 -0.2449  0.6855
  239MOL0     H32951   4.545   7.585   3.048  1.9512 -2.2898 -3.5413
  239MOL0     H32952   4.564   7.874   3.062  0.0014  1.0316 -2.5983
  239MOL0     H32953   4.664   7.802   2.934 -1.2685 -1.2290 -1.6151
  239MOL0     H32954   4.650   7.726   3.227 -0.8763 -0.4926 -0.5716
  239MOL0     H32955   4.767   7.664   3.112  0.1525  1.7924 -2.4257
  239MOL0     H32956   4.776   7.954   3.179 -2.2615 -2.4624  2.5262
  239MOL0     H32957   4.885   7.850   3.071  1.2868 -1.5013  0.9316
  239MOL0     H32958   4.947   7.728   3.277 -0.0550  1.7197 -1.2062
  239MOL0     H32959   4.876   7.854   3.369  0.9496  2.2069  0.1836
  239MOL0     H32960   5.100   7.907   3.155 -2.3629  0.7153 -1.4414
  239MOL0     H32961   5.116   7.888   3.334  0.6923  1.7626  0.5960
  239MOL0     H32962   4.132   7.652   2.707  0.7731  0.6651  1.0266
  239MOL0     H32963   3.900   7.708   2.590  3.0464 -3.5532  0.3239
  239MOL0     H32964   3.659   8.000   2.381  0.7305 -0.3085  3.2170
  239MOL0     H32965   3.551   8.147   2.204 -1.0567  1.3438 -1.5329
  239MOL0     H32966   4.268   8.881   3.022  0.6254  0.1079  0.2137
  239MOL0     H32967   4.452   8.831   3.157  2.2666  0.8877  0.1537
  239MOL0     H32968   4.782   8.860   3.316 -1.7291 -1.2618  3.2069
  239MOL0     H32969   5.005   8.797   3.382 -1.9616  0.0645  0.1493
  239MOL0     H32970   5.343   8.807   3.498 -0.7370 -1.6624  0.2935
  239MOL0     H32971   5.188   8.741   3.467  0.1956  0.4053  2.4808
  239MOL0     H32972   5.169   8.895   3.259 -0.1334 -3.8220 -3.0201
  239MOL0     H32973   5.280   8.763   3.250 -1.4453 -0.6467 -1.0971
  239MOL0     H32974   5.350   9.014   3.182 -1.0794 -0.7438  0.3995
  239MOL0     H32975   5.359   9.038   3.351 -0.9993  2.6949 -2.0861
  239MOL0     H32976   5.519   8.803   3.269 -1.5548  0.2691 -3.9517
  239MOL0     H32977   5.560   8.944   3.381 -0.1407  2.6559 -0.9515
  239MOL0     H32978   5.756   9.081   3.050  2.3909 -1.0149  0.3246
  239MOL0     H32979   5.068   9.153   3.593  0.4806  0.9465 -0.4717
  239MOL0     H32980   4.879   9.263   3.671 -0.6758  2.2864  0.1350
  239MOL0     H32981   4.850   9.344   3.512  0.2589  1.0307  0.8485
  239MOL0     H32982   4.723   9.249   3.600  0.4873 -2.4525  2.8464
  240MOL0     O32983  11.381  11.307   0.102 -0.2703 -0.4772  0.3315
  240MOL0     C32984  11.434  11.421   0.115 -0.4663  0.3584 -0.6565
  240MOL0     O32985  11.451  11.482   0.231  0.8503  0.6359  0.2385
  240MOL0     C32986  11.413  11.426   0.352 -0.6389 -0.6967 -0.5708
  240MOL0     C32987  11.286  11.379   0.385 -0.4874  0.3426  0.1079
  240MOL0     C32988  11.249  11.327   0.512 -1.6682  0.2460  0.1102
  240MOL0     C32989  11.341  11.332   0.607 -0.2751  0.0631  0.1181
  240MOL0     O32990  11.325  11.262   0.728 -0.7564 -0.5113  0.0262
  240MOL0     C32991  11.419  11.266   0.833  0.9045 -0.4117  0.0979
  240MOL0     C32992  11.382  11.166   0.936  0.6048 -0.1214  0.1256
  240MOL0     C32993  11.446  11.033   0.891 -0.1277 -0.1452  0.8177
  240MOL0     C32994  11.473  10.936   1.002 -0.2491  0.6126  0.2069
  240MOL0     C32995  11.565  10.825   0.941  0.0193 -0.2942 -0.3760
  240MOL0     C32996  11.626  10.737   1.056  0.0500 -0.1550  0.8437
  240MOL0     C32997  11.725  10.633   0.997 -0.5150 -0.2341 -0.3253
  240MOL0     C32998  11.777  10.543   1.100 -0.1762 -0.1115  0.6106
  240MOL0     N32999  11.874  10.600   1.195  0.0775 -0.3464 -0.6764
  240MOL0     C33000  12.005  10.581   1.199 -0.0715  0.8586 -0.1909
  240MOL0     C33001  12.062  10.659   1.308  0.1174 -0.2521  0.3290
  240MOL0     C33002  12.203  10.680   1.349 -0.3017 -0.1646  0.4077
  240MOL0     C33003  12.273  10.548   1.386 -0.2264  0.0743  0.4814
  240MOL0     C33004  12.283  10.527   1.538 -0.4322  0.4247  1.1109
  240MOL0     C33005  12.147  10.507   1.590 -0.1655  0.7800 -0.3235
  240MOL0     O33006  12.142  10.455   1.720  0.1765 -0.3423  0.1330
  240MOL0     C33007  12.095  10.532   1.826  0.0613 -0.1097  0.1496
  240MOL0     C33008  12.123  10.672   1.843 -0.9580 -0.0554 -0.0173
  240MOL0     C33009  12.072  10.743   1.953 -0.6613 -0.3221  0.2240
  240MOL0     C33010  12.117  10.895   1.961 -0.3856  0.0256 -0.2641
  240MOL0     C33011  11.987  10.678   2.046  0.0885  0.1578 -1.1011
  240MOL0     C33012  11.924  10.754   2.160 -0.6199 -0.3839 -0.7165
  240MOL0     O33013  11.840  10.681   2.240  0.8061 -0.0039 -0.3038
  240MOL0     C33014  11.739  10.753   2.299 -0.4009  1.5444 -0.0482
  240MOL0     C33015  11.720  10.730   2.438  0.3314 -0.0393  0.1956
  240MOL0     C33016  11.602  10.785   2.495  0.1935  0.7876 -0.0039
  240MOL0     C33017  11.509  10.858   2.417  0.0020 -0.4223  0.2767
  240MOL0     O33018  11.387  10.921   2.453 -0.4042  0.2998  0.7471
  240MOL0     C33019  11.337  10.918   2.581 -0.5423 -0.1279 -0.7584
  240MOL0     C33020  11.408  11.023   2.674 -0.4200  0.7927 -0.7825
  240MOL0     C33021  11.365  11.160   2.645 -0.5933 -0.1319  0.7682
  240MOL0     C33022  11.368  11.207   2.504  0.8784 -0.7395  0.1809
  240MOL0     C33023  11.513  11.222   2.452  1.6678 -0.0844 -0.7815
  240MOL0     C33024  11.507  11.249   2.300 -1.8330 -1.6952 -0.0562
  240MOL0     C33025  11.651  11.237   2.243  1.0213 -0.1860  0.0114
  240MOL0     C33026  11.678  11.310   2.124  0.4822 -0.6732 -0.1660
  240MOL0    Cl33027  11.822  11.240   2.064  0.3685 -0.2279 -0.1499
  240MOL0     C33028  11.548  10.889   2.286 -0.3036 -0.2176  0.4246
  240MOL0     C33029  11.657  10.840   2.225  0.2238 -0.0705  0.0791
  240MOL0     O33030  11.952  10.873   2.187  0.7719  0.4413 -0.1092
  240MOL0     C33031  11.969  10.542   2.031 -0.1707  0.6021  0.2695
  240MOL0     C33032  12.021  10.469   1.920 -0.3592  0.0315 -0.0911
  240MOL0     N33033  11.947  10.708   1.370 -0.2061 -0.2876  1.0219
  240MOL0     N33034  11.842  10.680   1.298  0.5513  0.1410  0.6051
  240MOL0     C33035  11.468  11.395   0.584  0.1371 -0.6079  0.6586
  240MOL0     C33036  11.498  11.453   0.461 -0.3745  0.1002 -0.3714
  240MOL0     C33037  11.454  11.495  -0.009 -0.4141 -0.5618  0.2704
  240MOL0     C33038  11.395  11.619  -0.019  0.6021  0.0630  0.5396
  240MOL0     C33039  11.416  11.697  -0.137  0.3538  0.6454 -0.7876
  240MOL0     C33040  11.516  11.650  -0.230  0.8530 -0.3360  0.3392
  240MOL0     O33041  11.543  11.705  -0.351  0.1019  0.0605  0.7970
  240MOL0     C33042  11.509  11.839  -0.379  0.3325 -0.8812 -0.5738
  240MOL0     C33043  11.575  11.904  -0.503  0.0995  0.4466 -0.4281
  240MOL0     C33044  11.609  12.041  -0.484 -0.8887  0.6445 -0.5709
  240MOL0     C33045  11.678  12.101  -0.607 -0.8172 -0.4749  0.7678
  240MOL0     C33046  11.812  12.049  -0.638 -1.3520  0.3976 -0.5908
  240MOL0     C33047  11.918  11.999  -0.650  0.2759 -0.6994 -0.9134
  240MOL0     C33048  11.579  11.526  -0.208  0.2942 -1.2534  0.0051
  240MOL0     C33049  11.551  11.449  -0.103  0.6820 -0.0311  1.0859
  240MOL0     C33050  11.640  11.334  -0.071  0.0153  0.5978 -0.8317
  240MOL0     H33051  11.212  11.373   0.307  0.4799 -1.6765 -0.7268
  240MOL0     H33052  11.152  11.285   0.537 -1.5122 -2.7675 -3.5034
  240MOL0     H33053  11.423  11.369   0.869  0.6838 -0.2221 -0.4161
  240MOL0     H33054  11.521  11.255   0.796 -0.8865 -1.4715 -5.4284
  240MOL0     H33055  11.424  11.199   1.031  2.2635  0.6151 -0.8103
  240MOL0     H33056  11.274  11.164   0.952  1.1067 -0.1823  4.6842
  240MOL0     H33057  11.384  10.982   0.817  1.2099  1.3150 -1.4048
  240MOL0     H33058  11.544  11.060   0.851  0.8716  0.5085  3.4787
  240MOL0     H33059  11.509  10.992   1.089 -2.6316 -0.2527  1.8672
  240MOL0     H33060  11.376  10.889   1.021  0.9231 -1.8470  0.5276
  240MOL0     H33061  11.646  10.868   0.881  1.6698 -1.1598  1.1602
  240MOL0     H33062  11.513  10.753   0.877 -2.7728  0.0916  1.2727
  240MOL0     H33063  11.681  10.801   1.125  1.8709 -1.9721  1.1649
  240MOL0     H33064  11.542  10.690   1.107 -0.0966 -0.5357  0.2720
  240MOL0     H33065  11.814  10.676   0.950 -1.1260  0.0497 -1.2698
  240MOL0     H33066  11.676  10.581   0.914  1.6382 -1.8135 -0.7033
  240MOL0     H33067  11.689  10.512   1.158 -0.3279 -0.6298  0.1102
  240MOL0     H33068  11.826  10.461   1.046 -1.0584 -1.5233  1.8572
  240MOL0     H33069  12.061  10.517   1.130 -1.6985 -1.6196  0.6311
  240MOL0     H33070  12.216  10.756   1.427  1.7730 -0.5402  0.4888
  240MOL0     H33071  12.254  10.719   1.261  1.4187 -0.7219  1.1139
  240MOL0     H33072  12.217  10.466   1.341 -5.1248  0.8831  4.2402
  240MOL0     H33073  12.380  10.547   1.362 -0.4760 -1.8256 -0.7979
  240MOL0     H33074  12.346  10.440   1.559 -1.2672  0.4968  4.4139
  240MOL0     H33075  12.334  10.615   1.577  1.6625  0.4900 -1.4330
  240MOL0     H33076  12.086  10.598   1.584 -0.8647  0.5618  2.1218
  240MOL0     H33077  12.102  10.433   1.523 -3.0563  0.7292  1.4756
  240MOL0     H33078  12.191  10.722   1.774 -0.0281 -0.8561  0.2923
  240MOL0     H33079  12.029  10.961   1.961  2.2163  3.8342 -0.6580
  240MOL0     H33080  12.179  10.934   1.880 -1.2881 -1.8977 -1.9772
  240MOL0     H33081  12.170  10.911   2.055  0.6183 -1.9739 -0.4417
  240MOL0     H33082  11.797  10.675   2.491  2.3478  1.0308 -1.4496
  240MOL0     H33083  11.591  10.764   2.600  1.4569  1.1514  0.2180
  240MOL0     H33084  11.231  10.936   2.565 -0.4835 -1.2879 -2.9085
  240MOL0     H33085  11.355  10.823   2.632  0.9196  1.5496  2.1353
  240MOL0     H33086  11.370  11.005   2.775 -0.7285 -1.0455 -1.1948
  240MOL0     H33087  11.517  11.016   2.677 -0.4419 -0.6950  3.3366
  240MOL0     H33088  11.414  11.228   2.715 -2.1648  2.8609 -0.8525
  240MOL0     H33089  11.260  11.166   2.677 -1.6385 -0.6315 -2.2593
  240MOL0     H33090  11.312  11.301   2.489  0.2510 -1.1352 -0.0159
  240MOL0     H33091  11.319  11.151   2.424  0.2450  1.3419 -0.9860
  240MOL0     H33092  11.565  11.306   2.500 -2.7657  2.4629  0.1333
  240MOL0     H33093  11.563  11.125   2.461  0.2605 -0.9513 -1.9274
  240MOL0     H33094  11.473  11.352   2.289  0.3913 -0.5070  2.9397
  240MOL0     H33095  11.444  11.167   2.263 -2.2368 -1.6796  0.5754
  240MOL0     H33096  11.662  11.129   2.232 -0.0006 -1.2336  5.8481
  240MOL0     H33097  11.723  11.268   2.319 -1.5941  2.0073  1.8054
  240MOL0     H33098  11.686  11.417   2.144  2.6089 -0.3241 -2.3602
  240MOL0     H33099  11.595  11.290   2.055 -0.4281 -1.8891  1.2160
  240MOL0     H33100  11.492  10.956   2.221  0.1730 -2.6059 -2.6840
  240MOL0     H33101  11.654  10.850   2.117  1.2972 -1.1098 -0.0728
  240MOL0     H33102  11.912  10.483   2.102 -0.5273  0.5243 -0.0791
  240MOL0     H33103  12.006  10.362   1.922 -0.5624  0.0539  1.6618
  240MOL0     H33104  11.539  11.423   0.660  0.4629 -0.1749  0.2064
  240MOL0     H33105  11.591  11.510   0.457 -0.9661  1.3575  1.9704
  240MOL0     H33106  11.314  11.647   0.047 -0.7358 -0.3215 -0.8684
  240MOL0     H33107  11.356  11.787  -0.144 -0.3610  0.2398 -0.0542
  240MOL0     H33108  11.403  11.857  -0.400  0.3823  1.0610  0.6189
  240MOL0     H33109  11.520  11.885  -0.281 -1.2560 -2.5636  0.4570
  240MOL0     H33110  11.492  11.898  -0.575 -1.1548  0.6618  0.9389
  240MOL0     H33111  11.664  11.847  -0.530  2.5382  1.4767  4.4113
  240MOL0     H33112  11.512  12.087  -0.461 -0.9077 -0.5180  2.0006
  240MOL0     H33113  11.680  12.058  -0.402  1.9459  0.6198 -2.8642
  240MOL0     H33114  11.700  12.203  -0.573 -1.4645 -0.9467  2.7504
  240MOL0     H33115  11.610  12.110  -0.692 -0.4181  0.1651  0.5100
  240MOL0     H33116  12.022  11.972  -0.652  0.6346  0.3622  0.6968
  240MOL0     H33117  11.659  11.495  -0.275  1.3316  2.0717 -0.4732
  240MOL0     H33118  11.746  11.351  -0.091  1.8452 -0.5322  5.5203
  240MOL0     H33119  11.639  11.316   0.037 -0.4953  0.7593 -0.8087
  240MOL0     H33120  11.612  11.253  -0.139  1.7809  1.1561 -2.2881
  241MOL0     O33121   6.900   5.592  10.554  0.0407 -0.3001  0.3056
  241MOL0     C33122   7.025   5.611  10.572 -0.6141  0.2885 -0.2982
  241MOL0     O33123   7.075   5.715  10.633 -0.7984  0.2832  0.2319
  241MOL0     C33124   6.992   5.799  10.696  0.3417 -0.5406  0.8528
  241MOL0     C33125   6.974   5.793  10.830 -0.9083  0.0778 -0.8804
  241MOL0     C33126   6.889   5.875  10.905 -0.4995 -0.2961 -0.4734
  241MOL0     C33127   6.825   5.980  10.837 -1.2204  0.5381  0.5129
  241MOL0     O33128   6.711   6.029  10.894  0.0303 -0.0923 -0.4608
  241MOL0     C33129   6.621   6.105  10.810  0.5071  0.8578 -0.2849
  241MOL0     C33130   6.477   6.108  10.874 -1.1017  0.3413  0.1140
  241MOL0     C33131   6.380   6.192  10.797 -0.0589 -0.3138 -0.9858
  241MOL0     C33132   6.232   6.177  10.849 -0.8523  0.8943 -0.0872
  241MOL0     C33133   6.125   6.198  10.743 -0.2104 -0.5362 -0.8481
  241MOL0     C33134   6.139   6.342  10.692 -0.6291 -0.2337  0.7713
  241MOL0     C33135   6.005   6.384  10.622 -0.1040  0.4329  0.2777
  241MOL0     C33136   5.908   6.468  10.704 -0.1557  0.9703 -1.1542
  241MOL0     N33137   5.848   6.378  10.799 -0.0180 -0.5060  0.2486
  241MOL0     C33138   5.884   6.370  10.936  0.3763  0.7300  0.7258
  241MOL0     C33139   5.789   6.283  10.983  1.0895 -0.2668 -0.2133
  241MOL0     C33140   5.770   6.235  11.116  0.3065 -0.0951  0.1852
  241MOL0     C33141   5.888   6.149  11.171  0.3350  0.2507 -0.6276
  241MOL0     C33142   5.847   6.057  11.275 -0.0821 -0.4910 -0.0886
  241MOL0     C33143   5.806   6.135  11.398  0.1087 -0.0371 -0.3885
  241MOL0     O33144   5.897   6.251  11.424 -0.0619 -0.0540  0.2144
  241MOL0     C33145   5.852   6.379  11.450  0.2703 -0.2408 -0.8747
  241MOL0     C33146   5.756   6.396  11.544  0.3246  0.4134 -0.1840
  241MOL0     C33147   5.710   6.521  11.584  0.4511  0.1666  0.0635
  241MOL0     C33148   5.608   6.531  11.692 -0.1731 -0.6084 -0.5771
  241MOL0     C33149   5.756   6.644  11.515 -0.3051  0.1722 -0.4929
  241MOL0     C33150   5.704   6.779  11.542 -0.1618  0.2017 -0.4563
  241MOL0     O33151   5.591   6.785  11.616 -0.6730  0.4046 -0.3933
  241MOL0     C33152   5.502   6.892  11.591  0.3697 -0.1823  0.4098
  241MOL0     C33153   5.366   6.859  11.560  1.4340 -0.5176 -0.4668
  241MOL0     C33154   5.277   6.967  11.544  1.5493  0.7032 -0.9823
  241MOL0     C33155   5.312   7.102  11.555 -0.2862 -0.2817  0.2505
  241MOL0     O33156   5.216   7.209  11.544 -0.1547  0.9147 -0.3456
  241MOL0     C33157   5.283   7.326  11.476 -0.1444  0.5478  0.3214
  241MOL0     C33158   5.176   7.443  11.441 -0.6079 -0.4307 -0.1142
  241MOL0     C33159   5.076   7.399  11.330  0.5392  0.6123 -1.2573
  241MOL0     C33160   4.966   7.504  11.319  0.3796  0.3141 -0.2361
  241MOL0     C33161   5.029   7.638  11.273  0.2116  0.7717 -0.1045
  241MOL0     C33162   5.091   7.623  11.131  0.0999  0.9462 -1.2501
  241MOL0     C33163   5.113   7.770  11.069  0.0273 -0.3177 -0.1230
  241MOL0     C33164   5.211   7.763  10.948 -0.2171  0.1282 -0.5287
  241MOL0    Cl33165   5.144   7.653  10.825 -0.1593  0.1470  0.0470
  241MOL0     C33166   5.444   7.125  11.601 -0.2439 -0.7061  0.1879
  241MOL0     C33167   5.534   7.025  11.630 -0.1107  0.5494 -0.5597
  241MOL0     O33168   5.752   6.871  11.485 -0.6792  0.4825 -0.0530
  241MOL0     C33169   5.858   6.621  11.420 -0.3922 -0.2224  0.5640
  241MOL0     C33170   5.895   6.493  11.381 -0.6094  0.0025  0.6233
  241MOL0     N33171   5.710   6.240  10.875  0.3103  0.9322  0.0679
  241MOL0     N33172   5.738   6.304  10.767 -0.5577  0.8804 -1.2072
  241MOL0     C33173   6.856   5.999  10.696  0.2050  0.3952 -1.0573
  241MOL0     C33174   6.941   5.911  10.624  0.3210 -0.5397  0.4989
  241MOL0     C33175   7.123   5.500  10.538  0.7534  0.8274 -0.9708
  241MOL0     C33176   7.071   5.365  10.551  0.8174 -0.5149  0.6883
  241MOL0     C33177   7.136   5.253  10.508  0.4714 -0.6861  0.2164
  241MOL0     C33178   7.261   5.271  10.445 -0.1540  0.3040  0.6644
  241MOL0     O33179   7.322   5.155  10.428 -0.9048 -0.3056  0.0650
  241MOL0     C33180   7.426   5.142  10.328 -0.0306 -0.2360 -0.2763
  241MOL0     C33181   7.557   5.098  10.404 -0.5210 -0.3123  0.3770
  241MOL0     C33182   7.631   5.215  10.473 -0.0963 -0.6390 -0.0253
  241MOL0     C33183   7.744   5.168  10.561 -0.2607 -0.5008 -0.0290
  241MOL0     C33184   7.816   5.291  10.594 -0.1937  0.2726  1.0992
  241MOL0     C33185   7.892   5.378  10.627 -0.3153 -0.0278 -0.4647
  241MOL0     C33186   7.310   5.402  10.421  0.5333  0.6236 -1.1002
  241MOL0     C33187   7.241   5.514  10.471  0.9757 -0.3900  0.7129
  241MOL0     C33188   7.303   5.649  10.446 -0.0653  0.1305 -0.0785
  241MOL0     H33189   7.019   5.704  10.874 -2.3717 -1.2189 -1.9256
  241MOL0     H33190   6.881   5.876  11.013  2.6792 -3.8624  0.0241
  241MOL0     H33191   6.614   6.056  10.713  2.2203  0.2197 -0.1353
  241MOL0     H33192   6.652   6.209  10.800 -2.8466  2.0204  0.2293
  241MOL0     H33193   6.448   6.004  10.862  1.7604 -0.6031  0.5994
  241MOL0     H33194   6.485   6.136  10.979 -1.8435  1.4315 -0.1039
  241MOL0     H33195   6.403   6.297  10.817 -2.0822  0.0077 -0.1508
  241MOL0     H33196   6.393   6.184  10.688 -3.1224 -1.3302 -1.3832
  241MOL0     H33197   6.225   6.072  10.881  0.5664  0.8129  0.0078
  241MOL0     H33198   6.221   6.237  10.940  1.3301  2.2757 -0.6624
  241MOL0     H33199   6.030   6.184  10.795 -1.5238  1.5927 -2.5319
  241MOL0     H33200   6.139   6.124  10.664 -0.6368  1.3060 -2.7319
  241MOL0     H33201   6.163   6.413  10.772  2.8533 -0.7398  0.3249
  241MOL0     H33202   6.226   6.344  10.625  0.9541  0.7563  2.7380
  241MOL0     H33203   5.954   6.290  10.597 -0.0932  0.2220  1.0037
  241MOL0     H33204   6.023   6.440  10.531  0.4672  1.6154  1.0985
  241MOL0     H33205   5.956   6.557  10.746 -2.7357  2.3712 -0.9638
  241MOL0     H33206   5.827   6.505  10.640 -0.0642  0.8655 -1.3319
  241MOL0     H33207   5.957   6.424  10.996  2.6127 -0.5222 -0.7471
  241MOL0     H33208   5.689   6.162  11.106  1.1829 -1.0579 -0.0683
  241MOL0     H33209   5.741   6.321  11.178 -1.8831  0.7019 -1.8009
  241MOL0     H33210   5.942   6.105  11.087  1.6564  0.8221 -0.1079
  241MOL0     H33211   5.966   6.209  11.219  0.2703 -1.5880  2.0341
  241MOL0     H33212   5.774   5.987  11.233 -1.1775 -0.7544  2.1475
  241MOL0     H33213   5.935   5.997  11.301  1.5530  0.7870 -2.3137
  241MOL0     H33214   5.706   6.176  11.381  0.2631  2.1514  2.9854
  241MOL0     H33215   5.802   6.066  11.483 -0.3407  1.1759  0.6001
  241MOL0     H33216   5.720   6.308  11.597  0.3390  0.3497 -0.2787
  241MOL0     H33217   5.614   6.441  11.753 -2.3334  1.9707  4.0309
  241MOL0     H33218   5.510   6.540  11.644 -1.1739 -4.0638  0.5462
  241MOL0     H33219   5.635   6.608  11.765  0.0791 -0.4873 -0.7941
  241MOL0     H33220   5.319   6.763  11.538  0.8088 -0.5908  1.0504
  241MOL0     H33221   5.170   6.951  11.530  1.1843  0.4699  1.6188
  241MOL0     H33222   5.345   7.375  11.551 -0.8578  0.1156  1.2067
  241MOL0     H33223   5.342   7.317  11.384  0.7587  1.5036  0.7824
  241MOL0     H33224   5.134   7.481  11.535 -0.3484 -3.1273  1.1878
  241MOL0     H33225   5.228   7.527  11.395 -0.4863  1.6475  3.4343
  241MOL0     H33226   5.027   7.312  11.374 -0.8571  2.2121  0.5290
  241MOL0     H33227   5.109   7.378  11.228 -1.6456 -2.6527 -1.4421
  241MOL0     H33228   4.930   7.529  11.419  3.3939  0.3337  0.9538
  241MOL0     H33229   4.888   7.482  11.245  0.5762  0.3846 -0.4648
  241MOL0     H33230   4.949   7.713  11.267 -0.2852  0.1977 -0.8539
  241MOL0     H33231   5.106   7.683  11.337 -0.3633  1.1712  0.3193
  241MOL0     H33232   5.018   7.567  11.071 -2.3605  1.4251  1.0553
  241MOL0     H33233   5.186   7.570  11.130 -0.5939 -0.3705 -2.5740
  241MOL0     H33234   5.157   7.838  11.142  0.7615 -1.1952  0.2736
  241MOL0     H33235   5.011   7.798  11.040 -0.8956  1.0311  3.8299
  241MOL0     H33236   5.305   7.724  10.988  0.6843  0.8776 -1.8652
  241MOL0     H33237   5.224   7.863  10.906 -1.7545  0.8133  0.5245
  241MOL0     H33238   5.472   7.225  11.633  1.9705 -0.9383 -0.8212
  241MOL0     H33239   5.629   7.054  11.673  0.5663  0.1764 -1.7533
  241MOL0     H33240   5.880   6.704  11.353  0.3324 -0.2982  0.7017
  241MOL0     H33241   5.968   6.474  11.303 -0.0545  2.2948  0.5155
  241MOL0     H33242   6.795   6.077  10.652  0.2367  1.3878  0.5497
  241MOL0     H33243   6.967   5.927  10.520  1.1221  0.1321  0.7890
  241MOL0     H33244   6.976   5.355  10.602  1.8832  3.3921  3.9363
  241MOL0     H33245   7.092   5.155  10.523  1.4412 -1.1355  0.2292
  241MOL0     H33246   7.391   5.057  10.268 -1.4679  0.7831 -0.9249
  241MOL0     H33247   7.453   5.225  10.263  3.4028 -2.8548 -2.5890
  241MOL0     H33248   7.626   5.059  10.328 -1.4138  0.9433 -1.1356
  241MOL0     H33249   7.530   5.017  10.472 -3.3062 -1.3048 -1.6965
  241MOL0     H33250   7.657   5.295  10.403  1.9123 -1.1217  0.0946
  241MOL0     H33251   7.560   5.261  10.543  3.0345 -1.0929  3.8052
  241MOL0     H33252   7.810   5.110  10.496 -0.0434 -1.1453  0.7446
  241MOL0     H33253   7.705   5.115  10.648 -0.5155  1.7608  1.3317
  241MOL0     H33254   7.960   5.458  10.647  0.5108 -0.5182 -1.1915
  241MOL0     H33255   7.409   5.412  10.375  1.4881 -0.0625  0.7129
  241MOL0     H33256   7.229   5.730  10.447  1.0173  1.1585  1.6742
  241MOL0     H33257   7.384   5.661  10.518  2.4437  0.3209 -2.7196
  241MOL0     H33258   7.353   5.668  10.350  2.5381 -1.9496  0.7540
  242MOL0     O33259   0.582   1.042   4.392  0.0094 -0.0914 -0.1276
  242MOL0     C33260   0.572   1.151   4.458  0.1901  0.0648 -0.0727
  242MOL0     O33261   0.576   1.159   4.594 -0.6177  0.3181 -0.0934
  242MOL0     C33262   0.541   1.048   4.673 -0.1006  0.2457  0.6072
  242MOL0     C33263   0.408   1.003   4.667 -0.2328  0.3892 -0.3801
  242MOL0     C33264   0.373   0.886   4.731 -0.0541  0.9395 -0.9150
  242MOL0     C33265   0.467   0.817   4.815 -0.7596  0.2738  0.8488
  242MOL0     O33266   0.430   0.704   4.876  0.3097  0.1557  0.2428
  242MOL0     C33267   0.529   0.622   4.944 -0.0715  0.3968  0.0933
  242MOL0     C33268   0.475   0.489   4.978  0.5651  1.0533 -0.3867
  242MOL0     C33269   0.424   0.406   4.865 -0.0166 -0.6344 -1.0154
  242MOL0     C33270   0.524   0.312   4.799  0.3733  0.4147  0.4389
  242MOL0     C33271   0.454   0.241   4.678 -0.1425 -0.7463 -0.2227
  242MOL0     C33272   0.528   0.120   4.633 -0.2547  0.2040  0.3615
  242MOL0     C33273   0.501  -0.017   4.718  0.0219 -0.3061 -0.6828
  242MOL0     C33274   0.559  -0.126   4.638  0.0566 -0.2249  0.0522
  242MOL0     N33275   0.570  -0.244   4.718 -0.4338 -0.0880 -0.5024
  242MOL0     C33276   0.677  -0.328   4.716  0.2855 -1.1021 -0.8482
  242MOL0     C33277   0.626  -0.451   4.723 -0.6828  0.2596 -0.4049
  242MOL0     C33278   0.701  -0.580   4.715 -0.4108 -0.0399  0.1035
  242MOL0     C33279   0.725  -0.654   4.851  0.5728 -0.2030  0.7146
  242MOL0     C33280   0.832  -0.771   4.862  0.5796 -0.1402  0.1502
  242MOL0     C33281   0.830  -0.858   4.736 -0.7543 -0.5193  0.2392
  242MOL0     O33282   0.703  -0.935   4.725  0.4754  0.6253 -0.7442
  242MOL0     C33283   0.707  -1.059   4.793  0.5178  0.6630  0.3089
  242MOL0     C33284   0.758  -1.162   4.721 -0.0016  1.2138  0.8122
  242MOL0     C33285   0.766  -1.292   4.766 -0.9705 -0.0885 -0.6207
  242MOL0     C33286   0.816  -1.405   4.678  0.0459  0.2675 -0.0895
  242MOL0     C33287   0.727  -1.312   4.898 -0.9322 -1.1676 -0.0018
  242MOL0     C33288   0.701  -1.449   4.949  0.6330 -0.0354 -0.2672
  242MOL0     O33289   0.756  -1.475   5.070 -0.5139  0.1387 -1.5294
  242MOL0     C33290   0.754  -1.602   5.135  0.6339  0.0022 -0.1929
  242MOL0     C33291   0.776  -1.589   5.265 -0.0840  0.4354  0.1761
  242MOL0     C33292   0.805  -1.700   5.345 -0.9185 -0.8384  0.5083
  242MOL0     C33293   0.802  -1.832   5.286  0.7732  0.6926 -0.0089
  242MOL0     O33294   0.819  -1.953   5.351  0.5182  0.1741 -0.0759
  242MOL0     C33295   0.883  -1.948   5.474 -0.5672  1.4390 -0.3744
  242MOL0     C33296   1.026  -1.903   5.464 -1.0283 -0.5160 -0.2784
  242MOL0     C33297   1.110  -1.916   5.591 -0.0702 -1.1950  0.6266
  242MOL0     C33298   1.222  -1.804   5.613  0.1516  0.6513  0.6871
  242MOL0     C33299   1.330  -1.855   5.719 -0.0624 -0.0941  0.6687
  242MOL0     C33300   1.438  -1.747   5.722  0.0794  0.0193 -0.0510
  242MOL0     C33301   1.551  -1.792   5.801  0.8235  0.7735 -0.2821
  242MOL0     C33302   1.677  -1.720   5.754 -0.2086 -0.8144  0.6555
  242MOL0    Cl33303   1.824  -1.773   5.848  0.1717 -0.2826 -0.6832
  242MOL0     C33304   0.778  -1.844   5.147 -0.7512 -0.0646  0.6666
  242MOL0     C33305   0.758  -1.725   5.072 -0.4084 -0.0987 -0.2048
  242MOL0     O33306   0.636  -1.531   4.883  0.3536  0.0510 -0.2465
  242MOL0     C33307   0.704  -1.200   4.982  0.1099  1.0343  0.3697
  242MOL0     C33308   0.691  -1.071   4.934 -0.0666  0.2086  0.5474
  242MOL0     N33309   0.487  -0.443   4.746 -0.1319 -0.3693  0.1930
  242MOL0     N33310   0.453  -0.314   4.748 -0.2008  0.6414 -0.1516
  242MOL0     C33311   0.598   0.864   4.828  0.5897 -0.2736  0.2669
  242MOL0     C33312   0.637   0.979   4.754  0.0899  0.7427 -0.0414
  242MOL0     C33313   0.574   1.279   4.383 -0.6224  0.1268 -1.0004
  242MOL0     C33314   0.496   1.279   4.267  0.9921 -0.8751 -0.3517
  242MOL0     C33315   0.480   1.401   4.205  0.0803  0.0100  1.0351
  242MOL0     C33316   0.533   1.523   4.246  0.5978  0.2362 -0.1946
  242MOL0     O33317   0.523   1.648   4.177 -0.3596 -0.0763  0.7336
  242MOL0     C33318   0.396   1.692   4.134 -0.1790  0.1214 -0.5925
  242MOL0     C33319   0.398   1.843   4.133 -0.1619  0.3055  1.1390
  242MOL0     C33320   0.391   1.915   4.270  0.1157 -0.5665 -0.4202
  242MOL0     C33321   0.359   2.061   4.236 -1.0597  0.2990  0.3951
  242MOL0     C33322   0.457   2.133   4.151 -0.5516 -1.1862 -0.2162
  242MOL0     C33323   0.546   2.193   4.090 -0.4285  0.6036 -0.0020
  242MOL0     C33324   0.607   1.519   4.367 -0.5737 -0.3339  0.1319
  242MOL0     C33325   0.627   1.401   4.434 -0.5263 -0.4600 -0.4660
  242MOL0     C33326   0.701   1.424   4.567 -0.8893 -0.4096 -0.1849
  242MOL0     H33327   0.337   1.066   4.615  0.1215  1.2859  0.1948
  242MOL0     H33328   0.276   0.838   4.723 -0.4170  1.2613  1.0029
  242MOL0     H33329   0.560   0.675   5.034 -1.0956  0.5864  0.3473
  242MOL0     H33330   0.619   0.610   4.883  1.7952  1.9906  2.3510
  242MOL0     H33331   0.550   0.429   5.030 -0.8890  0.9389  1.7433
  242MOL0     H33332   0.391   0.504   5.047  0.6036 -3.3509  0.9547
  242MOL0     H33333   0.343   0.340   4.896 -1.6045  1.9965  0.8585
  242MOL0     H33334   0.378   0.471   4.789 -1.0455  1.3158  1.1483
  242MOL0     H33335   0.608   0.376   4.770 -0.1573  0.2375 -1.6994
  242MOL0     H33336   0.560   0.224   4.853 -1.8035 -2.1587 -1.9561
  242MOL0     H33337   0.462   0.312   4.595 -0.6910  0.7436  0.9622
  242MOL0     H33338   0.349   0.230   4.705 -0.2853  2.5956  1.1379
  242MOL0     H33339   0.496   0.108   4.529  0.8661 -1.8850  0.1920
  242MOL0     H33340   0.635   0.142   4.643 -0.2574  0.0803  0.6976
  242MOL0     H33341   0.394  -0.032   4.734  0.1030 -0.2165 -0.0085
  242MOL0     H33342   0.573  -0.011   4.800  0.9203 -0.2185 -1.4596
  242MOL0     H33343   0.502  -0.138   4.545  1.7833  0.8462 -1.2052
  242MOL0     H33344   0.657  -0.092   4.605 -0.2851  0.9582  0.2080
  242MOL0     H33345   0.779  -0.305   4.687 -0.4137 -0.0621 -2.6485
  242MOL0     H33346   0.800  -0.560   4.672  0.4562  1.4953  2.6054
  242MOL0     H33347   0.657  -0.644   4.638  0.0823  2.5359 -2.5103
  242MOL0     H33348   0.753  -0.575   4.921  4.5069 -1.3932  0.7253
  242MOL0     H33349   0.629  -0.701   4.872  1.1931 -2.1585 -0.5054
  242MOL0     H33350   0.935  -0.743   4.885 -0.3171 -0.2268  5.5426
  242MOL0     H33351   0.799  -0.838   4.942 -0.8428 -0.5806 -0.7706
  242MOL0     H33352   0.839  -0.790   4.650 -1.1191 -0.6716  0.0764
  242MOL0     H33353   0.919  -0.920   4.723 -1.9012 -1.9014 -1.3354
  242MOL0     H33354   0.792  -1.150   4.619 -0.4356 -5.1255 -0.4974
  242MOL0     H33355   0.733  -1.475   4.664 -0.0237  0.3342 -0.0097
  242MOL0     H33356   0.900  -1.451   4.730  0.2328  2.5126  1.7569
  242MOL0     H33357   0.848  -1.373   4.578  0.1105 -2.7012 -1.1201
  242MOL0     H33358   0.776  -1.491   5.311 -0.6950  0.4335  0.1929
  242MOL0     H33359   0.827  -1.673   5.448 -1.6395  3.7253 -0.3397
  242MOL0     H33360   0.822  -1.891   5.544 -2.0541 -1.2877  0.6906
  242MOL0     H33361   0.881  -2.046   5.521 -3.1641  1.1893 -0.8965
  242MOL0     H33362   1.067  -1.965   5.384 -1.4118 -1.7283  0.4306
  242MOL0     H33363   1.032  -1.797   5.439 -0.1509 -0.3247  0.6630
  242MOL0     H33364   1.163  -2.011   5.591  2.7345  0.2541 -0.5613
  242MOL0     H33365   1.042  -1.904   5.676  1.9395 -0.9323  2.2900
  242MOL0     H33366   1.188  -1.708   5.653 -1.8134 -0.1593  1.0875
  242MOL0     H33367   1.264  -1.786   5.514  0.1594 -0.9585  0.3827
  242MOL0     H33368   1.292  -1.877   5.819  4.2114 -2.1503  2.0958
  242MOL0     H33369   1.393  -1.940   5.692  2.3543  1.3437  1.4888
  242MOL0     H33370   1.401  -1.653   5.766  0.8484 -0.6655  2.2216
  242MOL0     H33371   1.461  -1.724   5.618 -0.7923 -3.6748 -1.1857
  242MOL0     H33372   1.579  -1.897   5.788  2.9054  1.1033  1.1099
  242MOL0     H33373   1.524  -1.770   5.904 -0.8337 -0.9127 -0.3177
  242MOL0     H33374   1.659  -1.615   5.776 -2.6573 -1.3191  1.3115
  242MOL0     H33375   1.686  -1.716   5.645 -1.8382  4.9211  0.4075
  242MOL0     H33376   0.776  -1.935   5.087  1.4364  2.6080 -4.0333
  242MOL0     H33377   0.744  -1.741   4.965 -1.3828 -1.8453  0.1435
  242MOL0     H33378   0.678  -1.231   5.082 -2.4108 -0.5437 -0.6861
  242MOL0     H33379   0.662  -0.988   4.997  2.0531  1.3119  0.1572
  242MOL0     H33380   0.676   0.815   4.886  1.0501  0.4200  0.2474
  242MOL0     H33381   0.731   1.031   4.770  0.4901  0.2621 -0.7894
  242MOL0     H33382   0.455   1.190   4.219  0.4292 -0.1285 -1.2889
  242MOL0     H33383   0.422   1.383   4.115  2.3129 -0.8990 -0.3293
  242MOL0     H33384   0.351   1.665   4.039 -4.2411 -1.9948  1.6531
  242MOL0     H33385   0.320   1.652   4.203  1.1818  0.2348  1.0581
  242MOL0     H33386   0.328   1.886   4.062  2.9688  4.5231  0.1622
  242MOL0     H33387   0.496   1.860   4.088 -0.1721 -1.2289  0.4741
  242MOL0     H33388   0.310   1.871   4.329 -2.1130  0.3977 -2.6037
  242MOL0     H33389   0.485   1.908   4.326 -1.5854 -1.0686  2.5701
  242MOL0     H33390   0.339   2.118   4.327  0.3532  1.0006  0.3032
  242MOL0     H33391   0.257   2.055   4.197 -1.0775 -0.4196  0.5556
  242MOL0     H33392   0.618   2.234   4.022 -0.6085 -0.6633 -1.0004
  242MOL0     H33393   0.644   1.614   4.404 -2.3916 -0.4858  2.5210
  242MOL0     H33394   0.770   1.508   4.554 -0.7776 -0.8580 -3.5584
  242MOL0     H33395   0.635   1.437   4.652 -2.4160  0.7591 -1.4979
  242MOL0     H33396   0.772   1.345   4.594  0.9831  0.8569 -1.1292
  243MOL0     O33397   8.224   6.014   4.158  0.1292  0.5563 -0.0778
  243MOL0     C33398   8.339   6.055   4.141 -0.0402 -0.4639  0.1969
  243MOL0     O33399   8.427   6.016   4.038 -0.0799 -0.1626  0.0707
  243MOL0     C33400   8.386   5.932   3.932 -0.5590 -0.3459  0.2268
  243MOL0     C33401   8.489   5.877   3.864 -0.4460  0.5278 -0.3204
  243MOL0     C33402   8.473   5.787   3.765  0.1321  0.6708  0.7427
  243MOL0     C33403   8.338   5.759   3.718 -0.1814 -0.4269  0.3053
  243MOL0     O33404   8.304   5.680   3.609  0.0368  0.1126 -0.1243
  243MOL0     C33405   8.308   5.748   3.486  1.2264 -0.0819  0.1543
  243MOL0     C33406   8.267   5.642   3.388  0.2940 -0.4827 -0.1024
  243MOL0     C33407   8.275   5.691   3.240  0.3664 -0.7212  0.6835
  243MOL0     C33408   8.214   5.582   3.147 -0.2650 -1.2637 -0.3424
  243MOL0     C33409   8.215   5.647   3.005 -0.0084 -0.3075  0.1972
  243MOL0     C33410   8.197   5.526   2.906  0.5651 -0.4787  1.3467
  243MOL0     C33411   8.187   5.567   2.762  0.3410 -0.4013  0.1015
  243MOL0     C33412   8.144   5.458   2.665  1.1378 -0.1767 -0.4827
  243MOL0     N33413   8.226   5.345   2.665 -0.4777  0.0194 -0.0931
  243MOL0     C33414   8.180   5.214   2.698 -0.0771  0.0264  1.3355
  243MOL0     C33415   8.294   5.139   2.684 -0.8496  0.3782  0.6635
  243MOL0     C33416   8.288   4.994   2.714  0.5842 -0.5603 -0.1837
  243MOL0     C33417   8.245   4.925   2.580 -0.0180 -0.1603 -0.0913
  243MOL0     C33418   8.236   4.779   2.604  0.4031  0.3173  0.0304
  243MOL0     C33419   8.158   4.707   2.487 -0.4223 -0.9435 -0.5791
  243MOL0     O33420   8.149   4.566   2.511  0.5827 -0.2705  0.0186
  243MOL0     C33421   8.273   4.507   2.493 -0.8366 -0.3152  0.3810
  243MOL0     C33422   8.279   4.373   2.527 -0.2701  0.5512  0.7918
  243MOL0     C33423   8.388   4.291   2.512 -0.2507  1.6736  0.0005
  243MOL0     C33424   8.368   4.145   2.549  0.7120  0.9852  0.1897
  243MOL0     C33425   8.512   4.347   2.478 -0.1290 -0.1848 -0.0066
  243MOL0     C33426   8.645   4.273   2.472  0.8799  0.0835 -0.3388
  243MOL0     O33427   8.759   4.351   2.489  0.3191 -0.5783 -0.3891
  243MOL0     C33428   8.865   4.286   2.533  0.4966 -0.5011  0.3913
  243MOL0     C33429   8.978   4.271   2.444  0.4050 -0.3801  0.1293
  243MOL0     C33430   9.083   4.191   2.473  0.4002  0.6043  0.1624
  243MOL0     C33431   9.089   4.120   2.598  0.1496  0.5327  0.8512
  243MOL0     O33432   9.201   4.032   2.621  0.4821  0.8001 -1.0902
  243MOL0     C33433   9.172   3.902   2.680  0.1368 -0.2886  0.0978
  243MOL0     C33434   9.087   3.823   2.591  1.2682 -0.4005  0.4644
  243MOL0     C33435   9.169   3.760   2.480 -0.3238  0.5272 -0.8880
  243MOL0     C33436   9.220   3.859   2.381 -0.1374 -0.4981  0.3943
  243MOL0     C33437   9.290   3.799   2.262  0.0257 -0.6998 -0.0370
  243MOL0     C33438   9.352   3.909   2.180 -0.5979  0.0657  0.5436
  243MOL0     C33439   9.491   3.949   2.242 -0.7681  0.1529  0.2564
  243MOL0     C33440   9.563   4.063   2.164 -1.3074  0.3429 -0.3002
  243MOL0    Cl33441   9.454   4.215   2.161  0.2809  0.5091  0.4912
  243MOL0     C33442   8.979   4.130   2.678 -0.5327 -0.9479 -0.1651
  243MOL0     C33443   8.866   4.218   2.651 -0.8734  0.5911 -0.7291
  243MOL0     O33444   8.643   4.150   2.471 -0.9688 -0.1316 -0.7686
  243MOL0     C33445   8.514   4.484   2.442 -0.2777 -0.2136  0.8167
  243MOL0     C33446   8.395   4.561   2.438  0.2125 -0.3719  0.3123
  243MOL0     N33447   8.397   5.209   2.632 -0.5811  0.6229  1.0302
  243MOL0     N33448   8.349   5.328   2.616 -0.1733 -0.0752 -0.0783
  243MOL0     C33449   8.234   5.815   3.782  0.4737 -0.0946 -1.0695
  243MOL0     C33450   8.254   5.899   3.899  0.1190 -1.2450  0.2794
  243MOL0     C33451   8.400   6.159   4.233  0.6065 -0.3747  0.1626
  243MOL0     C33452   8.534   6.201   4.224  0.7854  1.3675 -0.1201
  243MOL0     C33453   8.595   6.289   4.309 -0.0334 -0.4521  0.2375
  243MOL0     C33454   8.524   6.343   4.415  0.2313 -0.4797  0.2003
  243MOL0     O33455   8.594   6.426   4.507 -0.8375 -0.0478 -0.3689
  243MOL0     C33456   8.512   6.488   4.608 -0.3534  0.4103  0.0961
  243MOL0     C33457   8.605   6.559   4.706 -0.4121  0.1760  0.0687
  243MOL0     C33458   8.697   6.454   4.782 -0.1950 -0.4696 -0.0721
  243MOL0     C33459   8.785   6.493   4.903  0.3763  0.7162  0.6641
  243MOL0     C33460   8.714   6.529   5.029  0.7052 -0.2825 -1.0299
  243MOL0     C33461   8.639   6.571   5.117  0.5917 -0.7068 -0.1801
  243MOL0     C33462   8.389   6.313   4.418 -0.2046  1.3472 -0.1015
  243MOL0     C33463   8.319   6.211   4.344 -0.7412 -0.6610 -0.5740
  243MOL0     C33464   8.186   6.176   4.398  0.4602 -0.7153 -0.5998
  243MOL0     H33465   8.592   5.899   3.891 -0.1271 -2.0429  0.8059
  243MOL0     H33466   8.551   5.723   3.725 -1.2698 -1.2139  0.8288
  243MOL0     H33467   8.405   5.788   3.457  1.8982 -0.6448  1.5265
  243MOL0     H33468   8.235   5.829   3.481 -0.0010 -1.1336  0.4151
  243MOL0     H33469   8.344   5.565   3.401  0.3824 -0.1866  1.2812
  243MOL0     H33470   8.172   5.599   3.420 -1.7361  3.3252 -0.4006
  243MOL0     H33471   8.217   5.783   3.233 -1.5632 -1.4144  4.8467
  243MOL0     H33472   8.380   5.699   3.211  0.9201 -0.5712  2.5626
  243MOL0     H33473   8.281   5.495   3.155  0.1067 -0.8431  1.8919
  243MOL0     H33474   8.109   5.563   3.169  0.0419 -0.0999  2.5677
  243MOL0     H33475   8.311   5.691   2.977  0.5401 -0.7510  1.2985
  243MOL0     H33476   8.140   5.726   2.997  1.0944  0.8471  0.9823
  243MOL0     H33477   8.288   5.469   2.924  0.0853 -1.5334  0.5840
  243MOL0     H33478   8.107   5.474   2.940 -1.2027  0.6706 -1.2645
  243MOL0     H33479   8.280   5.611   2.725  0.2201 -2.0488 -2.4180
  243MOL0     H33480   8.112   5.647   2.754  0.5064 -0.2774 -0.2284
  243MOL0     H33481   8.039   5.431   2.674  0.0762  3.4033 -0.5223
  243MOL0     H33482   8.147   5.496   2.563 -0.3551  0.2614 -0.3863
  243MOL0     H33483   8.080   5.193   2.734  0.2834 -1.8001  1.3303
  243MOL0     H33484   8.224   4.962   2.796  3.9554 -0.9765  2.4980
  243MOL0     H33485   8.389   4.967   2.744 -0.4298 -3.3170  1.1137
  243MOL0     H33486   8.154   4.971   2.542  0.7261  0.3084 -1.3494
  243MOL0     H33487   8.310   4.943   2.495 -1.7722 -1.6339 -1.8367
  243MOL0     H33488   8.341   4.747   2.604  1.0336  2.0219 -3.1759
  243MOL0     H33489   8.187   4.754   2.699  0.1007  0.9842  0.0555
  243MOL0     H33490   8.053   4.740   2.486  0.4947  2.4030 -0.3791
  243MOL0     H33491   8.206   4.745   2.396  0.2397  0.8891  0.4777
  243MOL0     H33492   8.183   4.338   2.565  0.0253  2.6105  3.8164
  243MOL0     H33493   8.413   4.120   2.646  0.4376  1.3949  0.4277
  243MOL0     H33494   8.416   4.068   2.489 -0.8732 -0.4103  0.6488
  243MOL0     H33495   8.263   4.116   2.548  1.2998 -1.3376  0.6168
  243MOL0     H33496   8.951   4.322   2.351 -1.9843 -0.4085  0.7519
  243MOL0     H33497   9.165   4.168   2.406  0.3715  3.1565 -0.8990
  243MOL0     H33498   9.269   3.853   2.692  2.1061  3.0033 -1.0313
  243MOL0     H33499   9.120   3.920   2.774 -0.4227  0.9233 -0.4254
  243MOL0     H33500   9.027   3.754   2.652  1.2894 -0.7929  0.0483
  243MOL0     H33501   9.016   3.896   2.551  3.2043  0.4717 -1.5683
  243MOL0     H33502   9.099   3.696   2.425 -3.8044  2.0577  1.3653
  243MOL0     H33503   9.244   3.691   2.520 -0.9243  0.5966  0.4182
  243MOL0     H33504   9.286   3.935   2.424  0.8513  0.1074 -2.0345
  243MOL0     H33505   9.134   3.920   2.352 -1.7530 -2.5876  0.5613
  243MOL0     H33506   9.367   3.721   2.270  1.7220  0.8456 -0.6177
  243MOL0     H33507   9.202   3.757   2.214 -3.9545  2.2637  3.8458
  243MOL0     H33508   9.292   3.999   2.163 -0.6680 -0.5878 -4.0216
  243MOL0     H33509   9.370   3.871   2.079 -0.8272 -2.7569  1.4667
  243MOL0     H33510   9.559   3.863   2.233 -1.6748 -0.8296  2.1399
  243MOL0     H33511   9.480   3.972   2.348 -3.6069 -2.3255  0.6543
  243MOL0     H33512   9.585   4.020   2.066 -1.1270 -3.9051  1.4076
  243MOL0     H33513   9.656   4.092   2.212  0.9090 -0.0691 -4.0051
  243MOL0     H33514   8.975   4.072   2.770  0.7865  0.0317  0.5315
  243MOL0     H33515   8.780   4.222   2.717  0.8457  1.0467  1.6006
  243MOL0     H33516   8.611   4.529   2.424  0.5066 -1.7991  0.9611
  243MOL0     H33517   8.411   4.665   2.410  1.4948 -0.4854  0.5353
  243MOL0     H33518   8.130   5.795   3.758  0.2216  0.5460 -0.5258
  243MOL0     H33519   8.168   5.945   3.948 -2.8664 -3.3863 -2.5101
  243MOL0     H33520   8.598   6.157   4.149  0.6970  0.7412  0.1641
  243MOL0     H33521   8.699   6.317   4.299 -0.0869  0.6660  2.1960
  243MOL0     H33522   8.429   6.549   4.571 -0.6544  1.0782  1.7944
  243MOL0     H33523   8.463   6.403   4.658 -0.4462  1.4116  1.7877
  243MOL0     H33524   8.529   6.612   4.764 -0.8505 -0.1028 -0.2442
  243MOL0     H33525   8.673   6.630   4.658 -0.4816  1.4689  1.7806
  243MOL0     H33526   8.621   6.393   4.832  0.6638 -1.2127  0.3887
  243MOL0     H33527   8.743   6.393   4.703 -3.6477  1.2129 -3.7232
  243MOL0     H33528   8.855   6.573   4.880  1.4248  0.6701  3.3682
  243MOL0     H33529   8.853   6.410   4.924 -1.4836 -2.7833 -5.0071
  243MOL0     H33530   8.574   6.606   5.195  1.0673 -1.0048  0.3584
  243MOL0     H33531   8.324   6.359   4.492 -0.7261 -2.3929  2.0041
  243MOL0     H33532   8.179   6.071   4.427  0.4968 -1.1026 -1.8949
  243MOL0     H33533   8.151   6.231   4.485 -1.0311 -2.4082 -0.0554
  243MOL0     H33534   8.106   6.184   4.324  0.1033 -1.6139 -0.3276
  244MOL0     O33535   6.267   5.252  11.127 -0.2330  0.0856  0.0247
  244MOL0     C33536   6.271   5.243  11.007 -0.7914 -0.1346  0.4071
  244MOL0     O33537   6.380   5.251  10.928  0.1801 -0.2025  0.5121
  244MOL0     C33538   6.513   5.262  10.966 -1.1119  0.5862  0.3507
  244MOL0     C33539   6.548   5.176  11.078  0.4783  0.5065 -0.0773
  244MOL0     C33540   6.681   5.165  11.125  0.8956  0.4786 -0.4313
  244MOL0     C33541   6.779   5.244  11.062  0.4711  0.1307  0.0131
  244MOL0     O33542   6.917   5.245  11.086 -0.4966 -0.0805  0.4200
  244MOL0     C33543   6.970   5.136  11.165  0.7883 -0.4714 -0.2116
  244MOL0     C33544   7.125   5.133  11.155  0.3917  0.5874  0.5488
  244MOL0     C33545   7.175   5.126  11.009 -0.6347  0.6562 -0.0931
  244MOL0     C33546   7.315   5.056  11.006  0.0020  0.9178 -0.7174
  244MOL0     C33547   7.380   5.067  10.869  0.0231 -0.1208  0.3748
  244MOL0     C33548   7.291   5.049  10.736 -0.7586 -0.8159  0.1987
  244MOL0     C33549   7.271   4.899  10.712  0.3589  0.1239 -0.0492
  244MOL0     C33550   7.388   4.807  10.688 -0.1693 -0.8934 -0.2565
  244MOL0     N33551   7.411   4.766  10.548  0.2290  0.9666  0.2194
  244MOL0     C33552   7.523   4.696  10.512 -0.7114  0.5468  0.2870
  244MOL0     C33553   7.516   4.689  10.377 -0.0200  0.2600 -0.1580
  244MOL0     C33554   7.633   4.692  10.288  0.3261  0.7562  0.7568
  244MOL0     C33555   7.614   4.578  10.176  0.2567 -0.9161 -0.3384
  244MOL0     C33556   7.619   4.433  10.219 -0.1909  0.5823 -0.1572
  244MOL0     C33557   7.731   4.403  10.315  0.7403 -0.7383 -0.5291
  244MOL0     O33558   7.859   4.402  10.245  0.5080 -0.2029  0.7621
  244MOL0     C33559   7.977   4.349  10.301 -0.0908  0.1363  0.0854
  244MOL0     C33560   8.097   4.321  10.230  0.0163  0.1622  0.5209
  244MOL0     C33561   8.217   4.266  10.287  1.1646 -0.1805  0.6639
  244MOL0     C33562   8.342   4.264  10.207 -0.4004  0.4626 -0.1294
  244MOL0     C33563   8.206   4.217  10.419  1.1008 -0.0226 -0.6462
  244MOL0     C33564   8.320   4.147  10.485 -0.1913  0.6294 -0.1270
  244MOL0     O33565   8.382   4.200  10.591 -0.2578 -0.4952 -0.5025
  244MOL0     C33566   8.498   4.130  10.632 -0.7965 -0.7554 -0.0890
  244MOL0     C33567   8.617   4.195  10.608  0.1209 -1.7995  0.1589
  244MOL0     C33568   8.734   4.127  10.631 -0.1180 -0.7029  0.1960
  244MOL0     C33569   8.733   4.006  10.700  1.0680  0.0937 -0.0294
  244MOL0     O33570   8.861   3.946  10.717  0.5529  0.4317  0.3610
  244MOL0     C33571   8.857   3.797  10.716  0.3592  0.2023 -0.1265
  244MOL0     C33572   8.999   3.730  10.706  0.5142 -0.4838 -0.1495
  244MOL0     C33573   9.086   3.747  10.833  0.2088  0.5267 -0.6949
  244MOL0     C33574   9.237   3.749  10.809  0.4184 -0.6900 -0.1319
  244MOL0     C33575   9.307   3.764  10.953 -1.7610 -1.1405 -0.5057
  244MOL0     C33576   9.459   3.763  10.948  0.7052  0.7288 -0.4294
  244MOL0     C33577   9.532   3.826  11.071  0.1795  0.0844  0.4953
  244MOL0     C33578   9.495   3.777  11.209  0.7381 -0.4115  0.0456
  244MOL0    Cl33579   9.586   3.864  11.335 -0.2721 -0.6337  0.3441
  244MOL0     C33580   8.616   3.949  10.737  0.0300  0.5972 -0.1496
  244MOL0     C33581   8.489   4.010  10.703 -0.3764  0.3010 -0.8008
  244MOL0     O33582   8.355   4.041  10.430  0.1562 -0.5426 -0.0475
  244MOL0     C33583   8.091   4.247  10.484 -0.1391 -0.1180 -0.2086
  244MOL0     C33584   7.980   4.313  10.436  0.2248 -0.1687 -0.3123
  244MOL0     N33585   7.389   4.743  10.345 -0.9971  0.1486  0.4388
  244MOL0     N33586   7.332   4.801  10.439 -0.1956  0.8791  0.2849
  244MOL0     C33587   6.743   5.321  10.950  0.0886  0.4732 -0.6349
  244MOL0     C33588   6.612   5.339  10.904  0.0857  0.4386  0.2597
  244MOL0     C33589   6.139   5.245  10.928 -0.0119 -0.2170  0.7435
  244MOL0     C33590   6.144   5.276  10.793 -0.2317  0.2090  0.0303
  244MOL0     C33591   6.024   5.298  10.723 -0.2173  0.0553 -0.6169
  244MOL0     C33592   5.897   5.286  10.781 -0.1860 -1.0806 -0.1368
  244MOL0     O33593   5.782   5.303  10.712 -0.2544 -0.3451  0.7013
  244MOL0     C33594   5.787   5.223  10.591  0.0614 -0.5322 -0.0330
  244MOL0     C33595   5.651   5.203  10.523  0.3078 -0.9325  0.3343
  244MOL0     C33596   5.611   5.334  10.435  0.3875  0.2276  0.5672
  244MOL0     C33597   5.659   5.316  10.284  0.7933 -0.0675 -0.5339
  244MOL0     C33598   5.810   5.308  10.255  0.7264 -1.1492 -0.3785
  244MOL0     C33599   5.925   5.317  10.224 -0.2013  0.0928 -1.1263
  244MOL0     C33600   5.888   5.254  10.913  0.1641 -0.6900  0.4227
  244MOL0     C33601   6.008   5.230  10.988  0.0900  1.0851 -0.0969
  244MOL0     C33602   5.987   5.192  11.135  0.2271  0.8305  0.5185
  244MOL0     H33603   6.472   5.107  11.112  2.1420 -0.4172  2.0343
  244MOL0     H33604   6.712   5.110  11.213 -0.9024 -0.2645 -0.2197
  244MOL0     H33605   6.933   5.039  11.130 -0.3192 -0.3019  0.4529
  244MOL0     H33606   6.942   5.139  11.271 -0.8873 -1.0782 -0.6031
  244MOL0     H33607   7.168   5.219  11.208  1.5315  0.0890  0.4523
  244MOL0     H33608   7.164   5.051  11.216 -1.3904 -0.2506  0.6192
  244MOL0     H33609   7.100   5.081  10.943 -0.4805 -2.4499  1.6784
  244MOL0     H33610   7.194   5.220  10.956  0.7325  0.2341 -0.3955
  244MOL0     H33611   7.390   5.086  11.081  1.3522 -4.3813  0.4553
  244MOL0     H33612   7.294   4.954  11.038  0.5531  0.8828 -0.4426
  244MOL0     H33613   7.464   4.999  10.862 -1.2957 -1.7266 -0.5935
  244MOL0     H33614   7.429   5.163  10.850  0.8700 -1.1021 -3.0137
  244MOL0     H33615   7.198   5.106  10.743  0.4806  2.4554 -4.6379
  244MOL0     H33616   7.341   5.100  10.653 -2.9236  2.6441  0.8179
  244MOL0     H33617   7.213   4.894  10.620  0.6337  3.0674 -0.4842
  244MOL0     H33618   7.213   4.849  10.791  0.7618 -0.5167 -0.1586
  244MOL0     H33619   7.477   4.856  10.728 -0.4013  2.8581 -3.5939
  244MOL0     H33620   7.367   4.710  10.734  2.1309 -2.3631 -2.0855
  244MOL0     H33621   7.608   4.679  10.577 -2.4374 -0.1083  2.5147
  244MOL0     H33622   7.728   4.670  10.337  0.3036  0.4187  0.6433
  244MOL0     H33623   7.639   4.779  10.221  3.1652 -0.7765 -1.1538
  244MOL0     H33624   7.518   4.593  10.125 -1.2359  3.5274  3.1747
  244MOL0     H33625   7.694   4.598  10.104  0.0308 -0.3229 -0.4271
  244MOL0     H33626   7.522   4.404  10.260 -1.1482 -0.0535 -2.6496
  244MOL0     H33627   7.641   4.374  10.129  2.5064  0.7419  0.3364
  244MOL0     H33628   7.721   4.476  10.396 -2.2056  0.2601 -1.6507
  244MOL0     H33629   7.716   4.301  10.354 -3.3198 -1.0638 -2.3735
  244MOL0     H33630   8.092   4.358  10.128  1.5128 -1.5821 -0.2357
  244MOL0     H33631   8.327   4.238  10.101 -1.0966 -1.8484  0.4867
  244MOL0     H33632   8.413   4.188  10.241 -0.2095  0.0340 -1.4091
  244MOL0     H33633   8.389   4.363  10.218 -1.5853  0.8894  1.3997
  244MOL0     H33634   8.629   4.298  10.576  0.5021 -1.9203 -0.0864
  244MOL0     H33635   8.828   4.177  10.612 -0.1779  0.6528  2.9380
  244MOL0     H33636   8.809   3.756  10.805 -0.6100 -0.2505 -0.8372
  244MOL0     H33637   8.799   3.761  10.631  2.4489 -0.0309 -1.5434
  244MOL0     H33638   8.997   3.621  10.696 -0.7545 -0.2957 -2.6385
  244MOL0     H33639   9.052   3.780  10.625  3.0947  3.3081  3.4627
  244MOL0     H33640   9.064   3.666  10.904 -0.0904  1.1111 -0.1085
  244MOL0     H33641   9.055   3.839  10.885  1.1789 -0.5593  1.9997
  244MOL0     H33642   9.268   3.832  10.746  1.6836 -1.5246 -0.6571
  244MOL0     H33643   9.268   3.659  10.755  0.3227 -1.0507  0.3974
  244MOL0     H33644   9.282   3.858  11.004  2.4348 -0.1692  0.1350
  244MOL0     H33645   9.277   3.685  11.022 -1.7650  0.0098  0.8556
  244MOL0     H33646   9.483   3.822  10.860  0.2528 -0.3083 -1.2753
  244MOL0     H33647   9.487   3.658  10.934 -2.5684 -0.5273  1.2061
  244MOL0     H33648   9.537   3.934  11.055 -1.5202  0.2459  0.8571
  244MOL0     H33649   9.639   3.804  11.071 -0.0366 -1.0453 -0.0680
  244MOL0     H33650   9.516   3.670  11.204 -2.2016 -1.0445 -1.3961
  244MOL0     H33651   9.389   3.777  11.238  0.5997  0.2277 -0.4434
  244MOL0     H33652   8.618   3.847  10.775 -1.6501 -0.5439 -2.8457
  244MOL0     H33653   8.391   3.974  10.731  0.1751 -2.1867 -1.7277
  244MOL0     H33654   8.097   4.220  10.589 -2.4091  2.2545  0.6633
  244MOL0     H33655   7.901   4.347  10.503 -0.1498 -1.3669 -0.1232
  244MOL0     H33656   6.833   5.370  10.912 -1.2536  1.2751 -2.9833
  244MOL0     H33657   6.577   5.394  10.817 -0.7597 -0.1808  0.1987
  244MOL0     H33658   6.236   5.265  10.736 -0.3022  0.2444 -0.0890
  244MOL0     H33659   6.026   5.332  10.619  0.3069 -0.3749 -0.7549
  244MOL0     H33660   5.858   5.264  10.519 -2.5237  3.1049 -0.7942
  244MOL0     H33661   5.822   5.121  10.611  0.2628 -0.7336 -1.3272
  244MOL0     H33662   5.581   5.198  10.607  2.7108  2.1062  2.7247
  244MOL0     H33663   5.655   5.114  10.459 -2.6208  1.4945 -3.7090
  244MOL0     H33664   5.504   5.319  10.424  0.4650 -1.9248  2.1666
  244MOL0     H33665   5.635   5.434  10.474 -3.1636  1.6053 -0.4175
  244MOL0     H33666   5.617   5.391  10.217  0.5764 -1.2212 -1.7464
  244MOL0     H33667   5.615   5.222  10.248  0.3966 -2.1559  4.5409
  244MOL0     H33668   6.026   5.310  10.190 -0.7529 -2.2827 -2.5206
  244MOL0     H33669   5.797   5.252  10.972  0.8480 -0.3770  1.5161
  244MOL0     H33670   6.057   5.110  11.157 -1.2825 -0.2006  1.7105
  244MOL0     H33671   6.011   5.276  11.200 -1.5171  0.6547  1.4461
  244MOL0     H33672   5.884   5.160  11.152  1.0858 -2.0101  1.0641
  245MOL0     O33673   0.707   0.565   6.992  0.1697 -0.2584  0.3700
  245MOL0     C33674   0.768   0.616   6.895 -0.1317  0.2599 -0.3653
  245MOL0     O33675   0.852   0.554   6.815 -0.2466  0.1205  0.5911
  245MOL0     C33676   0.873   0.420   6.804  0.1469  0.1297 -0.4638
  245MOL0     C33677   0.972   0.377   6.707  0.6176  0.2985 -0.6334
  245MOL0     C33678   0.993   0.239   6.687  0.0125 -0.6416  0.2234
  245MOL0     C33679   0.920   0.144   6.754  0.1616  0.0217  0.5451
  245MOL0     O33680   0.962   0.009   6.735 -0.2868  0.2341 -0.3152
  245MOL0     C33681   0.942  -0.060   6.861 -0.5492  0.3123  0.2018
  245MOL0     C33682   1.017  -0.194   6.855  0.1659 -0.2142  0.0933
  245MOL0     C33683   1.047  -0.255   6.994  0.1753  0.3463 -0.4888
  245MOL0     C33684   1.171  -0.184   7.067 -0.6104  0.0156 -0.8868
  245MOL0     C33685   1.223  -0.245   7.188 -0.9875 -0.2934 -0.3168
  245MOL0     C33686   1.286  -0.385   7.176  0.0865  0.3671 -0.8365
  245MOL0     C33687   1.342  -0.437   7.312  1.2792 -0.9173  0.2236
  245MOL0     C33688   1.406  -0.577   7.305 -0.1366  0.4024 -0.3269
  245MOL0     N33689   1.476  -0.613   7.429 -0.1674  0.5895 -0.5067
  245MOL0     C33690   1.420  -0.616   7.557  0.3033  0.0556  0.2855
  245MOL0     C33691   1.510  -0.679   7.636 -0.1521  0.2666  0.0028
  245MOL0     C33692   1.520  -0.714   7.785  0.1903 -0.4894  0.0927
  245MOL0     C33693   1.474  -0.601   7.876  0.4512 -0.1212 -1.2021
  245MOL0     C33694   1.465  -0.643   8.033  0.7105 -0.3339  0.4329
  245MOL0     C33695   1.326  -0.683   8.078 -0.9524 -0.8142  0.4646
  245MOL0     O33696   1.316  -0.699   8.217 -0.2942  0.3424 -0.5510
  245MOL0     C33697   1.354  -0.821   8.266 -1.4823 -0.6590  0.3172
  245MOL0     C33698   1.368  -0.844   8.401 -0.3369  0.5495  0.4183
  245MOL0     C33699   1.410  -0.963   8.469 -0.4819 -0.8538  1.0016
  245MOL0     C33700   1.414  -0.960   8.619  0.5202  0.3552  0.6292
  245MOL0     C33701   1.445  -1.079   8.389  0.8540  0.7101 -0.9726
  245MOL0     C33702   1.481  -1.209   8.442 -0.6126  0.3290  0.8850
  245MOL0     O33703   1.530  -1.290   8.350 -0.3159  0.4238  0.5469
  245MOL0     C33704   1.603  -1.404   8.374  0.7014  0.3816 -0.3093
  245MOL0     C33705   1.658  -1.448   8.497  0.1745 -0.6621  1.1730
  245MOL0     C33706   1.757  -1.549   8.505  0.0675 -0.5087  0.5505
  245MOL0     C33707   1.802  -1.620   8.390  0.8350 -0.2776 -0.4981
  245MOL0     O33708   1.884  -1.731   8.399 -0.1364  0.0082 -0.3808
  245MOL0     C33709   1.876  -1.841   8.308  0.0626 -0.2082  0.3939
  245MOL0     C33710   1.968  -1.953   8.348 -0.3302  0.2826 -0.4527
  245MOL0     C33711   1.935  -1.991   8.492 -0.8669 -0.3739  0.2794
  245MOL0     C33712   1.992  -2.138   8.522 -0.0283 -0.4161 -1.4718
  245MOL0     C33713   1.976  -2.165   8.674 -0.3437  0.6333 -0.0995
  245MOL0     C33714   2.022  -2.307   8.706 -0.2846  0.2412 -0.2777
  245MOL0     C33715   2.026  -2.326   8.848 -0.0662 -0.0503 -0.2236
  245MOL0     C33716   1.915  -2.416   8.903  1.0019 -0.3553  1.3675
  245MOL0    Cl33717   1.936  -2.577   8.838  0.0991 -0.5337 -0.2084
  245MOL0     C33718   1.743  -1.581   8.270  0.1489 -0.3708  0.6544
  245MOL0     C33719   1.650  -1.473   8.262  0.1724  0.3429  0.5802
  245MOL0     O33720   1.460  -1.253   8.555 -0.1330 -1.3369  0.3352
  245MOL0     C33721   1.431  -1.060   8.253  1.3132  0.4184  0.2921
  245MOL0     C33722   1.381  -0.938   8.195  0.2957  0.1199  0.1565
  245MOL0     N33723   1.625  -0.704   7.563  0.1836 -0.3120 -0.1662
  245MOL0     N33724   1.605  -0.659   7.442 -0.2604  0.0703  0.4303
  245MOL0     C33725   0.830   0.184   6.857  0.3124 -0.5391 -1.2724
  245MOL0     C33726   0.813   0.325   6.888  0.2638  0.3521  0.7802
  245MOL0     C33727   0.753   0.762   6.869 -0.1064  0.3858 -0.2248
  245MOL0     C33728   0.695   0.845   6.970  0.0652  0.2263 -0.3266
  245MOL0     C33729   0.664   0.977   6.946 -0.7338  0.7142 -0.3843
  245MOL0     C33730   0.693   1.037   6.820 -0.6367 -0.6629 -0.8813
  245MOL0     O33731   0.655   1.178   6.826  0.3329 -0.3150 -0.2773
  245MOL0     C33732   0.633   1.231   6.703  0.5945 -0.0319  0.3919
  245MOL0     C33733   0.632   1.385   6.700 -0.3146  0.6067 -0.8224
  245MOL0     C33734   0.600   1.438   6.557  0.0460 -0.3375  0.0615
  245MOL0     C33735   0.606   1.593   6.552 -0.1684 -0.5098  0.0300
  245MOL0     C33736   0.516   1.677   6.637  0.1358 -0.6999  0.1388
  245MOL0     C33737   0.443   1.743   6.707 -0.0805  0.3771  0.3771
  245MOL0     C33738   0.763   0.966   6.727 -0.8463 -0.4234  0.5960
  245MOL0     C33739   0.791   0.830   6.743  0.3406  0.4052 -0.3905
  245MOL0     C33740   0.832   0.750   6.609  0.1584 -0.0186 -0.3223
  245MOL0     H33741   1.033   0.445   6.649  3.2966 -0.6897  0.8466
  245MOL0     H33742   1.075   0.195   6.631  1.1873  2.0073 -0.2917
  245MOL0     H33743   0.837  -0.083   6.882 -0.1602 -0.8117  1.0205
  245MOL0     H33744   0.982  -0.011   6.951 -0.8565 -3.1031  2.3941
  245MOL0     H33745   0.954  -0.256   6.791  1.0501  0.9963 -2.0353
  245MOL0     H33746   1.103  -0.180   6.789 -1.1922  3.0626 -1.1863
  245MOL0     H33747   0.954  -0.238   7.050 -0.3873  1.5726 -1.7390
  245MOL0     H33748   1.063  -0.363   6.984  0.9605  0.5634 -1.7550
  245MOL0     H33749   1.248  -0.185   6.989  0.9240 -1.9192  0.5617
  245MOL0     H33750   1.142  -0.085   7.102 -0.7042 -1.0366  2.3323
  245MOL0     H33751   1.143  -0.255   7.262  0.8071  0.0401  1.7811
  245MOL0     H33752   1.308  -0.183   7.218 -0.0091 -1.2512 -0.9884
  245MOL0     H33753   1.228  -0.466   7.132  2.6848 -2.7732  1.0960
  245MOL0     H33754   1.374  -0.364   7.114  0.2664  1.2191 -0.3128
  245MOL0     H33755   1.257  -0.440   7.381 -0.1023  1.3934 -1.2404
  245MOL0     H33756   1.410  -0.367   7.363 -2.3336  3.8154 -0.7264
  245MOL0     H33757   1.333  -0.657   7.288  0.7894 -0.8392  1.2618
  245MOL0     H33758   1.476  -0.580   7.221 -1.7062 -0.5425 -1.6676
  245MOL0     H33759   1.326  -0.571   7.587  0.7600  1.9607 -0.9560
  245MOL0     H33760   1.621  -0.744   7.817  1.7671  4.9800  1.2687
  245MOL0     H33761   1.460  -0.804   7.803  1.5670 -1.5393 -0.3629
  245MOL0     H33762   1.554  -0.527   7.887  0.4641 -0.2160 -0.6102
  245MOL0     H33763   1.389  -0.544   7.837  0.8114 -0.0290 -1.8526
  245MOL0     H33764   1.537  -0.722   8.056 -0.6663 -1.5375  0.7179
  245MOL0     H33765   1.493  -0.554   8.090  3.6414  0.0890 -1.4216
  245MOL0     H33766   1.254  -0.605   8.048  1.0532  0.7579 -0.5112
  245MOL0     H33767   1.309  -0.770   8.015 -1.2951  1.1052 -2.2642
  245MOL0     H33768   1.334  -0.760   8.460  1.3370  3.6324 -2.6184
  245MOL0     H33769   1.403  -0.859   8.660  2.5886  0.2290  1.6464
  245MOL0     H33770   1.510  -1.000   8.654  0.8855  0.2032 -0.5164
  245MOL0     H33771   1.345  -1.031   8.665  1.9333 -0.6965  1.2120
  245MOL0     H33772   1.643  -1.399   8.593  1.6700  0.9096  0.6503
  245MOL0     H33773   1.812  -1.582   8.593 -0.2578  1.2934  1.4820
  245MOL0     H33774   1.771  -1.873   8.307 -0.1383  0.4097  1.0861
  245MOL0     H33775   1.909  -1.800   8.212  1.3849  3.3225  2.1560
  245MOL0     H33776   1.963  -2.034   8.273  2.1539  0.2133 -0.6258
  245MOL0     H33777   2.072  -1.922   8.342 -0.2008  0.5752  2.1900
  245MOL0     H33778   1.826  -1.995   8.493 -0.8504 -2.4932 -0.8995
  245MOL0     H33779   1.972  -1.920   8.566  1.3470  1.2753 -2.2252
  245MOL0     H33780   2.097  -2.151   8.496  0.8235  0.2905  1.3016
  245MOL0     H33781   1.940  -2.219   8.469 -0.0271 -0.4530 -1.4177
  245MOL0     H33782   2.038  -2.096   8.732  1.6046 -3.2733  2.9974
  245MOL0     H33783   1.874  -2.142   8.704 -0.0185  0.8049  0.9257
  245MOL0     H33784   2.119  -2.334   8.663  0.0892 -0.5047  1.0068
  245MOL0     H33785   1.945  -2.368   8.658  1.4736 -1.6426 -0.8612
  245MOL0     H33786   2.010  -2.230   8.898 -1.2534 -0.7377  0.7611
  245MOL0     H33787   2.123  -2.366   8.879 -0.2694 -2.7271 -2.5952
  245MOL0     H33788   1.818  -2.372   8.880  2.3825  1.9372 -0.4776
  245MOL0     H33789   1.917  -2.424   9.012  2.0901  2.9710  1.7056
  245MOL0     H33790   1.772  -1.638   8.182 -1.5184  0.5473 -0.5521
  245MOL0     H33791   1.605  -1.430   8.173 -1.7570 -1.0441  0.8276
  245MOL0     H33792   1.440  -1.139   8.180 -0.9501  0.8553 -0.5329
  245MOL0     H33793   1.358  -0.941   8.089  0.5040  3.0738 -0.0333
  245MOL0     H33794   0.784   0.109   6.921 -0.4421 -0.2312 -1.4493
  245MOL0     H33795   0.748   0.346   6.972  0.9176  3.1246  0.7007
  245MOL0     H33796   0.664   0.798   7.063 -0.2141  1.0614  0.0131
  245MOL0     H33797   0.625   1.034   7.030 -3.7651  0.1096 -1.2248
  245MOL0     H33798   0.706   1.213   6.623 -2.0986 -0.8753 -2.0635
  245MOL0     H33799   0.536   1.190   6.674 -1.3071  4.1767  0.0585
  245MOL0     H33800   0.731   1.411   6.738  0.1884 -3.0423  0.7820
  245MOL0     H33801   0.548   1.416   6.764 -2.1871 -1.4516 -2.1458
  245MOL0     H33802   0.682   1.412   6.489 -0.0224 -0.3575 -0.0143
  245MOL0     H33803   0.508   1.404   6.509 -0.5476  1.7391 -0.3762
  245MOL0     H33804   0.585   1.627   6.450 -0.3069  2.5739  0.9885
  245MOL0     H33805   0.712   1.616   6.566 -0.2148  1.9552 -2.7143
  245MOL0     H33806   0.386   1.808   6.771 -1.3441 -0.6604  0.3488
  245MOL0     H33807   0.794   1.008   6.632  1.3795  3.4845  2.7813
  245MOL0     H33808   0.744   0.714   6.555  2.1379  1.6377 -5.2334
  245MOL0     H33809   0.878   0.816   6.535 -0.8612 -0.5172 -1.4434
  245MOL0     H33810   0.906   0.670   6.607  1.2265  0.8964  1.0704
  246MOL0     O33811   8.413   9.163  10.638  0.0402  0.9545 -0.0482
  246MOL0     C33812   8.507   9.128  10.571 -0.3909  1.0421  0.3141
  246MOL0     O33813   8.495   9.092  10.435  0.4956  0.5660 -0.7545
  246MOL0     C33814   8.378   9.132  10.367  0.3627  0.1316 -0.5806
  246MOL0     C33815   8.325   9.263  10.364 -0.4387  0.9232  0.2175
  246MOL0     C33816   8.216   9.290  10.283  0.6436 -0.2309 -0.2595
  246MOL0     C33817   8.163   9.192  10.197 -0.0175  0.0423  0.4040
  246MOL0     O33818   8.049   9.227  10.125 -0.3373 -0.4732  0.0053
  246MOL0     C33819   7.965   9.121  10.071  0.8947 -0.8074  0.5588
  246MOL0     C33820   7.851   9.192   9.997  0.9442 -0.3516  0.6722
  246MOL0     C33821   7.715   9.175  10.077 -0.8328 -0.0225  0.2390
  246MOL0     C33822   7.609   9.278  10.024  0.1193  0.0049  0.3360
  246MOL0     C33823   7.523   9.316  10.139 -0.2628  0.1899 -0.0591
  246MOL0     C33824   7.571   9.428  10.227  0.3883  0.3061 -0.8272
  246MOL0     C33825   7.478   9.455  10.350 -0.5131  0.9964  0.1463
  246MOL0     C33826   7.539   9.541  10.459 -1.2541 -0.1048 -0.3591
  246MOL0     N33827   7.443   9.596  10.549 -0.0915 -0.1836  0.4672
  246MOL0     C33828   7.324   9.653  10.513 -0.5182  0.6158  0.9570
  246MOL0     C33829   7.258   9.689  10.623  0.2812 -1.3831 -0.8616
  246MOL0     C33830   7.126   9.754  10.595 -1.2615  0.6038 -0.1490
  246MOL0     C33831   7.037   9.743  10.716  0.4291  0.4695 -0.3661
  246MOL0     C33832   6.904   9.810  10.686  0.8618 -0.8005  0.0707
  246MOL0     C33833   6.831   9.856  10.814 -0.4008 -0.5729 -0.0437
  246MOL0     O33834   6.911   9.955  10.877 -0.1021  0.5752 -0.2114
  246MOL0     C33835   6.878  10.008  11.000 -0.6236 -1.7735 -0.5568
  246MOL0     C33836   6.981  10.015  11.093  0.6720 -0.7202  0.6826
  246MOL0     C33837   6.953  10.066  11.233 -0.7264 -0.1778  0.0196
  246MOL0     C33838   7.078  10.073  11.321 -0.0211 -0.5037 -0.5044
  246MOL0     C33839   6.821  10.106  11.275 -0.4111  0.1742  0.0271
  246MOL0     C33840   6.787  10.157  11.412  0.9037 -0.5524 -0.8850
  246MOL0     O33841   6.882  10.178  11.515 -0.0148  0.3450  0.2010
  246MOL0     C33842   6.838  10.208  11.645  0.2016 -0.4221  0.7257
  246MOL0     C33843   6.829  10.097  11.735  0.3244  0.1420 -0.3114
  246MOL0     C33844   6.790  10.128  11.868  0.2049 -0.3233 -0.2864
  246MOL0     C33845   6.770  10.267  11.905 -0.0550 -0.6461  0.3015
  246MOL0     O33846   6.731  10.309  12.029  0.2842  0.1659  0.6732
  246MOL0     C33847   6.643  10.221  12.102 -0.3586 -0.3512  1.4199
  246MOL0     C33848   6.611  10.297  12.227  0.0975  0.1761  0.0957
  246MOL0     C33849   6.512  10.229  12.323  0.5782 -0.5607  1.2817
  246MOL0     C33850   6.547  10.084  12.341 -0.0895  0.1289 -0.1003
  246MOL0     C33851   6.466  10.031  12.456  0.2947 -0.3979  0.3762
  246MOL0     C33852   6.504  10.077  12.597 -0.1711 -0.5728 -0.3096
  246MOL0     C33853   6.641  10.048  12.649 -0.0807 -0.1181 -1.0870
  246MOL0     C33854   6.681  10.133  12.776 -0.0205  0.7472 -0.0033
  246MOL0    Cl33855   6.681  10.309  12.735  0.2640  0.0681  0.3451
  246MOL0     C33856   6.786  10.369  11.818  0.4675  0.2270  0.7687
  246MOL0     C33857   6.821  10.338  11.684  0.5086 -0.1777 -0.5482
  246MOL0     O33858   6.664  10.164  11.429  0.3637  0.5814 -1.2347
  246MOL0     C33859   6.726  10.089  11.171 -0.2005  0.2952 -0.1525
  246MOL0     C33860   6.753  10.048  11.040 -0.0315  0.2066  1.6405
  246MOL0     N33861   7.327   9.646  10.737  0.7279 -0.1185  0.1310
  246MOL0     N33862   7.437   9.592  10.691  0.4903  0.0605  0.3604
  246MOL0     C33863   8.213   9.063  10.204 -0.8945  0.1393  0.5106
  246MOL0     C33864   8.331   9.030  10.286 -0.0716 -0.5179  0.0591
  246MOL0     C33865   8.638   9.116  10.634 -0.6905 -0.2125  0.7011
  246MOL0     C33866   8.652   9.187  10.756 -0.3912 -0.0269 -0.1499
  246MOL0     C33867   8.770   9.183  10.831  0.2095  0.3114  1.0205
  246MOL0     C33868   8.887   9.112  10.785 -0.5914 -0.1479 -0.0361
  246MOL0     O33869   9.011   9.100  10.852 -0.2805 -0.3661 -0.3523
  246MOL0     C33870   9.024   9.177  10.977 -0.4100  0.7344  0.9539
  246MOL0     C33871   8.969   9.123  11.102  0.2207  0.5915 -0.2965
  246MOL0     C33872   9.021   8.976  11.129 -0.1650 -0.2415  0.4140
  246MOL0     C33873   9.160   8.973  11.171 -0.0860  0.1659 -0.5708
  246MOL0     C33874   9.185   8.860  11.262 -0.0142  0.0441  0.4543
  246MOL0     C33875   9.207   8.758  11.329 -0.5984 -0.4798  0.2146
  246MOL0     C33876   8.870   9.054  10.659 -0.8623  0.0032  0.8083
  246MOL0     C33877   8.754   9.050  10.584 -0.5474  0.6765  0.9688
  246MOL0     C33878   8.758   8.974  10.452 -0.4404  0.4901 -0.4266
  246MOL0     H33879   8.376   9.340  10.421  1.6516  1.6032 -2.3921
  246MOL0     H33880   8.163   9.385  10.283  1.9916  0.5692  1.3391
  246MOL0     H33881   7.923   9.059  10.150 -1.1728  2.0325  1.8643
  246MOL0     H33882   8.025   9.064   9.999 -3.1439 -1.9547 -2.2698
  246MOL0     H33883   7.871   9.294   9.963  1.4106 -0.3508  0.9318
  246MOL0     H33884   7.832   9.150   9.898  1.3175  3.4295 -1.2163
  246MOL0     H33885   7.672   9.075  10.069  0.1743 -0.4657  0.1669
  246MOL0     H33886   7.745   9.205  10.178 -2.1988  0.7991  0.4302
  246MOL0     H33887   7.650   9.375   9.994 -2.8748  1.6481  1.1455
  246MOL0     H33888   7.552   9.252   9.934  0.4234  0.1377  0.1003
  246MOL0     H33889   7.487   9.239  10.208  1.4862  0.3784  1.1138
  246MOL0     H33890   7.429   9.343  10.089 -0.1054 -1.9576 -1.6652
  246MOL0     H33891   7.676   9.411  10.256  0.5444 -1.7696 -2.3887
  246MOL0     H33892   7.572   9.526  10.180  4.3918  1.5481  1.3371
  246MOL0     H33893   7.460   9.361  10.403 -0.1091 -0.0919 -1.5978
  246MOL0     H33894   7.388   9.498  10.305  0.1690  1.9631 -0.3346
  246MOL0     H33895   7.612   9.477  10.510 -3.9630 -1.6655  1.8403
  246MOL0     H33896   7.595   9.620  10.408 -2.0969 -0.1161 -1.3180
  246MOL0     H33897   7.291   9.671  10.411  0.6161 -2.3702 -0.0518
  246MOL0     H33898   7.084   9.697  10.511  0.0450  0.7681 -0.9412
  246MOL0     H33899   7.142   9.859  10.567  1.2763  0.7398  1.5587
  246MOL0     H33900   7.023   9.637  10.741  0.4462 -0.0225 -2.2516
  246MOL0     H33901   7.078   9.797  10.802  1.5079  1.3252 -1.3828
  246MOL0     H33902   6.926   9.902  10.630 -1.5465 -1.5823 -2.3601
  246MOL0     H33903   6.840   9.738  10.634  2.4043 -2.9244  0.9858
  246MOL0     H33904   6.732   9.895  10.788 -0.0582 -0.7411 -1.7096
  246MOL0     H33905   6.808   9.775  10.883 -2.6417  0.5493  0.6245
  246MOL0     H33906   7.075   9.967  11.068  1.0055 -0.4722  1.4039
  246MOL0     H33907   7.051  10.028  11.416 -0.0447  0.3812 -0.0782
  246MOL0     H33908   7.124  10.169  11.346 -1.8782 -0.5414  3.8374
  246MOL0     H33909   7.148  10.004  11.274 -2.1814 -1.6715 -2.1694
  246MOL0     H33910   6.853   9.994  11.714  0.3364  0.2077 -0.6261
  246MOL0     H33911   6.795  10.048  11.940  2.5754 -0.0212 -0.0427
  246MOL0     H33912   6.549  10.212  12.046 -0.5708 -1.0157  1.8675
  246MOL0     H33913   6.681  10.124  12.137 -0.2955  0.0938  2.6521
  246MOL0     H33914   6.706  10.297  12.279  1.1501  0.5177 -1.7309
  246MOL0     H33915   6.559  10.392  12.211 -5.2413 -2.5889 -1.5113
  246MOL0     H33916   6.409  10.233  12.288  1.1619 -3.2577 -1.1257
  246MOL0     H33917   6.519  10.289  12.414  1.5282  1.8164 -0.2432
  246MOL0     H33918   6.653  10.082  12.365 -0.1696 -0.4413  0.2169
  246MOL0     H33919   6.529  10.019  12.255 -0.4272 -2.0139  1.5003
  246MOL0     H33920   6.364  10.067  12.439  0.1981 -0.2729  1.2221
  246MOL0     H33921   6.466   9.921  12.453 -2.4261 -0.5524  2.4981
  246MOL0     H33922   6.430  10.037  12.668  0.4066  0.4586  0.8962
  246MOL0     H33923   6.476  10.182  12.605 -1.1495 -0.9096  1.1345
  246MOL0     H33924   6.721  10.066  12.575  1.5618 -1.7484  0.1947
  246MOL0     H33925   6.647   9.942  12.675 -2.0245 -0.0071  0.0106
  246MOL0     H33926   6.780  10.104  12.814 -0.6838 -2.2157 -0.2582
  246MOL0     H33927   6.613  10.118  12.860  1.1229 -0.1804  0.7991
  246MOL0     H33928   6.771  10.470  11.852  4.8410  0.8875  1.2418
  246MOL0     H33929   6.842  10.428  11.627 -1.6882  2.0221  1.8677
  246MOL0     H33930   6.622  10.118  11.183 -0.9978 -2.6350  0.9214
  246MOL0     H33931   6.678  10.063  10.963  3.4266 -0.7714 -2.2952
  246MOL0     H33932   8.181   8.989  10.131  0.8851  2.8639 -3.3541
  246MOL0     H33933   8.371   8.931  10.305  2.9368  0.1424 -2.1159
  246MOL0     H33934   8.563   9.221  10.806  0.1805 -1.6838  2.1892
  246MOL0     H33935   8.763   9.226  10.930 -4.5612 -0.7189  1.4106
  246MOL0     H33936   9.132   9.187  10.990 -0.0824 -0.8207 -0.2996
  246MOL0     H33937   8.984   9.277  10.955  1.4873  1.1712 -0.9166
  246MOL0     H33938   8.859   9.129  11.098  0.1365  2.0644  2.0193
  246MOL0     H33939   9.016   9.191  11.174 -0.6632  2.6651 -1.5686
  246MOL0     H33940   8.953   8.922  11.197 -1.6340  1.6502  0.5061
  246MOL0     H33941   9.018   8.919  11.036  3.0113 -0.0441  0.0980
  246MOL0     H33942   9.180   9.065  11.226 -1.1772 -0.6786  1.3132
  246MOL0     H33943   9.228   8.964  11.086  1.2232  2.6668  0.1020
  246MOL0     H33944   9.222   8.671  11.389  1.5682  1.3062  2.4999
  246MOL0     H33945   8.956   9.007  10.613 -2.5356 -1.5340 -0.9416
  246MOL0     H33946   8.722   8.871  10.462 -0.4913  0.1966 -2.9114
  246MOL0     H33947   8.698   9.026  10.376 -1.2760  1.5954  0.9447
  246MOL0     H33948   8.861   8.976  10.415 -1.3299 -1.0345 -3.3051
  247MOL0     O33949   3.732   8.034   3.876  0.5471  0.3590  1.3628
  247MOL0     C33950   3.736   7.940   3.956 -0.7112  0.1635 -0.0262
  247MOL0     O33951   3.842   7.921   4.048 -0.2790 -0.9763  0.0048
  247MOL0     C33952   3.935   8.021   4.069  0.5239  0.5144  0.2276
  247MOL0     C33953   3.909   8.156   4.076  0.3044 -1.1578 -0.6536
  247MOL0     C33954   4.010   8.255   4.108  0.4507 -0.0379 -0.3368
  247MOL0     C33955   4.133   8.208   4.140 -0.7155  0.3741 -0.8425
  247MOL0     O33956   4.232   8.308   4.164 -0.0091  0.3204  0.1596
  247MOL0     C33957   4.297   8.294   4.298  0.1761 -0.1024  0.8920
  247MOL0     C33958   4.403   8.401   4.313 -0.5804  0.1755 -0.1871
  247MOL0     C33959   4.498   8.375   4.433  0.2302 -0.3807 -0.1053
  247MOL0     C33960   4.642   8.438   4.420 -0.3545  0.6231  0.4674
  247MOL0     C33961   4.745   8.387   4.319 -1.0582 -0.6239  0.2875
  247MOL0     C33962   4.765   8.231   4.325 -0.6678 -0.2952  0.6660
  247MOL0     C33963   4.812   8.170   4.193  0.8733  0.0440 -0.0556
  247MOL0     C33964   4.937   8.070   4.209 -0.6180  0.0024 -0.8590
  247MOL0     N33965   4.943   7.957   4.311 -0.5356  0.4170 -0.0274
  247MOL0     C33966   4.833   7.911   4.377 -0.3601 -0.4589 -0.0675
  247MOL0     C33967   4.897   7.832   4.472  0.1142 -1.0090  0.4120
  247MOL0     C33968   4.829   7.767   4.585  0.0511 -1.3115  0.2843
  247MOL0     C33969   4.826   7.616   4.561  0.5721 -0.5613  0.0353
  247MOL0     C33970   4.760   7.533   4.670  0.1616 -0.0752 -0.1519
  247MOL0     C33971   4.607   7.542   4.675  0.3589 -0.1859  0.1535
  247MOL0     O33972   4.544   7.418   4.714 -0.3702 -0.2525  0.8790
  247MOL0     C33973   4.480   7.440   4.834  0.2389  0.2347  0.0066
  247MOL0     C33974   4.540   7.408   4.960 -0.1991  0.5341  0.1881
  247MOL0     C33975   4.475   7.427   5.076 -0.0041 -0.2476  1.0661
  247MOL0     C33976   4.551   7.393   5.210  0.4400  0.2736 -0.3022
  247MOL0     C33977   4.344   7.472   5.075  0.0098  0.1454  0.3193
  247MOL0     C33978   4.273   7.510   5.202  0.6917 -0.8288 -0.7870
  247MOL0     O33979   4.223   7.631   5.199  0.0126 -0.3619  0.3074
  247MOL0     C33980   4.143   7.681   5.292  0.1312 -0.0445  0.2618
  247MOL0     C33981   4.058   7.788   5.232  0.7770 -0.9200 -0.9095
  247MOL0     C33982   3.977   7.872   5.317 -0.0623 -0.2754 -0.5755
  247MOL0     C33983   3.965   7.843   5.450 -0.2388  0.5201  0.1445
  247MOL0     O33984   3.879   7.917   5.523 -0.0347  0.2830  0.2509
  247MOL0     C33985   3.802   7.874   5.633 -0.0128  0.4980  0.1074
  247MOL0     C33986   3.673   7.959   5.651 -0.0746 -0.7409  0.0130
  247MOL0     C33987   3.558   7.952   5.552  0.3836  0.0615 -0.5571
  247MOL0     C33988   3.472   7.832   5.580 -0.8151 -0.4493 -0.1191
  247MOL0     C33989   3.348   7.807   5.499 -0.9695  0.1061  0.6508
  247MOL0     C33990   3.310   7.654   5.520  0.1726 -0.0156  0.3441
  247MOL0     C33991   3.162   7.626   5.483 -0.1680  0.0558  0.1838
  247MOL0     C33992   3.142   7.479   5.509  1.1068 -0.9377 -0.6909
  247MOL0    Cl33993   2.965   7.438   5.508  0.0301  0.0905  0.2542
  247MOL0     C33994   4.044   7.741   5.508  0.9012  0.6149  0.8984
  247MOL0     C33995   4.131   7.656   5.431 -0.2372  0.5666 -0.2439
  247MOL0     O33996   4.244   7.422   5.282 -1.1714  0.0682 -0.0069
  247MOL0     C33997   4.274   7.485   4.950  1.1078  0.4189 -0.8131
  247MOL0     C33998   4.344   7.469   4.831 -0.1270  1.3422  0.1814
  247MOL0     N33999   5.039   7.821   4.459  0.2697 -0.5992 -0.6979
  247MOL0     N34000   5.058   7.895   4.357 -0.5986  0.3003 -0.2113
  247MOL0     C34001   4.163   8.071   4.136  0.3047 -0.2104 -0.0768
  247MOL0     C34002   4.063   7.983   4.106  0.0744  0.8123  0.9171
  247MOL0     C34003   3.616   7.846   3.950  0.0939  0.0123  0.2008
  247MOL0     C34004   3.510   7.877   3.877  0.3823 -0.5077  0.9740
  247MOL0     C34005   3.405   7.795   3.849  0.4573 -0.8570  0.5350
  247MOL0     C34006   3.407   7.666   3.901  0.5112 -0.1929  0.2329
  247MOL0     O34007   3.307   7.579   3.866 -0.3731  0.4152  0.1901
  247MOL0     C34008   3.322   7.543   3.730 -0.4095 -0.4639  0.3633
  247MOL0     C34009   3.244   7.417   3.719  0.0717 -0.1597 -0.3044
  247MOL0     C34010   3.329   7.298   3.721 -0.2477  0.3572  0.4933
  247MOL0     C34011   3.396   7.274   3.854 -0.6107 -0.1458  0.1872
  247MOL0     C34012   3.311   7.225   3.964 -0.1037  0.7413  0.2844
  247MOL0     C34013   3.263   7.177   4.064  0.2933  0.1496 -0.0033
  247MOL0     C34014   3.518   7.629   3.982  0.4393  0.2249 -0.8507
  247MOL0     C34015   3.613   7.720   4.015 -0.7589  1.0400 -0.2670
  247MOL0     C34016   3.706   7.668   4.122 -0.1680 -0.3539  0.3699
  247MOL0     H34017   3.815   8.197   4.041  2.2499  2.1418 -2.5365
  247MOL0     H34018   4.007   8.364   4.108 -0.5474 -0.0474 -1.4769
  247MOL0     H34019   4.337   8.193   4.309  2.1769  0.6570  1.0692
  247MOL0     H34020   4.214   8.305   4.368  0.3036  0.2825  0.9838
  247MOL0     H34021   4.467   8.395   4.224  1.5987 -1.4771  1.3931
  247MOL0     H34022   4.357   8.500   4.312  2.3620  1.6857  1.6946
  247MOL0     H34023   4.446   8.402   4.526  1.0131  0.7112  0.0328
  247MOL0     H34024   4.505   8.268   4.454 -0.9873 -0.1968  1.4724
  247MOL0     H34025   4.622   8.541   4.389 -1.0345  0.3234 -0.1307
  247MOL0     H34026   4.694   8.431   4.516  1.2875 -4.8903 -0.4591
  247MOL0     H34027   4.845   8.429   4.331 -1.4633 -0.3165  3.1123
  247MOL0     H34028   4.708   8.430   4.225 -2.2311  4.4366  2.6835
  247MOL0     H34029   4.829   8.190   4.404 -0.8087 -2.5146 -0.2894
  247MOL0     H34030   4.666   8.188   4.342 -0.6992 -0.1143  0.9490
  247MOL0     H34031   4.843   8.255   4.130  3.3587  0.4546  1.5733
  247MOL0     H34032   4.736   8.108   4.146  2.3060 -0.6584 -1.5727
  247MOL0     H34033   4.955   8.023   4.112 -1.7407  1.0565 -1.5927
  247MOL0     H34034   5.028   8.128   4.230  0.5573 -0.8729 -3.1818
  247MOL0     H34035   4.728   7.937   4.369 -0.4484 -0.6680  0.3837
  247MOL0     H34036   4.732   7.815   4.599  0.1775 -1.7151  3.3689
  247MOL0     H34037   4.880   7.782   4.681 -0.7187  0.4121  0.4564
  247MOL0     H34038   4.775   7.585   4.470  0.8725 -3.0284  0.6422
  247MOL0     H34039   4.932   7.589   4.555  0.7040  0.1737 -1.5409
  247MOL0     H34040   4.781   7.427   4.658 -1.5038 -0.6204  1.2679
  247MOL0     H34041   4.808   7.554   4.766  0.7269  1.3632 -0.7094
  247MOL0     H34042   4.592   7.627   4.742 -0.2740  0.2011 -0.4512
  247MOL0     H34043   4.567   7.565   4.575 -0.5538 -4.6609 -0.7183
  247MOL0     H34044   4.641   7.370   4.951 -0.8518 -0.8596 -2.0896
  247MOL0     H34045   4.606   7.479   5.247  2.9625 -2.2865  2.3710
  247MOL0     H34046   4.618   7.315   5.173 -0.9285  0.1072 -2.6942
  247MOL0     H34047   4.485   7.355   5.288  2.1741 -1.3746  0.4348
  247MOL0     H34048   4.064   7.817   5.128 -1.0065  2.8064 -0.1336
  247MOL0     H34049   3.914   7.953   5.282 -3.8138 -2.4955  0.3803
  247MOL0     H34050   3.777   7.770   5.609  3.0392 -0.9972  2.6667
  247MOL0     H34051   3.866   7.869   5.722  1.0379 -3.0612 -0.7084
  247MOL0     H34052   3.637   7.928   5.749 -4.8777 -2.1029 -1.8747
  247MOL0     H34053   3.701   8.065   5.657  0.3829 -0.7016 -1.9309
  247MOL0     H34054   3.593   7.957   5.449  2.7933 -1.8235  0.0658
  247MOL0     H34055   3.492   8.037   5.568  2.4170  1.6531 -0.2484
  247MOL0     H34056   3.446   7.837   5.686 -0.0932 -2.8845  0.2374
  247MOL0     H34057   3.545   7.751   5.566 -0.0161  0.2108  0.1649
  247MOL0     H34058   3.270   7.871   5.541 -0.4104  2.5140 -1.6729
  247MOL0     H34059   3.357   7.824   5.391 -1.5382 -2.4335  0.1414
  247MOL0     H34060   3.324   7.633   5.627 -0.1987 -1.4987  0.1247
  247MOL0     H34061   3.374   7.590   5.459 -1.7413  0.1511 -2.0232
  247MOL0     H34062   3.156   7.655   5.377 -0.1310  0.0186  0.1712
  247MOL0     H34063   3.088   7.685   5.537 -3.4573 -0.9924 -2.8001
  247MOL0     H34064   3.187   7.458   5.607 -1.0610 -0.2823  0.5186
  247MOL0     H34065   3.188   7.417   5.432  1.5453 -3.5299  1.5157
  247MOL0     H34066   4.042   7.735   5.616 -0.7912  3.1112  1.0936
  247MOL0     H34067   4.197   7.586   5.482 -1.0721 -1.0790 -1.3097
  247MOL0     H34068   4.173   7.521   4.939  1.5462  2.8164  1.7754
  247MOL0     H34069   4.289   7.477   4.737 -2.1991 -3.0733  0.7927
  247MOL0     H34070   4.262   8.035   4.162  0.2126  0.5490  1.4444
  247MOL0     H34071   4.079   7.876   4.098 -1.7815  0.6156 -1.8361
  247MOL0     H34072   3.493   7.968   3.820 -1.9250 -2.1527 -1.1677
  247MOL0     H34073   3.319   7.826   3.791 -0.8313 -0.9705  2.2889
  247MOL0     H34074   3.274   7.618   3.666 -1.8864 -2.5708 -1.1406
  247MOL0     H34075   3.421   7.515   3.696 -1.8683 -2.1228 -3.0028
  247MOL0     H34076   3.196   7.425   3.621 -2.1244 -1.1238  0.6319
  247MOL0     H34077   3.159   7.416   3.788  0.7178  0.7650  0.5257
  247MOL0     H34078   3.282   7.204   3.691  1.5280 -0.1691 -0.8210
  247MOL0     H34079   3.410   7.313   3.649 -1.4617  0.7160 -0.8286
  247MOL0     H34080   3.462   7.358   3.879 -0.0241  0.1854 -2.2405
  247MOL0     H34081   3.475   7.200   3.835 -1.6600 -0.9097 -1.4314
  247MOL0     H34082   3.229   7.124   4.150 -2.1751 -0.7516 -1.4311
  247MOL0     H34083   3.509   7.534   4.035  2.1084 -0.1656 -1.2231
  247MOL0     H34084   3.794   7.649   4.060 -1.5664  2.7739 -2.9021
  247MOL0     H34085   3.745   7.748   4.185 -0.1893  1.4976 -1.8472
  247MOL0     H34086   3.675   7.573   4.168  1.6863 -0.1835  2.1069
  248MOL0     O34087   1.505   3.734   9.822  0.9401  0.2757  0.1286
  248MOL0     C34088   1.490   3.628   9.767  0.9640  0.7708 -1.4150
  248MOL0     O34089   1.545   3.513   9.810  0.1303 -0.9966 -0.5980
  248MOL0     C34090   1.673   3.521   9.865  0.1928 -0.2528  0.6774
  248MOL0     C34091   1.698   3.446   9.981 -0.2383 -0.4523 -0.1507
  248MOL0     C34092   1.821   3.465  10.044 -0.2898  0.6262 -0.2286
  248MOL0     C34093   1.910   3.557   9.997  0.5396  0.2196  0.8553
  248MOL0     O34094   2.016   3.581  10.079 -0.5018  0.4379  0.1823
  248MOL0     C34095   2.104   3.685  10.064  0.5053 -0.0816 -0.4293
  248MOL0     C34096   2.195   3.691  10.179 -0.0491  0.5728 -0.7112
  248MOL0     C34097   2.326   3.765  10.154 -0.4141 -0.5099  0.6635
  248MOL0     C34098   2.409   3.760  10.291 -0.1656  0.1788 -0.0730
  248MOL0     C34099   2.541   3.839  10.309  0.7978  0.0042 -0.8043
  248MOL0     C34100   2.552   3.867  10.455 -0.3781 -0.4995  0.1410
  248MOL0     C34101   2.458   3.982  10.508 -0.0805  0.1235 -0.2260
  248MOL0     C34102   2.504   4.123  10.479  0.7249 -0.8523  0.3073
  248MOL0     N34103   2.405   4.224  10.507 -0.8118 -1.1167 -0.6838
  248MOL0     C34104   2.295   4.251  10.437 -0.0991 -0.6690 -0.1881
  248MOL0     C34105   2.250   4.367  10.490  1.2386 -0.1288  0.0834
  248MOL0     C34106   2.149   4.454  10.418 -0.1610  0.3034 -0.8191
  248MOL0     C34107   2.198   4.595  10.430  1.0454  0.1435  0.3188
  248MOL0     C34108   2.110   4.691  10.352 -0.9067  0.1387 -0.1508
  248MOL0     C34109   1.997   4.759  10.426  0.3469 -0.6353  0.3228
  248MOL0     O34110   1.973   4.897  10.378  0.2541 -0.1599 -0.2050
  248MOL0     C34111   1.844   4.942  10.384  0.5327 -0.3424  0.5771
  248MOL0     C34112   1.755   4.902  10.289 -0.1575  0.4073  0.1394
  248MOL0     C34113   1.619   4.932  10.303  0.0714 -0.6103  0.2377
  248MOL0     C34114   1.537   4.889  10.189  0.2009  0.2244 -0.3790
  248MOL0     C34115   1.578   4.999  10.419  0.5379  0.4610  0.6930
  248MOL0     C34116   1.436   5.015  10.431 -0.0627 -0.3025  0.3988
  248MOL0     O34117   1.359   4.913  10.478  0.6371 -0.3988  0.4997
  248MOL0     C34118   1.220   4.933  10.479 -0.6453 -0.3290 -0.4913
  248MOL0     C34119   1.170   4.936  10.605 -0.0035  0.2946 -0.3283
  248MOL0     C34120   1.037   4.942  10.615 -0.0453  0.5171 -1.0025
  248MOL0     C34121   0.953   4.962  10.506 -0.0315 -0.3201 -0.1825
  248MOL0     O34122   0.816   4.993  10.507  0.3697  0.9324  0.4816
  248MOL0     C34123   0.757   5.067  10.615  1.0460  0.2940 -0.6609
  248MOL0     C34124   0.807   5.215  10.613  0.1222 -0.7365 -0.0667
  248MOL0     C34125   0.760   5.294  10.733  0.7209 -0.0819  0.1769
  248MOL0     C34126   0.788   5.443  10.739  0.2540  0.5039 -0.3740
  248MOL0     C34127   0.692   5.527  10.818  0.0599 -0.6739  0.5508
  248MOL0     C34128   0.669   5.476  10.955 -0.6850  0.6959  1.1727
  248MOL0     C34129   0.554   5.540  11.030 -0.2364 -0.6020 -0.5907
  248MOL0     C34130   0.567   5.509  11.179 -0.0819 -0.0660 -0.3126
  248MOL0    Cl34131   0.551   5.326  11.207  0.7004  0.6581 -0.0084
  248MOL0     C34132   1.008   4.959  10.377  0.5856 -0.1690 -0.6860
  248MOL0     C34133   1.140   4.943  10.366 -0.0683  0.4721  0.1852
  248MOL0     O34134   1.393   5.126  10.387 -0.4067  0.2276 -0.5427
  248MOL0     C34135   1.666   5.048  10.505  0.2258  0.4192 -0.1246
  248MOL0     C34136   1.801   5.020  10.488  0.3252  0.3894 -0.9729
  248MOL0     N34137   2.326   4.407  10.598  0.5887  0.1794 -1.3052
  248MOL0     N34138   2.426   4.318  10.608  0.7597  0.2685 -0.4998
  248MOL0     C34139   1.889   3.607   9.869 -0.5926 -0.6579 -0.1749
  248MOL0     C34140   1.766   3.603   9.803  0.4145 -0.3863  0.6920
  248MOL0     C34141   1.385   3.623   9.667 -0.8381  0.5527  0.0339
  248MOL0     C34142   1.276   3.705   9.682 -0.6982  0.4543 -0.7523
  248MOL0     C34143   1.165   3.696   9.599 -0.8596 -0.1322  0.2439
  248MOL0     C34144   1.166   3.615   9.480 -0.0088  0.0384 -0.2150
  248MOL0     O34145   1.051   3.606   9.406  0.1529 -0.6212  0.7242
  248MOL0     C34146   1.064   3.582   9.264  0.9054 -0.3807  0.0825
  248MOL0     C34147   0.969   3.677   9.189 -1.3924  0.4236 -0.8814
  248MOL0     C34148   0.829   3.605   9.167 -0.9078 -0.0397  0.3171
  248MOL0     C34149   0.850   3.519   9.038  0.8114  0.3760 -0.1268
  248MOL0     C34150   0.727   3.442   8.996  0.3351 -0.6370  0.6234
  248MOL0     C34151   0.617   3.395   8.970 -0.7700  0.4721  0.0914
  248MOL0     C34152   1.291   3.536   9.464  0.2071  0.6093 -0.6244
  248MOL0     C34153   1.397   3.534   9.556  0.5172 -0.2911 -0.0868
  248MOL0     C34154   1.521   3.463   9.511 -0.2882  0.5246 -1.1889
  248MOL0     H34155   1.620   3.382  10.022 -1.6527 -1.7667 -4.3431
  248MOL0     H34156   1.857   3.416  10.134 -1.2585  2.4448  1.2265
  248MOL0     H34157   2.044   3.777  10.056  0.8455  0.2100  0.2731
  248MOL0     H34158   2.165   3.672   9.974  2.2409 -0.0636  0.6906
  248MOL0     H34159   2.141   3.732  10.265 -0.1959  0.4992 -0.7686
  248MOL0     H34160   2.223   3.589  10.207 -2.7754 -0.1056 -0.2184
  248MOL0     H34161   2.375   3.721  10.067  1.5425 -0.0937  1.5077
  248MOL0     H34162   2.299   3.871  10.143  1.5837  0.1031  1.1670
  248MOL0     H34163   2.340   3.786  10.372  1.3743  1.4193  0.9080
  248MOL0     H34164   2.429   3.653  10.305  0.3469  0.3072  0.1837
  248MOL0     H34165   2.541   3.930  10.250  0.4894  0.8186  0.4028
  248MOL0     H34166   2.624   3.774  10.278  2.5283  1.0119  1.4199
  248MOL0     H34167   2.516   3.780  10.511 -3.3059  0.1999 -0.4827
  248MOL0     H34168   2.658   3.883  10.478 -0.5595 -2.3061  2.6929
  248MOL0     H34169   2.436   3.963  10.614 -1.5728 -1.8841 -0.8219
  248MOL0     H34170   2.358   3.978  10.464  0.2113  3.9823 -1.6011
  248MOL0     H34171   2.601   4.141  10.527 -0.0781 -1.0549  2.0861
  248MOL0     H34172   2.513   4.144  10.372 -2.4258  1.5186  0.3670
  248MOL0     H34173   2.251   4.202  10.350 -1.8447  1.1214 -0.3868
  248MOL0     H34174   2.046   4.436  10.449 -0.0472  0.9831 -0.0068
  248MOL0     H34175   2.161   4.417  10.316  0.0498 -1.8656 -0.0694
  248MOL0     H34176   2.222   4.625  10.532  0.2424 -2.7225  1.4421
  248MOL0     H34177   2.291   4.586  10.373  1.4352  1.7571  0.6523
  248MOL0     H34178   2.173   4.771  10.312  2.6226 -2.2211  0.2578
  248MOL0     H34179   2.072   4.640  10.263 -0.8072  0.0093 -0.1182
  248MOL0     H34180   1.907   4.699  10.410 -1.6012  2.2944 -0.5494
  248MOL0     H34181   1.989   4.773  10.535 -2.6727 -1.8714  0.3591
  248MOL0     H34182   1.802   4.838  10.215  1.0770  0.8181  0.5412
  248MOL0     H34183   1.465   4.813  10.222  1.9550 -1.7331 -0.8233
  248MOL0     H34184   1.589   4.852  10.100 -2.8909  1.3264 -2.8169
  248MOL0     H34185   1.484   4.976  10.149 -0.6277 -0.4368 -0.7583
  248MOL0     H34186   1.231   4.934  10.694 -0.9132  1.6152  0.3618
  248MOL0     H34187   1.000   4.942  10.717  3.0787  2.3483  0.3174
  248MOL0     H34188   0.651   5.059  10.590  0.7160  2.5378 -0.2237
  248MOL0     H34189   0.776   5.013  10.709  1.8618  1.0736 -0.3559
  248MOL0     H34190   0.914   5.232  10.603  0.0062 -0.1325 -0.2844
  248MOL0     H34191   0.765   5.271  10.529  1.5344 -0.2983 -0.5041
  248MOL0     H34192   0.793   5.249  10.826 -0.2749 -0.3793  0.3955
  248MOL0     H34193   0.652   5.279  10.743  1.0791 -2.4351  1.0116
  248MOL0     H34194   0.781   5.475  10.634 -1.2870 -1.9498 -1.0971
  248MOL0     H34195   0.886   5.463  10.784 -0.0429 -2.1981  1.6828
  248MOL0     H34196   0.737   5.627  10.823 -1.4160  0.1808 -1.6570
  248MOL0     H34197   0.600   5.528  10.759  0.3825  2.6499 -0.0804
  248MOL0     H34198   0.760   5.494  11.014 -0.1013 -0.8833  0.8243
  248MOL0     H34199   0.659   5.367  10.953  3.3522  0.1843 -0.3957
  248MOL0     H34200   0.458   5.521  10.983 -1.4289  3.9683 -0.4663
  248MOL0     H34201   0.562   5.649  11.021  2.4186 -0.6454  0.1686
  248MOL0     H34202   0.497   5.574  11.233 -2.5898 -2.4428 -0.5042
  248MOL0     H34203   0.664   5.539  11.220 -0.4013 -0.8471  1.0891
  248MOL0     H34204   0.941   4.970  10.293 -1.6346 -0.7543  0.9111
  248MOL0     H34205   1.182   4.934  10.266 -1.7301  2.6067 -0.7704
  248MOL0     H34206   1.642   5.104  10.595 -1.2497 -0.0813 -0.1717
  248MOL0     H34207   1.862   5.051  10.572  1.5218 -2.6337 -0.5851
  248MOL0     H34208   1.967   3.665   9.820 -1.2233  1.3358  1.0566
  248MOL0     H34209   1.745   3.644   9.705  0.1908  0.2260  0.9856
  248MOL0     H34210   1.276   3.780   9.761  4.3985  0.7403 -0.6863
  248MOL0     H34211   1.086   3.767   9.622  1.4308  2.2282  1.3806
  248MOL0     H34212   1.167   3.586   9.228  0.7548  2.1338 -0.2850
  248MOL0     H34213   1.034   3.478   9.250  0.3505 -0.1368 -0.6082
  248MOL0     H34214   1.017   3.712   9.097  0.6024  1.5247  0.5215
  248MOL0     H34215   0.946   3.757   9.260 -2.2490  0.1140 -0.7904
  248MOL0     H34216   0.825   3.545   9.258  2.4104 -0.1938  0.4988
  248MOL0     H34217   0.757   3.683   9.141 -0.8847 -1.0795 -3.5881
  248MOL0     H34218   0.937   3.455   9.052  1.1793  0.6559 -1.0326
  248MOL0     H34219   0.881   3.583   8.954  3.9827 -0.5836  0.1758
  248MOL0     H34220   0.529   3.353   8.927  0.3736 -0.9463 -0.9644
  248MOL0     H34221   1.292   3.463   9.383 -6.5511  0.4131 -1.1005
  248MOL0     H34222   1.614   3.506   9.550 -0.8834  2.0598 -1.4212
  248MOL0     H34223   1.522   3.358   9.542  0.5031  1.3858  2.1475
  248MOL0     H34224   1.527   3.464   9.402  0.3568 -1.1983 -1.1976
  249MOL0     O34225   4.205   9.921   3.679 -0.3529 -0.2505 -0.4730
  249MOL0     C34226   4.213  10.026   3.611 -0.6302 -0.2076  0.3403
  249MOL0     O34227   4.210  10.149   3.660  0.6843  0.0126 -0.2735
  249MOL0     C34228   4.208  10.171   3.800  0.3576  0.4554 -0.3693
  249MOL0     C34229   4.099  10.244   3.854 -0.9824  0.1582 -0.4932
  249MOL0     C34230   4.086  10.259   3.992  0.5859 -0.4177 -0.6846
  249MOL0     C34231   4.182  10.210   4.073 -0.5956  0.1509 -1.0257
  249MOL0     O34232   4.179  10.212   4.211 -0.9149 -0.4197  0.6393
  249MOL0     C34233   4.093  10.303   4.279  0.0927  0.2034 -0.0362
  249MOL0     C34234   4.102  10.283   4.430 -0.7977 -0.0012  0.1936
  249MOL0     C34235   4.020  10.373   4.514 -0.2025 -0.1407 -0.5855
  249MOL0     C34236   4.064  10.361   4.668  0.0846  1.0583 -0.2509
  249MOL0     C34237   3.959  10.410   4.769 -0.3659 -0.0838 -0.0013
  249MOL0     C34238   3.995  10.343   4.902  0.3685 -0.1368 -0.1173
  249MOL0     C34239   3.902  10.392   5.018  0.4313  0.2059  0.2448
  249MOL0     C34240   3.749  10.395   4.993 -0.1527 -1.0660 -1.0730
  249MOL0     N34241   3.669  10.432   5.115 -0.3802  0.8263  0.5251
  249MOL0     C34242   3.627  10.557   5.135  0.8632 -0.6027  0.1276
  249MOL0     C34243   3.552  10.545   5.259 -0.0222 -0.2197  1.0345
  249MOL0     C34244   3.463  10.651   5.328 -0.5290 -0.3790 -0.9993
  249MOL0     C34245   3.376  10.734   5.231  0.3225 -0.3753 -1.0077
  249MOL0     C34246   3.272  10.819   5.305  0.2504  0.1735  0.0295
  249MOL0     C34247   3.322  10.955   5.348  0.6305 -0.3915 -0.2060
  249MOL0     O34248   3.350  11.032   5.233  0.3892 -0.1088 -0.5646
  249MOL0     C34249   3.401  11.157   5.239  0.1107 -0.4867 -0.0146
  249MOL0     C34250   3.452  11.223   5.352 -0.0614  0.3363 -0.8939
  249MOL0     C34251   3.517  11.346   5.343 -0.9940 -0.3470  0.5950
  249MOL0     C34252   3.562  11.402   5.476  0.2911 -0.1382  0.4392
  249MOL0     C34253   3.556  11.411   5.218 -0.4989 -0.3129  0.4806
  249MOL0     C34254   3.633  11.537   5.194  0.1832  0.3944 -0.4838
  249MOL0     O34255   3.658  11.574   5.062  0.2257 -0.0765 -0.1038
  249MOL0     C34256   3.744  11.671   5.027  0.2570 -0.4606  0.7515
  249MOL0     C34257   3.703  11.767   4.926 -0.1217  0.3504 -0.9010
  249MOL0     C34258   3.785  11.857   4.871 -0.6020 -0.4836  0.5610
  249MOL0     C34259   3.920  11.871   4.919 -0.2680  0.0430 -1.1344
  249MOL0     O34260   4.013  11.967   4.876 -0.0192  0.0302 -0.1710
  249MOL0     C34261   4.000  12.018   4.735 -0.1301  0.5375  0.0181
  249MOL0     C34262   4.133  12.090   4.707  0.5300 -0.0287  0.4288
  249MOL0     C34263   4.116  12.210   4.615  0.2166 -0.6747  0.9623
  249MOL0     C34264   4.251  12.281   4.580  0.3257 -0.1761 -0.5159
  249MOL0     C34265   4.251  12.372   4.460  0.0388  0.0478 -0.2100
  249MOL0     C34266   4.185  12.504   4.469 -0.8635  0.7254  0.2398
  249MOL0     C34267   4.207  12.578   4.334 -0.4943  0.8625  0.6505
  249MOL0     C34268   4.196  12.732   4.348 -0.5191  0.4671 -0.1007
  249MOL0    Cl34269   4.353  12.791   4.408 -0.4055  0.3553  0.6669
  249MOL0     C34270   3.958  11.787   5.027 -0.4319  0.8294 -0.1502
  249MOL0     C34271   3.873  11.691   5.079  0.4710  0.6996  0.5076
  249MOL0     O34272   3.673  11.601   5.293 -1.2981  0.0619 -1.0714
  249MOL0     C34273   3.509  11.334   5.107 -0.8275  0.9474  0.7060
  249MOL0     C34274   3.427  11.218   5.118  1.0210 -0.6978 -0.0280
  249MOL0     N34275   3.569  10.411   5.302  0.3291  0.4807 -1.5334
  249MOL0     N34276   3.629  10.344   5.211 -0.1817  0.3498 -0.6583
  249MOL0     C34277   4.281  10.128   4.017  0.3716 -0.0363  0.0921
  249MOL0     C34278   4.304  10.106   3.880 -0.2834 -0.7228  0.0249
  249MOL0     C34279   4.218  10.010   3.459 -0.7247  0.2396 -0.1784
  249MOL0     C34280   4.266   9.886   3.403  0.7694 -0.4184 -0.7295
  249MOL0     C34281   4.280   9.867   3.266 -0.1304  0.0851  0.0092
  249MOL0     C34282   4.231   9.962   3.174 -0.6603  0.3513  0.6790
  249MOL0     O34283   4.224   9.935   3.034 -0.4811  0.6485 -0.6416
  249MOL0     C34284   4.337   9.986   2.971 -0.4376  0.0797 -0.0388
  249MOL0     C34285   4.328  10.128   2.897 -0.0123  0.7122  0.1918
  249MOL0     C34286   4.201  10.141   2.829  1.3089  0.0359 -0.6827
  249MOL0     C34287   4.187  10.051   2.708 -1.0382 -0.6223  1.0984
  249MOL0     C34288   4.292  10.074   2.603 -0.9254  0.8337 -0.3338
  249MOL0     C34289   4.384  10.095   2.529 -0.4138  0.0690  0.2765
  249MOL0     C34290   4.178  10.075   3.227  0.4705  0.9596  0.0240
  249MOL0     C34291   4.176  10.106   3.362 -0.7482  0.0784  0.7620
  249MOL0     C34292   4.111  10.233   3.401 -0.1835 -0.2197 -0.7662
  249MOL0     H34293   4.028  10.284   3.783 -2.3153 -2.1431 -0.5376
  249MOL0     H34294   4.000  10.316   4.026  2.7585  1.3715  2.3278
  249MOL0     H34295   3.990  10.281   4.249 -0.1632 -2.1303  2.2182
  249MOL0     H34296   4.131  10.404   4.258  0.9482  0.1189  1.0523
  249MOL0     H34297   4.088  10.178   4.455  2.5001 -0.8155 -0.9271
  249MOL0     H34298   4.209  10.286   4.452 -0.8616 -0.2416  0.5512
  249MOL0     H34299   4.028  10.476   4.478 -0.2497  0.1440  0.2170
  249MOL0     H34300   3.917  10.339   4.497  0.5950 -2.2617 -1.5548
  249MOL0     H34301   4.057  10.252   4.673  0.8779  0.8527 -2.4950
  249MOL0     H34302   4.160  10.412   4.673 -0.4038  1.9880 -0.1299
  249MOL0     H34303   3.858  10.397   4.729 -0.4528 -0.4883  0.3334
  249MOL0     H34304   3.966  10.516   4.793 -1.7936  0.0325 -0.0403
  249MOL0     H34305   3.987  10.234   4.901 -1.5834 -0.0387 -1.2103
  249MOL0     H34306   4.098  10.370   4.926  0.8290 -3.1627  1.7866
  249MOL0     H34307   3.926  10.493   5.052  0.1834  0.8249 -1.3206
  249MOL0     H34308   3.927  10.333   5.107  0.4264 -1.8498 -1.0318
  249MOL0     H34309   3.740  10.471   4.915  3.5220 -1.3240 -1.9608
  249MOL0     H34310   3.705  10.304   4.954  1.5544 -1.1606 -2.9491
  249MOL0     H34311   3.630  10.647   5.073  0.6876  0.5662  1.7675
  249MOL0     H34312   3.521  10.725   5.382  0.8904  0.0456 -2.9769
  249MOL0     H34313   3.399  10.595   5.397  2.0295 -1.2763  0.7874
  249MOL0     H34314   3.438  10.803   5.173 -3.0073  2.5023 -1.4181
  249MOL0     H34315   3.327  10.666   5.161  0.4703 -2.3533  0.6983
  249MOL0     H34316   3.185  10.848   5.246  1.8532  0.9556 -2.0937
  249MOL0     H34317   3.229  10.756   5.383 -0.0145  0.5011  0.1527
  249MOL0     H34318   3.247  11.013   5.402 -0.3577 -2.0342  0.2515
  249MOL0     H34319   3.401  10.932   5.419 -2.3769 -1.2746  3.1383
  249MOL0     H34320   3.432  11.196   5.456 -0.2602  1.7807 -0.5295
  249MOL0     H34321   3.671  11.399   5.477  0.6793  4.9018  0.5247
  249MOL0     H34322   3.523  11.349   5.563 -1.1446  1.9337  1.1387
  249MOL0     H34323   3.536  11.508   5.491  2.9327  0.3076  2.4791
  249MOL0     H34324   3.601  11.744   4.898  0.1226 -0.8603 -0.8578
  249MOL0     H34325   3.760  11.922   4.787  3.2805  1.9576  1.0604
  249MOL0     H34326   3.990  11.936   4.663 -0.3765  1.1556 -0.6585
  249MOL0     H34327   3.915  12.086   4.739 -2.2955 -2.0449  1.0809
  249MOL0     H34328   4.166  12.126   4.805  1.6921 -1.1800  0.4933
  249MOL0     H34329   4.198  12.008   4.675 -2.7075 -2.7453  0.3035
  249MOL0     H34330   4.038  12.279   4.649  1.9177  2.2531 -0.6557
  249MOL0     H34331   4.073  12.175   4.522 -0.5345  1.6080  0.3799
  249MOL0     H34332   4.330  12.207   4.567  1.0471  0.4796  0.0107
  249MOL0     H34333   4.279  12.345   4.665 -1.2229  2.3133 -1.7693
  249MOL0     H34334   4.354  12.402   4.441  0.2207  1.8240  2.9360
  249MOL0     H34335   4.202  12.311   4.383  1.3881 -1.9116  0.4014
  249MOL0     H34336   4.229  12.561   4.551  1.9280 -0.6797 -0.1493
  249MOL0     H34337   4.082  12.481   4.496 -2.3883  0.5652 -4.6296
  249MOL0     H34338   4.128  12.546   4.265 -1.3376  0.9422  1.5700
  249MOL0     H34339   4.297  12.534   4.289 -2.3708 -4.4545  1.3482
  249MOL0     H34340   4.113  12.757   4.415  0.5572 -2.3844  2.5486
  249MOL0     H34341   4.174  12.767   4.247  1.6009 -3.6035 -2.2142
  249MOL0     H34342   4.051  11.789   5.082 -0.3579 -3.1307  0.1287
  249MOL0     H34343   3.916  11.632   5.159 -0.3351  0.6089  0.8792
  249MOL0     H34344   3.531  11.377   5.010 -3.0505  3.0042  1.0324
  249MOL0     H34345   3.381  11.181   5.027 -0.5218  0.0490  0.4044
  249MOL0     H34346   4.359  10.088   4.081 -0.8263 -0.3661  1.3995
  249MOL0     H34347   4.383  10.050   3.833  1.3421  2.4948 -1.4021
  249MOL0     H34348   4.299   9.812   3.475  0.1447  0.2669  0.2906
  249MOL0     H34349   4.308   9.766   3.238 -0.9539  0.2307 -1.3972
  249MOL0     H34350   4.426   9.984   3.035 -1.6611  2.6233  1.9359
  249MOL0     H34351   4.347   9.926   2.881  3.3770  1.0457 -0.4519
  249MOL0     H34352   4.414  10.127   2.829  0.1426 -1.5984  0.3332
  249MOL0     H34353   4.333  10.220   2.956 -2.1520  0.4716  0.8422
  249MOL0     H34354   4.121  10.120   2.901  2.2143  3.0647  1.3679
  249MOL0     H34355   4.186  10.242   2.790  0.5456  0.5951  0.9508
  249MOL0     H34356   4.096  10.076   2.653  1.2934  0.3822 -2.7334
  249MOL0     H34357   4.182   9.944   2.731  0.9878 -0.7061  1.2930
  249MOL0     H34358   4.467  10.100   2.461  0.3507 -0.7730  1.1180
  249MOL0     H34359   4.143  10.136   3.144 -1.0035 -0.9358 -0.8389
  249MOL0     H34360   4.043  10.224   3.486  1.0095 -0.3321  0.2037
  249MOL0     H34361   4.192  10.305   3.421  1.9658 -3.0677  1.8554
  249MOL0     H34362   4.051  10.276   3.321  1.5467  0.2595 -1.8688
  250MOL0     O34363  11.586   5.188   3.333  0.0169  0.5710  1.1538
  250MOL0     C34364  11.522   5.223   3.235  0.5749  0.4017 -0.8765
  250MOL0     O34365  11.557   5.311   3.144 -0.6213  0.2569 -0.4622
  250MOL0     C34366  11.671   5.377   3.142 -0.8270 -0.0043 -0.0554
  250MOL0     C34367  11.710   5.452   3.257 -0.4663 -0.3530  0.2472
  250MOL0     C34368  11.813   5.540   3.244 -0.1873 -0.4936 -0.7535
  250MOL0     C34369  11.889   5.552   3.126 -0.0098  0.5293  0.1922
  250MOL0     O34370  11.989   5.638   3.104 -0.6478 -0.9712 -0.1130
  250MOL0     C34371  12.066   5.673   3.222  0.2848  0.8329  0.0187
  250MOL0     C34372  12.184   5.752   3.174 -0.2071 -0.9494  1.1100
  250MOL0     C34373  12.309   5.702   3.240 -0.2631 -0.2338  0.0122
  250MOL0     C34374  12.320   5.714   3.393  0.9799 -0.1197 -0.3113
  250MOL0     C34375  12.389   5.598   3.456 -0.6800 -0.4004  0.8110
  250MOL0     C34376  12.395   5.616   3.605 -0.3303 -0.1460  0.2611
  250MOL0     C34377  12.480   5.507   3.664  0.1300 -0.5320 -0.3333
  250MOL0     C34378  12.521   5.541   3.813 -0.5820  1.0750 -0.2384
  250MOL0     N34379  12.596   5.426   3.881  0.4788  0.5982 -0.4075
  250MOL0     C34380  12.726   5.408   3.881 -0.6379 -0.5726 -0.0951
  250MOL0     C34381  12.746   5.299   3.952  0.0492 -0.1961 -0.4394
  250MOL0     C34382  12.871   5.223   3.980  1.4760  0.3136 -0.0932
  250MOL0     C34383  12.863   5.092   3.891 -0.2510 -0.1717  0.2381
  250MOL0     C34384  13.013   5.037   3.869 -0.1434 -0.1502 -0.1894
  250MOL0     C34385  13.094   5.004   3.993  0.8297 -0.9500  0.4749
  250MOL0     O34386  13.119   4.860   4.014 -0.2772 -0.5768  0.2446
  250MOL0     C34387  13.014   4.797   4.081 -0.5779 -0.0641 -0.6434
  250MOL0     C34388  12.993   4.835   4.220 -0.0730  0.3239  0.4717
  250MOL0     C34389  12.899   4.763   4.296  0.0392  0.3499 -1.0122
  250MOL0     C34390  12.920   4.791   4.444 -0.6354 -0.1169  0.4298
  250MOL0     C34391  12.816   4.670   4.235  0.0286 -0.3810  0.4290
  250MOL0     C34392  12.732   4.580   4.309  0.7324  0.8738  0.2872
  250MOL0     O34393  12.772   4.556   4.434  0.5187  0.5649 -0.1379
  250MOL0     C34394  12.715   4.452   4.503 -0.0611  0.6813  0.3307
  250MOL0     C34395  12.687   4.326   4.445  0.5478 -0.5366  0.2611
  250MOL0     C34396  12.638   4.222   4.518  0.5322 -0.2610  0.8614
  250MOL0     C34397  12.643   4.225   4.659  0.2195  0.0673  0.5497
  250MOL0     O34398  12.590   4.117   4.729  0.6201 -0.1942  0.0770
  250MOL0     C34399  12.657   4.077   4.845  0.0203 -0.0646  0.1772
  250MOL0     C34400  12.633   3.927   4.873 -0.2580  0.4932 -0.7180
  250MOL0     C34401  12.476   3.897   4.887 -1.1706 -0.2259 -0.2704
  250MOL0     C34402  12.445   3.780   4.991 -0.0363  0.0175  0.6091
  250MOL0     C34403  12.295   3.784   5.024 -0.2820  0.6359  0.6552
  250MOL0     C34404  12.258   3.658   5.102 -0.2027 -1.2814 -1.1966
  250MOL0     C34405  12.106   3.615   5.081  0.2885  0.3242  0.1334
  250MOL0     C34406  12.008   3.711   5.143 -0.0403  0.2085 -0.3387
  250MOL0    Cl34407  12.016   3.639   5.302 -0.4169 -0.1590  0.2621
  250MOL0     C34408  12.694   4.340   4.715 -0.0776 -0.0863 -0.0570
  250MOL0     C34409  12.734   4.452   4.644  0.1190 -0.1319 -0.1652
  250MOL0     O34410  12.642   4.521   4.256 -0.1808 -0.5635 -0.3608
  250MOL0     C34411  12.809   4.667   4.093 -0.1408  0.1932 -1.1299
  250MOL0     C34412  12.924   4.724   4.012 -0.0772 -0.1439  0.2810
  250MOL0     N34413  12.628   5.255   3.998  0.2178  0.6667 -0.3666
  250MOL0     N34414  12.529   5.332   3.955 -0.7905  0.0049  1.0114
  250MOL0     C34415  11.862   5.462   3.024  0.4866  0.4384  0.2355
  250MOL0     C34416  11.748   5.380   3.027 -0.2213  0.2318 -0.1335
  250MOL0     C34417  11.383   5.164   3.216 -0.0734  0.3943 -0.2313
  250MOL0     C34418  11.304   5.188   3.109  0.7419 -0.2677 -0.6034
  250MOL0     C34419  11.178   5.138   3.089 -0.3064  0.5580  0.1662
  250MOL0     C34420  11.119   5.062   3.188  0.3513  0.3222  0.0392
  250MOL0     O34421  10.996   4.995   3.188  0.4163  0.5366 -0.0544
  250MOL0     C34422  10.911   5.001   3.073  0.3837  0.0903 -0.6571
  250MOL0     C34423  10.777   4.956   3.120  0.2133  0.5053  0.8600
  250MOL0     C34424  10.714   5.048   3.225  0.4447 -0.5842  1.6840
  250MOL0     C34425  10.766   5.014   3.368 -0.2847  0.7822  0.3715
  250MOL0     C34426  10.709   5.088   3.484 -0.5346 -0.4609  0.0872
  250MOL0     C34427  10.671   5.122   3.595  0.8571  0.0787 -0.3036
  250MOL0     C34428  11.177   5.048   3.310 -0.0984 -1.0840  0.7533
  250MOL0     C34429  11.310   5.088   3.320 -0.3329 -0.8283  0.0901
  250MOL0     C34430  11.352   5.072   3.470  0.2788 -0.6636 -0.2428
  250MOL0     H34431  11.644   5.467   3.342  0.2419  2.6272  0.3858
  250MOL0     H34432  11.825   5.620   3.316  0.9960 -0.4686 -0.9580
  250MOL0     H34433  12.101   5.583   3.274  0.0645  1.5402  1.4518
  250MOL0     H34434  12.007   5.725   3.298 -2.5486 -0.2238 -1.3395
  250MOL0     H34435  12.190   5.745   3.065  0.7486  0.7169  1.0358
  250MOL0     H34436  12.166   5.857   3.196 -2.5697 -1.0626 -0.0041
  250MOL0     H34437  12.326   5.599   3.207  1.8968  0.1242 -0.1602
  250MOL0     H34438  12.400   5.747   3.199  1.2127  1.5246  4.6226
  250MOL0     H34439  12.365   5.808   3.427  0.5895 -0.7197  2.0428
  250MOL0     H34440  12.218   5.722   3.432  0.3176 -0.3412 -1.9089
  250MOL0     H34441  12.486   5.589   3.407 -1.3263 -1.6686 -0.3247
  250MOL0     H34442  12.334   5.506   3.434  0.0913 -0.7726  0.4341
  250MOL0     H34443  12.446   5.711   3.623 -1.6728  0.7294 -0.3758
  250MOL0     H34444  12.295   5.612   3.649 -0.2664 -4.7392  0.4543
  250MOL0     H34445  12.574   5.503   3.608  0.9677 -0.4514  1.0350
  250MOL0     H34446  12.416   5.418   3.661  0.1797 -0.5942  0.2985
  250MOL0     H34447  12.587   5.628   3.807  1.8647 -0.5825  1.1497
  250MOL0     H34448  12.433   5.570   3.873 -0.0260 -1.2441  1.8647
  250MOL0     H34449  12.800   5.468   3.829  1.0645 -2.1501  0.3499
  250MOL0     H34450  12.877   5.195   4.085  0.9969 -0.3645 -0.2351
  250MOL0     H34451  12.965   5.270   3.949  2.5878 -0.5518  1.8210
  250MOL0     H34452  12.821   5.017   3.958  0.9335 -0.3567  0.7970
  250MOL0     H34453  12.807   5.110   3.798 -3.2052  1.6896  2.2310
  250MOL0     H34454  13.013   4.956   3.796 -2.0214  0.9226 -1.4570
  250MOL0     H34455  13.073   5.116   3.824  1.1707 -1.2325 -0.4198
  250MOL0     H34456  13.196   5.042   3.979  0.6853 -0.4113  0.8245
  250MOL0     H34457  13.060   5.057   4.082  0.3271  3.0411 -1.8346
  250MOL0     H34458  13.065   4.908   4.256 -0.8109  1.1897  0.2151
  250MOL0     H34459  12.836   4.836   4.499 -1.4988  1.4029 -1.9664
  250MOL0     H34460  13.003   4.861   4.455  0.6784 -1.5892  0.0995
  250MOL0     H34461  12.951   4.701   4.497  4.4015  0.5529 -0.9207
  250MOL0     H34462  12.698   4.312   4.338 -2.3790 -2.8310  0.1451
  250MOL0     H34463  12.612   4.124   4.478 -1.7185 -1.0187  3.8001
  250MOL0     H34464  12.759   4.117   4.843 -1.0997  2.9548 -0.4550
  250MOL0     H34465  12.609   4.133   4.925  1.1018  1.5966 -0.2901
  250MOL0     H34466  12.681   3.869   4.793  1.5849 -1.8335  1.8709
  250MOL0     H34467  12.688   3.906   4.965 -0.7351 -1.3098 -0.8158
  250MOL0     H34468  12.450   3.865   4.785  0.4146  0.3974 -0.9029
  250MOL0     H34469  12.420   3.982   4.927 -0.8868 -1.3418  2.7782
  250MOL0     H34470  12.501   3.794   5.084 -0.0104 -3.3406  1.2367
  250MOL0     H34471  12.467   3.681   4.949  0.4009 -0.3027  1.5692
  250MOL0     H34472  12.266   3.875   5.078 -1.3714 -0.3106  1.7104
  250MOL0     H34473  12.236   3.804   4.933  1.6601  0.3737 -0.7222
  250MOL0     H34474  12.275   3.688   5.205  2.4759 -3.0098 -1.0341
  250MOL0     H34475  12.318   3.568   5.081  0.5174 -0.6083 -2.1613
  250MOL0     H34476  12.104   3.510   5.112 -0.3808  0.4775  0.6166
  250MOL0     H34477  12.090   3.595   4.974  2.5521  0.8791 -0.3646
  250MOL0     H34478  11.907   3.706   5.102  1.0537  1.2946 -3.4401
  250MOL0     H34479  12.046   3.812   5.156  0.2274  0.2312 -1.2421
  250MOL0     H34480  12.705   4.352   4.822  1.4053  0.8167 -0.2729
  250MOL0     H34481  12.773   4.540   4.693  1.8872 -1.2191  0.5050
  250MOL0     H34482  12.727   4.614   4.045 -1.3140 -2.0648  2.8369
  250MOL0     H34483  12.940   4.699   3.908 -0.4254  3.9157 -0.9141
  250MOL0     H34484  11.927   5.459   2.937  2.1524 -2.0698  1.4466
  250MOL0     H34485  11.729   5.314   2.943  1.1827 -0.1055 -0.2098
  250MOL0     H34486  11.347   5.240   3.024  1.5718  2.0959  1.1398
  250MOL0     H34487  11.123   5.153   2.997  3.7392  0.0348 -2.5689
  250MOL0     H34488  10.903   5.099   3.025  3.5275 -0.8697 -3.4992
  250MOL0     H34489  10.949   4.936   2.994  1.1560 -3.8247  2.6319
  250MOL0     H34490  10.792   4.858   3.166 -0.5737 -0.3059 -0.5502
  250MOL0     H34491  10.711   4.961   3.033 -1.5858  2.7821  2.2360
  250MOL0     H34492  10.729   5.154   3.205  1.3755 -0.9366  0.4015
  250MOL0     H34493  10.608   5.020   3.229  0.8461 -2.4808  0.4585
  250MOL0     H34494  10.872   5.036   3.384 -0.3843  0.6971  1.2198
  250MOL0     H34495  10.763   4.907   3.391  3.6816  0.6864  1.1081
  250MOL0     H34496  10.655   5.174   3.688 -1.2522  1.0737 -1.1539
  250MOL0     H34497  11.129   5.002   3.395  1.7790 -1.6617  1.5312
  250MOL0     H34498  11.271   5.040   3.537  2.8424 -3.4042  1.8227
  250MOL0     H34499  11.422   4.988   3.474 -0.5460 -1.3335  0.6046
  250MOL0     H34500  11.393   5.168   3.503  1.3991 -1.2555  0.1525
  251MOL0     O34501  11.506  10.798   9.921 -0.0878  0.2046 -0.1514
  251MOL0     C34502  11.458  10.786  10.030  0.1771 -0.3417  0.4757
  251MOL0     O34503  11.492  10.857  10.147 -0.1010 -0.3795 -0.0439
  251MOL0     C34504  11.608  10.936  10.138  0.2683  0.0572  0.1206
  251MOL0     C34505  11.662  10.965  10.262 -0.2849 -1.0597 -0.2836
  251MOL0     C34506  11.779  11.045  10.283  0.3158 -0.4798 -0.1215
  251MOL0     C34507  11.840  11.103  10.173 -0.6581  0.2156 -0.3722
  251MOL0     O34508  11.956  11.184  10.174  0.2210  0.8929  0.0259
  251MOL0     C34509  12.018  11.209  10.300 -0.0823  0.2208  0.3593
  251MOL0     C34510  12.143  11.309  10.308  0.3921  0.2566 -0.6113
  251MOL0     C34511  12.269  11.231  10.354 -0.0674 -0.2486 -0.4085
  251MOL0     C34512  12.387  11.326  10.348 -0.8654 -0.5935  0.8082
  251MOL0     C34513  12.523  11.257  10.352  1.1412 -0.4435 -0.1302
  251MOL0     C34514  12.632  11.357  10.333  0.1939 -0.6014 -0.6458
  251MOL0     C34515  12.761  11.309  10.272 -0.0619 -0.5971 -0.5554
  251MOL0     C34516  12.828  11.199  10.357  0.4964 -0.3455  0.8615
  251MOL0     N34517  12.866  11.245  10.489 -0.4038  0.0555 -0.2872
  251MOL0     C34518  12.839  11.193  10.607 -0.6349 -0.0275 -0.3996
  251MOL0     C34519  12.909  11.270  10.705  0.4203  0.8922 -0.3612
  251MOL0     C34520  12.894  11.268  10.859 -0.4850  0.3962 -0.9265
  251MOL0     C34521  12.971  11.143  10.932 -0.4026  0.0439 -0.9711
  251MOL0     C34522  12.917  10.998  10.885  0.2361  0.7120 -0.9072
  251MOL0     C34523  13.005  10.885  10.938  0.5183 -0.6580 -0.3368
  251MOL0     O34524  12.925  10.771  10.970 -0.0786  0.4443  0.4160
  251MOL0     C34525  12.844  10.771  11.086 -0.7961 -0.1409  0.2152
  251MOL0     C34526  12.841  10.874  11.180 -0.0555  0.6504 -0.1362
  251MOL0     C34527  12.750  10.863  11.289  0.8385 -0.4137  0.0844
  251MOL0     C34528  12.741  10.962  11.408 -0.2462 -0.3447 -0.0015
  251MOL0     C34529  12.653  10.763  11.286 -0.4076  0.9612 -0.3767
  251MOL0     C34530  12.546  10.749  11.388  0.0740  0.8458 -0.3792
  251MOL0     O34531  12.449  10.841  11.383 -0.2308  0.4620  0.2932
  251MOL0     C34532  12.375  10.846  11.498  0.5314  0.1682  0.5305
  251MOL0     C34533  12.273  10.752  11.526 -0.5039 -0.1372  0.1534
  251MOL0     C34534  12.200  10.768  11.641 -0.5273 -0.6189  0.0523
  251MOL0     C34535  12.207  10.887  11.713 -1.4882 -0.4251 -0.0285
  251MOL0     O34536  12.129  10.930  11.813  0.2772  0.1161  0.6296
  251MOL0     C34537  12.052  10.840  11.888  0.8345 -0.1404 -0.3663
  251MOL0     C34538  11.971  10.917  12.001 -0.5575  0.5230  0.6912
  251MOL0     C34539  11.884  11.030  11.932  0.9173 -0.0252 -0.0677
  251MOL0     C34540  11.824  11.129  12.040  0.4518  0.7567 -0.2562
  251MOL0     C34541  11.730  11.050  12.134 -0.2464 -0.7027  0.1267
  251MOL0     C34542  11.614  10.999  12.053 -0.9896 -0.2868  0.2493
  251MOL0     C34543  11.507  10.929  12.140  0.1259 -0.3271  1.2481
  251MOL0     C34544  11.460  10.810  12.074  0.2370  0.7709 -0.4982
  251MOL0    Cl34545  11.342  10.746  12.196 -0.4773 -0.0803 -0.3538
  251MOL0     C34546  12.312  10.972  11.691  0.0384 -0.4187 -0.5881
  251MOL0     C34547  12.397  10.958  11.587  0.2362 -0.5915  1.2976
  251MOL0     O34548  12.536  10.648  11.453 -0.3492 -0.5666 -0.7619
  251MOL0     C34549  12.661  10.668  11.185  0.5842  0.0841  0.4665
  251MOL0     C34550  12.759  10.665  11.093 -0.1559 -0.5857  1.2364
  251MOL0     N34551  12.970  11.369  10.639  0.4223  0.2219  0.9450
  251MOL0     N34552  12.939  11.357  10.515  0.1011 -0.2096 -0.4130
  251MOL0     C34553  11.787  11.079  10.047 -1.2833 -0.0232  0.9292
  251MOL0     C34554  11.671  11.001  10.026  0.9853  0.2367 -1.0001
  251MOL0     C34555  11.343  10.696  10.048 -0.2283  1.6898 -1.3499
  251MOL0     C34556  11.287  10.692  10.172  0.0757 -0.2127 -0.0331
  251MOL0     C34557  11.199  10.603  10.220 -0.2113 -0.7038 -0.2211
  251MOL0     C34558  11.160  10.497  10.135 -0.6887  1.1388  0.1529
  251MOL0     O34559  11.070  10.407  10.172  0.2582 -0.3010 -0.0113
  251MOL0     C34560  11.040  10.377  10.311  0.4657 -0.2480  0.1820
  251MOL0     C34561  11.149  10.310  10.399  0.5089  1.1379  0.4480
  251MOL0     C34562  11.137  10.152  10.395 -0.7504  0.1213 -0.8060
  251MOL0     C34563  11.206  10.082  10.513 -0.1378 -0.5930 -0.2429
  251MOL0     C34564  11.127  10.075  10.633 -1.6302  0.9932  0.8818
  251MOL0     C34565  11.084  10.064  10.741 -0.2406  0.6697 -0.4995
  251MOL0     C34566  11.204  10.502  10.000 -0.2252 -0.1420 -1.2283
  251MOL0     C34567  11.298  10.600   9.960  0.0722 -0.2831  0.0202
  251MOL0     C34568  11.319  10.606   9.808  0.2201 -0.0691  0.4856
  251MOL0     H34569  11.610  10.928  10.350  0.4401 -0.5687  0.3711
  251MOL0     H34570  11.818  11.056  10.384 -1.6294 -4.3860  1.2633
  251MOL0     H34571  12.065  11.113  10.326 -0.7267  0.3004  1.9281
  251MOL0     H34572  11.938  11.243  10.366 -2.4462 -0.5995 -1.9060
  251MOL0     H34573  12.162  11.357  10.211 -3.7428  1.2372 -1.1034
  251MOL0     H34574  12.106  11.383  10.379 -1.1813 -1.5326  0.5327
  251MOL0     H34575  12.243  11.195  10.454  0.2728 -0.8065 -0.5127
  251MOL0     H34576  12.289  11.147  10.287 -3.2119 -0.9018 -0.6815
  251MOL0     H34577  12.379  11.386  10.257 -1.9389 -0.5401  0.9176
  251MOL0     H34578  12.370  11.397  10.430 -4.6244 -0.9566  0.5248
  251MOL0     H34579  12.527  11.191  10.264  1.4283 -3.4283  1.9718
  251MOL0     H34580  12.554  11.188  10.431  2.7085  2.0013  1.5563
  251MOL0     H34581  12.594  11.425  10.256 -1.4901  0.1131  0.7669
  251MOL0     H34582  12.649  11.415  10.424 -0.2545 -0.7250 -0.4860
  251MOL0     H34583  12.809  11.405  10.254 -1.6636  0.4163  0.3828
  251MOL0     H34584  12.741  11.263  10.174  1.2999 -1.8139 -0.2977
  251MOL0     H34585  12.765  11.109  10.364  0.5510 -0.7022 -1.9494
  251MOL0     H34586  12.920  11.171  10.305 -0.3450  0.1060 -0.9472
  251MOL0     H34587  12.771  11.116  10.641 -1.2328  1.1821  1.3379
  251MOL0     H34588  12.787  11.249  10.872 -0.1191 -2.1203 -1.0393
  251MOL0     H34589  12.937  11.364  10.890  1.5084 -0.7350 -0.0177
  251MOL0     H34590  13.079  11.154  10.923  0.1892 -1.8965  2.3002
  251MOL0     H34591  12.948  11.146  11.039 -2.0767  1.3163 -1.3161
  251MOL0     H34592  12.815  10.980  10.918 -0.2468  3.0197 -0.9612
  251MOL0     H34593  12.923  10.992  10.776  1.9909  0.0193 -0.8104
  251MOL0     H34594  13.079  10.857  10.862  1.7506  1.3013  0.0597
  251MOL0     H34595  13.062  10.927  11.021  2.6782 -2.0374 -1.0178
  251MOL0     H34596  12.911  10.957  11.187 -0.8893  1.2915  1.0606
  251MOL0     H34597  12.739  10.904  11.501 -1.2249 -0.4889 -0.1055
  251MOL0     H34598  12.645  11.009  11.384 -0.1319 -0.6472 -1.1160
  251MOL0     H34599  12.817  11.039  11.424  0.6256 -0.9414 -1.1630
  251MOL0     H34600  12.256  10.670  11.456  0.0692  1.2986 -1.7525
  251MOL0     H34601  12.120  10.700  11.668 -0.0781 -0.5352  1.7072
  251MOL0     H34602  11.988  10.776  11.826  2.6783 -0.0174 -2.5277
  251MOL0     H34603  12.126  10.772  11.929  1.5692 -0.6331 -2.3782
  251MOL0     H34604  11.900  10.854  12.055 -0.5983 -0.0332  0.0068
  251MOL0     H34605  12.029  10.961  12.082  0.4558 -0.9086  0.7633
  251MOL0     H34606  11.817  10.980  11.862 -0.8503 -3.1602  3.4366
  251MOL0     H34607  11.956  11.090  11.877 -2.0360  3.5424 -0.3760
  251MOL0     H34608  11.770  11.206  11.984  1.9301  2.8468  1.0465
  251MOL0     H34609  11.902  11.178  12.099  0.1048  3.4228 -1.7901
  251MOL0     H34610  11.769  10.971  12.198 -1.2608  0.0751  1.7735
  251MOL0     H34611  11.700  11.127  12.206  1.3936 -0.2929  0.4305
  251MOL0     H34612  11.654  10.922  11.987 -2.2705 -1.1701  0.4685
  251MOL0     H34613  11.571  11.083  11.997  0.6559 -2.0555 -4.1237
  251MOL0     H34614  11.414  10.987  12.145 -0.6431 -1.5494  1.8140
  251MOL0     H34615  11.554  10.898  12.234  1.0047  1.9882  1.6318
  251MOL0     H34616  11.540  10.738  12.055  0.9321  1.1753  0.7645
  251MOL0     H34617  11.416  10.832  11.976 -0.7329 -3.4119 -1.1838
  251MOL0     H34618  12.322  11.055  11.761  2.4830 -2.0878  1.2341
  251MOL0     H34619  12.484  11.022  11.583 -1.1720  1.3223 -0.7102
  251MOL0     H34620  12.605  10.575  11.194  2.9919 -1.5560 -0.5436
  251MOL0     H34621  12.759  10.592  11.013 -0.2215  1.4091 -0.7082
  251MOL0     H34622  11.836  11.125   9.961  0.0319 -2.5956  0.1949
  251MOL0     H34623  11.642  10.982   9.923 -1.3321 -2.0296 -0.0449
  251MOL0     H34624  11.314  10.767  10.246 -1.7567 -0.4628  0.9305
  251MOL0     H34625  11.157  10.632  10.316  1.8604 -0.5866  0.7090
  251MOL0     H34626  11.014  10.468  10.366 -0.3365  1.2829 -2.5222
  251MOL0     H34627  10.951  10.313  10.306 -1.1093  1.6899  1.8851
  251MOL0     H34628  11.167  10.338  10.503 -0.7471 -2.6753  1.8885
  251MOL0     H34629  11.240  10.346  10.351 -0.1292  0.1588 -1.6269
  251MOL0     H34630  11.034  10.116  10.387 -0.5363 -0.1578 -3.4759
  251MOL0     H34631  11.182  10.125  10.298  0.0538  0.7270 -0.6153
  251MOL0     H34632  11.305  10.122  10.537 -0.4887 -1.1822  2.4806
  251MOL0     H34633  11.232   9.981  10.481 -1.1508 -0.3216 -2.0171
  251MOL0     H34634  11.036  10.048  10.835 -1.2898  0.9870 -0.9601
  251MOL0     H34635  11.146  10.442   9.931 -0.4201 -1.1313 -0.2315
  251MOL0     H34636  11.301  10.708   9.774  2.5512 -0.1194 -1.1327
  251MOL0     H34637  11.421  10.577   9.781 -0.0047  2.4666 -4.0426
  251MOL0     H34638  11.254  10.542   9.747  4.4849 -1.5672 -2.9979
  252MOL0     O34639   5.909   2.770   2.912 -0.0743 -0.4131 -0.2152
  252MOL0     C34640   5.826   2.788   3.002  0.6072  0.2861  0.1677
  252MOL0     O34641   5.849   2.882   3.103 -0.3045  0.7554  0.1441
  252MOL0     C34642   5.905   3.004   3.070 -0.6865  0.0057  0.6981
  252MOL0     C34643   5.901   3.060   2.945  0.1722  0.5361  0.2949
  252MOL0     C34644   5.936   3.193   2.934  0.8955  0.3759  0.1941
  252MOL0     C34645   5.986   3.276   3.035 -0.0426  0.2236  0.4927
  252MOL0     O34646   6.024   3.406   3.024  0.2410 -1.1175 -0.1694
  252MOL0     C34647   6.048   3.465   2.896 -0.1318 -1.1452 -0.2463
  252MOL0     C34648   6.175   3.422   2.822 -0.0178  0.5254 -0.1024
  252MOL0     C34649   6.180   3.460   2.669  0.4400 -0.5293 -0.1401
  252MOL0     C34650   6.301   3.398   2.607 -0.4693 -0.1280 -0.2227
  252MOL0     C34651   6.292   3.383   2.459 -0.5218  0.3414  0.2808
  252MOL0     C34652   6.291   3.522   2.384  0.3794  0.6463  0.5291
  252MOL0     C34653   6.289   3.511   2.235 -0.1820 -0.6525  0.3964
  252MOL0     C34654   6.218   3.639   2.180  0.6838  0.0183 -0.1543
  252MOL0     N34655   6.300   3.751   2.180  0.5808 -0.3949 -0.1603
  252MOL0     C34656   6.288   3.873   2.248  0.7066 -0.8971  0.7745
  252MOL0     C34657   6.369   3.961   2.175 -0.6601  0.5545  0.4177
  252MOL0     C34658   6.369   4.106   2.193  0.3805  0.0319 -0.5983
  252MOL0     C34659   6.456   4.160   2.303 -0.1179 -0.4856 -0.8641
  252MOL0     C34660   6.447   4.318   2.310 -0.2191 -0.5398 -0.0255
  252MOL0     C34661   6.509   4.383   2.443 -0.1641  0.3808 -0.1236
  252MOL0     O34662   6.546   4.517   2.424 -0.4769 -0.1190  0.3127
  252MOL0     C34663   6.443   4.603   2.400 -1.0410 -0.0324  0.3188
  252MOL0     C34664   6.441   4.671   2.281  0.6668  0.1181 -0.3894
  252MOL0     C34665   6.335   4.751   2.240  0.0538 -0.1951 -0.3033
  252MOL0     C34666   6.325   4.811   2.101  0.4355 -0.4720 -0.1110
  252MOL0     C34667   6.224   4.771   2.339  0.4730 -0.8148 -0.2014
  252MOL0     C34668   6.114   4.869   2.325  0.6000 -0.0327 -0.0069
  252MOL0     O34669   6.156   4.983   2.268 -0.5292 -0.4411 -0.7174
  252MOL0     C34670   6.073   5.076   2.213  0.9583  1.1462 -0.5930
  252MOL0     C34671   5.965   5.133   2.285  0.3522  0.9118 -1.2803
  252MOL0     C34672   5.876   5.226   2.220  0.5650 -0.0886  0.3325
  252MOL0     C34673   5.904   5.263   2.086  0.0070 -0.5347 -1.1067
  252MOL0     O34674   5.818   5.353   2.022  0.6049  0.8387 -1.4519
  252MOL0     C34675   5.829   5.380   1.884  0.3527  0.0560 -0.0042
  252MOL0     C34676   5.719   5.475   1.827  0.9485  0.0286  0.0644
  252MOL0     C34677   5.703   5.624   1.884  0.3569 -0.1874 -0.3233
  252MOL0     C34678   5.815   5.724   1.837  1.0479  0.5132  0.7745
  252MOL0     C34679   5.805   5.859   1.910  0.6340  0.2232  0.7976
  252MOL0     C34680   5.895   5.966   1.850 -1.2091  0.0400  0.2127
  252MOL0     C34681   6.041   5.957   1.911  0.6775  0.3423  0.1638
  252MOL0     C34682   6.143   6.040   1.846  0.6461 -0.1049 -0.3087
  252MOL0    Cl34683   6.129   6.036   1.665 -0.4448 -0.1346  0.0335
  252MOL0     C34684   6.026   5.214   2.025  0.1325  0.9078 -0.5308
  252MOL0     C34685   6.106   5.116   2.082  0.9491 -0.0466  0.0606
  252MOL0     O34686   5.999   4.835   2.347  0.6384 -0.3650 -0.6288
  252MOL0     C34687   6.231   4.702   2.455  0.3654  0.8767 -0.9619
  252MOL0     C34688   6.340   4.621   2.487  0.0860 -0.3646 -0.1032
  252MOL0     N34689   6.410   3.898   2.063 -0.6612 -0.1695  0.4017
  252MOL0     N34690   6.366   3.773   2.064 -0.1565  0.1173  0.4676
  252MOL0     C34691   6.001   3.214   3.154  0.1215  0.0695 -0.3064
  252MOL0     C34692   5.954   3.079   3.174 -0.3364  0.2368  0.6365
  252MOL0     C34693   5.705   2.703   3.017 -0.1940  0.0719 -0.4288
  252MOL0     C34694   5.626   2.710   3.142 -0.6317 -0.4193  1.4193
  252MOL0     C34695   5.516   2.634   3.162 -0.2270  0.0792 -0.1839
  252MOL0     C34696   5.466   2.554   3.057 -0.1168 -0.4020  0.1099
  252MOL0     O34697   5.366   2.462   3.068 -0.2614  0.0797 -0.4696
  252MOL0     C34698   5.265   2.484   3.169 -0.5168 -0.5029 -0.0071
  252MOL0     C34699   5.294   2.393   3.300  0.1549 -0.3353  0.7084
  252MOL0     C34700   5.235   2.463   3.425 -0.2398 -1.0500 -0.0652
  252MOL0     C34701   5.095   2.460   3.452 -0.0301 -0.2199 -0.2308
  252MOL0     C34702   5.053   2.324   3.491  0.7773  0.3779 -0.6102
  252MOL0     C34703   5.010   2.222   3.539  0.0034  1.2556 -0.0932
  252MOL0     C34704   5.546   2.544   2.938  0.7812 -0.5252 -0.0728
  252MOL0     C34705   5.660   2.611   2.916  0.1712  0.3997 -0.9376
  252MOL0     C34706   5.724   2.589   2.780  0.0773  0.2605  0.3260
  252MOL0     H34707   5.855   3.001   2.866 -1.3618 -1.8195  2.8175
  252MOL0     H34708   5.896   3.240   2.845 -1.6193  1.0026  1.5648
  252MOL0     H34709   6.061   3.573   2.911  0.8183 -1.3006  0.0734
  252MOL0     H34710   5.958   3.444   2.837 -0.2433 -2.8412  0.4737
  252MOL0     H34711   6.258   3.469   2.875  0.9710 -1.4070  0.1380
  252MOL0     H34712   6.184   3.315   2.842 -1.1462  0.8701  2.8648
  252MOL0     H34713   6.090   3.412   2.631  1.2942 -2.8892  0.6548
  252MOL0     H34714   6.186   3.566   2.644  0.2673  0.3234  3.0176
  252MOL0     H34715   6.395   3.442   2.642  1.0179 -0.3251 -3.5974
  252MOL0     H34716   6.299   3.295   2.645  2.5300 -0.6939 -1.3063
  252MOL0     H34717   6.198   3.337   2.427  0.5567 -0.1149 -2.5585
  252MOL0     H34718   6.374   3.317   2.430 -1.4596 -1.2076  1.0178
  252MOL0     H34719   6.194   3.560   2.419  1.2195  0.1082  3.7431
  252MOL0     H34720   6.371   3.586   2.420  1.0090 -0.0814  0.4521
  252MOL0     H34721   6.229   3.426   2.199  1.1320 -0.3370 -2.9662
  252MOL0     H34722   6.390   3.504   2.195 -0.0479  2.0367  0.0964
  252MOL0     H34723   6.188   3.622   2.076  0.2666  0.9297 -0.1935
  252MOL0     H34724   6.130   3.656   2.242  0.4808 -0.2229 -0.3736
  252MOL0     H34725   6.227   3.888   2.337  0.8043  3.5255  0.3064
  252MOL0     H34726   6.263   4.129   2.206  0.2527 -0.5356 -0.6328
  252MOL0     H34727   6.399   4.158   2.102 -1.1549  3.0715  0.4806
  252MOL0     H34728   6.428   4.125   2.403  0.6211  0.0457 -0.4632
  252MOL0     H34729   6.558   4.128   2.279  0.0850 -1.8441  1.5491
  252MOL0     H34730   6.491   4.363   2.220  1.2427 -1.3177  0.2742
  252MOL0     H34731   6.338   4.328   2.310 -0.2162 -0.3594 -1.2179
  252MOL0     H34732   6.449   4.354   2.530 -3.2038 -2.0138 -2.7340
  252MOL0     H34733   6.605   4.342   2.476  0.6821  2.9243  0.8272
  252MOL0     H34734   6.522   4.642   2.214  2.3177  0.0116  1.5737
  252MOL0     H34735   6.379   4.906   2.110  2.5925 -1.5679 -0.8141
  252MOL0     H34736   6.218   4.806   2.078  0.3239 -2.6534  0.6782
  252MOL0     H34737   6.384   4.749   2.032  0.7056  1.1843 -1.4413
  252MOL0     H34738   5.940   5.092   2.382  0.9813  3.1117 -0.1363
  252MOL0     H34739   5.805   5.280   2.281  2.6809  2.0756  1.0535
  252MOL0     H34740   5.924   5.428   1.858 -0.2694  0.5596 -1.4374
  252MOL0     H34741   5.819   5.287   1.827 -0.3928  2.0525 -3.4059
  252MOL0     H34742   5.740   5.484   1.720  0.8569  0.5116  0.0863
  252MOL0     H34743   5.620   5.430   1.841  0.8248 -0.9686 -3.1442
  252MOL0     H34744   5.691   5.622   1.993 -1.4655  5.2196 -0.1123
  252MOL0     H34745   5.602   5.650   1.851 -0.7367 -2.7624  0.7628
  252MOL0     H34746   5.797   5.740   1.730  0.6908  2.5604  1.1109
  252MOL0     H34747   5.913   5.676   1.843 -0.4249 -2.8886  0.2941
  252MOL0     H34748   5.700   5.888   1.897  0.9409  0.5431 -1.3272
  252MOL0     H34749   5.830   5.844   2.016  0.0913  0.3576  0.9495
  252MOL0     H34750   5.863   6.063   1.887  0.6999  0.7715  0.0743
  252MOL0     H34751   5.898   5.953   1.741  0.8218 -1.0950  0.3541
  252MOL0     H34752   6.067   5.851   1.899 -0.0823  0.2644 -0.9834
  252MOL0     H34753   6.042   5.971   2.019 -1.0001 -2.2735  0.6083
  252MOL0     H34754   6.232   5.984   1.876 -0.7651 -2.1139  0.3138
  252MOL0     H34755   6.151   6.145   1.876  1.0088 -0.6236  1.5441
  252MOL0     H34756   6.052   5.248   1.925  1.0704 -0.6251 -0.8352
  252MOL0     H34757   6.188   5.066   2.031  0.3546 -2.5431  1.3640
  252MOL0     H34758   6.145   4.713   2.519  0.3380  1.0743 -1.0319
  252MOL0     H34759   6.332   4.575   2.585  1.0125 -4.1899 -1.6473
  252MOL0     H34760   6.041   3.277   3.232  2.3837  1.3337 -2.3395
  252MOL0     H34761   5.970   3.031   3.271 -2.2335 -3.2414 -0.6123
  252MOL0     H34762   5.652   2.775   3.225  1.3917 -0.4436  0.8571
  252MOL0     H34763   5.481   2.616   3.263 -1.6782 -1.4663 -0.9123
  252MOL0     H34764   5.251   2.589   3.196 -1.1342 -0.9172  1.3741
  252MOL0     H34765   5.170   2.457   3.121  0.1663  1.9203 -3.1007
  252MOL0     H34766   5.402   2.381   3.308  0.3236  1.5965  2.0647
  252MOL0     H34767   5.254   2.291   3.301  1.0737 -0.7128  2.6158
  252MOL0     H34768   5.288   2.427   3.513 -1.9000 -2.0629  0.5761
  252MOL0     H34769   5.274   2.565   3.419  2.4294 -1.9247  0.9635
  252MOL0     H34770   5.036   2.478   3.362  1.2092  1.4197 -0.7626
  252MOL0     H34771   5.072   2.530   3.532 -2.9939 -0.8808 -0.3671
  252MOL0     H34772   4.960   2.129   3.556 -2.4161  2.3585 -0.7968
  252MOL0     H34773   5.497   2.487   2.859 -0.8913 -2.3602  2.1628
  252MOL0     H34774   5.713   2.681   2.723  2.2537  2.5295  3.2101
  252MOL0     H34775   5.833   2.578   2.788  0.1891  1.0601 -0.0187
  252MOL0     H34776   5.690   2.497   2.733  2.4310 -2.4087  3.3377
  253MOL0     O34777   3.040   1.035   1.710  0.0502 -0.4478  0.0276
  253MOL0     C34778   2.981   0.949   1.649  0.0687  0.5935 -1.0919
  253MOL0     O34779   2.849   0.912   1.669 -0.1245 -0.1116 -0.7821
  253MOL0     C34780   2.807   0.952   1.794  0.5076 -0.0671 -0.1543
  253MOL0     C34781   2.802   1.093   1.828  0.7827  0.0134  0.0416
  253MOL0     C34782   2.732   1.131   1.942  0.8935  0.2054  0.2424
  253MOL0     C34783   2.669   1.038   2.036 -0.3922  0.0641  0.0276
  253MOL0     O34784   2.591   1.077   2.142 -0.6734 -0.2524 -1.1077
  253MOL0     C34785   2.637   1.188   2.220 -0.6856  0.1077 -0.3125
  253MOL0     C34786   2.571   1.328   2.186  0.8706  1.1193  0.3625
  253MOL0     C34787   2.423   1.344   2.222  0.1494  0.1294 -0.3379
  253MOL0     C34788   2.360   1.462   2.146 -0.1161 -0.2982  0.5945
  253MOL0     C34789   2.215   1.495   2.195  0.6675 -0.4339  0.4097
  253MOL0     C34790   2.116   1.389   2.143  0.2982 -0.3043 -0.0742
  253MOL0     C34791   1.978   1.408   2.209 -0.5399  0.5446  0.3896
  253MOL0     C34792   1.851   1.364   2.134  0.0848  0.3619  0.2645
  253MOL0     N34793   1.826   1.470   2.035 -0.4361 -0.0987 -0.4289
  253MOL0     C34794   1.723   1.566   2.049 -0.2552  0.3909 -0.4517
  253MOL0     C34795   1.704   1.604   1.920 -0.0806 -0.4441 -0.3794
  253MOL0     C34796   1.604   1.697   1.863  0.2902 -0.1142  0.1506
  253MOL0     C34797   1.660   1.843   1.862  0.3140 -0.0370 -0.5216
  253MOL0     C34798   1.562   1.946   1.794  0.7288 -0.1374  0.0745
  253MOL0     C34799   1.443   1.992   1.879 -0.3308  0.1182  0.6056
  253MOL0     O34800   1.506   2.083   1.978  0.5073  1.4442  0.1390
  253MOL0     C34801   1.422   2.135   2.070  0.0821 -0.4889  0.1044
  253MOL0     C34802   1.483   2.208   2.166 -0.2316 -0.8915  0.7618
  253MOL0     C34803   1.416   2.255   2.279 -0.1434 -0.8443  0.9091
  253MOL0     C34804   1.502   2.295   2.394 -0.1504 -0.3387  0.5725
  253MOL0     C34805   1.273   2.257   2.266  0.2359 -0.8666 -0.0750
  253MOL0     C34806   1.202   2.322   2.376  0.7267 -0.4966 -0.4831
  253MOL0     O34807   1.192   2.254   2.497  1.1005 -0.1039  0.8626
  253MOL0     C34808   1.123   2.285   2.609  0.8052 -0.7221  0.3518
  253MOL0     C34809   1.044   2.405   2.616  0.0136  0.6238 -0.2666
  253MOL0     C34810   0.966   2.440   2.729 -0.6165 -0.0628  0.1990
  253MOL0     C34811   0.985   2.365   2.843  0.1697 -0.5172  0.0940
  253MOL0     O34812   0.932   2.374   2.968  1.3454 -0.2370 -0.0283
  253MOL0     C34813   0.838   2.482   2.983  0.7355  0.1975 -0.4884
  253MOL0     C34814   0.782   2.459   3.118  0.9347  0.1721  1.0197
  253MOL0     C34815   0.678   2.340   3.110  0.1660 -0.1754 -0.2259
  253MOL0     C34816   0.561   2.364   3.211  0.1296 -0.5172  0.1282
  253MOL0     C34817   0.478   2.232   3.205 -0.1856  0.3127  0.0549
  253MOL0     C34818   0.384   2.226   3.329 -0.3318  0.1366  1.6611
  253MOL0     C34819   0.342   2.085   3.344  0.5370  0.1022 -0.0991
  253MOL0     C34820   0.250   2.057   3.456  1.2438  0.1552  0.6235
  253MOL0    Cl34821   0.100   2.144   3.418  0.3464 -0.4444 -0.4200
  253MOL0     C34822   1.052   2.243   2.837  0.1027  0.3116  0.6849
  253MOL0     C34823   1.119   2.206   2.721  0.4499  0.2751  0.2606
  253MOL0     O34824   1.140   2.420   2.340  0.2607 -0.1869  0.8194
  253MOL0     C34825   1.205   2.174   2.170 -0.6535 -0.2073  0.7710
  253MOL0     C34826   1.286   2.112   2.075 -0.7826 -0.2468  0.4226
  253MOL0     N34827   1.796   1.544   1.838 -0.0457 -0.1995 -0.6310
  253MOL0     N34828   1.867   1.468   1.904  0.2697 -0.0236 -0.5720
  253MOL0     C34829   2.679   0.906   1.994  0.3557  1.4106  0.7059
  253MOL0     C34830   2.746   0.858   1.876 -0.1595  0.3911  1.3523
  253MOL0     C34831   3.048   0.894   1.531 -0.1465  0.0803 -0.2326
  253MOL0     C34832   2.977   0.832   1.418  0.3592 -0.3994 -0.8083
  253MOL0     C34833   3.038   0.768   1.316 -1.0299  0.0225 -0.4969
  253MOL0     C34834   3.173   0.763   1.307 -0.4798 -0.4186 -1.3399
  253MOL0     O34835   3.243   0.696   1.215  0.9520 -0.3777 -0.2803
  253MOL0     C34836   3.313   0.582   1.270 -0.2180 -0.2738  0.9353
  253MOL0     C34837   3.454   0.583   1.212  0.2954 -0.2062  0.2618
  253MOL0     C34838   3.482   0.424   1.206  0.2046 -0.0002  1.0488
  253MOL0     C34839   3.629   0.401   1.197  0.0318 -0.5305 -0.3215
  253MOL0     C34840   3.654   0.263   1.174 -0.0546  1.0002 -0.4642
  253MOL0     C34841   3.679   0.143   1.165 -0.0940 -0.9625  0.3084
  253MOL0     C34842   3.250   0.814   1.415  0.2823  0.2084  0.4239
  253MOL0     C34843   3.191   0.883   1.519  0.0619 -0.2018  1.1832
  253MOL0     C34844   3.283   0.942   1.625  0.1533  0.5295 -0.3436
  253MOL0     H34845   2.848   1.175   1.773  1.8684  1.1840  2.5352
  253MOL0     H34846   2.704   1.235   1.958  0.4776 -0.0464  1.2131
  253MOL0     H34847   2.745   1.204   2.213 -0.0875 -3.5112 -2.0406
  253MOL0     H34848   2.616   1.155   2.322 -3.4941 -0.1361 -0.8845
  253MOL0     H34849   2.615   1.409   2.245  0.7346  4.1063 -3.2297
  253MOL0     H34850   2.583   1.353   2.080 -2.7443 -2.7858 -1.2349
  253MOL0     H34851   2.371   1.249   2.209  0.3350 -0.1592  0.9629
  253MOL0     H34852   2.413   1.374   2.327 -4.4326 -0.1744 -0.4870
  253MOL0     H34853   2.427   1.546   2.166 -0.1293  0.2288 -1.3660
  253MOL0     H34854   2.369   1.449   2.038 -0.1516  0.0605  0.5468
  253MOL0     H34855   2.184   1.596   2.167  3.1074  0.2282 -0.1107
  253MOL0     H34856   2.216   1.499   2.304 -3.9594  1.3589  0.6228
  253MOL0     H34857   2.112   1.405   2.034 -2.3924 -2.4209 -0.3971
  253MOL0     H34858   2.151   1.287   2.157 -0.8698 -0.9582 -1.5236
  253MOL0     H34859   1.975   1.511   2.245  2.6447  0.0783  2.4694
  253MOL0     H34860   1.979   1.357   2.306  0.2606  2.1475  1.2624
  253MOL0     H34861   1.863   1.265   2.090 -1.8460  0.2891 -0.1964
  253MOL0     H34862   1.761   1.352   2.197 -0.0629 -0.7214 -0.1271
  253MOL0     H34863   1.660   1.598   2.131  1.0425  2.1354 -0.0747
  253MOL0     H34864   1.529   1.699   1.943  1.9245 -1.6835  1.8566
  253MOL0     H34865   1.563   1.650   1.774 -1.3019  1.5096 -0.0162
  253MOL0     H34866   1.679   1.871   1.966 -2.9569 -2.5935  0.9463
  253MOL0     H34867   1.746   1.843   1.795 -0.0796 -1.3429 -1.0565
  253MOL0     H34868   1.622   2.028   1.752  0.8308 -1.5184 -2.7113
  253MOL0     H34869   1.516   1.888   1.714 -0.2695 -0.5063  0.8940
  253MOL0     H34870   1.368   2.037   1.814  1.5114 -0.9252 -2.4798
  253MOL0     H34871   1.395   1.910   1.933  1.2453  0.5064  2.7173
  253MOL0     H34872   1.590   2.228   2.171 -0.6050  1.7362 -0.4274
  253MOL0     H34873   1.563   2.214   2.434 -1.4739 -1.6215  0.0859
  253MOL0     H34874   1.452   2.347   2.475 -0.4736  0.2301  0.0193
  253MOL0     H34875   1.576   2.360   2.345  1.6935 -2.8609 -0.2394
  253MOL0     H34876   1.031   2.469   2.529 -1.8289  1.3247  0.4859
  253MOL0     H34877   0.903   2.527   2.715 -2.2247 -1.1507  0.4644
  253MOL0     H34878   0.888   2.579   2.978  1.0916  0.1618  1.4194
  253MOL0     H34879   0.762   2.480   2.904  2.3496  4.3860 -2.4612
  253MOL0     H34880   0.863   2.440   3.189  1.6677  1.8157  0.6743
  253MOL0     H34881   0.735   2.551   3.153  2.4780  1.2857  0.2791
  253MOL0     H34882   0.732   2.246   3.124  0.0653 -0.5854 -2.2122
  253MOL0     H34883   0.639   2.334   3.008 -1.2412 -0.0870  0.2871
  253MOL0     H34884   0.506   2.455   3.188 -0.2099  0.4064  3.8859
  253MOL0     H34885   0.602   2.379   3.311 -0.5198  1.9805  0.0760
  253MOL0     H34886   0.418   2.220   3.114  0.1991 -2.7990  0.1241
  253MOL0     H34887   0.548   2.149   3.218 -0.4543  0.0397 -0.2361
  253MOL0     H34888   0.294   2.282   3.299  0.0551  0.6134  1.3842
  253MOL0     H34889   0.431   2.277   3.413  2.1025  0.3163  0.2821
  253MOL0     H34890   0.435   2.027   3.352  1.8876  2.1282 -0.2746
  253MOL0     H34891   0.295   2.051   3.251  0.6130  0.8324 -0.4064
  253MOL0     H34892   0.285   2.088   3.555 -2.2683 -0.0119  2.0408
  253MOL0     H34893   0.225   1.951   3.448  0.0179  0.1523  3.4335
  253MOL0     H34894   1.060   2.185   2.928 -1.4148 -0.3354  0.4322
  253MOL0     H34895   1.164   2.107   2.715 -1.6183 -0.6134 -3.3705
  253MOL0     H34896   1.097   2.178   2.163 -0.6878  3.5644  1.4703
  253MOL0     H34897   1.243   2.049   1.998  3.5801 -1.5060 -1.2786
  253MOL0     H34898   2.636   0.841   2.070 -0.3684 -1.7172 -2.1081
  253MOL0     H34899   2.767   0.752   1.861 -0.6277  0.5032 -0.2521
  253MOL0     H34900   2.869   0.844   1.409  0.4419  0.7685 -0.3932
  253MOL0     H34901   2.979   0.703   1.252 -0.2494 -1.5447  0.3222
  253MOL0     H34902   3.329   0.581   1.378  0.2741 -2.8911  0.8981
  253MOL0     H34903   3.258   0.491   1.245 -0.5958  0.2234 -0.0925
  253MOL0     H34904   3.522   0.638   1.277 -0.6501  1.9611 -0.4487
  253MOL0     H34905   3.447   0.629   1.113 -2.4701 -1.1053 -0.0422
  253MOL0     H34906   3.446   0.375   1.297 -0.3022  1.2320  1.5476
  253MOL0     H34907   3.431   0.388   1.116  2.4922  0.3089 -0.4366
  253MOL0     H34908   3.682   0.441   1.283 -1.3082  2.0352 -0.5824
  253MOL0     H34909   3.648   0.452   1.102  1.3807  0.5742  0.5010
  253MOL0     H34910   3.707   0.040   1.157  1.5121 -0.4379 -1.5765
  253MOL0     H34911   3.359   0.812   1.421  0.3123 -0.5597 -0.2492
  253MOL0     H34912   3.251   0.915   1.726 -0.5777  0.3979 -0.6035
  253MOL0     H34913   3.389   0.918   1.625 -0.2842 -1.9283  2.2703
  253MOL0     H34914   3.282   1.051   1.619  1.0609  0.7471  2.1691
  254MOL0     O34915   3.280   0.776   3.385 -0.2096  0.8755  0.7047
  254MOL0     C34916   3.335   0.709   3.469  0.9830  0.6896 -0.0723
  254MOL0     O34917   3.286   0.703   3.596 -0.1646  0.6285  0.6628
  254MOL0     C34918   3.206   0.790   3.664  0.5415  0.3600  0.7295
  254MOL0     C34919   3.150   0.911   3.606 -0.0519  0.5172  0.9929
  254MOL0     C34920   3.079   0.986   3.698  0.8676 -0.8790 -0.2242
  254MOL0     C34921   3.067   0.959   3.843  0.3779  0.4160  0.9202
  254MOL0     O34922   3.001   1.044   3.933  0.2907  0.5504  0.0114
  254MOL0     C34923   3.023   1.187   3.916  0.4979 -0.5662 -0.5860
  254MOL0     C34924   2.948   1.260   4.022  0.5387  0.1611  0.3814
  254MOL0     C34925   2.952   1.413   4.030  0.4705  0.7651  0.7318
  254MOL0     C34926   3.084   1.479   3.982 -0.4172  1.2875  0.6990
  254MOL0     C34927   3.209   1.456   4.076  0.5785 -1.2353 -0.6882
  254MOL0     C34928   3.314   1.562   4.052  0.1622  0.1628 -0.7776
  254MOL0     C34929   3.381   1.561   3.915 -0.3310 -0.3559  0.3462
  254MOL0     C34930   3.442   1.697   3.887  0.1789  0.2188  0.4160
  254MOL0     N34931   3.513   1.693   3.754  0.0334  0.2142  0.4540
  254MOL0     C34932   3.510   1.597   3.662 -0.6626  0.2177 -0.0161
  254MOL0     C34933   3.614   1.634   3.578  0.0036  0.0365  0.6284
  254MOL0     C34934   3.653   1.547   3.458  0.1817 -0.9758 -0.0804
  254MOL0     C34935   3.748   1.440   3.486 -1.0530  0.5165  0.1015
  254MOL0     C34936   3.767   1.348   3.360  0.1740 -0.1226 -0.1391
  254MOL0     C34937   3.845   1.415   3.247  0.3486 -0.4039  0.1978
  254MOL0     O34938   3.969   1.482   3.293  0.0101  0.3206  0.2589
  254MOL0     C34939   4.055   1.542   3.205  1.2746  0.2005  0.4381
  254MOL0     C34940   4.070   1.516   3.068 -0.5300  0.2264 -0.0471
  254MOL0     C34941   4.165   1.582   2.998 -0.3418 -1.0401  0.0340
  254MOL0     C34942   4.182   1.531   2.851 -0.4753  0.2871 -1.1991
  254MOL0     C34943   4.238   1.686   3.055  0.6752 -0.3065  0.6446
  254MOL0     C34944   4.342   1.769   2.978  0.2286 -0.3547  0.6232
  254MOL0     O34945   4.394   1.721   2.861  0.1893  0.1448  0.0189
  254MOL0     C34946   4.489   1.794   2.800 -0.0186 -0.6005  0.1338
  254MOL0     C34947   4.464   1.911   2.732  0.1929  0.2164 -0.2501
  254MOL0     C34948   4.564   1.970   2.660  0.0975  0.6966 -0.5283
  254MOL0     C34949   4.701   1.923   2.676  0.1372 -0.7490 -1.2050
  254MOL0     O34950   4.808   1.980   2.615  0.0198 -0.6577 -0.5248
  254MOL0     C34951   4.788   2.121   2.583  0.3173  0.9871 -1.5757
  254MOL0     C34952   4.920   2.184   2.545  0.2974  0.6406  0.1244
  254MOL0     C34953   4.895   2.327   2.486 -0.1031 -0.9464  0.0510
  254MOL0     C34954   4.982   2.350   2.359  0.2595  0.1945  0.9818
  254MOL0     C34955   4.978   2.496   2.320 -0.4136 -0.1495  0.1626
  254MOL0     C34956   5.087   2.524   2.220 -0.7305 -0.3250 -0.1339
  254MOL0     C34957   5.088   2.673   2.175 -0.5632  0.2916  0.2132
  254MOL0     C34958   5.218   2.739   2.218  0.1433  0.0082  0.6016
  254MOL0    Cl34959   5.267   2.718   2.387 -0.0829  0.3446  0.1149
  254MOL0     C34960   4.729   1.808   2.747 -0.0934  0.3508  0.7441
  254MOL0     C34961   4.622   1.746   2.809  0.1315  0.0078 -0.0054
  254MOL0     O34962   4.381   1.872   3.027  0.7802  0.4326  0.2542
  254MOL0     C34963   4.204   1.725   3.190 -0.0921 -0.1260 -0.0139
  254MOL0     C34964   4.119   1.651   3.259  0.4528  0.8050 -0.9777
  254MOL0     N34965   3.662   1.759   3.601  0.0363  0.7616 -0.3081
  254MOL0     N34966   3.593   1.793   3.701 -0.6104  0.0962  0.3027
  254MOL0     C34967   3.106   0.829   3.886  1.1584  0.5142  0.4010
  254MOL0     C34968   3.176   0.750   3.793 -0.1220 -0.5821 -0.5320
  254MOL0     C34969   3.452   0.620   3.445  0.1014 -0.4533 -0.1104
  254MOL0     C34970   3.469   0.590   3.314  0.4350 -0.0705  0.2042
  254MOL0     C34971   3.576   0.507   3.268  0.2588 -0.2766  0.1385
  254MOL0     C34972   3.675   0.468   3.360  0.2939 -0.6147  0.2746
  254MOL0     O34973   3.788   0.395   3.336  0.1183 -0.1414  0.3618
  254MOL0     C34974   3.797   0.321   3.215  0.4567  0.1109 -0.7494
  254MOL0     C34975   3.874   0.419   3.121 -0.0025 -0.1652  0.3963
  254MOL0     C34976   4.024   0.429   3.154  0.2288  0.6467 -0.7543
  254MOL0     C34977   4.098   0.530   3.062 -0.0245  0.0566  0.0348
  254MOL0     C34978   4.077   0.501   2.919 -0.6215  0.3748  0.6521
  254MOL0     C34979   4.042   0.491   2.804  0.7870 -1.0847 -0.5276
  254MOL0     C34980   3.655   0.511   3.490  0.5894  0.1006  0.9931
  254MOL0     C34981   3.544   0.570   3.540  0.0665  0.0426  0.2233
  254MOL0     C34982   3.540   0.592   3.683  0.0252  0.7349 -0.0636
  254MOL0     H34983   3.155   0.943   3.503  1.5492 -2.3831  0.0747
  254MOL0     H34984   3.044   1.087   3.677 -0.8138 -1.3645  0.0545
  254MOL0     H34985   3.002   1.229   3.817  4.0623  1.0441 -0.8149
  254MOL0     H34986   3.131   1.189   3.933  0.3510 -0.6541  0.4101
  254MOL0     H34987   2.848   1.225   3.994  0.3568  1.1509 -0.2609
  254MOL0     H34988   2.977   1.215   4.117  2.5313 -1.7878 -1.0491
  254MOL0     H34989   2.868   1.452   3.972  1.4617 -1.5138 -2.4828
  254MOL0     H34990   2.936   1.453   4.131 -0.9103  0.3268  0.7135
  254MOL0     H34991   3.107   1.448   3.880  0.8171 -1.5979  1.7636
  254MOL0     H34992   3.053   1.584   3.979 -1.3806  0.9945  0.0164
  254MOL0     H34993   3.247   1.354   4.070 -2.6219 -2.4662 -2.1334
  254MOL0     H34994   3.179   1.486   4.177 -1.5407 -2.4463 -0.9091
  254MOL0     H34995   3.273   1.661   4.074  0.7325  0.0892  0.7397
  254MOL0     H34996   3.392   1.529   4.122 -0.8587  0.1884  0.4131
  254MOL0     H34997   3.308   1.526   3.841  2.1796 -2.7380 -1.1980
  254MOL0     H34998   3.461   1.487   3.906  0.7998  0.9437 -0.5835
  254MOL0     H34999   3.362   1.770   3.899  1.3855  1.5298  0.8226
  254MOL0     H35000   3.518   1.709   3.964  1.0360  0.4076 -0.4423
  254MOL0     H35001   3.458   1.502   3.659 -1.1438  0.4957 -0.5934
  254MOL0     H35002   3.706   1.622   3.398 -0.4201 -0.7178 -0.2979
  254MOL0     H35003   3.568   1.525   3.393 -0.5684  2.4778 -0.4737
  254MOL0     H35004   3.846   1.482   3.512 -1.5898  3.2397 -1.8179
  254MOL0     H35005   3.717   1.381   3.573  1.5681 -1.9686 -0.4923
  254MOL0     H35006   3.832   1.267   3.394  3.0942  2.1216  0.0678
  254MOL0     H35007   3.670   1.312   3.325  1.0380  0.0984 -3.0997
  254MOL0     H35008   3.865   1.335   3.174 -2.3354 -3.0262  2.0874
  254MOL0     H35009   3.778   1.484   3.194  0.0461 -1.3619 -0.7193
  254MOL0     H35010   4.017   1.427   3.034  0.1988 -0.3036  0.1879
  254MOL0     H35011   4.148   1.428   2.835  0.2967 -0.0091 -0.9576
  254MOL0     H35012   4.286   1.531   2.819 -0.7948  2.3069 -2.3819
  254MOL0     H35013   4.125   1.591   2.780  0.9804  0.1657 -2.5080
  254MOL0     H35014   4.365   1.956   2.726  0.3250  0.3550 -1.5440
  254MOL0     H35015   4.546   2.065   2.611 -1.7220  1.0887  0.8042
  254MOL0     H35016   4.718   2.122   2.499 -1.8823 -3.6386 -0.1675
  254MOL0     H35017   4.760   2.181   2.669  0.3490 -1.0132 -0.1004
  254MOL0     H35018   4.977   2.182   2.638 -1.7051  0.2897  1.3906
  254MOL0     H35019   4.973   2.113   2.479  0.6134  0.5414  0.4835
  254MOL0     H35020   4.918   2.399   2.565 -1.1143 -1.4959  0.8590
  254MOL0     H35021   4.791   2.346   2.459  0.0132 -2.5028 -1.7303
  254MOL0     H35022   4.936   2.292   2.278 -0.8547  1.6233  0.5407
  254MOL0     H35023   5.086   2.315   2.359  0.7023  1.4223  0.4305
  254MOL0     H35024   4.879   2.517   2.279 -1.3795  1.7879  3.1379
  254MOL0     H35025   4.987   2.556   2.411 -4.8191 -0.9783  1.3947
  254MOL0     H35026   5.067   2.462   2.132  0.7404 -0.7619 -0.1928
  254MOL0     H35027   5.187   2.491   2.249 -0.6826 -2.1652 -2.1219
  254MOL0     H35028   5.003   2.731   2.211 -0.0956 -0.4359  2.6553
  254MOL0     H35029   5.075   2.674   2.066 -2.6993  1.1798  0.4306
  254MOL0     H35030   5.206   2.843   2.187 -0.0803 -0.9278 -2.8278
  254MOL0     H35031   5.299   2.711   2.151  2.0465  1.3122  2.2329
  254MOL0     H35032   4.828   1.762   2.752 -1.0636 -1.9191  0.2142
  254MOL0     H35033   4.656   1.658   2.864 -1.0160 -1.3279 -1.3312
  254MOL0     H35034   4.258   1.808   3.233  1.9827 -2.1208  1.4773
  254MOL0     H35035   4.093   1.677   3.361 -1.0493 -1.5996 -0.6834
  254MOL0     H35036   3.095   0.795   3.989 -0.0002  1.5287  0.6359
  254MOL0     H35037   3.210   0.649   3.813 -0.8623 -0.3759  2.0524
  254MOL0     H35038   3.402   0.621   3.234  0.3200  1.2733  0.8052
  254MOL0     H35039   3.593   0.487   3.163  2.3313  0.1863  0.3604
  254MOL0     H35040   3.854   0.228   3.225 -0.3489 -0.2857  0.4120
  254MOL0     H35041   3.700   0.286   3.180  1.2800 -1.3774 -1.6658
  254MOL0     H35042   3.821   0.514   3.130 -0.0255 -0.1520  0.1315
  254MOL0     H35043   3.859   0.400   3.014 -1.4080  3.8318 -0.2768
  254MOL0     H35044   4.019   0.461   3.259  0.0960 -1.7943  0.0429
  254MOL0     H35045   4.064   0.328   3.145 -0.2954  0.4352 -0.7504
  254MOL0     H35046   4.207   0.520   3.066 -0.0946 -1.5644 -0.9242
  254MOL0     H35047   4.082   0.633   3.094  0.2020  0.7132 -1.8393
  254MOL0     H35048   4.015   0.489   2.701  1.2234  0.9491 -0.7194
  254MOL0     H35049   3.736   0.487   3.558  1.5638 -0.1191 -0.2170
  254MOL0     H35050   3.525   0.697   3.709 -1.1778 -0.0912  3.0038
  254MOL0     H35051   3.445   0.547   3.713  1.1815 -3.5606 -2.0655
  254MOL0     H35052   3.625   0.553   3.741  0.0210 -0.5376 -0.8812
  255MOL0     O35053   0.871   6.705   3.953  0.9987  0.2512 -0.6369
  255MOL0     C35054   0.800   6.770   3.879  0.6944 -0.3814  0.8532
  255MOL0     O35055   0.741   6.719   3.763  0.0041  0.1923 -0.3478
  255MOL0     C35056   0.768   6.587   3.721 -0.0173  0.0015 -0.8055
  255MOL0     C35057   0.709   6.488   3.801 -0.3990  0.4644 -0.0641
  255MOL0     C35058   0.694   6.360   3.749  0.4446 -0.4937  0.1653
  255MOL0     C35059   0.752   6.330   3.621 -0.2882 -0.2843  0.4216
  255MOL0     O35060   0.731   6.207   3.580  0.2355 -0.0326 -1.1125
  255MOL0     C35061   0.841   6.135   3.535 -0.7654 -0.5003  0.5541
  255MOL0     C35062   0.854   6.130   3.381 -0.1485  0.4179  0.4547
  255MOL0     C35063   0.728   6.101   3.306  0.2948 -0.2985 -0.2460
  255MOL0     C35064   0.708   6.194   3.183 -0.1165 -0.5117 -0.1115
  255MOL0     C35065   0.592   6.166   3.086  0.0459  0.6128 -0.7701
  255MOL0     C35066   0.455   6.145   3.144  0.6000 -0.4851 -0.5045
  255MOL0     C35067   0.368   6.104   3.030  0.1254 -0.5128  0.2533
  255MOL0     C35068   0.345   6.214   2.930 -0.7762 -0.4843  0.1011
  255MOL0     N35069   0.209   6.222   2.879  1.0911 -0.1957  0.6952
  255MOL0     C35070   0.171   6.222   2.750 -0.3956  0.6743  1.1117
  255MOL0     C35071   0.037   6.227   2.734 -0.5369 -0.0029 -0.1686
  255MOL0     C35072  -0.045   6.241   2.604 -0.1405 -0.1628  0.1282
  255MOL0     C35073  -0.182   6.163   2.616 -1.7621  0.4524 -0.5847
  255MOL0     C35074  -0.255   6.168   2.480 -0.6785 -0.3615  0.3756
  255MOL0     C35075  -0.387   6.096   2.472 -0.1796  0.2054 -0.3166
  255MOL0     O35076  -0.367   5.956   2.479 -0.6033  0.3633 -0.0456
  255MOL0     C35077  -0.465   5.868   2.427 -1.0395 -0.4360  0.1356
  255MOL0     C35078  -0.602   5.895   2.428 -1.1701  0.0099 -0.3001
  255MOL0     C35079  -0.691   5.797   2.378 -0.4156 -0.3398  1.0989
  255MOL0     C35080  -0.844   5.825   2.381  1.0046  0.3910  0.3736
  255MOL0     C35081  -0.637   5.674   2.329 -0.5795  0.9418 -0.8842
  255MOL0     C35082  -0.715   5.558   2.280  0.4186  0.0529  0.4577
  255MOL0     O35083  -0.652   5.431   2.280  0.4622 -0.5004  0.1964
  255MOL0     C35084  -0.710   5.327   2.209 -0.0712  0.2423 -0.1656
  255MOL0     C35085  -0.775   5.220   2.276 -0.7624  0.7502 -0.9415
  255MOL0     C35086  -0.866   5.134   2.208 -0.6186 -0.3029  0.5579
  255MOL0     C35087  -0.884   5.146   2.069 -0.1338  1.0862  0.1377
  255MOL0     O35088  -0.964   5.062   2.004 -0.3167  0.6444  1.3447
  255MOL0     C35089  -1.017   5.100   1.870  0.5783  0.1397  0.1119
  255MOL0     C35090  -1.117   4.997   1.817  0.5315  1.3505  1.0235
  255MOL0     C35091  -1.059   4.862   1.785 -0.4414  0.8514 -0.6377
  255MOL0     C35092  -1.134   4.779   1.686  0.0900  0.8434 -0.0794
  255MOL0     C35093  -1.065   4.690   1.586  0.4345 -0.5213 -0.8674
  255MOL0     C35094  -0.958   4.757   1.501 -0.3976  0.5233  0.0506
  255MOL0     C35095  -0.911   4.670   1.388  0.3094 -0.0631 -0.4967
  255MOL0     C35096  -0.794   4.588   1.439 -0.4589 -0.0970 -0.0436
  255MOL0    Cl35097  -0.635   4.686   1.460 -0.1499 -0.0281 -0.0761
  255MOL0     C35098  -0.829   5.246   2.006  0.1564 -0.3028 -0.4673
  255MOL0     C35099  -0.751   5.339   2.073  0.4914  0.5574  0.0000
  255MOL0     O35100  -0.827   5.581   2.244 -0.0221 -0.2124 -0.8964
  255MOL0     C35101  -0.502   5.650   2.334  0.4419 -0.2250  0.3534
  255MOL0     C35102  -0.408   5.757   2.372  0.3094  0.0562 -0.4820
  255MOL0     N35103  -0.007   6.224   2.867  0.2838 -0.7696  0.0685
  255MOL0     N35104   0.094   6.225   2.951 -0.3636 -0.4257  0.4257
  255MOL0     C35105   0.825   6.430   3.554 -0.1923 -0.6799 -0.0951
  255MOL0     C35106   0.830   6.560   3.602 -0.3898  1.6343  0.1271
  255MOL0     C35107   0.763   6.905   3.917 -0.6125 -0.3303 -0.4601
  255MOL0     C35108   0.664   6.973   3.842  0.7186  0.0797 -0.1142
  255MOL0     C35109   0.609   7.098   3.875 -0.0612 -0.2643 -0.6690
  255MOL0     C35110   0.657   7.163   3.984  0.1555  0.2522 -0.1224
  255MOL0     O35111   0.610   7.283   4.013 -0.6577  0.0908  0.5233
  255MOL0     C35112   0.653   7.353   4.125 -0.2724 -0.0705 -0.8016
  255MOL0     C35113   0.781   7.440   4.105 -0.3182 -0.3554 -0.0758
  255MOL0     C35114   0.812   7.539   4.220 -0.4914 -0.0964 -1.0491
  255MOL0     C35115   0.879   7.472   4.340  0.3694  0.1890 -0.0462
  255MOL0     C35116   0.980   7.379   4.294 -0.4931  0.2693  0.5722
  255MOL0     C35117   1.059   7.288   4.277  0.7256 -0.1051  0.1801
  255MOL0     C35118   0.754   7.102   4.057 -0.1881 -0.2553  0.4364
  255MOL0     C35119   0.814   6.980   4.029 -0.1632 -0.6829 -0.4401
  255MOL0     C35120   0.923   6.943   4.127  0.7687  0.0148 -0.3050
  255MOL0     H35121   0.652   6.519   3.888 -1.0423 -2.9275  0.8549
  255MOL0     H35122   0.627   6.292   3.801 -3.3068  2.1286 -0.8840
  255MOL0     H35123   0.836   6.034   3.576 -2.8488 -1.4496 -1.7966
  255MOL0     H35124   0.930   6.185   3.575 -1.1369  0.0513  0.7027
  255MOL0     H35125   0.883   6.230   3.349  2.5957 -0.2153  0.7820
  255MOL0     H35126   0.933   6.062   3.350  0.0961  1.5259 -1.5416
  255MOL0     H35127   0.731   5.995   3.282  1.5502 -0.5503  0.8876
  255MOL0     H35128   0.641   6.120   3.370  1.5477  0.0113  1.4578
  255MOL0     H35129   0.693   6.294   3.224 -0.5877  0.0379 -1.5616
  255MOL0     H35130   0.805   6.190   3.132  0.9785  4.4820  1.0866
  255MOL0     H35131   0.627   6.079   3.030 -2.8882 -0.4850 -1.0745
  255MOL0     H35132   0.594   6.254   3.021 -0.6463  2.0111  1.0158
  255MOL0     H35133   0.453   6.066   3.219  0.5078  1.4931  1.6660
  255MOL0     H35134   0.426   6.236   3.196  2.0480 -0.4349  0.2553
  255MOL0     H35135   0.274   6.085   3.082  2.5392  0.6832  5.8813
  255MOL0     H35136   0.394   6.005   2.993  1.1473 -0.7513  1.5167
  255MOL0     H35137   0.381   6.304   2.981  0.2845  0.8703 -2.8455
  255MOL0     H35138   0.412   6.206   2.844 -2.4689 -2.9396 -1.1177
  255MOL0     H35139   0.245   6.224   2.671 -1.0884  0.2051  0.4412
  255MOL0     H35140   0.015   6.193   2.526  0.5957 -0.2559  0.7374
  255MOL0     H35141  -0.067   6.346   2.583 -0.3502 -0.2908 -0.3222
  255MOL0     H35142  -0.159   6.065   2.659 -0.4590  2.0460  2.7267
  255MOL0     H35143  -0.246   6.212   2.691  1.2533  1.0300  1.8498
  255MOL0     H35144  -0.272   6.270   2.444 -1.5095  0.1698  2.1774
  255MOL0     H35145  -0.189   6.117   2.409 -0.6941  0.0168  0.0820
  255MOL0     H35146  -0.461   6.129   2.545  0.3046 -0.2938  0.4043
  255MOL0     H35147  -0.436   6.116   2.376 -0.4621  1.9195  0.1482
  255MOL0     H35148  -0.628   5.989   2.475  2.3866  0.5755  0.9197
  255MOL0     H35149  -0.879   5.896   2.456  0.1378 -0.5555  0.8949
  255MOL0     H35150  -0.900   5.732   2.395  0.8158  0.4268 -0.1312
  255MOL0     H35151  -0.883   5.869   2.289  1.3588  1.0933  0.5486
  255MOL0     H35152  -0.760   5.206   2.383  2.6593  0.0297 -1.3867
  255MOL0     H35153  -0.910   5.044   2.251 -2.1009 -0.7890 -1.7756
  255MOL0     H35154  -1.076   5.192   1.878  0.6925  0.5169 -2.4333
  255MOL0     H35155  -0.934   5.114   1.800 -0.2892 -0.3980 -1.0769
  255MOL0     H35156  -1.186   4.983   1.901  2.0081  2.6706  2.5498
  255MOL0     H35157  -1.175   5.034   1.732 -3.2165 -1.2060  2.1896
  255MOL0     H35158  -1.027   4.798   1.868  3.1726  1.3131 -1.5201
  255MOL0     H35159  -0.957   4.885   1.752 -0.6375  0.5602 -1.4613
  255MOL0     H35160  -1.199   4.839   1.621  1.5400  0.0492 -2.3947
  255MOL0     H35161  -1.202   4.708   1.735 -1.4005  1.6795 -0.8474
  255MOL0     H35162  -1.022   4.608   1.644  1.2377  1.3168  1.2674
  255MOL0     H35163  -1.147   4.646   1.529 -0.0544 -0.8558  0.0656
  255MOL0     H35164  -0.873   4.783   1.565  0.6710 -0.1191 -1.0565
  255MOL0     H35165  -0.987   4.853   1.456 -0.7229  0.0664 -0.7346
  255MOL0     H35166  -0.861   4.721   1.305  2.1333 -1.7551 -0.5066
  255MOL0     H35167  -0.981   4.593   1.355  0.5309 -0.6301  0.3323
  255MOL0     H35168  -0.784   4.517   1.356 -2.5212  0.1858 -0.5803
  255MOL0     H35169  -0.811   4.531   1.531 -3.4073 -4.0099 -2.6946
  255MOL0     H35170  -0.847   5.266   1.900 -0.2589 -1.8571 -0.7096
  255MOL0     H35171  -0.707   5.415   2.009 -0.9407 -0.8920 -2.9328
  255MOL0     H35172  -0.457   5.564   2.286  0.3360  2.0444 -4.4240
  255MOL0     H35173  -0.302   5.736   2.374  0.0621 -1.3616  2.0991
  255MOL0     H35174   0.867   6.430   3.454  0.6794  3.2556  0.0988
  255MOL0     H35175   0.872   6.635   3.536  0.6759 -0.9016 -2.3168
  255MOL0     H35176   0.609   6.934   3.757 -3.7226  1.5399  1.7526
  255MOL0     H35177   0.529   7.139   3.816  0.4503 -0.5704 -1.6070
  255MOL0     H35178   0.573   7.421   4.152  0.7513 -0.1659  3.1282
  255MOL0     H35179   0.641   7.280   4.206 -2.6312  2.4208  1.2746
  255MOL0     H35180   0.770   7.489   4.007  1.3239 -1.3547 -0.8023
  255MOL0     H35181   0.861   7.373   4.075 -0.7061  0.4055 -3.2643
  255MOL0     H35182   0.874   7.619   4.177  1.8186 -2.0862 -1.6493
  255MOL0     H35183   0.712   7.573   4.248  0.1512  1.5938 -0.6916
  255MOL0     H35184   0.810   7.414   4.402  0.5453  0.1017  0.0717
  255MOL0     H35185   0.941   7.537   4.403  3.3767 -2.3377 -0.1366
  255MOL0     H35186   1.135   7.217   4.251 -0.6181 -0.5921 -2.9142
  255MOL0     H35187   0.782   7.146   4.151  0.1854 -1.6138  0.9860
  255MOL0     H35188   1.009   6.892   4.085 -0.0526 -2.4904  0.8809
  255MOL0     H35189   0.959   7.033   4.178  1.0566 -1.6701  2.6716
  255MOL0     H35190   0.887   6.885   4.213  0.5087 -0.3513 -0.6555
  256MOL0     O35191   3.210   1.906   5.928 -0.1302 -0.0266 -0.0215
  256MOL0     C35192   3.217   1.915   5.805 -0.7327 -0.7039  0.1839
  256MOL0     O35193   3.337   1.892   5.729  0.9154  0.1657 -0.5961
  256MOL0     C35194   3.454   1.867   5.803  0.1443  0.3024 -0.3425
  256MOL0     C35195   3.462   1.743   5.862 -0.2204 -0.3784  0.5896
  256MOL0     C35196   3.574   1.706   5.932 -0.4532 -0.4869 -0.0755
  256MOL0     C35197   3.670   1.807   5.949 -0.2603 -0.6058  0.1173
  256MOL0     O35198   3.778   1.758   6.024 -1.4241  0.2677 -0.3018
  256MOL0     C35199   3.897   1.836   6.043  0.1291  0.9252  0.3473
  256MOL0     C35200   3.868   1.952   6.137  0.3702  0.3226  0.8767
  256MOL0     C35201   3.987   2.052   6.115  0.5758  0.8071  0.4671
  256MOL0     C35202   4.092   2.063   6.228 -0.6434 -0.1269  0.2082
  256MOL0     C35203   4.203   2.173   6.208 -0.2773  0.7872  0.5543
  256MOL0     C35204   4.142   2.307   6.235 -0.4606  0.0660 -0.4988
  256MOL0     C35205   4.230   2.430   6.238  1.1434  0.6554  0.0455
  256MOL0     C35206   4.156   2.529   6.311  1.0356 -0.3220 -0.3012
  256MOL0     N35207   4.219   2.661   6.294  0.0829 -0.2564  0.5038
  256MOL0     C35208   4.232   2.726   6.172 -0.8159  0.1955 -0.3120
  256MOL0     C35209   4.287   2.851   6.208  0.6394 -0.3439  0.1915
  256MOL0     C35210   4.319   2.971   6.117  0.8596  1.0919  0.8031
  256MOL0     C35211   4.469   3.005   6.101  0.4444  0.0289  0.9013
  256MOL0     C35212   4.495   3.155   6.049 -0.7409 -0.2196  0.0660
  256MOL0     C35213   4.418   3.264   6.117 -0.5356  0.5442 -1.4171
  256MOL0     O35214   4.461   3.253   6.252 -0.5790 -0.2406 -0.8552
  256MOL0     C35215   4.478   3.379   6.316 -0.0505 -0.2964  0.9164
  256MOL0     C35216   4.607   3.420   6.345  0.0054 -0.5216  0.1047
  256MOL0     C35217   4.634   3.544   6.396 -0.3632 -0.1612 -0.3354
  256MOL0     C35218   4.789   3.577   6.400 -0.0261  0.7125 -0.0059
  256MOL0     C35219   4.530   3.627   6.433 -1.6961 -0.4057 -0.7879
  256MOL0     C35220   4.539   3.759   6.487 -0.1783  0.1836  0.1942
  256MOL0     O35221   4.422   3.836   6.498  0.1226  0.0923 -0.4321
  256MOL0     C35222   4.435   3.966   6.544 -0.5440 -0.1210 -0.6386
  256MOL0     C35223   4.430   4.002   6.680 -0.0691 -0.7558 -0.4622
  256MOL0     C35224   4.414   4.140   6.725  0.0855 -0.1504 -0.2710
  256MOL0     C35225   4.414   4.237   6.629  0.3560  1.0376  1.4852
  256MOL0     O35226   4.409   4.371   6.660 -0.7799 -0.3725 -0.3295
  256MOL0     C35227   4.386   4.475   6.562  0.4130  0.5029  0.2721
  256MOL0     C35228   4.392   4.611   6.622  1.1337 -0.5993  0.5241
  256MOL0     C35229   4.319   4.725   6.553 -0.3878  0.3481 -0.3741
  256MOL0     C35230   4.392   4.763   6.427 -0.4726 -0.0784 -0.0392
  256MOL0     C35231   4.377   4.915   6.385  0.5108  0.4782  0.7279
  256MOL0     C35232   4.231   4.942   6.371  0.6712  0.2660  0.1629
  256MOL0     C35233   4.220   5.078   6.308 -0.0967 -0.5033  0.4245
  256MOL0     C35234   4.085   5.134   6.313 -0.2431  0.1467  0.0408
  256MOL0    Cl35235   4.098   5.286   6.233 -0.1025  0.2452 -0.5005
  256MOL0     C35236   4.447   4.202   6.493  0.2041 -0.4162  0.0523
  256MOL0     C35237   4.455   4.071   6.446 -1.0259  0.5042  0.1478
  256MOL0     O35238   4.655   3.809   6.496  0.2791  1.0602  0.2411
  256MOL0     C35239   4.396   3.583   6.421 -0.4463  0.4082  0.1898
  256MOL0     C35240   4.370   3.458   6.355 -0.5377  0.1323 -0.2409
  256MOL0     N35241   4.297   2.861   6.344 -0.2926  1.2530  0.2708
  256MOL0     N35242   4.257   2.744   6.396 -0.3444 -1.0444 -0.1939
  256MOL0     C35243   3.660   1.929   5.879  0.1623 -0.4679 -0.5880
  256MOL0     C35244   3.553   1.964   5.812  0.0186  0.9442  0.6078
  256MOL0     C35245   3.088   1.947   5.746 -0.4589  0.0803  0.1774
  256MOL0     C35246   3.100   2.017   5.629  0.2125 -0.4744 -0.4488
  256MOL0     C35247   2.993   2.055   5.557  0.7700  0.1715 -0.3217
  256MOL0     C35248   2.866   2.025   5.600  0.3086  0.3399  0.7969
  256MOL0     O35249   2.756   2.040   5.524  1.3161  0.9773  0.1907
  256MOL0     C35250   2.737   2.151   5.429  0.2260 -0.6325 -1.2143
  256MOL0     C35251   2.760   2.296   5.482  0.7275 -0.1921  0.1656
  256MOL0     C35252   2.691   2.322   5.620 -0.6217  0.4531 -0.2466
  256MOL0     C35253   2.538   2.307   5.621  1.1641 -0.0911  0.3665
  256MOL0     C35254   2.489   2.419   5.534 -0.1561 -0.6226 -0.4327
  256MOL0     C35255   2.439   2.524   5.499 -0.4386 -0.1336  0.5887
  256MOL0     C35256   2.847   1.946   5.713 -0.4236  0.4305  0.7178
  256MOL0     C35257   2.961   1.910   5.791  0.3620  0.5393  0.1421
  256MOL0     C35258   2.929   1.825   5.914 -0.3838 -0.7404 -0.0045
  256MOL0     H35259   3.386   1.667   5.847  0.3269 -0.5776 -1.4584
  256MOL0     H35260   3.583   1.612   5.987  0.4576 -0.6099 -0.4096
  256MOL0     H35261   3.945   1.865   5.949  0.2869 -1.0383 -0.2097
  256MOL0     H35262   3.979   1.783   6.092  0.4975  1.8118  0.7095
  256MOL0     H35263   3.783   2.010   6.098  0.7337  0.2901  0.0093
  256MOL0     H35264   3.854   1.944   6.245  0.2202  4.0533  1.2430
  256MOL0     H35265   4.038   2.033   6.021  2.3046 -1.2545  1.7345
  256MOL0     H35266   3.943   2.152   6.106  0.3445  0.7895  1.3014
  256MOL0     H35267   4.030   2.075   6.318 -1.3773 -1.0453 -0.1647
  256MOL0     H35268   4.137   1.965   6.244  0.7221  0.6752  1.6729
  256MOL0     H35269   4.242   2.158   6.107 -0.7139 -2.4107  0.7438
  256MOL0     H35270   4.285   2.152   6.278  1.2005  0.4936 -1.1896
  256MOL0     H35271   4.069   2.323   6.154  0.7328 -0.7427 -1.7746
  256MOL0     H35272   4.100   2.307   6.336  3.1028  1.7038  1.1290
  256MOL0     H35273   4.240   2.461   6.134  1.3058 -0.9644 -0.4531
  256MOL0     H35274   4.333   2.404   6.265  2.6327  2.4411 -3.2450
  256MOL0     H35275   4.050   2.519   6.284 -0.6419  0.6608  4.7759
  256MOL0     H35276   4.154   2.509   6.419 -0.2463  1.1603 -0.0084
  256MOL0     H35277   4.197   2.690   6.076  4.1090 -5.1982 -0.6421
  256MOL0     H35278   4.256   3.052   6.157 -3.1832 -2.2482  1.9800
  256MOL0     H35279   4.274   2.959   6.018  0.2725  3.2685  0.7484
  256MOL0     H35280   4.507   3.006   6.204  0.5561  0.6145  0.8575
  256MOL0     H35281   4.513   2.929   6.036  1.0870 -0.1871  1.5713
  256MOL0     H35282   4.603   3.178   6.051 -0.4987 -1.1115 -1.5489
  256MOL0     H35283   4.452   3.165   5.949 -2.1448 -0.7890  0.5939
  256MOL0     H35284   4.450   3.363   6.083 -0.7826  0.7239 -1.1352
  256MOL0     H35285   4.308   3.262   6.117 -0.5426  0.5968 -0.6534
  256MOL0     H35286   4.688   3.358   6.307 -1.5773 -1.6162 -1.6225
  256MOL0     H35287   4.844   3.516   6.328 -4.7210  0.9494 -4.2809
  256MOL0     H35288   4.829   3.560   6.501 -0.3652 -1.5698 -0.2063
  256MOL0     H35289   4.815   3.674   6.356 -0.6510  1.3074  0.9151
  256MOL0     H35290   4.428   3.922   6.753  0.8821  0.4606  0.9819
  256MOL0     H35291   4.412   4.165   6.830  2.2223 -1.0215  0.0281
  256MOL0     H35292   4.465   4.460   6.488 -0.0865 -1.0365  0.0065
  256MOL0     H35293   4.289   4.462   6.512  0.2489  0.0497  0.6953
  256MOL0     H35294   4.362   4.598   6.726  0.6684 -2.5652  0.1859
  256MOL0     H35295   4.496   4.643   6.636  0.8672 -0.2719  1.8805
  256MOL0     H35296   4.298   4.816   6.610 -1.3444  0.6054 -1.1122
  256MOL0     H35297   4.222   4.683   6.525  0.8131 -1.7895 -1.5909
  256MOL0     H35298   4.352   4.699   6.348 -0.0341 -0.4835  0.0604
  256MOL0     H35299   4.499   4.741   6.427 -0.0032  1.9402 -1.7122
  256MOL0     H35300   4.429   4.986   6.450  1.3799 -0.6694  1.3331
  256MOL0     H35301   4.432   4.922   6.291 -1.9817  0.2860 -0.8225
  256MOL0     H35302   4.182   4.939   6.469 -2.5555 -1.1532 -1.3271
  256MOL0     H35303   4.173   4.873   6.308 -1.6382  0.8225  1.5631
  256MOL0     H35304   4.246   5.077   6.202 -1.7471  0.9237 -0.0391
  256MOL0     H35305   4.284   5.147   6.364 -0.5886  1.9256 -1.8214
  256MOL0     H35306   4.048   5.162   6.412 -1.1018  1.5881 -0.6537
  256MOL0     H35307   4.006   5.069   6.273  0.7226 -1.4788  0.6501
  256MOL0     H35308   4.457   4.281   6.419  2.5019  0.8478  1.6097
  256MOL0     H35309   4.484   4.038   6.346 -1.0736  0.1038  0.2647
  256MOL0     H35310   4.304   3.630   6.454  0.0351  1.1352  0.5234
  256MOL0     H35311   4.271   3.413   6.357 -1.0189  1.1970  1.7893
  256MOL0     H35312   3.741   1.999   5.894 -0.2280 -0.6735  3.6908
  256MOL0     H35313   3.545   2.065   5.772 -1.1118  0.4784 -0.4011
  256MOL0     H35314   3.201   2.037   5.595  0.0747  1.4067  0.1389
  256MOL0     H35315   3.014   2.090   5.457  0.9716 -4.3624 -2.0926
  256MOL0     H35316   2.801   2.139   5.341  2.1049 -0.9651  0.1344
  256MOL0     H35317   2.632   2.135   5.403 -0.8893 -0.4698  2.6456
  256MOL0     H35318   2.716   2.380   5.426  3.6599  1.4345  0.1159
  256MOL0     H35319   2.864   2.330   5.483  0.5405  0.6426 -1.9031
  256MOL0     H35320   2.735   2.270   5.705 -4.2354  2.6684  3.3284
  256MOL0     H35321   2.711   2.422   5.660 -1.9023 -1.3835  6.2415
  256MOL0     H35322   2.489   2.304   5.719 -3.1540  1.2109 -1.5025
  256MOL0     H35323   2.505   2.216   5.570  2.8366 -0.4144 -0.1953
  256MOL0     H35324   2.384   2.612   5.471 -0.5494  0.1472  1.6231
  256MOL0     H35325   2.750   1.912   5.748 -1.1319 -0.0701 -1.5853
  256MOL0     H35326   2.856   1.751   5.881  1.7858 -3.1506  0.3001
  256MOL0     H35327   3.010   1.760   5.948  0.5265  0.2621 -0.1939
  256MOL0     H35328   2.884   1.891   5.989 -3.6072  1.0579 -3.1820
  257MOL0     O35329  11.445   7.509   6.853  0.7629  1.0669  0.0693
  257MOL0     C35330  11.331   7.452   6.860 -0.7072  0.0005 -1.0663
  257MOL0     O35331  11.300   7.365   6.965  0.7259  0.0347  0.1674
  257MOL0     C35332  11.372   7.341   7.077 -0.1041 -0.3975 -0.7696
  257MOL0     C35333  11.507   7.319   7.081 -0.1586  0.2678 -0.1954
  257MOL0     C35334  11.575   7.304   7.199  0.7028  0.5422 -0.5279
  257MOL0     C35335  11.500   7.305   7.317  0.4672 -0.3090  1.0977
  257MOL0     O35336  11.550   7.316   7.440  0.1554 -0.5936 -0.0648
  257MOL0     C35337  11.690   7.311   7.457  0.2210 -0.6466 -0.3074
  257MOL0     C35338  11.732   7.312   7.603  0.0584  0.6691  0.0702
  257MOL0     C35339  11.709   7.449   7.676  0.9455 -0.2946 -0.4826
  257MOL0     C35340  11.765   7.436   7.818  0.1500  0.1680  0.0071
  257MOL0     C35341  11.741   7.576   7.882 -0.2773  0.7913  1.2091
  257MOL0     C35342  11.783   7.574   8.026 -0.0427 -0.0427  0.2428
  257MOL0     C35343  11.770   7.711   8.104 -0.0345  0.1077  0.4123
  257MOL0     C35344  11.812   7.687   8.245  0.3601 -0.4653  0.1395
  257MOL0     N35345  11.846   7.806   8.326  0.8213  0.2403  0.2817
  257MOL0     C35346  11.933   7.899   8.299  0.1690 -0.6034  0.5237
  257MOL0     C35347  11.915   8.001   8.387  0.1897 -0.5186  0.1392
  257MOL0     C35348  12.000   8.126   8.422  0.2455  0.1117 -0.0053
  257MOL0     C35349  12.018   8.233   8.318  0.4532 -0.6818  0.1791
  257MOL0     C35350  12.162   8.255   8.283 -0.7815 -0.3797  0.1981
  257MOL0     C35351  12.214   8.140   8.202  0.2724  0.5903 -0.6929
  257MOL0     O35352  12.191   8.133   8.063 -0.0701  0.9424  0.1204
  257MOL0     C35353  12.186   8.006   8.000  0.2285 -0.2775  0.8676
  257MOL0     C35354  12.241   7.893   8.048  0.2967  0.5012  0.8300
  257MOL0     C35355  12.227   7.763   7.978 -0.4192  0.8997  0.4593
  257MOL0     C35356  12.283   7.635   8.057 -0.8352 -0.2091  0.7664
  257MOL0     C35357  12.154   7.757   7.855 -0.8566 -1.3683 -0.7374
  257MOL0     C35358  12.150   7.641   7.766 -1.1345  0.0181  0.1449
  257MOL0     O35359  12.154   7.661   7.630  0.6482 -0.5663  0.9402
  257MOL0     C35360  12.115   7.575   7.534  0.0845  0.5436 -1.1919
  257MOL0     C35361  12.076   7.639   7.416 -0.5647  0.7578 -0.1474
  257MOL0     C35362  12.049   7.562   7.300 -0.5240 -0.1597 -0.4476
  257MOL0     C35363  12.048   7.422   7.312 -0.5661 -1.1123  0.3031
  257MOL0     O35364  12.016   7.357   7.200 -0.0241 -0.2033  0.4848
  257MOL0     C35365  12.021   7.216   7.195 -0.0287  0.2771  0.7860
  257MOL0     C35366  12.171   7.165   7.187  0.2581 -0.1501 -0.1465
  257MOL0     C35367  12.204   7.036   7.256  0.0546  0.6188 -0.5460
  257MOL0     C35368  12.135   6.914   7.186  0.1123  0.8497 -0.6211
  257MOL0     C35369  12.161   6.773   7.258  0.2734 -0.5760 -1.0806
  257MOL0     C35370  12.104   6.648   7.184 -1.2254  0.5141 -0.3604
  257MOL0     C35371  12.146   6.522   7.268 -0.4318 -0.2907  1.0049
  257MOL0     C35372  12.120   6.394   7.185  1.5273 -0.3359  0.2478
  257MOL0    Cl35373  12.131   6.238   7.291  0.7099  0.3744  0.5788
  257MOL0     C35374  12.062   7.363   7.438  0.2396 -0.3319  0.3578
  257MOL0     C35375  12.094   7.437   7.550  0.6885 -0.0798  0.0569
  257MOL0     O35376  12.131   7.536   7.824  0.7602  1.0646  0.4975
  257MOL0     C35377  12.110   7.883   7.807 -0.1037  0.7059  1.2391
  257MOL0     C35378  12.119   8.000   7.880  0.3710  0.0833 -0.2128
  257MOL0     N35379  11.807   7.958   8.474 -0.6022 -0.0911 -0.9208
  257MOL0     N35380  11.778   7.836   8.436 -0.0515 -0.1145 -0.0711
  257MOL0     C35381  11.359   7.319   7.313  0.2219 -0.7935 -0.9313
  257MOL0     C35382  11.294   7.343   7.193 -0.1405  0.2091 -0.1674
  257MOL0     C35383  11.243   7.456   6.744  1.6855  0.3926 -0.0966
  257MOL0     C35384  11.141   7.353   6.734 -0.6299 -0.2167 -0.4872
  257MOL0     C35385  11.064   7.325   6.628  0.1207  0.0105 -0.5317
  257MOL0     C35386  11.094   7.393   6.510 -0.7541 -0.4736  0.1927
  257MOL0     O35387  11.028   7.378   6.396  0.1120  0.1131 -0.2463
  257MOL0     C35388  11.094   7.371   6.271 -1.1822 -0.0048  1.4275
  257MOL0     C35389  11.063   7.220   6.231 -0.4767 -0.3568  0.1638
  257MOL0     C35390  11.081   7.213   6.076  0.3124  0.5771 -0.2177
  257MOL0     C35391  11.032   7.076   6.013 -0.1999 -0.5793 -0.0092
  257MOL0     C35392  10.885   7.073   6.011 -0.4941 -0.0826 -0.8276
  257MOL0     C35393  10.767   7.095   6.020 -0.0185 -0.1698  0.2416
  257MOL0     C35394  11.193   7.498   6.516  0.2969 -0.6236 -0.4863
  257MOL0     C35395  11.271   7.535   6.629 -0.5065  0.9027  0.3326
  257MOL0     C35396  11.344   7.662   6.617 -1.5575 -0.2557 -0.1706
  257MOL0     H35397  11.570   7.328   6.994  0.3668  0.7346  0.2211
  257MOL0     H35398  11.677   7.269   7.207  0.4919 -0.1887 -0.8832
  257MOL0     H35399  11.746   7.390   7.407  0.0460 -1.4402 -1.8180
  257MOL0     H35400  11.727   7.218   7.412  2.1090 -0.0124 -0.1306
  257MOL0     H35401  11.673   7.234   7.652 -3.2842  2.3262 -1.0031
  257MOL0     H35402  11.841   7.299   7.607 -0.1222 -1.8477 -0.8749
  257MOL0     H35403  11.765   7.531   7.630  2.1215  0.2674  1.8054
  257MOL0     H35404  11.600   7.463   7.675  1.0385  0.5191 -0.2251
  257MOL0     H35405  11.714   7.358   7.875  1.1746  0.4144  1.2929
  257MOL0     H35406  11.869   7.407   7.805 -1.2466 -4.4068 -5.3164
  257MOL0     H35407  11.637   7.602   7.861 -0.0371  1.0855  0.3522
  257MOL0     H35408  11.790   7.663   7.838 -0.6747 -0.8356 -2.8602
  257MOL0     H35409  11.714   7.507   8.079  0.8479 -1.4571 -0.3519
  257MOL0     H35410  11.885   7.536   8.038  1.5217  1.9020 -4.6852
  257MOL0     H35411  11.666   7.745   8.102 -0.1100 -0.1161  0.4373
  257MOL0     H35412  11.842   7.779   8.058 -1.6599 -1.1468 -4.6511
  257MOL0     H35413  11.728   7.645   8.301  1.9384  1.4826  4.4188
  257MOL0     H35414  11.901   7.625   8.258 -0.2897 -2.1660 -2.7876
  257MOL0     H35415  11.999   7.901   8.213  0.3229 -1.3382  0.6191
  257MOL0     H35416  12.100   8.097   8.454  0.6252  0.4835 -0.8296
  257MOL0     H35417  11.951   8.170   8.510  3.8513  0.1442  2.1849
  257MOL0     H35418  11.960   8.214   8.227 -0.6502  2.6280  0.0483
  257MOL0     H35419  11.968   8.322   8.358 -2.6534 -1.8014 -0.9057
  257MOL0     H35420  12.161   8.354   8.236 -1.1089 -1.5677 -2.4643
  257MOL0     H35421  12.223   8.264   8.373  2.1339  0.0107 -1.6689
  257MOL0     H35422  12.322   8.148   8.219  0.5199 -2.7451  0.1339
  257MOL0     H35423  12.175   8.048   8.248  3.6542  0.2386  1.8601
  257MOL0     H35424  12.301   7.890   8.139  0.3037 -1.7480  0.7959
  257MOL0     H35425  12.192   7.575   8.066 -2.6551  2.3877  0.7883
  257MOL0     H35426  12.337   7.655   8.150  2.9844 -0.9054 -1.1026
  257MOL0     H35427  12.356   7.582   7.995 -2.2886 -0.3730 -0.8772
  257MOL0     H35428  12.081   7.747   7.415 -0.0871  0.8049 -3.7337
  257MOL0     H35429  12.025   7.614   7.208 -2.6113  0.1646  0.2049
  257MOL0     H35430  11.970   7.173   7.282  1.1718 -1.8544  0.5046
  257MOL0     H35431  11.962   7.188   7.107 -1.3245  1.0448  1.3832
  257MOL0     H35432  12.190   7.136   7.084 -2.1672 -2.4343 -0.0559
  257MOL0     H35433  12.240   7.245   7.216 -0.3047  0.1374  0.4366
  257MOL0     H35434  12.173   7.044   7.360 -1.5128  0.0063 -0.9355
  257MOL0     H35435  12.313   7.027   7.257 -0.0920 -1.6719  0.4090
  257MOL0     H35436  12.171   6.901   7.084 -0.3496 -3.1907 -0.4238
  257MOL0     H35437  12.027   6.930   7.185 -0.1353  0.0755  2.2745
  257MOL0     H35438  12.271   6.769   7.258  0.5945  3.1020 -3.6941
  257MOL0     H35439  12.116   6.791   7.356  1.7340  0.6081 -0.5822
  257MOL0     H35440  12.160   6.650   7.089  0.2390 -3.1393  0.2605
  257MOL0     H35441  11.996   6.658   7.168 -1.5424 -2.0469 -0.3520
  257MOL0     H35442  12.106   6.525   7.370  0.0373 -1.3570  1.2326
  257MOL0     H35443  12.254   6.524   7.288 -0.7244  1.5992  2.7165
  257MOL0     H35444  12.191   6.378   7.103  3.9478  0.8030  2.0150
  257MOL0     H35445  12.012   6.402   7.166  1.1884  0.0905  2.2245
  257MOL0     H35446  12.069   7.255   7.442  1.6048 -0.2333  1.3193
  257MOL0     H35447  12.115   7.379   7.640  2.0581  0.2020 -0.0539
  257MOL0     H35448  12.066   7.878   7.708  0.2082  0.2519  1.1231
  257MOL0     H35449  12.066   8.089   7.848  1.8155  1.4275  0.9379
  257MOL0     H35450  11.307   7.329   7.408  2.8341 -0.1782  0.5191
  257MOL0     H35451  11.187   7.348   7.175  0.2989  0.3518 -3.3595
  257MOL0     H35452  11.133   7.286   6.820  3.8907  0.5345  0.7947
  257MOL0     H35453  10.981   7.255   6.640  0.7470 -0.2104  4.2422
  257MOL0     H35454  11.051   7.442   6.200 -0.8765 -0.4845  0.7479
  257MOL0     H35455  11.200   7.400   6.276 -2.2374  4.2619  3.1161
  257MOL0     H35456  10.963   7.199   6.271  0.1741 -0.0602  2.0222
  257MOL0     H35457  11.131   7.143   6.268  0.8339  0.5398 -0.2954
  257MOL0     H35458  11.027   7.289   6.019 -1.2943 -2.3712 -2.9587
  257MOL0     H35459  11.185   7.224   6.045  0.6797 -0.0329  0.7415
  257MOL0     H35460  11.075   6.989   6.063  1.1268 -0.8986 -1.5876
  257MOL0     H35461  11.070   7.069   5.910 -0.8320  1.4973 -0.4452
  257MOL0     H35462  10.667   7.131   6.015  0.2946  0.5856 -0.8837
  257MOL0     H35463  11.203   7.558   6.426 -0.0279 -1.0951 -0.8412
  257MOL0     H35464  11.454   7.656   6.620 -1.3950  2.1046  0.0963
  257MOL0     H35465  11.325   7.698   6.515 -0.3826  0.6601 -0.0943
  257MOL0     H35466  11.300   7.731   6.689 -0.5807  1.9422 -1.5834
  258MOL0     O35467   3.001   0.783   8.750  0.6100 -0.9706 -0.5342
  258MOL0     C35468   3.069   0.877   8.802  0.6235  0.4485 -0.3248
  258MOL0     O35469   3.086   0.887   8.937  0.2256  0.2730  0.3366
  258MOL0     C35470   3.012   0.807   9.015  0.5852  0.3009 -0.0771
  258MOL0     C35471   3.017   0.667   9.007 -0.6347  0.6681 -0.6991
  258MOL0     C35472   2.931   0.590   9.086 -1.1701  0.1062  1.1941
  258MOL0     C35473   2.835   0.643   9.178  0.2070  0.5905  0.2062
  258MOL0     O35474   2.780   0.548   9.251 -0.1307  0.1545 -0.2613
  258MOL0     C35475   2.751   0.580   9.390  0.6164 -0.4925 -0.0919
  258MOL0     C35476   2.865   0.515   9.478 -0.4345 -0.0472 -0.2431
  258MOL0     C35477   2.820   0.532   9.629 -0.3521  0.8295  0.1187
  258MOL0     C35478   2.943   0.493   9.722  1.5993  0.4220  0.3981
  258MOL0     C35479   2.928   0.497   9.876  0.7190 -0.0843 -0.2441
  258MOL0     C35480   2.853   0.627   9.924 -0.4902 -0.8166 -0.5756
  258MOL0     C35481   2.856   0.640  10.077 -0.4851  0.1092  0.1753
  258MOL0     C35482   2.786   0.522  10.142  0.1783  0.5712 -0.2056
  258MOL0     N35483   2.641   0.512  10.095 -0.4154  0.9631 -0.2251
  258MOL0     C35484   2.545   0.597  10.139 -0.0732  0.5724  0.2384
  258MOL0     C35485   2.432   0.550  10.073 -0.4578  0.0416 -0.3708
  258MOL0     C35486   2.289   0.607  10.076 -0.0757 -0.5192  0.5840
  258MOL0     C35487   2.205   0.561  10.190  0.3260  0.0112  1.0346
  258MOL0     C35488   2.255   0.591  10.335  0.2651  0.1597 -0.8944
  258MOL0     C35489   2.207   0.478  10.421 -0.0301  0.3132  0.3325
  258MOL0     O35490   2.066   0.452  10.411  0.3675 -0.2883  0.2852
  258MOL0     C35491   1.991   0.516  10.503 -0.5138 -0.7690  0.5323
  258MOL0     C35492   2.014   0.523  10.644  0.2984 -0.1522  0.2040
  258MOL0     C35493   1.929   0.580  10.738  1.2597 -1.1313 -0.1065
  258MOL0     C35494   1.952   0.553  10.880 -0.5690  0.2607 -0.2856
  258MOL0     C35495   1.805   0.635  10.684  0.4856 -1.2355 -0.7174
  258MOL0     C35496   1.702   0.701  10.783 -0.7171 -0.2400 -0.2870
  258MOL0     O35497   1.575   0.745  10.731  0.0177  0.6113  0.3642
  258MOL0     C35498   1.499   0.822  10.820 -0.6366  0.9099 -0.1235
  258MOL0     C35499   1.444   0.772  10.941 -0.7388  0.4406  0.9535
  258MOL0     C35500   1.380   0.851  11.028 -0.4599 -0.7956  0.5241
  258MOL0     C35501   1.376   0.990  11.015 -0.1864 -0.2869 -0.5672
  258MOL0     O35502   1.311   1.065  11.112  0.1165  0.3652 -0.8019
  258MOL0     C35503   1.340   1.206  11.130 -0.1313 -0.3309  0.4148
  258MOL0     C35504   1.266   1.276  11.249  0.2385 -0.2363  1.0243
  258MOL0     C35505   1.344   1.254  11.375  0.6119 -0.5264  0.4282
  258MOL0     C35506   1.310   1.339  11.486 -0.3418  0.2872  0.3233
  258MOL0     C35507   1.378   1.315  11.621 -0.6404  0.0575  0.1209
  258MOL0     C35508   1.315   1.401  11.722  0.7376 -0.2329  0.4983
  258MOL0     C35509   1.183   1.369  11.778 -0.2012 -0.7200  0.5029
  258MOL0     C35510   1.085   1.488  11.786 -0.1807 -0.2370  0.1275
  258MOL0    Cl35511   1.035   1.525  11.612 -0.7906  0.0947  0.0937
  258MOL0     C35512   1.440   1.043  10.908  1.5332  0.2252  1.0324
  258MOL0     C35513   1.492   0.959  10.806  0.6640 -0.0012  0.1970
  258MOL0     O35514   1.746   0.727  10.893 -0.6316 -0.8855  0.4805
  258MOL0     C35515   1.781   0.636  10.542 -0.2227  0.6691 -0.1389
  258MOL0     C35516   1.873   0.576  10.453 -0.4116  0.0513 -0.3024
  258MOL0     N35517   2.469   0.431  10.005 -0.0658 -1.1411  0.4330
  258MOL0     N35518   2.595   0.412  10.011  0.3429 -0.1109 -0.7537
  258MOL0     C35519   2.847   0.781   9.191 -0.4589 -0.3170  0.2997
  258MOL0     C35520   2.929   0.866   9.112  0.0361 -0.2761 -0.6754
  258MOL0     C35521   3.135   0.985   8.721 -0.8199 -0.4037 -0.0959
  258MOL0     C35522   3.080   1.034   8.604  0.8455  0.1668  0.7132
  258MOL0     C35523   3.131   1.140   8.531  0.1481 -0.3405 -0.7166
  258MOL0     C35524   3.246   1.203   8.577  0.8290  0.1311 -0.2656
  258MOL0     O35525   3.283   1.317   8.507 -0.7935  0.9069 -0.2219
  258MOL0     C35526   3.379   1.407   8.567  0.1676 -0.2119  0.5540
  258MOL0     C35527   3.401   1.526   8.472 -0.1327 -0.6584  0.8591
  258MOL0     C35528   3.519   1.606   8.532 -1.3839  0.1859  0.1370
  258MOL0     C35529   3.543   1.733   8.446  0.2137  0.0007  0.5037
  258MOL0     C35530   3.652   1.808   8.507 -0.8064  0.2596  1.1742
  258MOL0     C35531   3.756   1.860   8.548  0.0551 -0.1084  0.1341
  258MOL0     C35532   3.310   1.148   8.684  0.3007 -0.1520 -1.2163
  258MOL0     C35533   3.264   1.038   8.759 -0.1233  0.3364 -0.2336
  258MOL0     C35534   3.340   0.986   8.868 -0.1176 -0.0898 -0.1009
  258MOL0     H35535   3.095   0.622   8.946  2.1451  0.9318  2.3534
  258MOL0     H35536   2.940   0.483   9.075 -0.2732  0.3799 -1.1161
  258MOL0     H35537   2.667   0.515   9.414 -1.1909  1.1119 -1.6744
  258MOL0     H35538   2.733   0.686   9.408 -1.5818 -0.6746 -0.9630
  258MOL0     H35539   2.860   0.410   9.447 -2.8775  0.4559 -1.8342
  258MOL0     H35540   2.968   0.552   9.470 -0.6180  0.3333 -0.9572
  258MOL0     H35541   2.783   0.631   9.659 -3.9323 -1.5290  4.9165
  258MOL0     H35542   2.735   0.465   9.645  0.0782 -0.0022 -0.9933
  258MOL0     H35543   2.952   0.389   9.690  0.0991  0.6113 -0.7327
  258MOL0     H35544   3.032   0.547   9.689  0.3408  1.2932 -1.7916
  258MOL0     H35545   3.026   0.480   9.923 -0.8374 -2.9102  2.3349
  258MOL0     H35546   2.878   0.403   9.902  1.0781 -0.9019 -2.3295
  258MOL0     H35547   2.908   0.714   9.886  0.9371 -1.2515  0.3939
  258MOL0     H35548   2.752   0.619   9.885 -0.2485 -1.3706 -1.1096
  258MOL0     H35549   2.801   0.730  10.105 -2.6057 -1.9681  3.2534
  258MOL0     H35550   2.955   0.655  10.120 -0.4518  2.6899 -0.6217
  258MOL0     H35551   2.840   0.432  10.111 -1.4860  0.8678 -4.5536
  258MOL0     H35552   2.791   0.538  10.250 -1.9958 -1.3941  0.2604
  258MOL0     H35553   2.551   0.682  10.206 -0.5199  0.9874 -0.2350
  258MOL0     H35554   2.230   0.575   9.989 -3.6650  0.7942  2.3301
  258MOL0     H35555   2.300   0.716  10.081  2.6003 -0.7663  2.2151
  258MOL0     H35556   2.110   0.613  10.178  2.1574  3.1758 -1.2771
  258MOL0     H35557   2.194   0.452  10.182 -2.1250  0.1846  1.3809
  258MOL0     H35558   2.363   0.606  10.342 -0.1698  3.1204  2.4299
  258MOL0     H35559   2.225   0.688  10.375  2.8548  0.7441 -0.1710
  258MOL0     H35560   2.254   0.391  10.376  3.2044  1.1149  1.8998
  258MOL0     H35561   2.250   0.471  10.521 -1.0057 -3.0511  0.6358
  258MOL0     H35562   2.103   0.466  10.669 -1.1201 -2.5267  0.1702
  258MOL0     H35563   1.962   0.646  10.938  1.5259  1.4221 -2.3613
  258MOL0     H35564   2.033   0.480  10.893 -0.7980 -0.1490 -1.0821
  258MOL0     H35565   1.866   0.505  10.928 -0.8013  2.2529  1.4254
  258MOL0     H35566   1.453   0.666  10.959 -3.7193  0.1579  1.3200
  258MOL0     H35567   1.340   0.808  11.119  0.6589  0.0852  1.4690
  258MOL0     H35568   1.448   1.221  11.133 -0.1633  0.9299 -2.0555
  258MOL0     H35569   1.315   1.270  11.045  1.1058  3.5322  2.7102
  258MOL0     H35570   1.241   1.380  11.226 -0.4458 -0.8558 -1.3056
  258MOL0     H35571   1.162   1.246  11.263 -0.6177  0.9434 -1.9387
  258MOL0     H35572   1.450   1.260  11.353  0.5193 -0.6202 -0.0458
  258MOL0     H35573   1.319   1.156  11.418 -0.3836  0.4676  2.2773
  258MOL0     H35574   1.202   1.352  11.497 -0.2254  0.5759  1.1897
  258MOL0     H35575   1.341   1.438  11.451 -2.5061  0.8951 -0.0327
  258MOL0     H35576   1.356   1.213  11.655  2.4121  0.1801  3.0356
  258MOL0     H35577   1.484   1.343  11.621 -0.9935  1.4440  0.1057
  258MOL0     H35578   1.310   1.503  11.684  1.6909 -0.4694 -0.2964
  258MOL0     H35579   1.387   1.400  11.804  1.6562 -1.1325 -0.2990
  258MOL0     H35580   1.206   1.345  11.882  0.4060  0.5665  0.6941
  258MOL0     H35581   1.138   1.281  11.731  1.7516 -1.1855 -0.6670
  258MOL0     H35582   1.135   1.577  11.824 -0.5886 -0.2725  0.7555
  258MOL0     H35583   1.002   1.463  11.852  1.0262 -0.8256  1.4654
  258MOL0     H35584   1.441   1.151  10.900 -1.4849  0.4711  2.6385
  258MOL0     H35585   1.521   1.012  10.716 -0.2662  1.3173  0.6422
  258MOL0     H35586   1.687   0.683  10.514  0.5251  1.7696 -0.8960
  258MOL0     H35587   1.846   0.571  10.348  1.1372  1.8691 -0.8603
  258MOL0     H35588   2.789   0.824   9.273  0.0825  2.0632 -0.4779
  258MOL0     H35589   2.926   0.973   9.125  1.1501  0.0308 -2.6124
  258MOL0     H35590   2.998   0.970   8.572 -1.6224  1.2330  4.1957
  258MOL0     H35591   3.076   1.187   8.450  1.2157  0.9905 -0.7144
  258MOL0     H35592   3.338   1.454   8.657  0.7412  1.2463  0.0762
  258MOL0     H35593   3.474   1.354   8.579 -0.4814 -1.4731  0.3166
  258MOL0     H35594   3.312   1.586   8.448  1.4273  1.2977 -0.3476
  258MOL0     H35595   3.433   1.494   8.372  1.7904  0.9694  0.8829
  258MOL0     H35596   3.499   1.640   8.634  0.9552  2.0562  0.0541
  258MOL0     H35597   3.615   1.554   8.532 -0.7827  1.2410 -0.9293
  258MOL0     H35598   3.459   1.802   8.456 -0.5145 -0.8646  0.4751
  258MOL0     H35599   3.549   1.707   8.340 -1.1161 -1.9560  0.8581
  258MOL0     H35600   3.848   1.904   8.582  0.7428  1.3860 -3.2639
  258MOL0     H35601   3.402   1.186   8.727 -0.0942 -1.1199  0.5799
  258MOL0     H35602   3.446   1.010   8.862  0.6459 -2.3303  2.2160
  258MOL0     H35603   3.309   1.035   8.961  0.1887  1.4922 -0.8012
  258MOL0     H35604   3.339   0.878   8.886 -0.4234  0.2998  2.7325
  259MOL0     O35605   4.007   7.085   1.444 -0.5598 -0.1858  0.1454
  259MOL0     C35606   4.046   7.132   1.334  0.7614  0.4539 -0.7038
  259MOL0     O35607   4.153   7.089   1.269 -0.7589 -1.0327  0.2321
  259MOL0     C35608   4.225   6.989   1.329  0.0046 -0.5505 -0.2814
  259MOL0     C35609   4.183   6.863   1.300  1.2089 -0.1381  0.0952
  259MOL0     C35610   4.258   6.758   1.360 -0.2336  0.2997  1.2624
  259MOL0     C35611   4.374   6.776   1.432 -0.1496  0.0507 -0.3941
  259MOL0     O35612   4.453   6.678   1.494  0.4827  0.3036 -0.5912
  259MOL0     C35613   4.452   6.556   1.420  0.1548 -0.6000 -0.2699
  259MOL0     C35614   4.592   6.494   1.414 -0.4843  0.8970 -0.4838
  259MOL0     C35615   4.623   6.412   1.287  0.4506  0.2703  0.6944
  259MOL0     C35616   4.729   6.314   1.322 -0.1267 -0.4725  0.0479
  259MOL0     C35617   4.832   6.291   1.216  0.0088 -0.4924  1.1219
  259MOL0     C35618   4.926   6.176   1.251  0.2124 -0.7726  0.2963
  259MOL0     C35619   4.922   6.068   1.139 -0.5393  0.1902  0.0104
  259MOL0     C35620   5.011   6.120   1.025 -0.7839  0.5323  0.6470
  259MOL0     N35621   5.024   6.026   0.912  0.3286 -0.0862 -0.6892
  259MOL0     C35622   5.124   5.935   0.886 -0.3941 -0.1279 -0.3562
  259MOL0     C35623   5.083   5.877   0.768  0.4696 -0.5248 -0.7792
  259MOL0     C35624   5.162   5.783   0.688 -0.0643 -0.1716 -0.1168
  259MOL0     C35625   5.065   5.680   0.618 -0.4260 -0.4006 -0.1453
  259MOL0     C35626   5.120   5.544   0.568 -0.0297 -1.3908  0.3438
  259MOL0     C35627   5.220   5.546   0.453 -0.9599 -0.7701 -0.7932
  259MOL0     O35628   5.169   5.621   0.343  0.3077 -0.0071  0.3309
  259MOL0     C35629   5.251   5.627   0.229  0.0105  0.4798 -0.7024
  259MOL0     C35630   5.187   5.669   0.116 -0.5918 -0.8372 -0.6235
  259MOL0     C35631   5.238   5.652  -0.016 -0.4644 -0.1458 -0.6014
  259MOL0     C35632   5.144   5.692  -0.122 -0.2985 -0.3778 -0.2538
  259MOL0     C35633   5.373   5.621  -0.038 -0.2192  0.1701  0.2020
  259MOL0     C35634   5.451   5.605  -0.170  0.6299  0.4643  0.4215
  259MOL0     O35635   5.575   5.542  -0.168 -0.3200  0.1939  0.5086
  259MOL0     C35636   5.679   5.589  -0.249  0.5920  0.9134  0.5853
  259MOL0     C35637   5.790   5.661  -0.213  0.0257 -0.0986 -0.3377
  259MOL0     C35638   5.889   5.685  -0.305 -0.1184  0.2252 -0.4891
  259MOL0     C35639   5.889   5.638  -0.438  0.6045  0.8567  0.3868
  259MOL0     O35640   5.994   5.681  -0.519 -0.8638  0.5236  0.5933
  259MOL0     C35641   5.967   5.687  -0.665  0.4896 -0.4728  1.0699
  259MOL0     C35642   6.088   5.745  -0.739  0.4612  0.4272  0.2559
  259MOL0     C35643   6.200   5.627  -0.744  0.2421 -0.2474  1.4421
  259MOL0     C35644   6.324   5.689  -0.826  0.6957 -0.2903  0.4671
  259MOL0     C35645   6.300   5.662  -0.973  0.2258  1.0432  0.0573
  259MOL0     C35646   6.427   5.665  -1.060 -0.3545  0.0602  0.2929
  259MOL0     C35647   6.484   5.805  -1.063 -0.0589 -0.2703 -0.1781
  259MOL0     C35648   6.603   5.801  -1.154  0.5720 -0.1795  0.2736
  259MOL0    Cl35649   6.645   5.970  -1.209 -0.0323  0.3595  0.0763
  259MOL0     C35650   5.776   5.564  -0.469 -0.0778  0.2917 -0.2697
  259MOL0     C35651   5.674   5.543  -0.381 -0.1741  0.2880 -0.4928
  259MOL0     O35652   5.406   5.644  -0.276  0.6156 -0.9206  0.8455
  259MOL0     C35653   5.439   5.585   0.081  0.0404 -0.2003 -0.2233
  259MOL0     C35654   5.381   5.593   0.213 -0.5608 -0.4563  0.5741
  259MOL0     N35655   4.969   5.934   0.728 -0.0226  1.1081 -0.6967
  259MOL0     N35656   4.933   6.007   0.822  0.1415 -0.4621 -0.0029
  259MOL0     C35657   4.414   6.907   1.455 -1.5855 -0.8569 -0.0065
  259MOL0     C35658   4.336   7.014   1.405 -0.5035  0.1726 -0.0152
  259MOL0     C35659   3.962   7.245   1.280  0.1767 -0.0292  0.9569
  259MOL0     C35660   3.843   7.281   1.350 -0.5064  0.8453  0.1222
  259MOL0     C35661   3.768   7.385   1.302 -0.1520  0.0260  0.3032
  259MOL0     C35662   3.799   7.459   1.186  0.2992  0.8180 -0.5363
  259MOL0     O35663   3.719   7.563   1.148  0.6935 -0.0452 -0.4677
  259MOL0     C35664   3.710   7.596   1.011  0.4303 -0.6566  0.3688
  259MOL0     C35665   3.591   7.706   0.994 -0.0173  0.2847  0.4599
  259MOL0     C35666   3.616   7.842   1.042  0.2798 -0.0441  0.0144
  259MOL0     C35667   3.740   7.911   0.977  1.1073  0.7946 -0.1339
  259MOL0     C35668   3.724   7.926   0.830 -0.4587  0.4129 -0.4712
  259MOL0     C35669   3.698   7.952   0.710 -0.1487 -0.0151  0.2353
  259MOL0     C35670   3.915   7.417   1.122  0.1255 -0.3411 -0.1821
  259MOL0     C35671   3.997   7.312   1.159  1.0034 -0.3779  0.8533
  259MOL0     C35672   4.118   7.289   1.069 -0.5301  1.2238  0.0619
  259MOL0     H35673   4.099   6.840   1.235 -0.6659 -3.5682  3.3003
  259MOL0     H35674   4.217   6.658   1.346  2.2421 -0.8206  1.5900
  259MOL0     H35675   4.421   6.575   1.317 -1.3923  0.4806  0.3635
  259MOL0     H35676   4.389   6.488   1.477  1.9721 -1.1001  1.2459
  259MOL0     H35677   4.676   6.564   1.409  2.8019 -2.6333  0.4320
  259MOL0     H35678   4.597   6.425   1.498 -0.8795 -2.4063 -2.9644
  259MOL0     H35679   4.538   6.364   1.238  0.1690  0.9166  0.5308
  259MOL0     H35680   4.665   6.483   1.215  0.6156  2.2374  2.6230
  259MOL0     H35681   4.777   6.326   1.419 -0.5174 -3.0522  0.6163
  259MOL0     H35682   4.686   6.214   1.332  1.7011 -1.3377 -0.3907
  259MOL0     H35683   4.886   6.386   1.219 -2.3189  0.8764  1.1579
  259MOL0     H35684   4.785   6.282   1.118  3.4062  2.1597 -0.9986
  259MOL0     H35685   5.030   6.209   1.260 -0.1811  0.0048  2.6888
  259MOL0     H35686   4.899   6.117   1.339 -1.2423 -4.2604 -2.2668
  259MOL0     H35687   4.824   6.031   1.109 -0.8951  0.7600  0.4623
  259MOL0     H35688   4.972   5.978   1.176 -2.2510 -2.8021 -4.1457
  259MOL0     H35689   4.969   6.215   0.989  0.5368  1.5257  1.6253
  259MOL0     H35690   5.110   6.158   1.053  0.4076 -0.2126 -2.1778
  259MOL0     H35691   5.220   5.914   0.932  0.8314 -2.1287 -3.4269
  259MOL0     H35692   5.216   5.727   0.764 -2.3326  0.4140  2.0529
  259MOL0     H35693   5.231   5.840   0.625  2.3761 -0.0047  2.5135
  259MOL0     H35694   4.999   5.645   0.698  0.7630 -0.0792  1.0153
  259MOL0     H35695   5.005   5.740   0.549 -0.6950  1.9360  1.9640
  259MOL0     H35696   5.177   5.492   0.645  1.5474  0.4456  0.5072
  259MOL0     H35697   5.033   5.483   0.542  0.3194 -2.8180  2.3041
  259MOL0     H35698   5.314   5.595   0.482 -0.4676 -0.2414 -3.0483
  259MOL0     H35699   5.246   5.447   0.414  1.1347 -0.3773 -0.5181
  259MOL0     H35700   5.085   5.701   0.130  0.1798  2.1655 -1.2697
  259MOL0     H35701   5.182   5.754  -0.203  0.9440 -3.3336 -2.1359
  259MOL0     H35702   5.055   5.740  -0.080 -1.4577 -2.1595 -0.5320
  259MOL0     H35703   5.105   5.608  -0.182 -2.8160  2.2473 -2.5892
  259MOL0     H35704   5.806   5.686  -0.108  0.3461  1.9853 -0.8342
  259MOL0     H35705   5.974   5.744  -0.274  2.3172 -3.8043  1.3475
  259MOL0     H35706   5.949   5.588  -0.709 -1.1771 -0.4989  1.7170
  259MOL0     H35707   5.883   5.755  -0.679  3.0633  2.4431 -1.5999
  259MOL0     H35708   6.056   5.768  -0.842  1.1669  0.9742  0.1515
  259MOL0     H35709   6.120   5.831  -0.679  1.5663  0.2304 -0.0332
  259MOL0     H35710   6.160   5.536  -0.788  1.5425 -0.9245  1.5988
  259MOL0     H35711   6.229   5.612  -0.639 -1.0936  0.1631  1.8895
  259MOL0     H35712   6.411   5.634  -0.789 -0.7966 -3.2506 -0.0473
  259MOL0     H35713   6.327   5.798  -0.816  1.1893 -0.1274 -1.1923
  259MOL0     H35714   6.271   5.556  -0.976 -1.9531  1.5833  0.0354
  259MOL0     H35715   6.214   5.722  -1.004 -1.2005 -0.3297  1.1881
  259MOL0     H35716   6.397   5.624  -1.157 -0.2453  2.7796 -0.9863
  259MOL0     H35717   6.505   5.602  -1.017  0.8107  2.9625  2.8577
  259MOL0     H35718   6.516   5.828  -0.961 -0.2093 -0.3126 -0.1193
  259MOL0     H35719   6.399   5.872  -1.081  1.8057  2.9750  2.0278
  259MOL0     H35720   6.571   5.747  -1.244  0.0884 -2.1699  1.5609
  259MOL0     H35721   6.683   5.742  -1.107 -0.9545 -0.4374  2.7298
  259MOL0     H35722   5.767   5.527  -0.570  1.6356  1.1441 -0.7741
  259MOL0     H35723   5.599   5.470  -0.407  1.2640 -2.4728  2.4312
  259MOL0     H35724   5.540   5.545   0.076  1.8465  3.7952  0.0414
  259MOL0     H35725   5.442   5.561   0.297 -1.2788  2.0820  2.1798
  259MOL0     H35726   4.505   6.915   1.514  0.3816  0.5890 -2.9880
  259MOL0     H35727   4.367   7.113   1.435  3.4511 -1.5797  2.5277
  259MOL0     H35728   3.808   7.226   1.437 -1.4778  0.6040 -0.4014
  259MOL0     H35729   3.682   7.413   1.361 -1.4471  0.2211 -1.5749
  259MOL0     H35730   3.809   7.628   0.977 -0.2669 -1.2702 -2.4976
  259MOL0     H35731   3.683   7.510   0.950  0.9931 -1.1880  0.8450
  259MOL0     H35732   3.490   7.671   1.017 -0.5929  1.0012 -0.8986
  259MOL0     H35733   3.583   7.718   0.886 -1.3021 -3.6818 -0.0612
  259MOL0     H35734   3.525   7.902   1.028  0.4218  2.0205  5.3871
  259MOL0     H35735   3.638   7.837   1.149  2.1994  1.3719 -0.2617
  259MOL0     H35736   3.834   7.860   0.999  0.8534  0.6800  0.7309
  259MOL0     H35737   3.749   8.009   1.024  1.7298  0.6699  0.0153
  259MOL0     H35738   3.670   7.987   0.613 -2.7961  1.2957  1.3817
  259MOL0     H35739   3.942   7.468   1.031  1.7940  1.4107  1.2117
  259MOL0     H35740   4.214   7.308   1.119  0.2885  0.9666 -1.3767
  259MOL0     H35741   4.105   7.188   1.031  0.5099  1.3584 -0.6965
  259MOL0     H35742   4.111   7.344   0.975  3.0502  0.2757 -0.9076
  260MOL0     O35743   7.618   8.182   2.659 -0.3388 -0.4514 -0.1523
  260MOL0     C35744   7.739   8.145   2.644  0.1975  0.8162  0.6296
  260MOL0     O35745   7.843   8.204   2.698 -0.4964  0.4604 -0.2622
  260MOL0     C35746   7.829   8.317   2.772 -0.2216  0.0629  0.0412
  260MOL0     C35747   7.790   8.309   2.907  0.0623  0.3710 -1.1995
  260MOL0     C35748   7.780   8.422   2.990  0.8733 -0.1580 -0.1932
  260MOL0     C35749   7.823   8.546   2.945 -0.2101 -0.2765  0.6164
  260MOL0     O35750   7.826   8.669   3.006  0.2408  0.1649 -0.4094
  260MOL0     C35751   7.810   8.665   3.149 -0.4224  0.3531  0.5584
  260MOL0     C35752   7.855   8.790   3.222 -0.0314  0.8579  0.0555
  260MOL0     C35753   7.991   8.840   3.164 -0.2001  0.3217  0.4641
  260MOL0     C35754   8.046   8.935   3.271  0.9417  0.1537  0.2144
  260MOL0     C35755   8.189   8.972   3.226  0.3842 -1.1707 -0.0013
  260MOL0     C35756   8.241   9.104   3.283 -0.3958 -0.0685 -0.0990
  260MOL0     C35757   8.273   9.110   3.434  0.4944 -0.7420 -0.4860
  260MOL0     C35758   8.284   9.254   3.484  0.3985  0.1092  0.1907
  260MOL0     N35759   8.149   9.310   3.510 -0.2087  1.0568 -0.0741
  260MOL0     C35760   8.048   9.235   3.575 -0.3429  0.1237  0.1648
  260MOL0     C35761   7.935   9.313   3.568  0.9887  0.3175  0.0187
  260MOL0     C35762   7.793   9.289   3.620 -0.2083  0.1708  0.0579
  260MOL0     C35763   7.692   9.221   3.527  0.5076  0.0112  0.1210
  260MOL0     C35764   7.710   9.073   3.518 -0.9990  0.3568  0.5386
  260MOL0     C35765   7.616   9.005   3.408  0.2152  0.2121  0.5201
  260MOL0     O35766   7.481   9.045   3.383  1.0390 -0.3938  1.0528
  260MOL0     C35767   7.388   9.023   3.481 -0.2220 -0.5171  0.3175
  260MOL0     C35768   7.284   9.111   3.494 -0.8665  0.1874 -0.9924
  260MOL0     C35769   7.175   9.093   3.586 -0.7291 -0.4273  0.3202
  260MOL0     C35770   7.054   9.175   3.583 -0.8600  0.4749  0.3904
  260MOL0     C35771   7.193   8.996   3.681  1.1320  0.6413 -0.3973
  260MOL0     C35772   7.098   8.979   3.787  0.5671  0.3061  0.0558
  260MOL0     O35773   7.089   9.080   3.874 -0.5220 -0.1898  0.4824
  260MOL0     C35774   7.020   9.075   3.993 -1.3807  0.3148 -0.5242
  260MOL0     C35775   6.924   9.170   4.014 -0.0536 -0.8310  0.0364
  260MOL0     C35776   6.864   9.186   4.139  0.5013 -0.5511  0.1567
  260MOL0     C35777   6.888   9.085   4.237  0.1442 -0.1438 -0.0345
  260MOL0     O35778   6.819   9.075   4.360  0.1136 -0.7132 -0.8752
  260MOL0     C35779   6.742   9.195   4.395  0.3788 -0.3471 -0.1521
  260MOL0     C35780   6.704   9.191   4.547  0.4137  0.5095  0.1112
  260MOL0     C35781   6.814   9.161   4.644  0.6855  0.1950  0.0862
  260MOL0     C35782   6.762   9.167   4.784 -0.2548  0.2159  0.3540
  260MOL0     C35783   6.875   9.142   4.879 -0.0650  0.0754  0.7006
  260MOL0     C35784   6.957   9.260   4.920  0.1621  0.7264  0.4831
  260MOL0     C35785   7.026   9.239   5.052  0.6826  0.2960 -0.3228
  260MOL0     C35786   6.922   9.258   5.164  0.8329  0.5138  0.1532
  260MOL0    Cl35787   7.015   9.236   5.307  0.3358  0.2611 -0.2367
  260MOL0     C35788   6.979   8.983   4.205  0.0575 -0.1158 -0.2007
  260MOL0     C35789   7.052   8.987   4.094 -0.3430  0.3070  0.2861
  260MOL0     O35790   7.042   8.873   3.804  0.7321  0.8851 -0.2419
  260MOL0     C35791   7.302   8.909   3.677  0.6829  0.2629  0.1810
  260MOL0     C35792   7.397   8.917   3.572 -0.2043 -0.3647  0.5587
  260MOL0     N35793   7.975   9.428   3.509 -0.1249 -0.8313 -0.0560
  260MOL0     N35794   8.096   9.424   3.467 -0.9587 -0.6043  0.2552
  260MOL0     C35795   7.850   8.550   2.807 -0.3624  0.2953 -0.0039
  260MOL0     C35796   7.857   8.441   2.724 -0.7274  0.5606  0.5664
  260MOL0     C35797   7.757   8.027   2.555  0.5293  0.2164  0.3274
  260MOL0     C35798   7.644   7.952   2.517 -0.2028  0.9074 -0.0770
  260MOL0     C35799   7.658   7.848   2.426  0.3605 -0.6577 -0.5670
  260MOL0     C35800   7.775   7.804   2.379  0.5020  0.5178  0.1856
  260MOL0     O35801   7.772   7.693   2.295  0.6027  0.2361 -0.1531
  260MOL0     C35802   7.893   7.622   2.261 -0.5388 -0.3222  0.5923
  260MOL0     C35803   7.959   7.695   2.137 -1.0264  0.5626 -0.3596
  260MOL0     C35804   8.113   7.656   2.112  0.5832  0.2888 -0.1322
  260MOL0     C35805   8.205   7.720   2.208  0.9625  0.6194 -0.5366
  260MOL0     C35806   8.208   7.863   2.212  0.4475  0.5884  0.3772
  260MOL0     C35807   8.231   7.977   2.208  0.6568 -1.5357 -0.2253
  260MOL0     C35808   7.890   7.885   2.406  0.5922  0.1644 -1.1100
  260MOL0     C35809   7.879   7.995   2.489 -0.0934 -0.3400 -0.7007
  260MOL0     C35810   8.012   8.075   2.502 -0.9410  0.3510 -0.0799
  260MOL0     H35811   7.768   8.212   2.949  0.3459  0.9303  0.2737
  260MOL0     H35812   7.747   8.408   3.092  0.6072  2.0033  0.0646
  260MOL0     H35813   7.874   8.591   3.198  1.4238  1.7632  0.3882
  260MOL0     H35814   7.708   8.631   3.168 -0.7368  1.3893  0.7694
  260MOL0     H35815   7.788   8.875   3.203 -0.4630  0.1581 -1.7698
  260MOL0     H35816   7.858   8.755   3.326 -1.2585 -0.1277 -0.2125
  260MOL0     H35817   8.066   8.762   3.151  0.5302  0.9535  0.7782
  260MOL0     H35818   7.980   8.886   3.065 -1.1859 -0.8103  0.0341
  260MOL0     H35819   7.968   9.011   3.277 -0.5061 -1.1756 -0.6901
  260MOL0     H35820   8.063   8.886   3.367  1.0493  0.3150  0.2764
  260MOL0     H35821   8.174   8.999   3.121 -0.6837  1.6209  0.7608
  260MOL0     H35822   8.255   8.887   3.239  2.9287  0.5207 -1.1207
  260MOL0     H35823   8.334   9.119   3.228 -2.2404 -0.9204 -3.8120
  260MOL0     H35824   8.167   9.183   3.267  1.1335  1.3223 -0.5768
  260MOL0     H35825   8.370   9.059   3.441  2.7314  3.1097 -0.7896
  260MOL0     H35826   8.209   9.041   3.491  1.8149 -1.3491  0.3257
  260MOL0     H35827   8.331   9.254   3.583 -1.8913 -0.3391  1.3390
  260MOL0     H35828   8.335   9.316   3.410 -0.0177 -2.5132 -2.4898
  260MOL0     H35829   8.061   9.146   3.635  2.2449  0.0597 -0.4050
  260MOL0     H35830   7.756   9.391   3.630 -3.2932 -0.7699 -0.6133
  260MOL0     H35831   7.800   9.225   3.708 -2.4265 -1.0987 -0.6044
  260MOL0     H35832   7.600   9.244   3.581  1.0368  0.8604  0.6748
  260MOL0     H35833   7.695   9.271   3.431  0.2550  0.1606  0.1929
  260MOL0     H35834   7.814   9.058   3.490 -0.7952  0.4195  1.2445
  260MOL0     H35835   7.707   9.030   3.619 -0.2823 -2.1565 -0.4404
  260MOL0     H35836   7.678   9.023   3.319  0.5634 -2.0399  0.2671
  260MOL0     H35837   7.628   8.897   3.414  1.6244  0.1971 -1.4933
  260MOL0     H35838   7.300   9.197   3.430  2.5283  1.0335  0.7561
  260MOL0     H35839   7.033   9.222   3.679 -1.3090 -2.2443  1.7125
  260MOL0     H35840   6.966   9.115   3.557 -2.1672  1.4930  2.2316
  260MOL0     H35841   7.076   9.246   3.502  1.5228  2.1106  2.3036
  260MOL0     H35842   6.910   9.237   3.930 -0.1468 -2.3053 -1.1575
  260MOL0     H35843   6.813   9.280   4.157  1.2467 -0.2398  0.7134
  260MOL0     H35844   6.786   9.293   4.376 -0.4704 -0.2901 -2.0575
  260MOL0     H35845   6.643   9.200   4.349  0.8938  4.0735 -1.1712
  260MOL0     H35846   6.654   9.282   4.580 -0.7123  0.0339 -0.2199
  260MOL0     H35847   6.623   9.118   4.554 -0.8534  1.4330 -2.9339
  260MOL0     H35848   6.898   9.229   4.625  1.3485 -1.3978 -3.4982
  260MOL0     H35849   6.854   9.061   4.624 -1.2577 -0.5642 -0.2370
  260MOL0     H35850   6.700   9.079   4.804 -2.0958  1.2779 -0.3590
  260MOL0     H35851   6.706   9.259   4.802  0.4219  0.8711 -0.7871
  260MOL0     H35852   6.820   9.102   4.965 -0.4541 -0.7870  0.0533
  260MOL0     H35853   6.947   9.066   4.847  1.4779  1.3807  0.8935
  260MOL0     H35854   6.902   9.354   4.915 -0.3657  0.3706 -0.8512
  260MOL0     H35855   7.030   9.281   4.841 -2.0792  1.7349 -1.4439
  260MOL0     H35856   7.100   9.316   5.073  0.6047  0.0910  0.7457
  260MOL0     H35857   7.070   9.139   5.059  1.7802  0.6964 -1.1073
  260MOL0     H35858   6.840   9.186   5.173  0.0991  1.0519 -1.6895
  260MOL0     H35859   6.868   9.351   5.148  1.8625  0.8733 -1.6206
  260MOL0     H35860   6.985   8.908   4.283 -3.1965  2.2845  2.6304
  260MOL0     H35861   7.145   8.932   4.082 -0.1941  0.8466 -1.2555
  260MOL0     H35862   7.293   8.819   3.737  1.4726 -1.1770 -1.7683
  260MOL0     H35863   7.480   8.847   3.567  1.1779  1.0274  2.1934
  260MOL0     H35864   7.885   8.643   2.763 -2.8092  1.2715 -0.0100
  260MOL0     H35865   7.890   8.443   2.621 -1.2353 -1.7442  0.3047
  260MOL0     H35866   7.543   7.957   2.555 -1.8320  2.4231 -4.0873
  260MOL0     H35867   7.573   7.788   2.394  1.2833 -1.5282 -1.4901
  260MOL0     H35868   7.960   7.632   2.346 -2.7814 -2.8000  2.8565
  260MOL0     H35869   7.882   7.513   2.256  2.1668 -0.7070  1.4869
  260MOL0     H35870   7.939   7.802   2.143 -0.5251  0.7129 -1.1724
  260MOL0     H35871   7.903   7.657   2.052  0.1049 -0.3031 -0.7414
  260MOL0     H35872   8.111   7.546   2.113 -0.9916  0.2891 -0.6192
  260MOL0     H35873   8.155   7.685   2.015  2.9617  0.5043  0.9017
  260MOL0     H35874   8.309   7.686   2.200  1.1801 -0.1460  3.4539
  260MOL0     H35875   8.179   7.677   2.305  1.6690  0.5575 -0.3649
  260MOL0     H35876   8.288   8.067   2.220  0.6629 -1.1801 -2.5691
  260MOL0     H35877   7.991   7.860   2.374  1.2068 -0.9041  1.3808
  260MOL0     H35878   8.007   8.184   2.503  1.2155  0.4873  0.2650
  260MOL0     H35879   8.057   8.043   2.596 -0.8281 -0.3832 -0.3806
  260MOL0     H35880   8.084   8.050   2.424 -2.3627  2.5332 -2.2344
  261MOL0     O35881   8.715   0.042   3.178  1.2616  0.8685 -0.2896
  261MOL0     C35882   8.785  -0.063   3.161  0.5523  0.4941 -0.0572
  261MOL0     O35883   8.737  -0.171   3.088  1.0317  0.0695 -0.3095
  261MOL0     C35884   8.623  -0.149   3.012 -0.1636 -0.1806  1.3938
  261MOL0     C35885   8.617  -0.123   2.875  0.2104  0.1072  0.0695
  261MOL0     C35886   8.511  -0.091   2.805  0.8892 -0.6700 -0.3966
  261MOL0     C35887   8.386  -0.087   2.866 -0.0147 -0.3951  1.1600
  261MOL0     O35888   8.280  -0.059   2.786 -0.2764  0.4070 -0.4214
  261MOL0     C35889   8.178   0.025   2.836  0.2577 -0.4253 -0.4059
  261MOL0     C35890   8.113   0.108   2.731 -0.3840 -0.0311 -0.4891
  261MOL0     C35891   8.009   0.204   2.800 -0.1643  0.9443  0.5237
  261MOL0     C35892   7.932   0.285   2.687  0.2714  0.9492 -0.9463
  261MOL0     C35893   8.007   0.422   2.702 -0.2942 -0.3012 -0.2265
  261MOL0     C35894   7.946   0.531   2.607 -0.1780 -0.5200  1.1787
  261MOL0     C35895   8.031   0.659   2.609 -0.3009 -0.1917  0.4410
  261MOL0     C35896   7.980   0.764   2.511 -0.1235  0.0871 -0.6615
  261MOL0     N35897   8.071   0.884   2.505  0.5604  0.3763 -0.6065
  261MOL0     C35898   8.044   1.012   2.472  1.0641 -0.6359 -0.8774
  261MOL0     C35899   8.148   1.092   2.501 -0.0357  0.1078  0.2823
  261MOL0     C35900   8.169   1.231   2.491  0.1999 -1.6360  0.1559
  261MOL0     C35901   8.223   1.262   2.360 -0.5535 -0.0108 -0.1161
  261MOL0     C35902   8.120   1.246   2.240 -0.2531  0.1519 -0.9054
  261MOL0     C35903   8.164   1.319   2.115 -0.3730 -0.5313  0.4529
  261MOL0     O35904   8.089   1.287   1.998 -0.5010  0.1416 -0.1968
  261MOL0     C35905   8.142   1.340   1.874  0.0819 -0.2039 -0.3458
  261MOL0     C35906   8.060   1.311   1.764 -0.5617  0.3288  0.2705
  261MOL0     C35907   8.093   1.356   1.637  0.2261  0.3022  0.5205
  261MOL0     C35908   7.989   1.289   1.533 -0.0571  0.0330 -0.3320
  261MOL0     C35909   8.222   1.400   1.599 -0.3205  0.2359  0.6144
  261MOL0     C35910   8.278   1.437   1.458 -0.4406 -1.3899 -0.1386
  261MOL0     O35911   8.370   1.538   1.458  0.6944 -0.7695 -0.1056
  261MOL0     C35912   8.391   1.607   1.338 -0.2345  0.4839  0.1375
  261MOL0     C35913   8.291   1.693   1.296 -0.1853 -0.2992 -0.0201
  261MOL0     C35914   8.286   1.761   1.182 -0.4048  1.2072 -0.0948
  261MOL0     C35915   8.403   1.757   1.099  0.1943 -0.6408  0.3505
  261MOL0     O35916   8.427   1.819   0.973 -0.6482  0.1351  0.5925
  261MOL0     C35917   8.324   1.891   0.912  0.4698 -0.6306  0.1232
  261MOL0     C35918   8.381   1.970   0.792  0.2945  0.1622 -0.3060
  261MOL0     C35919   8.301   2.102   0.771  1.3401 -0.2484 -0.2921
  261MOL0     C35920   8.358   2.200   0.663  0.2729  0.2233 -0.7150
  261MOL0     C35921   8.382   2.139   0.526  0.2578 -0.4044 -0.6196
  261MOL0     C35922   8.495   2.208   0.448 -0.0768 -0.7721  0.1054
  261MOL0     C35923   8.463   2.344   0.389 -0.3421  0.0475 -0.1339
  261MOL0     C35924   8.572   2.401   0.298  0.2567 -0.2863 -0.0796
  261MOL0    Cl35925   8.715   2.427   0.402 -0.1435  0.0046  0.1754
  261MOL0     C35926   8.503   1.666   1.140 -0.4526  0.5654  0.0300
  261MOL0     C35927   8.504   1.596   1.257  0.4344 -0.5545 -0.2154
  261MOL0     O35928   8.236   1.382   1.364 -0.3133  0.0891  0.9741
  261MOL0     C35929   8.315   1.422   1.706 -0.2344 -0.2053  0.3161
  261MOL0     C35930   8.275   1.385   1.840  0.4185 -1.0573  0.6039
  261MOL0     N35931   8.246   1.008   2.559 -0.3200  0.4192 -0.3525
  261MOL0     N35932   8.200   0.883   2.549  0.0981 -0.9920  0.6498
  261MOL0     C35933   8.383  -0.115   3.005 -0.0752  0.2207  0.0224
  261MOL0     C35934   8.503  -0.143   3.077  0.3458  0.8457 -0.6692
  261MOL0     C35935   8.923  -0.068   3.220 -0.4060 -0.3128  0.6008
  261MOL0     C35936   8.981  -0.193   3.218 -0.6637  0.7384 -0.0942
  261MOL0     C35937   9.110  -0.208   3.285  0.3695 -0.6046  0.1541
  261MOL0     C35938   9.173  -0.097   3.352  0.8208 -0.6921  0.2657
  261MOL0     O35939   9.290  -0.100   3.415  0.0287  1.0287 -0.1416
  261MOL0     C35940   9.378  -0.219   3.402 -0.4446  0.4123 -0.3034
  261MOL0     C35941   9.459  -0.229   3.266 -1.3567 -0.5422  0.0929
  261MOL0     C35942   9.559  -0.115   3.246 -0.1819  0.1092 -0.1324
  261MOL0     C35943   9.527   0.030   3.293 -0.4286 -0.9423 -0.0889
  261MOL0     C35944   9.640   0.120   3.254 -0.8537  0.1778 -1.0307
  261MOL0     C35945   9.728   0.189   3.222  0.3441  0.5383  0.9637
  261MOL0     C35946   9.115   0.031   3.347  0.1774 -0.5015 -0.0662
  261MOL0     C35947   8.994   0.044   3.282  0.0529  0.3153  0.5177
  261MOL0     C35948   8.929   0.184   3.276  0.8515  0.1754 -0.5145
  261MOL0     H35949   8.710  -0.121   2.820  1.9283 -1.1926  2.7085
  261MOL0     H35950   8.505  -0.071   2.699 -2.5912 -2.5611 -0.6886
  261MOL0     H35951   8.222   0.101   2.901 -1.1108  0.4327 -0.4416
  261MOL0     H35952   8.112  -0.043   2.891  2.7858 -1.6834  1.2784
  261MOL0     H35953   8.190   0.177   2.694 -0.0749  2.0039  3.3737
  261MOL0     H35954   8.070   0.058   2.645 -0.5961  0.6193 -0.7702
  261MOL0     H35955   7.921   0.156   2.843 -2.5226  2.4485 -2.3619
  261MOL0     H35956   8.060   0.261   2.879  2.0488  0.7962 -0.7149
  261MOL0     H35957   7.962   0.246   2.589  1.0956  0.1395 -0.3910
  261MOL0     H35958   7.825   0.289   2.710  0.4507 -0.7551  0.3519
  261MOL0     H35959   8.115   0.410   2.689  0.0039  0.4275  1.3287
  261MOL0     H35960   7.998   0.454   2.806 -0.0969  1.0921 -0.6251
  261MOL0     H35961   7.942   0.485   2.508 -5.3153  1.6762 -0.0115
  261MOL0     H35962   7.844   0.560   2.637 -0.0838 -0.4105  1.3918
  261MOL0     H35963   8.132   0.633   2.575 -0.7749 -0.2845 -0.9765
  261MOL0     H35964   8.057   0.693   2.709 -0.7179 -0.8099  0.7637
  261MOL0     H35965   7.981   0.716   2.413  2.3452 -1.5995  0.0629
  261MOL0     H35966   7.879   0.797   2.534  0.1583  1.0343 -0.7442
  261MOL0     H35967   7.942   1.029   2.439  0.0223 -0.1340  2.2425
  261MOL0     H35968   8.247   1.266   2.560  0.5458 -0.1652 -0.9296
  261MOL0     H35969   8.081   1.295   2.498  0.9109 -0.3141 -2.1138
  261MOL0     H35970   8.261   1.364   2.369  1.8216 -0.7546 -1.0058
  261MOL0     H35971   8.318   1.211   2.342 -0.0727  0.0691  2.0270
  261MOL0     H35972   8.109   1.139   2.223 -0.3280 -0.1753  1.0563
  261MOL0     H35973   8.020   1.281   2.268 -0.8238 -2.1588  0.1844
  261MOL0     H35974   8.159   1.428   2.121  0.5296 -0.5091  1.1206
  261MOL0     H35975   8.268   1.288   2.104 -0.2839 -0.7986  1.7719
  261MOL0     H35976   7.964   1.265   1.784  0.3007 -0.1727  3.8264
  261MOL0     H35977   7.997   1.358   1.449 -4.1812  0.6283 -0.4185
  261MOL0     H35978   7.892   1.288   1.583  0.6075  0.2590  1.0118
  261MOL0     H35979   8.024   1.188   1.509  1.5785  0.9381 -2.0120
  261MOL0     H35980   8.206   1.704   1.362 -1.5047 -0.7377 -1.5615
  261MOL0     H35981   8.207   1.829   1.153 -0.6593  1.4247  1.0651
  261MOL0     H35982   8.241   1.834   0.869 -0.5564 -2.6416  4.2679
  261MOL0     H35983   8.283   1.973   0.972 -0.7902  2.3915 -4.3748
  261MOL0     H35984   8.487   1.994   0.797  0.4603 -0.0911 -1.8554
  261MOL0     H35985   8.366   1.899   0.710 -0.2413 -0.5231  0.3639
  261MOL0     H35986   8.294   2.159   0.864 -3.4589 -1.6309  0.4380
  261MOL0     H35987   8.199   2.077   0.741  0.7685  0.6921  0.8270
  261MOL0     H35988   8.451   2.240   0.704 -0.6543  0.6499  1.0630
  261MOL0     H35989   8.286   2.282   0.654  0.2859  0.4108  0.6989
  261MOL0     H35990   8.394   2.030   0.526  1.2406 -0.3226 -1.8237
  261MOL0     H35991   8.286   2.160   0.479 -2.0054 -1.9813  2.9075
  261MOL0     H35992   8.526   2.137   0.370  1.3230  0.4233 -0.4735
  261MOL0     H35993   8.581   2.207   0.516  0.9305 -0.1564 -1.1016
  261MOL0     H35994   8.432   2.419   0.463 -0.4491 -1.1515  1.0774
  261MOL0     H35995   8.389   2.336   0.310  2.7552  2.3596 -3.6206
  261MOL0     H35996   8.534   2.492   0.252  1.2895  0.5973  0.7742
  261MOL0     H35997   8.609   2.337   0.217  3.2834  0.9241  0.2565
  261MOL0     H35998   8.594   1.649   1.083 -1.2166 -0.5089 -0.8941
  261MOL0     H35999   8.582   1.525   1.279 -0.4642 -1.0628  1.5395
  261MOL0     H36000   8.414   1.465   1.713  0.7800 -2.6811  3.4560
  261MOL0     H36001   8.337   1.402   1.927  0.1166  0.5117  0.5489
  261MOL0     H36002   8.287  -0.127   3.054  0.0783  0.7751  0.4671
  261MOL0     H36003   8.506  -0.181   3.179  1.0172 -2.8872 -1.9182
  261MOL0     H36004   8.934  -0.273   3.163 -1.1417  1.5530 -0.9000
  261MOL0     H36005   9.147  -0.310   3.277 -2.3799 -1.5478 -2.5891
  261MOL0     H36006   9.439  -0.227   3.492 -1.6191  3.4861  0.9050
  261MOL0     H36007   9.314  -0.307   3.412 -1.0871  0.9928  0.8685
  261MOL0     H36008   9.380  -0.231   3.189 -1.6211 -2.8916  0.3602
  261MOL0     H36009   9.523  -0.317   3.260  1.5644  1.4536  0.0174
  261MOL0     H36010   9.650  -0.145   3.298  0.4066  1.8235 -0.1084
  261MOL0     H36011   9.581  -0.111   3.139 -1.2127 -1.2617 -0.4263
  261MOL0     H36012   9.501   0.031   3.399  0.0310 -1.4014  0.0313
  261MOL0     H36013   9.439   0.073   3.245  0.9423  1.0965 -0.9168
  261MOL0     H36014   9.796   0.257   3.174 -1.5999  1.6404 -0.3635
  261MOL0     H36015   9.162   0.116   3.394  1.0102 -1.4753  0.8931
  261MOL0     H36016   8.834   0.196   3.328  1.6405  6.4729  0.2904
  261MOL0     H36017   8.995   0.253   3.330  3.1050 -0.6372 -2.0399
  261MOL0     H36018   8.908   0.205   3.170 -1.0149  1.1468  0.0038
  262MOL0     O36019   9.014   6.248  10.309  0.0738 -0.1141 -0.3539
  262MOL0     C36020   9.108   6.194  10.364 -0.0045 -0.8571  0.1896
  262MOL0     O36021   9.102   6.073  10.431  0.1055 -0.5566  0.5555
  262MOL0     C36022   8.989   6.012  10.483 -0.8543 -0.0123 -0.5255
  262MOL0     C36023   8.871   6.078  10.508  0.4800 -0.5480 -0.4254
  262MOL0     C36024   8.764   6.018  10.580 -0.7715  0.0098 -0.2788
  262MOL0     C36025   8.784   5.892  10.637 -0.1342  0.0866  0.3896
  262MOL0     O36026   8.684   5.810  10.687 -0.3988 -0.1654  0.3048
  262MOL0     C36027   8.595   5.884  10.769 -0.2702 -0.4033  0.3611
  262MOL0     C36028   8.467   5.931  10.706  1.2908 -0.1772  1.1834
  262MOL0     C36029   8.354   5.819  10.710  0.0742 -0.3752 -0.5592
  262MOL0     C36030   8.380   5.683  10.645  0.6605 -0.8276  0.5058
  262MOL0     C36031   8.348   5.672  10.495  0.2002 -0.1907 -0.9868
  262MOL0     C36032   8.460   5.743  10.412 -0.6059  0.1445 -0.7769
  262MOL0     C36033   8.447   5.743  10.259 -0.2102  0.0648  0.4830
  262MOL0     C36034   8.579   5.783  10.202 -0.5902 -0.2522  0.2205
  262MOL0     N36035   8.573   5.816  10.062  0.3275 -0.2811  0.1033
  262MOL0     C36036   8.568   5.721   9.970  0.0625  0.0188  0.3718
  262MOL0     C36037   8.544   5.784   9.859  0.0616 -0.4182  0.3934
  262MOL0     C36038   8.560   5.718   9.721  0.8680 -0.2857  0.3013
  262MOL0     C36039   8.648   5.592   9.721 -0.4989  0.2438  0.1581
  262MOL0     C36040   8.663   5.533   9.579  0.3486 -0.5053  0.1711
  262MOL0     C36041   8.733   5.393   9.574  0.0306 -0.7375  1.0467
  262MOL0     O36042   8.688   5.322   9.687 -0.3384 -0.3412  0.2640
  262MOL0     C36043   8.669   5.188   9.675  0.2448 -0.0947 -0.2873
  262MOL0     C36044   8.593   5.141   9.775  0.2277  0.2239  0.0243
  262MOL0     C36045   8.565   4.996   9.788  1.2231 -1.1853 -0.0685
  262MOL0     C36046   8.485   4.945   9.902 -0.2832  0.6424 -0.3776
  262MOL0     C36047   8.599   4.909   9.682 -0.3890 -1.0899 -0.6723
  262MOL0     C36048   8.557   4.772   9.656  0.8287  0.5822 -0.2932
  262MOL0     O36049   8.426   4.743   9.693  0.0560  0.2300 -0.6432
  262MOL0     C36050   8.376   4.617   9.672  0.4271 -0.2128 -0.2606
  262MOL0     C36051   8.310   4.601   9.548 -0.0867 -0.2985  0.5999
  262MOL0     C36052   8.228   4.482   9.524  0.2270  0.0903 -0.2451
  262MOL0     C36053   8.224   4.376   9.609  0.4445 -0.2634 -1.0750
  262MOL0     O36054   8.144   4.267   9.569  0.9656  0.2089  0.0271
  262MOL0     C36055   8.122   4.157   9.659  0.2805 -0.3695 -0.5421
  262MOL0     C36056   8.036   4.047   9.590 -0.4219  0.4756 -0.1021
  262MOL0     C36057   8.114   3.963   9.490 -0.0817 -0.0484  0.9349
  262MOL0     C36058   8.200   3.844   9.556  0.1561  0.1650  0.0725
  262MOL0     C36059   8.294   3.800   9.451  1.0842  0.5864  0.0939
  262MOL0     C36060   8.387   3.690   9.503 -0.5230 -0.1064  0.9373
  262MOL0     C36061   8.517   3.674   9.411 -0.2696 -0.6086 -0.3086
  262MOL0     C36062   8.592   3.554   9.465  0.4261 -0.7699 -0.6252
  262MOL0    Cl36063   8.725   3.514   9.369 -0.0873  0.2852  0.4192
  262MOL0     C36064   8.299   4.396   9.734  0.1260 -0.7551  1.0375
  262MOL0     C36065   8.373   4.511   9.756  0.6683 -0.8875 -0.2785
  262MOL0     O36066   8.638   4.693   9.595  0.7901  0.3628  0.1175
  262MOL0     C36067   8.690   4.960   9.589 -0.2667  0.1060 -0.8818
  262MOL0     C36068   8.725   5.093   9.592 -0.5689  0.0113  0.5372
  262MOL0     N36069   8.556   5.917   9.877 -0.0447 -0.0715  0.1107
  262MOL0     N36070   8.557   5.940  10.003  0.5478  0.1268  0.9986
  262MOL0     C36071   8.906   5.827  10.616 -1.2270  0.5066 -0.2365
  262MOL0     C36072   9.007   5.886  10.535  1.2958 -0.5207 -0.5146
  262MOL0     C36073   9.237   6.261  10.349  0.1014  0.3565 -0.0858
  262MOL0     C36074   9.326   6.227  10.454  0.5675 -0.3192  0.8238
  262MOL0     C36075   9.449   6.300  10.473  0.2272 -0.4736  0.2923
  262MOL0     C36076   9.483   6.405  10.384  0.1397 -0.0994 -0.1503
  262MOL0     O36077   9.600   6.482  10.399  0.4949 -0.4931  0.4423
  262MOL0     C36078   9.709   6.429  10.470  0.4420  0.3278 -0.7367
  262MOL0     C36079   9.844   6.475  10.421 -0.9431  0.4091  0.6314
  262MOL0     C36080   9.972   6.428  10.497 -0.4247  0.5232  0.3827
  262MOL0     C36081   9.980   6.277  10.493 -1.3112  0.2635 -0.2866
  262MOL0     C36082  10.115   6.232  10.534 -0.2936  0.1611  0.7754
  262MOL0     C36083  10.219   6.180  10.547 -0.0099 -0.0697 -0.6190
  262MOL0     C36084   9.398   6.422  10.274 -0.4879 -0.1826 -0.3436
  262MOL0     C36085   9.283   6.351  10.253  0.2645  0.8195 -0.0752
  262MOL0     C36086   9.199   6.395  10.141  0.5473 -0.6208  0.0002
  262MOL0     H36087   8.859   6.182  10.480 -2.5746  0.3133  3.2065
  262MOL0     H36088   8.670   6.071  10.596  0.0535  0.4877  3.9154
  262MOL0     H36089   8.644   5.968  10.819 -0.4274 -2.3293  4.1146
  262MOL0     H36090   8.565   5.817  10.850  0.9151 -0.7235  0.5609
  262MOL0     H36091   8.426   6.005  10.776 -1.3873  0.6281 -1.0903
  262MOL0     H36092   8.475   5.967  10.603 -0.3162  0.6301  1.3084
  262MOL0     H36093   8.342   5.800  10.817  1.2913  0.0304 -0.3360
  262MOL0     H36094   8.260   5.855  10.668  0.7335  1.2929 -0.6550
  262MOL0     H36095   8.481   5.644  10.657  1.7243  1.3857 -0.5608
  262MOL0     H36096   8.320   5.609  10.699  0.8024  0.0945  1.9675
  262MOL0     H36097   8.247   5.711  10.481 -0.0581 -0.2151  0.6617
  262MOL0     H36098   8.361   5.566  10.472  4.0245 -1.0308  3.5797
  262MOL0     H36099   8.452   5.851  10.426  2.9864  1.0260 -3.9161
  262MOL0     H36100   8.559   5.720  10.452 -2.2380  0.5182  4.1410
  262MOL0     H36101   8.366   5.809  10.228  0.1700  0.2731 -0.0828
  262MOL0     H36102   8.429   5.642  10.221  3.2316 -0.2023 -0.8119
  262MOL0     H36103   8.620   5.861  10.268 -1.1097  0.4491 -0.2712
  262MOL0     H36104   8.642   5.694  10.217 -1.0481 -0.3226  2.0308
  262MOL0     H36105   8.582   5.615   9.988  2.3667  0.5388  2.2164
  262MOL0     H36106   8.615   5.789   9.659 -2.2170  1.8905 -0.1814
  262MOL0     H36107   8.467   5.707   9.664  1.1734 -0.6508 -0.1403
  262MOL0     H36108   8.742   5.619   9.771  0.5245  1.0142 -2.0085
  262MOL0     H36109   8.600   5.514   9.780  1.1639 -1.1397 -0.2123
  262MOL0     H36110   8.565   5.503   9.541 -1.1413  2.4525  1.3923
  262MOL0     H36111   8.717   5.602   9.513  0.8783 -2.7478 -1.9041
  262MOL0     H36112   8.709   5.337   9.484  1.5139  0.1585  0.0459
  262MOL0     H36113   8.842   5.407   9.572 -0.3337  3.0477 -0.9514
  262MOL0     H36114   8.562   5.214   9.850  1.8732  1.4813 -0.4614
  262MOL0     H36115   8.379   4.972   9.907 -0.3877  0.3387 -1.0149
  262MOL0     H36116   8.535   4.975   9.995 -1.9871  3.0746 -0.1493
  262MOL0     H36117   8.485   4.836   9.906 -2.6256  0.6306  1.1035
  262MOL0     H36118   8.326   4.690   9.488 -2.0061  0.5427  1.2644
  262MOL0     H36119   8.166   4.473   9.435 -3.9006 -1.2612  2.4905
  262MOL0     H36120   8.217   4.120   9.701  1.0990  0.7756 -1.3372
  262MOL0     H36121   8.069   4.200   9.745  0.9380 -0.7241  0.0585
  262MOL0     H36122   8.017   3.976   9.671  3.5268  0.7667  1.2967
  262MOL0     H36123   7.943   4.082   9.544  0.2863 -0.6864 -2.5935
  262MOL0     H36124   8.188   4.023   9.436  1.4723 -3.4554 -1.0267
  262MOL0     H36125   8.039   3.922   9.421  0.8612  1.8950 -1.4196
  262MOL0     H36126   8.131   3.761   9.576 -0.0675  0.5102  0.7520
  262MOL0     H36127   8.247   3.862   9.653 -2.8131 -3.8339  2.5930
  262MOL0     H36128   8.245   3.771   9.357  2.3059  2.4037 -1.1597
  262MOL0     H36129   8.365   3.879   9.426  3.6223 -2.5398 -3.5778
  262MOL0     H36130   8.324   3.601   9.520 -0.6357 -0.6813 -2.0507
  262MOL0     H36131   8.416   3.720   9.604  0.0343 -0.8978  1.0208
  262MOL0     H36132   8.593   3.750   9.434  1.8656 -2.0590 -2.0830
  262MOL0     H36133   8.491   3.674   9.305 -0.9032 -0.6278 -0.1541
  262MOL0     H36134   8.524   3.469   9.473 -0.5293  0.0228 -0.0745
  262MOL0     H36135   8.633   3.586   9.562  0.2496 -0.9476 -0.4936
  262MOL0     H36136   8.303   4.324   9.815 -0.8933 -0.2715  1.5404
  262MOL0     H36137   8.404   4.528   9.859 -0.6838  1.4286 -0.1911
  262MOL0     H36138   8.733   4.896   9.513 -1.2673  1.4154 -2.6364
  262MOL0     H36139   8.790   5.126   9.511 -0.8484 -1.0305 -0.1342
  262MOL0     H36140   8.924   5.728  10.655 -1.2464  1.1432  1.4940
  262MOL0     H36141   9.105   5.840  10.534  0.5922 -2.3602  2.5784
  262MOL0     H36142   9.308   6.145  10.523 -1.4874 -0.1269  0.5918
  262MOL0     H36143   9.510   6.257  10.553 -0.7529  0.5532  1.6356
  262MOL0     H36144   9.697   6.472  10.570  0.7318 -2.5532  0.6455
  262MOL0     H36145   9.694   6.321  10.478 -3.2640  0.7328 -0.8807
  262MOL0     H36146   9.859   6.582  10.440 -1.5783  0.3385  1.5716
  262MOL0     H36147   9.856   6.443  10.317  0.4981 -0.5893  1.0738
  262MOL0     H36148  10.053   6.479  10.444  0.0182  2.0881  2.4421
  262MOL0     H36149   9.972   6.467  10.600 -1.1622 -2.8764  1.8194
  262MOL0     H36150   9.954   6.235  10.396 -1.9912 -2.0902  0.8419
  262MOL0     H36151   9.911   6.230  10.563 -0.6856 -2.3141 -1.2985
  262MOL0     H36152  10.310   6.126  10.558 -0.9888 -1.5703  0.4008
  262MOL0     H36153   9.432   6.504  10.210 -1.9576  0.5361 -0.2473
  262MOL0     H36154   9.247   6.412  10.044  0.8964  2.0480  0.5599
  262MOL0     H36155   9.116   6.327  10.122 -4.1770  4.3057  0.4681
  262MOL0     H36156   9.165   6.496  10.167  0.5537 -0.9277  1.2717
  263MOL0     O36157   7.790   7.205   3.707  0.6141 -0.1579 -0.1125
  263MOL0     C36158   7.887   7.178   3.780  0.2441 -0.8953  0.4284
  263MOL0     O36159   7.936   7.256   3.883  0.3359  0.1033 -0.0537
  263MOL0     C36160   7.909   7.385   3.887 -0.1046 -0.2493  0.4966
  263MOL0     C36161   7.887   7.438   4.012 -0.3277 -0.4266 -0.4183
  263MOL0     C36162   7.867   7.580   4.016  0.4803 -0.3926 -0.0679
  263MOL0     C36163   7.855   7.664   3.908  0.3765  0.3485  0.6705
  263MOL0     O36164   7.804   7.793   3.920 -0.6382 -0.1424  0.4883
  263MOL0     C36165   7.714   7.836   3.815 -0.8157 -0.0606  0.3430
  263MOL0     C36166   7.660   7.974   3.839 -0.6496  0.2277 -0.2167
  263MOL0     C36167   7.762   8.079   3.808 -0.7471  0.9863  0.0533
  263MOL0     C36168   7.710   8.217   3.850 -0.3202 -0.8635 -0.1943
  263MOL0     C36169   7.582   8.256   3.771  1.0090 -0.4217  0.3438
  263MOL0     C36170   7.501   8.386   3.833  0.2548 -0.5526 -0.3661
  263MOL0     C36171   7.360   8.409   3.765  0.2927  0.4928  1.2350
  263MOL0     C36172   7.366   8.417   3.614  0.0182 -0.3223  0.8733
  263MOL0     N36173   7.235   8.467   3.565 -0.0771 -0.2847  0.9202
  263MOL0     C36174   7.110   8.424   3.610  1.7072  0.4060  0.6292
  263MOL0     C36175   7.028   8.516   3.542  0.0862  0.3577  0.1638
  263MOL0     C36176   6.879   8.525   3.550  0.0584 -0.1533 -0.1405
  263MOL0     C36177   6.841   8.589   3.689 -0.3930 -0.8208  0.2670
  263MOL0     C36178   6.690   8.626   3.700 -0.3866 -0.1388 -0.6585
  263MOL0     C36179   6.659   8.758   3.637  0.1972 -0.7267 -0.0119
  263MOL0     O36180   6.708   8.872   3.707 -0.6993 -0.5037 -0.0788
  263MOL0     C36181   6.678   8.997   3.652  0.0016  0.0716 -0.5569
  263MOL0     C36182   6.617   9.022   3.527  1.0242  0.4959  0.7102
  263MOL0     C36183   6.608   9.161   3.486  0.1243  0.3065  0.1826
  263MOL0     C36184   6.535   9.187   3.353 -0.7550  0.5681 -0.1700
  263MOL0     C36185   6.678   9.260   3.569  1.0094  0.5658 -0.2032
  263MOL0     C36186   6.696   9.399   3.529  0.2512 -0.8469  0.4511
  263MOL0     O36187   6.811   9.467   3.571 -0.0638  0.6330  0.1025
  263MOL0     C36188   6.788   9.601   3.558  0.0779  0.1884  0.6381
  263MOL0     C36189   6.872   9.680   3.473  0.0042  0.3988  0.1956
  263MOL0     C36190   6.865   9.820   3.468 -0.2311  0.4859  0.4710
  263MOL0     C36191   6.771   9.894   3.551  0.2323  0.2282 -0.3994
  263MOL0     O36192   6.784  10.028   3.535 -0.4882  0.6425 -0.4726
  263MOL0     C36193   6.744  10.118   3.635  0.1236 -0.3287 -0.3811
  263MOL0     C36194   6.723  10.254   3.570  0.5461  0.0655 -0.8832
  263MOL0     C36195   6.850  10.319   3.533 -0.6501  0.2178  1.0803
  263MOL0     C36196   6.816  10.449   3.461  0.8509 -0.3620  0.0302
  263MOL0     C36197   6.931  10.536   3.423 -0.1652 -0.5920  0.6641
  263MOL0     C36198   6.896  10.644   3.317  0.3574 -0.2548  0.2847
  263MOL0     C36199   6.815  10.757   3.379  0.2339  0.0169  0.2037
  263MOL0     C36200   6.867  10.835   3.508  0.3956  0.6052 -0.2663
  263MOL0    Cl36201   7.000  10.957   3.482  0.2416  0.1460  0.3932
  263MOL0     C36202   6.697   9.817   3.636  0.3992 -0.6296 -0.7006
  263MOL0     C36203   6.699   9.676   3.640  0.2019  0.0824  0.7063
  263MOL0     O36204   6.611   9.447   3.461 -0.2448 -0.0458  0.0356
  263MOL0     C36205   6.741   9.226   3.690 -0.6316  0.9034 -0.4145
  263MOL0     C36206   6.740   9.096   3.726  0.9690 -0.1245  0.3389
  263MOL0     N36207   7.099   8.609   3.461 -0.1734  0.5441  0.4931
  263MOL0     N36208   7.215   8.580   3.490  0.1121  1.1080 -0.5376
  263MOL0     C36209   7.893   7.609   3.783  0.3593 -0.0076 -0.5561
  263MOL0     C36210   7.912   7.472   3.772 -0.4999  0.4949  0.1183
  263MOL0     C36211   7.938   7.037   3.781  0.1773  0.0823 -0.4798
  263MOL0     C36212   7.842   6.940   3.737 -1.2619 -1.0804  0.3684
  263MOL0     C36213   7.888   6.816   3.710  0.6951  0.0297  0.0101
  263MOL0     C36214   8.016   6.777   3.751 -0.1596  0.5415  0.3576
  263MOL0     O36215   8.035   6.647   3.728  0.4521  0.0811  0.1397
  263MOL0     C36216   8.139   6.577   3.800  0.5265  0.7375  0.8343
  263MOL0     C36217   8.144   6.432   3.756  0.7857  0.4395 -0.1789
  263MOL0     C36218   8.255   6.340   3.826 -0.0747 -0.4052  0.1810
  263MOL0     C36219   8.312   6.242   3.725  0.0131  0.9000  1.0287
  263MOL0     C36220   8.369   6.304   3.605 -0.4835 -0.4606 -0.0874
  263MOL0     C36221   8.409   6.357   3.509  0.2726  0.1691 -0.0122
  263MOL0     C36222   8.106   6.865   3.803 -0.4116 -0.3301  0.4714
  263MOL0     C36223   8.067   7.003   3.818 -0.0124  0.4351  0.7909
  263MOL0     C36224   8.177   7.097   3.866 -0.2305 -0.1078 -0.1507
  263MOL0     H36225   7.897   7.382   4.104  1.5103 -0.6500 -0.7075
  263MOL0     H36226   7.836   7.624   4.111 -0.0714  0.3150 -0.5612
  263MOL0     H36227   7.629   7.767   3.808 -2.5023  1.7942  1.7111
  263MOL0     H36228   7.756   7.841   3.714 -0.2920 -1.2863  0.4793
  263MOL0     H36229   7.569   7.973   3.777 -2.3637 -1.9084  2.1184
  263MOL0     H36230   7.636   7.982   3.945  2.2797  2.2142  0.4011
  263MOL0     H36231   7.856   8.061   3.861  0.0183 -1.6322 -2.0038
  263MOL0     H36232   7.775   8.083   3.699 -2.7363 -2.1233 -0.3945
  263MOL0     H36233   7.681   8.201   3.954 -0.8119 -0.7323 -0.3099
  263MOL0     H36234   7.784   8.297   3.840 -2.5975  1.4814  0.5772
  263MOL0     H36235   7.510   8.173   3.767  2.6105 -1.8395 -1.0149
  263MOL0     H36236   7.625   8.278   3.673  3.8502  3.1284  2.1188
  263MOL0     H36237   7.480   8.363   3.937  2.7395  1.5926  0.7154
  263MOL0     H36238   7.568   8.472   3.837 -2.4906  1.7164 -0.1840
  263MOL0     H36239   7.331   8.507   3.803 -0.9906  0.7098 -0.2209
  263MOL0     H36240   7.292   8.328   3.796 -1.0972  0.5825 -1.3256
  263MOL0     H36241   7.451   8.472   3.573 -1.3363  1.9367  0.9158
  263MOL0     H36242   7.365   8.314   3.578  0.2318 -0.3507  0.9483
  263MOL0     H36243   7.084   8.342   3.677  0.2359  0.7204  0.4897
  263MOL0     H36244   6.834   8.425   3.548 -1.1609  0.1809  3.3664
  263MOL0     H36245   6.831   8.585   3.473  1.1409  0.1162 -0.6201
  263MOL0     H36246   6.857   8.524   3.776  0.0894  2.6856  3.0378
  263MOL0     H36247   6.907   8.676   3.693  0.8562 -1.6536 -1.0592
  263MOL0     H36248   6.627   8.555   3.647 -0.9808 -0.5873  0.6003
  263MOL0     H36249   6.651   8.626   3.802 -1.7669 -2.3907 -1.1184
  263MOL0     H36250   6.682   8.756   3.530 -2.2804 -2.4780 -0.6047
  263MOL0     H36251   6.551   8.772   3.636  0.5844  4.4001 -0.6835
  263MOL0     H36252   6.590   8.937   3.466 -0.0801  1.9732 -0.9804
  263MOL0     H36253   6.499   9.097   3.302 -0.2010 -0.4629  1.2032
  263MOL0     H36254   6.611   9.242   3.296  0.2336 -0.2305  0.3322
  263MOL0     H36255   6.452   9.256   3.370  1.1013  3.4352 -1.7370
  263MOL0     H36256   6.956   9.626   3.429  1.3295  0.7382  2.1884
  263MOL0     H36257   6.932   9.874   3.401 -1.5321  0.5209 -0.8500
  263MOL0     H36258   6.651  10.086   3.682  1.0780  2.6462  4.2394
  263MOL0     H36259   6.817  10.124   3.717  0.0059  0.9749 -0.3469
  263MOL0     H36260   6.662  10.252   3.479 -0.6261  0.9742 -0.1535
  263MOL0     H36261   6.685  10.323   3.646  1.0132  0.9634 -1.4476
  263MOL0     H36262   6.906  10.253   3.466  0.5374  3.1807 -1.0950
  263MOL0     H36263   6.909  10.330   3.624 -0.4253  2.5908  0.7112
  263MOL0     H36264   6.753  10.509   3.527 -2.0439  0.8534 -3.5339
  263MOL0     H36265   6.760  10.427   3.370  1.1031  1.4111 -0.6029
  263MOL0     H36266   6.980  10.585   3.507  1.6991  1.2644 -1.3580
  263MOL0     H36267   7.004  10.468   3.377 -0.0794 -1.6308  2.2579
  263MOL0     H36268   6.843  10.604   3.231  2.0872 -0.8240 -0.5700
  263MOL0     H36269   6.990  10.683   3.277  0.3932 -1.2484 -0.6524
  263MOL0     H36270   6.721  10.704   3.402  0.4372 -1.3250 -1.7657
  263MOL0     H36271   6.788  10.826   3.300 -4.4693 -1.9606 -0.2449
  263MOL0     H36272   6.890  10.756   3.582 -1.2737 -0.7050 -1.0776
  263MOL0     H36273   6.780  10.888   3.547 -0.1140 -0.8885  0.7177
  263MOL0     H36274   6.620   9.866   3.695  2.2631 -0.5971  1.8727
  263MOL0     H36275   6.622   9.618   3.689 -0.6028 -2.9739 -3.6200
  263MOL0     H36276   6.785   9.306   3.748  0.9727  1.6454 -2.5143
  263MOL0     H36277   6.792   9.069   3.817 -1.0517 -0.7653  1.3614
  263MOL0     H36278   7.902   7.677   3.699 -1.0519 -1.7858 -2.2134
  263MOL0     H36279   7.940   7.416   3.683 -2.4180 -3.4283  1.7472
  263MOL0     H36280   7.738   6.970   3.726 -0.8847  1.7376  2.9385
  263MOL0     H36281   7.820   6.736   3.681  0.0333  0.7977 -0.6031
  263MOL0     H36282   8.233   6.632   3.790 -0.4575  2.2305 -0.9045
  263MOL0     H36283   8.127   6.572   3.908 -0.6690 -0.7608  0.6672
  263MOL0     H36284   8.164   6.421   3.649 -1.8600  0.5786 -0.7550
  263MOL0     H36285   8.043   6.398   3.781  1.0457  0.9408  1.7457
  263MOL0     H36286   8.339   6.390   3.876  0.4610 -0.9943 -0.1118
  263MOL0     H36287   8.204   6.283   3.905 -0.1935 -1.1030 -0.3930
  263MOL0     H36288   8.232   6.175   3.695 -0.7171  1.5052  1.5605
  263MOL0     H36289   8.379   6.172   3.776 -0.8674 -1.1560 -0.5186
  263MOL0     H36290   8.441   6.378   3.409 -0.0878 -0.2312 -0.2147
  263MOL0     H36291   8.207   6.830   3.822  0.0854 -1.7123 -3.6669
  263MOL0     H36292   8.277   7.057   3.847 -0.0728  1.2244 -2.4528
  263MOL0     H36293   8.175   7.201   3.833 -0.2661 -0.1303 -0.2194
  263MOL0     H36294   8.152   7.113   3.971 -1.8433 -0.0408 -0.5173
  264MOL0     O36295   0.932   1.758   7.266 -0.0722 -1.0764  0.1047
  264MOL0     C36296   0.966   1.782   7.145  0.2283 -0.5508 -0.2191
  264MOL0     O36297   0.888   1.748   7.038 -0.4213 -1.1180  0.8330
  264MOL0     C36298   0.777   1.679   7.066  0.1682 -0.7891 -0.6120
  264MOL0     C36299   0.778   1.542   7.053  1.1508  0.3748 -0.7734
  264MOL0     C36300   0.659   1.473   7.068  0.1635 -0.0253  1.0658
  264MOL0     C36301   0.534   1.537   7.071  0.1745  0.1848  0.0109
  264MOL0     O36302   0.412   1.478   7.100 -1.1279  0.4860  0.8681
  264MOL0     C36303   0.403   1.337   7.086  0.3300 -0.3528 -0.6023
  264MOL0     C36304   0.261   1.289   7.108 -0.1084 -0.5503 -0.1707
  264MOL0     C36305   0.142   1.355   7.025  0.2663 -0.0807  0.3851
  264MOL0     C36306   0.028   1.250   7.042  0.1031 -0.5056  0.7945
  264MOL0     C36307  -0.087   1.241   6.951  0.1796 -0.6119 -0.1100
  264MOL0     C36308  -0.053   1.217   6.811  0.3981 -0.4657 -0.1115
  264MOL0     C36309  -0.182   1.180   6.734  0.6665  0.4069  0.2658
  264MOL0     C36310  -0.157   1.148   6.586 -0.3907  0.4049  0.3323
  264MOL0     N36311  -0.282   1.120   6.514  0.4505 -0.1526  0.3274
  264MOL0     C36312  -0.297   1.122   6.374  0.1901  0.7621  0.2511
  264MOL0     C36313  -0.408   1.066   6.339 -0.4682  0.2009  0.1061
  264MOL0     C36314  -0.465   1.016   6.203  0.5801 -0.8192  0.1841
  264MOL0     C36315  -0.456   0.868   6.178  0.2554  0.5616 -0.1790
  264MOL0     C36316  -0.484   0.827   6.034  0.9646  0.6941 -0.0139
  264MOL0     C36317  -0.577   0.920   5.947  0.6721 -0.3079 -0.4322
  264MOL0     O36318  -0.586   0.889   5.811 -0.2043  0.6304 -1.0905
  264MOL0     C36319  -0.479   0.851   5.736 -0.4418 -0.4060  1.1188
  264MOL0     C36320  -0.502   0.757   5.631 -0.4953 -0.4939  0.4034
  264MOL0     C36321  -0.405   0.719   5.544 -0.2507 -0.1422  0.3325
  264MOL0     C36322  -0.433   0.597   5.459 -0.5611  0.0426 -0.0227
  264MOL0     C36323  -0.277   0.782   5.535 -0.1289 -0.1086 -0.3115
  264MOL0     C36324  -0.152   0.769   5.448  0.5417  0.8966 -0.2061
  264MOL0     O36325  -0.040   0.832   5.498 -0.0454 -0.4317 -0.8423
  264MOL0     C36326   0.091   0.803   5.446  0.3864  0.1507 -0.5818
  264MOL0     C36327   0.190   0.843   5.530 -0.2253  0.6469  0.1797
  264MOL0     C36328   0.322   0.810   5.498  0.5468  0.7301  0.1457
  264MOL0     C36329   0.359   0.770   5.365 -0.6621  0.2484 -0.0314
  264MOL0     O36330   0.481   0.762   5.311  0.2047  0.4594  0.2235
  264MOL0     C36331   0.581   0.772   5.405 -0.2393 -0.2165 -0.1828
  264MOL0     C36332   0.714   0.741   5.338 -1.1050  0.1113 -1.1007
  264MOL0     C36333   0.815   0.805   5.420 -0.6230  0.1110  0.4456
  264MOL0     C36334   0.953   0.818   5.344  0.0668 -0.4743  0.1077
  264MOL0     C36335   1.076   0.870   5.439 -0.3655 -0.9140  0.8668
  264MOL0     C36336   1.188   0.910   5.343  0.6604 -0.7339  0.2170
  264MOL0     C36337   1.320   0.931   5.413 -0.2471  0.2543  0.9049
  264MOL0     C36338   1.416   1.005   5.312 -0.3726  1.4796 -0.0826
  264MOL0    Cl36339   1.571   1.023   5.391 -0.3344 -0.3082  0.1504
  264MOL0     C36340   0.254   0.744   5.273 -0.1272  0.8511 -0.7608
  264MOL0     C36341   0.119   0.751   5.308  0.8164 -0.7377 -0.3047
  264MOL0     O36342  -0.162   0.707   5.341  0.3106  0.4286 -0.2670
  264MOL0     C36343  -0.264   0.878   5.635 -0.9636  0.0564 -0.0309
  264MOL0     C36344  -0.358   0.920   5.738  0.3453 -0.7856  0.6933
  264MOL0     N36345  -0.457   1.011   6.460 -0.7396 -0.8187 -0.4624
  264MOL0     N36346  -0.383   1.040   6.562  1.0819 -0.7197 -0.6402
  264MOL0     C36347   0.528   1.677   7.068 -0.7865  0.2794  0.5017
  264MOL0     C36348   0.651   1.744   7.060 -0.6486 -0.0825 -0.0015
  264MOL0     C36349   1.094   1.845   7.106 -0.8858  0.2135  0.3936
  264MOL0     C36350   1.162   1.817   6.989 -0.3212  0.5930  0.2463
  264MOL0     C36351   1.291   1.854   6.949  0.8803  0.2905  0.4629
  264MOL0     C36352   1.366   1.935   7.039 -0.1617  1.1609  0.5069
  264MOL0     O36353   1.485   1.987   7.004  0.2328  1.0550  0.2103
  264MOL0     C36354   1.555   2.079   7.096 -0.1074  0.5573 -0.4222
  264MOL0     C36355   1.687   2.089   7.025 -0.3523 -0.4135  0.3800
  264MOL0     C36356   1.707   2.210   6.934 -0.0884  0.2081  0.7007
  264MOL0     C36357   1.671   2.179   6.790  0.0379 -0.4267  0.4075
  264MOL0     C36358   1.657   2.304   6.721 -0.3991 -0.8649  0.0636
  264MOL0     C36359   1.680   2.407   6.659  0.3420  0.7520  1.5336
  264MOL0     C36360   1.305   1.963   7.161  0.1330 -0.4407  0.0374
  264MOL0     C36361   1.174   1.922   7.195  1.2382 -0.9206  0.4498
  264MOL0     C36362   1.118   1.974   7.328  0.1030 -0.5694 -0.4950
  264MOL0     H36363   0.873   1.488   7.048 -0.0150 -2.0694  1.3128
  264MOL0     H36364   0.661   1.365   7.076  0.0421 -0.1481 -0.2976
  264MOL0     H36365   0.474   1.278   7.145 -0.3236 -0.4810  0.0628
  264MOL0     H36366   0.438   1.319   6.983  2.0164 -0.4278 -0.0574
  264MOL0     H36367   0.279   1.185   7.082  4.4740  0.1716 -0.6038
  264MOL0     H36368   0.234   1.287   7.214  1.2094 -2.4759  0.1867
  264MOL0     H36369   0.112   1.454   7.061 -0.4965 -0.3610  0.5360
  264MOL0     H36370   0.163   1.377   6.920 -1.1564  3.3828  0.6955
  264MOL0     H36371   0.068   1.148   7.035 -4.0477 -2.3860  1.6396
  264MOL0     H36372  -0.003   1.254   7.147 -2.2719 -1.2192  0.1843
  264MOL0     H36373  -0.151   1.329   6.961 -0.7078 -1.1571 -0.7950
  264MOL0     H36374  -0.154   1.165   6.993 -0.9563  1.0877  1.3085
  264MOL0     H36375  -0.004   1.307   6.773  0.1852 -0.6752 -0.9037
  264MOL0     H36376   0.014   1.131   6.795 -1.0094 -1.5798 -0.2543
  264MOL0     H36377  -0.247   1.267   6.727  0.5863  0.4288  1.2152
  264MOL0     H36378  -0.241   1.103   6.784 -0.0431  1.7545  1.5940
  264MOL0     H36379  -0.117   1.239   6.539  1.3536 -2.0003 -3.2568
  264MOL0     H36380  -0.088   1.066   6.569 -1.7738 -0.7433  0.0682
  264MOL0     H36381  -0.228   1.150   6.295 -0.2382  1.6972  0.1893
  264MOL0     H36382  -0.410   1.071   6.126 -1.4203  0.0004 -0.7492
  264MOL0     H36383  -0.567   1.054   6.190  0.9596  0.4018  0.5566
  264MOL0     H36384  -0.351   0.837   6.183  0.2277 -0.3607 -3.2388
  264MOL0     H36385  -0.519   0.810   6.246  1.3204  0.4792  0.7674
  264MOL0     H36386  -0.382   0.816   5.995  0.2859 -2.0730 -1.2861
  264MOL0     H36387  -0.525   0.725   6.035  2.5036  0.0415  0.9244
  264MOL0     H36388  -0.676   0.914   5.993 -0.5380 -0.9680 -2.9457
  264MOL0     H36389  -0.554   1.026   5.960 -1.9630  0.3865 -0.8477
  264MOL0     H36390  -0.594   0.700   5.620  0.2546 -1.7407  0.3261
  264MOL0     H36391  -0.537   0.578   5.430  0.6204 -1.5420 -3.7382
  264MOL0     H36392  -0.397   0.514   5.520 -5.0778 -3.9450 -2.1145
  264MOL0     H36393  -0.379   0.596   5.364  1.3887  1.7787  0.9826
  264MOL0     H36394   0.168   0.894   5.623 -0.4555  2.9879 -1.0743
  264MOL0     H36395   0.387   0.820   5.585 -0.1948  0.2130  0.7737
  264MOL0     H36396   0.584   0.871   5.451 -2.2892 -1.0549  1.9279
  264MOL0     H36397   0.582   0.705   5.491 -1.4336  1.9169  1.5864
  264MOL0     H36398   0.727   0.633   5.337 -2.2690 -0.0375 -1.7158
  264MOL0     H36399   0.715   0.775   5.234  1.4535 -3.0290 -2.2641
  264MOL0     H36400   0.833   0.740   5.506  0.0881 -3.1239 -1.9292
  264MOL0     H36401   0.798   0.903   5.464  1.7440  1.1168 -0.7075
  264MOL0     H36402   0.934   0.896   5.269  2.9746  2.0305  1.7296
  264MOL0     H36403   0.989   0.726   5.297 -0.4168 -0.1017 -1.0414
  264MOL0     H36404   1.050   0.960   5.496  2.8389  0.0590  0.9988
  264MOL0     H36405   1.109   0.787   5.502 -0.4608  0.5379  2.9313
  264MOL0     H36406   1.162   0.997   5.284  0.2349 -0.4363  0.8295
  264MOL0     H36407   1.203   0.826   5.275 -1.6457 -1.7807  0.8989
  264MOL0     H36408   1.356   0.828   5.419  0.0870 -0.0601 -3.1916
  264MOL0     H36409   1.313   0.989   5.505  0.0208  1.5904  0.1170
  264MOL0     H36410   1.377   1.102   5.280  1.0592  1.7403 -1.1227
  264MOL0     H36411   1.424   0.944   5.222 -0.7682 -1.6364  1.8431
  264MOL0     H36412   0.275   0.705   5.174 -0.5129 -3.0602  0.4940
  264MOL0     H36413   0.046   0.740   5.228 -2.4151  1.0363  2.1358
  264MOL0     H36414  -0.176   0.942   5.629 -0.1502 -1.1978 -3.6840
  264MOL0     H36415  -0.338   1.007   5.800 -2.0767  0.1438  0.3045
  264MOL0     H36416   0.433   1.727   7.052  0.1528  1.5360 -1.7387
  264MOL0     H36417   0.659   1.852   7.065  0.4495 -0.1807  0.4326
  264MOL0     H36418   1.108   1.751   6.921 -1.2593  1.2740  0.3055
  264MOL0     H36419   1.325   1.827   6.850  0.2046 -1.8312  0.7699
  264MOL0     H36420   1.505   2.175   7.111 -0.6696 -0.0425  2.2048
  264MOL0     H36421   1.585   2.036   7.192  0.2829 -1.4963 -1.4173
  264MOL0     H36422   1.704   1.994   6.973 -1.4833  0.8332 -2.4748
  264MOL0     H36423   1.768   2.096   7.098  0.0633 -1.9223  0.1059
  264MOL0     H36424   1.652   2.294   6.978  1.6353  2.0628 -0.5543
  264MOL0     H36425   1.811   2.242   6.929  0.1681 -0.7109 -0.1898
  264MOL0     H36426   1.584   2.113   6.786  1.9598 -3.0517 -1.6038
  264MOL0     H36427   1.747   2.113   6.746 -1.6798 -1.7750 -0.6664
  264MOL0     H36428   1.711   2.490   6.598 -0.7230 -1.6175 -2.6402
  264MOL0     H36429   1.357   2.012   7.243 -2.4497 -0.8097  2.0564
  264MOL0     H36430   1.191   2.033   7.384 -2.0260  1.5452  0.2231
  264MOL0     H36431   1.028   2.034   7.314 -2.6005 -3.2840  3.1806
  264MOL0     H36432   1.100   1.895   7.402  2.0130  2.2424  3.3699
  265MOL0     O36433   2.100   3.985  10.325  0.4377 -0.2022 -0.7440
  265MOL0     C36434   1.975   4.003  10.329 -0.0388  0.8584  0.2736
  265MOL0     O36435   1.906   4.013  10.443  0.9177 -0.8867  0.0236
  265MOL0     C36436   1.969   4.025  10.564 -0.2577 -0.0438  0.5759
  265MOL0     C36437   1.992   3.900  10.633 -0.2582  0.1741  0.6429
  265MOL0     C36438   2.054   3.905  10.756 -0.9338 -0.1266 -0.3652
  265MOL0     C36439   2.111   4.014  10.812  0.6780 -0.3426 -0.3447
  265MOL0     O36440   2.196   3.992  10.928 -0.3917 -0.1276  0.7884
  265MOL0     C36441   2.215   4.107  11.016 -0.0098  0.0983 -0.2978
  265MOL0     C36442   2.273   4.060  11.157  0.1005  0.3416  0.2645
  265MOL0     C36443   2.186   3.972  11.243  0.1718  0.2136 -1.1400
  265MOL0     C36444   2.037   4.016  11.270 -1.2901  0.2903  0.6097
  265MOL0     C36445   1.944   3.901  11.321 -0.0268  0.7516  0.5480
  265MOL0     C36446   1.803   3.950  11.325 -0.3438  0.0671  0.7420
  265MOL0     C36447   1.689   3.860  11.368 -0.1949 -0.3212 -0.2341
  265MOL0     C36448   1.687   3.824  11.522 -0.7699  0.4262 -0.0925
  265MOL0     N36449   1.644   3.686  11.548 -0.3878 -0.0278  0.3359
  265MOL0     C36450   1.515   3.631  11.536  0.3033 -1.2617 -0.7145
  265MOL0     C36451   1.527   3.498  11.549 -0.5002 -0.7793  0.8448
  265MOL0     C36452   1.419   3.396  11.538  0.4176  0.2425  0.6814
  265MOL0     C36453   1.402   3.319  11.682  0.3476 -0.7618  0.1375
  265MOL0     C36454   1.295   3.211  11.682  0.4535  0.0712 -0.0782
  265MOL0     C36455   1.152   3.260  11.662 -0.4327  0.7683 -0.6125
  265MOL0     O36456   1.064   3.142  11.688 -0.0878 -0.3015  0.7335
  265MOL0     C36457   0.982   3.087  11.593 -0.1193 -0.2044 -0.6754
  265MOL0     C36458   0.962   2.956  11.594  0.3383 -0.1210 -0.3883
  265MOL0     C36459   0.860   2.895  11.511 -0.0284 -0.2419 -0.0655
  265MOL0     C36460   0.868   2.745  11.501 -0.5995 -0.1597 -0.4808
  265MOL0     C36461   0.766   2.974  11.446 -0.2000  0.4482  0.8496
  265MOL0     C36462   0.653   2.931  11.362  0.0803 -1.0419  0.2655
  265MOL0     O36463   0.603   3.035  11.279  0.6650  0.6655 -0.0060
  265MOL0     C36464   0.485   3.002  11.214 -0.3249  0.9901 -0.0747
  265MOL0     C36465   0.489   2.939  11.091  0.6736  0.0081  0.1189
  265MOL0     C36466   0.380   2.914  11.015  0.3190  1.5204 -0.4124
  265MOL0     C36467   0.257   2.976  11.053 -0.4720  0.3080  0.3906
  265MOL0     O36468   0.139   2.949  10.988  0.0754  0.4202 -0.1551
  265MOL0     C36469   0.140   2.863  10.866  0.0615  0.5892  0.3399
  265MOL0     C36470  -0.007   2.853  10.821  0.3980 -0.4624 -0.3862
  265MOL0     C36471  -0.016   2.757  10.704  0.6388 -0.3172 -0.5800
  265MOL0     C36472  -0.012   2.612  10.754  0.7283  0.7646  0.7380
  265MOL0     C36473  -0.043   2.514  10.641 -0.6245  1.0197  0.2281
  265MOL0     C36474   0.000   2.371  10.668  0.8057 -0.1817  0.4235
  265MOL0     C36475  -0.110   2.268  10.612 -0.2780  0.0421  0.1358
  265MOL0     C36476  -0.064   2.122  10.589 -0.1317 -0.2701 -0.5510
  265MOL0    Cl36477  -0.215   2.037  10.547 -0.5370  0.3001  0.5078
  265MOL0     C36478   0.257   3.038  11.176 -0.3998  0.1249  0.0433
  265MOL0     C36479   0.364   3.050  11.260 -0.5326  0.2089  0.6723
  265MOL0     O36480   0.608   2.819  11.372 -0.0146 -0.4312  0.1440
  265MOL0     C36481   0.798   3.120  11.437 -0.2610  0.5386 -0.1948
  265MOL0     C36482   0.914   3.171  11.504  1.1614  0.8247  0.9657
  265MOL0     N36483   1.668   3.481  11.568  0.1018 -0.5822 -0.5847
  265MOL0     N36484   1.739   3.584  11.554  0.0451  0.2574  0.2683
  265MOL0     C36485   2.083   4.139  10.751 -0.0844  0.8707 -0.1131
  265MOL0     C36486   2.017   4.144  10.626 -0.3040  1.4807 -0.4609
  265MOL0     C36487   1.904   4.019  10.203 -0.3319 -0.0453 -0.1353
  265MOL0     C36488   1.915   4.144  10.151 -0.4584  0.0065  1.0324
  265MOL0     C36489   1.849   4.166  10.022 -0.1014  0.5150 -0.0867
  265MOL0     C36490   1.777   4.067   9.959  0.4792  0.9537 -0.3897
  265MOL0     O36491   1.718   4.096   9.839 -0.1220  0.4531 -0.4503
  265MOL0     C36492   1.610   4.016   9.791 -0.0729 -0.3936 -0.2306
  265MOL0     C36493   1.565   4.097   9.664 -0.1134  1.1449  0.2143
  265MOL0     C36494   1.419   4.047   9.633 -0.4036  0.1498 -0.8097
  265MOL0     C36495   1.400   4.036   9.487  0.5346 -1.2022  0.3239
  265MOL0     C36496   1.392   4.175   9.431  0.2365 -0.5267  0.5429
  265MOL0     C36497   1.383   4.291   9.399  0.5029  0.6041 -0.9847
  265MOL0     C36498   1.747   3.947  10.030  0.5731  0.6876 -0.1615
  265MOL0     C36499   1.817   3.924  10.152  0.9007 -0.3223 -0.8227
  265MOL0     C36500   1.784   3.785  10.217 -0.2411  0.3489  0.6619
  265MOL0     H36501   1.958   3.805  10.594  3.9163  0.2162 -4.2538
  265MOL0     H36502   2.063   3.818  10.820 -1.0545  0.9993  1.2120
  265MOL0     H36503   2.127   4.171  11.034  0.6050  0.5236  1.4236
  265MOL0     H36504   2.296   4.158  10.965  0.8670 -0.9481  0.0303
  265MOL0     H36505   2.354   3.991  11.133 -2.1954 -2.6247  0.5088
  265MOL0     H36506   2.310   4.149  11.209  0.9184 -0.1639  0.5676
  265MOL0     H36507   2.183   3.868  11.208  0.8132  0.1123 -0.9136
  265MOL0     H36508   2.239   3.991  11.337  1.9638  2.6410 -2.5124
  265MOL0     H36509   2.031   4.099  11.342  1.3315  1.0461  0.0833
  265MOL0     H36510   1.991   4.042  11.175 -1.2647  0.0941  0.5439
  265MOL0     H36511   1.979   3.868  11.419  0.4033  0.7906  0.4086
  265MOL0     H36512   1.944   3.815  11.253 -1.6400  0.9941  0.1974
  265MOL0     H36513   1.794   4.049  11.371  1.2357  0.2215  0.7729
  265MOL0     H36514   1.771   3.969  11.222 -0.6275  0.4201  0.8916
  265MOL0     H36515   1.718   3.769  11.314 -0.3325 -1.6226  1.7761
  265MOL0     H36516   1.590   3.893  11.336  0.2915  2.2037  0.6996
  265MOL0     H36517   1.791   3.833  11.554 -0.2959  5.2552 -2.1688
  265MOL0     H36518   1.627   3.901  11.571 -1.8358 -1.9410  2.6332
  265MOL0     H36519   1.423   3.686  11.518 -0.0551 -1.7623 -0.4289
  265MOL0     H36520   1.454   3.324  11.463 -1.2069 -0.8310  0.9044
  265MOL0     H36521   1.328   3.436  11.493  2.6465  3.3692 -1.5427
  265MOL0     H36522   1.501   3.278  11.706  0.6814 -0.9908 -1.4757
  265MOL0     H36523   1.383   3.390  11.762  1.8281  0.9772 -0.9841
  265MOL0     H36524   1.316   3.128  11.614  0.2467 -2.0858  2.3141
  265MOL0     H36525   1.303   3.162  11.779 -0.0035 -2.7165 -1.3521
  265MOL0     H36526   1.130   3.338  11.734 -1.3208 -0.4222  0.4472
  265MOL0     H36527   1.145   3.300  11.560  1.8084  0.5842 -0.9046
  265MOL0     H36528   1.012   2.908  11.677  1.2706 -0.0437 -0.8940
  265MOL0     H36529   0.781   2.682  11.516  1.8319 -3.2264  2.3370
  265MOL0     H36530   0.948   2.716  11.570  0.9719  1.5811 -1.4587
  265MOL0     H36531   0.901   2.732  11.397 -2.9632 -2.1996 -1.0620
  265MOL0     H36532   0.587   2.913  11.051  1.4435 -0.1416  1.9904
  265MOL0     H36533   0.388   2.852  10.926 -2.5097 -1.8946  1.4496
  265MOL0     H36534   0.205   2.918  10.798  1.3567 -0.9257  0.2925
  265MOL0     H36535   0.195   2.770  10.882  2.4402  2.2502  2.4889
  265MOL0     H36536  -0.082   2.830  10.897 -0.2654 -1.0444 -1.1868
  265MOL0     H36537  -0.040   2.954  10.795  1.3778 -0.1625 -0.4948
  265MOL0     H36538   0.062   2.762  10.628  1.8889 -0.9475  0.6284
  265MOL0     H36539  -0.113   2.768  10.655 -1.2552 -1.0136  2.7283
  265MOL0     H36540  -0.081   2.605  10.839  2.0039 -1.0632  1.6768
  265MOL0     H36541   0.088   2.585  10.788 -0.0388  0.8685  3.3408
  265MOL0     H36542  -0.150   2.511  10.618 -0.6997  2.5619  0.2499
  265MOL0     H36543   0.011   2.537  10.549  0.1617  3.3030  1.1967
  265MOL0     H36544   0.011   2.350  10.774 -2.4029  1.1504  1.1375
  265MOL0     H36545   0.095   2.346  10.618 -0.2868 -2.0864 -0.8519
  265MOL0     H36546  -0.145   2.316  10.520 -1.6915  0.2266  0.7450
  265MOL0     H36547  -0.189   2.285  10.685 -0.5575  2.1181 -0.5856
  265MOL0     H36548  -0.021   2.090  10.684 -4.2427 -2.5836  0.8062
  265MOL0     H36549   0.004   2.108  10.504  0.4944 -1.5287  0.1235
  265MOL0     H36550   0.154   3.068  11.193 -0.8574 -2.9414  4.2885
  265MOL0     H36551   0.370   3.099  11.357  2.5870  2.2988 -0.3973
  265MOL0     H36552   0.727   3.191  11.396 -1.7845 -0.4061  0.6916
  265MOL0     H36553   0.930   3.278  11.502 -2.3395  1.5590  3.5969
  265MOL0     H36554   2.120   4.236  10.781 -0.3776  0.2496  2.5507
  265MOL0     H36555   2.006   4.241  10.579 -0.5196  1.0034 -1.4053
  265MOL0     H36556   1.988   4.216  10.185  0.2144 -0.4085  0.4913
  265MOL0     H36557   1.856   4.263   9.975  2.0241  0.4821  0.0683
  265MOL0     H36558   1.640   3.915   9.761 -3.7161 -1.1266 -1.8713
  265MOL0     H36559   1.522   4.012   9.855  0.6166 -2.7557  0.7007
  265MOL0     H36560   1.632   4.086   9.579 -0.4557  1.1679 -0.0590
  265MOL0     H36561   1.553   4.204   9.688 -3.6825  0.9240  0.0093
  265MOL0     H36562   1.407   3.944   9.667 -0.9328 -0.4990 -2.8233
  265MOL0     H36563   1.342   4.105   9.684  0.3766  2.4786 -2.1428
  265MOL0     H36564   1.301   3.991   9.471 -0.2381 -0.8315  3.4021
  265MOL0     H36565   1.472   3.980   9.427 -0.7192  0.7896 -3.3899
  265MOL0     H36566   1.376   4.396   9.378 -0.0310  0.6553 -0.5609
  265MOL0     H36567   1.681   3.876   9.982  2.5881  0.0985 -2.2763
  265MOL0     H36568   1.689   3.740  10.187  0.9933 -2.3780  0.4797
  265MOL0     H36569   1.861   3.712  10.189  1.2736  1.6803  1.2110
  265MOL0     H36570   1.788   3.797  10.325  2.0572 -3.7917  1.2542
  266MOL0     O36571   2.393  11.414   1.622 -0.6383 -0.5556 -0.4230
  266MOL0     C36572   2.399  11.294   1.628 -0.2511 -0.2698  0.3753
  266MOL0     O36573   2.504  11.217   1.598  0.2951 -0.1060  0.2428
  266MOL0     C36574   2.614  11.256   1.521 -0.3075  0.0279 -0.5198
  266MOL0     C36575   2.608  11.359   1.426  0.0898  0.7081 -0.5113
  266MOL0     C36576   2.719  11.385   1.346  0.6335  0.1692  0.2881
  266MOL0     C36577   2.847  11.327   1.364  0.5719 -0.7347 -0.0380
  266MOL0     O36578   2.950  11.374   1.290  0.1016  0.3923 -0.4980
  266MOL0     C36579   2.987  11.295   1.168 -1.1213 -0.1276  0.3015
  266MOL0     C36580   3.137  11.302   1.158  0.1583 -0.6423  1.0031
  266MOL0     C36581   3.183  11.239   1.020  0.1399  0.4555  0.0955
  266MOL0     C36582   3.151  11.086   1.012  0.1982  0.6119 -0.5079
  266MOL0     C36583   3.277  11.026   0.945 -0.3287  0.8023  0.4906
  266MOL0     C36584   3.250  10.870   0.934 -0.0560 -0.8446 -0.3263
  266MOL0     C36585   3.299  10.798   1.054  0.9770  1.2281  0.7995
  266MOL0     C36586   3.313  10.644   1.025  0.0241 -0.4507  0.8698
  266MOL0     N36587   3.197  10.573   1.078  0.5462 -0.3748 -0.2861
  266MOL0     C36588   3.216  10.472   1.178  0.6055 -0.4218 -0.8599
  266MOL0     C36589   3.089  10.412   1.185 -0.7222 -0.4725 -0.7999
  266MOL0     C36590   3.053  10.295   1.274 -0.8178 -0.3358  0.4066
  266MOL0     C36591   3.155  10.186   1.281  0.5635  0.1749 -0.0326
  266MOL0     C36592   3.103  10.068   1.362 -1.1774 -0.2608 -0.2519
  266MOL0     C36593   3.210   9.957   1.379 -0.0186  0.2467 -0.0213
  266MOL0     O36594   3.209   9.882   1.258 -0.2251  0.5781 -1.0296
  266MOL0     C36595   3.197   9.748   1.286 -0.2129  0.5859 -0.2426
  266MOL0     C36596   3.266   9.665   1.200 -0.6850 -0.2151  0.1188
  266MOL0     C36597   3.266   9.528   1.210  0.5662 -0.1716 -0.5887
  266MOL0     C36598   3.362   9.454   1.130 -0.1335  0.6363 -0.8374
  266MOL0     C36599   3.176   9.465   1.304 -0.3074 -0.8677  0.2047
  266MOL0     C36600   3.163   9.319   1.308  0.0751  0.3984  0.1541
  266MOL0     O36601   3.106   9.249   1.209 -0.0018  0.0777  0.2525
  266MOL0     C36602   3.101   9.109   1.205  0.6860 -0.3432  0.4649
  266MOL0     C36603   3.157   9.040   1.099  0.1786  0.1453  0.1305
  266MOL0     C36604   3.165   8.899   1.090  0.3776 -1.4831  0.2247
  266MOL0     C36605   3.116   8.823   1.198  0.2068  0.0280  0.4939
  266MOL0     O36606   3.147   8.690   1.187 -0.6582 -0.0182  0.0018
  266MOL0     C36607   3.071   8.599   1.271 -0.1327 -0.0954  0.0045
  266MOL0     C36608   3.125   8.457   1.245 -0.0540 -0.2116 -0.6473
  266MOL0     C36609   3.083   8.405   1.109 -0.4192 -0.6560  0.4808
  266MOL0     C36610   2.994   8.282   1.110 -0.4532 -0.4082 -0.3176
  266MOL0     C36611   2.973   8.219   0.973  0.3519 -0.3770  0.9472
  266MOL0     C36612   3.106   8.194   0.895  0.0570  0.7331  0.2103
  266MOL0     C36613   3.088   8.077   0.799 -0.9193  0.7858  0.1755
  266MOL0     C36614   3.101   7.928   0.866  0.3988 -0.2342  0.2531
  266MOL0    Cl36615   3.239   7.918   0.959  0.3592  0.1100  0.3931
  266MOL0     C36616   3.058   8.888   1.305  0.1336 -0.2242 -0.1257
  266MOL0     C36617   3.053   9.033   1.309  0.4115 -0.1019  0.2371
  266MOL0     O36618   3.200   9.271   1.418 -0.2185  0.0331 -0.4509
  266MOL0     C36619   3.087   9.548   1.369  0.2542 -0.7417  0.2407
  266MOL0     C36620   3.093   9.693   1.367  0.7402  1.1026  0.3763
  266MOL0     N36621   3.006  10.485   1.094  0.4886  0.1233  0.2893
  266MOL0     N36622   3.064  10.577   1.035  0.0419  0.1436  0.9566
  266MOL0     C36623   2.857  11.236   1.466 -0.0250  0.1143  0.7449
  266MOL0     C36624   2.740  11.202   1.547 -0.7869 -0.1102  0.6559
  266MOL0     C36625   2.287  11.220   1.680 -0.3209 -0.3323  0.4321
  266MOL0     C36626   2.297  11.079   1.674  0.6366 -0.6415 -0.0418
  266MOL0     C36627   2.201  11.005   1.736  0.7006  1.0348 -0.6657
  266MOL0     C36628   2.086  11.060   1.787  0.7201  0.0019 -0.5714
  266MOL0     O36629   2.000  10.975   1.859 -0.0793 -0.4487  1.0216
  266MOL0     C36630   1.926  11.016   1.969 -1.2143 -0.1306 -0.0149
  266MOL0     C36631   2.014  11.057   2.083 -0.0425  0.4716 -0.0918
  266MOL0     C36632   2.142  10.984   2.093 -0.0205  0.8434  0.0220
  266MOL0     C36633   2.118  10.825   2.082  0.7662 -0.2603 -0.2184
  266MOL0     C36634   2.036  10.794   2.199  0.1802  0.3154 -0.5361
  266MOL0     C36635   1.953  10.771   2.286 -1.0225  0.3330 -0.8544
  266MOL0     C36636   2.059  11.196   1.784 -0.2108 -0.6509  0.0790
  266MOL0     C36637   2.165  11.279   1.738  0.7911  1.1419  0.2389
  266MOL0     C36638   2.147  11.429   1.773  0.5895 -0.1222  0.9134
  266MOL0     H36639   2.512  11.394   1.390  0.0630 -0.3130 -1.5167
  266MOL0     H36640   2.715  11.462   1.270  0.1627  1.3244  1.4295
  266MOL0     H36641   2.950  11.336   1.074 -0.2047 -0.9648 -0.4461
  266MOL0     H36642   2.941  11.197   1.176 -1.3302 -0.0193  0.4589
  266MOL0     H36643   3.176  11.404   1.149  1.0545 -0.8493  2.1779
  266MOL0     H36644   3.190  11.264   1.246  1.4338  1.3398  1.1579
  266MOL0     H36645   3.128  11.292   0.941  0.9444  0.9573 -0.1443
  266MOL0     H36646   3.288  11.256   0.995 -0.7037  3.5882 -1.8154
  266MOL0     H36647   3.133  11.038   1.109 -2.4966  0.6883 -0.8814
  266MOL0     H36648   3.057  11.075   0.957  0.4161  0.4777 -0.8553
  266MOL0     H36649   3.365  11.050   1.006  1.0857  1.4998 -1.6783
  266MOL0     H36650   3.285  11.074   0.846 -0.6867  1.2962  0.6947
  266MOL0     H36651   3.145  10.840   0.934  0.3224 -2.2348 -0.5986
  266MOL0     H36652   3.293  10.841   0.838 -0.3657  2.3657 -1.5362
  266MOL0     H36653   3.241  10.815   1.145 -0.3253  3.9275 -0.4404
  266MOL0     H36654   3.400  10.833   1.078  1.1198  0.0243  2.0626
  266MOL0     H36655   3.328  10.609   0.922  3.6928 -4.2744  2.3663
  266MOL0     H36656   3.402  10.602   1.074  0.2941 -0.9284  0.0028
  266MOL0     H36657   3.306  10.435   1.224 -0.0107 -2.6479 -1.3228
  266MOL0     H36658   2.968  10.244   1.228  1.6098 -2.1862 -2.3776
  266MOL0     H36659   3.021  10.326   1.374 -2.6811 -1.7484  0.3182
  266MOL0     H36660   3.180  10.152   1.180  0.7374 -1.1056  0.4171
  266MOL0     H36661   3.250  10.222   1.323  0.2696  3.5749 -1.9632
  266MOL0     H36662   3.071  10.102   1.461 -1.8356 -0.7164 -0.2968
  266MOL0     H36663   3.012  10.029   1.315 -2.2808  1.5928  0.2480
  266MOL0     H36664   3.304  10.006   1.406 -0.7100  1.1173  0.8885
  266MOL0     H36665   3.204   9.903   1.474  0.7538  0.1184 -0.0387
  266MOL0     H36666   3.322   9.706   1.117 -1.5528 -0.4800 -0.6200
  266MOL0     H36667   3.443   9.517   1.091  1.0187 -0.0375  0.3957
  266MOL0     H36668   3.311   9.403   1.048  1.0661 -2.0368 -0.0340
  266MOL0     H36669   3.400   9.376   1.195 -0.7994  1.2951  0.3786
  266MOL0     H36670   3.197   9.092   1.012 -2.9666  1.3944 -0.7181
  266MOL0     H36671   3.210   8.846   1.007 -0.6199 -0.0353 -1.2851
  266MOL0     H36672   3.098   8.618   1.375 -0.8224 -0.7009  0.3064
  266MOL0     H36673   2.962   8.602   1.261 -0.2208  0.6595  1.0076
  266MOL0     H36674   3.233   8.472   1.250 -0.2571  3.2619 -3.4008
  266MOL0     H36675   3.078   8.396   1.323  0.9476  2.5233  2.2986
  266MOL0     H36676   3.181   8.389   1.063  0.5109  1.9530  1.3752
  266MOL0     H36677   3.038   8.486   1.050  3.2064  1.0472 -0.2376
  266MOL0     H36678   2.896   8.311   1.150  0.1093 -0.7062  1.3515
  266MOL0     H36679   3.033   8.209   1.181  0.8441 -2.1218 -2.6848
  266MOL0     H36680   2.909   8.131   0.979  1.2777 -1.0617  0.9624
  266MOL0     H36681   2.922   8.294   0.912  3.0835  0.4596 -0.4748
  266MOL0     H36682   3.190   8.172   0.962  0.5960 -1.3592 -1.0600
  266MOL0     H36683   3.134   8.284   0.839  1.4345  0.4411  0.3803
  266MOL0     H36684   3.174   8.082   0.731 -0.1576 -1.4376  0.8882
  266MOL0     H36685   2.991   8.086   0.749 -0.4225 -1.4385 -1.3659
  266MOL0     H36686   3.099   7.857   0.783  0.7816  1.3714 -1.1752
  266MOL0     H36687   3.011   7.912   0.927 -0.6956  2.2003 -0.6122
  266MOL0     H36688   3.044   8.835   1.399 -1.2684 -2.0032 -1.2783
  266MOL0     H36689   3.002   9.088   1.389 -4.0301  0.3330 -2.5099
  266MOL0     H36690   3.018   9.488   1.428 -1.9406  1.9008  0.5352
  266MOL0     H36691   3.024   9.738   1.438  2.3694  1.0713  2.0830
  266MOL0     H36692   2.948  11.181   1.487 -0.4577 -2.1579 -2.6168
  266MOL0     H36693   2.747  11.150   1.642  2.1448 -0.7549  0.1862
  266MOL0     H36694   2.379  11.022   1.633  2.4250  0.4810  1.7995
  266MOL0     H36695   2.218  10.898   1.740  1.8479  1.2368  1.3940
  266MOL0     H36696   1.858  11.100   1.954 -0.5865  0.3282 -0.3035
  266MOL0     H36697   1.864  10.927   1.987 -1.4341  0.5642  3.3864
  266MOL0     H36698   1.957  11.052   2.176 -1.6197 -1.1558 -1.0927
  266MOL0     H36699   2.041  11.160   2.055  1.5040 -0.0057 -0.4685
  266MOL0     H36700   2.213  11.010   2.014  3.4943 -1.0585  2.2941
  266MOL0     H36701   2.190  11.006   2.189  2.0768  2.6282 -1.3306
  266MOL0     H36702   2.213  10.776   2.107  1.1126  1.6092  2.6297
  266MOL0     H36703   2.074  10.782   1.991 -2.2344  1.3823  0.3468
  266MOL0     H36704   1.876  10.758   2.360  0.4003  0.8763  0.7952
  266MOL0     H36705   1.960  11.227   1.818 -1.2049 -3.3608 -0.1193
  266MOL0     H36706   2.059  11.447   1.835 -1.5669  1.9676 -2.4518
  266MOL0     H36707   2.231  11.464   1.835 -0.0318  0.3477  1.5081
  266MOL0     H36708   2.132  11.494   1.687 -0.2742  0.7487  1.6964
  267MOL0     O36709   5.988   2.165   3.454  0.2146  0.3861  0.0764
  267MOL0     C36710   5.984   2.180   3.330 -0.6938 -0.5251 -0.9577
  267MOL0     O36711   6.084   2.230   3.250  0.2720  0.3474  0.4539
  267MOL0     C36712   6.193   2.287   3.305  0.3260 -0.8945 -0.7330
  267MOL0     C36713   6.320   2.271   3.240 -0.4344 -0.1809 -0.6729
  267MOL0     C36714   6.433   2.341   3.282  0.2103 -0.1689  0.1845
  267MOL0     C36715   6.424   2.423   3.400 -0.3308 -0.1887  0.7574
  267MOL0     O36716   6.529   2.484   3.455  0.9278 -0.0148  0.4006
  267MOL0     C36717   6.597   2.400   3.553 -0.5085 -0.2043  0.1328
  267MOL0     C36718   6.501   2.350   3.680 -0.6136  1.0607  0.0584
  267MOL0     C36719   6.571   2.271   3.798 -0.2919  0.6987 -0.3444
  267MOL0     C36720   6.609   2.132   3.738  0.3063  0.1580  1.2219
  267MOL0     C36721   6.622   2.018   3.839 -0.7411  0.1741  0.4768
  267MOL0     C36722   6.753   2.008   3.930 -0.1736 -0.1384 -0.0478
  267MOL0     C36723   6.876   1.949   3.851  0.4196 -0.3029 -0.6588
  267MOL0     C36724   6.945   2.028   3.740  0.0623  0.2949 -0.5157
  267MOL0     N36725   6.984   2.166   3.784  0.1175 -0.2821 -0.5379
  267MOL0     C36726   7.024   2.252   3.687 -0.0717 -1.0785 -0.5939
  267MOL0     C36727   7.063   2.365   3.757 -1.2422 -0.6505  0.9294
  267MOL0     C36728   7.095   2.503   3.703 -0.5377 -0.0708 -0.8398
  267MOL0     C36729   6.975   2.594   3.696 -0.0101  0.2088  0.6918
  267MOL0     C36730   6.978   2.696   3.810 -0.2159  0.9731  0.1237
  267MOL0     C36731   6.852   2.794   3.799  0.1708  0.3671  0.0673
  267MOL0     O36732   6.827   2.839   3.935  0.9501  0.2471  0.1290
  267MOL0     C36733   6.834   2.973   3.976 -0.3070  0.0443 -0.5672
  267MOL0     C36734   6.890   3.075   3.899 -0.3824 -0.7312  0.7653
  267MOL0     C36735   6.896   3.209   3.951  1.1351  0.2008 -0.4409
  267MOL0     C36736   6.948   3.329   3.873  0.0068 -0.3643 -0.7232
  267MOL0     C36737   6.842   3.239   4.085 -0.2398  0.1141  1.1378
  267MOL0     C36738   6.866   3.376   4.145 -0.4138  0.1141 -0.6803
  267MOL0     O36739   6.755   3.446   4.179 -0.6018  0.3437  0.4470
  267MOL0     C36740   6.771   3.559   4.250 -0.0267 -0.1419 -0.4015
  267MOL0     C36741   6.833   3.663   4.187 -0.7398  0.3018  0.3753
  267MOL0     C36742   6.837   3.789   4.249 -0.7482  0.4703  0.0818
  267MOL0     C36743   6.804   3.802   4.383  0.8275  0.0054  1.3723
  267MOL0     O36744   6.797   3.913   4.454 -0.2741  0.4782 -0.4080
  267MOL0     C36745   6.706   4.016   4.390 -0.7093 -0.5873 -0.9107
  267MOL0     C36746   6.784   4.123   4.309  0.0611  0.6722 -0.0097
  267MOL0     C36747   6.675   4.231   4.275  0.4222  0.3848  0.3950
  267MOL0     C36748   6.586   4.192   4.151  0.1215 -0.4302 -0.2232
  267MOL0     C36749   6.495   4.306   4.103  0.1729 -0.0520 -0.0870
  267MOL0     C36750   6.385   4.355   4.198 -0.1258  0.9307 -0.0978
  267MOL0     C36751   6.296   4.464   4.138 -0.3885 -0.5567 -0.1609
  267MOL0     C36752   6.149   4.413   4.162 -0.8448  0.0410  0.4922
  267MOL0    Cl36753   6.039   4.549   4.102 -0.0225 -0.3567  0.0177
  267MOL0     C36754   6.738   3.694   4.443  0.3656  0.8611  0.5794
  267MOL0     C36755   6.716   3.567   4.378 -1.0294  0.8791  0.0278
  267MOL0     O36756   6.981   3.411   4.165 -0.6191 -0.4256  0.5563
  267MOL0     C36757   6.783   3.139   4.151  0.2969  1.2379  0.0517
  267MOL0     C36758   6.788   3.007   4.102  0.9108 -0.0682  0.2265
  267MOL0     N36759   7.042   2.337   3.891  0.2527  0.1705 -0.4103
  267MOL0     N36760   6.993   2.214   3.906  0.0689  0.3516 -0.0055
  267MOL0     C36761   6.305   2.443   3.454  0.1061 -0.3080 -0.6067
  267MOL0     C36762   6.185   2.374   3.411 -0.7269  0.4206  0.5578
  267MOL0     C36763   5.863   2.153   3.261 -0.3926 -0.3425  1.3306
  267MOL0     C36764   5.842   2.021   3.218 -0.3566  0.7846  0.3529
  267MOL0     C36765   5.720   1.984   3.156 -0.1366 -1.0917 -0.1087
  267MOL0     C36766   5.629   2.084   3.119  0.0269 -0.7095 -0.5368
  267MOL0     O36767   5.516   2.026   3.066  1.0446  0.6456 -0.4334
  267MOL0     C36768   5.421   2.126   3.017 -0.3118  0.2517  0.8352
  267MOL0     C36769   5.282   2.065   2.990  0.1315 -0.5607 -0.0426
  267MOL0     C36770   5.279   2.004   2.848 -0.9479 -0.4575 -0.1000
  267MOL0     C36771   5.142   1.956   2.810 -0.0972 -1.8454  0.0619
  267MOL0     C36772   5.079   1.838   2.885  0.0607  0.0796 -0.4944
  267MOL0     C36773   5.040   1.728   2.924 -0.1549 -0.6437  0.2888
  267MOL0     C36774   5.674   2.226   3.139  0.7156  0.3023 -0.1983
  267MOL0     C36775   5.787   2.263   3.207  0.1775  0.2262 -0.5028
  267MOL0     C36776   5.831   2.398   3.223 -0.4498 -1.0171 -0.0436
  267MOL0     H36777   6.322   2.218   3.146  0.9148  0.3618 -0.9702
  267MOL0     H36778   6.529   2.319   3.235  0.1828  3.2111 -1.7705
  267MOL0     H36779   6.692   2.434   3.595 -0.3708 -3.3712  2.7970
  267MOL0     H36780   6.627   2.314   3.493  1.0273  1.8920 -2.3221
  267MOL0     H36781   6.467   2.446   3.718  1.1768  2.7132 -2.2057
  267MOL0     H36782   6.417   2.292   3.641 -1.3440  1.4569  1.0174
  267MOL0     H36783   6.657   2.328   3.834 -0.3023  0.0112  0.8437
  267MOL0     H36784   6.511   2.255   3.889 -0.6754  4.1299  0.1138
  267MOL0     H36785   6.534   2.100   3.665  1.4761 -2.4706  1.0495
  267MOL0     H36786   6.694   2.136   3.668 -0.3959 -1.8360  0.1754
  267MOL0     H36787   6.626   1.921   3.788  0.0618 -0.8564  2.3568
  267MOL0     H36788   6.532   2.011   3.900 -1.7952 -0.4948 -1.0960
  267MOL0     H36789   6.787   2.109   3.955  0.8684 -0.7186  0.9822
  267MOL0     H36790   6.741   1.953   4.023  2.2463  0.6217  0.8058
  267MOL0     H36791   6.854   1.856   3.797 -2.0518  2.3666 -4.7267
  267MOL0     H36792   6.952   1.933   3.928 -1.0503  2.6515  1.6055
  267MOL0     H36793   7.040   1.982   3.711  0.8034  1.9654 -0.8901
  267MOL0     H36794   6.885   2.015   3.650  0.0040 -1.3320 -0.2734
  267MOL0     H36795   6.990   2.237   3.585 -0.8450 -0.7312 -0.4023
  267MOL0     H36796   7.133   2.483   3.602 -0.9513  0.8253 -1.1804
  267MOL0     H36797   7.172   2.543   3.769  0.7860 -2.3212 -0.9100
  267MOL0     H36798   6.977   2.655   3.605  3.5761 -0.5027  0.1681
  267MOL0     H36799   6.885   2.534   3.713 -0.9676  1.0177 -1.2225
  267MOL0     H36800   6.986   2.626   3.893 -0.9309 -1.2952 -1.6084
  267MOL0     H36801   7.065   2.763   3.814  1.6318 -1.0732 -2.2462
  267MOL0     H36802   6.871   2.876   3.729 -0.8555 -2.3270 -3.6660
  267MOL0     H36803   6.762   2.736   3.779  0.9775 -1.3180  1.1060
  267MOL0     H36804   6.926   3.054   3.799  0.2281  1.0364  0.5916
  267MOL0     H36805   6.876   3.409   3.855  2.0140  1.2704 -1.9874
  267MOL0     H36806   6.976   3.301   3.771  1.4319 -4.6905  0.6115
  267MOL0     H36807   7.042   3.371   3.909 -1.1266  2.0877 -0.4779
  267MOL0     H36808   6.863   3.664   4.083 -3.7976 -2.2121 -0.6952
  267MOL0     H36809   6.879   3.875   4.196  1.5193 -1.4476 -1.4599
  267MOL0     H36810   6.637   3.979   4.314  0.6572  0.6641 -2.8430
  267MOL0     H36811   6.653   4.053   4.478 -0.1942 -0.4177 -0.6686
  267MOL0     H36812   6.865   4.169   4.366  1.9066  0.0840 -2.0144
  267MOL0     H36813   6.823   4.099   4.210 -0.0503  0.5651 -0.0277
  267MOL0     H36814   6.712   4.324   4.231  2.2363 -0.5879 -0.2284
  267MOL0     H36815   6.610   4.248   4.362 -3.0099 -1.1838 -1.6506
  267MOL0     H36816   6.523   4.107   4.179 -0.9437  0.2589 -0.4642
  267MOL0     H36817   6.652   4.143   4.079  3.8193 -2.7674  4.1818
  267MOL0     H36818   6.550   4.399   4.088  0.7798 -0.3271  0.4106
  267MOL0     H36819   6.455   4.273   4.006 -0.4340  0.9341 -0.1880
  267MOL0     H36820   6.436   4.402   4.283  1.6316  2.0511 -1.6918
  267MOL0     H36821   6.328   4.270   4.236  0.8030  0.4083  0.1682
  267MOL0     H36822   6.307   4.479   4.030 -0.5061 -1.1263 -0.2590
  267MOL0     H36823   6.308   4.564   4.179 -1.9348 -0.6206  0.4927
  267MOL0     H36824   6.138   4.402   4.270  3.7326  2.5309  1.5149
  267MOL0     H36825   6.133   4.320   4.108  0.3122 -1.9661  3.3478
  267MOL0     H36826   6.714   3.717   4.547 -2.1935  1.4272 -0.0647
  267MOL0     H36827   6.671   3.479   4.422 -2.1291  2.1214  1.5285
  267MOL0     H36828   6.736   3.159   4.246  0.8964  0.6443  0.4839
  267MOL0     H36829   6.741   2.938   4.171 -2.1459  4.3125  3.0464
  267MOL0     H36830   6.294   2.522   3.528  0.6429 -0.2333 -0.6077
  267MOL0     H36831   6.086   2.395   3.451 -1.1703  1.8143 -1.1563
  267MOL0     H36832   5.914   1.943   3.239 -1.1594  0.0837  0.5607
  267MOL0     H36833   5.691   1.882   3.135 -4.9158  0.3786 -2.2428
  267MOL0     H36834   5.411   2.204   3.093 -1.6445 -0.1554  1.0981
  267MOL0     H36835   5.458   2.177   2.927 -0.1333  2.4585  2.0918
  267MOL0     H36836   5.206   2.143   3.002  0.0271 -0.5800 -0.5523
  267MOL0     H36837   5.271   1.991   3.070  1.8512  0.7589  1.5275
  267MOL0     H36838   5.318   2.077   2.777  2.1097 -0.9411  0.9512
  267MOL0     H36839   5.346   1.917   2.848 -1.7991 -1.1768 -2.5567
  267MOL0     H36840   5.158   1.930   2.704 -0.5921  1.5186 -0.9514
  267MOL0     H36841   5.074   2.041   2.823 -0.6924 -2.6003  2.3248
  267MOL0     H36842   4.996   1.635   2.955 -1.9164 -0.4934 -1.5547
  267MOL0     H36843   5.622   2.311   3.097  0.1450  0.4452  0.7639
  267MOL0     H36844   5.744   2.464   3.235  1.2667  1.0802  2.0514
  267MOL0     H36845   5.890   2.404   3.315  1.3368 -1.9008 -1.0816
  267MOL0     H36846   5.881   2.433   3.132  0.5424 -1.2424  0.4041
  268MOL0     O36847   2.967   5.563   1.037  0.1154  0.7443 -0.0310
  268MOL0     C36848   3.025   5.590   1.139 -0.3543 -0.3023 -0.4279
  268MOL0     O36849   3.147   5.545   1.178  0.4425  0.8260  0.0369
  268MOL0     C36850   3.188   5.429   1.121  0.3304 -0.1352 -0.4728
  268MOL0     C36851   3.239   5.418   0.992  0.7921 -0.5050 -0.0931
  268MOL0     C36852   3.250   5.287   0.936 -0.1244 -0.2419  0.0194
  268MOL0     C36853   3.216   5.166   1.007  0.1567 -0.5986 -0.1500
  268MOL0     O36854   3.237   5.047   0.946 -0.2407 -0.3962 -0.2855
  268MOL0     C36855   3.159   4.922   0.986  0.4004 -0.0798  1.3957
  268MOL0     C36856   3.245   4.794   0.950 -0.2388  0.1253  0.4129
  268MOL0     C36857   3.386   4.793   0.991  0.2226  1.2207  0.6266
  268MOL0     C36858   3.440   4.648   1.004 -0.3945  0.3490  0.0989
  268MOL0     C36859   3.594   4.644   1.030  0.4728  0.2954  0.2539
  268MOL0     C36860   3.645   4.644   1.174 -0.0890  0.4142  0.3222
  268MOL0     C36861   3.798   4.672   1.192 -0.8503  0.2656  1.0656
  268MOL0     C36862   3.848   4.695   1.327  0.0101 -0.0510  0.2257
  268MOL0     N36863   3.957   4.610   1.356  0.4179 -0.3595 -0.4771
  268MOL0     C36864   3.924   4.489   1.397 -0.2445  0.5351  0.4749
  268MOL0     C36865   4.047   4.425   1.383  0.0754 -1.3747 -0.4662
  268MOL0     C36866   4.088   4.285   1.431 -0.3225  0.5883 -0.8522
  268MOL0     C36867   3.982   4.208   1.499  0.6102  0.2934  0.6888
  268MOL0     C36868   4.033   4.066   1.540  0.7428 -0.4220 -0.2546
  268MOL0     C36869   4.169   4.053   1.605 -0.5961 -0.3910 -0.3810
  268MOL0     O36870   4.207   3.915   1.595  0.2648  0.4936 -0.1152
  268MOL0     C36871   4.292   3.877   1.486 -0.6606  0.4583 -1.1726
  268MOL0     C36872   4.329   3.939   1.373 -0.3511 -0.2307  0.1806
  268MOL0     C36873   4.421   3.879   1.280 -0.3797 -0.1597  0.7044
  268MOL0     C36874   4.473   3.972   1.170  0.2575  0.3418  1.2879
  268MOL0     C36875   4.475   3.747   1.306  0.4681  0.5717 -1.0598
  268MOL0     C36876   4.548   3.655   1.215 -0.3958 -0.2182  0.1681
  268MOL0     O36877   4.606   3.545   1.283  0.2412  0.1642 -0.0983
  268MOL0     C36878   4.720   3.488   1.234  0.2337 -1.1648 -0.4029
  268MOL0     C36879   4.716   3.418   1.109 -0.2949  1.3438 -0.4326
  268MOL0     C36880   4.830   3.350   1.068 -0.6734 -0.5762 -0.0374
  268MOL0     C36881   4.949   3.350   1.147  0.4076 -0.5875 -1.2151
  268MOL0     O36882   5.061   3.281   1.117  0.8117 -0.3075  0.5124
  268MOL0     C36883   5.047   3.142   1.142 -0.0402 -0.0017 -0.2389
  268MOL0     C36884   5.115   3.105   1.267 -0.6060  0.3655 -0.2469
  268MOL0     C36885   5.078   2.960   1.300  0.8399  0.2015 -0.5045
  268MOL0     C36886   5.155   2.912   1.413 -1.1693  0.8347 -0.9790
  268MOL0     C36887   5.141   2.763   1.447  0.6192  0.2197 -1.1418
  268MOL0     C36888   5.221   2.724   1.573  0.6422  1.2677 -0.9080
  268MOL0     C36889   5.178   2.590   1.630 -0.8798  0.2765  0.0946
  268MOL0     C36890   5.294   2.523   1.709 -0.9867  0.3470  0.4148
  268MOL0    Cl36891   5.267   2.517   1.889  0.2233  0.1383 -0.1135
  268MOL0     C36892   4.950   3.416   1.267  0.0772 -0.7117 -0.5531
  268MOL0     C36893   4.833   3.481   1.318 -0.2649 -0.0614 -0.0062
  268MOL0     O36894   4.579   3.693   1.103 -0.1400 -0.0284 -0.1657
  268MOL0     C36895   4.434   3.684   1.429  0.0146 -0.9590  0.4804
  268MOL0     C36896   4.340   3.747   1.502  0.6485  1.5842 -0.9190
  268MOL0     N36897   4.138   4.507   1.339  0.5903  0.6225 -0.1642
  268MOL0     N36898   4.086   4.623   1.324 -0.4105  0.0206  0.5991
  268MOL0     C36899   3.180   5.183   1.136  0.5087  0.2786 -1.1993
  268MOL0     C36900   3.165   5.308   1.193 -0.3656 -0.6910 -0.4317
  268MOL0     C36901   2.962   5.688   1.237 -1.0795  0.2043 -0.0699
  268MOL0     C36902   3.052   5.746   1.334 -0.1414 -0.5645  0.1119
  268MOL0     C36903   3.015   5.835   1.440 -0.8895 -0.0074 -0.1801
  268MOL0     C36904   2.876   5.862   1.448 -0.9235 -1.2159  0.6652
  268MOL0     O36905   2.843   5.919   1.574 -0.3114 -0.3975 -1.2032
  268MOL0     C36906   2.709   5.951   1.599  0.1536 -0.2928 -0.7628
  268MOL0     C36907   2.707   5.996   1.736  0.2653  0.2767  0.4440
  268MOL0     C36908   2.557   6.017   1.774 -0.0777 -0.1449  1.0428
  268MOL0     C36909   2.550   6.004   1.932 -0.3608 -0.2009  1.2587
  268MOL0     C36910   2.422   5.946   1.986 -0.8517  0.6894  0.1662
  268MOL0     C36911   2.322   5.896   2.032  0.0943 -0.5659 -0.0084
  268MOL0     C36912   2.788   5.809   1.348 -0.1722  0.6568  0.6139
  268MOL0     C36913   2.829   5.724   1.243  0.7164  0.0489  1.4674
  268MOL0     C36914   2.720   5.683   1.153 -0.3272 -0.3390 -0.3109
  268MOL0     H36915   3.252   5.512   0.940 -1.3502  0.7293  1.4693
  268MOL0     H36916   3.281   5.276   0.833  6.6190  1.8178  1.3511
  268MOL0     H36917   3.066   4.926   0.929  0.5280 -1.0193  1.1123
  268MOL0     H36918   3.144   4.924   1.094 -1.7373 -2.9071  1.2794
  268MOL0     H36919   3.194   4.705   0.989  1.6981 -1.5950 -0.8141
  268MOL0     H36920   3.252   4.795   0.841  0.8359  2.7271  0.4473
  268MOL0     H36921   3.451   4.844   0.919 -2.2026  1.2263 -1.6956
  268MOL0     H36922   3.409   4.840   1.087 -0.8294 -0.2822  1.6740
  268MOL0     H36923   3.398   4.590   1.087  1.7921  0.1045  1.0787
  268MOL0     H36924   3.423   4.594   0.909  3.6913 -0.8538 -0.1350
  268MOL0     H36925   3.643   4.731   0.984 -1.6904  1.8505  0.7090
  268MOL0     H36926   3.643   4.557   0.986  2.0701  1.1625  0.2421
  268MOL0     H36927   3.594   4.727   1.223  0.2176  0.5820  0.3608
  268MOL0     H36928   3.626   4.545   1.218  0.6335  0.6772  1.2616
  268MOL0     H36929   3.809   4.772   1.148 -1.8744  0.0889  0.3497
  268MOL0     H36930   3.854   4.598   1.134 -2.9348 -1.3576  1.0035
  268MOL0     H36931   3.863   4.800   1.352 -2.6711 -0.0192  2.1145
  268MOL0     H36932   3.768   4.678   1.399  0.3974 -0.5379  0.5551
  268MOL0     H36933   3.838   4.436   1.435  0.8349 -0.2398  1.9056
  268MOL0     H36934   4.170   4.306   1.499 -2.5731  2.3364  1.5395
  268MOL0     H36935   4.122   4.234   1.341  1.4219  1.3487 -0.6527
  268MOL0     H36936   3.963   4.260   1.593 -0.8126 -0.0923  0.6438
  268MOL0     H36937   3.890   4.204   1.439 -0.2945  0.2439  2.0489
  268MOL0     H36938   3.954   4.027   1.605  2.0751  0.3765  1.9511
  268MOL0     H36939   4.019   4.006   1.450 -2.8027  1.0464 -0.8445
  268MOL0     H36940   4.244   4.120   1.562 -1.5120  1.5356  0.8780
  268MOL0     H36941   4.155   4.079   1.710  1.2019  0.2344 -0.2700
  268MOL0     H36942   4.285   4.037   1.363 -0.3658  0.3123  4.1118
  268MOL0     H36943   4.431   4.073   1.168 -2.3829 -0.6599  1.3880
  268MOL0     H36944   4.459   3.924   1.073 -0.7896  2.2786  0.4095
  268MOL0     H36945   4.581   3.977   1.180  0.6626 -0.4247 -1.6599
  268MOL0     H36946   4.628   3.433   1.048 -0.9330  2.6065  0.7230
  268MOL0     H36947   4.826   3.289   0.978 -1.5014 -0.4516 -0.0953
  268MOL0     H36948   4.942   3.115   1.153 -0.1454  0.6443  0.3999
  268MOL0     H36949   5.097   3.095   1.056 -0.5494  0.8420 -1.0157
  268MOL0     H36950   5.223   3.117   1.259 -0.3477 -0.3641  1.7364
  268MOL0     H36951   5.068   3.170   1.341 -0.6065 -0.3736  0.4071
  268MOL0     H36952   5.116   2.900   1.217 -0.1947 -0.1540 -0.7361
  268MOL0     H36953   4.972   2.942   1.317  1.2703 -0.2667  2.0482
  268MOL0     H36954   5.113   2.966   1.499 -1.4441 -1.9543  0.7813
  268MOL0     H36955   5.260   2.938   1.401 -0.7213  0.7649  1.9854
  268MOL0     H36956   5.037   2.732   1.453  0.5967  0.4744 -0.0984
  268MOL0     H36957   5.181   2.714   1.358  0.6079 -1.3137 -0.3308
  268MOL0     H36958   5.190   2.800   1.646 -1.0352  0.2542 -0.4935
  268MOL0     H36959   5.329   2.719   1.556  0.6049  0.7942 -1.0232
  268MOL0     H36960   5.141   2.523   1.553 -0.7802 -1.2789  1.3478
  268MOL0     H36961   5.089   2.604   1.692  0.0469 -1.3058  1.8934
  268MOL0     H36962   5.392   2.566   1.687 -0.6421 -0.2971  0.6745
  268MOL0     H36963   5.302   2.426   1.659 -0.0245  1.3994 -1.6134
  268MOL0     H36964   5.033   3.406   1.337 -1.2680  0.5978  1.3198
  268MOL0     H36965   4.837   3.532   1.414  0.8388  3.2395 -1.6766
  268MOL0     H36966   4.474   3.588   1.461  3.1203  0.0256 -0.1292
  268MOL0     H36967   4.300   3.694   1.587  1.1166 -1.9699 -2.6903
  268MOL0     H36968   3.171   5.098   1.204  2.1190  0.3284 -0.9057
  268MOL0     H36969   3.145   5.327   1.298 -0.4186  3.1310 -1.0156
  268MOL0     H36970   3.158   5.734   1.316  0.1874  1.3290  0.5151
  268MOL0     H36971   3.094   5.873   1.504 -1.1994 -1.6687  1.2484
  268MOL0     H36972   2.673   6.025   1.527 -0.4480 -1.8126 -2.0703
  268MOL0     H36973   2.645   5.863   1.586 -1.5603  0.2982  2.4739
  268MOL0     H36974   2.754   6.095   1.736  1.6886 -0.3390 -1.7082
  268MOL0     H36975   2.753   5.927   1.807 -0.5814 -0.2661  0.4785
  268MOL0     H36976   2.529   6.116   1.737  0.0013  0.3894  2.3732
  268MOL0     H36977   2.493   5.942   1.727  0.8767  0.0960 -0.7118
  268MOL0     H36978   2.568   6.100   1.982 -0.0102 -0.0170  0.7971
  268MOL0     H36979   2.623   5.925   1.953  1.2801 -0.7156 -4.5908
  268MOL0     H36980   2.232   5.854   2.072  0.7849 -0.4681  1.7102
  268MOL0     H36981   2.686   5.829   1.377  0.6368  0.7708  3.7974
  268MOL0     H36982   2.743   5.580   1.127  1.4953  0.1406 -0.7430
  268MOL0     H36983   2.618   5.680   1.193 -0.6970 -1.7126 -1.2854
  268MOL0     H36984   2.721   5.751   1.067  0.9768  1.8867  1.3415
  269MOL0     O36985   9.961   1.220   9.936 -1.0211 -0.1112 -0.6023
  269MOL0     C36986  10.008   1.155  10.032 -0.9085 -0.2469  0.4123
  269MOL0     O36987  10.003   1.018  10.054  0.5838 -0.2520 -0.0336
  269MOL0     C36988   9.954   0.927   9.958 -0.2245  0.2572 -0.0893
  269MOL0     C36989   9.977   0.932   9.819 -0.0973  0.0254  0.5666
  269MOL0     C36990   9.930   0.829   9.734  0.3946 -0.1282  0.2302
  269MOL0     C36991   9.865   0.716   9.785 -0.2950 -0.1565  0.8526
  269MOL0     O36992   9.834   0.616   9.699 -0.0739 -0.2449 -0.4197
  269MOL0     C36993   9.698   0.565   9.696 -0.9325  0.0691  0.1983
  269MOL0     C36994   9.592   0.664   9.664 -0.0660 -0.8479  0.1923
  269MOL0     C36995   9.452   0.620   9.642 -0.3485 -0.6103 -0.4856
  269MOL0     C36996   9.415   0.498   9.732  0.2116 -0.7044 -0.3061
  269MOL0     C36997   9.271   0.472   9.715  0.0592  0.1313 -1.0793
  269MOL0     C36998   9.240   0.348   9.799  0.1941 -0.3816  0.9420
  269MOL0     C36999   9.087   0.324   9.813 -1.2472 -0.5260  0.2631
  269MOL0     C37000   9.048   0.179   9.817 -0.4188  0.0094 -0.1970
  269MOL0     N37001   9.113   0.112   9.932  0.0378  0.7512  0.2899
  269MOL0     C37002   9.098   0.150  10.071 -1.1389 -0.5077  0.8040
  269MOL0     C37003   9.191   0.074  10.129 -0.0580  0.3036  0.6973
  269MOL0     C37004   9.232   0.116  10.267 -0.2060  0.1473  0.1887
  269MOL0     C37005   9.214  -0.002  10.365 -0.5654 -1.3158  0.1895
  269MOL0     C37006   9.242   0.027  10.510  0.3692 -0.1068  1.4317
  269MOL0     C37007   9.249  -0.113  10.569 -0.4143 -0.3746 -0.3011
  269MOL0     O37008   9.279  -0.114  10.709 -0.0160  0.1679 -0.0105
  269MOL0     C37009   9.297  -0.242  10.760  1.2634  0.6091 -1.2734
  269MOL0     C37010   9.294  -0.364  10.694 -0.1865 -0.0502  0.1712
  269MOL0     C37011   9.314  -0.490  10.753  0.1031 -0.8322 -0.5142
  269MOL0     C37012   9.299  -0.613  10.670 -0.2910 -0.3852 -0.5162
  269MOL0     C37013   9.367  -0.494  10.891 -0.7462 -0.3497  0.8848
  269MOL0     C37014   9.414  -0.615  10.966  1.2287 -0.3919  0.1110
  269MOL0     O37015   9.481  -0.605  11.086 -0.1705 -1.0905 -1.2368
  269MOL0     C37016   9.465  -0.714  11.174 -1.1119 -1.2052 -0.4118
  269MOL0     C37017   9.578  -0.780  11.218  0.1043 -0.5223  0.7995
  269MOL0     C37018   9.562  -0.884  11.317 -0.3230 -0.3206 -0.5420
  269MOL0     C37019   9.431  -0.911  11.369  0.2024 -0.2004 -0.0118
  269MOL0     O37020   9.416  -0.997  11.476  0.1620 -0.3154  0.3435
  269MOL0     C37021   9.532  -1.057  11.544 -0.3457 -0.3988 -0.4613
  269MOL0     C37022   9.478  -1.135  11.663  0.4707 -0.2424  0.1282
  269MOL0     C37023   9.406  -1.272  11.641 -0.7383 -0.7917  0.1471
  269MOL0     C37024   9.390  -1.344  11.780  0.1959 -0.3026  0.5071
  269MOL0     C37025   9.271  -1.295  11.855 -0.5483 -0.1582  0.1652
  269MOL0     C37026   9.257  -1.367  11.990 -0.6990 -0.6665 -0.4396
  269MOL0     C37027   9.378  -1.347  12.087  0.4325  0.4255 -0.9403
  269MOL0     C37028   9.437  -1.206  12.107 -0.5440  0.1076 -0.5423
  269MOL0    Cl37029   9.542  -1.211  12.260 -0.1654 -0.3386 -0.2368
  269MOL0     C37030   9.318  -0.857  11.308  0.7255  0.3444  0.2417
  269MOL0     C37031   9.334  -0.753  11.217 -0.4071  0.7963 -0.4755
  269MOL0     O37032   9.399  -0.724  10.910  0.3689 -0.3998 -0.3752
  269MOL0     C37033   9.373  -0.370  10.958 -0.1480 -0.9259  0.8518
  269MOL0     C37034   9.344  -0.252  10.895 -0.2729  0.0979 -0.1382
  269MOL0     N37035   9.253  -0.013  10.035 -0.4204 -0.6735 -0.0622
  269MOL0     N37036   9.204   0.011   9.921 -0.1513  0.3998 -0.7520
  269MOL0     C37037   9.848   0.713   9.927 -1.1364  0.6635  0.3743
  269MOL0     C37038   9.902   0.811  10.015 -0.0668 -1.0666 -0.7359
  269MOL0     C37039  10.057   1.243  10.145 -0.3910  0.0222 -0.2652
  269MOL0     C37040  10.001   1.378  10.154  0.2712  0.9702 -0.0119
  269MOL0     C37041  10.039   1.466  10.253 -0.2224  0.3983  0.3542
  269MOL0     C37042  10.142   1.439  10.340  0.2881 -0.3772  0.1163
  269MOL0     O37043  10.181   1.519  10.432 -0.1398 -0.2466  0.0489
  269MOL0     C37044  10.089   1.607  10.501 -0.1699  0.3309 -0.6002
  269MOL0     C37045  10.023   1.523  10.609 -1.0973  0.2315  0.8384
  269MOL0     C37046  10.115   1.500  10.741 -0.4760  0.2388  1.2260
  269MOL0     C37047  10.039   1.532  10.869  0.4630 -0.1751 -0.3210
  269MOL0     C37048  10.071   1.670  10.900  0.0217  0.3976  0.0101
  269MOL0     C37049  10.098   1.789  10.920  0.9108  0.6039  0.0075
  269MOL0     C37050  10.204   1.316  10.334 -0.6738  1.2254  0.3949
  269MOL0     C37051  10.163   1.212  10.240 -0.2859  0.5855  0.3265
  269MOL0     C37052  10.229   1.075  10.231  0.4201  0.3574  0.2586
  269MOL0     H37053  10.018   1.027   9.787  0.1648  0.5809  2.4391
  269MOL0     H37054   9.962   0.831   9.630  1.8287  2.2845  0.6398
  269MOL0     H37055   9.688   0.501   9.785  1.9014 -1.5448 -0.5223
  269MOL0     H37056   9.689   0.495   9.613  0.6927  0.0738 -0.0035
  269MOL0     H37057   9.596   0.741   9.741 -0.5210 -0.3720 -0.2563
  269MOL0     H37058   9.626   0.710   9.570  0.1832  0.8337  1.0740
  269MOL0     H37059   9.389   0.705   9.673  1.7333  0.7816  0.1608
  269MOL0     H37060   9.441   0.601   9.535  2.1288  1.2869 -1.1784
  269MOL0     H37061   9.470   0.405   9.712  0.2729 -1.0218  1.2000
  269MOL0     H37062   9.423   0.516   9.840 -2.8802  1.3327 -0.3070
  269MOL0     H37063   9.240   0.451   9.613 -0.7909  0.6606 -0.9382
  269MOL0     H37064   9.219   0.559   9.756  0.0766  0.2167 -1.2386
  269MOL0     H37065   9.296   0.265   9.756 -1.9478 -1.4282  0.0058
  269MOL0     H37066   9.286   0.352   9.898  1.6235 -0.3226  0.3012
  269MOL0     H37067   9.033   0.362   9.726 -1.2740 -1.7063 -0.2502
  269MOL0     H37068   9.041   0.374   9.899  1.0118 -0.0889  1.2906
  269MOL0     H37069   8.939   0.164   9.819 -0.5829 -1.0092 -4.7813
  269MOL0     H37070   9.074   0.120   9.729 -0.2455  1.8234 -1.4216
  269MOL0     H37071   9.033   0.219  10.124  1.1412 -0.6096  4.0063
  269MOL0     H37072   9.159   0.194  10.291 -1.7991  0.0847 -3.7184
  269MOL0     H37073   9.334   0.157  10.268 -0.8598  1.8952 -0.5884
  269MOL0     H37074   9.110  -0.034  10.355 -1.4404  0.9492  1.3205
  269MOL0     H37075   9.282  -0.080  10.331  2.2529  0.9232  0.2940
  269MOL0     H37076   9.337   0.079  10.523 -0.8680  2.0030  2.6204
  269MOL0     H37077   9.163   0.092  10.550 -2.8304 -0.1090 -3.8767
  269MOL0     H37078   9.157  -0.165  10.541 -1.5464  1.7598 -0.7854
  269MOL0     H37079   9.329  -0.166  10.518 -0.1546 -1.5926  1.2728
  269MOL0     H37080   9.256  -0.358  10.593 -1.9430 -0.4619  0.7763
  269MOL0     H37081   9.265  -0.579  10.572 -1.5922 -2.5372 -0.8832
  269MOL0     H37082   9.237  -0.694  10.709  1.7741 -2.4295 -1.2253
  269MOL0     H37083   9.402  -0.646  10.657 -0.8402 -1.7319 -1.6787
  269MOL0     H37084   9.672  -0.763  11.167 -0.7793 -0.6798 -0.9336
  269MOL0     H37085   9.650  -0.940  11.347 -0.6172 -1.6557 -2.0212
  269MOL0     H37086   9.599  -1.110  11.477 -0.4431  1.3107 -2.0050
  269MOL0     H37087   9.589  -0.974  11.586  1.0142 -1.5336 -0.0091
  269MOL0     H37088   9.555  -1.142  11.740  0.5881 -1.7593 -0.0923
  269MOL0     H37089   9.404  -1.069  11.709 -2.8988 -3.1275 -0.7270
  269MOL0     H37090   9.448  -1.336  11.562 -0.9111 -0.3416 -0.3158
  269MOL0     H37091   9.305  -1.262  11.600 -0.2528 -1.9495 -1.4303
  269MOL0     H37092   9.480  -1.329  11.840 -0.0519  1.4700  0.4790
  269MOL0     H37093   9.377  -1.451  11.760 -1.5251 -0.4608  2.2121
  269MOL0     H37094   9.274  -1.187  11.872  0.0392  0.4437 -3.1404
  269MOL0     H37095   9.189  -1.315  11.786  3.1222  0.7226 -5.0208
  269MOL0     H37096   9.242  -1.475  11.982  2.9762 -1.2395 -1.4698
  269MOL0     H37097   9.164  -1.325  12.028  0.4075  0.9897  0.5881
  269MOL0     H37098   9.451  -1.424  12.060 -1.0833 -0.7286 -1.8795
  269MOL0     H37099   9.350  -1.367  12.191  1.7141  0.2469 -0.6053
  269MOL0     H37100   9.356  -1.137  12.131 -1.1299 -1.0828  1.1490
  269MOL0     H37101   9.494  -1.171  12.021  0.1997 -0.1931 -0.1828
  269MOL0     H37102   9.225  -0.895  11.349 -0.1564  3.5405  1.4838
  269MOL0     H37103   9.252  -0.690  11.184 -0.0234  0.2164 -2.6550
  269MOL0     H37104   9.406  -0.373  11.062  0.6570 -1.7595  0.5839
  269MOL0     H37105   9.350  -0.163  10.957  0.2823  0.4014 -0.6117
  269MOL0     H37106   9.800   0.621   9.962  1.3129  0.0579  2.4798
  269MOL0     H37107   9.893   0.813  10.123  0.3101  2.1502 -0.6599
  269MOL0     H37108   9.916   1.411  10.095 -2.2692 -4.4902 -0.0273
  269MOL0     H37109   9.983   1.559  10.258 -1.8605 -0.5532  0.3488
  269MOL0     H37110  10.153   1.682  10.549  1.5099  4.3443 -7.7051
  269MOL0     H37111  10.018   1.659  10.437 -2.1157 -2.6465 -1.0245
  269MOL0     H37112   9.979   1.433  10.566 -2.9588  1.9961 -1.1977
  269MOL0     H37113   9.936   1.588  10.618 -0.8275  1.1731 -2.3116
  269MOL0     H37114  10.155   1.399  10.739  1.7770  1.0551  2.4100
  269MOL0     H37115  10.212   1.549  10.744  0.2523 -1.1801  1.5030
  269MOL0     H37116  10.077   1.469  10.950  0.7666 -2.0009 -1.8321
  269MOL0     H37117   9.930   1.534  10.857  0.4479  0.7525 -0.1390
  269MOL0     H37118  10.112   1.895  10.912 -1.1401  1.0036  1.0840
  269MOL0     H37119  10.287   1.311  10.403  0.1465  0.0531 -0.6250
  269MOL0     H37120  10.228   1.041  10.127 -0.5916 -0.5439  0.5491
  269MOL0     H37121  10.330   1.088  10.273 -0.6543  0.2150  3.0993
  269MOL0     H37122  10.175   0.993  10.279 -3.0570  1.6187 -1.1826
  270MOL0     O37123   2.198   9.023   2.557  0.3069 -0.1641 -0.4902
  270MOL0     C37124   2.086   8.989   2.590 -0.6705 -0.9341 -0.7022
  270MOL0     O37125   1.972   9.012   2.517 -0.1603  0.5221 -0.1385
  270MOL0     C37126   1.979   9.096   2.408  0.2001 -0.7455  0.1743
  270MOL0     C37127   2.063   9.062   2.299  0.0963  0.0762  0.0383
  270MOL0     C37128   2.082   9.154   2.196  0.3399  0.1381 -0.3779
  270MOL0     C37129   2.024   9.282   2.209 -0.0715  0.8614 -0.2654
  270MOL0     O37130   2.043   9.383   2.116 -0.3657 -0.0798  0.1867
  270MOL0     C37131   2.183   9.407   2.084 -0.3577 -0.1797  1.1283
  270MOL0     C37132   2.205   9.565   2.076 -0.8670  0.7495 -1.0244
  270MOL0     C37133   2.344   9.610   2.017  0.2957  0.4091 -0.1830
  270MOL0     C37134   2.356   9.763   1.974  0.8646  0.1371  0.4065
  270MOL0     C37135   2.471   9.775   1.878 -0.7013  0.1274 -0.4188
  270MOL0     C37136   2.503   9.917   1.842 -0.7259 -0.1259 -0.5303
  270MOL0     C37137   2.545  10.009   1.955 -0.7479 -0.3542  0.4494
  270MOL0     C37138   2.606  10.137   1.912  0.2409  0.0972  0.4089
  270MOL0     N37139   2.640  10.225   2.025  0.0963 -0.3611 -0.3745
  270MOL0     C37140   2.550  10.308   2.099 -0.1953  0.5677  0.7038
  270MOL0     C37141   2.621  10.395   2.167  0.9590  0.0627  0.1742
  270MOL0     C37142   2.558  10.500   2.257  0.3569 -0.3911  0.5085
  270MOL0     C37143   2.647  10.628   2.268  0.1092 -0.3560 -0.4835
  270MOL0     C37144   2.589  10.745   2.361  0.5744  0.5541 -0.6456
  270MOL0     C37145   2.439  10.792   2.342 -0.0217 -0.6737  0.7139
  270MOL0     O37146   2.398  10.854   2.466 -0.5823 -0.6116  0.0610
  270MOL0     C37147   2.271  10.847   2.508  1.3436  1.1713 -0.4434
  270MOL0     C37148   2.197  10.959   2.473  0.1852 -0.0833 -0.3892
  270MOL0     C37149   2.070  10.986   2.526  1.5768 -0.1305  0.6319
  270MOL0     C37150   2.003  11.110   2.473  0.5892 -0.2170 -0.9690
  270MOL0     C37151   2.004  10.880   2.597  0.4150 -1.0065  0.5180
  270MOL0     C37152   1.854  10.874   2.629 -0.8199 -0.6588  1.4726
  270MOL0     O37153   1.804  10.762   2.696 -0.3323  0.3563 -0.1233
  270MOL0     C37154   1.674  10.779   2.743 -0.3779  0.0420 -0.2683
  270MOL0     C37155   1.639  10.870   2.840  0.7562  0.4513 -0.3933
  270MOL0     C37156   1.501  10.879   2.875 -0.0017 -0.1256  0.1532
  270MOL0     C37157   1.401  10.785   2.831  0.1678 -1.8253 -0.1532
  270MOL0     O37158   1.277  10.795   2.887 -0.1931 -0.0395 -0.9987
  270MOL0     C37159   1.158  10.729   2.837 -1.0367 -0.7260  0.4514
  270MOL0     C37160   1.027  10.809   2.810  0.1454  0.6585 -0.9076
  270MOL0     C37161   0.935  10.732   2.719 -0.9457 -0.1802  0.0511
  270MOL0     C37162   0.819  10.816   2.691  0.4756 -0.0845  0.5253
  270MOL0     C37163   0.704  10.744   2.615  0.0142 -0.2519 -0.6842
  270MOL0     C37164   0.622  10.653   2.711 -0.1923 -1.1889  0.1089
  270MOL0     C37165   0.510  10.592   2.633 -0.4550  0.5134 -1.1617
  270MOL0     C37166   0.417  10.507   2.719  0.3115 -0.0793  0.1499
  270MOL0    Cl37167   0.312  10.609   2.823 -0.6385  0.2524 -0.2207
  270MOL0     C37168   1.449  10.688   2.737 -0.0368  1.0294  0.7563
  270MOL0     C37169   1.579  10.684   2.690  0.2972  0.3246  0.0177
  270MOL0     O37170   1.785  10.966   2.586 -0.0040 -0.7646 -0.9661
  270MOL0     C37171   2.085  10.765   2.620 -0.3001 -0.3586  0.2960
  270MOL0     C37172   2.219  10.750   2.595  0.1118 -0.1674  0.2151
  270MOL0     N37173   2.750  10.378   2.129 -0.8395  0.0722  0.0701
  270MOL0     N37174   2.762  10.279   2.052 -0.1799  0.3385 -0.3152
  270MOL0     C37175   1.942   9.310   2.316  0.9699 -0.8771 -0.8669
  270MOL0     C37176   1.925   9.218   2.419  0.3713  0.1570 -0.0061
  270MOL0     C37177   2.063   8.897   2.715  0.3490 -0.5095  0.0776
  270MOL0     C37178   1.936   8.835   2.725 -0.5476  0.5449  0.5506
  270MOL0     C37179   1.913   8.739   2.827 -0.3060  0.2913 -0.5372
  270MOL0     C37180   1.998   8.729   2.935 -0.2836  0.1287  0.2871
  270MOL0     O37181   1.953   8.657   3.045 -0.6173  0.0773 -0.2136
  270MOL0     C37182   1.904   8.750   3.143  0.2573  0.1215 -0.2068
  270MOL0     C37183   1.993   8.717   3.266  0.8338 -0.3843  0.3321
  270MOL0     C37184   1.972   8.826   3.381 -0.6134  1.1009  0.5940
  270MOL0     C37185   2.096   8.872   3.433 -0.4347 -0.8960 -0.2871
  270MOL0     C37186   2.084   8.982   3.528  0.6077  1.1877 -0.1224
  270MOL0     C37187   2.083   9.077   3.601 -0.1639  0.2567  0.8769
  270MOL0     C37188   2.115   8.794   2.932 -0.9362 -0.5541  0.0733
  270MOL0     C37189   2.160   8.875   2.824 -0.1728 -0.4340  0.2704
  270MOL0     C37190   2.301   8.934   2.828  0.5683 -0.2398  0.3707
  270MOL0     H37191   2.120   8.969   2.302 -0.7797 -0.5345 -1.3913
  270MOL0     H37192   2.137   9.137   2.105  0.2427  1.2637 -0.6715
  270MOL0     H37193   2.209   9.364   1.987  0.1243  1.5057  0.4697
  270MOL0     H37194   2.244   9.371   2.167  1.8134  1.2520  0.2342
  270MOL0     H37195   2.126   9.614   2.017 -2.3708  0.2947  0.5602
  270MOL0     H37196   2.202   9.601   2.179 -0.0079 -5.0827  1.3802
  270MOL0     H37197   2.426   9.591   2.086 -1.9524  3.0102  3.6029
  270MOL0     H37198   2.359   9.543   1.932 -0.0882 -0.3594  0.3537
  270MOL0     H37199   2.261   9.792   1.929  2.7113  1.6476 -2.8212
  270MOL0     H37200   2.361   9.825   2.064 -0.0972  0.6259  0.1359
  270MOL0     H37201   2.447   9.720   1.786  3.2687  3.2867 -3.7575
  270MOL0     H37202   2.562   9.729   1.920 -0.1772  0.9964 -0.5804
  270MOL0     H37203   2.593   9.921   1.779  0.4776  4.0305  1.0625
  270MOL0     H37204   2.420   9.955   1.782 -1.6658 -0.3544  0.5946
  270MOL0     H37205   2.628   9.954   2.002 -0.7918 -1.1998 -0.4271
  270MOL0     H37206   2.453  10.024   2.011 -2.5177  1.0346 -2.5951
  270MOL0     H37207   2.703  10.118   1.866 -1.0517 -0.0144 -2.4643
  270MOL0     H37208   2.547  10.197   1.842  0.0247  1.5052  1.7313
  270MOL0     H37209   2.443  10.287   2.094  0.4383 -2.9912 -2.3910
  270MOL0     H37210   2.539  10.460   2.357 -0.5233 -0.9850  0.1254
  270MOL0     H37211   2.459  10.523   2.216 -0.1932 -0.1151  1.9195
  270MOL0     H37212   2.747  10.607   2.307  0.8590  1.8742 -1.0378
  270MOL0     H37213   2.665  10.659   2.164 -1.6791 -2.3587 -1.4788
  270MOL0     H37214   2.594  10.718   2.467 -0.2215  0.4542 -0.6263
  270MOL0     H37215   2.655  10.832   2.358  1.0075  0.6253  3.9886
  270MOL0     H37216   2.445  10.863   2.259  0.4333  0.8376  1.9991
  270MOL0     H37217   2.375  10.708   2.313  1.6594 -2.2062  1.1710
  270MOL0     H37218   2.250  11.025   2.404  0.0147 -0.2956 -0.7258
  270MOL0     H37219   1.935  11.083   2.392 -1.6257 -0.7528  0.9631
  270MOL0     H37220   2.073  11.187   2.439  1.2419  0.3510  1.4375
  270MOL0     H37221   1.943  11.156   2.552  0.0359 -0.5560 -1.1889
  270MOL0     H37222   1.715  10.929   2.891  0.8816 -0.1405  0.1150
  270MOL0     H37223   1.470  10.941   2.958 -2.7898 -3.9360  2.2677
  270MOL0     H37224   1.186  10.676   2.745 -1.2754  0.1599 -0.1457
  270MOL0     H37225   1.128  10.657   2.914  1.4886 -0.2090  2.0122
  270MOL0     H37226   0.975  10.835   2.903 -0.3668  0.8163 -1.2352
  270MOL0     H37227   1.061  10.902   2.764  1.4626  1.0903  0.8088
  270MOL0     H37228   0.906  10.632   2.752 -1.9133  0.2301  0.4836
  270MOL0     H37229   0.992  10.716   2.627 -0.1889 -2.7026  0.8684
  270MOL0     H37230   0.858  10.893   2.624  3.3587 -1.6887  0.1771
  270MOL0     H37231   0.774  10.857   2.781 -1.0148  3.8823 -1.7822
  270MOL0     H37232   0.646  10.817   2.557  2.6110  1.6280 -1.0938
  270MOL0     H37233   0.749  10.689   2.532 -0.7789  0.5250 -1.6643
  270MOL0     H37234   0.582  10.716   2.790 -1.4530  1.4736 -2.4357
  270MOL0     H37235   0.685  10.571   2.748  0.6571 -1.6691 -2.1900
  270MOL0     H37236   0.564  10.519   2.573 -2.0064 -0.3151 -1.6062
  270MOL0     H37237   0.450  10.657   2.567  1.2385  3.0157 -0.3735
  270MOL0     H37238   0.483  10.443   2.778  1.3380 -2.0818 -2.9869
  270MOL0     H37239   0.345  10.455   2.656  0.1101  0.2808  0.0784
  270MOL0     H37240   1.390  10.609   2.692  2.6263 -0.2311 -0.8035
  270MOL0     H37241   1.614  10.607   2.622 -0.3888 -0.7754  0.8611
  270MOL0     H37242   2.042  10.693   2.688 -1.4025  1.9088  2.1311
  270MOL0     H37243   2.277  10.661   2.613 -0.6166 -0.4447  1.2093
  270MOL0     H37244   1.900   9.408   2.338  1.7466 -0.8136  0.4347
  270MOL0     H37245   1.871   9.238   2.511 -0.0600 -0.6346 -0.0736
  270MOL0     H37246   1.870   8.847   2.639  1.2339 -1.3315 -1.1936
  270MOL0     H37247   1.820   8.685   2.825 -0.2156  0.0150  1.3586
  270MOL0     H37248   1.926   8.853   3.116  1.7269  0.1617  1.0176
  270MOL0     H37249   1.795   8.741   3.145  0.0307  2.3354 -0.2048
  270MOL0     H37250   2.095   8.720   3.227  0.8455  4.1362  0.1335
  270MOL0     H37251   1.975   8.616   3.303  1.7644 -0.2753  1.1100
  270MOL0     H37252   1.912   8.909   3.342  0.3504  1.5175 -0.0478
  270MOL0     H37253   1.912   8.783   3.463 -0.8466 -1.8020 -0.9544
  270MOL0     H37254   2.151   8.925   3.355 -0.0583  0.1960  0.6969
  270MOL0     H37255   2.146   8.790   3.485 -1.5814 -1.5132 -0.1144
  270MOL0     H37256   2.088   9.168   3.658 -5.5092  1.2456  0.2627
  270MOL0     H37257   2.180   8.790   3.019  1.3573  0.7057 -1.4662
  270MOL0     H37258   2.357   8.907   2.738  4.3261 -1.5150  2.8766
  270MOL0     H37259   2.308   9.042   2.842  2.2564  0.1789 -2.8680
  270MOL0     H37260   2.350   8.875   2.906 -3.0816 -2.4829  1.2395
  271MOL0     O37261  10.497   0.700   0.031 -0.2198  0.0101 -0.1373
  271MOL0     C37262  10.602   0.731   0.090  0.6959 -0.9461 -0.9095
  271MOL0     O37263  10.717   0.774   0.033  0.3423  0.0468  0.0137
  271MOL0     C37264  10.721   0.803  -0.098  0.7175  0.2104  0.3021
  271MOL0     C37265  10.761   0.926  -0.150 -1.3476  0.6233 -0.9463
  271MOL0     C37266  10.753   0.953  -0.282  0.0423 -0.2955  0.4974
  271MOL0     C37267  10.712   0.854  -0.374 -0.4434  0.3064 -1.2018
  271MOL0     O37268  10.698   0.890  -0.500 -0.1328 -0.7827  0.1145
  271MOL0     C37269  10.662   0.791  -0.594 -0.0865 -0.0907  1.0981
  271MOL0     C37270  10.635   0.863  -0.720 -0.3239 -0.6686  0.8394
  271MOL0     C37271  10.568   0.774  -0.833  0.4587  0.1222  0.4704
  271MOL0     C37272  10.565   0.866  -0.959  0.3880  0.5704 -0.6077
  271MOL0     C37273  10.475   0.819  -1.075 -0.1588  0.0169  0.6605
  271MOL0     C37274  10.548   0.712  -1.158 -0.4442 -0.0236  0.0763
  271MOL0     C37275  10.460   0.659  -1.264 -0.2835 -0.2299 -0.2677
  271MOL0     C37276  10.510   0.533  -1.332  0.3964 -0.9306  0.4617
  271MOL0     N37277  10.477   0.409  -1.245 -0.2181 -0.5367  0.5072
  271MOL0     C37278  10.379   0.321  -1.281 -0.0508 -0.0126 -0.0278
  271MOL0     C37279  10.361   0.236  -1.178 -0.7431 -0.7629 -0.2667
  271MOL0     C37280  10.250   0.133  -1.179 -0.4706  0.2626 -0.6696
  271MOL0     C37281  10.253   0.042  -1.059  0.7789 -0.6347 -0.0840
  271MOL0     C37282  10.144  -0.071  -1.074 -0.8197  0.3342  0.1205
  271MOL0     C37283  10.211  -0.204  -1.108  0.4440 -0.0203  0.2954
  271MOL0     O37284  10.250  -0.218  -1.251  0.4187  0.1511 -0.2367
  271MOL0     C37285  10.149  -0.227  -1.343 -0.8221 -0.1845  0.1941
  271MOL0     C37286  10.119  -0.137  -1.443  0.9208 -0.7283  1.0764
  271MOL0     C37287  10.003  -0.154  -1.527 -0.5538 -0.3455 -0.2115
  271MOL0     C37288   9.974  -0.050  -1.631 -0.2436  0.2417  0.4466
  271MOL0     C37289   9.929  -0.268  -1.515  0.4457 -0.2377 -1.4201
  271MOL0     C37290   9.814  -0.300  -1.606  0.1566 -0.3392 -0.7435
  271MOL0     O37291   9.729  -0.206  -1.644 -0.4768  0.2346 -0.4414
  271MOL0     C37292   9.630  -0.236  -1.728  0.7232 -0.2686  0.7524
  271MOL0     C37293   9.492  -0.258  -1.696  0.7475  0.3424 -0.0145
  271MOL0     C37294   9.403  -0.286  -1.800 -0.0200 -0.3581 -0.1964
  271MOL0     C37295   9.435  -0.302  -1.932 -0.7930  0.4394 -0.0553
  271MOL0     O37296   9.353  -0.342  -2.040  0.0878 -0.3794 -1.3432
  271MOL0     C37297   9.238  -0.252  -2.045  0.3666  1.0243  0.2902
  271MOL0     C37298   9.199  -0.249  -2.190  0.3264 -1.0626 -0.1451
  271MOL0     C37299   9.127  -0.122  -2.233  0.0078  0.2964  0.0075
  271MOL0     C37300   9.038  -0.141  -2.358  0.0049  0.7445  0.5733
  271MOL0     C37301   9.004  -0.003  -2.421  0.2725 -0.2121 -0.3635
  271MOL0     C37302   8.970  -0.011  -2.570  0.1913 -0.5077  0.1351
  271MOL0     C37303   8.881  -0.129  -2.605 -0.1489 -0.4638  0.6218
  271MOL0     C37304   8.863  -0.140  -2.754  0.3566  0.6491  0.6123
  271MOL0    Cl37305   8.734  -0.018  -2.815  0.1521 -0.1291 -0.0199
  271MOL0     C37306   9.575  -0.284  -1.963 -0.1857 -0.0949 -0.1830
  271MOL0     C37307   9.671  -0.241  -1.863  0.3178  0.6431 -0.4336
  271MOL0     O37308   9.803  -0.423  -1.636 -0.2367  0.1903 -0.0186
  271MOL0     C37309   9.967  -0.368  -1.417  0.2501 -0.6425 -0.0607
  271MOL0     C37310  10.085  -0.350  -1.347  0.5936  0.1790 -0.2402
  271MOL0     N37311  10.450   0.274  -1.074  0.7664  0.3895  0.4381
  271MOL0     N37312  10.518   0.375  -1.119 -0.7511 -0.9313 -0.3940
  271MOL0     C37313  10.673   0.726  -0.324 -0.8929 -0.1644 -0.0215
  271MOL0     C37314  10.689   0.702  -0.190  0.6346  0.4312 -0.9424
  271MOL0     C37315  10.607   0.747   0.238  0.2198  0.3329  0.5112
  271MOL0     C37316  10.730   0.776   0.292 -0.3329 -1.0085 -0.0325
  271MOL0     C37317  10.739   0.799   0.435 -0.1649  0.2858 -0.2226
  271MOL0     C37318  10.629   0.805   0.521  0.9420 -0.5439  0.7044
  271MOL0     O37319  10.640   0.831   0.654 -0.2399  0.4031 -0.2321
  271MOL0     C37320  10.774   0.838   0.700  0.3956 -0.8082 -1.0081
  271MOL0     C37321  10.771   0.887   0.846 -0.6569  0.0428  0.6772
  271MOL0     C37322  10.726   0.784   0.945 -0.5593 -0.2223 -0.5526
  271MOL0     C37323  10.649   0.835   1.066 -0.2678  0.5584  0.7828
  271MOL0     C37324  10.505   0.836   1.043 -0.2280  0.4991 -1.1161
  271MOL0     C37325  10.394   0.803   1.027  0.6372  0.8437  0.3023
  271MOL0     C37326  10.502   0.771   0.461 -0.4827  0.0382  0.0117
  271MOL0     C37327  10.493   0.746   0.321  0.1802  0.8007  0.2093
  271MOL0     C37328  10.354   0.721   0.259  0.8110 -0.3121 -0.2942
  271MOL0     H37329  10.780   0.995  -0.068 -0.4828 -0.6759  0.0006
  271MOL0     H37330  10.778   1.045  -0.335 -1.6983  0.0640  0.2291
  271MOL0     H37331  10.563   0.750  -0.572  0.1945 -0.9347  0.8319
  271MOL0     H37332  10.741   0.716  -0.592  0.8629  0.9091  1.6839
  271MOL0     H37333  10.572   0.947  -0.690  1.8180 -0.3584  5.1999
  271MOL0     H37334  10.730   0.906  -0.751  0.0815 -0.1405  2.7055
  271MOL0     H37335  10.615   0.676  -0.847 -0.2941  0.0667 -2.1233
  271MOL0     H37336  10.464   0.762  -0.803  0.0289  1.0262 -0.5928
  271MOL0     H37337  10.524   0.961  -0.923  3.2036 -0.0508  5.5448
  271MOL0     H37338  10.666   0.880  -0.997  0.2389 -1.8850 -2.1158
  271MOL0     H37339  10.440   0.905  -1.132  0.7238  0.6093  0.9889
  271MOL0     H37340  10.395   0.758  -1.032 -1.7160  0.3312 -1.5921
  271MOL0     H37341  10.635   0.763  -1.201  0.4064  0.0161  1.7493
  271MOL0     H37342  10.566   0.626  -1.093 -1.8790 -2.5769 -2.6921
  271MOL0     H37343  10.444   0.744  -1.331 -2.3493 -1.4139 -1.3896
  271MOL0     H37344  10.359   0.642  -1.226  0.1401  1.2604  1.6763
  271MOL0     H37345  10.460   0.535  -1.430 -1.8050  2.1771  1.4772
  271MOL0     H37346  10.617   0.543  -1.353  0.0986 -0.6737 -1.0727
  271MOL0     H37347  10.321   0.317  -1.372 -2.0426 -1.2461  1.2176
  271MOL0     H37348  10.247   0.085  -1.277 -0.6760  0.2135 -0.6404
  271MOL0     H37349  10.157   0.189  -1.166  0.0149  0.7455  0.9991
  271MOL0     H37350  10.349  -0.008  -1.054  0.9438 -0.2604  0.7016
  271MOL0     H37351  10.231   0.092  -0.964 -1.5879  0.4649 -1.1214
  271MOL0     H37352  10.096  -0.080  -0.976  1.7962 -1.1898  1.3764
  271MOL0     H37353  10.077  -0.041  -1.155 -0.4173 -0.6425 -0.5872
  271MOL0     H37354  10.300  -0.210  -1.045 -1.1434 -1.2073  2.5794
  271MOL0     H37355  10.137  -0.281  -1.083 -0.0724  0.7318  1.1370
  271MOL0     H37356  10.177  -0.045  -1.441  0.8413 -0.6831  1.3813
  271MOL0     H37357  10.053   0.019  -1.664 -3.1564  1.2371 -6.1021
  271MOL0     H37358   9.898   0.023  -1.601 -0.3397  0.5826 -0.5652
  271MOL0     H37359   9.948  -0.087  -1.731 -0.2275 -5.0993  2.1288
  271MOL0     H37360   9.472  -0.262  -1.590  2.0288 -0.4091  0.2155
  271MOL0     H37361   9.301  -0.284  -1.761 -0.6392 -3.5446 -1.3593
  271MOL0     H37362   9.149  -0.288  -1.993 -0.1241 -2.9175 -2.8108
  271MOL0     H37363   9.254  -0.145  -2.028 -1.0815  1.1380  1.1641
  271MOL0     H37364   9.287  -0.265  -2.253  0.6294  2.4361 -0.8211
  271MOL0     H37365   9.117  -0.320  -2.202 -0.6513  0.0310 -0.1015
  271MOL0     H37366   9.208  -0.051  -2.254  2.2801 -1.0676  3.2437
  271MOL0     H37367   9.066  -0.096  -2.146  2.0742  0.6736  1.4298
  271MOL0     H37368   8.947  -0.198  -2.341 -1.5157  2.3918 -1.4041
  271MOL0     H37369   9.108  -0.186  -2.428 -0.7540  2.2043 -1.2047
  271MOL0     H37370   8.933   0.049  -2.356  1.6483 -1.3172  2.1923
  271MOL0     H37371   9.091   0.064  -2.417 -0.2285  0.5143 -1.0903
  271MOL0     H37372   9.064  -0.021  -2.625  0.8389 -0.8789  1.2647
  271MOL0     H37373   8.918   0.082  -2.594 -1.7450 -1.7110 -0.5140
  271MOL0     H37374   8.791  -0.119  -2.543  1.4432  1.8875  2.7674
  271MOL0     H37375   8.939  -0.219  -2.585 -0.1287 -0.6553 -0.2527
  271MOL0     H37376   8.818  -0.235  -2.783 -1.7096  2.0395 -1.0409
  271MOL0     H37377   8.960  -0.136  -2.804 -0.0908 -1.0776 -0.4609
  271MOL0     H37378   9.616  -0.309  -2.061  1.9403  0.5957  0.4829
  271MOL0     H37379   9.775  -0.222  -1.889  0.1621 -0.7981 -2.3607
  271MOL0     H37380   9.904  -0.456  -1.409 -0.4095 -0.4050 -2.0986
  271MOL0     H37381  10.118  -0.436  -1.289  3.8930  0.6006 -1.2272
  271MOL0     H37382  10.635   0.649  -0.389  2.9626 -2.8884  0.6452
  271MOL0     H37383  10.653   0.607  -0.152  0.4369  0.7728 -0.2554
  271MOL0     H37384  10.826   0.763   0.244  1.2200  1.0244  2.2851
  271MOL0     H37385  10.836   0.776   0.477 -1.8072 -6.7471  1.0590
  271MOL0     H37386  10.842   0.753   0.692  0.7693 -0.9755  2.4066
  271MOL0     H37387  10.828   0.920   0.652  1.4039  0.2553  1.7213
  271MOL0     H37388  10.723   0.986   0.850  1.7043  1.2560  1.0022
  271MOL0     H37389  10.870   0.919   0.878 -0.2679 -0.4337 -0.0319
  271MOL0     H37390  10.677   0.693   0.909 -4.7658  0.6780  2.1557
  271MOL0     H37391  10.819   0.746   0.988 -0.5930  0.6317  0.3216
  271MOL0     H37392  10.686   0.935   1.089 -1.3226  1.2252 -0.2947
  271MOL0     H37393  10.675   0.767   1.148  0.2917 -1.3134 -0.8538
  271MOL0     H37394  10.298   0.754   1.017  2.2754 -2.6228 -0.0604
  271MOL0     H37395  10.431   0.755   0.541 -1.8640 -1.0597 -1.3692
  271MOL0     H37396  10.325   0.802   0.192 -0.6999  1.2177  2.0624
  271MOL0     H37397  10.349   0.624   0.209 -1.3337  0.5043 -1.8123
  271MOL0     H37398  10.276   0.717   0.336 -0.7655 -0.3967 -1.8398
  272MOL0     O37399   8.586   9.465   5.440  0.4709  0.0864  0.3248
  272MOL0     C37400   8.608   9.464   5.565 -0.3282  0.4792 -0.5835
  272MOL0     O37401   8.522   9.446   5.665  0.2671  0.9704 -0.2471
  272MOL0     C37402   8.398   9.394   5.644  0.2354  0.9577 -0.1397
  272MOL0     C37403   8.291   9.476   5.676  0.9509  0.1200  0.0530
  272MOL0     C37404   8.159   9.434   5.643  0.4231 -0.5831 -0.4945
  272MOL0     C37405   8.127   9.320   5.564  0.0657  0.4886  0.5476
  272MOL0     O37406   7.995   9.286   5.541  0.4996 -0.5841  0.1207
  272MOL0     C37407   7.953   9.231   5.417  0.0559 -0.4311  0.5310
  272MOL0     C37408   7.813   9.166   5.434 -0.1902  0.5856  0.4891
  272MOL0     C37409   7.808   9.031   5.357  0.3646  0.3686 -0.3735
  272MOL0     C37410   7.905   8.931   5.403  0.3233  0.1323 -0.0502
  272MOL0     C37411   7.873   8.799   5.328  0.4620 -0.4383 -0.8530
  272MOL0     C37412   7.749   8.719   5.385 -0.1862 -0.0597 -0.8675
  272MOL0     C37413   7.716   8.584   5.313 -0.0135 -0.5686 -0.0155
  272MOL0     C37414   7.617   8.589   5.188  0.6537  0.9350  0.2089
  272MOL0     N37415   7.677   8.665   5.077  0.0291 -0.3142  0.0933
  272MOL0     C37416   7.807   8.645   5.029  0.1092 -0.0859  0.5520
  272MOL0     C37417   7.799   8.722   4.909  0.1137  0.2319  0.4967
  272MOL0     C37418   7.898   8.755   4.804 -0.5021 -0.6209  0.9903
  272MOL0     C37419   8.002   8.858   4.859 -0.2452  0.1118 -0.3436
  272MOL0     C37420   7.950   9.001   4.867  0.0456 -0.4737 -0.5480
  272MOL0     C37421   8.054   9.090   4.930  0.0283  0.2526  0.3232
  272MOL0     O37422   8.079   9.060   5.071 -0.1091  0.3416 -0.2910
  272MOL0     C37423   8.213   9.058   5.113  0.2809  0.1866 -0.3348
  272MOL0     C37424   8.255   8.965   5.205 -1.0852 -0.2708 -0.3486
  272MOL0     C37425   8.386   8.974   5.271 -0.0532  0.7231  0.8079
  272MOL0     C37426   8.429   8.867   5.380 -0.4887 -0.2383 -0.2292
  272MOL0     C37427   8.475   9.070   5.225  0.2624  0.4498  0.4784
  272MOL0     C37428   8.614   9.091   5.287  0.7757  0.4552  0.6077
  272MOL0     O37429   8.665   9.214   5.281  0.7421  0.3619  0.0324
  272MOL0     C37430   8.799   9.220   5.302 -0.4241 -0.6716 -0.7141
  272MOL0     C37431   8.874   9.266   5.194  0.5093 -0.7931 -0.1293
  272MOL0     C37432   9.006   9.287   5.220  0.8009 -0.5881 -0.2986
  272MOL0     C37433   9.065   9.261   5.344 -0.4617 -0.4412  0.3635
  272MOL0     O37434   9.206   9.283   5.354  0.4770 -0.4706  0.3330
  272MOL0     C37435   9.273   9.179   5.420 -1.0486  0.2113  0.0598
  272MOL0     C37436   9.428   9.204   5.408  0.5928  0.5227 -0.8335
  272MOL0     C37437   9.505   9.090   5.477  0.5699 -0.5060 -0.5146
  272MOL0     C37438   9.659   9.123   5.485 -0.1823 -0.0380  1.2013
  272MOL0     C37439   9.769   9.013   5.466 -0.4449 -0.1998 -1.8223
  272MOL0     C37440   9.766   8.961   5.321  0.1049 -0.4263 -0.1068
  272MOL0     C37441   9.838   9.070   5.233  0.0457  0.3482 -0.2305
  272MOL0     C37442   9.902   9.036   5.101  0.1752 -0.2705 -0.6039
  272MOL0    Cl37443   9.964   9.168   5.020  0.0553 -0.1834 -0.0546
  272MOL0     C37444   8.989   9.210   5.449 -0.4372  1.9743  0.3926
  272MOL0     C37445   8.857   9.184   5.426  0.1145 -0.5327 -0.3008
  272MOL0     O37446   8.680   8.991   5.316  0.8749 -0.1900 -0.0836
  272MOL0     C37447   8.437   9.163   5.120  0.5470 -0.0627 -0.2486
  272MOL0     C37448   8.308   9.156   5.064  0.8820  1.1234 -0.6521
  272MOL0     N37449   7.677   8.795   4.915 -0.1437  0.3250 -0.4065
  272MOL0     N37450   7.609   8.760   5.005 -0.5106  0.0826 -0.4847
  272MOL0     C37451   8.236   9.242   5.525 -0.4489 -0.3801 -0.3627
  272MOL0     C37452   8.368   9.278   5.570  1.1634  0.5020  0.5787
  272MOL0     C37453   8.746   9.499   5.603 -0.3840 -0.6089  0.5616
  272MOL0     C37454   8.857   9.513   5.507  0.7388 -0.9315 -0.4108
  272MOL0     C37455   8.981   9.573   5.550 -0.5079  0.8721 -0.2642
  272MOL0     C37456   9.009   9.615   5.681 -0.2513 -0.3419 -0.2597
  272MOL0     O37457   9.131   9.664   5.724  0.4445  0.9945 -1.3781
  272MOL0     C37458   9.124   9.760   5.826  0.6821  1.4936  0.0030
  272MOL0     C37459   9.254   9.853   5.820  0.9835  1.0115 -0.5934
  272MOL0     C37460   9.264   9.928   5.687  0.4397 -0.4604  0.7409
  272MOL0     C37461   9.186  10.068   5.682 -0.0603  0.6212  1.0973
  272MOL0     C37462   9.219  10.145   5.550  0.5526 -0.2185 -0.1482
  272MOL0     C37463   9.235  10.216   5.454 -0.8641  0.9058  0.5857
  272MOL0     C37464   8.902   9.592   5.770 -0.2559  0.2200 -0.2652
  272MOL0     C37465   8.774   9.541   5.738 -0.7537 -0.7180  0.1770
  272MOL0     C37466   8.680   9.558   5.858  0.1575  0.1364  0.3145
  272MOL0     H37467   8.302   9.570   5.729 -2.8435  0.3002  0.7610
  272MOL0     H37468   8.077   9.496   5.678 -0.7128 -2.3705  0.1861
  272MOL0     H37469   8.015   9.156   5.367 -0.9799 -2.1648  1.7337
  272MOL0     H37470   7.942   9.318   5.353 -0.2722 -2.1006 -1.8190
  272MOL0     H37471   7.783   9.147   5.538 -0.7903  2.2336  0.6452
  272MOL0     H37472   7.738   9.236   5.399  0.4336 -0.3920 -3.2016
  272MOL0     H37473   7.705   8.997   5.348 -0.2574  2.4637 -2.1173
  272MOL0     H37474   7.826   9.061   5.253 -0.7905  2.0841 -0.1276
  272MOL0     H37475   8.009   8.953   5.374 -1.0594  1.6358 -4.8688
  272MOL0     H37476   7.896   8.910   5.510 -1.1062  0.6456 -0.0488
  272MOL0     H37477   7.953   8.725   5.334 -0.9183 -2.1873 -2.3497
  272MOL0     H37478   7.863   8.825   5.222  0.5359 -1.3382 -1.0951
  272MOL0     H37479   7.773   8.700   5.490  0.3064  1.4327 -0.6842
  272MOL0     H37480   7.654   8.773   5.378 -0.5978 -0.8805 -1.9487
  272MOL0     H37481   7.680   8.517   5.391  2.8614 -1.2233  0.8659
  272MOL0     H37482   7.815   8.543   5.288 -0.6676 -2.7601  0.7370
  272MOL0     H37483   7.598   8.484   5.166  2.7928  0.6159 -0.4072
  272MOL0     H37484   7.522   8.631   5.220 -2.4552 -5.2829  0.5508
  272MOL0     H37485   7.890   8.585   5.064  1.1184  0.2723 -1.0974
  272MOL0     H37486   7.839   8.794   4.721 -1.6258 -0.9438  1.6112
  272MOL0     H37487   7.947   8.660   4.779 -2.5814 -1.2582 -0.9875
  272MOL0     H37488   8.045   8.821   4.952  1.2727  3.6819  0.5270
  272MOL0     H37489   8.090   8.864   4.795 -1.7205 -2.1108 -2.8027
  272MOL0     H37490   7.928   9.038   4.767  1.8041  0.0972 -0.7648
  272MOL0     H37491   7.860   9.013   4.928  0.2242 -0.2458 -0.3200
  272MOL0     H37492   8.147   9.082   4.872  2.7784  0.7681  4.2357
  272MOL0     H37493   8.011   9.190   4.929  1.0138  0.7203 -1.8813
  272MOL0     H37494   8.195   8.901   5.269  0.5352  1.2886  2.9869
  272MOL0     H37495   8.454   8.935   5.462  0.6507 -0.5410 -0.3040
  272MOL0     H37496   8.516   8.804   5.358 -0.0672  0.4408 -0.5124
  272MOL0     H37497   8.353   8.795   5.410  0.2813 -1.7493 -1.7269
  272MOL0     H37498   8.830   9.280   5.096  0.6844 -1.1156 -0.2552
  272MOL0     H37499   9.067   9.312   5.134 -2.4725 -1.0455 -2.9461
  272MOL0     H37500   9.260   9.180   5.529 -0.6017 -0.5386  0.1319
  272MOL0     H37501   9.240   9.079   5.390 -0.3002 -0.5158  1.5135
  272MOL0     H37502   9.461   9.199   5.304 -3.0734  0.1069 -2.1194
  272MOL0     H37503   9.437   9.300   5.460  2.3296 -0.4337  0.7409
  272MOL0     H37504   9.488   8.987   5.447  0.1169 -0.2612 -1.1217
  272MOL0     H37505   9.475   9.077   5.582 -1.1121 -1.2628 -1.0592
  272MOL0     H37506   9.678   9.174   5.580  1.9750  2.7015 -0.5151
  272MOL0     H37507   9.681   9.194   5.404 -0.7837  3.1295  3.6076
  272MOL0     H37508   9.869   9.053   5.484 -1.5218  0.8316  4.3635
  272MOL0     H37509   9.751   8.928   5.533 -0.5807  2.6988  2.2177
  272MOL0     H37510   9.664   8.953   5.282 -0.3066  0.4643  0.7550
  272MOL0     H37511   9.818   8.864   5.318 -0.3644 -0.7911  1.9739
  272MOL0     H37512   9.911   9.120   5.297  1.3491 -3.1080  1.1933
  272MOL0     H37513   9.768   9.151   5.212 -0.3765  0.2371  0.7402
  272MOL0     H37514   9.827   8.985   5.039  0.2426 -0.0498 -0.8682
  272MOL0     H37515   9.986   8.967   5.109  0.1799 -0.3875 -1.5224
  272MOL0     H37516   9.028   9.179   5.546 -1.5959 -3.9348 -0.6399
  272MOL0     H37517   8.793   9.141   5.503  1.5599 -1.8229  0.2236
  272MOL0     H37518   8.513   9.233   5.084 -0.4449 -0.0466 -2.5335
  272MOL0     H37519   8.273   9.221   4.984  1.4396  0.2847 -1.5939
  272MOL0     H37520   8.209   9.148   5.478 -0.4851  0.8278 -2.9377
  272MOL0     H37521   8.443   9.219   5.519 -1.4749 -0.4317 -2.6527
  272MOL0     H37522   8.842   9.492   5.402  0.6581  3.0477 -1.3659
  272MOL0     H37523   9.064   9.589   5.482 -3.7282  1.2970 -4.4993
  272MOL0     H37524   9.035   9.823   5.815  0.8031  1.2511 -3.7391
  272MOL0     H37525   9.114   9.717   5.926  0.4590  3.4419  0.8657
  272MOL0     H37526   9.342   9.789   5.833  0.1441 -0.3888 -1.4937
  272MOL0     H37527   9.241   9.923   5.903 -1.7452  1.9040 -1.6604
  272MOL0     H37528   9.368   9.961   5.683  0.8144 -1.5921  0.8306
  272MOL0     H37529   9.236   9.871   5.598  0.4762  0.4960  0.0945
  272MOL0     H37530   9.227  10.128   5.764  0.6149 -2.0017  2.7956
  272MOL0     H37531   9.079  10.059   5.703  0.3872  0.2601  3.5355
  272MOL0     H37532   9.251  10.292   5.379  1.9422  0.8440  1.0054
  272MOL0     H37533   8.925   9.628   5.870 -1.0292 -2.5388  1.0022
  272MOL0     H37534   8.746   9.588   5.940  0.3591 -0.9060  0.5458
  272MOL0     H37535   8.607   9.637   5.839  0.0023 -0.5105 -2.0438
  272MOL0     H37536   8.628   9.468   5.890 -1.7274  1.2184  0.4444
  273MOL0     O37537   5.096  11.125  10.981 -0.1972 -0.0875 -0.0362
  273MOL0     C37538   5.053  11.011  11.005 -0.0151  0.5265 -0.0484
  273MOL0     O37539   5.097  10.922  11.097 -0.3690 -0.1118  0.0545
  273MOL0     C37540   5.171  10.977  11.204  0.1598  0.5054 -0.5954
  273MOL0     C37541   5.294  11.046  11.178  0.0398  0.4275 -0.4917
  273MOL0     C37542   5.377  11.088  11.291 -0.5560 -0.3005  0.5208
  273MOL0     C37543   5.330  11.082  11.421  0.1972 -0.7394 -0.2515
  273MOL0     O37544   5.424  11.131  11.518  0.4886  0.1817 -0.1656
  273MOL0     C37545   5.517  11.026  11.545  0.0415  0.7043 -0.1419
  273MOL0     C37546   5.473  10.921  11.649  0.7954  0.2204  1.1939
  273MOL0     C37547   5.431  10.970  11.790  0.2547 -0.0046 -0.0341
  273MOL0     C37548   5.321  10.880  11.849  1.0659 -0.1792  0.6433
  273MOL0     C37549   5.267  10.937  11.973 -0.5041 -0.3083 -1.4961
  273MOL0     C37550   5.200  10.841  12.079  0.7155 -0.1570  0.5673
  273MOL0     C37551   5.127  10.924  12.187 -0.5597 -0.9623  0.4009
  273MOL0     C37552   5.080  10.846  12.308 -0.9549  1.1287  0.5139
  273MOL0     N37553   5.005  10.912  12.417  0.1457 -0.4889  0.2538
  273MOL0     C37554   4.979  10.847  12.535  0.4006  0.1868 -0.1561
  273MOL0     C37555   4.872  10.897  12.595  0.1761 -0.4034 -0.0606
  273MOL0     C37556   4.811  10.858  12.730 -0.8397  0.7209  1.0022
  273MOL0     C37557   4.815  10.713  12.771  0.1694 -0.2254  0.0371
  273MOL0     C37558   4.766  10.612  12.667 -0.4682 -0.0547 -0.8577
  273MOL0     C37559   4.615  10.608  12.649  0.4227  0.5990 -0.1619
  273MOL0     O37560   4.568  10.515  12.546 -0.9598  0.2805  0.5568
  273MOL0     C37561   4.621  10.537  12.425  0.6140  0.0762  0.9710
  273MOL0     C37562   4.638  10.662  12.366  0.1005 -0.0149  0.7013
  273MOL0     C37563   4.677  10.674  12.229 -0.1566 -0.8293  0.0322
  273MOL0     C37564   4.687  10.811  12.174 -0.2820 -0.2044 -0.8205
  273MOL0     C37565   4.708  10.556  12.158 -0.5504 -0.1827  1.1507
  273MOL0     C37566   4.742  10.556  12.010 -0.3821 -0.6294  0.6740
  273MOL0     O37567   4.864  10.608  11.965  0.3770  0.8091 -0.7081
  273MOL0     C37568   4.895  10.601  11.831  0.7664 -0.9322 -0.9659
  273MOL0     C37569   4.873  10.492  11.750 -0.1202 -0.3342 -0.1700
  273MOL0     C37570   4.893  10.510  11.606  0.3899 -0.2046  0.1456
  273MOL0     C37571   4.962  10.626  11.568 -0.7955 -0.6105 -0.1764
  273MOL0     O37572   5.006  10.637  11.442  0.6096 -0.8925 -0.2003
  273MOL0     C37573   5.041  10.512  11.369  0.0547 -0.3768 -0.3223
  273MOL0     C37574   5.143  10.422  11.437  0.6636  0.3596 -0.7014
  273MOL0     C37575   5.179  10.311  11.344  0.4729  0.4801 -0.1676
  273MOL0     C37576   5.295  10.209  11.383  0.5335  0.1360 -0.7228
  273MOL0     C37577   5.434  10.276  11.383  0.2761  0.1583  0.1390
  273MOL0     C37578   5.546  10.170  11.395 -0.2747  0.1756 -1.0533
  273MOL0     C37579   5.564  10.115  11.540  0.3778 -0.8219  1.3710
  273MOL0     C37580   5.674  10.024  11.560  0.8366  0.7486  0.2062
  273MOL0    Cl37581   5.651   9.891  11.446 -0.3582 -0.1169  0.2737
  273MOL0     C37582   4.999  10.727  11.660  0.9822  0.2385 -0.3182
  273MOL0     C37583   4.951  10.713  11.786  0.5792 -0.3719  0.0574
  273MOL0     O37584   4.642  10.549  11.937 -0.3396  0.4905  0.2459
  273MOL0     C37585   4.701  10.432  12.219  0.7843 -0.6174  0.1923
  273MOL0     C37586   4.648  10.421  12.350  0.9499 -0.4515 -0.4026
  273MOL0     N37587   4.823  10.990  12.509 -0.4358  0.0683 -0.0162
  273MOL0     N37588   4.900  10.993  12.400  0.2002  0.4842 -0.4478
  273MOL0     C37589   5.212  11.021  11.448  0.8571  0.2328 -0.3156
  273MOL0     C37590   5.130  10.971  11.342  0.2074 -0.4959 -0.1007
  273MOL0     C37591   4.940  10.961  10.919  0.2744  0.8752  0.0237
  273MOL0     C37592   4.952  10.824  10.886 -0.1699  0.9139  0.2804
  273MOL0     C37593   4.854  10.761  10.802  0.6731  1.1734 -0.9385
  273MOL0     C37594   4.747  10.834  10.767  0.1754 -0.6624  0.1146
  273MOL0     O37595   4.651  10.772  10.692 -0.3790  0.0357  0.0113
  273MOL0     C37596   4.517  10.765  10.742  0.0794  0.0905 -0.4814
  273MOL0     C37597   4.453  10.644  10.686  0.9612 -0.1858 -0.2927
  273MOL0     C37598   4.299  10.648  10.727  0.5415 -0.5635  0.7682
  273MOL0     C37599   4.265  10.667  10.871 -0.6122  0.3341  0.0222
  273MOL0     C37600   4.232  10.806  10.912 -0.2564 -0.9593  0.2746
  273MOL0     C37601   4.209  10.921  10.947 -0.5234  0.1488  0.3223
  273MOL0     C37602   4.725  10.974  10.793 -0.0207  1.0670  1.1906
  273MOL0     C37603   4.817  11.030  10.883  0.7896 -0.2360 -0.9298
  273MOL0     C37604   4.777  11.173  10.924  0.4730 -0.9948  0.2870
  273MOL0     H37605   5.327  11.058  11.075 -0.9682  2.7732 -0.6191
  273MOL0     H37606   5.475  11.130  11.271  0.5666 -2.5808  0.8875
  273MOL0     H37607   5.602  11.078  11.589  0.5837  0.0275 -0.3687
  273MOL0     H37608   5.550  10.977  11.452  2.3639 -1.5332  1.7169
  273MOL0     H37609   5.391  10.863  11.606  1.3008  0.0921  0.3769
  273MOL0     H37610   5.566  10.864  11.657  1.0752  0.6994  1.3975
  273MOL0     H37611   5.518  10.975  11.855 -0.2621 -0.4856  0.6977
  273MOL0     H37612   5.398  11.075  11.783  2.7934  0.8503 -0.1447
  273MOL0     H37613   5.237  10.868  11.781  3.4445 -1.5314 -2.2935
  273MOL0     H37614   5.367  10.783  11.872 -1.4912 -1.3968  0.9354
  273MOL0     H37615   5.200  11.021  11.954  1.6798  1.4260 -2.0224
  273MOL0     H37616   5.341  10.987  12.036 -2.7071  0.0789  0.9209
  273MOL0     H37617   5.117  10.786  12.032 -0.0240 -0.0289  1.6866
  273MOL0     H37618   5.274  10.771  12.120  1.8663 -0.4780 -1.8449
  273MOL0     H37619   5.040  10.977  12.149 -0.7754 -0.7287  1.2000
  273MOL0     H37620   5.206  10.996  12.211 -0.1712 -0.6733 -1.5712
  273MOL0     H37621   5.013  10.775  12.259 -0.4640  0.9892  0.0328
  273MOL0     H37622   5.163  10.792  12.353 -2.5892 -3.3501 -1.2835
  273MOL0     H37623   5.042  10.767  12.572 -1.1746 -1.2710 -0.4884
  273MOL0     H37624   4.703  10.875  12.723 -1.5819 -2.7405  2.0357
  273MOL0     H37625   4.855  10.913  12.813  2.0965  0.4491 -0.2775
  273MOL0     H37626   4.921  10.704  12.795 -0.1384 -0.1274  1.5479
  273MOL0     H37627   4.765  10.717  12.868  1.6271  1.3128  0.7662
  273MOL0     H37628   4.801  10.619  12.564 -0.7249 -2.6194 -1.1960
  273MOL0     H37629   4.800  10.515  12.704  0.4408  1.3265  2.2752
  273MOL0     H37630   4.568  10.565  12.738 -0.1215  1.2287 -0.1388
  273MOL0     H37631   4.572  10.707  12.635 -1.7078  0.0595  1.9160
  273MOL0     H37632   4.630  10.753  12.425  1.8492 -0.2804  1.3835
  273MOL0     H37633   4.596  10.868  12.154 -0.3905 -0.1868 -0.3147
  273MOL0     H37634   4.742  10.834  12.082  3.9712  1.8360  1.8878
  273MOL0     H37635   4.740  10.869  12.251 -2.3887 -4.0211  4.0743
  273MOL0     H37636   4.844  10.395  11.787 -1.5567  0.1776  0.1447
  273MOL0     H37637   4.857  10.428  11.544 -1.0909  2.3822 -2.6720
  273MOL0     H37638   4.948  10.458  11.349  0.0636 -0.7839  0.6590
  273MOL0     H37639   5.084  10.545  11.274 -1.2605  2.3347 -0.0730
  273MOL0     H37640   5.229  10.486  11.460  1.0790 -0.4315  0.0324
  273MOL0     H37641   5.106  10.379  11.531 -0.3441 -3.5137 -2.6484
  273MOL0     H37642   5.202  10.355  11.247 -0.1709 -1.3597 -1.1930
  273MOL0     H37643   5.095  10.246  11.319  2.0283 -1.1813 -1.3269
  273MOL0     H37644   5.289  10.122  11.317  2.0179  0.1351 -0.8772
  273MOL0     H37645   5.265  10.173  11.482 -0.7587 -3.1929 -2.1853
  273MOL0     H37646   5.454  10.328  11.289  0.5876 -2.8194 -1.5528
  273MOL0     H37647   5.451  10.346  11.466 -0.2018  0.4051  0.0316
  273MOL0     H37648   5.642  10.206  11.357  0.4108  0.6400  0.9629
  273MOL0     H37649   5.513  10.084  11.336  4.0339 -2.8213  0.3704
  273MOL0     H37650   5.474  10.059  11.566 -1.6814  2.1347  1.1938
  273MOL0     H37651   5.568  10.209  11.596 -2.2606 -0.9883  2.0068
  273MOL0     H37652   5.665   9.981  11.660 -0.8224  1.0083  0.1879
  273MOL0     H37653   5.774  10.069  11.555  1.5491 -0.7747  0.0838
  273MOL0     H37654   5.045  10.820  11.631  3.0770 -0.6857 -0.1198
  273MOL0     H37655   4.974  10.797  11.852 -0.7876  2.1160 -2.4036
  273MOL0     H37656   4.725  10.355  12.146  0.3228 -2.0876  1.5291
  273MOL0     H37657   4.630  10.320  12.388 -3.4914  0.6288  0.9602
  273MOL0     H37658   5.172  11.000  11.547 -3.5161 -0.8886 -2.1061
  273MOL0     H37659   5.037  10.920  11.365 -0.2267  0.0221 -0.6720
  273MOL0     H37660   5.039  10.780  10.934  1.6381  2.0083 -1.8084
  273MOL0     H37661   4.860  10.658  10.769 -1.1457  0.6838  0.0976
  273MOL0     H37662   4.517  10.764  10.851 -1.9291  4.0541 -0.2651
  273MOL0     H37663   4.450  10.850  10.724  1.0048  1.6571  2.7891
  273MOL0     H37664   4.506  10.557  10.726 -0.9873 -0.8009  1.0973
  273MOL0     H37665   4.461  10.653  10.577  0.2663 -0.4905 -0.3814
  273MOL0     H37666   4.236  10.710  10.663 -1.3131 -0.4547  2.5850
  273MOL0     H37667   4.265  10.545  10.713  0.8292 -1.2593  4.1995
  273MOL0     H37668   4.335  10.633  10.947 -1.9144  0.0675  1.1503
  273MOL0     H37669   4.174  10.610  10.894  0.1754 -1.2329 -0.5880
  273MOL0     H37670   4.183  11.018  10.982  0.0408  0.7354 -0.8143
  273MOL0     H37671   4.635  11.023  10.758 -0.1452  2.0139  2.7587
  273MOL0     H37672   4.711  11.155  11.009  0.6028 -0.7684  0.4369
  273MOL0     H37673   4.864  11.232  10.956  0.0323  0.4316 -0.9942
  273MOL0     H37674   4.723  11.233  10.850  0.7190 -0.9039  0.1789
  274MOL0     O37675   0.262   4.073   6.977 -0.2172 -0.4872  0.2011
  274MOL0     C37676   0.365   4.028   7.023 -0.1905 -0.5709 -0.5576
  274MOL0     O37677   0.371   3.914   7.101  0.5039  0.0268 -0.0042
  274MOL0     C37678   0.249   3.858   7.129  0.0453  0.1450  0.6528
  274MOL0     C37679   0.187   3.770   7.043 -0.1283 -1.3008  0.3077
  274MOL0     C37680   0.066   3.705   7.061  0.0961  0.0030 -0.8281
  274MOL0     C37681   0.007   3.729   7.184 -0.7419 -0.7831 -0.2568
  274MOL0     O37682  -0.122   3.693   7.191  0.3490  0.3504 -0.5254
  274MOL0     C37683  -0.214   3.783   7.241  0.3526  0.7599 -0.4275
  274MOL0     C37684  -0.360   3.738   7.212 -0.0140  0.5826 -0.3739
  274MOL0     C37685  -0.380   3.695   7.063 -0.3678  0.0471 -0.4684
  274MOL0     C37686  -0.510   3.622   7.053 -0.3335 -0.0099 -0.1170
  274MOL0     C37687  -0.544   3.602   6.905 -0.0699 -0.4549  0.1366
  274MOL0     C37688  -0.681   3.532   6.864  0.4508 -0.4013 -0.3701
  274MOL0     C37689  -0.730   3.423   6.960  0.4692 -1.3720  0.1319
  274MOL0     C37690  -0.832   3.331   6.881 -0.1966  0.3261 -0.5785
  274MOL0     N37691  -0.868   3.232   6.977 -0.1886  0.2641  0.6847
  274MOL0     C37692  -0.978   3.233   7.059  0.3410 -0.4664 -0.1025
  274MOL0     C37693  -0.998   3.108   7.104  0.6616  0.4581 -0.1168
  274MOL0     C37694  -1.097   3.073   7.209  0.4825 -0.7125  0.6547
  274MOL0     C37695  -1.066   2.937   7.269  0.7009  0.2181  0.3649
  274MOL0     C37696  -1.175   2.905   7.369 -0.3440  0.4783  0.5229
  274MOL0     C37697  -1.117   2.832   7.486 -0.2742 -0.7770 -1.2605
  274MOL0     O37698  -1.071   2.927   7.584  0.2653 -0.1449 -0.0192
  274MOL0     C37699  -1.018   2.879   7.701  0.5436 -0.6393  0.5804
  274MOL0     C37700  -0.971   2.752   7.718 -0.4236 -0.5895 -0.5461
  274MOL0     C37701  -0.910   2.711   7.840  0.2930  0.0698  0.2150
  274MOL0     C37702  -0.835   2.581   7.833  0.2582 -0.1954  0.6566
  274MOL0     C37703  -0.907   2.802   7.957  0.0699 -0.3749  0.7643
  274MOL0     C37704  -0.840   2.777   8.093  0.2266  0.7793 -0.3541
  274MOL0     O37705  -0.778   2.659   8.103 -0.2099  0.6541 -0.3927
  274MOL0     C37706  -0.724   2.628   8.230  0.1814 -0.1854  0.0347
  274MOL0     C37707  -0.592   2.593   8.226  0.0176 -0.4297 -0.1268
  274MOL0     C37708  -0.527   2.561   8.345 -0.9118 -0.4254  0.6990
  274MOL0     C37709  -0.595   2.543   8.461 -0.2808  0.3903 -0.6836
  274MOL0     O37710  -0.521   2.495   8.570  0.7583 -0.5160  0.0674
  274MOL0     C37711  -0.553   2.555   8.689  0.7070  0.7833 -1.0759
  274MOL0     C37712  -0.483   2.486   8.811 -0.3536  0.4701  0.3380
  274MOL0     C37713  -0.326   2.496   8.780 -1.1032  0.8296  0.6850
  274MOL0     C37714  -0.254   2.401   8.880  0.0609 -0.1697  0.0141
  274MOL0     C37715  -0.104   2.420   8.853 -0.4511  0.2512 -0.5788
  274MOL0     C37716  -0.050   2.538   8.911 -0.0106 -0.7314 -0.2836
  274MOL0     C37717   0.103   2.547   8.895  0.3451  0.0236  1.1136
  274MOL0     C37718   0.156   2.673   8.950  0.1169 -0.0405 -0.4827
  274MOL0    Cl37719   0.097   2.695   9.125 -0.1605 -0.1667  0.1712
  274MOL0     C37720  -0.728   2.573   8.463 -0.9263 -0.2756 -0.0424
  274MOL0     C37721  -0.796   2.618   8.358 -0.6366 -0.2393  0.6676
  274MOL0     O37722  -0.853   2.853   8.188  0.0237 -0.6949  0.2820
  274MOL0     C37723  -0.968   2.929   7.934  0.2134 -0.1901 -0.3496
  274MOL0     C37724  -1.020   2.966   7.811  0.0506  0.2274 -0.1033
  274MOL0     N37725  -0.909   3.024   7.042  1.1496 -0.3485 -0.4359
  274MOL0     N37726  -0.827   3.100   6.982  0.1497  0.4376 -0.2508
  274MOL0     C37727   0.061   3.823   7.276 -0.7589 -0.2189  0.2389
  274MOL0     C37728   0.184   3.884   7.249 -0.0352  0.5712 -0.7468
  274MOL0     C37729   0.492   4.103   7.000 -0.3454 -0.8136  0.5151
  274MOL0     C37730   0.618   4.041   7.021  0.5526 -0.4605  1.5658
  274MOL0     C37731   0.739   4.117   7.001  0.6835 -0.1406  0.2661
  274MOL0     C37732   0.735   4.251   6.967  0.0121 -0.6483 -0.5402
  274MOL0     O37733   0.855   4.315   6.962 -0.1142 -0.6004  0.1552
  274MOL0     C37734   0.867   4.427   7.046  0.3542 -0.5049 -0.3368
  274MOL0     C37735   1.005   4.483   7.030 -0.8734  0.7586  0.0715
  274MOL0     C37736   1.045   4.538   6.889  0.4477 -0.4392  0.1312
  274MOL0     C37737   1.160   4.451   6.826 -1.4212  0.6071 -0.3322
  274MOL0     C37738   1.218   4.541   6.721 -1.3771 -1.9248  0.6662
  274MOL0     C37739   1.261   4.622   6.638 -0.1961  0.0430  0.1097
  274MOL0     C37740   0.617   4.315   6.953  0.5381  0.3291  0.3395
  274MOL0     C37741   0.496   4.247   6.963  0.2820 -0.3015  0.5019
  274MOL0     C37742   0.369   4.325   6.937  0.5963  0.6449 -0.0341
  274MOL0     H37743   0.231   3.754   6.945 -1.3081  0.0554 -0.4777
  274MOL0     H37744   0.024   3.640   6.985  0.1357 -0.1719 -0.7018
  274MOL0     H37745  -0.188   3.882   7.203 -0.6088 -0.2483 -4.1817
  274MOL0     H37746  -0.206   3.801   7.348 -0.6734 -1.4897  0.0872
  274MOL0     H37747  -0.367   3.652   7.279  0.6905  0.7623 -0.0536
  274MOL0     H37748  -0.426   3.821   7.239 -2.2601 -1.4158  0.6142
  274MOL0     H37749  -0.377   3.783   6.997 -1.1765 -0.8621 -1.7594
  274MOL0     H37750  -0.303   3.624   7.031 -0.2548 -0.3298  0.6183
  274MOL0     H37751  -0.516   3.523   7.100 -1.7932 -1.7677 -3.6911
  274MOL0     H37752  -0.597   3.675   7.093 -1.2215 -1.1899 -0.4513
  274MOL0     H37753  -0.464   3.544   6.857 -0.2684  0.6245 -1.5845
  274MOL0     H37754  -0.532   3.698   6.853  0.8873 -0.6250  0.0293
  274MOL0     H37755  -0.760   3.607   6.872  1.1056  0.6319 -2.7446
  274MOL0     H37756  -0.670   3.510   6.758  1.4289 -1.8527  0.0005
  274MOL0     H37757  -0.783   3.472   7.041  0.2058 -0.3761 -0.6231
  274MOL0     H37758  -0.646   3.372   7.008  2.5464 -1.8918 -3.5866
  274MOL0     H37759  -0.924   3.378   6.844 -0.9699 -2.2393 -2.1735
  274MOL0     H37760  -0.794   3.273   6.797 -3.5425 -0.9253 -1.4106
  274MOL0     H37761  -1.042   3.318   7.079 -2.9851 -2.5171 -1.2814
  274MOL0     H37762  -1.192   3.077   7.155  0.0516 -1.4446  1.3387
  274MOL0     H37763  -1.095   3.155   7.280 -2.3242  0.4252 -0.4560
  274MOL0     H37764  -1.076   2.859   7.193 -2.3451 -1.0469  1.8793
  274MOL0     H37765  -0.964   2.925   7.306  0.6936 -2.3757 -0.2706
  274MOL0     H37766  -1.219   2.998   7.404  0.5653  1.9454 -1.9338
  274MOL0     H37767  -1.251   2.837   7.330  1.2192 -1.3759  0.5441
  274MOL0     H37768  -1.195   2.771   7.532  0.2737  0.3447  1.3300
  274MOL0     H37769  -1.027   2.780   7.453  0.8836  1.4044 -1.7596
  274MOL0     H37770  -0.964   2.679   7.638  0.2819  0.5034 -1.4915
  274MOL0     H37771  -0.858   2.506   7.756 -0.4679  0.4010  0.2885
  274MOL0     H37772  -0.854   2.528   7.927  1.0417 -2.2862 -0.2859
  274MOL0     H37773  -0.728   2.602   7.838  0.5111 -1.7064  2.8290
  274MOL0     H37774  -0.547   2.584   8.127 -1.2290  0.1828 -0.7809
  274MOL0     H37775  -0.422   2.542   8.329 -0.5014  1.4857  0.8703
  274MOL0     H37776  -0.533   2.662   8.702 -2.3080  1.5140 -1.7968
  274MOL0     H37777  -0.658   2.540   8.716  0.0748 -2.9342 -4.6756
  274MOL0     H37778  -0.511   2.535   8.905 -2.6252  1.4003 -0.7385
  274MOL0     H37779  -0.524   2.385   8.820 -4.6055  2.1746  4.4341
  274MOL0     H37780  -0.288   2.597   8.766 -0.3864  0.5347  0.4726
  274MOL0     H37781  -0.310   2.451   8.681 -2.2239  2.7997 -0.4641
  274MOL0     H37782  -0.295   2.303   8.858  1.1076 -0.0761 -2.7981
  274MOL0     H37783  -0.274   2.438   8.981 -0.4962 -2.0025  0.6042
  274MOL0     H37784  -0.050   2.335   8.895 -0.0007 -0.6125 -2.7684
  274MOL0     H37785  -0.077   2.415   8.747  1.0168 -4.8653 -0.2225
  274MOL0     H37786  -0.075   2.545   9.017  0.6678  1.4068 -0.2238
  274MOL0     H37787  -0.091   2.613   8.843  0.3520 -0.6607 -0.4269
  274MOL0     H37788   0.135   2.550   8.791 -1.4054  0.0676  0.5578
  274MOL0     H37789   0.154   2.458   8.935  1.1662 -1.0800 -2.1225
  274MOL0     H37790   0.117   2.759   8.894  0.7621  0.6799  0.1479
  274MOL0     H37791   0.265   2.682   8.949  0.1356  3.3963  3.7648
  274MOL0     H37792  -0.784   2.587   8.555 -1.5079 -0.2936 -0.3856
  274MOL0     H37793  -0.893   2.664   8.373 -0.5455  2.3539 -4.4316
  274MOL0     H37794  -0.977   2.986   8.026  2.3192 -1.9688  1.0664
  274MOL0     H37795  -1.061   3.066   7.811  1.2053  0.7052 -0.1281
  274MOL0     H37796   0.010   3.842   7.370  0.8368  1.4611  0.8216
  274MOL0     H37797   0.223   3.949   7.326 -2.5579  4.1724 -2.2303
  274MOL0     H37798   0.626   3.938   7.052  0.0824 -1.9870 -2.7440
  274MOL0     H37799   0.839   4.075   7.006 -0.2532 -2.9836 -2.4145
  274MOL0     H37800   0.800   4.513   7.031  0.9206 -0.3388 -2.1769
  274MOL0     H37801   0.851   4.398   7.150  0.4467 -0.2077 -0.2385
  274MOL0     H37802   1.085   4.417   7.063 -0.7757  2.2339  3.0158
  274MOL0     H37803   1.006   4.573   7.092 -1.6373  0.1369  1.0203
  274MOL0     H37804   0.958   4.530   6.824  1.2239 -2.4479 -0.7398
  274MOL0     H37805   1.063   4.646   6.887 -1.5808 -0.0773 -1.1103
  274MOL0     H37806   1.117   4.363   6.778 -1.1802  0.1215  0.3342
  274MOL0     H37807   1.229   4.420   6.905  0.4760  4.6825 -0.1179
  274MOL0     H37808   1.306   4.692   6.570  0.9711  1.0633  1.8594
  274MOL0     H37809   0.609   4.422   6.935 -3.7224  0.5946  2.4980
  274MOL0     H37810   0.325   4.300   6.840  1.4787  1.7882 -0.7629
  274MOL0     H37811   0.300   4.303   7.019  0.7825 -0.1322 -0.0839
  274MOL0     H37812   0.382   4.434   6.944  2.6373  0.3179  2.0985
  275MOL0     O37813   0.101   6.158   1.043  0.2911  0.5297  0.2195
  275MOL0     C37814   0.075   6.241   0.961  0.8431 -0.2977  0.8754
  275MOL0     O37815   0.117   6.235   0.823  0.3003  0.3856 -0.6338
  275MOL0     C37816   0.182   6.111   0.789  0.1803 -0.5108  0.3384
  275MOL0     C37817   0.110   6.001   0.737  0.3627  1.2648 -0.0639
  275MOL0     C37818   0.166   5.881   0.694 -0.1372 -0.3986  0.2815
  275MOL0     C37819   0.306   5.881   0.682 -0.4574 -0.4807  0.5433
  275MOL0     O37820   0.387   5.776   0.636 -0.2503 -0.1221 -0.1485
  275MOL0     C37821   0.330   5.707   0.527 -0.7276 -0.2998  0.4279
  275MOL0     C37822   0.436   5.610   0.467 -0.7583 -0.6528  1.0243
  275MOL0     C37823   0.458   5.479   0.550  0.5047 -0.3219  0.3832
  275MOL0     C37824   0.521   5.372   0.455 -0.0942 -0.1471 -0.2451
  275MOL0     C37825   0.531   5.225   0.507 -1.2146  0.4975  1.0565
  275MOL0     C37826   0.530   5.208   0.661 -1.0166 -0.0351 -0.3633
  275MOL0     C37827   0.541   5.055   0.690  0.2196  0.5031 -0.5494
  275MOL0     C37828   0.554   5.021   0.835  0.0879 -0.2792 -0.6402
  275MOL0     N37829   0.683   4.970   0.852  0.0219  0.1723 -0.3799
  275MOL0     C37830   0.758   5.007   0.955 -0.8373  0.1948 -0.3800
  275MOL0     C37831   0.811   4.899   1.013 -0.1290  0.2517  0.2277
  275MOL0     C37832   0.907   4.910   1.132 -0.4285  0.0094  0.4162
  275MOL0     C37833   0.880   4.787   1.226  0.1698 -0.5392 -0.7899
  275MOL0     C37834   0.977   4.672   1.202 -0.2386 -0.2889 -0.2032
  275MOL0     C37835   0.967   4.586   1.070 -1.0539  0.4615 -0.2460
  275MOL0     O37836   1.068   4.478   1.067 -0.5672  0.0836  0.1275
  275MOL0     C37837   1.063   4.372   0.976 -0.3171  0.2062  0.2237
  275MOL0     C37838   0.963   4.351   0.877  0.3991  0.4958  0.1950
  275MOL0     C37839   0.972   4.242   0.789  0.7014  0.0339 -0.6694
  275MOL0     C37840   0.878   4.237   0.675  0.4472 -0.2060 -0.4842
  275MOL0     C37841   1.075   4.145   0.813  0.7739 -0.1979  0.3985
  275MOL0     C37842   1.091   4.020   0.732  0.3769  0.2386 -0.2620
  275MOL0     O37843   1.160   3.912   0.783  0.6142 -0.2993  0.7488
  275MOL0     C37844   1.235   3.835   0.697  0.2033 -0.3190  0.0918
  275MOL0     C37845   1.243   3.696   0.727  0.1715 -0.3406 -0.0333
  275MOL0     C37846   1.305   3.603   0.641  0.7606  0.2524 -0.2409
  275MOL0     C37847   1.376   3.648   0.526 -0.0709  0.0389 -0.4010
  275MOL0     O37848   1.441   3.548   0.455  0.0904  0.2671 -0.1133
  275MOL0     C37849   1.543   3.584   0.350 -0.8732 -0.5877  0.4005
  275MOL0     C37850   1.680   3.588   0.421  0.3145 -0.5333 -0.3779
  275MOL0     C37851   1.781   3.637   0.309 -0.8852 -0.1739 -0.7024
  275MOL0     C37852   1.919   3.662   0.370 -0.1380 -0.0258  0.2607
  275MOL0     C37853   2.020   3.699   0.254  0.8773  0.1343 -0.5661
  275MOL0     C37854   2.158   3.699   0.309 -0.5766 -0.8483  0.1611
  275MOL0     C37855   2.257   3.748   0.205 -0.1641  0.2224 -0.3544
  275MOL0     C37856   2.398   3.753   0.265 -0.1063  0.1638 -0.3708
  275MOL0    Cl37857   2.394   3.873   0.412  0.3948 -0.2924  0.1395
  275MOL0     C37858   1.383   3.788   0.503 -0.4521  0.7932  0.4070
  275MOL0     C37859   1.306   3.877   0.581 -0.0836  0.1500 -0.1839
  275MOL0     O37860   1.049   4.028   0.613  0.1071 -0.3872 -0.7110
  275MOL0     C37861   1.161   4.155   0.920 -0.4205 -1.0720  0.8987
  275MOL0     C37862   1.160   4.277   0.999 -0.4081 -0.8181  0.4615
  275MOL0     N37863   0.767   4.792   0.930  0.6420 -0.3002 -0.1577
  275MOL0     N37864   0.702   4.837   0.832  0.5713  0.0494  0.3942
  275MOL0     C37865   0.386   5.998   0.733 -0.2475  0.2159  0.3428
  275MOL0     C37866   0.320   6.109   0.785 -0.7097 -0.2487 -0.2228
  275MOL0     C37867   0.007   6.359   1.001  0.8165 -0.6452 -0.2214
  275MOL0     C37868   0.052   6.492   0.964 -0.7746  0.2718  0.2565
  275MOL0     C37869  -0.010   6.610   1.004 -1.1817 -1.0191 -0.4892
  275MOL0     C37870  -0.106   6.612   1.102  1.5688 -0.0438 -0.1031
  275MOL0     O37871  -0.151   6.735   1.138  0.0067 -0.4200  0.3973
  275MOL0     C37872  -0.273   6.743   1.207  0.0112 -0.0307 -0.1335
  275MOL0     C37873  -0.330   6.887   1.204 -0.4737  0.1664 -0.0652
  275MOL0     C37874  -0.294   6.956   1.342  0.3170  0.0808 -0.1736
  275MOL0     C37875  -0.317   7.103   1.342  0.3293  0.3491  0.0240
  275MOL0     C37876  -0.283   7.171   1.475  1.3247  0.0393  0.9784
  275MOL0     C37877  -0.268   7.217   1.587 -0.0833 -0.1838  0.5508
  275MOL0     C37878  -0.144   6.486   1.149 -0.1339 -1.0135  0.1219
  275MOL0     C37879  -0.103   6.366   1.092  0.1397  0.8896  0.5156
  275MOL0     C37880  -0.172   6.242   1.155 -0.2234 -0.8097 -0.5197
  275MOL0     H37881   0.003   5.998   0.751  0.3841 -3.5933  0.5874
  275MOL0     H37882   0.100   5.800   0.664  1.9653 -1.6531 -1.2704
  275MOL0     H37883   0.275   5.768   0.455 -1.0786 -3.1404 -1.9426
  275MOL0     H37884   0.248   5.649   0.569 -1.5238 -0.0025 -0.6646
  275MOL0     H37885   0.402   5.586   0.366 -1.2131  1.4548  0.6162
  275MOL0     H37886   0.535   5.658   0.463 -1.6054  1.1092 -2.0048
  275MOL0     H37887   0.522   5.488   0.638  3.0956 -0.1660 -1.3914
  275MOL0     H37888   0.361   5.448   0.590  1.3896 -1.8066  1.4759
  275MOL0     H37889   0.462   5.366   0.363  2.5001 -2.1574 -1.9248
  275MOL0     H37890   0.616   5.411   0.418  1.6843 -0.0770  3.8911
  275MOL0     H37891   0.623   5.177   0.473 -1.6486 -3.3248  4.5081
  275MOL0     H37892   0.451   5.168   0.461  0.7551 -0.4198 -1.4218
  275MOL0     H37893   0.619   5.251   0.709  1.6316 -4.2041 -0.9286
  275MOL0     H37894   0.444   5.247   0.716 -0.6721 -1.5048  1.3627
  275MOL0     H37895   0.634   5.024   0.642  1.3722 -0.8402  2.3385
  275MOL0     H37896   0.449   5.008   0.656 -0.2077  0.1497  1.0613
  275MOL0     H37897   0.522   5.104   0.900  0.2079 -2.3687  2.3084
  275MOL0     H37898   0.483   4.945   0.869 -3.7417  2.9265 -0.7626
  275MOL0     H37899   0.756   5.109   0.995 -0.2591 -0.1788  0.6467
  275MOL0     H37900   0.892   5.007   1.181 -0.3586  0.1141  0.2331
  275MOL0     H37901   1.012   4.907   1.100 -0.7053  2.0155 -0.8949
  275MOL0     H37902   0.887   4.829   1.327  1.4041 -2.0222 -0.2174
  275MOL0     H37903   0.777   4.754   1.213 -1.7804  4.3495 -0.1158
  275MOL0     H37904   1.078   4.702   1.233  0.5077 -4.0828  1.6200
  275MOL0     H37905   0.958   4.602   1.284  0.1498  2.5491  2.4889
  275MOL0     H37906   0.863   4.556   1.053 -1.6557  3.2940 -2.3700
  275MOL0     H37907   0.994   4.651   0.987 -2.1612  0.3908 -0.6850
  275MOL0     H37908   0.877   4.416   0.861  0.5362  1.8155  3.8717
  275MOL0     H37909   0.818   4.329   0.677 -2.4105 -1.9590 -0.9752
  275MOL0     H37910   0.809   4.153   0.685  1.2235 -0.6110  2.2301
  275MOL0     H37911   0.929   4.217   0.580  4.6436  1.8691  1.0648
  275MOL0     H37912   1.182   3.654   0.807 -2.5764 -0.0128 -1.8216
  275MOL0     H37913   1.296   3.496   0.653  0.3190  0.3228  0.1028
  275MOL0     H37914   1.549   3.500   0.281  1.6593  0.4874 -0.8197
  275MOL0     H37915   1.510   3.677   0.302  0.6466 -0.9004 -1.3352
  275MOL0     H37916   1.664   3.660   0.501  0.0483  0.4004 -1.2451
  275MOL0     H37917   1.712   3.496   0.472 -3.4443 -1.1163  1.2354
  275MOL0     H37918   1.737   3.727   0.266 -0.5404  0.1856 -0.3187
  275MOL0     H37919   1.794   3.562   0.231  3.8775 -0.1395 -0.2662
  275MOL0     H37920   1.968   3.574   0.413  2.5572 -1.4092 -4.8021
  275MOL0     H37921   1.905   3.731   0.454 -3.3130 -1.1258  0.7563
  275MOL0     H37922   2.028   3.623   0.176  0.9595 -1.3292  0.8074
  275MOL0     H37923   1.989   3.790   0.202  0.4928 -0.5649 -1.5915
  275MOL0     H37924   2.184   3.602   0.352 -0.5465 -0.4467  1.0804
  275MOL0     H37925   2.158   3.769   0.393  1.9477 -0.3792 -0.1538
  275MOL0     H37926   2.234   3.847   0.165  1.1768  0.7088  0.0487
  275MOL0     H37927   2.250   3.677   0.122 -2.2750  1.7123 -1.5571
  275MOL0     H37928   2.468   3.787   0.188  0.3187  1.6182  0.6030
  275MOL0     H37929   2.422   3.654   0.304  0.4174  0.9375  1.3767
  275MOL0     H37930   1.427   3.839   0.418  1.3069  1.1999  1.5024
  275MOL0     H37931   1.328   3.979   0.551 -3.1945  0.2771 -2.5176
  275MOL0     H37932   1.223   4.073   0.956  0.4278  0.1005  2.2214
  275MOL0     H37933   1.236   4.313   1.069  2.7855 -1.3886 -2.4757
  275MOL0     H37934   0.493   5.992   0.745 -0.0267  3.0493  0.5075
  275MOL0     H37935   0.370   6.196   0.826 -1.7727  1.0217 -1.5347
  275MOL0     H37936   0.139   6.495   0.898 -1.5596 -1.4613 -0.9151
  275MOL0     H37937   0.024   6.706   0.967 -0.7105  0.0632  2.4901
  275MOL0     H37938  -0.350   6.682   1.159 -2.2047  1.1182  1.7656
  275MOL0     H37939  -0.256   6.714   1.311 -1.4199  2.1687  0.7850
  275MOL0     H37940  -0.439   6.883   1.196 -0.4102  0.6329 -1.4879
  275MOL0     H37941  -0.278   6.934   1.120  2.1553  0.8472  1.8088
  275MOL0     H37942  -0.359   6.910   1.416  1.2690 -0.5328  0.2984
  275MOL0     H37943  -0.187   6.944   1.359  0.1590 -2.3197 -0.5317
  275MOL0     H37944  -0.422   7.132   1.333  1.0746  3.6128  0.6074
  275MOL0     H37945  -0.250   7.147   1.267 -0.3107 -0.6895 -1.2117
  275MOL0     H37946  -0.259   7.239   1.691 -2.9083 -0.5163  0.9484
  275MOL0     H37947  -0.227   6.484   1.219  0.7778  1.2136  1.3795
  275MOL0     H37948  -0.183   6.246   1.264 -3.1350 -0.6877 -0.7302
  275MOL0     H37949  -0.272   6.254   1.112 -0.2300  1.3005 -0.0076
  275MOL0     H37950  -0.136   6.142   1.129  2.2274 -0.4222  1.0136
  276MOL0     O37951   5.473   5.554   7.314  0.1912 -0.3556  0.5180
  276MOL0     C37952   5.520   5.665   7.320  0.0411 -0.1470 -0.2002
  276MOL0     O37953   5.657   5.681   7.314  0.7470  0.1365 -0.3304
  276MOL0     C37954   5.753   5.590   7.304  0.2100 -0.2079 -0.5859
  276MOL0     C37955   5.739   5.451   7.334 -0.8655 -0.0342  0.2089
  276MOL0     C37956   5.860   5.383   7.335 -0.3216 -0.0473 -2.0468
  276MOL0     C37957   5.986   5.439   7.320  0.7309  0.2836  0.7467
  276MOL0     O37958   6.096   5.359   7.330  0.3257 -0.9022 -0.7905
  276MOL0     C37959   6.227   5.417   7.348 -0.4070  0.3743 -0.6447
  276MOL0     C37960   6.236   5.497   7.482  0.0245 -0.3972  0.2226
  276MOL0     C37961   6.154   5.439   7.598 -0.0400 -0.9194  0.2577
  276MOL0     C37962   6.173   5.287   7.630 -0.1361 -0.9299  0.3931
  276MOL0     C37963   6.082   5.255   7.752 -0.4390 -0.8030  0.4687
  276MOL0     C37964   6.113   5.113   7.812  0.2580  0.0687 -0.1307
  276MOL0     C37965   6.090   5.001   7.706 -0.8374  0.0472  0.0392
  276MOL0     C37966   5.958   4.970   7.651  0.2517 -0.0456 -0.6286
  276MOL0     N37967   5.867   4.918   7.750  0.3929 -0.0079  0.5497
  276MOL0     C37968   5.868   4.797   7.802 -0.6201  0.2927 -0.4750
  276MOL0     C37969   5.758   4.787   7.880 -0.3644 -0.4032 -0.2776
  276MOL0     C37970   5.723   4.668   7.962 -0.1271  1.5682  0.0841
  276MOL0     C37971   5.591   4.699   8.045 -0.6213  0.4251 -0.6552
  276MOL0     C37972   5.454   4.701   7.962 -0.8272 -0.6585  0.4349
  276MOL0     C37973   5.385   4.562   7.964  0.5329  0.6363 -0.4316
  276MOL0     O37974   5.474   4.447   7.955  0.1944  0.0808 -0.2682
  276MOL0     C37975   5.410   4.320   7.967  0.2044 -0.4456  0.4050
  276MOL0     C37976   5.277   4.300   7.986 -0.1564 -0.2611  0.0451
  276MOL0     C37977   5.226   4.169   7.983 -0.5101 -0.8419 -0.4388
  276MOL0     C37978   5.080   4.157   8.008  0.1476  0.0021 -0.1581
  276MOL0     C37979   5.310   4.056   7.945  0.2649  0.2909 -0.3009
  276MOL0     C37980   5.247   3.922   7.923  0.7318  0.1304  0.1693
  276MOL0     O37981   5.309   3.835   7.829  0.4849  0.6402 -0.8173
  276MOL0     C37982   5.256   3.700   7.837  0.1142 -0.5205  1.0924
  276MOL0     C37983   5.278   3.625   7.954  0.1477 -0.1230  0.7499
  276MOL0     C37984   5.235   3.497   7.964  0.8701 -0.3511  0.3522
  276MOL0     C37985   5.153   3.434   7.866 -0.4445  1.0521  0.4165
  276MOL0     O37986   5.105   3.305   7.879  0.3121  0.3348 -0.3443
  276MOL0     C37987   5.196   3.211   7.819  0.2157  0.4205  0.4278
  276MOL0     C37988   5.165   3.070   7.875  0.1273 -0.5101  0.1420
  276MOL0     C37989   5.052   3.023   7.785 -0.0470  0.4705 -0.1245
  276MOL0     C37990   5.023   2.875   7.833 -0.6552 -0.3102  0.2200
  276MOL0     C37991   4.967   2.871   7.973  0.3558  0.6915  0.1206
  276MOL0     C37992   4.906   2.732   8.015  0.2701 -0.3138  0.0237
  276MOL0     C37993   4.882   2.738   8.162 -0.0517  0.2969 -0.4538
  276MOL0     C37994   4.829   2.605   8.220  0.1161  0.1920 -0.2082
  276MOL0    Cl37995   4.911   2.468   8.144  0.1766 -0.4676 -0.5608
  276MOL0     C37996   5.127   3.506   7.747 -0.1682 -0.2129  0.1238
  276MOL0     C37997   5.181   3.639   7.734 -0.9830 -0.0589  0.1247
  276MOL0     O37998   5.152   3.886   7.995  0.1973  0.1014  0.4977
  276MOL0     C37999   5.444   4.079   7.908  0.0387 -1.0704 -0.5340
  276MOL0     C38000   5.490   4.212   7.912  0.8830  0.2399 -0.0221
  276MOL0     N38001   5.688   4.911   7.880  0.3052 -0.1660 -0.3166
  276MOL0     N38002   5.759   4.987   7.800  0.4111 -1.2458  0.1588
  276MOL0     C38003   5.998   5.573   7.282 -0.0408  0.3758  0.8682
  276MOL0     C38004   5.880   5.647   7.273  0.6500 -0.2767 -0.2330
  276MOL0     C38005   5.441   5.786   7.302  0.6050  0.1091 -0.4570
  276MOL0     C38006   5.493   5.920   7.269  0.6308  0.3303  0.7315
  276MOL0     C38007   5.409   6.037   7.272 -0.3243  0.0670 -0.3652
  276MOL0     C38008   5.272   6.021   7.279 -1.4783 -0.2858  0.2514
  276MOL0     O38009   5.181   6.127   7.280 -0.6893 -0.3643 -0.0421
  276MOL0     C38010   5.222   6.257   7.244  0.3511 -0.2516 -0.4653
  276MOL0     C38011   5.108   6.347   7.207 -0.5448  0.3044  0.1095
  276MOL0     C38012   5.155   6.492   7.197  0.0837 -0.3097 -0.0880
  276MOL0     C38013   5.038   6.588   7.175 -0.4713  0.6497 -0.2797
  276MOL0     C38014   5.055   6.730   7.195  0.0688 -0.6859 -0.1638
  276MOL0     C38015   5.072   6.853   7.189  0.9269  0.5319 -0.9279
  276MOL0     C38016   5.224   5.902   7.313  0.2849  0.5226 -0.3910
  276MOL0     C38017   5.297   5.779   7.315  1.0931 -0.2338  0.4334
  276MOL0     C38018   5.207   5.658   7.349 -0.4578  0.6862  0.4922
  276MOL0     H38019   5.648   5.395   7.351 -0.9867  0.4660  1.3635
  276MOL0     H38020   5.851   5.276   7.355  2.1922  0.4176  3.0063
  276MOL0     H38021   6.265   5.470   7.261 -0.6310 -1.8878 -2.2213
  276MOL0     H38022   6.308   5.344   7.358 -0.9722  0.1212  5.0674
  276MOL0     H38023   6.343   5.493   7.506  0.7142 -4.0207 -2.5517
  276MOL0     H38024   6.221   5.604   7.465  2.7032 -0.2636 -2.0637
  276MOL0     H38025   6.169   5.498   7.688 -2.3579  0.8962 -0.4625
  276MOL0     H38026   6.049   5.457   7.573  0.0399 -3.5658 -2.5750
  276MOL0     H38027   6.149   5.229   7.541  1.9030 -0.5875 -0.4350
  276MOL0     H38028   6.278   5.268   7.653  0.9030  2.2471 -1.1076
  276MOL0     H38029   5.979   5.250   7.715 -0.8098 -0.3384  1.4191
  276MOL0     H38030   6.080   5.327   7.834 -2.7139 -0.4066  0.1356
  276MOL0     H38031   6.217   5.122   7.846 -0.2671  5.0049  0.8427
  276MOL0     H38032   6.062   5.100   7.908 -3.7560  1.5439 -1.8569
  276MOL0     H38033   6.131   4.911   7.754 -1.1623 -0.3038 -0.3355
  276MOL0     H38034   6.161   5.013   7.624  0.1528 -3.3465  0.2691
  276MOL0     H38035   5.915   5.062   7.609 -0.6189 -1.2864 -2.6043
  276MOL0     H38036   5.966   4.901   7.567  0.6027 -1.1641  0.2959
  276MOL0     H38037   5.940   4.719   7.782  0.4850  1.3789 -0.8281
  276MOL0     H38038   5.805   4.643   8.030 -1.6877 -2.8657  0.6319
  276MOL0     H38039   5.706   4.589   7.889  0.0101  2.8972 -1.4278
  276MOL0     H38040   5.580   4.607   8.104  0.6780 -0.6426 -2.0089
  276MOL0     H38041   5.610   4.787   8.107 -3.7797  1.8037 -1.4434
  276MOL0     H38042   5.380   4.774   7.994 -0.4163  0.4884 -1.1244
  276MOL0     H38043   5.488   4.728   7.862  0.9494  4.9818  2.2182
  276MOL0     H38044   5.340   4.563   8.064 -1.8312 -2.3742 -1.3403
  276MOL0     H38045   5.298   4.540   7.902 -0.5244 -1.5822  1.6392
  276MOL0     H38046   5.203   4.378   8.000 -2.2948 -2.3763  1.3011
  276MOL0     H38047   5.086   4.088   8.092  0.2154 -0.5038 -0.5743
  276MOL0     H38048   5.039   4.110   7.918  1.8987 -0.8890 -0.5102
  276MOL0     H38049   5.033   4.254   8.031 -2.1080 -0.9580 -0.4054
  276MOL0     H38050   5.328   3.687   8.027  3.3507 -0.0837 -1.2925
  276MOL0     H38051   5.252   3.439   8.054 -0.0752 -0.7741  0.2723
  276MOL0     H38052   5.181   3.221   7.711  2.3739 -0.2984  0.0094
  276MOL0     H38053   5.300   3.234   7.844  2.7023 -0.6898 -6.7578
  276MOL0     H38054   5.251   3.003   7.872 -1.5926 -2.8696  0.5902
  276MOL0     H38055   5.119   3.074   7.974 -1.6431  1.5739 -0.6749
  276MOL0     H38056   5.076   3.019   7.678  0.6102  2.9687 -0.1243
  276MOL0     H38057   4.966   3.088   7.798 -0.9440 -1.2834  4.1253
  276MOL0     H38058   5.122   2.830   7.822  0.2590  1.9737 -1.6606
  276MOL0     H38059   4.957   2.822   7.763 -2.4756 -1.8436  2.8999
  276MOL0     H38060   5.058   2.883   8.034 -0.3390 -0.9281  1.5724
  276MOL0     H38061   4.893   2.950   7.989  0.7356  1.0991 -0.1160
  276MOL0     H38062   4.985   2.658   7.996 -0.1672 -0.3713 -1.7501
  276MOL0     H38063   4.818   2.717   7.952  0.6957 -2.1486 -0.2054
  276MOL0     H38064   4.804   2.810   8.190 -0.9761 -1.0709  0.6476
  276MOL0     H38065   4.975   2.755   8.216 -0.2359  3.2016 -0.8952
  276MOL0     H38066   4.724   2.587   8.194  0.7529  0.7106 -3.7089
  276MOL0     H38067   4.844   2.602   8.328 -0.2637  0.9873 -0.1283
  276MOL0     H38068   5.072   3.476   7.659 -1.0753  4.6973 -1.2457
  276MOL0     H38069   5.164   3.712   7.655  2.2123 -2.0889 -2.7534
  276MOL0     H38070   5.524   4.007   7.892 -1.4141 -3.1105  0.7676
  276MOL0     H38071   5.591   4.229   7.877  0.0834  1.5375 -1.8718
  276MOL0     H38072   6.092   5.624   7.265 -0.6970  0.4701 -3.3213
  276MOL0     H38073   5.875   5.753   7.248  0.2259 -0.2102  0.1264
  276MOL0     H38074   5.599   5.929   7.252  0.3862  1.8200 -0.1598
  276MOL0     H38075   5.455   6.131   7.247  1.3999 -0.2680  1.3374
  276MOL0     H38076   5.274   6.296   7.332  1.2057  1.1869 -1.5683
  276MOL0     H38077   5.289   6.254   7.158 -1.8679 -0.4965 -2.2891
  276MOL0     H38078   5.027   6.336   7.280 -0.2976 -1.1448  0.1905
  276MOL0     H38079   5.072   6.307   7.112 -0.8839 -0.8248  0.6933
  276MOL0     H38080   5.211   6.519   7.287  0.1940  0.4575 -0.3784
  276MOL0     H38081   5.222   6.515   7.114  0.5855  2.0587  0.8847
  276MOL0     H38082   4.950   6.558   7.233 -0.2196 -0.9802 -0.6964
  276MOL0     H38083   5.004   6.574   7.072 -1.3908 -0.8726  0.1912
  276MOL0     H38084   5.064   6.960   7.186  0.9242  0.6521  1.4987
  276MOL0     H38085   5.115   5.897   7.322  0.1046 -1.4310 -2.6773
  276MOL0     H38086   5.108   5.677   7.306 -0.5066  1.2366  0.8375
  276MOL0     H38087   5.244   5.562   7.311 -0.9658  1.4280 -2.0417
  276MOL0     H38088   5.185   5.651   7.456 -1.4091  3.9501  0.6243
  277MOL0     O38089   0.057   1.244  10.452  0.3913 -0.5518  0.7593
  277MOL0     C38090   0.014   1.268  10.566  0.5906 -0.7247  0.9908
  277MOL0     O38091   0.092   1.306  10.665 -0.4744  0.7251 -0.3233
  277MOL0     C38092   0.221   1.319  10.656  0.0586 -0.8043 -0.5668
  277MOL0     C38093   0.304   1.353  10.544 -0.0379 -0.4614  0.4273
  277MOL0     C38094   0.445   1.362  10.554 -0.2008  0.5005  0.7103
  277MOL0     C38095   0.513   1.344  10.675 -0.0563 -0.5048 -0.7746
  277MOL0     O38096   0.651   1.350  10.690 -0.2294  0.4768  0.7923
  277MOL0     C38097   0.734   1.443  10.617  0.0976  0.1097  1.1145
  277MOL0     C38098   0.745   1.574  10.704 -0.6420  0.7705 -0.8710
  277MOL0     C38099   0.610   1.634  10.742  0.0282  1.0306 -0.1856
  277MOL0     C38100   0.609   1.786  10.734 -0.5738  0.0297 -0.4803
  277MOL0     C38101   0.472   1.850  10.753 -0.3161 -0.5399  0.0529
  277MOL0     C38102   0.484   2.001  10.765  0.3841  0.1905  0.7522
  277MOL0     C38103   0.350   2.056  10.810  0.1006  0.0931  0.0482
  277MOL0     C38104   0.311   2.025  10.962 -0.2994 -0.1922 -0.5465
  277MOL0     N38105   0.175   2.063  10.978 -0.4730 -2.1548 -0.9690
  277MOL0     C38106   0.070   1.988  10.933 -0.2670  0.8882 -0.3362
  277MOL0     C38107  -0.040   2.050  10.972 -0.6993 -0.0042 -0.9827
  277MOL0     C38108  -0.186   2.023  10.938  1.1919  0.0603 -0.8684
  277MOL0     C38109  -0.266   2.004  11.070 -0.5105 -0.7679  0.3519
  277MOL0     C38110  -0.258   1.869  11.143 -0.2538  0.3674  0.6075
  277MOL0     C38111  -0.349   1.869  11.267 -0.2589  0.4520 -0.8976
  277MOL0     O38112  -0.489   1.901  11.237 -0.1120  0.1102 -0.0041
  277MOL0     C38113  -0.591   1.899  11.333 -0.4163  0.2711 -0.4373
  277MOL0     C38114  -0.723   1.935  11.296 -0.4911 -0.0522 -0.1418
  277MOL0     C38115  -0.837   1.929  11.381 -0.6206 -0.4009 -0.5781
  277MOL0     C38116  -0.970   1.978  11.326 -0.2338 -0.1718 -0.8598
  277MOL0     C38117  -0.806   1.896  11.525  0.3684  1.0536  0.7060
  277MOL0     C38118  -0.919   1.885  11.625 -0.3983  0.6879 -0.3212
  277MOL0     O38119  -1.049   1.880  11.572 -0.0798  0.2297 -1.3387
  277MOL0     C38120  -1.164   1.826  11.630  0.8669  0.9824  0.2946
  277MOL0     C38121  -1.166   1.741  11.740 -0.4706 -0.7139 -0.0007
  277MOL0     C38122  -1.292   1.696  11.786 -0.7675  0.7802  0.1013
  277MOL0     C38123  -1.409   1.727  11.720  1.4984 -0.1345  0.2872
  277MOL0     O38124  -1.536   1.685  11.751 -0.7817  0.4673  0.5627
  277MOL0     C38125  -1.563   1.705  11.888 -0.1131  0.3223  0.1880
  277MOL0     C38126  -1.712   1.670  11.914  0.6225  0.0498 -1.1493
  277MOL0     C38127  -1.736   1.520  11.879  0.9389 -1.1410 -0.9368
  277MOL0     C38128  -1.884   1.491  11.904 -0.0465  0.1637  0.2213
  277MOL0     C38129  -1.927   1.476  12.054 -0.4994 -0.4044  0.8009
  277MOL0     C38130  -2.086   1.435  12.056  0.4048 -0.0211 -1.0168
  277MOL0     C38131  -2.104   1.284  12.038  0.6027 -0.2174 -0.2075
  277MOL0     C38132  -2.256   1.259  12.055  0.7416  0.2077  0.4437
  277MOL0    Cl38133  -2.337   1.334  11.917 -0.0314  0.4536 -0.3745
  277MOL0     C38134  -1.405   1.795  11.599  0.2635 -0.3118 -0.3689
  277MOL0     C38135  -1.283   1.844  11.558 -1.2699 -0.3529 -0.1016
  277MOL0     O38136  -0.884   1.875  11.744 -0.7123 -0.1751  0.4492
  277MOL0     C38137  -0.671   1.871  11.566  0.3842  0.6091  0.2460
  277MOL0     C38138  -0.574   1.872  11.471  0.3372 -0.8614  0.7758
  277MOL0     N38139   0.004   2.179  11.015 -0.2608 -0.1896 -0.4803
  277MOL0     N38140   0.129   2.184  11.017 -1.1373 -0.1017 -0.3066
  277MOL0     C38141   0.442   1.304  10.783 -0.3764  0.5625  0.5206
  277MOL0     C38142   0.298   1.300  10.775  0.3191  0.4639 -0.7694
  277MOL0     C38143  -0.127   1.250  10.603  1.3387 -0.4129 -1.3112
  277MOL0     C38144  -0.167   1.281  10.737  0.4837  0.3102  0.4827
  277MOL0     C38145  -0.305   1.274  10.770 -0.4742  0.3756 -0.5893
  277MOL0     C38146  -0.395   1.229  10.677 -0.0162  0.6464 -0.5870
  277MOL0     O38147  -0.529   1.232  10.735 -0.5677  0.1865  0.2127
  277MOL0     C38148  -0.605   1.116  10.706  0.5066  0.2332 -0.8912
  277MOL0     C38149  -0.560   1.001  10.785 -0.0471  0.2895  0.5458
  277MOL0     C38150  -0.592   1.046  10.927  0.3363 -0.3598 -1.0752
  277MOL0     C38151  -0.529   0.948  11.019  0.7072  0.3960 -0.6644
  277MOL0     C38152  -0.565   0.804  10.999 -1.2116 -0.0193  0.5516
  277MOL0     C38153  -0.588   0.690  10.967 -1.2293  0.0870  0.2276
  277MOL0     C38154  -0.358   1.193  10.545 -0.6449 -0.0822 -0.0510
  277MOL0     C38155  -0.226   1.206  10.509  0.0188  1.3828  0.6756
  277MOL0     C38156  -0.191   1.154  10.370 -0.7210  0.6998 -0.2606
  277MOL0     H38157   0.256   1.362  10.448 -0.9758  0.8219  0.9929
  277MOL0     H38158   0.508   1.376  10.467 -0.8789 -1.8262 -0.2227
  277MOL0     H38159   0.697   1.468  10.518  2.8394 -1.1566 -0.3342
  277MOL0     H38160   0.829   1.391  10.609 -1.5606 -2.7848 -2.8510
  277MOL0     H38161   0.790   1.567  10.803 -1.6835  5.5600  0.2279
  277MOL0     H38162   0.807   1.646  10.649 -0.8879  2.7985  1.3556
  277MOL0     H38163   0.537   1.605  10.665 -0.6880 -0.7590  1.1033
  277MOL0     H38164   0.576   1.593  10.837  1.8236 -1.2035 -0.4333
  277MOL0     H38165   0.689   1.829  10.794 -2.7059  4.7014 -0.5332
  277MOL0     H38166   0.630   1.818  10.632  0.6991  2.6438  0.5287
  277MOL0     H38167   0.430   1.812  10.847 -0.2404  2.4867  1.4224
  277MOL0     H38168   0.411   1.824  10.665  1.3223  1.0104 -1.6267
  277MOL0     H38169   0.553   2.018  10.848  0.2699 -0.2669  0.9408
  277MOL0     H38170   0.515   2.037  10.666  3.1126 -0.8538  1.1497
  277MOL0     H38171   0.277   2.019  10.737  0.6910  0.1931 -0.5985
  277MOL0     H38172   0.347   2.165  10.800 -0.0238  0.1633  0.7409
  277MOL0     H38173   0.325   1.918  10.981 -0.7031 -1.1854 -4.9258
  277MOL0     H38174   0.372   2.086  11.030 -0.2987 -0.7712 -0.0126
  277MOL0     H38175   0.073   1.905  10.863 -0.7437  0.4359  0.1731
  277MOL0     H38176  -0.197   1.933  10.877  0.5891  0.4827 -1.3885
  277MOL0     H38177  -0.225   2.109  10.883  1.2271 -0.8383 -2.3624
  277MOL0     H38178  -0.231   2.079  11.141  1.8375 -3.3916  2.2189
  277MOL0     H38179  -0.372   2.015  11.046 -0.6776  0.8907  1.6887
  277MOL0     H38180  -0.293   1.796  11.070 -1.6697  0.9095  0.7162
  277MOL0     H38181  -0.157   1.840  11.175 -0.9826 -1.4522  1.3543
  277MOL0     H38182  -0.351   1.774  11.321  0.7021  1.0171  0.2104
  277MOL0     H38183  -0.325   1.938  11.349 -2.6895 -0.8110  1.0221
  277MOL0     H38184  -0.736   1.960  11.191  0.3431 -1.2971 -0.5625
  277MOL0     H38185  -1.041   1.896  11.336  0.8113 -1.0509 -0.4228
  277MOL0     H38186  -0.958   2.006  11.221  1.3242 -2.0350 -1.2316
  277MOL0     H38187  -0.995   2.066  11.386  0.6026 -2.0672  2.5197
  277MOL0     H38188  -1.082   1.692  11.786 -0.4225 -1.1247 -0.5111
  277MOL0     H38189  -1.295   1.651  11.885 -3.1056  0.5953 -0.0080
  277MOL0     H38190  -1.501   1.648  11.958  2.2330 -0.2702 -2.1892
  277MOL0     H38191  -1.543   1.812  11.899 -0.4483  0.2290  1.8654
  277MOL0     H38192  -1.742   1.685  12.018  0.8966 -3.6499 -0.3806
  277MOL0     H38193  -1.790   1.731  11.868 -2.6433 -2.0454  1.1434
  277MOL0     H38194  -1.662   1.476  11.946  0.5481 -1.8166 -0.9352
  277MOL0     H38195  -1.707   1.498  11.776  1.9785 -0.1169 -0.8720
  277MOL0     H38196  -1.902   1.395  11.855 -1.6021  1.0695 -1.0590
  277MOL0     H38197  -1.953   1.561  11.856 -0.1950 -0.7233 -0.9177
  277MOL0     H38198  -1.853   1.407  12.096  2.2868  1.8613 -0.0631
  277MOL0     H38199  -1.902   1.569  12.107  0.4256  0.2301 -0.6974
  277MOL0     H38200  -2.138   1.489  11.977  0.1723  1.3488  0.0420
  277MOL0     H38201  -2.121   1.450  12.159 -1.6735  1.0869 -1.8300
  277MOL0     H38202  -2.050   1.231  12.116 -2.2044 -0.9393  1.4076
  277MOL0     H38203  -2.069   1.249  11.940  0.8132  1.6910 -0.8583
  277MOL0     H38204  -2.307   1.295  12.145 -1.7857 -2.0239  0.0408
  277MOL0     H38205  -2.279   1.152  12.053  0.9733  0.1583  0.4240
  277MOL0     H38206  -1.488   1.822  11.535  0.7125 -0.2047 -0.9103
  277MOL0     H38207  -1.282   1.907  11.470  0.1740  1.7746  1.3360
  277MOL0     H38208  -0.656   1.850  11.672 -0.3005 -0.4452  0.1397
  277MOL0     H38209  -0.479   1.836  11.506 -0.6248 -2.0718  2.2600
  277MOL0     H38210   0.493   1.291  10.878  1.1809 -0.4284 -0.4136
  277MOL0     H38211   0.248   1.283  10.870  1.0269  0.7576 -0.3361
  277MOL0     H38212  -0.094   1.324  10.804 -0.0034  6.0965 -2.0710
  277MOL0     H38213  -0.334   1.304  10.870  2.0504 -0.5853  0.5244
  277MOL0     H38214  -0.712   1.134  10.725 -0.0604 -3.4564  0.1034
  277MOL0     H38215  -0.594   1.088  10.601 -1.2021 -2.6271 -0.4084
  277MOL0     H38216  -0.453   0.991  10.763  1.1709  3.3782  3.8914
  277MOL0     H38217  -0.619   0.914  10.753 -3.1728  3.0720 -1.9787
  277MOL0     H38218  -0.544   1.142  10.948 -0.4932  0.0347 -0.9153
  277MOL0     H38219  -0.697   1.067  10.951  1.1271  0.2203  2.4947
  277MOL0     H38220  -0.559   0.977  11.120 -2.5516 -2.6789 -0.5399
  277MOL0     H38221  -0.423   0.974  11.017  0.2577  3.3368  3.2239
  277MOL0     H38222  -0.612   0.587  10.949  2.5691 -0.7886 -0.7025
  277MOL0     H38223  -0.435   1.161  10.475 -1.4700 -0.7113  1.0971
  277MOL0     H38224  -0.136   1.227  10.310 -0.8601  2.7917  1.9669
  277MOL0     H38225  -0.126   1.068  10.386 -1.4057 -0.1016 -1.6059
  277MOL0     H38226  -0.280   1.112  10.324  0.3108 -2.6722  0.5738
  278MOL0     O38227   3.251   4.892   2.843 -0.1210  0.2291 -0.4040
  278MOL0     C38228   3.168   4.965   2.903  0.1038  1.1088 -0.5375
  278MOL0     O38229   3.090   5.054   2.840  0.3221  0.0324 -0.1380
  278MOL0     C38230   3.057   5.049   2.704 -0.2577  1.0775 -0.1483
  278MOL0     C38231   3.035   5.166   2.636 -0.3669 -0.1266 -0.0223
  278MOL0     C38232   2.985   5.164   2.504  0.3732 -0.1403  0.6759
  278MOL0     C38233   2.970   5.045   2.428  0.3053 -0.2272 -0.1040
  278MOL0     O38234   2.927   5.051   2.298 -0.6239 -0.3759 -0.5619
  278MOL0     C38235   2.786   5.016   2.285 -0.9825  0.0300 -0.6139
  278MOL0     C38236   2.740   5.005   2.135 -0.2415 -0.1531 -0.3874
  278MOL0     C38237   2.786   4.875   2.063  0.7705  0.2126  0.4060
  278MOL0     C38238   2.687   4.766   2.096  0.2169  0.2713  0.2055
  278MOL0     C38239   2.739   4.632   2.056 -0.1840 -0.1576  0.3876
  278MOL0     C38240   2.641   4.510   2.078 -0.3626  0.5751  0.5873
  278MOL0     C38241   2.716   4.369   2.071  0.9267  1.4146  0.6042
  278MOL0     C38242   2.756   4.325   1.923 -0.2507  0.9544 -0.2369
  278MOL0     N38243   2.640   4.281   1.848  0.7511  0.1660 -0.1408
  278MOL0     C38244   2.571   4.160   1.867  0.3767 -0.0417 -0.0250
  278MOL0     C38245   2.510   4.132   1.749 -0.0171 -0.7541  1.0504
  278MOL0     C38246   2.432   4.011   1.712 -0.3402  0.1775  0.2842
  278MOL0     C38247   2.529   3.893   1.695  0.4172  0.4359  0.1513
  278MOL0     C38248   2.554   3.817   1.822 -0.1812 -0.2332  0.6472
  278MOL0     C38249   2.672   3.734   1.810  0.2181  0.7854  0.1385
  278MOL0     O38250   2.794   3.808   1.820  1.0232  0.1827  0.3561
  278MOL0     C38251   2.913   3.746   1.800  0.1550 -0.1510  0.4139
  278MOL0     C38252   2.927   3.606   1.795 -0.3825 -0.3540 -0.2162
  278MOL0     C38253   3.045   3.548   1.749 -1.2326  0.2143  0.2540
  278MOL0     C38254   3.050   3.398   1.765 -0.7467  0.7829 -0.1248
  278MOL0     C38255   3.159   3.625   1.707  0.1445 -0.6820  0.5796
  278MOL0     C38256   3.290   3.577   1.650 -0.1087 -0.3643  0.0999
  278MOL0     O38257   3.290   3.452   1.603 -0.7649  0.1861 -0.5027
  278MOL0     C38258   3.408   3.390   1.561  0.5520  0.3076  0.3924
  278MOL0     C38259   3.438   3.271   1.623 -0.0503 -1.7095  0.4331
  278MOL0     C38260   3.557   3.205   1.600  0.1724  0.7511 -0.5757
  278MOL0     C38261   3.649   3.253   1.502 -0.0679 -0.4402 -0.0799
  278MOL0     O38262   3.755   3.182   1.459  0.2347  0.1331  0.1540
  278MOL0     C38263   3.846   3.150   1.566 -0.5676 -0.0086 -0.1010
  278MOL0     C38264   3.971   3.082   1.506 -0.0185  1.3046 -0.0342
  278MOL0     C38265   4.057   3.174   1.421 -0.3795 -0.1423  0.0398
  278MOL0     C38266   4.185   3.091   1.387  0.8043 -0.0111  0.4914
  278MOL0     C38267   4.281   3.185   1.329  0.0749 -0.7571 -0.4216
  278MOL0     C38268   4.403   3.108   1.283  0.4710  0.2218 -0.2498
  278MOL0     C38269   4.378   3.035   1.152 -0.3097  0.1816  0.2789
  278MOL0     C38270   4.505   2.969   1.091 -0.8386  1.2083 -0.1991
  278MOL0    Cl38271   4.640   3.082   1.067  0.2147  0.1241  0.0033
  278MOL0     C38272   3.616   3.382   1.444 -0.7605  0.1715  0.2802
  278MOL0     C38273   3.500   3.454   1.475 -0.2391 -0.0411 -0.5101
  278MOL0     O38274   3.384   3.656   1.655  0.4369 -0.4717  0.2597
  278MOL0     C38275   3.142   3.768   1.716 -0.3391  0.8034 -0.7641
  278MOL0     C38276   3.024   3.823   1.766  0.6168  0.2231 -0.0175
  278MOL0     N38277   2.528   4.237   1.666 -0.4982 -0.1447  0.4648
  278MOL0     N38278   2.598   4.334   1.725 -0.0530 -0.5670  0.0662
  278MOL0     C38279   3.006   4.928   2.492 -1.2038  0.2130 -1.2696
  278MOL0     C38280   3.049   4.927   2.629 -0.5255  0.1677  0.0661
  278MOL0     C38281   3.163   4.954   3.055  0.0134 -0.1919  0.6092
  278MOL0     C38282   3.062   5.029   3.113  0.5295 -0.5660  0.1361
  278MOL0     C38283   3.040   5.030   3.255 -0.2933  0.0912 -0.7721
  278MOL0     C38284   3.113   4.952   3.341  0.3021  0.4373  0.1237
  278MOL0     O38285   3.103   4.963   3.478  0.5774 -0.3093  0.4143
  278MOL0     C38286   3.227   4.935   3.555 -0.0291  0.1349  1.1627
  278MOL0     C38287   3.234   5.016   3.686  0.2737  0.0783  0.1867
  278MOL0     C38288   3.320   5.149   3.687 -0.7011  0.4409  0.6337
  278MOL0     C38289   3.322   5.196   3.833 -0.3048 -0.8279  0.2150
  278MOL0     C38290   3.346   5.341   3.825 -0.4313  0.0211 -0.3891
  278MOL0     C38291   3.359   5.460   3.814  1.1118  0.5241 -0.5329
  278MOL0     C38292   3.204   4.863   3.278 -0.7015 -0.0417 -0.6571
  278MOL0     C38293   3.236   4.864   3.142 -0.4137  0.3623 -0.1487
  278MOL0     C38294   3.328   4.756   3.098 -0.3184 -0.1359 -0.6524
  278MOL0     H38295   3.038   5.262   2.688 -1.1994 -0.4922  0.7351
  278MOL0     H38296   2.952   5.256   2.458 -2.6760  0.4665  3.6682
  278MOL0     H38297   2.716   5.081   2.339 -0.0256  0.1162  0.5506
  278MOL0     H38298   2.771   4.915   2.324  1.3466  1.0604  3.5615
  278MOL0     H38299   2.632   5.013   2.123 -0.3775 -0.9949  0.1273
  278MOL0     H38300   2.770   5.097   2.085  2.5113  0.4440  2.0003
  278MOL0     H38301   2.775   4.892   1.956 -2.6110 -0.2854  0.5789
  278MOL0     H38302   2.891   4.848   2.079  1.6579  1.3312 -2.8410
  278MOL0     H38303   2.671   4.760   2.204  2.8193  1.0849  0.7070
  278MOL0     H38304   2.592   4.786   2.045 -1.1225  2.3121  3.2088
  278MOL0     H38305   2.828   4.610   2.115  1.8140  3.7852 -0.8117
  278MOL0     H38306   2.764   4.642   1.950 -2.6231 -2.4244 -0.5106
  278MOL0     H38307   2.598   4.524   2.177  0.6352  1.7690  0.8811
  278MOL0     H38308   2.563   4.519   2.002 -0.5421  1.2235  0.8379
  278MOL0     H38309   2.649   4.291   2.109 -0.7246  1.2733 -2.2741
  278MOL0     H38310   2.809   4.366   2.128  1.0810  0.6233  0.3332
  278MOL0     H38311   2.789   4.412   1.865 -1.8930  3.6844  2.5894
  278MOL0     H38312   2.840   4.255   1.919  0.0027  1.2887 -1.1101
  278MOL0     H38313   2.575   4.108   1.962 -1.6748 -2.2885 -1.0645
  278MOL0     H38314   2.390   4.034   1.614 -0.0124  1.5260  0.4355
  278MOL0     H38315   2.350   3.988   1.782 -0.6346 -0.9854 -0.4285
  278MOL0     H38316   2.489   3.824   1.620 -0.6746  0.4959  0.6664
  278MOL0     H38317   2.626   3.932   1.662  2.8981 -2.4347  3.3134
  278MOL0     H38318   2.569   3.880   1.911 -0.3540 -0.4823  0.8558
  278MOL0     H38319   2.463   3.757   1.826 -1.2809  1.2030 -1.3151
  278MOL0     H38320   2.673   3.665   1.895  2.3251 -0.1555 -0.5749
  278MOL0     H38321   2.666   3.679   1.716 -1.0423  0.3466  0.4597
  278MOL0     H38322   2.844   3.540   1.818  1.5083 -3.6599 -2.2530
  278MOL0     H38323   2.961   3.370   1.822 -1.7715  0.5183 -1.7772
  278MOL0     H38324   3.146   3.373   1.811 -1.3192  1.5862  1.5684
  278MOL0     H38325   3.038   3.344   1.670 -1.1223 -1.8250  1.3253
  278MOL0     H38326   3.363   3.237   1.694  2.2530 -2.9778  2.4472
  278MOL0     H38327   3.584   3.106   1.637  1.1844  0.4190 -2.0898
  278MOL0     H38328   3.869   3.236   1.630 -3.5671  1.5640 -0.9547
  278MOL0     H38329   3.817   3.070   1.635  3.2841 -0.1117  1.6627
  278MOL0     H38330   4.013   3.053   1.603 -4.8465  0.1229  1.9837
  278MOL0     H38331   3.932   2.991   1.460 -1.8183 -0.1659  3.9772
  278MOL0     H38332   4.080   3.271   1.465  1.6276 -1.1970  1.4866
  278MOL0     H38333   4.004   3.193   1.327 -3.8486  1.6277  2.1526
  278MOL0     H38334   4.150   3.025   1.307  3.9959  1.9703 -2.8561
  278MOL0     H38335   4.233   3.040   1.470 -1.7987  0.7338  2.6202
  278MOL0     H38336   4.243   3.229   1.237 -1.0621 -1.2143 -0.1874
  278MOL0     H38337   4.313   3.262   1.399  1.4885  0.0653 -1.9018
  278MOL0     H38338   4.442   3.037   1.356  2.5265  0.9693 -0.5672
  278MOL0     H38339   4.482   3.182   1.267  0.5313  0.9442  2.7419
  278MOL0     H38340   4.349   3.111   1.078 -2.0502 -1.3461 -0.7195
  278MOL0     H38341   4.302   2.956   1.158 -0.8678  0.6827 -0.0712
  278MOL0     H38342   4.470   2.922   0.998  1.1918  2.9150 -1.9454
  278MOL0     H38343   4.549   2.896   1.159 -1.2058 -0.9233 -2.1183
  278MOL0     H38344   3.680   3.419   1.366 -0.5182  3.2216  1.7979
  278MOL0     H38345   3.477   3.550   1.429 -3.0075 -0.6193 -0.4691
  278MOL0     H38346   3.226   3.833   1.692  2.0161  0.0112  4.1538
  278MOL0     H38347   3.027   3.931   1.763  0.2236  0.2500 -2.6466
  278MOL0     H38348   3.005   4.834   2.437  2.1786 -0.5628 -0.2718
  278MOL0     H38349   3.092   4.835   2.665  0.8240  0.8798  0.3482
  278MOL0     H38350   2.993   5.100   3.068 -0.7851 -0.6674  1.8786
  278MOL0     H38351   2.973   5.097   3.307 -1.0165 -0.8358 -0.4884
  278MOL0     H38352   3.234   4.831   3.586  2.3833 -0.5352 -1.2676
  278MOL0     H38353   3.314   4.956   3.492 -0.0366 -1.9393  0.4108
  278MOL0     H38354   3.275   4.951   3.764 -2.7443 -3.4651 -0.8415
  278MOL0     H38355   3.130   5.037   3.713  1.0605  1.3649  2.5688
  278MOL0     H38356   3.418   5.121   3.646  0.7218  2.2026  2.5770
  278MOL0     H38357   3.279   5.228   3.623  3.5491  1.5501 -1.0522
  278MOL0     H38358   3.401   5.154   3.895  0.7541  0.4627 -0.2112
  278MOL0     H38359   3.222   5.172   3.871 -0.2485 -0.8933  0.3201
  278MOL0     H38360   3.345   5.562   3.785  1.3634 -0.1495 -3.2626
  278MOL0     H38361   3.255   4.786   3.334 -4.5209 -2.7623 -0.5088
  278MOL0     H38362   3.283   4.665   3.139 -1.4346  1.2353  1.3808
  278MOL0     H38363   3.357   4.752   2.992 -0.3170 -0.3137 -0.6466
  278MOL0     H38364   3.412   4.763   3.168 -1.2198 -2.8574  0.8558
  279MOL0     O38365   7.792   5.932   5.315 -0.3832 -0.3679  0.0183
  279MOL0     C38366   7.806   6.021   5.233 -0.2715 -0.0734 -0.0259
  279MOL0     O38367   7.824   6.000   5.100  0.3666 -0.0786 -0.5097
  279MOL0     C38368   7.829   5.873   5.038  0.0803 -0.1067 -0.1285
  279MOL0     C38369   7.938   5.827   4.973 -0.2826  0.4516 -0.2700
  279MOL0     C38370   7.946   5.704   4.906  0.0822  0.4180  0.6038
  279MOL0     C38371   7.835   5.623   4.904 -0.8109 -0.0024 -0.0448
  279MOL0     O38372   7.850   5.501   4.854  0.1343 -0.6700 -0.2367
  279MOL0     C38373   7.839   5.493   4.715 -0.4446 -0.1985  0.5480
  279MOL0     C38374   7.798   5.353   4.676  0.8378 -0.6582  0.1971
  279MOL0     C38375   7.905   5.260   4.706 -0.2099  0.4804 -0.0387
  279MOL0     C38376   8.014   5.261   4.595 -0.4299 -0.1742  0.1447
  279MOL0     C38377   7.982   5.161   4.487  0.1548  0.7838  0.2691
  279MOL0     C38378   8.094   5.141   4.372 -0.2194  0.2632 -1.1387
  279MOL0     C38379   8.166   5.273   4.328 -0.3439 -0.5226  0.7567
  279MOL0     C38380   8.076   5.398   4.276  0.8290 -0.0657  0.7705
  279MOL0     N38381   7.995   5.354   4.162 -1.1018 -0.0591  0.2145
  279MOL0     C38382   8.046   5.287   4.055 -0.4871  0.7635  0.3583
  279MOL0     C38383   7.956   5.292   3.954  0.2453  0.1168 -0.7654
  279MOL0     C38384   7.973   5.234   3.818 -0.7172  0.1781  0.4620
  279MOL0     C38385   8.090   5.297   3.752 -0.3503 -0.2818 -0.7460
  279MOL0     C38386   8.100   5.236   3.610 -0.4152 -0.6795 -0.0173
  279MOL0     C38387   8.241   5.243   3.543 -0.4344  0.6861  0.2138
  279MOL0     O38388   8.223   5.268   3.400 -0.5537  0.2277 -0.0739
  279MOL0     C38389   8.347   5.257   3.334  0.9540  0.2041 -0.4893
  279MOL0     C38390   8.338   5.245   3.195  0.5370 -0.3640  0.2087
  279MOL0     C38391   8.454   5.236   3.113 -0.4151 -0.0756  0.1886
  279MOL0     C38392   8.413   5.222   2.972 -0.1789  0.6479  0.0895
  279MOL0     C38393   8.586   5.223   3.162 -0.3531 -0.1141  0.3034
  279MOL0     C38394   8.700   5.207   3.080 -0.0577  1.0892 -0.4350
  279MOL0     O38395   8.796   5.292   3.116 -0.8310 -0.1847  0.7363
  279MOL0     C38396   8.918   5.275   3.056  0.0842  0.0753 -0.9878
  279MOL0     C38397   9.031   5.255   3.133 -0.0940  0.4183 -0.4752
  279MOL0     C38398   9.162   5.246   3.074 -0.7593 -0.3762 -0.4405
  279MOL0     C38399   9.177   5.254   2.934  1.2736  0.6333 -0.7423
  279MOL0     O38400   9.310   5.248   2.895 -0.2531  0.6385 -0.6827
  279MOL0     C38401   9.331   5.256   2.753 -0.4488  0.5599 -0.5580
  279MOL0     C38402   9.464   5.179   2.734 -0.1924  0.3814  0.4647
  279MOL0     C38403   9.464   5.029   2.742  0.3056  0.2508  0.2317
  279MOL0     C38404   9.340   4.955   2.691 -0.6732  0.6124  0.4033
  279MOL0     C38405   9.303   4.971   2.543 -1.1937 -0.2301  0.0701
  279MOL0     C38406   9.408   4.897   2.446 -0.3195 -0.6479  0.5207
  279MOL0     C38407   9.344   4.882   2.308 -0.2111  0.3970 -0.1237
  279MOL0     C38408   9.347   5.014   2.228  0.1352  0.5945  0.5994
  279MOL0    Cl38409   9.208   5.101   2.283  0.0500 -0.0542 -0.3760
  279MOL0     C38410   9.059   5.279   2.858  0.5423 -1.0510 -0.9634
  279MOL0     C38411   8.935   5.300   2.924 -0.1736 -0.9308 -0.4713
  279MOL0     O38412   8.712   5.110   3.013 -0.9242  1.0782  0.0162
  279MOL0     C38413   8.599   5.240   3.301 -0.9737  0.4287 -0.4060
  279MOL0     C38414   8.485   5.257   3.389  0.0030  0.6784 -0.7312
  279MOL0     N38415   7.848   5.364   4.005 -0.7735 -0.1019 -0.1203
  279MOL0     N38416   7.872   5.394   4.131  0.0710  0.6557 -1.0110
  279MOL0     C38417   7.714   5.661   4.960 -0.2194 -1.0785 -0.1510
  279MOL0     C38418   7.711   5.791   5.028 -0.7546 -0.2794 -0.4834
  279MOL0     C38419   7.780   6.161   5.274  0.8631 -0.8721 -0.3131
  279MOL0     C38420   7.695   6.193   5.382 -0.0463 -0.4058 -0.0622
  279MOL0     C38421   7.680   6.331   5.424 -0.4109  1.1937  1.4948
  279MOL0     C38422   7.750   6.432   5.359  0.8950  0.3630  1.5671
  279MOL0     O38423   7.725   6.565   5.384  0.7920  0.3933  1.0123
  279MOL0     C38424   7.590   6.610   5.391  0.8085 -0.0951  0.3807
  279MOL0     C38425   7.590   6.751   5.447  0.4648  0.5855 -0.2664
  279MOL0     C38426   7.509   6.773   5.574  0.2011  0.1714  0.5912
  279MOL0     C38427   7.536   6.896   5.662 -0.1751  0.6348  0.4901
  279MOL0     C38428   7.423   6.906   5.748  0.6964 -0.2978  0.1330
  279MOL0     C38429   7.312   6.913   5.799  0.5274  0.4833  0.5744
  279MOL0     C38430   7.845   6.397   5.269 -1.1029 -0.5688 -0.1599
  279MOL0     C38431   7.865   6.268   5.226 -0.1096  0.6985 -0.2467
  279MOL0     C38432   7.966   6.261   5.119  0.1377 -0.1240 -1.1039
  279MOL0     H38433   8.031   5.880   4.991  2.2652 -3.0841 -1.7491
  279MOL0     H38434   8.036   5.654   4.872 -0.1445 -0.0952  0.7462
  279MOL0     H38435   7.929   5.525   4.661 -1.0886  3.7898  1.5356
  279MOL0     H38436   7.755   5.552   4.677  0.1048 -1.1891 -2.4853
  279MOL0     H38437   7.707   5.323   4.729  1.6866  0.7556  2.5919
  279MOL0     H38438   7.759   5.356   4.573 -0.0680 -1.4337  0.4961
  279MOL0     H38439   7.942   5.275   4.808  0.3644  0.9695 -0.3210
  279MOL0     H38440   7.873   5.155   4.698  0.9316 -0.0595  1.9024
  279MOL0     H38441   8.026   5.359   4.548  6.7444  0.2818  1.8055
  279MOL0     H38442   8.113   5.246   4.638  1.7105  3.2842 -2.9971
  279MOL0     H38443   7.906   5.196   4.417  1.7775  0.2583 -1.9085
  279MOL0     H38444   7.955   5.068   4.538 -0.1636  2.0406  2.5199
  279MOL0     H38445   8.170   5.073   4.411 -2.8487 -1.3322  1.6598
  279MOL0     H38446   8.039   5.086   4.295 -1.6478 -0.3997  0.2675
  279MOL0     H38447   8.241   5.240   4.256  1.1962  1.1564  1.5040
  279MOL0     H38448   8.221   5.324   4.408 -1.8523 -0.8773  2.0805
  279MOL0     H38449   8.016   5.441   4.357  1.9500 -0.0977  1.6397
  279MOL0     H38450   8.142   5.474   4.233  2.6322 -1.5671  0.8107
  279MOL0     H38451   8.136   5.228   4.047 -3.2646 -3.8695 -0.1511
  279MOL0     H38452   7.880   5.239   3.761 -1.1535 -2.7500  0.7712
  279MOL0     H38453   7.992   5.127   3.827  0.9716  0.5003  1.1876
  279MOL0     H38454   8.081   5.405   3.739  1.4682  0.1156  0.9986
  279MOL0     H38455   8.177   5.277   3.815 -1.6411 -0.8216  0.9338
  279MOL0     H38456   8.067   5.132   3.606 -0.6245 -0.6023 -0.3454
  279MOL0     H38457   8.034   5.304   3.557  0.4178 -0.1660 -0.4174
  279MOL0     H38458   8.304   5.323   3.583 -0.1473 -0.4184  2.0271
  279MOL0     H38459   8.300   5.154   3.563  2.5539  2.4599 -0.0485
  279MOL0     H38460   8.240   5.243   3.149 -1.0194 -0.4935  3.2819
  279MOL0     H38461   8.440   5.124   2.932  3.1644  1.3381  0.3638
  279MOL0     H38462   8.469   5.284   2.902  2.4546 -2.2987 -0.6412
  279MOL0     H38463   8.306   5.240   2.955 -0.2677  0.6411  0.6305
  279MOL0     H38464   9.023   5.272   3.240 -0.6751 -1.3098 -0.2279
  279MOL0     H38465   9.253   5.244   3.133 -1.8221 -0.9316  1.2722
  279MOL0     H38466   9.249   5.214   2.693  1.5310 -2.7611 -1.1601
  279MOL0     H38467   9.350   5.362   2.739 -0.5717  0.6278 -0.2257
  279MOL0     H38468   9.512   5.216   2.642  1.8546  1.9266  2.0540
  279MOL0     H38469   9.533   5.212   2.812  0.2183 -3.0107  1.7092
  279MOL0     H38470   9.483   4.989   2.842 -4.7314 -1.7619  0.6398
  279MOL0     H38471   9.548   4.998   2.678 -1.4314 -1.4014 -1.3607
  279MOL0     H38472   9.247   4.988   2.738 -1.5499 -2.1146  0.7682
  279MOL0     H38473   9.353   4.848   2.711  1.4519  0.7310 -0.1537
  279MOL0     H38474   9.205   4.927   2.522 -2.2513  1.7581  0.5412
  279MOL0     H38475   9.302   5.076   2.512 -1.0830 -0.8328 -2.1189
  279MOL0     H38476   9.420   4.793   2.480  1.1903 -0.6922 -0.0668
  279MOL0     H38477   9.503   4.948   2.433 -0.3090 -1.1993 -2.2203
  279MOL0     H38478   9.245   4.836   2.323 -0.8325  2.6154  4.3204
  279MOL0     H38479   9.400   4.806   2.254  1.4905  0.1928  1.7973
  279MOL0     H38480   9.327   4.986   2.125 -0.6155  1.9799  0.3370
  279MOL0     H38481   9.442   5.066   2.245 -0.6421  2.0840  0.6043
  279MOL0     H38482   9.056   5.289   2.750  0.3766  1.6709 -0.7704
  279MOL0     H38483   8.857   5.344   2.864  1.2765 -0.0503 -1.7819
  279MOL0     H38484   8.697   5.238   3.348 -1.1898 -0.8720  0.0205
  279MOL0     H38485   8.513   5.244   3.493  1.7064  1.5025 -1.0603
  279MOL0     H38486   7.628   5.595   4.960  0.0256 -1.4968 -2.4727
  279MOL0     H38487   7.617   5.818   5.074 -0.7857 -3.2611  1.4904
  279MOL0     H38488   7.654   6.113   5.442 -2.0870  0.5646 -0.0597
  279MOL0     H38489   7.618   6.364   5.507  1.1483  0.6852  2.9214
  279MOL0     H38490   7.554   6.605   5.288  3.3241  2.4206 -0.7228
  279MOL0     H38491   7.523   6.548   5.452  0.3276 -1.0094 -1.0208
  279MOL0     H38492   7.551   6.817   5.368  2.0512  4.4572  1.8861
  279MOL0     H38493   7.692   6.783   5.466  0.0124  2.1539 -0.3328
  279MOL0     H38494   7.402   6.776   5.552  0.8171  0.0158 -2.9947
  279MOL0     H38495   7.527   6.679   5.628  1.7841  1.0108  1.5837
  279MOL0     H38496   7.535   6.983   5.596  0.3718  0.7448  0.6194
  279MOL0     H38497   7.633   6.892   5.713 -1.6126  0.9207  3.4644
  279MOL0     H38498   7.216   6.923   5.845 -0.9741 -1.1393 -1.9603
  279MOL0     H38499   7.910   6.473   5.228 -0.5816 -1.7678 -1.6567
  279MOL0     H38500   7.915   6.305   5.033 -1.7912 -3.7700 -2.0187
  279MOL0     H38501   8.056   6.322   5.136 -0.9392  1.9180 -2.3168
  279MOL0     H38502   7.985   6.163   5.076 -2.7577 -0.3439 -2.1104
  280MOL0     O38503   6.239   1.674   0.920  0.0592 -0.1239  0.0566
  280MOL0     C38504   6.128   1.727   0.909 -0.7799  0.1935 -0.4149
  280MOL0     O38505   6.106   1.859   0.938  0.0907  0.7865 -0.7568
  280MOL0     C38506   6.194   1.936   1.016 -0.6792 -0.9263 -0.1488
  280MOL0     C38507   6.334   1.936   0.999  0.1092  0.1966  0.2848
  280MOL0     C38508   6.407   2.039   1.061  0.0174  0.0577  1.1561
  280MOL0     C38509   6.352   2.142   1.134  1.0661 -0.0952 -0.3455
  280MOL0     O38510   6.416   2.241   1.201  0.1737  0.4034 -0.4891
  280MOL0     C38511   6.547   2.211   1.256  0.8855 -1.1128 -0.6553
  280MOL0     C38512   6.586   2.332   1.350 -0.9219 -0.1439  0.0973
  280MOL0     C38513   6.571   2.476   1.303  0.6712  0.9669  0.1376
  280MOL0     C38514   6.427   2.535   1.323 -0.8502  0.2395  0.2416
  280MOL0     C38515   6.419   2.678   1.278 -0.8083  0.1166  0.0145
  280MOL0     C38516   6.469   2.703   1.132 -0.1354  0.2749  0.5632
  280MOL0     C38517   6.460   2.844   1.077 -0.6811 -1.5421 -0.5303
  280MOL0     C38518   6.317   2.878   1.040 -0.5420  0.0766 -0.6235
  280MOL0     N38519   6.301   3.024   0.998 -0.2990 -0.6459 -0.2734
  280MOL0     C38520   6.308   3.132   1.080  0.3478 -0.1175 -0.2345
  280MOL0     C38521   6.307   3.236   0.985 -0.0456  0.5503 -0.7343
  280MOL0     C38522   6.319   3.384   1.024 -0.0702 -0.3931 -0.1869
  280MOL0     C38523   6.469   3.439   1.006 -0.3190  0.0008  1.3210
  280MOL0     C38524   6.535   3.457   0.863  0.0609  0.7457  0.2056
  280MOL0     C38525   6.449   3.549   0.762 -1.2159  0.8244 -0.5728
  280MOL0     O38526   6.393   3.658   0.827 -1.2559  0.1250 -0.1555
  280MOL0     C38527   6.432   3.785   0.801 -0.1301  0.2100  0.3718
  280MOL0     C38528   6.477   3.833   0.682  1.2602 -0.9067 -0.6168
  280MOL0     C38529   6.523   3.958   0.659 -0.0178  0.7312  0.5378
  280MOL0     C38530   6.564   3.981   0.516  1.4527  0.4365 -0.1311
  280MOL0     C38531   6.525   4.057   0.763  0.3146  0.4505 -0.2890
  280MOL0     C38532   6.567   4.202   0.744 -0.2772  0.0207  0.0266
  280MOL0     O38533   6.546   4.272   0.859  0.0718 -0.0581  0.0307
  280MOL0     C38534   6.603   4.393   0.869  0.2051  0.1385 -0.6385
  280MOL0     C38535   6.526   4.510   0.867  0.1824  0.0502 -0.3232
  280MOL0     C38536   6.586   4.642   0.874 -1.4711  0.0932 -0.2212
  280MOL0     C38537   6.717   4.660   0.880  0.7180 -0.2951  0.1376
  280MOL0     O38538   6.757   4.789   0.894 -1.0187 -0.3600 -0.1510
  280MOL0     C38539   6.887   4.821   0.835  0.3998  0.8227  0.7383
  280MOL0     C38540   6.998   4.843   0.936  0.0301  0.6094 -0.0620
  280MOL0     C38541   7.125   4.770   0.890  0.1634  0.2082 -0.7433
  280MOL0     C38542   7.257   4.811   0.955  0.6099 -0.3487 -0.5059
  280MOL0     C38543   7.258   4.762   1.100  0.4858  0.1727 -0.4897
  280MOL0     C38544   7.391   4.786   1.184  0.6744  0.8066  0.2785
  280MOL0     C38545   7.381   4.733   1.322  0.4285 -0.3224 -0.0076
  280MOL0     C38546   7.494   4.784   1.414 -0.3257  0.1818  0.5060
  280MOL0    Cl38547   7.669   4.744   1.355 -0.2126  0.1737  0.1767
  280MOL0     C38548   6.795   4.546   0.892  0.3009 -0.4802 -0.3058
  280MOL0     C38549   6.741   4.410   0.882 -0.7564 -0.4901  0.8200
  280MOL0     O38550   6.618   4.241   0.645  0.2155  0.2201 -0.3451
  280MOL0     C38551   6.477   4.004   0.890  1.0241 -0.4762  0.1338
  280MOL0     C38552   6.424   3.874   0.899  0.3699 -0.1551 -0.0198
  280MOL0     N38553   6.312   3.191   0.857  0.0441 -0.2252  0.0461
  280MOL0     N38554   6.295   3.065   0.866 -0.1358  0.4184 -1.1639
  280MOL0     C38555   6.213   2.134   1.155  1.1491  0.2605  0.1054
  280MOL0     C38556   6.135   2.033   1.095 -0.2735  1.8991 -0.8372
  280MOL0     C38557   6.017   1.645   0.852  0.6911  0.0219  1.1102
  280MOL0     C38558   6.054   1.517   0.800  0.4269 -0.2248 -0.4634
  280MOL0     C38559   5.956   1.426   0.756  0.5190 -0.0429  0.7129
  280MOL0     C38560   5.825   1.463   0.760  0.4740 -0.4201  0.6907
  280MOL0     O38561   5.730   1.374   0.723 -0.5303  0.3468  0.4997
  280MOL0     C38562   5.622   1.436   0.651  0.6651 -0.0128 -0.2670
  280MOL0     C38563   5.542   1.334   0.561  0.7841 -0.3193  0.4426
  280MOL0     C38564   5.505   1.204   0.633  0.3729  0.2094  0.0721
  280MOL0     C38565   5.629   1.107   0.652  0.5697  1.5079  0.1532
  280MOL0     C38566   5.603   1.010   0.760 -0.9320  0.0429  0.7149
  280MOL0     C38567   5.571   0.950   0.862 -0.9304  0.2590  0.1076
  280MOL0     C38568   5.793   1.592   0.810 -0.2993  0.7609  0.1330
  280MOL0     C38569   5.883   1.685   0.852  0.4536 -0.2680 -0.7076
  280MOL0     C38570   5.833   1.810   0.923  0.4595  0.5481  0.5919
  280MOL0     H38571   6.385   1.851   0.955  0.9647  1.2062 -0.7562
  280MOL0     H38572   6.504   2.031   1.013 -0.4447  0.4645  0.1169
  280MOL0     H38573   6.620   2.197   1.175  1.7619  0.8374 -0.2492
  280MOL0     H38574   6.536   2.126   1.324  2.7458 -3.1990 -2.7719
  280MOL0     H38575   6.538   2.309   1.446 -0.0861 -3.1663 -0.1260
  280MOL0     H38576   6.695   2.321   1.359 -0.6662 -0.0472 -2.2738
  280MOL0     H38577   6.644   2.540   1.354  0.2784 -0.4228  2.5556
  280MOL0     H38578   6.601   2.468   1.198 -1.0606 -1.5124 -0.2692
  280MOL0     H38579   6.352   2.475   1.270 -2.2153  3.8302 -2.2843
  280MOL0     H38580   6.404   2.530   1.430 -0.0489  3.7687  0.7056
  280MOL0     H38581   6.488   2.737   1.339  2.7688 -3.1993 -0.4778
  280MOL0     H38582   6.315   2.710   1.294 -0.0136  1.4744  3.3414
  280MOL0     H38583   6.570   2.664   1.117  0.5669  2.1165  0.3113
  280MOL0     H38584   6.400   2.642   1.072 -0.6763 -2.8088  3.9856
  280MOL0     H38585   6.519   2.855   0.986  0.5524  2.9075  0.5394
  280MOL0     H38586   6.504   2.915   1.148 -3.3971  1.0520 -1.2452
  280MOL0     H38587   6.301   2.810   0.956  1.6306  0.3853 -1.3473
  280MOL0     H38588   6.259   2.846   1.127  2.5238 -0.9739  1.1676
  280MOL0     H38589   6.322   3.134   1.187  0.3195  0.4904 -0.2356
  280MOL0     H38590   6.291   3.401   1.129 -1.5359 -0.9895 -0.4535
  280MOL0     H38591   6.255   3.438   0.953  0.5290 -2.6960 -2.6250
  280MOL0     H38592   6.482   3.540   1.048  1.8160 -0.8581  2.8910
  280MOL0     H38593   6.530   3.368   1.062  1.4631 -0.3952 -0.9928
  280MOL0     H38594   6.639   3.491   0.872  0.2835  0.6065 -1.4890
  280MOL0     H38595   6.546   3.357   0.820  0.2664  0.9916 -0.3279
  280MOL0     H38596   6.487   3.568   0.661  0.5886  1.6341  0.2128
  280MOL0     H38597   6.372   3.479   0.729  3.1983 -4.4085 -1.3044
  280MOL0     H38598   6.482   3.758   0.604  1.9106 -1.5978  0.0691
  280MOL0     H38599   6.472   3.989   0.456  1.7625 -1.8615 -1.0432
  280MOL0     H38600   6.623   3.901   0.470 -0.0827 -1.3560  0.8445
  280MOL0     H38601   6.606   4.081   0.506  0.5239  0.8647  0.1678
  280MOL0     H38602   6.417   4.515   0.871  0.1769  0.7184  4.2207
  280MOL0     H38603   6.517   4.725   0.866 -1.2392  0.3571  0.5185
  280MOL0     H38604   6.921   4.752   0.757 -3.0757 -1.2468  0.8400
  280MOL0     H38605   6.862   4.910   0.775 -1.2847  0.6363  1.1261
  280MOL0     H38606   7.005   4.952   0.935 -0.7059  0.9546  5.0540
  280MOL0     H38607   6.975   4.806   1.037  1.2881  1.3234  0.5039
  280MOL0     H38608   7.121   4.775   0.781 -1.9944 -1.6808 -0.8418
  280MOL0     H38609   7.106   4.667   0.923  2.5771  0.5387  2.0646
  280MOL0     H38610   7.270   4.919   0.949 -1.7717  0.1414  1.3823
  280MOL0     H38611   7.344   4.767   0.906  1.1879 -0.2341  0.3909
  280MOL0     H38612   7.169   4.810   1.142  0.3156  0.1850 -0.8643
  280MOL0     H38613   7.240   4.655   1.093 -2.7226  0.6442 -0.5616
  280MOL0     H38614   7.418   4.891   1.195 -1.9667  1.5174  0.4592
  280MOL0     H38615   7.474   4.743   1.126 -1.8097  0.6072 -3.4465
  280MOL0     H38616   7.368   4.625   1.333  0.3769 -0.3346 -0.1968
  280MOL0     H38617   7.292   4.773   1.372  2.0016  0.5789  2.2416
  280MOL0     H38618   7.478   4.729   1.507  3.1196 -2.8420 -0.4765
  280MOL0     H38619   7.501   4.893   1.424 -4.4352  0.5843  0.9267
  280MOL0     H38620   6.899   4.559   0.920 -0.4590 -0.2900  2.8805
  280MOL0     H38621   6.796   4.318   0.901  1.9565  1.2603  2.0004
  280MOL0     H38622   6.466   4.069   0.977 -2.0393 -0.4161 -0.1962
  280MOL0     H38623   6.368   3.841   0.986 -1.2841 -0.3582 -1.1370
  280MOL0     H38624   6.158   2.208   1.212  0.5177  0.8578 -1.2370
  280MOL0     H38625   6.029   2.018   1.114 -0.2778  2.6753 -0.1714
  280MOL0     H38626   6.157   1.483   0.794  0.6931  0.8641 -3.9551
  280MOL0     H38627   5.970   1.323   0.724 -3.2108 -0.2777 -0.6679
  280MOL0     H38628   5.554   1.474   0.728  0.7327  0.2598 -0.3412
  280MOL0     H38629   5.643   1.521   0.585 -5.8724  1.5254 -1.0555
  280MOL0     H38630   5.594   1.322   0.466  0.8835  0.2978  0.4114
  280MOL0     H38631   5.450   1.382   0.526  1.6879  0.9430 -0.2818
  280MOL0     H38632   5.449   1.232   0.723 -0.0047 -1.8300  0.5436
  280MOL0     H38633   5.432   1.144   0.577  4.1320 -2.4946 -2.4638
  280MOL0     H38634   5.729   1.149   0.669  1.4240 -0.0105 -0.8823
  280MOL0     H38635   5.632   1.049   0.559 -1.7216  0.8488  0.4167
  280MOL0     H38636   5.543   0.908   0.956  1.2403  0.4097  0.8687
  280MOL0     H38637   5.686   1.612   0.816 -0.1250  1.5081  1.0042
  280MOL0     H38638   5.731   1.803   0.961 -0.4577  4.2893 -0.7796
  280MOL0     H38639   5.895   1.839   1.009 -0.2277  1.8621  0.6727
  280MOL0     H38640   5.825   1.896   0.856  2.6166  3.9838  4.2948
  281MOL0     O38641  10.064   0.032  10.894 -0.1163  0.8475 -0.1168
  281MOL0     C38642  10.140   0.060  10.988  0.5085 -0.8540  0.3817
  281MOL0     O38643  10.151  -0.017  11.100  0.2650 -0.2150  0.2006
  281MOL0     C38644  10.140  -0.155  11.094 -0.2992  0.6160 -0.9200
  281MOL0     C38645  10.234  -0.229  11.027 -0.3466  0.3915 -0.1532
  281MOL0     C38646  10.247  -0.368  11.056  0.0355 -0.4566 -0.3077
  281MOL0     C38647  10.147  -0.441  11.131 -0.9410  0.7050  0.0492
  281MOL0     O38648  10.169  -0.575  11.153  0.1909 -0.0710 -0.0780
  281MOL0     C38649  10.134  -0.610  11.278  0.4837  0.5329 -0.2609
  281MOL0     C38650  10.229  -0.737  11.305  0.7464 -1.0493 -0.4574
  281MOL0     C38651  10.177  -0.825  11.422  0.1687  0.5212 -0.3295
  281MOL0     C38652  10.135  -0.754  11.557 -0.7878  0.5678 -0.9623
  281MOL0     C38653  10.085  -0.844  11.670 -0.9444  0.6825  0.5602
  281MOL0     C38654  10.062  -0.769  11.798 -0.2770  0.6179 -0.1434
  281MOL0     C38655  10.183  -0.702  11.864  0.3406  0.4682  0.2043
  281MOL0     C38656  10.154  -0.676  12.010 -0.1700 -0.2409  1.2221
  281MOL0     N38657  10.254  -0.595  12.077  0.3296 -0.3974 -0.5620
  281MOL0     C38658  10.275  -0.460  12.045 -0.7552  0.0967 -0.0654
  281MOL0     C38659  10.359  -0.425  12.146  0.0852 -0.5541  1.3559
  281MOL0     C38660  10.411  -0.286  12.174 -0.4802  0.7354  0.4704
  281MOL0     C38661  10.292  -0.200  12.221  0.4278 -0.5298  0.3276
  281MOL0     C38662  10.346  -0.111  12.335  0.3615 -0.1743 -0.0596
  281MOL0     C38663  10.253  -0.006  12.390  0.2255  0.5521  0.5022
  281MOL0     O38664  10.328   0.068  12.486  0.6681  0.1306 -0.5484
  281MOL0     C38665  10.358   0.010  12.609 -0.9571 -0.9903  1.2731
  281MOL0     C38666  10.479   0.064  12.660  0.6853 -0.8233  0.2540
  281MOL0     C38667  10.540   0.007  12.766 -0.2406 -0.6925  0.0467
  281MOL0     C38668  10.684   0.039  12.779 -0.5198 -0.0059 -0.5123
  281MOL0     C38669  10.469  -0.089  12.844 -0.2020  0.0109 -0.7539
  281MOL0     C38670  10.533  -0.165  12.968  0.2467  0.0291  0.1128
  281MOL0     O38671  10.450  -0.247  13.052 -0.6152 -0.4426  0.4923
  281MOL0     C38672  10.475  -0.225  13.188  0.4197  0.2604  0.9789
  281MOL0     C38673  10.488  -0.335  13.264 -0.0811 -0.5910 -0.9911
  281MOL0     C38674  10.512  -0.316  13.401  0.0223  0.1948  0.4807
  281MOL0     C38675  10.493  -0.191  13.460 -0.0594 -0.7103 -0.5523
  281MOL0     O38676  10.484  -0.179  13.596  0.3794  0.0003  1.3080
  281MOL0     C38677  10.365  -0.137  13.656  0.4013 -0.8538 -0.1256
  281MOL0     C38678  10.341  -0.213  13.784  0.4270  0.6008 -0.7789
  281MOL0     C38679  10.322  -0.363  13.783 -0.5546 -0.2143  0.2120
  281MOL0     C38680  10.329  -0.424  13.923 -0.4148  0.0281 -0.3804
  281MOL0     C38681  10.438  -0.530  13.938  0.1432 -0.3858  1.3486
  281MOL0     C38682  10.393  -0.668  13.998  0.4304  0.8782  0.7897
  281MOL0     C38683  10.377  -0.671  14.150  0.3345  0.3293 -0.1682
  281MOL0     C38684  10.386  -0.813  14.206 -0.3095  0.9128  1.1301
  281MOL0    Cl38685  10.354  -0.781  14.373 -0.2128 -0.0090 -0.6533
  281MOL0     C38686  10.474  -0.073  13.385  0.6546  0.3239 -0.2188
  281MOL0     C38687  10.462  -0.097  13.246 -0.5082 -0.3851  0.6680
  281MOL0     O38688  10.641  -0.119  13.006 -1.0107 -0.5062 -0.2481
  281MOL0     C38689  10.354  -0.140  12.794  0.4924 -0.6099 -0.0353
  281MOL0     C38690  10.299  -0.080  12.677  1.2842  0.1913  0.2461
  281MOL0     N38691  10.377  -0.525  12.239 -0.7529  0.2280  0.9088
  281MOL0     N38692  10.304  -0.629  12.200  0.0761  0.2237  0.4065
  281MOL0     C38693  10.052  -0.362  11.188 -0.5935  0.0168  0.0892
  281MOL0     C38694  10.054  -0.220  11.183  0.5792  0.1927 -0.1574
  281MOL0     C38695  10.190   0.193  10.989 -0.6151  0.4563 -0.6559
  281MOL0     C38696  10.286   0.222  10.886  0.2016 -0.5518  0.6167
  281MOL0     C38697  10.349   0.346  10.870  0.3646 -0.1554 -0.0559
  281MOL0     C38698  10.317   0.450  10.970  0.4169 -0.0255 -0.2128
  281MOL0     O38699  10.364   0.575  10.944  0.3957 -0.0290 -0.5602
  281MOL0     C38700  10.270   0.694  10.966 -0.4955  1.1792  1.2201
  281MOL0     C38701  10.173   0.707  10.854 -0.4657 -0.1805  0.8012
  281MOL0     C38702  10.043   0.793  10.884  0.9037  1.1117  0.0631
  281MOL0     C38703  10.067   0.942  10.861 -0.7711 -0.8857 -0.6431
  281MOL0     C38704  10.125   0.985  10.727 -0.0629  0.9232 -0.1232
  281MOL0     C38705  10.151   1.014  10.608 -0.0345 -0.0189 -0.4401
  281MOL0     C38706  10.221   0.425  11.070  0.7906  0.5344 -0.4755
  281MOL0     C38707  10.161   0.291  11.088 -0.2054  0.5641 -0.8055
  281MOL0     C38708  10.081   0.259  11.214  0.0099  0.5872 -0.6724
  281MOL0     H38709  10.310  -0.172  10.973 -0.3812 -0.7868 -1.5240
  281MOL0     H38710  10.327  -0.422  11.006  2.0608  1.0194  1.1659
  281MOL0     H38711  10.026  -0.624  11.283  0.2191  2.3135 -0.3113
  281MOL0     H38712  10.160  -0.530  11.348  0.8104 -1.5620  2.1561
  281MOL0     H38713  10.234  -0.794  11.212 -0.9062 -0.4866 -0.9319
  281MOL0     H38714  10.328  -0.701  11.334 -0.4120 -1.0787  4.2350
  281MOL0     H38715  10.092  -0.885  11.388  0.9085 -0.5031 -0.4181
  281MOL0     H38716  10.263  -0.886  11.449  1.5797  2.5762  0.0799
  281MOL0     H38717  10.225  -0.712  11.604 -1.2544  1.8218 -1.1636
  281MOL0     H38718  10.069  -0.671  11.532 -1.5703 -0.5070 -2.6256
  281MOL0     H38719  10.155  -0.923  11.700 -3.6342 -0.9135  3.2886
  281MOL0     H38720   9.993  -0.900  11.649 -0.3099 -0.9705  1.9242
  281MOL0     H38721   9.967  -0.715  11.792 -1.3019 -1.1065 -0.0907
  281MOL0     H38722  10.030  -0.837  11.876  0.1779 -0.4259 -0.8460
  281MOL0     H38723  10.196  -0.602  11.820 -1.5540  0.6391 -0.0760
  281MOL0     H38724  10.271  -0.767  11.864  1.3810  1.7547 -1.9635
  281MOL0     H38725  10.060  -0.620  12.010 -0.7941 -1.2165 -0.4329
  281MOL0     H38726  10.143  -0.770  12.066 -0.3112 -1.0666 -0.1481
  281MOL0     H38727  10.213  -0.403  11.977 -1.8216  0.4817  1.1875
  281MOL0     H38728  10.451  -0.231  12.088  0.6239  1.0745  1.1829
  281MOL0     H38729  10.488  -0.288  12.251 -0.6875 -0.4089  0.6637
  281MOL0     H38730  10.232  -0.151  12.143 -0.5045 -1.5390  0.3830
  281MOL0     H38731  10.219  -0.262  12.274  0.6767 -2.4828 -1.4580
  281MOL0     H38732  10.390  -0.166  12.419  3.1805 -0.2536 -1.4404
  281MOL0     H38733  10.429  -0.058  12.288  1.3006 -3.1909 -2.1598
  281MOL0     H38734  10.224   0.059  12.307  3.5511  0.4089 -0.9497
  281MOL0     H38735  10.174  -0.066  12.436  1.2942 -1.8152 -0.5507
  281MOL0     H38736  10.530   0.135  12.596  2.2899  0.1555  2.4764
  281MOL0     H38737  10.704   0.096  12.688 -1.8291 -0.8840 -1.3868
  281MOL0     H38738  10.752  -0.046  12.788  1.3632  1.6663  4.5777
  281MOL0     H38739  10.703   0.102  12.867  0.5011 -1.5580  0.4165
  281MOL0     H38740  10.486  -0.437  13.226  3.0291 -1.4286  0.7500
  281MOL0     H38741  10.529  -0.402  13.465 -0.0963  0.3771  0.7589
  281MOL0     H38742  10.370  -0.030  13.675 -1.7543 -0.8522  0.6825
  281MOL0     H38743  10.276  -0.149  13.593 -1.4844  1.9894  1.7944
  281MOL0     H38744  10.422  -0.187  13.852  1.9605  0.7926 -2.5925
  281MOL0     H38745  10.243  -0.179  13.818  0.1112 -0.0124 -1.0587
  281MOL0     H38746  10.408  -0.396  13.723 -0.1486  1.0098  0.0951
  281MOL0     H38747  10.227  -0.393  13.738  0.8604 -0.3236 -2.9153
  281MOL0     H38748  10.229  -0.466  13.939 -0.4480  0.2982  0.1178
  281MOL0     H38749  10.347  -0.351  14.001 -0.5243 -1.4733  1.1081
  281MOL0     H38750  10.459  -0.555  13.833 -0.6749 -0.5991  1.2324
  281MOL0     H38751  10.525  -0.486  13.988  1.5496  1.4297 -2.3301
  281MOL0     H38752  10.464  -0.744  13.964 -1.2751 -0.4068 -0.0767
  281MOL0     H38753  10.297  -0.702  13.958  0.8670 -3.7686  3.0503
  281MOL0     H38754  10.279  -0.629  14.173  0.6460 -0.2822  2.8095
  281MOL0     H38755  10.465  -0.618  14.189  4.1194 -5.1696  0.0018
  281MOL0     H38756  10.487  -0.854  14.198  0.0150  0.9216  3.9674
  281MOL0     H38757  10.315  -0.886  14.166 -1.6523  2.3066  0.8401
  281MOL0     H38758  10.484   0.026  13.428  3.7894  1.2655 -2.7639
  281MOL0     H38759  10.446  -0.007  13.187  1.1877 -1.5559 -1.7149
  281MOL0     H38760  10.294  -0.215  12.844  0.6313 -0.4571  0.3603
  281MOL0     H38761  10.203  -0.125  12.655  1.6908 -2.0130  2.5232
  281MOL0     H38762   9.976  -0.415  11.245 -1.1659  3.3435  2.7380
  281MOL0     H38763   9.972  -0.164  11.228 -1.4706 -1.2547 -1.8856
  281MOL0     H38764  10.321   0.143  10.821  2.1680 -1.6405  2.8598
  281MOL0     H38765  10.417   0.372  10.790 -0.2076 -2.1038 -1.2424
  281MOL0     H38766  10.225   0.677  11.064  0.4422  1.2136  1.6677
  281MOL0     H38767  10.327   0.787  10.972 -0.8824  1.4587  0.6213
  281MOL0     H38768  10.146   0.611  10.808 -0.5776 -0.1883  0.8798
  281MOL0     H38769  10.220   0.762  10.772 -3.8679 -0.1776 -1.3729
  281MOL0     H38770   9.961   0.765  10.818  0.7806 -0.4835  0.8405
  281MOL0     H38771  10.009   0.778  10.987 -3.2122  4.7601 -0.4920
  281MOL0     H38772  10.132   0.958  10.948 -0.2235 -1.1050 -1.0127
  281MOL0     H38773   9.969   0.987  10.883 -0.8100 -0.3605 -1.8334
  281MOL0     H38774  10.179   1.048  10.511  0.1988  3.1834  0.6506
  281MOL0     H38775  10.161   0.501  11.119 -0.9940  0.4188 -2.3474
  281MOL0     H38776  10.010   0.176  11.205 -0.1102  0.8795 -3.0168
  281MOL0     H38777  10.153   0.233  11.292  2.1737 -0.2199 -2.8245
  281MOL0     H38778  10.022   0.348  11.238 -2.0477 -0.7747 -0.4648
  282MOL0     O38779   1.689   0.694   4.087 -0.1827  0.4715  0.1277
  282MOL0     C38780   1.708   0.619   3.997  0.4263  0.1826 -0.2483
  282MOL0     O38781   1.687   0.483   4.000 -0.0471 -0.7936  0.1439
  282MOL0     C38782   1.674   0.401   4.114 -0.0234 -0.5295  0.4838
  282MOL0     C38783   1.696   0.442   4.250 -1.0344  0.3423  0.4504
  282MOL0     C38784   1.689   0.348   4.344  0.3917 -0.2009 -0.8090
  282MOL0     C38785   1.639   0.220   4.323  0.1731 -0.6885 -0.1614
  282MOL0     O38786   1.597   0.157   4.435 -0.3079  0.1430  0.3515
  282MOL0     C38787   1.600   0.015   4.436  0.6393  0.4340  1.2964
  282MOL0     C38788   1.677  -0.025   4.567 -0.2764 -0.7745  0.8492
  282MOL0     C38789   1.612   0.013   4.691 -0.0779 -0.7887  0.4102
  282MOL0     C38790   1.667  -0.046   4.822 -0.5445 -0.2164 -0.3037
  282MOL0     C38791   1.594  -0.005   4.943 -0.3557 -1.0641 -0.3659
  282MOL0     C38792   1.649  -0.058   5.074 -0.1860 -0.6379 -1.1417
  282MOL0     C38793   1.601  -0.197   5.096 -0.0242 -0.4161  0.4890
  282MOL0     C38794   1.678  -0.255   5.214  0.4978  0.0660 -0.1862
  282MOL0     N38795   1.618  -0.389   5.228  0.0513  1.3710 -0.0194
  282MOL0     C38796   1.635  -0.498   5.152 -0.3413 -0.2422 -0.2280
  282MOL0     C38797   1.549  -0.588   5.198  0.0027  0.4696  0.1192
  282MOL0     C38798   1.531  -0.723   5.154 -0.5470  0.0494 -0.1535
  282MOL0     C38799   1.556  -0.824   5.269 -0.7539  0.6590 -0.8436
  282MOL0     C38800   1.599  -0.959   5.216 -0.3511 -0.0911  1.1137
  282MOL0     C38801   1.574  -1.067   5.328 -0.7905 -0.0466 -0.3770
  282MOL0     O38802   1.661  -1.180   5.336 -0.3213  0.1189 -0.0841
  282MOL0     C38803   1.662  -1.284   5.240  1.2433 -0.2871 -0.2499
  282MOL0     C38804   1.558  -1.291   5.141  0.9790  0.9194 -0.2634
  282MOL0     C38805   1.554  -1.381   5.034 -0.3415  0.6331 -0.7340
  282MOL0     C38806   1.416  -1.370   4.963 -0.3232  0.4889 -0.3433
  282MOL0     C38807   1.662  -1.465   5.007 -0.2046 -0.4665  0.4174
  282MOL0     C38808   1.667  -1.557   4.891  0.1880  0.6091  1.3101
  282MOL0     O38809   1.651  -1.501   4.769  1.0132 -0.0138 -0.0795
  282MOL0     C38810   1.685  -1.581   4.662 -0.3007  0.9778 -1.1349
  282MOL0     C38811   1.589  -1.612   4.574 -0.0396 -0.3532  0.9173
  282MOL0     C38812   1.620  -1.688   4.462  0.6592 -0.3886 -0.4098
  282MOL0     C38813   1.754  -1.731   4.429 -0.0851 -0.8934  0.6915
  282MOL0     O38814   1.776  -1.821   4.322  0.4219  0.2591 -0.5225
  282MOL0     C38815   1.864  -1.776   4.225  0.0835 -0.7464  0.5337
  282MOL0     C38816   1.798  -1.791   4.093  0.9301  0.7991 -0.6853
  282MOL0     C38817   1.915  -1.768   3.990  0.6038 -0.8927  0.5356
  282MOL0     C38818   2.025  -1.878   4.003  0.2600 -0.7337  0.4094
  282MOL0     C38819   1.957  -2.022   4.004 -0.8260 -0.5359  0.6584
  282MOL0     C38820   2.054  -2.141   3.980 -0.0212  0.3101  0.1684
  282MOL0     C38821   2.184  -2.143   4.069 -0.7098 -0.3765 -0.4243
  282MOL0     C38822   2.212  -2.299   4.107  0.2388 -0.5461 -0.2836
  282MOL0    Cl38823   2.204  -2.415   3.965  0.4504 -0.0845 -0.3506
  282MOL0     C38824   1.857  -1.672   4.505 -0.2526 -0.5926  0.3006
  282MOL0     C38825   1.819  -1.599   4.617  0.2917 -0.1726 -0.2146
  282MOL0     O38826   1.676  -1.677   4.913  0.3219 -0.0890 -0.1532
  282MOL0     C38827   1.771  -1.452   5.097  0.6842  0.4261 -0.4332
  282MOL0     C38828   1.774  -1.365   5.206 -0.7783  0.5929 -0.0383
  282MOL0     N38829   1.473  -0.528   5.291  0.0662 -0.3743 -0.3944
  282MOL0     N38830   1.514  -0.407   5.313  0.2612  0.3650 -0.0548
  282MOL0     C38831   1.613   0.187   4.192 -0.7240 -1.1609 -0.3087
  282MOL0     C38832   1.628   0.272   4.091 -0.9046  0.1097  0.4568
  282MOL0     C38833   1.754   0.675   3.870  0.2708 -0.1799 -0.5597
  282MOL0     C38834   1.830   0.598   3.779 -0.6815  0.4988 -0.3604
  282MOL0     C38835   1.887   0.663   3.666 -0.3183  0.2328 -0.6584
  282MOL0     C38836   1.880   0.799   3.641  0.6984 -0.1581 -0.8042
  282MOL0     O38837   1.943   0.845   3.533  0.4580 -0.9268  1.3627
  282MOL0     C38838   1.886   0.960   3.457 -0.4134  0.1906  0.2189
  282MOL0     C38839   2.003   1.030   3.391 -1.0153 -0.1569  0.6653
  282MOL0     C38840   1.960   1.165   3.340 -0.0790 -0.2218 -0.4804
  282MOL0     C38841   1.866   1.144   3.224 -0.6212 -0.5955  0.1516
  282MOL0     C38842   1.812   1.268   3.170  0.4607 -0.5075  1.7323
  282MOL0     C38843   1.760   1.360   3.113 -0.3924  0.1601 -0.2371
  282MOL0     C38844   1.804   0.878   3.725  0.0886 -0.2912  0.9136
  282MOL0     C38845   1.732   0.812   3.829 -0.1622  0.3850  0.3802
  282MOL0     C38846   1.638   0.906   3.911 -0.0101 -0.4519 -0.1057
  282MOL0     H38847   1.740   0.538   4.276 -2.9311  1.1538  0.8706
  282MOL0     H38848   1.708   0.392   4.441 -1.2954 -2.5970  0.7236
  282MOL0     H38849   1.661  -0.025   4.355  1.4950  2.4518  0.8876
  282MOL0     H38850   1.494  -0.012   4.428 -0.5931  5.0258 -1.8705
  282MOL0     H38851   1.694  -0.132   4.561  0.7520 -0.6294  1.1258
  282MOL0     H38852   1.765   0.039   4.560 -1.8988  2.0349  3.3930
  282MOL0     H38853   1.606   0.122   4.701  3.5977 -0.5491  1.5380
  282MOL0     H38854   1.509  -0.016   4.671 -1.0473  3.0026 -0.7842
  282MOL0     H38855   1.665  -0.154   4.804 -0.2811 -0.3598  0.4931
  282MOL0     H38856   1.765   0.002   4.830 -0.5585  0.2016 -2.2868
  282MOL0     H38857   1.490  -0.024   4.913 -0.8550 -0.1688  0.7144
  282MOL0     H38858   1.604   0.104   4.952  0.9678 -1.2333  0.6121
  282MOL0     H38859   1.758  -0.049   5.081 -0.4467  1.4996  2.5792
  282MOL0     H38860   1.612   0.004   5.156  1.8866 -0.3139 -0.3822
  282MOL0     H38861   1.625  -0.253   5.005 -1.4636  0.5967 -0.5607
  282MOL0     H38862   1.493  -0.191   5.110 -0.1742  0.7188 -0.9384
  282MOL0     H38863   1.787  -0.260   5.207  0.5224  0.0160  0.2198
  282MOL0     H38864   1.657  -0.198   5.305  1.8897 -1.0421  0.8777
  282MOL0     H38865   1.717  -0.518   5.084  1.0577  1.1814  0.9637
  282MOL0     H38866   1.592  -0.742   5.065  2.3271  3.0558  0.9509
  282MOL0     H38867   1.429  -0.756   5.133  1.2103 -3.7710 -4.6651
  282MOL0     H38868   1.639  -0.785   5.328  0.6874 -1.0379 -1.6862
  282MOL0     H38869   1.464  -0.830   5.329 -1.3443  0.8573 -1.7023
  282MOL0     H38870   1.549  -0.982   5.121 -0.2699  2.3164  0.4094
  282MOL0     H38871   1.707  -0.953   5.197 -0.7279  1.9293 -0.8010
  282MOL0     H38872   1.584  -1.015   5.423  2.0871 -1.8120  0.4317
  282MOL0     H38873   1.469  -1.096   5.330 -1.0207  0.8164  0.7596
  282MOL0     H38874   1.462  -1.243   5.154 -1.5137 -3.5213 -0.0323
  282MOL0     H38875   1.402  -1.471   4.924 -1.2075  0.1297  0.8476
  282MOL0     H38876   1.422  -1.303   4.877  2.2223  1.0421  0.1785
  282MOL0     H38877   1.334  -1.354   5.033  0.3749 -2.8801  1.4794
  282MOL0     H38878   1.484  -1.597   4.594 -0.4256  0.6860 -1.5410
  282MOL0     H38879   1.547  -1.712   4.385  2.2509  0.5873 -2.2925
  282MOL0     H38880   1.895  -1.671   4.228  0.1328 -0.6612 -1.3544
  282MOL0     H38881   1.946  -1.847   4.221  0.3753 -0.4448 -3.3920
  282MOL0     H38882   1.741  -1.880   4.063  1.2212  1.5558 -3.8586
  282MOL0     H38883   1.730  -1.705   4.089  0.3096  0.5938  2.5751
  282MOL0     H38884   1.979  -1.681   4.003  3.4979 -2.5908 -1.1694
  282MOL0     H38885   1.876  -1.770   3.888  0.6030 -0.8980  0.5363
  282MOL0     H38886   2.093  -1.873   4.089  1.5840  0.7442 -0.6718
  282MOL0     H38887   2.081  -1.870   3.910 -1.2641 -1.0317 -0.5657
  282MOL0     H38888   1.915  -2.044   4.102 -2.9994  2.8338  0.6290
  282MOL0     H38889   1.891  -2.032   3.917 -1.5215 -3.3316  1.4193
  282MOL0     H38890   2.082  -2.134   3.875 -0.3644  2.1385  0.1719
  282MOL0     H38891   1.999  -2.236   3.986  1.0186 -0.2061  2.7634
  282MOL0     H38892   2.170  -2.081   4.158 -2.1637  1.9773 -2.1621
  282MOL0     H38893   2.262  -2.087   4.018 -1.0525  0.5753  0.0825
  282MOL0     H38894   2.142  -2.343   4.179 -0.8383 -0.4357 -1.2303
  282MOL0     H38895   2.314  -2.301   4.146 -0.2471 -0.8727  1.0357
  282MOL0     H38896   1.959  -1.691   4.474 -1.0225 -6.7710  0.3012
  282MOL0     H38897   1.895  -1.573   4.690  0.4734 -1.6987  0.1767
  282MOL0     H38898   1.856  -1.516   5.076 -1.0014 -1.2970 -2.5248
  282MOL0     H38899   1.845  -1.370   5.289 -3.7205  0.3705  2.6802
  282MOL0     H38900   1.574   0.086   4.188 -1.0711 -1.0988  0.9926
  282MOL0     H38901   1.617   0.245   3.986  1.8680 -0.4663  0.2482
  282MOL0     H38902   1.842   0.491   3.793  0.3968  0.1994 -2.9615
  282MOL0     H38903   1.937   0.608   3.587 -0.5202 -1.6017  0.4322
  282MOL0     H38904   1.837   0.911   3.372 -0.0049 -0.2970  0.2594
  282MOL0     H38905   1.813   1.029   3.500 -2.3204 -0.4788 -1.7320
  282MOL0     H38906   2.049   0.973   3.310 -3.0830 -1.9745  0.6782
  282MOL0     H38907   2.077   1.059   3.466 -0.5162  0.3818 -0.0213
  282MOL0     H38908   1.906   1.216   3.420  2.5388 -0.3888  1.5289
  282MOL0     H38909   2.048   1.225   3.314  1.6737 -2.6242 -0.4590
  282MOL0     H38910   1.776   1.095   3.260 -1.9717  1.4763 -0.2406
  282MOL0     H38911   1.906   1.091   3.137 -2.1722 -0.1069 -0.9010
  282MOL0     H38912   1.728   1.443   3.052  1.4602 -1.6402 -3.9744
  282MOL0     H38913   1.780   0.983   3.707  0.7465 -0.3691 -0.5880
  282MOL0     H38914   1.549   0.858   3.952  0.8423 -1.1648  0.9525
  282MOL0     H38915   1.698   0.952   3.990 -0.9912 -1.8166  1.5062
  282MOL0     H38916   1.605   0.992   3.852 -0.8939 -1.5897 -1.3435
  283MOL0     O38917   5.606   0.037   0.908 -0.0469 -0.0894  0.1567
  283MOL0     C38918   5.599   0.066   0.789  0.7756 -0.0960 -0.0353
  283MOL0     O38919   5.563   0.187   0.737 -0.0453 -0.0561  0.6193
  283MOL0     C38920   5.503   0.273   0.828  0.4202  0.7765 -0.0936
  283MOL0     C38921   5.573   0.371   0.893  0.8547 -0.5269 -0.4614
  283MOL0     C38922   5.512   0.462   0.991 -1.0059  0.4921  0.6937
  283MOL0     C38923   5.377   0.439   1.023 -0.0808  0.2424  0.8496
  283MOL0     O38924   5.319   0.522   1.105  0.3094 -0.1097 -1.2457
  283MOL0     C38925   5.207   0.596   1.047 -0.3526  0.4334  0.1107
  283MOL0     C38926   5.134   0.676   1.155  0.2015 -0.7116 -0.4652
  283MOL0     C38927   5.109   0.602   1.286  0.4869  0.4876  0.4005
  283MOL0     C38928   5.011   0.671   1.384  0.3560  0.1040 -0.2649
  283MOL0     C38929   5.066   0.794   1.441 -0.3786 -0.3874 -0.7080
  283MOL0     C38930   4.992   0.825   1.571  0.5223 -0.0797 -0.2651
  283MOL0     C38931   5.047   0.945   1.653  0.9048 -0.1543 -0.6287
  283MOL0     C38932   4.958   0.961   1.783 -0.0498 -0.5775  0.5515
  283MOL0     N38933   5.024   1.058   1.879 -0.9508  0.0874 -0.4241
  283MOL0     C38934   5.027   1.197   1.891  0.3454  0.3323 -0.2207
  283MOL0     C38935   5.098   1.221   2.008 -0.7029  0.0810  0.5337
  283MOL0     C38936   5.121   1.348   2.078 -0.5560  0.7870 -0.3961
  283MOL0     C38937   5.039   1.367   2.212 -0.6512  0.7757  0.7120
  283MOL0     C38938   4.894   1.361   2.185 -0.0987  0.1623 -0.4277
  283MOL0     C38939   4.826   1.488   2.124  0.8108  1.0942 -0.7501
  283MOL0     O38940   4.844   1.458   1.977  0.3329 -0.8702 -0.5562
  283MOL0     C38941   4.811   1.565   1.901 -0.4035 -0.3540  0.4284
  283MOL0     C38942   4.686   1.633   1.915  0.1751  0.2947  0.2766
  283MOL0     C38943   4.654   1.743   1.834  0.3135 -0.2007 -0.4708
  283MOL0     C38944   4.527   1.825   1.879 -0.4458  1.5789 -0.0203
  283MOL0     C38945   4.746   1.783   1.742 -1.0083  0.2992  0.5340
  283MOL0     C38946   4.729   1.904   1.663 -0.3694 -0.1006  0.1036
  283MOL0     O38947   4.601   1.942   1.644  0.2669 -0.0636 -0.5289
  283MOL0     C38948   4.572   2.054   1.573  0.7835  0.0300  0.4345
  283MOL0     C38949   4.629   2.080   1.446  0.2713  0.3759  0.0798
  283MOL0     C38950   4.618   2.197   1.380 -0.2938 -0.9718 -0.3441
  283MOL0     C38951   4.554   2.303   1.451 -0.4706  1.0140  0.3451
  283MOL0     O38952   4.540   2.421   1.384 -0.5453 -0.7818  0.3201
  283MOL0     C38953   4.547   2.548   1.452  0.1555 -0.3653 -1.3065
  283MOL0     C38954   4.442   2.647   1.393 -0.7310 -0.2049  0.1461
  283MOL0     C38955   4.309   2.613   1.456  0.1437  0.9556 -0.4163
  283MOL0     C38956   4.190   2.677   1.383 -0.0855  0.3329  0.3346
  283MOL0     C38957   4.055   2.640   1.457 -0.3810 -0.3297 -0.1154
  283MOL0     C38958   4.027   2.733   1.573 -0.1130 -0.0635 -0.3383
  283MOL0     C38959   3.879   2.738   1.621 -0.5041  0.5974 -0.4738
  283MOL0     C38960   3.839   2.793   1.754 -0.6122  0.2828 -0.0032
  283MOL0    Cl38961   3.920   2.708   1.887 -0.2915  0.0384 -0.1973
  283MOL0     C38962   4.506   2.283   1.585  0.1264  0.4241  0.5426
  283MOL0     C38963   4.508   2.154   1.640 -0.8760 -0.0072 -0.3005
  283MOL0     O38964   4.831   1.967   1.622  0.0392 -0.2445 -0.2123
  283MOL0     C38965   4.878   1.711   1.722  0.0249  0.0750 -0.3331
  283MOL0     C38966   4.907   1.605   1.802  0.0449  1.5913 -0.3001
  283MOL0     N38967   5.136   1.104   2.062 -0.2058 -0.0772  0.2260
  283MOL0     N38968   5.094   1.011   1.987  0.2262 -0.1501  0.4775
  283MOL0     C38969   5.306   0.336   0.956 -0.3515 -0.5945 -0.2881
  283MOL0     C38970   5.362   0.257   0.849 -0.3506  0.3836  0.4028
  283MOL0     C38971   5.644  -0.038   0.692 -0.8151 -0.2462  0.0480
  283MOL0     C38972   5.561  -0.068   0.588  0.3187 -0.6250  0.0862
  283MOL0     C38973   5.583  -0.142   0.481 -0.8169  0.1094  0.0607
  283MOL0     C38974   5.710  -0.198   0.462  0.1375  0.1645 -0.8783
  283MOL0     O38975   5.729  -0.287   0.353 -0.0156  0.2056 -0.7290
  283MOL0     C38976   5.835  -0.374   0.347 -0.7738 -0.6597 -0.4262
  283MOL0     C38977   5.807  -0.501   0.261 -0.6635 -0.5265 -0.1546
  283MOL0     C38978   5.940  -0.578   0.228  0.4232  0.4868 -0.6057
  283MOL0     C38979   5.927  -0.693   0.128 -0.0514  0.5720  0.4793
  283MOL0     C38980   5.884  -0.647  -0.006  0.0565 -0.5309  0.8646
  283MOL0     C38981   5.844  -0.602  -0.114 -0.7829 -0.1702 -0.2446
  283MOL0     C38982   5.804  -0.175   0.568  0.2841 -0.0572  0.0880
  283MOL0     C38983   5.774  -0.102   0.681  0.1181 -0.3111  0.3231
  283MOL0     C38984   5.883  -0.108   0.789  0.1085 -0.5785 -0.3612
  283MOL0     H38985   5.681   0.384   0.889  0.7007  0.8932 -0.3333
  283MOL0     H38986   5.559   0.550   1.033 -0.9216  0.0505  1.5566
  283MOL0     H38987   5.139   0.524   1.002  1.6288 -2.5116  1.5316
  283MOL0     H38988   5.240   0.665   0.968 -1.6450 -0.6324 -1.4328
  283MOL0     H38989   5.205   0.756   1.178  0.3002 -1.6446  3.0532
  283MOL0     H38990   5.041   0.723   1.122  1.3326  0.7350 -1.7360
  283MOL0     H38991   5.076   0.499   1.270  2.1384 -0.1822  1.0661
  283MOL0     H38992   5.206   0.591   1.336  0.7633 -1.1474 -0.4321
  283MOL0     H38993   4.926   0.710   1.328  2.0588  3.4878 -0.7473
  283MOL0     H38994   4.980   0.600   1.462  2.8302 -1.7942 -0.8708
  283MOL0     H38995   5.044   0.874   1.370  1.4329  0.5595 -0.2736
  283MOL0     H38996   5.173   0.794   1.465 -0.5510  2.7493  0.5552
  283MOL0     H38997   4.889   0.856   1.551 -1.0181 -1.1278  4.6646
  283MOL0     H38998   4.981   0.728   1.620  1.6683 -0.8661 -1.5013
  283MOL0     H38999   5.040   1.039   1.599  2.6930  3.2197  4.2921
  283MOL0     H39000   5.151   0.922   1.680  0.9502  2.3302  1.7014
  283MOL0     H39001   4.860   1.006   1.764  0.7837  0.7201 -0.9093
  283MOL0     H39002   4.929   0.865   1.826  0.4721 -0.5421  0.9878
  283MOL0     H39003   4.983   1.267   1.820 -1.4412  0.5267  1.0182
  283MOL0     H39004   5.106   1.427   2.003 -0.1392  1.3753  0.1293
  283MOL0     H39005   5.223   1.366   2.114 -0.4699  1.1164 -0.7849
  283MOL0     H39006   5.063   1.282   2.276 -3.0438 -0.0350  0.6487
  283MOL0     H39007   5.065   1.456   2.270 -0.3303  1.8136 -0.9505
  283MOL0     H39008   4.867   1.279   2.117  0.3519  1.9166 -2.8724
  283MOL0     H39009   4.851   1.340   2.283  0.6551 -3.5321 -0.7373
  283MOL0     H39010   4.721   1.496   2.153  1.7611  1.0863  3.1720
  283MOL0     H39011   4.860   1.588   2.154  3.2829 -0.1501  0.9400
  283MOL0     H39012   4.612   1.589   1.980  0.3997  0.9166  0.9603
  283MOL0     H39013   4.545   1.924   1.921 -1.8663  2.0148 -0.3979
  283MOL0     H39014   4.460   1.762   1.938 -0.2855 -2.3670 -3.4807
  283MOL0     H39015   4.463   1.832   1.790  0.7138 -0.4627 -1.1187
  283MOL0     H39016   4.681   2.008   1.383  1.4218  0.1802  1.2132
  283MOL0     H39017   4.637   2.201   1.273 -0.2540  0.0512 -0.3009
  283MOL0     H39018   4.528   2.539   1.560  0.2262 -1.0576 -1.3490
  283MOL0     H39019   4.647   2.590   1.439  1.4891 -2.5437  1.0127
  283MOL0     H39020   4.463   2.753   1.413 -3.9617  0.0337  3.2251
  283MOL0     H39021   4.448   2.627   1.285 -1.4178  2.4889 -0.4901
  283MOL0     H39022   4.307   2.636   1.563 -0.3221 -1.8649  0.2504
  283MOL0     H39023   4.299   2.505   1.443 -1.8627  1.2967 -2.4258
  283MOL0     H39024   4.199   2.639   1.281 -2.5481 -0.1816  0.2357
  283MOL0     H39025   4.211   2.784   1.375 -0.8981  0.4518 -0.4319
  283MOL0     H39026   3.970   2.649   1.387  1.8071  1.4844 -2.7533
  283MOL0     H39027   4.060   2.536   1.490 -0.0000 -0.2516  0.0635
  283MOL0     H39028   4.044   2.838   1.547  0.2862 -0.3552 -1.2737
  283MOL0     H39029   4.083   2.708   1.664 -1.2488  0.9974  0.6834
  283MOL0     H39030   3.848   2.633   1.614  1.9483 -0.3074  0.8361
  283MOL0     H39031   3.833   2.784   1.534  3.2282  1.3845 -2.2172
  283MOL0     H39032   3.731   2.807   1.747 -0.4729  2.3553  1.1301
  283MOL0     H39033   3.879   2.895   1.751 -1.8039  0.8615  1.6226
  283MOL0     H39034   4.445   2.356   1.639 -0.2047  1.9230 -1.7274
  283MOL0     H39035   4.469   2.139   1.740 -1.6198  0.7628 -0.4681
  283MOL0     H39036   4.941   1.741   1.639 -0.9847  1.8599 -0.5122
  283MOL0     H39037   4.992   1.538   1.789 -1.3246  0.0827 -1.9595
  283MOL0     H39038   5.204   0.314   0.988 -0.4908  0.1265 -0.2245
  283MOL0     H39039   5.313   0.186   0.783  0.7379  0.8965 -1.0094
  283MOL0     H39040   5.457  -0.036   0.591 -0.1050 -2.0002  1.4509
  283MOL0     H39041   5.508  -0.167   0.407  0.0930  0.2607 -0.9340
  283MOL0     H39042   5.928  -0.332   0.307 -0.0970 -1.1114  0.6208
  283MOL0     H39043   5.861  -0.415   0.445 -1.9461 -2.5812 -0.8573
  283MOL0     H39044   5.756  -0.471   0.169 -0.0534  3.1381  0.5748
  283MOL0     H39045   5.737  -0.558   0.323  1.4091  0.5157  3.4853
  283MOL0     H39046   6.009  -0.507   0.180  1.9027  0.4966  1.3929
  283MOL0     H39047   5.975  -0.611   0.327  0.0832  1.1448 -0.2595
  283MOL0     H39048   5.869  -0.776   0.168  0.7382  1.3815  3.5540
  283MOL0     H39049   6.026  -0.739   0.125 -1.0234 -1.8737  2.6353
  283MOL0     H39050   5.808  -0.548  -0.199  2.9274  2.3738 -0.4093
  283MOL0     H39051   5.901  -0.221   0.553  1.7327  2.8797 -0.2155
  283MOL0     H39052   5.979  -0.136   0.745 -0.6828 -1.5982 -1.5405
  283MOL0     H39053   5.881  -0.014   0.845 -1.4938  0.0908 -1.4617
  283MOL0     H39054   5.860  -0.187   0.862 -0.9410 -0.8629 -0.9771
  284MOL0     O39055   2.709   9.135   9.627  0.0835  0.1925 -0.3744
  284MOL0     C39056   2.627   9.171   9.717  0.7823 -0.9243  0.3854
  284MOL0     O39057   2.502   9.224   9.682  0.2104 -0.5815 -0.9051
  284MOL0     C39058   2.468   9.270   9.552 -0.5066  0.5028 -1.1427
  284MOL0     C39059   2.374   9.194   9.475  0.4774  0.2853 -0.3073
  284MOL0     C39060   2.331   9.249   9.349 -0.4923  0.0409 -1.2297
  284MOL0     C39061   2.383   9.366   9.298  0.3872 -0.7335 -0.2940
  284MOL0     O39062   2.347   9.420   9.178  0.6439  0.0626 -0.3619
  284MOL0     C39063   2.377   9.328   9.070 -0.4697 -0.1084  0.7178
  284MOL0     C39064   2.417   9.388   8.929 -0.0786 -0.3657  0.5239
  284MOL0     C39065   2.538   9.480   8.922  0.0382 -0.1984 -0.6246
  284MOL0     C39066   2.658   9.408   8.875 -0.2543 -0.0301 -0.2495
  284MOL0     C39067   2.781   9.507   8.883  0.3101  0.0377 -0.2024
  284MOL0     C39068   2.814   9.571   8.744  0.0891 -0.3504 -0.1359
  284MOL0     C39069   2.712   9.683   8.692  0.2838  0.4207 -0.5705
  284MOL0     C39070   2.779   9.788   8.599  0.0175 -0.9383  0.5307
  284MOL0     N39071   2.699   9.913   8.566  0.4104  0.7796 -0.0678
  284MOL0     C39072   2.596   9.906   8.478 -0.2704  0.8736  0.2282
  284MOL0     C39073   2.525  10.014   8.506  0.5364 -0.6362  0.3131
  284MOL0     C39074   2.405  10.065   8.429 -0.0905 -0.3269 -0.0100
  284MOL0     C39075   2.317   9.943   8.382 -0.5515 -1.0963  0.4578
  284MOL0     C39076   2.184   9.985   8.333 -0.7114  0.5407 -0.0482
  284MOL0     C39077   2.195  10.083   8.213  0.4891  0.7978  0.6293
  284MOL0     O39078   2.214  10.215   8.252 -0.6071 -0.1922 -1.2719
  284MOL0     C39079   2.111  10.302   8.221 -0.5840  0.5649  0.0397
  284MOL0     C39080   2.017  10.324   8.316  0.4895  0.2834 -0.0887
  284MOL0     C39081   1.925  10.431   8.301 -0.7786  0.2757  0.3228
  284MOL0     C39082   1.839  10.446   8.418  0.2262  0.4757 -0.4140
  284MOL0     C39083   1.928  10.505   8.179 -0.3541  0.1377 -0.7088
  284MOL0     C39084   1.852  10.627   8.163 -0.0246  0.4887 -0.9232
  284MOL0     O39085   1.918  10.728   8.086 -0.4222 -1.3761  0.4696
  284MOL0     C39086   1.870  10.856   8.090 -0.5576  0.0056 -0.1951
  284MOL0     C39087   1.835  10.908   8.217 -1.3859 -0.1501 -0.4669
  284MOL0     C39088   1.798  11.040   8.229  0.1914  0.7724  0.1574
  284MOL0     C39089   1.813  11.133   8.127 -0.3390  0.1661 -0.3230
  284MOL0     O39090   1.773  11.262   8.142  0.5402  0.2164  0.5753
  284MOL0     C39091   1.690  11.290   8.250 -0.3835  0.4843  0.0803
  284MOL0     C39092   1.642  11.440   8.236  0.0266 -0.2720  0.2022
  284MOL0     C39093   1.540  11.488   8.341 -0.7262  0.2968  0.1543
  284MOL0     C39094   1.519  11.640   8.331  0.0021  0.4861  0.4243
  284MOL0     C39095   1.396  11.676   8.419 -0.3095 -0.5081  0.0137
  284MOL0     C39096   1.265  11.661   8.356  0.8684 -0.2062  0.6749
  284MOL0     C39097   1.254  11.727   8.225 -0.2127  0.7869 -0.8537
  284MOL0     C39098   1.104  11.735   8.194 -0.7078 -0.5689 -0.2092
  284MOL0    Cl39099   1.018  11.858   8.286  0.4301  0.3006 -0.0827
  284MOL0     C39100   1.871  11.092   8.004  0.6357  0.8197 -0.2377
  284MOL0     C39101   1.896  10.953   7.985 -0.8096 -0.6034 -0.9827
  284MOL0     O39102   1.735  10.641   8.208 -0.1250  0.5389 -0.4993
  284MOL0     C39103   2.022  10.470   8.077  0.3960  0.1136 -0.1824
  284MOL0     C39104   2.114  10.367   8.101 -0.1184 -0.3021 -0.5792
  284MOL0     N39105   2.585  10.087   8.603  0.4077  0.4782  0.3126
  284MOL0     N39106   2.690  10.017   8.645  0.5665  0.5807  1.3252
  284MOL0     C39107   2.481   9.436   9.367 -0.2349 -0.3612  0.8874
  284MOL0     C39108   2.527   9.380   9.486  1.0595 -0.8162  0.5833
  284MOL0     C39109   2.661   9.152   9.862  0.9397  0.1543 -0.4722
  284MOL0     C39110   2.583   9.218   9.959  0.6342  0.1410  0.1089
  284MOL0     C39111   2.600   9.208  10.091  0.3886 -0.2699 -0.2201
  284MOL0     C39112   2.698   9.117  10.142 -0.8454 -0.0227 -0.6985
  284MOL0     O39113   2.714   9.082  10.272  0.4037  0.2845  0.0025
  284MOL0     C39114   2.667   9.167  10.376  0.3792 -0.0154 -0.6695
  284MOL0     C39115   2.773   9.267  10.422 -1.0141 -0.2339 -0.4452
  284MOL0     C39116   2.909   9.216  10.444  0.1173 -0.1438  0.6007
  284MOL0     C39117   3.010   9.314  10.508  0.2458  0.2665  0.5154
  284MOL0     C39118   2.952   9.425  10.587 -0.7099  0.0717 -0.7074
  284MOL0     C39119   2.910   9.517  10.653 -0.0523 -0.1544 -0.4080
  284MOL0     C39120   2.773   9.047  10.047  0.3523 -0.3889 -0.0040
  284MOL0     C39121   2.764   9.063   9.908  0.1155  0.0540  0.3034
  284MOL0     C39122   2.875   8.996   9.833  0.2427 -0.1315 -0.0422
  284MOL0     H39123   2.337   9.100   9.514  1.1164 -0.7029 -2.0151
  284MOL0     H39124   2.254   9.194   9.296 -1.1252 -0.8174  0.5101
  284MOL0     H39125   2.288   9.266   9.053  0.8406 -2.5350  2.1304
  284MOL0     H39126   2.455   9.252   9.084 -2.2028 -2.2517 -0.6260
  284MOL0     H39127   2.417   9.312   8.851  2.9865 -0.4822  0.5216
  284MOL0     H39128   2.334   9.456   8.910 -0.1333 -0.5724  0.0207
  284MOL0     H39129   2.516   9.558   8.849  0.4619 -1.6956 -2.3986
  284MOL0     H39130   2.556   9.532   9.017  1.9318 -0.2777 -0.9084
  284MOL0     H39131   2.684   9.317   8.930  0.7433 -1.5927 -3.1145
  284MOL0     H39132   2.627   9.387   8.773  0.2583  5.2908 -1.8309
  284MOL0     H39133   2.863   9.439   8.907  1.2439  0.4208 -2.1663
  284MOL0     H39134   2.768   9.587   8.956  0.7796  0.7481 -0.8846
  284MOL0     H39135   2.914   9.614   8.738 -0.5326  1.1206 -0.5826
  284MOL0     H39136   2.806   9.491   8.671  1.9602 -0.9676  0.3000
  284MOL0     H39137   2.673   9.736   8.779  2.6591 -1.2634  1.6690
  284MOL0     H39138   2.621   9.641   8.649  0.9487  1.1238 -2.8331
  284MOL0     H39139   2.870   9.821   8.649 -1.3120  1.2666  1.6767
  284MOL0     H39140   2.783   9.733   8.505 -1.0379  2.0093 -1.3759
  284MOL0     H39141   2.577   9.821   8.413 -0.7741  1.6477 -0.6708
  284MOL0     H39142   2.441  10.140   8.358  2.5007 -0.0846  1.4372
  284MOL0     H39143   2.343  10.121   8.500  3.1996  1.9360  1.3024
  284MOL0     H39144   2.375   9.884   8.310  0.6160 -0.3922  0.7870
  284MOL0     H39145   2.304   9.874   8.467  1.2088 -0.6953  1.1058
  284MOL0     H39146   2.141   9.886   8.312  1.3254 -0.6160  0.9364
  284MOL0     H39147   2.127  10.019   8.420 -1.6991 -0.8518 -0.1061
  284MOL0     H39148   2.283  10.051   8.156  0.2894  0.2594  0.6180
  284MOL0     H39149   2.109  10.061   8.150  0.7643  2.4406 -0.3660
  284MOL0     H39150   2.011  10.261   8.405 -0.1981  1.0624  0.4399
  284MOL0     H39151   1.735  10.417   8.399 -1.1898  2.9474  2.7025
  284MOL0     H39152   1.841  10.552   8.448  0.5891  0.0272  1.2581
  284MOL0     H39153   1.872  10.394   8.508 -0.2157 -2.1062 -1.6407
  284MOL0     H39154   1.842  10.846   8.305 -2.4873 -0.6434 -0.7126
  284MOL0     H39155   1.763  11.070   8.327 -0.7447  0.6420 -0.1266
  284MOL0     H39156   1.600  11.228   8.253 -0.9214  1.1420 -1.3602
  284MOL0     H39157   1.751  11.283   8.341 -0.9782  1.5953  0.5931
  284MOL0     H39158   1.726  11.509   8.242 -0.9548  1.1292 -1.2936
  284MOL0     H39159   1.596  11.448   8.137  3.2274  0.6522 -1.3430
  284MOL0     H39160   1.583  11.468   8.440  1.3391  3.5336  0.0429
  284MOL0     H39161   1.451  11.424   8.339 -1.2785  0.7172  3.7514
  284MOL0     H39162   1.505  11.677   8.229  3.1695  1.8050  0.3441
  284MOL0     H39163   1.608  11.691   8.368  1.3011  0.6273 -2.5912
  284MOL0     H39164   1.397  11.623   8.515  0.5504  0.1375  0.3718
  284MOL0     H39165   1.419  11.782   8.434  1.6867 -0.7094 -1.2467
  284MOL0     H39166   1.197  11.706   8.429  2.2548  0.1269  1.8033
  284MOL0     H39167   1.248  11.553   8.355 -0.3296 -0.0328  0.7049
  284MOL0     H39168   1.303  11.669   8.147 -3.4923  0.6589 -2.9987
  284MOL0     H39169   1.299  11.826   8.234 -1.1391  1.1039  0.9088
  284MOL0     H39170   1.061  11.636   8.213 -1.5425 -0.9264 -3.4434
  284MOL0     H39171   1.097  11.755   8.087  1.3150 -1.0973 -0.4691
  284MOL0     H39172   1.888  11.153   7.916 -0.4573  2.0840  0.3963
  284MOL0     H39173   1.942  10.915   7.894  0.8207  0.2385 -0.5348
  284MOL0     H39174   2.037  10.528   7.986  1.0485 -2.2935 -1.6863
  284MOL0     H39175   2.191  10.338   8.030  1.4074  0.9948  0.4423
  284MOL0     H39176   2.510   9.524   9.311 -4.4729 -0.4055 -1.8256
  284MOL0     H39177   2.607   9.435   9.535  0.7765  1.1835 -1.0535
  284MOL0     H39178   2.505   9.280   9.916  0.5422 -0.6415 -0.9019
  284MOL0     H39179   2.530   9.267  10.148  1.4687  1.4008 -0.5269
  284MOL0     H39180   2.580   9.228  10.350  2.0381  1.5519 -3.0086
  284MOL0     H39181   2.631   9.107  10.460 -0.4632  2.4225  0.7993
  284MOL0     H39182   2.726   9.296  10.516 -1.1842 -0.1442 -0.5571
  284MOL0     H39183   2.771   9.356  10.359 -1.6946 -0.4981 -0.8127
  284MOL0     H39184   2.898   9.130  10.511 -2.3740  0.2005  0.7248
  284MOL0     H39185   2.943   9.191  10.343 -0.5415 -1.3491  0.6540
  284MOL0     H39186   3.047   9.368  10.421  0.1069 -0.0532  0.2589
  284MOL0     H39187   3.091   9.268  10.565 -1.0823 -1.3437  1.1667
  284MOL0     H39188   2.897   9.599  10.720 -0.1860 -0.2230 -0.3496
  284MOL0     H39189   2.822   8.957  10.083 -6.6185 -5.2463 -0.7205
  284MOL0     H39190   2.857   8.979   9.726 -0.7273  1.5145 -0.1826
  284MOL0     H39191   2.967   9.053   9.848  1.5922 -2.1030 -0.3513
  284MOL0     H39192   2.883   8.895   9.873 -1.0069  0.3951  1.6452
  285MOL0     O39193  11.164   8.376   8.382 -0.7121  0.1022  0.3970
  285MOL0     C39194  11.219   8.479   8.415  0.1406  0.8483 -0.7970
  285MOL0     O39195  11.296   8.484   8.522 -0.2211 -0.4863  0.1247
  285MOL0     C39196  11.342   8.362   8.575 -0.4000  1.3591  0.8795
  285MOL0     C39197  11.267   8.282   8.649 -0.5837  1.6671 -0.0738
  285MOL0     C39198  11.311   8.153   8.691 -0.0256 -0.5843 -0.8509
  285MOL0     C39199  11.443   8.107   8.661  1.0494 -1.5129  0.2182
  285MOL0     O39200  11.482   7.992   8.733 -0.3249  0.3483 -0.6458
  285MOL0     C39201  11.576   7.911   8.660  0.4493  1.1264 -0.6377
  285MOL0     C39202  11.548   7.773   8.723 -0.4345  1.4320  0.5396
  285MOL0     C39203  11.627   7.657   8.656  0.5065  0.3757 -1.0364
  285MOL0     C39204  11.598   7.522   8.724 -0.8443  0.4257  0.5667
  285MOL0     C39205  11.676   7.407   8.675 -0.2355  0.5078  0.5292
  285MOL0     C39206  11.648   7.282   8.773  0.0894  0.0921 -0.6990
  285MOL0     C39207  11.510   7.228   8.742 -0.0928 -0.4504 -0.2911
  285MOL0     C39208  11.482   7.107   8.809 -0.0534 -0.6448 -0.5129
  285MOL0     N39209  11.352   7.047   8.770 -0.8564  0.9936  1.0294
  285MOL0     C39210  11.310   6.999   8.644 -0.5082 -0.0088  0.6213
  285MOL0     C39211  11.180   6.963   8.667 -0.6176  0.2426  0.3903
  285MOL0     C39212  11.073   6.910   8.568  0.5943  0.1680 -0.0569
  285MOL0     C39213  10.989   7.000   8.480 -0.5079 -0.0124  0.1798
  285MOL0     C39214  11.066   7.046   8.349 -0.4169 -0.2242  0.4473
  285MOL0     C39215  10.993   7.153   8.256 -0.8688  0.9614  0.0172
  285MOL0     O39216  10.867   7.089   8.218 -0.0090  0.9054  0.1463
  285MOL0     C39217  10.857   7.081   8.081  0.7328  0.7992 -0.4433
  285MOL0     C39218  10.798   7.187   8.023 -0.6795 -0.6201  0.7266
  285MOL0     C39219  10.761   7.193   7.878 -0.5624  0.7226  0.8147
  285MOL0     C39220  10.675   7.299   7.817 -0.3369 -0.7131  0.2311
  285MOL0     C39221  10.795   7.080   7.804 -1.0165  0.1898  0.4962
  285MOL0     C39222  10.813   7.085   7.651 -0.0589 -0.8157 -0.6963
  285MOL0     O39223  10.720   7.176   7.594 -0.2741  0.2056  0.6247
  285MOL0     C39224  10.698   7.150   7.460  0.8776  1.0140 -0.9050
  285MOL0     C39225  10.608   7.060   7.405 -0.3946  0.7043 -0.1909
  285MOL0     C39226  10.599   7.033   7.271 -1.4990  0.2205  0.4187
  285MOL0     C39227  10.673   7.114   7.181  0.3276  0.1602 -0.8574
  285MOL0     O39228  10.646   7.090   7.055 -0.4207 -0.3746  0.2234
  285MOL0     C39229  10.527   7.155   6.999 -0.5567  0.3989  0.1536
  285MOL0     C39230  10.549   7.301   6.981 -0.0564 -0.1973 -0.0726
  285MOL0     C39231  10.661   7.338   6.884 -0.6478 -1.2041  0.1394
  285MOL0     C39232  10.639   7.479   6.828 -0.2797  0.1757 -0.8984
  285MOL0     C39233  10.772   7.547   6.799 -0.7450 -0.5238  0.3669
  285MOL0     C39234  10.755   7.611   6.656  0.5707  0.6332 -1.3074
  285MOL0     C39235  10.892   7.671   6.620  0.1828 -0.8528 -0.4999
  285MOL0     C39236  10.888   7.709   6.480  0.6486 -0.3906 -0.3343
  285MOL0    Cl39237  11.031   7.813   6.427  0.1761  0.3938 -0.1675
  285MOL0     C39238  10.762   7.214   7.233  0.3115 -0.0561 -0.3480
  285MOL0     C39239  10.773   7.235   7.375 -0.0151 -1.0210  0.2069
  285MOL0     O39240  10.906   7.036   7.592 -0.9871  0.7439  0.5408
  285MOL0     C39241  10.859   6.968   7.866  1.0131  0.9389  0.2890
  285MOL0     C39242  10.872   6.962   8.007  0.4099  0.1530  0.1888
  285MOL0     N39243  11.151   6.992   8.800  0.1617  0.2842 -0.2373
  285MOL0     N39244  11.253   7.029   8.859  0.1315 -0.4832  0.0343
  285MOL0     C39245  11.527   8.198   8.592 -0.0764 -0.3130  0.0194
  285MOL0     C39246  11.478   8.329   8.548  0.8807 -0.5226 -0.1535
  285MOL0     C39247  11.208   8.608   8.338  0.1193 -0.0988 -0.6341
  285MOL0     C39248  11.331   8.687   8.333  0.1187 -0.4898 -0.4975
  285MOL0     C39249  11.334   8.812   8.273  0.2663 -0.2786 -0.4914
  285MOL0     C39250  11.223   8.851   8.202 -0.3735  1.6509  0.5513
  285MOL0     O39251  11.236   8.965   8.124  0.4581 -0.1642 -0.2547
  285MOL0     C39252  11.131   9.018   8.052  0.2514 -0.2171 -0.2777
  285MOL0     C39253  11.172   9.159   8.002 -0.3270  0.3354  0.0137
  285MOL0     C39254  11.066   9.208   7.902 -0.8543 -0.4708  0.5592
  285MOL0     C39255  10.983   9.311   7.956 -0.2639 -0.0834  0.8570
  285MOL0     C39256  10.904   9.277   8.072 -0.4100 -1.0035 -0.5717
  285MOL0     C39257  10.833   9.250   8.167  0.0115  0.7117  0.4255
  285MOL0     C39258  11.103   8.772   8.201  0.5552  0.7694 -0.4331
  285MOL0     C39259  11.093   8.656   8.280  0.4152 -0.4066 -0.2409
  285MOL0     C39260  10.966   8.584   8.296 -0.1539  0.6558 -0.6486
  285MOL0     H39261  11.163   8.310   8.661 -1.2964 -0.3984 -1.0980
  285MOL0     H39262  11.247   8.081   8.742 -3.0254  1.6937 -1.0688
  285MOL0     H39263  11.679   7.943   8.679  2.5452 -3.4494 -2.7912
  285MOL0     H39264  11.548   7.909   8.555  1.0950  2.2893 -0.8428
  285MOL0     H39265  11.578   7.772   8.828  1.3725 -0.2306  0.0862
  285MOL0     H39266  11.444   7.739   8.722  0.2923 -1.0532 -1.0621
  285MOL0     H39267  11.591   7.651   8.553 -4.3962 -0.8472  0.4878
  285MOL0     H39268  11.731   7.692   8.659  0.0688  1.7049  1.3994
  285MOL0     H39269  11.637   7.529   8.826  1.8988  0.6668 -0.4260
  285MOL0     H39270  11.492   7.495   8.716 -1.4511  2.8455 -0.6163
  285MOL0     H39271  11.783   7.428   8.683 -0.1591 -0.2123  1.7005
  285MOL0     H39272  11.669   7.389   8.568 -0.3113  1.4360  0.3780
  285MOL0     H39273  11.729   7.213   8.746  1.8268  2.4994 -2.0162
  285MOL0     H39274  11.658   7.317   8.877  1.5911 -1.7492 -0.1647
  285MOL0     H39275  11.519   7.207   8.635  4.0016  1.0874 -0.4243
  285MOL0     H39276  11.435   7.301   8.775 -0.3419 -1.3423  1.1963
  285MOL0     H39277  11.563   7.035   8.802 -0.2607 -1.1966  1.9767
  285MOL0     H39278  11.471   7.122   8.916  0.8499 -2.7458 -0.0812
  285MOL0     H39279  11.349   6.996   8.543 -1.4656  2.1695  0.1263
  285MOL0     H39280  11.019   6.836   8.628  1.6150 -0.8784 -0.4025
  285MOL0     H39281  11.113   6.840   8.495  0.5957  0.0455  0.0617
  285MOL0     H39282  10.893   6.951   8.467 -0.8481  0.6047  0.3380
  285MOL0     H39283  10.976   7.091   8.539  3.9218  0.8072  0.2839
  285MOL0     H39284  11.165   7.075   8.386 -1.0148  0.7839  1.3262
  285MOL0     H39285  11.090   6.961   8.284  1.6441 -0.7717  1.8213
  285MOL0     H39286  10.974   7.243   8.315  1.6630 -0.2733  2.9852
  285MOL0     H39287  11.065   7.178   8.177  0.1345 -1.5285  0.0548
  285MOL0     H39288  10.786   7.275   8.085 -0.6072  0.3474 -0.6013
  285MOL0     H39289  10.721   7.348   7.731 -1.1287 -0.0146  0.1851
  285MOL0     H39290  10.656   7.375   7.894 -1.7397  0.0550 -0.8302
  285MOL0     H39291  10.576   7.263   7.787 -1.1467  0.1151  1.7607
  285MOL0     H39292  10.541   7.005   7.470 -0.0106 -0.3646 -0.6923
  285MOL0     H39293  10.527   6.957   7.244 -2.2545  0.5731  1.3510
  285MOL0     H39294  10.516   7.099   6.906 -0.4235 -1.8048  1.3872
  285MOL0     H39295  10.438   7.133   7.058 -0.6741 -0.5623 -0.3566
  285MOL0     H39296  10.460   7.341   6.930  0.4196  0.7560 -0.1805
  285MOL0     H39297  10.559   7.347   7.080  2.0198 -3.4125  1.3762
  285MOL0     H39298  10.675   7.277   6.794  3.2941  1.5938 -1.4482
  285MOL0     H39299  10.752   7.337   6.946 -0.6817  2.6120  0.4894
  285MOL0     H39300  10.596   7.548   6.901  0.1977 -1.2828  0.8313
  285MOL0     H39301  10.571   7.471   6.742 -1.6777 -0.0428  0.2020
  285MOL0     H39302  10.788   7.634   6.863  1.7575  0.7141 -1.7351
  285MOL0     H39303  10.862   7.488   6.819 -1.1604 -1.5987 -0.8059
  285MOL0     H39304  10.677   7.687   6.649  1.0826  1.5160  1.3618
  285MOL0     H39305  10.728   7.529   6.589  1.4102 -0.3829 -0.4625
  285MOL0     H39306  10.977   7.604   6.635 -2.0004 -3.6637  0.3896
  285MOL0     H39307  10.906   7.758   6.685  1.5618 -0.0684 -1.8024
  285MOL0     H39308  10.798   7.767   6.460  1.2691 -0.1983 -2.8430
  285MOL0     H39309  10.875   7.615   6.425 -3.9339 -1.5387  2.1406
  285MOL0     H39310  10.841   7.269   7.183 -0.5495  1.8018  0.2346
  285MOL0     H39311  10.860   7.291   7.407  0.0368  0.9436 -2.9167
  285MOL0     H39312  10.885   6.877   7.812 -0.5728  0.3835  0.4054
  285MOL0     H39313  10.910   6.878   8.066 -1.9114  0.8765  2.9531
  285MOL0     H39314  11.633   8.175   8.589  0.6377  2.6947 -0.5787
  285MOL0     H39315  11.552   8.392   8.501  2.6691 -0.7013  2.2336
  285MOL0     H39316  11.421   8.647   8.379  0.1671 -0.4228 -0.5335
  285MOL0     H39317  11.421   8.876   8.268  0.1150 -0.1435 -4.2938
  285MOL0     H39318  11.105   8.961   7.962 -0.4604  0.8101 -0.7365
  285MOL0     H39319  11.039   9.006   8.110  0.0766 -0.9777 -0.7001
  285MOL0     H39320  11.268   9.144   7.951  0.6905  1.7433  1.3699
  285MOL0     H39321  11.170   9.230   8.085  2.3401  1.4418 -0.7590
  285MOL0     H39322  11.120   9.258   7.821 -0.6860  1.0089  1.5539
  285MOL0     H39323  11.016   9.127   7.848  0.8362  0.0650 -2.0130
  285MOL0     H39324  10.914   9.339   7.876  4.5206 -1.5329 -4.4118
  285MOL0     H39325  11.040   9.398   7.989  0.5161 -1.2051  2.6290
  285MOL0     H39326  10.773   9.210   8.245 -2.1542  2.7139 -0.1054
  285MOL0     H39327  11.016   8.804   8.144 -0.0044  2.8239  1.4419
  285MOL0     H39328  10.918   8.621   8.388  1.3870  2.3621 -0.4738
  285MOL0     H39329  10.897   8.609   8.215 -1.4488 -3.1555 -0.9246
  285MOL0     H39330  10.961   8.475   8.295 -1.2056  0.6721  0.1862
  286MOL0     O39331   5.949   8.597   7.571 -0.3049  0.3778 -0.0637
  286MOL0     C39332   6.040   8.519   7.575 -0.0296 -0.0845 -0.1262
  286MOL0     O39333   6.092   8.467   7.698  0.3753 -0.3480  1.0668
  286MOL0     C39334   6.021   8.483   7.817  0.0870 -2.1952  0.2770
  286MOL0     C39335   6.017   8.377   7.910  0.0788  1.0451  0.2035
  286MOL0     C39336   5.936   8.386   8.023  0.3725  0.1227  0.2793
  286MOL0     C39337   5.870   8.508   8.058  0.8982  0.2133  0.4783
  286MOL0     O39338   5.798   8.519   8.177  0.7261  0.7798  0.4629
  286MOL0     C39339   5.868   8.475   8.297 -1.1270 -0.0360 -0.5213
  286MOL0     C39340   5.941   8.592   8.366 -0.0028  0.1438 -0.5022
  286MOL0     C39341   5.844   8.703   8.398  0.0471 -0.4094 -0.1120
  286MOL0     C39342   5.930   8.826   8.453 -0.0717  0.1288 -0.0545
  286MOL0     C39343   5.849   8.951   8.494  0.9192  0.7452  0.1975
  286MOL0     C39344   5.937   9.057   8.569 -0.3448  0.6746 -0.1506
  286MOL0     C39345   6.030   9.156   8.497 -0.2682  0.7752  0.1718
  286MOL0     C39346   6.055   9.265   8.609 -0.4892  0.5653  0.5712
  286MOL0     N39347   6.177   9.353   8.574  0.2609 -0.1145  0.1441
  286MOL0     C39348   6.265   9.340   8.464  1.0086 -0.4319  0.2456
  286MOL0     C39349   6.374   9.417   8.512 -0.0655  0.2969  0.2791
  286MOL0     C39350   6.508   9.460   8.455 -0.2208  0.0185 -0.6782
  286MOL0     C39351   6.531   9.612   8.451 -0.2524  0.8989 -0.7155
  286MOL0     C39352   6.666   9.647   8.381  0.0207 -0.2631 -0.1769
  286MOL0     C39353   6.788   9.603   8.462  0.2564 -0.4270 -0.4267
  286MOL0     O39354   6.781   9.653   8.598 -0.2031  0.3924 -0.1529
  286MOL0     C39355   6.810   9.785   8.630 -0.0384  0.3303 -0.1040
  286MOL0     C39356   6.802   9.829   8.764 -0.2387  1.0645  0.0880
  286MOL0     C39357   6.837   9.953   8.807 -0.4510 -0.2927  0.2950
  286MOL0     C39358   6.827  10.004   8.954 -0.9671  0.4499 -0.0371
  286MOL0     C39359   6.891  10.043   8.709 -0.8873 -1.0023 -0.5800
  286MOL0     C39360   6.955  10.181   8.754  1.0188  0.1001  0.2200
  286MOL0     O39361   6.925  10.264   8.861  0.5870  0.0851  0.4212
  286MOL0     C39362   6.990  10.387   8.881  0.3007 -0.2796 -0.6816
  286MOL0     C39363   7.040  10.402   9.015 -0.3682  0.5590 -0.1270
  286MOL0     C39364   7.119  10.512   9.048 -0.8164 -0.1559 -0.1946
  286MOL0     C39365   7.148  10.609   8.948 -0.2240 -0.6988 -0.0749
  286MOL0     O39366   7.224  10.714   8.970  0.2172  0.5210  1.0719
  286MOL0     C39367   7.252  10.743   9.105  0.4512 -0.4310  0.1222
  286MOL0     C39368   7.144  10.839   9.160  0.5472  0.6179  0.6370
  286MOL0     C39369   7.141  10.856   9.312  0.1927  0.7969 -0.2233
  286MOL0     C39370   7.282  10.895   9.377  0.5925 -0.0164 -0.1077
  286MOL0     C39371   7.349  11.029   9.313  0.1418  0.7525  0.0940
  286MOL0     C39372   7.439  11.086   9.416  0.3678 -0.4948  0.2666
  286MOL0     C39373   7.513  11.211   9.357  0.1352  0.5892  0.6604
  286MOL0     C39374   7.433  11.332   9.324  0.2950 -0.6366  0.3126
  286MOL0    Cl39375   7.367  11.404   9.478 -0.1661 -0.4939 -0.0109
  286MOL0     C39376   7.092  10.591   8.818 -0.1038  0.0903 -0.6011
  286MOL0     C39377   7.020  10.482   8.792  0.8117 -1.2020 -0.0943
  286MOL0     O39378   7.052  10.199   8.679 -0.3406  0.4282 -0.5323
  286MOL0     C39379   6.900  10.011   8.571  0.5997  0.4983  0.1701
  286MOL0     C39380   6.850   9.887   8.534  0.4176 -0.2243  0.5035
  286MOL0     N39381   6.343   9.463   8.632  0.6557 -0.6189 -1.5774
  286MOL0     N39382   6.238   9.417   8.666  0.1756 -0.7763 -0.7859
  286MOL0     C39383   5.889   8.616   7.970  0.0694  0.8439 -0.8421
  286MOL0     C39384   5.951   8.605   7.847 -1.0321  0.3488 -0.1226
  286MOL0     C39385   6.103   8.482   7.452 -0.1499 -0.0813 -0.8324
  286MOL0     C39386   6.213   8.404   7.468 -0.9222 -0.4850 -0.3906
  286MOL0     C39387   6.273   8.340   7.356 -0.0837  0.5253 -0.0968
  286MOL0     C39388   6.207   8.338   7.230  0.0797 -1.0944  0.6460
  286MOL0     O39389   6.266   8.270   7.118  0.3670 -0.4373  0.5410
  286MOL0     C39390   6.403   8.214   7.120  0.3908  0.1531  0.4140
  286MOL0     C39391   6.513   8.326   7.100  0.1613  0.2162  0.1370
  286MOL0     C39392   6.484   8.420   6.978 -0.4526  0.3448  0.1519
  286MOL0     C39393   6.601   8.500   6.933  0.1119  0.1501  0.0797
  286MOL0     C39394   6.599   8.628   7.013  0.8415  0.1340  0.0955
  286MOL0     C39395   6.592   8.733   7.077  0.5902 -0.3999 -0.1582
  286MOL0     C39396   6.094   8.422   7.216 -0.8395 -0.0442  0.0682
  286MOL0     C39397   6.040   8.495   7.329 -0.6283 -0.8041  0.4498
  286MOL0     C39398   5.920   8.586   7.294  0.3232  0.8777 -0.6787
  286MOL0     H39399   6.077   8.288   7.897 -1.0742 -0.3062  3.2326
  286MOL0     H39400   5.931   8.295   8.082 -4.8075 -1.5192 -2.1183
  286MOL0     H39401   5.929   8.385   8.280 -0.4097  0.3796 -0.2178
  286MOL0     H39402   5.783   8.448   8.360 -0.2794  1.4870  1.3849
  286MOL0     H39403   5.984   8.555   8.460  2.4787  0.8833 -1.2672
  286MOL0     H39404   6.020   8.636   8.305  2.3530  1.0007  2.8704
  286MOL0     H39405   5.799   8.729   8.302 -0.7000  0.8681  0.5626
  286MOL0     H39406   5.776   8.688   8.482 -1.3476  0.3749 -1.0600
  286MOL0     H39407   5.988   8.792   8.539 -1.4571  2.6368  2.0338
  286MOL0     H39408   6.007   8.862   8.384 -1.0962  1.8621 -0.3432
  286MOL0     H39409   5.762   8.926   8.556  0.2905  0.6132 -0.7215
  286MOL0     H39410   5.820   9.006   8.404  1.7337  1.5424  0.4039
  286MOL0     H39411   5.862   9.119   8.621 -2.3233 -1.7955  0.1194
  286MOL0     H39412   5.995   8.993   8.636  0.0843  0.0440 -1.1188
  286MOL0     H39413   5.979   9.210   8.416 -1.7420 -1.2375 -0.3250
  286MOL0     H39414   6.122   9.114   8.454  0.8470 -1.0134  3.8633
  286MOL0     H39415   5.973   9.336   8.609 -0.0658  1.0885 -0.7991
  286MOL0     H39416   6.073   9.217   8.706  6.8287 -1.2600 -1.0733
  286MOL0     H39417   6.246   9.301   8.365 -3.0461  0.4285  0.5317
  286MOL0     H39418   6.523   9.415   8.356  0.0636 -2.6349  0.4816
  286MOL0     H39419   6.588   9.418   8.515 -0.4716  1.6389  0.8778
  286MOL0     H39420   6.440   9.651   8.405 -0.3688  2.1238  0.4986
  286MOL0     H39421   6.527   9.646   8.555 -2.9780 -0.9456 -0.1273
  286MOL0     H39422   6.668   9.621   8.275  0.1590  0.8618 -0.4640
  286MOL0     H39423   6.663   9.756   8.371  0.6880 -0.3174 -1.0832
  286MOL0     H39424   6.782   9.493   8.469 -1.1045 -0.4735 -1.8492
  286MOL0     H39425   6.877   9.626   8.402 -1.6482  1.3174 -2.7517
  286MOL0     H39426   6.771   9.760   8.842  3.3605 -0.6697  0.1749
  286MOL0     H39427   6.753  10.084   8.951 -1.4222  0.0138 -1.7642
  286MOL0     H39428   6.926  10.026   8.995 -0.6479 -0.2108 -0.4320
  286MOL0     H39429   6.788   9.923   9.015 -0.0904 -1.6216 -2.0758
  286MOL0     H39430   7.033  10.321   9.086  2.0259  0.2028 -0.2080
  286MOL0     H39431   7.149  10.509   9.152  1.7995 -0.8249 -0.9150
  286MOL0     H39432   7.274  10.661   9.173 -0.4966  0.1758  1.1899
  286MOL0     H39433   7.346  10.800   9.102  1.9036 -2.6462  1.2973
  286MOL0     H39434   7.157  10.939   9.117  0.3905  0.0690 -0.7630
  286MOL0     H39435   7.051  10.791   9.128  0.0568  1.7728  0.2899
  286MOL0     H39436   7.103  10.761   9.351 -1.4341  1.6583  0.3536
  286MOL0     H39437   7.063  10.929   9.335  1.6218  2.3132 -0.0380
  286MOL0     H39438   7.352  10.811   9.381 -1.0284 -1.4422 -0.6944
  286MOL0     H39439   7.257  10.919   9.480 -4.9646 -0.7173 -1.0074
  286MOL0     H39440   7.402  11.010   9.219 -0.3392 -1.4677  0.2305
  286MOL0     H39441   7.269  11.101   9.298 -0.0648  1.4138  3.5450
  286MOL0     H39442   7.513  11.011   9.444  2.5554  0.1249 -3.2881
  286MOL0     H39443   7.385  11.126   9.503 -1.6501 -0.5357 -0.8998
  286MOL0     H39444   7.568  11.186   9.266  1.1231  1.1757  1.0749
  286MOL0     H39445   7.593  11.238   9.427  1.2632  0.6336 -0.5939
  286MOL0     H39446   7.353  11.327   9.250  0.0962  5.2434 -0.3345
  286MOL0     H39447   7.502  11.400   9.274 -1.1769  1.9911  1.6846
  286MOL0     H39448   7.115  10.665   8.741 -1.1846  0.1299 -0.9048
  286MOL0     H39449   6.982  10.483   8.690  1.4740  2.1326 -0.4428
  286MOL0     H39450   6.931  10.082   8.494  1.1850 -1.3404 -1.3839
  286MOL0     H39451   6.836   9.856   8.430 -1.3177 -2.0934  1.2265
  286MOL0     H39452   5.834   8.705   7.997 -1.4701 -0.7964  1.8022
  286MOL0     H39453   5.961   8.686   7.776  1.7739  1.9076  1.8320
  286MOL0     H39454   6.268   8.394   7.561  1.0319 -1.0402 -1.5321
  286MOL0     H39455   6.355   8.275   7.382 -3.2378 -2.0263  5.2184
  286MOL0     H39456   6.403   8.147   7.206 -3.6174  3.0185  2.9901
  286MOL0     H39457   6.409   8.152   7.030 -0.0598  0.2373  0.3201
  286MOL0     H39458   6.605   8.270   7.081 -0.5875 -0.8166 -0.5276
  286MOL0     H39459   6.538   8.387   7.188  2.3042 -1.0671  0.5020
  286MOL0     H39460   6.466   8.352   6.894  2.2664  0.5306 -0.6755
  286MOL0     H39461   6.393   8.473   7.008 -0.5690  0.4751 -0.4193
  286MOL0     H39462   6.565   8.532   6.834 -0.5381  0.3623  0.3806
  286MOL0     H39463   6.703   8.462   6.928  0.1220 -0.0527  1.4823
  286MOL0     H39464   6.602   8.828   7.126  0.2514  0.3268 -1.4435
  286MOL0     H39465   6.043   8.432   7.120  2.1406 -1.5087 -1.8289
  286MOL0     H39466   5.907   8.605   7.187 -2.4718 -2.6568 -1.1638
  286MOL0     H39467   5.824   8.565   7.341  1.7922  2.1799  3.2705
  286MOL0     H39468   5.946   8.688   7.321  1.7376  0.5783 -0.8036
  287MOL0     O39469   7.248   6.140   9.891  0.7545  0.5442  0.3917
  287MOL0     C39470   7.336   6.209   9.938  0.4844  0.4240  0.2172
  287MOL0     O39471   7.354   6.243  10.068  0.1019  0.4152 -0.1961
  287MOL0     C39472   7.256   6.240  10.158  1.2584  0.1085 -0.6307
  287MOL0     C39473   7.166   6.140  10.183  0.2976 -0.8369  0.6398
  287MOL0     C39474   7.054   6.160  10.268  0.1537  0.1074  0.3724
  287MOL0     C39475   7.047   6.268  10.348  0.4074  0.3675  0.2953
  287MOL0     O39476   6.954   6.278  10.450 -0.4809 -0.8394 -0.3254
  287MOL0     C39477   6.962   6.397  10.533 -0.4489  0.2534 -0.1112
  287MOL0     C39478   6.833   6.394  10.614  0.1912 -0.5772  0.0737
  287MOL0     C39479   6.708   6.433  10.523 -0.0275  0.4546 -0.4759
  287MOL0     C39480   6.587   6.467  10.613  0.8496 -0.6821 -0.6572
  287MOL0     C39481   6.585   6.616  10.663 -0.0685  0.7163 -0.4330
  287MOL0     C39482   6.459   6.637  10.750 -0.1074  0.0099 -0.3362
  287MOL0     C39483   6.459   6.772  10.812 -0.0610  0.1687 -0.1258
  287MOL0     C39484   6.319   6.806  10.846  0.2979 -0.2971  0.4760
  287MOL0     N39485   6.266   6.736  10.963 -0.5797 -0.6002  0.6404
  287MOL0     C39486   6.302   6.762  11.091  0.6377  0.4084 -0.0296
  287MOL0     C39487   6.223   6.687  11.173  0.9475  0.3352 -0.9608
  287MOL0     C39488   6.199   6.700  11.320  0.6439 -0.7224  0.7511
  287MOL0     C39489   6.142   6.835  11.355 -0.9578  0.4362 -0.0960
  287MOL0     C39490   6.260   6.939  11.384 -0.1690  0.1469 -0.6771
  287MOL0     C39491   6.208   7.069  11.449 -0.2071  0.3441  0.5706
  287MOL0     O39492   6.073   7.096  11.414  0.6703  0.4186 -0.0798
  287MOL0     C39493   5.992   7.195  11.470  0.4266  0.8078 -0.1097
  287MOL0     C39494   6.049   7.303  11.529 -0.5580 -0.5626  0.5962
  287MOL0     C39495   5.975   7.410  11.582 -0.1808  0.6377 -0.0493
  287MOL0     C39496   6.044   7.519  11.651  0.5230  0.1045  0.8313
  287MOL0     C39497   5.837   7.394  11.574  0.3308 -0.8930 -1.1564
  287MOL0     C39498   5.742   7.474  11.659 -0.0761 -0.9226  0.8479
  287MOL0     O39499   5.613   7.464  11.624  0.4798  0.6549 -0.0523
  287MOL0     C39500   5.520   7.543  11.695 -0.2833 -0.4203 -0.2118
  287MOL0     C39501   5.480   7.657  11.638 -1.2470 -1.3637  0.3604
  287MOL0     C39502   5.399   7.754  11.699 -0.8890  0.5642 -0.9702
  287MOL0     C39503   5.355   7.722  11.839 -0.0612 -0.1738  0.0099
  287MOL0     O39504   5.266   7.821  11.892 -0.3020 -0.0527  0.0017
  287MOL0     C39505   5.218   7.797  12.022 -0.7366  0.4620  0.6804
  287MOL0     C39506   5.135   7.917  12.057 -0.0857 -0.0908  0.0517
  287MOL0     C39507   4.980   7.898  12.064 -0.3200 -0.4476 -0.0782
  287MOL0     C39508   4.908   8.033  12.108 -0.0275  0.3835 -0.0854
  287MOL0     C39509   4.756   8.058  12.074  0.9400  0.1672  0.6063
  287MOL0     C39510   4.676   7.952  12.144 -0.4608 -0.8172 -0.8977
  287MOL0     C39511   4.528   7.961  12.098  0.5150  0.7011 -0.2478
  287MOL0     C39512   4.453   7.871  12.187  0.5477 -0.2211 -0.9382
  287MOL0    Cl39513   4.517   7.711  12.184  0.1947 -0.4421 -0.0221
  287MOL0     C39514   5.393   7.604  11.897 -0.2515 -0.0515  0.7433
  287MOL0     C39515   5.477   7.516  11.825  0.3262  0.3979 -0.1568
  287MOL0     O39516   5.778   7.534  11.761  0.5584  0.8627 -0.0541
  287MOL0     C39517   5.782   7.291  11.496  1.2325 -0.7336  0.7867
  287MOL0     C39518   5.856   7.190  11.446  1.2471 -0.9168  0.6544
  287MOL0     N39519   6.145   6.613  11.094  0.0350 -0.1521 -0.4106
  287MOL0     N39520   6.172   6.641  10.969  0.2017 -0.2484 -0.0700
  287MOL0     C39521   7.153   6.360  10.333 -0.4953 -0.3472  1.6105
  287MOL0     C39522   7.256   6.349  10.239  0.0660 -0.1414 -0.1773
  287MOL0     C39523   7.453   6.237   9.847  0.3516  0.5836 -0.3217
  287MOL0     C39524   7.577   6.267   9.913 -0.1421  0.8978  0.4471
  287MOL0     C39525   7.702   6.286   9.842 -0.1704  0.3906 -0.1982
  287MOL0     C39526   7.703   6.278   9.692  0.0550 -0.1005  0.1505
  287MOL0     O39527   7.807   6.292   9.609  0.0139  0.1964  0.3995
  287MOL0     C39528   7.931   6.281   9.678 -0.1000 -0.2409  1.2452
  287MOL0     C39529   7.994   6.152   9.749 -0.1161 -0.0583  0.1880
  287MOL0     C39530   7.979   6.022   9.677 -0.1446 -0.2813  0.2937
  287MOL0     C39531   8.083   5.994   9.556  0.2439 -0.5891 -0.0009
  287MOL0     C39532   8.225   5.998   9.597  1.0103  0.1502  0.4511
  287MOL0     C39533   8.342   5.982   9.633  0.2341  0.2267 -0.3923
  287MOL0     C39534   7.579   6.262   9.640 -0.5276  0.2712  0.2588
  287MOL0     C39535   7.460   6.223   9.709  0.2646  0.6428  0.7740
  287MOL0     C39536   7.341   6.197   9.619 -0.4874 -0.1636  0.2590
  287MOL0     H39537   7.183   6.057  10.116  2.3778  0.6352 -0.8028
  287MOL0     H39538   6.983   6.084  10.299  0.1905  0.0738  0.3743
  287MOL0     H39539   6.972   6.488  10.474  0.9348 -0.9857 -1.8924
  287MOL0     H39540   7.046   6.389  10.603 -0.7008  2.5141  0.5263
  287MOL0     H39541   6.828   6.301  10.670  2.8281 -0.2446  0.9962
  287MOL0     H39542   6.847   6.477  10.683 -0.7234  0.1995 -0.6330
  287MOL0     H39543   6.737   6.502  10.443 -0.3357  1.2181  0.0517
  287MOL0     H39544   6.674   6.341  10.475 -1.5010  1.2794 -1.0773
  287MOL0     H39545   6.487   6.458  10.569  0.5968  0.5395 -0.3865
  287MOL0     H39546   6.596   6.402  10.700  0.0894  0.3258  0.2083
  287MOL0     H39547   6.572   6.685  10.580  1.1407  1.5132  0.0189
  287MOL0     H39548   6.674   6.638  10.723  1.7891 -0.7957 -2.4620
  287MOL0     H39549   6.370   6.635  10.686 -0.0168 -3.1927 -0.5032
  287MOL0     H39550   6.442   6.564  10.830  2.4679 -1.2017 -0.8052
  287MOL0     H39551   6.508   6.849  10.752  1.1949 -0.2955  0.2772
  287MOL0     H39552   6.513   6.770  10.906 -2.2396  0.1925  1.1911
  287MOL0     H39553   6.312   6.912  10.872 -3.2575  0.3464 -2.3836
  287MOL0     H39554   6.242   6.792  10.770 -0.8411  1.9953  1.1109
  287MOL0     H39555   6.387   6.827  11.108  1.9109 -0.2643 -3.1805
  287MOL0     H39556   6.300   6.675  11.356  1.9974  0.0591 -2.1308
  287MOL0     H39557   6.122   6.626  11.344  1.2689 -1.3699  0.8051
  287MOL0     H39558   6.080   6.866  11.271 -3.8017  0.2782  1.7923
  287MOL0     H39559   6.083   6.828  11.447 -0.1875  1.1939  0.4811
  287MOL0     H39560   6.339   6.901  11.450 -2.7402 -3.5360  0.5943
  287MOL0     H39561   6.300   6.972  11.288  0.2769  1.9457  0.0946
  287MOL0     H39562   6.220   7.055  11.557 -1.0394 -1.4608  0.4658
  287MOL0     H39563   6.262   7.159  11.418 -1.3512 -0.3083 -3.9782
  287MOL0     H39564   6.157   7.313  11.532 -0.4825  0.4043 -2.3756
  287MOL0     H39565   5.990   7.613  11.667 -0.7335  0.0937 -2.5672
  287MOL0     H39566   6.135   7.531  11.592  0.0431 -1.9415 -0.4492
  287MOL0     H39567   6.069   7.493  11.755 -0.8712  1.4203  1.5265
  287MOL0     H39568   5.516   7.682  11.539 -0.7739  1.7552  1.2082
  287MOL0     H39569   5.381   7.848  11.648  0.2336  0.7698 -1.0101
  287MOL0     H39570   5.163   7.703  12.017  1.9460 -1.1720 -1.9119
  287MOL0     H39571   5.303   7.772  12.087  2.8055  0.5892 -3.4380
  287MOL0     H39572   5.175   7.952  12.153 -1.8855 -1.6337  1.4293
  287MOL0     H39573   5.148   8.000  11.986 -1.4788  3.2716  3.3993
  287MOL0     H39574   4.958   7.823  12.140 -1.1179  0.3219  0.4867
  287MOL0     H39575   4.945   7.863  11.967  0.2072 -0.2036 -0.3613
  287MOL0     H39576   4.965   8.118  12.070  0.8044  0.2666  0.8446
  287MOL0     H39577   4.928   8.043  12.215  0.4794  2.5022 -0.3361
  287MOL0     H39578   4.729   8.160  12.102  0.3221  0.0927  0.2840
  287MOL0     H39579   4.740   8.066  11.966 -2.2877  0.0916  0.9920
  287MOL0     H39580   4.685   7.980  12.249  1.0067  1.5778 -1.5726
  287MOL0     H39581   4.724   7.854  12.136  1.9773  0.2761 -0.5744
  287MOL0     H39582   4.527   7.918  11.997  0.9821 -1.0204  0.4482
  287MOL0     H39583   4.488   8.062  12.111  2.5763  1.4832  0.5662
  287MOL0     H39584   4.351   7.885  12.149 -0.0063  0.2510  0.6397
  287MOL0     H39585   4.456   7.902  12.292  0.5953 -1.8605 -0.4386
  287MOL0     H39586   5.354   7.569  11.993 -0.2698  0.8329  1.0682
  287MOL0     H39587   5.502   7.422  11.875 -2.4960 -0.5139 -0.2758
  287MOL0     H39588   5.674   7.285  11.482  1.6227 -0.8667 -3.8962
  287MOL0     H39589   5.812   7.109  11.388  1.5018  0.1707 -1.1384
  287MOL0     H39590   7.162   6.456  10.381 -1.8861  0.8183 -0.3102
  287MOL0     H39591   7.328   6.426  10.211 -2.1270  1.6957 -1.0413
  287MOL0     H39592   7.581   6.266  10.021  2.2701  3.3381  0.5009
  287MOL0     H39593   7.789   6.308   9.903 -0.3599  0.7092 -0.0378
  287MOL0     H39594   8.005   6.301   9.600  1.5171  2.3234  3.2451
  287MOL0     H39595   7.937   6.367   9.745 -1.1940  1.1054 -0.3183
  287MOL0     H39596   7.948   6.140   9.847 -1.9069 -3.1075 -0.8618
  287MOL0     H39597   8.100   6.173   9.765  0.1723 -0.4931 -0.9948
  287MOL0     H39598   7.980   5.946   9.755 -1.9933  1.5766  2.2758
  287MOL0     H39599   7.877   6.016   9.639 -0.4833 -1.3115  1.3108
  287MOL0     H39600   8.065   6.059   9.471 -0.0576  0.5813  0.9327
  287MOL0     H39601   8.067   5.891   9.521  2.0433 -0.9065  0.0239
  287MOL0     H39602   8.443   5.958   9.660  0.5999  1.7204 -0.3863
  287MOL0     H39603   7.588   6.246   9.533 -2.5662  0.5372 -0.0019
  287MOL0     H39604   7.365   6.114   9.552 -0.2267  0.4585 -0.4315
  287MOL0     H39605   7.244   6.195   9.669 -0.4113 -0.7554  0.3946
  287MOL0     H39606   7.339   6.287   9.557 -2.1174 -0.3344  0.0240
  288MOL0     O39607   4.698  10.331   1.487 -0.1835  0.9513 -0.2048
  288MOL0     C39608   4.672  10.447   1.451 -0.4853 -0.0263  0.3329
  288MOL0     O39609   4.752  10.558   1.482 -0.4407  0.1943  0.0319
  288MOL0     C39610   4.867  10.525   1.542  0.0069 -0.0990 -0.2370
  288MOL0     C39611   4.896  10.584   1.664  0.4328  1.1575 -0.5094
  288MOL0     C39612   5.012  10.566   1.731 -0.3615 -0.1338  0.1504
  288MOL0     C39613   5.100  10.469   1.688 -0.0983 -1.0717 -0.4491
  288MOL0     O39614   5.224  10.455   1.745 -0.2357  0.1948 -0.8051
  288MOL0     C39615   5.306  10.577   1.767 -0.0997 -0.0404  0.1201
  288MOL0     C39616   5.457  10.546   1.785  0.4113 -0.0049  0.6186
  288MOL0     C39617   5.519  10.529   1.639  0.0115  0.0920 -0.9684
  288MOL0     C39618   5.470  10.402   1.554 -0.4449  0.0594  1.4283
  288MOL0     C39619   5.530  10.380   1.417 -0.2112  0.0242 -1.1567
  288MOL0     C39620   5.477  10.269   1.333 -0.3455  1.2631 -0.3068
  288MOL0     C39621   5.544  10.235   1.201 -0.7007  0.5156 -1.0200
  288MOL0     C39622   5.541  10.353   1.101 -0.6702 -0.1109  0.4283
  288MOL0     N39623   5.637  10.334   0.993 -0.0860 -0.4640 -0.2000
  288MOL0     C39624   5.608  10.269   0.869 -0.2534 -0.6920 -0.4352
  288MOL0     C39625   5.726  10.284   0.800  0.2050 -0.3946 -0.7655
  288MOL0     C39626   5.758  10.201   0.667  0.8544 -1.0562 -0.0696
  288MOL0     C39627   5.707  10.284   0.539  0.2910 -0.0923 -0.1248
  288MOL0     C39628   5.717  10.192   0.413 -0.2605 -0.7608 -0.3436
  288MOL0     C39629   5.848  10.142   0.380  0.2008  0.3672 -0.3805
  288MOL0     O39630   5.844  10.090   0.245  0.8959 -0.1476 -0.9299
  288MOL0     C39631   5.880   9.962   0.226  0.4329 -0.3203 -0.8347
  288MOL0     C39632   5.866   9.860   0.319 -1.2548  0.4527 -0.2808
  288MOL0     C39633   5.918   9.732   0.290  0.0882 -0.2172 -0.4358
  288MOL0     C39634   5.869   9.621   0.385 -0.4044 -0.4504  0.7498
  288MOL0     C39635   5.984   9.697   0.168  1.0193  0.6557  0.8978
  288MOL0     C39636   6.049   9.570   0.127  0.8105  0.5624  0.0000
  288MOL0     O39637   6.054   9.536  -0.009  0.0597 -0.4676 -0.0498
  288MOL0     C39638   6.141   9.449  -0.061 -0.1174  0.3346  0.5384
  288MOL0     C39639   6.261   9.492  -0.122 -0.6732  0.2611 -0.7902
  288MOL0     C39640   6.345   9.397  -0.183  0.1668  0.4026  0.7208
  288MOL0     C39641   6.316   9.264  -0.177  1.1147  0.4743 -0.2393
  288MOL0     O39642   6.400   9.179  -0.232 -0.0643  0.0425  0.2222
  288MOL0     C39643   6.493   9.116  -0.136  0.7030  0.3919  0.8553
  288MOL0     C39644   6.630   9.144  -0.178 -0.1148 -0.2789  0.3798
  288MOL0     C39645   6.659   9.055  -0.304  0.5134 -0.0892 -0.2056
  288MOL0     C39646   6.805   9.058  -0.341 -0.0000 -0.1488 -0.8062
  288MOL0     C39647   6.842   8.961  -0.441 -0.6062  0.5172  0.0654
  288MOL0     C39648   6.989   8.950  -0.468 -0.2175  0.2630  0.2134
  288MOL0     C39649   7.062   8.871  -0.354 -0.1255 -0.0378 -1.8579
  288MOL0     C39650   7.170   8.783  -0.422  0.8485  0.9239 -0.3983
  288MOL0    Cl39651   7.294   8.877  -0.505  0.2832 -0.9497 -0.2709
  288MOL0     C39652   6.202   9.216  -0.107 -0.2660  0.1680 -0.3443
  288MOL0     C39653   6.111   9.308  -0.053 -0.6471  0.4445  0.5732
  288MOL0     O39654   6.098   9.501   0.224 -0.2421  0.0625  0.1968
  288MOL0     C39655   6.006   9.809   0.078  0.1827  0.0938  0.0401
  288MOL0     C39656   5.954   9.933   0.113  0.3236 -0.3985 -0.0761
  288MOL0     N39657   5.813  10.370   0.860 -0.0658  0.3764 -0.2153
  288MOL0     N39658   5.761  10.388   0.973 -0.2806  0.2441 -0.2395
  288MOL0     C39659   5.084  10.410   1.561  0.6130  0.1140  0.4690
  288MOL0     C39660   4.969  10.442   1.484  0.1984  0.6942  0.0634
  288MOL0     C39661   4.540  10.481   1.390  0.6854  0.7638 -1.3351
  288MOL0     C39662   4.476  10.603   1.421  0.0330  0.0538  0.4915
  288MOL0     C39663   4.349  10.626   1.374  0.2519  0.8329  0.4455
  288MOL0     C39664   4.288  10.534   1.297 -0.7007  0.2430 -0.3006
  288MOL0     O39665   4.164  10.544   1.239 -0.5217 -0.5568 -0.5967
  288MOL0     C39666   4.057  10.491   1.311  0.4053 -0.6128  0.7072
  288MOL0     C39667   3.960  10.422   1.205 -0.1831  0.2919  0.2729
  288MOL0     C39668   3.889  10.521   1.118  0.0880 -0.3518 -0.5662
  288MOL0     C39669   3.749  10.478   1.074  0.4959  0.4753  0.7890
  288MOL0     C39670   3.740  10.346   1.002 -0.4596 -0.6842 -0.6121
  288MOL0     C39671   3.723  10.244   0.946 -0.1341  0.0424  0.2617
  288MOL0     C39672   4.348  10.414   1.273 -0.4930  0.3484  0.4199
  288MOL0     C39673   4.479  10.383   1.310 -0.0155  0.3091 -1.2053
  288MOL0     C39674   4.546  10.249   1.257 -0.1155  1.2907 -0.2111
  288MOL0     H39675   4.815  10.644   1.705  2.8355  3.5866  0.9955
  288MOL0     H39676   5.028  10.625   1.822 -1.9612  0.5779 -0.0029
  288MOL0     H39677   5.280  10.627   1.860  0.5470  2.9876 -1.1984
  288MOL0     H39678   5.284  10.631   1.674 -3.9252 -0.4864  0.6177
  288MOL0     H39679   5.512  10.618   1.846  0.7645 -0.2137  0.5511
  288MOL0     H39680   5.462  10.444   1.825 -2.5227 -0.5246 -0.1187
  288MOL0     H39681   5.515  10.628   1.593 -3.8742  0.0267 -1.0793
  288MOL0     H39682   5.625  10.511   1.659  0.7337 -0.8272 -4.8556
  288MOL0     H39683   5.477  10.312   1.615  0.4292  0.0789  1.3606
  288MOL0     H39684   5.361  10.402   1.541 -0.4706  0.9473  1.5864
  288MOL0     H39685   5.634  10.353   1.438 -1.3717 -4.8257 -0.4109
  288MOL0     H39686   5.528  10.472   1.358  0.2963 -0.2919 -1.6743
  288MOL0     H39687   5.503  10.178   1.388  2.5335 -0.4864 -4.1552
  288MOL0     H39688   5.369  10.277   1.316 -0.9172  1.7764  2.9041
  288MOL0     H39689   5.504  10.143   1.157  1.8754 -0.3112 -1.8303
  288MOL0     H39690   5.649  10.237   1.229 -1.0322  1.9319  0.2796
  288MOL0     H39691   5.439  10.361   1.061 -1.0581  2.0496  1.6686
  288MOL0     H39692   5.561  10.452   1.144  4.9765 -0.8033  0.0217
  288MOL0     H39693   5.526  10.203   0.843 -2.2732  1.2380  0.7431
  288MOL0     H39694   5.687  10.118   0.672 -0.7858  0.1717 -1.7021
  288MOL0     H39695   5.861  10.164   0.663  1.8573  1.6319 -1.0894
  288MOL0     H39696   5.603  10.312   0.556  0.3234 -0.5882  0.9257
  288MOL0     H39697   5.769  10.373   0.524  0.8047  0.0613  2.4475
  288MOL0     H39698   5.647  10.109   0.427  0.6206 -1.6063 -0.8646
  288MOL0     H39699   5.677  10.248   0.328 -1.3438 -0.8876  0.0596
  288MOL0     H39700   5.918  10.227   0.373 -1.0466  1.6966  2.0496
  288MOL0     H39701   5.883  10.076   0.459 -4.1583  1.5531  2.9363
  288MOL0     H39702   5.813   9.894   0.408 -1.3614  4.7734 -1.7335
  288MOL0     H39703   5.932   9.532   0.378 -0.6030 -0.4642 -2.2178
  288MOL0     H39704   5.767   9.588   0.364 -0.4069  0.4087 -0.7873
  288MOL0     H39705   5.874   9.635   0.493  0.7582 -0.3551  0.6992
  288MOL0     H39706   6.282   9.598  -0.110 -1.0794  0.3753 -1.0633
  288MOL0     H39707   6.435   9.420  -0.239 -0.9853  2.7257 -0.3209
  288MOL0     H39708   6.486   9.159  -0.036  1.6933  2.3066  0.1570
  288MOL0     H39709   6.492   9.007  -0.134 -2.1455  0.3063 -0.6161
  288MOL0     H39710   6.651   9.249  -0.199  1.0509 -0.6499 -0.3994
  288MOL0     H39711   6.688   9.118  -0.089 -1.2546 -0.7801  0.9978
  288MOL0     H39712   6.593   9.095  -0.383 -0.5710 -2.0824 -0.3654
  288MOL0     H39713   6.634   8.949  -0.299 -0.7702 -0.0131 -3.0222
  288MOL0     H39714   6.872   9.038  -0.256  1.9419  0.0311 -2.2086
  288MOL0     H39715   6.830   9.161  -0.369 -2.9327  0.6966 -0.6050
  288MOL0     H39716   6.802   8.864  -0.408 -0.7709  0.9802  1.2852
  288MOL0     H39717   6.781   9.007  -0.519  0.9306  1.9603 -0.3393
  288MOL0     H39718   7.033   9.050  -0.474 -2.0416  1.1128  0.4402
  288MOL0     H39719   6.992   8.894  -0.561 -0.4910  0.8916 -0.1835
  288MOL0     H39720   6.987   8.813  -0.299 -3.5833  2.7463 -3.2326
  288MOL0     H39721   7.111   8.945  -0.290  0.3274  0.5944 -2.9125
  288MOL0     H39722   7.118   8.713  -0.488 -1.5716  1.8338  0.4142
  288MOL0     H39723   7.216   8.729  -0.338 -0.3529 -1.5746 -1.2292
  288MOL0     H39724   6.183   9.110  -0.117 -1.6276  0.5276 -1.8834
  288MOL0     H39725   6.019   9.270  -0.010 -1.3452  0.3788 -0.9135
  288MOL0     H39726   6.038   9.794  -0.024  0.4257  0.8151  0.0055
  288MOL0     H39727   5.979  10.010   0.041  1.9547 -1.2698 -0.4806
  288MOL0     H39728   5.166  10.348   1.526 -0.5495 -0.9794 -0.3879
  288MOL0     H39729   4.945  10.398   1.388 -0.6041  0.7913  0.2098
  288MOL0     H39730   4.527  10.675   1.485 -0.2426 -0.3647  1.1956
  288MOL0     H39731   4.301  10.722   1.390 -0.4015  0.6480 -0.3490
  288MOL0     H39732   4.096  10.422   1.386  2.5461 -0.0083  0.2058
  288MOL0     H39733   3.999  10.565   1.368  1.9595  0.5715  0.8194
  288MOL0     H39734   3.878  10.372   1.256 -0.2627 -0.5969 -0.6797
  288MOL0     H39735   3.998  10.341   1.142 -4.7292 -1.3685 -0.7239
  288MOL0     H39736   3.884  10.612   1.178  4.1036 -1.4363  1.8156
  288MOL0     H39737   3.954  10.548   1.034  3.0415  3.0575  2.4565
  288MOL0     H39738   3.716  10.558   1.007  1.4899  0.3975  0.1845
  288MOL0     H39739   3.671  10.472   1.151  1.1167  0.8476  1.4504
  288MOL0     H39740   3.714  10.159   0.881  0.0363 -0.4591  0.8850
  288MOL0     H39741   4.290  10.348   1.210 -2.9282 -0.3771  3.1872
  288MOL0     H39742   4.650  10.276   1.236  2.0261 -3.1823  3.0442
  288MOL0     H39743   4.554  10.174   1.336 -3.3172  0.9769 -0.0621
  288MOL0     H39744   4.500  10.205   1.169  2.1007 -5.8608  1.5726
  289MOL0     O39745   8.702   6.543   4.043  0.0380 -0.2735 -0.2777
  289MOL0     C39746   8.805   6.479   4.066 -0.9724  0.0429  0.6596
  289MOL0     O39747   8.903   6.512   4.158  0.2716  0.4274 -0.0464
  289MOL0     C39748   8.898   6.643   4.206  0.2478 -0.0620 -0.2954
  289MOL0     C39749   8.909   6.760   4.126  0.2344  0.3594  0.2395
  289MOL0     C39750   8.882   6.887   4.180  0.7381 -0.4594 -0.0097
  289MOL0     C39751   8.869   6.902   4.325 -0.3472 -0.0521  0.6261
  289MOL0     O39752   8.862   7.026   4.377  0.1240 -0.0834  1.1867
  289MOL0     C39753   8.921   7.069   4.495 -0.2148  0.9035 -0.5108
  289MOL0     C39754   8.812   7.152   4.573 -0.3108 -0.5262  0.5406
  289MOL0     C39755   8.752   7.269   4.493 -0.5263 -0.2207  0.4251
  289MOL0     C39756   8.652   7.351   4.568 -0.6888  0.4681  0.5500
  289MOL0     C39757   8.644   7.480   4.496  0.4040 -1.3705 -0.3214
  289MOL0     C39758   8.515   7.553   4.544 -0.4157 -0.4835 -0.2829
  289MOL0     C39759   8.483   7.670   4.454  0.0092  0.2969  0.1118
  289MOL0     C39760   8.401   7.618   4.327 -0.5768 -0.5036 -0.1312
  289MOL0     N39761   8.254   7.625   4.325  0.0172 -0.4273 -0.0658
  289MOL0     C39762   8.179   7.741   4.338  0.6379  1.0905 -0.8934
  289MOL0     C39763   8.049   7.703   4.336  0.3173 -0.1218  0.6924
  289MOL0     C39764   7.921   7.795   4.339 -0.6924  0.5544  0.0001
  289MOL0     C39765   7.927   7.901   4.456  0.3408  0.5285  0.7886
  289MOL0     C39766   7.806   7.984   4.509 -0.1103 -0.6745 -0.2499
  289MOL0     C39767   7.682   7.905   4.547  0.5493 -0.1076  0.2573
  289MOL0     O39768   7.624   7.855   4.422 -0.3472  0.4664 -0.4676
  289MOL0     C39769   7.546   7.937   4.343 -0.1293  0.4016  0.0043
  289MOL0     C39770   7.505   8.059   4.382 -0.6920  0.3128  0.6128
  289MOL0     C39771   7.408   8.140   4.308 -0.4290  0.4104 -0.4792
  289MOL0     C39772   7.363   8.262   4.380  0.9870 -0.2686  1.0113
  289MOL0     C39773   7.359   8.092   4.186 -0.0338 -0.0600 -0.0798
  289MOL0     C39774   7.273   8.177   4.098 -0.8434  0.7069 -0.7094
  289MOL0     O39775   7.222   8.094   4.009 -0.4276 -0.0549  0.1438
  289MOL0     C39776   7.113   8.124   3.926  0.5330 -0.9113  0.0280
  289MOL0     C39777   7.017   8.218   3.965  0.6307 -0.9401  0.2095
  289MOL0     C39778   6.916   8.253   3.875  0.6909 -0.6640  0.3848
  289MOL0     C39779   6.903   8.196   3.746  0.0055  0.6259  1.3561
  289MOL0     O39780   6.785   8.228   3.664  0.9141 -0.0690  0.2932
  289MOL0     C39781   6.717   8.106   3.607 -0.5231 -0.8103 -0.5697
  289MOL0     C39782   6.676   8.137   3.466  0.2395 -0.2188  0.1517
  289MOL0     C39783   6.611   8.020   3.396 -0.5715  0.1809 -0.3469
  289MOL0     C39784   6.672   7.985   3.251  0.2251  0.1851 -0.8164
  289MOL0     C39785   6.621   7.839   3.236 -0.0668  0.5115 -0.1967
  289MOL0     C39786   6.632   7.791   3.089 -1.2336 -0.0341 -0.7630
  289MOL0     C39787   6.736   7.859   2.992  0.3914  0.6268 -0.3248
  289MOL0     C39788   6.861   7.769   2.994 -0.5745  0.0179 -0.5497
  289MOL0    Cl39789   6.830   7.605   2.935  0.1281  0.3638 -0.0445
  289MOL0     C39790   6.995   8.100   3.707  0.2312  0.1988 -0.5729
  289MOL0     C39791   7.099   8.065   3.801  0.7252 -0.5367  0.1014
  289MOL0     O39792   7.270   8.296   4.090  0.6256  0.6140  0.3331
  289MOL0     C39793   7.417   7.971   4.148  0.1262  0.3181  0.6896
  289MOL0     C39794   7.499   7.891   4.221 -0.1931  1.4910  0.3246
  289MOL0     N39795   8.047   7.558   4.319 -0.0334  0.1686  0.3941
  289MOL0     N39796   8.179   7.518   4.316 -0.3132  0.7721 -0.1473
  289MOL0     C39797   8.869   6.783   4.405  0.6144 -1.0859 -0.5162
  289MOL0     C39798   8.882   6.656   4.345 -0.0733 -0.4094  0.0422
  289MOL0     C39799   8.830   6.354   3.994  0.4603 -0.0888 -0.6350
  289MOL0     C39800   8.934   6.260   4.045 -0.3912 -0.8325  0.5034
  289MOL0     C39801   8.947   6.127   4.000 -0.0920  0.0681  0.3614
  289MOL0     C39802   8.863   6.086   3.894 -0.6571  0.2456  1.0049
  289MOL0     O39803   8.879   5.957   3.854 -0.3991 -0.2434  0.2699
  289MOL0     C39804   8.837   5.921   3.726  0.6704 -1.2168  0.3026
  289MOL0     C39805   8.898   5.780   3.705  0.8597 -0.1082  0.0263
  289MOL0     C39806   8.875   5.677   3.818 -0.5336 -0.3577  0.8444
  289MOL0     C39807   8.927   5.532   3.786  0.8709 -0.8323 -0.0771
  289MOL0     C39808   8.871   5.463   3.675 -0.4527 -0.0949  0.2339
  289MOL0     C39809   8.806   5.386   3.602 -0.9374  0.5282  0.3478
  289MOL0     C39810   8.775   6.178   3.837 -1.1250 -0.6990  0.3176
  289MOL0     C39811   8.760   6.310   3.879  0.1891  0.2796 -0.0223
  289MOL0     C39812   8.671   6.406   3.795  0.5290 -0.0300 -0.1300
  289MOL0     H39813   8.933   6.754   4.020 -0.3645  0.3502  0.1037
  289MOL0     H39814   8.868   6.972   4.114 -5.4227 -1.4146 -0.5414
  289MOL0     H39815   9.012   7.127   4.476  1.0284 -0.8948 -0.2902
  289MOL0     H39816   8.939   6.989   4.568  0.4271  2.9471  1.7128
  289MOL0     H39817   8.728   7.085   4.592 -1.8380  1.0973 -0.2099
  289MOL0     H39818   8.857   7.195   4.663  1.5693  2.9765 -1.8273
  289MOL0     H39819   8.836   7.337   4.473 -1.8632  1.6653  0.9949
  289MOL0     H39820   8.709   7.240   4.397 -3.1826 -0.6206  1.6710
  289MOL0     H39821   8.555   7.301   4.564 -0.1696 -0.4867 -1.0461
  289MOL0     H39822   8.677   7.372   4.672  0.2660  1.6830  0.1074
  289MOL0     H39823   8.629   7.468   4.388 -1.0977  0.9715 -0.4306
  289MOL0     H39824   8.723   7.552   4.519 -2.3779  2.2655 -1.2085
  289MOL0     H39825   8.432   7.482   4.552  1.3373 -2.8954 -1.9091
  289MOL0     H39826   8.540   7.594   4.642 -1.8926 -1.2324  0.4265
  289MOL0     H39827   8.564   7.737   4.422  0.0451  0.0063 -0.4262
  289MOL0     H39828   8.416   7.731   4.514 -1.7465 -0.2665 -1.1915
  289MOL0     H39829   8.429   7.686   4.246 -2.5251  0.3605 -0.1263
  289MOL0     H39830   8.429   7.518   4.293 -0.2862 -0.8108  0.9532
  289MOL0     H39831   8.213   7.844   4.337 -2.1320  2.1012 -1.5714
  289MOL0     H39832   7.832   7.732   4.340 -1.1154  0.8720 -3.8782
  289MOL0     H39833   7.917   7.856   4.249  4.0504  4.1119  1.7454
  289MOL0     H39834   7.953   7.845   4.545 -1.6389 -1.2836  0.3136
  289MOL0     H39835   8.001   7.980   4.441 -2.3290  3.3233  1.1733
  289MOL0     H39836   7.838   8.038   4.598 -1.4192 -1.4450  0.7186
  289MOL0     H39837   7.777   8.052   4.428 -1.6808 -1.7437 -0.6458
  289MOL0     H39838   7.718   7.817   4.601 -0.8775 -1.2480 -0.5763
  289MOL0     H39839   7.609   7.962   4.605 -2.5561 -2.9827 -0.5646
  289MOL0     H39840   7.541   8.107   4.472 -1.2863  1.5426  0.2168
  289MOL0     H39841   7.431   8.347   4.383  1.1858 -0.4428  1.4833
  289MOL0     H39842   7.350   8.242   4.486 -0.3720  1.8053  1.3079
  289MOL0     H39843   7.263   8.295   4.348 -0.1188 -2.3201  2.1459
  289MOL0     H39844   7.034   8.274   4.057  1.7575  1.5766 -1.4301
  289MOL0     H39845   6.839   8.328   3.893  0.6076 -0.2115 -1.5877
  289MOL0     H39846   6.774   8.013   3.615 -1.2864 -1.2738 -0.5055
  289MOL0     H39847   6.630   8.083   3.669  1.2715 -0.8854  2.1317
  289MOL0     H39848   6.606   8.220   3.465  0.8373  0.2966 -0.8372
  289MOL0     H39849   6.765   8.159   3.405 -0.9528  0.7313 -1.3126
  289MOL0     H39850   6.504   8.040   3.388 -0.8245 -1.6327 -2.3974
  289MOL0     H39851   6.630   7.932   3.458  0.9662  1.6481  1.3878
  289MOL0     H39852   6.780   7.975   3.260  0.1739  1.6274  2.9563
  289MOL0     H39853   6.630   8.052   3.176 -1.4853  1.2077  0.9680
  289MOL0     H39854   6.686   7.781   3.302  1.7950  1.6886 -0.9162
  289MOL0     H39855   6.520   7.817   3.270 -1.5582  2.5245 -2.9420
  289MOL0     H39856   6.534   7.798   3.041 -1.0354 -2.1235 -1.5718
  289MOL0     H39857   6.641   7.682   3.093  3.8420 -0.0661 -3.8284
  289MOL0     H39858   6.767   7.962   3.008  0.0888  0.2944  3.1935
  289MOL0     H39859   6.688   7.838   2.896 -2.6704  1.3368  0.9364
  289MOL0     H39860   6.902   7.768   3.096 -3.6262  0.2417  0.8077
  289MOL0     H39861   6.931   7.825   2.931 -0.8046  1.1665  0.1702
  289MOL0     H39862   6.995   8.055   3.608  1.7565  0.7219 -0.8232
  289MOL0     H39863   7.185   8.007   3.770  0.6501  1.2014 -3.9153
  289MOL0     H39864   7.388   7.934   4.050 -0.0495  3.7377 -0.7014
  289MOL0     H39865   7.543   7.800   4.182  2.8030  1.9946  2.1904
  289MOL0     H39866   8.858   6.794   4.513  2.2273  0.2142 -0.4506
  289MOL0     H39867   8.893   6.564   4.402  2.5006 -0.0576  0.2323
  289MOL0     H39868   8.992   6.302   4.127 -0.0654  0.0050 -0.1419
  289MOL0     H39869   9.022   6.069   4.053 -2.7754 -0.2980  4.1104
  289MOL0     H39870   8.728   5.920   3.712  0.7130 -0.1352 -0.1951
  289MOL0     H39871   8.874   6.000   3.661  2.3800 -3.4633 -1.6261
  289MOL0     H39872   9.004   5.788   3.678  1.3439  2.5481  2.2606
  289MOL0     H39873   8.848   5.732   3.620  1.5731 -0.9898  0.0817
  289MOL0     H39874   8.937   5.695   3.906  1.2731  1.0103 -0.6240
  289MOL0     H39875   8.767   5.677   3.838 -0.9630 -0.2320 -1.1960
  289MOL0     H39876   8.918   5.475   3.879  0.0206 -1.3594 -0.4696
  289MOL0     H39877   9.034   5.545   3.769  0.6065 -0.9643 -2.1268
  289MOL0     H39878   8.738   5.323   3.548 -0.2871  1.6660 -1.9344
  289MOL0     H39879   8.710   6.150   3.755  0.3564  2.3410 -2.0742
  289MOL0     H39880   8.659   6.359   3.697  1.9386  0.5662 -0.6096
  289MOL0     H39881   8.571   6.403   3.839 -1.0436 -0.0941 -3.3465
  289MOL0     H39882   8.707   6.509   3.782 -1.5278  0.9455  1.2304
  290MOL0     O39883   2.639   9.949   3.586 -1.0272 -0.1025  0.0456
  290MOL0     C39884   2.576  10.017   3.665  0.6263  0.1088  0.2635
  290MOL0     O39885   2.524   9.965   3.781 -0.9453 -0.0407 -0.8761
  290MOL0     C39886   2.573   9.849   3.839 -0.7150  0.2772 -0.4452
  290MOL0     C39887   2.554   9.724   3.780  0.0277 -0.3406  0.6092
  290MOL0     C39888   2.594   9.605   3.840 -0.3529 -0.2390  0.4146
  290MOL0     C39889   2.678   9.614   3.950  0.3313  0.3625 -0.1908
  290MOL0     O39890   2.737   9.503   4.011  1.0040 -0.3679  0.7268
  290MOL0     C39891   2.660   9.379   4.013  0.1370  0.1765 -0.7554
  290MOL0     C39892   2.755   9.280   4.068 -0.3811  0.0132  0.4655
  290MOL0     C39893   2.701   9.146   4.127  0.9483  0.7573  0.0190
  290MOL0     C39894   2.607   9.175   4.249  0.5184 -0.6647  0.7993
  290MOL0     C39895   2.569   9.044   4.313 -0.4752  0.2029  0.0250
  290MOL0     C39896   2.459   9.042   4.417  0.7863  1.2028  0.7718
  290MOL0     C39897   2.460   8.906   4.472 -0.2085 -0.3492 -0.4762
  290MOL0     C39898   2.378   8.896   4.607 -1.0332  0.3223  0.5234
  290MOL0     N39899   2.410   8.995   4.713  0.5019  1.0876 -0.1128
  290MOL0     C39900   2.362   9.121   4.737  0.7368  0.0997  0.5594
  290MOL0     C39901   2.401   9.155   4.856 -0.7517  0.0917 -1.4202
  290MOL0     C39902   2.370   9.288   4.908 -0.5493 -0.8451  0.1333
  290MOL0     C39903   2.218   9.312   4.947 -0.2194 -1.0509  0.5521
  290MOL0     C39904   2.186   9.452   4.995  0.5286 -1.4862  0.0961
  290MOL0     C39905   2.287   9.511   5.092  0.6252  0.4475  0.1694
  290MOL0     O39906   2.221   9.632   5.136 -0.2027 -0.8541  0.0391
  290MOL0     C39907   2.310   9.729   5.185 -0.2598 -0.5638 -0.3302
  290MOL0     C39908   2.250   9.849   5.221  0.1715 -0.0853  0.3349
  290MOL0     C39909   2.318   9.957   5.268 -0.5622  0.3676 -0.4129
  290MOL0     C39910   2.242  10.084   5.313  0.2883  0.1488 -0.2878
  290MOL0     C39911   2.460   9.952   5.265 -0.3448 -1.5637 -0.0032
  290MOL0     C39912   2.551  10.060   5.312 -0.5638  0.2054  0.0228
  290MOL0     O39913   2.521  10.191   5.309 -0.0660  0.1536  0.0675
  290MOL0     C39914   2.478  10.260   5.194 -0.7178  0.3941 -0.0909
  290MOL0     C39915   2.499  10.204   5.069 -0.3335 -0.7642 -0.3379
  290MOL0     C39916   2.445  10.275   4.957 -0.2436  0.8870 -1.0645
  290MOL0     C39917   2.358  10.383   4.972 -0.7579  0.1509 -0.0085
  290MOL0     O39918   2.301  10.425   4.856 -0.2186 -0.0709  0.3053
  290MOL0     C39919   2.266  10.566   4.851 -0.2633  0.0982 -0.3337
  290MOL0     C39920   2.373  10.669   4.866  0.3441 -0.4015 -0.1415
  290MOL0     C39921   2.331  10.798   4.796  0.4703  0.0875  0.1712
  290MOL0     C39922   2.231  10.883   4.867 -0.0102  0.2624  0.1591
  290MOL0     C39923   2.204  11.008   4.793 -0.1469 -0.2494 -0.4220
  290MOL0     C39924   2.085  11.084   4.864  0.1973 -0.0899 -0.8642
  290MOL0     C39925   2.043  11.189   4.760 -0.0842 -0.4830 -0.4511
  290MOL0     C39926   1.915  11.260   4.803  0.7172  0.1159  0.5524
  290MOL0    Cl39927   1.773  11.155   4.800 -0.0359  0.6507 -0.3977
  290MOL0     C39928   2.347  10.440   5.105  0.7937  0.0800  0.2784
  290MOL0     C39929   2.395  10.366   5.216 -0.5879 -0.6700 -0.6306
  290MOL0     O39930   2.647  10.018   5.379  0.4651 -0.7809 -0.2311
  290MOL0     C39931   2.527   9.835   5.229 -0.2373  0.5304 -0.4582
  290MOL0     C39932   2.452   9.726   5.188 -0.7355  0.4338 -0.2353
  290MOL0     N39933   2.483   9.061   4.911 -0.0977 -0.2983 -0.1645
  290MOL0     N39934   2.483   8.968   4.820 -0.1000  0.2472 -0.0776
  290MOL0     C39935   2.702   9.743   4.020 -0.4852  0.6176  0.1727
  290MOL0     C39936   2.648   9.852   3.962  0.9266  0.5619  0.4145
  290MOL0     C39937   2.535  10.164   3.639 -0.2234 -0.2560 -0.1633
  290MOL0     C39938   2.464  10.227   3.741  0.5514  0.7622 -0.1593
  290MOL0     C39939   2.426  10.360   3.730 -0.1276  0.1134 -0.3552
  290MOL0     C39940   2.438  10.428   3.608  0.0080 -0.3520  0.6620
  290MOL0     O39941   2.382  10.562   3.610  0.0439 -0.1216 -0.8553
  290MOL0     C39942   2.389  10.642   3.490 -0.3250  0.2748 -1.1120
  290MOL0     C39943   2.296  10.762   3.497 -0.0482  0.4639 -1.1232
  290MOL0     C39944   2.357  10.874   3.579 -0.3641 -0.5239  0.3296
  290MOL0     C39945   2.269  10.991   3.572  0.7792 -0.3079  0.2882
  290MOL0     C39946   2.325  11.094   3.656  0.2894  0.1101 -1.1861
  290MOL0     C39947   2.369  11.191   3.713 -0.0566 -0.3343 -1.0260
  290MOL0     C39948   2.512  10.372   3.513  0.1496 -0.2206  0.0789
  290MOL0     C39949   2.562  10.244   3.525 -0.2097  0.2590  0.2046
  290MOL0     C39950   2.645  10.193   3.410 -0.3703  0.0285 -0.8010
  290MOL0     H39951   2.494   9.718   3.689 -1.3588  2.0131  1.2827
  290MOL0     H39952   2.562   9.508   3.802 -3.1448 -1.5409  5.2139
  290MOL0     H39953   2.638   9.344   3.912 -1.2705  0.1379 -0.4617
  290MOL0     H39954   2.571   9.401   4.072  2.1621 -1.5669  3.3020
  290MOL0     H39955   2.807   9.257   3.975 -0.7971  1.5423 -0.1828
  290MOL0     H39956   2.815   9.327   4.146  1.5239 -1.2623 -0.1758
  290MOL0     H39957   2.650   9.084   4.053  1.3922 -0.3265  0.5956
  290MOL0     H39958   2.793   9.096   4.159  1.0202  0.2106 -0.9923
  290MOL0     H39959   2.654   9.243   4.321 -0.0928 -0.7943  1.3325
  290MOL0     H39960   2.514   9.217   4.209  0.3079 -1.4895  0.3909
  290MOL0     H39961   2.662   9.013   4.363  0.2908  0.4869 -1.1841
  290MOL0     H39962   2.541   8.971   4.236  3.1432 -3.0448  1.4476
  290MOL0     H39963   2.477   9.114   4.498  0.0087  0.5182  1.5729
  290MOL0     H39964   2.359   9.057   4.374  1.1873  0.1311 -0.6126
  290MOL0     H39965   2.562   8.875   4.498  0.0007  0.5383 -0.2017
  290MOL0     H39966   2.425   8.835   4.396  0.3555 -1.7246  0.4940
  290MOL0     H39967   2.273   8.911   4.582 -0.6107  3.2306  0.1739
  290MOL0     H39968   2.395   8.793   4.640 -0.8143 -0.5817 -2.1017
  290MOL0     H39969   2.322   9.196   4.669 -0.6233  1.5017  2.7890
  290MOL0     H39970   2.385   9.359   4.827 -1.8741  0.7300  1.1934
  290MOL0     H39971   2.434   9.312   4.994 -0.9492  0.6497  0.0377
  290MOL0     H39972   2.158   9.303   4.856  0.4378 -0.3866  0.0365
  290MOL0     H39973   2.181   9.241   5.022  1.0632 -0.5244  1.7355
  290MOL0     H39974   2.180   9.517   4.907  2.7702 -1.6338 -0.2128
  290MOL0     H39975   2.085   9.447   5.038  0.2131  0.9700 -0.1747
  290MOL0     H39976   2.309   9.444   5.175 -0.3338 -1.6930 -1.2280
  290MOL0     H39977   2.378   9.532   5.035  1.9497 -0.6408  1.7811
  290MOL0     H39978   2.143   9.862   5.208  0.1770  0.2849  0.6348
  290MOL0     H39979   2.157  10.048   5.371  0.1496  0.3057 -0.3937
  290MOL0     H39980   2.207  10.146   5.230  0.0472  0.3864 -0.0150
  290MOL0     H39981   2.290  10.146   5.389 -2.6671  0.5782  1.3959
  290MOL0     H39982   2.553  10.112   5.048  0.3490 -0.5080  0.2550
  290MOL0     H39983   2.456  10.240   4.855 -1.0056 -1.2098 -0.4993
  290MOL0     H39984   2.218  10.587   4.755  0.7727 -0.3999 -0.9764
  290MOL0     H39985   2.198  10.579   4.935  0.3614 -1.2105  0.4000
  290MOL0     H39986   2.383  10.682   4.974 -2.5713 -0.1344  0.1753
  290MOL0     H39987   2.469  10.639   4.822  1.0295  3.2530 -1.4289
  290MOL0     H39988   2.292  10.793   4.694  4.1446 -2.4675 -1.3182
  290MOL0     H39989   2.413  10.869   4.780  1.7980 -1.4683 -0.1970
  290MOL0     H39990   2.278  10.914   4.961  2.5493 -1.4965 -0.4450
  290MOL0     H39991   2.140  10.824   4.877 -1.1392  1.7247 -0.9429
  290MOL0     H39992   2.290  11.076   4.795  0.2286 -0.7234  1.1652
  290MOL0     H39993   2.182  10.987   4.688  1.8834 -0.4490 -0.8491
  290MOL0     H39994   2.114  11.130   4.959 -0.7093 -3.8986  1.4615
  290MOL0     H39995   1.997  11.023   4.888 -0.3509  1.3031  0.8949
  290MOL0     H39996   2.029  11.150   4.658 -1.3852 -0.3189 -0.3567
  290MOL0     H39997   2.125  11.261   4.757 -0.0698 -0.2905  2.2146
  290MOL0     H39998   1.898  11.343   4.734 -2.2113 -1.3317 -0.6050
  290MOL0     H39999   1.925  11.308   4.901  0.8607  1.1572  0.0476
  290MOL0     H40000   2.284  10.524   5.131  0.7613 -0.1606  0.9896
  290MOL0     H40001   2.370  10.397   5.317  1.0147  1.4005 -0.7987
  290MOL0     H40002   2.636   9.830   5.228 -0.2694 -0.4035 -0.1579
  290MOL0     H40003   2.510   9.646   5.144 -4.9038 -1.8378 -2.2404
  290MOL0     H40004   2.760   9.763   4.109 -3.0972 -2.3046  2.7846
  290MOL0     H40005   2.644   9.952   4.004 -0.8469  0.6538  0.0903
  290MOL0     H40006   2.430  10.177   3.831  0.0429  0.0305 -0.7424
  290MOL0     H40007   2.382  10.396   3.822  0.0049 -0.0021 -0.2460
  290MOL0     H40008   2.492  10.678   3.483 -0.8353  3.2129  2.9250
  290MOL0     H40009   2.364  10.578   3.405 -1.3542 -0.8809  0.0164
  290MOL0     H40010   2.196  10.733   3.531  0.3804  0.3651  0.0978
  290MOL0     H40011   2.281  10.801   3.396  3.2311 -2.5601 -3.0292
  290MOL0     H40012   2.376  10.845   3.683 -1.1558  1.1244  0.9700
  290MOL0     H40013   2.459  10.904   3.553  0.0054 -0.8612  1.3327
  290MOL0     H40014   2.165  10.971   3.599  0.7930  0.3005  0.8027
  290MOL0     H40015   2.270  11.031   3.470 -2.3020  1.7196  0.8951
  290MOL0     H40016   2.380  11.281   3.771 -4.5862 -0.3639  0.2709
  290MOL0     H40017   2.532  10.421   3.419  0.8320 -3.9297 -1.8890
  290MOL0     H40018   2.702  10.281   3.379 -0.0356  0.3683  0.7080
  290MOL0     H40019   2.718  10.114   3.427 -0.1416  0.2021 -0.9664
  290MOL0     H40020   2.585  10.154   3.328  0.0549 -0.8857 -0.6809
  291MOL0     O40021  10.498   7.628   1.452  0.2994  0.2856  0.3481
  291MOL0     C40022  10.538   7.666   1.562 -0.1007  0.7268  0.2864
  291MOL0     O40023  10.558   7.794   1.590 -0.0808 -0.1650  0.3676
  291MOL0     C40024  10.516   7.879   1.496  0.0773 -0.4276  0.2460
  291MOL0     C40025  10.618   7.907   1.403  0.3286 -0.1511 -0.1175
  291MOL0     C40026  10.603   8.006   1.302 -0.0119 -0.7491  0.0159
  291MOL0     C40027  10.477   8.061   1.283 -0.4022 -0.4964  0.9496
  291MOL0     O40028  10.446   8.151   1.183 -0.3894 -0.6694 -0.1583
  291MOL0     C40029  10.557   8.194   1.101  0.2804 -0.5402 -0.0603
  291MOL0     C40030  10.524   8.332   1.043  0.0296  0.0950 -0.0403
  291MOL0     C40031  10.636   8.384   0.953  0.2187  0.1412 -0.0584
  291MOL0     C40032  10.592   8.511   0.887 -0.6499 -0.3195 -0.9670
  291MOL0     C40033  10.707   8.580   0.807  0.2741  0.9209 -1.1967
  291MOL0     C40034  10.654   8.702   0.735 -0.3186  0.1772  0.6334
  291MOL0     C40035  10.747   8.773   0.637  0.4511 -0.5549 -0.0328
  291MOL0     C40036  10.788   8.678   0.517 -0.3540 -0.0095 -0.0888
  291MOL0     N40037  10.836   8.766   0.401 -0.5596  0.8265 -0.6033
  291MOL0     C40038  10.753   8.844   0.328  0.0542  0.5079 -0.4197
  291MOL0     C40039  10.827   8.904   0.239 -0.1787  0.9093  0.2866
  291MOL0     C40040  10.766   8.997   0.142  0.6948 -0.3030  0.3458
  291MOL0     C40041  10.867   9.101   0.082 -0.3960 -0.0309 -0.6017
  291MOL0     C40042  10.937   9.188   0.195  1.0268  0.4532 -0.6025
  291MOL0     C40043  10.843   9.259   0.285  1.5043  0.3078  0.7458
  291MOL0     O40044  10.745   9.345   0.210 -0.6173  0.3714 -0.6199
  291MOL0     C40045  10.808   9.462   0.167  0.3388 -0.2573 -0.0796
  291MOL0     C40046  10.861   9.475   0.038  0.4214  0.0182  0.6145
  291MOL0     C40047  10.941   9.588  -0.001  0.5355 -0.0953 -0.8239
  291MOL0     C40048  11.003   9.574  -0.133 -0.1474  0.2219  0.0289
  291MOL0     C40049  10.960   9.696   0.093  0.0285 -0.5836 -0.5259
  291MOL0     C40050  11.063   9.797   0.073 -1.6714  1.2174  0.4428
  291MOL0     O40051  11.137   9.833   0.178 -0.4048  0.1123 -0.6882
  291MOL0     C40052  11.193   9.959   0.183  0.0675  0.2593 -0.6093
  291MOL0     C40053  11.104  10.067   0.196 -0.1985  0.2750  0.6133
  291MOL0     C40054  11.152  10.193   0.225 -0.1938  1.0773 -0.0261
  291MOL0     C40055  11.289  10.217   0.227  0.5667 -0.1052 -0.1989
  291MOL0     O40056  11.315  10.343   0.265  0.1859 -0.1783 -0.1759
  291MOL0     C40057  11.372  10.420   0.153 -0.0699  0.5619  0.4568
  291MOL0     C40058  11.486  10.515   0.199 -0.0398  0.1917  0.4401
  291MOL0     C40059  11.534  10.618   0.096 -0.4536  0.5605  0.2120
  291MOL0     C40060  11.666  10.686   0.149  1.7205  0.3509 -1.4030
  291MOL0     C40061  11.712  10.822   0.086 -0.6081  0.3373 -0.8494
  291MOL0     C40062  11.705  10.821  -0.073  0.2655 -0.4207 -1.0497
  291MOL0     C40063  11.793  10.703  -0.138  0.8539  0.2918 -0.5882
  291MOL0     C40064  11.866  10.756  -0.255 -0.5827 -0.3898  0.3538
  291MOL0    Cl40065  11.988  10.635  -0.313 -0.3431  0.1290 -0.0696
  291MOL0     C40066  11.379  10.113   0.205 -0.0699 -0.1921 -0.5793
  291MOL0     C40067  11.329   9.982   0.184 -0.6383 -0.7068 -0.0025
  291MOL0     O40068  11.061   9.852  -0.033 -0.0672  0.3576 -0.6639
  291MOL0     C40069  10.882   9.692   0.208  0.2017  0.2158 -1.4585
  291MOL0     C40070  10.810   9.572   0.239 -0.3352 -0.9840 -0.2416
  291MOL0     N40071  10.960   8.859   0.253  1.1669  0.5406 -0.4665
  291MOL0     N40072  10.961   8.774   0.346  0.2636  0.0847  0.2700
  291MOL0     C40073  10.377   8.038   1.383 -0.8575 -0.6492  0.2091
  291MOL0     C40074  10.394   7.935   1.476  0.7908 -1.4298  0.8086
  291MOL0     C40075  10.543   7.580   1.677 -0.1816 -0.0724  0.0166
  291MOL0     C40076  10.561   7.634   1.811  0.8887  1.0982  0.5090
  291MOL0     C40077  10.567   7.555   1.929  0.3793 -0.5962  0.7580
  291MOL0     C40078  10.545   7.416   1.921  0.8413 -0.4714  0.9386
  291MOL0     O40079  10.523   7.341   2.038  0.0791  0.6760  0.1048
  291MOL0     C40080  10.456   7.213   2.031 -0.9916 -0.2345 -0.5188
  291MOL0     C40081  10.457   7.154   2.162  0.2102  1.1808 -0.3864
  291MOL0     C40082  10.390   7.224   2.274  0.0956 -0.4740 -0.7253
  291MOL0     C40083  10.369   7.137   2.405  0.0795 -0.1614 -0.4752
  291MOL0     C40084  10.506   7.105   2.453 -0.1197  1.0092 -0.1463
  291MOL0     C40085  10.605   7.085   2.508 -0.0302 -0.3112 -0.2703
  291MOL0     C40086  10.542   7.359   1.790 -0.0438  0.9390 -0.5346
  291MOL0     C40087  10.533   7.438   1.675  0.1140  0.5386  0.5710
  291MOL0     C40088  10.497   7.364   1.543  0.0511  0.5295 -0.7690
  291MOL0     H40089  10.711   7.854   1.418 -0.0734 -0.1309  3.2914
  291MOL0     H40090  10.700   8.018   1.254  0.4125 -2.0066  0.5134
  291MOL0     H40091  10.565   8.115   1.026 -2.8549 -1.9674  0.9131
  291MOL0     H40092  10.651   8.207   1.155  0.3274 -0.5524 -0.1371
  291MOL0     H40093  10.435   8.326   0.979  0.4698 -3.8940 -0.5086
  291MOL0     H40094  10.493   8.399   1.123 -0.4475 -1.1764  0.8763
  291MOL0     H40095  10.728   8.393   1.011 -0.2079  1.5156  0.4401
  291MOL0     H40096  10.656   8.316   0.869 -0.2257  0.3930 -0.3740
  291MOL0     H40097  10.516   8.483   0.813 -0.5052 -2.8344 -0.2593
  291MOL0     H40098  10.551   8.585   0.957 -1.6047 -1.6772 -0.0415
  291MOL0     H40099  10.743   8.519   0.723  0.0927 -0.3001 -0.4150
  291MOL0     H40100  10.790   8.596   0.877 -2.1027  3.0277  1.3656
  291MOL0     H40101  10.563   8.664   0.687 -0.0978  1.1583 -0.5881
  291MOL0     H40102  10.613   8.767   0.813 -1.8936 -3.6525  3.3220
  291MOL0     H40103  10.831   8.820   0.689 -0.0895  1.6728 -1.0311
  291MOL0     H40104  10.694   8.856   0.590 -1.1817 -1.4327  0.1592
  291MOL0     H40105  10.873   8.619   0.553  1.1728  2.4264  0.5302
  291MOL0     H40106  10.723   8.598   0.482  1.4158 -2.5879  2.0682
  291MOL0     H40107  10.645   8.852   0.340  0.0640  0.6119 -0.4020
  291MOL0     H40108  10.673   9.041   0.180 -1.1135  1.5113 -5.2400
  291MOL0     H40109  10.744   8.936   0.054  1.9325 -3.7313  2.2151
  291MOL0     H40110  10.939   9.049   0.017  1.0273  0.5028  0.4825
  291MOL0     H40111  10.801   9.161   0.018 -0.2630 -1.3717 -2.0768
  291MOL0     H40112  10.978   9.121   0.270 -2.6768  1.4158  2.5942
  291MOL0     H40113  11.009   9.264   0.161 -0.4357  1.4875 -1.5143
  291MOL0     H40114  10.775   9.189   0.335  1.2142 -1.3097 -1.7350
  291MOL0     H40115  10.903   9.318   0.354 -0.2748  1.1855  1.6179
  291MOL0     H40116  10.833   9.408  -0.043  1.5368  1.8812 -1.4140
  291MOL0     H40117  11.112   9.582  -0.120 -0.0487 -1.3753  0.3696
  291MOL0     H40118  10.968   9.662  -0.187  0.3660 -0.1208 -0.8925
  291MOL0     H40119  11.001   9.483  -0.194  2.8925 -0.2128  0.4262
  291MOL0     H40120  10.997  10.058   0.181  0.1009 -0.0168 -1.7168
  291MOL0     H40121  11.083  10.263   0.271  0.5877 -0.2699  3.4955
  291MOL0     H40122  11.416  10.360   0.072 -0.8964  1.3747 -0.6142
  291MOL0     H40123  11.293  10.480   0.108 -0.4021 -1.7182 -2.2580
  291MOL0     H40124  11.459  10.577   0.284  0.4739  4.7124 -2.3874
  291MOL0     H40125  11.572  10.453   0.228 -0.4248 -0.0094  1.1809
  291MOL0     H40126  11.455  10.694   0.092 -0.3412  0.7702  1.5379
  291MOL0     H40127  11.554  10.574  -0.002 -0.7148  2.1331 -0.5789
  291MOL0     H40128  11.749  10.616   0.135  1.8301  0.3632 -0.8138
  291MOL0     H40129  11.658  10.686   0.258 -2.6768 -2.1283 -1.5048
  291MOL0     H40130  11.652  10.906   0.124  0.2171 -0.5581  2.9065
  291MOL0     H40131  11.814  10.847   0.116 -1.8176  2.2706  2.2058
  291MOL0     H40132  11.733  10.916  -0.121 -2.5428  0.4390 -1.2144
  291MOL0     H40133  11.600  10.795  -0.094  0.5260 -1.5794 -0.9617
  291MOL0     H40134  11.722  10.624  -0.165  0.7068 -0.3208  1.4463
  291MOL0     H40135  11.854  10.670  -0.053  3.3010 -1.6763 -2.9538
  291MOL0     H40136  11.916  10.850  -0.231  1.7621 -1.7371  1.1236
  291MOL0     H40137  11.795  10.777  -0.335 -1.5050 -1.3969  0.8744
  291MOL0     H40138  11.486  10.117   0.222  0.8045 -2.4712 -4.5092
  291MOL0     H40139  11.401   9.900   0.189 -0.5122 -0.5519  0.8491
  291MOL0     H40140  10.876   9.767   0.286  1.6184 -2.8709  1.9307
  291MOL0     H40141  10.771   9.574   0.341  1.8224 -1.2949  0.6290
  291MOL0     H40142  10.282   8.085   1.360  0.3839  1.0800 -1.8457
  291MOL0     H40143  10.304   7.916   1.533 -2.3464  0.2488 -3.1132
  291MOL0     H40144  10.551   7.740   1.832  0.5063  1.0521  0.5777
  291MOL0     H40145  10.565   7.601   2.027 -2.1356  3.2164 -0.8284
  291MOL0     H40146  10.354   7.218   1.992 -1.3039 -0.5549  0.2379
  291MOL0     H40147  10.524   7.158   1.965 -0.7442  1.1604 -1.4854
  291MOL0     H40148  10.563   7.143   2.186 -0.1838 -0.3740  0.7964
  291MOL0     H40149  10.413   7.055   2.154  0.4570  1.2041 -2.5471
  291MOL0     H40150  10.448   7.315   2.291 -3.0735  2.2005 -2.9697
  291MOL0     H40151  10.292   7.259   2.241 -0.7616 -1.1181  0.9952
  291MOL0     H40152  10.317   7.043   2.382 -0.8503  0.7165 -2.1127
  291MOL0     H40153  10.311   7.184   2.484 -0.9122 -1.9273 -0.0900
  291MOL0     H40154  10.702   7.090   2.554 -1.2794  2.9097  2.4198
  291MOL0     H40155  10.528   7.252   1.782  2.4870  0.5804 -1.0299
  291MOL0     H40156  10.410   7.415   1.500 -0.7100  1.2188  1.4697
  291MOL0     H40157  10.580   7.362   1.471 -3.1294  1.4178 -4.8360
  291MOL0     H40158  10.460   7.263   1.563  2.2226  0.1355  1.7574
  292MOL0     O40159  10.227   7.157   8.698  0.2667 -0.4139  0.0429
  292MOL0     C40160  10.329   7.137   8.627 -0.4161 -0.0549 -0.6685
  292MOL0     O40161  10.432   7.220   8.623 -0.2543  0.0785 -1.1563
  292MOL0     C40162  10.435   7.325   8.709 -0.9746  0.7098  0.3532
  292MOL0     C40163  10.425   7.304   8.848  0.5855 -0.1843 -0.0450
  292MOL0     C40164  10.444   7.415   8.934 -0.2193  0.6767  0.6896
  292MOL0     C40165  10.468   7.546   8.879  0.3039 -0.2863  0.6563
  292MOL0     O40166  10.483   7.641   8.977  0.2874  0.2664 -0.3864
  292MOL0     C40167  10.597   7.730   8.936  0.7652  0.8041  0.6603
  292MOL0     C40168  10.639   7.819   9.054 -0.1867 -0.0972  0.3187
  292MOL0     C40169  10.558   7.806   9.186 -0.2685 -0.4498  0.3383
  292MOL0     C40170  10.610   7.892   9.303 -0.4724 -0.4894  0.0468
  292MOL0     C40171  10.554   7.825   9.427 -0.8040  0.3679 -0.1740
  292MOL0     C40172  10.556   7.918   9.545  0.1147  0.1249 -0.0189
  292MOL0     C40173  10.475   7.862   9.658 -0.4507  0.0432 -0.3730
  292MOL0     C40174  10.545   7.758   9.736 -0.5353  1.0320 -0.0911
  292MOL0     N40175  10.617   7.812   9.841 -0.6627  0.4953 -0.0850
  292MOL0     C40176  10.740   7.876   9.834 -0.6913 -0.0359 -0.0244
  292MOL0     C40177  10.762   7.900   9.967  0.6690  0.1043 -0.6988
  292MOL0     C40178  10.888   7.933  10.036 -0.4028  0.5913  0.0525
  292MOL0     C40179  10.983   7.817  10.033 -0.4509 -0.7073  0.5644
  292MOL0     C40180  11.122   7.882  10.047  0.5840  0.4343  0.0467
  292MOL0     C40181  11.238   7.781  10.030  0.2623  0.5298 -0.1843
  292MOL0     O40182  11.210   7.698   9.916  0.7871  0.7763  0.5329
  292MOL0     C40183  11.318   7.621   9.870  0.4550  0.0243  0.5714
  292MOL0     C40184  11.404   7.554   9.954 -0.2937 -1.3128 -0.7000
  292MOL0     C40185  11.509   7.479   9.896  0.3191 -0.6698  0.9006
  292MOL0     C40186  11.599   7.403   9.983 -0.7151 -0.0812 -0.4684
  292MOL0     C40187  11.516   7.470   9.752  0.7944  0.7821 -0.2493
  292MOL0     C40188  11.627   7.404   9.684 -0.1112  0.3403 -0.0848
  292MOL0     O40189  11.586   7.343   9.569 -0.5473 -0.5338  0.3650
  292MOL0     C40190  11.686   7.289   9.484  0.1614 -0.4173  0.4634
  292MOL0     C40191  11.748   7.168   9.514 -0.0591  0.5584 -1.0772
  292MOL0     C40192  11.827   7.100   9.426  0.5439  0.3772  0.3528
  292MOL0     C40193  11.859   7.160   9.300  0.8126 -0.5884 -1.2118
  292MOL0     O40194  11.959   7.103   9.223  0.1848 -0.1237 -0.6180
  292MOL0     C40195  11.959   7.118   9.080 -0.0411 -0.7527 -0.0749
  292MOL0     C40196  11.865   7.017   9.010  0.0709  0.5998  0.5187
  292MOL0     C40197  11.884   6.871   9.071  0.7216 -1.0604 -0.7152
  292MOL0     C40198  11.771   6.782   9.029  0.3247  0.2380  1.3958
  292MOL0     C40199  11.772   6.750   8.880 -0.2816  0.0668  0.5123
  292MOL0     C40200  11.662   6.659   8.843  0.4564  0.3205  0.0365
  292MOL0     C40201  11.679   6.618   8.691 -0.7871 -0.3809  0.3661
  292MOL0     C40202  11.567   6.517   8.664 -0.1657  0.7577  0.4903
  292MOL0    Cl40203  11.415   6.594   8.634 -0.2243 -0.1942 -0.0887
  292MOL0     C40204  11.792   7.278   9.270  0.3779  0.2259  0.2013
  292MOL0     C40205  11.707   7.342   9.364  0.2189 -0.6975  0.9153
  292MOL0     O40206  11.747   7.427   9.713  0.3243 -0.4236 -0.2122
  292MOL0     C40207  11.427   7.542   9.676 -0.6487  0.6419 -0.1149
  292MOL0     C40208  11.325   7.619   9.732  0.2731 -0.8109 -0.3926
  292MOL0     N40209  10.652   7.863  10.038  0.7303 -0.1647  0.3085
  292MOL0     N40210  10.569   7.810   9.964  0.3753 -0.2536  0.3486
  292MOL0     C40211  10.483   7.561   8.733  0.4989 -0.2295 -0.4224
  292MOL0     C40212  10.469   7.452   8.658 -0.0081  0.1813 -0.8867
  292MOL0     C40213  10.319   7.035   8.518 -0.2887 -0.8383  1.2185
  292MOL0     C40214  10.435   6.998   8.457 -0.3372  0.4737  1.1452
  292MOL0     C40215  10.437   6.892   8.361 -0.0933  0.0083  0.3661
  292MOL0     C40216  10.321   6.834   8.314  0.1372 -0.2840 -0.0633
  292MOL0     O40217  10.299   6.735   8.216 -1.0137  0.5829 -0.3332
  292MOL0     C40218  10.416   6.665   8.172 -0.3440  0.2680  0.1590
  292MOL0     C40219  10.488   6.736   8.061  0.3742  0.8215 -0.2933
  292MOL0     C40220  10.422   6.733   7.919  0.1892 -0.9132  0.5038
  292MOL0     C40221  10.501   6.801   7.809  0.2956  0.4167  0.2115
  292MOL0     C40222  10.605   6.714   7.759 -0.3794 -0.3403  0.3365
  292MOL0     C40223  10.686   6.648   7.696 -0.0266  0.2509  0.1566
  292MOL0     C40224  10.201   6.886   8.366  0.0423  0.8228  0.8259
  292MOL0     C40225  10.199   6.982   8.464 -0.2489 -0.6420 -0.0721
  292MOL0     C40226  10.062   7.016   8.514  0.2641 -0.0082  0.4327
  292MOL0     H40227  10.404   7.203   8.882  3.1239 -0.6050  0.4509
  292MOL0     H40228  10.461   7.389   9.038 -1.5139 -2.5266  0.2051
  292MOL0     H40229  10.566   7.794   8.854  1.7557 -1.5567 -1.6812
  292MOL0     H40230  10.686   7.670   8.914  0.2370  1.2166 -3.3421
  292MOL0     H40231  10.741   7.781   9.069 -0.5666 -1.2289  0.1801
  292MOL0     H40232  10.645   7.924   9.026 -1.5720  0.0434  0.4621
  292MOL0     H40233  10.457   7.834   9.154 -0.1583 -0.4115  0.0229
  292MOL0     H40234  10.568   7.701   9.215 -0.8946 -0.7793 -0.5880
  292MOL0     H40235  10.718   7.889   9.315 -0.5490 -2.9306  0.6843
  292MOL0     H40236  10.575   7.995   9.292 -1.1512 -0.8520 -1.6592
  292MOL0     H40237  10.610   7.732   9.442  1.1514  1.7606  1.8654
  292MOL0     H40238  10.450   7.797   9.408 -1.7497  2.7831  1.0226
  292MOL0     H40239  10.663   7.934   9.564 -0.5226  2.5024  1.9376
  292MOL0     H40240  10.516   8.017   9.525  0.0961 -0.1373 -1.4457
  292MOL0     H40241  10.383   7.824   9.614  0.3028 -1.9534 -0.3267
  292MOL0     H40242  10.454   7.940   9.732  1.7935  2.6265 -2.2516
  292MOL0     H40243  10.478   7.682   9.775 -1.1512  0.2715 -2.4803
  292MOL0     H40244  10.604   7.692   9.672 -0.9697  0.6591 -0.1072
  292MOL0     H40245  10.814   7.875   9.754 -1.3836  1.7349 -0.7334
  292MOL0     H40246  10.855   7.963  10.136 -1.7124  0.4924 -0.3261
  292MOL0     H40247  10.937   8.018   9.988 -1.0048  0.1125 -1.4533
  292MOL0     H40248  10.966   7.762  10.125  2.9988  2.7694  3.6232
  292MOL0     H40249  10.973   7.759   9.940  1.7454 -1.6146  0.8263
  292MOL0     H40250  11.130   7.967   9.978  1.0708  1.8006  1.6908
  292MOL0     H40251  11.124   7.933  10.144  0.5200 -1.6240  1.1656
  292MOL0     H40252  11.337   7.827  10.020  0.9124 -0.7331  0.0786
  292MOL0     H40253  11.229   7.713  10.116  1.4281  0.5111 -0.0583
  292MOL0     H40254  11.386   7.557  10.061 -1.2041  0.1249 -0.8713
  292MOL0     H40255  11.575   7.297   9.991  5.0329 -1.5500  3.0797
  292MOL0     H40256  11.587   7.432  10.087 -3.8387 -1.1234 -0.4251
  292MOL0     H40257  11.704   7.404   9.954 -0.5281 -0.2636  0.1936
  292MOL0     H40258  11.742   7.129   9.615 -1.1532  0.9927 -0.9531
  292MOL0     H40259  11.884   7.010   9.445 -1.2542 -1.1761 -1.1892
  292MOL0     H40260  11.932   7.220   9.051 -0.5386  0.2005  3.2513
  292MOL0     H40261  12.062   7.094   9.052  1.0930  0.0031  3.0044
  292MOL0     H40262  11.768   7.066   9.023 -1.3794 -1.9033 -0.2270
  292MOL0     H40263  11.878   7.010   8.901  2.0964  0.2169  0.7319
  292MOL0     H40264  11.881   6.886   9.179 -0.2761  0.9786 -0.9742
  292MOL0     H40265  11.980   6.826   9.043 -0.1990 -2.8010 -1.1961
  292MOL0     H40266  11.677   6.835   9.050 -1.7608 -2.6544 -0.0296
  292MOL0     H40267  11.770   6.695   9.095 -2.2711  0.9768  2.4675
  292MOL0     H40268  11.772   6.839   8.816 -0.1404 -1.8421 -2.3341
  292MOL0     H40269  11.863   6.694   8.855 -0.6062 -0.2249 -0.0430
  292MOL0     H40270  11.573   6.723   8.847  0.1530  0.1113 -2.0921
  292MOL0     H40271  11.651   6.571   8.907 -1.4252 -0.3642 -1.1189
  292MOL0     H40272  11.781   6.578   8.678 -0.0829  1.8116 -1.3610
  292MOL0     H40273  11.680   6.704   8.624  2.9269 -0.1485  0.4789
  292MOL0     H40274  11.546   6.455   8.752  0.2602  1.5014  1.1330
  292MOL0     H40275  11.595   6.453   8.580  1.6601  3.1141 -0.8499
  292MOL0     H40276  11.806   7.331   9.177 -0.3460 -0.2397 -0.1812
  292MOL0     H40277  11.650   7.432   9.337 -0.2779 -0.5602  2.3524
  292MOL0     H40278  11.429   7.546   9.567 -1.1361  0.0994 -0.1524
  292MOL0     H40279  11.259   7.679   9.669  0.2895 -3.1036 -2.7814
  292MOL0     H40280  10.499   7.657   8.685 -0.4596 -0.1800 -0.6593
  292MOL0     H40281  10.490   7.470   8.553 -2.0279  0.3687 -1.3005
  292MOL0     H40282  10.523   7.031   8.510 -0.8256  0.4731  1.9723
  292MOL0     H40283  10.531   6.857   8.319  0.0941 -3.0503  2.9310
  292MOL0     H40284  10.475   6.647   8.262 -2.8145 -4.7273  1.1163
  292MOL0     H40285  10.389   6.563   8.143  2.2878 -1.4119  3.0349
  292MOL0     H40286  10.581   6.679   8.050  0.4117  0.9236 -0.5223
  292MOL0     H40287  10.507   6.840   8.089  0.5954  1.1626 -1.6433
  292MOL0     H40288  10.417   6.625   7.901  1.2009 -1.0553  1.0030
  292MOL0     H40289  10.322   6.776   7.913 -0.2750 -2.1643 -2.2832
  292MOL0     H40290  10.552   6.889   7.848 -2.4106  2.1070  0.2024
  292MOL0     H40291  10.439   6.822   7.721 -2.9238 -3.1655  1.3850
  292MOL0     H40292  10.745   6.576   7.643 -0.3182 -1.0245  1.5212
  292MOL0     H40293  10.109   6.840   8.332 -1.2421  3.2036  0.8411
  292MOL0     H40294  10.055   6.996   8.621 -2.0341 -3.5448 -0.1919
  292MOL0     H40295  10.049   7.122   8.492  2.7835  0.3445  0.4269
  292MOL0     H40296   9.977   6.968   8.464 -1.3965  2.6093  0.5622
  293MOL0     O40297  10.209   6.703   9.660  0.1805  0.3880 -0.2410
  293MOL0     C40298  10.193   6.613   9.738  1.0926 -0.2163 -0.7240
  293MOL0     O40299  10.171   6.624   9.873 -0.7470  0.2503  0.1385
  293MOL0     C40300  10.181   6.741   9.945 -1.1785 -0.0226 -1.2697
  293MOL0     C40301  10.131   6.739  10.081 -0.1647 -0.0145  0.0583
  293MOL0     C40302  10.147   6.853  10.163 -0.1282  0.5069  0.2653
  293MOL0     C40303  10.180   6.975  10.109 -1.1916 -0.1540 -0.5189
  293MOL0     O40304  10.172   7.077  10.199 -0.4248 -0.1200 -0.5523
  293MOL0     C40305  10.227   7.210  10.166 -0.7877 -0.0294 -0.5093
  293MOL0     C40306  10.215   7.300  10.289  0.8073  0.4597 -0.5061
  293MOL0     C40307  10.304   7.418  10.266  0.0332  0.3237 -0.2485
  293MOL0     C40308  10.265   7.538  10.361  0.2669 -0.6284 -0.8558
  293MOL0     C40309  10.307   7.677  10.316  0.1188 -0.0100 -0.5564
  293MOL0     C40310  10.220   7.789  10.393 -0.3928  0.6789 -0.1791
  293MOL0     C40311  10.244   7.924  10.329 -0.0868  0.2382  0.9425
  293MOL0     C40312  10.367   7.993  10.389 -0.6189  0.6372 -0.3823
  293MOL0     N40313  10.397   8.113  10.299 -0.1864 -0.8805  0.4525
  293MOL0     C40314  10.424   8.101  10.166 -0.5336 -0.1825  0.3694
  293MOL0     C40315  10.428   8.226  10.114 -0.6773 -0.1016 -0.8728
  293MOL0     C40316  10.470   8.274   9.972 -0.2110  0.5213  0.4187
  293MOL0     C40317  10.395   8.220   9.854 -0.3753 -0.4394 -0.0363
  293MOL0     C40318  10.255   8.236   9.871  0.3995 -0.1735  0.9575
  293MOL0     C40319  10.177   8.155   9.758  0.6592 -0.1114 -0.9781
  293MOL0     O40320  10.197   8.012   9.767 -0.0542  0.7739 -0.3465
  293MOL0     C40321  10.109   7.923   9.822  0.6600  0.1425  0.6427
  293MOL0     C40322  10.025   7.959   9.928  0.7624  0.3919 -0.5777
  293MOL0     C40323   9.921   7.870   9.972  0.9123 -0.4468 -0.0277
  293MOL0     C40324   9.836   7.925  10.081  0.1514  0.5332  0.4010
  293MOL0     C40325   9.914   7.742   9.912 -0.5241  0.3588 -0.8359
  293MOL0     C40326   9.812   7.641   9.938  0.0617  0.3725  0.8074
  293MOL0     O40327   9.804   7.544   9.842 -0.3082  0.0234  0.5848
  293MOL0     C40328   9.738   7.425   9.873  0.6788 -0.2925 -0.5583
  293MOL0     C40329   9.761   7.345   9.982  0.6775 -1.0065  0.2511
  293MOL0     C40330   9.698   7.222   9.981  0.5164  0.4776 -0.3862
  293MOL0     C40331   9.617   7.178   9.870 -0.3263  0.1642  0.5992
  293MOL0     O40332   9.555   7.057   9.872 -0.4550  0.0970 -0.4971
  293MOL0     C40333   9.611   6.957   9.787  0.8232  0.0638 -0.1845
  293MOL0     C40334   9.758   6.916   9.801 -0.3953 -1.0031  0.2700
  293MOL0     C40335   9.809   6.878   9.935 -0.3089  1.2856 -0.9580
  293MOL0     C40336   9.735   6.773  10.025  0.4914  0.6583  0.4200
  293MOL0     C40337   9.739   6.631   9.963  0.9633 -0.7620  0.0401
  293MOL0     C40338   9.632   6.550  10.037 -0.3537 -0.2084  0.5514
  293MOL0     C40339   9.619   6.414   9.998  0.1725  0.4284 -0.3573
  293MOL0     C40340   9.735   6.333   9.966  0.1145 -0.1953  0.1613
  293MOL0    Cl40341   9.847   6.288  10.094  0.3710 -0.5151 -0.4337
  293MOL0     C40342   9.598   7.254   9.759 -0.0248  0.8574 -0.6281
  293MOL0     C40343   9.658   7.381   9.762  0.4685 -1.1286 -0.1428
  293MOL0     O40344   9.759   7.639  10.046 -0.0112  0.5312  0.5075
  293MOL0     C40345   9.999   7.703   9.805  0.2132  0.3350  0.2140
  293MOL0     C40346  10.097   7.794   9.766 -0.1104  0.4256  0.3400
  293MOL0     N40347  10.405   8.312  10.222  0.0941 -0.3547  0.3844
  293MOL0     N40348  10.393   8.247  10.333 -0.0321 -0.4620 -0.2681
  293MOL0     C40349  10.215   6.988   9.968  1.0158 -0.3708  0.0546
  293MOL0     C40350  10.214   6.866   9.891 -0.2883  0.8032 -0.1970
  293MOL0     C40351  10.196   6.477   9.673  0.2070 -0.5245  0.8921
  293MOL0     C40352  10.132   6.381   9.746 -0.1812  0.3854 -1.7666
  293MOL0     C40353  10.119   6.252   9.699 -0.2311 -0.0634  0.3272
  293MOL0     C40354  10.160   6.212   9.577 -0.1949  0.0121  0.8434
  293MOL0     O40355  10.133   6.083   9.545 -0.0114 -0.0052 -0.4787
  293MOL0     C40356  10.210   6.013   9.449 -0.2074  0.1936  0.1204
  293MOL0     C40357  10.353   5.993   9.496 -0.0688  0.0071 -0.7772
  293MOL0     C40358  10.363   5.941   9.642 -0.5712  0.6401 -0.2499
  293MOL0     C40359  10.265   5.825   9.669 -0.3413 -0.7992  0.5670
  293MOL0     C40360  10.254   5.793   9.814  0.6453  0.1100 -0.6229
  293MOL0     C40361  10.237   5.759   9.926  0.1525  0.8017 -0.6016
  293MOL0     C40362  10.218   6.310   9.495 -0.6580 -0.1681 -0.2834
  293MOL0     C40363  10.251   6.441   9.544  0.2535 -0.4951 -0.5193
  293MOL0     C40364  10.331   6.531   9.448 -1.1940  0.6180  0.0794
  293MOL0     H40365  10.107   6.641  10.122  0.3528 -0.9639 -1.7504
  293MOL0     H40366  10.122   6.837  10.268 -0.7492  1.8173  0.3322
  293MOL0     H40367  10.179   7.258  10.080  0.0396 -3.6866 -3.2507
  293MOL0     H40368  10.330   7.180  10.147 -0.1658  2.0753 -0.7456
  293MOL0     H40369  10.111   7.328  10.305  0.3850 -1.5221  0.4963
  293MOL0     H40370  10.244   7.245  10.379  3.7524 -5.4405 -4.4080
  293MOL0     H40371  10.406   7.387  10.291 -0.1963  0.4163  0.8325
  293MOL0     H40372  10.302   7.455  10.163  1.5285 -3.8823 -2.0394
  293MOL0     H40373  10.157   7.544  10.376  0.5079 -0.7990  1.2725
  293MOL0     H40374  10.311   7.527  10.460 -2.3374 -2.6811  0.2594
  293MOL0     H40375  10.293   7.684  10.208  1.7339  1.2321 -0.7187
  293MOL0     H40376  10.412   7.692  10.344 -0.3110 -0.0496  1.1654
  293MOL0     H40377  10.114   7.769  10.410 -0.0033  0.6720  2.7197
  293MOL0     H40378  10.260   7.796  10.494 -1.0455  0.1302  0.1267
  293MOL0     H40379  10.155   7.984  10.349 -0.0803  0.4656  0.3133
  293MOL0     H40380  10.241   7.923  10.219  1.9159  0.2032  0.8546
  293MOL0     H40381  10.353   8.019  10.494  0.2693  2.9820 -0.7697
  293MOL0     H40382  10.447   7.918  10.385 -3.1311 -2.3493  1.4047
  293MOL0     H40383  10.435   8.001  10.125 -1.5129 -1.2177  2.4864
  293MOL0     H40384  10.577   8.262   9.952 -0.1456  1.5965  0.0646
  293MOL0     H40385  10.473   8.383   9.978 -1.0365  0.7899 -2.6459
  293MOL0     H40386  10.423   8.271   9.761  0.4384 -0.2308  0.3155
  293MOL0     H40387  10.439   8.121   9.837  0.4472 -0.1034  0.0910
  293MOL0     H40388  10.223   8.210   9.972 -1.8949 -1.3084  0.0320
  293MOL0     H40389  10.240   8.341   9.844 -1.0006 -0.9195 -1.5819
  293MOL0     H40390  10.071   8.179   9.771 -0.3224 -3.3169 -2.2522
  293MOL0     H40391  10.206   8.184   9.656  0.2511  1.7373 -0.6124
  293MOL0     H40392  10.037   8.056   9.975 -1.9127  1.5557 -2.0627
  293MOL0     H40393   9.829   8.034  10.080  0.7981  0.5774  0.5343
  293MOL0     H40394   9.874   7.905  10.182 -0.7380 -3.1532  0.1564
  293MOL0     H40395   9.733   7.889  10.074  0.5570 -0.2706 -3.0626
  293MOL0     H40396   9.835   7.367  10.059  0.5099  1.4345 -0.1954
  293MOL0     H40397   9.722   7.146  10.055 -0.1691 -0.7546 -1.4003
  293MOL0     H40398   9.552   6.865   9.800  2.3156 -0.6063  2.5727
  293MOL0     H40399   9.582   6.994   9.688 -1.7221  0.1553  0.5131
  293MOL0     H40400   9.788   6.839   9.729  3.4237 -1.1532  1.8255
  293MOL0     H40401   9.822   7.002   9.779 -3.8086  1.8981  0.6352
  293MOL0     H40402   9.826   6.963  10.002  1.9342 -0.2820  0.6221
  293MOL0     H40403   9.906   6.832   9.917 -1.4037 -0.8474 -1.8048
  293MOL0     H40404   9.632   6.809  10.029  0.0209 -0.4943 -0.5822
  293MOL0     H40405   9.779   6.779  10.125  1.3111  0.9051  0.0537
  293MOL0     H40406   9.725   6.633   9.854  1.3532 -1.2981 -0.0223
  293MOL0     H40407   9.842   6.598   9.979  2.3107  3.2857  1.0059
  293MOL0     H40408   9.538   6.603  10.018  1.6285  4.8060  2.9210
  293MOL0     H40409   9.660   6.561  10.142  0.6419 -0.7990  0.3658
  293MOL0     H40410   9.542   6.423   9.920 -2.0942  3.2234  1.9662
  293MOL0     H40411   9.569   6.358  10.077 -1.6985  2.3274 -0.0954
  293MOL0     H40412   9.786   6.380   9.881 -2.6572  2.3109 -0.2774
  293MOL0     H40413   9.710   6.233   9.929  2.7544 -0.8925  0.0580
  293MOL0     H40414   9.526   7.234   9.681 -0.7856 -0.8830  0.4606
  293MOL0     H40415   9.636   7.454   9.684 -0.2185 -0.6627  0.4655
  293MOL0     H40416   9.996   7.609   9.751  1.5400  2.2678 -3.5570
  293MOL0     H40417  10.163   7.768   9.685 -0.1183  3.4592 -0.7873
  293MOL0     H40418  10.258   7.077   9.922 -2.7292  1.4265 -0.3194
  293MOL0     H40419  10.254   6.874   9.790 -1.5527  3.5358 -0.5877
  293MOL0     H40420  10.089   6.405   9.843  2.0488 -2.1267  0.0060
  293MOL0     H40421  10.078   6.168   9.754 -0.5412 -0.7380 -0.9024
  293MOL0     H40422  10.168   5.917   9.419 -4.0821  2.2628 -1.8604
  293MOL0     H40423  10.213   6.069   9.356 -2.0763 -1.6557 -1.1378
  293MOL0     H40424  10.407   6.088   9.492 -0.4661  0.2722 -0.1354
  293MOL0     H40425  10.402   5.931   9.421  1.9975  1.7782 -0.9891
  293MOL0     H40426  10.465   5.906   9.664 -1.3348 -1.3138  0.3466
  293MOL0     H40427  10.336   6.019   9.714  2.0505  1.9410 -0.5351
  293MOL0     H40428  10.295   5.741   9.607  2.7190  0.6056 -0.0036
  293MOL0     H40429  10.168   5.856   9.628  0.0723 -3.0300 -2.4324
  293MOL0     H40430  10.233   5.738  10.031  1.7828 -0.2816 -0.7215
  293MOL0     H40431  10.255   6.293   9.394  1.1292  0.6316  0.1996
  293MOL0     H40432  10.415   6.586   9.490 -0.9443  0.8974 -0.7675
  293MOL0     H40433  10.385   6.473   9.372  0.0543 -0.0548  1.4385
  293MOL0     H40434  10.260   6.598   9.399 -1.5325  0.8763  0.8994
  294MOL0     O40435   9.549   2.632   0.644  0.0580 -0.0659 -0.1091
  294MOL0     C40436   9.640   2.545   0.662 -1.4299 -1.3855  0.1607
  294MOL0     O40437   9.625   2.413   0.706 -0.3265  0.2476  0.1823
  294MOL0     C40438   9.512   2.360   0.777 -0.7215 -0.0121 -0.2322
  294MOL0     C40439   9.405   2.436   0.822 -0.0323 -1.1492  1.6134
  294MOL0     C40440   9.298   2.370   0.895  0.1087 -0.3396  0.4624
  294MOL0     C40441   9.305   2.237   0.932  1.0935 -0.0670 -0.3287
  294MOL0     O40442   9.193   2.175   0.989  0.6749 -0.4975  0.1409
  294MOL0     C40443   9.153   2.211   1.120  0.2378  0.2063 -0.2710
  294MOL0     C40444   9.209   2.116   1.220 -0.7305  0.0790  0.6369
  294MOL0     C40445   9.159   2.146   1.367 -0.6706 -0.8359  0.0703
  294MOL0     C40446   9.208   2.034   1.458  0.4011  0.0930 -0.4463
  294MOL0     C40447   9.166   2.041   1.610 -0.1264 -0.1732 -0.5273
  294MOL0     C40448   9.018   2.001   1.619  0.4395  0.5672  0.5484
  294MOL0     C40449   8.949   2.027   1.753  0.3299 -0.5236 -0.0069
  294MOL0     C40450   8.796   2.038   1.759 -0.2196  0.7199  0.5189
  294MOL0     N40451   8.737   2.069   1.883 -0.0600  0.3328 -0.3054
  294MOL0     C40452   8.777   2.023   2.004 -0.6156 -0.3148  0.5992
  294MOL0     C40453   8.702   2.091   2.093 -0.0549 -1.0798 -0.7877
  294MOL0     C40454   8.716   2.082   2.243 -0.3747  0.5241  0.1545
  294MOL0     C40455   8.575   2.050   2.297 -0.6025 -0.5960 -1.1765
  294MOL0     C40456   8.569   1.978   2.443 -0.5280  0.4765 -0.0373
  294MOL0     C40457   8.537   2.071   2.554 -0.3651 -0.4000  0.1225
  294MOL0     O40458   8.527   2.016   2.687 -0.6034 -0.0330  0.5543
  294MOL0     C40459   8.500   2.102   2.792 -0.6736 -0.0667 -0.0380
  294MOL0     C40460   8.551   2.058   2.914  0.8205  0.5147 -0.3812
  294MOL0     C40461   8.527   2.133   3.039 -1.2412 -1.0949  0.0013
  294MOL0     C40462   8.598   2.083   3.160  0.1452 -0.8368 -0.0779
  294MOL0     C40463   8.448   2.248   3.035  0.0715  0.7632 -0.2891
  294MOL0     C40464   8.423   2.337   3.152 -0.3610  0.4233 -0.3902
  294MOL0     O40465   8.496   2.313   3.268 -0.5754 -0.7567  0.1579
  294MOL0     C40466   8.473   2.387   3.383  0.6462 -0.8783 -0.5709
  294MOL0     C40467   8.410   2.313   3.483  0.3509  0.0128 -0.7967
  294MOL0     C40468   8.366   2.377   3.596 -0.4332 -0.6830 -0.1711
  294MOL0     C40469   8.379   2.513   3.620  0.7111 -1.5172 -0.4905
  294MOL0     O40470   8.346   2.566   3.736 -0.2367  0.2448 -0.8455
  294MOL0     C40471   8.295   2.703   3.759 -0.4651 -1.1018 -0.0861
  294MOL0     C40472   8.420   2.783   3.808 -0.3549  1.0277 -0.0741
  294MOL0     C40473   8.387   2.920   3.864 -0.5991 -0.7699  0.1519
  294MOL0     C40474   8.499   2.970   3.957  0.9637 -0.1927 -0.2235
  294MOL0     C40475   8.470   3.115   4.016  1.0242 -0.4169 -0.6431
  294MOL0     C40476   8.340   3.129   4.096  0.1363  0.8585  0.3616
  294MOL0     C40477   8.326   3.265   4.173  0.4999  0.8034 -0.4254
  294MOL0     C40478   8.358   3.250   4.321  0.7241 -0.3025  0.5663
  294MOL0    Cl40479   8.393   3.415   4.394  0.0798  0.1940  0.4837
  294MOL0     C40480   8.438   2.593   3.514 -1.2605  0.4169 -0.4129
  294MOL0     C40481   8.478   2.531   3.396 -0.5043  0.9765  0.5504
  294MOL0     O40482   8.336   2.423   3.145  0.3771  0.2325 -0.0284
  294MOL0     C40483   8.402   2.277   2.907  0.4252  0.5066 -0.5462
  294MOL0     C40484   8.416   2.207   2.794 -0.6099 -0.1509  1.0770
  294MOL0     N40485   8.618   2.176   2.024 -0.3833  1.3116 -0.9415
  294MOL0     N40486   8.637   2.162   1.899  1.0100  0.3066  0.1925
  294MOL0     C40487   9.410   2.163   0.875 -0.0514 -1.1424  0.0373
  294MOL0     C40488   9.506   2.224   0.800 -0.4298 -0.3748  0.6301
  294MOL0     C40489   9.773   2.594   0.641  0.1912 -0.5382  0.4882
  294MOL0     C40490   9.838   2.689   0.725  0.7156 -0.3461  0.5510
  294MOL0     C40491   9.974   2.720   0.714 -0.0975  0.2946  0.6291
  294MOL0     C40492  10.044   2.665   0.606  0.6831  0.0309 -0.9542
  294MOL0     O40493  10.172   2.678   0.591 -0.8817  0.2708 -0.3501
  294MOL0     C40494  10.240   2.792   0.653  1.0837  0.5189  1.3456
  294MOL0     C40495  10.293   2.791   0.799  0.9187  1.2515 -0.1997
  294MOL0     C40496  10.395   2.684   0.812  1.0479  0.4670  0.5838
  294MOL0     C40497  10.430   2.640   0.961  0.2053  0.0937  0.0946
  294MOL0     C40498  10.508   2.743   1.042 -0.1592 -0.8391 -0.2750
  294MOL0     C40499  10.570   2.830   1.101  0.8055  0.2756 -0.3398
  294MOL0     C40500   9.975   2.590   0.508 -0.5100 -0.6685 -0.6340
  294MOL0     C40501   9.844   2.559   0.525  0.3692  0.1405  0.2132
  294MOL0     C40502   9.776   2.464   0.429  0.6878  0.5782  1.0311
  294MOL0     H40503   9.402   2.545   0.827 -1.2035 -1.1847  2.0548
  294MOL0     H40504   9.213   2.433   0.920 -0.9076 -0.3457 -2.5321
  294MOL0     H40505   9.044   2.218   1.118  0.1111 -1.0433 -3.1396
  294MOL0     H40506   9.198   2.309   1.138 -1.1968  1.2554 -2.0873
  294MOL0     H40507   9.159   2.020   1.202  0.1504  0.0532 -2.0301
  294MOL0     H40508   9.316   2.096   1.217 -0.7322 -1.0222  3.9875
  294MOL0     H40509   9.196   2.242   1.405 -1.8153 -0.1436 -0.4999
  294MOL0     H40510   9.051   2.153   1.354 -0.5392  0.1327 -0.6157
  294MOL0     H40511   9.188   1.937   1.411 -1.5009 -0.2962  1.0342
  294MOL0     H40512   9.317   2.037   1.453  0.4521 -0.8860 -0.1799
  294MOL0     H40513   9.175   2.146   1.641 -1.7418  0.3834 -1.7631
  294MOL0     H40514   9.227   1.979   1.676  1.5786  0.5489 -1.3771
  294MOL0     H40515   8.967   2.074   1.556  0.7703  3.4515  3.3389
  294MOL0     H40516   9.015   1.899   1.578  1.4563 -0.0640  1.9577
  294MOL0     H40517   8.993   2.115   1.802 -1.1645  0.1191  0.2310
  294MOL0     H40518   8.965   1.943   1.822 -0.1281  0.0892  0.8615
  294MOL0     H40519   8.768   2.121   1.694 -1.9038 -1.9215 -2.3917
  294MOL0     H40520   8.741   1.950   1.724  1.2301 -0.1583  0.3193
  294MOL0     H40521   8.852   1.948   2.026 -1.1912 -0.6290  1.5257
  294MOL0     H40522   8.753   2.166   2.303  1.5103 -0.2536  0.1569
  294MOL0     H40523   8.786   1.999   2.255  0.0184  0.2282 -3.3059
  294MOL0     H40524   8.525   2.148   2.297  2.3724  1.0335 -1.0076
  294MOL0     H40525   8.521   1.988   2.226  0.4575 -1.1968 -1.4692
  294MOL0     H40526   8.503   1.892   2.428 -0.1177  0.3268 -1.1200
  294MOL0     H40527   8.658   1.920   2.468 -2.5361 -2.3992  0.9479
  294MOL0     H40528   8.617   2.146   2.555 -1.2630  0.6893 -2.4521
  294MOL0     H40529   8.446   2.129   2.544  1.3675  2.2308 -1.6653
  294MOL0     H40530   8.619   1.974   2.916 -0.8336 -0.8751  0.4373
  294MOL0     H40531   8.683   2.153   3.159 -1.7447  1.5961 -0.4442
  294MOL0     H40532   8.631   1.980   3.146 -0.4688 -1.7259  3.8376
  294MOL0     H40533   8.537   2.084   3.250 -1.7576 -0.7477 -1.3123
  294MOL0     H40534   8.405   2.207   3.459  0.5078 -0.0610 -0.5123
  294MOL0     H40535   8.324   2.312   3.673  0.5377 -0.1708  0.8274
  294MOL0     H40536   8.267   2.760   3.670 -0.2906  2.0815  1.7702
  294MOL0     H40537   8.210   2.709   3.827 -0.6752  0.9689 -0.4821
  294MOL0     H40538   8.465   2.723   3.888  0.0169  1.3228 -0.0597
  294MOL0     H40539   8.490   2.785   3.724 -1.1277  1.5744 -0.7216
  294MOL0     H40540   8.299   2.910   3.928  0.4608  1.3771  2.1038
  294MOL0     H40541   8.358   2.990   3.785 -1.8364 -0.4886  0.8186
  294MOL0     H40542   8.588   2.984   3.896  0.0928  0.6375 -1.3564
  294MOL0     H40543   8.510   2.889   4.029 -4.2946 -0.8888  0.1804
  294MOL0     H40544   8.551   3.153   4.079 -0.8212  0.3335  1.4156
  294MOL0     H40545   8.458   3.189   3.936 -1.5401  0.1963  0.2234
  294MOL0     H40546   8.340   3.046   4.167  3.6135  0.5513  0.1772
  294MOL0     H40547   8.251   3.117   4.033  0.6399 -0.8757 -0.0759
  294MOL0     H40548   8.218   3.283   4.171 -0.1006 -2.1863  0.1294
  294MOL0     H40549   8.381   3.342   4.118 -1.3109  2.8688  0.5030
  294MOL0     H40550   8.449   3.190   4.314  0.9265 -0.1003  1.3519
  294MOL0     H40551   8.287   3.190   4.379  0.3265 -3.9646 -3.2545
  294MOL0     H40552   8.460   2.699   3.528 -1.8042  0.2006  3.0220
  294MOL0     H40553   8.527   2.588   3.318 -0.9181 -2.3952 -2.4134
  294MOL0     H40554   8.342   2.367   2.896  0.6544  1.0231  1.9074
  294MOL0     H40555   8.360   2.242   2.708 -3.9658 -2.0434  2.3177
  294MOL0     H40556   9.403   2.060   0.910 -1.0304 -1.0033  0.2952
  294MOL0     H40557   9.594   2.163   0.777  0.0467  0.9613 -1.2712
  294MOL0     H40558   9.805   2.706   0.827  2.2468 -0.7320  1.1295
  294MOL0     H40559  10.021   2.787   0.785  0.6274 -0.1847  0.6180
  294MOL0     H40560  10.325   2.797   0.584  0.6422  2.0293  0.8925
  294MOL0     H40561  10.168   2.872   0.633 -2.3558 -2.1721  2.0000
  294MOL0     H40562  10.203   2.765   0.856  1.5854 -0.0036  0.3272
  294MOL0     H40563  10.326   2.892   0.827 -2.3459  2.5421 -0.6213
  294MOL0     H40564  10.369   2.601   0.745  2.6900  0.9084 -0.6925
  294MOL0     H40565  10.486   2.729   0.771 -1.6170  3.5933 -2.5694
  294MOL0     H40566  10.478   2.542   0.961 -1.1331 -0.6025  1.4701
  294MOL0     H40567  10.334   2.627   1.011 -0.3532 -1.7044 -1.3237
  294MOL0     H40568  10.614   2.908   1.159 -1.4880  0.5901  1.0795
  294MOL0     H40569  10.025   2.542   0.425 -1.2293 -1.1888 -0.7816
  294MOL0     H40570   9.848   2.449   0.349  1.5421  0.4630  1.8045
  294MOL0     H40571   9.760   2.368   0.479  1.0629  1.1884  2.3763
  294MOL0     H40572   9.681   2.500   0.387  0.0864  0.7097  2.4465
  295MOL0     O40573   1.286   5.853   2.675  0.1142  0.6194 -0.1650
  295MOL0     C40574   1.197   5.852   2.755  0.5850 -1.0277 -0.1381
  295MOL0     O40575   1.190   5.766   2.862 -0.0395 -0.5341  0.3745
  295MOL0     C40576   1.305   5.689   2.891 -0.4696 -0.2730  0.8414
  295MOL0     C40577   1.394   5.735   2.991 -0.2007 -0.0977  0.1297
  295MOL0     C40578   1.510   5.658   3.024  0.5446  0.6048  0.4484
  295MOL0     C40579   1.542   5.548   2.945  0.0470  0.6653 -0.2044
  295MOL0     O40580   1.660   5.482   2.969  0.1028  0.1563  0.2187
  295MOL0     C40581   1.651   5.363   3.047  0.7138 -0.4721 -0.6078
  295MOL0     C40582   1.651   5.242   2.943  0.1948  0.7846  0.7034
  295MOL0     C40583   1.655   5.115   3.031 -0.6079  0.2397 -0.7721
  295MOL0     C40584   1.688   4.997   2.940  0.1549 -0.1446  0.0668
  295MOL0     C40585   1.698   4.872   3.015 -0.5859  0.5043  0.7920
  295MOL0     C40586   1.694   4.744   2.920  0.1893 -0.2548 -1.0139
  295MOL0     C40587   1.714   4.613   2.990  0.3501 -0.2683 -1.2760
  295MOL0     C40588   1.695   4.498   2.895  0.9049  0.7573 -0.4509
  295MOL0     N40589   1.751   4.371   2.941 -0.0705  0.5668  0.3653
  295MOL0     C40590   1.796   4.338   3.064 -0.8395 -0.1879  0.8873
  295MOL0     C40591   1.856   4.214   3.050  0.7397 -0.5026 -0.7417
  295MOL0     C40592   1.897   4.120   3.163  0.3402  0.0328  0.8490
  295MOL0     C40593   2.033   4.064   3.136 -0.7749 -0.8650  0.2745
  295MOL0     C40594   2.073   3.959   3.233  0.1349 -0.5988  0.3374
  295MOL0     C40595   2.207   3.895   3.193  0.0747 -0.1223 -0.9586
  295MOL0     O40596   2.302   3.995   3.190 -0.3565 -0.4147  0.2764
  295MOL0     C40597   2.433   3.968   3.151 -0.4543  0.0909  1.0379
  295MOL0     C40598   2.530   4.072   3.160  0.6312 -0.4801 -0.3427
  295MOL0     C40599   2.664   4.055   3.119  0.0946  0.6829 -0.7175
  295MOL0     C40600   2.748   4.188   3.127  0.5468 -0.3344 -0.1663
  295MOL0     C40601   2.695   3.926   3.065 -0.0375 -0.4337  0.0043
  295MOL0     C40602   2.828   3.920   3.026 -0.2634  0.4590 -0.1386
  295MOL0     O40603   2.874   4.023   2.936 -0.5595  0.5406  0.2999
  295MOL0     C40604   3.005   4.003   2.898  0.3158  0.1135  0.1231
  295MOL0     C40605   3.109   4.018   2.994 -0.2975 -0.1952  0.3685
  295MOL0     C40606   3.237   3.984   2.958 -0.0640  0.2279  0.8937
  295MOL0     C40607   3.267   3.929   2.833  0.1375 -0.5105 -0.7801
  295MOL0     O40608   3.394   3.902   2.790  0.2135 -0.2091 -0.5658
  295MOL0     C40609   3.494   3.998   2.831 -0.3781 -0.0384  0.0588
  295MOL0     C40610   3.624   3.954   2.760  0.6026 -0.0243 -0.2456
  295MOL0     C40611   3.630   4.002   2.615  0.2788 -0.6560  0.1307
  295MOL0     C40612   3.770   3.997   2.552 -0.8873  0.7424  0.5280
  295MOL0     C40613   3.777   3.972   2.403  0.4558 -0.4084  0.3129
  295MOL0     C40614   3.918   3.958   2.346  0.0473  0.2426  0.4462
  295MOL0     C40615   3.897   3.871   2.214 -0.1621 -0.4263  0.7724
  295MOL0     C40616   4.020   3.878   2.119 -0.7368  0.3285 -0.3254
  295MOL0    Cl40617   4.051   4.045   2.085  0.2969  0.1845  0.4468
  295MOL0     C40618   3.165   3.915   2.742  0.9115 -0.0033  1.1598
  295MOL0     C40619   3.029   3.950   2.776 -0.0743 -1.1580  0.8237
  295MOL0     O40620   2.899   3.830   3.070 -0.8716  0.2940 -0.8164
  295MOL0     C40621   2.606   3.813   3.060 -0.3544 -0.1500 -0.3364
  295MOL0     C40622   2.473   3.843   3.095  0.7771 -0.0656  0.8068
  295MOL0     N40623   1.856   4.193   2.919 -0.1404  0.1229  1.3676
  295MOL0     N40624   1.782   4.276   2.855 -0.4012  0.2313 -0.6623
  295MOL0     C40625   1.451   5.502   2.845 -0.3753  0.0848 -0.5268
  295MOL0     C40626   1.334   5.566   2.830  0.3228  0.7148 -0.5858
  295MOL0     C40627   1.086   5.949   2.724  0.0293  0.1515 -0.4686
  295MOL0     C40628   1.105   6.045   2.625  0.1350 -0.5369 -0.7185
  295MOL0     C40629   1.001   6.130   2.592  0.3770  0.1029 -0.3069
  295MOL0     C40630   0.886   6.145   2.671  0.4567  0.6546 -0.3610
  295MOL0     O40631   0.782   6.232   2.660  0.6962 -0.2827 -0.5422
  295MOL0     C40632   0.791   6.339   2.566  1.0794 -0.2798 -0.6608
  295MOL0     C40633   0.658   6.405   2.531  0.4276  0.6525  0.4916
  295MOL0     C40634   0.541   6.315   2.461 -0.3308  0.6253 -1.4480
  295MOL0     C40635   0.415   6.395   2.424 -0.1217 -0.2498  1.3519
  295MOL0     C40636   0.356   6.457   2.548 -1.6153 -0.0356 -0.3721
  295MOL0     C40637   0.315   6.526   2.643  0.2497 -0.0027 -0.1736
  295MOL0     C40638   0.872   6.060   2.781  1.0934 -0.0695 -0.0396
  295MOL0     C40639   0.968   5.965   2.802 -0.3466  0.5732 -0.2933
  295MOL0     C40640   0.939   5.865   2.917  0.0354 -0.2749  0.0867
  295MOL0     H40641   1.374   5.831   3.036 -2.1700 -1.0352  1.4299
  295MOL0     H40642   1.588   5.704   3.085  0.5727  3.5643 -1.5687
  295MOL0     H40643   1.559   5.359   3.106  1.4065 -2.9284  0.4318
  295MOL0     H40644   1.726   5.367   3.127 -0.5864 -3.3216  0.9147
  295MOL0     H40645   1.559   5.242   2.884  0.8688  0.4690 -0.3940
  295MOL0     H40646   1.736   5.235   2.874  0.1545  1.4167  0.5811
  295MOL0     H40647   1.729   5.126   3.111  0.0146 -1.0104 -1.1427
  295MOL0     H40648   1.555   5.091   3.068 -1.4295  1.4709 -2.0941
  295MOL0     H40649   1.603   4.975   2.875 -0.1302 -2.4587  1.1305
  295MOL0     H40650   1.776   5.030   2.884 -1.5046  2.3968 -1.2276
  295MOL0     H40651   1.612   4.873   3.083  0.1901  0.9182  1.7928
  295MOL0     H40652   1.786   4.872   3.080 -1.0464 -0.7888  1.4580
  295MOL0     H40653   1.598   4.739   2.869  0.3123 -0.2927 -1.2435
  295MOL0     H40654   1.772   4.750   2.843  0.9696 -1.0653 -0.3106
  295MOL0     H40655   1.648   4.600   3.076  1.7222 -2.9004 -0.5049
  295MOL0     H40656   1.814   4.596   3.031 -1.0687 -0.4532  2.4682
  295MOL0     H40657   1.587   4.487   2.886  0.3385  3.9132  0.8194
  295MOL0     H40658   1.732   4.521   2.795 -0.0834  1.6819 -0.6267
  295MOL0     H40659   1.774   4.397   3.153 -2.8052  4.6985 -2.4177
  295MOL0     H40660   1.817   4.048   3.183  0.2835 -0.1897 -0.1202
  295MOL0     H40661   1.897   4.189   3.248 -1.8697  2.7122 -1.1687
  295MOL0     H40662   2.033   4.032   3.031  1.9929  1.2782 -0.5086
  295MOL0     H40663   2.105   4.146   3.129 -3.8490  2.0387 -0.0457
  295MOL0     H40664   2.089   3.994   3.336  0.8846 -2.0380  0.7438
  295MOL0     H40665   1.995   3.883   3.230 -0.0786 -0.3435 -1.4069
  295MOL0     H40666   2.249   3.828   3.268  4.2982  2.5478 -0.6224
  295MOL0     H40667   2.206   3.848   3.094 -0.2897  1.2069 -1.6160
  295MOL0     H40668   2.506   4.166   3.207  3.3122 -1.0802  2.5752
  295MOL0     H40669   2.688   4.261   3.181  0.0709  0.5354 -1.8107
  295MOL0     H40670   2.756   4.237   3.029  1.3673  3.2556  1.5579
  295MOL0     H40671   2.850   4.177   3.166  0.4899 -1.1695 -0.2272
  295MOL0     H40672   3.093   4.041   3.099 -2.2128 -0.1533  0.1015
  295MOL0     H40673   3.322   3.997   3.024 -0.8691  0.5079  1.8979
  295MOL0     H40674   3.470   4.102   2.810  2.4880  2.0850  5.3807
  295MOL0     H40675   3.506   3.985   2.939 -0.3630 -0.0221  0.0588
  295MOL0     H40676   3.697   4.013   2.816 -2.9090  5.7591 -0.8616
  295MOL0     H40677   3.658   3.851   2.764 -0.5922 -0.5768 -2.3864
  295MOL0     H40678   3.589   4.101   2.594  0.1641 -0.1468  2.5314
  295MOL0     H40679   3.558   3.930   2.575 -0.4561  1.8603 -3.5973
  295MOL0     H40680   3.830   3.914   2.591  0.0206 -0.0490 -2.2957
  295MOL0     H40681   3.823   4.086   2.588 -0.6097  0.6720  0.2972
  295MOL0     H40682   3.729   3.873   2.397 -0.6220  0.1176 -0.0535
  295MOL0     H40683   3.723   4.047   2.344  2.4763 -0.0204 -1.1515
  295MOL0     H40684   3.977   3.899   2.417  0.5659  0.1622 -0.0390
  295MOL0     H40685   3.962   4.057   2.335 -0.1724  0.5372  2.0321
  295MOL0     H40686   3.818   3.915   2.152  1.6165  0.7557 -0.7786
  295MOL0     H40687   3.874   3.767   2.240 -0.0522 -0.2889  1.4506
  295MOL0     H40688   4.011   3.809   2.034  2.3465  0.9340 -1.2601
  295MOL0     H40689   4.102   3.849   2.185 -1.9565  1.9871  2.0604
  295MOL0     H40690   3.213   3.879   2.651 -0.3109 -1.0891  0.9078
  295MOL0     H40691   2.941   3.942   2.713 -0.1316 -0.0830  0.7454
  295MOL0     H40692   2.623   3.717   3.011 -1.4154 -0.8243  0.5583
  295MOL0     H40693   2.399   3.768   3.071  0.9699  0.1038 -0.3447
  295MOL0     H40694   1.487   5.427   2.774 -1.0507 -0.7436 -0.0166
  295MOL0     H40695   1.273   5.522   2.751 -0.7917 -1.7904  1.5148
  295MOL0     H40696   1.197   6.043   2.568  1.7616  2.9047  1.4481
  295MOL0     H40697   1.007   6.197   2.507  1.6867 -0.9922 -1.1181
  295MOL0     H40698   0.858   6.412   2.611  2.4402 -1.8905  0.0222
  295MOL0     H40699   0.838   6.300   2.475  2.4939 -2.1235  0.7893
  295MOL0     H40700   0.673   6.492   2.467 -0.7322 -0.3591 -1.2272
  295MOL0     H40701   0.629   6.453   2.625  1.3085  1.4003  0.3943
  295MOL0     H40702   0.583   6.279   2.367  0.9801  1.1403 -1.0710
  295MOL0     H40703   0.526   6.226   2.523 -0.6044 -0.1003 -2.5246
  295MOL0     H40704   0.349   6.324   2.373 -0.3080 -0.3675  1.7508
  295MOL0     H40705   0.437   6.475   2.353  1.3889 -1.8269 -0.0526
  295MOL0     H40706   0.289   6.567   2.738 -2.2896 -2.9069  0.5214
  295MOL0     H40707   0.783   6.065   2.843 -0.5048  3.6598 -2.3008
  295MOL0     H40708   0.953   5.763   2.879  2.8405 -0.1305  0.5344
  295MOL0     H40709   1.007   5.885   3.001 -0.5876 -0.1269  0.5704
  295MOL0     H40710   0.837   5.868   2.959  0.2970 -0.4331  0.7458
  296MOL0     O40711   3.383  10.826   2.623  0.7799 -0.4545 -0.2838
  296MOL0     C40712   3.360  10.939   2.657 -1.0071  0.8837  0.0520
  296MOL0     O40713   3.365  10.981   2.789  0.8163 -0.2788 -0.1639
  296MOL0     C40714   3.346  10.886   2.891  0.9882  0.6321  0.1906
  296MOL0     C40715   3.436  10.787   2.926 -0.1120  0.3987 -1.4632
  296MOL0     C40716   3.427  10.713   3.045  0.4556  0.1435  0.3875
  296MOL0     C40717   3.319  10.731   3.131  0.5016  0.6148  0.4261
  296MOL0     O40718   3.301  10.648   3.231  0.3260 -0.4187  0.1613
  296MOL0     C40719   3.222  10.680   3.342 -0.6655 -1.3769  0.0445
  296MOL0     C40720   3.323  10.648   3.463 -0.3790  0.5985  0.1839
  296MOL0     C40721   3.263  10.652   3.604  0.2991  0.4241  0.3259
  296MOL0     C40722   3.346  10.583   3.710 -1.5026  0.7131 -0.2034
  296MOL0     C40723   3.458  10.649   3.770 -0.3513  0.5065 -0.5824
  296MOL0     C40724   3.420  10.787   3.832 -0.4825  0.0510  0.7100
  296MOL0     C40725   3.505  10.856   3.932  0.4629  2.2010  0.0607
  296MOL0     C40726   3.563  10.765   4.043  0.5673  0.1789 -0.2224
  296MOL0     N40727   3.466  10.679   4.111 -0.0566 -0.0731  0.1544
  296MOL0     C40728   3.425  10.550   4.091  0.7433 -0.6148 -0.4003
  296MOL0     C40729   3.312  10.532   4.169 -1.0190 -0.7797 -0.6415
  296MOL0     C40730   3.215  10.413   4.184  0.2922  0.1764  0.4707
  296MOL0     C40731   3.224  10.336   4.317  0.3966  0.6836 -0.1926
  296MOL0     C40732   3.305  10.212   4.285 -0.0435  0.5318  0.2957
  296MOL0     C40733   3.318  10.125   4.407  0.2052 -0.2823  0.1204
  296MOL0     O40734   3.186  10.075   4.457  0.5018  0.3787 -0.7404
  296MOL0     C40735   3.182   9.949   4.510 -0.1883  0.4836  1.0778
  296MOL0     C40736   3.115   9.844   4.446 -1.0978  0.0375  0.2457
  296MOL0     C40737   3.107   9.719   4.510  0.1447  0.0515 -1.3832
  296MOL0     C40738   3.045   9.614   4.427  0.1642  0.1107  0.5949
  296MOL0     C40739   3.176   9.696   4.634  0.1730 -0.0497  0.2498
  296MOL0     C40740   3.181   9.569   4.716  0.9183 -0.3781 -0.1793
  296MOL0     O40741   3.253   9.569   4.832  0.6097 -0.3846 -0.5563
  296MOL0     C40742   3.265   9.450   4.896  0.0349 -0.6814 -0.5576
  296MOL0     C40743   3.262   9.461   5.039 -0.6694 -0.4048 -0.6045
  296MOL0     C40744   3.276   9.356   5.136  0.0371  0.3280  0.1333
  296MOL0     C40745   3.298   9.224   5.087 -0.3471  0.1164 -0.3100
  296MOL0     O40746   3.298   9.136   5.189  0.0136 -0.1269  0.0832
  296MOL0     C40747   3.305   8.991   5.152 -0.0639  0.7750  0.7215
  296MOL0     C40748   3.314   8.899   5.281  0.2174  0.4094  0.4864
  296MOL0     C40749   3.415   8.782   5.264 -0.4439 -0.7424 -0.4255
  296MOL0     C40750   3.354   8.665   5.183 -0.0046 -0.4182  0.0079
  296MOL0     C40751   3.453   8.551   5.185  0.2906  0.0465 -0.0617
  296MOL0     C40752   3.406   8.417   5.119  0.5273  0.4971 -0.6156
  296MOL0     C40753   3.481   8.288   5.148 -0.2182  0.2550 -0.5403
  296MOL0     C40754   3.390   8.171   5.139 -0.9266 -0.2240 -0.0263
  296MOL0    Cl40755   3.475   8.038   5.219  0.1324 -0.3793 -0.3600
  296MOL0     C40756   3.305   9.207   4.945  0.3402 -0.1641  0.2070
  296MOL0     C40757   3.284   9.320   4.861  0.1392 -0.8199 -0.1068
  296MOL0     O40758   3.121   9.481   4.677  1.0086  0.0282  0.5584
  296MOL0     C40759   3.233   9.810   4.701 -0.0269 -0.1170 -0.3046
  296MOL0     C40760   3.240   9.936   4.635  0.1740  0.5264  0.0915
  296MOL0     N40761   3.296  10.652   4.247 -0.2364  0.2505 -0.5057
  296MOL0     N40762   3.386  10.732   4.212 -0.4490  0.7546  0.0489
  296MOL0     C40763   3.225  10.836   3.099 -0.3311 -0.5219  0.0416
  296MOL0     C40764   3.233  10.910   2.978 -0.6057  0.1707 -0.7270
  296MOL0     C40765   3.304  11.039   2.567  0.3540  0.5859  0.9206
  296MOL0     C40766   3.342  11.171   2.578  0.2339 -0.0764 -0.5801
  296MOL0     C40767   3.290  11.269   2.506  0.2487 -0.5319  0.4253
  296MOL0     C40768   3.193  11.243   2.407  0.5575  0.4785 -0.6464
  296MOL0     O40769   3.149  11.349   2.330 -0.4683  0.3272  0.2332
  296MOL0     C40770   3.008  11.371   2.320  0.0488  0.4088  0.2212
  296MOL0     C40771   2.951  11.482   2.408 -0.0292  0.1413  0.3136
  296MOL0     C40772   2.816  11.432   2.466 -0.1841  0.3197  0.5295
  296MOL0     C40773   2.853  11.317   2.567 -0.5759  0.5379 -0.0583
  296MOL0     C40774   2.733  11.259   2.628  0.1348 -0.0603 -0.5831
  296MOL0     C40775   2.635  11.232   2.692  0.1858  0.2123 -0.0434
  296MOL0     C40776   3.159  11.103   2.386  0.8552  0.2338 -0.1343
  296MOL0     C40777   3.211  10.996   2.468 -0.2448  0.6195 -0.1609
  296MOL0     C40778   3.182  10.852   2.424  0.0570  0.8611 -0.8836
  296MOL0     H40779   3.518  10.778   2.855  1.3743 -1.5322  0.3637
  296MOL0     H40780   3.507  10.641   3.061  0.4852 -0.3444 -1.7033
  296MOL0     H40781   3.134  10.616   3.353 -1.8393 -0.2058 -1.9544
  296MOL0     H40782   3.197  10.787   3.348 -2.2871 -1.7299 -0.0993
  296MOL0     H40783   3.359  10.545   3.458 -0.1162  0.7504 -2.4714
  296MOL0     H40784   3.413  10.710   3.457 -1.0341  1.9300  2.7146
  296MOL0     H40785   3.253  10.757   3.631 -0.4595  0.9993 -2.0091
  296MOL0     H40786   3.162  10.612   3.588  0.5099 -0.1782  0.4608
  296MOL0     H40787   3.272  10.552   3.785  1.3097 -1.6188  1.8212
  296MOL0     H40788   3.395  10.496   3.664 -2.4871  1.1389 -2.1567
  296MOL0     H40789   3.540  10.667   3.700 -0.0303  1.9060  0.1006
  296MOL0     H40790   3.488  10.578   3.847 -1.0779  0.7509 -0.0581
  296MOL0     H40791   3.414  10.870   3.761  1.0437  2.7281  3.4485
  296MOL0     H40792   3.319  10.793   3.872 -1.1607 -0.5190 -0.8339
  296MOL0     H40793   3.453  10.943   3.972  1.5980  1.9439  2.2474
  296MOL0     H40794   3.592  10.893   3.876  1.5613 -1.7522 -1.1597
  296MOL0     H40795   3.640  10.702   3.997 -0.4126 -0.9590 -0.3469
  296MOL0     H40796   3.617  10.828   4.114 -0.7688  0.3181  0.7062
  296MOL0     H40797   3.453  10.476   4.016 -2.0842  0.2660 -2.4702
  296MOL0     H40798   3.216  10.346   4.097 -1.1321  1.6333 -0.7139
  296MOL0     H40799   3.115  10.457   4.177 -0.3006 -1.2372 -0.2401
  296MOL0     H40800   3.277  10.384   4.400  0.2050 -1.2200  1.0995
  296MOL0     H40801   3.125  10.320   4.360 -0.2681 -1.1868 -2.2635
  296MOL0     H40802   3.239  10.162   4.214  3.0666 -2.6352 -0.6549
  296MOL0     H40803   3.402  10.232   4.238 -1.0055  2.6659 -0.9373
  296MOL0     H40804   3.387  10.044   4.383  0.9278  0.1267  0.7849
  296MOL0     H40805   3.365  10.173   4.493  0.3350  0.8144 -0.5523
  296MOL0     H40806   3.088   9.866   4.343 -0.8779 -0.1634  0.1443
  296MOL0     H40807   2.948   9.593   4.473  0.2001  2.4986  1.9501
  296MOL0     H40808   3.104   9.523   4.435  0.2337  0.1782  0.8724
  296MOL0     H40809   3.036   9.644   4.322 -3.0581 -0.9445  0.4707
  296MOL0     H40810   3.248   9.557   5.087 -1.9502 -0.0288 -1.6537
  296MOL0     H40811   3.257   9.357   5.242 -1.7562  2.0297 -0.1651
  296MOL0     H40812   3.226   8.955   5.085  0.4640 -0.0187  0.5108
  296MOL0     H40813   3.397   8.976   5.095 -1.6767  0.4918 -1.9306
  296MOL0     H40814   3.358   8.954   5.365 -0.3878  0.3179  0.8633
  296MOL0     H40815   3.220   8.855   5.314  0.8948 -1.8806 -0.4354
  296MOL0     H40816   3.425   8.748   5.368 -1.1696  1.3353  0.3696
  296MOL0     H40817   3.508   8.826   5.229 -1.1336  2.2910  1.1935
  296MOL0     H40818   3.357   8.708   5.083  3.3435  1.4270  0.7551
  296MOL0     H40819   3.250   8.642   5.210 -1.3313  0.8080 -3.4700
  296MOL0     H40820   3.549   8.587   5.146  1.2067 -2.6193 -0.4768
  296MOL0     H40821   3.466   8.520   5.289  6.9202  0.1756 -0.4092
  296MOL0     H40822   3.395   8.434   5.011  0.4291  0.0224 -0.6805
  296MOL0     H40823   3.309   8.402   5.167  1.6259 -0.6250  1.3624
  296MOL0     H40824   3.510   8.291   5.253  0.2988 -2.7480 -0.5036
  296MOL0     H40825   3.571   8.269   5.089 -0.5923 -2.4526 -0.3508
  296MOL0     H40826   3.368   8.147   5.034  3.9755  0.9182 -1.5829
  296MOL0     H40827   3.292   8.184   5.185 -1.5192  1.0126 -1.5517
  296MOL0     H40828   3.308   9.103   4.913 -0.3098  0.3838 -1.7748
  296MOL0     H40829   3.285   9.296   4.755  1.1246 -1.6949  0.0874
  296MOL0     H40830   3.276   9.818   4.800 -0.4548 -1.4123  0.0067
  296MOL0     H40831   3.270  10.028   4.683 -0.1244  1.1742 -0.9229
  296MOL0     H40832   3.148  10.865   3.169  1.0617 -0.7528  1.7322
  296MOL0     H40833   3.161  10.987   2.956 -0.4002  0.2053 -1.2985
  296MOL0     H40834   3.418  11.191   2.654  1.1590 -4.0959 -0.2089
  296MOL0     H40835   3.317  11.373   2.522 -0.1670 -0.1276 -1.2382
  296MOL0     H40836   2.976  11.403   2.221 -2.4946  1.1923  1.2332
  296MOL0     H40837   2.952  11.278   2.330  0.5580  0.0753 -0.0191
  296MOL0     H40838   2.917  11.561   2.340  1.9791 -1.8251 -3.2466
  296MOL0     H40839   3.026  11.515   2.479  2.3807 -3.7043 -0.1471
  296MOL0     H40840   2.760  11.514   2.512 -1.2867  0.8037 -1.5394
  296MOL0     H40841   2.753  11.388   2.388  0.0165  0.0656  0.5112
  296MOL0     H40842   2.912  11.358   2.650  1.7350 -2.5594 -0.0073
  296MOL0     H40843   2.914  11.238   2.523 -0.8739  0.3764 -0.1810
  296MOL0     H40844   2.543  11.204   2.738  1.1245 -2.0991  0.5659
  296MOL0     H40845   3.090  11.070   2.308 -0.0164 -2.4562  1.6373
  296MOL0     H40846   3.100  10.845   2.352 -1.8627  0.7707  1.1799
  296MOL0     H40847   3.270  10.803   2.382  0.1912 -0.7564  1.0874
  296MOL0     H40848   3.155  10.792   2.512 -0.5244 -0.1161 -1.7081
  297MOL0     O40849   2.717   2.605   7.732 -0.4166 -0.0065 -0.0839
  297MOL0     C40850   2.799   2.535   7.783 -1.4032 -0.4040 -0.4550
  297MOL0     O40851   2.784   2.437   7.876 -0.9395  0.4876 -0.8230
  297MOL0     C40852   2.672   2.412   7.966  0.0908 -0.0324  0.6210
  297MOL0     C40853   2.568   2.508   7.976  0.9884  0.0682  0.4778
  297MOL0     C40854   2.461   2.483   8.072 -0.7431 -1.0839 -0.1251
  297MOL0     C40855   2.470   2.390   8.169  0.2212  0.1835  0.0601
  297MOL0     O40856   2.377   2.392   8.269  1.1541 -0.1014  1.2981
  297MOL0     C40857   2.296   2.274   8.280 -0.2833 -1.1321  0.8081
  297MOL0     C40858   2.146   2.303   8.305  0.2422 -0.7048  0.1974
  297MOL0     C40859   2.057   2.172   8.309  0.1355  0.5683 -0.1434
  297MOL0     C40860   1.927   2.200   8.377  0.3707  0.2884  0.5400
  297MOL0     C40861   1.919   2.132   8.518 -0.0150 -0.4523  0.0673
  297MOL0     C40862   2.007   2.197   8.630 -0.9997 -1.2184  0.0647
  297MOL0     C40863   2.004   2.144   8.765 -0.3272  0.0563 -0.2324
  297MOL0     C40864   2.017   1.999   8.792 -0.3775 -0.4672 -0.9014
  297MOL0     N40865   2.145   1.953   8.759 -0.2970  0.4115  0.1713
  297MOL0     C40866   2.191   1.912   8.640 -0.5105  0.5654  0.5785
  297MOL0     C40867   2.325   1.899   8.665  1.0996 -0.4850  0.5737
  297MOL0     C40868   2.442   1.878   8.565 -0.4179  0.7885  0.7219
  297MOL0     C40869   2.492   1.996   8.477 -0.1524 -0.5594 -0.5764
  297MOL0     C40870   2.530   2.112   8.560 -0.4173  0.5605  0.7945
  297MOL0     C40871   2.647   2.079   8.644  0.7109 -0.2709  0.3738
  297MOL0     O40872   2.774   2.043   8.581 -0.3659 -0.5050 -0.6918
  297MOL0     C40873   2.829   2.136   8.488 -0.1214 -0.2284  0.4913
  297MOL0     C40874   2.811   2.273   8.504 -0.2157  0.2364 -0.5533
  297MOL0     C40875   2.863   2.360   8.421 -0.2490  0.2083 -0.1265
  297MOL0     C40876   2.824   2.506   8.435 -0.1141  0.4290  0.5132
  297MOL0     C40877   2.958   2.312   8.319  1.3069  0.3685  0.4201
  297MOL0     C40878   3.049   2.406   8.243  0.1168 -0.5224  0.0218
  297MOL0     O40879   3.139   2.343   8.160  0.0919  0.1876  0.0734
  297MOL0     C40880   3.232   2.424   8.099  0.4541  0.6151 -0.3294
  297MOL0     C40881   3.362   2.385   8.109  0.3315  0.0040  0.0127
  297MOL0     C40882   3.461   2.476   8.067 -0.2297 -0.5284 -0.6168
  297MOL0     C40883   3.429   2.595   8.006  0.6144  0.2767  0.3412
  297MOL0     O40884   3.509   2.686   7.941 -0.6533  0.3747  0.1145
  297MOL0     C40885   3.624   2.742   8.008  0.0629  0.3744 -0.6455
  297MOL0     C40886   3.730   2.784   7.900  0.4097  0.0191  0.6264
  297MOL0     C40887   3.840   2.883   7.937 -0.8273  0.5386 -0.0130
  297MOL0     C40888   3.936   2.829   8.047  0.0386  0.4182  0.8390
  297MOL0     C40889   4.002   2.691   8.003  0.6111 -0.5633 -0.1980
  297MOL0     C40890   4.102   2.706   7.887 -0.8616 -0.0262 -0.6986
  297MOL0     C40891   4.168   2.577   7.836 -0.3870  0.3069  0.1955
  297MOL0     C40892   4.280   2.596   7.739  0.0027  0.1726 -0.8090
  297MOL0    Cl40893   4.235   2.681   7.597 -0.2506 -0.1100 -0.0355
  297MOL0     C40894   3.295   2.629   7.992 -0.7316  0.4855  0.0859
  297MOL0     C40895   3.194   2.550   8.045  0.5334  0.5792 -0.3610
  297MOL0     O40896   3.064   2.521   8.293  0.3410  0.3376 -0.1339
  297MOL0     C40897   2.990   2.175   8.312 -0.6236 -1.3333 -0.4454
  297MOL0     C40898   2.930   2.089   8.400 -0.2758  0.1952 -0.1323
  297MOL0     N40899   2.353   1.924   8.793  0.2538  0.4611  0.1489
  297MOL0     N40900   2.242   1.961   8.849 -0.4215 -0.1173  0.5632
  297MOL0     C40901   2.579   2.306   8.173  0.7548  0.4582 -0.4270
  297MOL0     C40902   2.671   2.315   8.074 -0.2358 -0.2536  0.6546
  297MOL0     C40903   2.938   2.552   7.739 -0.0845 -0.4174  0.4107
  297MOL0     C40904   2.960   2.683   7.679 -0.0313 -0.1140  0.3190
  297MOL0     C40905   3.079   2.713   7.614 -0.0936 -1.1476 -0.6789
  297MOL0     C40906   3.189   2.632   7.637  0.3480 -0.4422 -0.3091
  297MOL0     O40907   3.302   2.701   7.602 -0.2963 -0.7064 -0.9241
  297MOL0     C40908   3.423   2.624   7.612  0.4476  0.3480 -0.1386
  297MOL0     C40909   3.442   2.531   7.485 -0.0193  0.7335  0.2509
  297MOL0     C40910   3.415   2.606   7.354  0.8899 -0.4833 -0.5334
  297MOL0     C40911   3.467   2.549   7.226 -0.2156  0.0736 -0.8778
  297MOL0     C40912   3.418   2.413   7.211 -0.2088  0.8319  0.6866
  297MOL0     C40913   3.379   2.303   7.191  0.0603  1.0406 -0.4122
  297MOL0     C40914   3.172   2.503   7.701 -0.1075 -0.7620  0.3164
  297MOL0     C40915   3.048   2.466   7.747  0.5147 -0.5325 -0.9765
  297MOL0     C40916   3.043   2.325   7.793 -0.3475 -0.1394  0.8534
  297MOL0     H40917   2.559   2.590   7.906 -5.0697 -2.7063 -2.8041
  297MOL0     H40918   2.389   2.564   8.076  0.4783  0.1220 -1.4782
  297MOL0     H40919   2.337   2.202   8.351  0.4563 -1.2296  0.3047
  297MOL0     H40920   2.292   2.215   8.188  2.2065 -3.3918  2.0103
  297MOL0     H40921   2.151   2.342   8.407  1.3087  1.0528 -0.4759
  297MOL0     H40922   2.107   2.377   8.234  0.3385  1.3506  2.1592
  297MOL0     H40923   2.044   2.136   8.206  2.4786 -1.7922  0.2616
  297MOL0     H40924   2.121   2.099   8.359 -0.4167  0.0774 -0.1388
  297MOL0     H40925   1.912   2.308   8.381  0.0831  0.6353 -4.1979
  297MOL0     H40926   1.850   2.160   8.310 -0.5200  1.0263  1.1050
  297MOL0     H40927   1.923   2.024   8.502 -1.7926 -0.3646 -1.3122
  297MOL0     H40928   1.818   2.160   8.549 -0.0317 -0.4871  0.0433
  297MOL0     H40929   2.113   2.197   8.603 -0.7213  1.1363  0.9291
  297MOL0     H40930   1.975   2.301   8.636  0.1123 -0.8521 -0.1570
  297MOL0     H40931   1.906   2.175   8.805 -0.1706  2.6279 -1.6160
  297MOL0     H40932   2.081   2.187   8.830 -2.3839  0.3656  2.1694
  297MOL0     H40933   2.015   1.995   8.901  1.7585  5.4132 -0.2307
  297MOL0     H40934   1.942   1.930   8.752 -3.1291 -0.2938  3.3330
  297MOL0     H40935   2.136   1.897   8.547  1.0030 -1.2517 -0.0739
  297MOL0     H40936   2.412   1.806   8.488  3.6492  0.1516 -0.5148
  297MOL0     H40937   2.522   1.826   8.617 -1.3595 -2.1449 -0.5635
  297MOL0     H40938   2.566   1.978   8.399  0.0532  1.0761 -0.7999
  297MOL0     H40939   2.398   2.030   8.432 -0.7885  2.6620  2.6951
  297MOL0     H40940   2.568   2.196   8.502 -1.0480  0.4620  0.2323
  297MOL0     H40941   2.448   2.152   8.619  0.2645 -0.8609  2.8410
  297MOL0     H40942   2.666   2.167   8.706 -2.5894  1.0849 -0.3547
  297MOL0     H40943   2.633   2.004   8.723 -2.3143  0.3131  0.4897
  297MOL0     H40944   2.749   2.307   8.586  0.0075 -0.9234  0.1173
  297MOL0     H40945   2.895   2.543   8.510  0.2130 -2.4378  1.7799
  297MOL0     H40946   2.721   2.520   8.468 -1.7808 -4.0976 -1.7885
  297MOL0     H40947   2.834   2.552   8.336  0.5023 -1.5969 -0.4235
  297MOL0     H40948   3.380   2.287   8.151 -0.0759  0.6693  1.8072
  297MOL0     H40949   3.568   2.456   8.077 -0.3520 -0.2084  1.9865
  297MOL0     H40950   3.592   2.830   8.065 -2.5656 -0.9449  0.1125
  297MOL0     H40951   3.665   2.667   8.076 -2.4784 -1.5960 -1.1356
  297MOL0     H40952   3.767   2.689   7.860 -3.2200 -1.2919 -0.0384
  297MOL0     H40953   3.678   2.832   7.816  0.7157  0.2827  0.5881
  297MOL0     H40954   3.780   2.966   7.975 -1.9918 -0.7713  1.1207
  297MOL0     H40955   3.899   2.909   7.849  0.3413  0.1655  0.6372
  297MOL0     H40956   3.872   2.799   8.130  1.4919 -0.5184  1.6617
  297MOL0     H40957   4.007   2.905   8.080 -1.4179  1.4904  1.5804
  297MOL0     H40958   4.062   2.664   8.090  0.9505 -0.3421 -0.3587
  297MOL0     H40959   3.929   2.614   7.978 -1.0557 -0.0428  2.6831
  297MOL0     H40960   4.177   2.778   7.922 -0.0901  0.6111 -3.4253
  297MOL0     H40961   4.050   2.762   7.809  0.0814  0.8379 -0.7285
  297MOL0     H40962   4.092   2.509   7.795  0.5465 -1.3034  1.0559
  297MOL0     H40963   4.205   2.517   7.919  1.5357  1.8078  0.4768
  297MOL0     H40964   4.317   2.498   7.710  3.8799  0.9951  0.7903
  297MOL0     H40965   4.357   2.648   7.796 -1.9482  1.5676  0.7410
  297MOL0     H40966   3.270   2.724   7.946 -2.7467 -0.1210 -0.1712
  297MOL0     H40967   3.091   2.583   8.044  0.7657  1.6098  2.3530
  297MOL0     H40968   3.051   2.142   8.228 -0.6551  0.1398 -1.0741
  297MOL0     H40969   2.943   1.982   8.395 -2.2030 -0.0369 -4.0680
  297MOL0     H40970   2.586   2.230   8.251 -1.3711 -1.2414 -1.7705
  297MOL0     H40971   2.757   2.251   8.090  0.9793  0.3909 -2.6632
  297MOL0     H40972   2.881   2.755   7.660  0.0038  0.4696  2.2259
  297MOL0     H40973   3.082   2.811   7.567  4.4462 -0.8767 -0.2747
  297MOL0     H40974   3.500   2.702   7.599  1.1844 -0.5574 -1.5511
  297MOL0     H40975   3.433   2.574   7.708 -3.5227  0.4148  0.4747
  297MOL0     H40976   3.374   2.447   7.498 -0.7757  1.1278 -0.9706
  297MOL0     H40977   3.545   2.495   7.479  0.3247  1.3918  1.7096
  297MOL0     H40978   3.305   2.603   7.352  0.7660  0.9231  1.2978
  297MOL0     H40979   3.444   2.710   7.369  0.2610 -0.4822  0.7711
  297MOL0     H40980   3.575   2.541   7.235 -0.2161  1.7504  2.2705
  297MOL0     H40981   3.431   2.618   7.149  0.7419  2.2700  0.5454
  297MOL0     H40982   3.335   2.207   7.170  0.2272  1.2377 -1.7671
  297MOL0     H40983   3.252   2.429   7.702 -0.7447 -1.4678  0.0337
  297MOL0     H40984   2.946   2.289   7.759 -3.6650  5.4105  3.0468
  297MOL0     H40985   3.116   2.258   7.748  0.9418  0.7036  1.6059
  297MOL0     H40986   3.052   2.320   7.902  0.1050  2.7642  1.0298
  298MOL0     O40987   3.741   8.662  10.455 -0.1026  0.6483  0.0486
  298MOL0     C40988   3.682   8.584  10.373 -0.4200 -0.7759 -0.6070
  298MOL0     O40989   3.654   8.619  10.248 -0.4600  1.1341  0.4097
  298MOL0     C40990   3.715   8.735  10.203 -0.1623  0.2088 -0.3712
  298MOL0     C40991   3.642   8.857  10.197 -1.1929 -0.1420  0.2606
  298MOL0     C40992   3.710   8.966  10.145 -0.2591 -0.7057  0.1438
  298MOL0     C40993   3.842   8.957  10.089 -0.1438  0.2084 -1.1955
  298MOL0     O40994   3.899   9.072  10.040 -0.4713  0.3810  0.0554
  298MOL0     C40995   4.040   9.083  10.030 -0.2272 -0.5389  0.5255
  298MOL0     C40996   4.109   9.043   9.896 -0.5612 -0.2721 -0.0454
  298MOL0     C40997   4.266   9.053   9.921  0.2257 -0.4097 -0.1582
  298MOL0     C40998   4.331   9.017   9.787  0.1205 -0.1753  0.5251
  298MOL0     C40999   4.480   9.065   9.782  0.0270 -0.1844 -0.5978
  298MOL0     C41000   4.547   9.061   9.644  0.0040  0.3115  0.1730
  298MOL0     C41001   4.690   9.123   9.661 -0.3107  0.4393 -0.3412
  298MOL0     C41002   4.763   9.119   9.529 -1.4056  0.0425 -0.4499
  298MOL0     N41003   4.909   9.143   9.543  0.0350 -0.7074  0.5588
  298MOL0     C41004   4.971   9.264   9.518 -0.5740 -0.7890  0.4479
  298MOL0     C41005   5.106   9.245   9.549 -0.5534 -0.0127 -0.2393
  298MOL0     C41006   5.213   9.353   9.541  0.4662  1.0163 -0.1109
  298MOL0     C41007   5.295   9.354   9.677  0.5529  0.4854  1.0631
  298MOL0     C41008   5.271   9.477   9.760  0.1576  0.6113 -0.8164
  298MOL0     C41009   5.128   9.489   9.808 -1.1307 -0.2917  0.3160
  298MOL0     O41010   5.075   9.370   9.869 -0.5925  0.0922  0.1150
  298MOL0     C41011   4.946   9.364   9.895 -0.6661  0.1146 -0.6173
  298MOL0     C41012   4.845   9.444   9.840  0.4579  0.6177 -0.0777
  298MOL0     C41013   4.713   9.436   9.884 -0.4326  0.3789  0.6609
  298MOL0     C41014   4.605   9.513   9.806  0.2514  0.1512 -0.0147
  298MOL0     C41015   4.678   9.337   9.987 -0.4165 -0.9430  0.3962
  298MOL0     C41016   4.538   9.322  10.041 -0.5463 -0.1014 -0.0787
  298MOL0     O41017   4.530   9.246  10.156 -0.5421  0.1095 -0.9563
  298MOL0     C41018   4.409   9.232  10.215  0.2631  0.8691 -0.2211
  298MOL0     C41019   4.377   9.108  10.278  0.2458  0.1515 -0.1454
  298MOL0     C41020   4.259   9.098  10.354 -1.1230  0.4891 -0.3895
  298MOL0     C41021   4.168   9.209  10.362 -0.4196  0.0309 -0.0908
  298MOL0     O41022   4.056   9.192  10.434  0.0366 -0.2560 -0.1254
  298MOL0     C41023   3.971   9.086  10.434 -0.1441 -0.9287  0.0670
  298MOL0     C41024   3.861   9.148  10.516 -0.4487  0.8414  0.0081
  298MOL0     C41025   3.771   9.054  10.577 -0.6609  0.8295  0.3130
  298MOL0     C41026   3.651   9.121  10.639 -0.1664  0.3850 -0.2053
  298MOL0     C41027   3.679   9.207  10.765 -0.5900  0.3720  0.3074
  298MOL0     C41028   3.562   9.293  10.808 -0.0562 -0.2417  0.5169
  298MOL0     C41029   3.560   9.318  10.956 -0.5881  0.4474 -0.0223
  298MOL0     C41030   3.512   9.455  11.006 -0.2362 -0.1937  0.3221
  298MOL0    Cl41031   3.339   9.498  10.969  0.2356  0.2424  0.9317
  298MOL0     C41032   4.193   9.328  10.294 -0.0969 -0.5990  0.3543
  298MOL0     C41033   4.314   9.338  10.221  0.1506 -0.1030  0.2203
  298MOL0     O41034   4.445   9.378   9.978 -0.1301 -0.5829  0.4844
  298MOL0     C41035   4.784   9.265  10.038  0.4621  0.5271  0.2230
  298MOL0     C41036   4.914   9.269   9.992  0.7239  0.0073 -0.0841
  298MOL0     N41037   5.114   9.113   9.581  0.6261 -0.3473 -0.7358
  298MOL0     N41038   5.003   9.058   9.584  0.0987  0.5914 -0.1483
  298MOL0     C41039   3.914   8.839  10.101 -0.6457 -1.3525 -0.1494
  298MOL0     C41040   3.846   8.723  10.156 -0.6644  0.3764  0.5428
  298MOL0     C41041   3.624   8.455  10.415 -0.7935 -0.4898  0.3511
  298MOL0     C41042   3.508   8.419  10.359 -0.2318  0.1621  0.4663
  298MOL0     C41043   3.446   8.294  10.387 -0.0033 -0.4564 -0.5140
  298MOL0     C41044   3.501   8.209  10.489  1.6035  0.0769  0.0287
  298MOL0     O41045   3.431   8.093  10.529 -0.8687 -0.5185 -0.3913
  298MOL0     C41046   3.318   8.036  10.458 -0.2619 -0.2777  0.9298
  298MOL0     C41047   3.257   7.906  10.523  0.1405 -0.4387 -0.5144
  298MOL0     C41048   3.366   7.802  10.553  0.0607 -0.0494 -0.7189
  298MOL0     C41049   3.458   7.826  10.669 -1.0150  0.5573  0.2029
  298MOL0     C41050   3.386   7.833  10.801 -0.5348 -0.0713  0.2610
  298MOL0     C41051   3.316   7.813  10.899 -0.4779 -0.7279 -0.1238
  298MOL0     C41052   3.620   8.246  10.540  0.3851  0.7893  0.1829
  298MOL0     C41053   3.681   8.369  10.510  0.3793 -0.3311 -0.0041
  298MOL0     C41054   3.798   8.413  10.592 -0.1649 -0.0460  0.2766
  298MOL0     H41055   3.550   8.856  10.254  0.2421  0.0619  2.6977
  298MOL0     H41056   3.647   9.053  10.131 -0.7821 -0.6093  2.7176
  298MOL0     H41057   4.084   9.025  10.112  0.7849 -2.4759 -1.2873
  298MOL0     H41058   4.068   9.189  10.040 -2.7098  0.4177 -1.7691
  298MOL0     H41059   4.072   8.942   9.875  0.2924 -1.0862  2.0483
  298MOL0     H41060   4.075   9.112   9.819  0.0942  2.7665  2.2272
  298MOL0     H41061   4.277   9.155   9.957 -3.4252 -0.0776  0.4717
  298MOL0     H41062   4.284   8.975   9.996 -1.8517 -0.0184  0.8083
  298MOL0     H41063   4.328   8.910   9.765  2.5231 -0.2093  0.0931
  298MOL0     H41064   4.279   9.062   9.702 -0.1442 -0.0781  0.7368
  298MOL0     H41065   4.538   8.994   9.842  1.9094  1.8062  0.0863
  298MOL0     H41066   4.492   9.164   9.827 -4.0604 -0.3008  1.1309
  298MOL0     H41067   4.544   8.954   9.619 -1.8766 -0.5124  3.3980
  298MOL0     H41068   4.487   9.113   9.568 -2.2422 -2.1875  0.0910
  298MOL0     H41069   4.750   9.081   9.743  3.8561  3.0392 -1.7360
  298MOL0     H41070   4.685   9.230   9.681  1.3276  0.6262 -0.7793
  298MOL0     H41071   4.745   9.024   9.479 -0.9292 -1.5678  2.2370
  298MOL0     H41072   4.735   9.203   9.465 -1.9279 -0.0986 -0.4072
  298MOL0     H41073   4.921   9.358   9.497  1.7249  0.1658 -1.2091
  298MOL0     H41074   5.165   9.447   9.513 -4.0323 -1.7831 -3.2339
  298MOL0     H41075   5.288   9.325   9.466  2.8279  1.4158  1.9690
  298MOL0     H41076   5.286   9.271   9.747  0.4591  2.2493  3.2548
  298MOL0     H41077   5.397   9.356   9.638 -0.4767  0.7606 -1.9034
  298MOL0     H41078   5.342   9.475   9.844 -0.1973 -1.1935 -0.5114
  298MOL0     H41079   5.294   9.557   9.690 -0.3919  0.0649 -1.6354
  298MOL0     H41080   5.138   9.574   9.877  0.2281 -0.5655  0.4700
  298MOL0     H41081   5.071   9.529   9.723  1.4508 -0.7419 -1.7775
  298MOL0     H41082   4.866   9.521   9.766  2.1270  0.0730 -0.2209
  298MOL0     H41083   4.530   9.447   9.763 -0.4322 -0.4284  1.9782
  298MOL0     H41084   4.652   9.559   9.719 -1.2776 -0.6385 -1.3105
  298MOL0     H41085   4.555   9.585   9.871  0.9857  0.1744  0.5433
  298MOL0     H41086   4.444   9.024  10.266  0.1964  0.3533 -2.1914
  298MOL0     H41087   4.244   9.000  10.398 -0.8031  0.5050 -0.2349
  298MOL0     H41088   3.945   9.071  10.328  0.6064 -0.8272 -0.1383
  298MOL0     H41089   4.015   8.991  10.468  2.8592 -1.3162 -4.0889
  298MOL0     H41090   3.906   9.205  10.598  1.4247 -0.6130  0.0622
  298MOL0     H41091   3.809   9.217  10.449  1.0316  1.0864 -0.9276
  298MOL0     H41092   3.827   8.996  10.652  0.4045 -0.9998 -1.7924
  298MOL0     H41093   3.749   8.991  10.491 -1.4309  2.0029 -0.3767
  298MOL0     H41094   3.592   9.038  10.679  0.6004 -2.0964 -3.7523
  298MOL0     H41095   3.587   9.174  10.568 -5.6808 -2.3594  2.0866
  298MOL0     H41096   3.700   9.138  10.848  1.9159 -0.6412 -1.0308
  298MOL0     H41097   3.763   9.276  10.748 -0.3990 -0.6229 -3.8356
  298MOL0     H41098   3.463   9.256  10.781 -0.0181 -1.2931  1.7502
  298MOL0     H41099   3.588   9.387  10.759 -0.8188 -0.9120 -1.2599
  298MOL0     H41100   3.660   9.317  11.000 -1.6941  1.9119  2.7513
  298MOL0     H41101   3.520   9.229  11.006 -1.8914  0.5972 -0.7529
  298MOL0     H41102   3.584   9.535  10.985 -0.7443 -0.1149 -1.2518
  298MOL0     H41103   3.521   9.451  11.115 -3.9926  0.2157  0.7850
  298MOL0     H41104   4.128   9.415  10.290 -0.6521 -0.9887  0.7453
  298MOL0     H41105   4.324   9.435  10.173 -0.7809  0.8924  1.9366
  298MOL0     H41106   4.774   9.187  10.112 -2.2178  0.6683  0.1044
  298MOL0     H41107   4.978   9.195  10.039  0.5415  1.6729  2.9991
  298MOL0     H41108   4.021   8.839  10.085 -0.8017 -1.0525 -1.2345
  298MOL0     H41109   3.915   8.639  10.153 -1.8296 -0.6705  1.5512
  298MOL0     H41110   3.460   8.484  10.286 -0.8031 -0.1851  0.5221
  298MOL0     H41111   3.354   8.275  10.332 -0.5427  0.0315  0.1876
  298MOL0     H41112   3.235   8.107  10.457  0.2158  0.2914 -0.4763
  298MOL0     H41113   3.337   8.010  10.353 -1.5648  0.6695  0.4359
  298MOL0     H41114   3.173   7.865  10.466  0.7931 -1.0573 -1.0632
  298MOL0     H41115   3.199   7.931  10.612  0.4484  0.0033 -0.4345
  298MOL0     H41116   3.329   7.702  10.576  1.5548  0.1248  3.0905
  298MOL0     H41117   3.416   7.774  10.460 -1.8357 -0.1914 -1.7481
  298MOL0     H41118   3.510   7.922  10.663 -2.2544  1.2343 -0.0844
  298MOL0     H41119   3.534   7.749  10.671 -3.0189 -1.5229  0.6451
  298MOL0     H41120   3.254   7.811  10.987 -0.6255 -2.6387 -0.2191
  298MOL0     H41121   3.655   8.197  10.630  0.6476  0.0591 -0.3032
  298MOL0     H41122   3.838   8.326  10.645  1.4949  0.3393 -0.2736
  298MOL0     H41123   3.893   8.446  10.548  1.8216 -4.0785  1.0355
  298MOL0     H41124   3.762   8.493  10.657 -1.5923  0.1773 -0.7576
  299MOL0     O41125  11.072   5.410   1.283 -0.2166  0.0180  0.3750
  299MOL0     C41126  11.095   5.484   1.187  0.4157 -1.2011  1.2234
  299MOL0     O41127  10.999   5.562   1.116 -0.5352  0.2779  0.6137
  299MOL0     C41128  10.870   5.554   1.157 -0.5001  0.3572 -0.1847
  299MOL0     C41129  10.837   5.584   1.285 -0.2626  0.4692 -0.0737
  299MOL0     C41130  10.707   5.592   1.339  1.0804 -0.5459  1.3693
  299MOL0     C41131  10.595   5.568   1.244 -1.0373  0.5657 -0.2574
  299MOL0     O41132  10.470   5.572   1.285  0.0740  0.1989  0.2486
  299MOL0     C41133  10.370   5.619   1.200  0.8782  0.8340 -0.6250
  299MOL0     C41134  10.242   5.646   1.269 -0.2709 -2.0781 -0.6598
  299MOL0     C41135  10.141   5.707   1.171 -0.1129 -1.0077  0.0462
  299MOL0     C41136  10.062   5.824   1.231  0.8823  0.2507  1.0914
  299MOL0     C41137   9.990   5.880   1.105  0.1075 -0.0742 -0.9645
  299MOL0     C41138   9.917   6.010   1.111  0.0299  0.7065 -0.8216
  299MOL0     C41139   9.828   6.027   0.993 -0.3129 -0.0471  0.9896
  299MOL0     C41140   9.747   6.163   0.998 -0.8062  0.7158 -0.9398
  299MOL0     N41141   9.611   6.145   1.055  0.0359 -0.5212 -0.3794
  299MOL0     C41142   9.511   6.070   0.997  1.4381 -0.0785 -0.4201
  299MOL0     C41143   9.418   6.061   1.106 -0.5142 -0.3694 -0.8302
  299MOL0     C41144   9.293   5.981   1.096 -1.1318  0.6849 -0.8393
  299MOL0     C41145   9.171   6.068   1.081 -0.6801  0.1033  0.3072
  299MOL0     C41146   9.182   6.184   0.974 -0.1852  0.0513 -0.1165
  299MOL0     C41147   9.049   6.254   0.962  0.1154 -0.2142  0.2767
  299MOL0     O41148   9.053   6.340   0.843 -0.8174 -0.9571 -0.3947
  299MOL0     C41149   8.974   6.454   0.853 -0.0666 -0.0545  0.5393
  299MOL0     C41150   8.840   6.446   0.894  0.4998 -0.1927 -0.4841
  299MOL0     C41151   8.761   6.563   0.902 -0.9001 -0.9608  0.0466
  299MOL0     C41152   8.620   6.533   0.945 -0.0164  0.0517 -1.5852
  299MOL0     C41153   8.817   6.688   0.881 -0.8852  0.1487  0.4614
  299MOL0     C41154   8.745   6.811   0.898  0.2221  0.0166 -0.1109
  299MOL0     O41155   8.660   6.813   1.008 -0.2971 -0.6268  0.1358
  299MOL0     C41156   8.579   6.918   1.026  0.5780  0.2300 -0.4625
  299MOL0     C41157   8.437   6.903   1.029 -0.0433  0.2802 -0.5387
  299MOL0     C41158   8.348   7.016   1.051  0.0727  0.4836  0.6249
  299MOL0     C41159   8.406   7.143   1.079 -0.5390 -0.5132  0.1091
  299MOL0     O41160   8.336   7.256   1.112  0.5575 -0.1358 -0.4358
  299MOL0     C41161   8.192   7.266   1.095 -0.7499  0.3673 -0.2421
  299MOL0     C41162   8.144   7.414   1.105 -0.6612  0.7589  0.2543
  299MOL0     C41163   8.189   7.494   0.990 -0.7569 -0.0305  0.3309
  299MOL0     C41164   8.164   7.641   0.998  0.3769  0.5115  0.3928
  299MOL0     C41165   8.184   7.708   0.863  0.0900  0.4914 -0.4202
  299MOL0     C41166   8.212   7.855   0.880  0.3978  0.0766 -0.2242
  299MOL0     C41167   8.348   7.897   0.933 -0.7799  0.3414  0.2007
  299MOL0     C41168   8.377   8.045   0.961  0.0968 -0.0206  0.3896
  299MOL0    Cl41169   8.381   8.131   0.794  0.5004  0.4285  0.2639
  299MOL0     C41170   8.546   7.160   1.083 -0.2335 -0.1833  0.3588
  299MOL0     C41171   8.635   7.051   1.047 -0.5590 -0.4669  0.1261
  299MOL0     O41172   8.760   6.908   0.822 -1.1984  0.2035 -0.0451
  299MOL0     C41173   8.940   6.693   0.820  0.3070  0.8069  0.6698
  299MOL0     C41174   9.022   6.580   0.805 -0.2356 -0.8328 -0.4693
  299MOL0     N41175   9.458   6.146   1.214  1.2595 -0.6953 -0.3061
  299MOL0     N41176   9.578   6.178   1.182  0.6715  0.9511  0.1144
  299MOL0     C41177  10.632   5.522   1.112  0.2626 -0.2012  1.3246
  299MOL0     C41178  10.766   5.522   1.073  0.1769  0.2417  0.2500
  299MOL0     C41179  11.233   5.493   1.134 -0.8880 -0.7511  0.5330
  299MOL0     C41180  11.340   5.442   1.217  0.3372  0.8353  0.2587
  299MOL0     C41181  11.473   5.458   1.182  0.3392 -0.2592  0.5619
  299MOL0     C41182  11.516   5.504   1.063  0.6324 -0.4843 -0.2501
  299MOL0     O41183  11.653   5.498   1.034  0.5875  0.6288  0.2670
  299MOL0     C41184  11.679   5.557   0.903 -0.2465 -1.0044  0.6471
  299MOL0     C41185  11.825   5.531   0.865  0.0281 -0.4858 -0.6712
  299MOL0     C41186  11.922   5.555   0.983 -0.6938  0.0507 -0.6466
  299MOL0     C41187  12.074   5.522   0.947  0.7082 -0.6240 -0.1845
  299MOL0     C41188  12.155   5.542   1.071  0.3563 -0.3276 -0.6362
  299MOL0     C41189  12.201   5.550   1.178 -0.4761 -0.9401 -0.0701
  299MOL0     C41190  11.412   5.554   0.981  0.6840  0.4832  0.6934
  299MOL0     C41191  11.271   5.547   1.008  0.7482  0.5814 -0.6227
  299MOL0     C41192  11.165   5.599   0.909 -0.1069  0.1823  1.0279
  299MOL0     H41193  10.921   5.628   1.337 -0.7631  1.3013  0.0477
  299MOL0     H41194  10.684   5.636   1.436 -0.1896  3.1606 -0.3996
  299MOL0     H41195  10.354   5.534   1.133  2.0111  0.4484 -0.4227
  299MOL0     H41196  10.413   5.705   1.148  1.8210 -0.2899 -1.7576
  299MOL0     H41197  10.205   5.554   1.316 -0.9556 -0.4422  2.2694
  299MOL0     H41198  10.248   5.720   1.349 -2.8328 -0.2033 -2.0753
  299MOL0     H41199  10.200   5.742   1.085 -1.1192  0.2958 -0.1403
  299MOL0     H41200  10.075   5.625   1.141 -1.7274  0.7157 -1.2868
  299MOL0     H41201   9.997   5.788   1.312 -0.7119 -1.7353 -0.9249
  299MOL0     H41202  10.134   5.893   1.274  0.3502  0.7630  1.1772
  299MOL0     H41203   9.923   5.805   1.061 -3.1364  0.8748  1.9068
  299MOL0     H41204  10.070   5.900   1.034  0.1858  3.0825 -0.1211
  299MOL0     H41205   9.842   6.010   1.191 -0.3995  2.8556 -1.1527
  299MOL0     H41206   9.994   6.086   1.129  0.9714 -0.5185  0.5367
  299MOL0     H41207   9.769   5.937   0.977 -2.7966  2.1240 -4.1616
  299MOL0     H41208   9.886   6.029   0.901 -3.0141 -3.6291 -1.0424
  299MOL0     H41209   9.799   6.241   1.054 -0.7711 -2.1864  3.4988
  299MOL0     H41210   9.723   6.197   0.896  4.5120  1.7419 -2.1192
  299MOL0     H41211   9.500   6.018   0.902  0.4004 -1.4921  0.4531
  299MOL0     H41212   9.281   5.931   1.193  4.3809 -2.1362 -1.1778
  299MOL0     H41213   9.299   5.908   1.015 -1.4483 -0.4178  0.1180
  299MOL0     H41214   9.089   6.000   1.053  1.8164 -2.8582 -0.3486
  299MOL0     H41215   9.144   6.108   1.179 -0.3496  0.2401  0.3404
  299MOL0     H41216   9.256   6.256   1.008 -0.7943 -0.0895  1.6132
  299MOL0     H41217   9.207   6.146   0.874  0.1505  1.9651 -0.7827
  299MOL0     H41218   8.960   6.191   0.955  0.4457 -0.4764 -3.0839
  299MOL0     H41219   9.032   6.304   1.058  2.1840 -0.6768  0.9330
  299MOL0     H41220   8.802   6.351   0.929 -0.6329  0.2573 -0.4544
  299MOL0     H41221   8.546   6.594   0.893  1.2800 -1.7759 -6.0372
  299MOL0     H41222   8.617   6.550   1.054 -0.2036 -0.4868 -1.5011
  299MOL0     H41223   8.607   6.426   0.927 -0.8091 -0.0687 -0.4270
  299MOL0     H41224   8.399   6.803   1.017 -0.5588  0.1992  1.4622
  299MOL0     H41225   8.243   6.992   1.055 -0.0335  0.3658 -1.7851
  299MOL0     H41226   8.162   7.234   0.995 -2.7612 -1.7347  0.9410
  299MOL0     H41227   8.148   7.204   1.174  2.2153 -0.3826  0.9591
  299MOL0     H41228   8.036   7.405   1.093 -0.6416  1.2263 -0.3453
  299MOL0     H41229   8.171   7.469   1.195  2.9464 -4.3404  2.7823
  299MOL0     H41230   8.134   7.448   0.907 -0.6502 -0.3335  0.4262
  299MOL0     H41231   8.297   7.477   0.987 -0.9018 -1.2651  1.2448
  299MOL0     H41232   8.225   7.687   1.076 -1.2685  0.8982  1.4901
  299MOL0     H41233   8.061   7.640   1.033 -0.3228 -1.6663 -1.4641
  299MOL0     H41234   8.266   7.664   0.806  0.1164  0.0164 -0.0221
  299MOL0     H41235   8.088   7.696   0.813 -1.3266  1.8702  1.7680
  299MOL0     H41236   8.137   7.896   0.948  0.6781  0.9889 -0.4385
  299MOL0     H41237   8.205   7.898   0.779 -0.6487 -1.5740 -0.8824
  299MOL0     H41238   8.428   7.867   0.864  1.0942  2.0625  1.4990
  299MOL0     H41239   8.371   7.844   1.026  0.2366 -1.0832 -0.8112
  299MOL0     H41240   8.479   8.052   1.001  1.2803 -2.1817 -1.9056
  299MOL0     H41241   8.292   8.083   1.017  0.8775 -0.5510  1.9936
  299MOL0     H41242   8.599   7.250   1.115  2.1117 -0.9879 -1.0059
  299MOL0     H41243   8.743   7.055   1.057 -0.6885  1.5138  1.3333
  299MOL0     H41244   8.966   6.794   0.787  3.8358 -0.5277 -1.1639
  299MOL0     H41245   9.127   6.584   0.776  0.1447 -2.0438  0.6491
  299MOL0     H41246  10.552   5.486   1.047  0.3845 -1.2529  1.7401
  299MOL0     H41247  10.802   5.490   0.976 -0.2816 -1.1930  0.5290
  299MOL0     H41248  11.337   5.392   1.314  0.3159 -0.1787 -0.2572
  299MOL0     H41249  11.553   5.417   1.243  1.9587 -0.1337 -1.3727
  299MOL0     H41250  11.633   5.504   0.819  4.2572 -3.2843 -0.7226
  299MOL0     H41251  11.651   5.662   0.919  0.4889 -0.6954 -0.0286
  299MOL0     H41252  11.855   5.590   0.778 -2.1498  3.8688  1.2106
  299MOL0     H41253  11.814   5.422   0.859 -3.9267 -0.3912  1.5270
  299MOL0     H41254  11.917   5.663   1.005 -0.2232 -0.0547  0.0223
  299MOL0     H41255  11.903   5.495   1.073 -0.2170 -0.2396 -0.7395
  299MOL0     H41256  12.113   5.601   0.882 -3.5704  0.4578 -1.7638
  299MOL0     H41257  12.090   5.426   0.896 -2.1428 -1.2887 -0.0276
  299MOL0     H41258  12.237   5.559   1.278  1.8976 -2.0568 -0.7422
  299MOL0     H41259  11.429   5.584   0.878 -1.9779 -0.9906 -0.2710
  299MOL0     H41260  11.089   5.523   0.895  1.8071 -1.5599 -0.5500
  299MOL0     H41261  11.125   5.695   0.943  0.8922  0.3570  1.7752
  299MOL0     H41262  11.197   5.615   0.806 -1.4047 -1.1558  0.3930
  300MOL0     O41263   9.082   5.916   7.162  0.2715  0.4569  0.3517
  300MOL0     C41264   9.181   5.946   7.098  0.1696  0.1591  0.5487
  300MOL0     O41265   9.219   5.893   6.979  0.3924 -0.0458  0.4256
  300MOL0     C41266   9.152   5.783   6.932 -0.2756 -0.4678  1.1968
  300MOL0     C41267   9.018   5.788   6.895 -0.5377  1.2304 -0.3342
  300MOL0     C41268   8.950   5.673   6.851 -0.4867 -0.5656 -0.5864
  300MOL0     C41269   9.022   5.566   6.805 -0.9108 -0.3063  0.3228
  300MOL0     O41270   8.969   5.451   6.756 -0.5010  0.9018 -0.1590
  300MOL0     C41271   8.829   5.445   6.727 -0.4374 -0.7566  0.5349
  300MOL0     C41272   8.793   5.310   6.664 -0.5238  0.1718 -0.1841
  300MOL0     C41273   8.869   5.202   6.742  0.3500 -0.5052 -0.2857
  300MOL0     C41274   8.840   5.056   6.716  0.5103 -0.0884  0.2160
  300MOL0     C41275   8.923   4.972   6.803  0.2767  0.1244  0.5853
  300MOL0     C41276   8.828   4.884   6.894 -0.6643 -0.6100 -0.1659
  300MOL0     C41277   8.907   4.783   6.973 -0.5372  0.2122 -0.0311
  300MOL0     C41278   8.814   4.737   7.084  0.3793 -0.7377 -0.7351
  300MOL0     N41279   8.682   4.695   7.039 -0.5858  0.0411 -0.0660
  300MOL0     C41280   8.654   4.587   6.950 -0.9316 -0.0522 -0.3479
  300MOL0     C41281   8.524   4.573   6.949 -0.0352 -0.0825  0.0741
  300MOL0     C41282   8.448   4.465   6.874  0.1058 -0.1718 -0.2537
  300MOL0     C41283   8.434   4.333   6.953 -1.0376  1.0538  0.0925
  300MOL0     C41284   8.370   4.353   7.090  0.4547  0.2027 -0.2447
  300MOL0     C41285   8.321   4.221   7.140  0.2618  0.0501  0.2463
  300MOL0     O41286   8.289   4.231   7.279  0.2931 -0.6445 -0.2025
  300MOL0     C41287   8.257   4.117   7.357 -0.1876  0.2659 -0.4098
  300MOL0     C41288   8.185   4.136   7.473  0.5629 -0.0986  0.4587
  300MOL0     C41289   8.161   4.024   7.553  0.3862 -0.5042  0.0152
  300MOL0     C41290   8.092   4.050   7.688  0.0409 -0.5492  0.7552
  300MOL0     C41291   8.202   3.895   7.518  0.9670  1.0448 -0.7305
  300MOL0     C41292   8.174   3.771   7.598  0.2434 -0.7805  0.4884
  300MOL0     O41293   8.238   3.655   7.550  0.6340 -0.2496  0.1530
  300MOL0     C41294   8.230   3.538   7.625  0.5139  0.3850  0.3165
  300MOL0     C41295   8.237   3.538   7.769 -0.1405 -0.8087 -0.1118
  300MOL0     C41296   8.241   3.414   7.830  0.2751 -0.1377 -0.7456
  300MOL0     C41297   8.250   3.296   7.756 -0.1449 -0.3866  0.4474
  300MOL0     O41298   8.268   3.180   7.819  0.2710  0.2773 -0.5329
  300MOL0     C41299   8.385   3.109   7.787 -0.1316  0.4423 -0.0291
  300MOL0     C41300   8.455   3.018   7.892 -0.2850 -0.1957  0.3525
  300MOL0     C41301   8.534   3.107   7.987 -0.0941  0.1340  0.3425
  300MOL0     C41302   8.460   3.201   8.082  1.2873 -0.0821  0.2916
  300MOL0     C41303   8.545   3.305   8.144 -0.3866 -0.4468  0.6576
  300MOL0     C41304   8.567   3.281   8.293 -0.5983 -0.2496 -0.4352
  300MOL0     C41305   8.636   3.403   8.365  0.1398 -0.4629 -0.0103
  300MOL0     C41306   8.646   3.381   8.514 -0.0320  0.4315 -0.0239
  300MOL0    Cl41307   8.782   3.252   8.547  0.6879  0.0427 -0.0825
  300MOL0     C41308   8.241   3.305   7.612 -0.7331  0.1955  0.0334
  300MOL0     C41309   8.215   3.423   7.548 -0.5450 -0.2261 -0.1614
  300MOL0     O41310   8.096   3.776   7.694  0.4151 -1.1268  0.0540
  300MOL0     C41311   8.276   3.878   7.398 -0.0383 -0.3403  0.5812
  300MOL0     C41312   8.307   3.991   7.325  0.0511  0.9742 -0.8117
  300MOL0     N41313   8.471   4.681   7.019  1.2353 -0.0705 -0.2631
  300MOL0     N41314   8.566   4.754   7.074  0.5433  0.3517 -0.6271
  300MOL0     C41315   9.167   5.568   6.817  0.4320  0.0557  0.1560
  300MOL0     C41316   9.232   5.674   6.890  0.3828  1.5596  0.1544
  300MOL0     C41317   9.264   6.061   7.151 -0.5053  0.5032  0.2230
  300MOL0     C41318   9.256   6.088   7.291 -0.1171  0.8628  0.4215
  300MOL0     C41319   9.313   6.190   7.355 -0.5705 -0.2840  0.1507
  300MOL0     C41320   9.396   6.276   7.284 -0.2012  0.6844 -0.1335
  300MOL0     O41321   9.456   6.366   7.356 -0.2314 -0.4667 -0.1409
  300MOL0     C41322   9.488   6.489   7.294  0.1383 -0.7596  0.9168
  300MOL0     C41323   9.379   6.584   7.257  0.1979 -0.8680 -0.1608
  300MOL0     C41324   9.307   6.624   7.392 -0.4912  0.4746  0.4695
  300MOL0     C41325   9.173   6.553   7.416  0.5876 -1.3545  0.1389
  300MOL0     C41326   9.081   6.583   7.298 -0.5357  0.3564  0.0061
  300MOL0     C41327   8.997   6.619   7.218  0.3472 -0.0844 -0.2165
  300MOL0     C41328   9.414   6.253   7.145  0.5170 -0.2744 -0.6868
  300MOL0     C41329   9.351   6.146   7.079 -0.0452 -0.6960  0.5422
  300MOL0     C41330   9.373   6.141   6.933 -0.8312  0.2399 -0.1584
  300MOL0     H41331   8.972   5.885   6.911 -0.7917  1.3883 -1.9150
  300MOL0     H41332   8.843   5.688   6.837 -0.7454  0.7404  2.2079
  300MOL0     H41333   8.814   5.519   6.648  1.6277  0.8653  1.5459
  300MOL0     H41334   8.761   5.465   6.811 -2.7932  0.9580 -1.6346
  300MOL0     H41335   8.685   5.296   6.673 -0.5776  1.1387  0.8735
  300MOL0     H41336   8.813   5.309   6.556 -0.0240  0.4454 -0.0979
  300MOL0     H41337   8.975   5.222   6.726  0.3196 -1.0050 -1.2116
  300MOL0     H41338   8.850   5.225   6.847  3.0120 -0.5791  0.2848
  300MOL0     H41339   8.732   5.038   6.720  0.0177  1.7824 -2.1637
  300MOL0     H41340   8.856   5.041   6.609  0.6066 -1.0399  0.3540
  300MOL0     H41341   8.987   5.024   6.874 -0.5585 -0.4594  1.8120
  300MOL0     H41342   8.981   4.908   6.736  3.4640  0.2027  3.0354
  300MOL0     H41343   8.764   4.950   6.954 -0.0185  0.4091 -0.5536
  300MOL0     H41344   8.762   4.820   6.835  0.0222 -2.8351  1.3408
  300MOL0     H41345   8.990   4.834   7.021 -0.9246  0.6024  0.2366
  300MOL0     H41346   8.929   4.692   6.917  0.8845  0.6593 -0.2216
  300MOL0     H41347   8.863   4.656   7.139 -0.8545 -0.6126  0.6038
  300MOL0     H41348   8.794   4.823   7.148 -2.9147  1.4157 -4.2673
  300MOL0     H41349   8.730   4.522   6.906  1.3370  0.8826  1.9281
  300MOL0     H41350   8.499   4.450   6.779 -1.8904  0.5422 -1.5035
  300MOL0     H41351   8.345   4.496   6.854  0.3426 -0.6359 -2.3892
  300MOL0     H41352   8.365   4.279   6.888 -0.1795  0.4209 -0.3021
  300MOL0     H41353   8.526   4.274   6.962 -1.5068 -0.2406 -2.6425
  300MOL0     H41354   8.445   4.388   7.161 -0.0002 -1.1219  0.9279
  300MOL0     H41355   8.296   4.432   7.076  2.2692  2.2464  1.0347
  300MOL0     H41356   8.238   4.181   7.080  0.5474 -0.4226  0.1592
  300MOL0     H41357   8.399   4.144   7.134  0.9356  0.6885  0.7178
  300MOL0     H41358   8.143   4.231   7.503 -1.0587 -0.3390 -0.9151
  300MOL0     H41359   8.092   4.158   7.710  2.6356 -0.3548  0.0460
  300MOL0     H41360   8.160   3.995   7.753  1.1278 -1.5846 -1.2100
  300MOL0     H41361   7.988   4.016   7.696 -0.3365  0.3820  0.0765
  300MOL0     H41362   8.225   3.620   7.839 -0.1727 -1.0315  0.1451
  300MOL0     H41363   8.253   3.413   7.938  1.7683  0.6721 -0.8795
  300MOL0     H41364   8.368   3.042   7.702 -0.9908  0.1454  0.3582
  300MOL0     H41365   8.458   3.178   7.745 -1.7158  1.6301 -0.9452
  300MOL0     H41366   8.391   2.943   7.941 -2.1224  1.1664  0.1629
  300MOL0     H41367   8.529   2.962   7.834  1.2991  0.7698  1.3734
  300MOL0     H41368   8.610   3.162   7.932 -0.0931 -2.3400 -2.3563
  300MOL0     H41369   8.591   3.037   8.049 -4.7794 -2.9599  1.7349
  300MOL0     H41370   8.411   3.134   8.153 -0.7708  0.8756 -0.1412
  300MOL0     H41371   8.378   3.258   8.036  0.1093 -0.7772  1.4466
  300MOL0     H41372   8.636   3.313   8.084 -1.9076  0.6957 -1.6192
  300MOL0     H41373   8.497   3.402   8.130  2.0722  0.7042 -0.2723
  300MOL0     H41374   8.626   3.191   8.313  0.8286  0.6284 -0.5142
  300MOL0     H41375   8.466   3.264   8.331 -0.7040 -3.6891 -1.8767
  300MOL0     H41376   8.570   3.487   8.339 -0.4384 -1.0661 -0.5340
  300MOL0     H41377   8.739   3.416   8.328 -0.6072  1.2352 -1.6785
  300MOL0     H41378   8.545   3.344   8.530  0.5707 -2.6473 -2.3050
  300MOL0     H41379   8.673   3.466   8.578  2.8704 -2.2395  2.7118
  300MOL0     H41380   8.249   3.215   7.553  1.1042 -0.7560  1.5814
  300MOL0     H41381   8.212   3.416   7.440 -2.8253 -3.7197 -0.0249
  300MOL0     H41382   8.323   3.784   7.373 -2.2103 -1.5872  0.9181
  300MOL0     H41383   8.376   3.974   7.243  0.5539 -1.1355 -0.0154
  300MOL0     H41384   9.215   5.474   6.790 -2.4328 -1.8195  1.1197
  300MOL0     H41385   9.333   5.652   6.925 -0.4545 -0.2530  1.6321
  300MOL0     H41386   9.181   6.029   7.343 -0.0501  0.5144  0.1262
  300MOL0     H41387   9.296   6.220   7.458 -1.6913  0.4691 -0.2224
  300MOL0     H41388   9.556   6.552   7.353  0.0754  0.9630 -0.7724
  300MOL0     H41389   9.535   6.479   7.196 -3.3090  2.1359 -1.2603
  300MOL0     H41390   9.311   6.547   7.178 -0.6670  3.1895 -1.5443
  300MOL0     H41391   9.429   6.671   7.214 -2.3253  1.5122  1.3558
  300MOL0     H41392   9.373   6.606   7.478 -2.4335  2.0763  2.3955
  300MOL0     H41393   9.288   6.732   7.390  0.4009  0.6546 -2.3793
  300MOL0     H41394   9.114   6.578   7.505 -0.6829  0.0730 -1.0453
  300MOL0     H41395   9.199   6.447   7.421 -2.4031 -2.1637  0.5768
  300MOL0     H41396   8.910   6.628   7.157 -2.8295 -3.0146  3.4094
  300MOL0     H41397   9.499   6.307   7.105  1.1077 -1.3350 -0.9125
  300MOL0     H41398   9.459   6.207   6.917  0.0749 -0.1597  2.5284
  300MOL0     H41399   9.405   6.042   6.898  0.8520 -0.4359  2.9180
  300MOL0     H41400   9.281   6.181   6.889 -1.5545  0.3515  1.3897
  301MOL0     O41401   7.903  11.305   9.086  1.1297  0.1093  0.2806
  301MOL0     C41402   7.843  11.205   9.036 -0.6127 -0.5048  0.4098
  301MOL0     O41403   7.891  11.080   9.013 -1.0222  0.1548 -0.0163
  301MOL0     C41404   8.032  11.066   8.996  0.2689  0.4202  0.2855
  301MOL0     C41405   8.132  11.083   9.086  0.2525 -0.4278  0.3500
  301MOL0     C41406   8.266  11.051   9.065  0.0723  0.1318 -0.0787
  301MOL0     C41407   8.308  11.007   8.936  0.1459 -0.5604 -0.9463
  301MOL0     O41408   8.434  10.976   8.893  0.1860  0.7609  0.0220
  301MOL0     C41409   8.545  11.037   8.967 -0.2330  0.3828 -0.4683
  301MOL0     C41410   8.677  11.003   8.906  0.3893 -1.1356 -0.4463
  301MOL0     C41411   8.782  11.049   9.006 -0.1814  0.0737 -0.1630
  301MOL0     C41412   8.921  11.019   8.943 -0.6763 -0.0960  0.7373
  301MOL0     C41413   9.037  11.060   9.039  0.2736  0.6230 -0.2038
  301MOL0     C41414   9.054  10.959   9.151 -0.0176 -0.2904  0.2982
  301MOL0     C41415   9.180  11.003   9.225 -0.0320 -0.4965 -0.3149
  301MOL0     C41416   9.208  10.906   9.331  0.3853 -0.4634  0.0201
  301MOL0     N41417   9.119  10.894   9.444  0.7359 -0.4907  0.5366
  301MOL0     C41418   9.072  10.774   9.491  0.7031  0.7216 -0.1692
  301MOL0     C41419   9.003  10.803   9.607  0.4780 -0.0315  0.4960
  301MOL0     C41420   8.919  10.721   9.703 -0.8461 -1.1893 -0.0222
  301MOL0     C41421   8.933  10.571   9.668  0.0988 -0.2627 -0.0708
  301MOL0     C41422   9.053  10.495   9.723 -0.8809  0.4521 -0.0966
  301MOL0     C41423   9.050  10.336   9.715 -0.2188  0.2851 -0.9351
  301MOL0     O41424   9.012  10.295   9.584  0.8087  0.3769  0.7042
  301MOL0     C41425   8.877  10.281   9.541 -1.3344 -1.1339  0.3658
  301MOL0     C41426   8.769  10.308   9.623  0.5578 -0.1735  0.0332
  301MOL0     C41427   8.639  10.308   9.579  0.2255 -0.9030 -1.1262
  301MOL0     C41428   8.541  10.347   9.684 -0.5408 -0.6377 -0.7282
  301MOL0     C41429   8.608  10.258   9.447  0.2428  0.8834 -0.6817
  301MOL0     C41430   8.471  10.245   9.384  0.3369 -0.0745  0.4143
  301MOL0     O41431   8.450  10.170   9.274  0.0785 -1.0001  0.1444
  301MOL0     C41432   8.323  10.153   9.228 -0.0450  0.1869  0.4043
  301MOL0     C41433   8.310  10.152   9.091 -0.2437  0.5308  0.0212
  301MOL0     C41434   8.183  10.133   9.029  0.2100  0.1329  0.2005
  301MOL0     C41435   8.066  10.112   9.102  0.9241  0.0158 -0.2262
  301MOL0     O41436   7.942  10.095   9.052 -0.3638  0.0403 -0.4693
  301MOL0     C41437   7.927  10.084   8.909  0.4507 -0.0439  0.1356
  301MOL0     C41438   7.991   9.970   8.836 -0.1655  0.7618  0.1458
  301MOL0     C41439   7.940   9.967   8.691  0.0976 -0.8538  0.2784
  301MOL0     C41440   8.050   9.908   8.612 -0.0304  0.6713  0.0422
  301MOL0     C41441   8.021   9.898   8.459 -0.5097  0.1146 -0.3945
  301MOL0     C41442   7.998  10.032   8.393  0.5144 -0.7439 -0.3487
  301MOL0     C41443   8.050  10.011   8.248  0.8381 -0.0992  0.2794
  301MOL0     C41444   7.974   9.918   8.159  0.6096 -0.2918 -0.6086
  301MOL0    Cl41445   7.796   9.934   8.160 -0.3064  0.0566 -0.1736
  301MOL0     C41446   8.084  10.109   9.239  0.4196  0.1965  1.0885
  301MOL0     C41447   8.208  10.141   9.300  0.4197  0.2905 -0.5742
  301MOL0     O41448   8.390  10.302   9.453  0.0355 -0.0941  0.0241
  301MOL0     C41449   8.719  10.228   9.371 -0.5820 -0.6969  0.3552
  301MOL0     C41450   8.855  10.246   9.413  0.2982  0.9340 -0.5047
  301MOL0     N41451   9.038  10.934   9.632  0.1405  0.0833 -0.1018
  301MOL0     N41452   9.098  10.991   9.534 -0.3431  0.5788 -0.7541
  301MOL0     C41453   8.205  10.995   8.841  0.7083 -0.5272 -0.0932
  301MOL0     C41454   8.073  11.020   8.871  0.6321 -0.1222  0.2842
  301MOL0     C41455   7.694  11.223   9.003  0.8424  0.1606 -0.4310
  301MOL0     C41456   7.638  11.359   9.009 -0.3525 -0.1648 -0.3324
  301MOL0     C41457   7.497  11.388   8.991 -0.9558 -0.8233  0.4731
  301MOL0     C41458   7.415  11.282   8.960  0.1148  0.1467 -0.2053
  301MOL0     O41459   7.280  11.310   8.935 -0.2588  0.0041 -0.5827
  301MOL0     C41460   7.218  11.215   8.844 -0.0109 -0.8911  0.0197
  301MOL0     C41461   7.094  11.271   8.787 -0.5476 -1.2212 -0.7995
  301MOL0     C41462   7.032  11.194   8.672  0.1962 -1.0062 -0.4069
  301MOL0     C41463   7.018  11.038   8.698 -0.4340 -0.5351 -0.2783
  301MOL0     C41464   6.909  10.995   8.787  0.2624  0.4260 -1.2822
  301MOL0     C41465   6.825  10.933   8.843  0.2129 -0.4972 -0.3860
  301MOL0     C41466   7.467  11.151   8.945  0.1421  0.0446 -0.1745
  301MOL0     C41467   7.601  11.123   8.976  0.8708  0.7867  0.0427
  301MOL0     C41468   7.630  10.974   8.993  0.5299  0.8023 -1.3057
  301MOL0     H41469   8.104  11.129   9.180  3.5103  0.7867  0.8545
  301MOL0     H41470   8.341  11.062   9.143 -0.6958  2.5734  0.3829
  301MOL0     H41471   8.541  11.005   9.072 -0.7774  0.5572 -0.4357
  301MOL0     H41472   8.535  11.146   8.962 -2.2524  0.2998  0.6166
  301MOL0     H41473   8.685  10.894   8.906 -2.3632 -1.5591  3.6275
  301MOL0     H41474   8.691  11.045   8.806 -2.6914 -0.1862 -0.5851
  301MOL0     H41475   8.767  11.153   9.034  1.0258 -0.0567  1.0589
  301MOL0     H41476   8.769  10.998   9.102 -3.0603  2.9217  1.1288
  301MOL0     H41477   8.940  10.915   8.918  0.1373 -0.1850  1.6360
  301MOL0     H41478   8.927  11.087   8.858  0.3871  3.5029  3.4191
  301MOL0     H41479   9.028  11.153   9.097  2.1695  0.3950  0.5399
  301MOL0     H41480   9.125  11.073   8.977  1.2702  0.4599  1.1351
  301MOL0     H41481   8.969  10.964   9.220 -0.7285  1.1068 -0.6175
  301MOL0     H41482   9.046  10.862   9.099 -1.4989  0.7907 -1.6696
  301MOL0     H41483   9.178  11.102   9.273  0.6640 -0.4838 -0.2927
  301MOL0     H41484   9.259  11.006   9.149 -1.6021 -2.8548 -2.1883
  301MOL0     H41485   9.211  10.810   9.279 -1.0047 -1.5991  1.9151
  301MOL0     H41486   9.304  10.930   9.376  0.8126 -4.5006  1.6101
  301MOL0     H41487   9.076  10.673   9.450  1.4736 -0.6239  2.9029
  301MOL0     H41488   8.816  10.757   9.704 -0.9984 -1.4695  3.1519
  301MOL0     H41489   8.974  10.736   9.796  2.0561 -3.4262 -1.2094
  301MOL0     H41490   8.847  10.544   9.730 -0.6431  3.5904  0.7952
  301MOL0     H41491   8.913  10.555   9.562 -1.6490 -1.3719  0.3869
  301MOL0     H41492   9.139  10.514   9.658 -1.6660 -0.6657 -1.5268
  301MOL0     H41493   9.090  10.528   9.820 -0.1477  0.4766 -0.3770
  301MOL0     H41494   9.144  10.287   9.739  1.0423  2.6822 -0.6744
  301MOL0     H41495   8.978  10.300   9.789  0.5592 -1.1061 -0.8311
  301MOL0     H41496   8.801  10.344   9.721  2.3955  2.4403 -1.3990
  301MOL0     H41497   8.497  10.441   9.651 -2.4527 -0.4139  2.0962
  301MOL0     H41498   8.577  10.369   9.785 -0.6474  0.0952 -0.8495
  301MOL0     H41499   8.464  10.270   9.691 -0.3787 -0.6613  3.7223
  301MOL0     H41500   8.393  10.149   9.021 -2.3735  1.4315 -2.7690
  301MOL0     H41501   8.167  10.149   8.923 -3.5662 -3.9847 -0.1701
  301MOL0     H41502   7.819  10.093   8.891  0.3439 -1.0715  0.2414
  301MOL0     H41503   7.955  10.177   8.857 -0.6523 -0.4760 -1.3232
  301MOL0     H41504   8.098   9.990   8.847 -0.6559  2.1106  3.6189
  301MOL0     H41505   7.967   9.875   8.885  0.4383  0.2996 -0.4429
  301MOL0     H41506   7.917  10.068   8.657 -2.4126 -1.5281 -0.2220
  301MOL0     H41507   7.851   9.905   8.681 -0.6742  0.5074 -2.2754
  301MOL0     H41508   8.073   9.806   8.643  0.3602  1.2619  1.8626
  301MOL0     H41509   8.137   9.975   8.615 -0.8106  1.8322 -1.6046
  301MOL0     H41510   8.101   9.839   8.413 -0.8301 -1.6451  1.1848
  301MOL0     H41511   7.921   9.854   8.448 -1.2226  1.4574  0.4672
  301MOL0     H41512   8.065  10.112   8.427 -1.7218  0.8968  0.4396
  301MOL0     H41513   7.892  10.056   8.399  0.0031 -2.9775  0.7388
  301MOL0     H41514   8.156   9.982   8.248 -0.0010 -3.6677  2.2104
  301MOL0     H41515   8.047  10.106   8.193 -0.8123  0.6318  1.5271
  301MOL0     H41516   7.984   9.815   8.192 -1.0933 -0.8658 -1.7496
  301MOL0     H41517   8.011   9.925   8.057 -1.0776  0.5811 -1.2016
  301MOL0     H41518   8.000  10.086   9.304 -0.7209 -0.2820 -0.4778
  301MOL0     H41519   8.213  10.142   9.408 -2.7125  0.6509 -0.3147
  301MOL0     H41520   8.711  10.191   9.269 -1.9160 -1.3719  0.6851
  301MOL0     H41521   8.938  10.235   9.344  0.9985  3.7538 -0.2188
  301MOL0     H41522   8.233  10.973   8.739 -0.2307  1.7414 -0.9013
  301MOL0     H41523   7.990  10.998   8.804  0.4741  2.2830 -0.4103
  301MOL0     H41524   7.703  11.442   9.034  0.7968 -1.3253  0.6485
  301MOL0     H41525   7.448  11.483   9.009  1.5726  0.6461  0.0231
  301MOL0     H41526   7.276  11.193   8.754  0.9191 -0.2277  0.4409
  301MOL0     H41527   7.201  11.121   8.896 -1.3446 -0.5469  0.2624
  301MOL0     H41528   7.118  11.373   8.754 -2.5176 -0.9911 -1.6885
  301MOL0     H41529   7.036  11.288   8.879 -0.0517  0.6088 -0.7733
  301MOL0     H41530   6.929  11.227   8.654  1.1936  3.0857  0.1983
  301MOL0     H41531   7.086  11.221   8.581 -2.5499  3.7433 -1.0140
  301MOL0     H41532   7.111  10.984   8.717  0.2384  0.3712 -0.8736
  301MOL0     H41533   6.998  10.991   8.601 -1.1439 -1.1367  0.1504
  301MOL0     H41534   6.760  10.865   8.895 -0.6695  0.6920  0.1493
  301MOL0     H41535   7.396  11.073   8.921 -0.1368  0.5432 -0.9768
  301MOL0     H41536   7.549  10.904   8.970 -0.0505 -1.4043  5.1496
  301MOL0     H41537   7.715  10.934   8.936  1.5073 -0.6809  1.0073
  301MOL0     H41538   7.628  10.942   9.098 -2.2718 -0.8853 -1.7900
  302MOL0     O41539   1.327   7.484  10.006  0.7251  0.7635  0.3133
  302MOL0     C41540   1.238   7.515  10.083  0.7786 -0.0604 -0.6191
  302MOL0     O41541   1.189   7.431  10.177  0.0802 -0.0617  0.0214
  302MOL0     C41542   1.249   7.308  10.203  0.1697  0.6992 -0.0074
  302MOL0     C41543   1.186   7.184  10.197 -0.4211 -1.0347  0.7299
  302MOL0     C41544   1.256   7.067  10.227 -0.0685  1.2409 -0.3854
  302MOL0     C41545   1.388   7.068  10.284  1.0109 -0.3787  0.5289
  302MOL0     O41546   1.462   6.957  10.320 -0.0451 -0.2859  0.2856
  302MOL0     C41547   1.396   6.832  10.289 -0.1005  0.4207 -0.4015
  302MOL0     C41548   1.280   6.796  10.388 -0.6351  0.7072  0.2150
  302MOL0     C41549   1.169   6.708  10.333  0.6860 -0.8211 -0.4256
  302MOL0     C41550   1.213   6.565  10.312  0.2506  0.6328 -0.1659
  302MOL0     C41551   1.112   6.474  10.235  0.4964 -0.5134  0.4012
  302MOL0     C41552   0.972   6.477  10.302  0.8892  0.3309 -0.4574
  302MOL0     C41553   0.872   6.383  10.231 -0.5266  0.4018 -0.5391
  302MOL0     C41554   0.893   6.236  10.251  0.0876 -0.1172 -0.2491
  302MOL0     N41555   0.846   6.205  10.387  0.8968  0.5172  0.3112
  302MOL0     C41556   0.928   6.204  10.502 -0.0513 -0.0286  0.4645
  302MOL0     C41557   0.846   6.182  10.597  0.0478  0.4986 -0.4257
  302MOL0     C41558   0.865   6.180  10.746 -0.0592 -0.3052 -0.2147
  302MOL0     C41559   0.895   6.308  10.825 -0.3670 -0.3271  0.3042
  302MOL0     C41560   0.906   6.291  10.975 -0.9891 -0.1702  0.0889
  302MOL0     C41561   1.019   6.197  11.023 -0.0846 -0.2409  0.4680
  302MOL0     O41562   1.014   6.171  11.168 -0.0075  0.1075 -0.6127
  302MOL0     C41563   1.078   6.238  11.267 -0.0532  0.3474 -0.0401
  302MOL0     C41564   1.200   6.301  11.250 -0.6453 -0.3476  0.3370
  302MOL0     C41565   1.265   6.365  11.355  0.2020 -0.2806  0.2980
  302MOL0     C41566   1.403   6.414  11.310  0.0945 -0.4337 -0.2772
  302MOL0     C41567   1.204   6.376  11.482  0.3697  0.5785  0.4471
  302MOL0     C41568   1.265   6.446  11.593 -0.0651  0.5408 -0.4234
  302MOL0     O41569   1.196   6.557  11.643  0.2650  0.5311 -0.6561
  302MOL0     C41570   1.224   6.592  11.776  0.3481 -1.4599 -0.9000
  302MOL0     C41571   1.308   6.696  11.806 -0.1330 -0.6646  0.1237
  302MOL0     C41572   1.328   6.736  11.936  0.1601 -0.2145  0.6691
  302MOL0     C41573   1.260   6.681  12.042  0.0093  0.1850 -0.0500
  302MOL0     O41574   1.284   6.721  12.170  0.4243 -0.0833 -0.1190
  302MOL0     C41575   1.179   6.718  12.269 -0.6803  0.9277  0.3977
  302MOL0     C41576   1.222   6.762  12.406 -0.5556 -0.3152 -0.0090
  302MOL0     C41577   1.280   6.908  12.404 -0.1654 -1.0061 -0.7994
  302MOL0     C41578   1.194   7.012  12.336 -0.2490  0.1611  0.2375
  302MOL0     C41579   1.245   7.157  12.371 -1.3186  0.0254 -0.5206
  302MOL0     C41580   1.341   7.197  12.252  1.2476 -0.1653 -1.6433
  302MOL0     C41581   1.424   7.326  12.264  0.3164 -1.0402  0.0302
  302MOL0     C41582   1.579   7.313  12.241 -0.2776  0.6636 -0.7820
  302MOL0    Cl41583   1.651   7.205  12.361  0.0703  0.2219 -0.1580
  302MOL0     C41584   1.172   6.572  12.010  0.1250 -0.3856 -0.4924
  302MOL0     C41585   1.150   6.526  11.878  0.0042  0.6489 -0.3362
  302MOL0     O41586   1.358   6.398  11.649 -0.5156  0.6972 -0.1654
  302MOL0     C41587   1.086   6.303  11.511  0.0771  0.3052  0.2808
  302MOL0     C41588   1.034   6.226  11.404 -0.1105  0.0504  0.7381
  302MOL0     N41589   0.714   6.169  10.541 -0.2080  0.9966  0.5031
  302MOL0     N41590   0.718   6.200  10.417  0.0511 -0.5487  0.0414
  302MOL0     C41591   1.454   7.186  10.292 -0.4745 -0.3052 -0.3258
  302MOL0     C41592   1.383   7.304  10.252  0.3089 -0.1621 -0.2186
  302MOL0     C41593   1.190   7.653  10.093 -1.1122  0.6413  0.6282
  302MOL0     C41594   1.064   7.675  10.139  0.1524 -0.7415 -1.2893
  302MOL0     C41595   1.011   7.808  10.162 -0.9741  0.4577  0.5578
  302MOL0     C41596   1.086   7.913  10.108  0.8335  0.0985 -0.5655
  302MOL0     O41597   1.023   8.033  10.106 -0.7578  0.1349  0.1611
  302MOL0     C41598   0.922   8.040  10.006 -0.3755 -0.5528  0.6486
  302MOL0     C41599   0.782   7.967  10.048  0.0432  0.6522 -0.1129
  302MOL0     C41600   0.659   8.054  10.009 -1.1608 -0.0548 -0.6514
  302MOL0     C41601   0.601   8.041   9.873 -0.1807 -0.7356  0.5999
  302MOL0     C41602   0.689   8.108   9.764 -0.1313  0.0689 -0.4399
  302MOL0     C41603   0.764   8.176   9.696  0.3455 -0.5576 -0.7830
  302MOL0     C41604   1.206   7.888  10.043  0.6671 -0.0971  0.0377
  302MOL0     C41605   1.260   7.764  10.038  0.1039 -0.6129  0.8812
  302MOL0     C41606   1.395   7.763   9.988  0.0473 -0.5688  1.2336
  302MOL0     H41607   1.078   7.191  10.184 -0.2877  0.7652  0.3625
  302MOL0     H41608   1.197   6.980  10.201 -1.9414  1.8913  1.4837
  302MOL0     H41609   1.471   6.753  10.289  1.7656  1.9901 -3.3799
  302MOL0     H41610   1.369   6.837  10.183 -1.0704 -0.0352 -0.1846
  302MOL0     H41611   1.334   6.738  10.463  1.5843  0.2669 -1.6119
  302MOL0     H41612   1.230   6.878  10.440 -2.6419 -0.2286 -0.1531
  302MOL0     H41613   1.083   6.716  10.400  1.2263  0.3851  0.1440
  302MOL0     H41614   1.134   6.749  10.238  4.3300  1.5021 -0.9528
  302MOL0     H41615   1.314   6.556  10.269  0.1746  1.9159 -0.6562
  302MOL0     H41616   1.213   6.521  10.412 -1.1046  0.0152 -0.4222
  302MOL0     H41617   1.157   6.375  10.240  2.3440  0.3448  2.7502
  302MOL0     H41618   1.106   6.515  10.133 -1.6277  0.6595  0.9349
  302MOL0     H41619   0.977   6.442  10.406 -3.7167 -1.2822 -0.5312
  302MOL0     H41620   0.928   6.577  10.297 -0.3356 -0.2531 -3.8553
  302MOL0     H41621   0.896   6.397  10.125 -1.1056  4.1581 -0.3007
  302MOL0     H41622   0.769   6.414  10.252  0.2880  0.8343  3.8190
  302MOL0     H41623   0.833   6.181  10.178  0.9676 -0.0153 -1.0557
  302MOL0     H41624   0.999   6.211  10.253  0.1918  0.1505  2.8588
  302MOL0     H41625   1.033   6.217  10.526 -0.5377  0.8029  2.2304
  302MOL0     H41626   0.956   6.121  10.735  2.2155  2.2009  3.2878
  302MOL0     H41627   0.795   6.113  10.797 -1.0749  1.7889  1.2791
  302MOL0     H41628   0.992   6.337  10.782 -0.4382 -0.7355 -0.1463
  302MOL0     H41629   0.814   6.372  10.791 -1.3496 -1.3439  0.6710
  302MOL0     H41630   0.921   6.381  11.034 -2.6050 -1.0957  2.0547
  302MOL0     H41631   0.807   6.246  10.986 -0.2574 -2.2574 -1.2044
  302MOL0     H41632   1.035   6.108  10.962  5.2316  0.3040  0.5547
  302MOL0     H41633   1.110   6.255  11.004 -1.2452  1.8175  0.8421
  302MOL0     H41634   1.250   6.290  11.154  0.9711  1.0429  0.9697
  302MOL0     H41635   1.388   6.505  11.251  1.3588  1.9440  2.8053
  302MOL0     H41636   1.455   6.341  11.247  0.6221 -1.6177  1.4736
  302MOL0     H41637   1.460   6.440  11.399 -0.7309  2.3410 -0.4598
  302MOL0     H41638   1.343   6.749  11.718 -0.4157  0.1739  0.5077
  302MOL0     H41639   1.410   6.806  11.946  1.7846 -1.9844  0.2390
  302MOL0     H41640   1.101   6.785  12.233 -0.8155  0.5847  0.0497
  302MOL0     H41641   1.119   6.627  12.270  1.7962 -0.8145 -0.3666
  302MOL0     H41642   1.138   6.751  12.475 -1.0928 -0.3028 -0.6517
  302MOL0     H41643   1.303   6.698  12.441  0.2138  0.5241 -0.1934
  302MOL0     H41644   1.376   6.912  12.351  0.3382 -1.9015  0.0178
  302MOL0     H41645   1.307   6.941  12.504  0.0182  0.0105 -1.1819
  302MOL0     H41646   1.091   7.007  12.374 -0.1717  0.1333  0.4493
  302MOL0     H41647   1.178   6.997  12.229  0.1678 -3.8477  0.5917
  302MOL0     H41648   1.160   7.225  12.367  0.1670  1.9593 -0.8147
  302MOL0     H41649   1.288   7.155  12.472  0.9227 -1.1811 -1.4293
  302MOL0     H41650   1.281   7.203  12.161  1.1654  1.3203 -1.5119
  302MOL0     H41651   1.412   7.116  12.231  0.8841 -0.2954 -2.4200
  302MOL0     H41652   1.414   7.379  12.359  1.7504  2.2235 -1.4493
  302MOL0     H41653   1.370   7.389  12.193 -0.2927  0.7556  1.9821
  302MOL0     H41654   1.628   7.409  12.227 -0.7978  1.0078 -0.2933
  302MOL0     H41655   1.584   7.271  12.140 -0.1366  0.5678 -0.7349
  302MOL0     H41656   1.118   6.522  12.090  0.2829  1.2448  0.6841
  302MOL0     H41657   1.097   6.433  11.862  0.1674  0.4042  0.4797
  302MOL0     H41658   1.050   6.304  11.614  1.2614  4.6976  0.8550
  302MOL0     H41659   0.941   6.175  11.425 -0.8812 -0.1202 -2.5872
  302MOL0     H41660   1.559   7.187  10.321 -1.2081  2.5716  3.0185
  302MOL0     H41661   1.432   7.400  10.255  1.9993 -0.9697 -0.6011
  302MOL0     H41662   1.007   7.589  10.171  1.2851 -1.3118 -0.7506
  302MOL0     H41663   0.912   7.821  10.203 -0.9080  0.1622  0.8111
  302MOL0     H41664   0.913   8.142   9.968  2.2742 -0.3617  0.3345
  302MOL0     H41665   0.959   7.993   9.915  1.6276  0.8693  0.6689
  302MOL0     H41666   0.786   7.962  10.158 -0.5473 -2.9290 -0.1505
  302MOL0     H41667   0.771   7.860  10.030  2.0023 -0.1052  2.5318
  302MOL0     H41668   0.586   8.056  10.090  0.5454  0.6059  0.9422
  302MOL0     H41669   0.702   8.154  10.007 -0.0095 -0.4788  0.8273
  302MOL0     H41670   0.511   8.103   9.881  0.9611  1.0708 -0.1012
  302MOL0     H41671   0.573   7.936   9.856  2.4212 -1.6556  1.4507
  302MOL0     H41672   0.813   8.252   9.639 -0.2912 -1.3361 -2.4323
  302MOL0     H41673   1.262   7.965   9.990  0.7529 -0.0457  0.1998
  302MOL0     H41674   1.446   7.692  10.053 -2.7802 -1.6061  2.5091
  302MOL0     H41675   1.388   7.733   9.883 -1.3659  0.2760  1.0534
  302MOL0     H41676   1.445   7.860   9.996 -2.2837  0.7879  0.2911
  303MOL0     O41677   6.093   5.941   8.263 -0.1963  0.0073  0.2206
  303MOL0     C41678   6.143   5.878   8.352  0.5163  0.0625 -0.8353
  303MOL0     O41679   6.267   5.901   8.412  1.0990  0.2769  0.7725
  303MOL0     C41680   6.343   6.010   8.381 -0.2576  1.2333  0.3245
  303MOL0     C41681   6.316   6.138   8.422  0.2684  0.6713 -0.4146
  303MOL0     C41682   6.411   6.247   8.415  0.6999 -0.2269  0.0451
  303MOL0     C41683   6.540   6.221   8.365 -0.1797  0.2527  0.1532
  303MOL0     O41684   6.636   6.312   8.366  0.1862 -0.0798 -0.2834
  303MOL0     C41685   6.603   6.440   8.307  0.9125 -0.6454 -0.2423
  303MOL0     C41686   6.730   6.519   8.291  0.6819  0.1708  0.4496
  303MOL0     C41687   6.823   6.467   8.179  0.1790  0.7737 -0.8038
  303MOL0     C41688   6.965   6.536   8.189 -0.6321 -0.1642  0.0917
  303MOL0     C41689   6.973   6.670   8.109 -0.5198 -0.7900  0.7374
  303MOL0     C41690   7.099   6.748   8.137  0.5812 -0.4893 -0.1090
  303MOL0     C41691   7.122   6.862   8.040 -0.3134  0.3016  0.5027
  303MOL0     C41692   7.025   6.983   8.066 -0.1586 -0.2121 -0.2120
  303MOL0     N41693   6.998   7.054   7.939  0.9293  0.2790 -0.0359
  303MOL0     C41694   7.097   7.120   7.880 -0.1272  0.3262 -0.1867
  303MOL0     C41695   7.051   7.166   7.758  0.7805 -0.1626 -0.6991
  303MOL0     C41696   7.127   7.259   7.664  0.6342 -0.3572  0.6777
  303MOL0     C41697   7.042   7.360   7.584 -1.3106 -0.0385 -1.2095
  303MOL0     C41698   7.008   7.493   7.652 -0.6211  0.6084  0.1426
  303MOL0     C41699   6.916   7.486   7.775 -0.5761  0.3055 -0.5740
  303MOL0     O41700   6.881   7.617   7.816  0.0277 -0.1828 -0.0491
  303MOL0     C41701   6.754   7.645   7.861  0.7160 -0.2708 -0.0539
  303MOL0     C41702   6.663   7.546   7.904  0.5042 -0.8272 -0.4971
  303MOL0     C41703   6.534   7.574   7.953  0.4870  0.0028 -0.1924
  303MOL0     C41704   6.437   7.464   7.983 -0.1754 -0.0803 -0.2706
  303MOL0     C41705   6.499   7.712   7.961 -0.0024  0.2878  0.3628
  303MOL0     C41706   6.368   7.754   8.002  0.4071  0.7739  0.4016
  303MOL0     O41707   6.296   7.804   7.904 -0.6374  0.0129 -0.0940
  303MOL0     C41708   6.175   7.865   7.924  0.9766 -0.0941 -0.1412
  303MOL0     C41709   6.144   7.951   8.038  0.4617 -0.4032 -0.3480
  303MOL0     C41710   6.020   8.015   8.038  0.0074 -0.2829 -1.0792
  303MOL0     C41711   5.923   8.003   7.943 -0.0457  0.1640 -0.2410
  303MOL0     O41712   5.800   8.062   7.988 -0.6609 -0.2901  0.6631
  303MOL0     C41713   5.676   8.045   7.910 -0.4452  0.7611  0.2999
  303MOL0     C41714   5.558   8.065   8.008 -1.1918 -0.1920  0.3636
  303MOL0     C41715   5.540   8.205   8.050  0.6628  0.6163  0.2676
  303MOL0     C41716   5.428   8.230   8.148  0.4999  0.0601  0.8775
  303MOL0     C41717   5.420   8.378   8.189  0.3863 -1.0013  0.1244
  303MOL0     C41718   5.326   8.439   8.096  0.0692  0.1020  0.8851
  303MOL0     C41719   5.304   8.593   8.125  0.5737 -0.5292  0.8401
  303MOL0     C41720   5.170   8.629   8.044  0.8607  0.6867  0.1543
  303MOL0    Cl41721   5.036   8.601   8.170  0.3577 -0.1611 -0.1339
  303MOL0     C41722   5.944   7.924   7.838  0.2511 -0.4435 -0.7850
  303MOL0     C41723   6.066   7.851   7.835 -0.6391 -0.9450  0.8185
  303MOL0     O41724   6.332   7.731   8.114 -0.2220  0.2859 -0.1119
  303MOL0     C41725   6.596   7.808   7.931  0.0196 -0.5904  0.4485
  303MOL0     C41726   6.721   7.783   7.879 -0.4585  1.2259 -0.1412
  303MOL0     N41727   6.919   7.122   7.754 -0.0494  0.2858 -0.8340
  303MOL0     N41728   6.887   7.053   7.865 -0.5213  0.3945  0.4058
  303MOL0     C41729   6.570   6.098   8.317  0.6150 -0.1215 -0.1731
  303MOL0     C41730   6.476   5.996   8.330 -0.4812  0.2556  0.9037
  303MOL0     C41731   6.062   5.768   8.416  0.4080 -1.6951  0.4105
  303MOL0     C41732   6.084   5.745   8.549 -0.6700  0.2572  0.5181
  303MOL0     C41733   6.012   5.645   8.615 -0.0939  0.2315  0.0837
  303MOL0     C41734   5.913   5.573   8.559  0.8771  0.8819  0.4194
  303MOL0     O41735   5.855   5.464   8.621  0.3952  0.1844  0.1821
  303MOL0     C41736   5.795   5.359   8.536 -0.6124 -0.0066  0.6908
  303MOL0     C41737   5.786   5.230   8.609 -0.0496  0.9544 -0.4344
  303MOL0     C41738   5.668   5.230   8.709  0.4790  0.4254  1.6431
  303MOL0     C41739   5.600   5.086   8.720 -0.3937  1.5974  0.7538
  303MOL0     C41740   5.696   4.975   8.738  0.0804  0.5216 -0.5738
  303MOL0     C41741   5.794   4.900   8.746 -0.2429  0.5280  0.1093
  303MOL0     C41742   5.877   5.604   8.427 -0.2179  1.1133 -0.5095
  303MOL0     C41743   5.948   5.702   8.353 -0.8678 -0.3742 -0.7081
  303MOL0     C41744   5.897   5.740   8.211  0.4088 -0.3729 -0.2734
  303MOL0     H41745   6.216   6.151   8.462  0.1234  0.3868 -0.6823
  303MOL0     H41746   6.383   6.348   8.443  2.8023 -0.0111  1.5575
  303MOL0     H41747   6.531   6.494   8.368  1.2142 -0.1851 -0.2908
  303MOL0     H41748   6.559   6.430   8.207  1.7218 -0.7036 -0.6017
  303MOL0     H41749   6.700   6.622   8.267 -1.8664 -0.1166  1.9993
  303MOL0     H41750   6.770   6.526   8.392 -3.5579 -3.8019  2.8397
  303MOL0     H41751   6.828   6.358   8.189 -0.7160  0.8052  0.0443
  303MOL0     H41752   6.779   6.488   8.081  1.0297  0.0818 -1.3584
  303MOL0     H41753   6.990   6.557   8.293  0.6491  0.0632 -0.2488
  303MOL0     H41754   7.039   6.459   8.165 -1.2237 -0.4042 -1.0152
  303MOL0     H41755   6.879   6.726   8.119 -1.3839 -1.6277 -1.8374
  303MOL0     H41756   6.985   6.642   8.004  1.1736  0.4352  0.5765
  303MOL0     H41757   7.100   6.786   8.240 -0.3489 -2.3058  0.6244
  303MOL0     H41758   7.190   6.689   8.149 -0.0963 -0.9795  5.4433
  303MOL0     H41759   7.119   6.818   7.940  0.8255 -0.7972  0.9163
  303MOL0     H41760   7.225   6.896   8.047  0.0555 -0.8895  1.3381
  303MOL0     H41761   6.935   6.950   8.119  0.8082  0.4436  1.9869
  303MOL0     H41762   7.076   7.050   8.135 -1.7045 -0.7841  1.5706
  303MOL0     H41763   7.196   7.129   7.923  0.4684  0.8968 -1.6196
  303MOL0     H41764   7.179   7.203   7.585 -0.7838  1.0975 -1.3914
  303MOL0     H41765   7.200   7.319   7.718 -1.0820  3.4149 -0.8177
  303MOL0     H41766   7.103   7.394   7.500 -0.9587  2.2710 -0.1088
  303MOL0     H41767   6.954   7.306   7.546 -1.6858 -0.4368  0.1766
  303MOL0     H41768   7.102   7.548   7.667 -0.1496 -0.7554  2.8961
  303MOL0     H41769   6.957   7.551   7.575 -0.6051  0.1113 -0.2413
  303MOL0     H41770   6.827   7.424   7.760 -0.2958 -0.1652 -0.3101
  303MOL0     H41771   6.972   7.443   7.858 -0.4279  1.4168 -0.0802
  303MOL0     H41772   6.680   7.439   7.909  2.7680 -0.4436  1.9264
  303MOL0     H41773   6.395   7.484   8.082 -0.4462  0.5875 -0.5156
  303MOL0     H41774   6.479   7.364   7.993  0.9574  0.2878 -1.0850
  303MOL0     H41775   6.353   7.455   7.914 -0.7036 -0.3569  0.3999
  303MOL0     H41776   6.217   7.973   8.115  1.2187  3.0411 -1.8444
  303MOL0     H41777   6.004   8.080   8.124  2.4352 -0.6714 -0.2575
  303MOL0     H41778   5.670   8.105   7.819  1.9333  0.3984 -0.1700
  303MOL0     H41779   5.669   7.941   7.878  0.6878  0.6541  0.3769
  303MOL0     H41780   5.469   8.038   7.950 -0.0956  2.4614 -2.8852
  303MOL0     H41781   5.567   8.000   8.096  1.9746  0.1613  0.4007
  303MOL0     H41782   5.515   8.262   7.960 -0.2058 -2.3195 -1.4669
  303MOL0     H41783   5.634   8.240   8.093 -0.7569  3.1416  1.5869
  303MOL0     H41784   5.466   8.168   8.230  3.9705 -0.1733 -0.7250
  303MOL0     H41785   5.337   8.180   8.115  0.6437  0.1025  0.4076
  303MOL0     H41786   5.373   8.382   8.287 -1.4703  3.8342 -0.6882
  303MOL0     H41787   5.520   8.423   8.194  0.4483 -1.0953 -0.2363
  303MOL0     H41788   5.235   8.379   8.088  1.0844 -1.4161  0.1548
  303MOL0     H41789   5.372   8.430   7.998 -0.8471  1.3698  0.3203
  303MOL0     H41790   5.391   8.652   8.094 -1.4306  2.7806  0.9720
  303MOL0     H41791   5.289   8.622   8.229  2.5096 -2.3595  1.6992
  303MOL0     H41792   5.156   8.583   7.946  1.1360  2.5867 -0.8099
  303MOL0     H41793   5.167   8.734   8.015 -2.7254  0.1160 -2.1399
  303MOL0     H41794   5.863   7.918   7.765 -1.9150 -0.1147  1.4548
  303MOL0     H41795   6.079   7.783   7.752  1.7704 -0.7270  0.9583
  303MOL0     H41796   6.577   7.911   7.958  1.1555 -0.3890  0.5563
  303MOL0     H41797   6.795   7.862   7.869  1.8296 -1.0362 -3.0690
  303MOL0     H41798   6.667   6.100   8.268 -0.1741 -0.8999 -1.8499
  303MOL0     H41799   6.507   5.894   8.316  1.4256  1.1048 -1.7529
  303MOL0     H41800   6.162   5.791   8.608  2.5375  0.4339 -3.4602
  303MOL0     H41801   6.038   5.631   8.719 -0.1271 -0.4563  0.0036
  303MOL0     H41802   5.700   5.385   8.490 -0.4737 -2.2442 -1.0570
  303MOL0     H41803   5.864   5.346   8.452 -0.9708 -1.3458  0.5752
  303MOL0     H41804   5.878   5.216   8.667 -0.6581  2.0520  0.8638
  303MOL0     H41805   5.770   5.142   8.546  0.7196 -1.1878  2.1941
  303MOL0     H41806   5.703   5.258   8.809 -0.1559 -0.7570  2.2159
  303MOL0     H41807   5.599   5.306   8.672  0.1680 -0.6413 -0.1028
  303MOL0     H41808   5.534   5.071   8.634 -1.1281  0.7873  1.4356
  303MOL0     H41809   5.545   5.085   8.815  1.3825  2.1938  1.8251
  303MOL0     H41810   5.882   4.839   8.755  0.6752  2.0272  1.8319
  303MOL0     H41811   5.794   5.552   8.381 -0.1543  1.4878 -1.0502
  303MOL0     H41812   5.871   5.846   8.209 -0.8970 -0.6744 -0.8305
  303MOL0     H41813   5.969   5.721   8.131 -0.7420  1.3177 -1.7806
  303MOL0     H41814   5.808   5.683   8.182 -0.4328  1.3714 -1.2294
  304MOL0     O41815   7.691   1.020   7.944 -0.8893  0.0084  0.4360
  304MOL0     C41816   7.612   1.101   7.900  0.0552 -0.1697  0.7543
  304MOL0     O41817   7.601   1.116   7.770 -0.6210  0.9350  0.3807
  304MOL0     C41818   7.647   1.041   7.666 -1.2951 -0.5649  0.4266
  304MOL0     C41819   7.715   0.913   7.669 -0.0376  0.6125  0.2767
  304MOL0     C41820   7.770   0.839   7.563  1.2889 -1.2310 -0.1969
  304MOL0     C41821   7.744   0.889   7.435  0.1513  0.7160  0.2387
  304MOL0     O41822   7.806   0.824   7.329 -0.8999 -0.2052  0.9555
  304MOL0     C41823   7.857   0.908   7.226 -0.9008  1.0235  0.6293
  304MOL0     C41824   7.965   0.818   7.152  1.1943 -0.2871  0.2943
  304MOL0     C41825   7.895   0.722   7.042 -0.6406 -0.1962  0.8481
  304MOL0     C41826   7.992   0.633   6.966  0.3807  0.4409  0.2048
  304MOL0     C41827   8.006   0.675   6.817 -0.3573 -0.5699  0.4946
  304MOL0     C41828   8.117   0.784   6.816  0.9345 -0.5460  0.7067
  304MOL0     C41829   8.100   0.865   6.685  0.0494 -0.7087  0.0352
  304MOL0     C41830   8.171   1.008   6.687 -0.0912  0.2094  0.4174
  304MOL0     N41831   8.319   1.004   6.692  0.1516  0.6623  0.0800
  304MOL0     C41832   8.406   0.956   6.595  1.0807 -0.0366 -0.7731
  304MOL0     C41833   8.528   0.948   6.655 -0.2226  0.6525 -0.2885
  304MOL0     C41834   8.650   0.889   6.590  0.5754  0.5857  0.8050
  304MOL0     C41835   8.684   0.747   6.645  0.2238 -0.1467  0.3121
  304MOL0     C41836   8.816   0.699   6.593 -0.8430  1.5494  0.2065
  304MOL0     C41837   8.866   0.553   6.653 -0.4271  0.5989  1.1814
  304MOL0     O41838   8.775   0.451   6.619  0.5449 -0.1427  0.4350
  304MOL0     C41839   8.804   0.321   6.653 -0.2305 -1.1580  0.6827
  304MOL0     C41840   8.710   0.223   6.623  0.1004 -0.5197 -0.7524
  304MOL0     C41841   8.711   0.089   6.672 -0.1782  0.5741 -0.4598
  304MOL0     C41842   8.604  -0.008   6.630  0.7590  0.0000 -0.7910
  304MOL0     C41843   8.831   0.057   6.742  1.1352  0.0279 -0.0002
  304MOL0     C41844   8.862  -0.079   6.793 -0.8157 -0.4619 -0.3301
  304MOL0     O41845   8.752  -0.139   6.827 -0.5231 -0.0406 -0.3944
  304MOL0     C41846   8.758  -0.269   6.876  1.1841  0.3458 -0.0310
  304MOL0     C41847   8.680  -0.362   6.804 -0.3969  0.1661  0.3206
  304MOL0     C41848   8.681  -0.500   6.832  0.9517 -0.2141 -0.0960
  304MOL0     C41849   8.750  -0.547   6.949  0.6436 -0.3192 -0.2487
  304MOL0     O41850   8.750  -0.671   6.999  0.4320 -0.5036 -0.6409
  304MOL0     C41851   8.730  -0.781   6.912  0.0279  0.0067  0.2051
  304MOL0     C41852   8.696  -0.903   7.004  0.2787 -0.4565  0.3413
  304MOL0     C41853   8.600  -0.993   6.932  0.4963 -0.8503  0.4207
  304MOL0     C41854   8.663  -1.061   6.810 -0.2459 -0.4312  0.5659
  304MOL0     C41855   8.540  -1.148   6.753  0.8617  0.0905  0.1343
  304MOL0     C41856   8.435  -1.081   6.658 -1.5153 -0.4895 -0.3580
  304MOL0     C41857   8.319  -1.172   6.623 -0.1751  0.3112 -0.0675
  304MOL0     C41858   8.232  -1.103   6.525  0.2327  0.2910  0.8383
  304MOL0    Cl41859   8.297  -1.140   6.360  0.0521  0.2473  0.2357
  304MOL0     C41860   8.826  -0.451   7.025 -0.0075 -0.8698  0.0272
  304MOL0     C41861   8.834  -0.313   6.989 -0.7152 -0.2089  0.1492
  304MOL0     O41862   8.973  -0.123   6.800  0.6235 -0.2074  0.6957
  304MOL0     C41863   8.929   0.161   6.775  1.0524 -0.1115 -0.1970
  304MOL0     C41864   8.908   0.288   6.733  0.1290 -0.4644  0.0587
  304MOL0     N41865   8.524   1.017   6.777  0.5738  0.4243  0.4172
  304MOL0     N41866   8.393   1.046   6.802 -0.1432 -0.3461  0.5756
  304MOL0     C41867   7.668   1.006   7.416  0.8794 -0.1334 -0.8130
  304MOL0     C41868   7.632   1.088   7.531  0.5213  0.5652 -0.6298
  304MOL0     C41869   7.531   1.187   8.001 -0.1184 -0.1591  0.1111
  304MOL0     C41870   7.536   1.141   8.134 -0.2974 -0.5186 -0.1277
  304MOL0     C41871   7.462   1.196   8.230  0.5121  0.4222  0.3914
  304MOL0     C41872   7.378   1.308   8.201 -0.3081  0.2087 -0.1562
  304MOL0     O41873   7.296   1.380   8.284 -0.0564 -0.3844  0.7223
  304MOL0     C41874   7.329   1.394   8.417 -0.2226  0.4824 -0.5240
  304MOL0     C41875   7.201   1.392   8.505 -0.3449  0.8208 -0.2068
  304MOL0     C41876   7.125   1.266   8.493 -0.0556 -0.7382 -1.3009
  304MOL0     C41877   7.036   1.240   8.615 -0.0501 -0.4903  0.0779
  304MOL0     C41878   6.934   1.147   8.581  0.0468 -0.4224  0.1123
  304MOL0     C41879   6.850   1.062   8.551 -1.1689 -0.5631 -0.4134
  304MOL0     C41880   7.367   1.351   8.074 -0.4374 -1.1084  0.7194
  304MOL0     C41881   7.449   1.297   7.973  0.5221 -0.0967  0.5765
  304MOL0     C41882   7.421   1.339   7.827 -1.5404  0.3236 -0.7517
  304MOL0     H41883   7.736   0.872   7.767 -0.9501  3.8187  1.9815
  304MOL0     H41884   7.834   0.755   7.588  1.4977 -1.6081 -1.9018
  304MOL0     H41885   7.912   0.990   7.273 -0.7643  0.4703  1.4567
  304MOL0     H41886   7.792   0.949   7.148  1.5324  1.1067 -1.4852
  304MOL0     H41887   8.014   0.895   7.090 -1.0462  0.8272 -0.2111
  304MOL0     H41888   8.025   0.761   7.223  1.0611  0.6435  1.1844
  304MOL0     H41889   7.820   0.659   7.090 -1.0686 -1.7055 -1.6253
  304MOL0     H41890   7.848   0.783   6.964  0.1774  1.1605  1.3763
  304MOL0     H41891   8.094   0.632   7.004 -0.3538  0.0257  2.2898
  304MOL0     H41892   7.950   0.533   6.980 -1.1372  0.5733 -2.7283
  304MOL0     H41893   7.911   0.704   6.771 -0.7159  1.8600  2.5741
  304MOL0     H41894   8.040   0.587   6.761  0.1781 -0.8908  1.3134
  304MOL0     H41895   8.113   0.861   6.893  0.0417 -0.7268  0.8473
  304MOL0     H41896   8.216   0.737   6.821  1.7788  0.9399 -0.7962
  304MOL0     H41897   7.997   0.897   6.664  1.3450  3.5642 -0.7902
  304MOL0     H41898   8.122   0.802   6.598  1.3215  0.6096 -0.6460
  304MOL0     H41899   8.140   1.069   6.601  1.8045 -0.4354 -0.8002
  304MOL0     H41900   8.142   1.049   6.784 -1.5615 -0.5219  0.3154
  304MOL0     H41901   8.383   0.909   6.500  2.7933  1.1082 -1.8156
  304MOL0     H41902   8.731   0.958   6.611 -0.6122  1.9427  1.0643
  304MOL0     H41903   8.617   0.881   6.486  0.0960 -3.4640  1.0953
  304MOL0     H41904   8.680   0.748   6.754  2.0027  2.3778  0.4651
  304MOL0     H41905   8.609   0.675   6.611  0.5579 -0.4258  0.1656
  304MOL0     H41906   8.821   0.695   6.483  0.1784  2.2756  0.2100
  304MOL0     H41907   8.893   0.770   6.626  0.3087 -0.4348  2.0606
  304MOL0     H41908   8.965   0.525   6.616 -0.8944 -0.3849  0.6265
  304MOL0     H41909   8.872   0.556   6.762  0.4040  3.3763  1.1277
  304MOL0     H41910   8.629   0.248   6.556 -1.6374 -0.6350  1.1881
  304MOL0     H41911   8.523   0.027   6.565  1.4495 -2.7641 -3.3801
  304MOL0     H41912   8.546  -0.052   6.712  1.4462 -0.5695 -0.5946
  304MOL0     H41913   8.653  -0.096   6.586  2.4399 -0.8576  2.4892
  304MOL0     H41914   8.611  -0.333   6.725 -3.5454 -0.0416  2.8066
  304MOL0     H41915   8.620  -0.555   6.760  1.2231 -1.1427  0.3754
  304MOL0     H41916   8.648  -0.748   6.848  1.7279  0.4622 -1.8462
  304MOL0     H41917   8.805  -0.799   6.835  1.5015  0.5857  1.4490
  304MOL0     H41918   8.776  -0.961   7.052  0.6308  2.2557  3.4329
  304MOL0     H41919   8.644  -0.855   7.087  3.6040  0.0568  2.3334
  304MOL0     H41920   8.516  -0.926   6.910  1.1142  0.3076  1.4528
  304MOL0     H41921   8.556  -1.072   6.993 -1.2690  0.2206  0.5931
  304MOL0     H41922   8.751  -1.121   6.838  1.3344  0.7692 -1.4996
  304MOL0     H41923   8.703  -0.987   6.739 -2.0658 -0.8942 -1.0281
  304MOL0     H41924   8.588  -1.222   6.688  0.8819  0.2232 -0.0029
  304MOL0     H41925   8.491  -1.206   6.832 -1.9681  4.0582  1.6065
  304MOL0     H41926   8.491  -1.064   6.566  0.7981 -0.3540  0.9864
  304MOL0     H41927   8.389  -0.994   6.707  0.4028  0.4402 -0.1116
  304MOL0     H41928   8.271  -1.176   6.722  0.9000  0.5645  0.4757
  304MOL0     H41929   8.342  -1.275   6.595 -2.7789 -0.2173 -0.5437
  304MOL0     H41930   8.226  -0.995   6.538 -2.2045  0.3056  0.2028
  304MOL0     H41931   8.133  -1.151   6.527 -0.5648  1.8630  3.4671
  304MOL0     H41932   8.860  -0.489   7.121  0.1857 -2.3467 -0.6086
  304MOL0     H41933   8.882  -0.240   7.053 -1.9141  1.3289 -0.6614
  304MOL0     H41934   9.011   0.129   6.839 -0.4909 -0.6488  1.6156
  304MOL0     H41935   8.980   0.360   6.770  1.1149 -1.0808 -0.6386
  304MOL0     H41936   7.650   1.056   7.321  0.0195  1.2983  0.0777
  304MOL0     H41937   7.560   1.167   7.506  2.8346  2.4587 -1.7251
  304MOL0     H41938   7.608   1.064   8.163  0.6784  1.0976  2.0970
  304MOL0     H41939   7.461   1.146   8.326 -2.0526 -4.1956 -1.7034
  304MOL0     H41940   7.380   1.308   8.461 -0.0229 -0.1453 -1.9174
  304MOL0     H41941   7.389   1.479   8.450 -3.5828  1.7208  3.3575
  304MOL0     H41942   7.138   1.479   8.486  0.5026  1.5128  0.0670
  304MOL0     H41943   7.233   1.388   8.610 -2.5706  1.1084  0.5292
  304MOL0     H41944   7.057   1.272   8.408 -3.1589  1.5794  1.0769
  304MOL0     H41945   7.191   1.181   8.473  0.9650 -0.4707  0.6629
  304MOL0     H41946   7.003   1.330   8.668  2.4123 -1.1271  3.0036
  304MOL0     H41947   7.072   1.178   8.697 -2.1085 -0.3668  1.1398
  304MOL0     H41948   6.769   0.993   8.535 -0.8994 -0.9304 -0.1955
  304MOL0     H41949   7.281   1.409   8.042 -0.1048 -1.4950 -0.9704
  304MOL0     H41950   7.357   1.427   7.835 -0.7030  0.9090 -0.3639
  304MOL0     H41951   7.516   1.360   7.776 -1.0882  2.7115  0.9295
  304MOL0     H41952   7.360   1.263   7.778  0.1352 -1.5321 -0.0914
  305MOL0     O41953   3.437   8.442   6.542 -0.3373 -0.1726  0.5928
  305MOL0     C41954   3.453   8.428   6.424  0.7872 -0.3960  0.3448
  305MOL0     O41955   3.501   8.312   6.358  0.9935 -0.9179  0.3559
  305MOL0     C41956   3.583   8.228   6.442  1.0026 -0.5717  0.3785
  305MOL0     C41957   3.724   8.233   6.443  0.7604  0.3254 -0.4881
  305MOL0     C41958   3.802   8.150   6.532 -0.1092  0.1254  0.3637
  305MOL0     C41959   3.734   8.061   6.619 -0.2510 -0.5581  1.1802
  305MOL0     O41960   3.796   7.967   6.706 -0.1048 -0.6042 -0.1290
  305MOL0     C41961   3.938   7.978   6.716  0.1634  0.1327 -0.1910
  305MOL0     C41962   3.975   7.843   6.791 -0.5961 -0.3012  0.0096
  305MOL0     C41963   3.951   7.840   6.944  0.1224 -0.0711  0.1015
  305MOL0     C41964   4.026   7.721   7.017  0.5747 -0.0026  0.0876
  305MOL0     C41965   3.974   7.584   6.987  0.3398  0.3201  0.6184
  305MOL0     C41966   4.024   7.478   7.093  0.3965  0.1723  1.0148
  305MOL0     C41967   3.945   7.347   7.088  1.0033 -0.0610  0.9847
  305MOL0     C41968   4.024   7.244   7.159 -0.2862 -0.2199 -0.7381
  305MOL0     N41969   3.958   7.106   7.146 -0.2910 -0.4612 -0.4668
  305MOL0     C41970   3.862   7.060   7.235  0.4252 -0.5260 -0.0982
  305MOL0     C41971   3.822   6.945   7.185  0.2744 -0.3748 -1.2172
  305MOL0     C41972   3.734   6.844   7.258 -0.1386  0.0421 -0.2211
  305MOL0     C41973   3.625   6.777   7.175  0.6600 -0.3926  0.4114
  305MOL0     C41974   3.504   6.872   7.158 -0.0983  0.6290  0.5078
  305MOL0     C41975   3.382   6.785   7.103 -0.5079 -0.7805  0.7817
  305MOL0     O41976   3.371   6.780   6.961 -0.2921 -0.1282  0.2378
  305MOL0     C41977   3.251   6.751   6.900  1.1168 -0.2212  0.2955
  305MOL0     C41978   3.242   6.741   6.762 -0.5604  0.5252  0.0123
  305MOL0     C41979   3.126   6.718   6.690  0.3541  0.6185 -0.9311
  305MOL0     C41980   3.139   6.714   6.529 -0.9594 -0.7857 -0.1385
  305MOL0     C41981   3.015   6.690   6.765 -0.2732  1.0547  0.2862
  305MOL0     C41982   2.882   6.629   6.705  0.1382 -0.1980  0.0341
  305MOL0     O41983   2.752   6.662   6.751  0.2084  0.0358 -0.0371
  305MOL0     C41984   2.642   6.626   6.674  0.8078 -0.6597  0.1152
  305MOL0     C41985   2.634   6.647   6.534  0.5335 -0.2941  0.1864
  305MOL0     C41986   2.524   6.602   6.465  0.8679  0.2727  0.5038
  305MOL0     C41987   2.410   6.558   6.532  0.2659  0.7488  0.6754
  305MOL0     O41988   2.296   6.520   6.461 -0.4420 -0.3920 -0.1203
  305MOL0     C41989   2.171   6.485   6.533 -1.1515 -0.2990 -0.5586
  305MOL0     C41990   2.076   6.438   6.425  0.3880 -0.0602  0.1400
  305MOL0     C41991   1.958   6.358   6.484  0.2665 -0.6818 -0.1749
  305MOL0     C41992   1.859   6.444   6.570 -0.5747  0.7612 -0.0252
  305MOL0     C41993   1.742   6.361   6.614  0.2342  0.2288  0.1101
  305MOL0     C41994   1.643   6.436   6.691 -0.2159  0.1571 -0.0885
  305MOL0     C41995   1.532   6.489   6.605  0.3283 -0.0603 -0.0612
  305MOL0     C41996   1.442   6.382   6.534 -1.1979 -0.6009 -0.3466
  305MOL0    Cl41997   1.285   6.446   6.484  0.1517 -0.0085 -0.1697
  305MOL0     C41998   2.407   6.557   6.673 -0.0837 -0.2524 -0.4285
  305MOL0     C41999   2.529   6.580   6.742 -1.0927 -0.1634 -0.5286
  305MOL0     O42000   2.902   6.539   6.624  0.1422 -0.6063 -0.3429
  305MOL0     C42001   3.014   6.705   6.901 -0.1801  0.6942  0.3697
  305MOL0     C42002   3.131   6.738   6.970 -0.7310  0.5691  0.4307
  305MOL0     N42003   3.887   6.925   7.064  0.1431  0.0060 -1.1569
  305MOL0     N42004   3.958   7.030   7.034 -0.1296 -0.2905 -0.6256
  305MOL0     C42005   3.595   8.063   6.629  0.0546  0.3705  0.5676
  305MOL0     C42006   3.521   8.150   6.539 -1.4412 -0.4516 -0.2660
  305MOL0     C42007   3.413   8.540   6.327 -1.1775 -0.0164 -0.1319
  305MOL0     C42008   3.354   8.515   6.207  1.6579  0.0445  0.1653
  305MOL0     C42009   3.307   8.610   6.114 -0.4531 -0.1675 -0.0581
  305MOL0     C42010   3.317   8.743   6.148  0.7062  0.1055 -0.2053
  305MOL0     O42011   3.260   8.828   6.061 -0.6265  0.1278  0.4144
  305MOL0     C42012   3.292   8.963   6.085  0.5767 -0.0976  0.4375
  305MOL0     C42013   3.203   9.046   5.997  0.8077 -0.0685 -0.1182
  305MOL0     C42014   3.229   9.197   6.024  0.5073 -0.2794  1.2632
  305MOL0     C42015   3.148   9.299   5.950 -0.3745  0.5230  0.3758
  305MOL0     C42016   3.207   9.308   5.815 -0.9266 -0.1197 -0.2138
  305MOL0     C42017   3.263   9.329   5.705 -0.3074 -1.3389 -0.2889
  305MOL0     C42018   3.398   8.773   6.263  0.0396  0.7167 -0.3646
  305MOL0     C42019   3.449   8.675   6.352  0.5093  1.1372 -0.9540
  305MOL0     C42020   3.527   8.719   6.477 -0.0448  0.8003  0.1058
  305MOL0     H42021   3.767   8.300   6.369  1.0026 -0.2753 -0.8938
  305MOL0     H42022   3.909   8.152   6.517 -0.3409  0.3586 -1.4791
  305MOL0     H42023   3.980   8.063   6.770 -0.2603 -0.3267  0.9008
  305MOL0     H42024   3.979   7.970   6.615  0.9122  1.8384 -0.0558
  305MOL0     H42025   3.937   7.748   6.752  0.8586 -0.7830 -0.2959
  305MOL0     H42026   4.084   7.836   6.791 -0.5404 -1.0627  3.1446
  305MOL0     H42027   4.000   7.927   6.990 -0.3435 -0.0603  0.5818
  305MOL0     H42028   3.843   7.842   6.961 -0.3662 -1.1468 -2.3432
  305MOL0     H42029   4.130   7.717   6.983 -0.2511 -1.2485 -2.5960
  305MOL0     H42030   4.026   7.733   7.125 -2.6225 -1.3860  0.3585
  305MOL0     H42031   4.008   7.549   6.888 -0.1052 -1.0605  0.9315
  305MOL0     H42032   3.867   7.599   7.002  0.4005  2.1551 -0.4719
  305MOL0     H42033   4.129   7.463   7.065 -0.7382 -2.8761 -2.5211
  305MOL0     H42034   4.020   7.518   7.194 -3.2742  2.5780  0.1271
  305MOL0     H42035   3.938   7.305   6.987 -2.0081 -1.5822  1.6922
  305MOL0     H42036   3.839   7.357   7.116  0.3380 -2.6991 -0.2878
  305MOL0     H42037   4.128   7.241   7.124 -0.2027  1.6123 -0.7399
  305MOL0     H42038   4.025   7.281   7.262 -0.1926  1.6327 -1.3705
  305MOL0     H42039   3.830   7.100   7.331  0.9049 -1.4492  0.4728
  305MOL0     H42040   3.679   6.886   7.343 -2.0023 -4.1873  0.9470
  305MOL0     H42041   3.800   6.770   7.305 -1.1083  0.0919  1.3042
  305MOL0     H42042   3.675   6.751   7.081  2.3795  1.8274  0.6056
  305MOL0     H42043   3.589   6.687   7.225  0.2709 -0.7317 -0.4607
  305MOL0     H42044   3.487   6.915   7.256  2.7866  3.0780  0.0714
  305MOL0     H42045   3.527   6.958   7.095 -4.0949  1.2670 -0.3495
  305MOL0     H42046   3.390   6.686   7.147  0.6079 -1.4736 -0.8960
  305MOL0     H42047   3.292   6.833   7.144  0.1730  2.1880 -0.8700
  305MOL0     H42048   3.328   6.758   6.698 -1.7798  2.2751 -1.3017
  305MOL0     H42049   3.043   6.700   6.478 -2.4514  0.6935  2.0639
  305MOL0     H42050   3.200   6.634   6.486  0.9119  2.5915 -4.4493
  305MOL0     H42051   3.180   6.803   6.480  0.4045 -2.2547 -1.7903
  305MOL0     H42052   2.721   6.682   6.479 -0.5782 -1.5553 -2.6072
  305MOL0     H42053   2.533   6.597   6.357 -2.1872 -0.1406  0.1751
  305MOL0     H42054   2.194   6.392   6.587  0.6933 -1.2751 -2.8266
  305MOL0     H42055   2.133   6.574   6.583  2.6078  1.5394 -0.6799
  305MOL0     H42056   2.036   6.517   6.361  0.6349 -3.3928 -4.6327
  305MOL0     H42057   2.131   6.368   6.361  0.5787 -1.0673  1.3754
  305MOL0     H42058   2.008   6.283   6.545  0.5809  0.2079  0.6789
  305MOL0     H42059   1.893   6.303   6.415 -0.4231  0.7325 -0.7050
  305MOL0     H42060   1.820   6.528   6.513 -0.1564  1.2578  0.4054
  305MOL0     H42061   1.898   6.484   6.664 -1.3230  1.1102  0.1412
  305MOL0     H42062   1.696   6.308   6.531 -3.5157 -2.6504  3.5816
  305MOL0     H42063   1.780   6.285   6.683 -0.3078 -0.5453 -0.4317
  305MOL0     H42064   1.687   6.517   6.751 -1.6270 -0.7239  2.3049
  305MOL0     H42065   1.597   6.381   6.774  0.1560  1.4108  0.9889
  305MOL0     H42066   1.585   6.554   6.535  2.1094  0.1862  1.4086
  305MOL0     H42067   1.463   6.551   6.662  0.1763 -0.6519  0.4101
  305MOL0     H42068   1.434   6.301   6.607  3.0384 -0.9868 -0.0875
  305MOL0     H42069   1.498   6.345   6.447  1.0840  2.4690 -0.3560
  305MOL0     H42070   2.324   6.513   6.728  1.1699 -3.1199 -0.6662
  305MOL0     H42071   2.533   6.591   6.850  1.3760  1.8935 -0.7253
  305MOL0     H42072   2.921   6.689   6.953  0.0275  0.0793  0.5622
  305MOL0     H42073   3.122   6.738   7.078 -1.0749 -2.0019  0.4509
  305MOL0     H42074   3.531   8.001   6.689 -0.8249 -1.8834 -2.4506
  305MOL0     H42075   3.413   8.142   6.542 -1.3894 -1.1687  2.3662
  305MOL0     H42076   3.326   8.411   6.190 -0.5680 -0.1980  4.0786
  305MOL0     H42077   3.250   8.585   6.025  0.1887 -0.3022 -0.4382
  305MOL0     H42078   3.268   8.990   6.189 -0.3944  1.4096 -0.1435
  305MOL0     H42079   3.399   8.983   6.077  0.7631 -1.5317 -1.2029
  305MOL0     H42080   3.100   9.015   6.014 -0.6400  3.4485 -1.7175
  305MOL0     H42081   3.221   9.042   5.889 -1.0217 -1.0357 -0.4196
  305MOL0     H42082   3.187   9.212   6.124 -3.1806 -0.6865 -0.0473
  305MOL0     H42083   3.335   9.214   6.004  0.1776 -1.9610 -2.8478
  305MOL0     H42084   3.164   9.394   6.001 -2.2736  0.5596  0.9553
  305MOL0     H42085   3.045   9.263   5.953  0.3522 -2.5613 -3.2789
  305MOL0     H42086   3.313   9.346   5.612  2.0084  2.3835  1.4230
  305MOL0     H42087   3.432   8.876   6.270  2.7769 -0.0878 -0.6614
  305MOL0     H42088   3.554   8.821   6.452 -1.1541  0.9636 -0.4685
  305MOL0     H42089   3.466   8.718   6.569 -4.2520 -4.0738 -2.2078
  305MOL0     H42090   3.614   8.658   6.501 -1.1795 -0.0177  2.4992
  306MOL0     O42091   6.429   7.922   2.349  0.0923  0.8031 -0.5566
  306MOL0     C42092   6.515   7.910   2.429  0.1730 -0.2183 -0.3972
  306MOL0     O42093   6.533   7.996   2.538  0.2804  0.0978 -0.5028
  306MOL0     C42094   6.426   8.065   2.586  0.6124 -0.5077  0.1309
  306MOL0     C42095   6.463   8.168   2.673 -0.0778 -0.3873 -0.4276
  306MOL0     C42096   6.358   8.230   2.749  0.1069 -0.4355 -0.3724
  306MOL0     C42097   6.232   8.188   2.745 -0.6165  1.4934  0.6807
  306MOL0     O42098   6.130   8.247   2.800  0.0019  0.3440 -0.2438
  306MOL0     C42099   6.073   8.342   2.723  0.4763 -0.1450  0.5496
  306MOL0     C42100   5.962   8.409   2.791 -0.4081  0.1547 -0.3857
  306MOL0     C42101   5.856   8.318   2.852 -0.4061 -0.5029  0.4030
  306MOL0     C42102   5.748   8.277   2.747 -0.0189 -0.3615  1.0088
  306MOL0     C42103   5.607   8.263   2.810 -0.7929  0.0228  0.4426
  306MOL0     C42104   5.578   8.146   2.917 -1.0055  0.1036 -0.0696
  306MOL0     C42105   5.426   8.122   2.945  0.5766  0.2897  1.0096
  306MOL0     C42106   5.361   8.245   3.009  0.1891 -0.5052 -0.0741
  306MOL0     N42107   5.446   8.301   3.119  0.3802  0.4915  0.2698
  306MOL0     C42108   5.432   8.282   3.261 -0.8552 -0.4028 -0.1944
  306MOL0     C42109   5.514   8.376   3.324  0.0798 -0.1951  0.1661
  306MOL0     C42110   5.532   8.404   3.469 -0.0254  0.4987  0.4650
  306MOL0     C42111   5.448   8.522   3.508  0.0446 -0.5824  0.2924
  306MOL0     C42112   5.453   8.561   3.651  0.3849 -0.0133  0.5273
  306MOL0     C42113   5.372   8.465   3.740  0.0929 -0.3965  0.6804
  306MOL0     O42114   5.239   8.489   3.715  0.0460  0.7052  0.3397
  306MOL0     C42115   5.170   8.607   3.758 -0.3499  0.1184  0.2570
  306MOL0     C42116   5.224   8.702   3.852 -0.5430 -0.8440  0.3340
  306MOL0     C42117   5.156   8.825   3.875 -0.1750  0.0298 -1.1449
  306MOL0     C42118   5.232   8.925   3.958  0.0789  0.2184 -0.0907
  306MOL0     C42119   5.027   8.839   3.828  0.1121  0.3733  0.3907
  306MOL0     C42120   4.929   8.950   3.852  0.7491  0.7120 -0.0842
  306MOL0     O42121   4.811   8.947   3.777  1.0396 -0.4941  0.2554
  306MOL0     C42122   4.694   8.997   3.834  0.1862 -0.6685 -0.9544
  306MOL0     C42123   4.676   9.025   3.981  0.6989 -0.0556  0.8628
  306MOL0     C42124   4.542   9.051   4.026  0.1822 -0.5845  1.6005
  306MOL0     C42125   4.426   9.063   3.937  0.3322 -0.0830  0.3793
  306MOL0     O42126   4.298   9.091   3.969 -0.3811  0.5504  0.2575
  306MOL0     C42127   4.299   9.217   4.044 -0.4136  0.4711 -0.4508
  306MOL0     C42128   4.161   9.267   4.082 -0.5672  0.5058 -0.0249
  306MOL0     C42129   4.108   9.362   3.981  0.1449  0.0678 -0.1138
  306MOL0     C42130   4.035   9.287   3.873  0.8703 -0.1086  0.0057
  306MOL0     C42131   3.964   9.383   3.765  0.4104  0.1680 -0.1818
  306MOL0     C42132   4.056   9.414   3.645 -0.4425  0.5812 -0.1858
  306MOL0     C42133   3.976   9.485   3.537 -1.0049  0.4093 -0.7170
  306MOL0     C42134   4.065   9.583   3.459  0.0895 -0.5438 -0.5060
  306MOL0    Cl42135   4.181   9.477   3.367  0.4149  0.1046  0.0902
  306MOL0     C42136   4.454   9.027   3.810 -0.2522 -0.4425  0.3615
  306MOL0     C42137   4.583   9.002   3.752 -0.3247 -0.1688 -0.3377
  306MOL0     O42138   4.961   9.030   3.932  0.7056 -0.1271  0.3823
  306MOL0     C42139   4.964   8.726   3.753  0.0910  0.2346  0.1242
  306MOL0     C42140   5.046   8.621   3.712  0.7429 -0.4035 -0.3909
  306MOL0     N42141   5.562   8.457   3.218  0.0989 -0.9348 -0.8396
  306MOL0     N42142   5.510   8.411   3.105 -0.8179 -0.3549  0.5656
  306MOL0     C42143   6.200   8.090   2.649 -0.8430  0.1553 -0.4758
  306MOL0     C42144   6.292   8.026   2.570  0.0407  0.0414 -0.3503
  306MOL0     C42145   6.619   7.815   2.388 -0.3974 -0.6168 -0.7532
  306MOL0     C42146   6.632   7.770   2.260 -0.4313 -0.0037 -0.0703
  306MOL0     C42147   6.741   7.693   2.212 -1.1142  0.3564  0.5063
  306MOL0     C42148   6.848   7.657   2.303 -0.6617  1.3437 -0.5291
  306MOL0     O42149   6.963   7.588   2.256 -0.3276 -1.1095  0.3229
  306MOL0     C42150   7.025   7.499   2.348 -0.5317 -0.6546  0.2946
  306MOL0     C42151   7.102   7.385   2.273  0.1633 -0.0941 -0.2536
  306MOL0     C42152   7.012   7.277   2.227  0.1344  0.3489  0.6641
  306MOL0     C42153   6.983   7.276   2.074  0.2340 -0.3329 -0.5113
  306MOL0     C42154   6.881   7.174   2.034 -0.0799  1.1745 -0.0997
  306MOL0     C42155   6.813   7.072   2.029  0.1566 -0.5458 -0.0468
  306MOL0     C42156   6.832   7.699   2.435  0.3616  0.3690 -0.3091
  306MOL0     C42157   6.717   7.768   2.482 -0.0522 -0.3932  0.0081
  306MOL0     C42158   6.700   7.788   2.633 -0.0186  0.2786  0.3425
  306MOL0     H42159   6.559   8.216   2.687 -0.4201 -0.4858  2.9663
  306MOL0     H42160   6.380   8.313   2.817  1.1784  2.0680 -3.5404
  306MOL0     H42161   6.038   8.289   2.634 -0.8327 -0.9616  1.5069
  306MOL0     H42162   6.141   8.426   2.704 -0.9364  1.2130  1.2636
  306MOL0     H42163   5.993   8.488   2.861  0.0064  2.4767 -2.9761
  306MOL0     H42164   5.916   8.467   2.711  0.9637 -0.4353 -1.6438
  306MOL0     H42165   5.913   8.236   2.897  0.5486  0.6909  1.4547
  306MOL0     H42166   5.810   8.371   2.936 -0.0437 -0.7044  0.7373
  306MOL0     H42167   5.743   8.357   2.672  1.9953 -3.0459 -2.2489
  306MOL0     H42168   5.781   8.183   2.702  4.5867  0.1672  2.7568
  306MOL0     H42169   5.547   8.249   2.720  0.1425  0.2108 -0.2217
  306MOL0     H42170   5.587   8.364   2.847 -2.1944  0.1154 -0.5140
  306MOL0     H42171   5.627   8.067   2.859  1.9078  0.9876  0.9797
  306MOL0     H42172   5.639   8.163   3.006  1.9280  0.1763 -1.9416
  306MOL0     H42173   5.415   8.035   3.009  0.3435  0.9737  1.9201
  306MOL0     H42174   5.368   8.099   2.855  0.9510 -1.0926  1.1003
  306MOL0     H42175   5.359   8.318   2.927  2.0232 -0.8448 -0.4435
  306MOL0     H42176   5.262   8.218   3.048  0.6056  1.5111  2.7187
  306MOL0     H42177   5.371   8.209   3.312  1.4014  0.1819  3.8439
  306MOL0     H42178   5.641   8.410   3.480  0.1666 -2.5228  1.2298
  306MOL0     H42179   5.513   8.316   3.532  2.2520 -0.4859 -0.1252
  306MOL0     H42180   5.477   8.604   3.442  1.1262 -1.7716 -0.7569
  306MOL0     H42181   5.348   8.485   3.482  1.4617 -2.9133 -2.3836
  306MOL0     H42182   5.559   8.551   3.678  0.2931  0.6868  1.1888
  306MOL0     H42183   5.421   8.665   3.662 -1.4180 -0.3436 -1.0823
  306MOL0     H42184   5.386   8.361   3.711 -4.5224 -1.4478  1.4380
  306MOL0     H42185   5.394   8.470   3.847  1.1979  0.5549  0.4371
  306MOL0     H42186   5.328   8.683   3.875 -0.2599 -2.0695 -1.7044
  306MOL0     H42187   5.240   9.009   3.888 -1.7316  0.2222 -0.3566
  306MOL0     H42188   5.329   8.885   3.988  0.6347  0.6780 -1.1972
  306MOL0     H42189   5.185   8.939   4.055  1.6399  2.0468  0.4516
  306MOL0     H42190   4.763   9.000   4.041  0.3159  0.3668  1.6101
  306MOL0     H42191   4.544   9.077   4.132  2.2017  1.5496  1.1097
  306MOL0     H42192   4.348   9.210   4.141 -3.6422  1.1777  1.3711
  306MOL0     H42193   4.361   9.286   3.986  1.3673  1.3194  2.2819
  306MOL0     H42194   4.090   9.185   4.098  0.3236 -0.1564  0.6323
  306MOL0     H42195   4.180   9.321   4.176  1.1657 -2.0678  1.2335
  306MOL0     H42196   4.190   9.426   3.948 -0.6273 -0.4200 -3.3524
  306MOL0     H42197   4.031   9.427   4.024 -0.3593  1.2237 -2.5492
  306MOL0     H42198   3.955   9.226   3.915  1.1914 -0.6063 -0.0929
  306MOL0     H42199   4.106   9.220   3.823  0.4644  0.4375 -1.3531
  306MOL0     H42200   3.881   9.331   3.716  0.2768 -0.0746  0.2935
  306MOL0     H42201   3.929   9.472   3.818  0.0295  0.2975 -0.6580
  306MOL0     H42202   4.105   9.326   3.602  2.7356  2.2070 -0.1649
  306MOL0     H42203   4.131   9.478   3.693 -2.5883  3.3345 -0.2336
  306MOL0     H42204   3.890   9.535   3.583 -3.2271  0.2421 -4.3169
  306MOL0     H42205   3.922   9.416   3.471 -1.1793  0.8723 -1.0637
  306MOL0     H42206   4.123   9.657   3.515  2.1659 -0.6831 -2.3435
  306MOL0     H42207   4.007   9.638   3.384 -2.7650 -1.5405  0.8168
  306MOL0     H42208   4.365   9.030   3.749 -0.8915  2.0382  1.3089
  306MOL0     H42209   4.595   8.987   3.645 -0.2458 -1.3431 -0.1790
  306MOL0     H42210   4.862   8.727   3.716  0.9828 -1.0271 -2.6817
  306MOL0     H42211   5.005   8.543   3.649 -0.6497 -0.5217  0.6167
  306MOL0     H42212   6.097   8.063   2.626 -1.0862  0.1071  0.5883
  306MOL0     H42213   6.249   7.946   2.510  1.3424 -0.5447 -0.5274
  306MOL0     H42214   6.556   7.797   2.187 -0.8320 -1.1712 -0.1141
  306MOL0     H42215   6.748   7.663   2.107  0.9960 -0.2492  0.7689
  306MOL0     H42216   7.100   7.562   2.397 -0.3011 -1.8350  1.5273
  306MOL0     H42217   6.969   7.459   2.432  1.6322 -0.6120  1.8508
  306MOL0     H42218   7.158   7.331   2.351  0.1037 -2.2253 -1.5995
  306MOL0     H42219   7.167   7.428   2.197 -3.0722  3.6788 -1.2286
  306MOL0     H42220   7.063   7.184   2.254  0.8145 -0.7775 -3.6983
  306MOL0     H42221   6.915   7.295   2.276  0.9105  3.0671  1.3544
  306MOL0     H42222   7.074   7.267   2.014  0.1532 -1.5678 -0.4864
  306MOL0     H42223   6.945   7.376   2.052  1.7482 -0.0060 -1.7585
  306MOL0     H42224   6.752   6.985   2.020  4.0082 -3.2712 -3.0920
  306MOL0     H42225   6.903   7.666   2.510 -1.6453 -0.8150  1.1599
  306MOL0     H42226   6.757   7.877   2.663  1.6394 -0.5619 -0.2079
  306MOL0     H42227   6.596   7.801   2.664  0.5718  1.2568  2.0564
  306MOL0     H42228   6.749   7.701   2.676  0.3542  0.0398 -0.5506
  307MOL0     O42229  11.019   1.268   5.847 -0.4706 -0.5299  0.7879
  307MOL0     C42230  10.933   1.334   5.804  1.0785  0.3882  0.2570
  307MOL0     O42231  10.855   1.408   5.882  0.3337  0.7116 -0.4032
  307MOL0     C42232  10.829   1.373   6.012  0.6848  0.6038  0.4102
  307MOL0     C42233  10.772   1.477   6.087  0.1033 -0.0046 -0.0669
  307MOL0     C42234  10.732   1.449   6.219  0.3982  0.2165  0.6046
  307MOL0     C42235  10.715   1.320   6.274 -0.2245 -0.5508  0.1615
  307MOL0     O42236  10.679   1.309   6.409  0.4068 -0.5481 -0.1808
  307MOL0     C42237  10.758   1.237   6.489 -0.4499  0.1970 -0.6649
  307MOL0     C42238  10.881   1.330   6.522 -0.3174 -0.4217 -0.3371
  307MOL0     C42239  10.979   1.270   6.619  0.3339 -0.2668  0.7026
  307MOL0     C42240  10.937   1.294   6.762  0.9295 -0.0865 -0.0538
  307MOL0     C42241  11.030   1.237   6.859 -0.1657  0.8311  0.4841
  307MOL0     C42242  10.978   1.238   7.002  0.7525 -0.6831 -0.7395
  307MOL0     C42243  11.076   1.194   7.116  0.1076 -0.9629  0.0413
  307MOL0     C42244  11.203   1.286   7.113  0.5939 -0.0251 -1.2483
  307MOL0     N42245  11.198   1.416   7.181 -0.2754 -0.6720  0.2943
  307MOL0     C42246  11.153   1.533   7.121 -0.5357 -0.6814 -0.4079
  307MOL0     C42247  11.213   1.635   7.185 -0.5137  0.6497  0.3881
  307MOL0     C42248  11.191   1.780   7.162 -0.5042  0.0547  0.4529
  307MOL0     C42249  11.056   1.839   7.223  0.0625 -1.0666  0.0585
  307MOL0     C42250  11.072   1.987   7.266  0.0507 -0.2187 -0.0015
  307MOL0     C42251  11.117   2.080   7.151  0.7558 -0.0128  0.5384
  307MOL0     O42252  11.002   2.110   7.063  0.4071  0.3938  0.4901
  307MOL0     C42253  11.028   2.095   6.927 -0.3807 -0.6905  0.0898
  307MOL0     C42254  11.032   1.962   6.881  0.1476 -0.8386 -1.3142
  307MOL0     C42255  11.082   1.944   6.754  0.5564  0.2881  0.0062
  307MOL0     C42256  11.086   1.799   6.713 -0.1536 -0.2351  0.8752
  307MOL0     C42257  11.115   2.047   6.667 -0.7110  0.0581  0.7862
  307MOL0     C42258  11.181   2.024   6.537  0.1513  0.8185 -0.8446
  307MOL0     O42259  11.181   1.902   6.483 -0.1399  0.0209  0.1670
  307MOL0     C42260  11.241   1.894   6.363 -0.0087  0.1718  0.2574
  307MOL0     C42261  11.363   1.829   6.361 -0.1134  1.0252  0.3153
  307MOL0     C42262  11.429   1.801   6.239  0.2012 -0.1805 -1.0480
  307MOL0     C42263  11.385   1.856   6.119  0.7804  0.1022  0.2646
  307MOL0     O42264  11.432   1.841   5.986  0.2166 -0.4342  0.2347
  307MOL0     C42265  11.494   1.713   5.977  0.7198 -0.1796 -0.1410
  307MOL0     C42266  11.573   1.701   5.852 -0.5497  0.2910  0.4652
  307MOL0     C42267  11.709   1.778   5.838  0.2205 -0.5396  0.2973
  307MOL0     C42268  11.764   1.787   5.696  0.3651 -1.1105 -0.4511
  307MOL0     C42269  11.806   1.649   5.634  0.1006 -0.7665 -1.5057
  307MOL0     C42270  11.921   1.651   5.529  0.2036  1.0484  0.5335
  307MOL0     C42271  11.870   1.657   5.376 -0.9414  0.8394 -0.1569
  307MOL0     C42272  11.899   1.787   5.300 -0.0694  0.4610  0.2215
  307MOL0    Cl42273  11.807   1.926   5.370 -0.0855 -0.1711  0.6055
  307MOL0     C42274  11.264   1.929   6.127 -0.0339 -0.1063  0.3101
  307MOL0     C42275  11.196   1.954   6.238 -0.9527 -0.6637 -0.5366
  307MOL0     O42276  11.253   2.122   6.500  0.7869 -0.3107 -0.2823
  307MOL0     C42277  11.110   2.176   6.718  0.6527  1.0614 -0.0973
  307MOL0     C42278  11.062   2.206   6.850  0.2191 -0.1227  0.7676
  307MOL0     N42279  11.295   1.584   7.295 -0.1415  1.0201 -0.5629
  307MOL0     N42280  11.287   1.454   7.286  0.1269 -0.7098  0.5961
  307MOL0     C42281  10.750   1.211   6.199 -0.1885 -0.8306  0.1426
  307MOL0     C42282  10.813   1.243   6.067  0.5543  0.7007  0.9784
  307MOL0     C42283  10.933   1.383   5.661 -0.5104  0.5910  0.1439
  307MOL0     C42284  10.952   1.288   5.565 -0.3299  0.1523 -0.8716
  307MOL0     C42285  10.956   1.311   5.426  0.1505 -0.1832 -0.0535
  307MOL0     C42286  10.934   1.446   5.390 -0.5064 -0.6185 -0.0775
  307MOL0     O42287  10.935   1.483   5.255 -0.4409 -0.0558 -0.2100
  307MOL0     C42288  10.942   1.403   5.141  0.1888 -0.5788 -0.1993
  307MOL0     C42289  11.085   1.397   5.090  1.3198  0.4555  0.7798
  307MOL0     C42290  11.091   1.279   4.985  0.3944  0.1102  0.5217
  307MOL0     C42291  10.981   1.279   4.877 -0.1135  1.0558  1.1803
  307MOL0     C42292  10.961   1.147   4.816 -0.3882 -0.3994  1.1094
  307MOL0     C42293  10.948   1.034   4.773  0.5304 -0.4330  0.1959
  307MOL0     C42294  10.922   1.549   5.487 -0.1423 -0.0111  0.0760
  307MOL0     C42295  10.919   1.518   5.623  0.7142  0.3619 -0.3351
  307MOL0     C42296  10.871   1.633   5.704  0.1108  0.1910  0.4880
  307MOL0     H42297  10.756   1.576   6.046  0.1873 -0.2410 -0.6789
  307MOL0     H42298  10.696   1.527   6.287  0.7432  2.6632 -1.8494
  307MOL0     H42299  10.795   1.144   6.444 -1.2948 -0.0585 -0.8429
  307MOL0     H42300  10.702   1.205   6.578 -2.0132  1.4046 -1.1744
  307MOL0     H42301  10.940   1.360   6.434  1.5150  3.4019  1.9130
  307MOL0     H42302  10.845   1.426   6.561  3.7365 -0.0052  3.1260
  307MOL0     H42303  10.982   1.162   6.608 -1.6800 -0.1842 -1.2751
  307MOL0     H42304  11.079   1.308   6.598 -0.2205 -0.0186 -1.8053
  307MOL0     H42305  10.943   1.403   6.771  0.7105  0.0195 -0.9957
  307MOL0     H42306  10.834   1.260   6.775  0.8563 -1.3443 -3.0360
  307MOL0     H42307  11.123   1.295   6.857  1.6361 -1.6920  2.7719
  307MOL0     H42308  11.066   1.138   6.830  0.8093  1.7913 -1.8734
  307MOL0     H42309  10.942   1.340   7.019 -0.5535 -0.7764 -2.6856
  307MOL0     H42310  10.882   1.187   7.012 -1.3383  2.9587 -0.3480
  307MOL0     H42311  11.101   1.088   7.104  0.4572 -0.8426 -0.3384
  307MOL0     H42312  11.029   1.209   7.213  1.9891  0.2581  0.8193
  307MOL0     H42313  11.288   1.230   7.152  1.3623  2.1351  0.3927
  307MOL0     H42314  11.232   1.318   7.013  0.2284  2.5481 -0.6032
  307MOL0     H42315  11.093   1.540   7.032 -2.4591 -1.8957  0.7148
  307MOL0     H42316  11.206   1.793   7.054 -1.2751 -2.0866  0.0305
  307MOL0     H42317  11.274   1.816   7.224  0.4085 -1.5268  0.2077
  307MOL0     H42318  10.966   1.825   7.164 -0.0529 -1.8788  0.4128
  307MOL0     H42319  11.044   1.787   7.319  1.5025 -3.3222 -0.9009
  307MOL0     H42320  10.986   2.027   7.320  0.0744 -1.3763  0.9452
  307MOL0     H42321  11.146   2.000   7.345 -0.0360  0.6576 -0.0559
  307MOL0     H42322  11.159   2.173   7.191  1.3386  0.1764 -0.4860
  307MOL0     H42323  11.200   2.026   7.104  0.6585  0.3479 -0.0436
  307MOL0     H42324  11.001   1.896   6.961 -0.9998 -0.9391 -1.8312
  307MOL0     H42325  11.032   1.773   6.622  2.0996 -1.7637 -0.0854
  307MOL0     H42326  11.060   1.735   6.798  2.3278 -1.6108  0.6653
  307MOL0     H42327  11.185   1.762   6.688  0.0999 -1.0000  2.8017
  307MOL0     H42328  11.407   1.798   6.455 -0.5584 -0.4998  0.0399
  307MOL0     H42329  11.521   1.743   6.239  0.1626 -0.2422 -1.5276
  307MOL0     H42330  11.571   1.701   6.053 -1.9147  2.0114  3.1914
  307MOL0     H42331  11.425   1.629   5.993  0.8377  0.2246  3.2573
  307MOL0     H42332  11.611   1.599   5.843  0.7362  0.7947 -0.0177
  307MOL0     H42333  11.505   1.728   5.770  1.2566  0.7860 -0.9446
  307MOL0     H42334  11.780   1.735   5.909 -1.2319 -3.5026  0.1080
  307MOL0     H42335  11.689   1.882   5.867 -1.3561 -1.5902  3.3835
  307MOL0     H42336  11.857   1.844   5.708  0.3016 -1.0636 -0.1755
  307MOL0     H42337  11.708   1.842   5.620  1.6366 -1.4918 -1.7183
  307MOL0     H42338  11.837   1.576   5.709 -2.3569 -2.1219 -1.7104
  307MOL0     H42339  11.714   1.611   5.590 -1.9079  1.9694 -0.0204
  307MOL0     H42340  11.981   1.560   5.537  0.2830  1.1135  0.6717
  307MOL0     H42341  11.974   1.739   5.564 -0.2267  1.7214 -0.4619
  307MOL0     H42342  11.764   1.633   5.370 -0.2945 -2.0261 -2.2858
  307MOL0     H42343  11.914   1.576   5.316 -0.5029  0.5447  0.5539
  307MOL0     H42344  11.869   1.786   5.194  2.4724  1.4974 -0.5954
  307MOL0     H42345  12.006   1.809   5.288 -0.2248 -0.1691 -5.1737
  307MOL0     H42346  11.238   1.967   6.029  1.6851  1.4787  0.4194
  307MOL0     H42347  11.102   2.008   6.236  0.4837  1.9707 -0.7100
  307MOL0     H42348  11.148   2.256   6.656 -0.6363  3.0769  1.5866
  307MOL0     H42349  11.065   2.306   6.892  3.7969  0.4389 -0.4824
  307MOL0     H42350  10.753   1.111   6.241  0.0188  0.0938  2.4772
  307MOL0     H42351  10.847   1.158   6.009  0.1950  2.6194 -2.3138
  307MOL0     H42352  10.977   1.189   5.603  0.2164  1.1852  1.6757
  307MOL0     H42353  10.972   1.224   5.362 -1.0222 -0.7313  0.3766
  307MOL0     H42354  10.902   1.303   5.161  1.8895 -0.9206  1.8968
  307MOL0     H42355  10.873   1.462   5.080 -2.6333 -0.3369  2.9462
  307MOL0     H42356  11.157   1.374   5.169  1.4357  1.1305  0.8712
  307MOL0     H42357  11.109   1.492   5.042 -0.2711 -0.9094 -3.1146
  307MOL0     H42358  11.189   1.282   4.937  0.5318 -1.8564  0.6116
  307MOL0     H42359  11.093   1.182   5.034 -1.9770 -0.8240 -1.0448
  307MOL0     H42360  11.004   1.351   4.798 -1.8714  2.3348  1.7661
  307MOL0     H42361  10.880   1.305   4.911  0.5386  1.8537  2.6283
  307MOL0     H42362  10.918   0.936   4.739  0.4866 -0.3109 -0.1185
  307MOL0     H42363  10.912   1.653   5.456  1.3952  0.0866 -0.1515
  307MOL0     H42364  10.931   1.658   5.793 -1.0777 -2.8531  2.3264
  307MOL0     H42365  10.863   1.733   5.662  0.1379  0.5859  1.3864
  307MOL0     H42366  10.777   1.606   5.753  0.1301 -1.3880 -0.2591
  308MOL0     O42367  10.461   2.084   2.891 -1.0911 -0.7439 -0.3243
  308MOL0     C42368  10.380   1.994   2.896 -0.1690 -0.2653  0.7610
  308MOL0     O42369  10.392   1.874   2.825  0.7678 -0.0241  0.3009
  308MOL0     C42370  10.507   1.856   2.745  0.7737  0.6445 -0.7498
  308MOL0     C42371  10.494   1.808   2.623 -0.1729  0.3089  0.5243
  308MOL0     C42372  10.599   1.780   2.533  1.2321 -0.4083  0.2405
  308MOL0     C42373  10.731   1.803   2.569 -0.5333 -1.1603  0.8025
  308MOL0     O42374  10.839   1.790   2.480  0.7251 -0.2374  0.1440
  308MOL0     C42375  10.825   1.740   2.350  0.2748  0.1419  0.5290
  308MOL0     C42376  10.958   1.673   2.314 -0.1961  0.0394  0.7665
  308MOL0     C42377  11.086   1.764   2.330  0.0372  0.1679  0.3861
  308MOL0     C42378  11.082   1.889   2.256  0.1667 -0.7809 -0.1246
  308MOL0     C42379  11.202   1.988   2.264 -0.3786  0.5257  0.0283
  308MOL0     C42380  11.198   2.078   2.141 -0.2915  0.0825  0.5309
  308MOL0     C42381  11.081   2.176   2.144  0.6594 -0.4520  0.2657
  308MOL0     C42382  11.088   2.282   2.028 -0.4958  0.0735 -0.5667
  308MOL0     N42383  11.001   2.258   1.905  0.5697 -0.8749 -0.6184
  308MOL0     C42384  11.012   2.152   1.818  0.2590 -0.0121 -0.1159
  308MOL0     C42385  10.912   2.180   1.726 -0.3301 -0.7545 -0.2434
  308MOL0     C42386  10.864   2.113   1.602  0.1823  0.1151 -0.7542
  308MOL0     C42387  10.786   1.984   1.630  0.1142 -0.5043 -0.7058
  308MOL0     C42388  10.662   1.948   1.535 -0.8857  0.0360  0.3697
  308MOL0     C42389  10.535   2.007   1.594  0.5869 -0.4221  0.6391
  308MOL0     O42390  10.494   1.935   1.705  0.8395 -0.4678  0.0861
  308MOL0     C42391  10.403   1.979   1.795 -0.3352 -0.0234 -0.0540
  308MOL0     C42392  10.301   2.074   1.775  0.9197 -0.3172 -1.1088
  308MOL0     C42393  10.190   2.084   1.866  1.4106  0.2651  0.0234
  308MOL0     C42394  10.079   2.183   1.841 -0.7256 -0.8410  0.0071
  308MOL0     C42395  10.199   2.018   1.989  0.3411 -0.6400  0.3346
  308MOL0     C42396  10.094   2.024   2.092  0.7296 -0.4796 -0.1068
  308MOL0     O42397   9.961   2.002   2.059 -0.0877 -0.2785 -0.9910
  308MOL0     C42398   9.875   1.970   2.151 -0.1204  0.8727 -0.5815
  308MOL0     C42399   9.899   1.863   2.249  0.7176 -0.1317 -0.6896
  308MOL0     C42400   9.804   1.808   2.333 -0.8550  0.6913 -0.1493
  308MOL0     C42401   9.677   1.865   2.329 -0.1099  0.1411 -0.5225
  308MOL0     O42402   9.587   1.825   2.427  0.1312  0.0657  0.7000
  308MOL0     C42403   9.448   1.861   2.411 -0.1835 -0.3809 -0.3285
  308MOL0     C42404   9.354   1.805   2.513  0.4701  0.4926 -1.2367
  308MOL0     C42405   9.347   1.654   2.503  0.6211 -0.3737  0.1451
  308MOL0     C42406   9.227   1.599   2.581 -0.7045  0.1403 -0.8349
  308MOL0     C42407   9.197   1.454   2.531  0.4511 -0.8287  0.8206
  308MOL0     C42408   9.112   1.380   2.637 -1.0686  0.5496  0.6191
  308MOL0     C42409   9.094   1.239   2.579  0.3750  0.4269  0.2840
  308MOL0     C42410   9.024   1.145   2.678  0.1845 -0.9313 -0.2684
  308MOL0    Cl42411   8.852   1.163   2.696 -0.3705  0.0315  0.5125
  308MOL0     C42412   9.652   1.970   2.229  0.0137 -0.4796 -0.4337
  308MOL0     C42413   9.746   2.012   2.137 -0.2192 -0.3631  0.0723
  308MOL0     O42414  10.134   2.048   2.207  0.1489 -0.2903  0.4607
  308MOL0     C42415  10.301   1.931   2.014  0.6994 -0.0177  0.2182
  308MOL0     C42416  10.394   1.911   1.916  0.0418 -0.1751  0.0808
  308MOL0     N42417  10.866   2.306   1.747 -0.3165 -0.4384 -0.3312
  308MOL0     N42418  10.916   2.350   1.850  0.2603 -0.3567  0.8786
  308MOL0     C42419  10.749   1.847   2.693  0.2253 -0.1385 -0.0255
  308MOL0     C42420  10.641   1.867   2.789 -1.0938  0.3395 -0.2986
  308MOL0     C42421  10.258   2.015   2.983  1.1556  0.0544  0.8264
  308MOL0     C42422  10.141   1.950   2.944  0.4480  0.1860 -0.2623
  308MOL0     C42423  10.019   1.969   3.017 -0.3417 -0.6097 -0.5036
  308MOL0     C42424  10.014   2.059   3.130 -0.1120 -0.1327 -0.0573
  308MOL0     O42425   9.893   2.094   3.193 -0.3513  0.3804 -0.4908
  308MOL0     C42426   9.897   2.208   3.281  0.7341  0.1961  0.8956
  308MOL0     C42427   9.755   2.249   3.315 -0.0598 -0.0873  0.4561
  308MOL0     C42428   9.699   2.173   3.439  0.5603 -0.3374 -0.1140
  308MOL0     C42429   9.708   2.017   3.419 -0.1571 -1.0972  0.9152
  308MOL0     C42430   9.682   1.948   3.549  0.4234 -0.4339 -0.1987
  308MOL0     C42431   9.646   1.904   3.658 -1.2293  0.6011  0.2696
  308MOL0     C42432  10.136   2.119   3.169 -0.1985  0.1695  0.1783
  308MOL0     C42433  10.250   2.097   3.096  1.0476 -0.5167  0.7393
  308MOL0     C42434  10.374   2.185   3.131 -0.1393 -0.1999  0.2275
  308MOL0     H42435  10.396   1.788   2.581  0.3194  2.3847 -1.8652
  308MOL0     H42436  10.569   1.733   2.440 -2.1378  0.2745  0.8691
  308MOL0     H42437  10.807   1.821   2.278 -0.0210 -1.3200 -1.1052
  308MOL0     H42438  10.746   1.666   2.337  3.2929 -3.3960  0.5797
  308MOL0     H42439  10.964   1.586   2.380  1.7124  1.9389  3.2863
  308MOL0     H42440  10.946   1.643   2.209 -0.7712 -1.2502  1.1733
  308MOL0     H42441  11.092   1.788   2.437 -1.7770  1.1635  0.2973
  308MOL0     H42442  11.173   1.707   2.297 -2.0548 -1.2734 -3.0967
  308MOL0     H42443  11.066   1.853   2.154 -0.7791 -2.9239  0.7161
  308MOL0     H42444  10.991   1.937   2.294  0.2462 -1.4748  0.9839
  308MOL0     H42445  11.298   1.936   2.257  0.1332  1.2016  1.6101
  308MOL0     H42446  11.211   2.037   2.362  1.3589 -3.5878  2.2098
  308MOL0     H42447  11.296   2.127   2.141 -0.6089  0.7449  0.0043
  308MOL0     H42448  11.212   2.022   2.048 -0.0568 -1.7581  1.6372
  308MOL0     H42449  11.092   2.234   2.236  0.2239  1.4133 -0.8187
  308MOL0     H42450  10.983   2.128   2.157  1.5703 -2.7468 -0.6998
  308MOL0     H42451  11.059   2.378   2.070  3.1978 -0.0806  2.9324
  308MOL0     H42452  11.194   2.281   2.000 -0.0527  1.2236  0.9509
  308MOL0     H42453  11.070   2.063   1.839 -2.0595 -0.9696  3.0164
  308MOL0     H42454  10.949   2.097   1.535 -0.0698 -0.0146 -1.0450
  308MOL0     H42455  10.785   2.179   1.565 -4.0117 -1.7629  3.7199
  308MOL0     H42456  10.861   1.907   1.609  3.8742  2.2286  1.3598
  308MOL0     H42457  10.754   1.984   1.735 -2.2113  0.3219 -1.3720
  308MOL0     H42458  10.681   1.994   1.438 -0.1217 -1.8039 -0.4115
  308MOL0     H42459  10.635   1.843   1.519 -1.3697  0.4531 -1.8874
  308MOL0     H42460  10.550   2.114   1.611  2.9017  0.5596 -5.1309
  308MOL0     H42461  10.463   2.007   1.511  1.1067 -4.2064  0.0304
  308MOL0     H42462  10.302   2.126   1.680  3.8971  2.3168  0.1792
  308MOL0     H42463  10.104   2.251   1.760  2.1010 -2.9247 -1.0138
  308MOL0     H42464  10.051   2.248   1.925  0.3044  1.8235 -1.5806
  308MOL0     H42465   9.990   2.126   1.812 -2.0156 -1.1816  3.9831
  308MOL0     H42466   9.999   1.822   2.253  1.1553  0.9980  2.5367
  308MOL0     H42467   9.831   1.728   2.401 -0.9984  2.2225  1.7922
  308MOL0     H42468   9.444   1.969   2.423 -0.0026 -0.4612  0.4768
  308MOL0     H42469   9.408   1.829   2.314  0.4981 -1.4946 -0.2618
  308MOL0     H42470   9.392   1.833   2.612  2.3215 -0.3827 -1.6567
  308MOL0     H42471   9.257   1.855   2.525 -0.2328 -1.0822  0.0504
  308MOL0     H42472   9.436   1.602   2.541  1.1358 -0.5678 -1.2584
  308MOL0     H42473   9.329   1.624   2.399 -1.7922 -2.2727  1.0159
  308MOL0     H42474   9.138   1.661   2.569 -0.6131  0.7719  1.4321
  308MOL0     H42475   9.252   1.593   2.687  2.8419  1.7336 -1.4512
  308MOL0     H42476   9.140   1.463   2.438  0.5244 -0.2966  0.8200
  308MOL0     H42477   9.292   1.403   2.512  1.1181  0.2189  1.2345
  308MOL0     H42478   9.014   1.429   2.643  0.3542  3.5904  0.6185
  308MOL0     H42479   9.157   1.372   2.736  1.1068 -0.6040 -0.3897
  308MOL0     H42480   9.189   1.193   2.550 -0.1539  0.9096 -2.5361
  308MOL0     H42481   9.038   1.248   2.486  2.1307 -0.9136 -0.9595
  308MOL0     H42482   9.074   1.155   2.775 -2.9712 -1.7934  1.5989
  308MOL0     H42483   9.032   1.040   2.649  1.3889 -1.7481  2.6315
  308MOL0     H42484   9.559   2.025   2.221 -1.0231 -2.3776 -3.2971
  308MOL0     H42485   9.733   2.096   2.069 -0.8012 -0.3443  0.2077
  308MOL0     H42486  10.305   1.874   2.107 -0.8260  0.6345  0.7277
  308MOL0     H42487  10.463   1.827   1.924  0.6470  0.1451 -1.3814
  308MOL0     H42488  10.848   1.867   2.733  0.6820  3.8157 -2.4997
  308MOL0     H42489  10.672   1.896   2.889  1.0208 -0.2455 -0.7207
  308MOL0     H42490  10.147   1.874   2.866  3.3600  2.3759 -2.4241
  308MOL0     H42491   9.937   1.908   2.980 -0.2641 -0.2595 -1.2692
  308MOL0     H42492   9.958   2.202   3.372  1.2149  1.6101  0.7083
  308MOL0     H42493   9.931   2.301   3.234 -2.0213  2.1012  2.4158
  308MOL0     H42494   9.680   2.241   3.235 -1.2753 -0.7827  1.6212
  308MOL0     H42495   9.760   2.356   3.339  3.7676  0.0367 -0.2969
  308MOL0     H42496   9.738   2.205   3.536  1.3942 -0.6443 -0.3386
  308MOL0     H42497   9.596   2.209   3.449  1.4339  2.3946 -0.1478
  308MOL0     H42498   9.808   1.987   3.385  0.3404  0.8555  0.5064
  308MOL0     H42499   9.631   2.004   3.343 -2.5830  5.4727  1.5354
  308MOL0     H42500   9.625   1.878   3.760  2.0604 -0.1514  0.8627
  308MOL0     H42501  10.141   2.187   3.253 -1.0718  0.9288 -0.3711
  308MOL0     H42502  10.389   2.262   3.055 -2.9949 -0.3941 -0.6417
  308MOL0     H42503  10.354   2.245   3.220  2.4509  2.0684 -0.5991
  308MOL0     H42504  10.461   2.123   3.155 -0.1925  0.5007  2.4638
  309MOL0     O42505   1.541   3.686   7.837 -0.6830 -0.6129 -1.3686
  309MOL0     C42506   1.625   3.755   7.783 -0.4220 -0.2813 -0.0070
  309MOL0     O42507   1.709   3.713   7.692 -0.0830 -0.9678 -0.1351
  309MOL0     C42508   1.685   3.593   7.633 -0.5215 -0.3974  1.0641
  309MOL0     C42509   1.561   3.562   7.575  0.3340  0.6063  0.5716
  309MOL0     C42510   1.542   3.449   7.497  0.1963  1.0955  0.4005
  309MOL0     C42511   1.653   3.366   7.466  0.1642 -0.5469  0.3668
  309MOL0     O42512   1.645   3.258   7.392  1.1294 -0.1398  0.1046
  309MOL0     C42513   1.523   3.189   7.384  0.3494  0.3142  0.8195
  309MOL0     C42514   1.520   3.064   7.300  0.0385 -1.2085  0.8933
  309MOL0     C42515   1.420   2.954   7.343  0.2053  0.2289 -0.5138
  309MOL0     C42516   1.275   3.011   7.367 -0.0444  0.3637 -0.3133
  309MOL0     C42517   1.166   2.902   7.397 -0.1491 -1.1372  1.0811
  309MOL0     C42518   1.029   2.972   7.386  0.4585  0.2047  0.4056
  309MOL0     C42519   0.915   2.871   7.433  0.2312 -0.0604  0.8182
  309MOL0     C42520   0.908   2.853   7.582 -0.1085  0.3057  0.3923
  309MOL0     N42521   0.848   2.721   7.616 -0.4935  1.0311 -0.0305
  309MOL0     C42522   0.755   2.654   7.532  0.8718  0.1242 -0.8623
  309MOL0     C42523   0.737   2.529   7.592 -0.6244 -0.5911 -0.0027
  309MOL0     C42524   0.639   2.423   7.547  0.6261 -0.2239  0.2093
  309MOL0     C42525   0.511   2.447   7.617 -0.2513 -0.4106  0.4988
  309MOL0     C42526   0.417   2.332   7.611 -0.8588 -0.3691 -0.3949
  309MOL0     C42527   0.280   2.346   7.660  0.5515 -0.1581  0.0613
  309MOL0     O42528   0.260   2.370   7.798 -0.0921  0.2763 -0.3509
  309MOL0     C42529   0.131   2.400   7.833 -0.4074 -0.2699 -0.3172
  309MOL0     C42530   0.027   2.307   7.857 -0.7027  0.3982 -0.3039
  309MOL0     C42531  -0.107   2.345   7.893 -0.2725  0.0718  0.3746
  309MOL0     C42532  -0.217   2.236   7.907  0.1480 -0.3183 -0.4998
  309MOL0     C42533  -0.136   2.483   7.900 -0.2471 -0.9502 -0.4787
  309MOL0     C42534  -0.257   2.551   7.937 -0.4375  0.1391 -0.6203
  309MOL0     O42535  -0.284   2.663   7.868  0.4338 -0.1792 -0.1464
  309MOL0     C42536  -0.387   2.751   7.905 -0.0918 -0.1099  0.2223
  309MOL0     C42537  -0.495   2.774   7.823  0.4088 -0.1918 -0.4496
  309MOL0     C42538  -0.578   2.879   7.861 -0.2074 -0.5304  0.0306
  309MOL0     C42539  -0.554   2.956   7.975  0.8616  0.4071 -0.3827
  309MOL0     O42540  -0.641   3.061   7.991 -0.2209 -0.5733 -0.4267
  309MOL0     C42541  -0.584   3.187   7.997 -0.6989 -0.2058  0.7548
  309MOL0     C42542  -0.664   3.300   8.072 -0.2772 -0.1127  0.1899
  309MOL0     C42543  -0.596   3.438   8.068 -0.1752  0.0289 -0.1788
  309MOL0     C42544  -0.646   3.526   7.952  0.0927 -0.8783 -0.7803
  309MOL0     C42545  -0.607   3.476   7.814  0.2559 -0.1741  0.1819
  309MOL0     C42546  -0.452   3.472   7.790  0.3378  0.9614  0.2909
  309MOL0     C42547  -0.424   3.403   7.653  0.3704  0.5301 -0.3820
  309MOL0     C42548  -0.399   3.263   7.647 -0.0693 -0.5440 -0.4248
  309MOL0    Cl42549  -0.258   3.217   7.754  0.3260 -0.4415  0.3334
  309MOL0     C42550  -0.454   2.916   8.063  0.6187  0.7036  0.1006
  309MOL0     C42551  -0.378   2.811   8.029 -0.4259  0.3754  0.6694
  309MOL0     O42552  -0.316   2.507   8.033  0.5524  0.0947  0.0551
  309MOL0     C42553  -0.023   2.578   7.882 -0.0628 -0.3144  0.2914
  309MOL0     C42554   0.102   2.538   7.849  0.6504  0.3763 -1.3448
  309MOL0     N42555   0.815   2.517   7.705  0.8034 -0.6540 -0.5163
  309MOL0     N42556   0.884   2.631   7.714 -0.2403  0.1219 -0.3016
  309MOL0     C42557   1.773   3.395   7.520  0.0080  0.3374 -0.3114
  309MOL0     C42558   1.794   3.513   7.596  0.8759  0.9919 -0.4599
  309MOL0     C42559   1.635   3.900   7.823  0.6521  0.7456  0.6669
  309MOL0     C42560   1.762   3.956   7.866  0.1623 -0.6212 -0.8734
  309MOL0     C42561   1.774   4.091   7.892  0.2303  0.2728 -0.1647
  309MOL0     C42562   1.666   4.178   7.888 -1.6486  0.2529 -0.2347
  309MOL0     O42563   1.691   4.306   7.933  0.1502 -0.3280  0.4706
  309MOL0     C42564   1.616   4.351   8.044  0.2271  0.4064  0.6735
  309MOL0     C42565   1.677   4.488   8.076  0.3832  0.8335  0.1124
  309MOL0     C42566   1.628   4.603   7.982  0.3346 -0.1166  0.5697
  309MOL0     C42567   1.676   4.740   8.038  0.5517 -0.2677 -0.4033
  309MOL0     C42568   1.611   4.846   7.959  0.1784  0.0161 -1.2114
  309MOL0     C42569   1.549   4.917   7.883  0.2798 -0.4837  0.6929
  309MOL0     C42570   1.537   4.116   7.848  0.7638 -1.3030 -1.1836
  309MOL0     C42571   1.517   3.984   7.808 -0.7054 -0.2181  0.1438
  309MOL0     C42572   1.392   3.945   7.749  0.7767 -0.0012 -0.0042
  309MOL0     H42573   1.483   3.636   7.582 -0.2374  0.4181 -2.2952
  309MOL0     H42574   1.441   3.423   7.465 -0.1995  0.0899  2.3215
  309MOL0     H42575   1.446   3.252   7.339  0.8512 -2.7057 -5.3010
  309MOL0     H42576   1.492   3.167   7.487 -1.5227 -2.3042 -0.1906
  309MOL0     H42577   1.481   3.091   7.201 -2.0907 -0.3127  1.9207
  309MOL0     H42578   1.622   3.025   7.288  0.3752  0.2990 -2.4070
  309MOL0     H42579   1.410   2.880   7.262  1.4829 -1.6276  0.9278
  309MOL0     H42580   1.431   2.898   7.436 -1.6081 -0.1302 -0.4867
  309MOL0     H42581   1.275   3.070   7.460  3.5942 -1.7270  1.2655
  309MOL0     H42582   1.246   3.078   7.286  0.7604 -0.1837 -1.0713
  309MOL0     H42583   1.174   2.858   7.498 -3.6649 -1.0666  1.5341
  309MOL0     H42584   1.178   2.826   7.319  2.2994 -0.9394  1.1914
  309MOL0     H42585   1.033   3.070   7.435  0.1566  0.8550 -0.8398
  309MOL0     H42586   1.015   2.995   7.280  1.0936  2.6320  0.7948
  309MOL0     H42587   0.927   2.774   7.383  1.1529  0.3199  0.2717
  309MOL0     H42588   0.817   2.912   7.407  0.8956  2.5424  2.1007
  309MOL0     H42589   1.008   2.861   7.625  0.4277 -2.8328 -0.0031
  309MOL0     H42590   0.853   2.933   7.633 -0.5581 -2.6611  5.2816
  309MOL0     H42591   0.710   2.697   7.443  0.0416  1.1915  0.0566
  309MOL0     H42592   0.672   2.322   7.573 -0.7821 -1.3431 -2.0250
  309MOL0     H42593   0.626   2.422   7.439 -1.6258 -2.6073  0.3971
  309MOL0     H42594   0.531   2.462   7.724  2.5258 -2.2418  0.3216
  309MOL0     H42595   0.471   2.542   7.580 -0.1509 -0.0554  1.2685
  309MOL0     H42596   0.400   2.292   7.510 -2.6235 -1.8148  0.4234
  309MOL0     H42597   0.466   2.257   7.673  2.8366  1.3162 -1.0153
  309MOL0     H42598   0.233   2.434   7.616 -0.0234  1.9658  4.4662
  309MOL0     H42599   0.219   2.259   7.630 -2.7101  1.6274  1.0584
  309MOL0     H42600   0.037   2.199   7.856  2.6037  0.6096 -1.1138
  309MOL0     H42601  -0.302   2.270   7.846  1.8755  0.9853 -2.2941
  309MOL0     H42602  -0.235   2.215   8.013  1.4135 -1.4673 -0.4902
  309MOL0     H42603  -0.170   2.148   7.863  0.8155  0.8366 -2.1885
  309MOL0     H42604  -0.512   2.712   7.736  2.0964 -1.7879  0.2749
  309MOL0     H42605  -0.672   2.911   7.819 -0.6791  0.8905  1.9984
  309MOL0     H42606  -0.479   3.184   8.026 -0.2227 -0.8856 -0.9341
  309MOL0     H42607  -0.582   3.209   7.890  1.4137  0.1955  0.8313
  309MOL0     H42608  -0.759   3.311   8.018 -0.0839 -0.5495 -0.2522
  309MOL0     H42609  -0.692   3.278   8.175 -1.2894 -1.4830 -0.3351
  309MOL0     H42610  -0.486   3.442   8.066 -0.1346  1.0322  1.6150
  309MOL0     H42611  -0.639   3.496   8.150 -0.0525  3.6836 -2.4919
  309MOL0     H42612  -0.599   3.624   7.961  0.3166 -1.0347 -0.1939
  309MOL0     H42613  -0.755   3.535   7.955  0.1384 -0.6534  1.2396
  309MOL0     H42614  -0.648   3.377   7.795  0.1751  0.2298 -2.0249
  309MOL0     H42615  -0.644   3.550   7.742  0.0919 -1.3309 -0.9444
  309MOL0     H42616  -0.402   3.415   7.869  1.0399  0.7198 -0.3236
  309MOL0     H42617  -0.420   3.576   7.789 -0.2901  1.1575 -0.8737
  309MOL0     H42618  -0.338   3.455   7.610  0.8185 -1.1950 -1.6841
  309MOL0     H42619  -0.499   3.435   7.581  0.8842  1.1176 -0.6604
  309MOL0     H42620  -0.379   3.247   7.541  1.6387 -1.0953 -0.0514
  309MOL0     H42621  -0.487   3.202   7.671 -0.6398 -0.8397 -2.9740
  309MOL0     H42622  -0.418   2.968   8.151  3.2539  0.9365 -1.0206
  309MOL0     H42623  -0.294   2.783   8.093  0.7988  2.5926  0.1142
  309MOL0     H42624  -0.047   2.684   7.886  0.1059 -0.2976  0.8924
  309MOL0     H42625   0.178   2.615   7.845  0.8518  0.4314  1.5407
  309MOL0     H42626   1.847   3.316   7.514 -0.9998 -0.7891  1.4230
  309MOL0     H42627   1.891   3.538   7.637  1.2535  0.0677 -0.7626
  309MOL0     H42628   1.845   3.886   7.873 -0.6018 -2.1857 -4.7094
  309MOL0     H42629   1.866   4.132   7.931 -2.1516  4.7229  1.4921
  309MOL0     H42630   1.510   4.349   8.014  0.7454 -2.6839 -1.3849
  309MOL0     H42631   1.621   4.283   8.130  3.3533 -0.1283  0.1591
  309MOL0     H42632   1.785   4.480   8.064  0.1036 -1.0711 -1.7614
  309MOL0     H42633   1.664   4.507   8.183  1.5734  0.6479  0.3041
  309MOL0     H42634   1.652   4.582   7.878 -0.2678  1.2665  0.1212
  309MOL0     H42635   1.520   4.588   7.992  0.0025  1.6925  0.0162
  309MOL0     H42636   1.785   4.749   8.037  0.5103  2.1715  2.6688
  309MOL0     H42637   1.654   4.751   8.145 -1.6571 -0.0859 -0.8195
  309MOL0     H42638   1.500   4.999   7.835 -1.6563 -0.4792  2.5068
  309MOL0     H42639   1.455   4.187   7.854  1.5580 -0.4856  1.2072
  309MOL0     H42640   1.347   4.028   7.693  1.2374 -0.1339 -0.5771
  309MOL0     H42641   1.391   3.854   7.689 -0.5973 -0.3102  0.4496
  309MOL0     H42642   1.329   3.931   7.837  0.2318  3.0219  0.2089
  310MOL0     O42643   2.300   1.821  10.951  0.2734  0.2874  0.2470
  310MOL0     C42644   2.231   1.901  10.886  0.5217  0.9180  0.3297
  310MOL0     O42645   2.136   1.867  10.796  0.9616  0.4869 -0.3295
  310MOL0     C42646   2.091   1.739  10.789  0.5574  0.6005 -0.6281
  310MOL0     C42647   2.169   1.649  10.712 -0.8036  0.4997  1.0563
  310MOL0     C42648   2.133   1.505  10.713 -0.2096 -0.0830 -0.2977
  310MOL0     C42649   2.026   1.464  10.796 -0.2948  0.1229  0.3284
  310MOL0     O42650   1.997   1.329  10.790  0.1796 -0.4954  0.0745
  310MOL0     C42651   1.903   1.290  10.878  0.8927 -0.1438  0.4940
  310MOL0     C42652   1.834   1.156  10.840  1.5686  0.8019 -0.5237
  310MOL0     C42653   1.898   1.066  10.733 -0.6479  0.7172  0.1546
  310MOL0     C42654   1.853   1.090  10.594  0.3855 -0.3261  0.1518
  310MOL0     C42655   1.934   1.023  10.486 -0.2867 -0.2952  0.1366
  310MOL0     C42656   2.038   1.114  10.418 -0.2712 -0.5602  0.1079
  310MOL0     C42657   2.103   1.047  10.298  0.8592  0.3828 -0.2065
  310MOL0     C42658   2.006   1.004  10.185 -0.6157  0.7125  0.9171
  310MOL0     N42659   2.084   0.958  10.065  0.7299  0.6865 -0.5430
  310MOL0     C42660   2.044   0.851   9.991 -0.7440 -0.2966  0.1478
  310MOL0     C42661   2.125   0.834   9.885 -0.6706  0.1697 -0.4952
  310MOL0     C42662   2.104   0.731   9.783 -0.5368 -0.4307  0.1581
  310MOL0     C42663   2.182   0.749   9.646  0.0664  1.0018 -0.6276
  310MOL0     C42664   2.322   0.690   9.659  0.4149  0.4332  0.8693
  310MOL0     C42665   2.414   0.694   9.528  0.4914  0.1416 -0.1192
  310MOL0     O42666   2.419   0.826   9.475  0.1752  0.5737  0.1536
  310MOL0     C42667   2.537   0.901   9.504  0.2498 -0.9078 -1.1856
  310MOL0     C42668   2.583   0.982   9.398 -0.2073 -0.7880 -0.4640
  310MOL0     C42669   2.707   1.050   9.413 -0.3302  0.1241  0.6114
  310MOL0     C42670   2.750   1.133   9.296  0.4944  0.8928  0.3704
  310MOL0     C42671   2.782   1.016   9.526  0.3786 -0.0422  0.1893
  310MOL0     C42672   2.923   1.061   9.532  0.6135 -0.8746 -1.0870
  310MOL0     O42673   2.950   1.137   9.645 -0.1198 -0.7775 -0.1639
  310MOL0     C42674   3.066   1.210   9.625  0.0981  0.5413  0.8532
  310MOL0     C42675   3.200   1.177   9.657  0.2707  0.6163 -0.0033
  310MOL0     C42676   3.306   1.259   9.624 -1.0992 -0.9314 -0.1057
  310MOL0     C42677   3.286   1.394   9.581  0.2125  0.2191 -0.4136
  310MOL0     O42678   3.401   1.479   9.576 -0.6277 -0.1693  0.2039
  310MOL0     C42679   3.376   1.603   9.503  0.2865  0.2764  0.2412
  310MOL0     C42680   3.495   1.682   9.489 -0.1079 -0.4551 -1.0507
  310MOL0     C42681   3.602   1.614   9.403  0.0962  0.0965  1.0699
  310MOL0     C42682   3.707   1.725   9.367 -0.4282  0.6977  0.5929
  310MOL0     C42683   3.793   1.677   9.245 -0.2143  0.3574 -0.8202
  310MOL0     C42684   3.918   1.760   9.223  0.7350 -0.2939  0.8734
  310MOL0     C42685   3.993   1.697   9.105 -0.9678 -0.6661 -0.6870
  310MOL0     C42686   4.124   1.778   9.079  0.5251 -0.1980 -0.4843
  310MOL0    Cl42687   4.091   1.950   9.035 -0.3321  0.0268  0.2076
  310MOL0     C42688   3.156   1.427   9.538 -0.0359  0.8374  0.3577
  310MOL0     C42689   3.044   1.339   9.566  0.5779  1.2354  0.4251
  310MOL0     O42690   2.991   1.030   9.431 -0.0615 -0.1307  0.0909
  310MOL0     C42691   2.735   0.942   9.630  1.0767 -0.1825  0.3050
  310MOL0     C42692   2.608   0.883   9.617 -0.0598 -0.1161  0.0452
  310MOL0     N42693   2.218   0.931   9.897 -0.2174 -0.6152  1.0890
  310MOL0     N42694   2.194   1.005  10.001 -0.3392  0.2267 -0.0320
  310MOL0     C42695   1.976   1.559  10.888  0.6381  0.0517 -0.6392
  310MOL0     C42696   2.004   1.693  10.884 -0.6276  0.3426  1.0882
  310MOL0     C42697   2.236   2.056  10.900  0.3458 -0.7379  0.0267
  310MOL0     C42698   2.128   2.139  10.853 -0.4384  0.8204 -0.0894
  310MOL0     C42699   2.131   2.279  10.854 -0.3771  0.1276  0.3515
  310MOL0     C42700   2.237   2.336  10.912 -0.3812  0.0119 -0.7527
  310MOL0     O42701   2.239   2.478  10.903  0.4645  0.2494  0.6605
  310MOL0     C42702   2.244   2.538  11.031 -0.2320  0.0891  1.2054
  310MOL0     C42703   2.277   2.684  11.014 -0.5557  0.1279 -0.4778
  310MOL0     C42704   2.167   2.760  10.947  0.5105 -0.3305  0.2049
  310MOL0     C42705   2.210   2.904  10.942 -0.1417 -0.1307 -0.2081
  310MOL0     C42706   2.091   2.985  10.933  0.7614  0.5204 -0.9778
  310MOL0     C42707   1.990   3.046  10.918 -0.0561  1.7844  0.2929
  310MOL0     C42708   2.343   2.261  10.962  0.5896 -0.0461  0.0730
  310MOL0     C42709   2.353   2.121  10.954  0.4266 -0.8103  0.7564
  310MOL0     C42710   2.472   2.053  11.019 -0.2759 -0.4664  0.1203
  310MOL0     H42711   2.259   1.687  10.664 -0.5451 -2.2910 -0.9428
  310MOL0     H42712   2.168   1.437  10.637 -3.6041 -1.4924 -0.8065
  310MOL0     H42713   1.816   1.355  10.868  0.8952 -0.3809 -1.4373
  310MOL0     H42714   1.947   1.285  10.978 -0.1000 -0.1112  0.9512
  310MOL0     H42715   1.829   1.092  10.929  0.9711 -1.7472 -2.2554
  310MOL0     H42716   1.733   1.180  10.806  1.9505  1.3992 -1.2641
  310MOL0     H42717   2.005   1.088  10.731 -0.6758  0.8893 -1.7861
  310MOL0     H42718   1.883   0.960  10.755 -0.3077  0.3925 -1.0876
  310MOL0     H42719   1.747   1.065  10.589  0.3209  0.1393 -1.6834
  310MOL0     H42720   1.854   1.197  10.571 -0.5230 -0.7155 -1.9511
  310MOL0     H42721   1.863   0.986  10.412 -0.7668  1.1749 -0.1850
  310MOL0     H42722   1.988   0.936  10.525 -1.8086  0.0488  3.3488
  310MOL0     H42723   2.003   1.216  10.394 -1.9760 -0.5670  2.2667
  310MOL0     H42724   2.117   1.129  10.492 -0.2879 -1.6029  0.3503
  310MOL0     H42725   2.156   0.954  10.322 -0.2622 -0.1775  0.1385
  310MOL0     H42726   2.178   1.122  10.269 -0.3621  1.9514  0.5586
  310MOL0     H42727   1.938   0.923  10.213 -0.8220  1.0202  1.3132
  310MOL0     H42728   1.944   1.087  10.150 -2.0783 -0.2626  1.1101
  310MOL0     H42729   1.959   0.792  10.022 -0.0379 -0.3551  2.0767
  310MOL0     H42730   1.997   0.741   9.759 -0.6321  0.8740  0.9954
  310MOL0     H42731   2.111   0.630   9.825 -1.5051  0.4779  2.7440
  310MOL0     H42732   2.124   0.695   9.571  0.7501 -2.0650  0.8968
  310MOL0     H42733   2.198   0.854   9.621 -1.9223  1.5196  0.0693
  310MOL0     H42734   2.373   0.740   9.743 -0.9650 -0.2117  2.1330
  310MOL0     H42735   2.299   0.589   9.692 -0.9164  1.0737  2.0144
  310MOL0     H42736   2.514   0.653   9.544  2.0124  3.1493 -1.1819
  310MOL0     H42737   2.373   0.632   9.448  0.8700 -1.5309  0.9329
  310MOL0     H42738   2.516   0.993   9.314  2.4661 -3.1621 -3.1010
  310MOL0     H42739   2.768   1.075   9.205 -1.5073  0.7773  0.0046
  310MOL0     H42740   2.840   1.194   9.313  0.1875  1.6634 -0.6553
  310MOL0     H42741   2.669   1.196   9.259 -2.0156 -3.0649 -1.5908
  310MOL0     H42742   3.213   1.080   9.703 -2.4881 -0.5702 -1.5378
  310MOL0     H42743   3.406   1.242   9.662 -0.4589 -1.0325 -1.7371
  310MOL0     H42744   3.345   1.592   9.398  0.6196  0.7036  0.0944
  310MOL0     H42745   3.294   1.658   9.552  0.3187  1.8636 -1.3633
  310MOL0     H42746   3.465   1.772   9.433 -2.8271  1.2003  2.6592
  310MOL0     H42747   3.529   1.719   9.586  0.8556 -2.0427 -0.7443
  310MOL0     H42748   3.568   1.574   9.307  1.8676  1.4507 -0.1923
  310MOL0     H42749   3.658   1.538   9.458  1.6652  2.0647  2.3179
  310MOL0     H42750   3.775   1.744   9.450  2.4843  0.2715 -1.5256
  310MOL0     H42751   3.662   1.821   9.342  1.9851  1.7082 -0.1166
  310MOL0     H42752   3.812   1.573   9.270 -2.2822  0.1928  0.2389
  310MOL0     H42753   3.731   1.670   9.155  0.5911 -1.1329 -1.2903
  310MOL0     H42754   3.971   1.762   9.318  0.1039 -1.9563  1.2911
  310MOL0     H42755   3.888   1.864   9.209  1.4225 -0.0854  0.8896
  310MOL0     H42756   3.934   1.713   9.014  0.1321  5.9912 -0.7129
  310MOL0     H42757   4.024   1.595   9.129  2.4913  0.0050 -1.6566
  310MOL0     H42758   4.178   1.734   8.995 -1.3922 -3.7337 -0.0808
  310MOL0     H42759   4.177   1.784   9.175 -0.2271  2.8089 -0.1582
  310MOL0     H42760   3.127   1.524   9.498  1.8669  0.3724 -2.4108
  310MOL0     H42761   2.941   1.372   9.565  0.5175  1.6124  4.1444
  310MOL0     H42762   2.789   0.923   9.723  0.3872 -1.9765  0.3699
  310MOL0     H42763   2.570   0.812   9.689  2.3698 -3.2243 -1.4839
  310MOL0     H42764   1.908   1.527  10.966  0.1479 -0.5746 -1.3113
  310MOL0     H42765   1.961   1.759  10.958 -2.1744 -1.1728  1.6180
  310MOL0     H42766   2.039   2.088  10.817 -1.1705  1.8371  0.2558
  310MOL0     H42767   2.049   2.338  10.816 -0.1134  0.8672  0.9196
  310MOL0     H42768   2.139   2.525  11.060 -1.1838 -0.7098 -2.1308
  310MOL0     H42769   2.311   2.477  11.092  0.2298  0.4780  1.0895
  310MOL0     H42770   2.371   2.704  10.963 -0.6057 -0.5584 -0.8569
  310MOL0     H42771   2.285   2.722  11.117 -2.3449  1.3984 -0.7640
  310MOL0     H42772   2.143   2.720  10.848 -2.6881  0.2991  0.6255
  310MOL0     H42773   2.070   2.765  10.998 -0.4562  2.6303 -1.6087
  310MOL0     H42774   2.271   2.935  10.856 -1.7648  1.1513 -0.9530
  310MOL0     H42775   2.261   2.949  11.027 -3.2795  4.5288 -0.4154
  310MOL0     H42776   1.899   3.100  10.900  2.5595  6.6476  0.0643
  310MOL0     H42777   2.424   2.318  11.006  1.1095  0.1030 -1.0218
  310MOL0     H42778   2.447   1.992  11.106  1.6678 -0.1658  0.9226
  310MOL0     H42779   2.498   1.980  10.942 -1.1910 -1.3930  0.6597
  310MOL0     H42780   2.551   2.125  11.039  1.0676 -1.1974 -2.1678
  311MOL0     O42781   6.122   4.273   9.486  0.3052 -0.2709 -0.1119
  311MOL0     C42782   6.165   4.310   9.377  0.1975 -0.0797  0.4345
  311MOL0     O42783   6.236   4.237   9.290 -0.0092  0.4235 -0.3362
  311MOL0     C42784   6.319   4.123   9.311  0.5001  0.8616 -1.1340
  311MOL0     C42785   6.347   4.051   9.196 -0.6581  0.5557  0.2520
  311MOL0     C42786   6.456   3.962   9.190 -0.3650 -0.3785 -0.2964
  311MOL0     C42787   6.544   3.955   9.301  0.3424 -0.5336 -0.3426
  311MOL0     O42788   6.656   3.880   9.303 -0.6729 -0.8752 -0.1259
  311MOL0     C42789   6.744   3.869   9.186 -0.0643  0.3427  0.4768
  311MOL0     C42790   6.785   3.721   9.165 -0.4313 -0.1969  0.5833
  311MOL0     C42791   6.868   3.656   9.280  0.2397  0.0233  0.4093
  311MOL0     C42792   7.010   3.613   9.241  0.2057  0.3044 -0.5794
  311MOL0     C42793   6.997   3.469   9.181  0.3623  0.3844  0.1253
  311MOL0     C42794   7.139   3.392   9.187  0.8642  0.5932  0.0268
  311MOL0     C42795   7.248   3.458   9.099  0.5128  0.5415 -0.2424
  311MOL0     C42796   7.287   3.384   8.970  0.5085  0.2722  0.4465
  311MOL0     N42797   7.165   3.319   8.903  0.5831 -1.0028 -0.8027
  311MOL0     C42798   7.069   3.396   8.838 -0.9461 -0.2298  0.5039
  311MOL0     C42799   7.017   3.317   8.749  0.6660  0.4337 -0.6869
  311MOL0     C42800   6.901   3.360   8.655  0.4343 -0.2842  0.4055
  311MOL0     C42801   6.789   3.412   8.747  1.1663  0.0206  0.3055
  311MOL0     C42802   6.753   3.313   8.859  0.8838  0.6794 -0.4503
  311MOL0     C42803   6.639   3.368   8.945  0.5011  0.1698  0.9439
  311MOL0     O42804   6.604   3.507   8.926  0.0257 -0.9344  0.3594
  311MOL0     C42805   6.482   3.552   8.962  0.7726  0.4029  0.4093
  311MOL0     C42806   6.385   3.481   9.034  0.5126 -0.8770 -0.4643
  311MOL0     C42807   6.271   3.543   9.078 -0.0740  0.1685 -0.3897
  311MOL0     C42808   6.209   3.482   9.198  0.4405 -1.5123  1.2956
  311MOL0     C42809   6.228   3.671   9.031 -0.1443 -0.1312  0.3053
  311MOL0     C42810   6.115   3.745   9.079 -0.3357  0.0023 -0.6834
  311MOL0     O42811   6.121   3.878   9.064  0.3653 -0.2531  0.2195
  311MOL0     C42812   6.025   3.957   9.119 -0.3965  0.3390  0.3386
  311MOL0     C42813   5.946   4.037   9.035 -0.3035 -0.7238 -0.9539
  311MOL0     C42814   5.822   4.104   9.080 -0.7616 -0.1407 -0.4023
  311MOL0     C42815   5.795   4.097   9.220  0.1821 -0.1249 -0.0511
  311MOL0     O42816   5.680   4.152   9.275 -0.9126  0.1597 -0.1381
  311MOL0     C42817   5.721   4.269   9.352  0.5768  0.9819  0.2479
  311MOL0     C42818   5.617   4.378   9.335  0.2970  0.5087 -0.3419
  311MOL0     C42819   5.606   4.406   9.186 -0.2077 -1.2231 -0.0762
  311MOL0     C42820   5.573   4.561   9.162  0.6616  0.5223  1.2513
  311MOL0     C42821   5.536   4.588   9.013  0.1769  0.7837  0.0826
  311MOL0     C42822   5.467   4.728   8.999  0.1633  0.0567  0.2078
  311MOL0     C42823   5.320   4.718   9.012  0.3714 -0.2690 -0.0799
  311MOL0     C42824   5.246   4.844   8.973  0.8582  0.3505 -0.4659
  311MOL0    Cl42825   5.077   4.840   9.043 -0.2790  0.2987  0.1387
  311MOL0     C42826   5.877   4.020   9.301  0.7221  0.5386 -0.8532
  311MOL0     C42827   5.990   3.952   9.254 -0.1653 -0.2504 -0.7597
  311MOL0     O42828   6.018   3.689   9.126  0.4760  0.6198 -0.0328
  311MOL0     C42829   6.322   3.735   8.942 -0.2233  0.8610 -0.0660
  311MOL0     C42830   6.445   3.675   8.911 -0.8533  1.0039 -0.3179
  311MOL0     N42831   7.059   3.183   8.771 -0.2009 -0.9890  0.1733
  311MOL0     N42832   7.146   3.193   8.864 -0.0046 -0.4520 -0.2129
  311MOL0     C42833   6.512   4.027   9.418  0.2610 -0.3507 -0.4933
  311MOL0     C42834   6.391   4.106   9.431  0.3890  0.9746 -0.3808
  311MOL0     C42835   6.114   4.444   9.327  1.5972  1.0392 -0.8485
  311MOL0     C42836   6.072   4.444   9.196  0.8690 -0.4824  0.0016
  311MOL0     C42837   5.994   4.553   9.153  0.7050  0.3641 -1.0164
  311MOL0     C42838   5.970   4.667   9.237 -0.3735 -0.2289  0.5001
  311MOL0     O42839   5.888   4.768   9.197  0.8448 -0.6952 -0.6319
  311MOL0     C42840   5.923   4.899   9.242  1.0426 -0.0723  0.4562
  311MOL0     C42841   5.835   4.991   9.147 -0.1051 -0.8492 -0.5607
  311MOL0     C42842   5.866   5.138   9.187 -1.1101 -0.9893  0.5924
  311MOL0     C42843   5.757   5.226   9.134  1.1498  0.4808  0.6801
  311MOL0     C42844   5.781   5.369   9.149  0.4073 -0.1519  0.9283
  311MOL0     C42845   5.809   5.488   9.161 -0.0941 -0.6459  0.7808
  311MOL0     C42846   6.033   4.661   9.360 -0.4045  0.4893 -0.5875
  311MOL0     C42847   6.101   4.553   9.411 -0.5907  0.5645 -0.0043
  311MOL0     C42848   6.147   4.561   9.556  0.8732  1.2285 -0.1223
  311MOL0     H42849   6.286   4.046   9.106 -0.4569 -2.0440  0.1829
  311MOL0     H42850   6.472   3.910   9.097 -3.6557  0.7532 -1.6307
  311MOL0     H42851   6.823   3.940   9.212 -0.8661  1.4178  0.0281
  311MOL0     H42852   6.701   3.892   9.088  2.1830  0.4685 -0.5454
  311MOL0     H42853   6.688   3.671   9.158 -1.4808  1.4524  2.5426
  311MOL0     H42854   6.829   3.703   9.066  0.5860  0.2761  0.9370
  311MOL0     H42855   6.885   3.737   9.351 -1.0610 -0.4408  1.2962
  311MOL0     H42856   6.805   3.578   9.325 -0.4278  0.4245  0.1846
  311MOL0     H42857   7.055   3.681   9.169 -0.0221  2.1946  0.9774
  311MOL0     H42858   7.076   3.611   9.328 -0.0824 -2.6589 -0.3222
  311MOL0     H42859   6.954   3.468   9.080  1.3090 -1.0010 -0.3007
  311MOL0     H42860   6.927   3.414   9.245 -1.8312  3.0752  0.1830
  311MOL0     H42861   7.150   3.384   9.295  0.3245  0.2648  0.0642
  311MOL0     H42862   7.130   3.288   9.154 -4.6192  1.4051 -2.1871
  311MOL0     H42863   7.343   3.461   9.154  0.4422 -2.2787  0.1885
  311MOL0     H42864   7.226   3.562   9.074  4.0944  2.2843  2.7858
  311MOL0     H42865   7.341   3.449   8.900 -1.7084  1.2747 -0.4286
  311MOL0     H42866   7.359   3.306   8.995  0.6956  0.8893  1.9660
  311MOL0     H42867   7.053   3.504   8.840 -1.7475 -0.2332 -1.9539
  311MOL0     H42868   6.874   3.282   8.583  0.7425 -2.3132  2.3738
  311MOL0     H42869   6.938   3.441   8.592  2.1954 -2.0029 -0.8941
  311MOL0     H42870   6.819   3.508   8.790  2.7970 -0.7528  0.9887
  311MOL0     H42871   6.694   3.407   8.693 -0.1968 -0.7536  2.6174
  311MOL0     H42872   6.707   3.226   8.813 -2.0230  2.2630 -0.8211
  311MOL0     H42873   6.837   3.290   8.925 -0.0766  1.1057  0.9652
  311MOL0     H42874   6.551   3.305   8.934 -0.7034  1.7709  1.1405
  311MOL0     H42875   6.660   3.365   9.052  3.3058  2.2337  0.5784
  311MOL0     H42876   6.396   3.376   9.057  0.2350 -1.2187 -1.8069
  311MOL0     H42877   6.276   3.397   9.217  1.7578 -0.7464  0.2280
  311MOL0     H42878   6.115   3.440   9.163  1.0663 -1.7436 -0.1734
  311MOL0     H42879   6.201   3.545   9.287 -3.3001  2.3988 -1.4434
  311MOL0     H42880   5.984   4.022   8.934  1.1397  0.4757 -0.6346
  311MOL0     H42881   5.750   4.159   9.020  0.4482  0.9017 -0.9559
  311MOL0     H42882   5.709   4.235   9.455  0.3095  2.2401  0.6590
  311MOL0     H42883   5.819   4.305   9.319  0.2415 -1.4600 -4.1971
  311MOL0     H42884   5.521   4.343   9.374  0.1554  1.8439  0.5891
  311MOL0     H42885   5.653   4.464   9.392  0.0300 -0.7613  1.8631
  311MOL0     H42886   5.530   4.350   9.130 -0.6059 -2.0529  1.2449
  311MOL0     H42887   5.695   4.380   9.128 -0.2278 -0.0521 -0.6410
  311MOL0     H42888   5.655   4.628   9.188  1.2366  0.4214 -0.1968
  311MOL0     H42889   5.488   4.587   9.226  1.1759  2.4775  1.2066
  311MOL0     H42890   5.622   4.591   8.946  1.7474  3.0394  2.0340
  311MOL0     H42891   5.461   4.518   8.973 -0.7028  1.3307  0.7208
  311MOL0     H42892   5.495   4.777   8.905  0.7212 -1.5105 -0.4838
  311MOL0     H42893   5.503   4.793   9.079  0.3197 -0.7519  0.8082
  311MOL0     H42894   5.296   4.695   9.117 -0.9638  1.4455  0.0306
  311MOL0     H42895   5.259   4.654   8.949 -2.2556  2.6659 -0.7440
  311MOL0     H42896   5.230   4.845   8.865  1.1884  0.1965 -0.5176
  311MOL0     H42897   5.297   4.926   9.024  0.2891  1.1685 -1.1887
  311MOL0     H42898   5.859   4.011   9.407  1.8738 -2.1691 -0.8117
  311MOL0     H42899   6.052   3.895   9.322 -1.0544 -0.0421  0.2559
  311MOL0     H42900   6.292   3.834   8.910 -0.3567  0.0896 -2.5311
  311MOL0     H42901   6.513   3.729   8.846  1.2620  0.8440  1.6510
  311MOL0     H42902   6.586   4.021   9.497  0.7492  2.0750 -0.6816
  311MOL0     H42903   6.363   4.162   9.520  0.3395  0.9170 -0.3593
  311MOL0     H42904   6.096   4.354   9.141 -2.3636 -2.5976  1.7486
  311MOL0     H42905   5.941   4.560   9.058  0.2110  0.4284 -0.7404
  311MOL0     H42906   5.882   4.915   9.342 -2.5558 -0.6178 -0.7878
  311MOL0     H42907   6.029   4.922   9.230  0.4483  2.7044 -0.1778
  311MOL0     H42908   5.727   4.978   9.161 -0.4941  2.2750  0.0414
  311MOL0     H42909   5.862   4.970   9.043 -2.9360  1.1267 -1.8304
  311MOL0     H42910   5.861   5.159   9.294  1.1870 -0.5682  0.6610
  311MOL0     H42911   5.969   5.158   9.155 -0.7069 -2.9066  0.5496
  311MOL0     H42912   5.666   5.196   9.187  0.3342  0.0124 -0.9451
  311MOL0     H42913   5.744   5.201   9.029 -1.6028 -1.2645  1.3380
  311MOL0     H42914   5.822   5.594   9.177 -2.7946 -0.5415  2.7828
  311MOL0     H42915   6.025   4.745   9.428 -0.4488  2.0137 -2.4197
  311MOL0     H42916   6.246   4.515   9.567 -0.2691 -1.7396 -1.1858
  311MOL0     H42917   6.154   4.665   9.587 -0.4187  0.5756  2.6756
  311MOL0     H42918   6.074   4.511   9.621 -1.4510  2.2352 -1.8153
  312MOL0     O42919   9.993  10.700   2.226  0.3374 -0.3536 -0.6659
  312MOL0     C42920   9.892  10.762   2.264 -0.4645 -0.5245  0.1217
  312MOL0     O42921   9.800  10.825   2.184  0.1504 -0.6553 -0.5957
  312MOL0     C42922   9.826  10.804   2.047  1.0123  0.4069  0.0630
  312MOL0     C42923   9.711  10.757   1.980 -0.5353 -0.4155  0.5216
  312MOL0     C42924   9.708  10.720   1.849  0.2196  0.7946  0.8756
  312MOL0     C42925   9.816  10.752   1.770 -0.7346 -0.2179 -0.0099
  312MOL0     O42926   9.823  10.735   1.630  0.5934 -0.6966 -0.6600
  312MOL0     C42927   9.698  10.763   1.564  0.0183 -0.9251  0.2179
  312MOL0     C42928   9.702  10.839   1.428  0.0074 -0.7840  0.1600
  312MOL0     C42929   9.727  10.738   1.311  0.6387  0.2729  0.0028
  312MOL0     C42930   9.785  10.808   1.187  1.4793  0.5615  0.1778
  312MOL0     C42931   9.846  10.702   1.099 -0.1834 -0.3809  0.1824
  312MOL0     C42932   9.878  10.729   0.951 -0.4663  1.0002  0.1289
  312MOL0     C42933   9.981  10.839   0.949 -0.6154 -0.0277 -1.3077
  312MOL0     C42934  10.036  10.890   0.818  0.9567 -0.0835  0.0358
  312MOL0     N42935   9.933  10.914   0.719  0.1561  0.1610  0.1366
  312MOL0     C42936   9.807  10.977   0.735 -0.2284  0.3153 -0.7951
  312MOL0     C42937   9.738  10.949   0.620  0.4512  0.4227  0.0693
  312MOL0     C42938   9.608  11.003   0.584 -0.1994 -0.2477  1.1465
  312MOL0     C42939   9.485  10.914   0.601 -0.1056 -0.9233  0.5335
  312MOL0     C42940   9.516  10.777   0.538 -0.0357  0.6166 -0.0896
  312MOL0     C42941   9.562  10.781   0.382 -0.2700 -0.6217  0.2064
  312MOL0     O42942   9.476  10.867   0.313  0.2370  0.2246  0.5606
  312MOL0     C42943   9.527  10.912   0.195 -1.1179 -0.1799  0.2284
  312MOL0     C42944   9.452  11.004   0.127 -0.0524  0.1834 -1.0165
  312MOL0     C42945   9.496  11.080   0.021  0.1047  0.2267 -0.3214
  312MOL0     C42946   9.415  11.194  -0.031 -0.0406  0.4059  0.3960
  312MOL0     C42947   9.621  11.050  -0.033 -0.4256  0.3705  0.1328
  312MOL0     C42948   9.697  11.127  -0.141 -0.2159 -1.2355 -0.2871
  312MOL0     O42949   9.647  11.244  -0.178  0.1894  0.2096  0.4860
  312MOL0     C42950   9.660  11.298  -0.306  0.5068 -0.0456  0.9489
  312MOL0     C42951   9.711  11.224  -0.421  0.2461 -0.5842  0.0126
  312MOL0     C42952   9.740  11.296  -0.537  0.2551 -0.1694 -0.1306
  312MOL0     C42953   9.691  11.422  -0.559  0.6890 -0.9038  0.3964
  312MOL0     O42954   9.676  11.466  -0.689 -0.4211  0.0026 -0.7907
  312MOL0     C42955   9.746  11.589  -0.726  0.9342  0.3498 -0.0141
  312MOL0     C42956   9.680  11.626  -0.862 -0.6768  0.3126 -0.3415
  312MOL0     C42957   9.767  11.611  -0.985  0.4665  0.3099 -0.4018
  312MOL0     C42958   9.679  11.646  -1.108 -0.5822  0.5904 -0.2461
  312MOL0     C42959   9.734  11.598  -1.241 -0.0179 -0.6526  0.3961
  312MOL0     C42960   9.646  11.610  -1.366  0.4465  0.1866 -0.4534
  312MOL0     C42961   9.617  11.753  -1.410  0.9311 -0.6030 -0.7201
  312MOL0     C42962   9.591  11.757  -1.557 -0.1989 -0.0918  0.4898
  312MOL0    Cl42963   9.592  11.932  -1.590  0.2964 -0.0354  0.3998
  312MOL0     C42964   9.638  11.492  -0.450 -0.4764  0.4935  0.7116
  312MOL0     C42965   9.619  11.426  -0.326  0.1875 -0.0394 -0.9458
  312MOL0     O42966   9.812  11.097  -0.159  0.1598  0.0864  0.0063
  312MOL0     C42967   9.686  10.935   0.018 -0.1397  0.4939  0.2177
  312MOL0     C42968   9.634  10.855   0.126  0.6915 -0.1868  0.5525
  312MOL0     N42969   9.818  10.866   0.543  0.2594 -0.3041  0.3709
  312MOL0     N42970   9.928  10.841   0.607 -0.6960 -0.2121  0.0181
  312MOL0     C42971   9.937  10.799   1.829  0.4678  0.0066 -0.3914
  312MOL0     C42972   9.942  10.826   1.966 -0.5355  0.1565  0.4606
  312MOL0     C42973   9.880  10.761   2.418  0.3440  1.1977 -0.1899
  312MOL0     C42974   9.992  10.758   2.500 -0.6741  0.1770  0.6126
  312MOL0     C42975   9.973  10.771   2.636 -0.6580  0.4799 -0.6264
  312MOL0     C42976   9.852  10.761   2.701 -0.9213 -0.7534 -0.1307
  312MOL0     O42977   9.837  10.736   2.833  0.4218 -0.8576  0.7786
  312MOL0     C42978   9.958  10.720   2.919 -0.2411 -0.7195  1.4596
  312MOL0     C42979  10.041  10.585   2.904 -0.0181 -0.4577  0.1795
  312MOL0     C42980  10.132  10.593   3.026 -1.4741  0.2824 -0.4411
  312MOL0     C42981  10.095  10.479   3.116  0.1704  0.4546 -0.5881
  312MOL0     C42982   9.965  10.486   3.187 -0.4620  0.1119  0.9872
  312MOL0     C42983   9.855  10.493   3.244 -0.9866 -0.1440  0.1159
  312MOL0     C42984   9.739  10.766   2.617  0.6286 -0.4237  0.3452
  312MOL0     C42985   9.750  10.769   2.475 -1.5574 -0.3446  0.0086
  312MOL0     C42986   9.616  10.781   2.404 -0.1721  0.7075  0.1432
  312MOL0     H42987   9.622  10.730   2.036 -1.6508  1.3687 -0.2982
  312MOL0     H42988   9.617  10.669   1.817  0.6294 -0.1465  1.1521
  312MOL0     H42989   9.631  10.821   1.628  0.1849  0.3233 -0.6973
  312MOL0     H42990   9.645  10.670   1.544  0.3976 -1.2271  0.5977
  312MOL0     H42991   9.603  10.884   1.425  1.0517  1.9730  2.3900
  312MOL0     H42992   9.771  10.921   1.448 -2.7859  1.6644  0.3645
  312MOL0     H42993   9.794  10.662   1.352 -2.6177 -3.6727 -1.2497
  312MOL0     H42994   9.639  10.681   1.278  2.8999 -2.6204 -1.5413
  312MOL0     H42995   9.703  10.861   1.139 -0.0318 -3.3268 -2.0383
  312MOL0     H42996   9.875  10.867   1.207  2.5301 -0.3661 -1.5320
  312MOL0     H42997   9.798  10.605   1.116  0.9276 -0.8680  0.6733
  312MOL0     H42998   9.945  10.686   1.143  1.3783  2.3328 -2.0095
  312MOL0     H42999   9.920  10.635   0.914  0.8034  0.4783  2.7155
  312MOL0     H43000   9.791  10.743   0.885 -1.8389 -2.8686  0.8499
  312MOL0     H43001  10.063  10.800   1.010  0.3149  4.7774  0.9640
  312MOL0     H43002   9.951  10.928   1.005 -0.5546  0.0942 -1.4643
  312MOL0     H43003  10.084  10.988   0.828 -2.4533  1.8627 -1.0342
  312MOL0     H43004  10.101  10.810   0.780  1.6997 -0.1847  1.4631
  312MOL0     H43005   9.777  11.034   0.822  3.8208 -0.7109  1.4915
  312MOL0     H43006   9.611  11.031   0.478 -1.9820  4.0275  2.0289
  312MOL0     H43007   9.600  11.100   0.634  1.3777  1.0930 -1.0019
  312MOL0     H43008   9.484  10.901   0.710 -0.8936  2.2874  1.0103
  312MOL0     H43009   9.388  10.955   0.572  0.5120  1.1306  1.2515
  312MOL0     H43010   9.595  10.725   0.593  0.6152  1.6655  0.0078
  312MOL0     H43011   9.421  10.725   0.551 -1.2283  3.0844  2.2462
  312MOL0     H43012   9.663  10.822   0.381  0.7250 -2.9129  0.2145
  312MOL0     H43013   9.561  10.686   0.327 -0.1337 -0.1163 -0.6845
  312MOL0     H43014   9.358  11.028   0.175  0.9246 -1.8568  2.1673
  312MOL0     H43015   9.311  11.191   0.001 -0.1037 -1.4510  0.1358
  312MOL0     H43016   9.417  11.199  -0.141  3.1610  0.8422  0.3723
  312MOL0     H43017   9.458  11.286   0.009  0.0037  0.1520  0.9411
  312MOL0     H43018   9.727  11.118  -0.407 -1.1104 -0.5911  2.0742
  312MOL0     H43019   9.793  11.238  -0.612  1.0016  0.7382 -0.3227
  312MOL0     H43020   9.759  11.667  -0.650  0.8018  0.9582 -0.6130
  312MOL0     H43021   9.850  11.575  -0.758  0.6309  0.0611 -0.9053
  312MOL0     H43022   9.583  11.577  -0.876 -0.1559 -0.6631 -0.6434
  312MOL0     H43023   9.657  11.732  -0.853 -1.1288  0.1458  0.5827
  312MOL0     H43024   9.800  11.508  -0.994 -2.8311 -0.9350  0.2883
  312MOL0     H43025   9.855  11.676  -0.982  2.5214 -2.3443 -0.5405
  312MOL0     H43026   9.652  11.751  -1.108  0.1273  1.0208  4.8454
  312MOL0     H43027   9.582  11.598  -1.088 -1.4237  2.3447  0.0276
  312MOL0     H43028   9.818  11.658  -1.275 -2.0771  1.4634 -1.2853
  312MOL0     H43029   9.762  11.493  -1.235 -1.5803 -1.1217  0.0742
  312MOL0     H43030   9.553  11.556  -1.351  1.6355 -1.1778  2.7355
  312MOL0     H43031   9.691  11.568  -1.457  2.8151  2.4090 -0.4330
  312MOL0     H43032   9.702  11.820  -1.393  0.7475 -0.3930 -0.6216
  312MOL0     H43033   9.527  11.787  -1.359 -0.1896 -1.8197 -1.8266
  312MOL0     H43034   9.493  11.710  -1.569 -0.6160  0.7721  0.4093
  312MOL0     H43035   9.668  11.716  -1.622  2.0956  1.1910  2.2605
  312MOL0     H43036   9.607  11.596  -0.462 -1.3369  0.0233 -1.6752
  312MOL0     H43037   9.567  11.477  -0.245 -3.4752  0.6707 -3.5082
  312MOL0     H43038   9.783  10.914  -0.028  0.1265  3.4121 -0.7714
  312MOL0     H43039   9.675  10.762   0.163 -3.3055 -1.7246  1.7520
  312MOL0     H43040  10.019  10.823   1.762  0.5144  1.8386  0.2631
  312MOL0     H43041  10.034  10.850   2.017  0.3293 -3.2222  0.7479
  312MOL0     H43042  10.091  10.777   2.461 -1.2394  3.1745  0.4385
  312MOL0     H43043  10.072  10.775   2.679 -1.3317  0.2925  0.9803
  312MOL0     H43044  10.019  10.810   2.907 -0.9944 -0.4130 -0.4836
  312MOL0     H43045   9.930  10.723   3.025  0.6475 -0.4241  1.7009
  312MOL0     H43046  10.105  10.600   2.816  1.4506 -0.2381  1.2516
  312MOL0     H43047   9.977  10.497   2.912  0.5285 -0.6628  5.2173
  312MOL0     H43048  10.236  10.579   2.996 -1.3919  1.1308 -0.5583
  312MOL0     H43049  10.133  10.689   3.077 -1.0613  0.7465 -1.3133
  312MOL0     H43050  10.177  10.473   3.189  0.5669  0.7726 -1.0048
  312MOL0     H43051  10.091  10.385   3.059 -0.7339 -0.9490  1.6419
  312MOL0     H43052   9.771  10.507   3.309 -2.2764 -1.3097 -1.2348
  312MOL0     H43053   9.645  10.749   2.669  0.4473  1.2794  0.6359
  312MOL0     H43054   9.613  10.864   2.332 -0.7415 -1.9408 -3.1488
  312MOL0     H43055   9.602  10.691   2.345 -0.4056  1.8243 -1.5837
  312MOL0     H43056   9.532  10.795   2.472 -1.0781  3.7016 -1.3930
  313MOL0     O43057   7.654   0.717   4.846  0.2791  0.7807  0.2256
  313MOL0     C43058   7.753   0.676   4.905  0.2111 -1.1440  0.0114
  313MOL0     O43059   7.768   0.683   5.046 -0.7694  0.0736  0.1687
  313MOL0     C43060   7.672   0.723   5.136  0.3451  1.1033  1.0053
  313MOL0     C43061   7.681   0.680   5.271 -0.6051 -0.3587 -0.3063
  313MOL0     C43062   7.584   0.720   5.363  0.6127  1.0283  0.1323
  313MOL0     C43063   7.485   0.815   5.339 -0.0460 -0.4793  0.2417
  313MOL0     O43064   7.388   0.858   5.431 -0.0675 -0.1201  0.3687
  313MOL0     C43065   7.345   0.767   5.527  0.2744 -0.0822  0.9572
  313MOL0     C43066   7.293   0.858   5.643 -1.1914 -0.0033  0.3665
  313MOL0     C43067   7.229   0.782   5.754  0.2213 -0.1167 -0.0467
  313MOL0     C43068   7.176   0.871   5.863 -0.4101  0.4068 -0.4036
  313MOL0     C43069   7.089   0.796   5.977  0.0249  0.2688  0.0308
  313MOL0     C43070   7.176   0.686   6.040 -0.5607  0.2484 -0.0571
  313MOL0     C43071   7.112   0.612   6.158 -0.8348  0.6631  0.0807
  313MOL0     C43072   7.121   0.694   6.289  0.3997 -0.5641  0.4543
  313MOL0     N43073   7.098   0.613   6.408 -0.1106 -0.4622  0.0206
  313MOL0     C43074   7.197   0.570   6.494 -0.5298  1.4341 -0.4322
  313MOL0     C43075   7.135   0.494   6.586 -0.2398  0.6507 -0.0687
  313MOL0     C43076   7.211   0.424   6.698  0.1149 -0.2243 -0.0872
  313MOL0     C43077   7.197   0.277   6.658 -0.4082 -0.3463  0.2803
  313MOL0     C43078   7.230   0.231   6.514 -0.0450  0.7117  0.0723
  313MOL0     C43079   7.370   0.240   6.463  0.2438 -0.0828 -0.3612
  313MOL0     O43080   7.364   0.212   6.328  0.0218 -0.1973  0.2139
  313MOL0     C43081   7.420   0.295   6.236 -0.7928 -0.8870 -0.2578
  313MOL0     C43082   7.380   0.265   6.107 -0.5804  0.7630 -0.1314
  313MOL0     C43083   7.411   0.349   6.000 -0.0229  0.3202  0.2036
  313MOL0     C43084   7.335   0.317   5.872 -0.1505 -1.2715  0.3549
  313MOL0     C43085   7.504   0.460   6.030  0.4712  0.5709 -0.9263
  313MOL0     C43086   7.552   0.555   5.921  0.4802 -0.0102 -1.0857
  313MOL0     O43087   7.636   0.660   5.962  0.9954  0.0226  0.3320
  313MOL0     C43088   7.672   0.764   5.882  0.5731  0.2951 -0.2073
  313MOL0     C43089   7.691   0.890   5.940  0.0738  0.2381  0.5429
  313MOL0     C43090   7.733   0.999   5.863 -0.1752 -0.0344  0.0022
  313MOL0     C43091   7.774   0.985   5.728 -0.6949  0.3412 -0.6803
  313MOL0     O43092   7.835   1.092   5.665 -0.1556 -0.1857  0.6086
  313MOL0     C43093   7.769   1.159   5.550 -0.7359 -0.1648  1.2171
  313MOL0     C43094   7.625   1.193   5.568  0.0789  0.4577 -0.5685
  313MOL0     C43095   7.586   1.276   5.442 -0.5938  0.7316  1.0022
  313MOL0     C43096   7.545   1.200   5.325  0.6494 -0.1978  0.4369
  313MOL0     C43097   7.516   1.304   5.211 -0.8827  0.1729  0.1971
  313MOL0     C43098   7.432   1.234   5.094  0.1486  0.5077 -0.3480
  313MOL0     C43099   7.406   1.328   4.974  0.1578  0.7637  0.8906
  313MOL0     C43100   7.364   1.249   4.853 -0.5779  0.4869  0.5576
  313MOL0    Cl43101   7.510   1.156   4.785 -0.1473 -0.5969 -0.3670
  313MOL0     C43102   7.772   0.856   5.676 -0.6969  0.3227  0.4805
  313MOL0     C43103   7.711   0.747   5.747 -0.8445 -0.5306  0.2980
  313MOL0     O43104   7.494   0.558   5.812 -0.0504  0.6290  0.2838
  313MOL0     C43105   7.559   0.476   6.159 -0.2148  0.2798 -0.4281
  313MOL0     C43106   7.518   0.397   6.264 -0.0614  0.4108  0.7171
  313MOL0     N43107   7.000   0.505   6.570  0.0370 -0.0679 -0.3056
  313MOL0     N43108   6.979   0.579   6.464  0.5385 -0.1958  0.5029
  313MOL0     C43109   7.479   0.868   5.210 -0.8672  0.0725  0.3582
  313MOL0     C43110   7.573   0.823   5.114  0.4323  1.4165  1.3143
  313MOL0     C43111   7.861   0.605   4.828 -0.4531  0.6674  0.7728
  313MOL0     C43112   7.941   0.506   4.900 -0.6291 -0.4294  0.1610
  313MOL0     C43113   8.036   0.440   4.833  0.5723  0.0858 -0.3898
  313MOL0     C43114   8.052   0.450   4.694  0.1733  0.9905 -0.8030
  313MOL0     O43115   8.142   0.369   4.630 -0.4228 -0.0180  0.8195
  313MOL0     C43116   8.089   0.291   4.516  0.4793 -0.2148  0.5143
  313MOL0     C43117   8.139   0.138   4.503 -0.0623 -0.6367  0.1800
  313MOL0     C43118   8.278   0.109   4.456 -0.3016  0.9284 -0.2303
  313MOL0     C43119   8.390   0.184   4.519  0.2534 -0.7549 -0.1384
  313MOL0     C43120   8.510   0.121   4.485 -0.1392 -1.3163  0.3187
  313MOL0     C43121   8.616   0.072   4.458 -0.2829 -0.4470 -0.4963
  313MOL0     C43122   7.976   0.540   4.622  0.2666 -0.4782 -0.3261
  313MOL0     C43123   7.894   0.629   4.692  0.0187  0.7180  0.3321
  313MOL0     C43124   7.821   0.730   4.615 -0.2613  0.0769 -0.3772
  313MOL0     H43125   7.747   0.599   5.299 -2.2865 -2.3880 -1.8546
  313MOL0     H43126   7.585   0.671   5.460  2.4839 -0.9602 -0.7984
  313MOL0     H43127   7.405   0.688   5.572 -0.9081 -0.9083  1.1431
  313MOL0     H43128   7.256   0.721   5.483  0.6587 -2.0849  2.1550
  313MOL0     H43129   7.380   0.907   5.689 -0.0423 -1.9303  0.3681
  313MOL0     H43130   7.225   0.938   5.612  1.3755  3.2783  2.5524
  313MOL0     H43131   7.147   0.723   5.711  1.6990 -0.1426 -3.1085
  313MOL0     H43132   7.304   0.712   5.792 -0.2808 -0.8054 -0.3010
  313MOL0     H43133   7.263   0.914   5.915 -0.5483 -1.9600  1.9925
  313MOL0     H43134   7.114   0.950   5.821  1.2070  1.4954 -0.8275
  313MOL0     H43135   7.006   0.740   5.934  0.5207 -1.8438  1.6541
  313MOL0     H43136   7.053   0.876   6.043 -0.0976 -0.0237  0.3202
  313MOL0     H43137   7.212   0.612   5.968 -0.4151  3.4328 -3.5501
  313MOL0     H43138   7.275   0.724   6.067 -1.0457  0.6452  1.2436
  313MOL0     H43139   7.162   0.517   6.180 -1.0898  0.5248  0.0622
  313MOL0     H43140   7.009   0.584   6.136 -0.7945  0.0093  0.6792
  313MOL0     H43141   7.222   0.733   6.301  0.4201 -1.1672  2.5472
  313MOL0     H43142   7.052   0.779   6.279 -2.8330 -3.0587 -0.0563
  313MOL0     H43143   7.303   0.594   6.483  0.8675 -3.0939  1.1011
  313MOL0     H43144   7.167   0.444   6.796  0.1784  0.8613 -0.2618
  313MOL0     H43145   7.313   0.462   6.692 -0.2205  1.0534  1.5191
  313MOL0     H43146   7.272   0.221   6.714  1.7610  3.3965  1.4571
  313MOL0     H43147   7.101   0.231   6.684 -0.1474 -2.0761 -1.5175
  313MOL0     H43148   7.210   0.123   6.508  3.2388  0.0195 -0.8349
  313MOL0     H43149   7.168   0.287   6.444  0.8120  3.2763  1.2677
  313MOL0     H43150   7.409   0.341   6.479  0.5689 -0.3520  0.5954
  313MOL0     H43151   7.446   0.179   6.513 -0.5218  0.9302  2.1667
  313MOL0     H43152   7.324   0.174   6.088  2.1644 -0.5562 -2.7927
  313MOL0     H43153   7.301   0.411   5.828  2.9343  2.3757  4.7089
  313MOL0     H43154   7.249   0.252   5.888 -1.1467 -0.2857 -0.8874
  313MOL0     H43155   7.404   0.265   5.805  0.5694 -0.0377  0.1130
  313MOL0     H43156   7.674   0.910   6.045 -0.4238  2.1444  0.1287
  313MOL0     H43157   7.745   1.091   5.920 -0.8750 -0.1237  0.3078
  313MOL0     H43158   7.825   1.247   5.519 -0.7647 -1.5000 -3.3747
  313MOL0     H43159   7.778   1.082   5.473  0.1480  0.5689  0.5648
  313MOL0     H43160   7.567   1.100   5.574 -0.7250  1.0127  1.0552
  313MOL0     H43161   7.611   1.264   5.651 -1.1033  3.6520 -3.2640
  313MOL0     H43162   7.670   1.343   5.421  0.1145 -0.5445 -0.4273
  313MOL0     H43163   7.503   1.340   5.475 -1.2144 -0.5347  1.9556
  313MOL0     H43164   7.452   1.154   5.360  0.8820 -0.7226  0.3753
  313MOL0     H43165   7.617   1.123   5.297  0.9897 -1.1904  3.6893
  313MOL0     H43166   7.454   1.385   5.250 -0.8733  0.8176 -1.0873
  313MOL0     H43167   7.609   1.350   5.175 -0.5151  0.9891  2.0942
  313MOL0     H43168   7.339   1.202   5.142  0.0795  0.1667 -0.7081
  313MOL0     H43169   7.491   1.147   5.064 -0.2687 -0.1358  0.6394
  313MOL0     H43170   7.500   1.370   4.939  0.2186 -0.2589 -0.2515
  313MOL0     H43171   7.345   1.417   4.989 -1.0411  0.0000  0.7099
  313MOL0     H43172   7.316   1.316   4.782  1.6596  0.7438 -0.8357
  313MOL0     H43173   7.288   1.172   4.870 -0.8388 -0.0036 -2.2825
  313MOL0     H43174   7.800   0.851   5.571 -1.5394  1.1367  0.2024
  313MOL0     H43175   7.706   0.651   5.697 -1.2348  0.4807 -1.7169
  313MOL0     H43176   7.640   0.544   6.181  0.8789 -0.3451 -2.3042
  313MOL0     H43177   7.564   0.414   6.361 -3.6122  0.1836  2.5969
  313MOL0     H43178   7.393   0.927   5.183 -0.0651  1.3830  0.6072
  313MOL0     H43179   7.583   0.876   5.020  3.2313 -1.1845 -0.0388
  313MOL0     H43180   7.931   0.500   5.008  1.0899 -1.6618  0.2918
  313MOL0     H43181   8.102   0.378   4.893 -0.4660  0.8807  1.6512
  313MOL0     H43182   7.980   0.290   4.521  0.5112  0.2616  4.7467
  313MOL0     H43183   8.119   0.332   4.419 -0.5847 -3.2578 -1.2309
  313MOL0     H43184   8.068   0.089   4.437  0.4254  0.1812 -0.9865
  313MOL0     H43185   8.123   0.090   4.600  0.4533 -2.0046 -0.4039
  313MOL0     H43186   8.293   0.001   4.456  2.6791  1.2693 -1.0915
  313MOL0     H43187   8.266   0.131   4.349 -0.9619 -1.9664 -0.8389
  313MOL0     H43188   8.377   0.195   4.627 -0.3334  0.5431 -0.3162
  313MOL0     H43189   8.382   0.289   4.489 -2.8546 -1.3866 -2.0124
  313MOL0     H43190   8.712   0.029   4.440 -0.0420 -0.0179 -0.2472
  313MOL0     H43191   7.985   0.563   4.516 -0.0333 -0.3867 -0.3302
  313MOL0     H43192   7.718   0.701   4.591 -0.3923  1.2711 -1.3676
  313MOL0     H43193   7.813   0.823   4.673  0.3450 -0.9339  1.4115
  313MOL0     H43194   7.890   0.749   4.533 -1.3193  0.5038 -1.1948
  314MOL0     O43195   1.577  10.454   9.985 -0.8284 -0.0735  0.4211
  314MOL0     C43196   1.694  10.468  10.025 -0.0241 -0.1832 -0.4054
  314MOL0     O43197   1.739  10.425  10.153  0.2147 -0.4445  0.6470
  314MOL0     C43198   1.679  10.325  10.211 -0.6237  0.9425 -0.2421
  314MOL0     C43199   1.661  10.336  10.348  0.5401  0.1127 -0.0487
  314MOL0     C43200   1.598  10.241  10.421 -0.2405  0.3020 -0.3212
  314MOL0     C43201   1.559  10.119  10.353 -0.0815 -0.5898  0.6715
  314MOL0     O43202   1.501  10.012  10.421  0.2213  0.4847  0.2643
  314MOL0     C43203   1.415  10.035  10.532 -0.1616 -0.4386 -0.4481
  314MOL0     C43204   1.511  10.001  10.655 -0.8693 -0.5315  0.4484
  314MOL0     C43205   1.426  10.013  10.778  0.8869 -0.6118  0.3703
  314MOL0     C43206   1.358   9.881  10.817 -0.0222  0.6523 -0.1521
  314MOL0     C43207   1.458   9.759  10.852 -0.7811 -0.4661 -0.6679
  314MOL0     C43208   1.395   9.625  10.853 -0.4539  0.5740 -0.7383
  314MOL0     C43209   1.331   9.585  10.725  0.6237 -0.9795  0.8199
  314MOL0     C43210   1.421   9.599  10.602  0.7856  0.1665 -0.9058
  314MOL0     N43211   1.381   9.503  10.506  0.4026  0.8011  0.7698
  314MOL0     C43212   1.264   9.511  10.425  0.0271  0.9360 -0.3246
  314MOL0     C43213   1.254   9.389  10.363 -0.2766  0.5254 -0.1729
  314MOL0     C43214   1.145   9.370  10.265  0.3648  0.3993  0.3991
  314MOL0     C43215   0.996   9.400  10.307  0.2143 -0.5626 -0.2857
  314MOL0     C43216   0.914   9.361  10.178  0.2024 -0.1934 -0.4812
  314MOL0     C43217   0.756   9.380  10.197 -0.4904 -0.4937  1.3143
  314MOL0     O43218   0.711   9.287  10.295  0.2641  0.3011  0.1550
  314MOL0     C43219   0.577   9.283  10.326  0.6349  0.0827  0.6855
  314MOL0     C43220   0.528   9.167  10.387  0.6527  1.3738  0.4995
  314MOL0     C43221   0.391   9.138  10.401  0.0486 -0.1897  0.2964
  314MOL0     C43222   0.342   9.012  10.451  0.7433  0.3985 -0.4657
  314MOL0     C43223   0.294   9.236  10.361  0.4561  0.5698  0.1860
  314MOL0     C43224   0.145   9.218  10.371  0.0843  0.1372  0.6642
  314MOL0     O43225   0.068   9.324  10.417  0.1668  0.2376 -0.0820
  314MOL0     C43226  -0.068   9.304  10.438  0.2248  0.6376  0.1579
  314MOL0     C43227  -0.140   9.418  10.447  0.0241  0.6822  0.4831
  314MOL0     C43228  -0.274   9.413  10.484  0.4335 -0.3214 -0.3330
  314MOL0     C43229  -0.346   9.296  10.493 -0.1487  0.7345 -0.1116
  314MOL0     O43230  -0.479   9.302  10.516  0.6191  0.2948  0.0291
  314MOL0     C43231  -0.540   9.176  10.479  0.3649 -0.6740 -0.2281
  314MOL0     C43232  -0.687   9.185  10.531 -0.4385 -0.1630  0.1193
  314MOL0     C43233  -0.762   9.052  10.540  0.6746 -0.2740 -0.0016
  314MOL0     C43234  -0.750   8.983  10.673  0.1459  1.4948 -0.5802
  314MOL0     C43235  -0.840   8.857  10.692 -1.0344 -0.4506  0.3688
  314MOL0     C43236  -0.788   8.779  10.804 -0.3438 -0.8820 -0.0403
  314MOL0     C43237  -0.838   8.642  10.807  0.0169 -0.1753  0.4276
  314MOL0     C43238  -0.779   8.539  10.711 -0.5005 -1.0652  0.0121
  314MOL0    Cl43239  -0.610   8.489  10.744  0.1338  0.0168  0.2175
  314MOL0     C43240  -0.257   9.178  10.492  0.7055 -0.7670 -0.2036
  314MOL0     C43241  -0.126   9.178  10.467 -0.5580 -0.6450  0.6703
  314MOL0     O43242   0.103   9.122  10.310 -0.3146  0.7829 -1.0989
  314MOL0     C43243   0.347   9.359  10.331 -0.9719  0.3533  0.2782
  314MOL0     C43244   0.475   9.383  10.289  0.4177 -0.1653 -0.2623
  314MOL0     N43245   1.369   9.317  10.395 -0.0003  0.0325  0.0008
  314MOL0     N43246   1.440   9.387  10.483 -0.3476 -0.1170  0.4272
  314MOL0     C43247   1.580  10.102  10.209  0.4246  0.1821  0.2295
  314MOL0     C43248   1.639  10.207  10.150 -0.1290 -0.1462  0.3091
  314MOL0     C43249   1.800  10.547   9.958  0.4918  0.4193  0.6377
  314MOL0     C43250   1.918  10.581  10.017 -0.3013  0.4480 -0.0961
  314MOL0     C43251   2.020  10.652   9.947 -0.6921  0.6793 -0.2328
  314MOL0     C43252   2.001  10.697   9.815  0.1942 -0.2019 -0.3894
  314MOL0     O43253   2.100  10.756   9.737 -0.0980 -0.4599  0.2056
  314MOL0     C43254   2.206  10.818   9.801  0.7961 -0.7193  0.4166
  314MOL0     C43255   2.336  10.779   9.735 -0.2309  0.4195 -0.5381
  314MOL0     C43256   2.370  10.626   9.747  0.6205  0.0935 -0.9682
  314MOL0     C43257   2.488  10.583   9.664 -0.1062  0.2774  0.6620
  314MOL0     C43258   2.497  10.635   9.525  0.4100  0.6065 -1.3376
  314MOL0     C43259   2.497  10.665   9.411 -0.8218  0.8020 -0.8852
  314MOL0     C43260   1.877  10.660   9.752 -0.2028  0.2650 -0.4973
  314MOL0     C43261   1.778  10.596   9.827 -0.4201 -0.5700  1.4218
  314MOL0     C43262   1.664  10.573   9.723 -0.1767 -0.9953 -0.6144
  314MOL0     H43263   1.706  10.419  10.402  0.9445 -0.1171 -0.0319
  314MOL0     H43264   1.591  10.254  10.529  0.6943  1.6659 -0.4037
  314MOL0     H43265   1.332   9.964  10.545 -1.7481  1.7792  2.7553
  314MOL0     H43266   1.380  10.137  10.549 -1.6520 -1.0793  0.5608
  314MOL0     H43267   1.553   9.900  10.647 -2.5525 -1.1656 -1.0179
  314MOL0     H43268   1.596  10.070  10.661  1.4003 -3.1539  0.3355
  314MOL0     H43269   1.486  10.041  10.865  1.8426 -0.9467 -0.1598
  314MOL0     H43270   1.353  10.092  10.762  0.4066 -1.0732  0.2492
  314MOL0     H43271   1.292   9.895  10.903  0.2639  2.2787 -0.1703
  314MOL0     H43272   1.304   9.846  10.728  0.2009  2.2920 -0.9656
  314MOL0     H43273   1.487   9.768  10.957 -1.7250 -2.1738 -0.2234
  314MOL0     H43274   1.551   9.752  10.794 -0.6207  1.4864 -0.7113
  314MOL0     H43275   1.472   9.551  10.875  1.5967  3.1794  1.6645
  314MOL0     H43276   1.316   9.611  10.927  0.6707 -1.6218  0.1349
  314MOL0     H43277   1.229   9.617  10.704  0.8521 -1.2714 -0.9255
  314MOL0     H43278   1.317   9.478  10.742  1.1388 -0.7318  3.0634
  314MOL0     H43279   1.392   9.698  10.566 -1.0859  0.8403  2.0666
  314MOL0     H43280   1.525   9.605  10.634  0.3620  1.8111  0.2902
  314MOL0     H43281   1.196   9.594  10.414  0.6306  1.4896  0.0575
  314MOL0     H43282   1.144   9.265  10.234 -0.9925 -0.1151  2.0199
  314MOL0     H43283   1.177   9.427  10.177  0.9959 -3.6366 -2.2522
  314MOL0     H43284   0.947   9.350  10.391 -3.0589  0.5151 -1.4334
  314MOL0     H43285   0.966   9.502  10.329 -3.6505 -2.0843  2.8181
  314MOL0     H43286   0.947   9.425  10.095 -1.5518 -2.1762 -2.8553
  314MOL0     H43287   0.936   9.261  10.142  0.6335  0.6310 -2.6715
  314MOL0     H43288   0.731   9.478  10.238 -1.2485 -0.6821  1.3057
  314MOL0     H43289   0.691   9.359  10.111 -0.9215 -1.6549  1.9161
  314MOL0     H43290   0.586   9.082  10.421 -2.6879 -0.9222  0.8297
  314MOL0     H43291   0.424   8.957  10.499  1.0436  0.2246 -1.1665
  314MOL0     H43292   0.316   8.962  10.357 -1.4395  1.5838 -0.5425
  314MOL0     H43293   0.254   9.015  10.516  0.8926 -0.9150 -0.1824
  314MOL0     H43294  -0.091   9.514  10.444  1.2270  0.1186 -2.8483
  314MOL0     H43295  -0.331   9.504  10.502 -0.4409 -1.3308  2.6141
  314MOL0     H43296  -0.533   9.167  10.370  1.4538 -1.9782 -0.0710
  314MOL0     H43297  -0.496   9.094  10.536  1.2017 -0.8661 -1.1394
  314MOL0     H43298  -0.702   9.231  10.629  2.6012  2.2409 -0.4050
  314MOL0     H43299  -0.741   9.250  10.462  1.1332  0.0292 -0.9845
  314MOL0     H43300  -0.736   8.979  10.462 -1.4596  1.6942 -2.7503
  314MOL0     H43301  -0.864   9.068  10.504  0.1814 -1.3319  0.8555
  314MOL0     H43302  -0.783   9.058  10.746 -1.3127  0.7541 -0.4505
  314MOL0     H43303  -0.642   8.969  10.688 -0.2559 -0.1149  1.2193
  314MOL0     H43304  -0.949   8.867  10.694 -1.2243 -2.0387 -0.2726
  314MOL0     H43305  -0.830   8.795  10.602 -0.9685 -0.4141  0.3515
  314MOL0     H43306  -0.824   8.837  10.890 -2.0890 -1.2146 -0.5142
  314MOL0     H43307  -0.679   8.775  10.817  0.2881 -0.8708 -4.1729
  314MOL0     H43308  -0.946   8.656  10.798 -0.2255 -2.0349  0.0876
  314MOL0     H43309  -0.819   8.593  10.903  1.1237 -0.8231 -0.1041
  314MOL0     H43310  -0.774   8.594  10.617 -0.0300  0.8339  1.0871
  314MOL0     H43311  -0.832   8.445  10.695  0.1919 -1.4979  0.1788
  314MOL0     H43312  -0.306   9.090  10.533 -1.8401  0.6763  0.0829
  314MOL0     H43313  -0.070   9.086  10.483  3.9769  0.8357 -3.9643
  314MOL0     H43314   0.276   9.440  10.325 -0.8114  0.4442 -0.4249
  314MOL0     H43315   0.512   9.479  10.254  1.8365 -1.0615 -1.3459
  314MOL0     H43316   1.551  10.007  10.165 -0.0078  0.2524  0.3647
  314MOL0     H43317   1.668  10.197  10.046 -0.1283 -3.4776  0.5196
  314MOL0     H43318   1.938  10.553  10.120 -0.2155  0.4114 -0.1227
  314MOL0     H43319   2.112  10.660  10.004  0.0044 -3.5211 -0.4174
  314MOL0     H43320   2.202  10.924   9.776  1.4787 -0.8486 -0.2920
  314MOL0     H43321   2.219  10.796   9.907  1.5937  0.7712  0.6482
  314MOL0     H43322   2.421  10.836   9.772  0.9409 -2.0906  0.9376
  314MOL0     H43323   2.327  10.803   9.628  0.7652 -2.9557 -1.5037
  314MOL0     H43324   2.374  10.593   9.851 -4.1399  3.3088  0.5509
  314MOL0     H43325   2.279  10.572   9.718 -0.0924  1.2802 -0.9981
  314MOL0     H43326   2.475  10.475   9.667 -1.7407  0.3074 -1.8836
  314MOL0     H43327   2.579  10.613   9.718 -0.3135  1.8354  0.2089
  314MOL0     H43328   2.509  10.659   9.304 -0.4573  0.8622 -0.8503
  314MOL0     H43329   1.857  10.685   9.649  0.7422 -2.8043 -1.5059
  314MOL0     H43330   1.673  10.616   9.623 -2.2916 -1.8864 -1.2280
  314MOL0     H43331   1.635  10.469   9.712 -0.2950 -0.9107 -1.0936
  314MOL0     H43332   1.579  10.626   9.767  0.9544  0.3033  0.0983
  315MOL0     O43333  10.074   6.992   1.939  0.5260 -1.1691 -0.8168
  315MOL0     C43334  10.083   7.117   1.941  0.1226 -0.3002 -0.1088
  315MOL0     O43335  10.134   7.195   1.843  0.4852  0.2215  0.3718
  315MOL0     C43336  10.159   7.134   1.718 -0.5340 -0.2063 -0.9348
  315MOL0     C43337  10.274   7.047   1.703 -0.3738 -1.0482  0.2868
  315MOL0     C43338  10.321   7.015   1.583  1.1117  0.8662 -0.6904
  315MOL0     C43339  10.253   7.058   1.464 -0.3164  0.6823  0.1124
  315MOL0     O43340  10.305   7.013   1.339 -0.0634 -0.1288 -0.2000
  315MOL0     C43341  10.288   7.116   1.233  0.1583  0.0401 -0.8797
  315MOL0     C43342  10.402   7.089   1.135  0.7333 -0.2240  0.0755
  315MOL0     C43343  10.399   7.213   1.039 -0.8833  0.5835  0.1643
  315MOL0     C43344  10.527   7.204   0.956  0.2917  0.7157 -0.3468
  315MOL0     C43345  10.542   7.334   0.885  0.7931 -0.0876  1.1731
  315MOL0     C43346  10.553   7.463   0.960  0.3415  0.0453 -0.1341
  315MOL0     C43347  10.642   7.459   1.076  0.1164 -0.1666  0.5283
  315MOL0     C43348  10.638   7.587   1.160  0.7964  0.3601 -0.1479
  315MOL0     N43349  10.683   7.707   1.086 -1.3923  0.7478  0.7761
  315MOL0     C43350  10.798   7.769   1.103  0.1629 -0.2524 -0.4864
  315MOL0     C43351  10.792   7.889   1.037 -0.0556  0.7224 -0.0448
  315MOL0     C43352  10.903   7.996   1.050  0.1609  0.5639  0.4986
  315MOL0     C43353  10.973   8.025   1.182 -0.1025 -0.1989 -0.7968
  315MOL0     C43354  11.018   8.171   1.196 -0.2066 -0.2588 -0.3247
  315MOL0     C43355  11.087   8.226   1.075 -0.5742  0.1827  0.4218
  315MOL0     O43356  11.136   8.361   1.109 -0.1755 -0.2689  0.5554
  315MOL0     C43357  11.146   8.439   0.999  0.0099  0.4519  0.0427
  315MOL0     C43358  11.263   8.422   0.915 -0.0836  0.4526 -0.7191
  315MOL0     C43359  11.278   8.512   0.808  0.8527 -0.0563  0.0289
  315MOL0     C43360  11.403   8.488   0.719  0.7447  0.9270  0.3360
  315MOL0     C43361  11.185   8.623   0.791  0.1779 -1.1292  0.5189
  315MOL0     C43362  11.210   8.753   0.716  0.8126 -0.2728  0.7412
  315MOL0     O43363  11.105   8.837   0.685 -0.3509  0.4040 -0.6690
  315MOL0     C43364  11.131   8.953   0.617  0.9086 -0.9353 -0.3727
  315MOL0     C43365  11.059   9.059   0.669  0.3148 -0.1417  0.6687
  315MOL0     C43366  11.059   9.183   0.608 -0.5067  0.0822 -0.1827
  315MOL0     C43367  11.145   9.207   0.498  0.2462  0.9833 -0.9056
  315MOL0     O43368  11.149   9.332   0.453 -0.3854 -0.3186  0.1728
  315MOL0     C43369  11.245   9.361   0.358  0.1457  0.0404  1.1481
  315MOL0     C43370  11.254   9.512   0.351 -1.2962 -0.0517 -0.8377
  315MOL0     C43371  11.372   9.560   0.265  0.5632 -0.1134 -0.0340
  315MOL0     C43372  11.364   9.537   0.112  0.5525 -0.1309 -0.7381
  315MOL0     C43373  11.508   9.542   0.063  0.6844 -0.7352 -0.5156
  315MOL0     C43374  11.522   9.584  -0.086 -0.6988 -0.7273 -0.2839
  315MOL0     C43375  11.506   9.744  -0.104 -0.8635 -1.4451 -0.6054
  315MOL0     C43376  11.536   9.785  -0.254  0.3240  0.3235 -1.1036
  315MOL0    Cl43377  11.701   9.753  -0.304 -0.3359 -0.4175 -0.0812
  315MOL0     C43378  11.212   9.096   0.433  0.2400  0.5327  0.3573
  315MOL0     C43379  11.199   8.967   0.491  0.4252 -0.3962 -0.7224
  315MOL0     O43380  11.325   8.779   0.701  0.2298 -0.1020  0.3211
  315MOL0     C43381  11.065   8.616   0.865  0.0897  0.8961  0.7117
  315MOL0     C43382  11.050   8.530   0.973 -0.2429 -0.0332 -0.5244
  315MOL0     N43383  10.675   7.885   0.962 -0.7373 -0.4320  0.1957
  315MOL0     N43384  10.608   7.777   0.996 -1.1417  0.1739 -0.3025
  315MOL0     C43385  10.135   7.129   1.481  0.5891 -0.5157 -0.0158
  315MOL0     C43386  10.095   7.174   1.604 -0.7581 -0.0308 -0.2747
  315MOL0     C43387  10.044   7.192   2.067  0.1686 -0.5487  0.2665
  315MOL0     C43388  10.020   7.325   2.047  0.0970 -1.2419  0.6192
  315MOL0     C43389   9.985   7.405   2.155  0.6418 -0.6685  0.1007
  315MOL0     C43390   9.966   7.353   2.280  0.3058  0.3139 -0.8997
  315MOL0     O43391   9.905   7.429   2.382  0.7790  0.7534  0.4061
  315MOL0     C43392   9.963   7.554   2.419 -0.0446  0.5237 -0.5710
  315MOL0     C43393   9.871   7.626   2.516  1.0572 -0.6205  0.2393
  315MOL0     C43394   9.816   7.559   2.638  0.1147 -0.8225 -0.2416
  315MOL0     C43395   9.690   7.628   2.693  0.5068 -1.3063 -0.3069
  315MOL0     C43396   9.636   7.559   2.816  1.0651 -1.4423  0.5264
  315MOL0     C43397   9.621   7.490   2.913 -0.0958  0.6526  0.6134
  315MOL0     C43398   9.985   7.210   2.299 -0.3166 -0.0885  0.5306
  315MOL0     C43399  10.025   7.127   2.194 -0.0602 -0.7093 -0.6394
  315MOL0     C43400  10.040   6.980   2.233 -0.0923  0.4866  0.3773
  315MOL0     H43401  10.335   7.027   1.791  1.9997  1.4381 -0.6438
  315MOL0     H43402  10.400   6.941   1.575  0.4864 -0.3281  2.7269
  315MOL0     H43403  10.306   7.217   1.271 -0.1479  0.1975 -1.1538
  315MOL0     H43404  10.194   7.109   1.178  0.2411  1.6134 -1.2753
  315MOL0     H43405  10.502   7.081   1.179  0.1763 -0.0258  1.4105
  315MOL0     H43406  10.383   6.994   1.084  1.2215 -0.5942  0.5654
  315MOL0     H43407  10.315   7.212   0.969  0.0662 -2.5239 -1.0884
  315MOL0     H43408  10.409   7.298   1.107  1.3160  0.5303 -0.0406
  315MOL0     H43409  10.615   7.179   1.016 -1.1182  0.3838  1.6958
  315MOL0     H43410  10.521   7.124   0.880  1.2106 -0.4484  0.7630
  315MOL0     H43411  10.455   7.349   0.820  2.3374  0.8515 -0.7689
  315MOL0     H43412  10.625   7.327   0.814 -0.5431 -5.3285 -0.3068
  315MOL0     H43413  10.594   7.548   0.904 -2.2013  1.4551  0.0136
  315MOL0     H43414  10.454   7.498   0.990  0.3396  0.1643 -0.2772
  315MOL0     H43415  10.743   7.433   1.043  0.6062  1.0783  0.9721
  315MOL0     H43416  10.614   7.374   1.138  0.1341 -1.0173 -0.6028
  315MOL0     H43417  10.531   7.602   1.175  1.2328  0.5558  3.9158
  315MOL0     H43418  10.681   7.572   1.259  0.4332 -1.1343 -0.1985
  315MOL0     H43419  10.888   7.746   1.158  0.2826  2.6421  0.7339
  315MOL0     H43420  10.851   8.091   1.031 -1.0865 -0.1994 -0.0331
  315MOL0     H43421  10.977   7.983   0.970  0.1659 -1.1254  0.7560
  315MOL0     H43422  10.903   8.016   1.265 -1.1807  3.7651 -1.0214
  315MOL0     H43423  11.056   7.955   1.194  0.6700  1.1501  3.5546
  315MOL0     H43424  10.933   8.234   1.225  1.0552 -0.5082  5.1861
  315MOL0     H43425  11.081   8.191   1.284  0.4786  2.6986 -1.3536
  315MOL0     H43426  11.168   8.163   1.036  0.8009  3.4505 -2.4377
  315MOL0     H43427  11.014   8.227   0.994 -1.0594  2.8964  0.7974
  315MOL0     H43428  11.331   8.343   0.945  1.7287  2.8851  2.2302
  315MOL0     H43429  11.362   8.420   0.644  1.0573  2.4939 -1.3243
  315MOL0     H43430  11.484   8.439   0.774 -1.0305  0.5997  2.8530
  315MOL0     H43431  11.432   8.582   0.671 -0.0856  1.1987  0.3403
  315MOL0     H43432  11.004   9.034   0.759  1.8749 -1.2922  1.3616
  315MOL0     H43433  11.000   9.255   0.664 -1.9746  0.6680 -2.3462
  315MOL0     H43434  11.344   9.319   0.375  1.3181  2.9203  1.9841
  315MOL0     H43435  11.213   9.326   0.259 -1.4502  4.0324  0.0599
  315MOL0     H43436  11.161   9.554   0.310 -0.6150  1.3958 -0.9702
  315MOL0     H43437  11.261   9.549   0.454 -1.0906  0.6644 -1.1021
  315MOL0     H43438  11.462   9.507   0.298  1.1119  3.1393  4.6501
  315MOL0     H43439  11.389   9.667   0.276 -0.9081  0.1454 -0.0795
  315MOL0     H43440  11.301   9.614   0.066  0.1834  1.3481  2.0538
  315MOL0     H43441  11.322   9.441   0.080 -1.6697  1.4976 -3.2168
  315MOL0     H43442  11.562   9.622   0.115  0.4936 -0.5685 -0.5731
  315MOL0     H43443  11.563   9.451   0.088  0.3492 -0.3096  2.0333
  315MOL0     H43444  11.441   9.536  -0.141 -3.1801 -0.9141  3.1562
  315MOL0     H43445  11.620   9.549  -0.120 -0.4744  2.0008 -2.8305
  315MOL0     H43446  11.588   9.785  -0.044  0.2259 -0.1874 -2.7911
  315MOL0     H43447  11.415   9.795  -0.072 -1.1759 -0.2379 -3.1436
  315MOL0     H43448  11.519   9.893  -0.259  0.3442  0.3309 -1.0055
  315MOL0     H43449  11.460   9.737  -0.318 -1.1454  2.9448 -1.4782
  315MOL0     H43450  11.268   9.104   0.341  0.9217  1.5495  0.8369
  315MOL0     H43451  11.239   8.878   0.443  0.0015 -0.3985 -1.0834
  315MOL0     H43452  10.979   8.680   0.847 -0.5545  1.3946  4.6448
  315MOL0     H43453  10.958   8.526   1.030  1.1488  0.6680  1.9066
  315MOL0     H43454  10.078   7.158   1.393  1.0009 -2.5764 -1.0280
  315MOL0     H43455  10.005   7.233   1.614 -1.9589 -1.8605  0.1699
  315MOL0     H43456  10.025   7.375   1.951 -2.8334  1.9635  1.9067
  315MOL0     H43457   9.965   7.507   2.124 -2.7490 -1.7184 -1.6148
  315MOL0     H43458  10.060   7.539   2.468 -1.1389  0.7443  1.7945
  315MOL0     H43459   9.986   7.604   2.324  2.6603 -0.4993 -0.5618
  315MOL0     H43460   9.782   7.656   2.460 -0.1000 -1.5215  1.5340
  315MOL0     H43461   9.930   7.711   2.551  3.5740 -1.1854 -2.2233
  315MOL0     H43462   9.775   7.464   2.604 -0.8508 -0.0306 -1.3651
  315MOL0     H43463   9.887   7.549   2.721 -1.5233 -1.7341  1.1228
  315MOL0     H43464   9.619   7.627   2.609 -2.4439  2.3704  1.8375
  315MOL0     H43465   9.720   7.731   2.714  1.8873 -0.8887 -3.7045
  315MOL0     H43466   9.593   7.440   3.004 -2.0754  1.6229  0.5832
  315MOL0     H43467   9.962   7.168   2.396 -2.7402  1.4362  0.6852
  315MOL0     H43468   9.948   6.921   2.230  0.3186 -0.1483 -0.2399
  315MOL0     H43469  10.109   6.927   2.166 -1.4911  0.5598 -1.1897
  315MOL0     H43470  10.086   6.976   2.332  1.5880  3.1689 -0.1949
  316MOL0     O43471  10.134   7.654   2.913  0.2404  0.5896 -0.5123
  316MOL0     C43472  10.135   7.659   2.793 -0.2361 -0.4922 -0.4064
  316MOL0     O43473  10.185   7.573   2.700  0.4082 -0.1569 -1.1490
  316MOL0     C43474  10.208   7.447   2.752 -0.3248 -0.2329  1.1460
  316MOL0     C43475  10.119   7.348   2.713 -0.8733 -0.2890 -0.5232
  316MOL0     C43476  10.113   7.223   2.775 -0.4969 -0.9398  0.1086
  316MOL0     C43477  10.216   7.194   2.879 -0.5343 -1.3299  0.2219
  316MOL0     O43478  10.217   7.075   2.952  0.1599 -0.2446  0.2931
  316MOL0     C43479  10.229   6.947   2.887  0.6699 -1.0629 -0.3748
  316MOL0     C43480  10.360   6.933   2.806 -0.1608  0.3575 -0.5575
  316MOL0     C43481  10.387   6.788   2.756  0.1195 -0.4911 -0.0674
  316MOL0     C43482  10.473   6.782   2.626 -0.0346 -0.7492 -0.2107
  316MOL0     C43483  10.521   6.638   2.605 -0.6352  0.0728 -0.5407
  316MOL0     C43484  10.598   6.629   2.471  0.4667 -0.2545 -0.6119
  316MOL0     C43485  10.534   6.670   2.342 -0.0314 -0.5505  0.7396
  316MOL0     C43486  10.622   6.649   2.214 -0.2900  0.9487 -0.2799
  316MOL0     N43487  10.555   6.676   2.091  0.2498  0.0646  0.7125
  316MOL0     C43488  10.470   6.589   2.022  0.0605 -0.1525  0.1854
  316MOL0     C43489  10.444   6.654   1.907 -0.0011 -0.2605  0.4214
  316MOL0     C43490  10.329   6.597   1.826  0.2559  0.6201  0.5381
  316MOL0     C43491  10.224   6.711   1.785 -0.0422  0.1816 -0.0546
  316MOL0     C43492  10.102   6.660   1.709  0.7610 -0.1682 -0.2283
  316MOL0     C43493  10.004   6.577   1.791  0.5674 -0.5907 -0.1481
  316MOL0     O43494   9.971   6.659   1.899 -0.2524  0.5768 -0.7421
  316MOL0     C43495   9.862   6.629   1.976  0.8587 -1.0836  0.0551
  316MOL0     C43496   9.793   6.512   1.969 -0.4437 -0.4434 -0.8755
  316MOL0     C43497   9.698   6.486   2.064  0.2435 -0.3446  0.5172
  316MOL0     C43498   9.628   6.351   2.045  1.3309 -0.7171  0.4279
  316MOL0     C43499   9.641   6.590   2.144  0.4598 -0.5337 -0.5533
  316MOL0     C43500   9.520   6.576   2.230 -0.5526  0.7167 -0.9522
  316MOL0     O43501   9.508   6.454   2.289 -1.1207  0.1800 -0.2580
  316MOL0     C43502   9.413   6.440   2.387  0.3808  0.0624 -0.0778
  316MOL0     C43503   9.302   6.376   2.336 -0.4455  0.5249 -0.3944
  316MOL0     C43504   9.191   6.358   2.417 -0.1767 -0.1244  0.0255
  316MOL0     C43505   9.188   6.423   2.544 -0.7413 -0.7861 -0.0568
  316MOL0     O43506   9.070   6.429   2.613 -0.0405  0.7403  0.4268
  316MOL0     C43507   9.078   6.394   2.749  0.7464  0.3150 -0.6774
  316MOL0     C43508   8.943   6.355   2.813  1.2887  0.4678 -0.0671
  316MOL0     C43509   8.925   6.350   2.963 -1.2107  0.7577 -0.6198
  316MOL0     C43510   8.817   6.258   3.007  0.0285 -0.0411  0.6104
  316MOL0     C43511   8.793   6.262   3.156 -0.1664  0.2653 -1.0000
  316MOL0     C43512   8.701   6.147   3.191  0.2470 -0.1104 -0.5426
  316MOL0     C43513   8.654   6.138   3.339 -0.2150 -0.0794 -0.3334
  316MOL0     C43514   8.546   6.042   3.348  0.6553  0.8364 -0.3292
  316MOL0    Cl43515   8.407   6.089   3.246  0.5438  0.0459 -0.2939
  316MOL0     C43516   9.301   6.488   2.593  0.1599 -0.3313 -0.0936
  316MOL0     C43517   9.422   6.498   2.516  0.2672 -0.4508  0.0095
  316MOL0     O43518   9.452   6.671   2.264 -0.1476  0.0312 -0.3459
  316MOL0     C43519   9.712   6.711   2.147 -0.4214 -1.0388 -0.2148
  316MOL0     C43520   9.826   6.727   2.070  0.3940  0.2499  0.7408
  316MOL0     N43521  10.500   6.780   1.906  0.4773  0.1085  0.0730
  316MOL0     N43522  10.563   6.792   2.019 -0.3237 -0.1152  0.0900
  316MOL0     C43523  10.315   7.299   2.908 -0.4564  1.2463 -0.5622
  316MOL0     C43524  10.314   7.419   2.845 -0.0379  0.1828 -0.3269
  316MOL0     C43525  10.087   7.789   2.729  0.3425  0.1284  0.2722
  316MOL0     C43526  10.154   7.834   2.616 -1.0563  0.3690  0.1083
  316MOL0     C43527  10.169   7.964   2.569  0.5127  0.1818 -0.2572
  316MOL0     C43528  10.083   8.057   2.623 -0.1656 -0.3810  0.3987
  316MOL0     O43529  10.090   8.185   2.568  0.3587  0.5039 -0.6121
  316MOL0     C43530  10.050   8.297   2.648 -0.1907 -0.0038  0.3275
  316MOL0     C43531  10.069   8.426   2.576 -0.0256 -0.4600  0.6079
  316MOL0     C43532  10.086   8.536   2.680  0.3882  1.0757  0.0320
  316MOL0     C43533  10.094   8.671   2.623 -0.6933 -1.7399  0.6462
  316MOL0     C43534  10.096   8.775   2.731 -0.0338  0.4569  1.4044
  316MOL0     C43535  10.088   8.846   2.829  0.7062 -0.0107  0.3478
  316MOL0     C43536   9.989   8.011   2.713 -0.8226 -0.2337 -0.4583
  316MOL0     C43537   9.992   7.880   2.772  0.1416 -0.1270  0.6322
  316MOL0     C43538   9.911   7.855   2.896  0.1015  0.4889  0.1808
  316MOL0     H43539  10.053   7.366   2.629  1.8999 -0.2464 -2.8258
  316MOL0     H43540  10.055   7.143   2.730  0.3645 -1.6145  0.1593
  316MOL0     H43541  10.145   6.933   2.819 -0.4630 -3.3158  1.3465
  316MOL0     H43542  10.208   6.870   2.962 -0.6896  0.4306  0.8555
  316MOL0     H43543  10.368   6.996   2.716 -0.3430  0.5521 -0.4389
  316MOL0     H43544  10.443   6.948   2.875  2.4051  0.2216 -3.4112
  316MOL0     H43545  10.425   6.731   2.842  0.7517  0.1949  0.1164
  316MOL0     H43546  10.288   6.746   2.735  0.8311 -1.7247 -1.0741
  316MOL0     H43547  10.420   6.822   2.539  3.5343  0.9666 -1.8148
  316MOL0     H43548  10.557   6.848   2.646 -1.2429  0.2527  1.9300
  316MOL0     H43549  10.431   6.576   2.614  1.1324 -2.4393  1.0584
  316MOL0     H43550  10.581   6.612   2.692 -2.3328 -3.9921 -0.3467
  316MOL0     H43551  10.684   6.694   2.491  0.2266  0.9299 -3.0852
  316MOL0     H43552  10.638   6.529   2.457  1.0472  0.0008 -0.7904
  316MOL0     H43553  10.499   6.774   2.344 -2.3452 -1.2379 -0.5764
  316MOL0     H43554  10.440   6.617   2.327  0.5102 -1.3785  0.1089
  316MOL0     H43555  10.707   6.716   2.198 -0.3339  0.7228 -1.5763
  316MOL0     H43556  10.663   6.548   2.221  0.3047  1.0714 -1.5940
  316MOL0     H43557  10.421   6.497   2.052 -3.5899  1.5175 -0.0070
  316MOL0     H43558  10.284   6.514   1.881  0.8454 -1.4545 -1.9310
  316MOL0     H43559  10.384   6.556   1.741 -1.1117  1.2575 -0.7178
  316MOL0     H43560  10.208   6.770   1.876  2.4663  3.3736 -1.4900
  316MOL0     H43561  10.268   6.794   1.729  0.1431 -0.3477 -0.7107
  316MOL0     H43562  10.047   6.746   1.671  1.8999  0.6200 -0.1435
  316MOL0     H43563  10.134   6.603   1.621 -0.8081 -0.8925 -0.3640
  316MOL0     H43564   9.915   6.553   1.731  0.4180  2.9612 -1.6002
  316MOL0     H43565  10.060   6.487   1.817  0.8635 -0.3200  0.1693
  316MOL0     H43566   9.832   6.435   1.902  3.1825 -0.3075  0.8159
  316MOL0     H43567   9.663   6.296   1.958 -1.7201  0.4073 -1.6685
  316MOL0     H43568   9.521   6.376   2.043  1.4054 -0.1966  1.6761
  316MOL0     H43569   9.648   6.298   2.139  0.9456  0.7503  1.3681
  316MOL0     H43570   9.301   6.332   2.237  2.8328  3.4609 -1.9595
  316MOL0     H43571   9.100   6.308   2.385 -0.8713  0.7398  0.5933
  316MOL0     H43572   9.146   6.311   2.770 -1.2657 -1.2047  0.2075
  316MOL0     H43573   9.124   6.477   2.804  0.6976 -0.6289  0.8629
  316MOL0     H43574   8.876   6.434   2.776 -0.3909  0.0732  1.9551
  316MOL0     H43575   8.902   6.262   2.773 -1.7710  1.9238 -0.6374
  316MOL0     H43576   8.924   6.453   3.000 -0.0853  0.4128  0.4356
  316MOL0     H43577   9.022   6.308   2.993 -1.3887 -0.4978 -1.7073
  316MOL0     H43578   8.835   6.154   2.979 -0.5468  0.6161 -2.4634
  316MOL0     H43579   8.720   6.284   2.963  1.1189 -0.8934 -2.4789
  316MOL0     H43580   8.883   6.250   3.218 -1.1924 -5.3707 -0.0827
  316MOL0     H43581   8.748   6.358   3.183 -2.1792 -1.3107  1.7057
  316MOL0     H43582   8.752   6.052   3.174  2.3644  0.6063  1.2921
  316MOL0     H43583   8.617   6.153   3.122  1.4854  1.7767 -1.9955
  316MOL0     H43584   8.623   6.234   3.381  1.3593  0.4345 -0.3034
  316MOL0     H43585   8.737   6.105   3.402 -1.4727 -1.7871  0.5007
  316MOL0     H43586   8.515   6.033   3.453 -1.8669  0.9778 -0.9964
  316MOL0     H43587   8.577   5.942   3.316 -1.8037 -0.1169  0.0786
  316MOL0     H43588   9.302   6.543   2.687 -0.1392  1.4419 -1.0724
  316MOL0     H43589   9.511   6.547   2.554 -0.2033 -1.3647  2.4330
  316MOL0     H43590   9.682   6.796   2.207 -1.5742 -0.9028 -0.9497
  316MOL0     H43591   9.878   6.822   2.079  4.2304 -1.5285 -0.8421
  316MOL0     H43592  10.387   7.292   2.988 -1.5845  2.0977  0.5645
  316MOL0     H43593  10.386   7.497   2.871  1.6933 -1.2499 -0.6401
  316MOL0     H43594  10.224   7.770   2.563 -1.9638 -1.8786  1.4707
  316MOL0     H43595  10.221   7.998   2.479 -0.8209  4.2728  0.3428
  316MOL0     H43596   9.944   8.290   2.677 -0.2562  2.0627  0.7770
  316MOL0     H43597  10.112   8.291   2.738  1.6452  0.0968 -0.8950
  316MOL0     H43598   9.979   8.458   2.523 -0.0883  0.1636  1.0787
  316MOL0     H43599  10.154   8.414   2.509  0.2062 -1.2800  1.0275
  316MOL0     H43600   9.997   8.528   2.744  0.9218 -2.5298  0.5133
  316MOL0     H43601  10.176   8.515   2.739 -1.3332 -0.7162  2.2339
  316MOL0     H43602  10.009   8.689   2.556 -0.1447  2.7681  0.9031
  316MOL0     H43603  10.189   8.684   2.571  0.5299 -4.9006  1.8407
  316MOL0     H43604  10.065   8.915   2.907 -1.8767 -2.1403  1.6567
  316MOL0     H43605   9.912   8.079   2.747  2.0732  1.6934  2.9177
  316MOL0     H43606   9.824   7.921   2.905 -1.2639 -1.0915 -0.8240
  316MOL0     H43607   9.886   7.748   2.901  1.0664  0.2567  0.1457
  316MOL0     H43608   9.970   7.869   2.987 -0.9375  0.5058  0.8776
  317MOL0     O43609  10.070   2.041   9.429 -0.2861 -0.2427  0.2725
  317MOL0     C43610  10.112   2.125   9.509 -0.3093  0.0963  0.0490
  317MOL0     O43611  10.116   2.253   9.497  0.4894  0.2513 -0.0765
  317MOL0     C43612  10.117   2.296   9.371  1.0469  0.1890  0.1262
  317MOL0     C43613  10.003   2.320   9.292 -0.7597  0.0772 -0.0808
  317MOL0     C43614  10.010   2.363   9.163  0.0993 -0.2927 -0.4697
  317MOL0     C43615  10.126   2.375   9.091  0.7710  0.8314 -0.2171
  317MOL0     O43616  10.147   2.423   8.966 -0.0420 -0.2977  0.0984
  317MOL0     C43617  10.042   2.445   8.883  0.2258  0.3571  0.3053
  317MOL0     C43618  10.080   2.468   8.735  0.7056  0.1964  0.2498
  317MOL0     C43619  10.200   2.569   8.716  0.4115  1.0222  0.0034
  317MOL0     C43620  10.182   2.697   8.788  0.1823 -0.3534  0.2051
  317MOL0     C43621  10.306   2.798   8.780  0.3470 -0.2151 -0.0943
  317MOL0     C43622  10.355   2.828   8.634  0.3721 -0.1361 -1.3103
  317MOL0     C43623  10.480   2.917   8.644 -0.0512  0.0304  0.0615
  317MOL0     C43624  10.512   2.971   8.497  0.2618 -0.6798 -1.0760
  317MOL0     N43625  10.618   3.067   8.516 -0.1857 -0.9833  0.1099
  317MOL0     C43626  10.752   3.038   8.487 -0.6889 -0.4168  0.8078
  317MOL0     C43627  10.812   3.127   8.568 -0.0451 -0.8153  0.4955
  317MOL0     C43628  10.962   3.134   8.581 -0.9797  0.7035  0.4854
  317MOL0     C43629  11.036   3.072   8.700  0.0571 -0.0970  0.7539
  317MOL0     C43630  11.002   2.928   8.724 -0.1517  0.5029  0.6277
  317MOL0     C43631  10.893   2.924   8.829 -0.9400  0.6849  0.7815
  317MOL0     O43632  10.857   2.784   8.835 -0.9354  0.0078 -0.2893
  317MOL0     C43633  10.754   2.760   8.916 -0.1613 -0.0090 -0.7736
  317MOL0     C43634  10.740   2.627   8.955 -0.0357  0.0926  0.4452
  317MOL0     C43635  10.647   2.591   9.047 -0.0975 -0.9850  0.7583
  317MOL0     C43636  10.638   2.449   9.080  0.6492  0.4516 -0.2975
  317MOL0     C43637  10.556   2.689   9.097 -0.0485 -0.5230  0.2230
  317MOL0     C43638  10.462   2.676   9.203 -0.1265  0.1816 -0.0006
  317MOL0     O43639  10.354   2.762   9.213 -0.0869  0.4408  0.9259
  317MOL0     C43640  10.281   2.751   9.325  0.4918 -0.4243 -0.6102
  317MOL0     C43641  10.329   2.807   9.447  0.7169 -0.0166  0.5794
  317MOL0     C43642  10.244   2.817   9.554  0.3549 -0.9335 -1.1507
  317MOL0     C43643  10.112   2.779   9.556  0.9300 -0.3518 -0.3493
  317MOL0     O43644  10.045   2.785   9.672  0.5920 -0.2628 -0.1044
  317MOL0     C43645   9.933   2.876   9.687  0.1652 -0.2059  0.4451
  317MOL0     C43646   9.904   2.912   9.848  0.3870  0.0641  0.4847
  317MOL0     C43647   9.994   3.017   9.897  0.7914 -0.4098 -0.0041
  317MOL0     C43648  10.134   2.960   9.939 -1.0101  0.3230  0.4606
  317MOL0     C43649  10.228   3.077   9.948 -0.6388  0.8042  0.1986
  317MOL0     C43650  10.262   3.132   9.814 -0.4324 -0.0929  0.1833
  317MOL0     C43651  10.397   3.206   9.810  0.1493  0.1625 -0.0002
  317MOL0     C43652  10.415   3.300   9.700  0.9437 -0.4770  0.1092
  317MOL0    Cl43653  10.396   3.220   9.540 -0.2448 -0.1399 -0.4882
  317MOL0     C43654  10.066   2.731   9.430 -0.1185  0.0569 -0.3067
  317MOL0     C43655  10.151   2.699   9.323  0.3581  0.8607 -0.6166
  317MOL0     O43656  10.485   2.585   9.281  0.1530 -0.1624  0.5265
  317MOL0     C43657  10.567   2.821   9.044 -0.3906 -0.4984  0.9311
  317MOL0     C43658  10.667   2.856   8.953 -0.1720 -0.2264 -0.4174
  317MOL0     N43659  10.714   3.205   8.628  0.0434 -0.3295  0.2468
  317MOL0     N43660  10.599   3.178   8.592  0.0743  1.0795  0.0020
  317MOL0     C43661  10.243   2.343   9.167  0.7102 -0.0716 -0.0242
  317MOL0     C43662  10.238   2.315   9.304 -0.6883 -0.2870  0.0386
  317MOL0     C43663  10.145   2.084   9.649  0.0703  0.3358 -0.0508
  317MOL0     C43664  10.077   2.148   9.753 -1.2562 -0.3549  1.2858
  317MOL0     C43665  10.083   2.097   9.889 -1.0117 -0.1978  0.3222
  317MOL0     C43666  10.163   1.982   9.907 -0.0894  1.5119  0.0251
  317MOL0     O43667  10.171   1.938  10.043  0.3046  0.5992 -0.1340
  317MOL0     C43668  10.136   1.801  10.068  0.1021 -0.0731 -0.3151
  317MOL0     C43669   9.986   1.790  10.057  1.1720  0.3953  0.2673
  317MOL0     C43670   9.901   1.881  10.153 -0.3626  1.0370  0.6136
  317MOL0     C43671   9.760   1.831  10.174  0.5615  1.1184  0.3645
  317MOL0     C43672   9.743   1.741  10.283  0.3368 -0.5430  0.6651
  317MOL0     C43673   9.745   1.651  10.368  0.8005 -0.1862 -0.0244
  317MOL0     C43674  10.230   1.930   9.807  0.0696 -0.0961 -0.0235
  317MOL0     C43675  10.219   1.972   9.675 -0.5192 -0.2763 -0.7034
  317MOL0     C43676  10.282   1.895   9.564  0.9499 -0.9053 -0.1844
  317MOL0     H43677   9.905   2.294   9.329 -1.0036 -0.8442 -1.2958
  317MOL0     H43678   9.922   2.389   9.105  1.4016  1.0492 -1.9464
  317MOL0     H43679   9.985   2.527   8.930  2.7528  0.7877  2.8844
  317MOL0     H43680   9.985   2.352   8.884  2.2936 -0.9940 -1.1396
  317MOL0     H43681  10.103   2.374   8.683  1.1322 -1.0813  2.5939
  317MOL0     H43682   9.988   2.499   8.685  0.9338 -1.3991 -1.2706
  317MOL0     H43683  10.298   2.526   8.739  0.4577  0.9448 -0.3390
  317MOL0     H43684  10.207   2.593   8.610  0.8431 -0.8362 -0.4174
  317MOL0     H43685  10.099   2.742   8.732 -1.4148 -1.8924  1.2212
  317MOL0     H43686  10.141   2.679   8.888 -1.1432 -0.1726 -0.2864
  317MOL0     H43687  10.384   2.757   8.844 -1.2009  4.4911  5.6281
  317MOL0     H43688  10.285   2.887   8.840 -1.0172 -1.0373  0.6760
  317MOL0     H43689  10.384   2.736   8.583  2.9966  0.4310 -0.9878
  317MOL0     H43690  10.271   2.878   8.583  1.6057  3.6351 -0.0072
  317MOL0     H43691  10.566   2.861   8.682  1.0605  0.5470 -1.5724
  317MOL0     H43692  10.454   3.004   8.705 -0.0069 -0.8871  1.4154
  317MOL0     H43693  10.557   2.891   8.437  0.2717 -2.6942  1.3971
  317MOL0     H43694  10.418   3.014   8.462  0.6448 -1.7671 -3.5959
  317MOL0     H43695  10.801   2.958   8.433  0.1602  1.8506 -2.0549
  317MOL0     H43696  10.996   3.238   8.576  0.2442  0.3621 -5.0854
  317MOL0     H43697  11.003   3.085   8.492  1.9533 -0.3205  2.2730
  317MOL0     H43698  11.142   3.070   8.674  0.1981  1.8386  1.0264
  317MOL0     H43699  11.036   3.131   8.792  6.5822  0.5340  0.8236
  317MOL0     H43700  10.960   2.877   8.637 -0.4469  1.2646  0.3187
  317MOL0     H43701  11.101   2.887   8.744  0.6456  1.6127 -0.8224
  317MOL0     H43702  10.912   2.966   8.928 -2.5428  4.7331 -0.3996
  317MOL0     H43703  10.818   2.997   8.796 -0.8898  1.7326  2.8140
  317MOL0     H43704  10.810   2.554   8.915  1.5480  2.7025 -1.8919
  317MOL0     H43705  10.687   2.380   9.010  0.5516 -1.9036  1.8313
  317MOL0     H43706  10.532   2.432   9.059  1.0293 -0.8035 -1.2978
  317MOL0     H43707  10.677   2.423   9.179 -0.3182 -1.7223 -0.4384
  317MOL0     H43708  10.433   2.836   9.452  0.3358  1.5090  0.0253
  317MOL0     H43709  10.296   2.841   9.646  1.7683 -1.9491 -1.6446
  317MOL0     H43710   9.940   2.969   9.631 -1.8245  0.7422  1.6394
  317MOL0     H43711   9.840   2.832   9.650 -0.7555  0.9641  1.2927
  317MOL0     H43712   9.803   2.953   9.863  0.9849  2.0695 -0.6229
  317MOL0     H43713   9.911   2.818   9.903  1.1240 -1.3547 -1.8681
  317MOL0     H43714   9.956   3.056   9.992 -2.1728 -1.6531 -0.5830
  317MOL0     H43715   9.989   3.097   9.822  0.7933  0.2261  0.6660
  317MOL0     H43716  10.180   2.891   9.868  0.5214  0.4826  1.2537
  317MOL0     H43717  10.132   2.905  10.033 -2.3936 -1.8976 -0.7680
  317MOL0     H43718  10.198   3.152  10.022 -2.6012  1.3159 -1.0494
  317MOL0     H43719  10.318   3.028   9.988 -0.6241 -0.5602 -1.3909
  317MOL0     H43720  10.182   3.199   9.781 -1.8654 -1.3148  1.0506
  317MOL0     H43721  10.260   3.048   9.744  0.5914  0.8698 -1.0568
  317MOL0     H43722  10.477   3.131   9.806  1.3767  0.9862  3.9101
  317MOL0     H43723  10.403   3.274   9.896 -0.6738 -1.2080  1.1931
  317MOL0     H43724  10.511   3.353   9.703  0.4823  0.4599 -1.0599
  317MOL0     H43725  10.338   3.376   9.714  0.1264 -1.5088  1.5374
  317MOL0     H43726   9.961   2.706   9.417  0.3165 -1.6183 -0.8060
  317MOL0     H43727  10.113   2.663   9.228  0.7598 -3.4776  0.6910
  317MOL0     H43728  10.494   2.897   9.068  0.2682  1.6283 -2.9537
  317MOL0     H43729  10.679   2.962   8.931 -2.4172 -0.2398 -2.0804
  317MOL0     H43730  10.341   2.362   9.124 -0.2920  0.2388 -2.3307
  317MOL0     H43731  10.323   2.286   9.365 -0.0062  1.6351  0.0532
  317MOL0     H43732  10.006   2.226   9.729  2.9911  2.8391 -2.6414
  317MOL0     H43733  10.028   2.122   9.980  0.5800  0.2722  1.1887
  317MOL0     H43734  10.193   1.745   9.994  0.3002 -1.7685  1.0248
  317MOL0     H43735  10.180   1.767  10.163  2.2849 -1.0421 -1.6134
  317MOL0     H43736   9.969   1.682  10.063  3.3222 -0.0021 -0.0438
  317MOL0     H43737   9.960   1.811   9.953 -3.0747  0.2590  1.1334
  317MOL0     H43738   9.932   1.892  10.257 -4.2963  0.0284  2.0510
  317MOL0     H43739   9.883   1.977  10.104 -2.9894  0.4463  0.3175
  317MOL0     H43740   9.725   1.776  10.086  2.0015  0.0961  0.4067
  317MOL0     H43741   9.701   1.920  10.197  2.4222  2.9651 -1.5573
  317MOL0     H43742   9.758   1.580  10.447  1.7753 -0.5383 -0.4773
  317MOL0     H43743  10.297   1.848   9.830  1.4237  1.1909  0.7918
  317MOL0     H43744  10.204   1.829   9.526 -1.1072 -0.7770  3.3595
  317MOL0     H43745  10.326   1.958   9.486  1.2003 -1.0656 -0.1742
  317MOL0     H43746  10.362   1.835   9.609 -0.5005 -4.7762 -2.3148
  318MOL0     O43747   5.886   7.431   6.963  0.0893  0.5124 -0.5617
  318MOL0     C43748   5.940   7.519   6.900 -0.0165 -0.1546  1.0364
  318MOL0     O43749   5.897   7.560   6.768 -1.5452  1.0735 -0.0458
  318MOL0     C43750   5.786   7.517   6.695  0.0310  0.2579 -1.1934
  318MOL0     C43751   5.696   7.407   6.732 -0.2306 -0.3942  0.4036
  318MOL0     C43752   5.605   7.361   6.641 -0.1955  1.1493  0.0078
  318MOL0     C43753   5.583   7.434   6.529 -0.1181  0.2487  0.3325
  318MOL0     O43754   5.501   7.388   6.430  0.1810  0.2999  0.5759
  318MOL0     C43755   5.388   7.480   6.421 -0.2427 -0.4315 -0.3838
  318MOL0     C43756   5.268   7.416   6.351  0.4294  0.3678 -0.4809
  318MOL0     C43757   5.171   7.343   6.456 -0.6907  0.3957  0.2442
  318MOL0     C43758   5.044   7.315   6.384  0.2994  0.4997  1.3878
  318MOL0     C43759   5.032   7.186   6.295  0.2170 -0.1872  0.3046
  318MOL0     C43760   4.900   7.189   6.202 -0.5395 -0.3599 -0.0461
  318MOL0     C43761   4.894   7.061   6.109  1.1534 -0.7582  0.5449
  318MOL0     C43762   4.903   6.946   6.206  0.0520  1.2303  0.0333
  318MOL0     N43763   4.873   6.814   6.139  0.1672  0.7578  0.4334
  318MOL0     C43764   4.740   6.769   6.131 -0.2128  0.6871 -0.5275
  318MOL0     C43765   4.742   6.653   6.058 -0.4843 -0.7240  0.4031
  318MOL0     C43766   4.610   6.585   6.030 -0.8550 -0.7133  0.1078
  318MOL0     C43767   4.629   6.464   5.948  0.3453  1.0126 -0.9890
  318MOL0     C43768   4.664   6.498   5.799  0.3116  0.3057  0.2764
  318MOL0     C43769   4.635   6.368   5.716 -0.1797  0.3450 -0.3948
  318MOL0     O43770   4.712   6.351   5.595  0.2791 -0.1156  0.7075
  318MOL0     C43771   4.675   6.260   5.506  0.2900 -0.3662 -0.1021
  318MOL0     C43772   4.757   6.254   5.401  0.5258 -0.3825  0.0646
  318MOL0     C43773   4.743   6.162   5.290 -0.2866 -0.0589 -0.1730
  318MOL0     C43774   4.853   6.162   5.192  0.2631 -0.3795  0.7522
  318MOL0     C43775   4.638   6.068   5.294 -0.5220 -0.7135 -0.5127
  318MOL0     C43776   4.614   5.968   5.186  0.0520 -0.0183 -0.3132
  318MOL0     O43777   4.509   5.890   5.225  0.1193 -0.2142  0.5586
  318MOL0     C43778   4.484   5.770   5.167  0.9971  0.4470  0.1089
  318MOL0     C43779   4.579   5.686   5.128 -1.0099  0.5631  0.5743
  318MOL0     C43780   4.550   5.563   5.072  0.3502 -0.2093  0.3156
  318MOL0     C43781   4.415   5.526   5.060 -0.1422 -0.0659 -0.9237
  318MOL0     O43782   4.382   5.402   5.012  0.7016  0.3852 -0.3221
  318MOL0     C43783   4.428   5.296   5.100  0.2224 -0.1771  0.8694
  318MOL0     C43784   4.349   5.172   5.091  0.8738 -0.0434 -0.2551
  318MOL0     C43785   4.404   5.067   5.185  0.1524  0.5527 -0.7826
  318MOL0     C43786   4.287   4.967   5.203 -0.0470 -0.4370 -0.4620
  318MOL0     C43787   4.315   4.836   5.280 -0.6570  0.0313  0.3529
  318MOL0     C43788   4.229   4.711   5.237  0.7002  0.7838  0.4848
  318MOL0     C43789   4.265   4.599   5.338  0.6116  1.0404 -0.5667
  318MOL0     C43790   4.335   4.474   5.270  0.2607  0.1200  0.8497
  318MOL0    Cl43791   4.506   4.498   5.230 -0.0720  0.0885 -0.0604
  318MOL0     C43792   4.315   5.612   5.103  0.5640  1.0893  0.3378
  318MOL0     C43793   4.346   5.740   5.156 -0.1332 -0.0230 -0.0180
  318MOL0     O43794   4.676   5.960   5.078 -0.0942 -1.2599 -0.0094
  318MOL0     C43795   4.549   6.073   5.407 -0.4371 -0.7830  0.0268
  318MOL0     C43796   4.564   6.170   5.511 -0.1142 -0.3275 -0.0839
  318MOL0     N43797   4.875   6.626   6.035 -0.9738  1.2611 -0.2304
  318MOL0     N43798   4.954   6.717   6.078 -0.4581  0.2124  0.3610
  318MOL0     C43799   5.662   7.544   6.489 -0.2314 -0.0719 -0.7702
  318MOL0     C43800   5.764   7.583   6.577  0.2921  0.4505  0.0865
  318MOL0     C43801   6.064   7.589   6.944  0.0283 -1.0621  0.6817
  318MOL0     C43802   6.162   7.615   6.847 -0.5238  1.1739  0.3597
  318MOL0     C43803   6.297   7.647   6.875 -0.1075  0.1800 -0.4351
  318MOL0     C43804   6.327   7.663   7.013  0.5210  0.0499 -0.2978
  318MOL0     O43805   6.452   7.704   7.061  0.4776  0.4133  1.1458
  318MOL0     C43806   6.538   7.747   6.946  0.6677 -0.5135 -0.4169
  318MOL0     C43807   6.655   7.833   7.001 -0.0358  0.2832  0.1375
  318MOL0     C43808   6.774   7.831   6.908 -0.0151  0.3989 -0.1824
  318MOL0     C43809   6.890   7.928   6.943 -0.0946  0.2581 -0.8162
  318MOL0     C43810   6.962   7.890   7.066  0.5036 -0.5206 -0.4586
  318MOL0     C43811   7.027   7.850   7.160 -0.0990 -0.3227  0.0727
  318MOL0     C43812   6.225   7.647   7.105 -0.3019  0.1435  0.3113
  318MOL0     C43813   6.092   7.619   7.077 -0.1211  0.0931  0.3820
  318MOL0     C43814   6.006   7.587   7.205  0.9320 -0.6339 -0.2055
  318MOL0     H43815   5.720   7.355   6.824 -0.2906 -2.1119 -0.5226
  318MOL0     H43816   5.540   7.277   6.664 -1.6494  2.7267  1.9574
  318MOL0     H43817   5.420   7.572   6.371 -1.6708  0.3981  0.1866
  318MOL0     H43818   5.366   7.515   6.522 -1.1806 -0.6701 -0.4991
  318MOL0     H43819   5.211   7.499   6.308  2.5120  1.4358 -1.3006
  318MOL0     H43820   5.291   7.346   6.270  0.2868  1.1776 -1.2374
  318MOL0     H43821   5.217   7.258   6.506 -0.7158 -0.7495 -1.5979
  318MOL0     H43822   5.154   7.406   6.544  0.9630 -0.9806  1.6178
  318MOL0     H43823   4.981   7.297   6.471 -0.2552 -3.0330  0.4164
  318MOL0     H43824   5.016   7.402   6.323  0.9218  0.5713  1.1984
  318MOL0     H43825   5.031   7.094   6.354 -1.7751 -0.5753 -0.2351
  318MOL0     H43826   5.121   7.169   6.234 -0.0532 -2.5419  0.4610
  318MOL0     H43827   4.808   7.205   6.258  0.0323 -0.8891  1.0809
  318MOL0     H43828   4.905   7.282   6.144  2.3237 -1.0867 -1.1275
  318MOL0     H43829   4.967   7.041   6.031 -1.5162 -4.7647 -1.2768
  318MOL0     H43830   4.803   7.056   6.048  0.7953 -1.0851  1.0958
  318MOL0     H43831   5.006   6.926   6.237 -0.2181  0.0452  0.2279
  318MOL0     H43832   4.843   6.947   6.297  0.8917  4.0102  0.6536
  318MOL0     H43833   4.652   6.811   6.176 -2.7151 -5.5142  1.4725
  318MOL0     H43834   4.536   6.650   5.982 -3.2385 -1.8425  2.0454
  318MOL0     H43835   4.569   6.576   6.130  0.6414 -0.1071  0.8123
  318MOL0     H43836   4.709   6.411   6.000  1.2286  0.9421 -2.3735
  318MOL0     H43837   4.535   6.407   5.951 -0.1102  1.7821  0.5502
  318MOL0     H43838   4.596   6.578   5.768  0.9750  1.3671  1.4352
  318MOL0     H43839   4.769   6.525   5.780  0.8586 -1.7864  0.0350
  318MOL0     H43840   4.676   6.290   5.781  5.2074  3.4960  0.6580
  318MOL0     H43841   4.528   6.352   5.702 -0.3448  1.4368 -0.4638
  318MOL0     H43842   4.849   6.311   5.392  0.5100 -0.4237 -0.3680
  318MOL0     H43843   4.926   6.084   5.215 -0.4466 -1.2291  0.2199
  318MOL0     H43844   4.895   6.262   5.178 -1.3420  0.2274  0.0020
  318MOL0     H43845   4.799   6.144   5.098  1.8582 -0.9111 -0.1037
  318MOL0     H43846   4.683   5.717   5.132 -1.4679  2.0909  1.4336
  318MOL0     H43847   4.623   5.497   5.027  0.5681  0.2796 -0.0614
  318MOL0     H43848   4.531   5.268   5.077  0.6495  0.8616  1.4627
  318MOL0     H43849   4.425   5.333   5.203  3.1283  0.4833  0.7928
  318MOL0     H43850   4.242   5.192   5.100  1.3061  1.9272  1.1433
  318MOL0     H43851   4.362   5.139   4.988 -2.8623  1.7076 -1.4685
  318MOL0     H43852   4.444   5.094   5.283 -0.8242  0.1311 -0.2531
  318MOL0     H43853   4.481   5.002   5.141  0.0594 -0.6271  0.6986
  318MOL0     H43854   4.247   4.934   5.107  0.9368  0.2248 -1.1199
  318MOL0     H43855   4.206   5.026   5.247  0.3018  0.7257 -1.3377
  318MOL0     H43856   4.418   4.809   5.255 -0.7141  0.2611 -0.1334
  318MOL0     H43857   4.334   4.856   5.386  0.5633  1.1622 -0.0507
  318MOL0     H43858   4.270   4.704   5.135  0.6819  1.2928  0.4366
  318MOL0     H43859   4.121   4.727   5.243  0.3652 -1.5776  1.9343
  318MOL0     H43860   4.169   4.562   5.375  0.7714  1.9202  0.7836
  318MOL0     H43861   4.324   4.629   5.425 -0.3756  3.3387 -0.6208
  318MOL0     H43862   4.272   4.443   5.186 -0.8019  0.7567  1.3956
  318MOL0     H43863   4.331   4.388   5.337 -1.6174 -0.3247  0.2287
  318MOL0     H43864   4.214   5.575   5.091  0.0352  2.6349 -0.1367
  318MOL0     H43865   4.286   5.813   5.209  1.1589 -0.4956  2.2525
  318MOL0     H43866   4.469   6.002   5.425  0.9682 -2.1417  1.2548
  318MOL0     H43867   4.489   6.168   5.589 -2.1840 -0.6691 -1.9809
  318MOL0     H43868   5.651   7.586   6.390  0.1637  0.4672 -0.5966
  318MOL0     H43869   5.826   7.664   6.541  3.9025 -1.3846  1.5812
  318MOL0     H43870   6.125   7.612   6.744  0.5732 -0.0857 -0.0284
  318MOL0     H43871   6.378   7.651   6.803  2.1753  0.8281  1.9973
  318MOL0     H43872   6.580   7.664   6.889  0.5276  0.2095 -1.6049
  318MOL0     H43873   6.486   7.809   6.873  0.4241 -1.8953 -1.4407
  318MOL0     H43874   6.680   7.796   7.101 -3.6753 -0.2242  1.0229
  318MOL0     H43875   6.625   7.938   7.012 -0.1770  0.3374 -0.6850
  318MOL0     H43876   6.812   7.728   6.902  0.1385  0.4647 -0.3267
  318MOL0     H43877   6.749   7.864   6.806 -0.4442  0.9325  0.0890
  318MOL0     H43878   6.859   8.033   6.950  2.4790  1.0176  0.3901
  318MOL0     H43879   6.953   7.922   6.854  0.1043 -0.7903 -0.6180
  318MOL0     H43880   7.079   7.822   7.249  1.4036  0.2632 -0.5804
  318MOL0     H43881   6.256   7.643   7.209  0.2645  0.1943  0.1517
  318MOL0     H43882   5.984   7.480   7.213  1.2471 -0.5492  3.0160
  318MOL0     H43883   6.058   7.613   7.298 -1.8231  0.0060  1.2774
  318MOL0     H43884   5.923   7.657   7.216  0.6849 -0.8159 -0.8874
  319MOL0     O43885   2.317   1.048   6.546  0.3874  0.4498 -0.3570
  319MOL0     C43886   2.228   0.984   6.610  0.0647  0.5044  0.0743
  319MOL0     O43887   2.254   0.892   6.705  0.0886 -0.1758  0.3157
  319MOL0     C43888   2.368   0.881   6.770  0.8275 -0.3440 -0.1454
  319MOL0     C43889   2.372   0.941   6.898  0.1620 -0.3025 -0.5296
  319MOL0     C43890   2.480   0.943   6.980 -0.6807  0.0917 -0.6184
  319MOL0     C43891   2.594   0.866   6.938  0.6481  0.3410 -0.5401
  319MOL0     O43892   2.707   0.884   7.020  0.1394  0.5423  0.4563
  319MOL0     C43893   2.821   0.843   6.950 -0.8417  0.2366 -0.0005
  319MOL0     C43894   2.947   0.907   7.014  0.3305  0.2012 -1.1511
  319MOL0     C43895   2.956   1.060   6.982 -0.6472 -0.4267  0.2641
  319MOL0     C43896   3.081   1.127   7.051  0.4981 -0.2372  0.4385
  319MOL0     C43897   3.072   1.279   7.040  0.1539 -0.1234  0.7124
  319MOL0     C43898   2.995   1.343   7.161 -0.1268 -0.8402  0.6879
  319MOL0     C43899   2.934   1.477   7.117 -0.1784  0.3005  0.2128
  319MOL0     C43900   3.046   1.572   7.091 -0.5861 -0.7654  0.8625
  319MOL0     N43901   3.004   1.713   7.062 -0.7275  0.1210  0.5827
  319MOL0     C43902   2.931   1.760   6.959 -0.3677 -0.1679 -0.3025
  319MOL0     C43903   2.911   1.893   6.981  0.0623  0.0047 -1.4230
  319MOL0     C43904   2.855   2.018   6.916  0.6639  0.5933 -0.4496
  319MOL0     C43905   2.953   2.121   6.871 -0.4946  0.2037  0.4318
  319MOL0     C43906   2.871   2.238   6.830  1.0537  0.4260 -0.5360
  319MOL0     C43907   2.933   2.359   6.774 -0.0959 -0.1139  0.2002
  319MOL0     O43908   2.998   2.330   6.649 -0.4485  0.1885 -0.4792
  319MOL0     C43909   3.038   2.429   6.561  0.7291 -0.2276  1.0126
  319MOL0     C43910   3.012   2.567   6.573  0.5491  0.1805 -0.6528
  319MOL0     C43911   3.052   2.668   6.480 -0.3678  0.8047 -0.1752
  319MOL0     C43912   3.032   2.805   6.528 -1.1466 -1.6510 -0.0329
  319MOL0     C43913   3.121   2.623   6.362 -0.4098 -0.8905 -0.3529
  319MOL0     C43914   3.164   2.710   6.247 -0.6292 -0.1720  0.0740
  319MOL0     O43915   3.253   2.640   6.161  0.0355  0.4372 -0.1508
  319MOL0     C43916   3.314   2.724   6.068  0.3227 -0.5633  0.7668
  319MOL0     C43917   3.237   2.786   5.979  0.1600 -0.6594  0.2822
  319MOL0     C43918   3.294   2.868   5.873 -0.2108  0.7247  0.4947
  319MOL0     C43919   3.431   2.883   5.874 -0.1895  1.0620 -0.6488
  319MOL0     O43920   3.478   2.952   5.770  0.6998 -0.5742  0.1327
  319MOL0     C43921   3.509   3.087   5.792  1.0738  0.0745 -0.8900
  319MOL0     C43922   3.656   3.095   5.753  0.5563 -0.1066  1.3359
  319MOL0     C43923   3.664   3.092   5.598  0.3282 -0.3772  0.8013
  319MOL0     C43924   3.804   3.114   5.550 -1.5507  0.2739  0.5926
  319MOL0     C43925   3.818   3.105   5.397  0.8182 -0.2785 -0.6710
  319MOL0     C43926   3.769   2.961   5.334  0.7629 -1.0544 -0.1239
  319MOL0     C43927   3.789   2.956   5.183  0.3538 -0.5777 -0.3895
  319MOL0     C43928   3.725   3.063   5.105  0.1122 -1.2755  0.4027
  319MOL0    Cl43929   3.741   3.030   4.926  0.4221  0.0121  0.0322
  319MOL0     C43930   3.514   2.823   5.972 -0.3839  0.3042  0.5071
  319MOL0     C43931   3.458   2.740   6.062 -0.7981  0.0079  0.0774
  319MOL0     O43932   3.131   2.831   6.239 -0.4356 -0.2158 -0.2354
  319MOL0     C43933   3.133   2.485   6.350  1.0043 -0.8235  0.1043
  319MOL0     C43934   3.100   2.393   6.446 -0.0957  0.7577 -0.6520
  319MOL0     N43935   2.977   1.918   7.098  0.6200  0.0349 -0.4517
  319MOL0     N43936   3.030   1.809   7.147  0.5844 -0.1625 -0.3036
  319MOL0     C43937   2.585   0.794   6.812  0.2986 -0.4686 -0.4043
  319MOL0     C43938   2.475   0.812   6.727 -0.1952  0.3694  0.3936
  319MOL0     C43939   2.088   0.995   6.571 -0.2713  0.0538 -0.0025
  319MOL0     C43940   2.031   1.125   6.541  0.4879 -0.4214  0.5411
  319MOL0     C43941   1.901   1.145   6.486  0.3240 -0.5505 -0.0356
  319MOL0     C43942   1.836   1.033   6.430 -0.8325 -0.4828  0.3686
  319MOL0     O43943   1.714   1.032   6.368  0.1104  0.2419  0.5151
  319MOL0     C43944   1.694   1.140   6.269 -0.9745 -0.3649  0.2779
  319MOL0     C43945   1.798   1.130   6.156 -0.2360 -1.0793 -0.2032
  319MOL0     C43946   1.739   1.144   6.016  0.9471 -0.2361 -0.5840
  319MOL0     C43947   1.730   1.293   5.957 -0.1686  0.8023 -0.2770
  319MOL0     C43948   1.596   1.336   6.014 -0.0212  0.0334  0.2668
  319MOL0     C43949   1.488   1.368   6.046 -0.6086  0.3126  1.1267
  319MOL0     C43950   1.896   0.905   6.456 -0.8245  0.2591 -0.7889
  319MOL0     C43951   2.010   0.885   6.535 -0.1786  0.6063  0.6114
  319MOL0     C43952   2.069   0.744   6.547 -0.1939  0.0757 -0.2671
  319MOL0     H43953   2.286   1.003   6.924 -1.5237 -3.0807  1.0796
  319MOL0     H43954   2.474   0.997   7.074 -0.8562  0.5273 -0.8796
  319MOL0     H43955   2.804   0.877   6.848 -1.7524  3.4455  1.1133
  319MOL0     H43956   2.829   0.734   6.948 -2.4987  0.0887 -0.7984
  319MOL0     H43957   2.945   0.893   7.122  0.4119  0.7433 -1.0753
  319MOL0     H43958   3.035   0.852   6.980  2.0091  0.9666  1.6386
  319MOL0     H43959   2.956   1.067   6.873 -0.9654 -0.4700  0.2607
  319MOL0     H43960   2.863   1.105   7.019 -1.1318  0.6793 -2.1044
  319MOL0     H43961   3.074   1.095   7.156 -2.2399 -1.0507  0.0872
  319MOL0     H43962   3.176   1.089   7.011  1.5393 -0.0212  2.5633
  319MOL0     H43963   3.025   1.301   6.943 -4.2778 -2.1360  2.1474
  319MOL0     H43964   3.171   1.327   7.040 -0.5319  1.6169 -2.5745
  319MOL0     H43965   2.919   1.274   7.199  2.3964 -3.0683  2.0522
  319MOL0     H43966   3.059   1.353   7.249 -0.4833  2.2519  0.7359
  319MOL0     H43967   2.876   1.522   7.199  1.5259  1.7706  0.6805
  319MOL0     H43968   2.868   1.464   7.031 -2.5602  1.9329  1.6407
  319MOL0     H43969   3.124   1.569   7.167  0.2628 -0.5232  0.0147
  319MOL0     H43970   3.086   1.545   6.993 -0.8739  1.0076  0.2176
  319MOL0     H43971   2.887   1.710   6.873  2.3670 -4.9199  0.7066
  319MOL0     H43972   2.782   2.059   6.986  3.2291  2.9057  1.0632
  319MOL0     H43973   2.799   1.989   6.826  0.6671  0.6895 -0.4839
  319MOL0     H43974   3.017   2.154   6.954  1.4948 -1.7967 -0.2103
  319MOL0     H43975   3.023   2.084   6.795  0.4466 -2.9809  2.6354
  319MOL0     H43976   2.791   2.204   6.764  0.7237  1.9123 -0.9243
  319MOL0     H43977   2.808   2.264   6.916 -0.7686 -1.1347 -1.3166
  319MOL0     H43978   2.860   2.441   6.768  0.1154 -0.0426 -1.9305
  319MOL0     H43979   3.018   2.396   6.833  0.3129 -0.1755 -0.3494
  319MOL0     H43980   2.952   2.593   6.660 -0.7012 -0.7305 -1.2146
  319MOL0     H43981   3.012   2.793   6.635 -0.0390 -0.0520  0.4003
  319MOL0     H43982   2.970   2.872   6.468  1.6039  0.4752 -0.7542
  319MOL0     H43983   3.128   2.858   6.524 -1.8369 -0.3965 -0.5298
  319MOL0     H43984   3.129   2.779   5.975 -0.1978  3.1134 -1.1709
  319MOL0     H43985   3.230   2.918   5.801 -1.3779  2.2978  2.5155
  319MOL0     H43986   3.456   3.157   5.727  1.9631  1.0048 -0.6488
  319MOL0     H43987   3.505   3.119   5.896 -0.2569  0.5622 -1.0722
  319MOL0     H43988   3.692   3.191   5.791 -1.5974  0.8221  1.1534
  319MOL0     H43989   3.713   3.014   5.800 -4.1080 -3.2980  2.1659
  319MOL0     H43990   3.609   3.175   5.552  2.1660  0.9922  0.9484
  319MOL0     H43991   3.620   2.999   5.564 -1.7713 -0.3031  3.0025
  319MOL0     H43992   3.872   3.042   5.596 -1.6500  3.3650  6.5292
  319MOL0     H43993   3.843   3.210   5.585  1.5161 -1.0905  1.3097
  319MOL0     H43994   3.756   3.186   5.357 -0.4783 -0.2707  1.2059
  319MOL0     H43995   3.921   3.134   5.376 -0.2057  2.1995 -2.9244
  319MOL0     H43996   3.663   2.939   5.351  0.6545 -0.1496  0.4921
  319MOL0     H43997   3.823   2.880   5.384 -0.4398 -1.4061  0.6435
  319MOL0     H43998   3.734   2.863   5.164  3.3913 -1.9863 -3.3564
  319MOL0     H43999   3.897   2.942   5.173  0.4949 -1.2829  1.5785
  319MOL0     H44000   3.773   3.159   5.128 -1.9115 -0.5645  1.9568
  319MOL0     H44001   3.621   3.074   5.137  0.6741 -2.4732  2.8750
  319MOL0     H44002   3.621   2.837   5.958 -0.1177 -0.9912  1.0838
  319MOL0     H44003   3.524   2.680   6.124  1.7686  2.7378  0.2097
  319MOL0     H44004   3.183   2.446   6.262  1.6769 -0.3246  0.2599
  319MOL0     H44005   3.109   2.285   6.432 -2.6315 -0.3533  4.1258
  319MOL0     H44006   2.663   0.740   6.760 -0.4564  1.3330 -3.7084
  319MOL0     H44007   2.480   0.772   6.626  0.8054 -0.6714  0.8214
  319MOL0     H44008   2.092   1.213   6.563  1.9519 -1.7073  1.8670
  319MOL0     H44009   1.868   1.247   6.474  0.1028 -0.4281  1.4338
  319MOL0     H44010   1.592   1.116   6.235  0.1276 -4.5375 -0.7328
  319MOL0     H44011   1.694   1.242   6.308  0.7950  0.2126 -1.0896
  319MOL0     H44012   1.838   1.028   6.164  1.9835 -0.2657 -0.3526
  319MOL0     H44013   1.879   1.201   6.176 -0.5841 -0.7492  0.0324
  319MOL0     H44014   1.809   1.086   5.955  0.9605 -1.3966  0.5122
  319MOL0     H44015   1.647   1.086   6.007  1.4840 -1.9659  3.3365
  319MOL0     H44016   1.725   1.292   5.847 -2.4579  4.8645 -0.3956
  319MOL0     H44017   1.821   1.347   5.986  2.3845 -3.7019  1.2293
  319MOL0     H44018   1.392   1.385   6.091 -0.6058  0.4538  1.0789
  319MOL0     H44019   1.838   0.819   6.423 -0.3020 -0.3758 -0.0955
  319MOL0     H44020   2.093   0.718   6.651 -3.5249  2.6431  1.3398
  319MOL0     H44021   1.996   0.674   6.507  0.9444 -0.9286 -0.6478
  319MOL0     H44022   2.159   0.720   6.489 -0.1392  3.9899 -2.1506
  320MOL0     O44023  10.430   8.813   0.457 -0.0762 -0.3629  0.4882
  320MOL0     C44024  10.345   8.745   0.398  0.0966  0.1996 -0.4186
  320MOL0     O44025  10.219   8.726   0.426 -1.0680 -0.0461  0.3330
  320MOL0     C44026  10.170   8.780   0.545 -0.0620  0.5931  0.0848
  320MOL0     C44027  10.169   8.691   0.657  0.3055 -1.4135 -1.0692
  320MOL0     C44028  10.116   8.736   0.784  0.9774 -0.2217  0.7858
  320MOL0     C44029  10.053   8.856   0.798 -0.6647  0.1835  0.2464
  320MOL0     O44030  10.002   8.904   0.916 -0.8076  0.0704 -0.9882
  320MOL0     C44031   9.903   8.829   0.992  0.4061  0.2306 -0.2115
  320MOL0     C44032   9.959   8.792   1.130  0.3573  0.1442  0.3698
  320MOL0     C44033   9.869   8.692   1.208  0.1290 -0.1452 -0.8092
  320MOL0     C44034   9.728   8.740   1.257 -0.3531 -0.9020 -0.5811
  320MOL0     C44035   9.663   8.639   1.340 -0.1224  1.9015 -0.4507
  320MOL0     C44036   9.545   8.690   1.426  0.2246 -1.1885  0.0708
  320MOL0     C44037   9.458   8.594   1.500 -0.3929 -0.6059 -0.7153
  320MOL0     C44038   9.424   8.478   1.421  0.1921  0.7802  0.7021
  320MOL0     N44039   9.325   8.376   1.468  0.0453 -0.6547  0.6669
  320MOL0     C44040   9.263   8.368   1.587  0.7851  0.2009 -0.2698
  320MOL0     C44041   9.187   8.255   1.592  0.5593 -0.8933  0.3822
  320MOL0     C44042   9.091   8.204   1.695  0.0735  0.6805  0.1195
  320MOL0     C44043   8.950   8.242   1.649 -0.5567 -0.2373 -0.0523
  320MOL0     C44044   8.850   8.234   1.768  0.1833  0.0458  0.5012
  320MOL0     C44045   8.816   8.086   1.803  0.1155  0.7304 -0.1225
  320MOL0     O44046   8.796   8.001   1.692  0.0923 -0.1849  0.8568
  320MOL0     C44047   8.733   7.888   1.712 -0.5293 -0.1717  0.4906
  320MOL0     C44048   8.618   7.871   1.792  0.0429 -0.8452  0.1330
  320MOL0     C44049   8.555   7.748   1.800 -0.3180  0.5913  0.2982
  320MOL0     C44050   8.444   7.729   1.892 -0.0008 -0.8892 -0.0083
  320MOL0     C44051   8.598   7.636   1.730  0.3357 -0.7052 -0.7038
  320MOL0     C44052   8.542   7.500   1.718  0.3516  0.0346 -0.7965
  320MOL0     O44053   8.628   7.403   1.691 -0.6866  0.6936  0.5489
  320MOL0     C44054   8.579   7.286   1.643  1.1608  0.6436 -0.0743
  320MOL0     C44055   8.532   7.264   1.513  0.0849 -0.7244 -0.0681
  320MOL0     C44056   8.470   7.148   1.473 -0.4627  0.1388 -0.0263
  320MOL0     C44057   8.446   7.041   1.559  0.2122 -0.7433  0.2321
  320MOL0     O44058   8.376   6.927   1.525 -0.2871  0.0906  0.1951
  320MOL0     C44059   8.341   6.924   1.395  0.5091  0.5295 -0.0167
  320MOL0     C44060   8.258   6.803   1.369 -0.6068  0.4969 -0.7758
  320MOL0     C44061   8.138   6.794   1.470 -0.0297 -0.0173 -0.6089
  320MOL0     C44062   8.052   6.910   1.479 -0.4867  0.1658 -0.4317
  320MOL0     C44063   7.918   6.885   1.545  0.1513  0.8507  0.3423
  320MOL0     C44064   7.825   6.825   1.437  0.4453 -0.3860  1.6509
  320MOL0     C44065   7.672   6.847   1.475 -0.1602  0.0659  0.7804
  320MOL0     C44066   7.583   6.788   1.359  0.2079 -0.9358  0.1938
  320MOL0    Cl44067   7.443   6.889   1.350  0.0333 -0.3780 -0.1888
  320MOL0     C44068   8.489   7.057   1.694 -0.0100 -0.0403 -1.4880
  320MOL0     C44069   8.556   7.178   1.734 -0.9783  0.9050 -0.2511
  320MOL0     O44070   8.424   7.473   1.745 -0.5779 -0.0949 -0.4153
  320MOL0     C44071   8.721   7.654   1.658  0.1438  0.0491  0.0543
  320MOL0     C44072   8.785   7.778   1.661  0.4025  0.3831  1.0093
  320MOL0     N44073   9.216   8.193   1.476  0.2252  0.4467  0.2476
  320MOL0     N44074   9.293   8.257   1.402 -0.6852  0.4710 -0.3708
  320MOL0     C44075  10.047   8.940   0.684 -0.5315 -0.0298 -0.4752
  320MOL0     C44076  10.100   8.904   0.565  0.2647  1.0667  0.3003
  320MOL0     C44077  10.381   8.707   0.264 -0.4926  0.1221  0.7636
  320MOL0     C44078  10.362   8.788   0.161 -0.2741 -0.5092 -0.7533
  320MOL0     C44079  10.372   8.739   0.033  0.0241 -0.2782 -0.1966
  320MOL0     C44080  10.436   8.624   0.001  0.5614 -0.2957 -0.5494
  320MOL0     O44081  10.468   8.580  -0.126  0.5731  0.1825  0.3107
  320MOL0     C44082  10.444   8.669  -0.236  0.4705 -0.4982  1.0708
  320MOL0     C44083  10.462   8.593  -0.370  0.5456  0.8583  0.4761
  320MOL0     C44084  10.585   8.508  -0.398 -0.5613  0.3652  0.4989
  320MOL0     C44085  10.715   8.589  -0.409 -1.0429 -0.5393  0.5070
  320MOL0     C44086  10.755   8.626  -0.275 -0.1722  0.2405 -0.0550
  320MOL0     C44087  10.807   8.658  -0.164 -0.1259  0.1083  0.8650
  320MOL0     C44088  10.450   8.531   0.104  0.4053  0.2514  0.6497
  320MOL0     C44089  10.425   8.569   0.240  0.0243  0.5079  0.1202
  320MOL0     C44090  10.446   8.474   0.348 -1.1869 -1.0422 -0.8113
  320MOL0     H44091  10.224   8.598   0.669 -0.4641 -1.5069  3.5244
  320MOL0     H44092  10.116   8.679   0.877  1.1640 -1.9882 -0.2468
  320MOL0     H44093   9.883   8.741   0.929 -0.8128 -0.0363  0.5130
  320MOL0     H44094   9.808   8.882   0.999 -0.1238 -0.2034 -3.0649
  320MOL0     H44095  10.055   8.744   1.116  0.3456 -0.5615  2.4077
  320MOL0     H44096   9.973   8.873   1.203 -1.8295 -1.9911  3.4226
  320MOL0     H44097   9.860   8.593   1.161  0.6870 -1.2276  1.2193
  320MOL0     H44098   9.927   8.661   1.296 -1.5218 -3.6310 -0.7709
  320MOL0     H44099   9.733   8.831   1.316  3.2236 -0.1995 -1.7521
  320MOL0     H44100   9.674   8.766   1.165  1.5377  2.6188 -0.8457
  320MOL0     H44101   9.737   8.587   1.402 -0.4362 -4.4475 -4.5896
  320MOL0     H44102   9.630   8.555   1.278  0.8403  1.3646 -0.2638
  320MOL0     H44103   9.572   8.778   1.485 -1.0976 -0.5783 -0.1944
  320MOL0     H44104   9.480   8.742   1.356 -1.8816 -0.9429  2.0862
  320MOL0     H44105   9.373   8.657   1.531  1.1336  0.3894  1.7820
  320MOL0     H44106   9.509   8.572   1.594 -0.9127  1.9456  0.2590
  320MOL0     H44107   9.396   8.501   1.317  1.1336 -1.8395 -0.2051
  320MOL0     H44108   9.514   8.417   1.412 -0.8942 -0.9858  1.2915
  320MOL0     H44109   9.279   8.437   1.670  5.3539 -1.9828  0.9843
  320MOL0     H44110   9.117   8.253   1.790  1.0302 -0.8421  0.6787
  320MOL0     H44111   9.108   8.096   1.704  3.4573  0.7283 -3.0691
  320MOL0     H44112   8.959   8.347   1.618  1.0470 -0.2537  0.2590
  320MOL0     H44113   8.924   8.189   1.557  4.4544 -0.9145 -1.3597
  320MOL0     H44114   8.908   8.280   1.848  1.9936 -1.2953  0.0225
  320MOL0     H44115   8.752   8.279   1.749  0.4560  0.4116 -0.0524
  320MOL0     H44116   8.900   8.057   1.867 -1.0568  1.1084  1.6847
  320MOL0     H44117   8.726   8.079   1.865 -0.1277  3.2883 -0.0835
  320MOL0     H44118   8.567   7.957   1.833  0.1544  0.1161 -1.6380
  320MOL0     H44119   8.355   7.696   1.838  1.0055 -2.2355 -0.8901
  320MOL0     H44120   8.414   7.831   1.919 -1.3670 -1.2953  0.0924
  320MOL0     H44121   8.459   7.669   1.982  0.0243 -3.3643 -1.5901
  320MOL0     H44122   8.547   7.350   1.448  1.1062  0.1311  1.2249
  320MOL0     H44123   8.449   7.146   1.366  2.6964  1.4200 -0.7967
  320MOL0     H44124   8.283   7.011   1.364  4.1942  2.9223 -0.7562
  320MOL0     H44125   8.420   6.922   1.320 -1.2276  2.9519 -2.1100
  320MOL0     H44126   8.220   6.802   1.266  0.0491  2.6144 -1.0855
  320MOL0     H44127   8.308   6.705   1.367 -3.2196 -0.9237 -0.1870
  320MOL0     H44128   8.174   6.773   1.571  1.4882 -1.4185 -1.4004
  320MOL0     H44129   8.082   6.707   1.434 -1.1351 -0.7406  2.5752
  320MOL0     H44130   8.041   6.953   1.379 -0.3608  1.4849  0.1021
  320MOL0     H44131   8.109   6.982   1.539  1.4905 -1.8800  0.2903
  320MOL0     H44132   7.926   6.817   1.631 -0.3329  1.7862  1.1500
  320MOL0     H44133   7.873   6.974   1.590  1.5471  0.8411  1.8681
  320MOL0     H44134   7.845   6.718   1.428  0.0513 -0.3310 -0.5774
  320MOL0     H44135   7.831   6.866   1.335 -1.6629  1.6405  2.2675
  320MOL0     H44136   7.657   6.955   1.483 -0.9973  0.0940 -0.7766
  320MOL0     H44137   7.644   6.789   1.564  2.4218 -0.3449  1.3919
  320MOL0     H44138   7.557   6.682   1.366  2.2439 -1.4016  1.7911
  320MOL0     H44139   7.633   6.806   1.263  0.4579  1.8436  0.7504
  320MOL0     H44140   8.468   6.979   1.767  0.1790  0.7014 -0.6205
  320MOL0     H44141   8.589   7.188   1.837 -0.8156  0.9148 -0.3026
  320MOL0     H44142   8.765   7.573   1.600 -2.2076 -0.8793 -0.5552
  320MOL0     H44143   8.879   7.785   1.607  1.6122  0.6520  3.0160
  320MOL0     H44144   9.998   9.037   0.689  1.3577  0.9186  2.2132
  320MOL0     H44145  10.078   8.961   0.476 -2.0428 -1.0569 -0.6156
  320MOL0     H44146  10.347   8.894   0.178  1.1514 -0.4618  0.3525
  320MOL0     H44147  10.349   8.809  -0.046  1.8620 -0.9464 -1.3810
  320MOL0     H44148  10.343   8.710  -0.227 -0.2689 -2.1683  0.8724
  320MOL0     H44149  10.509   8.754  -0.214 -0.3738  0.5061 -0.1385
  320MOL0     H44150  10.449   8.668  -0.450  2.0421  1.8156  1.0804
  320MOL0     H44151  10.370   8.535  -0.375  1.8111 -1.6075  3.1303
  320MOL0     H44152  10.581   8.439  -0.313 -0.2240  0.2323  0.4080
  320MOL0     H44153  10.558   8.454  -0.489 -5.1106  0.3593  1.5899
  320MOL0     H44154  10.710   8.670  -0.482  1.4452 -1.6743 -1.0566
  320MOL0     H44155  10.794   8.526  -0.451  1.1600  1.8277  0.8629
  320MOL0     H44156  10.836   8.695  -0.068 -1.1279  2.4661  0.3252
  320MOL0     H44157  10.491   8.432   0.090 -0.4741 -0.1601  0.8911
  320MOL0     H44158  10.446   8.376   0.298 -1.8376 -0.6332 -1.6432
  320MOL0     H44159  10.540   8.495   0.400 -2.4017 -0.1366  1.0815
  320MOL0     H44160  10.370   8.479   0.426 -1.2113  0.3118 -0.9063
  321MOL0     O44161   3.317   7.722   8.871 -0.4395  1.2910  0.9784
  321MOL0     C44162   3.341   7.811   8.954 -0.4313 -0.5175  0.1530
  321MOL0     O44163   3.335   7.797   9.096  0.2371 -0.0363  0.1059
  321MOL0     C44164   3.335   7.665   9.142  0.0961 -0.7099 -1.1972
  321MOL0     C44165   3.453   7.610   9.191  0.3318  0.2640  0.1914
  321MOL0     C44166   3.447   7.474   9.236 -0.0587 -0.7109  0.0707
  321MOL0     C44167   3.330   7.397   9.229  0.6476 -0.6310  0.4736
  321MOL0     O44168   3.331   7.271   9.264  0.3625 -0.1001 -0.4037
  321MOL0     C44169   3.268   7.185   9.163  0.1240  0.5539  0.4540
  321MOL0     C44170   3.231   7.055   9.232  0.3609 -0.9977  0.2347
  321MOL0     C44171   3.163   6.956   9.140  0.1171 -0.7081 -0.0984
  321MOL0     C44172   3.174   6.819   9.217  0.6936  0.2259  1.0927
  321MOL0     C44173   3.310   6.739   9.187  0.0116 -0.0871  0.5296
  321MOL0     C44174   3.316   6.653   9.057  0.5417 -0.9047 -0.2419
  321MOL0     C44175   3.433   6.556   9.042  0.2352 -0.6319  0.5012
  321MOL0     C44176   3.548   6.641   9.006  0.8001  0.6783 -0.2732
  321MOL0     N44177   3.654   6.545   8.952  0.6325 -0.2611 -0.0271
  321MOL0     C44178   3.747   6.478   9.033 -0.5962  0.1256 -0.2003
  321MOL0     C44179   3.787   6.374   8.958 -0.2337  0.2634 -0.4489
  321MOL0     C44180   3.881   6.256   9.006 -0.6054 -0.4537  0.8109
  321MOL0     C44181   4.027   6.276   8.951 -0.6058  1.1561  0.5257
  321MOL0     C44182   4.031   6.268   8.797  0.2386 -0.6306  1.1165
  321MOL0     C44183   4.164   6.318   8.739 -0.2565 -0.7968  0.2258
  321MOL0     O44184   4.146   6.345   8.597  0.4608  0.5836  0.0924
  321MOL0     C44185   4.266   6.351   8.526 -0.1927  0.3291  0.3900
  321MOL0     C44186   4.268   6.451   8.431 -0.0302  0.0915 -0.1899
  321MOL0     C44187   4.379   6.463   8.343 -0.2342  0.1686  0.2836
  321MOL0     C44188   4.351   6.548   8.220  0.7635 -0.5305 -1.0051
  321MOL0     C44189   4.492   6.374   8.352  0.2729  0.2509 -0.2387
  321MOL0     C44190   4.602   6.374   8.263 -0.3073  0.9129  0.1491
  321MOL0     O44191   4.685   6.267   8.282  0.2218 -0.4703  0.2682
  321MOL0     C44192   4.802   6.243   8.212  0.6172  0.1732 -0.6807
  321MOL0     C44193   4.851   6.117   8.235 -0.3187 -0.6087  0.8486
  321MOL0     C44194   4.981   6.076   8.199  0.6552 -1.1699 -0.1082
  321MOL0     C44195   5.059   6.163   8.122 -0.7743  0.2181  0.1849
  321MOL0     O44196   5.179   6.126   8.078 -0.1014 -0.3870 -0.1531
  321MOL0     C44197   5.281   6.228   8.073 -0.4829  1.1378  1.3206
  321MOL0     C44198   5.409   6.138   8.069 -0.9669  0.1112 -0.0993
  321MOL0     C44199   5.535   6.226   8.034 -0.1332  0.2891  0.4474
  321MOL0     C44200   5.666   6.140   8.035 -0.0532 -0.7792 -0.1525
  321MOL0     C44201   5.797   6.200   7.986  0.0746 -0.6671  0.2515
  321MOL0     C44202   5.916   6.112   7.999 -0.1734  0.9341  0.1216
  321MOL0     C44203   6.045   6.178   7.946  0.5054 -0.3207  0.3057
  321MOL0     C44204   6.174   6.095   7.965  0.4967 -0.4408 -0.7571
  321MOL0    Cl44205   6.301   6.186   7.880 -0.2692 -0.2842  0.2666
  321MOL0     C44206   5.000   6.291   8.090 -0.5355 -0.6216 -1.0620
  321MOL0     C44207   4.875   6.329   8.140  0.2629 -0.7882  0.2408
  321MOL0     O44208   4.603   6.451   8.173 -0.7673 -0.8204  0.7509
  321MOL0     C44209   4.487   6.275   8.460  0.6720  0.0947 -0.0289
  321MOL0     C44210   4.376   6.261   8.541  1.3199 -0.0396 -1.4653
  321MOL0     N44211   3.704   6.367   8.849 -0.7214 -0.1673 -0.0638
  321MOL0     N44212   3.638   6.479   8.837  0.2202 -0.1130  0.1678
  321MOL0     C44213   3.208   7.468   9.190 -0.8714  0.1138  0.2506
  321MOL0     C44214   3.218   7.597   9.145  0.7367  0.0796 -0.6191
  321MOL0     C44215   3.367   7.940   8.885  0.7030 -0.1511  0.1576
  321MOL0     C44216   3.315   7.978   8.754  0.1247 -0.2722  0.1193
  321MOL0     C44217   3.336   8.110   8.709  0.1727 -0.5110  0.1923
  321MOL0     C44218   3.411   8.195   8.774 -0.2621 -1.4032  0.6434
  321MOL0     O44219   3.424   8.332   8.730 -0.2203 -0.6168 -0.6784
  321MOL0     C44220   3.438   8.352   8.590 -0.2237 -0.0014 -0.2444
  321MOL0     C44221   3.582   8.312   8.535  1.3272  0.3581 -0.7904
  321MOL0     C44222   3.608   8.333   8.387 -0.2933 -0.3492 -0.1528
  321MOL0     C44223   3.752   8.293   8.354 -0.0573  0.0022 -0.1017
  321MOL0     C44224   3.785   8.149   8.382 -0.8457  0.0683 -0.6361
  321MOL0     C44225   3.839   8.036   8.396 -0.7440 -0.3464 -0.0634
  321MOL0     C44226   3.473   8.159   8.894  0.3315 -0.8932  0.1519
  321MOL0     C44227   3.458   8.031   8.949 -0.5874  0.4195  0.2292
  321MOL0     C44228   3.536   8.003   9.067  0.3983  0.5146 -0.4930
  321MOL0     H44229   3.543   7.672   9.189  0.2316  0.4147 -1.9792
  321MOL0     H44230   3.536   7.422   9.271 -0.3837 -1.8005 -0.6835
  321MOL0     H44231   3.343   7.163   9.086  2.3905  1.0429  2.3907
  321MOL0     H44232   3.178   7.223   9.115  0.8282  0.7130 -0.7748
  321MOL0     H44233   3.324   7.007   9.265  3.7982  4.4572 -0.3257
  321MOL0     H44234   3.167   7.073   9.319 -1.9561 -2.4664 -1.0471
  321MOL0     H44235   3.059   6.983   9.118  0.2140 -0.3779 -0.1474
  321MOL0     H44236   3.216   6.955   9.044  2.5265 -0.9534  1.1739
  321MOL0     H44237   3.170   6.833   9.325  2.0471 -2.7073  1.6384
  321MOL0     H44238   3.083   6.764   9.194  0.7160  0.6914 -0.1965
  321MOL0     H44239   3.334   6.666   9.265 -1.8485 -2.1437 -0.6956
  321MOL0     H44240   3.392   6.810   9.187  0.4910 -0.6269  0.0501
  321MOL0     H44241   3.236   6.580   9.066  1.0002 -1.5549 -1.2647
  321MOL0     H44242   3.311   6.720   8.971  2.9032  0.7398  0.7726
  321MOL0     H44243   3.417   6.484   8.961  1.1897  0.6643 -0.9079
  321MOL0     H44244   3.459   6.509   9.138  4.3220 -0.3875 -0.2974
  321MOL0     H44245   3.527   6.710   8.924 -3.3919 -1.8010 -1.5727
  321MOL0     H44246   3.590   6.686   9.097  1.8920  1.3990 -1.1054
  321MOL0     H44247   3.787   6.509   9.129 -1.6145  1.3868 -0.1537
  321MOL0     H44248   3.840   6.163   8.966  0.2167 -0.5852  0.2367
  321MOL0     H44249   3.871   6.250   9.115  0.8173 -0.2963  0.9735
  321MOL0     H44250   4.068   6.369   8.991  0.8785  1.2475 -1.0947
  321MOL0     H44251   4.084   6.184   8.969 -2.5318 -0.6676 -1.9768
  321MOL0     H44252   4.022   6.166   8.760  0.6726  0.0863 -1.1244
  321MOL0     H44253   3.946   6.324   8.757 -1.1341  0.1120  4.6531
  321MOL0     H44254   4.196   6.414   8.782 -0.3321 -1.5811  2.1336
  321MOL0     H44255   4.247   6.252   8.765  1.9243  2.0452  1.0823
  321MOL0     H44256   4.179   6.512   8.421  0.4612  0.8308 -0.1175
  321MOL0     H44257   4.439   6.612   8.215  1.2467 -1.1543 -0.6188
  321MOL0     H44258   4.255   6.600   8.224  1.1857  0.1510  1.7614
  321MOL0     H44259   4.358   6.478   8.136 -0.1751 -0.5175 -1.1056
  321MOL0     H44260   4.801   6.043   8.297 -0.3672 -0.2106  1.2942
  321MOL0     H44261   5.019   5.978   8.227  1.5513 -1.0251 -0.7932
  321MOL0     H44262   5.260   6.295   7.989  1.0351 -1.6956 -1.5501
  321MOL0     H44263   5.270   6.283   8.167  0.0474 -1.1506  2.7850
  321MOL0     H44264   5.419   6.058   8.144 -3.5638  0.5744  0.8820
  321MOL0     H44265   5.395   6.081   7.977  3.9118  0.2412 -1.1520
  321MOL0     H44266   5.553   6.301   8.111 -2.0135  1.4834 -0.1923
  321MOL0     H44267   5.527   6.269   7.934  1.1196 -0.0793  0.1707
  321MOL0     H44268   5.666   6.055   7.966 -1.8562 -0.3065 -0.7987
  321MOL0     H44269   5.688   6.102   8.135  0.4418 -4.3750 -1.4624
  321MOL0     H44270   5.794   6.251   7.889 -1.9841  0.6870  0.9555
  321MOL0     H44271   5.801   6.279   8.061 -2.3729 -0.5495  0.3434
  321MOL0     H44272   5.892   6.025   7.937  0.5359  1.8911 -1.5728
  321MOL0     H44273   5.938   6.084   8.103  3.9190 -0.5254 -0.9221
  321MOL0     H44274   6.049   6.266   8.011 -1.6637 -0.4649  0.7001
  321MOL0     H44275   6.040   6.200   7.839 -0.3398 -2.5396 -0.1523
  321MOL0     H44276   6.173   6.007   7.901  1.7890  1.3776 -3.5043
  321MOL0     H44277   6.201   6.065   8.067  2.1589 -0.8914 -1.3137
  321MOL0     H44278   5.051   6.370   8.036 -0.8683  0.4788  0.1675
  321MOL0     H44279   4.843   6.433   8.137 -0.3709 -0.9651  0.7646
  321MOL0     H44280   4.569   6.203   8.463 -1.2176 -2.1426  1.1037
  321MOL0     H44281   4.369   6.177   8.609  0.2903  0.1685 -1.2901
  321MOL0     H44282   3.118   7.411   9.208 -1.0359 -0.0922 -1.1225
  321MOL0     H44283   3.128   7.654   9.124  0.3621  1.4616  3.7785
  321MOL0     H44284   3.242   7.913   8.707 -2.2885  0.1632  2.9859
  321MOL0     H44285   3.284   8.129   8.616  0.9621 -1.7330 -0.5279
  321MOL0     H44286   3.360   8.296   8.539  0.7946  0.0764 -2.0027
  321MOL0     H44287   3.407   8.454   8.564 -2.6536 -1.1587 -2.2589
  321MOL0     H44288   3.605   8.210   8.567  3.3672  0.9148 -0.3749
  321MOL0     H44289   3.652   8.387   8.573 -0.6824  1.5697  0.7624
  321MOL0     H44290   3.544   8.292   8.308  0.4799 -2.4213  0.2295
  321MOL0     H44291   3.594   8.441   8.385  0.5442 -0.1729  1.7657
  321MOL0     H44292   3.824   8.346   8.417 -0.5264  1.1814 -0.5348
  321MOL0     H44293   3.789   8.331   8.258  1.4160  0.1953  0.5158
  321MOL0     H44294   3.880   7.938   8.403 -0.5916 -0.2314  0.8385
  321MOL0     H44295   3.535   8.221   8.958  2.8869 -1.5501 -1.5423
  321MOL0     H44296   3.561   7.896   9.065  1.4543  0.7556 -1.3187
  321MOL0     H44297   3.633   8.051   9.081  1.0133 -0.5741 -0.8782
  321MOL0     H44298   3.478   8.028   9.156 -0.7722  0.8405 -1.3263
  322MOL0     O44299   8.269  11.374  10.637 -0.2161 -0.0150 -0.6899
  322MOL0     C44300   8.234  11.426  10.743 -0.2328  0.6971 -0.1870
  322MOL0     O44301   8.144  11.532  10.754 -0.3399  0.0342  0.0166
  322MOL0     C44302   8.080  11.590  10.645 -0.1375  0.7379  0.9556
  322MOL0     C44303   8.117  11.580  10.512  0.1657  0.8119 -0.1783
  322MOL0     C44304   8.032  11.624  10.407 -0.5374  0.3628 -0.8216
  322MOL0     C44305   7.911  11.693  10.438 -0.2231  0.2631 -0.2540
  322MOL0     O44306   7.818  11.724  10.346 -0.2700 -0.3176 -0.4584
  322MOL0     C44307   7.768  11.616  10.255 -0.1450 -0.1915  0.1229
  322MOL0     C44308   7.665  11.671  10.152 -0.7945  0.3873 -0.8684
  322MOL0     C44309   7.543  11.711  10.220  0.7936  0.0284  0.2310
  322MOL0     C44310   7.494  11.855  10.169 -1.0440 -0.1244 -0.6634
  322MOL0     C44311   7.355  11.904  10.234 -0.2588  0.8322 -0.5520
  322MOL0     C44312   7.314  12.051  10.197  0.4575 -0.8828  0.1177
  322MOL0     C44313   7.257  12.060  10.056  1.3265  0.2106 -0.2242
  322MOL0     C44314   7.243  12.204  10.015  0.0800 -0.4786 -0.1035
  322MOL0     N44315   7.112  12.249  10.064  0.2164  0.2845 -0.9905
  322MOL0     C44316   7.092  12.310  10.186 -0.8541  0.2794 -0.1340
  322MOL0     C44317   6.960  12.327  10.203 -0.4434  1.0246  0.4848
  322MOL0     C44318   6.888  12.388  10.323 -0.0522 -0.0598  0.2718
  322MOL0     C44319   6.738  12.390  10.305 -0.0516  0.2653 -0.3660
  322MOL0     C44320   6.672  12.450  10.434 -0.7791  0.9236 -0.1892
  322MOL0     C44321   6.652  12.347  10.543  0.3122 -0.3756 -0.5269
  322MOL0     O44322   6.589  12.417  10.654 -0.5566  0.0372  0.4951
  322MOL0     C44323   6.455  12.443  10.637  0.0694 -0.0395 -0.7033
  322MOL0     C44324   6.361  12.345  10.649 -0.6992 -0.2472 -0.2862
  322MOL0     C44325   6.230  12.370  10.617  0.5835  0.6333  1.6470
  322MOL0     C44326   6.120  12.253  10.628  0.1769 -0.1697  1.2656
  322MOL0     C44327   6.193  12.499  10.567  0.7134 -0.5581  0.2880
  322MOL0     C44328   6.059  12.533  10.515 -1.1967 -0.4021  0.3920
  322MOL0     O44329   6.058  12.623  10.415  0.5305 -0.6336  0.3738
  322MOL0     C44330   5.972  12.604  10.309 -0.5572 -1.1606  0.4840
  322MOL0     C44331   5.949  12.482  10.242 -0.6025  0.4497  0.6145
  322MOL0     C44332   5.846  12.467  10.145 -0.5697  0.0896 -0.0673
  322MOL0     C44333   5.767  12.572  10.109  0.1856  0.5003  1.3689
  322MOL0     O44334   5.661  12.535  10.026 -0.4418  0.0561 -0.6135
  322MOL0     C44335   5.570  12.636  10.009 -0.5122  0.0997  0.3992
  322MOL0     C44336   5.449  12.597   9.928 -0.5036 -0.3238  0.8726
  322MOL0     C44337   5.360  12.484   9.980 -0.5243  0.4921 -0.3871
  322MOL0     C44338   5.209  12.513   9.927 -0.7420  0.5489  0.1997
  322MOL0     C44339   5.102  12.418   9.971 -0.7227 -0.1089  0.4062
  322MOL0     C44340   4.965  12.479   9.926  0.5769  0.1000 -0.1194
  322MOL0     C44341   4.850  12.384   9.955 -0.3439 -0.0197  0.0583
  322MOL0     C44342   4.803  12.309   9.825  0.1957  0.8016 -0.1460
  322MOL0    Cl44343   4.910  12.162   9.780  0.3121  0.0866 -0.0979
  322MOL0     C44344   5.794  12.695  10.167  0.1157 -0.7143  0.0486
  322MOL0     C44345   5.893  12.710  10.274  0.7421 -0.1288  0.3130
  322MOL0     O44346   5.960  12.471  10.550  0.4785  0.5983  0.2065
  322MOL0     C44347   6.289  12.600  10.572 -0.3843  0.6766 -0.7451
  322MOL0     C44348   6.416  12.574  10.601 -0.4487 -0.1395 -0.5109
  322MOL0     N44349   6.904  12.271  10.088  0.3663  0.5398  0.4553
  322MOL0     N44350   6.989  12.236  10.000 -0.7928 -0.2524 -0.0097
  322MOL0     C44351   7.881  11.728  10.572 -1.0774 -0.0614 -0.0879
  322MOL0     C44352   7.971  11.679  10.667 -0.1630  0.3868  0.4685
  322MOL0     C44353   8.300  11.382  10.875  0.2328 -0.7082 -0.4139
  322MOL0     C44354   8.261  11.456  10.988  0.1313  0.1712  0.0853
  322MOL0     C44355   8.307  11.432  11.114  0.0291  0.2463 -0.4030
  322MOL0     C44356   8.408  11.330  11.137  0.4219  0.7543 -0.1245
  322MOL0     O44357   8.462  11.314  11.258 -0.4298  0.3703 -0.0900
  322MOL0     C44358   8.376  11.285  11.364  1.3468 -0.6084  0.2067
  322MOL0     C44359   8.407  11.359  11.499 -0.3245  0.4029  0.5963
  322MOL0     C44360   8.289  11.350  11.597  1.9395 -0.0223  1.2221
  322MOL0     C44361   8.326  11.412  11.730  0.8870 -1.1572  0.0358
  322MOL0     C44362   8.253  11.373  11.849  0.0245  0.4736  0.5220
  322MOL0     C44363   8.186  11.341  11.948  0.5526  0.1746  1.3438
  322MOL0     C44364   8.426  11.237  11.032  0.0976 -0.3324 -0.2030
  322MOL0     C44365   8.383  11.272  10.905 -0.0854 -1.3171  0.4636
  322MOL0     C44366   8.420  11.185  10.793  0.1175  0.8504  0.7731
  322MOL0     H44367   8.199  11.530  10.461 -0.7343  1.2991 -2.2126
  322MOL0     H44368   8.065  11.609  10.305 -1.0791 -0.8502 -0.8382
  322MOL0     H44369   7.722  11.533  10.310 -0.6650 -0.8018 -1.2123
  322MOL0     H44370   7.855  11.568  10.209  0.4714  0.4874  0.5569
  322MOL0     H44371   7.714  11.751  10.098 -1.4540 -0.1492 -2.3078
  322MOL0     H44372   7.638  11.590  10.084  0.4476 -0.0128 -0.9074
  322MOL0     H44373   7.470  11.629  10.218  1.0309 -0.3523  3.0860
  322MOL0     H44374   7.565  11.725  10.326  0.8397 -1.4689  0.4348
  322MOL0     H44375   7.569  11.930  10.197 -1.1120 -0.2875 -0.0273
  322MOL0     H44376   7.490  11.865  10.060  1.0433  2.2720 -0.6076
  322MOL0     H44377   7.374  11.902  10.342  1.0917 -1.2234 -0.7807
  322MOL0     H44378   7.278  11.831  10.205  1.3720 -1.1010 -0.2118
  322MOL0     H44379   7.242  12.070  10.277  2.7049 -2.5980  2.7378
  322MOL0     H44380   7.404  12.111  10.215  0.8908 -1.2040 -0.9002
  322MOL0     H44381   7.154  12.021  10.049  0.8032  1.6746 -1.2263
  322MOL0     H44382   7.318  12.018   9.976  0.1980 -4.4489  1.0625
  322MOL0     H44383   7.330  12.263  10.044 -0.6473 -0.6971  2.8053
  322MOL0     H44384   7.234  12.223   9.908  0.8185  2.4412  0.2620
  322MOL0     H44385   7.162  12.330  10.267 -0.3606 -1.4911 -0.0953
  322MOL0     H44386   6.921  12.491  10.340  0.0160 -0.3001  1.7755
  322MOL0     H44387   6.922  12.332  10.411  3.3657 -0.2533 -0.9908
  322MOL0     H44388   6.715  12.459  10.223 -3.0175  0.1092  0.1931
  322MOL0     H44389   6.679  12.302  10.275 -0.0143 -0.2031  0.8441
  322MOL0     H44390   6.740  12.522  10.480  0.8319 -2.5878  3.5467
  322MOL0     H44391   6.585  12.508  10.403 -0.8537  1.9129  1.7144
  322MOL0     H44392   6.595  12.257  10.519 -2.6789  0.9521  0.9892
  322MOL0     H44393   6.745  12.309  10.587  0.4485 -0.6168 -1.0123
  322MOL0     H44394   6.386  12.244  10.680 -3.1211 -0.9296 -0.3129
  322MOL0     H44395   6.040  12.281  10.698 -0.4830  0.7235  0.2008
  322MOL0     H44396   6.159  12.153  10.650  0.1601 -0.0766  1.7306
  322MOL0     H44397   6.056  12.255  10.539  2.3452 -1.7180 -0.4062
  322MOL0     H44398   6.011  12.396  10.267  0.0806  0.9384  0.6309
  322MOL0     H44399   5.817  12.368  10.112  1.9450 -1.1530  1.1008
  322MOL0     H44400   5.543  12.660  10.112  0.7414 -4.2878  2.0028
  322MOL0     H44401   5.612  12.721   9.954  4.7693 -3.0814 -1.2681
  322MOL0     H44402   5.383  12.681   9.905 -2.3734 -2.1996 -1.2010
  322MOL0     H44403   5.495  12.568   9.833 -1.2974  2.7770 -0.5974
  322MOL0     H44404   5.360  12.480  10.089 -1.7170 -0.4234 -0.4019
  322MOL0     H44405   5.406  12.389   9.951  1.6114  1.6540 -1.0238
  322MOL0     H44406   5.217  12.523   9.818  2.3930  1.3057  0.4102
  322MOL0     H44407   5.178  12.613   9.958  2.1509  2.4760 -2.5916
  322MOL0     H44408   5.118  12.330   9.908  2.2784  0.6520 -0.0486
  322MOL0     H44409   5.110  12.405  10.079 -0.1270 -2.2824  0.1452
  322MOL0     H44410   4.970  12.499   9.818  0.8833 -0.7752 -0.2753
  322MOL0     H44411   4.947  12.570   9.984 -3.0166 -0.4450 -0.1552
  322MOL0     H44412   4.761  12.434   9.995 -1.2245 -0.0912 -1.6879
  322MOL0     H44413   4.889  12.312  10.027 -2.4671 -1.2628  0.0358
  322MOL0     H44414   4.797  12.392   9.753 -5.4463  1.3438  0.4907
  322MOL0     H44415   4.702  12.271   9.841  0.5244  0.3499  0.9105
  322MOL0     H44416   5.730  12.782  10.165  3.5005  2.0040 -1.2111
  322MOL0     H44417   5.908  12.805  10.326  4.3749 -0.0242 -0.6427
  322MOL0     H44418   6.264  12.702  10.542  3.9866  1.6381 -1.8048
  322MOL0     H44419   6.483  12.658  10.615 -0.2800 -0.5302  1.2998
  322MOL0     H44420   7.800  11.798  10.592 -1.7313  0.8894 -4.7154
  322MOL0     H44421   7.939  11.703  10.767  2.2287 -1.1606  1.7040
  322MOL0     H44422   8.197  11.543  10.973  1.2651  0.7350 -1.8116
  322MOL0     H44423   8.263  11.498  11.189  0.5678 -0.7949  0.8707
  322MOL0     H44424   8.272  11.310  11.340  0.9670 -2.9162 -0.7432
  322MOL0     H44425   8.359  11.181  11.394 -0.0230 -0.3529  0.3987
  322MOL0     H44426   8.426  11.463  11.474  1.5079 -0.0214  0.1181
  322MOL0     H44427   8.504  11.326  11.536  1.0033 -1.2503 -3.6631
  322MOL0     H44428   8.197  11.397  11.561  3.0617  2.5356  1.4777
  322MOL0     H44429   8.278  11.241  11.608 -1.6644 -0.1947 -1.9082
  322MOL0     H44430   8.328  11.522  11.727  3.0707 -1.1611 -0.5579
  322MOL0     H44431   8.431  11.391  11.754  1.6132 -1.6081 -3.1486
  322MOL0     H44432   8.137  11.292  12.030  4.6920 -0.5550  3.6549
  322MOL0     H44433   8.491  11.156  11.062  2.9147  2.7301  2.7519
  322MOL0     H44434   8.329  11.138  10.756  1.7017  0.1145 -2.5352
  322MOL0     H44435   8.473  11.238  10.713  3.2313 -0.1479  2.0315
  322MOL0     H44436   8.494  11.112  10.827 -0.1828  0.3636  0.3876
  323MOL0     O44437   8.826  11.406   8.483 -0.7246 -0.7560 -0.1238
  323MOL0     C44438   8.888  11.418   8.381  0.2296  0.9138  0.2216
  323MOL0     O44439   8.881  11.516   8.290 -0.5611 -0.3763 -0.4884
  323MOL0     C44440   8.773  11.599   8.275 -0.2156  0.2653  0.0214
  323MOL0     C44441   8.713  11.590   8.150 -0.3486 -1.2862 -0.6492
  323MOL0     C44442   8.589  11.661   8.127 -0.6030 -0.7849  0.4206
  323MOL0     C44443   8.538  11.734   8.233 -0.2363 -0.4595  0.2279
  323MOL0     O44444   8.414  11.792   8.215  0.3056  0.4851  0.4248
  323MOL0     C44445   8.342  11.860   8.326 -0.3906 -0.1579  0.7987
  323MOL0     C44446   8.391  12.009   8.337 -0.2285  0.4003  0.3653
  323MOL0     C44447   8.348  12.087   8.217  0.3235 -0.1262  0.1672
  323MOL0     C44448   8.380  12.235   8.222  1.2008 -0.8755 -0.4621
  323MOL0     C44449   8.402  12.296   8.087  0.3812  0.1673  0.6917
  323MOL0     C44450   8.266  12.309   8.011  0.1898 -0.2538 -0.2293
  323MOL0     C44451   8.230  12.436   7.940 -0.9421 -0.8628 -0.3764
  323MOL0     C44452   8.076  12.462   7.917 -0.0371  0.6580 -0.2136
  323MOL0     N44453   8.018  12.364   7.818 -0.4491 -0.7029  0.0785
  323MOL0     C44454   8.075  12.315   7.701 -0.3902 -0.5634 -0.1107
  323MOL0     C44455   8.021  12.198   7.671  0.7232 -0.4431 -0.2782
  323MOL0     C44456   8.044  12.113   7.558 -0.2904  0.2303 -0.2814
  323MOL0     C44457   7.916  12.093   7.474  0.0024  0.0857  0.1716
  323MOL0     C44458   7.965  12.014   7.354 -1.0496  0.8240 -0.0947
  323MOL0     C44459   7.862  11.920   7.295  0.2646 -0.2918  0.1085
  323MOL0     O44460   7.913  11.864   7.165  0.7771 -0.2602 -0.1983
  323MOL0     C44461   7.937  11.733   7.146  0.8043 -0.1668  0.2949
  323MOL0     C44462   7.951  11.645   7.248 -0.1337  0.1343 -0.3847
  323MOL0     C44463   7.979  11.516   7.219 -0.1844  0.2365  0.4909
  323MOL0     C44464   7.979  11.422   7.344 -0.0931  0.5349  0.1963
  323MOL0     C44465   8.004  11.463   7.085  1.1820 -0.2055  0.4523
  323MOL0     C44466   8.030  11.316   7.055  1.0457 -0.7242 -0.2158
  323MOL0     O44467   7.938  11.248   6.971 -0.6226  0.1372 -0.5081
  323MOL0     C44468   7.805  11.296   6.969 -0.7475 -1.2659 -0.3047
  323MOL0     C44469   7.745  11.339   6.856  0.8576  0.1753 -0.0741
  323MOL0     C44470   7.617  11.383   6.848  0.5520 -0.6563 -0.2934
  323MOL0     C44471   7.543  11.395   6.965 -0.6497 -0.0792 -0.0406
  323MOL0     O44472   7.410  11.440   6.959  0.2850  0.5507 -0.0652
  323MOL0     C44473   7.323  11.419   6.839 -0.0602  0.1610 -0.0891
  323MOL0     C44474   7.178  11.415   6.870  0.5135 -0.2786 -0.1034
  323MOL0     C44475   7.117  11.553   6.920 -1.0401  0.1385 -0.0658
  323MOL0     C44476   6.974  11.588   6.877 -0.7890  0.1273 -0.5985
  323MOL0     C44477   6.915  11.722   6.930  0.8195 -0.9548  0.4569
  323MOL0     C44478   6.762  11.713   6.905  0.8166 -0.0883 -0.4110
  323MOL0     C44479   6.707  11.850   6.935  0.5496 -0.4952 -0.1037
  323MOL0     C44480   6.747  11.960   6.830 -0.5898  0.3552  0.0272
  323MOL0    Cl44481   6.633  12.100   6.845  0.4038  0.0202  0.1111
  323MOL0     C44482   7.603  11.356   7.086 -0.0496 -0.3191  1.0931
  323MOL0     C44483   7.740  11.310   7.093  0.4364 -0.3610  0.0772
  323MOL0     O44484   8.118  11.265   7.119 -0.4195 -0.7933 -0.2520
  323MOL0     C44485   7.990  11.550   6.981 -0.0409 -0.2225  0.1029
  323MOL0     C44486   7.963  11.691   7.016 -0.5888 -0.4969  0.7010
  323MOL0     N44487   7.917  12.171   7.763  0.6130 -0.4895  0.0770
  323MOL0     N44488   7.923  12.271   7.854 -0.2386  0.1614  0.0882
  323MOL0     C44489   8.605  11.747   8.361  0.2461  0.0742 -0.0250
  323MOL0     C44490   8.730  11.681   8.376  0.8642 -0.0386  0.1202
  323MOL0     C44491   8.982  11.307   8.349  1.0100 -0.9343  0.2345
  323MOL0     C44492   9.035  11.309   8.218 -0.9446  0.6976 -0.0275
  323MOL0     C44493   9.139  11.222   8.184  0.7550 -0.2544  0.1150
  323MOL0     C44494   9.187  11.130   8.273 -0.3060  0.3203 -0.0054
  323MOL0     O44495   9.298  11.045   8.252  0.7272  0.2073 -0.1831
  323MOL0     C44496   9.335  11.011   8.114  0.3487  0.1646  0.4714
  323MOL0     C44497   9.373  10.863   8.112  0.3543 -0.0981 -0.6202
  323MOL0     C44498   9.245  10.771   8.143  0.1638 -0.2316 -0.7446
  323MOL0     C44499   9.210  10.653   8.044  0.1629 -0.4527 -0.1332
  323MOL0     C44500   9.329  10.570   8.021 -0.3560  0.0268  0.7809
  323MOL0     C44501   9.429  10.523   7.979  0.0794  0.7933 -0.1042
  323MOL0     C44502   9.121  11.118   8.396 -0.4428 -0.3301  0.0691
  323MOL0     C44503   9.020  11.205   8.441  0.6139  0.0401 -0.2939
  323MOL0     C44504   8.962  11.184   8.592  0.4078  0.0944 -0.2270
  323MOL0     H44505   8.760  11.531   8.072  0.2137 -1.5496 -0.1182
  323MOL0     H44506   8.531  11.674   8.036 -0.2749  1.4510  0.4706
  323MOL0     H44507   8.350  11.810   8.423  0.7025 -0.6915  0.4447
  323MOL0     H44508   8.235  11.872   8.305 -0.7178  3.7895  3.5498
  323MOL0     H44509   8.337  12.049   8.424  0.2279 -0.4495  1.0518
  323MOL0     H44510   8.498  12.016   8.356 -0.5651 -0.8927  3.4003
  323MOL0     H44511   8.394  12.042   8.128  1.4532 -0.4393  0.8829
  323MOL0     H44512   8.240  12.084   8.202  0.2324  2.0269  0.0774
  323MOL0     H44513   8.291  12.284   8.260  1.6693 -1.5648  1.6535
  323MOL0     H44514   8.476  12.241   8.274  0.0526 -1.2861  1.8047
  323MOL0     H44515   8.477  12.246   8.024  0.4767  1.0585  0.0801
  323MOL0     H44516   8.428  12.402   8.096 -2.6519  0.9390  1.4882
  323MOL0     H44517   8.260  12.227   7.939 -0.8066 -3.7108  3.4266
  323MOL0     H44518   8.182  12.287   8.078  0.6799 -0.7423  0.2257
  323MOL0     H44519   8.286  12.426   7.847 -0.0745 -2.2345  0.2589
  323MOL0     H44520   8.280  12.513   7.999 -1.7369 -0.3644 -0.3437
  323MOL0     H44521   8.018  12.453   8.010 -0.6019 -1.3728 -0.6958
  323MOL0     H44522   8.065  12.568   7.892  3.4643  0.6053 -2.6890
  323MOL0     H44523   8.143  12.369   7.636  1.7181 -0.9489  1.6560
  323MOL0     H44524   8.092  12.023   7.598 -0.3996 -0.4373 -1.6046
  323MOL0     H44525   8.113  12.171   7.496 -1.0698  1.7897  0.2640
  323MOL0     H44526   7.840  12.031   7.523  0.0362 -1.0612 -1.1593
  323MOL0     H44527   7.872  12.187   7.441  0.4257  0.9004  1.8755
  323MOL0     H44528   7.986  12.094   7.283 -2.2050  1.0584 -0.1793
  323MOL0     H44529   8.050  11.950   7.380 -0.5332  2.0492  1.3653
  323MOL0     H44530   7.821  11.844   7.362 -0.4251  2.0988  2.5798
  323MOL0     H44531   7.772  11.978   7.272  1.2423  0.6498 -1.5609
  323MOL0     H44532   7.929  11.671   7.351 -1.3642 -3.2804  0.3312
  323MOL0     H44533   7.984  11.315   7.320 -0.9187  0.4128  0.5577
  323MOL0     H44534   7.892  11.431   7.409  0.3843 -2.1942  1.3912
  323MOL0     H44535   8.065  11.461   7.400 -0.4977  1.1418  0.4014
  323MOL0     H44536   7.790  11.321   6.759 -2.4443 -1.0390 -1.5344
  323MOL0     H44537   7.579  11.392   6.747 -0.0703  1.1003  0.0564
  323MOL0     H44538   7.333  11.508   6.777 -0.7480 -1.4139 -2.6071
  323MOL0     H44539   7.345  11.327   6.784  3.8045  0.7067  0.2677
  323MOL0     H44540   7.125  11.387   6.778  1.4902 -2.2150 -0.1182
  323MOL0     H44541   7.150  11.342   6.946  2.1329  0.8497  1.6528
  323MOL0     H44542   7.179  11.631   6.875 -0.3650  0.9750  2.1766
  323MOL0     H44543   7.128  11.555   7.029  1.1595 -1.7208 -0.1980
  323MOL0     H44544   6.920  11.500   6.910  2.0178 -1.1461  0.9330
  323MOL0     H44545   6.976  11.579   6.768  4.0372 -0.7662 -0.6526
  323MOL0     H44546   6.945  11.750   7.032  1.3970  1.0226 -0.2240
  323MOL0     H44547   6.947  11.806   6.869 -0.0219 -2.2102 -1.8120
  323MOL0     H44548   6.713  11.649   6.980 -0.9418 -1.6705 -2.7482
  323MOL0     H44549   6.718  11.675   6.812  1.4258 -1.5312 -0.1324
  323MOL0     H44550   6.717  11.889   7.037 -2.5114 -2.0187  0.9304
  323MOL0     H44551   6.597  11.850   6.938  0.5308  1.7799  1.6348
  323MOL0     H44552   6.745  11.931   6.724  0.6379  0.5811 -0.0747
  323MOL0     H44553   6.849  11.997   6.841 -1.0399  1.5729  0.2939
  323MOL0     H44554   7.539  11.359   7.174 -0.5821 -2.9587  0.8666
  323MOL0     H44555   7.779  11.279   7.189 -1.8667  0.9393  1.5299
  323MOL0     H44556   7.997  11.530   6.874 -1.7755 -1.0730  0.1018
  323MOL0     H44557   7.968  11.756   6.929  3.1226  0.4541  1.4419
  323MOL0     H44558   8.581  11.823   8.434  1.1169  1.6603 -1.3162
  323MOL0     H44559   8.787  11.714   8.462  0.1115  5.0266 -1.0494
  323MOL0     H44560   9.011  11.394   8.155 -0.1551 -0.8647 -2.5700
  323MOL0     H44561   9.192  11.246   8.093  1.0063 -2.2512 -0.2966
  323MOL0     H44562   9.248  11.018   8.048  0.3535 -2.6103  0.0527
  323MOL0     H44563   9.408  11.082   8.075 -2.3696  1.3314 -3.0463
  323MOL0     H44564   9.452  10.850   8.186  0.0374  1.3172  0.0023
  323MOL0     H44565   9.416  10.845   8.013  2.7789 -1.2723  0.5667
  323MOL0     H44566   9.267  10.727   8.240  0.5400  0.8851 -0.3102
  323MOL0     H44567   9.160  10.839   8.159 -0.1339 -0.9373  0.8246
  323MOL0     H44568   9.181  10.702   7.950 -0.9963 -1.0263 -0.0991
  323MOL0     H44569   9.142  10.586   8.098  1.6532 -1.4888  0.5213
  323MOL0     H44570   9.521  10.482   7.942  1.9998  2.6432  2.2209
  323MOL0     H44571   9.155  11.046   8.470 -0.5737 -1.6725 -1.1097
  323MOL0     H44572   9.009  11.092   8.627  1.2258 -0.6601 -3.0482
  323MOL0     H44573   8.986  11.263   8.664  2.1698 -0.6364  0.0228
  323MOL0     H44574   8.852  11.179   8.590  0.0546  4.2386 -2.5388
  324MOL0     O44575  10.363   4.451   6.656  0.4271  0.4065 -0.2068
  324MOL0     C44576  10.402   4.418   6.548 -0.1971  0.6858 -0.6222
  324MOL0     O44577  10.330   4.336   6.460 -0.2425 -0.4652  0.4972
  324MOL0     C44578  10.211   4.290   6.494 -0.1760  0.3076 -0.0849
  324MOL0     C44579  10.198   4.155   6.467 -0.8348  0.9208 -0.3491
  324MOL0     C44580  10.086   4.081   6.502  0.9690  0.9124  0.9722
  324MOL0     C44581   9.978   4.153   6.560 -0.0461 -0.1992 -0.2028
  324MOL0     O44582   9.873   4.078   6.597  1.0062  0.3245  0.4021
  324MOL0     C44583   9.787   4.128   6.705 -0.4102  0.5691  0.1746
  324MOL0     C44584   9.681   4.015   6.739  0.3845 -0.6950  0.2649
  324MOL0     C44585   9.566   4.026   6.637 -0.1685  0.2872 -0.4421
  324MOL0     C44586   9.441   3.936   6.687  0.1248  0.7711  0.8351
  324MOL0     C44587   9.341   3.918   6.574 -0.2615 -0.6394  0.6400
  324MOL0     C44588   9.381   3.827   6.461  0.1199 -0.4474 -0.3985
  324MOL0     C44589   9.456   3.696   6.492 -0.1930  0.0702  0.4271
  324MOL0     C44590   9.453   3.619   6.361 -0.6460  0.7687  0.1515
  324MOL0     N44591   9.486   3.471   6.392  1.2966 -0.1220 -0.5430
  324MOL0     C44592   9.607   3.428   6.450 -0.3160  0.7393  0.1243
  324MOL0     C44593   9.603   3.294   6.426  0.5557  0.3115  0.7296
  324MOL0     C44594   9.717   3.212   6.467 -0.2339  0.6906 -1.0806
  324MOL0     C44595   9.688   3.109   6.575  0.4630 -0.1970  0.5686
  324MOL0     C44596   9.663   3.149   6.727 -0.1264 -0.1457  0.4534
  324MOL0     C44597   9.538   3.235   6.749  0.1947  0.3248  0.0393
  324MOL0     O44598   9.519   3.219   6.890  0.5796 -0.3367  0.2099
  324MOL0     C44599   9.487   3.334   6.963 -1.0033 -0.0504 -0.2240
  324MOL0     C44600   9.412   3.438   6.908  0.4338  0.5548  0.6562
  324MOL0     C44601   9.376   3.555   6.980  0.1192 -0.1845  0.6963
  324MOL0     C44602   9.318   3.671   6.897 -0.1733  0.1106 -0.5632
  324MOL0     C44603   9.407   3.555   7.118  0.6329 -0.2682  0.5649
  324MOL0     C44604   9.389   3.680   7.191  1.0073  0.4292 -0.5617
  324MOL0     O44605   9.282   3.757   7.166  0.6941  0.5299  0.4287
  324MOL0     C44606   9.267   3.879   7.237  0.4248 -0.0868 -0.3356
  324MOL0     C44607   9.135   3.912   7.262 -0.1180  0.2052 -0.2351
  324MOL0     C44608   9.103   4.024   7.337 -0.3672  0.3415 -0.8457
  324MOL0     C44609   9.210   4.116   7.361 -0.4688  1.1694 -0.1655
  324MOL0     O44610   9.178   4.237   7.414  0.2792  0.3673 -0.2043
  324MOL0     C44611   9.285   4.333   7.415  1.6203 -1.2551 -0.0580
  324MOL0     C44612   9.236   4.475   7.452 -0.5050 -0.5776 -0.4354
  324MOL0     C44613   9.196   4.569   7.340 -0.3284  0.0344 -0.0661
  324MOL0     C44614   9.316   4.623   7.252  0.0286  0.1065 -0.0193
  324MOL0     C44615   9.252   4.707   7.139  0.2865  0.2820 -0.6483
  324MOL0     C44616   9.350   4.765   7.036  0.3705  0.6969 -0.2547
  324MOL0     C44617   9.290   4.851   6.932 -0.2295  0.8672 -0.4299
  324MOL0     C44618   9.392   4.934   6.868  0.7834 -1.6230  0.6263
  324MOL0    Cl44619   9.341   5.043   6.721  0.2567 -0.1806  0.1237
  324MOL0     C44620   9.346   4.085   7.327 -0.3884  1.0879  1.2729
  324MOL0     C44621   9.369   3.968   7.255  0.9659  0.1058 -0.5214
  324MOL0     O44622   9.475   3.705   7.274 -0.0269  0.1290  0.1380
  324MOL0     C44623   9.476   3.450   7.177 -0.0808  0.3344  0.5386
  324MOL0     C44624   9.515   3.343   7.090  0.5982  0.0463 -0.5731
  324MOL0     N44625   9.476   3.255   6.367  0.1474  0.2321  0.5189
  324MOL0     N44626   9.405   3.365   6.350 -0.2495  0.1074  0.2274
  324MOL0     C44627   9.994   4.293   6.596 -0.3138  0.9039  1.3662
  324MOL0     C44628  10.113   4.354   6.566 -0.1425 -0.4879  0.6199
  324MOL0     C44629  10.534   4.472   6.512 -0.9104 -0.0438  0.1539
  324MOL0     C44630  10.557   4.606   6.501 -0.3748  0.4013  0.1104
  324MOL0     C44631  10.681   4.659   6.473 -0.9006 -0.5771  0.7217
  324MOL0     C44632  10.792   4.575   6.464  1.5805 -0.0563 -0.0945
  324MOL0     O44633  10.909   4.626   6.420 -0.2818 -0.5171 -0.5551
  324MOL0     C44634  10.995   4.671   6.526 -0.6376  0.1878  0.6962
  324MOL0     C44635  11.074   4.551   6.577 -0.6933  0.6492 -0.4101
  324MOL0     C44636  11.199   4.618   6.644  0.2542  0.5722 -0.0669
  324MOL0     C44637  11.292   4.531   6.729  0.5999  0.1126  0.0106
  324MOL0     C44638  11.425   4.574   6.709  0.0754 -0.0857  0.0991
  324MOL0     C44639  11.531   4.627   6.685  0.4189 -1.3330  0.0156
  324MOL0     C44640  10.764   4.439   6.465  0.3429  0.8572 -0.6975
  324MOL0     C44641  10.642   4.381   6.497 -0.4758 -1.1544  0.3203
  324MOL0     C44642  10.626   4.233   6.507  0.6435 -0.5633 -0.4768
  324MOL0     H44643  10.265   4.084   6.419 -1.5561  1.3520 -2.0809
  324MOL0     H44644  10.081   3.973   6.489 -0.6867  1.1542 -1.0293
  324MOL0     H44645   9.749   4.224   6.668 -0.2652  0.7912  0.5986
  324MOL0     H44646   9.852   4.144   6.791  0.3858  1.2992 -0.5447
  324MOL0     H44647   9.725   3.915   6.734 -0.0101 -0.8946  0.7034
  324MOL0     H44648   9.659   4.035   6.844  0.8509 -2.0463  0.6376
  324MOL0     H44649   9.539   4.131   6.619 -1.5175 -0.1427 -1.0359
  324MOL0     H44650   9.600   3.993   6.538  1.4467  0.8045 -0.0874
  324MOL0     H44651   9.479   3.835   6.704 -1.5223 -0.1806 -0.7679
  324MOL0     H44652   9.388   3.967   6.778  2.0794  2.7849  1.4076
  324MOL0     H44653   9.316   4.018   6.537  0.2263 -0.8350 -0.2378
  324MOL0     H44654   9.251   3.866   6.607 -2.3714  1.8222 -0.8585
  324MOL0     H44655   9.283   3.804   6.419 -1.3540  1.4323  1.7943
  324MOL0     H44656   9.454   3.879   6.397 -0.9712  3.1022  0.9994
  324MOL0     H44657   9.397   3.648   6.570  0.3389  0.1294  0.8702
  324MOL0     H44658   9.556   3.711   6.534  0.5049 -0.3489 -1.0030
  324MOL0     H44659   9.356   3.622   6.311 -0.3456  0.2678 -0.4670
  324MOL0     H44660   9.530   3.654   6.291 -2.6498  2.3185 -1.4049
  324MOL0     H44661   9.683   3.484   6.502 -0.9799  1.2680  0.5318
  324MOL0     H44662   9.787   3.276   6.522  0.8989 -2.7629  1.8644
  324MOL0     H44663   9.762   3.163   6.381 -1.2893 -1.8684 -0.2620
  324MOL0     H44664   9.599   3.059   6.537 -0.4810 -0.5921  3.1205
  324MOL0     H44665   9.773   3.040   6.568  0.5174 -0.1307  0.5727
  324MOL0     H44666   9.655   3.061   6.793  0.3925 -0.3783  0.2143
  324MOL0     H44667   9.747   3.205   6.770  1.3425 -0.4577 -1.8400
  324MOL0     H44668   9.552   3.340   6.722 -0.4051  1.5293  3.8055
  324MOL0     H44669   9.460   3.192   6.686  0.4682  0.1472 -0.1809
  324MOL0     H44670   9.383   3.433   6.803  3.2660 -1.6072 -0.1297
  324MOL0     H44671   9.215   3.682   6.933  0.6271 -1.1301  2.3475
  324MOL0     H44672   9.322   3.648   6.790  0.3597 -0.9811 -0.3231
  324MOL0     H44673   9.374   3.765   6.906  0.3050 -0.3326  1.6435
  324MOL0     H44674   9.058   3.841   7.234  0.2447 -0.1634 -0.3160
  324MOL0     H44675   9.003   4.045   7.371 -1.5784 -0.5136 -3.5633
  324MOL0     H44676   9.355   4.314   7.497  0.9712  1.1335  1.1317
  324MOL0     H44677   9.336   4.334   7.318 -0.5726 -0.7284 -1.2861
  324MOL0     H44678   9.159   4.485   7.530  0.5300 -3.9561  1.1971
  324MOL0     H44679   9.317   4.539   7.489 -1.4709 -0.7105  2.1617
  324MOL0     H44680   9.149   4.660   7.378  1.2703 -1.3771  6.5752
  324MOL0     H44681   9.117   4.521   7.282  0.1420 -0.3909 -0.3680
  324MOL0     H44682   9.382   4.543   7.216 -1.4432 -0.8782 -0.5850
  324MOL0     H44683   9.386   4.678   7.316  0.7562 -2.0880  1.1690
  324MOL0     H44684   9.193   4.629   7.090 -0.4608 -1.1744  2.2744
  324MOL0     H44685   9.183   4.782   7.180  2.3086  0.2901  3.2385
  324MOL0     H44686   9.400   4.684   6.982 -2.8034 -1.4950 -0.0976
  324MOL0     H44687   9.421   4.823   7.097 -0.8190 -3.1606  5.5954
  324MOL0     H44688   9.213   4.916   6.976 -1.1383  0.3139 -1.1495
  324MOL0     H44689   9.228   4.786   6.870 -1.3416  0.4285  1.0648
  324MOL0     H44690   9.479   4.887   6.822  2.2027  1.1175  0.3042
  324MOL0     H44691   9.424   4.991   6.956 -0.9045 -0.7318  0.7207
  324MOL0     H44692   9.437   4.143   7.339 -0.0329  0.0761  4.9622
  324MOL0     H44693   9.469   3.944   7.221  1.0668 -0.5089  0.1882
  324MOL0     H44694   9.491   3.440   7.284 -3.3177 -2.1996  0.9224
  324MOL0     H44695   9.555   3.253   7.135  2.4090  1.2179  0.2557
  324MOL0     H44696   9.913   4.350   6.641 -0.8046  0.9199  0.4974
  324MOL0     H44697  10.112   4.461   6.583 -0.5603 -0.4818  0.5652
  324MOL0     H44698  10.474   4.675   6.509 -4.5608 -4.0070 -0.4082
  324MOL0     H44699  10.692   4.767   6.470 -3.9459 -0.1791  0.1825
  324MOL0     H44700  11.053   4.762   6.507 -2.7891  1.7340  1.1083
  324MOL0     H44701  10.936   4.709   6.610  0.2623  0.7058  1.1179
  324MOL0     H44702  11.091   4.493   6.486 -1.3276  1.4835 -1.0829
  324MOL0     H44703  11.019   4.494   6.653  1.3587  0.8716  1.3227
  324MOL0     H44704  11.251   4.669   6.562  2.8312  0.8423  1.6263
  324MOL0     H44705  11.151   4.693   6.707  0.0574 -0.8440  1.5349
  324MOL0     H44706  11.272   4.427   6.700  2.2836 -0.2123 -0.0758
  324MOL0     H44707  11.266   4.550   6.833 -2.5438 -0.4074 -0.5719
  324MOL0     H44708  11.618   4.687   6.668  0.3961 -0.0674  3.5462
  324MOL0     H44709  10.848   4.373   6.447 -2.6969 -2.3413 -5.6190
  324MOL0     H44710  10.547   4.196   6.441  0.3883  2.0535 -1.7904
  324MOL0     H44711  10.725   4.192   6.485  1.5862 -1.4414  4.3925
  324MOL0     H44712  10.610   4.222   6.614  3.0598  2.0387  0.3012
  325MOL0     O44713   7.016   9.948   1.986  0.0024  0.0131 -0.7030
  325MOL0     C44714   7.127  10.007   1.954 -0.8665 -0.7121 -0.2530
  325MOL0     O44715   7.201   9.973   1.838 -0.0812  0.0765  0.2391
  325MOL0     C44716   7.202   9.846   1.784 -0.5315  0.6648  1.2367
  325MOL0     C44717   7.325   9.772   1.778 -0.5950  0.7890 -0.2172
  325MOL0     C44718   7.334   9.648   1.705  0.0732  0.0038 -0.5061
  325MOL0     C44719   7.215   9.592   1.653  0.2120 -0.0985 -1.1401
  325MOL0     O44720   7.194   9.467   1.598  0.4159  0.4361  0.3855
  325MOL0     C44721   7.315   9.397   1.551 -0.8772  0.4911  0.0106
  325MOL0     C44722   7.359   9.456   1.423 -1.0189  0.2474  0.3386
  325MOL0     C44723   7.249   9.469   1.314 -0.0626 -1.2546  0.1329
  325MOL0     C44724   7.301   9.494   1.169  0.4487  0.7794 -0.1563
  325MOL0     C44725   7.313   9.366   1.090 -0.4938 -0.6596 -0.5054
  325MOL0     C44726   7.400   9.384   0.974  0.1821 -0.1220 -0.8496
  325MOL0     C44727   7.433   9.264   0.878 -0.1763  0.0164  0.2544
  325MOL0     C44728   7.537   9.167   0.933 -0.8098 -0.5072  0.7810
  325MOL0     N44729   7.648   9.161   0.834  0.4597  0.9687 -0.3468
  325MOL0     C44730   7.645   9.084   0.728  1.1345 -0.8578 -0.0872
  325MOL0     C44731   7.780   9.083   0.689 -0.1615 -0.0682  0.2875
  325MOL0     C44732   7.845   9.009   0.577  0.0497  0.0634  0.0520
  325MOL0     C44733   7.767   8.882   0.541 -0.7480  0.0036 -0.1571
  325MOL0     C44734   7.843   8.796   0.429 -0.3658 -0.7229 -0.4205
  325MOL0     C44735   7.765   8.676   0.399  0.3360 -0.7106 -0.2511
  325MOL0     O44736   7.810   8.588   0.297  0.2166 -0.2127  0.8339
  325MOL0     C44737   7.732   8.471   0.286 -0.3799 -0.7752 -0.0282
  325MOL0     C44738   7.793   8.371   0.211 -0.1208  0.2040 -0.3856
  325MOL0     C44739   7.732   8.252   0.171 -1.1055  0.0700  0.5500
  325MOL0     C44740   7.813   8.154   0.087  0.1864  0.0616 -0.2568
  325MOL0     C44741   7.592   8.236   0.201 -0.2727  0.5648 -0.3836
  325MOL0     C44742   7.510   8.113   0.164 -0.1569  0.2492  0.3414
  325MOL0     O44743   7.375   8.124   0.153 -0.0883 -0.1997  0.0076
  325MOL0     C44744   7.281   8.022   0.180 -0.2136  0.7681  0.4919
  325MOL0     C44745   7.148   8.054   0.179  0.5982  0.1274  0.2542
  325MOL0     C44746   7.053   7.955   0.218  0.0607 -0.2400  0.6491
  325MOL0     C44747   7.093   7.830   0.267  0.6020 -1.0978  0.3051
  325MOL0     O44748   7.011   7.733   0.326 -1.1364  0.3239 -0.3768
  325MOL0     C44749   6.886   7.709   0.272 -0.0503 -0.9369  0.1823
  325MOL0     C44750   6.819   7.583   0.318  1.1514 -0.1160 -0.0751
  325MOL0     C44751   6.910   7.464   0.296 -0.7506  0.0505 -0.1495
  325MOL0     C44752   6.896   7.408   0.155  0.5397  1.0958  0.4070
  325MOL0     C44753   6.880   7.251   0.151  0.5274 -0.3213 -0.3784
  325MOL0     C44754   7.017   7.180   0.180  0.3309  0.4078  0.6182
  325MOL0     C44755   7.017   7.036   0.148 -0.8031  0.5658 -0.5895
  325MOL0     C44756   6.940   6.947   0.244 -0.5203  0.3890  0.4013
  325MOL0    Cl44757   7.057   6.844   0.325 -0.0249 -0.2803  0.3342
  325MOL0     C44758   7.226   7.802   0.263 -0.3498  0.2770 -0.6660
  325MOL0     C44759   7.319   7.891   0.218  0.2672 -0.4740  0.0197
  325MOL0     O44760   7.574   8.005   0.142  0.4351  0.3453  0.4126
  325MOL0     C44761   7.534   8.336   0.286  0.0341 -0.4060  0.1463
  325MOL0     C44762   7.597   8.455   0.314  0.5683  0.9776 -0.6659
  325MOL0     N44763   7.853   9.179   0.762 -0.1855  0.4682  1.3550
  325MOL0     N44764   7.767   9.224   0.849  0.0660 -0.2147 -0.3338
  325MOL0     C44765   7.094   9.655   1.672 -0.8086 -0.2069  0.2204
  325MOL0     C44766   7.090   9.782   1.728 -0.9221  0.1066 -0.0729
  325MOL0     C44767   7.174  10.119   2.033  1.2287 -0.0228  0.1234
  325MOL0     C44768   7.089  10.217   2.082  0.5305  0.4657  0.2968
  325MOL0     C44769   7.125  10.321   2.159  0.0855 -0.5785  0.7523
  325MOL0     C44770   7.258  10.332   2.210 -0.1543  0.6729  0.4059
  325MOL0     O44771   7.296  10.437   2.281 -0.2474  0.2845 -0.6369
  325MOL0     C44772   7.400  10.515   2.206  0.2829 -0.3796  0.6571
  325MOL0     C44773   7.434  10.654   2.266  0.5507 -0.2207 -1.2064
  325MOL0     C44774   7.456  10.651   2.419 -0.0410 -1.0196  0.5148
  325MOL0     C44775   7.528  10.774   2.469  0.2872 -0.6889 -0.0741
  325MOL0     C44776   7.549  10.748   2.612  0.3812  0.0414 -0.1676
  325MOL0     C44777   7.554  10.727   2.735  0.0334  0.5018  0.4291
  325MOL0     C44778   7.343  10.229   2.171  1.2632 -0.3459  0.4034
  325MOL0     C44779   7.303  10.120   2.081 -0.2904 -0.2758 -0.6805
  325MOL0     C44780   7.406  10.015   2.059  0.1653  0.5361 -0.6320
  325MOL0     H44781   7.417   9.808   1.822 -1.0371  1.1820  0.3989
  325MOL0     H44782   7.432   9.603   1.692  0.3455  0.0594  1.2084
  325MOL0     H44783   7.282   9.296   1.525 -1.3865  1.0984 -1.9151
  325MOL0     H44784   7.399   9.398   1.620  0.4937  0.7329 -1.5946
  325MOL0     H44785   7.420   9.546   1.428  0.7478 -0.9288  0.6182
  325MOL0     H44786   7.432   9.382   1.389 -0.1002  1.4692 -0.3986
  325MOL0     H44787   7.190   9.377   1.319 -2.1586  0.1041  1.5848
  325MOL0     H44788   7.184   9.551   1.343  0.4154  0.1067 -2.3919
  325MOL0     H44789   7.239   9.567   1.116  1.0751  0.3210 -1.5582
  325MOL0     H44790   7.394   9.553   1.173  0.7711  0.3217 -0.7202
  325MOL0     H44791   7.218   9.326   1.053 -0.7741  0.3344 -0.8901
  325MOL0     H44792   7.365   9.292   1.152 -1.1456 -0.9645 -0.3146
  325MOL0     H44793   7.343   9.462   0.923 -1.2398 -1.7941 -1.9078
  325MOL0     H44794   7.498   9.426   1.001  0.5622 -0.8260 -1.0974
  325MOL0     H44795   7.457   9.301   0.778  0.8607 -3.2791 -0.8480
  325MOL0     H44796   7.342   9.205   0.869 -1.8851  2.7206 -1.7973
  325MOL0     H44797   7.582   9.191   1.030  1.6294  0.7720 -0.5519
  325MOL0     H44798   7.494   9.067   0.943  0.9404 -1.2936  0.8820
  325MOL0     H44799   7.564   9.032   0.677  0.4840  1.0496 -1.0665
  325MOL0     H44800   7.949   8.982   0.600  0.6166  2.4744  0.6332
  325MOL0     H44801   7.845   9.073   0.488 -0.0581  2.0851  1.4379
  325MOL0     H44802   7.768   8.818   0.630 -2.3546 -3.3900 -2.3838
  325MOL0     H44803   7.663   8.908   0.520 -2.2879 -3.0688  2.6575
  325MOL0     H44804   7.854   8.851   0.335  0.8879 -0.2639 -0.0393
  325MOL0     H44805   7.943   8.765   0.460 -0.3283 -0.2993 -0.0945
  325MOL0     H44806   7.765   8.617   0.491  1.0616  0.8623  0.8017
  325MOL0     H44807   7.667   8.716   0.372  1.3764  1.5364 -0.8706
  325MOL0     H44808   7.896   8.383   0.179 -0.3552  1.7810 -0.6502
  325MOL0     H44809   7.819   8.059   0.140  0.9245  1.3915  2.2038
  325MOL0     H44810   7.916   8.189   0.079  0.2667  0.5197  2.0140
  325MOL0     H44811   7.766   8.140  -0.011 -1.0121  0.5453  0.2250
  325MOL0     H44812   7.107   8.151   0.153  0.8295 -0.3573 -2.1263
  325MOL0     H44813   6.946   7.970   0.215 -0.3844 -3.0537 -0.5056
  325MOL0     H44814   6.820   7.795   0.293 -0.1302 -1.3862  1.9027
  325MOL0     H44815   6.903   7.706   0.164  0.4050 -0.5083  0.2403
  325MOL0     H44816   6.787   7.597   0.421 -1.2237 -3.2353 -0.2500
  325MOL0     H44817   6.727   7.585   0.260 -1.0778  6.2991  2.7851
  325MOL0     H44818   6.891   7.393   0.377 -1.8380 -1.0028 -1.3034
  325MOL0     H44819   7.010   7.504   0.316 -1.5135  1.9096  0.2622
  325MOL0     H44820   6.978   7.443   0.092 -1.8666  0.8588 -3.1794
  325MOL0     H44821   6.802   7.440   0.110 -0.3681 -2.6754 -0.7702
  325MOL0     H44822   6.800   7.215   0.217 -1.2708 -0.2935 -2.4288
  325MOL0     H44823   6.849   7.220   0.050 -0.8362  1.3059 -0.4941
  325MOL0     H44824   7.036   7.197   0.287 -1.5575  0.6163  0.9574
  325MOL0     H44825   7.087   7.225   0.108  0.5778 -0.8932  0.0280
  325MOL0     H44826   7.116   6.994   0.131 -0.5531  1.7039 -2.1715
  325MOL0     H44827   6.974   7.023   0.048 -2.1633  4.0266 -0.5705
  325MOL0     H44828   6.868   6.891   0.184 -1.0635  1.1201  0.3493
  325MOL0     H44829   6.885   7.010   0.315 -2.0707 -1.6549  1.1017
  325MOL0     H44830   7.256   7.707   0.306 -2.1689  0.7232  1.7861
  325MOL0     H44831   7.418   7.847   0.211  0.6821  0.6565 -3.2187
  325MOL0     H44832   7.429   8.325   0.314 -0.2781  2.3799  0.4105
  325MOL0     H44833   7.546   8.534   0.368 -0.4274  0.6182 -1.0673
  325MOL0     H44834   7.000   9.611   1.640 -0.7312 -1.7804  1.9796
  325MOL0     H44835   6.990   9.822   1.734 -1.2021 -0.5675 -0.1211
  325MOL0     H44836   6.987  10.213   2.044 -0.0490 -1.7304  1.8410
  325MOL0     H44837   7.049  10.396   2.175  0.3921  0.0871 -0.7413
  325MOL0     H44838   7.492  10.456   2.205  0.8017  0.1731  4.0004
  325MOL0     H44839   7.364  10.529   2.103  2.8401 -0.9653 -0.3906
  325MOL0     H44840   7.347  10.719   2.254 -0.6743 -1.6698 -0.6634
  325MOL0     H44841   7.513  10.712   2.219 -1.4015  3.3092 -0.4446
  325MOL0     H44842   7.361  10.648   2.474 -0.7991 -2.1217 -0.7943
  325MOL0     H44843   7.516  10.561   2.433  0.6727 -0.5433  0.6032
  325MOL0     H44844   7.473  10.866   2.445  2.5934  1.5906  2.5997
  325MOL0     H44845   7.615  10.787   2.403 -0.0807 -0.4169 -0.5109
  325MOL0     H44846   7.548  10.699   2.838 -3.3174  0.4389  0.3157
  325MOL0     H44847   7.440  10.233   2.219  0.4838 -0.7447  2.1036
  325MOL0     H44848   7.482  10.056   1.992  2.2848 -0.8900  0.7593
  325MOL0     H44849   7.441   9.981   2.157 -0.8978  2.8600  0.6325
  325MOL0     H44850   7.372   9.920   2.016  5.4489 -2.2124  0.4678
  326MOL0     O44851   9.262   7.303   1.584 -0.1532  1.0591  0.5539
  326MOL0     C44852   9.138   7.310   1.567  0.0961 -0.6713 -0.1370
  326MOL0     O44853   9.065   7.420   1.586 -0.6977 -0.2416 -0.1855
  326MOL0     C44854   9.128   7.535   1.621  0.6101  0.1076 -0.1230
  326MOL0     C44855   9.144   7.640   1.530 -0.0969  0.6541  0.4287
  326MOL0     C44856   9.201   7.754   1.574 -0.6337 -0.2389 -0.0631
  326MOL0     C44857   9.243   7.769   1.706 -0.7787 -0.5258 -0.4329
  326MOL0     O44858   9.289   7.894   1.765  0.7971 -0.7598  0.0686
  326MOL0     C44859   9.403   7.955   1.716  0.2288 -0.1347 -1.2079
  326MOL0     C44860   9.504   7.962   1.841  1.0180  0.3972 -0.6276
  326MOL0     C44861   9.458   8.041   1.959 -0.2137 -0.3560 -0.0957
  326MOL0     C44862   9.458   8.191   1.939 -0.3359 -0.3440  0.4490
  326MOL0     C44863   9.420   8.267   2.058 -0.1577 -0.7140  0.5197
  326MOL0     C44864   9.441   8.420   2.049 -0.0562  0.7374 -0.4660
  326MOL0     C44865   9.401   8.491   2.174  0.5326  0.3487  0.1662
  326MOL0     C44866   9.393   8.635   2.143  0.2811 -0.9178  0.2405
  326MOL0     N44867   9.287   8.651   2.042  0.9672  0.1834  0.1834
  326MOL0     C44868   9.150   8.618   2.066 -0.6524  0.2625  1.3676
  326MOL0     C44869   9.097   8.632   1.947 -1.5733 -0.3689  0.9024
  326MOL0     C44870   8.958   8.620   1.920 -0.0237 -0.8023 -0.0685
  326MOL0     C44871   8.900   8.700   1.793 -0.7345  0.6423 -1.1781
  326MOL0     C44872   8.747   8.699   1.794  0.3816  0.0064 -0.4629
  326MOL0     C44873   8.684   8.843   1.791 -0.5355  0.0687 -0.2165
  326MOL0     O44874   8.718   8.910   1.909 -0.7648 -0.2439 -0.2937
  326MOL0     C44875   8.633   9.000   1.968  0.4141  0.5755 -1.2277
  326MOL0     C44876   8.519   9.067   1.917  0.5903  0.3970 -1.0822
  326MOL0     C44877   8.450   9.167   1.982  0.8353  0.1484 -0.5251
  326MOL0     C44878   8.339   9.246   1.903 -0.1723  0.1223 -0.1491
  326MOL0     C44879   8.477   9.172   2.122 -0.3441 -0.2670 -0.0857
  326MOL0     C44880   8.400   9.260   2.214 -0.0282  0.8091  0.3248
  326MOL0     O44881   8.440   9.251   2.342 -0.2399 -0.0899  0.5165
  326MOL0     C44882   8.350   9.263   2.442  0.0456  0.2222  0.6674
  326MOL0     C44883   8.215   9.223   2.448  0.7766 -0.8615 -0.8409
  326MOL0     C44884   8.147   9.221   2.574  1.0282 -0.0534 -0.1327
  326MOL0     C44885   8.207   9.277   2.680  1.4910  0.4447 -0.5151
  326MOL0     O44886   8.132   9.267   2.793  0.4926 -0.0471  0.3474
  326MOL0     C44887   8.176   9.340   2.909  0.0051  0.5782 -0.0394
  326MOL0     C44888   8.080   9.301   3.012  1.3504  0.2756 -0.2257
  326MOL0     C44889   7.943   9.383   3.005 -0.4219 -0.3965 -0.1448
  326MOL0     C44890   7.873   9.358   3.143 -0.2361 -0.0870  0.1725
  326MOL0     C44891   7.735   9.437   3.160 -0.3687 -0.7942 -0.6415
  326MOL0     C44892   7.611   9.368   3.090 -0.5880 -0.5848 -0.8913
  326MOL0     C44893   7.478   9.441   3.127  1.0236  0.4758 -0.4024
  326MOL0     C44894   7.357   9.380   3.059 -0.1381  0.6425  0.1141
  326MOL0    Cl44895   7.306   9.237   3.162 -0.0483 -0.1457  0.0797
  326MOL0     C44896   8.335   9.334   2.672 -0.3325 -0.7237  0.0881
  326MOL0     C44897   8.408   9.322   2.556 -0.3987  0.5613  0.5407
  326MOL0     O44898   8.322   9.335   2.170 -0.5914 -0.2339  0.5323
  326MOL0     C44899   8.600   9.123   2.168 -0.3385  0.1516 -0.3306
  326MOL0     C44900   8.668   9.031   2.093  0.2658 -0.0375  0.3499
  326MOL0     N44901   9.200   8.667   1.854 -0.1227 -0.1849 -0.0764
  326MOL0     N44902   9.310   8.684   1.909 -0.3944  0.7963  0.8123
  326MOL0     C44903   9.220   7.668   1.795  0.3317  0.2509 -0.6563
  326MOL0     C44904   9.174   7.550   1.751 -0.2140  0.3874 -0.3925
  326MOL0     C44905   9.061   7.192   1.516 -1.1213 -1.0001 -0.9579
  326MOL0     C44906   8.929   7.175   1.572 -0.0653  1.7781  0.7219
  326MOL0     C44907   8.858   7.048   1.554  0.1081  0.2208 -0.0266
  326MOL0     C44908   8.918   6.944   1.481  0.0347 -0.3845 -0.6804
  326MOL0     O44909   8.862   6.821   1.451 -1.2224  0.7295 -0.6006
  326MOL0     C44910   8.725   6.807   1.504  0.2576 -0.0198 -0.4972
  326MOL0     C44911   8.674   6.669   1.480 -0.1316  0.1816  0.3750
  326MOL0     C44912   8.713   6.571   1.587  0.2633 -0.1626 -0.9608
  326MOL0     C44913   8.707   6.425   1.539 -0.2301 -0.3372  0.3192
  326MOL0     C44914   8.583   6.389   1.472  0.0379 -0.3200 -0.3402
  326MOL0     C44915   8.470   6.386   1.429 -0.7359 -0.3947 -0.6363
  326MOL0     C44916   9.049   6.957   1.448  0.1033  0.6686 -0.5375
  326MOL0     C44917   9.121   7.076   1.466 -0.2905  0.2146 -0.6627
  326MOL0     C44918   9.254   7.063   1.402  0.3928 -0.0469  0.6398
  326MOL0     H44919   9.118   7.627   1.425 -0.0080 -1.1953  0.6058
  326MOL0     H44920   9.207   7.844   1.514 -2.2019  2.5750  3.5851
  326MOL0     H44921   9.369   8.055   1.688  0.5158 -0.3224 -2.3021
  326MOL0     H44922   9.451   7.897   1.636 -1.1941 -2.0947 -0.7210
  326MOL0     H44923   9.511   7.865   1.892  4.3566  1.1778  0.6356
  326MOL0     H44924   9.606   7.992   1.814  1.8386 -3.8202 -2.9978
  326MOL0     H44925   9.367   7.995   1.999  0.1708 -2.0899 -1.0676
  326MOL0     H44926   9.540   8.016   2.026  0.7046  2.7508  0.0699
  326MOL0     H44927   9.556   8.215   1.897 -0.5287 -3.4613 -2.2120
  326MOL0     H44928   9.384   8.216   1.862 -1.4037  0.7171  1.7960
  326MOL0     H44929   9.491   8.239   2.137 -1.6336 -2.8205  1.2050
  326MOL0     H44930   9.315   8.248   2.084 -1.3675  0.1574 -3.1699
  326MOL0     H44931   9.547   8.433   2.027  0.0430  1.7517  0.5410
  326MOL0     H44932   9.390   8.444   1.955 -3.6912 -4.2745 -0.2488
  326MOL0     H44933   9.472   8.478   2.256  1.6077  4.2157  0.0189
  326MOL0     H44934   9.298   8.467   2.204  0.3978 -2.6162 -2.1629
  326MOL0     H44935   9.381   8.694   2.234  0.4086  1.6498 -1.3128
  326MOL0     H44936   9.491   8.661   2.102  0.9015 -2.5379  0.6029
  326MOL0     H44937   9.122   8.612   2.171 -1.6156  3.6699  1.4540
  326MOL0     H44938   8.900   8.661   2.003 -0.1286  1.8918 -1.3667
  326MOL0     H44939   8.960   8.512   1.907  2.7375 -0.7873 -0.3055
  326MOL0     H44940   8.954   8.795   1.800  1.2761 -0.5746  1.1136
  326MOL0     H44941   8.938   8.637   1.712  2.2871 -0.0481  0.6319
  326MOL0     H44942   8.707   8.627   1.722 -1.9224 -0.9155  1.5733
  326MOL0     H44943   8.711   8.665   1.892 -1.8092  1.2587 -0.7705
  326MOL0     H44944   8.711   8.902   1.702  1.5173 -1.2286 -0.5183
  326MOL0     H44945   8.576   8.828   1.785 -1.0401  0.0206  4.9632
  326MOL0     H44946   8.493   9.050   1.813 -0.6686  0.9273 -0.8598
  326MOL0     H44947   8.326   9.350   1.935  1.1506 -0.3851  2.2586
  326MOL0     H44948   8.241   9.200   1.915 -0.2544 -0.1732 -1.7372
  326MOL0     H44949   8.354   9.242   1.794  0.0758 -3.1932 -0.0881
  326MOL0     H44950   8.169   9.178   2.360 -1.4046  0.4375 -0.4361
  326MOL0     H44951   8.047   9.179   2.571  0.5463  1.0648 -0.3282
  326MOL0     H44952   8.281   9.311   2.923 -0.0958  0.1631 -0.1266
  326MOL0     H44953   8.173   9.447   2.889 -1.8344  0.1642 -2.3960
  326MOL0     H44954   8.049   9.198   2.996 -0.8193  0.8018  0.2853
  326MOL0     H44955   8.127   9.312   3.110  1.3748 -4.0090  0.4267
  326MOL0     H44956   7.880   9.340   2.927 -0.2621  3.3616 -2.5722
  326MOL0     H44957   7.948   9.487   2.974  0.6027 -1.1946 -2.8918
  326MOL0     H44958   7.943   9.399   3.217 -0.7926  3.4133 -1.0348
  326MOL0     H44959   7.856   9.251   3.157 -2.0923 -0.1502 -1.9755
  326MOL0     H44960   7.727   9.435   3.269  2.3543  1.0730 -0.2901
  326MOL0     H44961   7.742   9.542   3.130 -3.1495  0.5973  2.7835
  326MOL0     H44962   7.602   9.266   3.128 -3.8694  1.1121  3.7049
  326MOL0     H44963   7.622   9.355   2.982 -1.8093 -1.0499 -0.9782
  326MOL0     H44964   7.482   9.540   3.080 -1.6938  0.8304 -0.0401
  326MOL0     H44965   7.469   9.453   3.235  1.1722  2.6383 -0.5884
  326MOL0     H44966   7.390   9.360   2.957 -1.9800 -0.8388 -0.2395
  326MOL0     H44967   7.278   9.454   3.066  0.1062  0.9030  0.1509
  326MOL0     H44968   8.372   9.367   2.769 -0.1405  0.8427 -0.4869
  326MOL0     H44969   8.512   9.353   2.551 -0.4789  1.1665  2.1883
  326MOL0     H44970   8.643   9.149   2.264 -1.1885  0.0517  0.0921
  326MOL0     H44971   8.764   8.998   2.131 -0.1248  0.7561  2.1454
  326MOL0     H44972   9.250   7.682   1.898  0.1769  2.4886 -0.8804
  326MOL0     H44973   9.175   7.468   1.822  0.5537 -0.3500 -1.2393
  326MOL0     H44974   8.868   7.249   1.623  0.4028 -0.7154  5.3587
  326MOL0     H44975   8.760   7.041   1.601 -1.0442  3.6469 -1.5999
  326MOL0     H44976   8.721   6.834   1.610  0.0327 -1.5466 -0.0966
  326MOL0     H44977   8.664   6.885   1.458  0.0958  0.1411 -0.0157
  326MOL0     H44978   8.705   6.632   1.382 -3.4842  2.3906 -1.6914
  326MOL0     H44979   8.565   6.671   1.474 -0.0499  2.6070 -1.4995
  326MOL0     H44980   8.816   6.579   1.623  0.3694 -3.7916 -0.1739
  326MOL0     H44981   8.639   6.583   1.667  0.5676 -2.1424 -0.3480
  326MOL0     H44982   8.716   6.355   1.623 -1.5833 -1.4800 -0.4454
  326MOL0     H44983   8.796   6.412   1.476  1.4048  1.2403  2.1507
  326MOL0     H44984   8.365   6.395   1.407 -0.7088 -1.3541 -1.2218
  326MOL0     H44985   9.091   6.867   1.404 -2.4901  0.2313 -2.3361
  326MOL0     H44986   9.251   7.004   1.310  0.4103  2.4935 -1.1215
  326MOL0     H44987   9.277   7.154   1.344 -2.9701 -0.4738 -1.6592
  326MOL0     H44988   9.328   7.025   1.472 -0.4100 -2.8698  0.0869
  327MOL0     O44989   5.068  11.178   5.067  0.8009  0.8077  0.3959
  327MOL0     C44990   5.143  11.208   4.978 -0.1101 -0.1675  0.6940
  327MOL0     O44991   5.183  11.332   4.928 -0.5719  0.0787  0.4427
  327MOL0     C44992   5.097  11.437   4.954  1.0739  0.5147  0.6895
  327MOL0     C44993   5.025  11.486   4.847 -0.5289  0.0289 -0.4806
  327MOL0     C44994   4.938  11.605   4.856 -0.3897  0.4926 -0.8643
  327MOL0     C44995   4.927  11.670   4.977 -0.1950 -0.8420 -0.5423
  327MOL0     O44996   4.841  11.775   5.016 -0.2893  0.8634  0.1207
  327MOL0     C44997   4.831  11.881   4.912  0.3451 -0.2965  0.0749
  327MOL0     C44998   4.873  12.008   4.992 -0.3970 -0.4847 -0.1720
  327MOL0     C44999   4.891  12.137   4.912  0.4786 -0.9715  0.7353
  327MOL0     C45000   4.785  12.166   4.802  0.5776  1.0420 -1.1888
  327MOL0     C45001   4.824  12.300   4.729 -0.1111 -0.5765 -0.3251
  327MOL0     C45002   4.762  12.307   4.591  0.6225 -0.4368  0.9359
  327MOL0     C45003   4.791  12.438   4.525  0.6589  0.5396  0.3322
  327MOL0     C45004   4.706  12.475   4.405  1.1765 -0.2443  0.5065
  327MOL0     N45005   4.709  12.352   4.313  0.2433 -0.0913 -0.1493
  327MOL0     C45006   4.814  12.302   4.245 -0.4027 -1.0173 -0.3405
  327MOL0     C45007   4.758  12.208   4.167 -0.2650  0.2993 -1.3339
  327MOL0     C45008   4.839  12.098   4.098 -0.2175  0.4401 -0.0850
  327MOL0     C45009   4.791  11.961   4.132  0.7575  0.9011  0.4352
  327MOL0     C45010   4.897  11.852   4.088  0.2873 -0.2910 -0.8009
  327MOL0     C45011   4.834  11.710   4.083  0.4038  0.4482 -0.0254
  327MOL0     O45012   4.922  11.624   4.000  0.3460  0.2473  0.1246
  327MOL0     C45013   4.881  11.499   4.002  0.5341  1.0621 -1.0396
  327MOL0     C45014   4.842  11.425   4.120  0.3790 -0.2699  0.0989
  327MOL0     C45015   4.819  11.291   4.115 -1.2210  0.9947  0.7794
  327MOL0     C45016   4.812  11.223   4.246  0.5619 -0.4444 -0.4814
  327MOL0     C45017   4.827  11.218   3.996 -0.8149  0.1395  0.3533
  327MOL0     C45018   4.826  11.071   3.980 -0.1081 -0.8797  0.2362
  327MOL0     O45019   4.851  11.019   3.857  0.7009 -0.7009  0.4634
  327MOL0     C45020   4.859  10.887   3.846  0.0608 -0.0475 -1.2017
  327MOL0     C45021   4.755  10.822   3.785 -0.3533  0.4598  0.3551
  327MOL0     C45022   4.736  10.685   3.778 -0.3064  0.5946 -0.6765
  327MOL0     C45023   4.833  10.609   3.848 -0.4271  0.2424  0.3120
  327MOL0     O45024   4.823  10.470   3.846 -0.1171  0.0344  0.7861
  327MOL0     C45025   4.738  10.425   3.947  0.5353  0.7211 -0.6699
  327MOL0     C45026   4.727  10.274   3.940 -0.7063 -0.2097  0.1688
  327MOL0     C45027   4.610  10.205   3.884 -0.2456  0.0696  0.2497
  327MOL0     C45028   4.609  10.183   3.731 -0.6919  0.0402  0.7643
  327MOL0     C45029   4.532  10.304   3.676  0.3373 -0.0685  0.2980
  327MOL0     C45030   4.512  10.297   3.531  0.0655 -0.5000 -0.4127
  327MOL0     C45031   4.643  10.342   3.452 -0.0438  0.4891  0.2920
  327MOL0     C45032   4.604  10.391   3.314  0.1008 -0.1777  0.3118
  327MOL0    Cl45033   4.541  10.250   3.229 -0.1458  0.3208 -0.0032
  327MOL0     C45034   4.948  10.657   3.907 -0.5806 -0.2144  0.9010
  327MOL0     C45035   4.965  10.798   3.906 -0.7870 -1.0163 -0.2039
  327MOL0     O45036   4.793  11.006   4.086  0.4327  0.4064  0.0422
  327MOL0     C45037   4.861  11.287   3.885  0.8694  0.1316 -1.0327
  327MOL0     C45038   4.885  11.426   3.888 -0.1728  0.0323 -0.0232
  327MOL0     N45039   4.622  12.205   4.191 -0.3591  0.1463 -0.4456
  327MOL0     N45040   4.592  12.309   4.265  0.1248  0.3618  0.4631
  327MOL0     C45041   5.010  11.624   5.083  0.5759 -0.5730  0.0927
  327MOL0     C45042   5.094  11.513   5.075  1.1102 -0.0639 -0.4313
  327MOL0     C45043   5.213  11.093   4.919 -0.0838  0.5202 -0.3380
  327MOL0     C45044   5.337  11.120   4.867 -0.3391 -0.0025  0.3645
  327MOL0     C45045   5.426  11.031   4.806  0.1838  0.1079  0.1709
  327MOL0     C45046   5.386  10.896   4.808  1.0024 -0.8331  1.0358
  327MOL0     O45047   5.465  10.808   4.741  0.0546  0.3850  0.6574
  327MOL0     C45048   5.430  10.780   4.603  0.6244 -0.5509 -0.3517
  327MOL0     C45049   5.531  10.675   4.548  0.1198  0.8722 -0.0011
  327MOL0     C45050   5.680  10.712   4.587 -0.5871  0.4280 -0.0461
  327MOL0     C45051   5.779  10.614   4.514  0.5380  0.3447  0.6957
  327MOL0     C45052   5.790  10.615   4.366 -0.5549  0.1749 -0.2473
  327MOL0     C45053   5.806  10.601   4.243  1.2042 -0.6164  0.8178
  327MOL0     C45054   5.251  10.859   4.847 -0.2138  0.2952 -0.3233
  327MOL0     C45055   5.163  10.955   4.901 -0.2136  0.3416  0.7353
  327MOL0     C45056   5.019  10.909   4.935  0.0293 -0.2656  0.4597
  327MOL0     H45057   5.029  11.448   4.746 -2.2121 -0.8713 -0.2488
  327MOL0     H45058   4.873  11.645   4.780 -0.4630 -0.0550 -1.0974
  327MOL0     H45059   4.731  11.900   4.870  0.8852 -1.1079 -1.6656
  327MOL0     H45060   4.895  11.865   4.825 -1.1055 -3.1528 -0.6210
  327MOL0     H45061   4.803  12.031   5.074 -0.9853  0.4703 -0.9192
  327MOL0     H45062   4.969  11.982   5.038 -1.3391 -0.1665  2.1235
  327MOL0     H45063   4.878  12.230   4.969 -4.1106  1.3985 -3.3441
  327MOL0     H45064   4.986  12.125   4.861  0.7389 -2.6241  1.5620
  327MOL0     H45065   4.785  12.085   4.729 -2.0255  0.2098 -0.4050
  327MOL0     H45066   4.688  12.169   4.853  0.2695  1.0997 -1.7678
  327MOL0     H45067   4.931  12.292   4.709 -0.3494  0.7539 -2.4524
  327MOL0     H45068   4.801  12.389   4.789 -1.9405  0.3596 -2.2788
  327MOL0     H45069   4.797  12.230   4.523 -2.1635 -0.5414 -0.5256
  327MOL0     H45070   4.654  12.289   4.600  0.5307 -1.1664 -1.1876
  327MOL0     H45071   4.898  12.447   4.505  0.8541  1.5989  1.6803
  327MOL0     H45072   4.771  12.527   4.586  0.3638  0.8173 -0.1604
  327MOL0     H45073   4.605  12.479   4.446 -0.2136 -1.3637 -2.5093
  327MOL0     H45074   4.746  12.561   4.351  2.4838 -2.0658 -1.6376
  327MOL0     H45075   4.916  12.338   4.249 -0.4711 -0.7814 -0.6829
  327MOL0     H45076   4.947  12.107   4.115  0.0701 -0.8691 -1.0577
  327MOL0     H45077   4.829  12.101   3.989  1.4795  0.7551 -0.2560
  327MOL0     H45078   4.757  11.938   4.233 -1.0905  1.5264 -0.0088
  327MOL0     H45079   4.701  11.951   4.072 -1.7340 -1.4508  4.1247
  327MOL0     H45080   4.923  11.885   3.987 -1.2866  0.8602 -0.8630
  327MOL0     H45081   4.980  11.838   4.159 -0.5376  0.1015  0.2654
  327MOL0     H45082   4.825  11.673   4.186 -1.3074 -0.9086 -0.6178
  327MOL0     H45083   4.734  11.705   4.040 -0.3270 -1.1515  1.7365
  327MOL0     H45084   4.832  11.475   4.215  0.1244 -0.5979  0.2444
  327MOL0     H45085   4.896  11.154   4.254 -0.1265 -1.3299 -0.8373
  327MOL0     H45086   4.719  11.170   4.270  0.4329  0.9178  2.5345
  327MOL0     H45087   4.825  11.290   4.332  2.3812 -1.0814 -0.2198
  327MOL0     H45088   4.689  10.890   3.733  0.3536  1.2956  0.5221
  327MOL0     H45089   4.655  10.636   3.726 -0.2133  0.2293 -0.4810
  327MOL0     H45090   4.773  10.464   4.043  0.6365  0.0183 -0.4183
  327MOL0     H45091   4.638  10.466   3.931  1.0940  2.3812 -0.0945
  327MOL0     H45092   4.820  10.236   3.898  1.7872  2.1643  3.0595
  327MOL0     H45093   4.732  10.236   4.043 -3.0760 -2.3202 -0.3887
  327MOL0     H45094   4.518  10.255   3.916 -0.7119 -1.9787  2.3645
  327MOL0     H45095   4.613  10.104   3.925 -1.2916  0.0818  0.3967
  327MOL0     H45096   4.564  10.089   3.699 -0.1539  0.1538 -0.3561
  327MOL0     H45097   4.713  10.177   3.700 -0.8334 -2.8398  0.6146
  327MOL0     H45098   4.430  10.303   3.715 -0.2351  0.3780 -1.1139
  327MOL0     H45099   4.586  10.394   3.706  2.9187 -1.5604  0.4939
  327MOL0     H45100   4.428  10.363   3.506 -3.8323 -5.7785 -3.1650
  327MOL0     H45101   4.476  10.195   3.511 -0.6468 -0.2842 -0.2803
  327MOL0     H45102   4.721  10.265   3.454  0.4760  0.8571 -2.2026
  327MOL0     H45103   4.698  10.426   3.496 -0.1386  1.7360 -1.8629
  327MOL0     H45104   4.685  10.442   3.261 -0.3802  2.9232  2.2711
  327MOL0     H45105   4.526  10.466   3.330 -0.1832 -0.6134  0.9928
  327MOL0     H45106   5.029  10.588   3.928  0.2321  0.0413 -1.1466
  327MOL0     H45107   5.061  10.841   3.932 -0.4922 -0.6266 -1.8331
  327MOL0     H45108   4.876  11.228   3.795  1.2969 -4.9369  1.9831
  327MOL0     H45109   4.913  11.481   3.799  0.3024  0.6238  0.4765
  327MOL0     H45110   5.003  11.677   5.177 -2.1382  0.4468 -0.6140
  327MOL0     H45111   5.152  11.468   5.155  0.5478  0.8549  0.5249
  327MOL0     H45112   5.372  11.223   4.868 -1.3601  0.3978 -1.1973
  327MOL0     H45113   5.519  11.069   4.765 -1.3720  0.8791 -2.8646
  327MOL0     H45114   5.330  10.739   4.585  0.2579 -0.6056  1.5462
  327MOL0     H45115   5.436  10.881   4.563 -1.1258  0.4692  1.7190
  327MOL0     H45116   5.525  10.655   4.440  1.9077 -1.9752  0.3311
  327MOL0     H45117   5.505  10.578   4.591  0.0986  1.8514  2.3176
  327MOL0     H45118   5.705  10.815   4.561  2.5673  0.0158  1.0017
  327MOL0     H45119   5.687  10.709   4.696  0.8620  1.3377 -0.0907
  327MOL0     H45120   5.758  10.508   4.532 -0.2944  0.0102 -1.9015
  327MOL0     H45121   5.882  10.635   4.543  0.3747 -0.8712  2.2949
  327MOL0     H45122   5.832  10.589   4.140 -1.4906 -0.0154  0.0011
  327MOL0     H45123   5.226  10.754   4.838  0.3849  0.2267 -1.3004
  327MOL0     H45124   4.961  11.001   4.932 -0.7351 -0.7460 -2.0311
  327MOL0     H45125   4.984  10.834   4.863 -2.0805  3.3312 -2.6079
  327MOL0     H45126   5.033  10.882   5.040  5.3351  0.0108  0.1085
  328MOL0     O45127   3.323   4.055  10.212  0.2653  0.4716  0.4786
  328MOL0     C45128   3.293   3.937  10.234 -0.5223  0.5137  0.3137
  328MOL0     O45129   3.171   3.883  10.252  0.5581 -0.1808  0.3352
  328MOL0     C45130   3.064   3.958  10.257 -0.0887  1.2453 -0.8728
  328MOL0     C45131   2.947   3.919  10.190  0.6606  0.5393  0.7966
  328MOL0     C45132   2.825   3.994  10.187 -0.8796 -0.2685  0.3660
  328MOL0     C45133   2.830   4.121  10.241  0.5171 -0.4803 -1.1586
  328MOL0     O45134   2.715   4.199  10.239  0.3393  0.4389  0.2530
  328MOL0     C45135   2.713   4.344  10.243 -0.5584  0.0203 -0.2437
  328MOL0     C45136   2.699   4.402  10.387  0.0004 -1.2427  1.0498
  328MOL0     C45137   2.639   4.546  10.382 -0.8186  0.5639  0.6717
  328MOL0     C45138   2.618   4.600  10.526 -0.0902 -0.0609 -0.2147
  328MOL0     C45139   2.560   4.747  10.516  0.3913  0.5094 -0.3222
  328MOL0     C45140   2.515   4.790  10.659 -0.3958  0.3996 -0.1152
  328MOL0     C45141   2.500   4.942  10.684  0.2770  0.3063  0.9265
  328MOL0     C45142   2.376   5.000  10.607 -0.2873 -0.4817 -0.4143
  328MOL0     N45143   2.284   5.031  10.713  1.0647 -0.5378 -1.1848
  328MOL0     C45144   2.307   5.132  10.799  0.7454  0.3432  0.0534
  328MOL0     C45145   2.181   5.150  10.855 -0.6029 -0.0091  0.2971
  328MOL0     C45146   2.163   5.268  10.952  0.4919  0.2040  0.6271
  328MOL0     C45147   2.184   5.414  10.882 -0.4487 -0.1491 -0.5932
  328MOL0     C45148   2.074   5.448  10.770 -0.5201 -0.2908  0.6497
  328MOL0     C45149   2.081   5.365  10.642  0.1771  0.1502 -0.6883
  328MOL0     O45150   2.001   5.440  10.547 -0.0901  0.6192  0.8213
  328MOL0     C45151   1.958   5.367  10.433 -0.7637 -0.2743 -0.1564
  328MOL0     C45152   2.039   5.276  10.380  0.1376  0.3707  0.2743
  328MOL0     C45153   2.008   5.208  10.263 -0.1113  0.2633 -0.6272
  328MOL0     C45154   2.116   5.110  10.216  0.4174 -0.5874 -0.5629
  328MOL0     C45155   1.879   5.229  10.202  0.0814  0.2580 -0.4084
  328MOL0     C45156   1.832   5.155  10.079  0.1837  0.8059 -0.6289
  328MOL0     O45157   1.926   5.088  10.015  0.5139 -0.1582  0.3901
  328MOL0     C45158   1.897   4.999   9.915  0.6943  0.2965  0.1582
  328MOL0     C45159   1.838   5.042   9.788 -0.5375 -0.5899 -0.2439
  328MOL0     C45160   1.805   4.946   9.694 -1.0356  0.0897  0.0703
  328MOL0     C45161   1.818   4.811   9.715 -0.6428 -0.0063 -0.9263
  328MOL0     O45162   1.788   4.732   9.607  0.6174 -0.3293 -0.3106
  328MOL0     C45163   1.808   4.586   9.624  0.5487 -0.0092 -0.1001
  328MOL0     C45164   1.807   4.513   9.487  0.5718 -0.2787 -0.5426
  328MOL0     C45165   1.830   4.361   9.510  0.4804 -0.8234 -0.2801
  328MOL0     C45166   1.867   4.276   9.386 -0.0948 -0.0384  0.5803
  328MOL0     C45167   1.755   4.261   9.276  0.6202  0.1369 -1.3349
  328MOL0     C45168   1.753   4.358   9.152  0.4351 -0.2889  1.8570
  328MOL0     C45169   1.644   4.326   9.050  0.3487 -0.5864 -0.7318
  328MOL0     C45170   1.641   4.423   8.929  0.2536 -0.2292 -0.6367
  328MOL0    Cl45171   1.555   4.581   8.960  0.3452  0.3554 -0.3771
  328MOL0     C45172   1.872   4.773   9.840 -0.5598  0.2426 -0.2483
  328MOL0     C45173   1.912   4.859   9.934 -0.0261 -0.5135  1.1005
  328MOL0     O45174   1.711   5.146  10.062  0.3610 -0.5385  0.9887
  328MOL0     C45175   1.780   5.321  10.262 -1.3008 -0.6800 -0.7966
  328MOL0     C45176   1.824   5.392  10.380 -0.2475 -0.5840  0.4964
  328MOL0     N45177   2.092   5.050  10.821 -0.3737  1.1611  0.0797
  328MOL0     N45178   2.155   4.981  10.733  0.6134  0.5009  0.3535
  328MOL0     C45179   2.946   4.162  10.314 -0.9269  0.1845  0.3560
  328MOL0     C45180   3.061   4.078  10.327  0.6225 -0.1983 -0.3642
  328MOL0     C45181   3.409   3.848  10.244  0.8361  0.4222  0.9471
  328MOL0     C45182   3.499   3.845  10.130  0.4373  0.4585  0.1129
  328MOL0     C45183   3.598   3.744  10.118 -0.3376  0.0682  0.1921
  328MOL0     C45184   3.598   3.632  10.191  0.3182 -0.4391  0.0273
  328MOL0     O45185   3.687   3.530  10.156  0.0094  0.7696 -0.7397
  328MOL0     C45186   3.681   3.409  10.228 -0.4453  0.3071  0.0884
  328MOL0     C45187   3.550   3.327  10.194  1.1485 -1.4829  0.0911
  328MOL0     C45188   3.556   3.177  10.176  0.1457  0.4027 -0.9241
  328MOL0     C45189   3.560   3.088  10.310 -0.5876  0.1119 -0.7329
  328MOL0     C45190   3.558   2.947  10.267 -0.1833  0.5041 -0.3707
  328MOL0     C45191   3.530   2.838  10.232  0.0370  0.3003  0.2527
  328MOL0     C45192   3.520   3.636  10.310 -0.0958  0.0878 -0.1715
  328MOL0     C45193   3.415   3.739  10.330 -1.0558  0.3805  0.5989
  328MOL0     C45194   3.325   3.714  10.441 -0.0847  0.6384 -0.2082
  328MOL0     H45195   2.950   3.829  10.128 -1.0468  0.1815  1.1765
  328MOL0     H45196   2.745   3.956  10.124 -1.1785 -4.2594  2.7377
  328MOL0     H45197   2.620   4.367  10.189 -1.5921 -1.5954  0.7596
  328MOL0     H45198   2.801   4.381  10.189 -1.3699  2.4641 -0.0390
  328MOL0     H45199   2.642   4.327  10.444  1.3893 -2.5817  0.7667
  328MOL0     H45200   2.798   4.412  10.433  0.1634 -0.5647  0.5613
  328MOL0     H45201   2.703   4.614  10.325  0.0419  2.0127  3.2081
  328MOL0     H45202   2.540   4.533  10.337 -0.6514 -1.0995  0.6961
  328MOL0     H45203   2.575   4.521  10.589  0.7300 -0.5904 -0.3008
  328MOL0     H45204   2.716   4.617  10.571 -0.5882  0.5296  0.6901
  328MOL0     H45205   2.469   4.755  10.456  0.8336 -3.4790 -1.8179
  328MOL0     H45206   2.633   4.822  10.484  0.3636  0.3378 -0.7925
  328MOL0     H45207   2.416   4.756  10.688  0.4029  0.2281  2.7039
  328MOL0     H45208   2.589   4.747  10.726 -1.5534  1.3660  1.8673
  328MOL0     H45209   2.581   4.998  10.637 -1.5789  1.1785 -1.4709
  328MOL0     H45210   2.487   4.964  10.790 -1.4811  0.5400  0.7031
  328MOL0     H45211   2.397   5.086  10.542  3.0802 -2.7971 -2.7073
  328MOL0     H45212   2.335   4.925  10.539 -1.5935 -0.9386  0.8241
  328MOL0     H45213   2.398   5.181  10.833  1.2000  0.3729 -1.1610
  328MOL0     H45214   2.232   5.260  11.036  1.3934 -1.8312 -0.2619
  328MOL0     H45215   2.058   5.267  10.982  0.0055  2.6292 -0.6666
  328MOL0     H45216   2.169   5.482  10.966  1.5985 -0.3085 -0.0490
  328MOL0     H45217   2.287   5.427  10.850  0.6847 -1.1333  2.3898
  328MOL0     H45218   1.976   5.438  10.817 -1.4321  2.0787 -0.5787
  328MOL0     H45219   2.077   5.552  10.735  0.1522 -0.5910 -0.2120
  328MOL0     H45220   2.184   5.360  10.605  0.3548  1.0744 -0.3684
  328MOL0     H45221   2.039   5.266  10.660  0.4519  0.3335  1.1863
  328MOL0     H45222   2.130   5.247  10.433 -0.2797 -3.2396 -0.7497
  328MOL0     H45223   2.076   5.008  10.211  0.7147 -1.2063  4.5094
  328MOL0     H45224   2.204   5.110  10.281 -0.1862 -0.8529  0.2540
  328MOL0     H45225   2.162   5.146  10.123  1.2701  0.7526  0.3510
  328MOL0     H45226   1.833   5.149   9.774  0.8656 -0.6060 -1.0821
  328MOL0     H45227   1.772   4.992   9.601  0.0615  0.2364 -0.2559
  328MOL0     H45228   1.908   4.576   9.666  2.3759  1.9487 -3.5028
  328MOL0     H45229   1.730   4.541   9.687  0.0493  1.0392  0.0613
  328MOL0     H45230   1.707   4.534   9.448  0.4177  1.9913  0.8708
  328MOL0     H45231   1.873   4.561   9.414 -2.4695  2.9667 -1.4585
  328MOL0     H45232   1.734   4.326   9.548 -0.0135  0.9824  0.2333
  328MOL0     H45233   1.906   4.360   9.588 -0.0250 -0.6402  0.2192
  328MOL0     H45234   1.898   4.176   9.419  0.4576 -0.6544 -1.6300
  328MOL0     H45235   1.953   4.326   9.341 -0.9119  0.5378 -0.3960
  328MOL0     H45236   1.770   4.161   9.235 -0.4188 -0.7620  0.3672
  328MOL0     H45237   1.657   4.265   9.323  1.0790  1.5206 -0.4393
  328MOL0     H45238   1.849   4.361   9.098 -0.8400 -0.2656 -0.5765
  328MOL0     H45239   1.751   4.462   9.185  2.0291 -0.1894  1.7239
  328MOL0     H45240   1.542   4.332   9.090  0.6123 -1.0439  0.0455
  328MOL0     H45241   1.668   4.228   9.008  2.7473 -0.2523 -0.2554
  328MOL0     H45242   1.581   4.376   8.851  1.8209  0.0573 -2.0825
  328MOL0     H45243   1.741   4.454   8.896 -0.6210  1.3528 -1.9786
  328MOL0     H45244   1.879   4.672   9.880 -0.0038  0.7514  1.0015
  328MOL0     H45245   1.946   4.833  10.034  3.4385  0.4574  0.2976
  328MOL0     H45246   1.682   5.336  10.219 -1.4066  1.9239  0.1694
  328MOL0     H45247   1.747   5.458  10.420 -0.5866  1.6151 -3.3042
  328MOL0     H45248   2.956   4.259  10.363  0.2992  0.5724 -0.6130
  328MOL0     H45249   3.140   4.132  10.378 -0.0182 -0.1789  0.6211
  328MOL0     H45250   3.500   3.918  10.051  4.0507 -2.4351 -2.9151
  328MOL0     H45251   3.670   3.750  10.037 -1.6627  0.1748 -1.0155
  328MOL0     H45252   3.771   3.353  10.201 -1.0511  0.6986 -3.0898
  328MOL0     H45253   3.686   3.423  10.337 -2.0570 -0.0126  0.2220
  328MOL0     H45254   3.493   3.366  10.109 -1.3411  0.3939  2.4478
  328MOL0     H45255   3.485   3.345  10.280  1.8882 -3.6978  1.1923
  328MOL0     H45256   3.463   3.155  10.123  0.6746  0.2896 -1.8307
  328MOL0     H45257   3.638   3.138  10.114  1.6773 -0.2618  1.3877
  328MOL0     H45258   3.471   3.119  10.366 -0.4486  0.4252 -0.6835
  328MOL0     H45259   3.641   3.115  10.377  0.1361 -0.6692 -1.2669
  328MOL0     H45260   3.530   2.742  10.187 -4.9112  0.6735 -1.1068
  328MOL0     H45261   3.531   3.550  10.376  0.2271 -1.2855 -1.9268
  328MOL0     H45262   3.258   3.797  10.463 -0.9443 -0.0723 -0.0876
  328MOL0     H45263   3.271   3.622  10.414  2.0863 -0.9044  0.3768
  328MOL0     H45264   3.374   3.684  10.534  0.1476 -0.7458 -0.7436
  329MOL0     O45265   7.878   5.998   8.148  0.4577  0.1145  1.0310
  329MOL0     C45266   7.828   6.088   8.214  0.3827  0.0886  0.2085
  329MOL0     O45267   7.876   6.216   8.211  0.5028  0.0555 -0.0321
  329MOL0     C45268   7.969   6.272   8.121 -0.3463 -0.5595 -1.4820
  329MOL0     C45269   7.988   6.220   7.993  0.0867 -0.1740  0.4528
  329MOL0     C45270   8.088   6.286   7.916  0.7547 -0.4712  0.9362
  329MOL0     C45271   8.171   6.387   7.970 -0.3933  0.4277 -0.3258
  329MOL0     O45272   8.266   6.445   7.900  0.1706  0.4539  0.2251
  329MOL0     C45273   8.343   6.359   7.804  1.4252 -0.0187  0.0848
  329MOL0     C45274   8.446   6.451   7.746  0.0002 -0.7117 -0.2840
  329MOL0     C45275   8.584   6.473   7.818 -0.0214  1.3113  0.6038
  329MOL0     C45276   8.586   6.450   7.967 -0.4911 -0.5248  0.5196
  329MOL0     C45277   8.722   6.478   8.037  1.2973  0.0191  0.3762
  329MOL0     C45278   8.846   6.446   7.959 -0.7382  0.2780 -0.3476
  329MOL0     C45279   8.969   6.479   8.041 -0.4206  0.3991 -1.1833
  329MOL0     C45280   8.992   6.395   8.170 -0.9423  0.0996  0.1200
  329MOL0     N45281   8.993   6.248   8.140 -0.3898  0.2618  0.2625
  329MOL0     C45282   8.892   6.159   8.123 -0.0596  1.2104 -0.3973
  329MOL0     C45283   8.946   6.046   8.070 -0.1818 -0.2365 -0.8503
  329MOL0     C45284   8.866   5.922   8.047  0.1180  0.5237 -0.1579
  329MOL0     C45285   8.908   5.862   7.915 -0.4277 -0.6715 -0.5559
  329MOL0     C45286   8.843   5.721   7.891 -0.8581  0.1504  0.0449
  329MOL0     C45287   8.863   5.674   7.746  0.6397 -0.6431  0.0250
  329MOL0     O45288   8.810   5.542   7.731 -0.2671  0.3493  0.7366
  329MOL0     C45289   8.807   5.492   7.600  1.2730  0.7405 -0.1985
  329MOL0     C45290   8.843   5.561   7.483 -0.0245  0.3107  0.0946
  329MOL0     C45291   8.856   5.509   7.357 -0.2796  0.1625  0.1663
  329MOL0     C45292   8.905   5.607   7.245 -0.2967  0.0116 -0.2088
  329MOL0     C45293   8.815   5.378   7.340 -0.3051 -1.3645  0.1978
  329MOL0     C45294   8.816   5.311   7.204 -0.4370 -0.1866 -0.1764
  329MOL0     O45295   8.913   5.340   7.124  0.3011  0.6667 -0.4709
  329MOL0     C45296   9.039   5.294   7.155  0.3924 -0.4156  0.8431
  329MOL0     C45297   9.142   5.388   7.134 -0.1372  0.6949 -0.4244
  329MOL0     C45298   9.274   5.341   7.149 -0.1877  0.5398  0.3247
  329MOL0     C45299   9.298   5.210   7.189 -0.5514 -0.7266  0.2011
  329MOL0     O45300   9.421   5.161   7.208  0.4740 -0.3822  0.2789
  329MOL0     C45301   9.495   5.210   7.317 -0.2964  1.0093  0.3441
  329MOL0     C45302   9.550   5.093   7.413  0.7137  0.3797  1.0912
  329MOL0     C45303   9.572   4.975   7.325  0.1849  0.5731  0.4189
  329MOL0     C45304   9.629   4.862   7.405 -0.5869 -0.1544 -0.1269
  329MOL0     C45305   9.682   4.750   7.324 -0.3117  1.2188 -0.0011
  329MOL0     C45306   9.736   4.641   7.417 -0.5943 -0.5611  0.4579
  329MOL0     C45307   9.818   4.531   7.344 -0.1124 -0.1488 -0.3051
  329MOL0     C45308   9.815   4.401   7.412 -0.6511 -1.4048  0.5324
  329MOL0    Cl45309   9.642   4.336   7.429 -0.0193  0.0565 -0.3487
  329MOL0     C45310   9.199   5.128   7.222  0.4368  0.1787  0.4812
  329MOL0     C45311   9.068   5.165   7.199  0.2148  0.0328  0.0445
  329MOL0     O45312   8.722   5.244   7.166 -0.0048  0.1842 -0.7259
  329MOL0     C45313   8.756   5.310   7.448  0.3605  0.4060 -0.8673
  329MOL0     C45314   8.740   5.362   7.576 -0.3042  0.3973  0.5368
  329MOL0     N45315   9.082   6.076   8.049 -0.3519  0.6451 -0.0913
  329MOL0     N45316   9.109   6.195   8.090 -0.1594  0.3360 -0.3077
  329MOL0     C45317   8.139   6.443   8.087 -0.5577  0.5784 -0.3309
  329MOL0     C45318   8.038   6.385   8.157 -0.4310 -0.0575  0.5657
  329MOL0     C45319   7.701   6.053   8.285 -0.1476  0.5523  0.8033
  329MOL0     C45320   7.686   5.908   8.305 -0.4731 -0.3589 -0.0834
  329MOL0     C45321   7.573   5.863   8.364 -0.5102  0.0020  0.2652
  329MOL0     C45322   7.476   5.953   8.410  0.2083 -0.5547  0.1730
  329MOL0     O45323   7.371   5.900   8.481  0.4303 -0.3096  0.4890
  329MOL0     C45324   7.252   5.963   8.502 -0.3886 -0.3429 -0.6098
  329MOL0     C45325   7.141   5.867   8.493 -0.0046  1.1199  1.0749
  329MOL0     C45326   7.122   5.800   8.634 -0.6147 -0.0623  0.2888
  329MOL0     C45327   6.978   5.742   8.645 -0.2171 -0.4172 -0.4361
  329MOL0     C45328   6.974   5.654   8.760 -0.9183  0.6495 -0.2982
  329MOL0     C45329   6.967   5.582   8.857 -0.0011 -0.2136 -0.0122
  329MOL0     C45330   7.500   6.092   8.396  0.8076 -0.2794  0.3763
  329MOL0     C45331   7.611   6.144   8.330 -0.6904  0.1241 -0.4806
  329MOL0     C45332   7.630   6.290   8.325 -0.7333  0.1165  0.3917
  329MOL0     H45333   7.941   6.134   7.946 -0.1251 -0.3562  0.9915
  329MOL0     H45334   8.094   6.253   7.813 -0.2679  4.2948 -0.9062
  329MOL0     H45335   8.273   6.326   7.727 -1.2257  4.0361  0.4423
  329MOL0     H45336   8.379   6.269   7.855  2.9106  0.3758 -0.2384
  329MOL0     H45337   8.464   6.407   7.648  0.4547  0.1879 -0.6119
  329MOL0     H45338   8.390   6.543   7.727  1.0304 -0.0456 -0.2267
  329MOL0     H45339   8.657   6.403   7.779  0.2820 -0.8864  4.6107
  329MOL0     H45340   8.611   6.576   7.791  2.6417  0.3873 -0.4775
  329MOL0     H45341   8.510   6.502   8.026  1.8075 -0.8792  4.1414
  329MOL0     H45342   8.564   6.346   7.996  1.6373 -1.3323 -0.5728
  329MOL0     H45343   8.724   6.427   8.133 -2.8360 -0.6023  0.3224
  329MOL0     H45344   8.717   6.584   8.062  0.5128 -0.0231  0.4270
  329MOL0     H45345   8.853   6.341   7.927  0.0196  0.1047  0.3557
  329MOL0     H45346   8.854   6.499   7.864 -2.8732 -2.2185 -2.0737
  329MOL0     H45347   8.959   6.585   8.069  2.4221  0.9831 -1.9787
  329MOL0     H45348   9.067   6.473   7.992  0.1657 -0.6705  0.0510
  329MOL0     H45349   9.095   6.422   8.194 -0.8099 -0.5245  0.2480
  329MOL0     H45350   8.925   6.403   8.257 -1.3475 -1.7223  0.0097
  329MOL0     H45351   8.789   6.176   8.150 -0.1337 -2.3191  2.3031
  329MOL0     H45352   8.764   5.959   8.039 -0.2773 -0.5942 -0.4512
  329MOL0     H45353   8.890   5.856   8.130  1.4148  0.7453 -0.3301
  329MOL0     H45354   8.878   5.946   7.853  1.2223  0.4507  0.0788
  329MOL0     H45355   9.015   5.848   7.897 -0.1205 -0.3351  0.8626
  329MOL0     H45356   8.887   5.650   7.962  1.9844  1.3156 -0.4070
  329MOL0     H45357   8.737   5.730   7.918 -0.9866  0.1345 -0.4532
  329MOL0     H45358   8.800   5.741   7.686  1.7907  0.6774  0.2283
  329MOL0     H45359   8.971   5.670   7.726  0.8641 -0.5848  1.1871
  329MOL0     H45360   8.877   5.664   7.487 -2.5564  1.2943 -1.2175
  329MOL0     H45361   9.015   5.610   7.244  0.0457 -3.8954  2.5923
  329MOL0     H45362   8.861   5.707   7.248 -0.0390  0.2002 -1.7913
  329MOL0     H45363   8.869   5.574   7.147 -2.2846  0.3821  0.3553
  329MOL0     H45364   9.125   5.489   7.099 -1.3905  0.6396 -0.0108
  329MOL0     H45365   9.354   5.404   7.110 -0.0873  0.1688 -0.0889
  329MOL0     H45366   9.582   5.257   7.269  2.3100 -3.6727 -0.0851
  329MOL0     H45367   9.430   5.276   7.376 -1.0428  1.0231 -0.4745
  329MOL0     H45368   9.645   5.133   7.448 -0.3842  1.8383  2.5709
  329MOL0     H45369   9.490   5.067   7.501  3.0968  1.7804  3.2420
  329MOL0     H45370   9.632   5.003   7.237  1.7136  1.5384  1.7112
  329MOL0     H45371   9.478   4.938   7.284 -0.4774  1.5250  1.0416
  329MOL0     H45372   9.556   4.827   7.478 -0.5177 -0.1061 -0.0346
  329MOL0     H45373   9.718   4.903   7.454 -2.6928  2.0052  2.2074
  329MOL0     H45374   9.612   4.704   7.254  3.1553 -2.6382 -1.3723
  329MOL0     H45375   9.761   4.785   7.257 -0.6563 -0.8425 -1.6051
  329MOL0     H45376   9.656   4.604   7.482 -0.1897  0.7518  1.7509
  329MOL0     H45377   9.810   4.687   7.483  1.7450  0.4357 -2.6235
  329MOL0     H45378   9.915   4.580   7.332 -1.2232  2.8085  1.5210
  329MOL0     H45379   9.770   4.512   7.247  0.9482 -0.4149 -0.7876
  329MOL0     H45380   9.875   4.394   7.504  1.0011  0.8698 -0.2747
  329MOL0     H45381   9.873   4.329   7.355 -1.3129 -4.6318  3.5493
  329MOL0     H45382   9.214   5.029   7.264 -0.4109  0.4803  1.5202
  329MOL0     H45383   8.996   5.089   7.228  1.3516 -0.8094  0.7384
  329MOL0     H45384   8.726   5.206   7.435  1.3006 -0.0664  0.5702
  329MOL0     H45385   8.695   5.299   7.651  0.2951 -1.9781 -0.9869
  329MOL0     H45386   8.187   6.538   8.111 -0.3024  0.1087  1.1093
  329MOL0     H45387   8.013   6.429   8.253  4.1998  1.2181  1.4016
  329MOL0     H45388   7.770   5.847   8.272 -0.8802 -0.2756 -1.3265
  329MOL0     H45389   7.569   5.757   8.384  0.0398 -0.1485 -0.3947
  329MOL0     H45390   7.251   6.004   8.603 -1.1947  0.0674 -0.7698
  329MOL0     H45391   7.230   6.035   8.422 -1.5527 -0.5291 -0.4744
  329MOL0     H45392   7.157   5.790   8.417  0.1149  3.6329 -1.6445
  329MOL0     H45393   7.048   5.919   8.470 -0.6193 -0.6155 -0.5765
  329MOL0     H45394   7.195   5.718   8.643  0.0758  0.2673 -1.8552
  329MOL0     H45395   7.143   5.872   8.713  1.7155  2.7235 -2.6099
  329MOL0     H45396   6.955   5.690   8.552 -1.3456 -0.9566  0.1245
  329MOL0     H45397   6.906   5.818   8.677 -0.7397 -0.2693 -1.9224
  329MOL0     H45398   6.957   5.528   8.949 -3.6470 -1.1975 -0.8281
  329MOL0     H45399   7.436   6.172   8.431  1.1182  1.0852 -1.9302
  329MOL0     H45400   7.612   6.325   8.223  1.4850 -0.3914 -0.2209
  329MOL0     H45401   7.568   6.343   8.398 -1.5344 -0.0125 -0.1843
  329MOL0     H45402   7.732   6.323   8.346 -0.4374 -1.7081  2.0881
  330MOL0     O45403  10.007   9.943   0.106  0.2944 -0.4126  0.3459
  330MOL0     C45404   9.993  10.059   0.145 -0.1799 -0.0806  0.8797
  330MOL0     O45405   9.909  10.104   0.242  0.9072  0.2248 -0.3088
  330MOL0     C45406   9.854  10.020   0.337 -0.1530  1.3480  0.6936
  330MOL0     C45407   9.928   9.929   0.414  0.1423  0.4962 -0.0657
  330MOL0     C45408   9.862   9.844   0.512 -0.8040 -0.3777 -0.4278
  330MOL0     C45409   9.728   9.866   0.559  0.6455  0.1517  0.5465
  330MOL0     O45410   9.670   9.799   0.660  0.0425 -0.1555  0.4735
  330MOL0     C45411   9.724   9.675   0.685  0.2957  0.8227 -0.9002
  330MOL0     C45412   9.624   9.603   0.779  0.6329  0.2732  0.8107
  330MOL0     C45413   9.618   9.654   0.931  0.5274  0.3635  0.8623
  330MOL0     C45414   9.496   9.594   0.996  0.5615 -0.1852  0.1263
  330MOL0     C45415   9.491   9.647   1.133  0.1713  0.2551  0.4673
  330MOL0     C45416   9.598   9.585   1.226 -0.1268  0.3002 -0.2886
  330MOL0     C45417   9.567   9.621   1.374  0.8331 -0.3536  0.4739
  330MOL0     C45418   9.660   9.565   1.468 -0.3365  0.8826  0.7882
  330MOL0     N45419   9.637   9.413   1.477  0.1491 -0.0230  0.0109
  330MOL0     C45420   9.539   9.365   1.562  0.0551  0.0730 -0.0908
  330MOL0     C45421   9.559   9.228   1.574  1.0541 -0.5446 -0.3651
  330MOL0     C45422   9.497   9.126   1.659 -0.4727  0.4338  0.2980
  330MOL0     C45423   9.569   9.092   1.794 -0.3144 -0.2932 -0.1736
  330MOL0     C45424   9.516   8.966   1.846 -0.4263  0.6172 -0.4750
  330MOL0     C45425   9.620   8.899   1.943 -0.3835 -0.5259  1.2635
  330MOL0     O45426   9.605   8.954   2.070  0.0050  0.3813  0.2991
  330MOL0     C45427   9.637   8.878   2.179 -0.1077 -0.0123  0.2526
  330MOL0     C45428   9.713   8.761   2.172  0.1991 -0.4990 -0.5459
  330MOL0     C45429   9.715   8.677   2.286 -0.1480 -0.1780  1.6185
  330MOL0     C45430   9.791   8.551   2.269 -0.8724 -0.4408 -0.2038
  330MOL0     C45431   9.667   8.736   2.408  0.9381 -0.7989  0.4977
  330MOL0     C45432   9.686   8.676   2.538  0.3097 -0.5545 -0.3332
  330MOL0     O45433   9.647   8.754   2.652 -0.8390 -0.8023 -1.0287
  330MOL0     C45434   9.611   8.694   2.767 -0.8549 -0.0130 -0.9934
  330MOL0     C45435   9.662   8.730   2.894  0.0384 -0.6002 -0.8670
  330MOL0     C45436   9.626   8.655   3.011 -1.7065 -1.7176  0.9545
  330MOL0     C45437   9.520   8.571   3.006  0.3728 -0.9243 -0.5018
  330MOL0     O45438   9.473   8.503   3.120  0.1171 -0.4439 -0.1456
  330MOL0     C45439   9.438   8.582   3.241 -0.3414  0.2944 -0.4874
  330MOL0     C45440   9.557   8.572   3.338 -1.4060 -0.8990  0.0499
  330MOL0     C45441   9.509   8.576   3.485 -0.7226 -0.0666  0.0652
  330MOL0     C45442   9.467   8.435   3.522 -0.9166 -1.1994 -0.6768
  330MOL0     C45443   9.584   8.339   3.571 -0.3705 -0.6031 -0.4376
  330MOL0     C45444   9.669   8.394   3.696 -0.2186 -0.0967  0.0934
  330MOL0     C45445   9.720   8.288   3.801  0.0584 -0.0181 -0.1420
  330MOL0     C45446   9.817   8.186   3.744 -0.2532 -0.4496 -0.3410
  330MOL0    Cl45447   9.963   8.276   3.712 -0.0586 -0.0331 -0.3832
  330MOL0     C45448   9.452   8.554   2.888  0.2008 -0.3319  0.8672
  330MOL0     C45449   9.502   8.618   2.773 -0.4013 -0.4469  0.8344
  330MOL0     O45450   9.714   8.559   2.541 -0.7640 -0.6388  0.9269
  330MOL0     C45451   9.594   8.866   2.406 -0.6173  1.2212 -0.5756
  330MOL0     C45452   9.573   8.931   2.288 -0.3583  1.1411 -1.1132
  330MOL0     N45453   9.667   9.203   1.484 -0.2704  0.2812  0.0695
  330MOL0     N45454   9.716   9.312   1.436 -0.1455 -0.0539  0.0009
  330MOL0     C45455   9.650   9.952   0.476 -0.3073  0.8265  0.0811
  330MOL0     C45456   9.714  10.029   0.371  0.7198  0.4360  0.5537
  330MOL0     C45457  10.074  10.158   0.082 -0.7023 -1.0966  0.2819
  330MOL0     C45458  10.189  10.204   0.142  0.1539  0.5472  0.3353
  330MOL0     C45459  10.266  10.298   0.076 -1.0312 -0.5015  0.1153
  330MOL0     C45460  10.235  10.341  -0.055 -0.2128 -0.3013  0.6147
  330MOL0     O45461  10.323  10.426  -0.116  0.4292 -0.7694  0.4486
  330MOL0     C45462  10.456  10.370  -0.146  0.5209  0.3072  0.8319
  330MOL0     C45463  10.469  10.340  -0.304  0.2640 -0.2566 -0.3539
  330MOL0     C45464  10.399  10.212  -0.341  0.2648 -0.4371  0.2755
  330MOL0     C45465  10.420  10.169  -0.488  0.9029 -0.8011  0.2134
  330MOL0     C45466  10.316  10.067  -0.531 -0.9674  0.0711 -0.4337
  330MOL0     C45467  10.251   9.975  -0.571 -0.4992  0.3477  0.3999
  330MOL0     C45468  10.120  10.286  -0.124 -1.2409  0.1138 -0.1565
  330MOL0     C45469  10.034  10.201  -0.051  0.2258  0.0312  0.0013
  330MOL0     C45470   9.928  10.158  -0.139  0.3812 -0.3904 -0.7336
  330MOL0     H45471  10.030   9.918   0.377 -0.7336 -0.1843 -2.4888
  330MOL0     H45472   9.927   9.762   0.544 -1.4643 -2.1439 -3.1972
  330MOL0     H45473   9.818   9.697   0.735  0.6583  3.7954 -2.6472
  330MOL0     H45474   9.728   9.620   0.590  1.4673  1.8596 -1.4691
  330MOL0     H45475   9.529   9.609   0.726 -0.1382 -0.9841  1.9917
  330MOL0     H45476   9.651   9.497   0.777 -1.1970 -0.2770 -2.2608
  330MOL0     H45477   9.709   9.624   0.985  0.1753 -0.5296  0.9741
  330MOL0     H45478   9.618   9.763   0.917 -1.9651  0.1517 -1.7713
  330MOL0     H45479   9.406   9.614   0.938  0.3953 -1.7339 -0.1918
  330MOL0     H45480   9.502   9.485   1.006 -1.2648 -0.5490 -1.9094
  330MOL0     H45481   9.389   9.636   1.172 -1.2991  0.8757 -2.8232
  330MOL0     H45482   9.505   9.754   1.121  0.7297 -0.0408 -2.2262
  330MOL0     H45483   9.605   9.477   1.213 -0.7479  0.1169  0.7656
  330MOL0     H45484   9.691   9.636   1.199 -0.2638  0.5066 -0.3782
  330MOL0     H45485   9.465   9.589   1.395  1.6328 -3.6099 -0.0334
  330MOL0     H45486   9.576   9.730   1.372 -2.1534 -0.0270 -0.3524
  330MOL0     H45487   9.766   9.586   1.448  0.2328  0.4007  3.0299
  330MOL0     H45488   9.642   9.599   1.570 -0.3837 -1.1483  1.4860
  330MOL0     H45489   9.466   9.424   1.617 -0.8376 -0.6139 -0.5168
  330MOL0     H45490   9.498   9.032   1.603  2.8614  0.2748  0.4476
  330MOL0     H45491   9.391   9.149   1.670 -1.2915 -2.7127  0.0817
  330MOL0     H45492   9.678   9.095   1.782 -0.2292 -0.6607  0.4866
  330MOL0     H45493   9.542   9.160   1.876  1.3577 -0.9772  0.9984
  330MOL0     H45494   9.417   8.983   1.890 -0.2116  1.1903 -0.2127
  330MOL0     H45495   9.512   8.892   1.766  1.1225  2.6141 -2.5196
  330MOL0     H45496   9.598   8.792   1.934  1.8459 -0.8961 -0.7378
  330MOL0     H45497   9.720   8.910   1.900 -0.7956 -1.6611 -0.0711
  330MOL0     H45498   9.757   8.726   2.079 -1.6534 -3.6712 -0.3517
  330MOL0     H45499   9.845   8.544   2.174  1.6398 -0.1038  1.1052
  330MOL0     H45500   9.731   8.461   2.282 -0.4520 -0.3560  3.0632
  330MOL0     H45501   9.870   8.550   2.345 -1.1839 -0.9925  0.1137
  330MOL0     H45502   9.737   8.807   2.908 -0.1504 -0.3187 -1.3711
  330MOL0     H45503   9.678   8.672   3.105 -0.5877 -3.4330  0.6973
  330MOL0     H45504   9.419   8.690   3.230 -0.4166  0.2497 -0.7940
  330MOL0     H45505   9.348   8.547   3.292 -0.8519  0.2525 -1.3866
  330MOL0     H45506   9.617   8.485   3.312  3.3077  1.9437  0.0802
  330MOL0     H45507   9.618   8.662   3.320 -2.7720  0.2382  0.9239
  330MOL0     H45508   9.428   8.644   3.511 -1.3579 -1.5868  2.2743
  330MOL0     H45509   9.602   8.608   3.533 -0.8824  0.7536 -0.1593
  330MOL0     H45510   9.410   8.396   3.437 -1.5086  1.3500 -1.5298
  330MOL0     H45511   9.400   8.451   3.606  1.3746 -1.3184  1.2855
  330MOL0     H45512   9.544   8.242   3.604  0.5762 -0.3196  1.6892
  330MOL0     H45513   9.645   8.304   3.487 -0.7000  0.9797 -1.3792
  330MOL0     H45514   9.612   8.481   3.731 -0.9821  0.3861 -2.2300
  330MOL0     H45515   9.756   8.436   3.646  0.4384 -1.8645 -0.3242
  330MOL0     H45516   9.628   8.241   3.837 -1.3411  1.8025 -1.1155
  330MOL0     H45517   9.764   8.339   3.887 -0.8394  1.5956 -0.5770
  330MOL0     H45518   9.779   8.125   3.662  1.1450  0.1335 -1.4735
  330MOL0     H45519   9.851   8.113   3.819  0.0380  1.8110  1.8799
  330MOL0     H45520   9.367   8.487   2.885 -1.4834  1.5771  2.7327
  330MOL0     H45521   9.442   8.621   2.683  1.3328  4.6017 -0.5153
  330MOL0     H45522   9.554   8.904   2.499  0.4689  0.6075  0.1755
  330MOL0     H45523   9.513   9.021   2.279 -2.8943  0.3898  4.3934
  330MOL0     H45524   9.543   9.966   0.489 -0.5395  0.0778 -0.8195
  330MOL0     H45525   9.658  10.104   0.316  3.9548  2.2701 -0.4784
  330MOL0     H45526  10.219  10.159   0.236  0.3112 -2.2331 -0.9671
  330MOL0     H45527  10.353  10.335   0.129 -1.5130  2.4056 -0.9268
  330MOL0     H45528  10.526  10.445  -0.108 -0.7900  2.9401 -1.5915
  330MOL0     H45529  10.466  10.278  -0.088  1.5714  0.1212  0.3629
  330MOL0     H45530  10.577  10.335  -0.322 -0.1070  0.1841 -3.0505
  330MOL0     H45531  10.425  10.423  -0.360  1.2991  1.2987  1.0388
  330MOL0     H45532  10.425  10.133  -0.271 -0.8216  0.1873  1.4417
  330MOL0     H45533  10.291  10.231  -0.330  0.4900  0.9032  0.3124
  330MOL0     H45534  10.522  10.140  -0.516  1.9569  2.5255  0.1947
  330MOL0     H45535  10.403  10.256  -0.552  5.3901  0.9347  1.0026
  330MOL0     H45536  10.206   9.879  -0.583 -1.2480  0.5742  1.2962
  330MOL0     H45537  10.114  10.338  -0.219 -3.7186 -1.4697 -0.9424
  330MOL0     H45538   9.840  10.213  -0.106 -0.4641 -0.0715 -3.2954
  330MOL0     H45539   9.939  10.176  -0.246 -0.9496 -1.2374 -1.0293
  330MOL0     H45540   9.916  10.049  -0.135 -0.1307 -0.3101 -0.0661
  331MOL0     O45541   7.334   6.207  11.173  0.0554  0.3209 -0.1210
  331MOL0     C45542   7.222   6.200  11.131 -0.2101 -0.1161  0.0916
  331MOL0     O45543   7.194   6.238  11.009 -0.0010 -0.2805  0.7856
  331MOL0     C45544   7.284   6.192  10.908  0.3853  0.2999 -1.0188
  331MOL0     C45545   7.416   6.220  10.898  0.8579 -0.8341 -0.4821
  331MOL0     C45546   7.485   6.200  10.776  0.5573  0.5567  0.0564
  331MOL0     C45547   7.422   6.127  10.672 -0.4966 -0.2213 -0.5961
  331MOL0     O45548   7.492   6.115  10.558  0.5444 -0.2375 -0.9542
  331MOL0     C45549   7.447   6.026  10.467  0.0265  0.3857  0.8711
  331MOL0     C45550   7.558   6.024  10.357  0.7777  0.4721 -0.4885
  331MOL0     C45551   7.493   5.949  10.237  0.2075  1.3538 -0.5220
  331MOL0     C45552   7.579   5.934  10.109  0.7063 -0.4833 -0.4928
  331MOL0     C45553   7.483   5.876  10.010  0.3720  0.7972  1.2388
  331MOL0     C45554   7.554   5.837   9.880  0.1139 -0.2693  0.9153
  331MOL0     C45555   7.456   5.787   9.790  0.0607  0.3360  0.3273
  331MOL0     C45556   7.526   5.701   9.682 -0.2368  0.3876 -0.0058
  331MOL0     N45557   7.623   5.769   9.594  0.3893 -0.3743 -0.0078
  331MOL0     C45558   7.605   5.850   9.480 -0.0922 -0.2927  0.1782
  331MOL0     C45559   7.732   5.872   9.441 -0.4344  0.2851  0.7690
  331MOL0     C45560   7.755   5.958   9.329 -0.7731 -0.5157 -0.0567
  331MOL0     C45561   7.730   5.907   9.191  0.2670  0.2697 -0.8441
  331MOL0     C45562   7.787   5.774   9.155 -1.0875 -0.1233  1.0205
  331MOL0     C45563   7.941   5.774   9.164 -0.4973 -0.3453 -0.6086
  331MOL0     O45564   7.994   5.779   9.034 -0.1473 -0.3080 -0.1589
  331MOL0     C45565   8.135   5.798   9.039  0.9904 -0.5875  0.8916
  331MOL0     C45566   8.221   5.765   9.147 -0.5911  0.0282  0.5014
  331MOL0     C45567   8.362   5.764   9.137 -0.1747 -0.7967 -0.1859
  331MOL0     C45568   8.443   5.715   9.254  0.0527  0.1591 -0.5931
  331MOL0     C45569   8.424   5.800   9.016  0.1914  1.3576  0.9312
  331MOL0     C45570   8.563   5.829   8.996  0.6734  0.5237  0.4167
  331MOL0     O45571   8.654   5.812   9.092  0.2000  0.2786 -0.0307
  331MOL0     C45572   8.790   5.816   9.068 -0.5172  0.0969  0.2803
  331MOL0     C45573   8.869   5.696   9.039  1.2662  0.1125 -0.7312
  331MOL0     C45574   9.005   5.707   9.022 -0.2352  0.1726 -0.7919
  331MOL0     C45575   9.075   5.831   9.043  1.6527 -0.0373  1.0289
  331MOL0     O45576   9.210   5.827   9.046  0.1993  0.2913 -0.2235
  331MOL0     C45577   9.294   5.944   9.070  0.9775  0.6730  0.2548
  331MOL0     C45578   9.441   5.914   9.064  0.5916 -0.2972  0.6315
  331MOL0     C45579   9.507   5.874   8.936 -0.2645 -0.2068  1.5212
  331MOL0     C45580   9.494   5.988   8.832  0.1659 -0.1104 -0.1156
  331MOL0     C45581   9.534   5.953   8.694 -0.4622  0.0090  0.6080
  331MOL0     C45582   9.652   5.868   8.686 -0.9020  1.0407  0.4326
  331MOL0     C45583   9.686   5.854   8.537 -0.8933  0.3264 -0.2790
  331MOL0     C45584   9.827   5.795   8.542  0.7278 -0.4910  0.5722
  331MOL0    Cl45585   9.895   5.774   8.380  0.3123 -0.1930  0.5913
  331MOL0     C45586   9.000   5.948   9.068  0.0636  0.9465  0.5466
  331MOL0     C45587   8.857   5.928   9.086 -0.0010 -0.9344 -0.6049
  331MOL0     O45588   8.588   5.876   8.881 -0.4662  1.1557  0.0457
  331MOL0     C45589   8.334   5.825   8.906  0.1222 -0.6736  0.1187
  331MOL0     C45590   8.193   5.821   8.914 -0.0548  0.2541 -0.2677
  331MOL0     N45591   7.817   5.795   9.509 -0.1313 -0.6046  0.2695
  331MOL0     N45592   7.753   5.733   9.601 -0.4232 -0.3153 -0.4567
  331MOL0     C45593   7.287   6.083  10.693  0.4570 -0.4118  0.0827
  331MOL0     C45594   7.217   6.128  10.811 -0.7171  0.6854  0.7076
  331MOL0     C45595   7.109   6.163  11.228 -0.6939 -0.2070 -0.1952
  331MOL0     C45596   6.993   6.100  11.168 -0.3791 -0.1084 -0.2233
  331MOL0     C45597   6.896   6.073  11.255  0.9164 -0.7987  0.2337
  331MOL0     C45598   6.904   6.071  11.398 -1.1528 -0.6686 -0.0956
  331MOL0     O45599   6.798   6.021  11.465  0.1373  0.3680 -0.3506
  331MOL0     C45600   6.776   6.075  11.592 -0.7617 -0.3271  0.1929
  331MOL0     C45601   6.844   5.999  11.698  0.0680 -0.6746  0.2763
  331MOL0     C45602   6.743   5.890  11.765  0.4116 -0.0676  0.0709
  331MOL0     C45603   6.686   5.776  11.664  0.5725  0.1821 -0.7434
  331MOL0     C45604   6.570   5.696  11.708 -0.9869  0.4186  0.3235
  331MOL0     C45605   6.476   5.626  11.746 -0.7911  0.3654  0.0426
  331MOL0     C45606   7.018   6.131  11.452  0.0196 -0.3295  0.1023
  331MOL0     C45607   7.114   6.183  11.374 -0.3299  0.0830  1.1839
  331MOL0     C45608   7.236   6.257  11.439 -0.0627 -0.8887 -0.0495
  331MOL0     H45609   7.465   6.266  10.984  3.8797 -2.6040 -1.1170
  331MOL0     H45610   7.584   6.245  10.770  0.0009  2.0112  1.1110
  331MOL0     H45611   7.353   6.068  10.430  0.4949  0.0821 -0.7125
  331MOL0     H45612   7.433   5.923  10.502  2.7571 -1.3928 -2.7548
  331MOL0     H45613   7.575   6.132  10.352 -2.1959  1.1665  1.5906
  331MOL0     H45614   7.652   5.978  10.389  0.1191  0.3469  1.4097
  331MOL0     H45615   7.476   5.845  10.268  0.7928  1.0642 -1.1563
  331MOL0     H45616   7.398   6.001  10.217 -0.6851 -0.4589 -1.2155
  331MOL0     H45617   7.622   6.030  10.080 -1.7299  1.1139  0.8096
  331MOL0     H45618   7.655   5.862  10.139 -1.2653 -2.4399  0.0510
  331MOL0     H45619   7.399   5.946  10.004  1.1683  1.8121  1.6059
  331MOL0     H45620   7.442   5.780  10.042  2.5511 -0.1935  1.2606
  331MOL0     H45621   7.614   5.919   9.839 -1.4786 -0.2122 -1.4425
  331MOL0     H45622   7.632   5.761   9.894  0.1273 -0.6068 -0.8079
  331MOL0     H45623   7.415   5.869   9.731  1.1234  0.6602  0.0184
  331MOL0     H45624   7.374   5.727   9.831 -0.8312  1.5306  0.3324
  331MOL0     H45625   7.573   5.611   9.724 -0.0546 -0.3724 -1.7807
  331MOL0     H45626   7.441   5.667   9.622 -2.1586  0.4710  2.4967
  331MOL0     H45627   7.514   5.901   9.449 -2.7832 -5.0869 -0.8049
  331MOL0     H45628   7.857   5.995   9.322 -0.5815 -1.2998 -4.3158
  331MOL0     H45629   7.694   6.046   9.353 -0.8859 -0.6321  0.0913
  331MOL0     H45630   7.621   5.896   9.187  0.3223 -1.7034  1.1595
  331MOL0     H45631   7.765   5.979   9.117  1.0346  0.4300 -0.3356
  331MOL0     H45632   7.762   5.691   9.221 -0.5113 -4.0239 -3.1971
  331MOL0     H45633   7.755   5.744   9.055 -0.2055  0.8371  0.4313
  331MOL0     H45634   7.984   5.857   9.221 -2.1346  0.8926 -1.1137
  331MOL0     H45635   7.975   5.683   9.214  0.8121 -0.2088 -1.2079
  331MOL0     H45636   8.179   5.722   9.238 -0.3193 -0.4274  0.4136
  331MOL0     H45637   8.527   5.650   9.228  1.2842  0.6216  1.8889
  331MOL0     H45638   8.377   5.676   9.331  1.0151  0.7947  0.6024
  331MOL0     H45639   8.490   5.799   9.307 -3.2927  0.2023  2.6917
  331MOL0     H45640   8.830   5.595   9.041  1.0268  0.2062  0.1865
  331MOL0     H45641   9.066   5.620   9.002 -1.8247 -0.5570 -2.8252
  331MOL0     H45642   9.263   6.023   9.001 -0.0998  0.6952  0.7449
  331MOL0     H45643   9.261   5.981   9.168 -1.2908  1.9198 -0.9010
  331MOL0     H45644   9.484   6.009   9.097 -1.1456  1.4040 -1.6446
  331MOL0     H45645   9.468   5.845   9.145  1.2827 -1.5815 -0.6505
  331MOL0     H45646   9.460   5.784   8.896  0.5025  0.4758 -1.0692
  331MOL0     H45647   9.615   5.863   8.949  1.0292  2.9882 -3.6314
  331MOL0     H45648   9.565   6.064   8.865 -1.7748  1.7250 -0.0017
  331MOL0     H45649   9.395   6.033   8.833  0.5442  0.7556  0.8914
  331MOL0     H45650   9.463   5.888   8.643 -0.4386  0.2310  0.2929
  331MOL0     H45651   9.546   6.043   8.633  1.0775 -1.0432 -0.7491
  331MOL0     H45652   9.630   5.769   8.728  1.6139  0.6788  1.0611
  331MOL0     H45653   9.737   5.906   8.742  0.0658 -0.2672 -0.1010
  331MOL0     H45654   9.685   5.948   8.482  0.1204  0.5232  0.0342
  331MOL0     H45655   9.613   5.778   8.504 -0.3446 -0.4699  0.2936
  331MOL0     H45656   9.818   5.697   8.589 -1.7990  1.1272  3.8791
  331MOL0     H45657   9.889   5.861   8.603 -0.2512  0.1396  0.9106
  331MOL0     H45658   9.051   6.040   9.093  1.6079  0.1571  0.4237
  331MOL0     H45659   8.805   6.018   9.119 -0.4454 -0.4317 -2.5950
  331MOL0     H45660   8.370   5.859   8.809  0.0303  2.1844  0.9979
  331MOL0     H45661   8.128   5.830   8.827 -1.8106 -2.4053  0.6644
  331MOL0     H45662   7.232   6.024  10.621  2.0210 -1.0122 -0.6671
  331MOL0     H45663   7.117   6.087  10.824  0.2123 -1.3363  1.9749
  331MOL0     H45664   6.981   6.094  11.060 -0.9124  0.8454 -0.2306
  331MOL0     H45665   6.794   6.060  11.220  1.2911  0.2677 -1.3773
  331MOL0     H45666   6.812   6.178  11.588 -4.9139  1.2691 -0.7398
  331MOL0     H45667   6.671   6.092  11.617 -0.3540  0.8329  1.1695
  331MOL0     H45668   6.879   6.068  11.775  1.8541 -2.3460  1.0649
  331MOL0     H45669   6.936   5.944  11.674  0.5344 -0.6502  1.8893
  331MOL0     H45670   6.801   5.843  11.844  1.0610  0.5703 -0.0256
  331MOL0     H45671   6.656   5.940  11.809 -0.3479  0.1382 -1.5625
  331MOL0     H45672   6.763   5.700  11.646 -1.8216 -2.4939 -0.4717
  331MOL0     H45673   6.655   5.822  11.570 -0.3167  0.2995 -0.3960
  331MOL0     H45674   6.418   5.540  11.772 -0.2346  0.3583  1.3620
  331MOL0     H45675   7.026   6.149  11.559  0.6260 -1.6615  0.3037
  331MOL0     H45676   7.219   6.363  11.418  2.1166 -0.5119 -0.1262
  331MOL0     H45677   7.229   6.251  11.549  3.1338 -0.4735  0.2605
  331MOL0     H45678   7.337   6.224  11.415  0.5394  1.4881 -1.0692
  332MOL0     O45679   8.138   5.960   5.390 -0.0079  0.4078  0.1833
  332MOL0     C45680   8.229   5.889   5.437  0.0056  0.2751 -0.0576
  332MOL0     O45681   8.284   5.913   5.561  0.1925 -0.0897  0.1746
  332MOL0     C45682   8.213   5.995   5.645  0.1015 -0.0055  0.4337
  332MOL0     C45683   8.214   6.132   5.621  1.1700 -1.0569 -0.0479
  332MOL0     C45684   8.111   6.202   5.689  0.1303  0.2122  0.6746
  332MOL0     C45685   8.032   6.149   5.793 -0.0321  0.1477 -0.1377
  332MOL0     O45686   7.961   6.237   5.868 -0.0027 -0.1991  0.1931
  332MOL0     C45687   7.823   6.219   5.858 -0.4434 -0.4128 -0.1393
  332MOL0     C45688   7.760   6.355   5.875 -0.5113 -0.1349  0.0249
  332MOL0     C45689   7.818   6.425   6.003  0.0953 -0.6550  0.0286
  332MOL0     C45690   7.748   6.557   6.014  0.2520  0.4022  0.1134
  332MOL0     C45691   7.601   6.541   6.066 -0.9813 -0.5754  0.1706
  332MOL0     C45692   7.537   6.677   6.068 -0.5224  0.2926 -0.1810
  332MOL0     C45693   7.596   6.764   6.177 -0.6227  0.3545  0.3586
  332MOL0     C45694   7.663   6.893   6.135 -0.3425 -0.9445  0.1101
  332MOL0     N45695   7.564   7.005   6.124  0.0644 -0.3039  0.3472
  332MOL0     C45696   7.592   7.131   6.174 -0.4018  0.6620 -1.3149
  332MOL0     C45697   7.494   7.216   6.117  0.0018  0.1725 -0.2254
  332MOL0     C45698   7.469   7.359   6.166  0.0564 -0.4393  0.0506
  332MOL0     C45699   7.397   7.370   6.302  0.4136  0.5545  0.6376
  332MOL0     C45700   7.251   7.313   6.289  0.4518 -0.8616  0.2630
  332MOL0     C45701   7.162   7.365   6.170  0.4692  0.4200  0.0845
  332MOL0     O45702   7.152   7.507   6.184 -0.2560  0.0658  0.4672
  332MOL0     C45703   7.045   7.550   6.263 -0.4741 -0.2051  0.1667
  332MOL0     C45704   6.919   7.492   6.258 -0.1785  0.2594  0.0636
  332MOL0     C45705   6.814   7.543   6.332  0.1776  0.0994  0.4147
  332MOL0     C45706   6.683   7.483   6.304  0.2441 -0.6047 -0.4993
  332MOL0     C45707   6.838   7.656   6.415  0.7563  0.0686 -0.0915
  332MOL0     C45708   6.735   7.721   6.491  0.4710 -0.2849 -0.3862
  332MOL0     O45709   6.711   7.851   6.465 -0.0867  0.0050 -0.6315
  332MOL0     C45710   6.599   7.904   6.530  0.2763 -0.3740  0.4525
  332MOL0     C45711   6.601   8.004   6.620 -0.7640 -0.3418 -0.1936
  332MOL0     C45712   6.480   8.063   6.666  0.6707  1.5116  0.1488
  332MOL0     C45713   6.356   8.005   6.649  0.8328  0.7232  0.5807
  332MOL0     O45714   6.246   8.056   6.709  0.5131  0.9385 -0.1303
  332MOL0     C45715   6.153   7.962   6.782 -0.4227 -0.6232  0.3680
  332MOL0     C45716   6.020   8.017   6.822 -0.3170 -0.1395 -0.8094
  332MOL0     C45717   5.936   7.927   6.906  1.0132  0.4550  0.0170
  332MOL0     C45718   5.807   8.001   6.946 -0.2327  0.6630 -0.0887
  332MOL0     C45719   5.717   7.904   7.032  0.2050 -0.0933 -0.1064
  332MOL0     C45720   5.677   7.763   6.967  0.0834  0.8312  0.2344
  332MOL0     C45721   5.542   7.704   7.023 -0.2029  0.1106  0.6500
  332MOL0     C45722   5.451   7.634   6.920 -0.4905 -0.2359 -0.2844
  332MOL0    Cl45723   5.402   7.755   6.794 -0.5239 -0.5789  0.1620
  332MOL0     C45724   6.355   7.899   6.561  0.3337 -0.6922  0.8553
  332MOL0     C45725   6.466   7.853   6.490 -1.0494  0.2247 -0.3824
  332MOL0     O45726   6.668   7.643   6.563  0.0599 -0.3617  0.0921
  332MOL0     C45727   6.962   7.707   6.425  0.3999 -0.1756 -0.9173
  332MOL0     C45728   7.064   7.661   6.341  0.6558 -0.5451 -0.3212
  332MOL0     N45729   7.419   7.133   6.033  0.2333 -0.8627  0.6184
  332MOL0     N45730   7.461   7.013   6.032  0.4116  0.5330 -0.3085
  332MOL0     C45731   8.037   6.005   5.811 -0.3623  0.1899 -0.7152
  332MOL0     C45732   8.133   5.936   5.738  0.0251  0.7347 -0.2010
  332MOL0     C45733   8.310   5.816   5.333  0.1679 -0.7904 -0.2556
  332MOL0     C45734   8.243   5.768   5.215  0.0357  0.6073  0.8992
  332MOL0     C45735   8.306   5.695   5.123  0.4540 -0.4865  0.9832
  332MOL0     C45736   8.438   5.649   5.134  0.2846  0.4426 -0.2344
  332MOL0     O45737   8.512   5.576   5.042  0.1253  0.3283  0.3467
  332MOL0     C45738   8.466   5.560   4.908 -0.8252 -0.1810 -0.3864
  332MOL0     C45739   8.468   5.694   4.821  0.2829  0.5137  0.6944
  332MOL0     C45740   8.425   5.664   4.680 -0.1894 -0.7135 -0.2500
  332MOL0     C45741   8.277   5.661   4.664  0.7338 -1.1714 -0.7942
  332MOL0     C45742   8.236   5.688   4.525  0.6937  0.6659  0.0978
  332MOL0     C45743   8.191   5.705   4.413  0.8398  0.3459  0.0448
  332MOL0     C45744   8.504   5.690   5.254 -0.3280 -1.1382  0.9073
  332MOL0     C45745   8.448   5.778   5.343 -0.9569  0.6330 -0.4697
  332MOL0     C45746   8.544   5.823   5.451  0.1556  0.6151  0.4063
  332MOL0     H45747   8.274   6.186   5.549 -0.3821 -3.7221 -3.6845
  332MOL0     H45748   8.119   6.310   5.682  1.4591  0.0300 -2.1867
  332MOL0     H45749   7.788   6.155   5.940 -1.2060 -1.0164 -0.9218
  332MOL0     H45750   7.783   6.174   5.767 -1.3555  0.9053 -0.4133
  332MOL0     H45751   7.796   6.421   5.796 -0.2216  0.1392  0.3860
  332MOL0     H45752   7.654   6.328   5.871 -0.4410 -0.5712  0.7793
  332MOL0     H45753   7.809   6.363   6.093  1.7825  1.0504  1.4498
  332MOL0     H45754   7.924   6.443   5.987  0.5123  1.0585  3.6620
  332MOL0     H45755   7.813   6.623   6.073  1.6560 -1.4393  0.7292
  332MOL0     H45756   7.741   6.598   5.913 -0.2405  0.4814  0.1764
  332MOL0     H45757   7.609   6.502   6.168 -2.8075 -0.7984  0.2483
  332MOL0     H45758   7.535   6.480   6.004 -2.1016  1.6481 -0.9338
  332MOL0     H45759   7.538   6.732   5.973  0.7834 -1.3644 -1.1611
  332MOL0     H45760   7.431   6.673   6.096 -0.9166 -0.4720 -1.6411
  332MOL0     H45761   7.665   6.706   6.238  1.0706 -0.5997 -2.2637
  332MOL0     H45762   7.523   6.792   6.253 -0.6969  0.9543  0.0735
  332MOL0     H45763   7.738   6.931   6.205  0.7026 -4.2297  0.9626
  332MOL0     H45764   7.718   6.874   6.043  3.8856  0.6947  2.0409
  332MOL0     H45765   7.668   7.166   6.242 -1.3034 -0.2321  0.2177
  332MOL0     H45766   7.425   7.422   6.088  0.9923  2.7879  1.9567
  332MOL0     H45767   7.569   7.401   6.179  0.4240 -1.3124  0.1124
  332MOL0     H45768   7.447   7.317   6.384 -1.2139 -1.2290  0.5399
  332MOL0     H45769   7.407   7.476   6.328 -1.5241  0.4710  1.9267
  332MOL0     H45770   7.246   7.204   6.280  1.9295 -0.8555 -0.9127
  332MOL0     H45771   7.212   7.327   6.391  1.9530 -1.7114  0.9856
  332MOL0     H45772   7.222   7.344   6.082  1.5706  1.2128  0.6105
  332MOL0     H45773   7.070   7.306   6.167  2.4777 -2.9945  0.5962
  332MOL0     H45774   6.894   7.414   6.187  1.1944 -0.3810  0.2638
  332MOL0     H45775   6.668   7.413   6.387 -2.0548  3.8361  3.2611
  332MOL0     H45776   6.672   7.434   6.206  0.2580  0.9261 -1.2887
  332MOL0     H45777   6.594   7.545   6.304  0.0022 -0.8998  1.2772
  332MOL0     H45778   6.686   8.070   6.637  0.2435 -0.4797 -3.8441
  332MOL0     H45779   6.482   8.144   6.739 -1.0633  0.4372  1.4767
  332MOL0     H45780   6.132   7.869   6.729 -1.0415 -1.7400  2.4533
  332MOL0     H45781   6.203   7.941   6.877  0.0604  2.7877  1.0226
  332MOL0     H45782   6.040   8.108   6.879 -1.3947 -1.1791  1.3423
  332MOL0     H45783   5.961   8.059   6.740  3.0438  0.3822 -3.1574
  332MOL0     H45784   5.983   7.907   7.002 -2.9864  3.4480  2.9382
  332MOL0     H45785   5.917   7.841   6.842  0.1298  0.7915 -0.1862
  332MOL0     H45786   5.760   8.009   6.847  1.5755 -1.0568 -1.1559
  332MOL0     H45787   5.813   8.095   7.001 -3.4833  0.2507  1.2433
  332MOL0     H45788   5.762   7.889   7.131  0.5937 -1.0785 -0.4137
  332MOL0     H45789   5.624   7.957   7.053  0.8840  0.8437  0.6051
  332MOL0     H45790   5.755   7.689   6.991 -1.1598  0.2977  3.0686
  332MOL0     H45791   5.653   7.783   6.863 -0.0157 -1.1681 -0.1676
  332MOL0     H45792   5.477   7.787   7.053 -2.1790 -0.5281 -1.6092
  332MOL0     H45793   5.546   7.647   7.116 -1.8643  0.4496  0.9538
  332MOL0     H45794   5.373   7.592   6.983  0.5005 -2.3643 -0.3732
  332MOL0     H45795   5.498   7.547   6.873  2.5660  1.5247 -0.7542
  332MOL0     H45796   6.257   7.854   6.551 -0.7833  0.9712  3.3895
  332MOL0     H45797   6.451   7.777   6.413  1.4191  0.7827 -1.4889
  332MOL0     H45798   6.996   7.788   6.487  2.0993  1.1760 -3.4323
  332MOL0     H45799   7.165   7.699   6.342  0.3874  0.3649  2.3581
  332MOL0     H45800   7.980   5.953   5.887 -0.5001  0.8248 -0.3770
  332MOL0     H45801   8.155   5.830   5.742  1.6822  0.9786 -1.7675
  332MOL0     H45802   8.142   5.803   5.202  0.5379  1.1589 -2.3268
  332MOL0     H45803   8.254   5.665   5.032  2.1349 -0.7877  0.0805
  332MOL0     H45804   8.535   5.495   4.853  3.1711  2.7688  0.6899
  332MOL0     H45805   8.364   5.519   4.903 -1.1064  0.5082 -0.4006
  332MOL0     H45806   8.573   5.723   4.809  0.1053  0.8049 -0.2545
  332MOL0     H45807   8.414   5.775   4.871  1.5684  0.4900  2.2187
  332MOL0     H45808   8.461   5.747   4.619  1.4151 -1.1573  0.0599
  332MOL0     H45809   8.464   5.578   4.625  1.9295 -0.8651  1.3649
  332MOL0     H45810   8.227   5.749   4.708 -3.1724 -2.0054 -3.0512
  332MOL0     H45811   8.240   5.561   4.689  0.0009 -0.6661  0.2432
  332MOL0     H45812   8.161   5.730   4.313 -1.8295  1.6610  1.0937
  332MOL0     H45813   8.602   5.648   5.271 -0.1613 -0.8551  0.6260
  332MOL0     H45814   8.642   5.803   5.407 -0.4198 -0.3884 -0.4911
  332MOL0     H45815   8.533   5.928   5.477  2.2245  1.0185 -0.1793
  332MOL0     H45816   8.537   5.765   5.544  1.8139  1.3117  0.9992
  333MOL0     O45817   7.620   4.250   2.701 -0.3254  0.2156  0.1010
  333MOL0     C45818   7.548   4.345   2.739 -0.3420  0.6649  0.1120
  333MOL0     O45819   7.432   4.338   2.812 -0.6441 -0.1161  0.2080
  333MOL0     C45820   7.387   4.215   2.853  0.0605 -0.7887 -0.4623
  333MOL0     C45821   7.343   4.121   2.755  0.2651  0.1882 -0.0295
  333MOL0     C45822   7.282   3.994   2.784 -0.1943  0.1242  0.6016
  333MOL0     C45823   7.251   3.978   2.914 -0.1043 -0.2543  0.1452
  333MOL0     O45824   7.175   3.863   2.937 -0.4319 -0.1547  0.1694
  333MOL0     C45825   7.217   3.792   3.049 -0.4809 -0.2059  0.1738
  333MOL0     C45826   7.184   3.647   3.038  0.2018  0.0726  0.1635
  333MOL0     C45827   7.237   3.554   3.154  0.0826  0.6078  0.0302
  333MOL0     C45828   7.195   3.590   3.302 -0.3602 -0.2040 -0.0105
  333MOL0     C45829   7.056   3.530   3.337 -0.7189  0.1675 -0.2911
  333MOL0     C45830   7.003   3.597   3.469  0.5919  1.7854 -0.5192
  333MOL0     C45831   6.844   3.559   3.496 -0.8281  0.3991  0.5413
  333MOL0     C45832   6.832   3.401   3.505  1.3174 -0.4060 -0.5459
  333MOL0     N45833   6.707   3.383   3.581 -0.0341 -0.3171 -0.0108
  333MOL0     C45834   6.594   3.326   3.526  0.6882  0.5901  0.2050
  333MOL0     C45835   6.500   3.360   3.617  1.1239 -0.4206  0.7731
  333MOL0     C45836   6.348   3.334   3.612  0.8180  0.2282  0.5788
  333MOL0     C45837   6.286   3.451   3.531  0.5920  0.1670  1.2943
  333MOL0     C45838   6.148   3.411   3.467  1.1747 -0.0875 -0.3015
  333MOL0     C45839   6.050   3.408   3.582  0.3366 -0.4071  0.7916
  333MOL0     O45840   5.920   3.385   3.525 -0.4830  0.1669  0.2973
  333MOL0     C45841   5.875   3.252   3.541  0.0137 -0.1104 -0.8021
  333MOL0     C45842   5.753   3.236   3.479  0.6277  0.4932  0.2813
  333MOL0     C45843   5.694   3.111   3.474  0.6256 -0.0895  0.5042
  333MOL0     C45844   5.558   3.113   3.404  0.1966 -0.1659  0.2309
  333MOL0     C45845   5.749   3.002   3.552 -0.3627 -0.6841  0.0822
  333MOL0     C45846   5.689   2.862   3.561 -0.1611  0.2940 -0.1690
  333MOL0     O45847   5.753   2.760   3.631  0.4741 -0.1854 -0.6253
  333MOL0     C45848   5.685   2.640   3.630 -1.3187 -0.0736 -0.8209
  333MOL0     C45849   5.743   2.534   3.567  0.0914 -0.0610 -1.3531
  333MOL0     C45850   5.678   2.413   3.562  0.2664 -0.6683 -0.6023
  333MOL0     C45851   5.550   2.397   3.620  0.2695  0.2280 -0.1606
  333MOL0     O45852   5.481   2.278   3.626 -0.4462  0.3665 -0.0168
  333MOL0     C45853   5.518   2.167   3.535 -0.6578 -1.1328  0.9961
  333MOL0     C45854   5.409   2.063   3.545  0.4737  0.4163 -0.5649
  333MOL0     C45855   5.371   1.992   3.413 -0.5840 -0.3053  0.3479
  333MOL0     C45856   5.326   1.849   3.424  0.3078  0.6872 -0.5456
  333MOL0     C45857   5.185   1.818   3.470  0.4728  0.4037 -0.0696
  333MOL0     C45858   5.173   1.808   3.622  0.0784  0.1073  1.3484
  333MOL0     C45859   5.029   1.813   3.675 -0.5098 -0.5432 -0.3474
  333MOL0     C45860   5.039   1.864   3.816  0.0479  0.5007 -0.0772
  333MOL0    Cl45861   5.078   2.040   3.812 -0.0589  0.4486  0.1039
  333MOL0     C45862   5.503   2.492   3.695  1.1470 -0.4722  0.2210
  333MOL0     C45863   5.565   2.618   3.696  0.3956 -0.2761  0.1035
  333MOL0     O45864   5.592   2.836   3.488 -0.0646  0.0514 -0.7236
  333MOL0     C45865   5.875   3.016   3.611  1.1511  0.6621  1.5293
  333MOL0     C45866   5.936   3.144   3.615 -0.0544  0.0339  0.2309
  333MOL0     N45867   6.554   3.426   3.716 -0.1251  0.0475  0.2831
  333MOL0     N45868   6.680   3.438   3.703 -0.0422 -0.3986  0.2292
  333MOL0     C45869   7.281   4.069   3.017 -0.1272 -0.2870  0.3336
  333MOL0     C45870   7.352   4.190   2.984  0.8190  0.6868 -0.1047
  333MOL0     C45871   7.606   4.478   2.703 -0.4281 -0.2241  0.2438
  333MOL0     C45872   7.563   4.579   2.789  0.2735 -0.0705  0.2570
  333MOL0     C45873   7.609   4.708   2.779  0.2377  0.6478 -0.9883
  333MOL0     C45874   7.683   4.753   2.670 -0.8399  0.0356 -0.0016
  333MOL0     O45875   7.698   4.890   2.656  0.5274 -0.1860 -0.0216
  333MOL0     C45876   7.791   4.928   2.556  0.4464  0.7009 -0.2203
  333MOL0     C45877   7.825   5.078   2.559  0.5370 -0.3636  0.4297
  333MOL0     C45878   7.709   5.170   2.500 -0.0193 -0.2234  0.4405
  333MOL0     C45879   7.721   5.317   2.543 -0.1963  0.6584  0.5133
  333MOL0     C45880   7.740   5.341   2.684 -0.9766  0.5573 -0.0161
  333MOL0     C45881   7.768   5.345   2.801 -0.3190 -1.1302 -0.5109
  333MOL0     C45882   7.730   4.651   2.580 -0.4378 -0.3283 -0.1590
  333MOL0     C45883   7.701   4.509   2.602  0.4810 -0.2258  0.1913
  333MOL0     C45884   7.770   4.410   2.509 -0.2298 -0.4620  0.2999
  333MOL0     H45885   7.352   4.147   2.650  0.0351  3.1825  0.6083
  333MOL0     H45886   7.251   3.924   2.707  1.9539  0.3633 -0.5363
  333MOL0     H45887   7.172   3.838   3.137 -1.3067 -3.8403  1.8152
  333MOL0     H45888   7.327   3.795   3.055 -0.4353 -0.3498 -0.4909
  333MOL0     H45889   7.077   3.632   3.051  0.4659 -1.7001  0.5606
  333MOL0     H45890   7.215   3.624   2.935 -0.8064 -0.1842 -0.0928
  333MOL0     H45891   7.215   3.448   3.140 -3.5048  1.3763 -1.0264
  333MOL0     H45892   7.346   3.561   3.141  0.1958 -1.4224 -0.3358
  333MOL0     H45893   7.274   3.557   3.370  0.0374 -0.7112 -0.7033
  333MOL0     H45894   7.182   3.698   3.297 -1.1856 -0.3409 -1.1975
  333MOL0     H45895   7.080   3.424   3.349 -1.6272  0.1823  2.6744
  333MOL0     H45896   6.980   3.537   3.259 -1.5190  1.6860  0.5657
  333MOL0     H45897   7.060   3.565   3.556 -1.3019  1.4301  0.6441
  333MOL0     H45898   7.012   3.706   3.464 -0.2167  1.8768 -0.1744
  333MOL0     H45899   6.787   3.590   3.408 -2.3365 -0.8128  1.0457
  333MOL0     H45900   6.810   3.607   3.588 -2.0336  2.1022 -0.7302
  333MOL0     H45901   6.803   3.361   3.408 -4.4169 -3.6370  1.9533
  333MOL0     H45902   6.922   3.363   3.554  1.1784 -1.3255 -0.9919
  333MOL0     H45903   6.587   3.274   3.430 -2.3330  2.2414 -0.6081
  333MOL0     H45904   6.310   3.337   3.715  4.9404  0.6568  2.2996
  333MOL0     H45905   6.333   3.235   3.569 -0.5490 -0.2016  1.9333
  333MOL0     H45906   6.269   3.532   3.603  1.4578 -0.1630  1.8747
  333MOL0     H45907   6.349   3.493   3.452 -1.6854  0.8271 -0.2966
  333MOL0     H45908   6.116   3.491   3.399 -1.0328 -0.8123 -0.1715
  333MOL0     H45909   6.152   3.314   3.417  0.1570  0.0571 -0.6974
  333MOL0     H45910   6.075   3.345   3.668  1.2106  0.5795  1.2866
  333MOL0     H45911   6.050   3.512   3.617  0.1779  0.0746 -0.5685
  333MOL0     H45912   5.716   3.327   3.432  2.0058  2.1070  2.1456
  333MOL0     H45913   5.485   3.141   3.481  0.1741 -0.9142  0.4892
  333MOL0     H45914   5.527   3.025   3.347 -4.1271  2.5393 -2.2167
  333MOL0     H45915   5.558   3.198   3.336  1.1827  0.2146  0.6938
  333MOL0     H45916   5.845   2.552   3.534 -0.4007  1.4762 -2.1496
  333MOL0     H45917   5.727   2.328   3.514  2.7813 -0.0336  0.6656
  333MOL0     H45918   5.519   2.214   3.436  1.2389 -1.7663  0.6713
  333MOL0     H45919   5.619   2.137   3.565 -1.1210 -2.6958  1.0811
  333MOL0     H45920   5.448   1.996   3.622  1.7355  1.8371  0.1000
  333MOL0     H45921   5.317   2.107   3.584  0.0109  0.7080 -1.9484
  333MOL0     H45922   5.456   1.984   3.345 -2.9872 -1.1104 -2.7744
  333MOL0     H45923   5.299   2.050   3.355 -0.4928  3.3326  3.4396
  333MOL0     H45924   5.401   1.802   3.489 -1.5012 -0.8195  0.5295
  333MOL0     H45925   5.327   1.814   3.321 -0.7038  2.5801 -1.2447
  333MOL0     H45926   5.100   1.875   3.433 -1.6578 -3.5381 -1.8833
  333MOL0     H45927   5.161   1.716   3.440 -2.3981 -0.3344  4.0135
  333MOL0     H45928   5.216   1.896   3.670 -0.0104  0.0693  1.4983
  333MOL0     H45929   5.224   1.722   3.666 -3.3117 -0.1439  5.3704
  333MOL0     H45930   4.968   1.723   3.667  1.0779 -1.6928  0.0682
  333MOL0     H45931   4.986   1.901   3.625  3.7890  2.2720  0.4254
  333MOL0     H45932   5.121   1.807   3.861  1.7823  0.7165 -2.7726
  333MOL0     H45933   4.946   1.854   3.873  1.4157  2.1501  2.6722
  333MOL0     H45934   5.417   2.475   3.759  3.0652  2.5323  4.0073
  333MOL0     H45935   5.516   2.686   3.766 -0.9097 -2.0962  1.0456
  333MOL0     H45936   5.923   2.926   3.648 -0.5221 -1.4106 -1.0116
  333MOL0     H45937   6.034   3.148   3.661 -0.4018 -2.1561  1.2815
  333MOL0     H45938   7.241   4.056   3.117 -1.4677  0.1335 -0.1272
  333MOL0     H45939   7.388   4.258   3.061  1.9603  1.1846 -1.0279
  333MOL0     H45940   7.506   4.548   2.876 -1.1902 -0.0881 -0.6701
  333MOL0     H45941   7.588   4.778   2.860  0.8202  0.9316 -1.0775
  333MOL0     H45942   7.882   4.868   2.565 -0.3772 -0.3454  1.9934
  333MOL0     H45943   7.742   4.903   2.462  2.6228 -2.3331 -0.6979
  333MOL0     H45944   7.912   5.099   2.496 -0.6178  2.0108 -0.5172
  333MOL0     H45945   7.864   5.110   2.656  0.3956  1.6261 -0.1158
  333MOL0     H45946   7.705   5.178   2.391  4.1159 -0.3176  0.1213
  333MOL0     H45947   7.617   5.134   2.547  0.7723  0.3546  2.5237
  333MOL0     H45948   7.637   5.371   2.499  0.1592  0.7543 -0.0559
  333MOL0     H45949   7.810   5.366   2.503  1.5860  0.5546  3.9689
  333MOL0     H45950   7.797   5.348   2.904 -2.3590 -0.7992  0.0942
  333MOL0     H45951   7.798   4.686   2.503 -1.0472  3.5201  0.8703
  333MOL0     H45952   7.838   4.341   2.560  0.9860 -1.1405 -2.0609
  333MOL0     H45953   7.701   4.339   2.462  0.4973 -0.4529 -0.8129
  333MOL0     H45954   7.828   4.472   2.441 -1.8741  0.6005 -0.1970
  334MOL0     O45955   3.860  11.228   6.295  0.5425  0.0643  0.1612
  334MOL0     C45956   3.763  11.300   6.278  0.6082  0.9814  0.2188
  334MOL0     O45957   3.774  11.439   6.280  0.7806 -0.0909 -0.5382
  334MOL0     C45958   3.883  11.511   6.261  0.7113  0.3366  0.2513
  334MOL0     C45959   3.998  11.463   6.197  0.7007  0.4610 -1.3889
  334MOL0     C45960   4.118  11.532   6.201  0.2216  0.1362  0.3204
  334MOL0     C45961   4.126  11.651   6.275 -0.1338  0.2497 -0.2665
  334MOL0     O45962   4.247  11.709   6.276 -0.3623 -0.3547 -0.1076
  334MOL0     C45963   4.260  11.853   6.305  0.9596 -0.1337  0.7904
  334MOL0     C45964   4.409  11.892   6.296 -0.9278 -0.0432  1.1187
  334MOL0     C45965   4.438  12.050   6.295  0.0537  0.4953  0.2311
  334MOL0     C45966   4.590  12.091   6.279 -0.1451  0.8559  0.1945
  334MOL0     C45967   4.683  12.019   6.380  0.1204  0.0535 -0.6720
  334MOL0     C45968   4.823  12.060   6.349  1.1058 -0.1544  0.9063
  334MOL0     C45969   4.919  11.998   6.443  0.5455 -1.1160 -0.2916
  334MOL0     C45970   5.060  12.053   6.436 -0.2421 -0.1312 -0.1931
  334MOL0     N45971   5.163  11.971   6.490  0.2184 -0.0242  1.0048
  334MOL0     C45972   5.165  11.923   6.623 -0.4095  0.2028 -0.1144
  334MOL0     C45973   5.267  11.840   6.638  0.2256  0.0275 -0.0362
  334MOL0     C45974   5.320  11.778   6.761  1.3247  0.0373 -0.3675
  334MOL0     C45975   5.446  11.696   6.733  0.0136 -0.3715  0.2031
  334MOL0     C45976   5.572  11.790   6.716 -0.8205  0.4387  0.1856
  334MOL0     C45977   5.685  11.707   6.673  0.3760  0.4173  0.1324
  334MOL0     O45978   5.802  11.783   6.647  0.2748  1.5719 -0.7360
  334MOL0     C45979   5.921  11.720   6.683  0.0920  0.4709 -0.5581
  334MOL0     C45980   6.012  11.798   6.746  0.7456 -0.2209  0.2249
  334MOL0     C45981   6.140  11.759   6.779 -0.1066  0.2234  1.0221
  334MOL0     C45982   6.215  11.865   6.859 -0.6720 -0.8290  0.6755
  334MOL0     C45983   6.193  11.631   6.737  0.5281 -0.1271  0.4748
  334MOL0     C45984   6.330  11.579   6.749 -0.2075 -0.0153 -0.7375
  334MOL0     O45985   6.349  11.437   6.730  0.2630 -0.6639  0.2575
  334MOL0     C45986   6.467  11.380   6.764  1.1875  0.4982  0.1614
  334MOL0     C45987   6.452  11.253   6.817 -0.0506  0.5444 -0.7453
  334MOL0     C45988   6.575  11.194   6.862 -0.6664 -0.1750 -0.5187
  334MOL0     C45989   6.700  11.246   6.811 -0.3484  0.1700 -0.4498
  334MOL0     O45990   6.819  11.186   6.829  0.3609  0.1553 -0.3014
  334MOL0     C45991   6.826  11.035   6.842 -0.8538 -0.3373  0.8477
  334MOL0     C45992   6.972  11.001   6.812 -0.2805  0.0408  0.4560
  334MOL0     C45993   7.061  11.051   6.919  0.6463 -1.6489 -0.9830
  334MOL0     C45994   7.212  11.023   6.874  0.4135 -1.0719  0.0045
  334MOL0     C45995   7.309  11.054   6.993 -0.3905  0.1859 -0.3412
  334MOL0     C45996   7.287  10.954   7.107  0.2285  0.0935 -0.1788
  334MOL0     C45997   7.381  10.951   7.229 -0.0481 -0.4977  0.4210
  334MOL0     C45998   7.526  10.934   7.193  0.2099  0.3217  0.7706
  334MOL0    Cl45999   7.542  10.803   7.093 -0.5392 -0.4980  0.2589
  334MOL0     C46000   6.705  11.363   6.747 -0.4889  0.1914  0.5175
  334MOL0     C46001   6.587  11.434   6.720 -0.2420 -0.0311 -0.1546
  334MOL0     O46002   6.422  11.658   6.781  0.8923 -0.5635  0.0902
  334MOL0     C46003   6.088  11.539   6.686  0.3373  0.6146 -0.7656
  334MOL0     C46004   5.963  11.585   6.653 -0.2090  0.4958 -0.0800
  334MOL0     N46005   5.320  11.830   6.505 -0.5643  0.5960  0.7167
  334MOL0     N46006   5.259  11.904   6.415  0.6103  0.0161  0.9397
  334MOL0     C46007   4.012  11.703   6.337 -0.6658  0.4991  0.5167
  334MOL0     C46008   3.887  11.630   6.331  0.1528 -0.0969  0.3112
  334MOL0     C46009   3.625  11.242   6.256 -0.4231  0.6304  0.7083
  334MOL0     C46010   3.523  11.336   6.265  0.4298 -0.4270  0.1781
  334MOL0     C46011   3.394  11.300   6.245 -0.1265  0.5548 -0.7492
  334MOL0     C46012   3.361  11.170   6.211  0.6750 -0.8510 -0.9860
  334MOL0     O46013   3.232  11.118   6.199 -0.1248 -1.3847  0.0478
  334MOL0     C46014   3.121  11.184   6.276 -0.8962 -0.0346 -0.0650
  334MOL0     C46015   3.118  11.129   6.414  0.0665  0.1686 -0.4089
  334MOL0     C46016   2.992  11.168   6.498  0.0906  0.3505  0.3154
  334MOL0     C46017   2.948  11.070   6.597  1.0757  0.0821 -0.1119
  334MOL0     C46018   3.021  11.064   6.729  0.3536 -0.5522 -0.5416
  334MOL0     C46019   3.081  11.040   6.828 -0.2803 -0.0180 -0.2022
  334MOL0     C46020   3.469  11.074   6.199 -0.1160  0.3499 -0.8444
  334MOL0     C46021   3.600  11.104   6.227  0.0455  0.8202  0.2497
  334MOL0     C46022   3.701  10.981   6.225  0.4139  0.1057 -0.0332
  334MOL0     H46023   3.990  11.367   6.147  1.8268 -3.0550  4.2701
  334MOL0     H46024   4.205  11.489   6.152 -1.6881 -0.2554 -3.0000
  334MOL0     H46025   4.235  11.875   6.409  0.5218 -2.4384  1.2209
  334MOL0     H46026   4.195  11.917   6.244  0.2620 -0.0877  1.5798
  334MOL0     H46027   4.469  11.849   6.377 -2.3518 -1.6910  1.3480
  334MOL0     H46028   4.435  11.845   6.201 -1.5052  1.4408  0.1974
  334MOL0     H46029   4.373  12.099   6.222 -0.2086 -1.2252 -0.7452
  334MOL0     H46030   4.396  12.073   6.393 -0.4168  0.3840  0.0574
  334MOL0     H46031   4.627  12.065   6.179  0.5002 -4.4039  1.5089
  334MOL0     H46032   4.610  12.196   6.299 -0.3843  0.3230  3.7413
  334MOL0     H46033   4.670  11.913   6.356  2.5020 -0.6350  0.7735
  334MOL0     H46034   4.660  12.050   6.482  0.2338  2.9431 -1.4167
  334MOL0     H46035   4.839  12.027   6.246 -1.8591 -2.8126  1.1536
  334MOL0     H46036   4.829  12.170   6.355 -0.6672 -0.1040  3.3408
  334MOL0     H46037   4.910  11.890   6.433 -1.8933 -0.9718 -0.1790
  334MOL0     H46038   4.887  12.009   6.548  1.1433 -1.2917 -0.0895
  334MOL0     H46039   5.081  12.085   6.333 -4.5417 -0.6163 -1.4103
  334MOL0     H46040   5.063  12.143   6.497  3.7824 -0.9964  1.1767
  334MOL0     H46041   5.099  11.939   6.708  1.4740 -2.4530  2.0424
  334MOL0     H46042   5.232  11.725   6.797  0.1345  1.2057 -1.4853
  334MOL0     H46043   5.332  11.861   6.832  1.8758 -0.3710  0.0246
  334MOL0     H46044   5.459  11.623   6.813 -3.4050 -1.1372  0.2252
  334MOL0     H46045   5.424  11.639   6.642 -2.4286  0.9683 -0.1402
  334MOL0     H46046   5.551  11.868   6.642 -0.3358  1.2549  0.8831
  334MOL0     H46047   5.584  11.852   6.805 -2.7106  0.9217  0.1592
  334MOL0     H46048   5.713  11.640   6.754  0.9802  0.3341 -0.1398
  334MOL0     H46049   5.658  11.654   6.581 -1.5950  1.1977  0.2181
  334MOL0     H46050   5.976  11.899   6.768  2.3636  0.3068  0.5741
  334MOL0     H46051   6.266  11.811   6.938 -0.9992 -0.5044  1.1135
  334MOL0     H46052   6.136  11.931   6.897 -1.8609 -0.7013 -1.8192
  334MOL0     H46053   6.296  11.915   6.806  1.1939 -1.9612  2.3227
  334MOL0     H46054   6.354  11.224   6.855 -0.8878  1.8865 -1.7747
  334MOL0     H46055   6.593  11.099   6.912  1.2899 -0.0777 -0.9702
  334MOL0     H46056   6.800  10.998   6.942  0.4304  0.7335  1.6108
  334MOL0     H46057   6.768  11.004   6.755  0.6460 -2.1200  0.4274
  334MOL0     H46058   6.980  10.895   6.786  1.4595 -0.8954  4.1794
  334MOL0     H46059   6.997  11.060   6.723 -0.4734  1.1383  1.1047
  334MOL0     H46060   7.028  11.002   7.012 -1.2449 -1.4296 -1.5001
  334MOL0     H46061   7.032  11.155   6.934 -1.6218 -2.2756 -0.6250
  334MOL0     H46062   7.226  11.088   6.787 -1.5834  0.8122  0.9785
  334MOL0     H46063   7.236  10.922   6.840  2.7302  0.2369 -2.6530
  334MOL0     H46064   7.415  11.058   6.968 -0.2596 -1.2257 -0.0820
  334MOL0     H46065   7.295  11.152   7.039  0.5680  0.3636 -0.4213
  334MOL0     H46066   7.279  10.849   7.078 -0.2945 -1.1299  3.8268
  334MOL0     H46067   7.200  10.988   7.163 -0.7202 -3.1847  0.5796
  334MOL0     H46068   7.346  10.873   7.297 -3.1462  0.3920  0.0096
  334MOL0     H46069   7.369  11.045   7.283 -2.5325 -0.8551  0.6108
  334MOL0     H46070   7.582  10.924   7.287  2.4902  1.7272 -0.3377
  334MOL0     H46071   7.570  11.024   7.148 -0.8508 -0.4662 -2.0169
  334MOL0     H46072   6.797  11.399   6.701 -0.5883  1.1305  1.0195
  334MOL0     H46073   6.592  11.523   6.659 -3.5967  0.6279  0.3615
  334MOL0     H46074   6.120  11.440   6.656 -2.2125 -1.1453  1.7075
  334MOL0     H46075   5.895  11.516   6.605 -2.2748  2.7503 -0.5769
  334MOL0     H46076   4.021  11.788   6.403 -2.5321  0.8260  0.3799
  334MOL0     H46077   3.792  11.676   6.356  1.4849  2.2478  1.3766
  334MOL0     H46078   3.542  11.442   6.270  2.0246 -0.7657  2.3823
  334MOL0     H46079   3.319  11.379   6.238  0.1697  0.8771 -0.2825
  334MOL0     H46080   3.146  11.290   6.283  2.5792 -0.6719 -0.8715
  334MOL0     H46081   3.029  11.180   6.217 -1.5056  1.1699  0.7535
  334MOL0     H46082   3.204  11.150   6.479 -0.8958 -2.3625  1.8731
  334MOL0     H46083   3.111  11.020   6.405  2.1073  0.1490 -2.9361
  334MOL0     H46084   3.002  11.270   6.538 -1.5828  0.0306  1.6738
  334MOL0     H46085   2.909  11.174   6.428 -0.7638 -0.7278  1.2096
  334MOL0     H46086   2.927  10.968   6.564  2.8699 -0.1058 -0.8012
  334MOL0     H46087   2.845  11.096   6.623  0.5133 -3.5351  1.8756
  334MOL0     H46088   3.142  11.000   6.907 -1.4550  3.7353  2.8604
  334MOL0     H46089   3.454  10.968   6.186  1.1532 -0.3228  2.3890
  334MOL0     H46090   3.771  11.000   6.143 -1.2416 -0.6662 -1.7064
  334MOL0     H46091   3.759  10.952   6.313  2.3207 -2.9100 -2.1070
  334MOL0     H46092   3.650  10.890   6.194  2.4803 -1.3643  0.6366
  335MOL0     O46093   9.628   4.051   1.756  0.3981  0.3986  0.1824
  335MOL0     C46094   9.536   4.089   1.683 -0.1976  0.6720  0.6716
  335MOL0     O46095   9.526   4.223   1.652  0.1126  0.4682  0.0266
  335MOL0     C46096   9.606   4.318   1.708 -0.4789  0.3123  0.0862
  335MOL0     C46097   9.632   4.321   1.845 -0.6315 -0.8251  0.0176
  335MOL0     C46098   9.720   4.418   1.899  0.6046  0.9104  1.0925
  335MOL0     C46099   9.776   4.504   1.812 -0.7221 -1.6329  1.3672
  335MOL0     O46100   9.857   4.599   1.873 -0.2111  0.7891  0.9321
  335MOL0     C46101   9.971   4.655   1.802  0.9652 -0.3911  0.1195
  335MOL0     C46102  10.084   4.702   1.898 -0.3826  0.6083  0.6102
  335MOL0     C46103  10.135   4.576   1.964 -0.8402  0.6223 -0.0716
  335MOL0     C46104  10.268   4.596   2.037  0.2432 -1.2681 -0.8455
  335MOL0     C46105  10.331   4.468   2.099  0.1995 -1.0113 -1.0111
  335MOL0     C46106  10.229   4.373   2.182 -0.4382  0.2083  0.0176
  335MOL0     C46107  10.160   4.441   2.298  0.2798  0.1998 -0.0081
  335MOL0     C46108  10.088   4.343   2.390 -0.5919  0.3735  0.4325
  335MOL0     N46109  10.053   4.218   2.323 -0.5210 -0.6418 -0.8038
  335MOL0     C46110  10.090   4.093   2.364 -0.0948  0.2888 -1.2933
  335MOL0     C46111  10.000   4.010   2.305 -0.8860 -0.3847 -0.1602
  335MOL0     C46112   9.986   3.861   2.323 -0.1489 -0.1410  0.5065
  335MOL0     C46113  10.032   3.818   2.461  1.1471  0.6465 -0.2529
  335MOL0     C46114   9.929   3.838   2.577 -0.2231 -0.0297  0.2818
  335MOL0     C46115   9.801   3.753   2.575  0.0805 -0.2162 -0.4316
  335MOL0     O46116   9.719   3.745   2.694 -0.2929 -0.0328  0.2365
  335MOL0     C46117   9.628   3.842   2.735 -0.0719 -0.0366 -0.2969
  335MOL0     C46118   9.614   3.966   2.679 -0.8317  0.3388  0.3062
  335MOL0     C46119   9.524   4.063   2.731 -0.6255 -0.4004 -0.1584
  335MOL0     C46120   9.512   4.191   2.656 -0.1821 -0.4660  0.9968
  335MOL0     C46121   9.453   4.037   2.854  0.6742 -0.4597 -0.3491
  335MOL0     C46122   9.350   4.131   2.917  0.3808 -0.8735 -0.5829
  335MOL0     O46123   9.364   4.260   2.890  0.3554 -0.0091 -0.6955
  335MOL0     C46124   9.296   4.354   2.962  0.3598  0.5321  0.1499
  335MOL0     C46125   9.158   4.356   2.968  0.9958 -0.6517  0.0370
  335MOL0     C46126   9.089   4.463   3.027  0.9767  0.1973 -0.4303
  335MOL0     C46127   9.159   4.561   3.086 -0.0531 -0.6851  0.3434
  335MOL0     O46128   9.104   4.674   3.145 -0.9557  0.4605 -0.0729
  335MOL0     C46129   8.995   4.746   3.088 -0.3378  0.0946  0.0114
  335MOL0     C46130   8.864   4.752   3.168  1.3144 -0.0902 -0.9748
  335MOL0     C46131   8.802   4.613   3.201  0.4382 -1.2281  0.2209
  335MOL0     C46132   8.683   4.630   3.302  0.3661  0.0612 -0.1027
  335MOL0     C46133   8.665   4.507   3.391 -0.2609  0.9258 -0.3522
  335MOL0     C46134   8.639   4.375   3.309 -0.2619 -0.0649 -0.2917
  335MOL0     C46135   8.505   4.379   3.241  0.8269 -0.6407 -0.4098
  335MOL0     C46136   8.476   4.248   3.185 -0.5893  0.1692 -0.3451
  335MOL0    Cl46137   8.320   4.209   3.110 -0.1782 -0.6304  0.0044
  335MOL0     C46138   9.294   4.559   3.093  0.2225  0.1757 -0.5314
  335MOL0     C46139   9.364   4.454   3.035  0.2826  0.0068 -0.0148
  335MOL0     O46140   9.276   4.081   3.005  0.0435  0.3855  1.3499
  335MOL0     C46141   9.468   3.911   2.901 -0.1142 -0.6819  0.4065
  335MOL0     C46142   9.563   3.820   2.853 -0.1563 -0.1363 -0.0525
  335MOL0     N46143   9.916   4.086   2.226  0.3827  0.0357  0.8507
  335MOL0     N46144   9.944   4.210   2.247 -0.3204 -0.0827 -0.3973
  335MOL0     C46145   9.752   4.499   1.678  0.0977 -0.5784  0.3007
  335MOL0     C46146   9.662   4.413   1.626  0.5059 -0.9923  0.1500
  335MOL0     C46147   9.441   3.997   1.604  0.9600  0.0253  0.6467
  335MOL0     C46148   9.388   4.054   1.486 -0.5042  0.7446 -0.9679
  335MOL0     C46149   9.313   3.983   1.400 -0.9864 -0.6174 -0.0593
  335MOL0     C46150   9.290   3.848   1.418 -0.5720  0.9823  0.7309
  335MOL0     O46151   9.223   3.773   1.317  0.3833 -0.0365 -1.1309
  335MOL0     C46152   9.148   3.854   1.216  0.1430  0.3916 -0.3896
  335MOL0     C46153   9.046   3.762   1.138  1.0495  0.7198 -0.0362
  335MOL0     C46154   9.108   3.640   1.084 -0.1496 -0.1773  0.8204
  335MOL0     C46155   9.183   3.672   0.950  0.4708  1.1159  0.1943
  335MOL0     C46156   9.260   3.547   0.915  0.6099 -1.4116  0.6859
  335MOL0     C46157   9.330   3.447   0.895  0.9208  0.4149 -0.1492
  335MOL0     C46158   9.348   3.780   1.524 -0.1886  0.3141  0.2255
  335MOL0     C46159   9.412   3.854   1.624  0.2256 -0.7256 -0.7960
  335MOL0     C46160   9.466   3.797   1.751 -0.1861 -0.0437  0.1568
  335MOL0     H46161   9.601   4.247   1.918  3.2831 -2.6710  0.1016
  335MOL0     H46162   9.738   4.421   2.006  2.6057 -0.6452  0.8501
  335MOL0     H46163   9.942   4.737   1.735 -1.7968 -0.5725  0.9815
  335MOL0     H46164  10.009   4.579   1.734 -1.3517 -0.4673 -1.1838
  335MOL0     H46165  10.159   4.747   1.833 -0.7229 -1.5852 -1.4131
  335MOL0     H46166  10.046   4.771   1.975  0.3784  0.3274  1.2584
  335MOL0     H46167  10.062   4.554   2.042 -4.8746  2.8441 -2.8498
  335MOL0     H46168  10.153   4.500   1.887 -0.9527 -0.6376  1.1027
  335MOL0     H46169  10.347   4.640   1.975 -1.2925  3.2198  0.0192
  335MOL0     H46170  10.249   4.666   2.119  1.3992 -0.8598 -0.8964
  335MOL0     H46171  10.420   4.486   2.160 -0.7232 -3.1698  1.1098
  335MOL0     H46172  10.371   4.400   2.023  2.1817 -0.9298 -0.0928
  335MOL0     H46173  10.150   4.344   2.111  0.1059  1.6824 -1.2288
  335MOL0     H46174  10.276   4.278   2.209  1.7667  0.3042 -3.0046
  335MOL0     H46175  10.087   4.509   2.253  0.3005 -1.7675 -3.3401
  335MOL0     H46176  10.230   4.495   2.361 -1.5565 -0.9570  3.2698
  335MOL0     H46177  10.146   4.323   2.480 -3.0259 -0.8662  1.8140
  335MOL0     H46178   9.996   4.381   2.435 -0.2566 -1.6460  3.0928
  335MOL0     H46179  10.172   4.055   2.424 -0.2906 -3.7611 -3.2217
  335MOL0     H46180  10.062   3.825   2.253 -0.6016 -1.0047  0.4477
  335MOL0     H46181   9.886   3.827   2.295 -0.2585  0.5083  0.0894
  335MOL0     H46182  10.042   3.709   2.461  1.0532  0.6305  0.4693
  335MOL0     H46183  10.123   3.865   2.498  0.9504 -0.3110  1.5860
  335MOL0     H46184   9.984   3.803   2.665  3.4080 -3.8793 -3.0652
  335MOL0     H46185   9.898   3.943   2.578 -1.4501 -0.3170 -1.7118
  335MOL0     H46186   9.748   3.793   2.488  2.2182  0.5190 -1.4936
  335MOL0     H46187   9.831   3.649   2.556 -1.2708 -0.5741 -0.7147
  335MOL0     H46188   9.654   3.972   2.578 -0.4939  0.9185  0.4697
  335MOL0     H46189   9.554   4.271   2.719 -0.0675 -1.3830  2.1228
  335MOL0     H46190   9.406   4.214   2.640 -0.0678 -0.5099  0.1354
  335MOL0     H46191   9.561   4.175   2.560 -1.4180 -0.6776  0.3845
  335MOL0     H46192   9.105   4.270   2.930 -2.6603  1.4508 -0.0405
  335MOL0     H46193   8.982   4.453   3.019  0.9710  0.4928 -0.7652
  335MOL0     H46194   9.029   4.850   3.081  0.6484 -0.3248 -2.6782
  335MOL0     H46195   8.971   4.711   2.987  0.7892  2.2373 -1.0544
  335MOL0     H46196   8.873   4.811   3.260 -1.7611  0.6300 -1.0245
  335MOL0     H46197   8.799   4.811   3.103  0.6301 -2.2489 -2.3701
  335MOL0     H46198   8.875   4.553   3.257  0.6162 -0.6240  0.6387
  335MOL0     H46199   8.778   4.576   3.100  2.3238  0.4317 -0.9204
  335MOL0     H46200   8.596   4.660   3.242  1.4486  0.3323 -1.6011
  335MOL0     H46201   8.702   4.713   3.371  0.3880 -2.5954  3.3467
  335MOL0     H46202   8.755   4.490   3.452  0.5271  2.7588 -0.9312
  335MOL0     H46203   8.587   4.535   3.463  0.8604  0.9726  0.8915
  335MOL0     H46204   8.650   4.287   3.373 -1.1034  0.6087  0.8123
  335MOL0     H46205   8.730   4.372   3.247  1.7755  5.1496  1.8342
  335MOL0     H46206   8.501   4.456   3.164 -0.6364  0.5764  0.8137
  335MOL0     H46207   8.426   4.394   3.315  0.7389 -0.9168 -0.4472
  335MOL0     H46208   8.485   4.164   3.255 -1.0398 -1.2139 -1.8725
  335MOL0     H46209   8.559   4.230   3.116 -1.4071 -0.6991 -1.1432
  335MOL0     H46210   9.354   4.635   3.143  0.9808  1.8632 -3.7011
  335MOL0     H46211   9.473   4.455   3.027  0.1417 -0.0667 -3.8783
  335MOL0     H46212   9.415   3.877   2.989  0.7780 -2.4818  0.2921
  335MOL0     H46213   9.573   3.719   2.892 -0.8244 -0.1152  0.1947
  335MOL0     H46214   9.813   4.575   1.629 -2.9162  1.3362 -0.7583
  335MOL0     H46215   9.639   4.402   1.521  0.0657  0.9648  0.0029
  335MOL0     H46216   9.397   4.158   1.457 -0.0962  1.2110  0.7293
  335MOL0     H46217   9.261   4.037   1.322 -0.9575  0.2915  0.5405
  335MOL0     H46218   9.088   3.929   1.269  2.3143  0.2167  2.5475
  335MOL0     H46219   9.211   3.910   1.146  1.3137  1.5980  1.5483
  335MOL0     H46220   9.007   3.830   1.062 -1.4671  0.3000  0.7752
  335MOL0     H46221   8.966   3.725   1.203  0.6971 -0.1503 -0.9347
  335MOL0     H46222   9.180   3.601   1.155 -1.3598  0.8913  2.7318
  335MOL0     H46223   9.037   3.558   1.069 -0.7808  0.4201  0.4305
  335MOL0     H46224   9.256   3.750   0.972 -0.0421  2.5205 -2.6677
  335MOL0     H46225   9.123   3.717   0.870  0.7453  0.9140 -0.1236
  335MOL0     H46226   9.384   3.357   0.873  1.6045  0.1414  2.3743
  335MOL0     H46227   9.331   3.673   1.531 -0.7011  0.3891  0.2100
  335MOL0     H46228   9.389   3.738   1.800  1.3067 -0.1855  2.4726
  335MOL0     H46229   9.540   3.720   1.724 -0.7694 -0.2016 -1.0895
  335MOL0     H46230   9.525   3.857   1.820  1.8016 -1.2398 -0.4012
  336MOL0     O46231   8.517   7.104   9.117 -0.4631  0.9633 -0.3169
  336MOL0     C46232   8.493   7.221   9.090 -0.0197 -0.1622 -0.1805
  336MOL0     O46233   8.497   7.323   9.183 -0.3230  0.5141 -0.3662
  336MOL0     C46234   8.568   7.314   9.306 -0.0380  0.2762  0.2735
  336MOL0     C46235   8.509   7.244   9.409 -0.2268  0.0475  1.1465
  336MOL0     C46236   8.561   7.229   9.539  0.5946  0.9317  0.6701
  336MOL0     C46237   8.675   7.292   9.564 -0.0056  0.2219  0.6333
  336MOL0     O46238   8.722   7.312   9.693  0.3380 -0.0357 -0.7695
  336MOL0     C46239   8.731   7.186   9.775 -0.4137 -0.2803 -0.2443
  336MOL0     C46240   8.857   7.101   9.736 -0.3375 -0.7017 -0.7050
  336MOL0     C46241   8.975   7.140   9.819  0.2457  0.4932 -0.2009
  336MOL0     C46242   9.038   7.274   9.777 -0.0689  0.1085  0.4264
  336MOL0     C46243   9.171   7.290   9.849 -0.7948  0.3331  0.6210
  336MOL0     C46244   9.163   7.314  10.001 -0.4147 -0.2062 -0.0685
  336MOL0     C46245   9.295   7.343  10.054  0.3004  0.5159 -0.4284
  336MOL0     C46246   9.354   7.491  10.036 -0.6024  0.2767  0.5247
  336MOL0     N46247   9.278   7.599  10.092  0.4853 -0.6771 -0.2978
  336MOL0     C46248   9.282   7.649  10.213  0.3234 -0.5232  0.4918
  336MOL0     C46249   9.193   7.756  10.218 -0.2032 -0.1358 -0.0546
  336MOL0     C46250   9.171   7.835  10.344 -0.1151 -0.6670  0.4267
  336MOL0     C46251   9.056   7.769  10.423  0.1209 -0.2380 -0.6595
  336MOL0     C46252   8.987   7.870  10.521 -0.3827 -0.0454  0.3139
  336MOL0     C46253   8.848   7.820  10.572 -0.1804  0.1596 -0.0229
  336MOL0     O46254   8.786   7.938  10.613 -0.1129 -1.0280  0.7389
  336MOL0     C46255   8.652   7.925  10.646 -0.4204  0.0876  0.2718
  336MOL0     C46256   8.597   7.810  10.702  0.4634 -0.2152 -0.1794
  336MOL0     C46257   8.455   7.814  10.743  0.0838 -0.0020  0.3979
  336MOL0     C46258   8.401   7.685  10.815  0.2692  0.0168 -0.1683
  336MOL0     C46259   8.383   7.933  10.736 -0.6027 -0.4578 -0.1224
  336MOL0     C46260   8.246   7.938  10.805 -0.0156  0.8374  0.5467
  336MOL0     O46261   8.157   7.834  10.794  0.4638 -0.4585 -0.2599
  336MOL0     C46262   8.029   7.865  10.824  0.3893  0.1311 -0.3491
  336MOL0     C46263   7.973   7.838  10.953 -0.2054  1.0143  0.0724
  336MOL0     C46264   7.845   7.880  10.985 -0.1306 -0.1841  0.5106
  336MOL0     C46265   7.763   7.937  10.888 -0.3318 -0.2238  1.1072
  336MOL0     O46266   7.645   7.974  10.926  1.1345 -1.0717 -0.5694
  336MOL0     C46267   7.615   8.100  10.888 -0.0280  0.4825 -0.4800
  336MOL0     C46268   7.471   8.121  10.932  0.0006  0.3192  0.4063
  336MOL0     C46269   7.453   8.270  10.989 -0.4382 -0.8548 -0.4955
  336MOL0     C46270   7.453   8.373  10.874 -0.1535  0.1518  0.0686
  336MOL0     C46271   7.413   8.512  10.918 -0.3762 -0.7089 -0.4166
  336MOL0     C46272   7.354   8.598  10.807  0.0530 -0.4522  0.5230
  336MOL0     C46273   7.220   8.539  10.766 -0.1117  0.4673 -0.5153
  336MOL0     C46274   7.131   8.638  10.707  0.8047  0.5476 -0.0469
  336MOL0    Cl46275   7.197   8.694  10.542  0.2085  0.8230  0.2423
  336MOL0     C46276   7.828   7.956  10.757 -0.1357 -0.2875 -0.0774
  336MOL0     C46277   7.956   7.912  10.725 -0.7043 -0.4947 -0.5519
  336MOL0     O46278   8.225   8.044  10.859 -0.5313  1.0019  0.3383
  336MOL0     C46279   8.440   8.046  10.672  0.1269 -0.2147  0.2951
  336MOL0     C46280   8.571   8.040  10.632  0.2141 -0.5390  1.0570
  336MOL0     N46281   9.141   7.773  10.099  1.1814 -0.6904  0.2852
  336MOL0     N46282   9.187   7.680  10.022 -0.2171 -0.3874  0.0729
  336MOL0     C46283   8.759   7.349   9.457 -0.4433  0.1310  0.5847
  336MOL0     C46284   8.700   7.359   9.331 -0.4328 -0.6152  0.1909
  336MOL0     C46285   8.431   7.251   8.958  0.5257  0.0195 -0.6182
  336MOL0     C46286   8.420   7.150   8.860  0.1331  0.0613 -0.2933
  336MOL0     C46287   8.386   7.177   8.727  0.2521  0.3820  0.3079
  336MOL0     C46288   8.349   7.302   8.679  0.5941  0.2691 -0.4863
  336MOL0     O46289   8.318   7.301   8.545  0.0067  0.0884 -0.1043
  336MOL0     C46290   8.336   7.421   8.470  0.2937 -0.5992 -0.5017
  336MOL0     C46291   8.481   7.430   8.435  0.7282  0.7347  0.2631
  336MOL0     C46292   8.510   7.551   8.334  0.0799 -0.8207  0.1961
  336MOL0     C46293   8.656   7.530   8.269  0.4460  0.3687 -0.1530
  336MOL0     C46294   8.762   7.513   8.370  1.1937  0.8657 -0.1363
  336MOL0     C46295   8.847   7.517   8.462 -0.6105 -0.5378 -0.2424
  336MOL0     C46296   8.348   7.403   8.770  0.1959  0.1293 -0.8473
  336MOL0     C46297   8.386   7.378   8.909 -0.4825  0.3521 -0.5353
  336MOL0     C46298   8.374   7.500   8.994 -0.1523  0.9989  0.7766
  336MOL0     H46299   8.414   7.198   9.387  0.5510 -2.0508  1.8852
  336MOL0     H46300   8.498   7.181   9.612  1.0540  0.0687  0.5102
  336MOL0     H46301   8.632   7.140   9.772 -0.1476 -0.8342 -1.0555
  336MOL0     H46302   8.748   7.212   9.880  1.0519  1.6360 -0.8932
  336MOL0     H46303   8.845   6.993   9.743  1.1830 -0.9977 -2.0445
  336MOL0     H46304   8.879   7.128   9.632 -0.0256 -1.8107 -0.9356
  336MOL0     H46305   8.934   7.140   9.920 -0.0915  0.5383 -0.3360
  336MOL0     H46306   9.049   7.060   9.805 -1.2537 -0.4183 -4.4019
  336MOL0     H46307   9.053   7.262   9.669  0.4535 -2.9338  0.7286
  336MOL0     H46308   8.974   7.361   9.790  0.2140  0.6462 -1.4407
  336MOL0     H46309   9.224   7.369   9.795  0.0159 -0.9519 -0.5112
  336MOL0     H46310   9.226   7.197   9.835 -3.2745 -1.1298  0.0784
  336MOL0     H46311   9.104   7.401  10.033  0.1215  0.5095 -0.9734
  336MOL0     H46312   9.121   7.222  10.043  0.5952 -1.1086 -0.9649
  336MOL0     H46313   9.373   7.270  10.031 -0.2513 -0.2430  0.0283
  336MOL0     H46314   9.287   7.323  10.162  0.8181  0.7662 -0.3449
  336MOL0     H46315   9.461   7.498  10.057 -0.3103  0.2283 -0.8549
  336MOL0     H46316   9.346   7.511   9.928 -0.7998  0.5082  0.5817
  336MOL0     H46317   9.349   7.611  10.289  2.8370 -0.6356 -1.6382
  336MOL0     H46318   9.140   7.937  10.317 -4.3678 -2.3606 -2.1771
  336MOL0     H46319   9.261   7.832  10.406  0.2283  1.2766  0.1096
  336MOL0     H46320   8.978   7.736  10.354 -2.7561  4.6245 -0.1712
  336MOL0     H46321   9.102   7.692  10.486  0.3214 -1.4100 -2.1712
  336MOL0     H46322   9.053   7.900  10.603  2.4827 -1.3382 -1.4048
  336MOL0     H46323   8.983   7.962  10.462  2.7391  0.6803  1.0617
  336MOL0     H46324   8.813   7.759  10.488  2.2398  0.1958 -1.1408
  336MOL0     H46325   8.869   7.763  10.662  1.2322  0.3468 -0.2156
  336MOL0     H46326   8.657   7.720  10.701  2.3515  0.9807 -0.6023
  336MOL0     H46327   8.305   7.649  10.778  0.3562  1.0566 -1.4784
  336MOL0     H46328   8.383   7.718  10.918 -2.1127  0.4141 -0.6712
  336MOL0     H46329   8.477   7.606  10.823  1.9499  1.3443 -2.1390
  336MOL0     H46330   8.041   7.792  11.025 -0.7964 -0.2138 -0.1254
  336MOL0     H46331   7.816   7.858  11.087  1.4828 -3.0916  0.4360
  336MOL0     H46332   7.681   8.167  10.943 -0.0437 -0.2725  0.4848
  336MOL0     H46333   7.625   8.126  10.782 -2.2490 -1.2739 -1.1973
  336MOL0     H46334   7.408   8.102  10.844  1.1600  2.2317 -0.9149
  336MOL0     H46335   7.441   8.053  11.012  2.4613 -0.5628  0.6712
  336MOL0     H46336   7.536   8.295  11.055 -0.1128 -2.3593 -0.3066
  336MOL0     H46337   7.360   8.273  11.047  0.2679  1.9147  0.6361
  336MOL0     H46338   7.379   8.332  10.805 -2.0979 -1.5283  2.9117
  336MOL0     H46339   7.555   8.381  10.835  0.4091  1.9253  1.7834
  336MOL0     H46340   7.337   8.507  10.998 -0.4198 -0.2721 -0.4327
  336MOL0     H46341   7.500   8.568  10.953 -1.1599 -1.4470  3.2511
  336MOL0     H46342   7.412   8.607  10.715 -1.2942 -1.3247 -0.4378
  336MOL0     H46343   7.348   8.698  10.851 -2.3483  0.0391 -0.7945
  336MOL0     H46344   7.168   8.496  10.851  1.3181 -1.7461 -0.6875
  336MOL0     H46345   7.224   8.449  10.704  1.9057 -2.5094  3.5349
  336MOL0     H46346   7.120   8.723  10.774  3.1372 -1.4335  3.1491
  336MOL0     H46347   7.032   8.601  10.678  1.2679  0.7419 -2.0335
  336MOL0     H46348   7.767   7.998  10.677 -0.8746  0.7328  0.9901
  336MOL0     H46349   8.005   7.926  10.629  2.0597  2.7008  1.1165
  336MOL0     H46350   8.386   8.139  10.681 -0.3391 -0.3220 -1.2021
  336MOL0     H46351   8.616   8.133  10.598  0.2255 -1.6162 -2.2034
  336MOL0     H46352   8.854   7.391   9.486 -0.2363 -1.0567  1.7584
  336MOL0     H46353   8.769   7.411   9.265 -0.4380  2.4175  2.3474
  336MOL0     H46354   8.449   7.050   8.890 -0.4168  0.4509  1.6849
  336MOL0     H46355   8.387   7.094   8.656  2.7949 -0.9158  1.7210
  336MOL0     H46356   8.286   7.416   8.373  1.9745 -0.7947 -1.3897
  336MOL0     H46357   8.312   7.521   8.507  1.2674 -1.0732  1.5431
  336MOL0     H46358   8.503   7.337   8.382 -1.8585 -0.2344  0.7517
  336MOL0     H46359   8.538   7.438   8.528 -1.4981  0.5157  1.7041
  336MOL0     H46360   8.435   7.548   8.256  0.7822 -1.0541 -0.4830
  336MOL0     H46361   8.507   7.652   8.375  1.8494 -1.2295  1.4905
  336MOL0     H46362   8.687   7.616   8.209  3.9441 -0.2820  0.5218
  336MOL0     H46363   8.664   7.437   8.212  1.3128 -0.6978  1.6018
  336MOL0     H46364   8.916   7.506   8.544  0.6265  0.5153 -1.0886
  336MOL0     H46365   8.310   7.501   8.741 -1.0448  0.2746  1.0808
  336MOL0     H46366   8.285   7.501   9.059 -0.1905 -3.3404  1.1284
  336MOL0     H46367   8.467   7.514   9.050  1.3901  1.4425 -1.7484
  336MOL0     H46368   8.372   7.585   8.926  1.2803  1.6199  1.4645
  337MOL0     O46369   1.223   2.853   0.770  0.0630 -1.1301  0.0569
  337MOL0     C46370   1.329   2.804   0.741 -1.2302 -0.5706  0.0815
  337MOL0     O46371   1.446   2.872   0.719  0.1241 -0.7218 -0.4016
  337MOL0     C46372   1.461   2.994   0.769  0.7727  0.5432  0.5509
  337MOL0     C46373   1.401   3.105   0.708  0.7480  0.1689 -0.5452
  337MOL0     C46374   1.439   3.234   0.742  0.1128  0.2902  0.1606
  337MOL0     C46375   1.547   3.246   0.827  0.1638 -1.1330  0.1497
  337MOL0     O46376   1.603   3.371   0.861  0.4347  0.4269  0.4008
  337MOL0     C46377   1.723   3.390   0.780 -0.4518 -0.9234 -0.0200
  337MOL0     C46378   1.772   3.521   0.825  0.2775  0.1045  0.7246
  337MOL0     C46379   1.905   3.556   0.755  0.1638  0.3975  0.7380
  337MOL0     C46380   2.020   3.448   0.726 -1.4112 -0.3198  0.0171
  337MOL0     C46381   2.136   3.434   0.837 -0.9746  0.3606  0.1832
  337MOL0     C46382   2.280   3.433   0.778 -0.3161 -0.5578  0.4285
  337MOL0     C46383   2.321   3.566   0.717 -0.5228 -0.3565  0.8363
  337MOL0     C46384   2.363   3.544   0.564 -0.5482  0.0330  0.2805
  337MOL0     N46385   2.503   3.510   0.561  0.4922 -0.0590  0.1595
  337MOL0     C46386   2.609   3.592   0.515 -0.1151 -0.0156  0.9839
  337MOL0     C46387   2.720   3.516   0.547  0.4449 -0.6851  0.3304
  337MOL0     C46388   2.863   3.578   0.531  0.3648  0.8692  0.1394
  337MOL0     C46389   2.986   3.485   0.550  0.0869  0.1880  1.1066
  337MOL0     C46390   3.119   3.561   0.529 -0.5691  0.4527 -0.1309
  337MOL0     C46391   3.240   3.477   0.568  0.6547  0.4489  0.9437
  337MOL0     O46392   3.219   3.346   0.494 -0.4102  1.0794  0.4149
  337MOL0     C46393   3.271   3.237   0.556 -0.5206 -1.2596  0.9298
  337MOL0     C46394   3.411   3.234   0.576 -0.7778 -1.0767 -0.3125
  337MOL0     C46395   3.471   3.123   0.647  0.5728 -0.5161 -0.9525
  337MOL0     C46396   3.621   3.134   0.670  0.0142 -0.1456  0.4616
  337MOL0     C46397   3.391   3.010   0.667  0.0849 -0.0317 -0.6599
  337MOL0     C46398   3.442   2.893   0.727  0.6882  0.1886 -0.1602
  337MOL0     O46399   3.546   2.832   0.661 -1.0175 -0.1664  0.3541
  337MOL0     C46400   3.595   2.712   0.690  0.1452 -1.1215 -0.1775
  337MOL0     C46401   3.648   2.696   0.819  1.1978 -0.1129 -0.7686
  337MOL0     C46402   3.725   2.591   0.859 -0.1484 -0.3658 -0.0023
  337MOL0     C46403   3.737   2.485   0.768  0.3349  0.1709  0.5306
  337MOL0     O46404   3.807   2.372   0.801  0.1654  0.2989  0.4650
  337MOL0     C46405   3.737   2.248   0.828  0.1156  0.2583 -0.2481
  337MOL0     C46406   3.630   2.258   0.943 -0.2461  0.7621  0.0358
  337MOL0     C46407   3.713   2.273   1.063 -0.5812 -0.4448 -0.5182
  337MOL0     C46408   3.630   2.310   1.187  0.8606 -0.1372 -1.9678
  337MOL0     C46409   3.692   2.440   1.252  0.3827  0.6076  0.4308
  337MOL0     C46410   3.609   2.493   1.366 -0.1117 -0.5956 -0.6896
  337MOL0     C46411   3.515   2.605   1.324  0.7956  0.3339  0.9734
  337MOL0     C46412   3.423   2.658   1.434 -0.0711  0.1506 -0.2784
  337MOL0    Cl46413   3.522   2.728   1.568  0.0705  0.3676  0.2099
  337MOL0     C46414   3.683   2.498   0.633 -1.3183  0.6645  0.2037
  337MOL0     C46415   3.618   2.612   0.602  0.4791  0.7062  0.0240
  337MOL0     O46416   3.389   2.853   0.831 -0.3058 -0.3626 -0.4833
  337MOL0     C46417   3.252   3.013   0.647 -0.3273  0.5338  0.1551
  337MOL0     C46418   3.199   3.121   0.589 -0.3355  0.1777  0.1798
  337MOL0     N46419   2.682   3.391   0.611 -0.2502  0.1233  0.3411
  337MOL0     N46420   2.556   3.404   0.621 -0.5867 -0.0591 -0.8091
  337MOL0     C46421   1.608   3.132   0.879 -0.8209 -0.6472 -1.3617
  337MOL0     C46422   1.559   3.004   0.852 -0.1278 -0.1127  0.3111
  337MOL0     C46423   1.340   2.661   0.729 -0.4241 -0.5817  0.8036
  337MOL0     C46424   1.459   2.605   0.679  0.4234  0.6592 -1.1160
  337MOL0     C46425   1.485   2.472   0.676 -0.2058  0.2650  0.6057
  337MOL0     C46426   1.382   2.383   0.698 -0.5069 -0.3124 -0.7668
  337MOL0     O46427   1.398   2.248   0.676  0.8767  0.2251  0.2281
  337MOL0     C46428   1.346   2.193   0.551 -0.2278  0.2454 -0.2446
  337MOL0     C46429   1.213   2.258   0.509 -0.2279  0.1955  0.2834
  337MOL0     C46430   1.156   2.194   0.379 -0.5882  0.4432  0.2817
  337MOL0     C46431   1.020   2.248   0.350  0.3763  0.6966  0.4055
  337MOL0     C46432   1.039   2.375   0.284 -0.0015  0.3121  0.2638
  337MOL0     C46433   1.017   2.488   0.242  0.0931 -0.3340 -0.7518
  337MOL0     C46434   1.259   2.433   0.741 -0.1577 -0.2335 -0.3915
  337MOL0     C46435   1.239   2.567   0.773 -0.1858 -0.6046  0.7052
  337MOL0     C46436   1.114   2.606   0.851 -0.2416  0.6767  0.3508
  337MOL0     H46437   1.323   3.102   0.633  0.5768 -3.8310 -0.3856
  337MOL0     H46438   1.397   3.318   0.689 -1.0395 -1.6505 -2.2281
  337MOL0     H46439   1.695   3.398   0.675  0.4089  0.3886 -0.1787
  337MOL0     H46440   1.804   3.317   0.787 -1.8409 -2.3999  1.6582
  337MOL0     H46441   1.688   3.589   0.807 -1.1288 -0.5885  3.9626
  337MOL0     H46442   1.796   3.509   0.931 -0.4928 -5.5396  0.5437
  337MOL0     H46443   1.858   3.596   0.665 -2.5441  2.5663  2.9303
  337MOL0     H46444   1.941   3.646   0.806 -2.3567  1.2196  1.2437
  337MOL0     H46445   1.981   3.347   0.713 -4.5209  0.6867  0.5648
  337MOL0     H46446   2.058   3.471   0.626 -4.3815  0.5538 -1.0296
  337MOL0     H46447   2.126   3.343   0.898  1.2826 -0.4213 -0.5017
  337MOL0     H46448   2.141   3.515   0.911  3.1382 -1.4879  2.2866
  337MOL0     H46449   2.352   3.400   0.853  1.4594  0.3015 -0.8434
  337MOL0     H46450   2.296   3.358   0.700 -0.9005  0.5320 -0.7843
  337MOL0     H46451   2.406   3.612   0.769 -0.1463  0.0719 -0.1333
  337MOL0     H46452   2.244   3.643   0.720  0.7337  0.9135  1.9134
  337MOL0     H46453   2.314   3.469   0.501 -0.4029 -0.1863  0.4308
  337MOL0     H46454   2.356   3.639   0.509  1.4646 -0.8349 -1.6013
  337MOL0     H46455   2.608   3.695   0.483  0.7523 -0.0924  0.6595
  337MOL0     H46456   2.876   3.658   0.605  1.0048  1.7754 -0.9252
  337MOL0     H46457   2.878   3.633   0.438  1.5286 -0.6044 -0.5796
  337MOL0     H46458   2.966   3.445   0.650  1.0830 -0.3304  1.1103
  337MOL0     H46459   2.976   3.407   0.473 -0.4720 -0.6943  2.0514
  337MOL0     H46460   3.132   3.571   0.421 -0.4096 -0.4202 -0.1950
  337MOL0     H46461   3.117   3.658   0.581  0.7047  0.3299  0.1749
  337MOL0     H46462   3.326   3.538   0.538 -0.9486  1.5869 -1.6379
  337MOL0     H46463   3.245   3.460   0.676 -2.1034  2.0070  1.4187
  337MOL0     H46464   3.479   3.318   0.565 -0.4265 -0.9648  2.0463
  337MOL0     H46465   3.673   3.074   0.595  3.5791  2.3147  0.7012
  337MOL0     H46466   3.645   3.124   0.776  1.4152  1.2466  0.3158
  337MOL0     H46467   3.645   3.239   0.649 -2.3735  0.7525  1.8773
  337MOL0     H46468   3.626   2.769   0.896  2.7586  1.5038 -1.7657
  337MOL0     H46469   3.755   2.590   0.964 -4.8287 -0.0026  1.5983
  337MOL0     H46470   3.701   2.209   0.732  1.3202 -0.2213 -0.5250
  337MOL0     H46471   3.797   2.163   0.862  1.5161  0.8819 -1.0679
  337MOL0     H46472   3.572   2.350   0.934 -0.5091  0.5257 -0.7162
  337MOL0     H46473   3.566   2.170   0.940  0.4183  0.3004 -1.9001
  337MOL0     H46474   3.791   2.347   1.041 -2.2507  2.0400  1.3660
  337MOL0     H46475   3.775   2.184   1.080 -0.7130 -0.2637  1.1029
  337MOL0     H46476   3.629   2.217   1.244 -2.9099  0.2753 -1.0603
  337MOL0     H46477   3.525   2.333   1.163 -0.7280  1.0165  4.3705
  337MOL0     H46478   3.791   2.412   1.289 -0.0351 -1.6061 -0.0072
  337MOL0     H46479   3.695   2.513   1.171  1.1733 -1.0915 -1.1373
  337MOL0     H46480   3.681   2.538   1.435 -1.0765  0.9536 -0.6412
  337MOL0     H46481   3.565   2.412   1.425  1.7152  0.6092  2.5527
  337MOL0     H46482   3.452   2.567   1.244 -0.3679  0.7435  1.6672
  337MOL0     H46483   3.567   2.680   1.263 -1.6989 -1.7545 -4.3658
  337MOL0     H46484   3.363   2.574   1.471  1.1415 -0.4398  0.3941
  337MOL0     H46485   3.360   2.737   1.391 -2.8859 -1.6821  0.2082
  337MOL0     H46486   3.709   2.431   0.552  0.6202  1.4404  0.1378
  337MOL0     H46487   3.590   2.627   0.498  0.1231 -1.0548 -0.1607
  337MOL0     H46488   3.202   2.923   0.681  4.1239 -2.2859  0.1137
  337MOL0     H46489   3.092   3.117   0.570 -0.2102  0.2128 -0.5792
  337MOL0     H46490   1.702   3.141   0.931 -0.8859 -1.3670 -1.1086
  337MOL0     H46491   1.625   2.927   0.892  1.1628  1.5675  1.5519
  337MOL0     H46492   1.546   2.668   0.660  1.1708  0.4102  1.1417
  337MOL0     H46493   1.579   2.426   0.649  1.1555  3.8812 -1.6420
  337MOL0     H46494   1.426   2.209   0.478  0.2652  1.1788  0.4686
  337MOL0     H46495   1.327   2.086   0.568 -2.8587  0.3640 -1.9158
  337MOL0     H46496   1.234   2.362   0.485 -1.5321  0.8793  1.8762
  337MOL0     H46497   1.134   2.251   0.585 -0.8776 -1.0048 -0.4637
  337MOL0     H46498   1.229   2.219   0.301 -0.9120  0.5602  0.0117
  337MOL0     H46499   1.165   2.085   0.377 -1.4465  0.3822 -0.6698
  337MOL0     H46500   0.950   2.260   0.434 -0.8729  0.5421 -0.5804
  337MOL0     H46501   0.962   2.184   0.282 -0.3103  0.7197  0.9568
  337MOL0     H46502   1.001   2.591   0.218 -1.9409 -0.2689  0.6939
  337MOL0     H46503   1.188   2.360   0.777  0.2344  0.8761  3.0122
  337MOL0     H46504   1.066   2.513   0.883  0.0138  0.8434  1.2224
  337MOL0     H46505   1.146   2.668   0.935 -1.4104 -0.2582  1.5242
  337MOL0     H46506   1.047   2.673   0.796  2.6229  3.2090 -0.2748
  338MOL0     O46507   0.308  11.573   9.699  0.0731 -0.1110 -0.3794
  338MOL0     C46508   0.300  11.466   9.640  0.2671  0.8574 -1.0126
  338MOL0     O46509   0.354  11.427   9.523 -0.3217  0.8002  0.5679
  338MOL0     C46510   0.452  11.506   9.465 -0.0885  0.2115  0.3440
  338MOL0     C46511   0.420  11.644   9.426  0.0614 -0.2156  0.5091
  338MOL0     C46512   0.513  11.719   9.351 -0.7483 -0.0520  0.0677
  338MOL0     C46513   0.640  11.664   9.330 -1.0506  0.0515 -0.2164
  338MOL0     O46514   0.734  11.741   9.268 -0.4031 -0.0478  0.0170
  338MOL0     C46515   0.864  11.760   9.322  0.3669  0.4164 -0.1696
  338MOL0     C46516   0.972  11.723   9.214 -1.4313  0.0886 -0.6415
  338MOL0     C46517   1.108  11.682   9.268 -0.3260 -0.6648  0.6981
  338MOL0     C46518   1.192  11.791   9.365 -0.4116  1.0534  1.3399
  338MOL0     C46519   1.277  11.696   9.451  0.0653  0.8536 -0.3459
  338MOL0     C46520   1.376  11.743   9.547 -0.5315  0.0459  0.8885
  338MOL0     C46521   1.319  11.849   9.642  0.0541  0.0406 -0.1277
  338MOL0     C46522   1.329  11.808   9.779 -0.6132 -0.5244  0.4794
  338MOL0     N46523   1.263  11.908   9.874  0.9901 -0.1555  0.4399
  338MOL0     C46524   1.127  11.902   9.914 -0.3680  0.3076 -0.5842
  338MOL0     C46525   1.123  12.000  10.015 -0.2252  0.1389  0.1100
  338MOL0     C46526   1.017  12.029  10.115  0.4689  1.6304 -1.0839
  338MOL0     C46527   0.886  12.082  10.058 -0.0324  0.4803  0.9537
  338MOL0     C46528   0.808  12.158  10.165 -1.1598 -0.0985  0.4315
  338MOL0     C46529   0.671  12.204  10.099  0.2270  0.2509 -0.7010
  338MOL0     O46530   0.612  12.095  10.033  0.2409  0.1574 -0.4496
  338MOL0     C46531   0.498  12.123   9.959 -0.2304 -0.8134  0.0492
  338MOL0     C46532   0.423  12.011   9.917 -0.5005 -0.1469 -0.0228
  338MOL0     C46533   0.299  12.020   9.851  0.4319  0.0421 -0.7079
  338MOL0     C46534   0.223  11.897   9.806  0.3965 -0.8011  0.4282
  338MOL0     C46535   0.265  12.150   9.810  0.4101 -0.4386 -0.6820
  338MOL0     C46536   0.134  12.174   9.745  0.4491 -0.4127  0.3587
  338MOL0     O46537   0.142  12.288   9.662  0.0289 -0.5757 -0.0754
  338MOL0     C46538   0.031  12.331   9.591  0.4843  1.1521  0.2361
  338MOL0     C46539   0.053  12.392   9.465  0.0539  0.1380  0.1453
  338MOL0     C46540  -0.052  12.446   9.387  0.3673 -0.3868 -0.3532
  338MOL0     C46541  -0.178  12.442   9.443  0.5643  0.1688 -0.0199
  338MOL0     O46542  -0.282  12.492   9.366 -0.2381  0.0452 -0.5813
  338MOL0     C46543  -0.332  12.395   9.274  0.8611 -0.0865 -0.9395
  338MOL0     C46544  -0.472  12.433   9.221  0.0237  1.3263  0.1793
  338MOL0     C46545  -0.583  12.414   9.327 -0.0524 -0.5197 -0.5060
  338MOL0     C46546  -0.644  12.539   9.387  0.1747 -0.6067  0.1518
  338MOL0     C46547  -0.789  12.514   9.431 -0.3179  0.8760  0.6824
  338MOL0     C46548  -0.788  12.445   9.565 -0.1052  0.6192  0.8910
  338MOL0     C46549  -0.737  12.517   9.683  0.2530  0.0505 -0.2271
  338MOL0     C46550  -0.796  12.670   9.691 -0.2607  1.1727 -0.5734
  338MOL0    Cl46551  -0.713  12.759   9.823  0.2560  0.4982  0.1108
  338MOL0     C46552  -0.212  12.368   9.559  0.2723 -0.3698  0.2953
  338MOL0     C46553  -0.108  12.322   9.638 -0.3822 -0.6464  0.2028
  338MOL0     O46554   0.028  12.115   9.784 -1.1289 -0.6124  0.8167
  338MOL0     C46555   0.341  12.267   9.843  1.2963  0.6126 -0.1740
  338MOL0     C46556   0.453  12.250   9.922 -0.3165 -0.7156  1.3084
  338MOL0     N46557   1.250  12.058  10.029 -0.2060 -0.2585  0.7352
  338MOL0     N46558   1.324  12.009   9.942  0.8125 -0.1222  0.5098
  338MOL0     C46559   0.678  11.540   9.387 -0.0953  0.3753  0.3204
  338MOL0     C46560   0.585  11.462   9.456  0.3473 -0.7642 -0.0466
  338MOL0     C46561   0.185  11.383   9.682  0.2731  1.1098  0.3282
  338MOL0     C46562   0.110  11.327   9.575  0.5775  0.7079  0.7073
  338MOL0     C46563  -0.011  11.253   9.604 -0.0992 -0.2765  0.0929
  338MOL0     C46564  -0.056  11.239   9.740 -0.7351 -0.1528 -0.0602
  338MOL0     O46565  -0.182  11.189   9.771 -0.3042  0.8464 -0.3858
  338MOL0     C46566  -0.208  11.061   9.721  0.8355  0.2128 -0.5900
  338MOL0     C46567  -0.358  11.066   9.700 -0.9329  0.6545 -0.4075
  338MOL0     C46568  -0.442  11.056   9.829  0.0421  0.0306  0.5261
  338MOL0     C46569  -0.588  11.082   9.799 -0.1662  0.5652  0.1523
  338MOL0     C46570  -0.609  11.229   9.797  0.1973  0.2753 -0.1744
  338MOL0     C46571  -0.618  11.349   9.798  0.2159 -0.5263 -0.1439
  338MOL0     C46572   0.025  11.298   9.843  0.6405  0.5549  0.8364
  338MOL0     C46573   0.144  11.365   9.819  0.2195 -0.1406 -0.5118
  338MOL0     C46574   0.210  11.429   9.932 -0.0693 -0.3443 -0.6485
  338MOL0     H46575   0.317  11.681   9.423  0.9608  2.5108  0.1702
  338MOL0     H46576   0.504  11.820   9.312  1.2472 -0.0021 -0.3930
  338MOL0     H46577   0.878  11.691   9.406  1.0145  2.0519  1.1199
  338MOL0     H46578   0.878  11.860   9.364  4.2712 -1.6855  4.7918
  338MOL0     H46579   0.924  11.634   9.171  0.0580 -0.8697 -0.3827
  338MOL0     H46580   0.996  11.798   9.139  0.0102  0.2511 -0.0468
  338MOL0     H46581   1.101  11.592   9.329  3.3536  0.8965  3.7867
  338MOL0     H46582   1.172  11.667   9.181 -2.4118 -1.1016 -0.8538
  338MOL0     H46583   1.253  11.853   9.299 -2.4090 -0.1987 -1.9171
  338MOL0     H46584   1.119  11.849   9.423 -1.1955  4.4932 -2.5895
  338MOL0     H46585   1.332  11.623   9.391 -0.8673  0.4262 -0.6986
  338MOL0     H46586   1.203  11.634   9.501  0.5159 -0.2716 -1.0342
  338MOL0     H46587   1.424  11.655   9.591 -1.6123 -2.3812 -2.3630
  338MOL0     H46588   1.460  11.793   9.497 -0.3812  0.3268  1.4131
  338MOL0     H46589   1.214  11.862   9.614 -0.3933 -4.7275 -1.6736
  338MOL0     H46590   1.377  11.939   9.621  1.8488 -0.6843  1.3849
  338MOL0     H46591   1.271  11.719   9.807  0.5487 -1.1297  1.0476
  338MOL0     H46592   1.437  11.801   9.798 -0.0060 -1.0622 -2.6851
  338MOL0     H46593   1.047  11.834   9.886 -1.0173 -0.2961  2.4260
  338MOL0     H46594   1.051  12.110  10.181 -1.8789  1.4591  0.4844
  338MOL0     H46595   1.000  11.934  10.167 -0.2875  1.2957 -1.9344
  338MOL0     H46596   0.917  12.148   9.976  2.4099 -2.0340 -0.3153
  338MOL0     H46597   0.832  12.001  10.009 -0.6576 -0.4928  3.1141
  338MOL0     H46598   0.787  12.098  10.254  0.0036  0.1810  0.9150
  338MOL0     H46599   0.864  12.246  10.196 -3.0331  0.7229  1.6572
  338MOL0     H46600   0.604  12.239  10.178 -1.1975  1.9865 -2.5610
  338MOL0     H46601   0.681  12.281  10.022  1.1684 -1.2082 -2.1124
  338MOL0     H46602   0.450  11.909   9.939 -0.4222 -0.1623 -0.1872
  338MOL0     H46603   0.120  11.882   9.840  1.1447 -3.2437  1.8682
  338MOL0     H46604   0.276  11.809   9.844  0.4069 -0.9379  0.0998
  338MOL0     H46605   0.228  11.895   9.697  1.6462  0.0367  0.4474
  338MOL0     H46606   0.156  12.387   9.429  0.2035  0.2061  0.5615
  338MOL0     H46607  -0.030  12.500   9.295  0.6830 -3.1293 -1.9944
  338MOL0     H46608  -0.269  12.388   9.186  5.2926 -1.7597  2.0196
  338MOL0     H46609  -0.352  12.293   9.308  0.5779  0.8336  1.9216
  338MOL0     H46610  -0.465  12.533   9.177  0.1020  0.3801 -2.0831
  338MOL0     H46611  -0.499  12.365   9.140  1.7184  1.4330 -0.5171
  338MOL0     H46612  -0.535  12.375   9.417  2.8447  0.7282 -1.3929
  338MOL0     H46613  -0.663  12.342   9.305 -1.4949  0.3201  1.5888
  338MOL0     H46614  -0.657  12.610   9.305  0.3384 -2.5004 -1.5880
  338MOL0     H46615  -0.575  12.576   9.463  1.3286  0.3876 -1.3317
  338MOL0     H46616  -0.851  12.604   9.436  1.1000  2.0638 -1.6408
  338MOL0     H46617  -0.820  12.453   9.345  4.1320  0.2720 -0.7474
  338MOL0     H46618  -0.747  12.345   9.551  2.1104  1.7361 -1.3594
  338MOL0     H46619  -0.896  12.434   9.571  0.1635 -1.8901  2.9510
  338MOL0     H46620  -0.628  12.526   9.685  0.2371  0.0908  1.1422
  338MOL0     H46621  -0.758  12.458   9.773  1.8634  1.8723  1.4244
  338MOL0     H46622  -0.905  12.678   9.697 -0.6280  0.3977 -4.0297
  338MOL0     H46623  -0.774  12.727   9.601  0.6613  2.3122  0.3476
  338MOL0     H46624  -0.316  12.381   9.584 -0.0408  0.2057 -1.2047
  338MOL0     H46625  -0.123  12.298   9.743  1.1981 -2.3657  0.0929
  338MOL0     H46626   0.313  12.364   9.802 -0.0559 -0.5388 -2.1508
  338MOL0     H46627   0.510  12.342   9.922 -0.5217 -0.5800  0.6151
  338MOL0     H46628   0.774  11.491   9.381 -0.6437 -0.6759 -0.0608
  338MOL0     H46629   0.614  11.368   9.502  0.4566 -0.9037 -0.3904
  338MOL0     H46630   0.136  11.329   9.470 -0.9386 -3.0584  0.1129
  338MOL0     H46631  -0.075  11.227   9.521  0.0905  2.1727 -0.9006
  338MOL0     H46632  -0.162  11.038   9.624 -0.2800  0.9026 -1.3024
  338MOL0     H46633  -0.198  10.983   9.796 -2.4707  0.0071 -0.2160
  338MOL0     H46634  -0.365  10.977   9.636  1.6562 -0.3187  0.5191
  338MOL0     H46635  -0.379  11.156   9.642 -4.0059  1.7412  2.1134
  338MOL0     H46636  -0.419  10.965   9.886  3.4740  2.0214  2.7024
  338MOL0     H46637  -0.413  11.126   9.907  2.1704 -1.4256  1.1497
  338MOL0     H46638  -0.652  11.046   9.880  0.2392  1.5666  0.9415
  338MOL0     H46639  -0.628  11.040   9.706 -1.4584 -1.4851  1.5426
  338MOL0     H46640  -0.615  11.456   9.807  0.1629 -0.7007  4.5364
  338MOL0     H46641  -0.022  11.295   9.941  0.5464 -0.4747  0.7668
  338MOL0     H46642   0.144  11.515   9.950  0.8607  0.2890 -0.2057
  338MOL0     H46643   0.202  11.358  10.014  0.7414 -1.6262 -1.6439
  338MOL0     H46644   0.314  11.457   9.917 -0.3359 -0.4340 -3.0458
  339MOL0     O46645   7.905   3.812   2.085  0.1056 -0.4425 -1.0951
  339MOL0     C46646   7.842   3.720   2.131  1.0862 -0.1015 -0.9753
  339MOL0     O46647   7.822   3.688   2.267 -0.4306  0.2776  0.3220
  339MOL0     C46648   7.865   3.773   2.370 -0.3315  0.8134 -0.8338
  339MOL0     C46649   7.789   3.885   2.394 -0.9430 -0.9913 -0.0699
  339MOL0     C46650   7.827   3.962   2.500 -0.0635 -0.1025 -0.9531
  339MOL0     C46651   7.942   3.929   2.576  0.0140  0.6625 -0.6584
  339MOL0     O46652   7.980   3.991   2.704 -0.5636  0.1250 -0.2834
  339MOL0     C46653   7.935   4.131   2.723  0.5762  0.7822 -0.9015
  339MOL0     C46654   8.019   4.185   2.840 -0.4803  0.5002 -0.2577
  339MOL0     C46655   7.983   4.335   2.863 -0.9268  0.3460 -0.5415
  339MOL0     C46656   7.975   4.360   3.016 -0.0217 -0.6485 -0.0163
  339MOL0     C46657   8.015   4.500   3.063  0.3659 -0.1162 -0.5727
  339MOL0     C46658   7.960   4.618   2.990 -0.7184  0.0312 -0.3254
  339MOL0     C46659   8.033   4.748   3.039  0.5853  0.0235 -0.4148
  339MOL0     C46660   7.956   4.872   2.962 -1.2570  0.2739  0.7613
  339MOL0     N46661   7.986   5.004   3.022  0.6409 -0.9693  0.1503
  339MOL0     C46662   7.957   5.044   3.150  0.1438 -0.4329 -0.4682
  339MOL0     C46663   7.968   5.178   3.155 -0.2983  0.2062  0.4927
  339MOL0     C46664   7.937   5.265   3.269 -0.9201  0.4273  0.9327
  339MOL0     C46665   7.783   5.282   3.265  0.1019  0.3706 -0.2321
  339MOL0     C46666   7.726   5.314   3.413 -0.1894 -0.3266  0.2966
  339MOL0     C46667   7.687   5.188   3.501 -0.5506  0.0793 -0.7834
  339MOL0     O46668   7.786   5.088   3.502 -0.7177 -0.3468 -0.1757
  339MOL0     C46669   7.757   4.978   3.580 -0.1250  0.3136 -0.7532
  339MOL0     C46670   7.661   4.970   3.678  0.7525 -0.1679 -0.4506
  339MOL0     C46671   7.631   4.858   3.757  0.0917  0.5809 -0.3497
  339MOL0     C46672   7.518   4.873   3.858 -0.1230  0.9086  1.0649
  339MOL0     C46673   7.712   4.744   3.743  0.5937 -0.2430  0.5696
  339MOL0     C46674   7.684   4.610   3.803 -0.2242 -0.1584  0.1911
  339MOL0     O46675   7.773   4.509   3.797  0.8096  0.1413  0.8374
  339MOL0     C46676   7.734   4.376   3.815 -0.3179 -0.8225  0.7790
  339MOL0     C46677   7.836   4.281   3.827 -0.3498 -0.5277 -0.7985
  339MOL0     C46678   7.809   4.142   3.819  0.4136  0.1281 -1.0444
  339MOL0     C46679   7.679   4.099   3.802  0.7941  0.1819  0.7037
  339MOL0     O46680   7.653   3.960   3.807  0.2417  0.4634 -0.2857
  339MOL0     C46681   7.694   3.884   3.921  0.3874  0.0952 -1.0003
  339MOL0     C46682   7.649   3.750   3.939  0.6298  1.1344 -0.4760
  339MOL0     C46683   7.734   3.650   3.854 -1.0347 -0.5689  0.0606
  339MOL0     C46684   7.656   3.514   3.866  0.5383  0.5676  0.0478
  339MOL0     C46685   7.753   3.405   3.836 -0.6840  0.9529 -0.2436
  339MOL0     C46686   7.789   3.405   3.683 -0.2086 -0.2537 -0.0504
  339MOL0     C46687   7.882   3.291   3.647  0.6627 -0.3988  0.7850
  339MOL0     C46688   8.031   3.297   3.698  0.3831  0.6543  0.2985
  339MOL0    Cl46689   8.105   3.142   3.650 -0.4609  0.1119 -0.0850
  339MOL0     C46690   7.571   4.191   3.808 -0.2864  0.2764  0.3968
  339MOL0     C46691   7.605   4.324   3.797  0.1641 -1.4586 -0.6341
  339MOL0     O46692   7.572   4.592   3.859  0.5829 -0.9020  0.7870
  339MOL0     C46693   7.824   4.748   3.652  0.2547 -0.0779 -0.2050
  339MOL0     C46694   7.846   4.869   3.579 -0.2484  0.2419 -0.3374
  339MOL0     N46695   8.012   5.212   3.027 -0.6810 -0.3352 -0.6077
  339MOL0     N46696   8.018   5.114   2.953 -0.8902  0.1496  0.2647
  339MOL0     C46697   8.026   3.825   2.537  0.9024  0.4669 -1.2498
  339MOL0     C46698   7.973   3.731   2.442 -0.3790 -0.2980 -0.3905
  339MOL0     C46699   7.751   3.643   2.041 -0.3562 -0.6597  0.5124
  339MOL0     C46700   7.643   3.566   2.096 -0.3504  0.0768 -0.2332
  339MOL0     C46701   7.570   3.490   2.012  0.3732  0.2450  0.8763
  339MOL0     C46702   7.591   3.481   1.872  0.2317 -0.0547 -0.3126
  339MOL0     O46703   7.523   3.401   1.785  0.3177  0.2212 -0.0479
  339MOL0     C46704   7.394   3.358   1.819 -0.4532 -0.1909 -0.2068
  339MOL0     C46705   7.318   3.280   1.708  0.2706  1.1470 -0.6664
  339MOL0     C46706   7.389   3.187   1.623  0.0044  0.5941  0.2089
  339MOL0     C46707   7.310   3.072   1.558  0.0766 -0.1429  0.0864
  339MOL0     C46708   7.186   3.114   1.494  0.9602  0.0988 -0.4738
  339MOL0     C46709   7.087   3.154   1.441  1.5240  0.8832  0.7711
  339MOL0     C46710   7.693   3.557   1.824 -0.0786  0.7346  0.0319
  339MOL0     C46711   7.772   3.631   1.904 -0.1524 -1.2373 -0.3406
  339MOL0     C46712   7.890   3.699   1.839 -0.2965  0.0371  0.1415
  339MOL0     H46713   7.704   3.917   2.334 -0.0381  1.7064 -0.0719
  339MOL0     H46714   7.772   4.045   2.541  1.1558 -0.0710  0.7409
  339MOL0     H46715   7.831   4.121   2.753  0.2646 -1.1612 -2.4516
  339MOL0     H46716   7.947   4.188   2.630  3.4138  0.3243 -0.9023
  339MOL0     H46717   8.001   4.115   2.922 -0.6519  0.0839 -0.6470
  339MOL0     H46718   8.127   4.171   2.828 -0.5992 -1.4949  0.6342
  339MOL0     H46719   8.066   4.381   2.809 -0.8392 -0.9645 -1.5820
  339MOL0     H46720   7.896   4.365   2.803 -0.1612  0.0222 -1.8412
  339MOL0     H46721   7.874   4.335   3.051 -0.4346  2.6651  1.5919
  339MOL0     H46722   8.038   4.286   3.065  0.9188 -0.3638 -0.7760
  339MOL0     H46723   8.123   4.501   3.046  0.9529  4.0786  2.0077
  339MOL0     H46724   8.006   4.518   3.170  2.6295 -3.3424  0.2960
  339MOL0     H46725   7.964   4.612   2.880  0.9134  2.0193 -0.4409
  339MOL0     H46726   7.853   4.622   3.011 -1.1502 -0.3720 -2.1853
  339MOL0     H46727   8.141   4.759   3.031  0.7069 -0.6216  0.2254
  339MOL0     H46728   8.003   4.758   3.144  2.9322  2.7979  0.1241
  339MOL0     H46729   7.999   4.867   2.861 -0.3866 -6.7243  1.0127
  339MOL0     H46730   7.849   4.867   2.941 -0.6587  1.5740 -3.7291
  339MOL0     H46731   7.913   4.984   3.229 -1.9319 -0.3363 -1.4729
  339MOL0     H46732   7.994   5.358   3.271  1.0030 -0.6973  1.7115
  339MOL0     H46733   7.975   5.221   3.362  3.0145  1.0434 -0.1789
  339MOL0     H46734   7.755   5.366   3.200  0.9013  1.0303  0.2644
  339MOL0     H46735   7.722   5.200   3.227  1.8826 -0.4176 -1.5686
  339MOL0     H46736   7.775   5.397   3.466 -0.6763 -1.1230  2.0792
  339MOL0     H46737   7.629   5.359   3.392 -0.5451 -0.4477  1.5859
  339MOL0     H46738   7.671   5.225   3.603  1.2072  1.8835 -1.0903
  339MOL0     H46739   7.608   5.130   3.452 -0.5947  1.5443 -2.5704
  339MOL0     H46740   7.601   5.059   3.692  0.0442 -0.3699 -1.9802
  339MOL0     H46741   7.490   4.978   3.870  0.7088  1.4235 -0.9849
  339MOL0     H46742   7.550   4.834   3.955  3.4727  1.6135  0.3214
  339MOL0     H46743   7.420   4.828   3.838 -0.3651  1.7283  0.3068
  339MOL0     H46744   7.941   4.310   3.835 -1.0912  2.3886 -0.5321
  339MOL0     H46745   7.892   4.074   3.836  2.0579  2.5791  1.9326
  339MOL0     H46746   7.802   3.872   3.903  0.4262 -2.1068  0.3553
  339MOL0     H46747   7.684   3.940   4.014  0.0442  0.3910 -1.2128
  339MOL0     H46748   7.667   3.727   4.044  0.8840  0.0114 -0.7569
  339MOL0     H46749   7.543   3.736   3.913  0.7969 -1.7377  0.0279
  339MOL0     H46750   7.830   3.638   3.905 -1.4671 -0.1356  0.9884
  339MOL0     H46751   7.758   3.692   3.756 -4.7102  1.3973 -0.1585
  339MOL0     H46752   7.568   3.516   3.801  1.2676  1.9199 -0.9632
  339MOL0     H46753   7.617   3.495   3.966 -3.7025 -4.4118 -2.0750
  339MOL0     H46754   7.840   3.400   3.901 -1.1188  0.9189  0.3467
  339MOL0     H46755   7.706   3.308   3.856  1.8707  0.1015  2.2582
  339MOL0     H46756   7.815   3.508   3.654  1.0708 -0.8344 -1.0523
  339MOL0     H46757   7.702   3.388   3.620  0.5161 -0.1693 -1.1018
  339MOL0     H46758   7.884   3.309   3.539 -1.4801  1.6930  1.0119
  339MOL0     H46759   7.830   3.197   3.668 -0.4215 -0.6892 -2.5499
  339MOL0     H46760   8.030   3.290   3.807 -0.1555 -1.8986  0.2137
  339MOL0     H46761   8.082   3.382   3.653  1.1290 -0.9189 -1.9980
  339MOL0     H46762   7.466   4.165   3.807 -0.5860  1.4443 -0.1738
  339MOL0     H46763   7.519   4.388   3.780  1.3205  0.0368 -1.1565
  339MOL0     H46764   7.871   4.655   3.622  0.1694 -0.9921  2.2534
  339MOL0     H46765   7.900   4.876   3.485 -0.1433 -0.6629 -0.3477
  339MOL0     H46766   8.103   3.781   2.599 -1.6287  1.1942  2.7968
  339MOL0     H46767   8.016   3.633   2.425  1.8894  0.6006 -0.1712
  339MOL0     H46768   7.609   3.577   2.198 -1.2722  4.0859 -0.7966
  339MOL0     H46769   7.491   3.425   2.048  1.0270 -0.3810  1.2132
  339MOL0     H46770   7.412   3.290   1.903  1.4709 -0.6474 -0.9381
  339MOL0     H46771   7.329   3.428   1.872  0.7508 -0.5758  1.8874
  339MOL0     H46772   7.282   3.360   1.643  0.2926  1.2979 -0.4952
  339MOL0     H46773   7.233   3.230   1.756 -0.3675  1.9134 -0.9641
  339MOL0     H46774   7.428   3.242   1.537 -4.0725  1.4494 -1.3009
  339MOL0     H46775   7.466   3.139   1.685 -0.9702  0.6344  1.4872
  339MOL0     H46776   7.295   2.985   1.623  0.6561  0.9442  1.7240
  339MOL0     H46777   7.380   3.030   1.484  0.9585 -0.7964  1.2593
  339MOL0     H46778   7.008   3.183   1.375  1.2635 -0.4855  0.4576
  339MOL0     H46779   7.705   3.563   1.716  1.3573  2.0860  0.2356
  339MOL0     H46780   7.907   3.681   1.732  4.9250  1.5360  0.4605
  339MOL0     H46781   7.877   3.807   1.848 -1.5258  0.0024 -0.8594
  339MOL0     H46782   7.981   3.671   1.892 -1.3687 -0.4256  1.8014
  340MOL0     O46783   6.267   5.266   8.402 -0.0658 -0.6605  0.0785
  340MOL0     C46784   6.176   5.262   8.324  0.9402 -0.0394 -0.4239
  340MOL0     O46785   6.151   5.351   8.222 -0.4294 -0.8699  0.3788
  340MOL0     C46786   6.265   5.420   8.182 -0.2260 -0.0436  0.1534
  340MOL0     C46787   6.311   5.526   8.250 -1.7883 -0.8740  0.3498
  340MOL0     C46788   6.429   5.600   8.199  0.2861  0.6761 -1.0320
  340MOL0     C46789   6.491   5.549   8.093 -0.3738 -0.6471  0.2884
  340MOL0     O46790   6.602   5.607   8.042  0.7519  0.0974 -1.0715
  340MOL0     C46791   6.570   5.686   7.917  1.3047  0.0655  0.6414
  340MOL0     C46792   6.601   5.831   7.928  1.0061 -0.2869  0.1539
  340MOL0     C46793   6.761   5.849   7.933 -0.2957 -0.1401 -0.3974
  340MOL0     C46794   6.782   5.998   7.895 -0.4140 -0.0778 -0.5267
  340MOL0     C46795   6.928   6.041   7.921  0.4413  0.2629  0.7490
  340MOL0     C46796   6.954   6.194   7.880  0.3786 -0.3078 -0.5738
  340MOL0     C46797   7.097   6.236   7.875 -0.1417  0.0617 -0.9472
  340MOL0     C46798   7.122   6.382   7.847 -0.6043 -0.1818  0.2237
  340MOL0     N46799   7.259   6.425   7.893 -0.3102 -0.0128  0.1754
  340MOL0     C46800   7.382   6.396   7.827  0.4486  0.8938 -0.4375
  340MOL0     C46801   7.472   6.437   7.919 -0.1096 -0.1338 -0.4029
  340MOL0     C46802   7.616   6.450   7.890 -0.2427 -0.0809  0.7940
  340MOL0     C46803   7.672   6.578   7.961  0.2644 -0.3009 -0.3429
  340MOL0     C46804   7.814   6.594   7.929  0.1828  0.6924 -0.0405
  340MOL0     C46805   7.868   6.721   8.006  0.1325  0.7319  0.0569
  340MOL0     O46806   7.814   6.849   7.967 -0.5226  0.7101  0.1325
  340MOL0     C46807   7.725   6.916   8.046 -0.5354  0.7393 -0.5882
  340MOL0     C46808   7.665   6.860   8.155 -0.0432  0.3860 -0.3657
  340MOL0     C46809   7.564   6.929   8.223  0.4686  0.4645 -0.7062
  340MOL0     C46810   7.504   6.863   8.345  0.8708  0.7379 -0.4402
  340MOL0     C46811   7.515   7.053   8.182  0.4424 -0.2141 -0.3356
  340MOL0     C46812   7.417   7.144   8.254 -0.0009  0.7852  0.4785
  340MOL0     O46813   7.402   7.120   8.382 -0.1299 -0.1585 -0.1557
  340MOL0     C46814   7.316   7.210   8.441 -0.4409 -0.6648 -0.2895
  340MOL0     C46815   7.190   7.167   8.498 -1.1890  1.1782  1.3764
  340MOL0     C46816   7.104   7.258   8.553 -0.0109 -0.6589 -0.5678
  340MOL0     C46817   7.139   7.398   8.563  0.3843 -0.3898 -0.6325
  340MOL0     O46818   7.067   7.494   8.637 -0.7997 -0.2059 -0.0643
  340MOL0     C46819   7.003   7.591   8.558 -0.2209 -0.3916 -0.6054
  340MOL0     C46820   7.014   7.733   8.616 -0.7422  0.3815 -0.4411
  340MOL0     C46821   6.944   7.842   8.529 -1.1349  0.7393 -0.0397
  340MOL0     C46822   6.791   7.825   8.548  0.6394 -0.1951 -0.4289
  340MOL0     C46823   6.714   7.953   8.506 -0.1030  0.7093 -0.2989
  340MOL0     C46824   6.567   7.922   8.498  0.6503 -0.5807 -0.3837
  340MOL0     C46825   6.494   8.035   8.415 -0.0981 -0.9426  0.2460
  340MOL0     C46826   6.484   7.997   8.260  0.2933 -0.7174 -0.0581
  340MOL0    Cl46827   6.633   8.008   8.170 -0.5466  0.5090  0.1229
  340MOL0     C46828   7.260   7.441   8.504 -0.3430 -0.4993  0.7542
  340MOL0     C46829   7.345   7.348   8.444 -0.3833  0.3706 -0.0899
  340MOL0     O46830   7.342   7.217   8.185  0.0116  0.7197 -0.1839
  340MOL0     C46831   7.568   7.100   8.061  0.6403  0.1534  0.6153
  340MOL0     C46832   7.676   7.042   8.002  0.4245 -0.0865 -0.7629
  340MOL0     N46833   7.407   6.493   8.035  0.2509  0.6561  0.2039
  340MOL0     N46834   7.276   6.481   8.018  0.9330 -0.3768  0.5710
  340MOL0     C46835   6.433   5.436   8.017  0.1106 -1.0869  1.1944
  340MOL0     C46836   6.316   5.377   8.058 -0.4578  0.1301 -0.1341
  340MOL0     C46837   6.086   5.140   8.340  0.2779 -0.8927 -0.4211
  340MOL0     C46838   6.000   5.125   8.232 -0.3575  0.0923 -0.8213
  340MOL0     C46839   5.918   5.006   8.222 -0.3830 -0.3319 -0.6211
  340MOL0     C46840   5.908   4.909   8.329  0.0607 -0.8892  0.7976
  340MOL0     O46841   5.824   4.808   8.313  0.6117  0.6216  0.2816
  340MOL0     C46842   5.817   4.712   8.407  0.7638  1.0230 -0.4494
  340MOL0     C46843   5.756   4.584   8.345 -0.1200 -0.3805  0.3828
  340MOL0     C46844   5.793   4.464   8.440 -0.6406 -0.0103  0.5573
  340MOL0     C46845   5.887   4.360   8.378 -0.7082 -1.0388 -0.2403
  340MOL0     C46846   5.810   4.279   8.289 -0.2068  1.4031  0.0067
  340MOL0     C46847   5.755   4.207   8.208 -0.5487  0.2460  0.4646
  340MOL0     C46848   5.990   4.934   8.442 -0.0923 -0.2191  1.0670
  340MOL0     C46849   6.064   5.052   8.451 -0.5988 -1.3363  0.2421
  340MOL0     C46850   6.123   5.057   8.596 -0.7742 -0.4593  0.8121
  340MOL0     H46851   6.256   5.562   8.337 -1.1309  0.4943  0.2264
  340MOL0     H46852   6.470   5.685   8.252 -0.6973  1.4266 -1.4194
  340MOL0     H46853   6.468   5.664   7.884  2.5130 -1.5127 -2.4816
  340MOL0     H46854   6.623   5.641   7.832 -0.6447  0.4961 -0.8761
  340MOL0     H46855   6.552   5.872   7.839  2.5508  1.6501  0.1127
  340MOL0     H46856   6.545   5.875   8.010  1.5794 -0.6648  0.7589
  340MOL0     H46857   6.799   5.824   8.032  2.2595 -0.3253 -1.3507
  340MOL0     H46858   6.808   5.775   7.868 -2.3974 -3.0529  1.1736
  340MOL0     H46859   6.754   6.013   7.791 -1.0980 -1.5764 -0.5870
  340MOL0     H46860   6.714   6.053   7.961  1.3403  1.9370 -0.2960
  340MOL0     H46861   6.995   5.973   7.869  1.3223  0.5928  1.4259
  340MOL0     H46862   6.939   6.023   8.029 -1.1744 -0.9516  0.7339
  340MOL0     H46863   6.915   6.210   7.780  4.1570  1.7256 -1.9186
  340MOL0     H46864   6.892   6.252   7.949  0.6899  0.6851 -1.1092
  340MOL0     H46865   7.149   6.178   7.799  1.5659 -3.0560  2.2729
  340MOL0     H46866   7.138   6.214   7.974  0.2833 -1.4194 -1.4290
  340MOL0     H46867   7.109   6.391   7.739  2.2281 -0.6361 -0.2388
  340MOL0     H46868   7.045   6.443   7.895 -1.3739  1.9736 -3.4099
  340MOL0     H46869   7.394   6.354   7.728  2.2549 -3.7251  1.4672
  340MOL0     H46870   7.631   6.464   7.783 -0.0542 -2.0424  0.5280
  340MOL0     H46871   7.662   6.353   7.912  0.1595 -0.0189  0.2516
  340MOL0     H46872   7.606   6.657   7.925 -1.9199 -0.9894  1.8151
  340MOL0     H46873   7.661   6.570   8.070 -2.3680 -2.3745 -0.6527
  340MOL0     H46874   7.857   6.499   7.963 -0.3877  0.9694  1.5811
  340MOL0     H46875   7.833   6.591   7.822 -0.4839 -0.1210 -0.1475
  340MOL0     H46876   7.862   6.698   8.113  3.6735  2.7231  0.8396
  340MOL0     H46877   7.974   6.733   7.983  0.3046 -0.4631  0.1503
  340MOL0     H46878   7.712   6.777   8.205 -1.0151 -0.4314 -0.7640
  340MOL0     H46879   7.531   6.759   8.367 -0.3874  0.5969  0.5214
  340MOL0     H46880   7.397   6.873   8.324  0.2271 -1.0860  1.6152
  340MOL0     H46881   7.513   6.921   8.437 -1.1983 -0.6586  0.7164
  340MOL0     H46882   7.161   7.063   8.488 -0.9670  1.3153 -1.4548
  340MOL0     H46883   7.010   7.236   8.603  0.0894 -0.6148 -0.3558
  340MOL0     H46884   7.036   7.589   8.453 -1.7998 -1.7936 -1.1351
  340MOL0     H46885   6.897   7.566   8.562 -0.3104 -0.0813 -0.9253
  340MOL0     H46886   6.975   7.733   8.718 -1.2802  1.5484 -0.6334
  340MOL0     H46887   7.118   7.763   8.633 -0.2026 -1.4557 -0.3175
  340MOL0     H46888   6.974   7.836   8.424 -2.6543 -0.1315 -0.4528
  340MOL0     H46889   6.969   7.934   8.581  0.5207 -0.1548  0.8358
  340MOL0     H46890   6.766   7.819   8.654 -0.3580  2.1466 -0.4857
  340MOL0     H46891   6.752   7.729   8.511 -2.6999 -1.6083  5.5102
  340MOL0     H46892   6.732   8.033   8.579  0.3954  2.4951 -2.2976
  340MOL0     H46893   6.762   7.992   8.416  2.7724 -0.8395  0.4320
  340MOL0     H46894   6.527   7.904   8.598  2.1417  3.0449  1.0324
  340MOL0     H46895   6.567   7.828   8.441  3.8942 -0.7532 -0.2903
  340MOL0     H46896   6.549   8.127   8.435 -1.3164 -0.4883  1.6187
  340MOL0     H46897   6.394   8.061   8.450  0.4278 -0.4900  1.4604
  340MOL0     H46898   6.409   8.064   8.217  0.9556 -0.6438 -1.1440
  340MOL0     H46899   6.446   7.895   8.248  0.3696 -0.9277  1.2567
  340MOL0     H46900   7.290   7.545   8.505  0.1335 -0.5345 -1.9767
  340MOL0     H46901   7.439   7.381   8.402 -0.7736  0.7206 -0.7084
  340MOL0     H46902   7.556   7.199   8.018 -2.9107 -0.3457  0.1108
  340MOL0     H46903   7.709   7.098   7.915 -1.4617  1.1806 -0.7245
  340MOL0     H46904   6.474   5.414   7.919 -0.8066  0.9931  0.2855
  340MOL0     H46905   6.268   5.298   8.002  1.6706 -0.3242 -1.4639
  340MOL0     H46906   5.993   5.198   8.152  2.2971 -0.1189 -1.3364
  340MOL0     H46907   5.859   4.991   8.131  1.4638 -1.4203 -1.6983
  340MOL0     H46908   5.919   4.680   8.427  0.3400 -0.5170 -0.5824
  340MOL0     H46909   5.764   4.745   8.498 -0.5159 -0.7127 -0.5058
  340MOL0     H46910   5.810   4.567   8.252  1.3898  2.4342  0.6348
  340MOL0     H46911   5.653   4.591   8.310  0.1626 -0.8036 -0.5553
  340MOL0     H46912   5.837   4.515   8.526  1.6837  2.1708 -1.7301
  340MOL0     H46913   5.702   4.416   8.478 -0.0925  0.0436  1.9794
  340MOL0     H46914   5.940   4.298   8.451  1.7185 -1.1259 -1.9741
  340MOL0     H46915   5.967   4.412   8.325 -2.4565 -0.2364 -2.2179
  340MOL0     H46916   5.710   4.123   8.159 -0.3773 -0.7317  1.9084
  340MOL0     H46917   5.994   4.866   8.526  0.9310 -1.3895  0.1042
  340MOL0     H46918   6.206   4.986   8.601 -1.7347 -1.7960 -1.0629
  340MOL0     H46919   6.171   5.153   8.621  2.1771 -2.4996  3.9823
  340MOL0     H46920   6.041   5.034   8.665 -1.3237  1.3015  0.8092
  341MOL0     O46921   4.473   1.979   2.189  0.0388 -0.0223  0.4723
  341MOL0     C46922   4.465   1.989   2.311  1.1555  0.3625  0.1711
  341MOL0     O46923   4.460   2.099   2.384 -0.5548 -0.8333 -0.3356
  341MOL0     C46924   4.466   2.218   2.319  0.6655  0.3650 -0.4623
  341MOL0     C46925   4.361   2.296   2.335  1.4826  0.1560 -0.5024
  341MOL0     C46926   4.357   2.426   2.298 -0.0933  0.5343  0.3646
  341MOL0     C46927   4.465   2.485   2.217  0.4414 -0.1068  0.2821
  341MOL0     O46928   4.470   2.615   2.180  0.4937  0.0013 -0.3081
  341MOL0     C46929   4.587   2.693   2.188 -1.1110 -0.8561 -0.3666
  341MOL0     C46930   4.547   2.842   2.158  0.4074 -0.4244  0.9958
  341MOL0     C46931   4.659   2.936   2.144 -0.7349 -1.1745  0.1308
  341MOL0     C46932   4.744   2.950   2.268 -0.2899 -0.2407 -0.4250
  341MOL0     C46933   4.852   3.064   2.251  0.0040 -0.8221  0.8661
  341MOL0     C46934   4.927   3.090   2.378 -0.1163  0.3290  0.0614
  341MOL0     C46935   5.080   3.145   2.360 -0.6752 -0.2212  0.0541
  341MOL0     C46936   5.089   3.296   2.358  0.2409  0.2872 -0.3282
  341MOL0     N46937   5.031   3.348   2.239  0.0505  0.1582 -0.6522
  341MOL0     C46938   5.106   3.361   2.122 -0.3993  0.7622 -0.3263
  341MOL0     C46939   5.021   3.424   2.042  0.2885  0.0014  0.1889
  341MOL0     C46940   5.031   3.451   1.895  0.5511 -0.2523 -0.3984
  341MOL0     C46941   5.079   3.598   1.862 -0.2436 -0.4179  0.2724
  341MOL0     C46942   5.221   3.621   1.919 -0.1305 -0.5278  1.0987
  341MOL0     C46943   5.337   3.559   1.833  0.8232  0.5120 -0.1590
  341MOL0     O46944   5.457   3.617   1.863 -0.2881 -0.1725 -0.0874
  341MOL0     C46945   5.469   3.754   1.852 -0.3000 -0.3226  1.1939
  341MOL0     C46946   5.521   3.819   1.963  0.2172 -0.7529 -0.1613
  341MOL0     C46947   5.542   3.957   1.963  0.5257  0.1356 -0.2135
  341MOL0     C46948   5.553   4.018   2.097 -0.1134 -0.8889 -0.2307
  341MOL0     C46949   5.516   4.026   1.843 -0.2755 -0.0883 -0.8500
  341MOL0     C46950   5.540   4.171   1.833  0.4112  0.8161 -0.0392
  341MOL0     O46951   5.611   4.204   1.717  0.6843  0.6184  0.1989
  341MOL0     C46952   5.620   4.341   1.688  0.0767 -1.1243 -0.8950
  341MOL0     C46953   5.511   4.394   1.620  0.0378 -0.7663 -0.4109
  341MOL0     C46954   5.505   4.523   1.561 -0.2345  0.8396 -0.1139
  341MOL0     C46955   5.611   4.612   1.588  0.0862 -0.1516 -0.1989
  341MOL0     O46956   5.614   4.744   1.548  0.3988 -0.7044  0.1524
  341MOL0     C46957   5.484   4.815   1.576 -0.7184 -0.0095 -0.4521
  341MOL0     C46958   5.520   4.952   1.623 -0.0240  0.2158  0.9454
  341MOL0     C46959   5.540   4.944   1.777  0.8703  0.1088  0.2331
  341MOL0     C46960   5.561   5.074   1.836  0.3174 -0.6886  0.7445
  341MOL0     C46961   5.539   5.087   1.987  0.5027  0.2148 -0.0571
  341MOL0     C46962   5.625   4.995   2.082  0.3510 -0.4099  0.3388
  341MOL0     C46963   5.572   5.005   2.222  0.3795 -0.2729 -0.1073
  341MOL0     C46964   5.637   4.927   2.330 -0.2794 -0.6628 -0.5573
  341MOL0    Cl46965   5.616   4.750   2.275  0.5571 -0.1989  0.3246
  341MOL0     C46966   5.726   4.559   1.646 -0.3236  1.1771  0.6703
  341MOL0     C46967   5.730   4.426   1.703 -0.4187 -0.0188 -0.1808
  341MOL0     O46968   5.483   4.252   1.909 -0.2334 -0.4627  0.2063
  341MOL0     C46969   5.458   3.959   1.726  0.6711  0.0657  0.5711
  341MOL0     C46970   5.427   3.825   1.731 -0.0517  0.9683  0.0896
  341MOL0     N46971   4.904   3.453   2.111  0.5537  1.2950 -0.0761
  341MOL0     N46972   4.907   3.407   2.227  0.3166  0.2422  0.1059
  341MOL0     C46973   4.574   2.405   2.211 -0.3059 -0.6195  0.9008
  341MOL0     C46974   4.579   2.272   2.256 -0.1257  0.1433 -0.4721
  341MOL0     C46975   4.447   1.851   2.362  0.6504  1.0780 -0.4277
  341MOL0     C46976   4.524   1.740   2.317 -0.5634 -0.3182  0.0598
  341MOL0     C46977   4.511   1.612   2.381  0.5943 -1.1589  0.4802
  341MOL0     C46978   4.430   1.595   2.493  0.5604  0.0221 -0.7505
  341MOL0     O46979   4.414   1.469   2.549  0.0653  0.1675 -0.5775
  341MOL0     C46980   4.512   1.429   2.644  0.0231  0.7324  1.1195
  341MOL0     C46981   4.554   1.282   2.623 -0.1319  0.0841  0.0297
  341MOL0     C46982   4.650   1.264   2.507  0.2297 -0.1607  0.4821
  341MOL0     C46983   4.656   1.113   2.462  1.1085 -0.1594  0.3167
  341MOL0     C46984   4.796   1.093   2.421 -0.0784  0.2372 -0.3891
  341MOL0     C46985   4.910   1.091   2.377 -0.5097  0.2078 -0.1226
  341MOL0     C46986   4.340   1.698   2.514  0.6733  0.3455  0.6543
  341MOL0     C46987   4.347   1.829   2.453 -0.9092 -0.7169  0.6191
  341MOL0     C46988   4.232   1.922   2.476 -0.3900  0.2171 -0.7407
  341MOL0     H46989   4.267   2.256   2.372  1.8990 -0.1918  0.2228
  341MOL0     H46990   4.269   2.489   2.304  1.7173  3.1024  2.7832
  341MOL0     H46991   4.670   2.651   2.130 -0.8907  0.2705 -0.9164
  341MOL0     H46992   4.622   2.694   2.291 -3.7300  3.8388  0.7460
  341MOL0     H46993   4.491   2.856   2.065 -0.8025 -2.4254  1.3761
  341MOL0     H46994   4.482   2.873   2.241 -0.0460  1.1533  0.0942
  341MOL0     H46995   4.731   2.909   2.066  0.6577 -1.2357  1.3741
  341MOL0     H46996   4.623   3.039   2.138  2.0636  0.7725  6.9267
  341MOL0     H46997   4.683   2.963   2.357 -0.6676  1.3274 -0.8816
  341MOL0     H46998   4.792   2.851   2.273  2.4680  1.0638  1.9545
  341MOL0     H46999   4.804   3.158   2.224 -0.0868 -0.6937  1.4493
  341MOL0     H47000   4.914   3.032   2.167 -2.7453 -1.0530 -1.2105
  341MOL0     H47001   4.874   3.160   2.443  0.2099  1.0524 -0.4395
  341MOL0     H47002   4.934   2.993   2.428 -0.8203  2.2086  4.2382
  341MOL0     H47003   5.123   3.099   2.270 -1.6969  0.4778 -0.8239
  341MOL0     H47004   5.125   3.103   2.450 -0.9547 -1.8976 -0.5569
  341MOL0     H47005   5.035   3.328   2.448  3.8440 -0.6105  2.3855
  341MOL0     H47006   5.195   3.321   2.366  0.1712  0.6595 -0.5559
  341MOL0     H47007   5.208   3.325   2.116 -0.5288  0.6242 -3.2003
  341MOL0     H47008   4.928   3.444   1.856 -0.7182 -1.0905  2.7780
  341MOL0     H47009   5.089   3.377   1.839  1.9958  1.3687 -1.1219
  341MOL0     H47010   5.080   3.617   1.755  3.8486 -0.2404  0.2047
  341MOL0     H47011   5.013   3.674   1.904  3.1076  2.3905  0.9502
  341MOL0     H47012   5.232   3.730   1.915  3.1385 -0.7986 -1.5475
  341MOL0     H47013   5.236   3.582   2.020  1.9086 -2.7036  0.0614
  341MOL0     H47014   5.335   3.453   1.857 -1.3957  0.6307  0.3941
  341MOL0     H47015   5.322   3.565   1.725 -1.0264  1.9942  0.1416
  341MOL0     H47016   5.548   3.770   2.056  0.9084  1.4175  0.8534
  341MOL0     H47017   5.563   3.940   2.173 -1.9403  0.2965  1.3484
  341MOL0     H47018   5.469   4.084   2.121 -0.3759 -0.5637 -1.8946
  341MOL0     H47019   5.640   4.084   2.100 -0.5717 -0.3126  0.7756
  341MOL0     H47020   5.421   4.338   1.594 -1.6757  0.0725  3.0385
  341MOL0     H47021   5.415   4.548   1.505  0.4906  0.0442 -1.7025
  341MOL0     H47022   5.422   4.801   1.487  0.8488 -4.0832 -1.1699
  341MOL0     H47023   5.424   4.766   1.654  3.0392 -3.9841  0.4110
  341MOL0     H47024   5.611   4.990   1.574  0.8809 -1.1694  1.4963
  341MOL0     H47025   5.436   5.014   1.591  2.2618  2.4297 -1.2942
  341MOL0     H47026   5.614   4.869   1.806 -1.3387 -1.8720  1.0596
  341MOL0     H47027   5.449   4.904   1.822  0.2712  1.4904  0.2823
  341MOL0     H47028   5.509   5.153   1.782  0.0067 -0.3381  1.5376
  341MOL0     H47029   5.666   5.099   1.819 -0.2324  2.7994  1.8049
  341MOL0     H47030   5.545   5.195   1.998 -3.4059  0.5378  0.3852
  341MOL0     H47031   5.435   5.060   2.011  1.4618 -2.6115  1.3371
  341MOL0     H47032   5.733   5.011   2.082  0.3986 -0.2482 -2.0834
  341MOL0     H47033   5.601   4.893   2.052 -0.9836 -0.2692  0.8737
  341MOL0     H47034   5.466   4.979   2.218  0.1735  0.7044 -3.3498
  341MOL0     H47035   5.585   5.107   2.261 -2.9824 -0.4410  1.8358
  341MOL0     H47036   5.590   4.934   2.429 -0.5608  0.9747 -0.7705
  341MOL0     H47037   5.739   4.965   2.336 -0.6689  0.4151 -0.4560
  341MOL0     H47038   5.806   4.631   1.657  3.1725 -2.1039 -1.3864
  341MOL0     H47039   5.818   4.395   1.758  0.0907 -0.6585 -1.3208
  341MOL0     H47040   5.421   4.008   1.637  0.0922 -4.2529 -1.8757
  341MOL0     H47041   5.372   3.776   1.651 -0.8390  1.9399  0.0097
  341MOL0     H47042   4.659   2.437   2.151  0.7498 -1.5765  1.8413
  341MOL0     H47043   4.672   2.217   2.249  1.0117  1.8145  0.7657
  341MOL0     H47044   4.607   1.746   2.247 -0.9181  4.5202 -0.2758
  341MOL0     H47045   4.565   1.533   2.330 -1.0159 -0.9542 -1.6885
  341MOL0     H47046   4.594   1.501   2.641 -0.4461  1.2453 -0.0774
  341MOL0     H47047   4.465   1.428   2.743 -0.4842 -0.8262  0.8808
  341MOL0     H47048   4.459   1.230   2.613  0.4687 -1.6482  2.4477
  341MOL0     H47049   4.605   1.242   2.711 -0.1351  0.4649  0.2084
  341MOL0     H47050   4.611   1.314   2.418  1.5679 -2.8112 -1.7494
  341MOL0     H47051   4.751   1.302   2.522  0.5983  0.4379 -2.6878
  341MOL0     H47052   4.580   1.105   2.384 -1.2148  4.8587  1.6221
  341MOL0     H47053   4.625   1.043   2.540 -0.7002 -1.1619 -1.2315
  341MOL0     H47054   5.010   1.096   2.339 -0.0549  0.9410  1.0961
  341MOL0     H47055   4.256   1.689   2.583  0.7266 -3.3405  0.4545
  341MOL0     H47056   4.254   1.992   2.558 -0.1296  0.4150 -0.9753
  341MOL0     H47057   4.210   1.985   2.389 -0.2451 -4.7280 -4.7654
  341MOL0     H47058   4.135   1.875   2.492  0.2425 -1.4017 -1.4933
  342MOL0     O47059   3.969   7.559   3.278  0.2150 -0.3895 -0.4648
  342MOL0     C47060   4.049   7.656   3.276  0.9586 -0.4078  0.2468
  342MOL0     O47061   4.164   7.664   3.350  0.0526 -0.7053  0.2281
  342MOL0     C47062   4.220   7.554   3.405 -0.2274  0.3679  0.4767
  342MOL0     C47063   4.224   7.435   3.340  0.5718  0.3919 -0.1293
  342MOL0     C47064   4.272   7.319   3.396  0.9019 -0.8280 -0.2367
  342MOL0     C47065   4.335   7.318   3.526  0.1095  0.1853  0.4679
  342MOL0     O47066   4.362   7.216   3.607  0.3656  0.0620 -0.8103
  342MOL0     C47067   4.435   7.105   3.561  0.2187 -0.4382  0.1169
  342MOL0     C47068   4.459   7.023   3.687  0.1665  0.0947  0.0017
  342MOL0     C47069   4.320   6.960   3.717 -0.4090 -0.4059  0.2405
  342MOL0     C47070   4.353   6.842   3.809 -0.3953  0.4918  0.1211
  342MOL0     C47071   4.231   6.784   3.897  0.4607  0.2153 -0.0437
  342MOL0     C47072   4.271   6.714   4.031  0.9815  0.5354 -0.3598
  342MOL0     C47073   4.330   6.820   4.132  0.6456  0.4162  0.0634
  342MOL0     C47074   4.347   6.771   4.272 -0.4082  0.3914 -0.1712
  342MOL0     N47075   4.461   6.831   4.343 -0.0930 -0.5930 -0.0355
  342MOL0     C47076   4.454   6.924   4.437 -0.3874 -0.1929  0.2723
  342MOL0     C47077   4.571   6.921   4.501 -0.4849  0.5139 -0.0336
  342MOL0     C47078   4.620   7.031   4.587 -0.6421 -0.6498 -0.5945
  342MOL0     C47079   4.671   7.161   4.519 -0.4406 -0.1413  0.2042
  342MOL0     C47080   4.772   7.135   4.402 -0.3405  0.6914  0.4065
  342MOL0     C47081   4.913   7.068   4.424 -0.1567 -0.4020  0.3919
  342MOL0     O47082   4.994   7.111   4.536 -0.3530  0.1830 -0.9955
  342MOL0     C47083   5.071   7.226   4.536 -0.9092  0.8195  0.8018
  342MOL0     C47084   5.171   7.238   4.636  0.4162 -0.0725  0.2301
  342MOL0     C47085   5.275   7.321   4.633  0.0021 -0.7840 -0.3107
  342MOL0     C47086   5.374   7.327   4.757 -0.6031 -0.3092 -0.9422
  342MOL0     C47087   5.279   7.418   4.526  0.1321  0.3404  1.3476
  342MOL0     C47088   5.372   7.523   4.511  0.3469  0.2571 -0.3074
  342MOL0     O47089   5.393   7.561   4.380 -0.2028 -0.7960  0.1376
  342MOL0     C47090   5.452   7.685   4.360  0.7175  0.0747 -0.3298
  342MOL0     C47091   5.369   7.791   4.320  0.7214  0.2374 -0.0361
  342MOL0     C47092   5.416   7.920   4.299 -0.0784  0.8722  0.0465
  342MOL0     C47093   5.549   7.946   4.330 -0.0393 -0.1206 -0.0879
  342MOL0     O47094   5.606   8.074   4.299  0.3836 -0.0034  0.5597
  342MOL0     C47095   5.603   8.164   4.412 -0.5412 -0.1860 -0.0905
  342MOL0     C47096   5.647   8.309   4.383 -0.4883  1.0956 -0.1852
  342MOL0     C47097   5.798   8.300   4.350 -0.3062  0.1256  0.4657
  342MOL0     C47098   5.833   8.441   4.291  1.3120  0.3254 -0.2299
  342MOL0     C47099   5.974   8.443   4.233 -0.7487 -0.3688  0.4059
  342MOL0     C47100   5.988   8.576   4.153 -0.2322 -0.0545  0.5220
  342MOL0     C47101   6.137   8.604   4.106  0.4032  0.6186 -0.2373
  342MOL0     C47102   6.195   8.713   4.186 -0.1507 -0.0510 -0.3375
  342MOL0    Cl47103   6.130   8.871   4.158 -0.1274  0.0208 -0.1477
  342MOL0     C47104   5.628   7.840   4.366  0.1135  0.3181  0.3580
  342MOL0     C47105   5.585   7.711   4.378 -0.6753  0.9722 -0.3807
  342MOL0     O47106   5.417   7.585   4.604 -1.0941 -1.0713  0.1359
  342MOL0     C47107   5.175   7.414   4.428  0.0491 -0.4419 -0.2714
  342MOL0     C47108   5.078   7.318   4.426 -0.3283  0.1204 -0.7812
  342MOL0     N47109   4.648   6.829   4.441  0.3013  0.9322 -0.4379
  342MOL0     N47110   4.575   6.768   4.358 -0.2493  0.3950 -0.5542
  342MOL0     C47111   4.328   7.446   3.589 -1.0380  0.6005 -0.4341
  342MOL0     C47112   4.273   7.556   3.527  0.2925 -0.4364 -0.2190
  342MOL0     C47113   4.006   7.788   3.218 -0.6205 -0.1195  0.4618
  342MOL0     C47114   4.050   7.907   3.283 -0.2146 -0.2019  0.3769
  342MOL0     C47115   3.996   8.023   3.244  0.4172 -0.7201 -0.3474
  342MOL0     C47116   3.918   8.039   3.131 -0.1394 -0.1706  0.2281
  342MOL0     O47117   3.850   8.153   3.098  0.2255 -0.7578  0.0616
  342MOL0     C47118   3.908   8.281   3.150  0.0277  0.0676  0.2354
  342MOL0     C47119   4.055   8.314   3.109 -0.2492 -0.3133 -0.5389
  342MOL0     C47120   4.108   8.449   3.170  0.6352  0.5863 -0.1679
  342MOL0     C47121   4.020   8.568   3.118  0.3950 -0.3351 -0.3571
  342MOL0     C47122   4.051   8.595   2.972  0.5043 -0.1606 -1.0660
  342MOL0     C47123   4.066   8.649   2.865  0.7699  0.2865 -0.1157
  342MOL0     C47124   3.881   7.924   3.064 -0.0759 -0.2621 -0.7321
  342MOL0     C47125   3.912   7.795   3.104 -0.7146 -0.5611 -0.2592
  342MOL0     C47126   3.852   7.681   3.037  0.6374  0.2721  0.4223
  342MOL0     H47127   4.170   7.410   3.249 -0.9111 -2.4729  1.3806
  342MOL0     H47128   4.255   7.221   3.351  0.4795  0.4477 -3.0530
  342MOL0     H47129   4.540   7.130   3.543  1.5591 -1.8147  4.6595
  342MOL0     H47130   4.387   7.055   3.476 -2.8105  1.2999  0.6690
  342MOL0     H47131   4.540   6.949   3.687 -0.1323 -0.3462  2.7577
  342MOL0     H47132   4.477   7.101   3.763 -4.9825  2.4274 -0.7125
  342MOL0     H47133   4.252   7.027   3.770 -0.4297 -1.1621  1.1970
  342MOL0     H47134   4.272   6.932   3.623 -1.5329  0.1431  0.6427
  342MOL0     H47135   4.396   6.761   3.750  0.0788  0.5698  0.3555
  342MOL0     H47136   4.428   6.889   3.874 -0.7238  0.4747  0.5222
  342MOL0     H47137   4.160   6.726   3.837  1.3592 -0.3326 -0.5998
  342MOL0     H47138   4.168   6.871   3.919  0.5321  0.2526  0.0132
  342MOL0     H47139   4.181   6.669   4.075 -0.2541  0.4738 -2.7968
  342MOL0     H47140   4.340   6.631   4.015  0.1650 -0.3098  0.3953
  342MOL0     H47141   4.266   6.908   4.142  3.0385  2.3641 -0.7608
  342MOL0     H47142   4.426   6.852   4.090  0.2800  0.3296 -0.8600
  342MOL0     H47143   4.254   6.772   4.331 -0.4736  3.7307 -0.1620
  342MOL0     H47144   4.373   6.666   4.259  2.9300  1.1446 -0.4916
  342MOL0     H47145   4.375   6.993   4.467  0.6785 -0.0475  3.0046
  342MOL0     H47146   4.709   7.001   4.642  0.7242 -1.8934 -3.2779
  342MOL0     H47147   4.540   7.068   4.652 -2.6194  2.2999 -4.2204
  342MOL0     H47148   4.573   7.186   4.477 -0.3711 -1.9468 -1.1237
  342MOL0     H47149   4.705   7.240   4.587  5.3911 -0.3915 -1.8990
  342MOL0     H47150   4.723   7.076   4.324  1.8202  1.1807 -1.4029
  342MOL0     H47151   4.795   7.226   4.346  2.4502 -0.4614 -0.4369
  342MOL0     H47152   4.907   6.958   4.419 -0.7748 -0.4462  1.6109
  342MOL0     H47153   4.964   7.089   4.329 -0.0408 -2.5620 -0.0899
  342MOL0     H47154   5.171   7.159   4.711 -3.3087 -1.3965 -0.9417
  342MOL0     H47155   5.342   7.407   4.824  0.7736 -0.3823 -0.1633
  342MOL0     H47156   5.474   7.355   4.724 -1.4066  2.6951 -1.1458
  342MOL0     H47157   5.389   7.231   4.808  2.2919 -0.8034 -2.4829
  342MOL0     H47158   5.264   7.770   4.306  0.3147 -0.6057  3.3321
  342MOL0     H47159   5.354   8.007   4.282  0.8486  2.6419  4.3975
  342MOL0     H47160   5.503   8.169   4.456 -1.0061 -2.5223 -0.7405
  342MOL0     H47161   5.668   8.128   4.492 -2.8776  0.6587  2.3317
  342MOL0     H47162   5.595   8.345   4.294 -0.6751  0.2124 -0.4452
  342MOL0     H47163   5.641   8.370   4.473  1.4589  2.7840 -1.1045
  342MOL0     H47164   5.820   8.220   4.279  1.3311 -0.4667  1.5802
  342MOL0     H47165   5.864   8.285   4.436  1.9470  0.0976 -1.1454
  342MOL0     H47166   5.830   8.523   4.363 -1.4629 -0.0069  0.1525
  342MOL0     H47167   5.768   8.462   4.205 -0.2834 -0.5747  0.6923
  342MOL0     H47168   6.056   8.434   4.304  0.7133  1.3707 -0.9449
  342MOL0     H47169   5.994   8.357   4.168  1.9268 -0.7380  1.5820
  342MOL0     H47170   5.965   8.664   4.214 -0.5179  0.3158 -0.1177
  342MOL0     H47171   5.921   8.576   4.067 -2.0512  1.2491  1.8454
  342MOL0     H47172   6.149   8.616   3.998 -3.0773  5.0421 -0.4113
  342MOL0     H47173   6.197   8.518   4.138  0.2509  0.0411 -1.4346
  342MOL0     H47174   6.303   8.714   4.165  0.7736 -3.3830  3.0490
  342MOL0     H47175   6.192   8.691   4.294 -1.6063  1.2075 -0.0898
  342MOL0     H47176   5.735   7.847   4.381  0.2441 -2.9030  1.6234
  342MOL0     H47177   5.655   7.633   4.404 -1.8116  0.6764  2.0357
  342MOL0     H47178   5.151   7.492   4.357 -0.9550 -1.7960 -1.4834
  342MOL0     H47179   5.002   7.312   4.349  0.1464 -3.0281 -1.1214
  342MOL0     H47180   4.364   7.456   3.691 -2.3089 -2.1912  0.3681
  342MOL0     H47181   4.274   7.649   3.583 -0.9478  0.2750 -1.3538
  342MOL0     H47182   4.107   7.908   3.376 -0.6594  0.4830  0.6563
  342MOL0     H47183   4.013   8.104   3.314 -1.2671 -0.6937  0.0860
  342MOL0     H47184   3.833   8.354   3.118  0.4088  1.5276  2.4726
  342MOL0     H47185   3.914   8.289   3.259 -0.4411  0.4686  0.2360
  342MOL0     H47186   4.066   8.313   3.000  2.1194  1.3649 -0.3901
  342MOL0     H47187   4.121   8.237   3.150  0.6231  1.0849  0.8217
  342MOL0     H47188   4.121   8.454   3.278  0.8151 -2.4235  0.0182
  342MOL0     H47189   4.209   8.462   3.129  0.5334  0.5177 -0.4438
  342MOL0     H47190   4.052   8.657   3.173  0.5922 -1.4244  1.3425
  342MOL0     H47191   3.913   8.553   3.137  1.0356 -1.7096  2.6553
  342MOL0     H47192   4.080   8.708   2.777 -3.0765 -1.8656 -2.4460
  342MOL0     H47193   3.821   7.955   2.979 -1.6605  1.9780  1.0655
  342MOL0     H47194   3.905   7.586   3.049 -2.4198 -1.2774  3.1018
  342MOL0     H47195   3.752   7.662   3.075 -0.0152  0.9039 -0.9091
  342MOL0     H47196   3.843   7.705   2.930  3.4553  0.9986  0.2409
  343MOL0     O47197   8.023   7.032   0.770  0.4191  0.2799 -0.4512
  343MOL0     C47198   7.979   6.980   0.676  0.2413  0.8799 -1.1668
  343MOL0     O47199   7.915   7.046   0.573 -1.2586 -0.5743 -0.2649
  343MOL0     C47200   7.949   7.179   0.546  0.2420  0.0198 -0.0416
  343MOL0     C47201   8.050   7.257   0.607 -0.3466 -0.1653  0.0630
  343MOL0     C47202   8.075   7.385   0.572  0.3873 -0.0169 -0.0520
  343MOL0     C47203   7.983   7.450   0.488 -0.0096  0.4499 -0.4643
  343MOL0     O47204   8.000   7.582   0.460 -0.3052  0.4568 -0.2683
  343MOL0     C47205   7.957   7.629   0.335  0.9542 -1.0265 -0.6094
  343MOL0     C47206   8.012   7.765   0.300 -0.5918  0.5440  0.1482
  343MOL0     C47207   7.985   7.871   0.401 -0.7732  0.1390 -1.0230
  343MOL0     C47208   8.060   7.998   0.338  0.3519 -0.4486 -0.3870
  343MOL0     C47209   8.003   8.127   0.393 -0.6162  0.1288  0.0687
  343MOL0     C47210   8.009   8.143   0.534 -0.5685 -0.1130  0.2503
  343MOL0     C47211   7.980   8.280   0.591  0.7459  0.3761  1.4652
  343MOL0     C47212   7.971   8.293   0.742 -0.2643 -0.8709  0.4097
  343MOL0     N47213   7.939   8.429   0.761 -0.3172  0.6848 -0.3921
  343MOL0     C47214   8.024   8.531   0.807  0.5469  0.6266  0.0224
  343MOL0     C47215   7.945   8.647   0.815 -0.2439 -0.0647 -0.6935
  343MOL0     C47216   8.002   8.781   0.868  0.0669 -0.3957 -0.5077
  343MOL0     C47217   7.918   8.868   0.958 -1.0840  0.2560  0.0665
  343MOL0     C47218   7.817   8.799   1.049 -0.1727 -0.4675 -0.1934
  343MOL0     C47219   7.796   8.861   1.180  0.1849 -0.0796  0.1864
  343MOL0     O47220   7.720   8.981   1.179  0.6991 -0.3701 -0.2017
  343MOL0     C47221   7.769   9.081   1.260 -0.4110  0.3774 -0.1396
  343MOL0     C47222   7.731   9.075   1.402  0.5207 -0.8959 -0.2036
  343MOL0     C47223   7.749   9.190   1.479 -0.6308 -1.1962 -0.1746
  343MOL0     C47224   7.707   9.178   1.628 -0.3934  0.2102 -0.2300
  343MOL0     C47225   7.798   9.310   1.418  0.7158 -0.1385 -0.9920
  343MOL0     C47226   7.804   9.437   1.489  0.7719  0.4805 -0.5419
  343MOL0     O47227   7.705   9.465   1.581  0.4421 -0.0404 -0.0914
  343MOL0     C47228   7.721   9.566   1.674  0.9701  0.1315  0.0500
  343MOL0     C47229   7.725   9.701   1.645 -0.2975  0.5325  0.2622
  343MOL0     C47230   7.752   9.796   1.744  0.4402 -0.6269 -1.1255
  343MOL0     C47231   7.791   9.755   1.872  0.3346  0.0750  0.3971
  343MOL0     O47232   7.853   9.852   1.947  0.0641 -0.1711  0.2404
  343MOL0     C47233   7.921   9.796   2.067  0.2834  0.1118  0.4548
  343MOL0     C47234   8.025   9.889   2.131 -0.5197  0.5103 -0.5438
  343MOL0     C47235   7.974  10.016   2.208 -0.1093 -0.2347  0.8582
  343MOL0     C47236   7.932   9.992   2.353 -0.4375  0.6535  0.3211
  343MOL0     C47237   7.876  10.123   2.395 -0.2496 -0.5130 -0.2984
  343MOL0     C47238   7.853  10.103   2.541 -0.1135  0.2438  0.0990
  343MOL0     C47239   7.809  10.222   2.627  0.6117  0.3933  0.5409
  343MOL0     C47240   7.893  10.341   2.603  0.2531  0.2765  0.1259
  343MOL0    Cl47241   7.815  10.451   2.474 -0.0273 -0.1617  0.7130
  343MOL0     C47242   7.767   9.621   1.898 -0.0549 -0.5932 -0.4246
  343MOL0     C47243   7.731   9.531   1.803 -0.3033  1.1632 -0.5278
  343MOL0     O47244   7.885   9.520   1.448  0.0144 -0.0309 -0.3647
  343MOL0     C47245   7.828   9.317   1.283  0.0071  0.5597  0.0312
  343MOL0     C47246   7.805   9.207   1.209 -1.1050  0.2608  0.3572
  343MOL0     N47247   7.821   8.606   0.770  0.2182  0.9690 -1.0924
  343MOL0     N47248   7.811   8.482   0.744 -0.1188  0.9016 -0.5462
  343MOL0     C47249   7.884   7.375   0.412 -0.1449  1.0291 -0.3490
  343MOL0     C47250   7.873   7.238   0.447  0.7860 -0.5895  0.6540
  343MOL0     C47251   7.965   6.836   0.689 -0.7794 -0.3327  0.7705
  343MOL0     C47252   7.862   6.776   0.623  0.5669  0.4419 -0.0232
  343MOL0     C47253   7.820   6.637   0.647 -0.0190 -0.0603 -0.3444
  343MOL0     C47254   7.892   6.556   0.731 -0.6094 -0.8144  0.8946
  343MOL0     O47255   7.863   6.426   0.754  0.1543 -0.1358 -0.2845
  343MOL0     C47256   7.771   6.349   0.679  0.1727 -0.8469 -0.0061
  343MOL0     C47257   7.837   6.247   0.590  0.2951  0.0963  0.5669
  343MOL0     C47258   7.908   6.310   0.458 -0.4810 -0.1711 -0.6901
  343MOL0     C47259   7.977   6.196   0.370  0.0374 -0.6174  0.5494
  343MOL0     C47260   7.873   6.131   0.299  0.3469  0.3598 -0.4478
  343MOL0     C47261   7.787   6.056   0.251 -0.5775  0.5392  0.7844
  343MOL0     C47262   8.008   6.612   0.780 -0.5092  0.2451 -0.1876
  343MOL0     C47263   8.042   6.749   0.772 -0.3096  0.2817 -0.0823
  343MOL0     C47264   8.176   6.798   0.846 -0.7102  0.9386  0.9050
  343MOL0     H47265   8.110   7.216   0.688 -1.7955 -1.2130  0.6563
  343MOL0     H47266   8.146   7.459   0.608 -0.4272 -0.3666  2.5207
  343MOL0     H47267   7.850   7.648   0.348  0.8588 -1.5058 -0.6773
  343MOL0     H47268   7.968   7.550   0.261  1.3671 -0.2787 -1.3753
  343MOL0     H47269   8.121   7.757   0.287 -0.4163  1.5211  0.9173
  343MOL0     H47270   7.958   7.793   0.209 -1.3574 -0.0608  0.4035
  343MOL0     H47271   7.880   7.886   0.428 -0.8723  0.1580 -1.4169
  343MOL0     H47272   8.044   7.848   0.490  0.4008  0.9689 -1.5605
  343MOL0     H47273   8.163   7.982   0.372 -0.6709 -0.9894  2.8209
  343MOL0     H47274   8.077   7.995   0.230  0.1495  1.6446 -0.5226
  343MOL0     H47275   7.899   8.133   0.358 -0.4819 -2.6366 -1.0040
  343MOL0     H47276   8.065   8.210   0.357  0.1869 -0.7104 -0.5146
  343MOL0     H47277   7.928   8.089   0.586  0.9578 -0.8738  1.9324
  343MOL0     H47278   8.110   8.111   0.560  0.3363  0.6970 -2.0198
  343MOL0     H47279   7.879   8.307   0.560  1.2994 -1.3422 -2.3709
  343MOL0     H47280   8.037   8.357   0.536 -1.2246  0.4719 -0.5788
  343MOL0     H47281   7.883   8.239   0.779 -1.7293  1.3430  0.4014
  343MOL0     H47282   8.063   8.260   0.790 -0.6229 -0.6395  1.2689
  343MOL0     H47283   8.129   8.530   0.835  0.5007 -3.3995  0.7844
  343MOL0     H47284   8.042   8.840   0.785  4.4064 -2.3509 -0.0746
  343MOL0     H47285   8.095   8.764   0.922 -0.1302 -1.0022 -0.3514
  343MOL0     H47286   7.980   8.942   1.009  0.2299  0.7810 -2.1158
  343MOL0     H47287   7.851   8.924   0.892 -0.6892  1.4375  0.6525
  343MOL0     H47288   7.719   8.795   1.000 -2.3882  1.5316  3.6246
  343MOL0     H47289   7.845   8.695   1.065 -0.0020 -0.4632 -0.4607
  343MOL0     H47290   7.750   8.800   1.258  0.7618  3.7430  3.8648
  343MOL0     H47291   7.896   8.878   1.219  0.3272 -2.1549  0.8648
  343MOL0     H47292   7.682   8.985   1.438  0.4131 -1.7524 -2.3627
  343MOL0     H47293   7.599   9.198   1.627  0.0991  3.3310  0.7933
  343MOL0     H47294   7.761   9.244   1.695  0.4934  1.3094 -1.9693
  343MOL0     H47295   7.721   9.083   1.680 -2.7808 -1.3679 -2.2251
  343MOL0     H47296   7.719   9.732   1.541  0.2576  1.7841  0.5819
  343MOL0     H47297   7.767   9.902   1.731 -0.9375 -0.0583  1.2200
  343MOL0     H47298   7.847   9.758   2.138  0.5805 -2.6061 -0.5740
  343MOL0     H47299   7.982   9.720   2.019  1.9767  1.0588  1.0296
  343MOL0     H47300   8.082   9.833   2.206 -0.3686  0.7503 -0.4772
  343MOL0     H47301   8.093   9.920   2.051 -3.2785  0.6865 -2.9839
  343MOL0     H47302   7.900  10.060   2.141  2.2318  0.5059 -1.3977
  343MOL0     H47303   8.060  10.084   2.204 -0.0044 -0.4343 -0.9206
  343MOL0     H47304   8.022   9.963   2.407  0.4643  0.2544 -1.3254
  343MOL0     H47305   7.851   9.920   2.365  0.8506 -0.7387  0.9610
  343MOL0     H47306   7.942  10.205   2.366 -1.3528  0.1541 -1.0436
  343MOL0     H47307   7.786  10.155   2.341  1.1999  1.6892 -1.5901
  343MOL0     H47308   7.941  10.071   2.598 -0.2230  1.1419  0.8100
  343MOL0     H47309   7.774  10.027   2.540  0.0146 -0.0596  3.0136
  343MOL0     H47310   7.805  10.184   2.729 -1.0679 -1.7477 -0.2458
  343MOL0     H47311   7.706  10.238   2.591 -0.0703  0.9036  2.6066
  343MOL0     H47312   7.994  10.316   2.572  0.2342 -1.0839  1.0800
  343MOL0     H47313   7.899  10.406   2.691  2.5008  0.2075  0.0673
  343MOL0     H47314   7.777   9.580   1.998  1.6580  1.2908  0.2365
  343MOL0     H47315   7.733   9.425   1.828  1.8175  0.4518 -3.2247
  343MOL0     H47316   7.840   9.409   1.226  1.2793 -0.0722 -0.7509
  343MOL0     H47317   7.839   9.211   1.106 -0.9174  1.0540  0.4458
  343MOL0     H47318   7.814   7.415   0.339 -2.5482 -0.2839  1.0692
  343MOL0     H47319   7.792   7.189   0.394  2.3633  0.1853 -2.7341
  343MOL0     H47320   7.793   6.832   0.559 -1.1194 -1.2025  0.2698
  343MOL0     H47321   7.741   6.589   0.590 -2.3239  0.1734  2.3708
  343MOL0     H47322   7.703   6.316   0.757  0.1201  2.3945  1.4655
  343MOL0     H47323   7.712   6.407   0.607  1.3423 -0.7038 -0.8924
  343MOL0     H47324   7.762   6.176   0.555  1.4797 -0.5254 -0.8356
  343MOL0     H47325   7.906   6.192   0.655  1.9863  2.0864  0.5804
  343MOL0     H47326   7.853   6.381   0.395  2.9189  3.5566  0.1436
  343MOL0     H47327   7.985   6.373   0.504  0.5141 -0.4983 -1.8536
  343MOL0     H47328   8.043   6.137   0.435 -2.6173  0.6886  4.8339
  343MOL0     H47329   8.037   6.241   0.290 -3.3781 -3.0537 -3.8069
  343MOL0     H47330   7.699   6.000   0.225  1.2570 -3.1546  1.7321
  343MOL0     H47331   8.088   6.561   0.832  0.6289 -0.2397 -2.3054
  343MOL0     H47332   8.229   6.854   0.768 -1.2945 -0.8800 -0.8646
  343MOL0     H47333   8.139   6.860   0.928  2.0294  2.1297  1.3654
  343MOL0     H47334   8.240   6.724   0.894  2.5422  1.5178 -2.0896
  344MOL0     O47335   3.177  11.511   2.795 -0.0800 -0.2852  0.6217
  344MOL0     C47336   3.296  11.490   2.813  0.2572  0.6014 -0.5915
  344MOL0     O47337   3.344  11.392   2.901  0.4240  0.2218  0.3224
  344MOL0     C47338   3.262  11.322   2.995 -0.4417  0.0784 -0.4595
  344MOL0     C47339   3.119  11.333   3.004  0.3846  0.7144 -0.6640
  344MOL0     C47340   3.052  11.258   3.099 -1.3593 -0.0323  0.3074
  344MOL0     C47341   3.118  11.176   3.188  1.1413  0.3487  0.6335
  344MOL0     O47342   3.051  11.110   3.298 -0.0090 -0.1295  0.7141
  344MOL0     C47343   2.904  11.113   3.289 -0.1026  0.1176 -0.3950
  344MOL0     C47344   2.842  11.038   3.402  0.1998 -0.9524  0.2742
  344MOL0     C47345   2.882  10.896   3.390  0.2714  0.2254 -0.4246
  344MOL0     C47346   2.819  10.825   3.271 -0.2055  1.0826 -0.8711
  344MOL0     C47347   2.807  10.688   3.335  0.2216 -0.4082  0.0033
  344MOL0     C47348   2.723  10.594   3.241  0.1884  0.0438  1.2536
  344MOL0     C47349   2.773  10.574   3.104 -0.6956  0.0585  0.8281
  344MOL0     C47350   2.917  10.517   3.095 -0.0700 -0.0727 -0.2121
  344MOL0     N47351   2.931  10.397   3.172  0.0517  1.2825  0.9769
  344MOL0     C47352   2.927  10.272   3.112  0.0850 -0.8930  0.6200
  344MOL0     C47353   2.952  10.192   3.214  0.1837  0.4954  0.3723
  344MOL0     C47354   2.958  10.041   3.202  0.6891  0.1864  0.0179
  344MOL0     C47355   2.844   9.970   3.121  0.2017 -1.1215  0.0403
  344MOL0     C47356   2.807  10.001   2.969 -0.5094  0.1174 -0.4336
  344MOL0     C47357   2.929   9.967   2.883  1.1881 -0.1071 -0.2271
  344MOL0     O47358   2.932   9.832   2.831 -0.2676 -0.2805 -0.5895
  344MOL0     C47359   2.973   9.727   2.902 -1.0810  0.1396 -0.1079
  344MOL0     C47360   3.080   9.723   3.005  0.7623 -0.6678  0.2372
  344MOL0     C47361   3.107   9.599   3.067  0.0645  0.2993  0.1339
  344MOL0     C47362   3.205   9.607   3.182  0.3662  0.1057  0.1831
  344MOL0     C47363   3.065   9.473   3.011  0.9482  0.4272 -0.0960
  344MOL0     C47364   3.102   9.335   3.057  0.4316  0.0116  0.5365
  344MOL0     O47365   3.067   9.233   2.977 -0.8496  0.4467  0.0523
  344MOL0     C47366   3.126   9.110   3.003 -0.1426 -0.2250 -0.0819
  344MOL0     C47367   3.262   9.084   3.002 -0.3174  0.6919 -0.3562
  344MOL0     C47368   3.310   8.954   3.017  0.3540 -0.5827 -0.7148
  344MOL0     C47369   3.221   8.848   3.029  0.2679  0.3482 -0.5763
  344MOL0     O47370   3.266   8.720   3.042  0.8455  0.1060  0.2226
  344MOL0     C47371   3.408   8.690   3.040  0.0210  0.6544 -0.9804
  344MOL0     C47372   3.429   8.541   3.039  0.0794 -0.6435  0.3525
  344MOL0     C47373   3.444   8.472   3.172  0.8062  0.4636 -0.5005
  344MOL0     C47374   3.491   8.326   3.167  0.1977  0.2752 -0.2845
  344MOL0     C47375   3.562   8.283   3.292 -0.1224 -0.0889 -0.4234
  344MOL0     C47376   3.587   8.134   3.287  0.3187  0.1589 -0.2631
  344MOL0     C47377   3.669   8.081   3.404 -0.7472  0.1743 -0.1543
  344MOL0     C47378   3.609   8.092   3.547  0.1372 -0.2660 -0.0543
  344MOL0    Cl47379   3.433   8.046   3.526  0.4478 -0.1085 -0.7289
  344MOL0     C47380   3.085   8.874   3.042  1.0976 -0.1393  0.0069
  344MOL0     C47381   3.040   9.003   3.013  1.2023  0.3674 -0.1349
  344MOL0     O47382   3.146   9.323   3.171  0.3767  0.0730  0.7490
  344MOL0     C47383   2.982   9.484   2.900  0.0037  0.4790 -0.2409
  344MOL0     C47384   2.934   9.602   2.849  0.7865 -0.4990 -0.0520
  344MOL0     N47385   2.985  10.271   3.323  0.4696  0.2675 -0.0412
  344MOL0     N47386   2.958  10.393   3.300 -0.6830  0.6110 -0.5086
  344MOL0     C47387   3.256  11.161   3.170  0.4986 -0.0026 -0.1272
  344MOL0     C47388   3.331  11.235   3.079 -0.3648 -0.7995  0.1642
  344MOL0     C47389   3.403  11.553   2.723  0.5478 -0.3334 -0.5387
  344MOL0     C47390   3.526  11.484   2.695 -0.7877 -0.4725 -0.2549
  344MOL0     C47391   3.634  11.528   2.629  0.1109 -0.2434 -0.4952
  344MOL0     C47392   3.628  11.645   2.562 -0.2418  0.0598  0.2131
  344MOL0     O47393   3.737  11.676   2.480 -1.1201 -0.2306 -0.4054
  344MOL0     C47394   3.726  11.760   2.362  0.4446 -0.3971  0.2497
  344MOL0     C47395   3.862  11.770   2.287 -0.8331  0.7255 -0.1225
  344MOL0     C47396   3.951  11.905   2.301  0.0490 -0.0095 -0.8226
  344MOL0     C47397   3.993  11.930   2.454 -0.6499 -0.0621  0.0816
  344MOL0     C47398   4.117  12.019   2.455  0.7764  0.3109 -0.8442
  344MOL0     C47399   4.190  12.112   2.452 -1.0168 -1.1586 -0.1794
  344MOL0     C47400   3.508  11.718   2.575 -0.4800  0.5821 -0.4810
  344MOL0     C47401   3.398  11.676   2.659 -0.0416  0.2269  0.4720
  344MOL0     C47402   3.283  11.773   2.671  1.0398  0.5125 -0.3148
  344MOL0     H47403   3.049  11.390   2.944  1.3605  1.8325 -0.7771
  344MOL0     H47404   2.944  11.269   3.103 -1.3725 -0.3431  0.9539
  344MOL0     H47405   2.869  11.079   3.191 -0.5886  4.4514 -1.9578
  344MOL0     H47406   2.869  11.217   3.296 -0.3577 -0.0360  0.7763
  344MOL0     H47407   2.878  11.083   3.495  0.4278 -2.5293  0.9900
  344MOL0     H47408   2.735  11.042   3.422 -0.5059 -0.6967 -2.9788
  344MOL0     H47409   2.991  10.886   3.377  0.0694 -2.5960 -0.5736
  344MOL0     H47410   2.850  10.865   3.489  0.7194  2.3510  0.4479
  344MOL0     H47411   2.722  10.872   3.252 -2.0050 -1.3401  1.5982
  344MOL0     H47412   2.881  10.832   3.181  0.8826 -0.1588 -0.2576
  344MOL0     H47413   2.757  10.691   3.432  0.7505  1.6452  0.2487
  344MOL0     H47414   2.910  10.655   3.355  0.0787  0.6403  2.7776
  344MOL0     H47415   2.706  10.496   3.285 -1.3172 -0.1073  0.4149
  344MOL0     H47416   2.624  10.639   3.226  0.7250  0.2338 -2.9040
  344MOL0     H47417   2.770  10.667   3.047 -1.6231  0.1914  1.0757
  344MOL0     H47418   2.694  10.517   3.055 -1.9649  1.8362  0.6782
  344MOL0     H47419   2.934  10.513   2.987 -1.4474 -1.1037 -0.4188
  344MOL0     H47420   2.987  10.595   3.128 -0.4133  0.0110  0.3424
  344MOL0     H47421   2.917  10.250   3.006 -2.7208 -0.0036  0.6244
  344MOL0     H47422   2.954   9.995   3.301 -0.1576 -1.3810 -0.7072
  344MOL0     H47423   3.057  10.022   3.160 -0.3872  0.8442 -3.1053
  344MOL0     H47424   2.880   9.867   3.134 -0.2611 -1.0421  2.3167
  344MOL0     H47425   2.762   9.980   3.192 -0.2577  2.0149 -0.7864
  344MOL0     H47426   2.731   9.926   2.950 -0.7017  0.0924  0.3809
  344MOL0     H47427   2.768  10.102   2.952 -0.1227  0.0400 -1.8694
  344MOL0     H47428   2.946  10.025   2.792  0.6375 -0.2276 -0.4108
  344MOL0     H47429   3.018   9.996   2.940 -0.1749  0.1425  1.8460
  344MOL0     H47430   3.127   9.816   3.035 -0.7624  0.5767 -1.0109
  344MOL0     H47431   3.151   9.572   3.270 -2.8889  0.1886 -1.6328
  344MOL0     H47432   3.233   9.711   3.200 -0.5011  0.5371 -0.9015
  344MOL0     H47433   3.299   9.551   3.176 -0.6362 -1.5406 -0.9405
  344MOL0     H47434   3.328   9.166   2.978  1.5888 -0.7931 -0.4679
  344MOL0     H47435   3.417   8.937   3.008  0.7217  0.1814  1.5901
  344MOL0     H47436   3.468   8.725   2.956 -0.1879 -1.8217 -2.2654
  344MOL0     H47437   3.450   8.731   3.132 -0.5754  0.8167 -0.7781
  344MOL0     H47438   3.338   8.499   2.994  1.2413 -1.2734 -1.5400
  344MOL0     H47439   3.505   8.509   2.968 -1.8565  0.6215 -2.4975
  344MOL0     H47440   3.354   8.464   3.233  3.4418 -4.2021  3.4541
  344MOL0     H47441   3.504   8.548   3.222 -3.2175  4.3195 -0.9832
  344MOL0     H47442   3.568   8.317   3.090  0.5266  1.7115 -0.1658
  344MOL0     H47443   3.402   8.265   3.153 -1.3107  2.6742 -1.9999
  344MOL0     H47444   3.659   8.332   3.304 -0.3854 -0.0287  1.9412
  344MOL0     H47445   3.513   8.313   3.385  3.2050 -0.5830  1.6712
  344MOL0     H47446   3.641   8.114   3.194 -0.5994 -0.2421 -0.7150
  344MOL0     H47447   3.494   8.080   3.272  0.5745  0.5140 -4.3619
  344MOL0     H47448   3.769   8.124   3.408 -0.7688  0.1879  0.3826
  344MOL0     H47449   3.691   7.976   3.384  0.2223  0.6687 -1.8291
  344MOL0     H47450   3.617   8.196   3.578  4.3049 -0.4559  0.1127
  344MOL0     H47451   3.649   8.018   3.616 -0.1054 -0.4089 -0.0649
  344MOL0     H47452   3.025   8.785   3.059  1.3339 -0.3907 -0.4707
  344MOL0     H47453   2.934   9.020   3.001  0.8802 -2.5167 -2.9936
  344MOL0     H47454   2.939   9.395   2.854 -1.0394  0.8266  0.0451
  344MOL0     H47455   2.871   9.599   2.760  2.6149  1.3086 -1.5254
  344MOL0     H47456   3.313  11.107   3.245 -0.2092 -1.3571 -0.5399
  344MOL0     H47457   3.440  11.233   3.076 -0.2412 -1.3568  2.6114
  344MOL0     H47458   3.540  11.388   2.742  0.3321 -0.0995  0.2156
  344MOL0     H47459   3.717  11.463   2.604  0.8286  0.9662 -1.4026
  344MOL0     H47460   3.659  11.721   2.285  1.4078 -1.6736  0.0171
  344MOL0     H47461   3.714  11.864   2.394  2.5987 -1.4926  5.8342
  344MOL0     H47462   3.837  11.744   2.184 -3.0835  3.9179 -0.5137
  344MOL0     H47463   3.925  11.692   2.330  0.2581  0.2252 -2.5042
  344MOL0     H47464   4.041  11.891   2.240  1.2223 -4.0571  1.4540
  344MOL0     H47465   3.890  11.983   2.255 -1.7209 -1.5951 -1.2853
  344MOL0     H47466   4.009  11.840   2.514 -0.4870 -0.5015 -0.6110
  344MOL0     H47467   3.919  11.986   2.512 -0.5495  1.6732 -1.3697
  344MOL0     H47468   4.259  12.194   2.452 -0.3472 -1.6870 -1.8023
  344MOL0     H47469   3.495  11.810   2.519  0.5916  0.0916 -1.5920
  344MOL0     H47470   3.262  11.771   2.779  2.2731 -2.0739 -0.0335
  344MOL0     H47471   3.306  11.875   2.641  1.6751  0.7368  0.8612
  344MOL0     H47472   3.197  11.732   2.617  0.5958  1.2666 -0.1986
  345MOL0     O47473   6.789   9.451   1.894  0.0063  0.0497  0.2274
  345MOL0     C47474   6.791   9.329   1.891 -0.5277  0.3767 -0.1567
  345MOL0     O47475   6.846   9.256   1.985  0.4843  0.6681 -0.8592
  345MOL0     C47476   6.856   9.318   2.105  0.4698  0.0983  0.1808
  345MOL0     C47477   6.745   9.356   2.185  1.0138 -0.7494  0.5696
  345MOL0     C47478   6.765   9.400   2.316  0.6664  0.4117  0.2142
  345MOL0     C47479   6.882   9.391   2.383 -0.5369  0.2010  0.2711
  345MOL0     O47480   6.920   9.441   2.506  0.8346  0.0386 -0.8470
  345MOL0     C47481   6.822   9.416   2.613 -0.3059 -1.1040  0.0130
  345MOL0     C47482   6.869   9.483   2.746 -0.1330 -0.1781 -0.6616
  345MOL0     C47483   6.832   9.396   2.869  0.1308 -0.6280 -0.2005
  345MOL0     C47484   6.920   9.444   2.982 -0.3194 -0.1265 -0.6346
  345MOL0     C47485   6.889   9.362   3.115  0.0592 -0.6100  0.2178
  345MOL0     C47486   6.915   9.218   3.103 -0.4918  0.9587  0.0920
  345MOL0     C47487   6.950   9.166   3.242  0.0240  0.6135 -0.2163
  345MOL0     C47488   6.924   9.017   3.263  0.2457 -0.8611  0.2665
  345MOL0     N47489   7.019   8.920   3.197 -0.1853 -0.3012  0.5389
  345MOL0     C47490   7.148   8.904   3.232  0.3228 -0.0548 -0.1812
  345MOL0     C47491   7.199   8.827   3.130 -0.6911 -0.4573  0.1892
  345MOL0     C47492   7.351   8.803   3.107 -0.4332 -0.0087  0.1743
  345MOL0     C47493   7.384   8.651   3.078  0.5434 -0.2926 -0.2250
  345MOL0     C47494   7.386   8.567   3.211 -0.4469  0.7162  1.0019
  345MOL0     C47495   7.434   8.428   3.177  0.0770 -0.0588  0.2270
  345MOL0     O47496   7.463   8.343   3.290 -1.2763  0.9275  0.3921
  345MOL0     C47497   7.506   8.208   3.275  0.2559  0.2234 -0.2816
  345MOL0     C47498   7.518   8.160   3.141  1.0346  0.3020  0.1630
  345MOL0     C47499   7.554   8.024   3.113 -1.0925  0.2499  0.6424
  345MOL0     C47500   7.562   7.990   2.969 -0.1531 -1.1382 -0.0864
  345MOL0     C47501   7.576   7.935   3.225 -0.2415  0.7335  0.2399
  345MOL0     C47502   7.593   7.787   3.213 -0.2172 -0.7773 -0.1561
  345MOL0     O47503   7.563   7.728   3.095 -0.4098 -0.8528  0.5034
  345MOL0     C47504   7.576   7.587   3.088  0.5181  0.2210  0.1944
  345MOL0     C47505   7.683   7.532   3.012  0.9714 -0.4289 -0.5518
  345MOL0     C47506   7.685   7.393   2.987  0.1631  0.0113  0.3487
  345MOL0     C47507   7.588   7.306   3.032  0.1277  0.1840 -0.2423
  345MOL0     O47508   7.594   7.169   2.998 -0.3417 -0.1356  0.0051
  345MOL0     C47509   7.484   7.075   3.035 -0.6218 -0.7848 -0.7078
  345MOL0     C47510   7.519   6.941   2.984 -0.5551  0.2382 -0.0995
  345MOL0     C47511   7.555   6.936   2.831  0.7244 -0.6357  0.6369
  345MOL0     C47512   7.462   7.025   2.749  0.3399 -0.4259  0.2740
  345MOL0     C47513   7.325   6.959   2.747 -0.6009 -0.1395  0.3407
  345MOL0     C47514   7.301   6.836   2.664 -0.4235  0.4979  0.5052
  345MOL0     C47515   7.327   6.839   2.516 -0.9045 -0.4216  0.3156
  345MOL0     C47516   7.246   6.939   2.429  0.0516  1.0249  0.7013
  345MOL0    Cl47517   7.267   7.109   2.470  0.1988 -0.2767  0.4099
  345MOL0     C47518   7.482   7.361   3.105 -1.0780  0.7374  0.6981
  345MOL0     C47519   7.481   7.494   3.143 -0.4364 -0.2017  0.4994
  345MOL0     O47520   7.624   7.725   3.322 -0.9908  0.1205  0.3048
  345MOL0     C47521   7.572   7.988   3.352  0.4912  0.5783 -1.2128
  345MOL0     C47522   7.523   8.120   3.379  0.7230 -0.0049 -0.0547
  345MOL0     N47523   7.105   8.814   3.030 -0.7362 -0.1611 -0.6797
  345MOL0     N47524   7.001   8.880   3.072  0.7751 -0.4521 -0.1048
  345MOL0     C47525   6.994   9.334   2.309 -0.8711 -0.3913  0.7411
  345MOL0     C47526   6.983   9.304   2.167 -0.3269  1.1155 -0.5673
  345MOL0     C47527   6.754   9.258   1.768 -0.3693 -1.2056 -0.5918
  345MOL0     C47528   6.792   9.121   1.749 -0.9878  0.3022 -0.0541
  345MOL0     C47529   6.763   9.050   1.628 -0.4866 -0.1121  0.4850
  345MOL0     C47530   6.692   9.130   1.531 -0.1879  0.0384  0.1653
  345MOL0     O47531   6.646   9.048   1.426 -0.2663 -0.1218 -0.4029
  345MOL0     C47532   6.601   9.117   1.305 -0.7541 -0.2204  0.5917
  345MOL0     C47533   6.528   9.005   1.221  0.9321 -0.1192  0.4004
  345MOL0     C47534   6.467   9.065   1.085  0.8131  0.1697 -0.1022
  345MOL0     C47535   6.414   8.969   0.978 -0.4386 -0.2204 -0.6036
  345MOL0     C47536   6.519   8.914   0.899 -0.4876 -0.4380  0.1852
  345MOL0     C47537   6.591   8.854   0.828 -1.5652  0.1511 -0.2348
  345MOL0     C47538   6.659   9.261   1.545 -0.3463 -0.8618  0.2867
  345MOL0     C47539   6.681   9.323   1.667 -0.7048  0.1278 -0.2309
  345MOL0     C47540   6.643   9.473   1.660 -0.3752  0.0141  0.4434
  345MOL0     H47541   6.647   9.361   2.139  2.3265  1.9460 -2.2277
  345MOL0     H47542   6.681   9.457   2.355  1.1919  0.1576  1.7861
  345MOL0     H47543   6.820   9.308   2.632 -1.4237 -1.2255 -0.7658
  345MOL0     H47544   6.722   9.458   2.599  0.5444  1.7319  1.6518
  345MOL0     H47545   6.975   9.512   2.745 -0.9058  3.7515  2.7993
  345MOL0     H47546   6.821   9.580   2.764  0.2041 -0.1488  0.1056
  345MOL0     H47547   6.724   9.401   2.888 -0.0747  1.0859 -1.5661
  345MOL0     H47548   6.849   9.289   2.855 -0.0680 -0.6734 -0.1041
  345MOL0     H47549   7.026   9.445   2.957 -0.1614 -0.7080 -0.0019
  345MOL0     H47550   6.896   9.550   2.996 -1.5511  0.1456 -3.9517
  345MOL0     H47551   6.782   9.372   3.138  0.5138  0.0885  2.2311
  345MOL0     H47552   6.948   9.403   3.198 -0.6022 -2.5913  1.7564
  345MOL0     H47553   6.823   9.170   3.066 -0.7387  2.3562 -1.1743
  345MOL0     H47554   7.003   9.187   3.048 -0.1552 -1.6329  1.8805
  345MOL0     H47555   6.887   9.217   3.316 -0.3482 -1.8750  1.2742
  345MOL0     H47556   7.056   9.186   3.257 -0.3578  0.7930  2.9290
  345MOL0     H47557   6.928   8.999   3.371  1.4339 -1.4750  0.1376
  345MOL0     H47558   6.824   8.999   3.222  1.3468 -1.0881 -2.5349
  345MOL0     H47559   7.198   8.949   3.317 -1.5822  3.0199 -0.5253
  345MOL0     H47560   7.401   8.853   3.190  1.8330  2.5741 -2.5283
  345MOL0     H47561   7.397   8.846   3.017  1.2665 -1.9726  0.0154
  345MOL0     H47562   7.309   8.610   3.009  0.0014  0.8326 -0.3236
  345MOL0     H47563   7.480   8.640   3.026 -0.8393 -0.3197 -2.9547
  345MOL0     H47564   7.460   8.601   3.284  0.3311 -0.7737  0.9400
  345MOL0     H47565   7.285   8.566   3.252 -0.0098  1.3810  2.1602
  345MOL0     H47566   7.349   8.388   3.121 -2.0151 -0.9459  3.7047
  345MOL0     H47567   7.513   8.434   3.101 -3.2396  1.4890 -3.4204
  345MOL0     H47568   7.500   8.213   3.048  0.4512 -4.0987 -2.4743
  345MOL0     H47569   7.537   8.067   2.896 -1.0032  1.1237  2.4207
  345MOL0     H47570   7.497   7.906   2.942 -0.2890 -2.0429  2.7653
  345MOL0     H47571   7.665   7.954   2.955  1.4421  2.1743  1.8845
  345MOL0     H47572   7.758   7.593   2.963  0.8339 -1.4762 -2.1472
  345MOL0     H47573   7.762   7.347   2.925  0.6943  2.1042 -0.6141
  345MOL0     H47574   7.479   7.073   3.144 -0.6457 -0.4475 -0.7002
  345MOL0     H47575   7.389   7.117   2.998  1.0227  2.2852 -1.8397
  345MOL0     H47576   7.589   6.889   3.049 -1.9405 -1.5705  0.0316
  345MOL0     H47577   7.435   6.873   3.002  1.7139 -2.4412  1.0233
  345MOL0     H47578   7.545   6.831   2.801  0.3697 -0.3043 -0.4327
  345MOL0     H47579   7.653   6.984   2.824 -0.1663  4.2635  8.6495
  345MOL0     H47580   7.482   7.038   2.643 -0.9567 -1.8077 -0.1799
  345MOL0     H47581   7.453   7.127   2.788  1.2551 -0.4020  0.4585
  345MOL0     H47582   7.298   6.930   2.849 -0.9535 -5.7494 -1.0509
  345MOL0     H47583   7.253   7.032   2.708 -2.5761 -2.5162 -0.7580
  345MOL0     H47584   7.195   6.809   2.671 -0.7577  1.9656  1.7512
  345MOL0     H47585   7.364   6.759   2.709  0.2648  1.3483  1.0386
  345MOL0     H47586   7.311   6.747   2.460  1.5951 -0.5416 -0.2857
  345MOL0     H47587   7.432   6.869   2.519 -1.5708  2.2784  3.5993
  345MOL0     H47588   7.139   6.921   2.443  0.4057 -1.3439  0.7572
  345MOL0     H47589   7.263   6.922   2.322 -2.1790  1.7802  0.1830
  345MOL0     H47590   7.417   7.287   3.152  0.7437 -0.9197  0.7697
  345MOL0     H47591   7.400   7.533   3.203 -2.9685 -2.7299 -1.0231
  345MOL0     H47592   7.605   7.933   3.440  1.3870  0.6091 -1.5117
  345MOL0     H47593   7.502   8.159   3.478 -0.2179  0.9690 -0.6264
  345MOL0     H47594   7.083   9.306   2.365 -1.9541 -0.9157  2.2864
  345MOL0     H47595   7.066   9.256   2.116  0.7750  0.8231  1.4064
  345MOL0     H47596   6.846   9.066   1.825  0.2924  2.7887  0.9703
  345MOL0     H47597   6.752   8.944   1.610 -2.4933  0.5276 -2.6875
  345MOL0     H47598   6.525   9.192   1.328  0.6070  1.8280 -1.2943
  345MOL0     H47599   6.679   9.172   1.252  0.5446 -0.5187  2.1042
  345MOL0     H47600   6.436   8.981   1.277 -0.0388 -0.2909 -1.2091
  345MOL0     H47601   6.595   8.919   1.209 -0.5837 -0.9797 -3.3853
  345MOL0     H47602   6.376   9.116   1.118 -2.4790 -4.1391 -1.5837
  345MOL0     H47603   6.532   9.141   1.041  0.2223  0.6092 -0.2253
  345MOL0     H47604   6.334   9.017   0.922  0.0843  2.8086  0.9985
  345MOL0     H47605   6.371   8.883   1.029  3.6075 -1.2635  1.5033
  345MOL0     H47606   6.673   8.813   0.773 -0.2120 -0.1358  1.8936
  345MOL0     H47607   6.623   9.305   1.453 -1.0027 -1.3026  0.3287
  345MOL0     H47608   6.552   9.489   1.719 -1.5320  1.3361 -1.6011
  345MOL0     H47609   6.724   9.538   1.695 -0.3486 -0.4818  1.3345
  345MOL0     H47610   6.609   9.509   1.563 -1.5504  1.3291  1.3072
  346MOL0     O47611   7.485   4.866   6.789  0.3238 -1.1530 -0.0137
  346MOL0     C47612   7.443   4.763   6.845 -0.4855 -0.1226  0.3714
  346MOL0     O47613   7.519   4.647   6.858 -0.3467 -1.3352 -0.3360
  346MOL0     C47614   7.629   4.616   6.790 -0.7864 -0.3289 -0.3775
  346MOL0     C47615   7.647   4.484   6.736  0.2703  0.4135  0.0307
  346MOL0     C47616   7.772   4.435   6.679  1.1367 -0.1002 -0.1882
  346MOL0     C47617   7.867   4.543   6.652  0.1905  0.2044 -0.9409
  346MOL0     O47618   7.983   4.523   6.585 -0.2664  0.3911 -0.2676
  346MOL0     C47619   8.046   4.399   6.606  0.2308  0.1824 -0.3021
  346MOL0     C47620   8.174   4.424   6.542 -0.2569  0.7183  0.1994
  346MOL0     C47621   8.266   4.308   6.519 -0.2782  0.0373  0.2988
  346MOL0     C47622   8.379   4.333   6.421 -0.1599  0.3329  0.0834
  346MOL0     C47623   8.476   4.206   6.413  0.9571 -0.3365 -0.7341
  346MOL0     C47624   8.575   4.213   6.303 -1.3716 -0.1944 -0.9185
  346MOL0     C47625   8.630   4.074   6.259 -0.4375 -0.5309  0.5530
  346MOL0     C47626   8.773   4.059   6.196  0.0250  0.0095  0.2784
  346MOL0     N47627   8.896   4.096   6.275  0.4016  0.1296  0.2521
  346MOL0     C47628   8.996   4.177   6.238  0.0309 -0.8403 -0.5552
  346MOL0     C47629   9.081   4.174   6.340  0.2085  1.0383 -0.1568
  346MOL0     C47630   9.204   4.262   6.339 -0.5008 -0.1052 -0.3726
  346MOL0     C47631   9.322   4.251   6.240  0.2134  0.1601  0.8090
  346MOL0     C47632   9.379   4.109   6.238 -0.5510  0.0982  0.3403
  346MOL0     C47633   9.313   3.994   6.155 -0.0067  0.4333 -0.8100
  346MOL0     O47634   9.395   3.890   6.098 -0.2761  0.2064 -0.0484
  346MOL0     C47635   9.504   3.929   6.016 -0.0575  0.4739 -0.4281
  346MOL0     C47636   9.600   3.833   6.003  0.0709  0.2457  0.0454
  346MOL0     C47637   9.697   3.838   5.895  0.5132 -0.1608  0.2561
  346MOL0     C47638   9.778   3.716   5.869  0.7281 -0.8182 -0.1778
  346MOL0     C47639   9.693   3.958   5.815 -0.2663  0.5321 -0.1966
  346MOL0     C47640   9.791   3.979   5.705 -0.4543 -0.7923  0.1888
  346MOL0     O47641   9.763   4.089   5.615  0.3426  0.5558  0.0533
  346MOL0     C47642   9.815   4.099   5.491 -0.3665  0.3679  0.5032
  346MOL0     C47643   9.915   4.028   5.418  0.0786 -0.0899 -0.1242
  346MOL0     C47644   9.952   4.064   5.287 -0.2677  0.4923  0.0876
  346MOL0     C47645   9.895   4.168   5.224  0.1689 -0.3112 -0.9857
  346MOL0     O47646   9.928   4.207   5.101 -0.3315 -0.4535  0.0910
  346MOL0     C47647  10.052   4.280   5.080 -0.1008  0.5535  0.3892
  346MOL0     C47648  10.053   4.331   4.938 -0.1481 -0.4471  0.2995
  346MOL0     C47649  10.007   4.215   4.841 -0.4672  0.7740 -0.0962
  346MOL0     C47650  10.025   4.250   4.694 -0.3127 -0.5452 -0.2562
  346MOL0     C47651  10.011   4.133   4.604 -0.6019  0.1415  0.3553
  346MOL0     C47652  10.091   4.148   4.477 -0.0211 -0.4552 -0.2966
  346MOL0     C47653  10.068   4.043   4.372 -0.3086  0.3889  0.0976
  346MOL0     C47654  10.092   4.102   4.234 -0.1648  1.0281  0.7404
  346MOL0    Cl47655  10.078   3.980   4.110  0.4926 -0.0967 -0.3650
  346MOL0     C47656   9.799   4.241   5.290  0.4590  0.0576 -0.6754
  346MOL0     C47657   9.758   4.210   5.422 -0.3427  1.0296  0.1000
  346MOL0     O47658   9.881   3.899   5.687  0.3280  0.5886  0.2979
  346MOL0     C47659   9.598   4.051   5.839  0.6575 -0.2015 -0.2303
  346MOL0     C47660   9.498   4.037   5.933  0.0924  0.6412 -0.6976
  346MOL0     N47661   9.048   4.082   6.435 -0.8437  0.2192 -0.0311
  346MOL0     N47662   8.929   4.038   6.395  0.3486 -0.1371  0.4525
  346MOL0     C47663   7.851   4.674   6.694 -0.3281  0.4153 -0.8444
  346MOL0     C47664   7.736   4.707   6.770  0.7811 -0.0073 -0.2280
  346MOL0     C47665   7.312   4.765   6.905  0.2969  0.1666 -0.1104
  346MOL0     C47666   7.269   4.882   6.958 -0.0529  0.7125  0.4795
  346MOL0     C47667   7.146   4.899   7.022 -0.3302 -0.0176 -0.4509
  346MOL0     C47668   7.055   4.793   7.016 -0.3215  0.1022 -0.4588
  346MOL0     O47669   6.938   4.808   7.082 -0.1520  0.1791  0.4049
  346MOL0     C47670   6.828   4.801   6.983 -0.3787  0.1500 -1.3702
  346MOL0     C47671   6.724   4.693   7.015 -0.5813  0.1610 -0.5113
  346MOL0     C47672   6.662   4.708   7.153 -0.4070  0.2118  0.5147
  346MOL0     C47673   6.604   4.575   7.193  0.2162  0.9228 -0.8151
  346MOL0     C47674   6.716   4.474   7.210  0.8978 -0.3294  0.0555
  346MOL0     C47675   6.819   4.407   7.216 -0.2075  0.8651 -0.4768
  346MOL0     C47676   7.098   4.672   6.961  0.7055  1.0504 -0.0337
  346MOL0     C47677   7.224   4.652   6.909  0.4629 -0.0093  1.9246
  346MOL0     C47678   7.267   4.515   6.873  0.2361 -0.1057  0.9745
  346MOL0     H47679   7.577   4.402   6.743  1.8462 -1.1313 -1.3362
  346MOL0     H47680   7.784   4.333   6.642 -0.2783  0.2267 -1.6249
  346MOL0     H47681   7.996   4.313   6.561  3.3627 -3.5034  2.4977
  346MOL0     H47682   8.068   4.368   6.709 -0.4894 -1.3205 -0.5808
  346MOL0     H47683   8.169   4.473   6.445 -0.6998  0.0195 -0.1425
  346MOL0     H47684   8.220   4.498   6.608  1.4024  1.3922 -1.6169
  346MOL0     H47685   8.306   4.272   6.614  0.0143 -2.9445 -0.8559
  346MOL0     H47686   8.204   4.231   6.472  0.8390 -2.0238  2.0513
  346MOL0     H47687   8.334   4.353   6.324 -1.8086  1.4644  1.0249
  346MOL0     H47688   8.443   4.414   6.458  1.2096 -0.1925 -1.0492
  346MOL0     H47689   8.404   4.127   6.390 -0.9501 -0.0965  3.4914
  346MOL0     H47690   8.531   4.184   6.505  1.1000 -1.2470 -1.0271
  346MOL0     H47691   8.544   4.265   6.213 -4.1719 -1.3593 -0.7104
  346MOL0     H47692   8.655   4.275   6.346 -2.2385  0.1423  0.2648
  346MOL0     H47693   8.568   4.036   6.178  0.7235 -1.2531 -0.0329
  346MOL0     H47694   8.626   4.007   6.346  0.1264  1.0743  1.8764
  346MOL0     H47695   8.778   3.952   6.172  1.3341  0.0927  0.1028
  346MOL0     H47696   8.764   4.112   6.100 -6.7473  1.9407  1.4308
  346MOL0     H47697   9.006   4.246   6.155  3.6122 -0.2383  0.2056
  346MOL0     H47698   9.238   4.265   6.443 -2.4750 -3.4473  0.5144
  346MOL0     H47699   9.175   4.366   6.319  1.8528  1.2595  2.5941
  346MOL0     H47700   9.294   4.277   6.138  1.8695 -1.2742 -0.0754
  346MOL0     H47701   9.397   4.319   6.282 -1.2601  2.4736 -0.1142
  346MOL0     H47702   9.478   4.115   6.192 -0.0620 -1.6182  1.1011
  346MOL0     H47703   9.404   4.075   6.339  2.7556 -1.7424 -0.9452
  346MOL0     H47704   9.244   3.952   6.229  1.3337  1.4975  1.1337
  346MOL0     H47705   9.250   4.042   6.080  0.7569  2.8657  0.0390
  346MOL0     H47706   9.594   3.749   6.071 -1.8001  0.2996  0.0068
  346MOL0     H47707   9.741   3.640   5.938 -0.1600  1.0655  1.5133
  346MOL0     H47708   9.885   3.711   5.893  0.4406 -6.4430  1.3061
  346MOL0     H47709   9.750   3.687   5.767 -2.5850  0.9864  0.0829
  346MOL0     H47710   9.967   3.948   5.468 -1.5711 -1.4689 -0.5263
  346MOL0     H47711  10.033   4.013   5.236  0.5748  3.1164 -1.4060
  346MOL0     H47712  10.073   4.363   5.148  0.6926 -0.4582  1.4207
  346MOL0     H47713  10.138   4.215   5.096 -1.5264 -1.9467 -1.3333
  346MOL0     H47714   9.975   4.408   4.944  0.2631 -0.1118  2.0211
  346MOL0     H47715  10.148   4.375   4.906 -1.7416  2.9039 -0.2460
  346MOL0     H47716   9.905   4.184   4.869 -0.3972  0.2675 -0.3866
  346MOL0     H47717  10.080   4.135   4.860 -2.0902 -0.6730  0.4218
  346MOL0     H47718  10.125   4.292   4.681  0.7039 -1.2282  3.9286
  346MOL0     H47719   9.947   4.323   4.671 -1.4488 -0.7275  2.5824
  346MOL0     H47720  10.055   4.046   4.654  1.5677 -0.8762 -2.9977
  346MOL0     H47721   9.906   4.112   4.585 -0.5056 -2.2080  1.9731
  346MOL0     H47722  10.200   4.154   4.485 -0.0134 -1.1414  0.1617
  346MOL0     H47723  10.067   4.249   4.442  2.5908  1.4986  2.9517
  346MOL0     H47724   9.965   4.006   4.368  0.3557 -1.5055 -0.1377
  346MOL0     H47725  10.137   3.961   4.392 -0.5036  0.3181  0.4987
  346MOL0     H47726  10.192   4.146   4.230  0.5297 -0.3139  2.0981
  346MOL0     H47727  10.012   4.171   4.206 -0.2607  0.2320 -1.0820
  346MOL0     H47728   9.756   4.323   5.233  0.1491 -0.6269 -1.4393
  346MOL0     H47729   9.672   4.247   5.478  0.6532 -1.0170  3.2657
  346MOL0     H47730   9.599   4.134   5.770  0.2780 -0.2575 -0.3046
  346MOL0     H47731   9.430   4.121   5.945  1.8498  1.7692  2.1947
  346MOL0     H47732   7.931   4.742   6.665 -0.4084  0.7165 -0.3575
  346MOL0     H47733   7.735   4.810   6.806 -0.1205 -0.0807 -0.0148
  346MOL0     H47734   7.323   4.975   6.954 -0.5078  1.0809  2.0427
  346MOL0     H47735   7.124   4.995   7.067  0.5681  0.6654 -1.4299
  346MOL0     H47736   6.778   4.898   6.983  0.1849  0.4541 -0.4868
  346MOL0     H47737   6.865   4.793   6.880  2.5037  0.1609 -0.4428
  346MOL0     H47738   6.777   4.598   7.009 -0.1835  0.1903  1.7660
  346MOL0     H47739   6.640   4.707   6.945 -3.0000  0.2634  2.2014
  346MOL0     H47740   6.730   4.756   7.223 -0.7252  3.6536 -1.3465
  346MOL0     H47741   6.581   4.780   7.141  0.5170  1.0975 -0.6060
  346MOL0     H47742   6.529   4.537   7.123 -0.8454 -0.2208  0.8701
  346MOL0     H47743   6.556   4.575   7.291  1.9860  3.0786  0.1462
  346MOL0     H47744   6.912   4.357   7.228 -0.0637  1.4601  1.1843
  346MOL0     H47745   7.015   4.603   6.967 -1.0622  3.1350  1.3473
  346MOL0     H47746   7.315   4.461   6.955 -1.5042 -1.1027  1.3922
  346MOL0     H47747   7.176   4.459   6.848  0.5585 -0.6978  1.1040
  346MOL0     H47748   7.333   4.520   6.786  0.2928  0.7527  1.0622
  347MOL0     O47749   8.681  11.297   9.571  0.1261  0.5522 -0.0233
  347MOL0     C47750   8.663  11.412   9.529  0.0343  0.6091 -0.5106
  347MOL0     O47751   8.710  11.523   9.591  0.1519 -0.1405  0.0964
  347MOL0     C47752   8.753  11.528   9.723 -0.0701  0.1486  0.4211
  347MOL0     C47753   8.691  11.602   9.825  0.1864 -0.4443  0.3682
  347MOL0     C47754   8.748  11.594   9.949  0.3257  0.1454  0.2817
  347MOL0     C47755   8.859  11.512   9.974 -0.7679 -0.6443  0.2217
  347MOL0     O47756   8.906  11.496  10.099  0.7115  0.7455 -0.3821
  347MOL0     C47757   8.901  11.362  10.149  0.2538  0.1742 -0.5124
  347MOL0     C47758   8.759  11.324  10.190 -0.2806 -0.0521 -0.0284
  347MOL0     C47759   8.718  11.207  10.264 -0.1720  0.5105  0.1802
  347MOL0     C47760   8.780  11.197  10.409  0.2305  0.7962 -0.3261
  347MOL0     C47761   8.839  11.062  10.439 -0.1040 -0.5504  0.2148
  347MOL0     C47762   8.733  10.968  10.514  0.5356 -0.3579  0.9978
  347MOL0     C47763   8.634  10.905  10.413 -0.2407 -0.5226  1.0235
  347MOL0     C47764   8.542  10.814  10.485 -0.4292 -0.3545 -0.2939
  347MOL0     N47765   8.608  10.683  10.521  0.0675 -0.8929 -0.6655
  347MOL0     C47766   8.655  10.635  10.642 -0.5656 -0.5830 -0.0494
  347MOL0     C47767   8.699  10.511  10.617  0.5119 -0.2471  0.1690
  347MOL0     C47768   8.778  10.418  10.703  0.2845  0.7143  0.2591
  347MOL0     C47769   8.671  10.311  10.746 -0.2391  0.3764  0.1031
  347MOL0     C47770   8.719  10.205  10.834  0.1861 -0.2250 -0.2807
  347MOL0     C47771   8.807  10.096  10.775  0.4572 -1.3360 -0.0715
  347MOL0     O47772   8.937  10.150  10.748  0.9773 -0.6606 -1.1483
  347MOL0     C47773   9.014  10.085  10.670 -0.4290 -0.5146  1.2036
  347MOL0     C47774   8.985   9.956  10.605 -0.0671  0.0179 -0.0182
  347MOL0     C47775   9.064   9.898  10.508 -0.4872  0.6552  0.9626
  347MOL0     C47776   9.019   9.764  10.454  0.3546 -0.5855  0.4511
  347MOL0     C47777   9.182   9.971  10.462  1.4776 -0.1546  0.9233
  347MOL0     C47778   9.250   9.927  10.337 -0.6205 -0.5449  1.1488
  347MOL0     O47779   9.180   9.851  10.246  0.2163 -0.3948 -0.1502
  347MOL0     C47780   9.242   9.858  10.119 -0.1008 -1.3281 -0.0554
  347MOL0     C47781   9.239   9.975  10.039  0.4104 -0.2804 -0.0617
  347MOL0     C47782   9.287   9.966   9.905 -0.1586  0.5668  0.2127
  347MOL0     C47783   9.372   9.860   9.856  0.8633 -0.4939  0.5093
  347MOL0     O47784   9.418   9.863   9.730  0.2996  0.1585  0.5891
  347MOL0     C47785   9.398   9.746   9.645  0.3184  0.6397 -0.4894
  347MOL0     C47786   9.374   9.793   9.509  0.4360 -0.4715 -0.7212
  347MOL0     C47787   9.234   9.854   9.498  1.1479 -0.3971  0.3104
  347MOL0     C47788   9.104   9.778   9.550 -0.0107  0.5769 -0.6148
  347MOL0     C47789   8.976   9.855   9.551 -0.0533 -0.9413 -0.0974
  347MOL0     C47790   8.907   9.894   9.414 -0.7055 -0.4657  0.3973
  347MOL0     C47791   8.885   9.767   9.336 -0.0550  0.3066 -0.8108
  347MOL0     C47792   8.782   9.769   9.222  0.1751 -0.7762  0.6817
  347MOL0    Cl47793   8.802   9.918   9.120  0.2416 -0.2751 -0.2846
  347MOL0     C47794   9.386   9.753   9.942  0.5509  0.1451 -0.5687
  347MOL0     C47795   9.318   9.754  10.066  1.3797  0.3264 -0.2147
  347MOL0     O47796   9.365   9.972  10.321 -0.0245 -0.9138  0.6327
  347MOL0     C47797   9.208  10.098  10.524 -0.2061  0.9592  0.0203
  347MOL0     C47798   9.131  10.154  10.629  0.5781 -0.1842  0.0418
  347MOL0     N47799   8.665  10.483  10.487  0.0388  0.1235 -0.0444
  347MOL0     N47800   8.610  10.583  10.431  0.1496  0.1158 -1.0441
  347MOL0     C47801   8.916  11.439   9.869 -0.4297 -0.9326  0.1089
  347MOL0     C47802   8.861  11.442   9.740 -1.7917 -0.0418 -0.0222
  347MOL0     C47803   8.607  11.427   9.400  0.5682  0.2583 -0.2917
  347MOL0     C47804   8.639  11.541   9.331 -0.7618 -0.3876  0.4064
  347MOL0     C47805   8.604  11.567   9.205  0.5625  0.2554  0.1061
  347MOL0     C47806   8.535  11.474   9.129 -0.2157 -0.3765  0.6556
  347MOL0     O47807   8.503  11.501   8.997  0.3506  0.7937 -0.5530
  347MOL0     C47808   8.403  11.602   8.977  0.4533 -0.2157 -0.3381
  347MOL0     C47809   8.310  11.572   8.858  0.2082 -0.1476  0.6520
  347MOL0     C47810   8.203  11.461   8.889 -0.3199  0.2708 -0.0799
  347MOL0     C47811   8.093  11.491   8.788  0.1170 -0.3026 -0.2632
  347MOL0     C47812   8.003  11.370   8.755 -0.5115  0.3168 -0.2444
  347MOL0     C47813   7.940  11.282   8.709  0.6685  0.0873  0.0714
  347MOL0     C47814   8.489  11.356   9.191 -1.1401 -0.2291 -1.4931
  347MOL0     C47815   8.534  11.330   9.326 -0.6242 -0.5190  0.6991
  347MOL0     C47816   8.501  11.194   9.384 -0.6393 -0.0499 -0.6709
  347MOL0     H47817   8.601  11.659   9.805 -0.7540 -0.8208  3.1211
  347MOL0     H47818   8.685  11.635  10.027  1.0096 -3.0257  2.6859
  347MOL0     H47819   8.974  11.362  10.231 -0.5786 -1.9380  0.2983
  347MOL0     H47820   8.933  11.285  10.079  1.3903  1.0545 -1.0080
  347MOL0     H47821   8.712  11.412  10.234  0.0701 -0.6801  1.6808
  347MOL0     H47822   8.702  11.311  10.097 -2.9194 -0.2263  1.5066
  347MOL0     H47823   8.609  11.203  10.268 -0.1274 -3.1488  1.1810
  347MOL0     H47824   8.744  11.115  10.210 -1.3168 -1.2117  2.4122
  347MOL0     H47825   8.871  11.256  10.425  1.7933 -1.6298  0.3281
  347MOL0     H47826   8.703  11.228  10.479 -1.5724  1.1654 -2.3532
  347MOL0     H47827   8.922  11.089  10.505  0.4759  2.3071 -1.5194
  347MOL0     H47828   8.889  11.024  10.350  1.3133  0.3121  0.6123
  347MOL0     H47829   8.782  10.890  10.572 -0.1419 -1.6706 -0.1186
  347MOL0     H47830   8.676  11.027  10.586 -4.2753 -1.8315 -1.1533
  347MOL0     H47831   8.686  10.849  10.334 -0.6922 -2.6088  2.1600
  347MOL0     H47832   8.579  10.984  10.361 -0.7228 -0.9094  0.9457
  347MOL0     H47833   8.508  10.873  10.570  1.8969  3.2188 -1.6129
  347MOL0     H47834   8.458  10.794  10.418 -1.2252  2.3469 -0.2028
  347MOL0     H47835   8.663  10.689  10.735 -0.6067 -1.1373  0.2818
  347MOL0     H47836   8.830  10.466  10.786  0.8902  1.1586 -0.3621
  347MOL0     H47837   8.863  10.375  10.650  1.4143 -0.7694  3.0792
  347MOL0     H47838   8.591  10.364  10.798  2.1489  2.3901  1.9873
  347MOL0     H47839   8.645  10.253  10.657 -0.5744 -0.6202  0.8323
  347MOL0     H47840   8.774  10.253  10.916 -2.2339  2.8601 -0.2816
  347MOL0     H47841   8.644  10.143  10.883  0.7336 -2.1167 -1.7196
  347MOL0     H47842   8.817  10.014  10.848 -1.0696  0.6929  2.6077
  347MOL0     H47843   8.759  10.062  10.683 -0.8326 -1.3132  0.5722
  347MOL0     H47844   8.903   9.891  10.633  0.5424 -0.8867 -0.3041
  347MOL0     H47845   8.999   9.772  10.347 -1.7732 -3.2829  0.5137
  347MOL0     H47846   8.919   9.730  10.483 -0.0662  2.6024  3.4043
  347MOL0     H47847   9.093   9.684  10.467  1.0106  0.1489  1.4382
  347MOL0     H47848   9.192  10.066  10.075 -1.5204 -1.1440 -0.2763
  347MOL0     H47849   9.275  10.053   9.842  0.5947  0.6529  0.1767
  347MOL0     H47850   9.486   9.681   9.647  0.4755  0.8235 -1.1958
  347MOL0     H47851   9.320   9.683   9.690  1.5226 -1.0205 -0.6472
  347MOL0     H47852   9.441   9.877   9.486 -0.5126  1.2227  2.0913
  347MOL0     H47853   9.389   9.721   9.428  4.1051 -0.6206 -0.0873
  347MOL0     H47854   9.222   9.890   9.396 -1.6206 -2.7544 -0.3221
  347MOL0     H47855   9.245   9.943   9.562  2.9218 -2.6270  3.4109
  347MOL0     H47856   9.122   9.732   9.648 -0.5090 -0.2569 -0.9035
  347MOL0     H47857   9.088   9.688   9.490 -2.3906  0.3590  0.2117
  347MOL0     H47858   8.910   9.787   9.606 -0.0491 -1.4924 -0.7457
  347MOL0     H47859   8.979   9.943   9.615 -3.1002 -0.8827  0.0881
  347MOL0     H47860   8.970   9.959   9.353  0.8202  1.0063  3.3249
  347MOL0     H47861   8.818   9.954   9.435 -1.1291 -1.7461  2.6898
  347MOL0     H47862   8.855   9.687   9.406  1.7519  0.2551 -0.0511
  347MOL0     H47863   8.989   9.756   9.304  2.3436  4.2957  4.1777
  347MOL0     H47864   8.681   9.783   9.261  0.6371  0.6614  1.4329
  347MOL0     H47865   8.772   9.686   9.151 -0.6663 -1.1135  1.1914
  347MOL0     H47866   9.445   9.664   9.924  1.4010  0.4508  0.5850
  347MOL0     H47867   9.327   9.669  10.133 -1.9401  0.3907  0.5043
  347MOL0     H47868   9.293  10.144  10.476  0.5695 -1.8458 -1.5290
  347MOL0     H47869   9.152  10.258  10.653  0.5968  0.5182 -2.6640
  347MOL0     H47870   9.006  11.382   9.890  0.6219  0.4566 -0.4708
  347MOL0     H47871   8.898  11.385   9.655  1.2552  2.7442 -0.7560
  347MOL0     H47872   8.702  11.617   9.375  0.0595 -0.9358  0.2099
  347MOL0     H47873   8.649  11.657   9.164  3.5174 -0.5658  1.2496
  347MOL0     H47874   8.344  11.626   9.065  1.9646  2.6803  0.0080
  347MOL0     H47875   8.461  11.693   8.961 -3.2155  2.4489  0.3713
  347MOL0     H47876   8.374  11.538   8.776 -1.5042 -0.2318 -0.6955
  347MOL0     H47877   8.268  11.668   8.826 -3.1247 -1.7043 -0.0490
  347MOL0     H47878   8.239  11.359   8.877  0.3647  0.7048 -2.2785
  347MOL0     H47879   8.160  11.484   8.987  0.5221 -1.9524  0.8823
  347MOL0     H47880   8.141  11.519   8.693 -2.2889  0.8461 -1.2215
  347MOL0     H47881   8.034  11.578   8.817  0.2441 -1.4285  4.1829
  347MOL0     H47882   7.894  11.210   8.644  0.0332  0.0597  0.5413
  347MOL0     H47883   8.423  11.289   9.137 -0.0967 -2.0631 -0.5746
  347MOL0     H47884   8.447  11.123   9.321  0.6218 -0.5206 -1.2542
  347MOL0     H47885   8.600  11.156   9.409 -0.1809 -0.7914 -3.3498
  347MOL0     H47886   8.448  11.198   9.480  0.7972 -6.7282  0.8698
  348MOL0     O47887   2.437   1.417   5.923  0.0012  0.0241  0.1869
  348MOL0     C47888   2.329   1.397   5.975  0.2253  0.4520 -0.4226
  348MOL0     O47889   2.290   1.458   6.095 -0.2502  0.6630  0.0044
  348MOL0     C47890   2.356   1.573   6.143  0.1552  0.2722  0.2777
  348MOL0     C47891   2.425   1.668   6.058 -0.0138 -0.2193  0.4992
  348MOL0     C47892   2.511   1.764   6.112 -0.2501  0.0700  0.4027
  348MOL0     C47893   2.523   1.774   6.253  0.5575  0.3368  0.1036
  348MOL0     O47894   2.596   1.871   6.320 -0.3755  0.5629  0.8446
  348MOL0     C47895   2.691   1.954   6.255 -0.1445  0.6508 -0.1908
  348MOL0     C47896   2.763   2.041   6.363 -0.1701 -0.0925  0.7765
  348MOL0     C47897   2.815   1.963   6.486 -0.2144 -0.3588 -0.1386
  348MOL0     C47898   2.930   1.867   6.442  0.6161 -0.7136 -0.3820
  348MOL0     C47899   2.997   1.808   6.576 -0.1585  0.6187 -0.5306
  348MOL0     C47900   3.082   1.682   6.559  0.0067 -0.0600  0.6731
  348MOL0     C47901   3.141   1.636   6.685 -1.2201 -0.9287  0.2862
  348MOL0     C47902   3.250   1.540   6.654  0.6842 -0.0323 -0.5089
  348MOL0     N47903   3.202   1.433   6.569 -0.3861 -0.2132 -0.1228
  348MOL0     C47904   3.230   1.428   6.434  0.2566  0.2444  0.7828
  348MOL0     C47905   3.190   1.308   6.402  0.2280  0.9411 -0.3575
  348MOL0     C47906   3.210   1.258   6.260  0.0742 -0.2162  0.5221
  348MOL0     C47907   3.116   1.145   6.222  0.0434 -0.0889  0.6058
  348MOL0     C47908   3.119   1.102   6.073 -1.6323  0.3565 -0.6878
  348MOL0     C47909   3.035   0.978   6.030  1.6186 -0.3312  0.4721
  348MOL0     O47910   2.888   0.989   6.050  0.0412  0.4156  0.0385
  348MOL0     C47911   2.815   1.022   5.934  0.0375  0.6191  0.7435
  348MOL0     C47912   2.865   1.068   5.806 -0.0710 -0.1189  0.1946
  348MOL0     C47913   2.785   1.076   5.697  0.6568  0.1168 -0.1041
  348MOL0     C47914   2.850   1.123   5.568 -0.5569 -0.9098 -0.6638
  348MOL0     C47915   2.643   1.055   5.709 -0.0107 -0.6673 -0.0054
  348MOL0     C47916   2.551   1.063   5.598 -0.1247  0.0683 -0.0012
  348MOL0     O47917   2.557   1.169   5.505 -0.3084  1.1938 -0.5633
  348MOL0     C47918   2.503   1.160   5.382 -0.2654 -0.9070 -0.1374
  348MOL0     C47919   2.571   1.094   5.276 -0.4822 -0.4600  0.0240
  348MOL0     C47920   2.519   1.106   5.150  0.0082  0.3138  0.7172
  348MOL0     C47921   2.394   1.170   5.119 -1.5324  0.0908  0.4566
  348MOL0     O47922   2.351   1.174   4.984  0.1514 -0.6334  0.5733
  348MOL0     C47923   2.373   1.052   4.904  0.5642  0.0357 -0.0367
  348MOL0     C47924   2.243   1.011   4.829  0.0666 -0.2254 -0.6154
  348MOL0     C47925   2.173   1.120   4.734 -1.3858  1.1818  0.7297
  348MOL0     C47926   2.255   1.142   4.602  0.3358 -0.7333  1.0091
  348MOL0     C47927   2.210   1.273   4.533  0.4601  0.8175 -0.5022
  348MOL0     C47928   2.261   1.282   4.386 -0.3303  0.3990  0.3548
  348MOL0     C47929   2.413   1.304   4.368 -0.2076  0.4211  0.0202
  348MOL0     C47930   2.462   1.252   4.234  0.2054 -0.0759  0.6547
  348MOL0    Cl47931   2.393   1.353   4.097  0.2705 -0.3275  0.0421
  348MOL0     C47932   2.318   1.220   5.219 -0.3268 -0.3242  0.1734
  348MOL0     C47933   2.373   1.213   5.356 -0.1210  0.3567  0.0981
  348MOL0     O47934   2.467   0.973   5.602  0.7405  0.6792  0.2859
  348MOL0     C47935   2.596   1.016   5.839 -0.8782  0.0829 -0.6567
  348MOL0     C47936   2.678   1.000   5.950 -0.0540 -0.2573 -0.4614
  348MOL0     N47937   3.154   1.234   6.510  0.1058  0.4063  0.8221
  348MOL0     N47938   3.151   1.315   6.615  0.4563  0.4984  0.3729
  348MOL0     C47939   2.456   1.677   6.340  0.2578  0.5419  0.8221
  348MOL0     C47940   2.383   1.576   6.280  0.1424 -0.7358  0.3625
  348MOL0     C47941   2.247   1.284   5.936  0.6452 -0.0870  0.5437
  348MOL0     C47942   2.197   1.199   6.036  0.1321 -0.9081  0.5472
  348MOL0     C47943   2.119   1.092   5.994 -0.1922  0.6830 -0.6708
  348MOL0     C47944   2.061   1.078   5.870 -0.2937 -0.7610  0.8512
  348MOL0     O47945   1.985   0.972   5.829 -0.1059 -1.4868  0.4677
  348MOL0     C47946   1.983   0.924   5.697 -0.3233  0.6641  0.0805
  348MOL0     C47947   1.962   0.765   5.705  0.2444  0.1127  0.3339
  348MOL0     C47948   2.082   0.696   5.768  0.3471 -0.4653 -1.0317
  348MOL0     C47949   2.040   0.547   5.798 -0.0637  0.1990  0.3579
  348MOL0     C47950   2.156   0.472   5.845  0.9708 -1.1100  0.9762
  348MOL0     C47951   2.273   0.429   5.861  0.9492  0.4896 -0.1800
  348MOL0     C47952   2.100   1.178   5.775 -0.6613 -0.7752  0.1206
  348MOL0     C47953   2.190   1.272   5.806 -1.5057  0.0844  0.8963
  348MOL0     C47954   2.227   1.367   5.703  0.9271  0.2192 -0.0547
  348MOL0     H47955   2.408   1.669   5.951 -3.7200  1.1004  0.9522
  348MOL0     H47956   2.545   1.828   6.031 -0.3180  0.4433  0.6688
  348MOL0     H47957   2.649   2.021   6.179  2.4797  0.3356 -2.0591
  348MOL0     H47958   2.767   1.893   6.205  0.1000  1.2244 -0.5373
  348MOL0     H47959   2.843   2.102   6.320 -1.4908  1.8688  0.9155
  348MOL0     H47960   2.699   2.121   6.404 -2.6753 -2.2135  1.2544
  348MOL0     H47961   2.854   2.026   6.567  0.3191 -0.6649 -0.1517
  348MOL0     H47962   2.737   1.913   6.544 -0.4077  1.0488  0.8762
  348MOL0     H47963   2.891   1.782   6.385  0.2686 -1.7177  1.2794
  348MOL0     H47964   3.003   1.923   6.383 -1.1450  0.2270 -1.7820
  348MOL0     H47965   2.917   1.772   6.641 -0.3763  0.2984 -0.9720
  348MOL0     H47966   3.055   1.885   6.628  1.4254 -0.7067 -0.2548
  348MOL0     H47967   3.016   1.604   6.521 -1.1623  0.3135  1.8531
  348MOL0     H47968   3.160   1.699   6.484  1.7475 -1.0507  2.1928
  348MOL0     H47969   3.071   1.588   6.754 -0.9003 -0.8307  0.6855
  348MOL0     H47970   3.187   1.720   6.738 -2.8279  0.0725  0.1544
  348MOL0     H47971   3.338   1.586   6.608  1.1687 -0.8395 -0.4026
  348MOL0     H47972   3.279   1.490   6.747 -0.8058 -0.5740 -0.3007
  348MOL0     H47973   3.252   1.510   6.367  0.0015 -1.0788 -0.9940
  348MOL0     H47974   3.315   1.228   6.252  1.3111  3.1295  2.3990
  348MOL0     H47975   3.194   1.337   6.187  1.3052  0.9704  1.4935
  348MOL0     H47976   3.140   1.058   6.285 -0.7877  1.3773  3.1086
  348MOL0     H47977   3.019   1.177   6.261  0.8392  2.0264  0.9935
  348MOL0     H47978   3.098   1.187   6.007 -1.5092  1.6564  0.8774
  348MOL0     H47979   3.224   1.078   6.055 -0.8765  3.4114 -0.8666
  348MOL0     H47980   3.068   0.957   5.927  0.9331 -0.5308  0.2811
  348MOL0     H47981   3.066   0.892   6.090  0.9491  2.0467  4.5455
  348MOL0     H47982   2.970   1.092   5.795 -0.2255  0.1710 -0.7222
  348MOL0     H47983   2.955   1.092   5.564  0.7734  3.0391 -2.0310
  348MOL0     H47984   2.829   1.230   5.551 -2.4864 -1.3511 -1.3695
  348MOL0     H47985   2.809   1.075   5.479 -0.7481 -0.4512 -0.8294
  348MOL0     H47986   2.673   1.061   5.296 -0.4918 -0.1749  0.5527
  348MOL0     H47987   2.582   1.079   5.066  0.2682 -0.6820  1.2231
  348MOL0     H47988   2.453   1.070   4.832  0.6973 -0.9711 -0.1532
  348MOL0     H47989   2.406   0.969   4.967  1.0877 -1.5754 -2.2818
  348MOL0     H47990   2.272   0.928   4.764  1.2048  0.1606 -0.6250
  348MOL0     H47991   2.172   0.973   4.903  1.0090 -1.5468 -0.3610
  348MOL0     H47992   2.158   1.218   4.780 -1.9398  2.0980 -1.3159
  348MOL0     H47993   2.078   1.074   4.704  0.4565 -2.7853  0.2719
  348MOL0     H47994   2.241   1.055   4.537 -1.3164  0.7690 -0.7696
  348MOL0     H47995   2.361   1.152   4.628 -0.2672  0.8004  3.1094
  348MOL0     H47996   2.107   1.301   4.556  0.1550 -1.4645  1.2924
  348MOL0     H47997   2.260   1.350   4.592  0.4616  2.3505 -2.4075
  348MOL0     H47998   2.223   1.371   4.335 -1.6240 -1.1802 -1.6251
  348MOL0     H47999   2.228   1.199   4.322 -0.0034  0.7522 -0.2800
  348MOL0     H48000   2.468   1.252   4.447 -0.3478  1.6872  0.9740
  348MOL0     H48001   2.440   1.409   4.383 -0.7454  0.2366  2.6669
  348MOL0     H48002   2.415   1.153   4.239  0.0067  0.0203  0.6820
  348MOL0     H48003   2.571   1.255   4.232  0.3720  4.9622  2.4812
  348MOL0     H48004   2.220   1.260   5.194  0.0349  0.8067  0.5353
  348MOL0     H48005   2.314   1.251   5.439  3.0386  0.2417  2.5605
  348MOL0     H48006   2.489   1.005   5.855 -0.5102 -3.3052  0.0942
  348MOL0     H48007   2.643   0.984   6.051 -1.2809  2.7465 -0.3001
  348MOL0     H48008   2.463   1.680   6.449 -3.4572 -1.3839  1.2879
  348MOL0     H48009   2.337   1.502   6.345  1.9559 -2.9290 -0.7154
  348MOL0     H48010   2.235   1.211   6.137 -0.4872  3.2900  0.4787
  348MOL0     H48011   2.084   1.029   6.075  0.5292  0.6697 -0.3684
  348MOL0     H48012   1.912   0.973   5.630 -0.3401  1.0943  0.4126
  348MOL0     H48013   2.074   0.955   5.644 -1.5522 -0.2407 -2.7720
  348MOL0     H48014   1.957   0.744   5.598  1.1112  1.1995  0.0654
  348MOL0     H48015   1.868   0.752   5.761  1.6717  4.3973  4.3727
  348MOL0     H48016   2.173   0.710   5.709  0.7949  3.5147  0.3314
  348MOL0     H48017   2.105   0.745   5.863 -4.2330  2.8937 -1.3285
  348MOL0     H48018   2.002   0.498   5.708 -0.9013 -0.7111  1.1819
  348MOL0     H48019   1.968   0.542   5.880 -1.1037 -1.4705 -0.5888
  348MOL0     H48020   2.369   0.392   5.888  0.8396  0.7736  0.6135
  348MOL0     H48021   2.072   1.174   5.670  0.3653  1.0279 -0.2689
  348MOL0     H48022   2.332   1.350   5.678  1.3030 -0.2554  1.7220
  348MOL0     H48023   2.173   1.374   5.607  1.9001  0.4857 -0.5940
  348MOL0     H48024   2.207   1.465   5.747 -0.9304  0.0735 -0.4791
  349MOL0     O48025   4.957   1.439   0.842  0.1836 -0.4663 -0.4149
  349MOL0     C48026   5.078   1.442   0.818 -0.1863 -0.7465  0.0205
  349MOL0     O48027   5.164   1.340   0.849 -0.1659 -0.6673  0.6547
  349MOL0     C48028   5.134   1.212   0.820 -0.3607  0.3675  0.2581
  349MOL0     C48029   5.197   1.118   0.911  0.4661 -0.2854  0.1410
  349MOL0     C48030   5.162   0.980   0.909 -0.8266  0.6065  0.1516
  349MOL0     C48031   5.092   0.933   0.796  0.0246 -0.0710 -0.5832
  349MOL0     O48032   5.061   0.802   0.795 -0.8510 -0.0854 -0.6890
  349MOL0     C48033   5.015   0.741   0.677 -0.6335  0.6150 -0.0267
  349MOL0     C48034   5.011   0.594   0.712 -0.7654  1.1261 -0.5931
  349MOL0     C48035   4.983   0.508   0.598  0.2790  0.3061 -0.1603
  349MOL0     C48036   4.957   0.364   0.648 -0.2489  0.9191  0.9316
  349MOL0     C48037   4.866   0.294   0.547  0.4784 -0.6296  0.0416
  349MOL0     C48038   4.852   0.146   0.573 -0.2871 -0.5030  0.0029
  349MOL0     C48039   4.790   0.058   0.460 -0.2392 -0.0813  1.0861
  349MOL0     C48040   4.642   0.092   0.418  0.1692 -0.0645  0.1311
  349MOL0     N48041   4.613   0.021   0.296 -0.2446 -0.0793  0.0017
  349MOL0     C48042   4.619  -0.119   0.285  0.0305  0.7995 -1.1504
  349MOL0     C48043   4.515  -0.149   0.200 -1.2547 -0.2281  0.4662
  349MOL0     C48044   4.483  -0.281   0.158 -0.9383  0.1973 -0.5829
  349MOL0     C48045   4.607  -0.332   0.093 -0.4804 -0.0655 -0.2421
  349MOL0     C48046   4.632  -0.479   0.128 -0.5024 -0.6695  0.3060
  349MOL0     C48047   4.772  -0.520   0.092  0.1301  0.3153 -0.6394
  349MOL0     O48048   4.863  -0.540   0.201 -0.5709  0.1381 -0.4088
  349MOL0     C48049   4.931  -0.427   0.246 -0.1383  0.6603  0.5181
  349MOL0     C48050   4.915  -0.412   0.388  0.4225 -1.2467  0.2999
  349MOL0     C48051   4.974  -0.296   0.445 -0.6018 -0.4013  0.1753
  349MOL0     C48052   4.949  -0.287   0.596  0.4044  0.1896 -0.3034
  349MOL0     C48053   5.043  -0.196   0.372  0.1864 -0.2725  0.0224
  349MOL0     C48054   5.122  -0.075   0.420  0.9682 -0.3853  0.4374
  349MOL0     O48055   5.109   0.042   0.346 -0.2925 -0.9379 -0.5163
  349MOL0     C48056   5.176   0.165   0.380  0.6491  0.3040  0.0761
  349MOL0     C48057   5.274   0.175   0.477 -1.0819  0.4741  0.5823
  349MOL0     C48058   5.341   0.301   0.494  0.8898  0.5122 -0.8491
  349MOL0     C48059   5.296   0.411   0.416  0.0226  0.9618  0.0916
  349MOL0     O48060   5.353   0.536   0.410  0.1906 -0.1410  0.1836
  349MOL0     C48061   5.422   0.591   0.523 -0.0525 -0.2697  0.0812
  349MOL0     C48062   5.578   0.568   0.533 -0.5897 -0.3276 -0.9213
  349MOL0     C48063   5.646   0.700   0.599  0.2651  1.0747 -0.4073
  349MOL0     C48064   5.801   0.694   0.602  0.5169 -0.0767 -0.2455
  349MOL0     C48065   5.842   0.599   0.711  0.6895 -0.0272 -0.2676
  349MOL0     C48066   5.965   0.526   0.668 -0.2356  0.7051 -0.6247
  349MOL0     C48067   6.037   0.441   0.773 -0.4266 -1.1887  0.6048
  349MOL0     C48068   6.001   0.292   0.746 -0.0307  0.5852 -0.4959
  349MOL0    Cl48069   6.117   0.206   0.864  0.1579 -0.0766  0.2432
  349MOL0     C48070   5.204   0.385   0.311 -0.6646 -0.1848 -0.2292
  349MOL0     C48071   5.148   0.268   0.292 -0.1601  0.1931  1.1961
  349MOL0     O48072   5.196  -0.095   0.519 -0.4212 -0.1595 -0.4462
  349MOL0     C48073   5.061  -0.212   0.232  0.5797 -0.4020 -0.4029
  349MOL0     C48074   5.008  -0.335   0.174 -1.0971  0.2649  0.0746
  349MOL0     N48075   4.470  -0.027   0.147 -0.1057 -0.4640 -0.2225
  349MOL0     N48076   4.523   0.071   0.213  0.3358  0.4243  0.6136
  349MOL0     C48077   5.043   1.031   0.695 -0.1253 -0.7141 -1.4668
  349MOL0     C48078   5.065   1.161   0.714  0.5482  0.8189 -0.8984
  349MOL0     C48079   5.148   1.578   0.790  0.6101 -0.3769 -0.4485
  349MOL0     C48080   5.278   1.590   0.828 -1.1064 -0.2794 -0.7239
  349MOL0     C48081   5.352   1.707   0.809  0.4101 -0.5694 -0.6651
  349MOL0     C48082   5.297   1.818   0.747  0.0446  0.5912 -0.9833
  349MOL0     O48083   5.381   1.933   0.757  0.0914 -0.7471  0.5598
  349MOL0     C48084   5.339   2.062   0.713  0.4858 -0.6171  0.6235
  349MOL0     C48085   5.247   2.125   0.808 -0.8373 -0.5708  0.6122
  349MOL0     C48086   5.200   2.260   0.760 -0.6298  0.5138  0.5083
  349MOL0     C48087   5.067   2.312   0.832  0.9801  0.3862  0.4086
  349MOL0     C48088   4.997   2.421   0.757  0.1212 -0.2763 -0.1404
  349MOL0     C48089   4.935   2.516   0.712 -0.1759  0.5266  0.2315
  349MOL0     C48090   5.166   1.806   0.697 -0.5900 -0.3349 -0.6870
  349MOL0     C48091   5.097   1.690   0.714 -0.7857 -0.9295  0.2074
  349MOL0     C48092   4.963   1.667   0.637 -0.5164  0.5119 -0.4745
  349MOL0     H48093   5.256   1.152   0.995  3.9300  2.2375 -2.9597
  349MOL0     H48094   5.194   0.907   0.982  0.4996  0.3554 -0.6462
  349MOL0     H48095   5.090   0.750   0.598 -0.7837 -2.7227 -0.6907
  349MOL0     H48096   4.914   0.776   0.656 -0.0139  1.9124 -0.9457
  349MOL0     H48097   5.104   0.570   0.763 -2.4520  0.8184  2.5749
  349MOL0     H48098   4.934   0.586   0.790  1.4936  2.3916  1.9344
  349MOL0     H48099   4.894   0.535   0.540 -1.8278 -0.2683  2.5751
  349MOL0     H48100   5.073   0.518   0.537 -0.5815 -2.4070 -2.0450
  349MOL0     H48101   5.045   0.299   0.639 -1.2973 -0.5529  0.8437
  349MOL0     H48102   4.921   0.355   0.751  0.2575 -0.3438  1.0245
  349MOL0     H48103   4.901   0.305   0.444 -0.5742 -3.5822 -0.7032
  349MOL0     H48104   4.772   0.350   0.555 -0.1437 -1.1884 -2.6068
  349MOL0     H48105   4.949   0.095   0.581  0.5166  0.4559 -2.6929
  349MOL0     H48106   4.802   0.133   0.670 -2.1518  3.0483 -0.3558
  349MOL0     H48107   4.814  -0.043   0.494 -1.5236 -0.2748  1.4360
  349MOL0     H48108   4.846   0.085   0.369 -3.3184 -3.7375 -2.2504
  349MOL0     H48109   4.576   0.052   0.496 -1.0566 -1.5322 -1.5884
  349MOL0     H48110   4.609   0.194   0.394 -2.7491 -1.1814 -1.0599
  349MOL0     H48111   4.666  -0.189   0.354  0.3542  2.0693 -0.0549
  349MOL0     H48112   4.396  -0.294   0.093 -0.4615  2.3800 -1.7432
  349MOL0     H48113   4.467  -0.344   0.247  1.7132 -0.9040 -0.7968
  349MOL0     H48114   4.583  -0.322  -0.013 -1.4275  2.6919  0.1660
  349MOL0     H48115   4.701  -0.286   0.125  0.0613 -1.3520  0.0930
  349MOL0     H48116   4.619  -0.478   0.237  1.7010  1.3373  0.6360
  349MOL0     H48117   4.560  -0.543   0.075  0.2078 -0.2564 -1.2124
  349MOL0     H48118   4.761  -0.619   0.046 -2.3437 -0.1337  0.7553
  349MOL0     H48119   4.796  -0.452   0.009 -1.2407  0.1514 -1.2015
  349MOL0     H48120   4.866  -0.486   0.450 -1.8994 -0.0574  0.0003
  349MOL0     H48121   5.042  -0.268   0.650 -1.0509  0.5270  2.2733
  349MOL0     H48122   4.925  -0.383   0.641  5.6148 -1.0044  0.5879
  349MOL0     H48123   4.880  -0.206   0.625 -1.1086 -1.1629  0.0160
  349MOL0     H48124   5.290   0.105   0.558 -1.5136  0.7707  0.9288
  349MOL0     H48125   5.390   0.332   0.586 -2.1313  2.1252  0.3398
  349MOL0     H48126   5.409   0.699   0.508  3.3954  0.4672  1.4862
  349MOL0     H48127   5.371   0.555   0.613 -0.4917 -0.3012 -0.1789
  349MOL0     H48128   5.597   0.481   0.596  2.8968 -1.6616 -3.4689
  349MOL0     H48129   5.623   0.543   0.436 -1.9717 -1.0891 -1.3966
  349MOL0     H48130   5.606   0.710   0.700 -1.4702 -0.7383 -0.8522
  349MOL0     H48131   5.616   0.792   0.548  2.1533  2.6088  1.0820
  349MOL0     H48132   5.832   0.798   0.618 -2.2825  1.4729 -3.4336
  349MOL0     H48133   5.846   0.662   0.507 -0.5167 -3.1301  0.1859
  349MOL0     H48134   5.860   0.659   0.801  0.6835 -2.5099  1.4870
  349MOL0     H48135   5.768   0.522   0.733  2.4804 -1.5740  0.6760
  349MOL0     H48136   6.042   0.596   0.633  1.1010 -0.5556 -0.3284
  349MOL0     H48137   5.933   0.464   0.584  4.1447 -0.2848 -1.8397
  349MOL0     H48138   6.014   0.479   0.873  0.4188 -1.7018  1.0059
  349MOL0     H48139   6.144   0.464   0.767 -0.6155 -0.2273  0.7536
  349MOL0     H48140   6.025   0.257   0.645 -1.9978 -5.1059  0.6308
  349MOL0     H48141   5.899   0.273   0.780  0.7416 -2.2541  0.5137
  349MOL0     H48142   5.175   0.462   0.241  0.3900 -2.3074 -3.2035
  349MOL0     H48143   5.083   0.268   0.205  2.4706  0.9255 -0.8928
  349MOL0     H48144   5.122  -0.141   0.177  1.0195  0.7880  1.5239
  349MOL0     H48145   5.025  -0.356   0.069 -1.3190 -0.4134  0.1709
  349MOL0     H48146   4.994   0.999   0.603 -0.6622 -1.5409 -0.9041
  349MOL0     H48147   5.018   1.234   0.648 -1.5773  0.0213 -0.3652
  349MOL0     H48148   5.326   1.507   0.879 -2.6020  1.0280  3.1786
  349MOL0     H48149   5.453   1.725   0.843  1.9003 -2.8807 -3.4444
  349MOL0     H48150   5.420   2.135   0.709  0.8805 -1.0349  0.9619
  349MOL0     H48151   5.288   2.059   0.616  2.5712  1.5965 -0.6676
  349MOL0     H48152   5.293   2.126   0.907 -1.6994 -1.3275  1.0338
  349MOL0     H48153   5.159   2.060   0.816 -2.8174  0.8849 -4.9508
  349MOL0     H48154   5.277   2.334   0.783  0.0818 -0.0762  0.0384
  349MOL0     H48155   5.171   2.259   0.654 -1.6460  2.3048  0.7156
  349MOL0     H48156   5.081   2.339   0.937  1.9914  0.8202  0.1696
  349MOL0     H48157   5.001   2.226   0.840  0.9540  0.4608  1.0602
  349MOL0     H48158   4.891   2.610   0.689  1.2220  1.1162 -0.1392
  349MOL0     H48159   5.116   1.877   0.633 -0.0289  0.4533 -0.2621
  349MOL0     H48160   4.882   1.644   0.707 -0.6365  0.2910 -0.6844
  349MOL0     H48161   4.942   1.755   0.575  3.5575  2.6515  0.8143
  349MOL0     H48162   4.961   1.580   0.571 -1.9562  0.1921 -0.0384
  350MOL0     O48163   9.102   0.827   5.893 -0.9976  0.0929 -0.6089
  350MOL0     C48164   9.099   0.793   5.777  0.1924 -0.2417 -0.0610
  350MOL0     O48165   9.036   0.856   5.673 -0.0922  0.5970 -0.4243
  350MOL0     C48166   8.946   0.957   5.676  0.8742  0.7428  0.7716
  350MOL0     C48167   8.896   1.015   5.790  0.2037  0.0677 -0.5515
  350MOL0     C48168   8.818   1.130   5.788  0.1921  0.2218 -0.7192
  350MOL0     C48169   8.776   1.178   5.665  0.2806  0.0956 -0.2704
  350MOL0     O48170   8.720   1.306   5.675 -0.3370  0.3237 -1.1362
  350MOL0     C48171   8.785   1.408   5.602  1.6619 -0.0953  1.3294
  350MOL0     C48172   8.811   1.538   5.683 -0.1253 -0.0794  0.1507
  350MOL0     C48173   8.922   1.513   5.791 -0.1584 -0.3257  0.3003
  350MOL0     C48174   8.928   1.633   5.890  0.5960  0.8372 -0.6578
  350MOL0     C48175   9.013   1.594   6.009 -0.3251 -0.5704 -0.7732
  350MOL0     C48176   9.017   1.710   6.104 -0.2313 -0.5820 -0.1087
  350MOL0     C48177   9.098   1.674   6.229  0.1997 -0.0786  0.2107
  350MOL0     C48178   9.103   1.776   6.340 -0.6044 -0.1555  0.0261
  350MOL0     N48179   8.981   1.783   6.420 -0.4643 -0.9922 -0.1434
  350MOL0     C48180   8.889   1.883   6.405  0.8590  0.2854 -0.2140
  350MOL0     C48181   8.805   1.864   6.509  0.0702  0.1794 -0.2132
  350MOL0     C48182   8.680   1.945   6.544  0.1339  0.4564  0.1816
  350MOL0     C48183   8.557   1.924   6.441 -0.2146 -0.4040 -0.0254
  350MOL0     C48184   8.561   1.782   6.370 -0.4299  0.5430  0.2670
  350MOL0     C48185   8.443   1.762   6.278 -0.3577 -0.3403  0.6296
  350MOL0     O48186   8.321   1.808   6.329 -0.6782  0.7854  0.3314
  350MOL0     C48187   8.228   1.718   6.378  0.3831 -0.4454 -0.3644
  350MOL0     C48188   8.253   1.588   6.426 -0.2360 -0.2623 -0.4267
  350MOL0     C48189   8.159   1.499   6.468  0.0103  0.0655 -0.7249
  350MOL0     C48190   8.206   1.379   6.523  0.7384  0.0752 -0.2627
  350MOL0     C48191   8.023   1.532   6.451  0.4547 -0.4666 -0.4692
  350MOL0     C48192   7.900   1.446   6.493 -0.1990 -0.2246 -0.3195
  350MOL0     O48193   7.782   1.484   6.443 -0.1669  0.5181 -0.6524
  350MOL0     C48194   7.677   1.492   6.532  0.0697  0.5035 -1.0725
  350MOL0     C48195   7.545   1.486   6.487  0.0387 -0.8000  0.9391
  350MOL0     C48196   7.440   1.508   6.586  1.5618  0.0726 -0.4791
  350MOL0     C48197   7.464   1.527   6.722 -0.0874  0.5093 -0.0140
  350MOL0     O48198   7.369   1.576   6.812  0.1459 -0.0789  0.4133
  350MOL0     C48199   7.228   1.559   6.777 -0.4374  0.0546 -0.3657
  350MOL0     C48200   7.154   1.602   6.906 -0.3818  0.1942  0.5741
  350MOL0     C48201   7.173   1.490   7.008 -0.2224 -0.2151 -1.3960
  350MOL0     C48202   7.101   1.524   7.138 -0.6339  0.2094  0.5721
  350MOL0     C48203   6.950   1.494   7.148  0.3113 -0.2119  1.2512
  350MOL0     C48204   6.901   1.553   7.279 -0.3673  0.4006  0.0284
  350MOL0     C48205   6.777   1.490   7.330  0.6143 -0.3034 -0.0600
  350MOL0     C48206   6.783   1.478   7.477 -0.5674  0.3675 -0.6168
  350MOL0    Cl48207   6.755   1.640   7.556  0.0584  0.0774 -0.2221
  350MOL0     C48208   7.594   1.530   6.761 -0.5000  0.1506 -0.6574
  350MOL0     C48209   7.697   1.507   6.674  0.7268  0.5564  0.1241
  350MOL0     O48210   7.920   1.344   6.553 -0.4513  0.0492 -0.8508
  350MOL0     C48211   7.997   1.658   6.385  0.0218  0.4078  0.8797
  350MOL0     C48212   8.097   1.749   6.352  0.6252  0.6385 -0.6472
  350MOL0     N48213   8.831   1.746   6.582 -0.8003  0.0102 -0.7341
  350MOL0     N48214   8.955   1.718   6.536  0.8562  0.1822 -0.2481
  350MOL0     C48215   8.809   1.108   5.551  0.3069  0.2195 -0.1954
  350MOL0     C48216   8.904   1.001   5.547 -0.6675  0.6827 -0.1636
  350MOL0     C48217   9.168   0.658   5.743 -0.6101  0.0182 -0.2288
  350MOL0     C48218   9.147   0.609   5.615 -1.0980  0.7673  0.2330
  350MOL0     C48219   9.190   0.479   5.580 -0.1673  0.1032 -0.2009
  350MOL0     C48220   9.254   0.393   5.669  0.8133 -1.1923 -0.9818
  350MOL0     O48221   9.288   0.265   5.634 -0.5703  0.0959 -0.4621
  350MOL0     C48222   9.194   0.179   5.567  0.4380 -0.1817 -0.1636
  350MOL0     C48223   9.073   0.162   5.655 -0.1029  1.3516  0.6437
  350MOL0     C48224   9.088   0.087   5.797  0.3726  0.5315  0.6945
  350MOL0     C48225   8.988   0.132   5.902  0.3990  0.9731 -0.0671
  350MOL0     C48226   8.857   0.080   5.852  1.0077 -0.3552 -0.1483
  350MOL0     C48227   8.738   0.047   5.827 -0.6632 -0.2350 -0.1401
  350MOL0     C48228   9.282   0.445   5.794 -0.7440  0.8129  0.0811
  350MOL0     C48229   9.240   0.575   5.832 -1.0691  0.1891 -0.4202
  350MOL0     C48230   9.297   0.620   5.970  0.1486  0.3056 -0.1233
  350MOL0     H48231   8.921   0.982   5.891 -0.9539 -1.0497 -0.6067
  350MOL0     H48232   8.812   1.182   5.883 -1.7778  0.5312 -0.9582
  350MOL0     H48233   8.725   1.436   5.515  2.5627 -1.3055  0.2967
  350MOL0     H48234   8.882   1.383   5.559  1.7876  1.8430  0.3506
  350MOL0     H48235   8.844   1.613   5.610 -2.2362  0.7949  0.0237
  350MOL0     H48236   8.712   1.574   5.712 -0.9185  0.6251 -2.9941
  350MOL0     H48237   8.919   1.416   5.841 -1.2816  0.4434  1.8052
  350MOL0     H48238   9.011   1.514   5.726  0.0080  2.8714  0.4301
  350MOL0     H48239   8.970   1.714   5.830  1.1452 -0.6411 -2.3659
  350MOL0     H48240   8.826   1.658   5.920 -0.3171  2.9090 -4.7458
  350MOL0     H48241   9.112   1.580   5.966  2.0212  1.1176  3.5294
  350MOL0     H48242   8.975   1.502   6.054  1.1711 -1.2087 -0.7580
  350MOL0     H48243   9.049   1.803   6.057 -0.6308  0.2927  1.2874
  350MOL0     H48244   8.915   1.728   6.140 -0.7213  0.5834 -1.9873
  350MOL0     H48245   9.200   1.647   6.201  0.1741  1.0163 -1.0649
  350MOL0     H48246   9.042   1.590   6.269 -1.9375  1.1558 -0.0427
  350MOL0     H48247   9.179   1.738   6.408  0.1704  2.1159  0.5030
  350MOL0     H48248   9.137   1.874   6.308 -0.6276  0.2226  1.1116
  350MOL0     H48249   8.884   1.956   6.324 -0.7737  0.3083 -0.1199
  350MOL0     H48250   8.698   2.053   6.547 -0.9673  0.6319  2.7415
  350MOL0     H48251   8.639   1.918   6.641 -0.0948 -0.3468 -0.1274
  350MOL0     H48252   8.458   1.946   6.481 -0.4457 -0.7787 -0.3798
  350MOL0     H48253   8.570   2.004   6.367  0.8467  0.3332  0.9124
  350MOL0     H48254   8.656   1.780   6.317  0.0937  0.0063  1.1976
  350MOL0     H48255   8.555   1.700   6.443 -2.5117 -0.5582 -1.0425
  350MOL0     H48256   8.459   1.818   6.185 -3.3771 -0.1263  0.1573
  350MOL0     H48257   8.432   1.660   6.240  0.1596  0.0073 -0.5119
  350MOL0     H48258   8.358   1.564   6.442  0.5935  2.0038 -2.0299
  350MOL0     H48259   8.145   1.291   6.502 -3.3663  3.1076 -2.6724
  350MOL0     H48260   8.210   1.390   6.632  0.3261 -1.8899 -0.0136
  350MOL0     H48261   8.305   1.361   6.479  0.5881  2.4235 -1.7578
  350MOL0     H48262   7.526   1.462   6.383  0.8826 -1.5477  0.9461
  350MOL0     H48263   7.341   1.500   6.540  1.7712  0.1382 -0.9484
  350MOL0     H48264   7.197   1.618   6.690  0.7186  1.2975  0.0390
  350MOL0     H48265   7.206   1.452   6.773 -2.4345  0.1413  3.4511
  350MOL0     H48266   7.197   1.688   6.957 -1.0228  0.6213  0.4139
  350MOL0     H48267   7.049   1.629   6.894  0.2744  2.9517  0.4209
  350MOL0     H48268   7.280   1.495   7.029 -0.2610 -3.4655  0.1930
  350MOL0     H48269   7.152   1.389   6.972 -1.1987 -0.5757  0.0681
  350MOL0     H48270   7.124   1.628   7.159  1.2467 -0.5757  2.8127
  350MOL0     H48271   7.148   1.464   7.216  0.1959  3.8987  3.1611
  350MOL0     H48272   6.889   1.549   7.077  0.9657 -1.3435 -0.2396
  350MOL0     H48273   6.929   1.388   7.130  1.1291 -0.1229 -0.3934
  350MOL0     H48274   6.878   1.658   7.260  1.5896  1.0013  0.8158
  350MOL0     H48275   6.976   1.543   7.357 -2.8210  0.5627  2.5719
  350MOL0     H48276   6.763   1.390   7.287  0.7523 -0.5108  0.3772
  350MOL0     H48277   6.696   1.559   7.306  0.9000  0.1556  0.2960
  350MOL0     H48278   6.876   1.437   7.515 -0.5391  0.8033 -0.2055
  350MOL0     H48279   6.699   1.412   7.504  1.2738 -3.0016 -2.4792
  350MOL0     H48280   7.599   1.558   6.866 -3.2531  1.5176 -0.8219
  350MOL0     H48281   7.791   1.513   6.728 -0.1572 -1.6154  2.0689
  350MOL0     H48282   7.896   1.683   6.355 -0.5064 -2.2325  0.1929
  350MOL0     H48283   8.071   1.840   6.300  2.8818  0.7672 -1.6626
  350MOL0     H48284   8.758   1.149   5.464 -1.3698 -1.7103 -0.2119
  350MOL0     H48285   8.934   0.967   5.448 -0.4538 -0.6984  0.3491
  350MOL0     H48286   9.106   0.669   5.534  1.2006  0.1301 -1.5010
  350MOL0     H48287   9.167   0.436   5.483  0.1965  2.3066 -1.3174
  350MOL0     H48288   9.171   0.211   5.465  0.5162 -0.5009 -0.2829
  350MOL0     H48289   9.239   0.080   5.579 -1.1407 -0.9127  0.0964
  350MOL0     H48290   9.004   0.103   5.594 -0.6437  0.6313  1.9060
  350MOL0     H48291   9.032   0.259   5.682  1.9059  2.1003  1.2010
  350MOL0     H48292   9.086  -0.019   5.771  1.3675  0.8633 -0.8677
  350MOL0     H48293   9.189   0.094   5.840  2.4937 -2.6745 -3.0863
  350MOL0     H48294   8.990   0.240   5.917  1.2719  1.3406 -2.4091
  350MOL0     H48295   9.001   0.082   5.999 -3.8506  0.2085  0.3073
  350MOL0     H48296   8.633   0.038   5.807 -1.9682  0.7409  4.9150
  350MOL0     H48297   9.346   0.398   5.867  0.3565 -0.4602 -1.6142
  350MOL0     H48298   9.228   0.666   6.043  1.4762  1.9332  0.1741
  350MOL0     H48299   9.330   0.533   6.027 -0.6824 -1.0561 -1.6267
  350MOL0     H48300   9.354   0.713   5.959 -3.0005  2.4961  0.5604
  351MOL0     O48301   8.699   1.346   1.645 -1.0486 -0.5681 -0.3759
  351MOL0     C48302   8.624   1.250   1.652 -0.2705 -0.0056  0.5349
  351MOL0     O48303   8.581   1.176   1.546 -0.0799 -0.2139  0.6679
  351MOL0     C48304   8.627   1.216   1.421 -0.1488  0.7736  0.0023
  351MOL0     C48305   8.534   1.230   1.323 -0.4251 -0.4474  0.3980
  351MOL0     C48306   8.573   1.256   1.191  0.8307 -0.3723  0.8036
  351MOL0     C48307   8.698   1.285   1.148  0.2882 -0.2421 -0.5909
  351MOL0     O48308   8.723   1.326   1.020  0.4683 -0.4115  0.4083
  351MOL0     C48309   8.859   1.314   0.967 -0.3300  0.1113  0.2570
  351MOL0     C48310   8.832   1.355   0.816  0.9935 -0.3911  0.1108
  351MOL0     C48311   8.949   1.320   0.730  0.1986  0.0883  0.0839
  351MOL0     C48312   8.951   1.378   0.589 -0.3411  0.8329  0.2185
  351MOL0     C48313   8.846   1.301   0.505 -0.3454 -0.2308  0.0276
  351MOL0     C48314   8.850   1.363   0.368 -0.5308  0.2610  0.6702
  351MOL0     C48315   8.749   1.276   0.287 -0.3458  0.3551 -0.4227
  351MOL0     C48316   8.736   1.330   0.147  0.5552  0.3829  0.5271
  351MOL0     N48317   8.603   1.308   0.087 -0.3528 -0.6389 -0.7055
  351MOL0     C48318   8.539   1.411   0.020  0.2664 -0.0333  1.1124
  351MOL0     C48319   8.433   1.345  -0.038 -0.2584 -1.4844  0.0990
  351MOL0     C48320   8.322   1.423  -0.109  0.1139 -0.2401  0.6674
  351MOL0     C48321   8.239   1.499  -0.001  0.1992  0.3142  0.3586
  351MOL0     C48322   8.102   1.548  -0.042  0.0072  0.3070  1.0282
  351MOL0     C48323   8.076   1.623  -0.173  0.1198  0.3126  0.0744
  351MOL0     O48324   8.153   1.742  -0.178  0.0251 -1.0175 -0.0617
  351MOL0     C48325   8.172   1.796  -0.302 -0.2767  0.1770  0.0499
  351MOL0     C48326   8.288   1.869  -0.309  0.1299 -0.0961 -0.0267
  351MOL0     C48327   8.320   1.932  -0.429 -0.4981  0.3673 -0.9328
  351MOL0     C48328   8.444   2.018  -0.422 -0.2447 -0.9308  0.0162
  351MOL0     C48329   8.260   1.904  -0.546  0.2413 -0.5865 -0.0995
  351MOL0     C48330   8.314   1.946  -0.683 -0.3737  0.1095 -0.4980
  351MOL0     O48331   8.242   1.889  -0.778 -0.2925 -0.2367 -0.7246
  351MOL0     C48332   8.239   1.921  -0.908 -0.3743  0.0288  0.6485
  351MOL0     C48333   8.324   2.008  -0.980 -0.8081  0.4552  0.0394
  351MOL0     C48334   8.320   2.010  -1.119 -0.4327  0.9828 -0.0038
  351MOL0     C48335   8.227   1.939  -1.191  0.8283  0.5548  0.5694
  351MOL0     O48336   8.197   1.949  -1.325 -0.4496  0.0217 -0.1433
  351MOL0     C48337   8.303   1.905  -1.413  0.1975  0.2954  0.2755
  351MOL0     C48338   8.300   1.758  -1.444 -0.7967 -0.5049 -0.0510
  351MOL0     C48339   8.386   1.727  -1.556  0.4149  0.7352  0.9446
  351MOL0     C48340   8.371   1.582  -1.611  0.1293 -0.8022  0.2781
  351MOL0     C48341   8.443   1.474  -1.533  0.5511  0.0882 -0.2781
  351MOL0     C48342   8.423   1.339  -1.602 -0.7709 -0.2521  0.0524
  351MOL0     C48343   8.483   1.221  -1.524 -0.9031  0.9018 -0.6088
  351MOL0     C48344   8.505   1.093  -1.611  0.5939 -0.8164  0.7724
  351MOL0    Cl48345   8.357   1.061  -1.708 -0.0370  0.2362  0.1474
  351MOL0     C48346   8.137   1.854  -1.121 -0.0995 -0.7187  0.5397
  351MOL0     C48347   8.140   1.854  -0.983 -0.1421 -0.0146  0.4624
  351MOL0     O48348   8.409   2.015  -0.698  0.3186 -0.3157 -0.3158
  351MOL0     C48349   8.141   1.830  -0.544 -0.7265  0.4301  0.1554
  351MOL0     C48350   8.098   1.775  -0.423 -0.0830 -0.3373 -0.3544
  351MOL0     N48351   8.436   1.208   0.004 -0.0092 -0.4193  0.7185
  351MOL0     N48352   8.534   1.188   0.077  0.1796  0.6496 -0.8379
  351MOL0     C48353   8.792   1.260   1.250 -0.0485  0.8486 -0.6757
  351MOL0     C48354   8.765   1.218   1.384 -0.1314  1.0903 -0.9278
  351MOL0     C48355   8.585   1.204   1.787 -0.2669  0.9807 -0.6379
  351MOL0     C48356   8.660   1.239   1.905 -0.2621 -0.3813 -0.5308
  351MOL0     C48357   8.626   1.198   2.035 -0.1736 -1.6911  1.3137
  351MOL0     C48358   8.527   1.111   2.050  0.2326 -0.0156 -0.6303
  351MOL0     O48359   8.490   1.064   2.178  0.3704  0.6783  0.2661
  351MOL0     C48360   8.603   1.038   2.271 -0.0744 -0.6122 -0.0225
  351MOL0     C48361   8.580   0.928   2.374  0.6180  0.2502  0.0006
  351MOL0     C48362   8.692   0.882   2.469  0.2600 -0.5479 -0.1026
  351MOL0     C48363   8.640   0.816   2.598 -0.6205 -0.3666 -0.1420
  351MOL0     C48364   8.554   0.702   2.569  0.2435 -1.3211  0.3179
  351MOL0     C48365   8.464   0.629   2.558  0.0817 -0.7095 -0.1674
  351MOL0     C48366   8.453   1.069   1.937 -0.1109  0.3657  1.3391
  351MOL0     C48367   8.482   1.110   1.811 -0.5057 -0.3471  0.2921
  351MOL0     C48368   8.405   1.046   1.702  0.8897 -0.3775  0.2821
  351MOL0     H48369   8.433   1.212   1.357 -0.7479 -2.1135 -1.2489
  351MOL0     H48370   8.499   1.268   1.112  2.6374  2.2954 -0.6149
  351MOL0     H48371   8.894   1.210   0.975 -1.2166 -0.0901  2.2129
  351MOL0     H48372   8.936   1.378   1.009  0.3586 -2.9457  4.3205
  351MOL0     H48373   8.750   1.308   0.762  0.2456  1.4824 -0.4638
  351MOL0     H48374   8.823   1.463   0.800  0.5134 -0.5213 -0.5285
  351MOL0     H48375   9.037   1.368   0.774  0.9993 -2.9685  2.1081
  351MOL0     H48376   8.960   1.212   0.723 -0.5950 -0.0517  0.8160
  351MOL0     H48377   8.940   1.486   0.593 -1.4318  0.8443 -1.7889
  351MOL0     H48378   9.053   1.357   0.557 -0.1597  0.5954  0.9286
  351MOL0     H48379   8.751   1.311   0.559  1.5309  2.2122  3.1873
  351MOL0     H48380   8.869   1.194   0.499 -0.7604 -0.2413 -3.5265
  351MOL0     H48381   8.810   1.464   0.375 -1.2473  0.0675 -0.3528
  351MOL0     H48382   8.948   1.363   0.318  0.3857 -1.5765  2.3250
  351MOL0     H48383   8.653   1.279   0.339  0.4308 -0.3713  1.1122
  351MOL0     H48384   8.775   1.170   0.274  1.6822  0.9756 -2.1075
  351MOL0     H48385   8.759   1.437   0.148  3.1808 -0.0974  0.3033
  351MOL0     H48386   8.816   1.285   0.088 -1.2047 -0.8976 -0.9873
  351MOL0     H48387   8.570   1.511  -0.009 -0.1431  0.0357  0.9065
  351MOL0     H48388   8.255   1.350  -0.158  2.0155 -2.8242  1.6676
  351MOL0     H48389   8.365   1.497  -0.177  0.9718  0.6610  2.1463
  351MOL0     H48390   8.231   1.419   0.073  1.1100 -1.7599 -1.6339
  351MOL0     H48391   8.301   1.580   0.039 -0.1912  3.8294 -5.1129
  351MOL0     H48392   8.037   1.461  -0.027  0.3777  0.1964  2.0583
  351MOL0     H48393   8.070   1.610   0.042 -2.3378 -0.6054  0.9119
  351MOL0     H48394   8.085   1.560  -0.263  0.8597 -0.2963  0.5699
  351MOL0     H48395   7.976   1.667  -0.171 -0.6333 -1.2735 -0.6353
  351MOL0     H48396   8.345   1.879  -0.217 -1.8040  1.7141  1.0831
  351MOL0     H48397   8.427   2.108  -0.481 -1.4610 -1.0068  0.2252
  351MOL0     H48398   8.521   1.964  -0.476 -1.5166 -2.5790 -0.2336
  351MOL0     H48399   8.474   2.038  -0.318  0.8720 -0.3695 -0.3971
  351MOL0     H48400   8.396   2.078  -0.939 -1.5998  1.6640 -0.5726
  351MOL0     H48401   8.386   2.077  -1.173 -0.1973  0.9784  0.2768
  351MOL0     H48402   8.298   1.960  -1.507  0.3010  1.1013  0.7320
  351MOL0     H48403   8.399   1.933  -1.368 -1.0303  1.7140  2.1558
  351MOL0     H48404   8.338   1.706  -1.355 -1.2061 -0.8728 -0.0911
  351MOL0     H48405   8.196   1.728  -1.454 -1.4700  0.3159  3.1397
  351MOL0     H48406   8.493   1.741  -1.538  0.3654  2.1954  0.2689
  351MOL0     H48407   8.348   1.792  -1.635  1.3918  0.7885  0.5018
  351MOL0     H48408   8.414   1.587  -1.711  2.3611 -3.5388  0.9521
  351MOL0     H48409   8.265   1.554  -1.621  0.5250 -3.3570  2.1143
  351MOL0     H48410   8.550   1.490  -1.522  0.5737 -1.3541  2.5294
  351MOL0     H48411   8.409   1.484  -1.429 -1.4642  2.8526 -1.0919
  351MOL0     H48412   8.459   1.332  -1.705 -1.3349 -1.2651 -0.0890
  351MOL0     H48413   8.317   1.322  -1.620 -0.8745  1.7775 -1.6387
  351MOL0     H48414   8.415   1.195  -1.443 -0.8208  0.9669 -0.5183
  351MOL0     H48415   8.572   1.248  -1.466  1.0962  2.8755 -4.2182
  351MOL0     H48416   8.544   1.007  -1.556  1.4620 -1.1228 -0.2872
  351MOL0     H48417   8.580   1.116  -1.687 -3.4494  0.9036 -3.1012
  351MOL0     H48418   8.054   1.803  -1.168 -0.3706  0.8831 -0.8174
  351MOL0     H48419   8.076   1.785  -0.930 -1.9731  0.5836 -0.8796
  351MOL0     H48420   8.081   1.828  -0.635  1.9781  0.6008 -1.7574
  351MOL0     H48421   8.006   1.717  -0.421 -0.2885 -0.1431 -2.6037
  351MOL0     H48422   8.894   1.281   1.220 -0.0967  1.4464 -0.4402
  351MOL0     H48423   8.849   1.194   1.449 -1.9099  1.2653  1.5577
  351MOL0     H48424   8.743   1.307   1.891  1.9003 -2.9664 -1.0778
  351MOL0     H48425   8.672   1.243   2.123 -1.2041 -0.2295  1.1450
  351MOL0     H48426   8.693   1.012   2.214  1.2510  4.0423 -0.4162
  351MOL0     H48427   8.626   1.127   2.329 -0.3983 -0.5175 -0.0377
  351MOL0     H48428   8.541   0.835   2.332  0.7654 -0.2800  1.0137
  351MOL0     H48429   8.499   0.967   2.436 -2.6313 -2.5383 -2.1302
  351MOL0     H48430   8.754   0.811   2.412  0.7403  2.3874 -3.6229
  351MOL0     H48431   8.750   0.972   2.490  1.7028 -1.5686  0.4923
  351MOL0     H48432   8.590   0.879   2.672 -0.4749 -1.8511  1.2801
  351MOL0     H48433   8.729   0.781   2.652 -0.1607  3.0414  1.5899
  351MOL0     H48434   8.371   0.576   2.548 -0.8290  0.4648  1.4939
  351MOL0     H48435   8.372   0.998   1.950 -0.5826 -0.0289 -2.6122
  351MOL0     H48436   8.309   1.011   1.740 -0.1077  2.8491  1.0257
  351MOL0     H48437   8.377   1.109   1.617  0.2594  0.1413  0.8569
  351MOL0     H48438   8.463   0.964   1.659  0.2184  0.0419 -1.5031
  352MOL0     O48439   0.869   5.943   7.667  0.1965  0.0998  0.4707
  352MOL0     C48440   0.913   5.881   7.772 -0.1339  0.0030 -0.4132
  352MOL0     O48441   0.839   5.838   7.878  0.3446  0.0731  0.1737
  352MOL0     C48442   0.705   5.865   7.873  0.3102  0.4247  0.6169
  352MOL0     C48443   0.625   5.765   7.815  0.4435  1.0411  0.7470
  352MOL0     C48444   0.489   5.782   7.797  0.5293  0.8051  0.2991
  352MOL0     C48445   0.427   5.899   7.841 -0.0010  0.2616  0.2998
  352MOL0     O48446   0.291   5.905   7.842  0.7932 -0.2793  0.1321
  352MOL0     C48447   0.236   6.017   7.765 -0.3606 -0.1823  1.6308
  352MOL0     C48448   0.284   6.018   7.615 -0.2972  0.4199  0.2177
  352MOL0     C48449   0.231   6.139   7.534 -1.0221  0.2141 -0.9167
  352MOL0     C48450   0.279   6.267   7.582 -0.8208  0.0807 -0.9075
  352MOL0     C48451   0.233   6.388   7.496 -0.6738  0.0137 -0.2408
  352MOL0     C48452   0.261   6.527   7.557 -0.4965 -0.2923 -0.1127
  352MOL0     C48453   0.251   6.647   7.458 -0.7552 -0.0982  0.7190
  352MOL0     C48454   0.107   6.667   7.409 -0.3708 -0.5430 -0.3474
  352MOL0     N48455   0.101   6.767   7.303  0.0236 -0.4657 -0.0747
  352MOL0     C48456  -0.006   6.794   7.231  0.8681  0.8060  0.6999
  352MOL0     C48457   0.022   6.914   7.170 -1.1229 -0.3962  0.2307
  352MOL0     C48458  -0.077   6.964   7.072 -0.3258  0.5416  0.1714
  352MOL0     C48459  -0.037   6.955   6.924 -0.4897  0.1368 -0.7321
  352MOL0     C48460  -0.166   6.960   6.835 -0.3582 -0.7843  0.3870
  352MOL0     C48461  -0.117   6.919   6.693 -0.2113 -0.1052  0.6902
  352MOL0     O48462  -0.237   6.931   6.606  0.1268 -0.1918  0.3401
  352MOL0     C48463  -0.198   7.013   6.503  0.3775  0.1157  0.0667
  352MOL0     C48464  -0.140   6.950   6.399  0.5839 -0.1601  0.1423
  352MOL0     C48465  -0.101   7.022   6.281  0.6092 -1.3138 -0.7071
  352MOL0     C48466  -0.024   6.934   6.187 -0.2504 -0.0895  0.0260
  352MOL0     C48467  -0.116   7.159   6.272  0.5390 -0.3181  0.0393
  352MOL0     C48468  -0.066   7.232   6.150 -0.5194  0.2527 -1.5866
  352MOL0     O48469  -0.067   7.369   6.143  0.2160 -0.5361 -0.0222
  352MOL0     C48470  -0.006   7.447   6.041  0.3029 -0.5843 -0.4971
  352MOL0     C48471  -0.047   7.576   6.019  0.2542 -0.1154  0.0252
  352MOL0     C48472   0.021   7.656   5.931  0.5984  0.2013 -0.4230
  352MOL0     C48473   0.112   7.596   5.841  0.1055  0.5616 -0.6355
  352MOL0     O48474   0.149   7.679   5.737 -1.2076 -1.0418  0.1115
  352MOL0     C48475   0.207   7.599   5.627  0.1494 -1.4818 -0.0853
  352MOL0     C48476   0.218   7.694   5.507  0.4004  0.9019 -0.1999
  352MOL0     C48477   0.082   7.713   5.440 -0.0680 -0.7246  0.7315
  352MOL0     C48478  -0.016   7.814   5.500  0.1067 -0.3628  0.3462
  352MOL0     C48479  -0.153   7.836   5.424 -0.7709 -0.3358 -0.4170
  352MOL0     C48480  -0.241   7.946   5.479 -0.9689  0.1652 -0.1960
  352MOL0     C48481  -0.191   8.096   5.441  0.3125  0.0291  0.2621
  352MOL0     C48482  -0.297   8.210   5.444 -1.2210  0.1849 -0.2243
  352MOL0    Cl48483  -0.220   8.367   5.450  0.1347  0.1981 -0.3426
  352MOL0     C48484   0.157   7.466   5.866 -0.0735  0.8100  0.3764
  352MOL0     C48485   0.105   7.395   5.979  0.2824  0.0326 -0.1768
  352MOL0     O48486  -0.052   7.166   6.049 -0.3700  1.2066  0.4213
  352MOL0     C48487  -0.166   7.224   6.385  0.0863 -1.0757  1.4658
  352MOL0     C48488  -0.210   7.157   6.503  0.1930  0.3837  0.5143
  352MOL0     N48489   0.147   6.951   7.221  0.1584  0.6488 -0.2097
  352MOL0     N48490   0.188   6.870   7.304 -0.1211 -0.1889 -0.1645
  352MOL0     C48491   0.505   6.002   7.901 -0.6132  0.1408 -0.7265
  352MOL0     C48492   0.639   5.984   7.904 -0.1430 -1.0397 -0.4713
  352MOL0     C48493   1.056   5.829   7.776  0.2189  0.1367  0.1712
  352MOL0     C48494   1.124   5.822   7.652 -0.8607 -0.7278 -0.3857
  352MOL0     C48495   1.248   5.763   7.629  0.3269  0.1420 -0.4150
  352MOL0     C48496   1.312   5.711   7.744 -0.5082 -0.2526 -0.0039
  352MOL0     O48497   1.433   5.642   7.732  0.1602  0.3899  0.3164
  352MOL0     C48498   1.488   5.605   7.607  0.0738 -0.5152  0.7651
  352MOL0     C48499   1.587   5.485   7.610  0.7957 -0.0134 -0.8039
  352MOL0     C48500   1.662   5.478   7.478  0.5475  0.4742  0.1396
  352MOL0     C48501   1.796   5.401   7.500 -0.1182  0.3287 -0.2081
  352MOL0     C48502   1.884   5.389   7.384  0.4557 -0.1382 -0.8056
  352MOL0     C48503   1.948   5.394   7.280  0.8444 -0.0138 -0.5051
  352MOL0     C48504   1.249   5.718   7.865  1.0554 -0.7445 -0.3949
  352MOL0     C48505   1.118   5.767   7.888 -0.3965 -0.0709  0.3394
  352MOL0     C48506   1.061   5.750   8.024  0.4209  0.5633  0.2057
  352MOL0     H48507   0.672   5.673   7.785 -1.1083  0.8212 -1.2035
  352MOL0     H48508   0.425   5.705   7.756 -0.5579  2.0804 -0.4797
  352MOL0     H48509   0.258   6.112   7.813  0.3933  0.2427  0.4861
  352MOL0     H48510   0.128   6.006   7.752 -0.0292 -0.5017 -2.0384
  352MOL0     H48511   0.392   6.013   7.599 -0.5833  2.2911 -3.1414
  352MOL0     H48512   0.260   5.922   7.567 -0.4997  0.9727 -0.8055
  352MOL0     H48513   0.254   6.120   7.429 -0.6504 -2.1151 -0.4731
  352MOL0     H48514   0.121   6.139   7.534 -1.0390  1.5384 -0.7919
  352MOL0     H48515   0.235   6.298   7.677  1.1112  2.2914 -0.6476
  352MOL0     H48516   0.386   6.270   7.607 -1.1627 -0.9362  0.8587
  352MOL0     H48517   0.127   6.381   7.472 -0.2447 -2.7732 -1.8806
  352MOL0     H48518   0.290   6.389   7.402  0.8097 -2.8391  0.4964
  352MOL0     H48519   0.200   6.545   7.645 -1.6986 -1.4308 -0.6762
  352MOL0     H48520   0.365   6.525   7.592 -0.1241 -0.3573 -1.1565
  352MOL0     H48521   0.310   6.631   7.368 -1.8711  0.5524 -0.1556
  352MOL0     H48522   0.287   6.729   7.522 -0.5296 -0.3575  0.9224
  352MOL0     H48523   0.049   6.582   7.372 -1.4862 -0.4099  1.0236
  352MOL0     H48524   0.050   6.711   7.491 -1.9157  0.0008 -1.6544
  352MOL0     H48525  -0.102   6.745   7.220  0.1056  2.4108 -0.2274
  352MOL0     H48526  -0.106   7.070   7.078 -1.8392  0.3650 -2.3150
  352MOL0     H48527  -0.171   6.910   7.081 -1.5865  2.4567 -0.7247
  352MOL0     H48528   0.032   7.040   6.919  0.3098 -0.1782  2.5375
  352MOL0     H48529   0.021   6.863   6.910  1.2258  0.8163  1.3720
  352MOL0     H48530  -0.241   6.894   6.880 -2.7937  1.1261 -0.6059
  352MOL0     H48531  -0.217   7.057   6.827 -1.4460 -1.3980 -0.3790
  352MOL0     H48532  -0.022   6.967   6.669  3.0698 -6.7523 -2.0059
  352MOL0     H48533  -0.097   6.812   6.690 -0.6114 -0.1674 -2.2989
  352MOL0     H48534  -0.125   6.843   6.407  1.5181 -0.1376 -1.0403
  352MOL0     H48535   0.069   6.974   6.144 -0.5347  0.2905 -0.2396
  352MOL0     H48536  -0.082   6.911   6.098 -0.6561  2.0621 -0.3217
  352MOL0     H48537   0.005   6.844   6.242  3.3514  0.1571 -1.1862
  352MOL0     H48538  -0.137   7.613   6.068  1.5704  3.0508  0.2155
  352MOL0     H48539  -0.019   7.756   5.924 -0.4289 -0.0300  1.5504
  352MOL0     H48540   0.313   7.588   5.654  0.9043  1.6599 -1.2900
  352MOL0     H48541   0.146   7.509   5.616 -1.7675 -0.7489  3.1541
  352MOL0     H48542   0.254   7.793   5.536  4.3859 -0.9003  1.7156
  352MOL0     H48543   0.281   7.635   5.440 -1.7836 -1.4438 -0.3443
  352MOL0     H48544   0.033   7.616   5.428  0.1031 -0.7960  0.5951
  352MOL0     H48545   0.101   7.736   5.335 -0.7748  2.5328  1.2345
  352MOL0     H48546   0.042   7.905   5.516  2.3587 -1.6336 -0.1206
  352MOL0     H48547  -0.038   7.777   5.601  0.1849 -0.4395  0.3347
  352MOL0     H48548  -0.141   7.876   5.323 -3.2232 -2.7262 -1.7658
  352MOL0     H48549  -0.207   7.741   5.419 -0.2281 -0.8834  2.2839
  352MOL0     H48550  -0.236   7.943   5.588 -1.5439  3.1165  0.0165
  352MOL0     H48551  -0.345   7.929   5.449 -0.2229 -2.7869 -1.4122
  352MOL0     H48552  -0.139   8.093   5.345 -0.8629  0.6736 -0.4151
  352MOL0     H48553  -0.121   8.122   5.521 -1.9704  2.3406  1.7003
  352MOL0     H48554  -0.363   8.203   5.531 -0.9043  0.9289  0.0853
  352MOL0     H48555  -0.350   8.207   5.348 -1.3915  4.1254 -0.4448
  352MOL0     H48556   0.248   7.424   5.824  0.2253  2.3603 -0.6130
  352MOL0     H48557   0.156   7.302   6.003  1.3358 -0.0261 -2.3953
  352MOL0     H48558  -0.169   7.332   6.379  0.7534 -1.0641  1.2993
  352MOL0     H48559  -0.268   7.208   6.578 -1.2717 -0.2501 -0.1469
  352MOL0     H48560   0.466   6.100   7.924  0.3867  0.2326  0.6766
  352MOL0     H48561   0.705   6.067   7.930  1.6272 -1.6990 -2.5310
  352MOL0     H48562   1.086   5.882   7.570 -1.5449  1.1026  1.1741
  352MOL0     H48563   1.290   5.764   7.529  0.8617  2.2290 -0.2186
  352MOL0     H48564   1.403   5.574   7.546 -1.5877  2.2418  1.5078
  352MOL0     H48565   1.536   5.693   7.563 -2.1173 -0.0879 -0.9142
  352MOL0     H48566   1.538   5.389   7.630  5.2766 -1.7180  4.4957
  352MOL0     H48567   1.661   5.507   7.688  0.5089 -0.0464 -0.5194
  352MOL0     H48568   1.608   5.444   7.389  0.4320  0.1546  0.3329
  352MOL0     H48569   1.678   5.583   7.451  0.7257 -0.1770 -2.5633
  352MOL0     H48570   1.768   5.304   7.543  0.3615 -0.0540 -0.7427
  352MOL0     H48571   1.867   5.454   7.565  0.1604  0.0234 -0.2583
  352MOL0     H48572   2.018   5.397   7.199  0.6577  1.1118 -0.6382
  352MOL0     H48573   1.297   5.667   7.948  0.9965 -0.3775 -0.1324
  352MOL0     H48574   1.124   5.682   8.082  0.5878 -0.1170 -0.7303
  352MOL0     H48575   1.051   5.840   8.084  3.4208  1.4077 -0.4306
  352MOL0     H48576   0.972   5.685   8.016  0.9298 -0.0302 -0.9020
  353MOL0     O48577   9.837   7.538   4.021 -0.1107 -0.0999 -0.4303
  353MOL0     C48578   9.819   7.627   4.104  0.0648 -0.4442 -1.1186
  353MOL0     O48579   9.721   7.632   4.203 -0.5141  0.8454 -0.1913
  353MOL0     C48580   9.621   7.541   4.212 -0.0469  0.3577 -0.0836
  353MOL0     C48581   9.612   7.470   4.329  0.2171  0.5568  0.2052
  353MOL0     C48582   9.531   7.353   4.334 -0.2041 -1.3551  0.0041
  353MOL0     C48583   9.451   7.314   4.227  0.7614  0.1581  0.4385
  353MOL0     O48584   9.371   7.201   4.247  0.9930  0.3178 -1.5639
  353MOL0     C48585   9.374   7.097   4.150 -0.7968 -0.0226  0.5722
  353MOL0     C48586   9.355   6.962   4.211 -0.7847  0.0715  0.3067
  353MOL0     C48587   9.471   6.930   4.292 -0.6562  1.0434 -0.1932
  353MOL0     C48588   9.486   6.770   4.299 -0.1232  0.1214 -0.6272
  353MOL0     C48589   9.598   6.717   4.391  0.9990 -0.2916 -0.2228
  353MOL0     C48590   9.744   6.766   4.355  0.3410 -0.4983  0.9094
  353MOL0     C48591   9.839   6.735   4.473  0.3171 -0.7670  0.4537
  353MOL0     C48592   9.971   6.784   4.413 -0.4260  0.8757  1.0461
  353MOL0     N48593  10.024   6.698   4.306 -0.5106  0.1397  0.1212
  353MOL0     C48594  10.025   6.564   4.287 -0.1021 -0.2556  0.3870
  353MOL0     C48595  10.092   6.533   4.170  0.5796  0.6175  0.4901
  353MOL0     C48596  10.124   6.390   4.128  0.6661  0.5593 -0.3347
  353MOL0     C48597  10.262   6.351   4.179 -0.5198 -0.2051 -0.5687
  353MOL0     C48598  10.310   6.219   4.134 -0.5897 -0.1792  0.3817
  353MOL0     C48599  10.358   6.234   3.992  0.1219  0.2286  0.2071
  353MOL0     O48600  10.368   6.112   3.914 -0.2371  0.0283  0.3852
  353MOL0     C48601  10.259   6.057   3.863  0.9829  0.3181 -0.1688
  353MOL0     C48602  10.130   6.113   3.865 -0.3253  0.2302  0.2245
  353MOL0     C48603  10.015   6.047   3.826  0.0629 -1.1277 -0.9895
  353MOL0     C48604   9.886   6.114   3.848 -0.2091 -0.7610 -1.0949
  353MOL0     C48605  10.024   5.909   3.791  0.5235 -0.3510  0.3111
  353MOL0     C48606   9.899   5.826   3.751 -0.0764 -0.8036  1.2527
  353MOL0     O48607   9.907   5.688   3.753  0.6803  0.7317  0.0750
  353MOL0     C48608   9.785   5.619   3.751  0.3292 -0.4361  0.0874
  353MOL0     C48609   9.688   5.645   3.846 -0.0475  0.1693  0.2727
  353MOL0     C48610   9.561   5.604   3.826  0.5988  0.5385 -0.5633
  353MOL0     C48611   9.512   5.542   3.708  0.2175  0.6991 -0.7546
  353MOL0     O48612   9.382   5.510   3.703  0.1180 -0.6955  0.0162
  353MOL0     C48613   9.360   5.402   3.610  0.0500  1.0143 -0.3945
  353MOL0     C48614   9.230   5.333   3.651  0.4322 -0.3703 -0.4739
  353MOL0     C48615   9.188   5.242   3.529  0.1662 -0.0183 -0.2503
  353MOL0     C48616   9.077   5.139   3.575 -0.3827  0.4636  0.4629
  353MOL0     C48617   8.978   5.100   3.466 -0.1515  0.2203 -0.3477
  353MOL0     C48618   8.892   4.978   3.516 -0.0435 -0.2305  0.7633
  353MOL0     C48619   8.827   5.001   3.654  0.5225 -0.4292  0.1324
  353MOL0     C48620   8.717   4.888   3.665 -1.2210 -0.4089 -0.8477
  353MOL0    Cl48621   8.776   4.723   3.653 -0.1278  0.4027  0.2297
  353MOL0     C48622   9.607   5.525   3.609 -0.9175  1.0892  0.0087
  353MOL0     C48623   9.742   5.565   3.630  0.6420  0.5426 -0.1139
  353MOL0     O48624   9.801   5.879   3.699 -0.3834 -0.6664  0.3053
  353MOL0     C48625  10.151   5.841   3.791  0.6926 -0.7358  0.0986
  353MOL0     C48626  10.267   5.919   3.815 -0.7771 -0.3797 -0.7113
  353MOL0     N48627  10.126   6.660   4.113  0.5461  0.3757  0.4794
  353MOL0     N48628  10.091   6.759   4.197  0.1132 -0.1994 -1.2276
  353MOL0     C48629   9.448   7.391   4.112 -0.3591  0.4731  1.0311
  353MOL0     C48630   9.536   7.504   4.103  0.7215  0.0765 -0.7160
  353MOL0     C48631   9.903   7.749   4.076  0.2274  0.1898  1.0889
  353MOL0     C48632   9.861   7.864   4.141  0.1856 -0.0571 -0.0731
  353MOL0     C48633   9.926   7.991   4.103  0.1117  0.2288 -0.2561
  353MOL0     C48634  10.034   7.997   4.006  0.4609  0.2826  0.4792
  353MOL0     O48635  10.083   8.123   3.987  0.1062  1.0693 -0.0330
  353MOL0     C48636  10.219   8.134   3.959 -0.1453 -1.6127  0.4651
  353MOL0     C48637  10.272   8.277   4.010  0.2519  0.5788  0.4356
  353MOL0     C48638  10.265   8.292   4.159 -0.3066 -0.0867  0.3035
  353MOL0     C48639  10.316   8.436   4.195  0.8704  0.5553  1.0865
  353MOL0     C48640  10.336   8.452   4.340 -0.0034  0.1382  0.1516
  353MOL0     C48641  10.374   8.442   4.456 -0.8502 -0.0198 -0.1540
  353MOL0     C48642  10.075   7.876   3.953  0.4509 -0.2022 -0.4642
  353MOL0     C48643  10.028   7.750   3.997 -0.6859 -0.3971 -0.3416
  353MOL0     C48644  10.106   7.638   3.952  0.3708  0.2198 -0.3280
  353MOL0     H48645   9.688   7.487   4.404  0.7838  2.3121 -0.7005
  353MOL0     H48646   9.518   7.302   4.429  1.5247  1.7509  2.0806
  353MOL0     H48647   9.472   7.085   4.103 -0.7841  1.1601  0.2660
  353MOL0     H48648   9.303   7.121   4.070 -1.5968  1.1967  1.5971
  353MOL0     H48649   9.271   6.963   4.280  1.6657  0.2220  3.5563
  353MOL0     H48650   9.334   6.893   4.128 -1.1732  2.8660 -2.0833
  353MOL0     H48651   9.562   6.971   4.248 -1.3179  0.7607 -1.9070
  353MOL0     H48652   9.456   6.966   4.394  1.5962 -1.6252  1.2270
  353MOL0     H48653   9.393   6.727   4.337 -0.7687 -0.7170 -2.9590
  353MOL0     H48654   9.496   6.734   4.196  3.7622  1.4174 -0.8492
  353MOL0     H48655   9.603   6.608   4.393 -0.8605 -0.5358 -2.9532
  353MOL0     H48656   9.561   6.753   4.487 -3.0249 -2.1178 -0.8818
  353MOL0     H48657   9.788   6.726   4.264  1.4149  0.4892  0.9727
  353MOL0     H48658   9.738   6.872   4.329 -1.8199 -0.9032 -0.4657
  353MOL0     H48659   9.846   6.627   4.489  1.7990 -0.5770  1.2428
  353MOL0     H48660   9.816   6.781   4.569 -0.2116 -1.7179  0.7945
  353MOL0     H48661   9.954   6.887   4.383 -2.7815 -0.5194 -3.3271
  353MOL0     H48662  10.050   6.778   4.489  1.8919  0.0340 -1.2552
  353MOL0     H48663   9.976   6.492   4.352 -0.3675  0.2569  0.7586
  353MOL0     H48664  10.120   6.390   4.018  2.2727  2.2555 -0.4447
  353MOL0     H48665  10.044   6.318   4.149  2.1854 -2.1413 -2.9866
  353MOL0     H48666  10.334   6.422   4.135  1.5165 -4.2631 -4.6718
  353MOL0     H48667  10.264   6.354   4.288  1.4268 -2.2915 -0.4773
  353MOL0     H48668  10.392   6.188   4.198  1.0642 -4.2178 -3.2097
  353MOL0     H48669  10.232   6.142   4.138 -0.7851 -0.0073 -0.0609
  353MOL0     H48670  10.304   6.307   3.932  1.9652  0.8309 -0.8001
  353MOL0     H48671  10.456   6.280   4.006  0.5247  0.3145 -2.4239
  353MOL0     H48672  10.120   6.216   3.898 -0.5983  0.7481 -1.3867
  353MOL0     H48673   9.910   6.210   3.895  1.8884 -1.4158 -0.7402
  353MOL0     H48674   9.813   6.063   3.911 -0.5857 -0.7481 -1.5123
  353MOL0     H48675   9.838   6.131   3.751  0.4670 -0.4997 -1.3923
  353MOL0     H48676   9.708   5.692   3.942  1.5595  0.1627 -0.0367
  353MOL0     H48677   9.509   5.609   3.921  2.0294 -0.2771  0.3039
  353MOL0     H48678   9.352   5.440   3.507 -2.6320  0.6056 -0.4056
  353MOL0     H48679   9.448   5.337   3.605  1.0018  2.2792 -0.7081
  353MOL0     H48680   9.246   5.271   3.740  4.3211  1.7402  0.5214
  353MOL0     H48681   9.150   5.404   3.673  2.9729  2.6728 -0.3123
  353MOL0     H48682   9.276   5.190   3.491  0.6494 -0.7757  1.8062
  353MOL0     H48683   9.140   5.308   3.456 -0.3182  1.0766  1.0109
  353MOL0     H48684   9.028   5.183   3.662  1.5960  0.2700  1.7516
  353MOL0     H48685   9.122   5.053   3.626 -0.1402  2.0747  3.1253
  353MOL0     H48686   8.911   5.182   3.439  0.6849  0.7434 -0.9039
  353MOL0     H48687   9.037   5.074   3.378  1.9530  4.1246 -0.3378
  353MOL0     H48688   8.961   4.894   3.521 -0.5468 -0.7591 -0.6468
  353MOL0     H48689   8.826   4.950   3.434  2.5699 -0.5112 -1.3953
  353MOL0     H48690   8.785   5.101   3.662 -0.7824 -1.1014  3.0991
  353MOL0     H48691   8.907   4.984   3.726  1.9088  0.8694 -1.0254
  353MOL0     H48692   8.645   4.903   3.584 -4.5094 -0.1812  1.8640
  353MOL0     H48693   8.660   4.897   3.758  0.7849  2.5391  0.2360
  353MOL0     H48694   9.585   5.497   3.506 -0.1224  1.2678 -0.2179
  353MOL0     H48695   9.812   5.560   3.547 -0.2896 -3.6317 -0.8723
  353MOL0     H48696  10.157   5.735   3.771  1.4920 -0.3795 -1.7531
  353MOL0     H48697  10.368   5.885   3.798 -1.4810 -2.3220 -1.2511
  353MOL0     H48698   9.385   7.344   4.037  0.9369  0.3542 -0.0256
  353MOL0     H48699   9.542   7.559   4.010  0.7119  1.5276  0.1173
  353MOL0     H48700   9.770   7.882   4.198  1.5532  0.9065  1.8974
  353MOL0     H48701   9.907   8.078   4.164  3.6722 -0.7777  2.6098
  353MOL0     H48702  10.270   8.049   4.006  1.8564 -1.6719 -1.6739
  353MOL0     H48703  10.232   8.120   3.852  1.6138 -2.8580  0.7975
  353MOL0     H48704  10.211   8.354   3.962 -1.3575 -0.5240  0.6082
  353MOL0     H48705  10.377   8.280   3.981 -0.0366  0.2380 -0.6777
  353MOL0     H48706  10.160   8.286   4.189 -0.0087 -0.7157  1.2525
  353MOL0     H48707  10.317   8.212   4.213  2.3846  0.9722 -0.5587
  353MOL0     H48708  10.240   8.512   4.172  2.4123  0.9942 -3.4959
  353MOL0     H48709  10.408   8.458   4.141  1.1009 -1.1964  0.7101
  353MOL0     H48710  10.440   8.430   4.539  2.8798  2.8079 -2.3839
  353MOL0     H48711  10.146   7.868   3.871 -0.5704 -3.1758 -1.1741
  353MOL0     H48712  10.057   7.597   3.863 -1.2581 -0.0782  0.6687
  353MOL0     H48713  10.212   7.660   3.941  0.0962  1.8003 -0.0381
  353MOL0     H48714  10.108   7.554   4.023  0.2107 -1.2803 -2.0178
  354MOL0     O48715   5.325   3.579   4.136  0.0029 -0.5661  0.6903
  354MOL0     C48716   5.319   3.657   4.039 -0.4568  0.4121  0.2802
  354MOL0     O48717   5.232   3.654   3.934 -0.5584  0.2418 -0.6552
  354MOL0     C48718   5.168   3.532   3.905 -0.5129  0.1366  0.2010
  354MOL0     C48719   5.035   3.531   3.879  0.4502  0.2631 -0.0559
  354MOL0     C48720   4.960   3.413   3.857 -0.3150  0.3056 -0.9438
  354MOL0     C48721   5.028   3.290   3.861 -0.2312  0.1084  0.0844
  354MOL0     O48722   4.978   3.162   3.820  0.9942 -0.2883  0.1551
  354MOL0     C48723   4.863   3.162   3.730  0.3585  0.2441  0.3698
  354MOL0     C48724   4.784   3.038   3.745 -1.2908  0.7361  0.2364
  354MOL0     C48725   4.661   3.000   3.650  0.4465  0.4663 -0.2199
  354MOL0     C48726   4.545   3.103   3.666  0.1692  0.4214 -0.7226
  354MOL0     C48727   4.435   3.062   3.565  0.1260  0.3776 -0.0951
  354MOL0     C48728   4.296   3.113   3.598 -0.1517 -0.6902 -0.4151
  354MOL0     C48729   4.175   3.058   3.517  0.0211  0.3228  0.1323
  354MOL0     C48730   4.066   3.167   3.505 -1.3674  0.5964  0.1894
  354MOL0     N48731   3.978   3.110   3.406 -0.9287  0.0296 -0.1530
  354MOL0     C48732   3.986   3.146   3.276  0.4768  0.3729  0.2232
  354MOL0     C48733   3.869   3.090   3.233 -0.7789 -0.3660  1.0633
  354MOL0     C48734   3.822   3.118   3.100  0.4953 -0.2677 -0.0240
  354MOL0     C48735   3.792   3.262   3.063  0.8677 -0.3867 -0.3273
  354MOL0     C48736   3.711   3.268   2.933  0.6395 -0.2338  1.2335
  354MOL0     C48737   3.561   3.238   2.955  1.0052 -0.2901  1.2006
  354MOL0     O48738   3.526   3.098   2.933  0.1758  0.0606  0.1822
  354MOL0     C48739   3.468   3.071   2.813 -0.3863 -0.1340 -0.3187
  354MOL0     C48740   3.515   3.119   2.688 -0.3259  0.0690 -0.0089
  354MOL0     C48741   3.477   3.061   2.565  0.3052  0.1011  0.4146
  354MOL0     C48742   3.537   3.115   2.434 -0.1605  0.3573 -1.1572
  354MOL0     C48743   3.366   2.966   2.565 -0.3697 -0.6124  0.0486
  354MOL0     C48744   3.303   2.900   2.441 -0.2199  0.2820 -0.3351
  354MOL0     O48745   3.212   2.797   2.466 -0.3965 -0.0980 -0.7531
  354MOL0     C48746   3.133   2.784   2.353  0.3631 -0.1036  0.2656
  354MOL0     C48747   3.022   2.862   2.325 -0.3625 -0.0358  0.7117
  354MOL0     C48748   2.945   2.852   2.214 -0.0800  0.2335  0.3205
  354MOL0     C48749   2.969   2.747   2.124  0.3165  0.0795  1.3480
  354MOL0     O48750   2.888   2.739   2.011  0.2756  0.8313 -0.9491
  354MOL0     C48751   2.759   2.802   1.999  0.7544 -1.0509 -0.1924
  354MOL0     C48752   2.701   2.799   1.864 -0.0486  0.4438  0.5097
  354MOL0     C48753   2.562   2.851   1.864  0.4969  0.5894  0.6976
  354MOL0     C48754   2.500   2.806   1.718  0.0979  0.0129  0.6215
  354MOL0     C48755   2.360   2.870   1.725 -0.2719 -0.4633 -0.1775
  354MOL0     C48756   2.287   2.842   1.590  0.2556 -0.2818 -0.5339
  354MOL0     C48757   2.144   2.907   1.574  0.0367  0.7459 -0.0545
  354MOL0     C48758   2.074   2.873   1.444 -0.2044 -0.0313  0.0562
  354MOL0    Cl48759   2.039   2.698   1.447 -0.0846  0.2634  0.2070
  354MOL0     C48760   3.080   2.658   2.149 -0.1493  0.7588  0.6988
  354MOL0     C48761   3.156   2.679   2.261  0.7220 -0.4521  0.8506
  354MOL0     O48762   3.323   2.954   2.329 -0.5975  0.1054  0.2279
  354MOL0     C48763   3.306   2.926   2.693  0.2850 -0.8909 -0.5578
  354MOL0     C48764   3.363   2.982   2.814  0.1985 -0.3168  0.5262
  354MOL0     N48765   3.809   3.016   3.333 -0.2438 -0.3160 -0.8511
  354MOL0     N48766   3.872   3.032   3.437  0.7933  0.4974  0.0944
  354MOL0     C48767   5.170   3.292   3.888  0.0585  0.2449 -0.7204
  354MOL0     C48768   5.227   3.406   3.921 -1.5661  0.2114  0.9704
  354MOL0     C48769   5.384   3.787   4.047 -0.5863  0.4768 -0.7146
  354MOL0     C48770   5.313   3.909   4.015 -0.1248  0.0480 -0.2521
  354MOL0     C48771   5.361   4.037   4.052  0.2161 -0.5945 -0.5889
  354MOL0     C48772   5.490   4.044   4.119 -0.1950 -0.3558  0.1514
  354MOL0     O48773   5.540   4.155   4.167 -0.2219 -0.5285  0.6314
  354MOL0     C48774   5.485   4.278   4.116  0.0671  0.0186 -0.1301
  354MOL0     C48775   5.551   4.404   4.191 -0.8482  0.1517  0.3789
  354MOL0     C48776   5.537   4.538   4.113 -0.0552  0.2050 -0.5046
  354MOL0     C48777   5.664   4.560   4.045  0.7506 -0.0177  0.8381
  354MOL0     C48778   5.675   4.620   3.915  0.8074  0.9314  1.1935
  354MOL0     C48779   5.671   4.665   3.803 -0.0952 -0.2320 -0.2623
  354MOL0     C48780   5.559   3.931   4.152 -0.0043  0.0443 -0.3930
  354MOL0     C48781   5.505   3.801   4.121  0.2491 -0.0851 -0.5222
  354MOL0     C48782   5.594   3.688   4.160 -0.3836 -0.4184 -0.4982
  354MOL0     H48783   4.983   3.625   3.897  0.8840  0.2027  1.7596
  354MOL0     H48784   4.852   3.419   3.841 -1.2600 -1.5623  3.2289
  354MOL0     H48785   4.889   3.168   3.624  0.0052 -1.9188  0.1158
  354MOL0     H48786   4.790   3.242   3.744  1.5402  1.1055  1.9883
  354MOL0     H48787   4.851   2.953   3.727 -1.2854  1.2518 -2.6335
  354MOL0     H48788   4.755   3.029   3.851 -3.4446 -0.6392 -0.3948
  354MOL0     H48789   4.693   3.008   3.545  2.2024  4.6049  0.4622
  354MOL0     H48790   4.625   2.901   3.679 -0.7690  0.7435 -0.7000
  354MOL0     H48791   4.514   3.102   3.771  0.4155 -3.5198 -0.5287
  354MOL0     H48792   4.584   3.201   3.639 -1.1224  0.5887 -2.1111
  354MOL0     H48793   4.424   2.953   3.563 -1.0208  0.4889 -0.6659
  354MOL0     H48794   4.463   3.096   3.465  3.3869 -3.2761 -0.6602
  354MOL0     H48795   4.271   3.093   3.703 -0.4236 -1.6560 -0.6578
  354MOL0     H48796   4.306   3.219   3.574 -1.1702 -1.1361 -3.1726
  354MOL0     H48797   4.136   2.966   3.561 -2.1167  1.3111  0.4271
  354MOL0     H48798   4.209   3.043   3.414 -3.4810  0.2358 -1.1305
  354MOL0     H48799   4.004   3.168   3.595 -1.3166  1.7066  0.2205
  354MOL0     H48800   4.105   3.263   3.468 -0.7892 -0.9070 -3.6141
  354MOL0     H48801   4.053   3.215   3.226 -2.5236  1.6446 -2.4369
  354MOL0     H48802   3.726   3.066   3.100  0.0240  0.5230  1.6871
  354MOL0     H48803   3.890   3.075   3.026 -0.5255 -1.2594 -0.4172
  354MOL0     H48804   3.733   3.317   3.137 -1.9936 -2.2628 -1.0773
  354MOL0     H48805   3.888   3.315   3.060 -0.5488  2.7564  2.4361
  354MOL0     H48806   3.718   3.368   2.891 -0.5604 -1.0297 -1.0407
  354MOL0     H48807   3.747   3.203   2.853 -2.4438 -3.1351  1.9965
  354MOL0     H48808   3.543   3.264   3.060  2.7799 -0.7990  1.6687
  354MOL0     H48809   3.501   3.305   2.892  1.4008  0.8732  2.0237
  354MOL0     H48810   3.595   3.192   2.687 -0.2604  0.0001  0.1767
  354MOL0     H48811   3.558   3.027   2.373  1.4218 -1.2017  1.4474
  354MOL0     H48812   3.636   3.163   2.442  0.2754 -0.7582  0.7054
  354MOL0     H48813   3.464   3.185   2.392 -3.7499 -1.4444  1.5585
  354MOL0     H48814   3.010   2.933   2.405  1.8916 -0.2028  1.2694
  354MOL0     H48815   2.863   2.923   2.207 -0.6396 -0.5550 -3.1233
  354MOL0     H48816   2.693   2.755   2.072  1.3371 -0.7641  0.5397
  354MOL0     H48817   2.768   2.908   2.025  0.4636 -0.9930 -0.3287
  354MOL0     H48818   2.763   2.868   1.806 -0.2117 -0.8087 -1.2427
  354MOL0     H48819   2.703   2.697   1.825  0.0740  1.2706 -1.7879
  354MOL0     H48820   2.563   2.959   1.881  1.7547  0.8621 -0.9043
  354MOL0     H48821   2.513   2.797   1.945 -2.4309  2.0579  0.0490
  354MOL0     H48822   2.485   2.698   1.710 -2.1929  0.0195  3.3317
  354MOL0     H48823   2.564   2.849   1.640  0.9385  1.8522  2.2282
  354MOL0     H48824   2.300   2.824   1.804 -0.2741  0.1055  0.1599
  354MOL0     H48825   2.369   2.977   1.749  0.6480  0.5700 -4.3644
  354MOL0     H48826   2.276   2.734   1.575 -0.9161 -0.1649 -0.6596
  354MOL0     H48827   2.338   2.889   1.506  0.3368  0.4601 -0.0817
  354MOL0     H48828   2.138   3.016   1.578 -3.0238  0.6475  0.8308
  354MOL0     H48829   2.078   2.876   1.655 -1.3815  3.2637 -0.1483
  354MOL0     H48830   2.139   2.895   1.359  0.6560 -5.2534 -0.9467
  354MOL0     H48831   1.983   2.932   1.426 -0.6978 -1.1698 -1.3371
  354MOL0     H48832   3.093   2.581   2.073 -1.1874 -1.2956  2.4759
  354MOL0     H48833   3.236   2.609   2.284  1.4741  0.3269  0.6520
  354MOL0     H48834   3.221   2.859   2.691 -0.6769  0.3047 -2.6155
  354MOL0     H48835   3.340   2.942   2.912  4.1871 -3.5014  0.4465
  354MOL0     H48836   5.223   3.198   3.896 -1.3734 -0.4284  1.6917
  354MOL0     H48837   5.332   3.408   3.948 -1.1334  1.7519 -0.6854
  354MOL0     H48838   5.214   3.892   3.974  0.2238 -2.4884 -0.2148
  354MOL0     H48839   5.294   4.117   4.021  2.0178  1.0843 -0.3809
  354MOL0     H48840   5.513   4.283   4.010  2.1133  2.1538  0.4297
  354MOL0     H48841   5.377   4.281   4.134  0.3249 -3.1165  3.2237
  354MOL0     H48842   5.653   4.379   4.222 -0.9418 -4.7499 -2.2305
  354MOL0     H48843   5.484   4.432   4.273 -4.2973 -0.0874 -2.1350
  354MOL0     H48844   5.462   4.530   4.034 -0.6398  1.1342 -0.0522
  354MOL0     H48845   5.536   4.630   4.172  2.3329  0.8623 -1.3476
  354MOL0     H48846   5.704   4.460   4.025  1.4239  0.8652 -2.8251
  354MOL0     H48847   5.735   4.604   4.117  1.7958 -2.0086  1.1129
  354MOL0     H48848   5.676   4.719   3.710 -0.9744  0.6030  0.1493
  354MOL0     H48849   5.648   3.929   4.215  0.1574  0.3463 -0.6103
  354MOL0     H48850   5.576   3.602   4.095  0.9597  0.7432 -2.5130
  354MOL0     H48851   5.699   3.714   4.141 -1.0791  1.2382 -2.5792
  354MOL0     H48852   5.580   3.679   4.268 -0.4488 -0.5777 -0.5203
  355MOL0     O48853   8.643   1.202   6.315  0.0597  0.0866 -1.0538
  355MOL0     C48854   8.674   1.192   6.202 -0.1237 -0.7272  0.1459
  355MOL0     O48855   8.750   1.090   6.152  0.9433 -0.0336  0.2510
  355MOL0     C48856   8.832   1.015   6.231 -0.4541 -0.9444  0.2716
  355MOL0     C48857   8.853   0.883   6.183  0.8102 -0.2021 -0.0653
  355MOL0     C48858   8.933   0.788   6.247  0.8137  0.3890  0.5170
  355MOL0     C48859   9.010   0.837   6.364  0.3054 -0.7382 -0.1510
  355MOL0     O48860   9.097   0.755   6.428  0.5182  0.2648  0.4388
  355MOL0     C48861   9.161   0.645   6.367  0.4546  0.2753  0.4206
  355MOL0     C48862   9.282   0.582   6.442 -0.9730  0.2207 -0.1044
  355MOL0     C48863   9.264   0.540   6.581  0.7432 -1.0895  0.7539
  355MOL0     C48864   9.381   0.484   6.648 -0.0311 -0.2187  0.1748
  355MOL0     C48865   9.336   0.393   6.766  0.1721  0.8480  0.7059
  355MOL0     C48866   9.335   0.249   6.717 -0.1165  0.6237 -0.3615
  355MOL0     C48867   9.282   0.157   6.833 -1.2020 -0.0417 -0.7938
  355MOL0     C48868   9.403   0.096   6.902  1.1035  0.2757  0.6070
  355MOL0     N48869   9.369  -0.012   6.998  0.4091 -0.1002  0.2829
  355MOL0     C48870   9.271  -0.103   6.982 -0.0701  0.4037 -0.0853
  355MOL0     C48871   9.253  -0.156   7.110  0.0457  0.4770  0.3277
  355MOL0     C48872   9.174  -0.288   7.142 -0.3774  1.1866 -0.5431
  355MOL0     C48873   9.263  -0.416   7.156  0.6400  0.8407 -0.2249
  355MOL0     C48874   9.192  -0.551   7.151  0.7504  1.2162 -0.4756
  355MOL0     C48875   9.294  -0.661   7.150  0.6854  0.3688 -0.4252
  355MOL0     O48876   9.232  -0.787   7.124  0.0459  0.2726 -0.3923
  355MOL0     C48877   9.198  -0.821   6.996  0.3118  1.0265  0.4424
  355MOL0     C48878   9.247  -0.752   6.883  0.4912  0.0781  0.0972
  355MOL0     C48879   9.200  -0.790   6.755  0.0528  1.4536  0.0203
  355MOL0     C48880   9.264  -0.724   6.640  0.5033  1.0221  0.7373
  355MOL0     C48881   9.103  -0.893   6.744 -0.3481  0.4506  0.6897
  355MOL0     C48882   9.024  -0.923   6.624  0.5683  0.5121 -0.3556
  355MOL0     O48883   8.950  -1.045   6.620 -0.2240 -0.8459 -0.2237
  355MOL0     C48884   8.899  -1.078   6.502 -0.1041 -0.0073  0.6521
  355MOL0     C48885   8.787  -1.024   6.446 -0.0979 -0.0818  0.6472
  355MOL0     C48886   8.737  -1.067   6.331 -0.7411 -0.0946  0.9267
  355MOL0     C48887   8.801  -1.183   6.270  0.2014 -0.9154  0.7008
  355MOL0     O48888   8.774  -1.237   6.149 -0.7075 -0.5429  0.0320
  355MOL0     C48889   8.693  -1.152   6.063 -0.2602  0.2980  0.8669
  355MOL0     C48890   8.697  -1.227   5.927  0.4691 -0.8433  1.0304
  355MOL0     C48891   8.612  -1.152   5.817  0.2961 -0.4548 -0.3700
  355MOL0     C48892   8.565  -1.221   5.691 -0.2536 -0.0681  0.0157
  355MOL0     C48893   8.506  -1.134   5.588 -0.0898 -0.6346 -0.4730
  355MOL0     C48894   8.506  -1.207   5.451  0.4804 -0.0380  0.3183
  355MOL0     C48895   8.463  -1.105   5.344  0.8031 -0.2671  0.0269
  355MOL0     C48896   8.441  -1.167   5.203  0.5849 -0.4822 -0.3342
  355MOL0    Cl48897   8.271  -1.186   5.158 -0.4008  0.2749 -0.5606
  355MOL0     C48898   8.909  -1.247   6.335  0.1499 -0.6824  0.3102
  355MOL0     C48899   8.955  -1.193   6.454  0.5700 -0.4811 -0.4351
  355MOL0     O48900   9.005  -0.829   6.548 -0.3194 -0.2060  0.0321
  355MOL0     C48901   9.059  -0.953   6.858  0.7297 -0.1864  0.1398
  355MOL0     C48902   9.095  -0.912   6.986 -0.9210 -0.0659 -0.0540
  355MOL0     N48903   9.341  -0.085   7.195 -0.0956  0.0597  0.0911
  355MOL0     N48904   9.399   0.005   7.130 -0.8360 -0.3491  0.6091
  355MOL0     C48905   8.994   0.973   6.408 -0.4612 -0.5154 -0.5028
  355MOL0     C48906   8.898   1.061   6.350 -0.3887 -0.3810  0.2674
  355MOL0     C48907   8.612   1.292   6.105  0.4878  0.1434  0.0515
  355MOL0     C48908   8.565   1.246   5.978 -0.0977  0.1639  0.3913
  355MOL0     C48909   8.520   1.333   5.886  0.6721  0.4053  0.2847
  355MOL0     C48910   8.512   1.471   5.916 -0.0130  1.3505  0.5289
  355MOL0     O48911   8.467   1.575   5.827 -0.8611  0.5209  0.0660
  355MOL0     C48912   8.404   1.527   5.702 -0.0537 -0.7634 -0.6308
  355MOL0     C48913   8.279   1.442   5.707  1.0330  0.2692 -0.1286
  355MOL0     C48914   8.147   1.522   5.724  0.0596  0.4744  0.3477
  355MOL0     C48915   8.024   1.421   5.737  0.0849  0.3009 -1.0724
  355MOL0     C48916   7.942   1.440   5.862  0.6205 -0.0001  0.7068
  355MOL0     C48917   7.880   1.418   5.958  0.2572  0.5938  0.1381
  355MOL0     C48918   8.563   1.517   6.034  0.6090 -0.7252 -0.2755
  355MOL0     C48919   8.620   1.433   6.125  0.5817 -0.5522 -0.0918
  355MOL0     C48920   8.695   1.492   6.243  0.1824  0.5445  0.6055
  355MOL0     H48921   8.797   0.869   6.092  0.1462 -0.4110  0.3712
  355MOL0     H48922   8.944   0.685   6.214 -1.5241  0.0259  0.7551
  355MOL0     H48923   9.202   0.684   6.273 -2.5039 -1.9336 -2.0111
  355MOL0     H48924   9.084   0.575   6.334 -1.8141  2.0559  1.6130
  355MOL0     H48925   9.323   0.491   6.396  1.0227  0.7245  0.5501
  355MOL0     H48926   9.366   0.652   6.450 -0.7520 -0.2044  2.1074
  355MOL0     H48927   9.211   0.619   6.636  1.2175  2.9726 -3.8929
  355MOL0     H48928   9.196   0.456   6.564 -3.2039  1.7933  0.9122
  355MOL0     H48929   9.445   0.422   6.585 -0.0401 -1.8820  1.7242
  355MOL0     H48930   9.436   0.567   6.693 -1.9779  1.5096 -0.4528
  355MOL0     H48931   9.233   0.417   6.796  0.0272 -0.3175  1.1890
  355MOL0     H48932   9.395   0.406   6.856  0.3011  0.0062  0.7541
  355MOL0     H48933   9.273   0.234   6.629  3.0696  2.6656 -3.1802
  355MOL0     H48934   9.432   0.214   6.679 -0.5616  0.2462 -1.1659
  355MOL0     H48935   9.237   0.067   6.791 -0.1193 -0.7680 -0.4488
  355MOL0     H48936   9.227   0.213   6.909 -1.2874  0.6725 -1.3689
  355MOL0     H48937   9.479   0.061   6.832 -1.3503 -0.7382 -1.7272
  355MOL0     H48938   9.441   0.184   6.955  1.9506  0.4766 -0.3070
  355MOL0     H48939   9.230  -0.142   6.890  1.5125 -0.5878 -0.4029
  355MOL0     H48940   9.112  -0.299   7.053 -2.7864 -0.9426  1.2462
  355MOL0     H48941   9.111  -0.283   7.232 -2.3414  0.9821 -1.8458
  355MOL0     H48942   9.311  -0.410   7.058  2.3968  1.1553  0.6264
  355MOL0     H48943   9.342  -0.420   7.231 -0.5877 -1.8206  1.0298
  355MOL0     H48944   9.118  -0.571   7.230 -0.8091 -0.4495 -2.2423
  355MOL0     H48945   9.140  -0.564   7.055  1.6827 -2.7163 -0.6086
  355MOL0     H48946   9.376  -0.653   7.078  0.6564 -0.1988 -0.5288
  355MOL0     H48947   9.337  -0.672   7.250 -0.5297 -0.3532  0.0387
  355MOL0     H48948   9.322  -0.674   6.889 -1.2239  2.0007 -1.8092
  355MOL0     H48949   9.305  -0.801   6.575 -1.0440 -0.9515  1.9712
  355MOL0     H48950   9.353  -0.666   6.667  2.0716 -0.5861 -0.7186
  355MOL0     H48951   9.202  -0.654   6.583  0.4204  0.9699  0.7625
  355MOL0     H48952   8.737  -0.941   6.495 -1.6185  0.2584 -1.3853
  355MOL0     H48953   8.649  -1.021   6.288 -0.1925  1.3502  1.2850
  355MOL0     H48954   8.595  -1.169   6.107 -1.0385 -2.3292 -1.5863
  355MOL0     H48955   8.718  -1.048   6.038  1.7837 -1.1325 -4.7361
  355MOL0     H48956   8.804  -1.228   5.907  0.4944  1.2974  0.7945
  355MOL0     H48957   8.666  -1.331   5.943 -0.4397 -0.4184  2.1988
  355MOL0     H48958   8.675  -1.068   5.785  0.7026 -0.1302  1.1810
  355MOL0     H48959   8.528  -1.109   5.874  0.7174 -1.3969  1.0116
  355MOL0     H48960   8.498  -1.301   5.724 -0.4007  0.5080  1.1662
  355MOL0     H48961   8.658  -1.267   5.659  0.1874 -0.5985  1.8975
  355MOL0     H48962   8.405  -1.106   5.620  1.8787  4.5673  2.4547
  355MOL0     H48963   8.554  -1.036   5.578  0.3044 -0.7150  0.5530
  355MOL0     H48964   8.447  -1.297   5.472  0.8334  0.5479  4.9975
  355MOL0     H48965   8.604  -1.235   5.413  0.2821  0.0784 -0.2859
  355MOL0     H48966   8.542  -1.033   5.323  1.4016 -1.5516 -2.5779
  355MOL0     H48967   8.367  -1.062   5.374 -0.2614 -0.6896 -2.5248
  355MOL0     H48968   8.484  -1.266   5.188 -2.4389 -2.0210  0.4203
  355MOL0     H48969   8.488  -1.099   5.131  2.8209 -0.0073  1.4473
  355MOL0     H48970   8.956  -1.333   6.288  0.2589 -1.5298  1.9284
  355MOL0     H48971   9.035  -1.241   6.510  0.6225  0.2675  0.1529
  355MOL0     H48972   8.962  -1.001   6.853 -0.3517  1.8906  0.3127
  355MOL0     H48973   9.058  -0.956   7.078  0.6235  0.4281  0.8339
  355MOL0     H48974   9.042   1.012   6.497 -2.2102 -3.5732  2.0032
  355MOL0     H48975   8.881   1.153   6.404  1.3669  0.2994 -0.2484
  355MOL0     H48976   8.566   1.143   5.946  0.3144  0.2626  0.0659
  355MOL0     H48977   8.490   1.298   5.787 -1.2300 -0.1365  1.0184
  355MOL0     H48978   8.378   1.616   5.644  5.7851  2.9519  1.5363
  355MOL0     H48979   8.491   1.482   5.652  1.9093  1.3029  0.6997
  355MOL0     H48980   8.276   1.362   5.782 -4.8983 -1.6093 -1.8391
  355MOL0     H48981   8.275   1.399   5.606  0.9885 -1.1477  0.4530
  355MOL0     H48982   8.160   1.572   5.820  4.1749 -1.1437  0.8212
  355MOL0     H48983   8.116   1.596   5.650 -2.6692 -0.6109  0.2916
  355MOL0     H48984   8.071   1.322   5.735 -4.9428 -2.4037 -0.5805
  355MOL0     H48985   7.962   1.427   5.647 -1.2191 -2.7892 -0.5019
  355MOL0     H48986   7.834   1.387   6.050  0.2370  1.0727  0.2897
  355MOL0     H48987   8.545   1.623   6.049  0.4293 -0.0227 -4.2509
  355MOL0     H48988   8.786   1.431   6.253  0.3418 -0.1096 -3.2689
  355MOL0     H48989   8.732   1.589   6.209  2.3663 -1.1031 -2.1602
  355MOL0     H48990   8.632   1.486   6.332  1.8415  0.2613  1.8294
  356MOL0     O48991   7.164   8.479   8.524 -0.1131  0.5215  0.7408
  356MOL0     C48992   7.248   8.507   8.605 -0.3554  0.5962  0.4444
  356MOL0     O48993   7.227   8.498   8.737 -0.2897 -0.0088  0.3981
  356MOL0     C48994   7.101   8.511   8.790  0.5333  0.0285 -0.2614
  356MOL0     C48995   7.009   8.407   8.778 -0.2429  0.0709  0.0342
  356MOL0     C48996   6.875   8.422   8.837  0.3582 -0.1040 -0.3637
  356MOL0     C48997   6.841   8.533   8.918 -0.4303 -0.0464  0.2136
  356MOL0     O48998   6.717   8.538   8.977 -0.8275 -0.3431  0.2177
  356MOL0     C48999   6.689   8.650   9.065 -0.1145  0.5869 -0.3540
  356MOL0     C49000   6.549   8.620   9.133 -0.3773  0.5530 -0.3332
  356MOL0     C49001   6.433   8.611   9.025 -0.2464  0.2054 -1.1083
  356MOL0     C49002   6.295   8.593   9.087 -0.2901  0.0298 -0.4607
  356MOL0     C49003   6.201   8.600   8.967  0.3752 -0.8540 -1.0648
  356MOL0     C49004   6.047   8.577   9.014  0.0251 -0.6821  0.2418
  356MOL0     C49005   5.983   8.475   8.929 -0.6774 -0.5498  0.3158
  356MOL0     C49006   5.988   8.508   8.777 -0.4860 -0.5355 -0.4396
  356MOL0     N49007   5.894   8.396   8.729 -0.2583  0.6803  0.0146
  356MOL0     C49008   5.756   8.398   8.738  0.6677  0.4849  0.2233
  356MOL0     C49009   5.713   8.276   8.694 -1.4193  0.1864 -0.5472
  356MOL0     C49010   5.569   8.232   8.681 -0.5435 -0.3543 -0.6273
  356MOL0     C49011   5.473   8.360   8.689  0.1132  0.4013  0.8208
  356MOL0     C49012   5.332   8.325   8.697 -0.2035 -0.2087 -0.1057
  356MOL0     C49013   5.234   8.448   8.705 -0.9464  0.9106 -0.1397
  356MOL0     O49014   5.235   8.506   8.836  0.6884  0.2975  0.0019
  356MOL0     C49015   5.230   8.431   8.953 -0.0838  0.1482  0.7388
  356MOL0     C49016   5.104   8.390   8.983 -0.0246  0.2507 -0.1703
  356MOL0     C49017   5.066   8.352   9.117 -0.2864 -0.3249  0.1663
  356MOL0     C49018   4.917   8.334   9.147  0.5451  0.9773  0.2041
  356MOL0     C49019   5.176   8.316   9.201  0.5264 -0.5136  0.0756
  356MOL0     C49020   5.153   8.285   9.342  0.4841  0.1383 -0.0731
  356MOL0     O49021   5.224   8.349   9.443 -0.0151 -0.1450 -0.1549
  356MOL0     C49022   5.174   8.348   9.574  0.2091  0.0973  0.1804
  356MOL0     C49023   5.088   8.444   9.626  0.7520 -1.0064  0.7828
  356MOL0     C49024   5.044   8.440   9.759 -0.3978 -0.3366  0.0005
  356MOL0     C49025   5.099   8.349   9.846  0.0989  0.1521  0.0360
  356MOL0     O49026   5.062   8.344   9.979  1.0907  0.5781 -0.3146
  356MOL0     C49027   5.143   8.270  10.080  0.0937  0.9644  0.4532
  356MOL0     C49028   5.111   8.304  10.228 -0.2583  0.2722  0.2047
  356MOL0     C49029   5.061   8.186  10.315 -0.1938 -1.0112  0.8393
  356MOL0     C49030   5.030   8.235  10.457 -0.2889  0.1585 -1.0796
  356MOL0     C49031   4.941   8.123  10.529  0.4212  0.2479  0.4926
  356MOL0     C49032   4.902   8.167  10.671 -0.3121  0.0051 -0.7138
  356MOL0     C49033   4.795   8.075  10.736  0.2417  0.2528  0.1543
  356MOL0     C49034   4.856   7.950  10.799  0.5566 -0.5838 -0.5684
  356MOL0    Cl49035   4.734   7.816  10.835  0.0516  0.4924 -0.3626
  356MOL0     C49036   5.175   8.243   9.797  0.6906  0.4364 -0.2134
  356MOL0     C49037   5.214   8.244   9.662 -0.2688  0.2449  0.0938
  356MOL0     O49038   5.071   8.190   9.357 -0.0329 -0.2513 -1.0767
  356MOL0     C49039   5.307   8.346   9.171  0.2107  0.2092  0.3883
  356MOL0     C49040   5.336   8.412   9.048  0.5243 -0.0716 -1.4214
  356MOL0     N49041   5.829   8.201   8.652 -0.3179  0.2608  0.0395
  356MOL0     N49042   5.936   8.275   8.687 -0.2812 -0.9045 -0.4214
  356MOL0     C49043   6.933   8.625   8.924 -0.1813 -1.2778 -0.1565
  356MOL0     C49044   7.061   8.619   8.867 -0.2537  1.1404 -0.1886
  356MOL0     C49045   7.388   8.555   8.571  0.6412  0.1462 -0.3489
  356MOL0     C49046   7.479   8.588   8.671  0.1601  0.9082 -0.2865
  356MOL0     C49047   7.611   8.630   8.644  0.7583 -0.0653 -0.2188
  356MOL0     C49048   7.659   8.661   8.518  0.0716 -0.3278  0.9596
  356MOL0     O49049   7.779   8.717   8.492  0.3346  0.1259  0.5990
  356MOL0     C49050   7.771   8.854   8.441 -0.2685  0.6294 -1.0248
  356MOL0     C49051   7.862   8.869   8.318  0.1968 -0.1988 -0.8341
  356MOL0     C49052   7.845   9.006   8.263  1.0348  0.2962 -0.0600
  356MOL0     C49053   7.756   8.996   8.130 -0.9063 -0.1323 -0.9018
  356MOL0     C49054   7.628   8.950   8.167 -0.3731 -0.1469  0.1610
  356MOL0     C49055   7.520   8.907   8.205 -0.3126  0.7887  0.5061
  356MOL0     C49056   7.560   8.636   8.421  0.4800  0.7029  1.3706
  356MOL0     C49057   7.429   8.576   8.435  0.0006 -0.0493 -0.2752
  356MOL0     C49058   7.347   8.555   8.310  0.4156 -0.0759 -0.1628
  356MOL0     H49059   7.027   8.330   8.704 -0.1300  0.9761 -0.9029
  356MOL0     H49060   6.797   8.356   8.802  1.2164 -0.4506 -1.6843
  356MOL0     H49061   6.679   8.748   9.017  1.5109  0.2651 -1.3923
  356MOL0     H49062   6.761   8.650   9.147 -0.8885  2.9705  0.4376
  356MOL0     H49063   6.552   8.520   9.178 -0.1740  0.3115 -0.8669
  356MOL0     H49064   6.535   8.704   9.201  0.7862 -1.1582  2.1815
  356MOL0     H49065   6.438   8.704   8.967  1.3688 -1.1454 -3.2849
  356MOL0     H49066   6.454   8.526   8.959  0.0985 -1.5447  1.1092
  356MOL0     H49067   6.295   8.495   9.136 -0.3428 -0.8688 -2.1642
  356MOL0     H49068   6.269   8.676   9.154 -2.6658  1.1406 -2.5975
  356MOL0     H49069   6.227   8.522   8.894  1.7975 -1.4483  0.0384
  356MOL0     H49070   6.202   8.698   8.919 -3.7638 -1.4439 -2.7811
  356MOL0     H49071   6.034   8.539   9.116  1.3357 -1.1933  0.2395
  356MOL0     H49072   5.996   8.673   9.008 -0.4979 -0.5768  4.1876
  356MOL0     H49073   5.878   8.460   8.955 -0.1920 -3.1054  1.0522
  356MOL0     H49074   6.025   8.375   8.942 -2.2443 -1.0431  1.8379
  356MOL0     H49075   5.960   8.608   8.742 -0.3011 -0.7280 -1.1493
  356MOL0     H49076   6.088   8.490   8.738 -0.9174 -0.1724 -1.7618
  356MOL0     H49077   5.693   8.476   8.780 -1.3055 -0.2661 -1.1487
  356MOL0     H49078   5.542   8.171   8.768 -1.9461 -2.9417 -2.7436
  356MOL0     H49079   5.562   8.175   8.588  3.6709  0.5841 -1.7696
  356MOL0     H49080   5.488   8.422   8.778 -1.5983  3.2409 -0.7266
  356MOL0     H49081   5.494   8.428   8.606 -4.9512  1.1874 -0.1189
  356MOL0     H49082   5.316   8.275   8.601  0.8873 -5.8368  2.2752
  356MOL0     H49083   5.318   8.252   8.776  0.4670 -0.1463  0.0773
  356MOL0     H49084   5.266   8.518   8.627  2.0332  1.4424  1.4039
  356MOL0     H49085   5.136   8.413   8.671 -1.1345  0.6447  0.6511
  356MOL0     H49086   5.025   8.393   8.909  2.2877  0.7044 -2.7809
  356MOL0     H49087   4.883   8.234   9.121 -0.5606  1.9589 -2.4134
  356MOL0     H49088   4.864   8.403   9.081 -0.0245  3.1575  2.7695
  356MOL0     H49089   4.886   8.367   9.247 -2.0028 -0.8826  0.1362
  356MOL0     H49090   5.065   8.534   9.569  0.8037 -0.2925  1.8588
  356MOL0     H49091   4.967   8.502   9.802 -2.0128 -2.8095  0.8993
  356MOL0     H49092   5.126   8.162  10.075 -0.7823  1.1501 -1.4694
  356MOL0     H49093   5.250   8.283  10.061  0.4830 -1.3374  0.7411
  356MOL0     H49094   5.192   8.349  10.286 -1.3744  2.6131  0.0588
  356MOL0     H49095   5.034   8.382  10.228 -2.4512 -1.7424 -1.8724
  356MOL0     H49096   5.143   8.113  10.318  0.3339 -0.5500 -1.0999
  356MOL0     H49097   4.967   8.142  10.281 -1.8824  0.9467  2.6984
  356MOL0     H49098   4.972   8.328  10.464 -3.2007 -1.5657 -0.8061
  356MOL0     H49099   5.122   8.242  10.516 -1.4245 -2.2540  1.1905
  356MOL0     H49100   4.848   8.106  10.475 -0.1401  1.0905  1.1548
  356MOL0     H49101   4.991   8.026  10.531 -2.4159 -1.3705 -0.6821
  356MOL0     H49102   4.854   8.265  10.662 -0.7563 -0.3355 -2.6432
  356MOL0     H49103   4.983   8.184  10.742  0.3369 -1.2951 -1.1153
  356MOL0     H49104   4.726   8.052  10.654 -1.2460 -2.2454  1.9934
  356MOL0     H49105   4.744   8.133  10.813 -0.4549  1.4841 -1.1869
  356MOL0     H49106   4.926   7.967  10.881  3.0657 -1.9233 -2.2910
  356MOL0     H49107   4.921   7.910  10.721  1.4691  0.4755 -0.3847
  356MOL0     H49108   5.214   8.161   9.856  3.7951  0.9431 -1.3991
  356MOL0     H49109   5.249   8.152   9.618  1.2310  1.0021 -0.3656
  356MOL0     H49110   5.391   8.339   9.239  1.0138  1.6879 -0.4116
  356MOL0     H49111   5.434   8.438   9.011  1.2068 -1.1159 -0.4102
  356MOL0     H49112   6.921   8.712   8.988 -1.3444 -0.8312 -0.9332
  356MOL0     H49113   7.132   8.699   8.887 -1.1722  1.6876  1.0043
  356MOL0     H49114   7.436   8.569   8.769  1.2261 -2.3735 -0.3337
  356MOL0     H49115   7.674   8.639   8.731  1.0308 -1.7884 -0.2158
  356MOL0     H49116   7.668   8.889   8.427  0.5568  2.6752 -2.4819
  356MOL0     H49117   7.822   8.912   8.518  0.7115  0.6985 -1.7057
  356MOL0     H49118   7.838   8.791   8.246  0.1941 -2.6086  1.6399
  356MOL0     H49119   7.968   8.859   8.341  0.6782  1.0783 -2.2570
  356MOL0     H49120   7.794   9.075   8.331 -0.2294 -1.0335  0.4050
  356MOL0     H49121   7.944   9.043   8.235  0.8858  1.5300  0.9804
  356MOL0     H49122   7.798   8.929   8.054  0.9858 -1.7072  1.3580
  356MOL0     H49123   7.756   9.095   8.084 -0.2039  0.0984 -0.4165
  356MOL0     H49124   7.425   8.868   8.236 -0.1508 -0.1588 -0.1624
  356MOL0     H49125   7.587   8.671   8.322 -0.7095  5.9797  2.6312
  356MOL0     H49126   7.305   8.455   8.298 -0.7660  0.6939 -4.3009
  356MOL0     H49127   7.270   8.629   8.288 -1.2388 -2.3350 -2.5070
  356MOL0     H49128   7.417   8.557   8.225  0.2975 -1.9212 -0.3276
  357MOL0     O49129   4.992  10.396   7.637 -0.3487  0.2170  0.3743
  357MOL0     C49130   4.926  10.356   7.735  0.0676 -0.4274  0.3979
  357MOL0     O49131   4.951  10.236   7.798 -0.2491  0.4346  0.0253
  357MOL0     C49132   5.048  10.148   7.755 -0.6533 -0.9928 -1.2205
  357MOL0     C49133   5.015  10.005   7.747 -1.0528  0.6605  0.0433
  357MOL0     C49134   5.111   9.913   7.698  0.9570  0.2390 -1.2418
  357MOL0     C49135   5.244   9.953   7.671 -0.3390  0.6303 -0.6202
  357MOL0     O49136   5.318   9.851   7.623 -0.3109  0.0189 -0.1858
  357MOL0     C49137   5.461   9.847   7.676  0.4217 -0.6881 -0.3588
  357MOL0     C49138   5.532   9.716   7.657 -0.0220  0.4981 -0.2477
  357MOL0     C49139   5.682   9.710   7.718 -0.2514  0.0858 -0.3764
  357MOL0     C49140   5.741   9.579   7.672  0.5576 -0.1343  0.3884
  357MOL0     C49141   5.887   9.611   7.691 -0.3402  0.2805 -0.3537
  357MOL0     C49142   5.981   9.497   7.639  0.0763 -0.5818 -0.1490
  357MOL0     C49143   6.129   9.533   7.656 -0.0001 -0.4582  1.2875
  357MOL0     C49144   6.216   9.429   7.578  0.2620 -0.3000  0.2035
  357MOL0     N49145   6.208   9.297   7.647  0.2302  0.1566 -1.0319
  357MOL0     C49146   6.249   9.274   7.779 -0.3086 -0.1033 -0.6356
  357MOL0     C49147   6.235   9.145   7.800  0.3535  0.1972  0.5417
  357MOL0     C49148   6.243   9.070   7.920  0.0938  0.4697  0.0457
  357MOL0     C49149   6.138   8.950   7.937  0.6741  1.0719 -0.4244
  357MOL0     C49150   6.092   8.922   8.077 -0.0091  0.4545 -0.4222
  357MOL0     C49151   6.042   9.042   8.155 -0.2771  0.1062 -0.3197
  357MOL0     O49152   5.976   9.141   8.079 -0.1433 -0.7911 -0.4411
  357MOL0     C49153   5.855   9.121   8.026 -0.5620  0.6060 -0.3895
  357MOL0     C49154   5.770   9.009   8.061 -0.4972 -1.4135  0.2199
  357MOL0     C49155   5.640   8.988   8.004  0.3604 -1.6292 -0.4933
  357MOL0     C49156   5.558   8.873   8.038 -0.3897 -0.5219 -0.7990
  357MOL0     C49157   5.598   9.096   7.915 -0.2969 -0.9703 -1.1209
  357MOL0     C49158   5.467   9.103   7.857 -0.1723  0.2989 -0.3749
  357MOL0     O49159   5.417   9.233   7.850  0.8271 -0.8782 -0.3223
  357MOL0     C49160   5.294   9.256   7.914  0.6565  0.3473  0.4392
  357MOL0     C49161   5.199   9.325   7.841 -0.0006  0.1787  0.2711
  357MOL0     C49162   5.075   9.349   7.897 -0.2593 -0.1860  0.3658
  357MOL0     C49163   5.040   9.317   8.029  0.8017  0.8812 -0.4740
  357MOL0     O49164   4.917   9.365   8.078  0.2354  0.0811  0.2465
  357MOL0     C49165   4.830   9.263   8.130  0.2990 -0.4504 -0.1676
  357MOL0     C49166   4.725   9.250   8.024 -0.2803 -0.2229 -0.4124
  357MOL0     C49167   4.606   9.182   8.081  0.0908 -0.2110  0.2954
  357MOL0     C49168   4.483   9.166   7.979 -0.4597 -0.2537 -0.3953
  357MOL0     C49169   4.370   9.090   8.051 -0.5585  0.0649 -0.1564
  357MOL0     C49170   4.235   9.106   7.982 -0.8708  0.1569  0.6169
  357MOL0     C49171   4.127   9.039   8.068 -0.0403  0.0564  0.2948
  357MOL0     C49172   4.009   8.993   7.977  0.5788 -0.7918  0.2397
  357MOL0    Cl49173   4.074   8.860   7.884  0.2367 -0.3646 -0.6354
  357MOL0     C49174   5.149   9.254   8.102 -0.3917  0.8645 -0.9718
  357MOL0     C49175   5.272   9.218   8.044  0.3198 -0.8734  0.4207
  357MOL0     O49176   5.402   9.005   7.835 -0.5448 -0.2967  0.7512
  357MOL0     C49177   5.686   9.199   7.872 -0.5247 -0.0035 -0.9445
  357MOL0     C49178   5.805   9.213   7.935 -0.0591  0.3176  0.5238
  357MOL0     N49179   6.190   9.094   7.673  0.0297  0.5211 -0.3622
  357MOL0     N49180   6.167   9.185   7.580 -0.9957  0.8572 -0.4150
  357MOL0     C49181   5.274  10.083   7.683  0.3596  0.0640  0.5794
  357MOL0     C49182   5.179  10.179   7.722  1.0471 -0.7578  0.1020
  357MOL0     C49183   4.784  10.411   7.762 -1.3058 -1.0765 -0.1256
  357MOL0     C49184   4.704  10.330   7.841  0.3539 -0.1787 -0.4594
  357MOL0     C49185   4.597  10.395   7.901 -0.1188 -0.4756  1.1163
  357MOL0     C49186   4.543  10.514   7.844 -0.3017  0.4624  0.3945
  357MOL0     O49187   4.430  10.571   7.897 -0.0813 -0.0638 -0.0705
  357MOL0     C49188   4.310  10.504   7.880 -0.1108 -0.3241 -0.1199
  357MOL0     C49189   4.197  10.557   7.957  0.3676 -0.0934  0.4406
  357MOL0     C49190   4.191  10.488   8.093  0.3023  0.2560  0.3808
  357MOL0     C49191   4.091  10.553   8.187 -0.2120 -0.0043  0.1314
  357MOL0     C49192   4.081  10.484   8.316  0.3703 -0.6244 -0.2041
  357MOL0     C49193   4.075  10.427   8.430  0.1953 -0.3842  0.9485
  357MOL0     C49194   4.612  10.582   7.742 -0.5616 -0.6367  0.1193
  357MOL0     C49195   4.735  10.535   7.709 -0.7560  0.1408  0.4016
  357MOL0     C49196   4.829  10.624   7.643  0.6466  0.8061  1.0977
  357MOL0     H49197   4.917   9.961   7.762 -1.5756  1.5239 -0.7197
  357MOL0     H49198   5.087   9.809   7.678 -2.2713  0.1073  2.3032
  357MOL0     H49199   5.482   9.880   7.778  0.3825 -0.5449 -0.3959
  357MOL0     H49200   5.522   9.916   7.616 -1.7098  0.1604 -1.6392
  357MOL0     H49201   5.469   9.632   7.690  0.7614 -0.2391 -0.6096
  357MOL0     H49202   5.534   9.698   7.550  0.2933  1.7802 -0.4784
  357MOL0     H49203   5.735   9.798   7.679 -2.5006  1.9143  0.4376
  357MOL0     H49204   5.685   9.713   7.827 -0.2384  3.4815 -0.3570
  357MOL0     H49205   5.711   9.495   7.736  0.8299  0.7773  1.7682
  357MOL0     H49206   5.724   9.558   7.567 -0.5323  1.2413  0.2716
  357MOL0     H49207   5.910   9.622   7.798  2.5012 -3.3496 -0.3812
  357MOL0     H49208   5.925   9.696   7.633 -2.0719  1.7024  0.5048
  357MOL0     H49209   5.966   9.401   7.689  0.2850 -2.1665 -2.9437
  357MOL0     H49210   5.969   9.480   7.532  2.3163  1.0158 -0.7331
  357MOL0     H49211   6.159   9.539   7.762  0.1209  0.3420  1.2133
  357MOL0     H49212   6.139   9.635   7.618  2.3059 -2.0169 -2.9073
  357MOL0     H49213   6.173   9.420   7.477 -0.1577 -0.5406  0.4001
  357MOL0     H49214   6.318   9.466   7.570  1.7653 -4.2779 -0.9347
  357MOL0     H49215   6.294   9.342   7.851 -0.2830 -0.7024 -0.0838
  357MOL0     H49216   6.230   9.142   8.001  2.8214  0.9982  0.1066
  357MOL0     H49217   6.342   9.023   7.920 -0.6744 -1.3830 -2.8990
  357MOL0     H49218   6.042   8.959   7.886  0.1181 -2.2328 -0.2096
  357MOL0     H49219   6.177   8.856   7.896 -1.4144 -0.3681  0.6848
  357MOL0     H49220   6.008   8.852   8.078 -1.4369  2.0930 -0.4325
  357MOL0     H49221   6.170   8.871   8.134  1.2323  1.2845 -1.3281
  357MOL0     H49222   5.981   9.008   8.240 -0.9372  3.2969  0.6300
  357MOL0     H49223   6.125   9.092   8.206 -2.2838  1.8847  1.4582
  357MOL0     H49224   5.800   8.929   8.128  2.7536  1.4044  2.4679
  357MOL0     H49225   5.600   8.822   8.125 -1.0889  0.9106  0.4309
  357MOL0     H49226   5.540   8.798   7.959 -2.7953  0.0424 -0.8786
  357MOL0     H49227   5.461   8.901   8.081  0.4892  1.9667 -0.3288
  357MOL0     H49228   5.224   9.346   7.738 -2.7337 -2.1428 -1.0221
  357MOL0     H49229   4.997   9.397   7.839  0.0371 -0.3366 -0.1601
  357MOL0     H49230   4.885   9.169   8.141 -1.1822 -1.1813  1.4255
  357MOL0     H49231   4.796   9.298   8.228  0.3498  1.2951 -0.7426
  357MOL0     H49232   4.686   9.346   7.989 -0.0079  0.4193  0.9946
  357MOL0     H49233   4.754   9.179   7.945 -2.1632 -2.3558  0.7221
  357MOL0     H49234   4.563   9.220   8.174 -1.2903 -1.3436  0.1614
  357MOL0     H49235   4.637   9.080   8.106 -0.0818 -0.5658 -0.8516
  357MOL0     H49236   4.509   9.108   7.889  0.6652 -1.5232  0.7107
  357MOL0     H49237   4.444   9.266   7.953 -0.2161  0.1931  0.9145
  357MOL0     H49238   4.400   8.985   8.055 -3.3919 -0.8545 -1.1476
  357MOL0     H49239   4.355   9.132   8.151  0.0151 -0.4829  0.1704
  357MOL0     H49240   4.232   9.061   7.882 -0.2615  1.8519 -0.2078
  357MOL0     H49241   4.206   9.212   7.987 -2.1977  0.0994 -2.8023
  357MOL0     H49242   4.098   9.112   8.144 -1.2274 -0.8288  0.7248
  357MOL0     H49243   4.172   8.949   8.111 -1.1031 -0.7514 -0.2388
  357MOL0     H49244   3.972   9.081   7.922 -0.8128  0.3692  2.8664
  357MOL0     H49245   3.916   8.965   8.026 -2.0870 -0.7604 -4.2162
  357MOL0     H49246   5.133   9.230   8.206  0.9336 -0.8613 -1.1316
  357MOL0     H49247   5.331   9.152   8.107  0.8140 -0.8874 -0.0533
  357MOL0     H49248   5.676   9.260   7.783 -0.0595 -0.7322 -1.5128
  357MOL0     H49249   5.864   9.302   7.918 -2.1286  1.9310  1.4147
  357MOL0     H49250   5.377  10.103   7.655  0.1106 -2.1003 -2.3541
  357MOL0     H49251   5.201  10.285   7.726  0.3407 -0.5981 -0.0088
  357MOL0     H49252   4.723  10.230   7.880 -3.1968 -0.6322  0.5215
  357MOL0     H49253   4.531  10.341   7.967 -1.8453 -1.0660 -0.9744
  357MOL0     H49254   4.293  10.505   7.772  0.1099  1.0473 -0.1632
  357MOL0     H49255   4.330  10.402   7.916  1.1341 -0.2507 -0.5477
  357MOL0     H49256   4.104  10.552   7.900  1.1069  0.4704 -0.8641
  357MOL0     H49257   4.215  10.664   7.971 -0.5087  0.9078 -4.1922
  357MOL0     H49258   4.177  10.380   8.081 -0.7958  0.3042  1.1478
  357MOL0     H49259   4.284  10.506   8.148  1.3215 -0.0177 -1.1747
  357MOL0     H49260   3.992  10.554   8.141 -1.1953  1.8066  2.1106
  357MOL0     H49261   4.117  10.658   8.202 -0.5968  0.5550 -2.6347
  357MOL0     H49262   4.082  10.368   8.518  1.2997  1.8582  2.4731
  357MOL0     H49263   4.573  10.677   7.705 -1.0287  0.3778  2.9774
  357MOL0     H49264   4.781  10.717   7.612 -2.0349 -0.5036  1.1134
  357MOL0     H49265   4.908  10.631   7.719  0.3926 -0.4528  1.4955
  357MOL0     H49266   4.855  10.583   7.545 -0.2565  0.5795  0.9494
  358MOL0     O49267   5.376   0.307  10.988 -0.4757  0.0677  0.5275
  358MOL0     C49268   5.417   0.405  11.050  0.6524  0.2446  0.5003
  358MOL0     O49269   5.466   0.519  10.999  0.3257 -0.1520  0.0298
  358MOL0     C49270   5.479   0.530  10.859 -0.0533  0.1182  0.1695
  358MOL0     C49271   5.379   0.500  10.760 -0.5277 -0.1146 -1.1015
  358MOL0     C49272   5.404   0.539  10.629 -0.5790  0.0316  0.2792
  358MOL0     C49273   5.532   0.594  10.587  0.2154 -0.2668  1.1355
  358MOL0     O49274   5.545   0.629  10.454  0.1354  0.7238 -0.1756
  358MOL0     C49275   5.611   0.747  10.424 -0.0612  0.5315  0.6345
  358MOL0     C49276   5.530   0.827  10.328  0.6072  0.0268 -0.4618
  358MOL0     C49277   5.394   0.875  10.386  0.4359  0.0688 -0.5092
  358MOL0     C49278   5.409   0.962  10.513 -0.2215  0.4063 -0.0670
  358MOL0     C49279   5.273   1.033  10.538 -0.7257 -0.0925  0.4525
  358MOL0     C49280   5.273   1.114  10.659 -0.2192 -0.3491 -0.7281
  358MOL0     C49281   5.381   1.210  10.674 -0.0159  0.3649  0.2541
  358MOL0     C49282   5.360   1.336  10.591  0.5024  0.0669 -0.6717
  358MOL0     N49283   5.375   1.328  10.448  0.7776 -0.1905  0.0031
  358MOL0     C49284   5.273   1.341  10.359  0.6149  0.4178 -0.1821
  358MOL0     C49285   5.333   1.319  10.239  0.3217  0.4744  0.0829
  358MOL0     C49286   5.256   1.292  10.112 -0.2659 -0.2064 -0.2913
  358MOL0     C49287   5.156   1.409  10.076 -0.0451 -0.5326 -0.0887
  358MOL0     C49288   5.232   1.542  10.025 -0.0919  1.4596 -0.6209
  358MOL0     C49289   5.132   1.649  10.031 -0.5725 -0.1861  0.6389
  358MOL0     O49290   5.032   1.637   9.931 -0.2586  0.1569  0.8459
  358MOL0     C49291   4.944   1.739   9.924  0.2837  0.0104  0.9803
  358MOL0     C49292   4.831   1.701   9.847  1.5092  0.7742 -0.5012
  358MOL0     C49293   4.729   1.791   9.812  0.8276 -0.8111  0.3337
  358MOL0     C49294   4.605   1.728   9.762  0.2750 -0.3872  0.5140
  358MOL0     C49295   4.743   1.925   9.834  0.0928  0.8175  0.3337
  358MOL0     C49296   4.646   2.035   9.803  0.7515 -0.7042  0.2320
  358MOL0     O49297   4.699   2.154   9.758 -0.4455 -0.1579 -0.3604
  358MOL0     C49298   4.615   2.264   9.739 -0.1581 -0.3454 -0.9146
  358MOL0     C49299   4.657   2.397   9.774 -0.7106  0.6406 -0.1935
  358MOL0     C49300   4.561   2.498   9.735 -0.9548  0.4006  0.3392
  358MOL0     C49301   4.445   2.476   9.653 -0.4135  0.0758 -1.4832
  358MOL0     O49302   4.386   2.597   9.622 -0.2113 -0.5645  0.2822
  358MOL0     C49303   4.262   2.578   9.540 -0.9280  0.9370  0.0806
  358MOL0     C49304   4.177   2.704   9.532 -0.1974  0.4261 -0.8327
  358MOL0     C49305   4.064   2.674   9.433  0.1567 -0.5451 -0.3742
  358MOL0     C49306   3.931   2.749   9.472 -0.4932  0.5967  0.1476
  358MOL0     C49307   3.859   2.686   9.597  1.8112  0.7156  1.1848
  358MOL0     C49308   3.761   2.784   9.646  0.3173  0.0564  0.2123
  358MOL0     C49309   3.676   2.728   9.764  0.0314 -0.3310  0.8271
  358MOL0     C49310   3.727   2.749   9.904  0.0961 -0.0409  1.2282
  358MOL0    Cl49311   3.873   2.660   9.943  0.1111  0.2087  0.4738
  358MOL0     C49312   4.414   2.346   9.633  0.4940  0.5428 -0.2273
  358MOL0     C49313   4.497   2.240   9.668 -0.5630  0.1787  0.1982
  358MOL0     O49314   4.530   2.027   9.848 -0.5587 -1.1124 -0.3079
  358MOL0     C49315   4.863   1.958   9.893  0.3554 -0.1702 -1.3999
  358MOL0     C49316   4.964   1.871   9.951  0.5923 -0.2793 -0.1982
  358MOL0     N49317   5.466   1.305  10.260  0.1276 -0.3308 -0.7175
  358MOL0     N49318   5.494   1.314  10.386 -0.1006 -1.0026  0.5797
  358MOL0     C49319   5.634   0.613  10.689 -0.1496  0.3206 -0.0697
  358MOL0     C49320   5.602   0.594  10.825 -0.5794  0.7604  0.4188
  358MOL0     C49321   5.404   0.399  11.196  0.3104 -0.0062 -0.2973
  358MOL0     C49322   5.521   0.405  11.277 -1.0928 -0.3304 -0.6393
  358MOL0     C49323   5.532   0.374  11.419 -0.0164 -0.2207  0.0264
  358MOL0     C49324   5.404   0.360  11.480 -0.5911 -0.1183 -0.4291
  358MOL0     O49325   5.399   0.341  11.617 -0.3553  0.5929 -0.4208
  358MOL0     C49326   5.452   0.212  11.655 -0.5982 -0.3703 -0.7926
  358MOL0     C49327   5.593   0.208  11.730  0.8880 -0.2282 -0.5247
  358MOL0     C49328   5.596   0.231  11.874 -1.0892  0.0187 -0.0255
  358MOL0     C49329   5.744   0.234  11.932  0.1587  0.2719 -0.0085
  358MOL0     C49330   5.847   0.326  11.871  0.3752  0.4844 -0.2821
  358MOL0     C49331   5.919   0.423  11.847 -0.0051  0.4458 -0.2518
  358MOL0     C49332   5.293   0.366  11.406  0.7207 -0.1539  0.9613
  358MOL0     C49333   5.283   0.381  11.268 -0.7830  0.2784  0.3655
  358MOL0     C49334   5.150   0.394  11.192  0.2912 -0.1669 -0.8593
  358MOL0     H49335   5.292   0.444  10.791 -1.2103  2.3880  2.0436
  358MOL0     H49336   5.325   0.540  10.553  0.7687 -0.2716 -1.1831
  358MOL0     H49337   5.688   0.713  10.354 -1.5083 -0.3599 -0.5937
  358MOL0     H49338   5.648   0.806  10.509  1.6079 -2.2512  2.0255
  358MOL0     H49339   5.591   0.907  10.286 -0.5890 -0.0225 -2.3945
  358MOL0     H49340   5.510   0.763  10.242  0.3735  1.1029 -1.2172
  358MOL0     H49341   5.341   0.929  10.307 -0.7206 -0.3795 -0.0691
  358MOL0     H49342   5.335   0.786  10.410 -1.7539  1.4195 -0.5556
  358MOL0     H49343   5.446   0.902  10.596 -1.3312  2.7071  2.2057
  358MOL0     H49344   5.488   1.033  10.486 -0.1083 -0.4888 -2.3053
  358MOL0     H49345   5.194   0.959  10.552 -0.7121  0.1739  2.1578
  358MOL0     H49346   5.246   1.085  10.446 -0.3698 -1.9957 -0.7808
  358MOL0     H49347   5.184   1.176  10.672 -0.4754 -0.7016 -0.7925
  358MOL0     H49348   5.282   1.050  10.747  3.1305  1.1832  0.2302
  358MOL0     H49349   5.478   1.171  10.642 -0.2803  0.9001 -1.2628
  358MOL0     H49350   5.377   1.235  10.780  0.2518  0.7124  0.1833
  358MOL0     H49351   5.271   1.396  10.615  0.7396 -0.5127  1.9901
  358MOL0     H49352   5.448   1.391  10.624  1.4559 -2.3048  1.0384
  358MOL0     H49353   5.165   1.324  10.363  0.9413 -2.6772 -1.7194
  358MOL0     H49354   5.202   1.199  10.134 -1.2483  0.5384  0.5362
  358MOL0     H49355   5.332   1.276  10.035 -1.9622  3.4143 -3.0324
  358MOL0     H49356   5.083   1.367  10.006 -2.2333  2.3607  0.2898
  358MOL0     H49357   5.088   1.418  10.161  0.4313 -3.3935  0.6975
  358MOL0     H49358   5.323   1.562  10.082 -0.7415 -1.4977  1.7063
  358MOL0     H49359   5.256   1.525   9.919 -1.8509  1.5600 -1.0635
  358MOL0     H49360   5.079   1.661  10.126 -1.2656 -0.9596  0.3649
  358MOL0     H49361   5.185   1.741  10.006 -0.5290 -0.0797  1.1170
  358MOL0     H49362   4.814   1.594   9.842  0.4542  0.5751  3.4851
  358MOL0     H49363   4.582   1.779   9.668  3.7271  1.9686  0.7675
  358MOL0     H49364   4.521   1.743   9.831 -2.5882 -1.1259 -2.5463
  358MOL0     H49365   4.608   1.621   9.741 -0.7780 -0.9984  3.0582
  358MOL0     H49366   4.754   2.421   9.815  0.6223 -1.7801 -1.6886
  358MOL0     H49367   4.580   2.603   9.756  0.2975  0.3301 -0.3153
  358MOL0     H49368   4.305   2.548   9.444  1.5840 -0.3269  1.5101
  358MOL0     H49369   4.193   2.504   9.582 -0.8961  0.8804  0.0309
  358MOL0     H49370   4.134   2.713   9.633 -1.0807 -3.9117 -0.6117
  358MOL0     H49371   4.237   2.792   9.509  1.6580 -1.1656 -2.4232
  358MOL0     H49372   4.035   2.568   9.428 -0.3631 -0.4636  0.6568
  358MOL0     H49373   4.080   2.708   9.330 -2.7385  2.9549  0.1594
  358MOL0     H49374   3.863   2.749   9.386 -2.8445  3.5429  1.8008
  358MOL0     H49375   3.958   2.851   9.499 -0.8295  0.0266  2.8541
  358MOL0     H49376   3.811   2.592   9.570  3.8917  0.4396 -2.1905
  358MOL0     H49377   3.934   2.656   9.670  1.9025  0.6432  1.0613
  358MOL0     H49378   3.685   2.814   9.573 -2.9033 -1.4669  2.7002
  358MOL0     H49379   3.826   2.867   9.675  4.2838 -2.1515 -1.5336
  358MOL0     H49380   3.670   2.621   9.741  4.2137 -0.8288  1.2251
  358MOL0     H49381   3.573   2.763   9.754  0.8219  2.2067  0.7787
  358MOL0     H49382   3.650   2.722   9.977  0.4307  1.1504  2.0490
  358MOL0     H49383   3.741   2.858   9.902  1.9605 -0.2465  1.1379
  358MOL0     H49384   4.324   2.314   9.582  0.6876  1.0139 -0.8725
  358MOL0     H49385   4.466   2.143   9.631  0.1553 -0.0049  0.0677
  358MOL0     H49386   4.886   2.064   9.904  0.5907 -0.3956  0.6172
  358MOL0     H49387   5.048   1.910  10.007 -0.8675 -0.5917  2.3219
  358MOL0     H49388   5.727   0.640  10.641  0.0314 -1.6596 -0.9456
  358MOL0     H49389   5.659   0.620  10.913  0.6790  2.4386 -0.8236
  358MOL0     H49390   5.615   0.409  11.223  0.5155  1.6985  2.0641
  358MOL0     H49391   5.617   0.362  11.485 -0.6395 -1.3018  0.6534
  358MOL0     H49392   5.384   0.166  11.728  1.1395 -1.6715  0.0906
  358MOL0     H49393   5.463   0.150  11.566 -1.2351 -2.4362  0.4872
  358MOL0     H49394   5.653   0.286  11.683  1.0540 -0.2305 -0.3155
  358MOL0     H49395   5.642   0.111  11.721 -1.2940 -1.4958  0.3961
  358MOL0     H49396   5.549   0.325  11.907  0.5648 -0.2116  3.4890
  358MOL0     H49397   5.540   0.152  11.924 -1.7286 -1.2132 -2.5599
  358MOL0     H49398   5.805   0.143  11.922  3.3256  2.4177 -2.3455
  358MOL0     H49399   5.736   0.264  12.037 -2.2745  0.7532 -0.2914
  358MOL0     H49400   5.986   0.506  11.844  1.2279 -0.4431  1.0721
  358MOL0     H49401   5.200   0.349  11.460 -1.3310  1.5215 -1.7769
  358MOL0     H49402   5.112   0.496  11.204  2.3033  0.4562  0.7741
  358MOL0     H49403   5.173   0.383  11.085  2.2712  1.9016 -0.7158
  358MOL0     H49404   5.078   0.317  11.218  0.1015  0.5464  0.8465
  359MOL0     O49405   9.348  10.062  11.425 -0.2768 -0.9426  0.3147
  359MOL0     C49406   9.254  10.094  11.356  0.4609 -0.0449  0.9941
  359MOL0     O49407   9.124  10.090  11.390 -0.0345 -0.2490 -0.0988
  359MOL0     C49408   9.090   9.994  11.483 -1.5726  0.4941  0.7180
  359MOL0     C49409   9.120   9.857  11.465 -0.1464 -0.7574  0.6771
  359MOL0     C49410   9.062   9.759  11.553  0.7354 -0.4372  0.3300
  359MOL0     C49411   8.980   9.806  11.656 -0.4060 -0.0316  0.1154
  359MOL0     O49412   8.910   9.725  11.742  0.1343  0.9423 -0.4477
  359MOL0     C49413   8.908   9.587  11.711  1.0501  0.8323  0.5951
  359MOL0     C49414   8.843   9.528  11.829 -0.9291  0.3970  0.1368
  359MOL0     C49415   8.816   9.379  11.802  0.4394  0.6739  0.2501
  359MOL0     C49416   8.772   9.310  11.930 -0.3897  0.1876  0.6402
  359MOL0     C49417   8.753   9.159  11.907 -0.2911 -0.5760  0.7248
  359MOL0     C49418   8.707   9.090  12.025 -0.4396 -0.1694  0.1394
  359MOL0     C49419   8.695   8.944  12.013 -0.4497 -0.1920 -0.7051
  359MOL0     C49420   8.805   8.866  11.949 -0.0180 -0.7325  0.3887
  359MOL0     N49421   8.764   8.731  11.950  0.7166  1.0642  0.3570
  359MOL0     C49422   8.752   8.662  12.071  0.7320 -0.6631  0.9680
  359MOL0     C49423   8.678   8.552  12.036  0.4939 -0.7046  0.2508
  359MOL0     C49424   8.640   8.446  12.123 -0.0618 -0.2615 -0.5832
  359MOL0     C49425   8.759   8.351  12.139  0.3275 -0.5000 -0.0995
  359MOL0     C49426   8.827   8.305  12.004  0.1527 -0.3650 -1.1507
  359MOL0     C49427   8.917   8.175  12.031 -0.1541 -0.0439 -0.9990
  359MOL0     O49428   8.996   8.212  12.145  0.0662 -0.8774 -0.1504
  359MOL0     C49429   9.125   8.171  12.174  0.6758 -1.0413  0.4647
  359MOL0     C49430   9.192   8.066  12.096  0.1825 -0.5752 -0.6654
  359MOL0     C49431   9.317   8.020  12.135  0.4568  0.1088  0.3764
  359MOL0     C49432   9.365   7.913  12.054 -0.4667  0.7145 -0.1904
  359MOL0     C49433   9.383   8.076  12.236 -0.6150 -1.2362 -0.2628
  359MOL0     C49434   9.493   8.001  12.309 -0.2138  0.5635 -0.1351
  359MOL0     O49435   9.581   8.080  12.373 -0.3934  0.9902 -0.2882
  359MOL0     C49436   9.714   8.033  12.365 -0.1070  1.1912 -0.0263
  359MOL0     C49437   9.775   8.023  12.480 -0.5305  1.0171 -0.1024
  359MOL0     C49438   9.911   7.994  12.476 -0.1742 -0.1809  0.2283
  359MOL0     C49439   9.977   7.970  12.360 -0.8861  0.0588 -0.4804
  359MOL0     O49440  10.108   7.943  12.353 -0.6206  0.1286  0.0955
  359MOL0     C49441  10.161   7.850  12.443 -0.2302 -0.5817 -0.6180
  359MOL0     C49442  10.289   7.776  12.379  0.5287 -0.4167 -0.2184
  359MOL0     C49443  10.250   7.718  12.244  0.0683  0.3968  0.4518
  359MOL0     C49444  10.346   7.624  12.176  0.9597 -0.5262 -0.3461
  359MOL0     C49445  10.301   7.606  12.031 -0.5766  0.1856 -0.0896
  359MOL0     C49446  10.383   7.491  11.967  0.4503  0.3622 -0.4991
  359MOL0     C49447  10.353   7.474  11.821  0.3450 -0.7238 -0.5107
  359MOL0     C49448  10.207   7.436  11.788 -0.0363  0.8996 -0.5831
  359MOL0    Cl49449  10.151   7.307  11.901 -0.2574 -0.2039 -0.7548
  359MOL0     C49450   9.906   7.963  12.239 -0.1851  0.3979 -0.1504
  359MOL0     C49451   9.775   8.004  12.246  0.3628 -0.3369  0.7971
  359MOL0     O49452   9.497   7.877  12.302 -0.4246  0.1717 -0.6450
  359MOL0     C49453   9.335   8.193  12.292 -0.7061 -0.0217  0.1074
  359MOL0     C49454   9.209   8.239  12.264  0.4022  0.3891  0.2327
  359MOL0     N49455   8.648   8.554  11.899  0.1542  0.0810 -1.0597
  359MOL0     N49456   8.696   8.661  11.846  0.1171  0.1496 -0.5332
  359MOL0     C49457   8.950   9.948  11.670 -0.0088  0.8414 -0.1563
  359MOL0     C49458   9.009  10.038  11.584  0.3531 -0.1013 -0.8594
  359MOL0     C49459   9.274  10.171  11.238  1.3769 -0.7116  0.9258
  359MOL0     C49460   9.348  10.286  11.246 -0.3430 -1.0384 -1.2175
  359MOL0     C49461   9.361  10.373  11.144 -0.1234 -0.0107  0.4682
  359MOL0     C49462   9.296  10.351  11.018  0.5117 -0.5282 -1.2284
  359MOL0     O49463   9.303  10.443  10.908 -0.6317  0.1992  0.4958
  359MOL0     C49464   9.174  10.502  10.876  0.2671 -1.5070  0.2067
  359MOL0     C49465   9.145  10.622  10.962  0.3390 -0.5308  0.3291
  359MOL0     C49466   9.034  10.718  10.909  0.5538 -0.5950 -0.1807
  359MOL0     C49467   9.031  10.855  10.978 -0.0114  0.2968 -0.2881
  359MOL0     C49468   8.904  10.919  10.940 -0.1521 -0.3005 -0.1498
  359MOL0     C49469   8.792  10.966  10.919  0.2075 -0.5762 -0.9681
  359MOL0     C49470   9.228  10.228  11.007 -0.0378  0.6143 -0.8297
  359MOL0     C49471   9.211  10.139  11.113 -0.3066 -0.0603  0.2195
  359MOL0     C49472   9.128  10.014  11.096  0.8438 -0.2646  0.3318
  359MOL0     H49473   9.186   9.823  11.386 -2.3100  1.4587 -2.2701
  359MOL0     H49474   9.085   9.655  11.535  1.0094 -0.0516 -1.8145
  359MOL0     H49475   9.003   9.534  11.708  0.3707 -0.5811  2.0653
  359MOL0     H49476   8.849   9.577  11.619  0.4468  2.1645  0.8083
  359MOL0     H49477   8.917   9.526  11.910 -1.5983 -1.6117  0.7633
  359MOL0     H49478   8.748   9.577  11.852  0.6727  2.8356  2.1033
  359MOL0     H49479   8.735   9.351  11.734  0.2007 -1.4846  1.3325
  359MOL0     H49480   8.903   9.321  11.771 -0.8660 -1.7124  0.8161
  359MOL0     H49481   8.833   9.333  12.018 -1.4990  1.6344  1.0733
  359MOL0     H49482   8.670   9.346  11.945  0.5331  3.5866 -0.1569
  359MOL0     H49483   8.854   9.125  11.881  0.3705  1.1596  0.8981
  359MOL0     H49484   8.694   9.147  11.815  1.7418 -0.0865 -0.7243
  359MOL0     H49485   8.773   9.123  12.106 -1.4908  1.0623  0.5231
  359MOL0     H49486   8.609   9.130  12.050 -0.9694 -1.7028  0.6352
  359MOL0     H49487   8.597   8.912  11.976  0.1227 -1.7151 -0.9674
  359MOL0     H49488   8.672   8.911  12.114 -2.2748 -0.9108 -1.3061
  359MOL0     H49489   8.811   8.904  11.846 -2.3566  1.3894  0.9308
  359MOL0     H49490   8.896   8.883  12.006  1.3397 -0.4247 -1.7328
  359MOL0     H49491   8.790   8.699  12.166 -1.4536  2.7548  0.7041
  359MOL0     H49492   8.547   8.403  12.085  0.0577  0.9308 -2.3609
  359MOL0     H49493   8.611   8.495  12.217 -0.4202  5.1584 -3.1436
  359MOL0     H49494   8.834   8.405  12.198 -0.0291 -1.3793  1.1969
  359MOL0     H49495   8.734   8.258  12.190  1.6310  0.3112  2.1988
  359MOL0     H49496   8.741   8.294  11.937  0.0326 -0.2435 -1.0197
  359MOL0     H49497   8.893   8.388  11.977  2.0818 -0.5461  2.3720
  359MOL0     H49498   8.843   8.101  12.060 -0.8866  1.7786  2.3015
  359MOL0     H49499   8.976   8.154  11.942  0.7966  2.4060 -1.0269
  359MOL0     H49500   9.137   8.011  12.021 -0.9821 -3.1339  1.8678
  359MOL0     H49501   9.323   7.899  11.954  0.3247 -4.1202 -0.0850
  359MOL0     H49502   9.341   7.821  12.109 -2.7377  0.5207 -1.3888
  359MOL0     H49503   9.471   7.931  12.035 -1.0983  1.7793 -3.2694
  359MOL0     H49504   9.724   8.058  12.570 -2.0731  0.7635 -0.8400
  359MOL0     H49505   9.967   7.990  12.569  3.3293 -2.9764 -1.7028
  359MOL0     H49506  10.196   7.903  12.532  0.6167  0.7545 -1.6987
  359MOL0     H49507  10.091   7.770  12.467 -2.9065  2.1736  1.5163
  359MOL0     H49508  10.379   7.839  12.378 -0.9980  2.0807  2.9846
  359MOL0     H49509  10.314   7.694  12.448 -0.0757 -0.4566 -0.0474
  359MOL0     H49510  10.240   7.813  12.190  0.8311  0.5022  0.4867
  359MOL0     H49511  10.146   7.684  12.242  0.2134 -0.0484  0.3265
  359MOL0     H49512  10.352   7.524  12.221  3.0772 -2.6010 -4.6681
  359MOL0     H49513  10.451   7.655  12.169  1.8190 -3.1644 -0.6257
  359MOL0     H49514  10.193   7.588  12.035 -1.0278  2.0744 -1.8972
  359MOL0     H49515  10.318   7.704  11.984 -0.9658  1.3984  2.1554
  359MOL0     H49516  10.369   7.400  12.025  1.5547  1.1210  1.0418
  359MOL0     H49517  10.490   7.509  11.980  0.4203  0.5226 -0.4738
  359MOL0     H49518  10.411   7.388  11.787 -0.2786 -1.1522 -0.5160
  359MOL0     H49519  10.391   7.557  11.762  0.8066 -1.4817 -1.3006
  359MOL0     H49520  10.197   7.403  11.684  0.6807 -1.7169  0.0903
  359MOL0     H49521  10.142   7.522  11.801 -2.7290 -0.5661 -3.2886
  359MOL0     H49522   9.964   7.943  12.149  0.9488 -0.7140  0.7875
  359MOL0     H49523   9.731   8.016  12.147  2.3633 -0.4326 -0.1729
  359MOL0     H49524   9.385   8.260  12.362 -1.6987 -0.2882  1.1050
  359MOL0     H49525   9.172   8.326  12.318 -1.6837 -0.5871  0.4629
  359MOL0     H49526   8.877   9.963  11.750  0.5381  2.7469  0.0363
  359MOL0     H49527   8.971  10.139  11.589 -1.0618 -0.6509  2.9831
  359MOL0     H49528   9.387  10.300  11.346 -3.4390 -1.6411  0.1772
  359MOL0     H49529   9.408  10.471  11.149  0.0363 -0.1522  3.7804
  359MOL0     H49530   9.170  10.534  10.771 -0.0142  0.8583  0.8890
  359MOL0     H49531   9.092  10.429  10.878  0.3802 -1.7091 -1.1621
  359MOL0     H49532   9.239  10.679  10.964  0.6257 -0.6932 -2.7659
  359MOL0     H49533   9.125  10.592  11.065 -1.2492 -0.2562  0.1194
  359MOL0     H49534   9.030  10.729  10.800 -3.2821 -2.1600 -0.3585
  359MOL0     H49535   8.939  10.667  10.926  1.5967 -3.3361 -1.9523
  359MOL0     H49536   9.113  10.914  10.935 -1.2872 -0.0097 -3.4326
  359MOL0     H49537   9.047  10.848  11.086 -0.7594  1.3603 -0.0969
  359MOL0     H49538   8.695  11.003  10.893  0.1837  0.0957  0.0401
  359MOL0     H49539   9.180  10.190  10.917 -0.6016 -0.5369 -0.0772
  359MOL0     H49540   9.113   9.987  10.991  0.4931  0.2649  0.2425
  359MOL0     H49541   9.171   9.921  11.132 -0.8624 -2.8520 -3.6581
  359MOL0     H49542   9.042  10.044  11.157  0.7769 -0.7420  0.4699
  360MOL0     O49543   9.270   8.750   0.285 -0.2206  0.1597  0.1347
  360MOL0     C49544   9.311   8.825   0.369 -0.1456  0.8318 -0.1423
  360MOL0     O49545   9.385   8.942   0.349 -0.1371  0.3145  0.5894
  360MOL0     C49546   9.412   8.981   0.219  0.2652  0.0868  0.3580
  360MOL0     C49547   9.469   9.109   0.211 -0.1342  0.6055  0.6167
  360MOL0     C49548   9.498   9.183   0.095  0.5998 -0.3832  0.0912
  360MOL0     C49549   9.485   9.124  -0.031 -0.5907 -0.9693  0.4617
  360MOL0     O49550   9.524   9.203  -0.138  0.4823 -0.5183 -0.3978
  360MOL0     C49551   9.478   9.178  -0.274 -0.0053  0.3636 -0.4709
  360MOL0     C49552   9.594   9.216  -0.366 -0.9097 -0.5464 -0.0193
  360MOL0     C49553   9.577   9.180  -0.518 -0.3666 -1.1519 -0.4253
  360MOL0     C49554   9.471   9.278  -0.571  0.2257  0.6502 -0.0971
  360MOL0     C49555   9.458   9.292  -0.717 -0.7152 -0.5690 -0.5992
  360MOL0     C49556   9.346   9.371  -0.755  0.3253  0.4250  0.2786
  360MOL0     C49557   9.343   9.402  -0.905  0.2766  0.1225 -0.6260
  360MOL0     C49558   9.244   9.507  -0.951  0.5567 -0.2040 -0.1705
  360MOL0     N49559   9.101   9.460  -0.977 -0.1803  0.7884  0.2630
  360MOL0     C49560   9.063   9.382  -1.085  0.5458  0.1135  0.7688
  360MOL0     C49561   8.925   9.396  -1.076 -0.2494 -0.0241  0.6798
  360MOL0     C49562   8.844   9.353  -1.193 -0.2157  0.2293 -0.4889
  360MOL0     C49563   8.765   9.455  -1.277  0.6971  0.8321 -0.1620
  360MOL0     C49564   8.615   9.424  -1.283 -0.2864 -0.3930  0.5818
  360MOL0     C49565   8.583   9.417  -1.437  0.5909 -0.0533 -0.1680
  360MOL0     O49566   8.581   9.551  -1.499  0.5279 -0.1238 -0.0125
  360MOL0     C49567   8.567   9.554  -1.636 -0.6124  0.3859  0.3908
  360MOL0     C49568   8.554   9.676  -1.685  0.2668 -0.3026  0.5738
  360MOL0     C49569   8.543   9.712  -1.820  0.5259  0.3415  0.5038
  360MOL0     C49570   8.518   9.846  -1.863 -0.1571  0.0580  0.2802
  360MOL0     C49571   8.532   9.606  -1.907  0.2715  0.4133  0.2358
  360MOL0     C49572   8.499   9.626  -2.056 -0.2475 -0.0259  0.3093
  360MOL0     O49573   8.419   9.528  -2.117  0.9523  0.0171 -0.3510
  360MOL0     C49574   8.426   9.486  -2.247  0.5285 -0.6658  0.0410
  360MOL0     C49575   8.304   9.444  -2.304 -0.1627 -0.0767 -0.3348
  360MOL0     C49576   8.299   9.405  -2.437 -0.1114  0.0691  0.2700
  360MOL0     C49577   8.411   9.401  -2.521 -0.0493 -0.0204 -0.2770
  360MOL0     O49578   8.402   9.364  -2.658 -0.3092  0.2386  0.3443
  360MOL0     C49579   8.512   9.381  -2.758  0.1198  0.3173 -0.1543
  360MOL0     C49580   8.480   9.337  -2.904  0.7086 -0.6660  0.4375
  360MOL0     C49581   8.472   9.181  -2.930 -0.5827 -0.0261  0.2420
  360MOL0     C49582   8.346   9.129  -2.995  0.3530  0.7011  0.8739
  360MOL0     C49583   8.358   8.973  -3.012  1.0142 -1.1551 -0.5984
  360MOL0     C49584   8.233   8.908  -3.063  0.3172  0.8730  0.0272
  360MOL0     C49585   8.115   8.908  -2.979 -0.4041 -0.5800  0.3974
  360MOL0     C49586   8.154   8.861  -2.842  0.8498 -0.7733  0.3567
  360MOL0    Cl49587   8.008   8.824  -2.764  0.0904 -0.0569 -0.0959
  360MOL0     C49588   8.531   9.447  -2.468  0.2921  0.2845  0.2686
  360MOL0     C49589   8.536   9.494  -2.335 -0.8574  0.3749  0.1706
  360MOL0     O49590   8.551   9.713  -2.122 -0.3850 -0.2832  0.2323
  360MOL0     C49591   8.543   9.470  -1.850  0.2891  0.7879  0.0704
  360MOL0     C49592   8.569   9.441  -1.716 -0.1039 -0.2787 -0.2455
  360MOL0     N49593   8.885   9.470  -0.967 -0.6689  0.1338 -0.7556
  360MOL0     N49594   8.991   9.500  -0.907  0.3892 -0.2764  0.2813
  360MOL0     C49595   9.428   8.993  -0.036  0.7295 -0.8545 -0.3832
  360MOL0     C49596   9.399   8.922   0.088  0.0647  0.6653 -0.4243
  360MOL0     C49597   9.286   8.777   0.511  0.5376 -1.7896 -0.6051
  360MOL0     C49598   9.336   8.869   0.615  0.0547 -0.3953  0.0474
  360MOL0     C49599   9.318   8.845   0.742  0.2001 -0.2066 -1.2411
  360MOL0     C49600   9.229   8.745   0.785 -0.7891  0.1480 -0.5308
  360MOL0     O49601   9.192   8.722   0.921  0.2035  0.2140 -0.0258
  360MOL0     C49602   9.089   8.624   0.953  0.6250 -0.0796 -0.0281
  360MOL0     C49603   9.052   8.644   1.101 -0.2833  0.3968 -0.2195
  360MOL0     C49604   9.043   8.510   1.170 -0.2021 -0.3945 -0.2194
  360MOL0     C49605   8.988   8.507   1.311  0.2733  0.8824  0.2526
  360MOL0     C49606   9.039   8.615   1.389  0.5834  0.9390 -1.0466
  360MOL0     C49607   9.090   8.703   1.453 -0.0941 -0.9370 -0.7914
  360MOL0     C49608   9.183   8.656   0.691 -0.5986 -0.4731  0.5312
  360MOL0     C49609   9.219   8.668   0.552 -0.1560  0.7959 -0.4036
  360MOL0     C49610   9.179   8.554   0.462 -0.2818  0.0194  0.1141
  360MOL0     H49611   9.474   9.172   0.299 -3.8417  1.1971  0.5289
  360MOL0     H49612   9.525   9.286   0.115  0.7855 -0.8464  2.6030
  360MOL0     H49613   9.391   9.243  -0.288 -1.9901 -2.0615 -0.1848
  360MOL0     H49614   9.446   9.073  -0.276 -0.2370  0.2023  3.7807
  360MOL0     H49615   9.617   9.323  -0.356 -0.9806 -0.4295 -1.0292
  360MOL0     H49616   9.687   9.168  -0.334  0.2370  1.2636 -0.4761
  360MOL0     H49617   9.664   9.201  -0.582 -0.4093  1.4050  0.2440
  360MOL0     H49618   9.571   9.075  -0.549  0.5134 -0.1282 -4.8289
  360MOL0     H49619   9.373   9.238  -0.544  0.0220  1.6414  0.7042
  360MOL0     H49620   9.475   9.378  -0.527 -1.5192  0.5752  0.2930
  360MOL0     H49621   9.458   9.193  -0.763 -1.3954 -1.7285  1.7457
  360MOL0     H49622   9.552   9.337  -0.751 -0.2733 -2.0091 -1.3776
  360MOL0     H49623   9.263   9.316  -0.710  1.4838 -0.7730  1.0350
  360MOL0     H49624   9.339   9.460  -0.692  0.9891 -1.3119  2.9728
  360MOL0     H49625   9.324   9.306  -0.954  0.1428  0.2037 -0.7307
  360MOL0     H49626   9.445   9.423  -0.937  1.0017  1.4066  2.2150
  360MOL0     H49627   9.237   9.583  -0.871  5.8793 -2.8830  3.4405
  360MOL0     H49628   9.283   9.550  -1.043  0.1747 -0.3640 -0.4080
  360MOL0     H49629   9.118   9.326  -1.160 -1.3120 -0.4751 -0.2157
  360MOL0     H49630   8.768   9.284  -1.154  0.9109 -0.3736  0.7660
  360MOL0     H49631   8.909   9.288  -1.253  0.1004 -1.8806  1.9098
  360MOL0     H49632   8.778   9.546  -1.218 -0.5624  0.0267  1.4436
  360MOL0     H49633   8.808   9.477  -1.375  0.2024 -1.8606 -1.0900
  360MOL0     H49634   8.587   9.331  -1.233  3.0245 -1.4340  0.7388
  360MOL0     H49635   8.547   9.501  -1.244  2.9619  2.5948  0.7754
  360MOL0     H49636   8.653   9.345  -1.478  0.7792 -0.5612  1.0044
  360MOL0     H49637   8.479   9.382  -1.434 -1.0954  4.2993  1.9455
  360MOL0     H49638   8.534   9.761  -1.621 -5.2828  0.2500 -1.3408
  360MOL0     H49639   8.419   9.847  -1.910 -1.0941 -0.6297  2.1454
  360MOL0     H49640   8.603   9.876  -1.926 -2.1971  0.8907 -2.2280
  360MOL0     H49641   8.517   9.926  -1.789 -0.4991 -0.7003  1.1094
  360MOL0     H49642   8.217   9.443  -2.239  0.6204 -1.3845  0.7491
  360MOL0     H49643   8.204   9.359  -2.464 -1.5841  1.8071  2.1726
  360MOL0     H49644   8.542   9.486  -2.757  3.1693 -0.4234 -1.4856
  360MOL0     H49645   8.602   9.324  -2.733  0.4739  1.0007  0.1419
  360MOL0     H49646   8.385   9.381  -2.936  0.1240 -2.6013 -0.7104
  360MOL0     H49647   8.557   9.376  -2.971  2.6806 -2.4652  1.5365
  360MOL0     H49648   8.488   9.115  -2.844 -0.0356 -0.1524  0.0474
  360MOL0     H49649   8.551   9.148  -2.997 -0.3323  0.8961  0.0747
  360MOL0     H49650   8.333   9.188  -3.086 -1.2792  0.7083  1.0838
  360MOL0     H49651   8.260   9.164  -2.936  0.0807  0.0560  0.8656
  360MOL0     H49652   8.441   8.941  -3.076  0.7967 -0.0465 -1.4797
  360MOL0     H49653   8.380   8.929  -2.915 -0.1419 -2.3971 -0.8672
  360MOL0     H49654   8.254   8.804  -3.089 -0.0558  0.8943 -0.3574
  360MOL0     H49655   8.211   8.951  -3.161 -2.3966 -0.3489  0.0102
  360MOL0     H49656   8.039   8.842  -3.021 -2.6884  0.1821  3.0190
  360MOL0     H49657   8.082   9.012  -2.965  1.6633 -0.2257  3.6501
  360MOL0     H49658   8.207   8.940  -2.787 -2.8236  0.8071  1.9741
  360MOL0     H49659   8.220   8.775  -2.837 -0.1353 -1.4871  1.9892
  360MOL0     H49660   8.618   9.446  -2.533 -1.2624  1.0259 -1.9325
  360MOL0     H49661   8.625   9.544  -2.298 -1.9721  2.3727  0.3151
  360MOL0     H49662   8.558   9.382  -1.912  2.3455  1.6537 -0.7443
  360MOL0     H49663   8.571   9.337  -1.684 -2.5843 -0.5804 -0.8958
  360MOL0     H49664   9.419   8.935  -0.127 -0.0324 -2.1421  0.4877
  360MOL0     H49665   9.365   8.819   0.091  0.4794  0.5386 -0.0707
  360MOL0     H49666   9.376   8.965   0.583 -1.6638 -0.6581 -3.3230
  360MOL0     H49667   9.347   8.913   0.821 -0.5141  0.5180 -1.5943
  360MOL0     H49668   9.003   8.638   0.887 -0.3200 -1.7093  0.8232
  360MOL0     H49669   9.133   8.525   0.939 -1.3969 -1.0945  0.4441
  360MOL0     H49670   8.959   8.701   1.100  1.5553  3.6249 -0.2284
  360MOL0     H49671   9.130   8.702   1.152 -1.9209 -0.2026  3.2495
  360MOL0     H49672   8.970   8.458   1.108 -0.5936 -3.8161  2.8059
  360MOL0     H49673   9.142   8.464   1.179 -0.5689 -2.1508 -3.6370
  360MOL0     H49674   9.010   8.409   1.354 -1.8224  0.1918 -0.1033
  360MOL0     H49675   8.880   8.527   1.309  0.3520  1.8194  2.5527
  360MOL0     H49676   9.136   8.778   1.514 -0.3929 -1.8498  0.6091
  360MOL0     H49677   9.116   8.572   0.707 -2.3809  0.7642 -0.2043
  360MOL0     H49678   9.182   8.461   0.520 -1.7265 -0.7839 -1.0141
  360MOL0     H49679   9.078   8.571   0.424  0.6830  0.0286 -2.6742
  360MOL0     H49680   9.244   8.531   0.377 -0.9027 -0.3672 -0.2621
  361MOL0     O49681   1.434   2.816   6.597  0.7114  0.7207 -0.1541
  361MOL0     C49682   1.438   2.715   6.670  0.2533 -0.2762 -0.3726
  361MOL0     O49683   1.535   2.697   6.775 -0.2362 -0.6555 -0.4128
  361MOL0     C49684   1.616   2.797   6.808  0.2694  0.1281  0.0342
  361MOL0     C49685   1.751   2.761   6.803  0.0553 -0.2355  0.8708
  361MOL0     C49686   1.843   2.849   6.852 -0.5995  0.9274 -0.4493
  361MOL0     C49687   1.810   2.984   6.891  0.5302  0.4181 -0.1608
  361MOL0     O49688   1.896   3.071   6.934 -0.7461 -0.1111 -0.0461
  361MOL0     C49689   1.854   3.199   6.982  0.4073  0.2627 -0.4755
  361MOL0     C49690   1.979   3.270   7.039  0.3553 -0.0019  0.8859
  361MOL0     C49691   1.934   3.396   7.114 -0.6671 -0.8716  0.2332
  361MOL0     C49692   2.052   3.472   7.167 -0.6859 -0.3643  0.6218
  361MOL0     C49693   2.008   3.591   7.246  0.1516  0.4628 -0.5640
  361MOL0     C49694   2.110   3.688   7.299  0.8769 -0.3488 -0.2680
  361MOL0     C49695   2.024   3.801   7.372 -0.1483 -0.3921  0.7699
  361MOL0     C49696   2.113   3.874   7.473 -0.0559 -0.0165  0.8190
  361MOL0     N49697   2.127   3.801   7.597  0.1290  0.4802  0.5494
  361MOL0     C49698   2.229   3.713   7.631  0.0954  0.1602 -0.1182
  361MOL0     C49699   2.193   3.658   7.754  0.4229 -1.2002  0.8872
  361MOL0     C49700   2.263   3.565   7.834 -0.4672 -0.6736  0.1225
  361MOL0     C49701   2.205   3.421   7.824  1.0885  1.1957 -0.6850
  361MOL0     C49702   2.194   3.385   7.674 -0.6488  0.3205  0.0190
  361MOL0     C49703   2.240   3.242   7.656 -0.4454  0.0985 -0.2935
  361MOL0     O49704   2.203   3.214   7.522  0.9585 -0.3912 -0.1921
  361MOL0     C49705   2.097   3.126   7.498 -0.0026 -1.0882 -0.2545
  361MOL0     C49706   2.095   3.054   7.371  0.2075 -0.5915 -0.4704
  361MOL0     C49707   1.991   2.959   7.342  0.1359  0.1320  0.8387
  361MOL0     C49708   2.001   2.886   7.209 -1.3437 -0.1311  0.0934
  361MOL0     C49709   1.881   2.947   7.431  1.0844  0.4051  0.3591
  361MOL0     C49710   1.772   2.843   7.414 -0.1840  0.4779  0.4117
  361MOL0     O49711   1.791   2.733   7.335  0.3777  0.7986  1.5827
  361MOL0     C49712   1.676   2.664   7.286  0.6076 -1.1896  0.0243
  361MOL0     C49713   1.580   2.599   7.371 -0.2790 -0.0940  0.1124
  361MOL0     C49714   1.484   2.523   7.316 -0.5365  0.3122  0.3846
  361MOL0     C49715   1.482   2.490   7.174 -0.3240 -0.0669 -1.1302
  361MOL0     O49716   1.380   2.414   7.115  0.4725  0.6555 -0.5762
  361MOL0     C49717   1.283   2.336   7.188 -0.2268  0.1714 -0.0979
  361MOL0     C49718   1.165   2.422   7.228  0.1084  1.1671 -0.5707
  361MOL0     C49719   1.075   2.467   7.102  0.4868 -0.4901 -0.8798
  361MOL0     C49720   0.953   2.552   7.155  0.3485 -0.2922  0.0824
  361MOL0     C49721   0.836   2.568   7.049 -0.5562 -0.1692  0.3563
  361MOL0     C49722   0.878   2.619   6.915 -0.4654 -0.5826 -0.4288
  361MOL0     C49723   0.767   2.659   6.824 -0.3687 -0.1115 -0.6146
  361MOL0     C49724   0.832   2.707   6.697  1.2364 -0.2262 -0.2368
  361MOL0    Cl49725   0.716   2.671   6.567  0.0943  0.0166  0.0752
  361MOL0     C49726   1.569   2.555   7.095  0.6915 -0.0941 -0.6354
  361MOL0     C49727   1.669   2.643   7.148 -0.0337 -1.2127 -0.3832
  361MOL0     O49728   1.673   2.852   7.483 -0.3458 -0.1076 -0.8001
  361MOL0     C49729   1.880   3.031   7.545  0.2878  0.1241 -0.4152
  361MOL0     C49730   1.988   3.109   7.582 -0.0605 -0.4771  0.1408
  361MOL0     N49731   2.075   3.717   7.790  0.6015 -0.4162  0.1964
  361MOL0     N49732   2.039   3.802   7.697 -0.6680 -0.7156  0.3092
  361MOL0     C49733   1.666   3.011   6.901 -0.3236 -0.3560  0.7520
  361MOL0     C49734   1.573   2.921   6.854  0.1859 -0.5267  0.4974
  361MOL0     C49735   1.316   2.615   6.656  0.2210 -0.0941 -0.2216
  361MOL0     C49736   1.306   2.513   6.751 -0.4501 -0.1663 -0.5364
  361MOL0     C49737   1.217   2.410   6.744  0.5416  0.6925  0.0709
  361MOL0     C49738   1.128   2.409   6.638 -0.1862 -0.4447 -0.3177
  361MOL0     O49739   1.052   2.292   6.617  0.0759  0.0927 -0.7474
  361MOL0     C49740   0.939   2.289   6.698  0.6698 -0.4803 -0.0052
  361MOL0     C49741   0.832   2.200   6.634 -0.1265  0.6057  0.4423
  361MOL0     C49742   0.745   2.268   6.516 -0.5134 -0.4146 -0.9173
  361MOL0     C49743   0.638   2.174   6.453  0.0924  0.9464 -0.1514
  361MOL0     C49744   0.690   2.039   6.431  0.6043 -0.4537 -0.4094
  361MOL0     C49745   0.752   1.935   6.430 -0.7886  0.1124 -0.4614
  361MOL0     C49746   1.120   2.514   6.550 -0.9465  0.9279  0.0065
  361MOL0     C49747   1.210   2.618   6.556  1.1207  0.4047  0.6566
  361MOL0     C49748   1.190   2.725   6.442 -0.7690  0.0822 -0.5844
  361MOL0     H49749   1.764   2.656   6.777  0.5065 -0.4028  1.7273
  361MOL0     H49750   1.945   2.813   6.865 -0.7925  0.5382  0.0341
  361MOL0     H49751   1.777   3.196   7.060 -1.7952  0.1764 -2.5578
  361MOL0     H49752   1.807   3.256   6.902 -1.3724 -1.9739 -1.1410
  361MOL0     H49753   2.049   3.211   7.099  1.4801  0.9969  0.5924
  361MOL0     H49754   2.045   3.294   6.955  1.6073 -0.6025  1.6680
  361MOL0     H49755   1.886   3.466   7.045  0.3820 -2.1664 -1.9194
  361MOL0     H49756   1.857   3.375   7.189 -0.5370 -0.5858  0.4465
  361MOL0     H49757   2.104   3.409   7.240 -0.4493  1.5570  2.2190
  361MOL0     H49758   2.126   3.500   7.091 -0.6110 -1.3580  0.3162
  361MOL0     H49759   1.943   3.548   7.323 -0.8943 -0.9006 -2.1490
  361MOL0     H49760   1.947   3.645   7.174  0.2247  0.4747 -0.6169
  361MOL0     H49761   2.191   3.650   7.362  0.8528  0.0824  0.0222
  361MOL0     H49762   2.151   3.736   7.209 -1.2401  1.8151 -0.1615
  361MOL0     H49763   1.931   3.758   7.411 -1.6164  0.9164 -1.0683
  361MOL0     H49764   1.975   3.863   7.296 -2.9026 -0.6235  2.2239
  361MOL0     H49765   2.207   3.891   7.421  0.4386 -3.1341  0.5544
  361MOL0     H49766   2.068   3.974   7.477  0.0569  0.0624  0.2330
  361MOL0     H49767   2.317   3.695   7.571  0.0724 -3.6086  0.7225
  361MOL0     H49768   2.240   3.588   7.939  2.3596 -0.2675  0.7185
  361MOL0     H49769   2.369   3.572   7.812 -0.6785 -3.6417 -2.5022
  361MOL0     H49770   2.274   3.353   7.874  2.9216  2.0767 -1.8855
  361MOL0     H49771   2.108   3.403   7.869 -0.1764 -0.3892 -3.7481
  361MOL0     H49772   2.095   3.402   7.629 -0.3687  0.6064 -0.4953
  361MOL0     H49773   2.269   3.443   7.619 -0.3684  0.8850  0.9763
  361MOL0     H49774   2.347   3.231   7.679 -0.9818 -0.5545  2.2358
  361MOL0     H49775   2.202   3.178   7.737  0.8425  0.4928  0.6706
  361MOL0     H49776   2.183   3.071   7.311 -0.5653  1.4323 -1.1015
  361MOL0     H49777   2.070   2.938   7.142  2.4126 -2.8893  1.4817
  361MOL0     H49778   1.906   2.870   7.157 -1.3265 -0.0671  0.0426
  361MOL0     H49779   2.038   2.783   7.213 -1.9226 -0.8594 -5.1570
  361MOL0     H49780   1.575   2.613   7.478 -0.0446  1.5613 -0.0706
  361MOL0     H49781   1.423   2.471   7.389  0.6212  0.7557  1.7041
  361MOL0     H49782   1.262   2.243   7.133  0.1094  1.2145 -2.1135
  361MOL0     H49783   1.328   2.304   7.282 -2.5866 -2.3275  0.3157
  361MOL0     H49784   1.103   2.377   7.306  2.6150  2.0416  2.1023
  361MOL0     H49785   1.201   2.508   7.285  1.8372 -0.3018  0.6920
  361MOL0     H49786   1.015   2.382   7.066 -2.9937  1.7288 -0.8504
  361MOL0     H49787   1.134   2.516   7.025  0.2157  1.5005  0.1196
  361MOL0     H49788   0.991   2.653   7.175 -0.6479  0.0469  0.3714
  361MOL0     H49789   0.910   2.513   7.248 -1.8270 -0.5274 -0.9450
  361MOL0     H49790   0.786   2.471   7.045 -4.2858  1.5263  0.7738
  361MOL0     H49791   0.755   2.634   7.083 -0.6279  1.2856 -2.3420
  361MOL0     H49792   0.947   2.543   6.876  3.2043  1.2530  1.9484
  361MOL0     H49793   0.945   2.705   6.920 -2.0809  0.7499 -0.7464
  361MOL0     H49794   0.698   2.722   6.880 -1.7655 -0.6968 -1.6342
  361MOL0     H49795   0.710   2.572   6.792 -2.1365  0.2109  1.4187
  361MOL0     H49796   0.924   2.655   6.668  0.8951  0.8671 -3.8153
  361MOL0     H49797   0.849   2.815   6.697 -1.1838  0.2462 -1.7620
  361MOL0     H49798   1.555   2.537   6.989 -1.2763 -0.6527 -0.3315
  361MOL0     H49799   1.727   2.698   7.076 -0.1931  0.2207  0.5500
  361MOL0     H49800   1.798   3.033   7.616  0.3641 -2.8328 -0.1166
  361MOL0     H49801   1.980   3.167   7.673 -3.6364 -0.1140 -0.2688
  361MOL0     H49802   1.642   3.108   6.945  1.8686  0.6129 -0.0534
  361MOL0     H49803   1.466   2.934   6.846  0.1122 -2.0159 -2.7211
  361MOL0     H49804   1.380   2.520   6.830  1.3539  1.9127 -2.2774
  361MOL0     H49805   1.223   2.329   6.816 -0.0845 -0.9198 -1.6133
  361MOL0     H49806   0.967   2.257   6.799  1.8298 -0.5471 -0.3341
  361MOL0     H49807   0.883   2.381   6.715  1.9135  0.1047  1.1831
  361MOL0     H49808   0.760   2.173   6.713 -1.4795  1.3297 -0.4979
  361MOL0     H49809   0.880   2.114   6.587  0.6189  2.0075 -1.4431
  361MOL0     H49810   0.700   2.366   6.532 -0.3965  0.3711 -4.5590
  361MOL0     H49811   0.804   2.299   6.429 -2.0197  0.4185 -1.6888
  361MOL0     H49812   0.604   2.195   6.351  1.5323 -1.8386 -1.3285
  361MOL0     H49813   0.545   2.170   6.510 -2.4245 -1.4203 -3.9301
  361MOL0     H49814   0.807   1.844   6.420  1.0501  0.9448  1.3676
  361MOL0     H49815   1.044   2.519   6.473  0.3455  2.6879 -1.2232
  361MOL0     H49816   1.239   2.818   6.475  1.4862 -2.0513  2.6493
  361MOL0     H49817   1.236   2.684   6.351 -2.3533 -1.3086 -0.7959
  361MOL0     H49818   1.087   2.758   6.427 -0.0646  1.6884 -2.3791
  362MOL0     O49819   1.139   4.624   0.388  0.1706 -0.5786  0.1171
  362MOL0     C49820   1.196   4.733   0.372 -0.8918  0.8962  0.3945
  362MOL0     O49821   1.297   4.751   0.282  0.2030  0.2418  0.0918
  362MOL0     C49822   1.325   4.645   0.202  0.5409  0.1793 -1.0715
  362MOL0     C49823   1.457   4.589   0.216 -0.2747 -0.0447  0.2548
  362MOL0     C49824   1.504   4.495   0.116 -1.3428 -1.9050 -0.7342
  362MOL0     C49825   1.429   4.463   0.004 -0.1625 -0.1232  0.4237
  362MOL0     O49826   1.493   4.405  -0.099 -0.0562  0.3658 -0.1519
  362MOL0     C49827   1.599   4.479  -0.165  0.0277  0.0502 -0.1508
  362MOL0     C49828   1.674   4.389  -0.255  0.0873  0.6494 -0.0213
  362MOL0     C49829   1.793   4.457  -0.323 -0.2119  0.3750 -0.6693
  362MOL0     C49830   1.871   4.366  -0.408  0.4724 -0.4452  0.0766
  362MOL0     C49831   1.990   4.413  -0.494  0.5930 -0.4328 -0.3982
  362MOL0     C49832   1.961   4.529  -0.589 -0.1572  0.5166  0.7675
  362MOL0     C49833   2.070   4.533  -0.703 -0.0964  0.7267  0.5266
  362MOL0     C49834   2.012   4.628  -0.806  0.0978  0.1485  0.4732
  362MOL0     N49835   1.883   4.584  -0.871  0.6188 -0.3423  0.4033
  362MOL0     C49836   1.774   4.674  -0.894  0.3841 -0.1625  0.1883
  362MOL0     C49837   1.697   4.612  -0.981 -0.2271 -0.2394  0.0372
  362MOL0     C49838   1.560   4.652  -1.026  0.4596 -0.0328  0.6874
  362MOL0     C49839   1.464   4.540  -1.042 -0.0115 -0.7668 -0.4155
  362MOL0     C49840   1.350   4.577  -1.137 -0.0781 -0.5541  0.8424
  362MOL0     C49841   1.263   4.444  -1.165  0.5525 -0.6037 -0.1530
  362MOL0     O49842   1.123   4.475  -1.187  0.1044  0.0505 -0.2625
  362MOL0     C49843   1.076   4.553  -1.291  0.2076  0.6113  0.2907
  362MOL0     C49844   1.148   4.592  -1.405 -0.8279  0.5698 -0.0533
  362MOL0     C49845   1.074   4.645  -1.514  0.0634 -0.5237 -0.1808
  362MOL0     C49846   1.144   4.658  -1.652  0.7733 -0.9683  0.2410
  362MOL0     C49847   0.934   4.672  -1.501 -1.0216 -0.8168  0.1070
  362MOL0     C49848   0.862   4.735  -1.614 -0.3787 -0.3979 -0.0579
  362MOL0     O49849   0.834   4.868  -1.619  0.4790  0.1870 -0.2665
  362MOL0     C49850   0.727   4.923  -1.692 -0.5060 -0.1436  0.8376
  362MOL0     C49851   0.641   4.856  -1.772 -0.1126 -0.3863  0.2977
  362MOL0     C49852   0.539   4.921  -1.851 -0.6834  0.0558 -0.4436
  362MOL0     C49853   0.532   5.060  -1.843  0.3644  0.1352 -0.9338
  362MOL0     O49854   0.443   5.142  -1.906 -0.2998 -0.6834  0.0181
  362MOL0     C49855   0.440   5.125  -2.049  1.1807 -0.0300  0.4290
  362MOL0     C49856   0.321   5.040  -2.100 -0.8532  0.4648 -1.1073
  362MOL0     C49857   0.190   5.121  -2.119  0.0589  0.7503 -0.1972
  362MOL0     C49858   0.115   5.075  -2.251  0.1804  0.1523 -0.1108
  362MOL0     C49859  -0.018   5.136  -2.245 -0.0226  0.1979 -0.1338
  362MOL0     C49860  -0.100   5.092  -2.373 -0.5282 -0.9340 -1.2072
  362MOL0     C49861  -0.254   5.134  -2.365  0.8085  0.3435  0.5617
  362MOL0     C49862  -0.272   5.284  -2.330  0.6062 -0.5561 -0.2399
  362MOL0    Cl49863  -0.396   5.362  -2.441 -0.4852  0.2599  0.5941
  362MOL0     C49864   0.625   5.132  -1.765  0.4972 -0.5522  0.0196
  362MOL0     C49865   0.728   5.064  -1.696  0.0922 -0.4940 -0.5870
  362MOL0     O49866   0.829   4.653  -1.703  0.0230  0.0711 -0.1262
  362MOL0     C49867   0.871   4.650  -1.384 -0.7370 -0.3069 -1.5352
  362MOL0     C49868   0.944   4.593  -1.277  0.5699 -0.7729  0.3277
  362MOL0     N49869   1.756   4.493  -1.017 -0.5007 -0.5587 -0.4198
  362MOL0     N49870   1.863   4.467  -0.948  0.0364 -0.1805 -0.5242
  362MOL0     C49871   1.299   4.496   0.007  0.3249 -0.0539 -0.3781
  362MOL0     C49872   1.244   4.585   0.102  0.1842  0.1564  0.5548
  362MOL0     C49873   1.149   4.853   0.451 -0.1102 -0.4155 -1.1725
  362MOL0     C49874   1.205   4.981   0.430  0.0616  0.4260 -0.7665
  362MOL0     C49875   1.177   5.082   0.518 -0.2991  0.3548 -0.1483
  362MOL0     C49876   1.086   5.069   0.618 -0.4586 -0.1676  0.2684
  362MOL0     O49877   1.061   5.186   0.682  0.3839 -0.0645 -0.6117
  362MOL0     C49878   0.972   5.192   0.801 -0.0577 -0.4647  0.6604
  362MOL0     C49879   0.984   5.338   0.838 -0.8045 -0.7220  0.1542
  362MOL0     C49880   0.896   5.431   0.752 -0.1252 -0.2339  0.7078
  362MOL0     C49881   0.926   5.570   0.799  0.0474 -0.4432 -0.4497
  362MOL0     C49882   0.829   5.673   0.758  0.4630 -0.6295 -0.0500
  362MOL0     C49883   0.761   5.766   0.703  0.1823  0.3761 -0.2420
  362MOL0     C49884   1.037   4.942   0.654 -0.4346  0.0916 -0.2100
  362MOL0     C49885   1.061   4.838   0.564 -0.7515  1.0949 -0.1429
  362MOL0     C49886   0.979   4.710   0.614 -0.1324 -0.2145 -0.1417
  362MOL0     H49887   1.520   4.611   0.301 -0.4350 -2.1417  0.9658
  362MOL0     H49888   1.610   4.472   0.116 -1.0414 -0.6080 -0.1001
  362MOL0     H49889   1.672   4.514  -0.092 -0.4814  0.5921  0.1073
  362MOL0     H49890   1.550   4.566  -0.209 -3.1734 -1.4662  0.0867
  362MOL0     H49891   1.695   4.293  -0.207 -0.0834 -0.4005 -1.9465
  362MOL0     H49892   1.595   4.365  -0.327 -0.5747 -0.3554  1.0030
  362MOL0     H49893   1.741   4.536  -0.377  0.5449 -1.3169 -4.1134
  362MOL0     H49894   1.860   4.485  -0.241 -0.1819 -2.3260  0.3199
  362MOL0     H49895   1.917   4.286  -0.350  2.2168 -0.3794 -1.1360
  362MOL0     H49896   1.799   4.315  -0.473  0.9399 -2.5206  1.1214
  362MOL0     H49897   2.005   4.324  -0.557 -2.6506 -2.2305  1.1129
  362MOL0     H49898   2.070   4.445  -0.427 -0.1422  1.4949 -0.4007
  362MOL0     H49899   1.870   4.507  -0.645  0.4816 -0.0512 -0.0557
  362MOL0     H49900   1.947   4.619  -0.529 -2.8425  0.4497  0.3482
  362MOL0     H49901   2.081   4.440  -0.759 -3.7078  2.5358 -3.7825
  362MOL0     H49902   2.165   4.579  -0.674  0.7986  2.2696 -4.0276
  362MOL0     H49903   2.006   4.729  -0.765 -1.7215 -0.4231  1.8168
  362MOL0     H49904   2.084   4.626  -0.888 -3.2969  1.7487 -2.8293
  362MOL0     H49905   1.765   4.769  -0.841  1.1426 -1.0097  1.9103
  362MOL0     H49906   1.582   4.698  -1.123 -1.5181  2.8216  1.4648
  362MOL0     H49907   1.516   4.727  -0.961 -0.5152  0.0649 -0.0628
  362MOL0     H49908   1.512   4.457  -1.093  0.7488 -0.4110 -0.2837
  362MOL0     H49909   1.422   4.504  -0.947 -0.7423 -0.3825 -0.5857
  362MOL0     H49910   1.283   4.646  -1.084  1.0237  0.3320  1.1261
  362MOL0     H49911   1.390   4.631  -1.224  0.9426 -1.1631  0.9324
  362MOL0     H49912   1.309   4.396  -1.252  0.4824  1.9444 -1.7084
  362MOL0     H49913   1.260   4.374  -1.081 -0.6745  1.6982  1.8873
  362MOL0     H49914   1.251   4.560  -1.415 -1.0736 -1.2879  2.3783
  362MOL0     H49915   1.102   4.736  -1.716  1.9591  1.3655  2.1665
  362MOL0     H49916   1.135   4.567  -1.712  1.6020 -0.1009 -1.2623
  362MOL0     H49917   1.249   4.681  -1.634  0.6806 -1.0725  0.9386
  362MOL0     H49918   0.653   4.750  -1.795  0.3048 -0.8482  2.4332
  362MOL0     H49919   0.464   4.873  -1.914 -0.5927  0.8736 -1.1976
  362MOL0     H49920   0.440   5.221  -2.101  2.0452  0.2599  0.9301
  362MOL0     H49921   0.530   5.075  -2.087  0.3418  0.0540 -1.7510
  362MOL0     H49922   0.344   5.001  -2.200 -0.7378 -1.0012 -0.5337
  362MOL0     H49923   0.302   4.953  -2.036 -1.8662  1.4496 -0.0286
  362MOL0     H49924   0.202   5.229  -2.122  1.1419  0.6244 -1.0220
  362MOL0     H49925   0.134   5.113  -2.025  2.1249  1.0264  1.1132
  362MOL0     H49926   0.113   4.966  -2.255 -0.9761  0.2069 -2.5636
  362MOL0     H49927   0.169   5.121  -2.334  0.9522  0.0731  0.3356
  362MOL0     H49928  -0.074   5.083  -2.168 -0.8567  0.4804 -0.5229
  362MOL0     H49929  -0.017   5.246  -2.241  3.7737  0.2918 -0.2827
  362MOL0     H49930  -0.087   4.985  -2.391  0.1364 -0.7818 -1.6875
  362MOL0     H49931  -0.048   5.142  -2.455  1.6884 -1.0479  0.0568
  362MOL0     H49932  -0.296   5.065  -2.290 -2.5343 -0.3079 -1.6847
  362MOL0     H49933  -0.296   5.099  -2.460  1.0423  0.7616  0.3012
  362MOL0     H49934  -0.188   5.349  -2.355 -2.3185  3.1050 -1.3447
  362MOL0     H49935  -0.296   5.296  -2.225 -1.2358 -0.5580 -0.6314
  362MOL0     H49936   0.620   5.240  -1.770  0.2668 -0.6299 -2.1260
  362MOL0     H49937   0.802   5.117  -1.637 -0.4470  2.6019 -2.4729
  362MOL0     H49938   0.764   4.667  -1.388 -0.6812  0.2828 -0.8551
  362MOL0     H49939   0.887   4.571  -1.187 -1.6249  1.1919 -0.4783
  362MOL0     H49940   1.246   4.451  -0.077 -3.2938 -0.3951  1.8977
  362MOL0     H49941   1.137   4.602   0.097  0.0756  0.9433  3.7537
  362MOL0     H49942   1.265   5.009   0.344 -0.0694 -0.5850 -1.2087
  362MOL0     H49943   1.212   5.182   0.492  1.4341  0.0946  0.9561
  362MOL0     H49944   0.874   5.156   0.770  0.1311 -0.3974 -0.0214
  362MOL0     H49945   1.010   5.147   0.893  0.7582  1.0764  1.1212
  362MOL0     H49946   1.085   5.381   0.836 -2.1066  2.7894 -2.8343
  362MOL0     H49947   0.945   5.349   0.939  0.4535 -3.2223  0.9792
  362MOL0     H49948   0.919   5.427   0.645  0.9335  2.3546  0.7697
  362MOL0     H49949   0.797   5.386   0.763 -0.6422  0.3771 -0.9895
  362MOL0     H49950   1.023   5.602   0.759  0.2661  3.0624  2.4296
  362MOL0     H49951   0.923   5.570   0.908  2.6514  2.2878 -0.2613
  362MOL0     H49952   0.700   5.839   0.654 -2.1463  0.3769  2.3867
  362MOL0     H49953   0.977   4.925   0.743  0.2957 -1.7220 -0.0086
  362MOL0     H49954   0.887   4.706   0.555  1.8572 -1.5809 -3.4411
  362MOL0     H49955   1.047   4.625   0.600  2.3935  1.6600  0.0332
  362MOL0     H49956   0.971   4.713   0.723  0.7349 -0.6217 -0.0612
  363MOL0     O49957   4.338  11.096  11.538 -0.2012 -1.0003  0.3153
  363MOL0     C49958   4.368  11.009  11.452  0.0535 -0.6742  0.2315
  363MOL0     O49959   4.476  11.011  11.365 -0.0732 -0.5137 -0.0011
  363MOL0     C49960   4.541  11.131  11.344  1.2424 -0.5125 -1.2920
  363MOL0     C49961   4.680  11.126  11.334 -0.7052  0.2506  0.8033
  363MOL0     C49962   4.737  11.243  11.276 -0.1872  0.1355 -1.9773
  363MOL0     C49963   4.672  11.359  11.244 -0.9957  0.3601  0.6146
  363MOL0     O49964   4.755  11.448  11.183 -0.7564  0.3713 -0.1750
  363MOL0     C49965   4.696  11.576  11.138 -0.5299  0.7825 -0.1545
  363MOL0     C49966   4.633  11.557  11.003  0.1835 -0.4332 -0.4635
  363MOL0     C49967   4.730  11.539  10.885 -0.6282  0.1913 -0.2244
  363MOL0     C49968   4.850  11.639  10.877  0.4537 -0.6565 -0.4034
  363MOL0     C49969   4.904  11.659  10.729 -0.8430 -0.6498  0.3274
  363MOL0     C49970   5.028  11.754  10.704  0.9543  0.1485 -0.5505
  363MOL0     C49971   5.035  11.870  10.801  0.0934 -0.3897 -0.8313
  363MOL0     C49972   4.934  11.987  10.756  0.4732 -0.5293 -0.7356
  363MOL0     N49973   4.933  12.096  10.849  0.1012  0.3257  0.0828
  363MOL0     C49974   5.011  12.202  10.835 -0.7969  0.7335  0.1919
  363MOL0     C49975   4.988  12.276  10.942  0.5631 -0.1024  0.5680
  363MOL0     C49976   5.044  12.408  10.970 -0.3060 -0.3373  0.3459
  363MOL0     C49977   5.172  12.390  11.044 -0.9184 -0.7019 -0.4609
  363MOL0     C49978   5.278  12.493  11.007  0.8014 -0.4784 -0.4103
  363MOL0     C49979   5.414  12.457  11.058  0.0765 -0.3429 -0.3241
  363MOL0     O49980   5.407  12.385  11.184 -0.2582  0.1564  0.0826
  363MOL0     C49981   5.521  12.355  11.257 -0.2511 -0.7983 -0.4255
  363MOL0     C49982   5.499  12.335  11.394  0.5790  0.6601 -0.0819
  363MOL0     C49983   5.604  12.311  11.489 -0.4133 -0.0800  0.0562
  363MOL0     C49984   5.568  12.253  11.622  1.2132 -0.7183 -0.5485
  363MOL0     C49985   5.739  12.327  11.440 -0.1407 -0.1304  1.3979
  363MOL0     C49986   5.859  12.299  11.530  0.2979 -0.8406  0.9169
  363MOL0     O49987   5.972  12.275  11.459  0.7431 -0.2009 -0.0117
  363MOL0     C49988   6.076  12.235  11.535 -0.1306  0.2355 -0.2616
  363MOL0     C49989   6.179  12.321  11.579  0.3629  0.1716  0.2833
  363MOL0     C49990   6.288  12.270  11.659  0.5865 -0.2510 -0.9663
  363MOL0     C49991   6.285  12.136  11.702 -0.0965 -0.4070 -0.0244
  363MOL0     O49992   6.397  12.097  11.778  0.4699 -0.2849  0.3476
  363MOL0     C49993   6.469  11.968  11.775  0.7103  0.5394  0.9132
  363MOL0     C49994   6.586  11.979  11.678  0.3078  0.0945 -1.0502
  363MOL0     C49995   6.661  11.852  11.698 -0.0947 -0.5673 -0.4282
  363MOL0     C49996   6.808  11.861  11.671 -0.6923 -0.6468  0.3744
  363MOL0     C49997   6.873  11.729  11.734  0.3280 -0.0214  0.0473
  363MOL0     C49998   7.016  11.704  11.677 -0.0868  0.2249 -0.1321
  363MOL0     C49999   7.067  11.578  11.738  0.2538 -0.7585  1.0408
  363MOL0     C50000   7.197  11.539  11.660 -0.7484 -1.4866  0.0533
  363MOL0    Cl50001   7.312  11.654  11.736  0.5646 -0.7284  0.4422
  363MOL0     C50002   6.179  12.055  11.666  0.1177  0.4030  0.0078
  363MOL0     C50003   6.074  12.106  11.583 -0.6740  1.0133 -0.0506
  363MOL0     O50004   5.848  12.312  11.655 -0.0160  0.0199 -0.0260
  363MOL0     C50005   5.758  12.358  11.298 -0.5937  0.3609 -0.7297
  363MOL0     C50006   5.652  12.363  11.213 -0.2160  0.1304 -0.1145
  363MOL0     N50007   4.897  12.212  11.018  1.0056  0.1563 -0.2421
  363MOL0     N50008   4.866  12.098  10.969 -0.2503  0.3508 -0.0316
  363MOL0     C50009   4.534  11.350  11.254  0.0054 -0.0827 -0.5322
  363MOL0     C50010   4.467  11.241  11.304 -0.7799 -0.6650  0.1813
  363MOL0     C50011   4.257  10.917  11.416  0.7553  0.1763 -0.8275
  363MOL0     C50012   4.261  10.860  11.286  0.4250  0.4625 -0.2806
  363MOL0     C50013   4.153  10.776  11.240 -0.3889 -0.0928  0.4388
  363MOL0     C50014   4.036  10.759  11.319  0.3027 -0.1323 -0.0951
  363MOL0     O50015   3.914  10.716  11.279 -0.5264  0.4335 -0.3896
  363MOL0     C50016   3.901  10.633  11.162  0.3114 -0.2775 -0.8951
  363MOL0     C50017   3.755  10.592  11.156  0.8759  0.2264 -0.5574
  363MOL0     C50018   3.690  10.537  11.285 -0.6960 -0.4938  0.0978
  363MOL0     C50019   3.738  10.400  11.325  0.1492 -0.4430  0.2363
  363MOL0     C50020   3.707  10.303  11.224  0.0860 -0.1810 -0.6764
  363MOL0     C50021   3.694  10.211  11.147  0.7966 -0.7386 -0.5872
  363MOL0     C50022   4.044  10.798  11.452  0.2312  0.1873  0.7834
  363MOL0     C50023   4.152  10.870  11.504 -0.8033 -0.5627 -0.1087
  363MOL0     C50024   4.141  10.918  11.645 -0.3332 -0.4336 -0.8409
  363MOL0     H50025   4.743  11.042  11.359 -1.6374 -0.5942  0.3959
  363MOL0     H50026   4.842  11.229  11.253  1.1594  0.2599  3.0620
  363MOL0     H50027   4.764  11.661  11.132  2.0355 -1.2356 -2.0502
  363MOL0     H50028   4.616  11.597  11.210 -1.2160 -2.4800  0.1754
  363MOL0     H50029   4.571  11.467  10.998  0.3621 -0.5830  0.0183
  363MOL0     H50030   4.580  11.651  10.983  0.0620 -0.7793 -1.8912
  363MOL0     H50031   4.774  11.439  10.893  0.4834  0.7445  1.1437
  363MOL0     H50032   4.677  11.551  10.791  1.2877 -1.2399 -1.5642
  363MOL0     H50033   4.809  11.736  10.906 -0.6569 -1.9884  2.8503
  363MOL0     H50034   4.932  11.617  10.945  1.1751  2.7814  0.0530
  363MOL0     H50035   4.827  11.692  10.659  0.0893  0.8995 -0.0238
  363MOL0     H50036   4.948  11.564  10.697 -1.4862 -1.2006  1.0343
  363MOL0     H50037   5.117  11.700  10.738 -0.8835 -1.8959  1.3333
  363MOL0     H50038   5.044  11.778  10.599  1.3283  0.4553 -0.4271
  363MOL0     H50039   5.133  11.910  10.775 -0.9716  3.0709 -0.0005
  363MOL0     H50040   5.027  11.834  10.904 -3.3407 -2.5244 -1.6532
  363MOL0     H50041   4.954  12.016  10.653  0.8397  0.0989 -0.4910
  363MOL0     H50042   4.833  11.944  10.760 -0.2834  1.0247 -1.9662
  363MOL0     H50043   5.067  12.218  10.743 -2.6160 -1.6128 -1.4800
  363MOL0     H50044   4.970  12.475  11.014 -1.8813 -0.9384 -1.2901
  363MOL0     H50045   5.079  12.457  10.878  1.3160 -1.0136  0.5668
  363MOL0     H50046   5.155  12.407  11.151  2.1334  3.7364 -0.3989
  363MOL0     H50047   5.212  12.290  11.028  1.9390  0.1423  0.6383
  363MOL0     H50048   5.278  12.504  10.898 -1.5660  2.9834 -0.2083
  363MOL0     H50049   5.239  12.582  11.058  0.0308 -1.9073  1.6286
  363MOL0     H50050   5.457  12.394  10.980  1.0259  3.4462 -3.1775
  363MOL0     H50051   5.474  12.548  11.062  0.7413 -0.8223  1.5750
  363MOL0     H50052   5.395  12.323  11.425  0.9684 -0.5181  0.8146
  363MOL0     H50053   5.626  12.294  11.706 -0.5826  0.7599  0.0396
  363MOL0     H50054   5.578  12.145  11.622 -0.9222 -0.9703  0.8341
  363MOL0     H50055   5.464  12.278  11.646  1.1492 -2.2257  0.9065
  363MOL0     H50056   6.193  12.428  11.563  0.3436 -0.2148 -2.9002
  363MOL0     H50057   6.368  12.333  11.695  0.9753 -1.4892  0.4312
  363MOL0     H50058   6.508  11.935  11.872  4.5287  2.7318  0.3498
  363MOL0     H50059   6.390  11.901  11.740 -0.0547  1.0914  1.5770
  363MOL0     H50060   6.561  12.009  11.576  0.2583  1.0650 -0.7608
  363MOL0     H50061   6.658  12.046  11.727  1.7711 -0.6989 -2.0389
  363MOL0     H50062   6.625  11.784  11.621 -2.6518  3.1678 -2.8894
  363MOL0     H50063   6.647  11.811  11.798  3.4314  1.9192  1.3342
  363MOL0     H50064   6.854  11.952  11.710 -1.9816 -0.0648  0.5783
  363MOL0     H50065   6.832  11.857  11.565  0.5599  1.2486  0.5406
  363MOL0     H50066   6.860  11.726  11.842  1.0375  0.2716  0.1449
  363MOL0     H50067   6.817  11.642  11.700  0.7645 -0.6210  0.8356
  363MOL0     H50068   7.087  11.782  11.708  2.1273 -0.4475 -3.0349
  363MOL0     H50069   7.022  11.696  11.568  0.7325 -2.4258  0.0364
  363MOL0     H50070   6.982  11.511  11.729 -1.6982  1.5776  0.9890
  363MOL0     H50071   7.083  11.578  11.846  0.9498  1.2415  0.9876
  363MOL0     H50072   7.182  11.542  11.552 -0.1644  2.4337 -0.0350
  363MOL0     H50073   7.229  11.438  11.689 -1.2320 -2.4369 -2.4589
  363MOL0     H50074   6.192  11.948  11.683  3.6768  0.2800 -2.4158
  363MOL0     H50075   5.992  12.035  11.573 -0.2725  0.6860 -1.2643
  363MOL0     H50076   5.860  12.360  11.259 -0.3425  0.0811 -0.0962
  363MOL0     H50077   5.666  12.382  11.107 -2.6895 -0.5197 -0.6132
  363MOL0     H50078   4.482  11.439  11.218  0.4676 -0.5521 -2.4895
  363MOL0     H50079   4.360  11.253  11.291 -0.7493  3.0057  2.0193
  363MOL0     H50080   4.346  10.870  11.219  1.1194 -0.9886  0.3400
  363MOL0     H50081   4.156  10.737  11.138 -2.1558  2.2596 -0.6152
  363MOL0     H50082   3.927  10.699  11.079 -1.3092 -1.5582 -2.5033
  363MOL0     H50083   3.961  10.542  11.166 -1.0613 -1.1826 -0.1551
  363MOL0     H50084   3.756  10.520  11.074 -2.5471  0.0725 -0.5908
  363MOL0     H50085   3.695  10.674  11.117  1.0493 -0.2886 -1.9706
  363MOL0     H50086   3.712  10.617  11.356  1.4885 -0.6034 -0.3835
  363MOL0     H50087   3.582  10.539  11.266 -0.7241  0.6858  0.2993
  363MOL0     H50088   3.685  10.373  11.417  1.5455 -0.6204  1.0171
  363MOL0     H50089   3.847  10.401  11.330  0.1637  0.1038 -0.1480
  363MOL0     H50090   3.683  10.123  11.086 -1.4658 -1.5902  0.9195
  363MOL0     H50091   3.958  10.776  11.514 -0.4120  2.5126  0.8302
  363MOL0     H50092   4.116  11.024  11.650 -0.8326 -0.5656 -0.4221
  363MOL0     H50093   4.072  10.866  11.711  1.1634  1.7516  2.7549
  363MOL0     H50094   4.239  10.908  11.693 -2.1223  0.0590  3.3867
  364MOL0     O50095   7.990   2.215   3.856 -0.0174 -0.1961  0.1101
  364MOL0     C50096   8.043   2.111   3.892 -0.5202  0.5195  0.3556
  364MOL0     O50097   8.120   2.093   3.993  0.0347  0.0738  0.0874
  364MOL0     C50098   8.172   2.197   4.066  0.1088  0.0917  0.6913
  364MOL0     C50099   8.282   2.269   4.022  0.4990 -0.0854 -0.0300
  364MOL0     C50100   8.321   2.371   4.105 -0.9684 -0.8337 -0.4466
  364MOL0     C50101   8.254   2.406   4.223 -0.1550  0.1449  0.5904
  364MOL0     O50102   8.306   2.503   4.295 -0.7298 -0.4399 -0.1422
  364MOL0     C50103   8.235   2.631   4.269  0.1619 -0.9223 -0.1061
  364MOL0     C50104   8.325   2.763   4.258 -0.3318  0.7954  0.5061
  364MOL0     C50105   8.398   2.790   4.397 -0.2860 -0.8041 -0.4769
  364MOL0     C50106   8.503   2.907   4.382  0.3850 -0.8293 -0.5335
  364MOL0     C50107   8.597   2.936   4.493  1.2274 -0.7704  0.8555
  364MOL0     C50108   8.697   3.042   4.462 -0.1592  0.1576 -0.1701
  364MOL0     C50109   8.809   3.072   4.564  0.3624 -0.1403  0.8153
  364MOL0     C50110   8.746   3.113   4.696 -0.5322  0.0930  0.0969
  364MOL0     N50111   8.658   3.237   4.711  0.1242  0.3414  0.3523
  364MOL0     C50112   8.683   3.362   4.668 -0.0772 -0.2052 -0.2581
  364MOL0     C50113   8.572   3.434   4.690 -0.0328  0.5401  0.0323
  364MOL0     C50114   8.563   3.581   4.683 -0.4933 -0.5871  0.7339
  364MOL0     C50115   8.443   3.643   4.753  0.0469  0.3297  0.1217
  364MOL0     C50116   8.447   3.792   4.781 -0.4825  0.0021 -0.5170
  364MOL0     C50117   8.348   3.841   4.895  0.0891  0.3576  0.2176
  364MOL0     O50118   8.345   3.985   4.893 -0.4165  0.8781 -0.3645
  364MOL0     C50119   8.457   4.065   4.876  0.5358  0.6966  0.6751
  364MOL0     C50120   8.585   4.048   4.937 -0.2756  0.3250 -0.1622
  364MOL0     C50121   8.684   4.141   4.911 -1.4294 -1.1461  0.3602
  364MOL0     C50122   8.831   4.101   4.955  0.1280 -0.2691  0.1584
  364MOL0     C50123   8.664   4.252   4.820 -0.2564 -0.3612  0.3103
  364MOL0     C50124   8.776   4.344   4.770  0.1806  0.7325  0.8265
  364MOL0     O50125   8.749   4.442   4.677  0.0280 -0.0903 -0.0701
  364MOL0     C50126   8.843   4.523   4.615 -1.1154 -0.0296 -0.6793
  364MOL0     C50127   8.982   4.489   4.607  0.8455 -0.4176 -0.9950
  364MOL0     C50128   9.068   4.575   4.546  0.5394 -0.8543  0.2062
  364MOL0     C50129   9.029   4.697   4.488  0.1741  1.1258  0.6216
  364MOL0     O50130   9.128   4.782   4.438 -0.2679  1.0331 -0.1269
  364MOL0     C50131   9.088   4.914   4.399 -0.8986 -0.9933 -0.0667
  364MOL0     C50132   9.210   5.001   4.416  0.2094  0.4782  0.3302
  364MOL0     C50133   9.349   4.950   4.361 -0.4492 -0.3467 -0.1194
  364MOL0     C50134   9.456   5.062   4.365  0.3014  0.0089  0.2309
  364MOL0     C50135   9.588   5.005   4.309 -0.0827 -0.1498 -0.9405
  364MOL0     C50136   9.704   5.099   4.357 -0.1802 -0.1708 -0.3387
  364MOL0     C50137   9.833   5.057   4.284 -1.2527  0.7559  0.2678
  364MOL0     C50138   9.891   4.916   4.323  0.1036  0.0429  0.5106
  364MOL0    Cl50139  10.037   4.900   4.223 -0.0731 -0.5531  0.0919
  364MOL0     C50140   8.893   4.723   4.498 -0.7569  0.0243 -0.3194
  364MOL0     C50141   8.804   4.643   4.570  0.5942 -1.2399 -0.1369
  364MOL0     O50142   8.887   4.334   4.821 -0.2178 -0.2378  0.2779
  364MOL0     C50143   8.535   4.276   4.761  0.4038  0.4884 -0.0580
  364MOL0     C50144   8.433   4.176   4.795 -1.1434  0.0217 -0.1036
  364MOL0     N50145   8.480   3.342   4.737 -0.2867 -0.1242 -0.3773
  364MOL0     N50146   8.533   3.225   4.749 -0.1948 -0.7962 -1.0614
  364MOL0     C50147   8.151   2.327   4.276  0.5328  0.3976 -1.0494
  364MOL0     C50148   8.105   2.227   4.192  0.9478  0.2767 -0.2557
  364MOL0     C50149   8.024   1.999   3.795 -0.3427  0.6462  0.0171
  364MOL0     C50150   7.943   2.026   3.688 -0.1674  0.5723 -0.6904
  364MOL0     C50151   7.913   1.936   3.588  0.3531 -0.1710  0.7763
  364MOL0     C50152   7.966   1.808   3.595 -0.6490 -0.0426 -0.0165
  364MOL0     O50153   7.931   1.714   3.499 -0.0274 -0.7098  0.7753
  364MOL0     C50154   7.977   1.578   3.495 -0.6941  0.3608 -0.5882
  364MOL0     C50155   7.904   1.479   3.582  0.9431  0.5807  0.0002
  364MOL0     C50156   7.780   1.436   3.512  0.2812  0.0221 -0.0382
  364MOL0     C50157   7.794   1.313   3.418 -0.5872  0.7953  1.1132
  364MOL0     C50158   7.669   1.305   3.335 -0.4503  1.3368  0.2534
  364MOL0     C50159   7.570   1.292   3.272 -0.2098  0.9114  0.2396
  364MOL0     C50160   8.052   1.768   3.696  0.2015  0.5193  0.2870
  364MOL0     C50161   8.084   1.866   3.794 -0.2876  0.0311  0.8130
  364MOL0     C50162   8.176   1.817   3.900  0.6283  0.7120  0.1822
  364MOL0     H50163   8.329   2.254   3.926  2.1991  3.9648 -0.0379
  364MOL0     H50164   8.390   2.445   4.064 -0.6392  0.5430  2.3959
  364MOL0     H50165   8.164   2.653   4.349  0.4589  1.7283 -0.4801
  364MOL0     H50166   8.185   2.631   4.172  1.7365  3.5076 -1.1431
  364MOL0     H50167   8.403   2.743   4.184  1.5735  0.3619  2.5487
  364MOL0     H50168   8.266   2.844   4.214 -2.0095 -1.0884 -0.8953
  364MOL0     H50169   8.323   2.806   4.474  1.1188  0.2865  0.7300
  364MOL0     H50170   8.462   2.705   4.422 -0.7524 -1.7326 -2.2732
  364MOL0     H50171   8.569   2.891   4.296 -0.7157 -1.1666 -1.3385
  364MOL0     H50172   8.453   2.997   4.347  0.9068  0.1662  1.1412
  364MOL0     H50173   8.644   2.839   4.512 -0.1937 -1.0581  3.3421
  364MOL0     H50174   8.536   2.972   4.577 -1.0017 -1.0789 -0.5364
  364MOL0     H50175   8.746   3.006   4.371  2.7036  1.5248  0.7417
  364MOL0     H50176   8.650   3.137   4.437  0.1222 -0.0675 -1.6636
  364MOL0     H50177   8.880   3.150   4.536  1.0320 -1.1474 -0.3969
  364MOL0     H50178   8.873   2.984   4.577  2.0002  0.9248  0.2007
  364MOL0     H50179   8.683   3.027   4.718  1.0743 -1.6749 -1.7759
  364MOL0     H50180   8.836   3.137   4.754  1.2319  0.1679 -2.4854
  364MOL0     H50181   8.779   3.400   4.633  1.3152 -0.2014  3.1661
  364MOL0     H50182   8.567   3.611   4.578  1.0140  1.3764  1.2804
  364MOL0     H50183   8.651   3.627   4.731 -0.9274  1.5433 -0.3709
  364MOL0     H50184   8.348   3.620   4.704 -1.5612  1.5532  2.4668
  364MOL0     H50185   8.444   3.587   4.847  0.8612  0.3921  0.1543
  364MOL0     H50186   8.547   3.826   4.810 -0.9975 -1.3288  3.3312
  364MOL0     H50187   8.426   3.844   4.687  2.7791 -2.1668 -2.6766
  364MOL0     H50188   8.244   3.808   4.896  0.1094  0.3020  0.7733
  364MOL0     H50189   8.392   3.819   4.993 -0.4353  0.2631  0.4340
  364MOL0     H50190   8.615   3.960   4.992 -0.2251  1.2963  1.4142
  364MOL0     H50191   8.824   4.008   5.013 -2.1034 -0.3914 -0.2121
  364MOL0     H50192   8.875   4.173   5.024 -2.0641  0.3933  0.9786
  364MOL0     H50193   8.906   4.080   4.879 -0.7376 -1.1764 -0.4807
  364MOL0     H50194   9.031   4.402   4.649  3.0798  1.8594  1.5299
  364MOL0     H50195   9.170   4.540   4.558  0.7644 -0.2309  0.1702
  364MOL0     H50196   9.069   4.906   4.292  1.3836  2.3938 -0.8638
  364MOL0     H50197   9.015   4.962   4.466  1.4883  0.1221  1.8927
  364MOL0     H50198   9.177   5.098   4.375 -0.5175 -0.7140 -2.1132
  364MOL0     H50199   9.209   5.020   4.523  1.2889 -3.6674  1.2473
  364MOL0     H50200   9.314   4.912   4.265 -2.6016 -0.4341  0.6454
  364MOL0     H50201   9.397   4.865   4.411  1.3632  1.1321  0.8032
  364MOL0     H50202   9.467   5.095   4.468 -4.2948 -1.2075  1.3388
  364MOL0     H50203   9.414   5.151   4.316 -0.9265  1.6689  3.9577
  364MOL0     H50204   9.603   4.902   4.344  0.1491 -0.0508 -0.7506
  364MOL0     H50205   9.596   4.997   4.200  1.4867 -2.6778 -0.7223
  364MOL0     H50206   9.720   5.085   4.465  2.5171 -1.3024 -0.7869
  364MOL0     H50207   9.682   5.205   4.348 -1.2609 -0.1019  2.1206
  364MOL0     H50208   9.914   5.128   4.303 -1.7422  3.2221 -4.9300
  364MOL0     H50209   9.804   5.057   4.179  0.5028  0.8473 -0.2510
  364MOL0     H50210   9.816   4.842   4.292  0.3211  1.1645 -3.2309
  364MOL0     H50211   9.908   4.913   4.431 -2.0466  0.6311  0.9197
  364MOL0     H50212   8.855   4.817   4.460  2.0594  0.5042 -2.2266
  364MOL0     H50213   8.703   4.684   4.576  1.2529  0.9155 -2.2305
  364MOL0     H50214   8.515   4.357   4.691 -2.4944 -0.7597 -0.8164
  364MOL0     H50215   8.339   4.196   4.745  0.2923  1.0456 -2.5598
  364MOL0     H50216   8.113   2.349   4.375 -3.9759  0.9068 -2.6838
  364MOL0     H50217   8.018   2.169   4.220 -0.7403  2.4588 -0.7398
  364MOL0     H50218   7.884   2.116   3.676 -1.6131 -0.5162 -1.9135
  364MOL0     H50219   7.843   1.975   3.515  2.8624 -1.7904 -2.7785
  364MOL0     H50220   7.981   1.547   3.390 -0.7103 -0.3316 -0.3918
  364MOL0     H50221   8.082   1.564   3.522 -0.5650 -0.6425 -1.5127
  364MOL0     H50222   7.875   1.532   3.673  1.8007 -1.9448  1.8621
  364MOL0     H50223   7.961   1.391   3.615  1.0662  1.5324  2.5323
  364MOL0     H50224   7.705   1.403   3.584  0.3517  0.3421  0.1856
  364MOL0     H50225   7.745   1.512   3.440  1.3711 -0.3306 -0.9698
  364MOL0     H50226   7.817   1.214   3.457 -0.0292  0.3367 -0.3045
  364MOL0     H50227   7.870   1.329   3.341  0.4546  1.0993  2.1806
  364MOL0     H50228   7.485   1.276   3.209 -1.1249  2.1911  1.0798
  364MOL0     H50229   8.084   1.665   3.713 -3.8298 -1.1719 -1.1802
  364MOL0     H50230   8.115   1.808   3.991  1.6390 -2.6653  0.6689
  364MOL0     H50231   8.208   1.714   3.879  2.0901  0.8806  1.3981
  364MOL0     H50232   8.260   1.885   3.916  0.5483  0.7450  0.4796
  365MOL0     O50233  10.801   0.102   8.225  0.6790  0.3408 -0.6079
  365MOL0     C50234  10.693   0.138   8.194  0.7381  0.7896 -0.4826
  365MOL0     O50235  10.656   0.234   8.104  0.0825  0.1903  1.1956
  365MOL0     C50236  10.756   0.287   8.027  0.9626  0.5302 -0.1226
  365MOL0     C50237  10.762   0.427   8.000 -0.5700 -0.1374  0.0987
  365MOL0     C50238  10.845   0.481   7.916 -0.2863 -0.1812 -1.4749
  365MOL0     C50239  10.944   0.406   7.851  0.0488 -0.2716  0.6632
  365MOL0     O50240  11.042   0.454   7.762  0.4996 -0.2186 -0.2146
  365MOL0     C50241  11.090   0.585   7.773 -0.5333  0.1366 -0.0646
  365MOL0     C50242  11.185   0.594   7.883  0.4966  0.5877 -0.0995
  365MOL0     C50243  11.224   0.747   7.910  0.3594  0.9015  0.5028
  365MOL0     C50244  11.297   0.752   8.044 -0.0115  0.4814  0.1668
  365MOL0     C50245  11.399   0.860   8.068  0.1178  0.1216  0.4486
  365MOL0     C50246  11.338   1.009   8.040  0.0036  0.9470  0.5774
  365MOL0     C50247  11.436   1.120   8.072  0.0339  1.4241 -0.5819
  365MOL0     C50248  11.404   1.266   8.060  0.7431  0.1215 -0.0210
  365MOL0     N50249  11.341   1.302   7.925 -0.1339  0.4746  0.0202
  365MOL0     C50250  11.370   1.419   7.860 -0.1977 -0.1380 -0.4915
  365MOL0     C50251  11.276   1.440   7.766  0.4149  0.7599  0.2275
  365MOL0     C50252  11.268   1.555   7.675  0.7177  0.2675 -0.5370
  365MOL0     C50253  11.248   1.695   7.745  0.5835  0.2906  0.0624
  365MOL0     C50254  11.225   1.801   7.634 -0.6085  0.2362  0.2158
  365MOL0     C50255  11.362   1.855   7.586 -0.0010 -0.5261 -0.6070
  365MOL0     O50256  11.335   1.974   7.509  0.0802  0.3718  0.7329
  365MOL0     C50257  11.450   2.024   7.439  0.0065 -0.6090 -0.0333
  365MOL0     C50258  11.564   1.952   7.404  0.5679  0.3763  0.1626
  365MOL0     C50259  11.668   2.029   7.334  0.1958  0.5813 -0.1894
  365MOL0     C50260  11.791   1.943   7.304 -0.1101 -0.5469 -0.4653
  365MOL0     C50261  11.672   2.167   7.302  0.4661 -0.4263  0.2091
  365MOL0     C50262  11.784   2.250   7.261 -0.0715 -0.7936 -0.8005
  365MOL0     O50263  11.788   2.375   7.311 -0.6233  0.3816  1.1362
  365MOL0     C50264  11.885   2.473   7.285  0.9458  1.0011  0.2766
  365MOL0     C50265  11.846   2.610   7.304 -0.6695  0.8373 -0.6626
  365MOL0     C50266  11.930   2.716   7.285 -0.3537  0.2586 -0.3205
  365MOL0     C50267  12.063   2.689   7.244 -0.5851 -0.3218 -0.0392
  365MOL0     O50268  12.166   2.774   7.214  0.1515 -0.4412  0.1333
  365MOL0     C50269  12.155   2.912   7.247  0.8046 -0.2417 -0.0551
  365MOL0     C50270  12.262   3.008   7.184 -0.2496 -1.1464 -0.6357
  365MOL0     C50271  12.255   3.011   7.029  0.0382  0.0117  0.0338
  365MOL0     C50272  12.360   3.097   6.958  0.2684  0.1176  0.1483
  365MOL0     C50273  12.495   3.015   6.965 -0.7356 -0.0354  0.0828
  365MOL0     C50274  12.610   3.099   6.923 -0.2490  0.2561 -0.4316
  365MOL0     C50275  12.758   3.039   6.957 -0.0932 -0.0307  0.2790
  365MOL0     C50276  12.764   2.890   6.915  0.6372  0.0078  0.5949
  365MOL0    Cl50277  12.721   2.879   6.749 -0.0668 -0.1612 -0.0262
  365MOL0     C50278  12.097   2.556   7.226  0.9401 -0.1542 -0.1135
  365MOL0     C50279  12.011   2.441   7.241 -0.5220 -0.7543  0.5727
  365MOL0     O50280  11.864   2.205   7.182  0.3442  0.4594 -0.0925
  365MOL0     C50281  11.558   2.235   7.348 -0.1432  0.1965 -0.2461
  365MOL0     C50282  11.450   2.168   7.410 -0.6127  0.2668  0.1292
  365MOL0     N50283  11.177   1.338   7.790  0.7563 -0.5764 -0.1049
  365MOL0     N50284  11.222   1.263   7.887 -0.1157  0.0564  0.1861
  365MOL0     C50285  10.943   0.267   7.872 -0.0678 -0.2371 -0.4496
  365MOL0     C50286  10.847   0.205   7.959 -0.7871 -0.5998 -0.7509
  365MOL0     C50287  10.576   0.092   8.274  0.1278 -0.5040  0.7343
  365MOL0     C50288  10.452   0.103   8.211 -0.3467  0.2192  0.4450
  365MOL0     C50289  10.326   0.077   8.266  0.6915 -0.5217 -0.6716
  365MOL0     C50290  10.312   0.044   8.402 -0.8411 -0.3363 -0.1425
  365MOL0     O50291  10.193   0.028   8.475 -0.5608 -0.0558  0.9226
  365MOL0     C50292  10.062   0.023   8.416  0.2723 -0.1982  0.1228
  365MOL0     C50293   9.967   0.007   8.537  0.7090 -0.2054 -0.6875
  365MOL0     C50294   9.985  -0.115   8.618 -0.0717  0.0407 -0.7257
  365MOL0     C50295   9.866  -0.129   8.719  0.4580  0.5170 -0.1180
  365MOL0     C50296   9.837  -0.273   8.758 -0.7890 -0.0861  0.7650
  365MOL0     C50297   9.800  -0.379   8.802  0.0442  0.0877  1.0933
  365MOL0     C50298  10.438   0.015   8.469 -0.2341 -0.5089 -0.3314
  365MOL0     C50299  10.566   0.057   8.412  0.9039  0.1026  0.0805
  365MOL0     C50300  10.676   0.051   8.516  0.2070 -0.0147  0.4696
  365MOL0     H50301  10.691   0.496   8.044 -2.1945 -0.4021 -1.9618
  365MOL0     H50302  10.866   0.588   7.912 -0.6796 -0.1248 -2.1887
  365MOL0     H50303  11.012   0.662   7.775  1.2651  2.0662 -0.9745
  365MOL0     H50304  11.149   0.620   7.688  0.9407  1.2217  1.3587
  365MOL0     H50305  11.147   0.548   7.975  2.4592  1.6594  1.3143
  365MOL0     H50306  11.271   0.534   7.852 -1.3453 -1.7605 -1.0147
  365MOL0     H50307  11.293   0.782   7.832  0.8872  1.5477  1.2382
  365MOL0     H50308  11.137   0.813   7.911 -0.6877 -0.3858 -0.7917
  365MOL0     H50309  11.220   0.764   8.120  0.7828 -0.9407  1.2464
  365MOL0     H50310  11.342   0.656   8.073 -0.6108 -0.2726 -1.2908
  365MOL0     H50311  11.471   0.835   7.990  2.2891 -1.2874  2.7613
  365MOL0     H50312  11.441   0.860   8.169 -0.5641  1.3427  0.7572
  365MOL0     H50313  11.294   1.010   7.940  0.5513  0.9127  0.3329
  365MOL0     H50314  11.251   1.017   8.106  1.0144  2.4631  1.7863
  365MOL0     H50315  11.518   1.091   8.006  0.2337 -2.3103  1.0699
  365MOL0     H50316  11.459   1.112   8.178  1.9925  5.0071 -0.5580
  365MOL0     H50317  11.337   1.272   8.146  1.8516 -1.0613  0.9773
  365MOL0     H50318  11.482   1.340   8.081  0.1191 -0.3036  4.9316
  365MOL0     H50319  11.450   1.480   7.899 -2.5711  1.5546  2.1159
  365MOL0     H50320  11.176   1.540   7.617 -1.8571  3.8242  2.2205
  365MOL0     H50321  11.357   1.559   7.611 -0.0673  2.5971 -1.6327
  365MOL0     H50322  11.162   1.691   7.813 -0.0206  0.1823 -0.6925
  365MOL0     H50323  11.339   1.725   7.796  0.2178  2.9820 -0.7148
  365MOL0     H50324  11.159   1.753   7.561 -0.1528 -1.3024  0.7878
  365MOL0     H50325  11.165   1.877   7.684 -1.6851 -1.1232  1.0583
  365MOL0     H50326  11.434   1.885   7.663 -2.2989 -1.6046  2.1401
  365MOL0     H50327  11.400   1.775   7.521  0.1988 -1.5954  0.7813
  365MOL0     H50328  11.576   1.847   7.428  1.0039  0.4920  0.4662
  365MOL0     H50329  11.886   1.996   7.311  0.1143 -1.1179  1.4354
  365MOL0     H50330  11.775   1.888   7.211 -0.4142  0.9047 -1.2848
  365MOL0     H50331  11.799   1.866   7.382 -0.6322  1.2471  1.4366
  365MOL0     H50332  11.742   2.632   7.326 -0.8732 -0.9411  0.3830
  365MOL0     H50333  11.892   2.815   7.265 -2.5962 -1.0468 -3.3692
  365MOL0     H50334  12.054   2.939   7.217 -0.2815 -3.5588  0.3152
  365MOL0     H50335  12.170   2.931   7.354 -0.6163 -0.2482  0.1582
  365MOL0     H50336  12.234   3.108   7.217 -2.3117 -1.8827 -0.0315
  365MOL0     H50337  12.363   2.980   7.214  0.2277 -1.1644 -2.1444
  365MOL0     H50338  12.155   3.049   7.009 -0.2349 -1.5726 -2.0258
  365MOL0     H50339  12.254   2.910   6.987 -0.8738 -0.0213  0.1202
  365MOL0     H50340  12.373   3.195   7.005  1.2014  0.1106 -0.0721
  365MOL0     H50341  12.322   3.106   6.856  1.7708 -1.8278 -0.6407
  365MOL0     H50342  12.516   2.966   7.060 -0.6030  1.1279  0.6802
  365MOL0     H50343  12.471   2.936   6.893 -1.5080 -0.0565  0.3542
  365MOL0     H50344  12.602   3.198   6.969  3.1437 -0.0843  1.2019
  365MOL0     H50345  12.614   3.125   6.816  1.1509  0.8196 -0.2628
  365MOL0     H50346  12.783   3.039   7.064 -2.0253  1.9704  0.8048
  365MOL0     H50347  12.829   3.095   6.896 -2.9127  1.3903 -1.9139
  365MOL0     H50348  12.690   2.833   6.972  3.3721 -3.8159  0.7026
  365MOL0     H50349  12.862   2.843   6.928  1.5840  0.3688 -3.7530
  365MOL0     H50350  12.197   2.534   7.192  1.9947  4.2006 -0.3405
  365MOL0     H50351  12.053   2.342   7.227  1.0974 -0.0809  0.4864
  365MOL0     H50352  11.553   2.343   7.345  1.4818  0.5189  3.0403
  365MOL0     H50353  11.357   2.224   7.414  0.5215  2.2866 -0.1852
  365MOL0     H50354  11.023   0.207   7.829  1.1494  0.0159  1.3496
  365MOL0     H50355  10.846   0.098   7.973  1.1245 -0.2975  2.6173
  365MOL0     H50356  10.443   0.136   8.108 -2.5361 -0.5188  0.3461
  365MOL0     H50357  10.238   0.071   8.202 -2.4896 -2.0581  3.4331
  365MOL0     H50358  10.051   0.109   8.351  0.1208 -0.6601 -0.4705
  365MOL0     H50359  10.056  -0.065   8.351 -0.8885 -0.8593  1.0911
  365MOL0     H50360   9.864   0.008   8.498 -0.3033 -0.8885  1.8148
  365MOL0     H50361   9.982   0.091   8.605  2.8718 -0.9725 -0.1420
  365MOL0     H50362   9.986  -0.207   8.558 -0.6425 -0.2298 -0.3217
  365MOL0     H50363  10.087  -0.116   8.657 -0.1736  1.2277 -0.4029
  365MOL0     H50364   9.778  -0.070   8.694  0.5484 -0.2723 -2.5113
  365MOL0     H50365   9.908  -0.070   8.801  1.1937  0.3243 -0.3496
  365MOL0     H50366   9.762  -0.467   8.850 -0.5520 -0.9769 -1.1668
  365MOL0     H50367  10.422  -0.004   8.575  3.2311  0.6176  0.5214
  365MOL0     H50368  10.770   0.073   8.464 -0.4414  3.0743  0.3850
  365MOL0     H50369  10.654   0.130   8.588  0.4616  1.4062 -0.9571
  365MOL0     H50370  10.675  -0.049   8.559 -1.7432 -0.0687  0.3758
  366MOL0     O50371   1.866   7.899   5.639  0.6750  0.4029 -0.5407
  366MOL0     C50372   1.843   7.819   5.734  0.1141  0.1641  0.6275
  366MOL0     O50373   1.905   7.822   5.855  0.6654  0.1272  0.2178
  366MOL0     C50374   1.963   7.934   5.903 -1.0469 -1.2616 -0.0871
  366MOL0     C50375   1.888   8.042   5.948 -0.5032  0.8245 -0.2119
  366MOL0     C50376   1.962   8.147   6.009 -0.2982 -0.7578  0.3920
  366MOL0     C50377   2.106   8.144   6.005  0.4658  0.7095  0.5477
  366MOL0     O50378   2.186   8.246   6.052  0.0397  0.4212  0.5522
  366MOL0     C50379   2.120   8.347   6.130 -0.1583  0.5296 -0.0666
  366MOL0     C50380   2.226   8.400   6.231  0.3673 -0.3683 -0.6569
  366MOL0     C50381   2.348   8.468   6.162 -0.6409  0.2174  0.8496
  366MOL0     C50382   2.445   8.536   6.254 -0.5699 -0.3169 -0.5077
  366MOL0     C50383   2.376   8.657   6.320 -0.6325 -0.1005  0.1794
  366MOL0     C50384   2.474   8.733   6.420  0.1500  0.6884 -0.3157
  366MOL0     C50385   2.401   8.831   6.516 -0.3946  0.5708 -0.5684
  366MOL0     C50386   2.490   8.908   6.601  0.6061 -0.2398 -0.0556
  366MOL0     N50387   2.577   8.818   6.683  0.7232  0.0802  0.0830
  366MOL0     C50388   2.544   8.711   6.750 -0.3632  0.4106 -0.7096
  366MOL0     C50389   2.650   8.674   6.826  0.7965  0.7532 -0.2941
  366MOL0     C50390   2.658   8.550   6.915 -0.4907 -0.3365 -0.3680
  366MOL0     C50391   2.677   8.417   6.830 -0.1494 -0.0242 -0.0138
  366MOL0     C50392   2.666   8.285   6.918  0.0128  0.3366  0.0937
  366MOL0     C50393   2.807   8.240   6.965 -0.5467  0.2286 -0.1514
  366MOL0     O50394   2.850   8.339   7.063  0.1459  0.0696 -0.4345
  366MOL0     C50395   2.917   8.284   7.173 -0.6104 -1.0154  0.3941
  366MOL0     C50396   3.011   8.182   7.177  0.2574 -0.6136  0.3411
  366MOL0     C50397   3.078   8.155   7.296 -0.1259 -0.4374 -0.4847
  366MOL0     C50398   3.159   8.028   7.293 -0.2395  0.7439 -0.2941
  366MOL0     C50399   3.032   8.215   7.420  0.3471  0.0241  0.7417
  366MOL0     C50400   3.078   8.181   7.561 -0.0294  0.4567  0.6446
  366MOL0     O50401   3.021   8.226   7.668 -0.8120 -0.5572  0.6528
  366MOL0     C50402   3.084   8.228   7.784  0.7396 -0.4774 -0.0364
  366MOL0     C50403   3.013   8.190   7.894 -0.5064 -0.1195  0.4859
  366MOL0     C50404   3.077   8.169   8.014 -0.1197  0.2375  0.9880
  366MOL0     C50405   3.218   8.192   8.022 -0.1050 -0.7289 -0.1682
  366MOL0     O50406   3.299   8.175   8.133 -0.0826 -0.1744 -0.4360
  366MOL0     C50407   3.300   8.039   8.181 -0.5879  0.1189 -0.0021
  366MOL0     C50408   3.410   8.023   8.285  0.0735  0.1865 -0.3808
  366MOL0     C50409   3.409   7.883   8.341  0.8572 -0.5376 -0.1220
  366MOL0     C50410   3.533   7.860   8.435  0.1414 -0.6461  0.2040
  366MOL0     C50411   3.562   7.720   8.491 -0.5367  0.0152 -0.2031
  366MOL0     C50412   3.446   7.640   8.552 -0.6760  0.5135 -0.4133
  366MOL0     C50413   3.489   7.517   8.626  0.3277 -0.3394 -0.3841
  366MOL0     C50414   3.559   7.574   8.749  0.2468  0.2933  0.0479
  366MOL0    Cl50415   3.742   7.550   8.741 -0.0052  0.2158  0.5251
  366MOL0     C50416   3.292   8.247   7.916  0.9738 -0.0860 -0.6750
  366MOL0     C50417   3.221   8.259   7.798 -0.7331  0.2683  0.2728
  366MOL0     O50418   3.170   8.098   7.566 -0.6264 -0.7003 -0.5490
  366MOL0     C50419   2.928   8.309   7.413 -0.3646 -0.1749  0.1276
  366MOL0     C50420   2.883   8.351   7.292  0.2657 -0.6476  0.2849
  366MOL0     N50421   2.748   8.763   6.811  0.0072  1.0751  0.4676
  366MOL0     N50422   2.708   8.852   6.717  0.0926 -0.1541 -0.1930
  366MOL0     C50423   2.170   8.040   5.944 -0.4965 -0.7847 -0.3384
  366MOL0     C50424   2.106   7.933   5.898 -0.1855  0.3389 -0.5044
  366MOL0     C50425   1.726   7.729   5.706  0.1707  0.6472 -0.9098
  366MOL0     C50426   1.613   7.775   5.632 -0.5240 -0.3386  0.0755
  366MOL0     C50427   1.490   7.705   5.637  0.4018  0.6136  0.2275
  366MOL0     C50428   1.473   7.574   5.685 -0.4057  0.3035  0.8426
  366MOL0     O50429   1.347   7.505   5.675 -0.3131 -0.4174  0.2483
  366MOL0     C50430   1.338   7.380   5.740  0.0794  0.1339  0.0929
  366MOL0     C50431   1.202   7.311   5.704  0.5135 -1.1394 -0.1002
  366MOL0     C50432   1.175   7.173   5.761 -0.2576 -0.2200 -0.2343
  366MOL0     C50433   1.028   7.135   5.721  0.2031  0.1722  0.2682
  366MOL0     C50434   0.971   7.018   5.790 -0.7114  0.0202  1.2380
  366MOL0     C50435   0.921   6.936   5.856  0.4694  0.0118  0.2186
  366MOL0     C50436   1.585   7.525   5.747 -0.1919  0.0472 -0.8083
  366MOL0     C50437   1.707   7.597   5.763  0.2567  0.8372  0.4713
  366MOL0     C50438   1.829   7.525   5.815 -0.0051  0.4253 -0.1806
  366MOL0     H50439   1.781   8.038   5.932 -0.6143  0.4230  0.5842
  366MOL0     H50440   1.904   8.233   6.041  2.6787  2.8960 -2.9769
  366MOL0     H50441   2.032   8.305   6.179  1.0553  0.7880  2.4479
  366MOL0     H50442   2.081   8.431   6.073  2.5042  1.8927 -0.0137
  366MOL0     H50443   2.178   8.483   6.283  0.0216 -2.0704  1.9203
  366MOL0     H50444   2.244   8.322   6.305 -3.7956  0.4605  1.5428
  366MOL0     H50445   2.404   8.400   6.098 -0.8425  1.9567 -1.2874
  366MOL0     H50446   2.312   8.544   6.092 -1.1550 -1.7608 -1.1237
  366MOL0     H50447   2.471   8.464   6.333 -0.9417 -0.6019 -0.6418
  366MOL0     H50448   2.538   8.562   6.203 -1.9927  0.9136 -2.5758
  366MOL0     H50449   2.290   8.628   6.381  0.7620 -0.4553  2.0904
  366MOL0     H50450   2.348   8.725   6.239  3.2753  1.1411 -0.3497
  366MOL0     H50451   2.530   8.673   6.492 -1.4991  0.0615  0.4713
  366MOL0     H50452   2.549   8.790   6.362  0.2690  1.1541  0.2872
  366MOL0     H50453   2.343   8.764   6.580  1.9441  1.2722  2.5164
  366MOL0     H50454   2.337   8.896   6.455  2.2079  2.3310 -1.6094
  366MOL0     H50455   2.555   8.974   6.542 -0.6266  0.8702 -0.2261
  366MOL0     H50456   2.432   8.972   6.669  1.1921 -2.6948  3.0247
  366MOL0     H50457   2.448   8.665   6.771  0.6091 -0.1596  3.2524
  366MOL0     H50458   2.568   8.540   6.976 -1.5186  1.4503 -1.4838
  366MOL0     H50459   2.727   8.578   6.994 -1.0105  3.0332 -0.9502
  366MOL0     H50460   2.625   8.409   6.734  0.8002  0.6352 -0.6016
  366MOL0     H50461   2.783   8.412   6.803  0.2356  4.1139  0.2092
  366MOL0     H50462   2.593   8.283   6.999  0.5407  0.6934  0.5864
  366MOL0     H50463   2.626   8.200   6.863 -4.1059  2.7270 -1.0810
  366MOL0     H50464   2.793   8.147   7.020 -1.1382  1.8753  2.6943
  366MOL0     H50465   2.881   8.236   6.884 -0.5672 -0.0320 -0.1580
  366MOL0     H50466   3.051   8.130   7.091  1.3338 -0.2379  0.5965
  366MOL0     H50467   3.096   7.958   7.348 -1.9353  2.9903  0.7785
  366MOL0     H50468   3.263   8.032   7.328  0.3287 -0.3850 -1.7079
  366MOL0     H50469   3.168   7.982   7.194 -2.0065 -0.4306  0.0508
  366MOL0     H50470   2.906   8.180   7.885 -0.6270  2.5626 -4.2421
  366MOL0     H50471   3.027   8.134   8.104 -1.5246  0.6388  0.3907
  366MOL0     H50472   3.208   8.016   8.235  0.0883 -2.1554  0.2818
  366MOL0     H50473   3.297   7.968   8.098  1.0682 -0.2052  0.1874
  366MOL0     H50474   3.506   8.047   8.240  0.7477  0.6053  1.2220
  366MOL0     H50475   3.392   8.093   8.367  4.8060 -1.4517  2.4811
  366MOL0     H50476   3.410   7.813   8.256  1.8683  0.5916 -1.0688
  366MOL0     H50477   3.317   7.871   8.399  1.2541 -1.4994  0.3406
  366MOL0     H50478   3.516   7.932   8.515 -0.4455 -0.6526  0.0947
  366MOL0     H50479   3.624   7.880   8.378 -1.2149  0.2735 -1.7420
  366MOL0     H50480   3.593   7.671   8.398 -1.1881 -0.6770 -0.0721
  366MOL0     H50481   3.652   7.722   8.553  0.8184 -0.3436 -2.0952
  366MOL0     H50482   3.376   7.605   8.476 -1.6272  1.5167 -0.0148
  366MOL0     H50483   3.397   7.715   8.614  1.1852 -0.0610  1.8915
  366MOL0     H50484   3.557   7.455   8.566  1.4548  1.0446 -0.6055
  366MOL0     H50485   3.404   7.458   8.660 -1.1753  0.8130 -2.0030
  366MOL0     H50486   3.533   7.518   8.840 -0.3625  0.9026  0.2562
  366MOL0     H50487   3.529   7.678   8.770 -1.6819 -0.2590  0.2347
  366MOL0     H50488   3.393   8.277   7.941 -0.6829  3.8787  2.4624
  366MOL0     H50489   3.271   8.312   7.718 -1.9879 -0.8669 -1.3367
  366MOL0     H50490   2.892   8.338   7.511  2.8129  0.0817  1.3362
  366MOL0     H50491   2.790   8.407   7.296  0.1712 -0.8199  0.5427
  366MOL0     H50492   2.278   8.050   5.942 -0.5998  0.4400 -2.0728
  366MOL0     H50493   2.160   7.848   5.857 -1.3873 -1.0026  0.6187
  366MOL0     H50494   1.613   7.873   5.586 -0.1573  0.4180  1.6196
  366MOL0     H50495   1.409   7.754   5.584 -0.3275 -1.1192 -0.3303
  366MOL0     H50496   1.424   7.331   5.694 -1.1856  1.0975 -3.6786
  366MOL0     H50497   1.351   7.370   5.848  0.6917 -1.0763 -0.0770
  366MOL0     H50498   1.205   7.287   5.598 -0.5196 -1.3542 -0.0853
  366MOL0     H50499   1.125   7.385   5.726 -1.4613 -3.2378  0.4405
  366MOL0     H50500   1.246   7.101   5.719 -0.3873 -0.5487  0.1043
  366MOL0     H50501   1.186   7.176   5.869 -1.3615 -1.0580 -0.0820
  366MOL0     H50502   1.029   7.132   5.612 -1.4501  2.9991  0.0787
  366MOL0     H50503   0.957   7.215   5.740  0.0645 -0.2452  1.6387
  366MOL0     H50504   0.885   6.868   5.930 -3.2073  1.3753 -0.1168
  366MOL0     H50505   1.590   7.427   5.795  1.9691 -1.0514 -3.0505
  366MOL0     H50506   1.905   7.593   5.854 -0.5949  1.0809 -0.1542
  366MOL0     H50507   1.811   7.446   5.888  0.9639 -1.2711 -1.7009
  366MOL0     H50508   1.874   7.469   5.732  1.2074  1.8475 -0.5203
  367MOL0     O50509  10.955   0.144   4.803 -0.2029  0.3267 -0.0517
  367MOL0     C50510  10.982   0.083   4.906  0.0955 -0.1202 -0.1743
  367MOL0     O50511  11.109   0.044   4.942 -0.0095  0.0014 -0.6670
  367MOL0     C50512  11.199   0.061   4.852  0.2060  0.1233  0.4301
  367MOL0     C50513  11.226  -0.040   4.769 -0.7530  0.6824 -0.6664
  367MOL0     C50514  11.319  -0.020   4.669 -1.4186  0.2474 -1.0091
  367MOL0     C50515  11.400   0.091   4.658  0.0313 -0.8948 -0.2371
  367MOL0     O50516  11.503   0.088   4.569  0.1263  0.7484  0.4160
  367MOL0     C50517  11.579   0.209   4.548 -0.2440 -0.2554  0.0212
  367MOL0     C50518  11.659   0.193   4.419 -0.3468 -1.6710  0.0688
  367MOL0     C50519  11.747   0.065   4.405 -0.0270  0.3700 -0.8594
  367MOL0     C50520  11.853   0.068   4.292 -1.0576 -0.4205 -0.4793
  367MOL0     C50521  11.949  -0.052   4.282  1.4659  1.0379  0.6893
  367MOL0     C50522  11.877  -0.185   4.249  0.0161  1.0251 -0.0366
  367MOL0     C50523  11.976  -0.291   4.197 -0.0801 -0.7068  1.4769
  367MOL0     C50524  12.015  -0.374   4.318  0.0565 -0.2449  0.3959
  367MOL0     N50525  12.152  -0.421   4.320 -0.1672  0.7179 -0.5204
  367MOL0     C50526  12.200  -0.526   4.243 -0.2449  0.9042  0.5478
  367MOL0     C50527  12.326  -0.545   4.283 -0.0152  0.0442 -0.2488
  367MOL0     C50528  12.430  -0.648   4.239  0.2767 -1.0542 -0.0451
  367MOL0     C50529  12.425  -0.781   4.295 -0.2897  0.0156 -1.1341
  367MOL0     C50530  12.317  -0.869   4.255  0.5030  0.4224  0.2211
  367MOL0     C50531  12.333  -0.949   4.132 -0.6174 -0.4164  0.4187
  367MOL0     O50532  12.212  -1.010   4.090 -0.0516 -0.3339 -0.1001
  367MOL0     C50533  12.188  -1.145   4.127  0.3477 -0.6860 -1.4230
  367MOL0     C50534  12.127  -1.161   4.252  0.1149  0.7848 -1.0243
  367MOL0     C50535  12.111  -1.285   4.317 -0.4882  0.5160 -0.3582
  367MOL0     C50536  12.039  -1.281   4.452 -0.6080 -1.0306  0.1385
  367MOL0     C50537  12.156  -1.398   4.242 -0.2623  0.4512  0.8326
  367MOL0     C50538  12.132  -1.539   4.278  0.3772  0.5915 -0.5558
  367MOL0     O50539  12.080  -1.567   4.411 -0.3126  0.6645 -0.3390
  367MOL0     C50540  12.085  -1.696   4.457  0.2321  0.3604 -0.7007
  367MOL0     C50541  12.005  -1.803   4.413 -0.6858 -0.1297 -1.3011
  367MOL0     C50542  12.013  -1.928   4.478 -0.1889  0.1263 -0.3007
  367MOL0     C50543  12.111  -1.966   4.572  0.6723  0.2541  0.8364
  367MOL0     O50544  12.116  -2.090   4.623  0.0440  0.1112 -0.0027
  367MOL0     C50545  12.051  -2.203   4.557 -0.1166  0.0493  0.7436
  367MOL0     C50546  11.923  -2.235   4.623 -0.9702  0.3446  0.4787
  367MOL0     C50547  11.862  -2.359   4.560  0.2403 -0.1856 -0.3951
  367MOL0     C50548  11.727  -2.382   4.616 -0.2209  0.6137 -0.1658
  367MOL0     C50549  11.674  -2.523   4.574 -0.0070 -0.1593  0.5185
  367MOL0     C50550  11.647  -2.519   4.419 -0.3426  0.1286 -0.7473
  367MOL0     C50551  11.541  -2.623   4.380  0.2968 -0.0588  0.0405
  367MOL0     C50552  11.585  -2.760   4.339 -0.4985 -0.1888 -0.1244
  367MOL0    Cl50553  11.647  -2.835   4.497  0.2667 -0.2775 -0.3676
  367MOL0     C50554  12.188  -1.859   4.621  0.5456  0.1751  0.9815
  367MOL0     C50555  12.183  -1.730   4.552  0.7061 -0.1411 -0.5445
  367MOL0     O50556  12.148  -1.629   4.194  0.2292  0.5670  1.3154
  367MOL0     C50557  12.226  -1.372   4.122 -0.2490 -0.3460 -0.7456
  367MOL0     C50558  12.247  -1.250   4.066  0.0189 -0.1166 -0.3222
  367MOL0     N50559  12.355  -0.449   4.375  0.3170 -0.2266  0.4983
  367MOL0     N50560  12.254  -0.377   4.400  0.0090  0.3947 -0.9820
  367MOL0     C50561  11.372   0.193   4.757 -0.4733  0.2197  0.1429
  367MOL0     C50562  11.273   0.182   4.855  0.5183  0.3486 -0.2347
  367MOL0     C50563  10.865   0.082   5.010 -0.1868  0.0572 -0.6573
  367MOL0     C50564  10.742   0.139   4.978 -0.1870  1.3358 -0.5222
  367MOL0     C50565  10.640   0.165   5.074  0.1697 -0.4097 -0.0242
  367MOL0     C50566  10.654   0.115   5.201  0.2273  0.8718  0.0096
  367MOL0     O50567  10.557   0.124   5.303 -0.4029  0.0107 -0.6295
  367MOL0     C50568  10.447   0.205   5.287 -0.5184  0.9922 -0.8523
  367MOL0     C50569  10.356   0.179   5.406  0.1545 -0.5200 -0.4947
  367MOL0     C50570  10.221   0.239   5.399  0.3389 -0.9142  1.3316
  367MOL0     C50571  10.132   0.163   5.301 -0.1428 -0.3244  0.0554
  367MOL0     C50572   9.993   0.214   5.297 -0.8344 -0.1706 -0.6632
  367MOL0     C50573   9.876   0.256   5.291 -0.5585  0.0049 -0.2554
  367MOL0     C50574  10.779   0.043   5.228  0.5964  0.7322  0.4091
  367MOL0     C50575  10.882   0.027   5.139  1.1202 -0.8158 -0.3623
  367MOL0     C50576  11.007  -0.034   5.195  1.0338  0.6534 -0.6100
  367MOL0     H50577  11.168  -0.130   4.786 -1.7270  1.3934 -0.1311
  367MOL0     H50578  11.341  -0.094   4.592  1.0497 -0.7568  0.5406
  367MOL0     H50579  11.647   0.227   4.632  1.5742 -0.8115 -1.2551
  367MOL0     H50580  11.514   0.297   4.539  0.6415  0.5247  0.9846
  367MOL0     H50581  11.594   0.188   4.332  1.2975 -0.4684 -1.2998
  367MOL0     H50582  11.717   0.284   4.399  0.6139 -1.6508  2.5218
  367MOL0     H50583  11.786   0.034   4.503 -0.5543  0.2570 -0.6797
  367MOL0     H50584  11.669  -0.004   4.370 -1.3685  2.1012 -1.4692
  367MOL0     H50585  11.807   0.079   4.194  0.7944  0.8188 -1.2616
  367MOL0     H50586  11.914   0.155   4.319  2.4925 -2.5198 -1.1779
  367MOL0     H50587  12.004  -0.052   4.377  1.7483 -0.0118  0.5381
  367MOL0     H50588  12.015  -0.034   4.197 -0.0617  0.0595 -0.7642
  367MOL0     H50589  11.806  -0.222   4.324  1.4086 -2.9410 -0.4413
  367MOL0     H50590  11.810  -0.160   4.166  0.3573  0.9983 -0.3191
  367MOL0     H50591  12.063  -0.247   4.148 -0.3761 -0.7470  0.9105
  367MOL0     H50592  11.940  -0.365   4.125  1.0427 -0.5504  0.7385
  367MOL0     H50593  12.018  -0.316   4.411  0.3702 -0.1799  0.3454
  367MOL0     H50594  11.949  -0.460   4.338 -0.9167  0.2433 -0.5781
  367MOL0     H50595  12.146  -0.570   4.160 -1.5542  1.1875  1.2339
  367MOL0     H50596  12.528  -0.603   4.255  1.6234 -3.9450  0.6445
  367MOL0     H50597  12.415  -0.654   4.131 -1.9487  2.3729 -0.0897
  367MOL0     H50598  12.521  -0.830   4.275  0.2740 -1.0502  3.1289
  367MOL0     H50599  12.425  -0.771   4.404 -2.4457  0.8369 -1.1607
  367MOL0     H50600  12.296  -0.934   4.341  1.5731  1.0182  0.9554
  367MOL0     H50601  12.223  -0.814   4.249 -2.4125 -4.1859 -4.6011
  367MOL0     H50602  12.363  -0.889   4.045  0.1467 -0.4638  0.6465
  367MOL0     H50603  12.410  -1.027   4.143 -0.1617 -0.0475 -0.0775
  367MOL0     H50604  12.103  -1.077   4.316  0.0296 -1.0473  1.5235
  367MOL0     H50605  12.100  -1.300   4.541  0.8569  1.7799 -0.1513
  367MOL0     H50606  11.954  -1.349   4.452 -1.8881  0.5209  0.7580
  367MOL0     H50607  11.993  -1.183   4.466 -1.6009 -1.0163 -2.6671
  367MOL0     H50608  11.924  -1.790   4.343 -1.7608  1.8683  0.2142
  367MOL0     H50609  11.934  -1.995   4.448  0.5883 -0.3941 -1.2670
  367MOL0     H50610  12.031  -2.185   4.451  0.3813 -0.6285  0.5249
  367MOL0     H50611  12.122  -2.285   4.572 -0.0179 -0.2995 -1.2731
  367MOL0     H50612  11.931  -2.253   4.731 -3.1610  1.3098  0.8678
  367MOL0     H50613  11.851  -2.155   4.604 -1.6315 -0.7028 -1.8030
  367MOL0     H50614  11.926  -2.447   4.575 -0.7383 -0.7527  0.5926
  367MOL0     H50615  11.835  -2.335   4.457  0.6566 -1.1940 -0.7509
  367MOL0     H50616  11.657  -2.309   4.573 -2.2057 -0.4925  1.0085
  367MOL0     H50617  11.718  -2.380   4.725  1.5228 -3.7765  0.2881
  367MOL0     H50618  11.741  -2.608   4.589  1.5564  0.7502 -0.9960
  367MOL0     H50619  11.578  -2.549   4.620 -2.7628  3.1429 -2.7404
  367MOL0     H50620  11.742  -2.521   4.365 -0.6205 -1.9436 -1.2284
  367MOL0     H50621  11.598  -2.424   4.397  0.6311  0.6034 -0.9314
  367MOL0     H50622  11.501  -2.586   4.285  0.7264 -0.3777 -0.2640
  367MOL0     H50623  11.452  -2.631   4.443 -0.4932 -1.5016 -1.2019
  367MOL0     H50624  11.663  -2.757   4.262  1.1354  4.6993  1.3795
  367MOL0     H50625  11.504  -2.811   4.287 -0.2668  0.3042 -0.9885
  367MOL0     H50626  12.267  -1.876   4.693 -0.0699  1.0479  1.9001
  367MOL0     H50627  12.263  -1.660   4.573 -1.0470  1.5037  1.0981
  367MOL0     H50628  12.274  -1.454   4.070  0.9967 -1.0964  1.4501
  367MOL0     H50629  12.310  -1.232   3.980  0.1145  2.8422  0.2591
  367MOL0     H50630  11.434   0.282   4.766  0.1121 -0.0496 -1.0957
  367MOL0     H50631  11.248   0.264   4.922  0.7279 -1.1502  1.7699
  367MOL0     H50632  10.734   0.173   4.875 -0.7735 -1.7518 -1.5822
  367MOL0     H50633  10.568   0.231   5.026  2.1804 -0.0361 -2.7881
  367MOL0     H50634  10.470   0.312   5.276 -1.6883  1.2918 -0.5120
  367MOL0     H50635  10.399   0.169   5.196 -1.6139  1.9527 -0.6759
  367MOL0     H50636  10.403   0.223   5.495 -3.5845  0.6366  1.0976
  367MOL0     H50637  10.347   0.073   5.427 -2.1875 -0.2025  0.3213
  367MOL0     H50638  10.177   0.235   5.499 -0.5179  2.4828  1.2020
  367MOL0     H50639  10.228   0.345   5.373 -2.1412 -0.7105  1.2192
  367MOL0     H50640  10.143   0.059   5.334 -0.2437 -0.5268 -0.5409
  367MOL0     H50641  10.170   0.175   5.199 -1.1729 -2.1083 -0.5782
  367MOL0     H50642   9.777   0.298   5.296 -0.5874 -0.1033  0.2365
  367MOL0     H50643  10.788   0.005   5.329  1.8886  0.8885  0.3768
  367MOL0     H50644  10.974  -0.098   5.277 -0.0898  1.0622 -0.7203
  367MOL0     H50645  11.048  -0.107   5.125  0.5964 -1.3196  1.1022
  367MOL0     H50646  11.080   0.033   5.242 -0.3424  0.5193  1.8970
  368MOL0     O50647   3.615   4.740   3.815  0.4502 -0.4070 -0.0978
  368MOL0     C50648   3.628   4.706   3.931  0.7628 -0.7181 -0.2582
  368MOL0     O50649   3.533   4.639   4.009  0.3550 -0.2178 -0.8659
  368MOL0     C50650   3.402   4.622   3.952  0.4685 -0.0020  0.2121
  368MOL0     C50651   3.295   4.680   4.017 -0.3699  0.4636 -0.1921
  368MOL0     C50652   3.171   4.664   3.956 -0.8622  0.1497  0.1250
  368MOL0     C50653   3.147   4.602   3.827 -0.9190 -0.7596 -0.4173
  368MOL0     O50654   3.024   4.560   3.785 -0.4309 -1.1699 -0.2682
  368MOL0     C50655   2.946   4.644   3.701  0.3021  0.4103  1.0206
  368MOL0     C50656   2.815   4.700   3.759 -0.2266  0.4155  0.1387
  368MOL0     C50657   2.839   4.819   3.852  0.4903 -0.7380 -0.3985
  368MOL0     C50658   2.838   4.955   3.768 -0.8395 -0.3012  0.8198
  368MOL0     C50659   2.878   5.086   3.859 -0.4661 -0.0396 -0.5051
  368MOL0     C50660   2.846   5.236   3.806 -0.1192  0.3589 -1.2065
  368MOL0     C50661   2.914   5.253   3.673  0.1593  0.4862  0.3884
  368MOL0     C50662   2.913   5.396   3.624  0.5368  0.0042  0.9279
  368MOL0     N50663   2.955   5.402   3.480 -0.1082  0.3434  1.0539
  368MOL0     C50664   3.075   5.449   3.442  0.5546  0.1646  0.9401
  368MOL0     C50665   3.065   5.462   3.308  0.6095  0.4273 -0.6407
  368MOL0     C50666   3.154   5.518   3.200 -0.8593 -0.0159 -0.0248
  368MOL0     C50667   3.299   5.473   3.203  0.2040  1.1480 -0.1783
  368MOL0     C50668   3.298   5.312   3.209 -0.3861  0.2939 -0.1927
  368MOL0     C50669   3.421   5.264   3.125  0.4706  0.6096  0.0274
  368MOL0     O50670   3.538   5.265   3.205 -0.2756 -0.0505 -0.3582
  368MOL0     C50671   3.662   5.248   3.149 -0.9917 -0.8722 -0.0794
  368MOL0     C50672   3.683   5.225   3.012  0.9744  1.1962 -1.1110
  368MOL0     C50673   3.804   5.198   2.940  0.0892 -0.1670 -0.3004
  368MOL0     C50674   3.805   5.184   2.793 -0.9507  0.1324  0.7419
  368MOL0     C50675   3.919   5.215   3.020  0.0445  0.0479  0.0361
  368MOL0     C50676   4.057   5.229   2.975  0.3244 -0.0340 -0.5089
  368MOL0     O50677   4.160   5.196   3.067 -0.1094  0.1350 -0.0200
  368MOL0     C50678   4.291   5.189   3.016 -0.0778  0.2746  0.6549
  368MOL0     C50679   4.390   5.225   3.108 -0.1960  0.5078 -0.6992
  368MOL0     C50680   4.521   5.228   3.074 -0.1595  0.1538  0.4175
  368MOL0     C50681   4.554   5.183   2.940 -0.0459  1.0353 -0.3582
  368MOL0     O50682   4.680   5.196   2.896 -0.1761  1.1602  0.0936
  368MOL0     C50683   4.788   5.166   2.984  0.2344 -0.0679  0.9715
  368MOL0     C50684   4.923   5.144   2.921  0.3672 -0.4096  0.0836
  368MOL0     C50685   4.969   5.271   2.843 -0.2702  0.2098 -0.1350
  368MOL0     C50686   5.112   5.242   2.787 -0.0843 -0.6666 -0.6197
  368MOL0     C50687   5.116   5.169   2.654  0.0322 -0.0602 -0.3751
  368MOL0     C50688   5.245   5.133   2.593 -0.5920 -0.7316 -0.6238
  368MOL0     C50689   5.224   5.072   2.455  0.2880  1.0624 -0.0123
  368MOL0     C50690   5.198   4.914   2.425 -0.6453 -0.2269  0.8770
  368MOL0    Cl50691   5.025   4.879   2.445  0.1416 -0.2217 -0.0683
  368MOL0     C50692   4.455   5.150   2.852  0.2605 -0.6842  0.7370
  368MOL0     C50693   4.325   5.145   2.886 -0.8753 -0.2122 -0.1833
  368MOL0     O50694   4.071   5.280   2.860 -0.2015 -0.4708 -0.3676
  368MOL0     C50695   3.905   5.233   3.159  0.4361 -0.5914 -0.4168
  368MOL0     C50696   3.778   5.246   3.218  0.8873 -0.4758  0.1466
  368MOL0     N50697   2.932   5.419   3.269 -0.6336 -0.4588  0.4092
  368MOL0     N50698   2.871   5.384   3.374  0.5885 -0.0094  0.1219
  368MOL0     C50699   3.262   4.546   3.773  0.6533  0.6919 -0.5374
  368MOL0     C50700   3.383   4.560   3.825  0.0010  0.2518 -0.8727
  368MOL0     C50701   3.759   4.752   3.993  1.2324  0.2754 -0.3387
  368MOL0     C50702   3.839   4.850   3.928  0.6039  0.1061 -0.1418
  368MOL0     C50703   3.922   4.933   4.007 -0.2219 -0.1880  0.2148
  368MOL0     C50704   3.957   4.903   4.138 -0.8535 -0.3043  0.4308
  368MOL0     O50705   4.039   4.989   4.206 -0.5892  0.2703  0.4867
  368MOL0     C50706   3.995   5.119   4.252 -0.5484  0.8618 -0.0391
  368MOL0     C50707   4.126   5.204   4.257  0.8872  0.7536  0.5345
  368MOL0     C50708   4.224   5.163   4.358  0.3930  0.4473  1.4293
  368MOL0     C50709   4.369   5.187   4.324  0.1216  0.1225  0.6810
  368MOL0     C50710   4.381   5.329   4.284 -0.2625  0.1701 -0.4955
  368MOL0     C50711   4.376   5.449   4.266  1.3872  0.4587 -1.0132
  368MOL0     C50712   3.905   4.786   4.187 -0.2704 -0.2066  0.5509
  368MOL0     C50713   3.798   4.715   4.121  1.1037 -0.0431 -0.6870
  368MOL0     C50714   3.743   4.607   4.200  0.3870 -0.5398  0.2867
  368MOL0     H50715   3.304   4.726   4.115 -0.0050  1.5523 -0.7107
  368MOL0     H50716   3.082   4.697   4.009  0.1153  3.1780  0.1205
  368MOL0     H50717   2.928   4.576   3.617  0.4577 -0.0229  1.3301
  368MOL0     H50718   3.004   4.724   3.654 -1.2043 -0.3058 -2.3817
  368MOL0     H50719   2.748   4.724   3.675  0.1970 -1.1070 -0.6807
  368MOL0     H50720   2.758   4.620   3.807 -2.9409  2.1536  0.0214
  368MOL0     H50721   2.759   4.815   3.927 -0.5640  0.2758 -1.4228
  368MOL0     H50722   2.934   4.800   3.903 -0.4536 -3.3368  0.5754
  368MOL0     H50723   2.907   4.954   3.683 -1.9158  2.0294 -0.1650
  368MOL0     H50724   2.745   4.977   3.716 -1.6549  0.2742  2.4524
  368MOL0     H50725   2.984   5.062   3.870 -0.3407  0.3125 -0.9232
  368MOL0     H50726   2.826   5.072   3.954  1.6539  0.6694  0.8431
  368MOL0     H50727   2.740   5.263   3.795  0.8111  3.7796 -3.2477
  368MOL0     H50728   2.892   5.307   3.875  1.3530 -0.1068 -1.6859
  368MOL0     H50729   2.870   5.185   3.599  0.7980 -0.9336  1.2667
  368MOL0     H50730   3.020   5.226   3.677  0.1217  0.3381  0.3930
  368MOL0     H50731   2.814   5.442   3.631  0.0515 -0.2929 -2.3881
  368MOL0     H50732   2.976   5.456   3.691 -0.6869  0.1930  1.9516
  368MOL0     H50733   3.164   5.488   3.491  1.7073 -0.7422 -0.3442
  368MOL0     H50734   3.140   5.626   3.192  0.9094  0.4426  2.0038
  368MOL0     H50735   3.119   5.481   3.104 -0.2571 -0.0635 -0.2348
  368MOL0     H50736   3.348   5.514   3.113 -0.2960 -0.8653 -1.4297
  368MOL0     H50737   3.357   5.532   3.274  1.5501  0.9486 -1.0565
  368MOL0     H50738   3.287   5.274   3.312 -1.0721  1.4923  0.1929
  368MOL0     H50739   3.203   5.277   3.167 -1.2932 -1.5451  2.9865
  368MOL0     H50740   3.401   5.162   3.091 -1.2938  0.0895  2.3813
  368MOL0     H50741   3.445   5.332   3.042  1.1859  0.8809  0.4482
  368MOL0     H50742   3.599   5.218   2.943 -0.4903  2.0827  0.5137
  368MOL0     H50743   3.877   5.108   2.761 -1.8045  0.6654 -2.8820
  368MOL0     H50744   3.845   5.276   2.749 -0.4638 -0.1385  0.6113
  368MOL0     H50745   3.712   5.167   2.737 -0.4593  0.0735 -0.0859
  368MOL0     H50746   4.375   5.260   3.209  1.2285  1.5346 -0.8023
  368MOL0     H50747   4.599   5.281   3.127 -0.5888  3.1857 -1.7078
  368MOL0     H50748   4.797   5.253   3.050 -0.9299  1.2777 -0.5830
  368MOL0     H50749   4.772   5.077   3.046  0.1641 -1.4412 -0.9258
  368MOL0     H50750   4.988   5.113   3.003  1.1059  2.0809  0.5122
  368MOL0     H50751   4.916   5.065   2.845 -3.7923  0.9550 -1.2171
  368MOL0     H50752   4.975   5.358   2.910  2.5999  0.4802 -0.6371
  368MOL0     H50753   4.907   5.308   2.760  3.0872  2.3148 -1.9151
  368MOL0     H50754   5.153   5.184   2.870 -0.7210  0.6156  0.6509
  368MOL0     H50755   5.168   5.335   2.777 -1.7100  0.3159 -0.9913
  368MOL0     H50756   5.073   5.070   2.669 -1.5869  0.8284  1.1065
  368MOL0     H50757   5.060   5.227   2.580 -0.7152 -1.4753 -0.9578
  368MOL0     H50758   5.283   5.050   2.654 -1.7565  0.0641  1.2646
  368MOL0     H50759   5.309   5.222   2.591 -2.0161  0.3626  0.5689
  368MOL0     H50760   5.315   5.084   2.396  0.4180 -2.3369 -0.7100
  368MOL0     H50761   5.142   5.129   2.409  0.1028  0.3978 -0.5231
  368MOL0     H50762   5.264   4.861   2.495  1.2743 -1.5525 -1.7497
  368MOL0     H50763   5.219   4.882   2.323 -1.6721 -0.3689  0.7011
  368MOL0     H50764   4.495   5.115   2.757  0.5472 -0.2114  0.6811
  368MOL0     H50765   4.247   5.100   2.825 -2.5943  1.2938  0.7815
  368MOL0     H50766   3.979   5.245   3.237  0.3899  0.7453 -0.5587
  368MOL0     H50767   3.747   5.257   3.322 -2.7273 -3.1435 -0.4702
  368MOL0     H50768   3.261   4.481   3.686  0.8463  2.7948 -2.2267
  368MOL0     H50769   3.471   4.513   3.781  0.3575  1.4612 -1.4896
  368MOL0     H50770   3.821   4.888   3.828  2.3056 -0.5140 -0.7146
  368MOL0     H50771   3.963   5.025   3.966  2.2043  0.1088  2.9404
  368MOL0     H50772   3.916   5.163   4.190  0.2533  0.9743 -1.0085
  368MOL0     H50773   3.943   5.125   4.348 -2.1597  0.2872 -0.8414
  368MOL0     H50774   4.092   5.304   4.282  0.3919  0.1471  2.4331
  368MOL0     H50775   4.155   5.207   4.151  0.5213 -0.7069  0.3608
  368MOL0     H50776   4.186   5.220   4.443 -0.9674  1.3321  0.2446
  368MOL0     H50777   4.216   5.055   4.377  0.7187 -0.2651 -1.9858
  368MOL0     H50778   4.408   5.113   4.253  0.3243  1.5070 -0.7086
  368MOL0     H50779   4.415   5.178   4.423 -4.5598 -2.5148  2.9231
  368MOL0     H50780   4.366   5.556   4.266 -2.4033  0.2522  0.7423
  368MOL0     H50781   3.940   4.756   4.285  1.2927  0.5203  0.2397
  368MOL0     H50782   3.670   4.627   4.279 -0.4697  1.7238 -0.9921
  368MOL0     H50783   3.708   4.532   4.129  3.0490  1.6275 -3.6509
  368MOL0     H50784   3.826   4.561   4.254  1.0498  1.3723  0.9825
  369MOL0     O50785   0.373  10.524   7.089 -0.5484  0.8187  0.1902
  369MOL0     C50786   0.450  10.522   6.993  0.5403 -0.6516 -0.1320
  369MOL0     O50787   0.509  10.632   6.937 -0.2371 -0.5269 -0.7563
  369MOL0     C50788   0.504  10.762   6.988 -0.4026 -0.0568  1.1716
  369MOL0     C50789   0.566  10.849   6.904 -1.0459  0.5089  0.0153
  369MOL0     C50790   0.565  10.990   6.926  0.2671  1.0834  0.0880
  369MOL0     C50791   0.505  11.045   7.041  0.1227  0.1697  0.3714
  369MOL0     O50792   0.520  11.177   7.079 -0.3877 -0.5521  0.2587
  369MOL0     C50793   0.644  11.243   7.056  0.2303  0.6439 -0.5396
  369MOL0     C50794   0.632  11.393   7.076 -0.6552  0.3867  0.6463
  369MOL0     C50795   0.715  11.440   7.200 -0.4982  0.3711 -0.1778
  369MOL0     C50796   0.731  11.590   7.207 -0.6162  0.3535 -0.6584
  369MOL0     C50797   0.799  11.644   7.342 -0.2591  0.1578 -0.0513
  369MOL0     C50798   0.859  11.782   7.304 -0.2038  0.7462  0.7089
  369MOL0     C50799   0.989  11.770   7.224  0.1890 -0.0168 -0.2314
  369MOL0     C50800   1.065  11.907   7.233 -0.7870 -0.5911  0.6511
  369MOL0     N50801   1.174  11.919   7.128  0.7894  0.2084 -0.0504
  369MOL0     C50802   1.218  11.825   7.037  0.3880 -0.2615  0.1332
  369MOL0     C50803   1.336  11.885   6.984  0.6273 -0.5101 -0.3911
  369MOL0     C50804   1.422  11.822   6.874  0.8731  0.4409 -0.5193
  369MOL0     C50805   1.372  11.687   6.819 -0.0585  0.0609 -0.2304
  369MOL0     C50806   1.468  11.628   6.719  0.5226 -0.8242  0.3002
  369MOL0     C50807   1.450  11.477   6.704  0.2111 -0.6695 -0.4488
  369MOL0     O50808   1.499  11.428   6.580 -0.0768 -0.1158  0.0893
  369MOL0     C50809   1.559  11.299   6.575 -0.2133 -0.6718  0.0497
  369MOL0     C50810   1.661  11.255   6.660  1.3551 -1.1265  0.3055
  369MOL0     C50811   1.737  11.140   6.635 -0.9844 -0.1911  0.7182
  369MOL0     C50812   1.841  11.106   6.737  0.3540  0.3962 -0.2142
  369MOL0     C50813   1.714  11.069   6.511  0.1552 -0.2677  0.5854
  369MOL0     C50814   1.793  10.956   6.450  0.0566 -0.1578 -0.9778
  369MOL0     O50815   1.787  10.953   6.313  0.5360  0.1790  0.2275
  369MOL0     C50816   1.850  10.844   6.250  0.3517 -0.3048  0.8306
  369MOL0     C50817   1.963  10.778   6.288 -0.1704 -0.7268  0.2255
  369MOL0     C50818   2.012  10.676   6.206  0.1999  0.0498 -0.2610
  369MOL0     C50819   1.962  10.653   6.079 -0.2212  1.0294  0.0109
  369MOL0     O50820   2.010  10.557   5.992  0.1534  0.0672 -0.0676
  369MOL0     C50821   2.115  10.462   6.024  0.5864 -0.6381  0.0740
  369MOL0     C50822   2.147  10.376   5.904  0.2291 -0.0703  0.2022
  369MOL0     C50823   2.053  10.254   5.889 -0.1476 -0.0834  1.0301
  369MOL0     C50824   2.076  10.176   5.757 -0.3990 -0.6441 -0.3609
  369MOL0     C50825   1.959  10.180   5.653 -1.1055 -0.4192 -0.3242
  369MOL0     C50826   1.928  10.324   5.604 -0.5211 -0.4095 -0.1843
  369MOL0     C50827   2.034  10.384   5.507  0.6938  0.0012 -1.2173
  369MOL0     C50828   1.991  10.513   5.444 -0.6013  0.4272  0.0157
  369MOL0    Cl50829   2.136  10.594   5.366  0.3593 -0.0950 -0.8269
  369MOL0     C50830   1.852  10.724   6.039  0.3084  0.4123  0.6683
  369MOL0     C50831   1.794  10.823   6.121  0.1665 -0.4303  0.5217
  369MOL0     O50832   1.851  10.884   6.531  0.1260  0.0265  0.4347
  369MOL0     C50833   1.606  11.103   6.438  0.5734  0.9779 -0.0272
  369MOL0     C50834   1.525  11.214   6.466 -0.1147 -1.0956 -0.3036
  369MOL0     N50835   1.366  11.995   7.058  0.2155  0.5359  0.6741
  369MOL0     N50836   1.260  12.023   7.134 -0.5673  0.8374  0.2430
  369MOL0     C50837   0.437  10.948   7.128  0.6172 -0.3318  0.5364
  369MOL0     C50838   0.433  10.815   7.094  0.3118  0.1825  0.0858
  369MOL0     C50839   0.483  10.379   6.942  0.6250 -0.6544 -1.4398
  369MOL0     C50840   0.512  10.363   6.806 -0.3261 -0.5911 -0.3967
  369MOL0     C50841   0.535  10.241   6.746 -0.0419 -0.3101  0.1798
  369MOL0     C50842   0.536  10.122   6.825  0.3507  0.2362 -0.2752
  369MOL0     O50843   0.574   9.991   6.778 -0.2735 -0.2128 -0.8955
  369MOL0     C50844   0.637   9.979   6.646  0.6403  0.4215 -0.0415
  369MOL0     C50845   0.774   9.908   6.673 -0.7420  0.0722 -0.1301
  369MOL0     C50846   0.864  10.006   6.744  0.4854 -0.5708 -0.1536
  369MOL0     C50847   1.006   9.949   6.752 -0.5052  0.0678 -0.0201
  369MOL0     C50848   1.095  10.054   6.812 -0.1218 -0.3321  0.7980
  369MOL0     C50849   1.175  10.138   6.857 -0.4682 -0.2828  0.1208
  369MOL0     C50850   0.494  10.129   6.958 -0.8810 -0.5227 -0.5980
  369MOL0     C50851   0.474  10.256   7.021 -0.3934  0.1723  1.8034
  369MOL0     C50852   0.445  10.248   7.170  0.9230 -0.6934 -0.4575
  369MOL0     H50853   0.609  10.820   6.809 -2.1341 -1.0421 -0.0267
  369MOL0     H50854   0.602  11.059   6.851  0.3341 -2.1270 -3.1299
  369MOL0     H50855   0.688  11.227   6.958  3.0683  2.6015  0.2906
  369MOL0     H50856   0.706  11.195   7.132  0.5016  1.1370 -0.4455
  369MOL0     H50857   0.672  11.454   6.994 -0.0411  4.0230  3.4384
  369MOL0     H50858   0.527  11.417   7.092 -0.5909 -0.8078  3.4429
  369MOL0     H50859   0.654  11.412   7.286 -0.4288 -0.1514 -0.2997
  369MOL0     H50860   0.814  11.395   7.210  0.6301  2.1527 -2.3555
  369MOL0     H50861   0.791  11.616   7.119  2.0149 -1.6635  0.3888
  369MOL0     H50862   0.631  11.632   7.196 -0.2376  1.4193 -0.2387
  369MOL0     H50863   0.888  11.586   7.369  0.7459  2.0938  0.9558
  369MOL0     H50864   0.721  11.639   7.420 -1.1766 -1.9198 -1.0229
  369MOL0     H50865   0.792  11.852   7.252  1.0298  2.3215  1.1477
  369MOL0     H50866   0.885  11.827   7.400  1.5499 -0.0663  0.6463
  369MOL0     H50867   0.961  11.745   7.121  0.3480 -0.1569 -0.2426
  369MOL0     H50868   1.053  11.694   7.270 -0.2370  0.0882  0.5493
  369MOL0     H50869   0.997  11.990   7.215  1.7049  1.2205 -1.1359
  369MOL0     H50870   1.094  11.916   7.338 -0.7085 -1.1261  0.6781
  369MOL0     H50871   1.168  11.731   7.017  0.0928  0.1960 -1.4266
  369MOL0     H50872   1.520  11.804   6.921  0.5394 -1.0268 -0.3323
  369MOL0     H50873   1.429  11.900   6.798 -1.9422  1.4471  0.1407
  369MOL0     H50874   1.360  11.615   6.900  2.6318  0.2873  0.4572
  369MOL0     H50875   1.280  11.693   6.760  0.4222 -0.7710 -1.1137
  369MOL0     H50876   1.446  11.677   6.623 -1.2259 -1.3288  0.4079
  369MOL0     H50877   1.573  11.645   6.742  0.0279 -0.1059  2.1210
  369MOL0     H50878   1.498  11.432   6.792  0.8161  1.6180  0.4737
  369MOL0     H50879   1.343  11.453   6.710  0.3746 -1.1157  1.7660
  369MOL0     H50880   1.691  11.319   6.742  2.0916  0.2216 -0.9742
  369MOL0     H50881   1.822  11.002   6.766  0.1908  0.8703  1.5205
  369MOL0     H50882   1.836  11.171   6.825  1.5900 -0.2542  0.3708
  369MOL0     H50883   1.943  11.106   6.697  0.5227  0.7044  0.2075
  369MOL0     H50884   2.002  10.813   6.383 -1.4297  2.5759 -0.3303
  369MOL0     H50885   2.103  10.625   6.237  0.4626 -0.8017 -2.2938
  369MOL0     H50886   2.195  10.520   6.072 -1.5795  1.3819  1.4691
  369MOL0     H50887   2.077  10.395   6.101  0.3043  0.8755  1.2948
  369MOL0     H50888   2.159  10.435   5.813  2.3547  1.3181  1.2777
  369MOL0     H50889   2.251  10.346   5.921  0.4003  0.5131  0.2113
  369MOL0     H50890   1.950  10.286   5.870  0.2718 -0.7690 -3.7150
  369MOL0     H50891   2.040  10.194   5.979 -0.1662  0.5122  1.4289
  369MOL0     H50892   2.110  10.075   5.780 -2.8705 -0.9839  2.2614
  369MOL0     H50893   2.158  10.221   5.700 -1.3159  1.1904 -0.3110
  369MOL0     H50894   1.988  10.123   5.564 -3.9052  0.4749 -1.9616
  369MOL0     H50895   1.861  10.153   5.693 -1.5423  3.1894  1.3868
  369MOL0     H50896   1.927  10.393   5.689 -0.3387 -0.1518 -0.3844
  369MOL0     H50897   1.832  10.328   5.552 -0.0312 -0.9521 -1.1713
  369MOL0     H50898   2.052  10.308   5.430 -2.4736 -2.0151 -0.1739
  369MOL0     H50899   2.128  10.402   5.561 -0.1400  0.2982  0.1958
  369MOL0     H50900   1.958  10.582   5.521 -0.4134  2.8359 -1.9264
  369MOL0     H50901   1.902  10.502   5.382 -3.8189 -0.6778  4.4186
  369MOL0     H50902   1.821  10.705   5.937 -1.1806 -0.7674  1.3105
  369MOL0     H50903   1.707  10.881   6.095 -0.9350 -2.9074 -1.7545
  369MOL0     H50904   1.574  11.051   6.348  0.6456 -1.0830  1.0680
  369MOL0     H50905   1.441  11.248   6.405 -2.5620 -2.4374  2.0687
  369MOL0     H50906   0.397  10.992   7.218 -3.1503 -0.7107 -0.7753
  369MOL0     H50907   0.364  10.754   7.151  0.3835  1.5377  1.6935
  369MOL0     H50908   0.511  10.447   6.736  1.7861 -1.6134 -1.7553
  369MOL0     H50909   0.551  10.243   6.639  1.7497 -3.8295  0.2507
  369MOL0     H50910   0.578   9.910   6.586 -1.3589  1.0296  1.1336
  369MOL0     H50911   0.648  10.071   6.587 -0.2692 -1.5050 -3.5063
  369MOL0     H50912   0.815   9.862   6.583  2.3851  0.1570  1.1397
  369MOL0     H50913   0.749   9.831   6.747  2.8348  0.1325  1.3639
  369MOL0     H50914   0.852  10.103   6.695 -0.5355 -1.0056 -0.7855
  369MOL0     H50915   0.824  10.017   6.845  4.1610  1.5994  1.2708
  369MOL0     H50916   1.055   9.938   6.655  0.2172 -2.1592  0.5511
  369MOL0     H50917   1.018   9.851   6.797  0.7200  0.0178 -0.4108
  369MOL0     H50918   1.243  10.206   6.905  0.0483  0.6296 -1.8018
  369MOL0     H50919   0.484  10.042   7.021  1.7885  0.9012  2.0318
  369MOL0     H50920   0.537  10.281   7.218  0.6084  1.1077 -1.0325
  369MOL0     H50921   0.374  10.315   7.219  0.4392 -2.5769  1.6093
  369MOL0     H50922   0.407  10.147   7.190 -0.6651  0.3066  2.0449
  370MOL0     O50923   5.383   6.107   1.107 -0.3677 -0.0602  0.0428
  370MOL0     C50924   5.439   6.007   1.072  1.4149  0.4007  0.7263
  370MOL0     O50925   5.485   5.904   1.160  0.3802  0.6968  0.5990
  370MOL0     C50926   5.409   5.884   1.263 -1.1104 -0.6672  0.3937
  370MOL0     C50927   5.297   5.794   1.264  1.0916 -0.3285 -0.1273
  370MOL0     C50928   5.226   5.762   1.385  0.1284  0.0293  0.0982
  370MOL0     C50929   5.266   5.827   1.503  0.2631  0.0306 -0.5795
  370MOL0     O50930   5.209   5.783   1.618 -0.5999  0.1070  0.0219
  370MOL0     C50931   5.184   5.883   1.712  0.4258  0.3635  0.7554
  370MOL0     C50932   5.057   5.846   1.785 -0.1038  0.1433 -0.6905
  370MOL0     C50933   4.925   5.848   1.699  0.0756 -0.0693  0.6008
  370MOL0     C50934   4.883   5.983   1.642 -0.2614 -0.2263  0.1593
  370MOL0     C50935   4.861   6.102   1.743  0.0324 -0.2678  0.6877
  370MOL0     C50936   4.719   6.097   1.805  0.9172  0.4351 -0.3045
  370MOL0     C50937   4.674   6.238   1.858 -0.8596  0.1712  0.0750
  370MOL0     C50938   4.620   6.331   1.746 -0.0585  0.3595 -0.0595
  370MOL0     N50939   4.549   6.442   1.818  0.2633  1.1492 -0.8754
  370MOL0     C50940   4.601   6.573   1.823  0.8320  0.2968  0.3296
  370MOL0     C50941   4.504   6.646   1.886  1.1999  0.8856  0.9280
  370MOL0     C50942   4.505   6.797   1.910 -0.4714  0.4735 -0.4802
  370MOL0     C50943   4.391   6.870   1.857 -0.6362  0.6188 -0.1106
  370MOL0     C50944   4.377   7.021   1.906 -0.3438 -0.0554  0.2050
  370MOL0     C50945   4.330   7.118   1.795 -0.7834 -0.0672  0.0472
  370MOL0     O50946   4.344   7.252   1.846 -0.7166 -0.0392  0.1379
  370MOL0     C50947   4.382   7.343   1.752  0.6784 -0.6930 -1.0427
  370MOL0     C50948   4.300   7.359   1.642  0.2821  0.0830  0.0866
  370MOL0     C50949   4.319   7.460   1.543  1.5189 -0.1208  0.7069
  370MOL0     C50950   4.228   7.444   1.428 -0.1720 -0.2676  1.4338
  370MOL0     C50951   4.418   7.550   1.557 -0.0286  0.1001  0.6332
  370MOL0     C50952   4.443   7.656   1.460  0.2553 -0.2147 -0.3622
  370MOL0     O50953   4.527   7.754   1.497 -0.1218  0.6884 -0.5445
  370MOL0     C50954   4.580   7.833   1.397  0.6147 -0.2317 -0.3730
  370MOL0     C50955   4.720   7.829   1.369 -0.2440  0.7657 -0.5174
  370MOL0     C50956   4.763   7.925   1.286 -0.2849  0.0996 -0.2680
  370MOL0     C50957   4.682   8.024   1.222 -0.4861  0.6835  0.8208
  370MOL0     O50958   4.732   8.126   1.143  0.5229 -0.4220 -0.7831
  370MOL0     C50959   4.858   8.187   1.172  0.8681 -0.0353  0.4856
  370MOL0     C50960   4.855   8.338   1.162  0.3461 -1.0996  0.0493
  370MOL0     C50961   4.983   8.411   1.209 -0.5465  0.1351  0.0838
  370MOL0     C50962   4.972   8.559   1.174 -0.7150  0.8000 -0.2424
  370MOL0     C50963   5.102   8.639   1.178  0.5763 -0.9818 -1.1589
  370MOL0     C50964   5.072   8.778   1.135  0.3478  0.0413  0.4579
  370MOL0     C50965   5.191   8.872   1.180  0.0126  0.7440  0.2797
  370MOL0     C50966   5.175   9.003   1.103 -0.2675 -0.1960 -0.5588
  370MOL0    Cl50967   5.295   9.139   1.141  0.5356 -0.2687 -0.0997
  370MOL0     C50968   4.540   8.002   1.235 -0.3848 -0.4345  0.7897
  370MOL0     C50969   4.493   7.925   1.334  0.9218 -0.3534  0.1939
  370MOL0     O50970   4.408   7.641   1.348 -0.3478  0.6065  0.4633
  370MOL0     C50971   4.502   7.536   1.670 -0.6719  0.1543 -0.3264
  370MOL0     C50972   4.488   7.432   1.765 -0.0108 -0.0342 -0.5744
  370MOL0     N50973   4.412   6.551   1.939 -0.3323  0.2667  0.3046
  370MOL0     N50974   4.440   6.432   1.906 -0.2700  0.0106 -0.0233
  370MOL0     C50975   5.378   5.908   1.491  0.4347  0.0386  0.1356
  370MOL0     C50976   5.448   5.945   1.384  0.8635 -1.1984  0.6269
  370MOL0     C50977   5.470   5.978   0.928 -0.5893  1.1741 -0.2860
  370MOL0     C50978   5.455   6.083   0.835  0.1883  0.5311 -0.6945
  370MOL0     C50979   5.451   6.062   0.698  0.2420 -0.1858 -0.5783
  370MOL0     C50980   5.499   5.933   0.658 -0.0810 -1.0580  0.7053
  370MOL0     O50981   5.525   5.911   0.525  0.5174 -0.0846 -0.4146
  370MOL0     C50982   5.469   6.005   0.427 -0.0495 -0.0901  0.2050
  370MOL0     C50983   5.486   5.927   0.292  0.4455 -0.0026 -0.9045
  370MOL0     C50984   5.632   5.956   0.245 -0.4258  0.1894  0.2660
  370MOL0     C50985   5.671   5.851   0.129 -0.4093  0.5009 -0.7787
  370MOL0     C50986   5.820   5.843   0.106  0.7308  0.2115  0.9915
  370MOL0     C50987   5.941   5.847   0.089  0.4662  0.9023 -0.0533
  370MOL0     C50988   5.526   5.831   0.742  0.6242 -0.8570  0.0561
  370MOL0     C50989   5.516   5.851   0.877 -1.2187 -0.4241  0.7437
  370MOL0     C50990   5.512   5.724   0.953  0.6958  0.2925 -0.6233
  370MOL0     H50991   5.265   5.756   1.168  1.7429  0.8473 -0.8301
  370MOL0     H50992   5.135   5.705   1.374  0.9520 -1.1837 -0.7344
  370MOL0     H50993   5.156   5.969   1.650 -1.0496 -1.9164 -1.9926
  370MOL0     H50994   5.270   5.913   1.773  0.6584  1.0157  0.1316
  370MOL0     H50995   5.077   5.742   1.812  0.9404  0.2880 -0.8940
  370MOL0     H50996   5.041   5.910   1.873  1.4830  0.6429 -0.7481
  370MOL0     H50997   4.934   5.775   1.618 -2.3603 -1.1927  1.2535
  370MOL0     H50998   4.843   5.822   1.766 -2.0213 -1.7330 -2.3689
  370MOL0     H50999   4.969   6.013   1.580  0.1362  1.4177  1.4506
  370MOL0     H51000   4.790   5.968   1.587  0.7232 -2.5342 -1.0499
  370MOL0     H51001   4.868   6.190   1.677 -1.6331  0.3299  1.2599
  370MOL0     H51002   4.933   6.126   1.822 -0.0763 -0.7375  0.9312
  370MOL0     H51003   4.636   6.065   1.742 -1.0620  0.6185  2.0357
  370MOL0     H51004   4.744   6.043   1.896 -0.4813  1.1608  0.5549
  370MOL0     H51005   4.749   6.295   1.914 -1.2858  0.8230 -0.0043
  370MOL0     H51006   4.591   6.224   1.928 -0.3982 -2.5526  0.2135
  370MOL0     H51007   4.708   6.374   1.698 -2.5050  0.8461 -4.6333
  370MOL0     H51008   4.555   6.286   1.670 -0.9450  4.2138 -1.7937
  370MOL0     H51009   4.695   6.614   1.787 -0.7105  2.8520 -1.0625
  370MOL0     H51010   4.595   6.836   1.862 -1.6600  3.8662 -0.1807
  370MOL0     H51011   4.511   6.817   2.017  0.7713  1.5167 -0.7185
  370MOL0     H51012   4.401   6.868   1.748  0.6883 -2.0760 -0.0191
  370MOL0     H51013   4.296   6.820   1.880 -1.7041  1.3883 -2.5581
  370MOL0     H51014   4.301   7.029   1.985 -0.8300 -3.8533  0.2974
  370MOL0     H51015   4.471   7.055   1.951 -1.6106  2.3998  1.2117
  370MOL0     H51016   4.405   7.093   1.719 -1.7164  2.1245 -1.7034
  370MOL0     H51017   4.225   7.102   1.771 -0.9438 -0.0596  0.7396
  370MOL0     H51018   4.216   7.291   1.643  1.3873 -1.3384  1.1859
  370MOL0     H51019   4.279   7.397   1.344  1.5629  0.2194  2.1588
  370MOL0     H51020   4.196   7.546   1.402  2.3351  1.5036  4.6181
  370MOL0     H51021   4.143   7.378   1.447 -0.6943  0.1007  0.4150
  370MOL0     H51022   4.783   7.749   1.405  1.4526  0.6685 -3.3972
  370MOL0     H51023   4.862   7.918   1.242 -0.5488 -0.9717 -0.7143
  370MOL0     H51024   4.889   8.156   1.272 -0.3905 -1.9030  0.3568
  370MOL0     H51025   4.931   8.146   1.102  0.5048  0.5145 -0.2397
  370MOL0     H51026   4.830   8.376   1.063  4.1260 -1.4293 -1.1873
  370MOL0     H51027   4.783   8.361   1.241 -0.3377 -1.7288 -0.3793
  370MOL0     H51028   5.069   8.365   1.160 -0.2242  0.7135  0.0988
  370MOL0     H51029   5.015   8.386   1.310  2.3458 -0.1550 -0.8123
  370MOL0     H51030   4.903   8.604   1.246 -2.3164 -1.3715 -0.3356
  370MOL0     H51031   4.924   8.572   1.077 -0.6951 -2.4973 -0.8018
  370MOL0     H51032   5.138   8.643   1.282  0.5554  1.3713 -1.1803
  370MOL0     H51033   5.180   8.595   1.115  2.7414  0.8676  0.0357
  370MOL0     H51034   4.982   8.804   1.191 -1.1405 -3.5923  0.0517
  370MOL0     H51035   5.058   8.784   1.027  1.3931 -3.5128 -0.0167
  370MOL0     H51036   5.289   8.832   1.152 -0.9269 -0.3544 -1.5583
  370MOL0     H51037   5.177   8.906   1.284 -1.0360  0.3704  0.2738
  370MOL0     H51038   5.077   9.033   1.141 -0.3115 -1.1133  0.0910
  370MOL0     H51039   5.186   8.996   0.995  1.3416  1.3913 -0.5503
  370MOL0     H51040   4.471   8.074   1.191 -2.0522 -3.5496 -2.1108
  370MOL0     H51041   4.388   7.927   1.359  0.7969  1.0118 -0.3708
  370MOL0     H51042   4.585   7.604   1.685 -2.5612  2.0131  2.8065
  370MOL0     H51043   4.552   7.427   1.852 -3.2376  1.5302  2.1539
  370MOL0     H51044   5.411   5.940   1.590  0.2672 -3.5930  1.5214
  370MOL0     H51045   5.533   6.011   1.401  0.2063 -0.4921  1.2828
  370MOL0     H51046   5.430   6.183   0.868 -0.0479 -0.1368  1.2588
  370MOL0     H51047   5.441   6.148   0.632  3.0547  2.9783  2.7112
  370MOL0     H51048   5.362   6.022   0.441  0.1516  0.9719  0.4929
  370MOL0     H51049   5.527   6.097   0.419  0.7989 -0.4609  1.6624
  370MOL0     H51050   5.428   5.964   0.207  2.6799  1.0090 -2.0724
  370MOL0     H51051   5.450   5.825   0.307 -3.3909  1.5840  2.8791
  370MOL0     H51052   5.638   6.057   0.202 -3.2988  0.4553  0.3042
  370MOL0     H51053   5.697   5.959   0.333 -1.9845  0.0018  1.4512
  370MOL0     H51054   5.620   5.862   0.033 -2.3456 -0.4861  0.0820
  370MOL0     H51055   5.643   5.754   0.170 -0.4994  1.0988  0.6427
  370MOL0     H51056   6.046   5.864   0.092  0.8969 -1.1645 -1.5098
  370MOL0     H51057   5.532   5.732   0.697 -1.0168 -1.1401  0.3852
  370MOL0     H51058   5.527   5.633   0.894  0.7080  1.8231 -3.1056
  370MOL0     H51059   5.588   5.729   1.032 -1.8812 -1.3086  2.1661
  370MOL0     H51060   5.412   5.722   0.996  1.4249 -3.1314  1.3218
  371MOL0     O51061  10.243   3.273   7.320 -0.6605 -1.6196  0.5167
  371MOL0     C51062  10.213   3.334   7.426 -1.2425 -0.4663  1.1586
  371MOL0     O51063  10.157   3.280   7.537  0.6380 -0.8061  0.4635
  371MOL0     C51064  10.148   3.147   7.551  0.0585 -0.2046 -0.8354
  371MOL0     C51065  10.225   3.081   7.652  0.2209 -0.6468 -0.1816
  371MOL0     C51066  10.215   2.935   7.676  0.8467 -1.1004  0.0814
  371MOL0     C51067  10.119   2.862   7.598  0.3301  0.4115 -0.0150
  371MOL0     O51068  10.114   2.730   7.632 -0.3838 -0.1931 -0.5436
  371MOL0     C51069   9.992   2.653   7.634 -0.6539 -0.5465 -0.1784
  371MOL0     C51070  10.015   2.517   7.709  0.3877 -0.0112  0.7193
  371MOL0     C51071   9.873   2.455   7.737 -0.0431 -0.2282  1.6762
  371MOL0     C51072   9.810   2.433   7.599 -0.6419 -0.3889 -1.0250
  371MOL0     C51073   9.691   2.329   7.603 -0.2774  1.3652  0.2455
  371MOL0     C51074   9.688   2.258   7.471 -0.4264  0.5435  0.0603
  371MOL0     C51075   9.560   2.194   7.423 -0.0208  0.0310 -0.0464
  371MOL0     C51076   9.507   2.100   7.527 -0.3603 -0.5016 -0.2950
  371MOL0     N51077   9.379   2.039   7.480 -0.2579 -0.0110  0.5407
  371MOL0     C51078   9.273   2.124   7.458 -0.2185  1.0679  0.4453
  371MOL0     C51079   9.178   2.042   7.409  0.8363 -0.2626  0.4779
  371MOL0     C51080   9.035   2.082   7.373 -0.8833  0.3793 -0.4124
  371MOL0     C51081   8.963   2.161   7.483  0.1740 -0.2049  0.8500
  371MOL0     C51082   8.813   2.131   7.511  0.8001 -0.3698  0.5977
  371MOL0     C51083   8.759   2.182   7.645  0.7436 -0.2882 -0.8306
  371MOL0     O51084   8.616   2.169   7.658 -0.1676  0.1503  0.0420
  371MOL0     C51085   8.557   2.241   7.758 -0.3072 -1.0187  0.2554
  371MOL0     C51086   8.447   2.314   7.729  0.4225  0.3828  0.3328
  371MOL0     C51087   8.363   2.385   7.820  0.0685 -1.0060 -0.2251
  371MOL0     C51088   8.254   2.469   7.760 -0.0974  0.1399 -0.0485
  371MOL0     C51089   8.418   2.380   7.958  0.9561  0.4184  0.6412
  371MOL0     C51090   8.364   2.444   8.075  0.0958  0.5344 -0.5044
  371MOL0     O51091   8.404   2.398   8.198 -0.6111  0.0453  0.2813
  371MOL0     C51092   8.343   2.441   8.311 -0.0348 -1.0050  0.7697
  371MOL0     C51093   8.207   2.414   8.332  0.0039 -0.7986 -0.0384
  371MOL0     C51094   8.159   2.444   8.464  0.8746  0.3171  0.5434
  371MOL0     C51095   8.228   2.507   8.570  0.2005  0.1421 -0.3920
  371MOL0     O51096   8.185   2.546   8.690 -0.5375  0.1759 -0.4488
  371MOL0     C51097   8.041   2.561   8.710  0.1433  0.4448 -0.0586
  371MOL0     C51098   7.997   2.422   8.750  0.5881  0.4708 -0.6808
  371MOL0     C51099   7.844   2.394   8.729 -0.1119  0.8147  0.2164
  371MOL0     C51100   7.766   2.472   8.831 -0.4306 -0.2748 -0.1866
  371MOL0     C51101   7.621   2.435   8.852 -0.3484  0.2006  0.1383
  371MOL0     C51102   7.551   2.440   8.987 -0.3224 -0.2160  0.4648
  371MOL0     C51103   7.411   2.385   8.986 -0.5263  0.5694  0.1971
  371MOL0     C51104   7.310   2.474   8.915  0.0640 -0.6405 -0.1034
  371MOL0    Cl51105   7.151   2.427   8.946 -0.2223  0.4032 -0.4250
  371MOL0     C51106   8.365   2.526   8.543 -0.1431  0.4212 -0.4383
  371MOL0     C51107   8.422   2.493   8.416 -0.6270  0.0921  0.0513
  371MOL0     O51108   8.276   2.527   8.047  0.3742 -0.4248 -0.6075
  371MOL0     C51109   8.530   2.299   7.984  0.2163  0.1743 -0.3640
  371MOL0     C51110   8.599   2.226   7.886  0.3834  0.4219  0.3812
  371MOL0     N51111   9.239   1.915   7.382  0.5523  0.6376 -0.1149
  371MOL0     N51112   9.356   1.920   7.420 -0.4702 -0.2095  0.3625
  371MOL0     C51113  10.044   2.930   7.507 -0.1789  0.0261  0.2784
  371MOL0     C51114  10.054   3.069   7.475  0.1600 -0.4652 -0.9253
  371MOL0     C51115  10.217   3.486   7.403  1.0417 -0.5835  0.1871
  371MOL0     C51116  10.235   3.562   7.518 -0.3467 -0.2117 -0.4752
  371MOL0     C51117  10.223   3.700   7.519  0.1761 -0.1188 -0.6046
  371MOL0     C51118  10.199   3.775   7.403  0.1420  0.6314 -0.3999
  371MOL0     O51119  10.182   3.910   7.408  0.0885  0.4405  0.0749
  371MOL0     C51120  10.275   3.995   7.347 -0.5982  0.0473  0.3857
  371MOL0     C51121  10.413   3.969   7.424  0.7995 -0.3327 -0.1309
  371MOL0     C51122  10.488   4.106   7.428 -0.3043 -0.1991  0.2756
  371MOL0     C51123  10.464   4.187   7.557 -0.3103  0.7759  0.6103
  371MOL0     C51124  10.325   4.213   7.589  1.0305  1.0618 -0.6558
  371MOL0     C51125  10.213   4.249   7.616 -0.1925  0.8760  0.2007
  371MOL0     C51126  10.180   3.703   7.281 -0.1423 -1.2271 -0.1846
  371MOL0     C51127  10.187   3.560   7.279  0.4093  0.0588  0.0756
  371MOL0     C51128  10.137   3.494   7.154  0.4645 -0.3568  0.3907
  371MOL0     H51129  10.291   3.146   7.708 -0.7696 -1.8531  2.5433
  371MOL0     H51130  10.274   2.873   7.743 -0.2644 -0.4879  1.6849
  371MOL0     H51131   9.968   2.633   7.529 -1.8574 -2.5672  0.4267
  371MOL0     H51132   9.908   2.708   7.679 -2.4805 -2.4160 -1.1131
  371MOL0     H51133  10.072   2.448   7.645 -0.9571 -0.0314 -0.5044
  371MOL0     H51134  10.063   2.528   7.807 -1.2053  2.0976  1.3421
  371MOL0     H51135   9.886   2.361   7.791  0.6333 -1.6813 -0.8810
  371MOL0     H51136   9.792   2.520   7.775  0.9125  2.8170 -1.0412
  371MOL0     H51137   9.777   2.517   7.538 -0.3545 -0.7454 -1.6858
  371MOL0     H51138   9.888   2.377   7.546  1.0088 -0.4057  1.2906
  371MOL0     H51139   9.598   2.382   7.626 -2.0573 -1.1028 -0.8328
  371MOL0     H51140   9.705   2.270   7.694  1.1726  1.7250  0.2854
  371MOL0     H51141   9.718   2.320   7.386  1.2053 -0.4943 -0.1664
  371MOL0     H51142   9.769   2.187   7.490  1.8676  2.6853 -1.0929
  371MOL0     H51143   9.577   2.150   7.325 -0.1241  0.8269 -0.4242
  371MOL0     H51144   9.482   2.268   7.404 -0.0577 -0.5550 -2.5148
  371MOL0     H51145   9.587   2.031   7.557  0.0434 -1.0600 -2.4564
  371MOL0     H51146   9.475   2.148   7.620  0.7552 -1.4805  0.6341
  371MOL0     H51147   9.260   2.224   7.498 -2.4634  0.3782  1.6158
  371MOL0     H51148   8.979   1.990   7.352  0.1986 -1.0064  2.3743
  371MOL0     H51149   9.028   2.129   7.274 -4.6249 -2.3471 -1.7170
  371MOL0     H51150   9.022   2.158   7.576  1.7368  1.5991 -0.0212
  371MOL0     H51151   8.957   2.266   7.453 -1.4782 -0.5827 -0.2521
  371MOL0     H51152   8.751   2.172   7.431  0.4680  0.7358  1.4026
  371MOL0     H51153   8.786   2.026   7.494  0.1067  0.2909 -3.3802
  371MOL0     H51154   8.801   2.120   7.725 -1.3982  0.4159  0.9371
  371MOL0     H51155   8.780   2.289   7.659 -1.4797  0.2921 -1.4962
  371MOL0     H51156   8.415   2.308   7.625 -3.1577  0.8082  1.2879
  371MOL0     H51157   8.268   2.576   7.780  0.3846 -0.0908  0.9151
  371MOL0     H51158   8.155   2.439   7.794 -0.0775 -1.8709 -1.5645
  371MOL0     H51159   8.268   2.451   7.653  0.3769 -1.0707  0.2044
  371MOL0     H51160   8.146   2.353   8.267 -1.1867 -1.4627  1.6374
  371MOL0     H51161   8.056   2.409   8.474  0.6633  0.7235 -0.1598
  371MOL0     H51162   8.020   2.636   8.787  1.5147 -0.2853  1.0759
  371MOL0     H51163   7.993   2.587   8.615  0.9445 -1.4439 -1.0396
  371MOL0     H51164   8.037   2.341   8.689 -0.7796  0.2426 -1.3237
  371MOL0     H51165   8.013   2.408   8.858 -1.4273  2.0367 -0.1199
  371MOL0     H51166   7.836   2.286   8.745  3.3168  0.5066  0.6099
  371MOL0     H51167   7.809   2.417   8.628  0.4168 -2.6780 -0.9209
  371MOL0     H51168   7.768   2.580   8.819 -4.1654 -0.3326 -2.8433
  371MOL0     H51169   7.818   2.448   8.925  0.1676  2.5357  0.2725
  371MOL0     H51170   7.558   2.477   8.772  0.7980  0.3943 -0.6844
  371MOL0     H51171   7.628   2.327   8.840  2.8947  0.1598  1.4228
  371MOL0     H51172   7.546   2.545   9.016  0.2695  0.4583 -1.6428
  371MOL0     H51173   7.616   2.393   9.061 -0.9480 -0.3308  0.9458
  371MOL0     H51174   7.386   2.361   9.090  0.7575 -0.5595  0.2724
  371MOL0     H51175   7.410   2.289   8.933 -2.4538  2.6939 -4.0431
  371MOL0     H51176   7.329   2.482   8.808  0.3473 -0.1803 -0.0195
  371MOL0     H51177   7.325   2.579   8.940 -1.4950 -0.1787 -0.9985
  371MOL0     H51178   8.430   2.562   8.622  1.8016 -1.8406 -0.9101
  371MOL0     H51179   8.528   2.504   8.395 -0.2743  0.9737  2.0731
  371MOL0     H51180   8.552   2.270   8.086 -1.6989  2.0197  0.6318
  371MOL0     H51181   8.689   2.172   7.912  1.5411  2.0355 -0.0652
  371MOL0     H51182   9.970   2.869   7.456  0.6619 -2.0054  1.3807
  371MOL0     H51183   9.984   3.119   7.410 -1.5379 -1.9446 -0.3153
  371MOL0     H51184  10.260   3.527   7.618  1.2025  2.8618  0.3132
  371MOL0     H51185  10.254   3.757   7.606 -0.7298 -0.5479  0.0200
  371MOL0     H51186  10.293   3.968   7.243  0.1026 -1.5346  0.8662
  371MOL0     H51187  10.248   4.100   7.356  0.3522  0.1265  3.6504
  371MOL0     H51188  10.459   3.891   7.363  1.2283 -1.0116  1.0408
  371MOL0     H51189  10.403   3.923   7.522  0.8469  0.6820  0.3641
  371MOL0     H51190  10.592   4.072   7.433  0.6288  2.5456  1.5907
  371MOL0     H51191  10.489   4.165   7.335  0.8479 -3.0646 -1.6822
  371MOL0     H51192  10.510   4.285   7.545 -0.6223  1.2436  2.7844
  371MOL0     H51193  10.514   4.138   7.641 -0.7588 -1.2490 -0.2386
  371MOL0     H51194  10.116   4.286   7.642  0.0675  0.0919  2.5958
  371MOL0     H51195  10.157   3.767   7.196 -1.1495  0.2557  1.1414
  371MOL0     H51196  10.095   3.572   7.089  0.2874 -0.5940  0.2222
  371MOL0     H51197  10.214   3.429   7.112  0.5144 -1.4919  2.1399
  371MOL0     H51198  10.057   3.423   7.176  1.0664 -0.9462  0.7052
  372MOL0     O51199   7.062   2.160   5.837  0.3446  0.0530  0.1039
  372MOL0     C51200   7.107   2.254   5.775  0.7744 -0.0391 -0.3594
  372MOL0     O51201   7.073   2.388   5.808 -0.5541 -0.1748  0.5368
  372MOL0     C51202   6.981   2.425   5.900 -0.8760 -0.5522 -0.4399
  372MOL0     C51203   6.998   2.402   6.040  0.2331  0.3598 -0.2610
  372MOL0     C51204   6.896   2.454   6.126  0.7503  0.9011 -0.7160
  372MOL0     C51205   6.792   2.531   6.086 -0.0774 -0.4404 -0.1689
  372MOL0     O51206   6.705   2.593   6.169 -0.3464  0.4106  0.6553
  372MOL0     C51207   6.605   2.507   6.224  0.4849  0.1122 -1.0531
  372MOL0     C51208   6.478   2.495   6.140  0.5170 -0.1798  0.2638
  372MOL0     C51209   6.371   2.403   6.200 -0.1070  0.8685 -0.3364
  372MOL0     C51210   6.251   2.399   6.102  0.7508 -0.1565  0.2338
  372MOL0     C51211   6.163   2.273   6.140 -0.1199 -0.0959 -0.4405
  372MOL0     C51212   6.216   2.137   6.122  0.1186 -0.0334  0.9321
  372MOL0     C51213   6.103   2.022   6.138 -0.7980  0.3362  0.2780
  372MOL0     C51214   6.139   1.884   6.075 -0.0621  0.0356  0.4039
  372MOL0     N51215   6.194   1.894   5.942  0.1755  0.3766 -0.4582
  372MOL0     C51216   6.152   1.974   5.848  0.2523 -0.5095 -0.1965
  372MOL0     C51217   6.191   1.920   5.734 -0.7075  0.8418  0.4252
  372MOL0     C51218   6.170   1.978   5.593  1.1233 -1.0583  0.6336
  372MOL0     C51219   6.228   2.117   5.577  0.8106  0.3351 -0.0309
  372MOL0     C51220   6.245   2.161   5.431 -0.7027  1.5056 -0.8294
  372MOL0     C51221   6.114   2.146   5.359 -0.4180  0.1665  0.5658
  372MOL0     O51222   6.106   2.263   5.277  0.4821  0.9183 -0.2972
  372MOL0     C51223   5.996   2.296   5.206 -0.7671 -0.3388 -0.4434
  372MOL0     C51224   6.029   2.391   5.105  0.1568 -0.4681 -0.0191
  372MOL0     C51225   5.931   2.428   5.013 -0.5872 -1.0506 -0.6981
  372MOL0     C51226   5.966   2.542   4.917 -0.4167 -1.1229 -0.0215
  372MOL0     C51227   5.799   2.370   5.013  0.4076  0.9915 -0.1042
  372MOL0     C51228   5.692   2.385   4.915  0.2751 -0.3110 -0.9410
  372MOL0     O51229   5.575   2.316   4.940  0.6517 -0.2127  0.3983
  372MOL0     C51230   5.479   2.331   4.839 -0.3261  0.4752 -0.9199
  372MOL0     C51231   5.492   2.287   4.710 -0.1891  0.0621 -0.3002
  372MOL0     C51232   5.383   2.285   4.619  0.3815 -0.5408  0.6712
  372MOL0     C51233   5.260   2.332   4.667  0.3969  0.0030 -0.6295
  372MOL0     O51234   5.140   2.332   4.604  0.2803  0.2745  1.2641
  372MOL0     C51235   5.146   2.333   4.461  0.2998  0.0363  0.8460
  372MOL0     C51236   5.125   2.186   4.413 -0.1721  0.4694  0.8752
  372MOL0     C51237   5.123   2.177   4.264  0.0358 -0.1228  1.6457
  372MOL0     C51238   5.128   2.034   4.224 -0.7558  0.0697  0.2122
  372MOL0     C51239   5.029   1.936   4.291  0.0862 -0.9824  0.4013
  372MOL0     C51240   4.885   2.009   4.274  0.2961  0.1438  0.0520
  372MOL0     C51241   4.788   1.938   4.362  1.0005  0.1257 -0.0635
  372MOL0     C51242   4.660   2.003   4.315  0.5113 -0.1676 -0.2406
  372MOL0    Cl51243   4.550   1.975   4.456 -0.0909 -0.2252  0.6450
  372MOL0     C51244   5.247   2.372   4.798  0.1733 -0.0358 -0.8358
  372MOL0     C51245   5.358   2.383   4.877  0.2864  0.8786 -0.6458
  372MOL0     O51246   5.699   2.470   4.828 -0.5140  0.1779  0.8142
  372MOL0     C51247   5.779   2.274   5.119  0.2485 -0.3534 -0.7630
  372MOL0     C51248   5.877   2.235   5.211 -0.3131 -0.4738  0.2814
  372MOL0     N51249   6.254   1.800   5.751 -0.0893  0.4779 -0.1524
  372MOL0     N51250   6.250   1.782   5.880 -0.0869 -0.0507  0.5931
  372MOL0     C51251   6.786   2.560   5.959 -0.5302 -0.7882  0.2584
  372MOL0     C51252   6.883   2.512   5.859  0.6281 -0.0747 -1.2686
  372MOL0     C51253   7.173   2.234   5.650  0.1936 -0.3202 -1.1949
  372MOL0     C51254   7.204   2.356   5.588 -0.2724 -0.4637  0.6995
  372MOL0     C51255   7.254   2.359   5.458  0.4001  0.6599  0.2966
  372MOL0     C51256   7.265   2.241   5.382 -0.6531  0.5770 -0.6234
  372MOL0     O51257   7.285   2.231   5.254 -0.6093  0.3315  0.5063
  372MOL0     C51258   7.341   2.336   5.166  0.5401  0.6322  0.1027
  372MOL0     C51259   7.352   2.289   5.029 -0.8229 -0.2708 -0.9894
  372MOL0     C51260   7.219   2.256   4.974 -0.2207 -0.0139  0.4065
  372MOL0     C51261   7.214   2.203   4.821  0.3362  0.6115  0.1069
  372MOL0     C51262   7.239   2.301   4.719  1.2986 -0.1372  0.1460
  372MOL0     C51263   7.236   2.385   4.627 -0.3544 -0.0331 -0.2754
  372MOL0     C51264   7.231   2.118   5.442 -0.0929 -0.0994 -0.6781
  372MOL0     C51265   7.192   2.116   5.575  0.6202  0.6087 -0.1256
  372MOL0     C51266   7.194   1.981   5.645  0.2357 -0.0835  0.8436
  372MOL0     H51267   7.082   2.344   6.075 -1.6704 -1.2938  1.8866
  372MOL0     H51268   6.898   2.455   6.235 -0.9493  0.9694 -0.6610
  372MOL0     H51269   6.576   2.550   6.321 -0.8731 -1.1468 -0.8598
  372MOL0     H51270   6.649   2.408   6.239  1.3264  0.5796 -0.3733
  372MOL0     H51271   6.438   2.595   6.125 -3.6837 -1.0902  3.5446
  372MOL0     H51272   6.504   2.444   6.046 -1.2324 -2.4620  0.9168
  372MOL0     H51273   6.404   2.299   6.207 -1.1189  0.6077  1.0483
  372MOL0     H51274   6.327   2.445   6.291 -3.0515  0.0439 -1.2395
  372MOL0     H51275   6.187   2.488   6.104  2.2244  1.0967 -2.4014
  372MOL0     H51276   6.273   2.395   5.995 -3.6418 -0.4097 -0.8629
  372MOL0     H51277   6.067   2.293   6.090 -1.0819 -3.1391 -0.0379
  372MOL0     H51278   6.136   2.272   6.246 -0.6117 -0.4988 -0.5671
  372MOL0     H51279   6.255   2.140   6.019 -0.8433 -0.8898  0.5191
  372MOL0     H51280   6.295   2.117   6.194  0.7627  1.9388  0.8256
  372MOL0     H51281   6.017   2.055   6.079 -3.3082 -1.0111  2.9582
  372MOL0     H51282   6.077   2.008   6.243 -1.0468 -2.5673 -0.0796
  372MOL0     H51283   6.210   1.843   6.148  0.3671  2.1942  1.2703
  372MOL0     H51284   6.046   1.828   6.062 -1.3990  1.9938  1.1501
  372MOL0     H51285   6.090   2.063   5.850 -1.4896 -1.6926  1.1675
  372MOL0     H51286   6.064   1.970   5.568  1.2165  2.7722 -1.8081
  372MOL0     H51287   6.222   1.920   5.515 -0.1959  2.3419 -3.1476
  372MOL0     H51288   6.163   2.192   5.624  0.0626  1.1828 -2.2773
  372MOL0     H51289   6.322   2.131   5.630 -0.8153 -0.3088  3.2392
  372MOL0     H51290   6.282   2.263   5.445 -3.3058  2.2367  1.6467
  372MOL0     H51291   6.316   2.095   5.379 -3.4768 -2.7378  0.2398
  372MOL0     H51292   6.112   2.056   5.298 -1.0380  0.7137 -0.2458
  372MOL0     H51293   6.032   2.132   5.431  1.2291  0.6574  2.6382
  372MOL0     H51294   6.129   2.434   5.103 -0.5253  1.1786 -1.4538
  372MOL0     H51295   5.964   2.499   4.816 -1.3852 -2.4800  0.5532
  372MOL0     H51296   6.061   2.591   4.940 -0.5594 -1.0599  0.4344
  372MOL0     H51297   5.888   2.620   4.920 -0.8108 -1.5248  2.8550
  372MOL0     H51298   5.598   2.274   4.693  0.4197  2.4003  1.2851
  372MOL0     H51299   5.392   2.246   4.519  0.6237 -0.2120  0.5612
  372MOL0     H51300   5.075   2.405   4.419 -0.3204 -1.2227 -0.3590
  372MOL0     H51301   5.239   2.379   4.426  0.5230 -1.3307 -0.4727
  372MOL0     H51302   5.211   2.133   4.456  0.5018  1.4891  0.8266
  372MOL0     H51303   5.034   2.156   4.466 -1.1292  1.1079 -0.3711
  372MOL0     H51304   5.210   2.226   4.219 -0.4509 -1.3325 -0.7987
  372MOL0     H51305   5.034   2.222   4.219  0.2852 -1.0238  0.1659
  372MOL0     H51306   5.226   1.998   4.256 -0.5855 -0.9081 -1.3077
  372MOL0     H51307   5.125   2.026   4.114 -0.0069  3.2791 -0.1449
  372MOL0     H51308   5.024   1.841   4.237 -1.2118 -0.4718 -0.4226
  372MOL0     H51309   5.045   1.916   4.398  1.1813 -2.3126  0.0109
  372MOL0     H51310   4.847   2.004   4.171  2.2137 -1.0011 -0.6399
  372MOL0     H51311   4.885   2.111   4.315 -0.7023 -0.7267  2.3990
  372MOL0     H51312   4.813   1.951   4.467 -3.8646 -2.3235  1.7270
  372MOL0     H51313   4.791   1.831   4.339 -0.2140 -0.4305  2.1237
  372MOL0     H51314   4.636   1.965   4.215  2.9976  0.2658 -1.0761
  372MOL0     H51315   4.657   2.112   4.304 -1.9456 -0.0495  0.8463
  372MOL0     H51316   5.154   2.405   4.843 -2.0161 -1.8872 -3.6636
  372MOL0     H51317   5.347   2.419   4.979 -1.2368 -0.6719 -0.2148
  372MOL0     H51318   5.684   2.221   5.123 -0.0073  0.1348 -0.1848
  372MOL0     H51319   5.854   2.149   5.274  0.4525 -2.1916 -1.6690
  372MOL0     H51320   6.717   2.636   5.922 -1.3001 -0.2807  2.5843
  372MOL0     H51321   6.858   2.537   5.757 -1.5910  1.7953 -0.3545
  372MOL0     H51322   7.220   2.450   5.640  1.3154 -0.8800  1.0176
  372MOL0     H51323   7.274   2.458   5.419 -0.2048  0.0740 -1.5998
  372MOL0     H51324   7.272   2.422   5.169  0.8728  0.8796  2.1816
  372MOL0     H51325   7.434   2.375   5.210  0.0674 -0.1261  1.8680
  372MOL0     H51326   7.418   2.202   5.036 -1.2282 -0.5135  0.1504
  372MOL0     H51327   7.403   2.359   4.962 -0.7495  0.4764 -0.1771
  372MOL0     H51328   7.180   2.170   5.029 -1.0582  0.1524  0.0766
  372MOL0     H51329   7.147   2.338   4.982 -0.9120 -0.7347  2.0633
  372MOL0     H51330   7.118   2.152   4.808 -0.9042  2.2593  2.1006
  372MOL0     H51331   7.297   2.134   4.807  0.7526  0.9281  0.9129
  372MOL0     H51332   7.239   2.461   4.551  1.0067  0.1551 -0.0724
  372MOL0     H51333   7.232   2.031   5.377  0.8017 -0.6657  0.0657
  372MOL0     H51334   7.258   1.984   5.733 -1.1492  2.4895  1.9034
  372MOL0     H51335   7.090   1.954   5.666  0.1675  1.3014  2.5352
  372MOL0     H51336   7.230   1.901   5.580 -1.8530 -1.7142  1.5662
  373MOL0     O51337   4.468   7.696  11.254 -0.2580 -0.3116 -0.4570
  373MOL0     C51338   4.415   7.616  11.329 -0.0896 -0.3308 -0.1752
  373MOL0     O51339   4.283   7.625  11.381 -0.2290  0.3601 -1.3404
  373MOL0     C51340   4.182   7.688  11.315  0.6151 -0.3184  1.1639
  373MOL0     C51341   4.180   7.703  11.176  0.1982  0.4944  0.5551
  373MOL0     C51342   4.076   7.758  11.108  0.4467  0.0601  0.5189
  373MOL0     C51343   3.967   7.807  11.184 -0.7577  0.0276 -0.0103
  373MOL0     O51344   3.866   7.876  11.135  0.0680  0.2190 -0.0628
  373MOL0     C51345   3.904   7.966  11.031  0.1899 -1.1584  0.1953
  373MOL0     C51346   3.818   8.093  11.045  0.7913 -0.3278  0.3446
  373MOL0     C51347   3.673   8.062  11.045  0.1523 -0.0902 -0.2136
  373MOL0     C51348   3.596   8.151  10.945 -0.0078 -0.3795  0.0537
  373MOL0     C51349   3.447   8.167  10.996 -0.3684  0.4485  0.1477
  373MOL0     C51350   3.431   8.271  11.107 -0.3364 -1.0800  0.4056
  373MOL0     C51351   3.295   8.335  11.121 -0.7866  0.7798  0.1914
  373MOL0     C51352   3.191   8.223  11.100  0.1247  0.0420  0.3973
  373MOL0     N51353   3.056   8.254  11.143  0.4029 -0.5124  0.0018
  373MOL0     C51354   2.985   8.183  11.235 -0.4262  0.8953 -0.2337
  373MOL0     C51355   2.855   8.224  11.229 -0.5407 -0.0856 -0.2971
  373MOL0     C51356   2.731   8.178  11.299  0.6062  0.3797 -0.1199
  373MOL0     C51357   2.667   8.290  11.384  0.1699  0.7108 -0.5618
  373MOL0     C51358   2.555   8.232  11.468 -0.3717 -0.5980 -0.1581
  373MOL0     C51359   2.508   8.344  11.561  0.3792 -0.8309 -0.4360
  373MOL0     O51360   2.616   8.391  11.642 -0.3491  0.2783 -0.4415
  373MOL0     C51361   2.604   8.508  11.705 -0.1898  0.1191  0.2657
  373MOL0     C51362   2.704   8.543  11.786  0.0828  0.2422 -0.2926
  373MOL0     C51363   2.702   8.653  11.869  0.4148  0.5714  0.5643
  373MOL0     C51364   2.826   8.678  11.951 -0.0327  0.2505  0.3700
  373MOL0     C51365   2.589   8.745  11.866 -0.3796  0.8233  0.3008
  373MOL0     C51366   2.579   8.866  11.947 -0.1437  0.0673 -0.0129
  373MOL0     O51367   2.674   8.964  11.946 -0.9263 -0.7368 -1.4357
  373MOL0     C51368   2.654   9.089  11.999  0.1836 -0.3463  0.7005
  373MOL0     C51369   2.750   9.186  11.968 -0.9603  0.7216 -0.8126
  373MOL0     C51370   2.743   9.309  12.024  0.5018 -1.4040 -0.5133
  373MOL0     C51371   2.637   9.354  12.105 -0.4193 -0.3323 -0.0399
  373MOL0     O51372   2.614   9.485  12.143 -0.2406  0.1021  0.1397
  373MOL0     C51373   2.658   9.579  12.045  0.7939 -0.3912  0.0850
  373MOL0     C51374   2.636   9.563  11.894 -0.7350 -0.0645  0.0331
  373MOL0     C51375   2.604   9.689  11.817  1.4522  0.2177 -0.1437
  373MOL0     C51376   2.451   9.709  11.792  0.9212 -0.3228 -1.0637
  373MOL0     C51377   2.425   9.854  11.741  0.3051  0.3395  0.7124
  373MOL0     C51378   2.280   9.877  11.680 -0.6169 -0.2554 -1.0690
  373MOL0     C51379   2.238  10.021  11.650  0.2562 -0.8039 -0.0058
  373MOL0     C51380   2.294  10.068  11.522  0.0415 -0.3549 -0.3442
  373MOL0    Cl51381   2.282  10.244  11.496 -0.2005 -0.4100 -0.0495
  373MOL0     C51382   2.538   9.262  12.133  0.3154  0.3309  0.1945
  373MOL0     C51383   2.546   9.131  12.084 -0.5409  1.0787  0.6707
  373MOL0     O51384   2.485   8.856  12.025 -0.0688 -0.6981 -0.3068
  373MOL0     C51385   2.479   8.706  11.782 -0.2250 -0.6177  0.1075
  373MOL0     C51386   2.499   8.597  11.691  0.0178 -0.5423 -0.4528
  373MOL0     N51387   2.846   8.323  11.135 -0.6418 -0.5155  0.8556
  373MOL0     N51388   2.964   8.347  11.088  0.2020  0.2394 -0.0320
  373MOL0     C51389   3.962   7.783  11.331 -0.6721  0.1104  0.2941
  373MOL0     C51390   4.069   7.720  11.390 -0.4494  0.8838  0.3125
  373MOL0     C51391   4.500   7.508  11.369 -0.6174 -0.0684 -0.3669
  373MOL0     C51392   4.599   7.535  11.459 -0.0508  0.0381  0.2274
  373MOL0     C51393   4.674   7.426  11.515  0.4001  0.0719 -0.0675
  373MOL0     C51394   4.655   7.297  11.458  0.6669  0.9608 -0.1404
  373MOL0     O51395   4.732   7.189  11.497 -0.1962  0.6832  0.1153
  373MOL0     C51396   4.835   7.197  11.593  0.1239 -0.5934 -0.2867
  373MOL0     C51397   4.780   7.219  11.731 -0.0767 -0.9238  0.0381
  373MOL0     C51398   4.687   7.100  11.766 -0.0940  0.0940 -0.3060
  373MOL0     C51399   4.544   7.143  11.741  0.8059 -0.1479 -0.5568
  373MOL0     C51400   4.450   7.028  11.761 -1.0068 -1.1643 -0.6288
  373MOL0     C51401   4.369   6.938  11.781  0.6561 -0.2277  0.1935
  373MOL0     C51402   4.560   7.278  11.368 -0.1992 -0.4119 -0.1345
  373MOL0     C51403   4.474   7.378  11.319  0.0857 -1.1051 -0.4424
  373MOL0     C51404   4.355   7.350  11.217 -0.4837  0.9621  0.6926
  373MOL0     H51405   4.258   7.672  11.107 -2.1057 -0.2158 -1.9175
  373MOL0     H51406   4.077   7.773  11.001  0.4722  1.8125  0.7441
  373MOL0     H51407   3.879   7.927  10.932 -1.3541  0.4269 -0.0910
  373MOL0     H51408   4.006   8.006  11.039 -0.9172  2.2927 -1.0745
  373MOL0     H51409   3.852   8.130  11.142 -0.3225 -1.5417  1.2291
  373MOL0     H51410   3.861   8.157  10.967  2.0274 -1.4993  0.0367
  373MOL0     H51411   3.640   7.958  11.054  0.6385 -0.0935  2.0230
  373MOL0     H51412   3.648   8.087  11.148 -2.2052 -1.0502 -0.4993
  373MOL0     H51413   3.635   8.247  10.909 -2.5291  1.5925  2.1352
  373MOL0     H51414   3.610   8.095  10.852  4.3767 -0.7122  0.7082
  373MOL0     H51415   3.408   8.074  11.039 -0.0270  0.3612  0.2714
  373MOL0     H51416   3.392   8.194  10.906 -0.5346  0.2748  0.1964
  373MOL0     H51417   3.442   8.227  11.206 -0.3766 -0.7221  0.5713
  373MOL0     H51418   3.503   8.353  11.105 -1.4672  0.1027  3.0775
  373MOL0     H51419   3.283   8.416  11.049  2.5966  3.7386  2.6108
  373MOL0     H51420   3.284   8.381  11.220  2.6027  1.8049  0.2291
  373MOL0     H51421   3.179   8.197  10.994 -0.4879 -1.1875  0.7606
  373MOL0     H51422   3.221   8.128  11.144 -2.5560 -1.4739 -0.7647
  373MOL0     H51423   3.009   8.117  11.318  0.0216  1.6516  0.2426
  373MOL0     H51424   2.758   8.087  11.353  2.4795 -1.4369 -3.7393
  373MOL0     H51425   2.657   8.150  11.223 -1.1193  0.8889  1.2887
  373MOL0     H51426   2.740   8.341  11.448 -0.9998 -0.1379  1.5306
  373MOL0     H51427   2.623   8.366  11.319 -3.0159 -0.7785 -0.3642
  373MOL0     H51428   2.479   8.211  11.393  0.6101  0.9384 -1.6649
  373MOL0     H51429   2.577   8.144  11.528  0.3748  1.0816  2.1957
  373MOL0     H51430   2.477   8.431  11.502  2.1619  1.9172  2.3395
  373MOL0     H51431   2.435   8.314  11.636 -0.2334 -0.2090 -0.7702
  373MOL0     H51432   2.789   8.476  11.792  2.0419  2.6695  0.8508
  373MOL0     H51433   2.810   8.654  12.057 -0.5915  0.5156  0.3499
  373MOL0     H51434   2.865   8.780  11.957  0.8945  0.0008 -1.0887
  373MOL0     H51435   2.913   8.626  11.909  0.3340 -0.0020  1.4009
  373MOL0     H51436   2.841   9.168  11.911 -1.5226  0.0611 -1.5374
  373MOL0     H51437   2.823   9.381  12.011 -1.8211  2.1527  2.6364
  373MOL0     H51438   2.614   9.677  12.067 -1.3666 -0.9794 -1.2570
  373MOL0     H51439   2.766   9.596  12.054  1.3788 -1.9343 -2.7218
  373MOL0     H51440   2.728   9.529  11.845  1.8212  4.9009  0.7640
  373MOL0     H51441   2.561   9.486  11.872 -0.8872  0.7092 -2.4566
  373MOL0     H51442   2.632   9.684  11.712  1.9036 -0.5928  0.0056
  373MOL0     H51443   2.651   9.774  11.867 -1.2343  0.8881  1.4771
  373MOL0     H51444   2.397   9.702  11.887 -2.1414 -0.8972 -2.7448
  373MOL0     H51445   2.412   9.633  11.724  0.6458 -0.2144 -1.0261
  373MOL0     H51446   2.441   9.928  11.820  1.9356  0.2390  0.5100
  373MOL0     H51447   2.501   9.867  11.664  0.1733 -2.2366  0.0645
  373MOL0     H51448   2.208   9.839  11.753 -1.7593  2.6620 -0.5171
  373MOL0     H51449   2.272   9.821  11.586 -1.2318  1.0229 -1.8189
  373MOL0     H51450   2.276  10.078  11.735  1.5264 -0.5976 -0.6858
  373MOL0     H51451   2.130  10.037  11.653  0.7577  3.6883 -0.0413
  373MOL0     H51452   2.247  10.017  11.437 -1.6447 -0.4989  0.6281
  373MOL0     H51453   2.402  10.055  11.522  0.2550  1.2271 -0.5328
  373MOL0     H51454   2.455   9.285  12.200  0.3843 -0.8101  0.6923
  373MOL0     H51455   2.470   9.060  12.116 -0.9285  0.7623 -0.8930
  373MOL0     H51456   2.378   8.746  11.782 -0.2851 -0.7464 -0.8456
  373MOL0     H51457   2.414   8.588  11.624  0.7297  1.2638 -1.6466
  373MOL0     H51458   3.882   7.814  11.398  0.0163  2.8770 -0.0480
  373MOL0     H51459   4.061   7.713  11.498 -2.3744 -1.0566  0.1067
  373MOL0     H51460   4.618   7.633  11.502  1.0260  1.3151 -2.8606
  373MOL0     H51461   4.749   7.446  11.590  2.5382 -0.1094 -2.0508
  373MOL0     H51462   4.898   7.108  11.604 -0.9313 -1.3737 -0.3932
  373MOL0     H51463   4.909   7.275  11.576  1.2616 -1.3252  1.0668
  373MOL0     H51464   4.728   7.314  11.751  0.2939 -0.7865  0.3592
  373MOL0     H51465   4.864   7.205  11.799 -1.9721 -0.7644  2.5709
  373MOL0     H51466   4.712   7.021  11.695  3.7497  1.5350 -0.8040
  373MOL0     H51467   4.711   7.066  11.867  2.0709 -1.0355 -1.1315
  373MOL0     H51468   4.539   7.182  11.639 -0.2110  4.3897  1.0065
  373MOL0     H51469   4.524   7.226  11.809  0.9474 -1.0358  0.5995
  373MOL0     H51470   4.307   6.855  11.811  2.8421 -1.4281  1.7227
  373MOL0     H51471   4.539   7.175  11.340 -2.7792  0.2104 -0.7542
  373MOL0     H51472   4.366   7.252  11.169  3.6563  0.9998  1.1637
  373MOL0     H51473   4.267   7.350  11.281 -1.5568 -0.9887 -0.6923
  373MOL0     H51474   4.329   7.428  11.145 -3.8541 -1.4102 -0.9174
  374MOL0     O51475   7.217  11.516   4.160  0.2505  1.0078 -0.8614
  374MOL0     C51476   7.263  11.470   4.270  0.7398  0.6209 -0.6137
  374MOL0     O51477   7.215  11.530   4.390  0.5493 -0.6703  0.0504
  374MOL0     C51478   7.172  11.663   4.402 -1.1161 -0.4530 -0.3257
  374MOL0     C51479   7.176  11.758   4.299 -0.0045  0.2188 -0.4766
  374MOL0     C51480   7.130  11.891   4.323 -0.3450  0.8835  0.0105
  374MOL0     C51481   7.086  11.929   4.451  0.3969 -0.5839 -0.3667
  374MOL0     O51482   7.052  12.061   4.458 -1.3169 -0.1965 -0.3031
  374MOL0     C51483   7.017  12.112   4.586  0.9880 -0.4461 -0.0141
  374MOL0     C51484   6.945  12.252   4.588  0.2671 -0.3451 -0.2089
  374MOL0     C51485   6.891  12.289   4.731 -0.8663  0.2350 -0.5971
  374MOL0     C51486   6.795  12.412   4.729 -0.8176  0.1556 -0.1214
  374MOL0     C51487   6.777  12.462   4.873  1.0638 -0.1084 -0.3407
  374MOL0     C51488   6.709  12.364   4.971  0.0579  0.6982  0.3269
  374MOL0     C51489   6.653  12.431   5.090  0.0899  0.2469 -0.2669
  374MOL0     C51490   6.538  12.540   5.068  0.9301  1.2416 -0.6442
  374MOL0     N51491   6.405  12.483   5.106  1.0173 -0.3599  0.2811
  374MOL0     C51492   6.345  12.501   5.225 -0.2532  0.0211 -0.4911
  374MOL0     C51493   6.232  12.426   5.211  0.6549  0.7081 -0.6903
  374MOL0     C51494   6.132  12.394   5.322 -0.0663  0.8904  0.2131
  374MOL0     C51495   6.038  12.515   5.330  0.1428  0.5355 -0.3330
  374MOL0     C51496   5.965  12.549   5.458 -0.4681 -0.7030  0.1419
  374MOL0     C51497   6.040  12.655   5.540 -0.3389  0.6211 -0.2841
  374MOL0     O51498   6.174  12.608   5.569  0.7239  0.4449 -0.2879
  374MOL0     C51499   6.242  12.672   5.675  0.2446 -0.3438  1.0311
  374MOL0     C51500   6.204  12.795   5.722  0.4774  1.3505 -0.5738
  374MOL0     C51501   6.268  12.858   5.831 -0.0189 -0.7320 -0.3287
  374MOL0     C51502   6.212  12.989   5.877  0.6651  0.0139  0.1762
  374MOL0     C51503   6.387  12.798   5.878  0.2049 -0.1685 -0.7012
  374MOL0     C51504   6.463  12.854   5.997 -0.1002 -0.2031  0.4119
  374MOL0     O51505   6.589  12.822   6.015  0.3382 -0.3478 -0.1459
  374MOL0     C51506   6.672  12.861   6.116 -0.0301  0.2622  0.4608
  374MOL0     C51507   6.811  12.881   6.083 -0.5458 -0.4393 -0.6094
  374MOL0     C51508   6.891  12.924   6.194  0.3919  0.1303 -0.2310
  374MOL0     C51509   6.843  12.951   6.322  0.3458 -0.1521  0.5445
  374MOL0     O51510   6.925  12.999   6.419  0.4079  0.6107  0.2757
  374MOL0     C51511   6.940  12.921   6.535  0.1148  0.3036  0.4664
  374MOL0     C51512   6.932  13.010   6.656  0.3871 -0.6269  0.1068
  374MOL0     C51513   6.793  13.087   6.662 -0.8047 -0.2439 -0.4589
  374MOL0     C51514   6.786  13.190   6.782  0.0104 -1.3190  0.4002
  374MOL0     C51515   6.636  13.213   6.807 -0.3489  0.2778  0.1624
  374MOL0     C51516   6.607  13.269   6.946 -0.0565 -0.3686 -0.1424
  374MOL0     C51517   6.461  13.276   6.964  0.3772 -0.2695  0.1353
  374MOL0     C51518   6.428  13.379   7.072  0.6063  0.0600 -0.8851
  374MOL0    Cl51519   6.460  13.546   7.012  0.2696  0.5832 -0.0579
  374MOL0     C51520   6.715  12.936   6.346  0.7043  0.0675 -0.1594
  374MOL0     C51521   6.632  12.886   6.243 -0.5811 -1.1370 -0.5748
  374MOL0     O51522   6.407  12.934   6.074  0.7775 -0.2695 -0.7586
  374MOL0     C51523   6.426  12.678   5.825 -0.6297  0.2771 -0.5030
  374MOL0     C51524   6.349  12.615   5.728 -0.2866 -1.1273 -0.5699
  374MOL0     N51525   6.232  12.377   5.087  0.8961  0.3114 -0.0581
  374MOL0     N51526   6.339  12.407   5.022  0.5308  0.0014 -0.6959
  374MOL0     C51527   7.085  11.828   4.549 -0.4457 -0.0696 -0.5240
  374MOL0     C51528   7.133  11.696   4.530  0.4835 -0.5609  0.3157
  374MOL0     C51529   7.341  11.347   4.275  0.0221 -0.5453 -0.1908
  374MOL0     C51530   7.438  11.347   4.370  0.8513 -0.3893 -0.9430
  374MOL0     C51531   7.526  11.242   4.378 -0.5959  0.2249  0.3734
  374MOL0     C51532   7.515  11.130   4.295  0.0916  0.8397 -0.4161
  374MOL0     O51533   7.591  11.019   4.308 -0.6836  0.1055  0.0622
  374MOL0     C51534   7.714  11.003   4.229 -0.0852  0.4190  0.1644
  374MOL0     C51535   7.793  10.870   4.254  0.8461  0.2328 -0.0636
  374MOL0     C51536   7.754  10.746   4.178 -0.5883  1.3716  1.3712
  374MOL0     C51537   7.598  10.736   4.158 -0.2147 -0.0938  0.0571
  374MOL0     C51538   7.571  10.620   4.075 -0.3840  1.1269  0.0447
  374MOL0     C51539   7.559  10.509   4.023 -0.4879  0.5479  0.6746
  374MOL0     C51540   7.410  11.120   4.215  0.1165  0.3617  0.2159
  374MOL0     C51541   7.323  11.230   4.191  0.2221 -1.0488 -0.3196
  374MOL0     C51542   7.196  11.217   4.114  0.3095 -0.2035 -0.3892
  374MOL0     H51543   7.212  11.736   4.199  1.2430  0.8967 -0.2047
  374MOL0     H51544   7.115  11.959   4.240  2.1490  1.6199  0.0963
  374MOL0     H51545   7.110  12.133   4.640  0.0489  0.4139  1.3322
  374MOL0     H51546   6.956  12.055   4.656  1.3765  1.5342  2.0596
  374MOL0     H51547   7.006  12.334   4.548 -1.9277  1.5262  0.0318
  374MOL0     H51548   6.870  12.257   4.509  0.3252 -0.8093 -0.2966
  374MOL0     H51549   6.849  12.204   4.786 -2.3463  1.9959  1.1458
  374MOL0     H51550   6.984  12.325   4.776 -1.7609  1.4869  0.3365
  374MOL0     H51551   6.828  12.504   4.680 -2.3678 -0.9897 -3.6922
  374MOL0     H51552   6.707  12.390   4.667  0.5755 -0.1967 -2.0632
  374MOL0     H51553   6.707  12.545   4.858 -0.2542 -1.3036 -1.0301
  374MOL0     H51554   6.874  12.496   4.911  1.4547 -1.1317 -0.3877
  374MOL0     H51555   6.636  12.298   4.924 -1.0669  1.6639  0.6840
  374MOL0     H51556   6.781  12.295   5.014  1.3122  2.2907  0.9072
  374MOL0     H51557   6.731  12.484   5.144 -0.1557  1.0087 -0.6396
  374MOL0     H51558   6.629  12.350   5.159  3.0628  0.2774  0.9056
  374MOL0     H51559   6.567  12.626   5.128 -1.3442 -0.3031  3.0069
  374MOL0     H51560   6.519  12.568   4.964  0.0530 -0.7934 -1.0923
  374MOL0     H51561   6.378  12.561   5.309 -1.2052  1.0079 -0.7949
  374MOL0     H51562   6.172  12.380   5.423  1.3958 -1.7593 -0.6452
  374MOL0     H51563   6.078  12.306   5.286  0.3341  0.1808  1.3053
  374MOL0     H51564   6.080  12.610   5.294 -1.6175  0.5115 -2.6928
  374MOL0     H51565   5.967  12.483   5.254  2.5900 -4.0594 -1.0137
  374MOL0     H51566   5.869  12.593   5.430  0.6212 -0.0113 -2.9214
  374MOL0     H51567   5.937  12.461   5.516 -0.4713 -0.9089 -0.1731
  374MOL0     H51568   6.055  12.739   5.473  0.0045  0.1053 -0.8651
  374MOL0     H51569   5.984  12.677   5.631  0.2464  0.6048  0.0882
  374MOL0     H51570   6.118  12.847   5.680  0.8117  1.8281 -0.6648
  374MOL0     H51571   6.126  13.028   5.823  0.8209  0.6689  0.3943
  374MOL0     H51572   6.294  13.060   5.864 -1.5483  2.2405 -3.1940
  374MOL0     H51573   6.180  12.991   5.982 -1.8035  0.8863 -0.5359
  374MOL0     H51574   6.848  12.871   5.982 -0.9552 -0.2066 -0.7835
  374MOL0     H51575   6.996  12.926   6.169  0.6871  1.6946  0.9913
  374MOL0     H51576   6.863  12.844   6.539 -0.7023  1.0597 -0.2052
  374MOL0     H51577   7.032  12.862   6.541 -1.1489 -1.5854  4.2236
  374MOL0     H51578   6.947  12.953   6.748 -1.4847  2.5321  2.5391
  374MOL0     H51579   7.003  13.093   6.654 -2.3750  1.8709 -0.7282
  374MOL0     H51580   6.716  13.010   6.663  0.4827 -1.5792 -1.3522
  374MOL0     H51581   6.790  13.136   6.564  0.3558 -0.8319 -0.8013
  374MOL0     H51582   6.832  13.285   6.753 -1.6599 -0.7785 -0.5683
  374MOL0     H51583   6.833  13.150   6.872  3.0440 -0.3889 -0.6423
  374MOL0     H51584   6.593  13.279   6.730  1.4197 -0.5107 -1.6145
  374MOL0     H51585   6.591  13.114   6.798 -2.4497  1.0971  1.1074
  374MOL0     H51586   6.654  13.368   6.949 -0.6752  0.1066 -3.0074
  374MOL0     H51587   6.649  13.208   7.027  0.1849 -0.4203 -0.3056
  374MOL0     H51588   6.418  13.181   6.997  0.4735  0.3456  2.1326
  374MOL0     H51589   6.415  13.319   6.874  1.4120  1.8522  0.5487
  374MOL0     H51590   6.476  13.368   7.170 -3.9733  2.3047  1.9630
  374MOL0     H51591   6.323  13.366   7.100  0.6171  3.5289  1.5113
  374MOL0     H51592   6.672  12.967   6.440 -1.8174 -1.0234 -0.8610
  374MOL0     H51593   6.527  12.871   6.265 -0.4800 -2.1191 -0.7087
  374MOL0     H51594   6.509  12.624   5.869 -0.8397 -0.2885 -0.7911
  374MOL0     H51595   6.379  12.518   5.690  2.3302  0.0323 -1.7909
  374MOL0     H51596   7.041  11.854   4.644  1.9064 -2.4198  1.3539
  374MOL0     H51597   7.134  11.640   4.624 -0.7902  1.3024  1.5120
  374MOL0     H51598   7.445  11.420   4.450  1.6371 -1.0467 -0.3933
  374MOL0     H51599   7.599  11.227   4.457  1.2138  3.6529 -0.4893
  374MOL0     H51600   7.696  11.002   4.121 -0.2991  1.5383  0.1789
  374MOL0     H51601   7.783  11.087   4.245  1.7221 -1.0742  0.5755
  374MOL0     H51602   7.778  10.846   4.359  2.2614 -0.8185 -0.0751
  374MOL0     H51603   7.898  10.892   4.234  0.6628  0.3259 -0.9915
  374MOL0     H51604   7.791  10.758   4.076 -1.5452 -0.8871  0.6851
  374MOL0     H51605   7.786  10.650   4.220  3.4299  0.1510 -3.4667
  374MOL0     H51606   7.555  10.829   4.119 -1.7126 -1.4349 -1.7092
  374MOL0     H51607   7.548  10.730   4.255 -1.5944  0.7862 -0.5699
  374MOL0     H51608   7.544  10.413   3.979  1.0876 -0.1837  1.6423
  374MOL0     H51609   7.386  11.030   4.160 -2.9248  2.5400 -2.4902
  374MOL0     H51610   7.191  11.278   4.024 -2.8378  1.6745  0.8857
  374MOL0     H51611   7.171  11.114   4.084  2.5720 -0.3878 -1.8137
  374MOL0     H51612   7.106  11.256   4.163 -0.7308 -0.0834 -2.2802
  375MOL0     O51613   9.041   7.265  11.150 -0.3475 -0.4377 -0.6850
  375MOL0     C51614   8.982   7.294  11.254 -0.2989 -1.7559  0.4445
  375MOL0     O51615   8.857   7.351  11.252  0.1211 -0.1017  0.4839
  375MOL0     C51616   8.801   7.385  11.129  0.7612 -0.1533  0.0107
  375MOL0     C51617   8.777   7.276  11.037 -0.2413 -0.5039 -0.1059
  375MOL0     C51618   8.760   7.299  10.902  0.1853  0.0382 -0.3595
  375MOL0     C51619   8.761   7.437  10.853 -0.1873 -0.5722  0.9026
  375MOL0     O51620   8.740   7.480  10.723 -0.3232 -0.4224 -0.4442
  375MOL0     C51621   8.676   7.395  10.634  0.1953 -0.0658 -0.1178
  375MOL0     C51622   8.653   7.466  10.493  0.1948 -0.0975 -0.2783
  375MOL0     C51623   8.766   7.418  10.396 -0.3624  0.4669  0.5825
  375MOL0     C51624   8.716   7.460  10.258  1.2088  0.7932  0.8322
  375MOL0     C51625   8.827   7.421  10.157  0.0804 -0.2777 -0.6039
  375MOL0     C51626   8.790   7.474  10.027  1.1479  0.6476 -0.0238
  375MOL0     C51627   8.829   7.627  10.020 -0.3806 -0.3498 -0.3666
  375MOL0     C51628   8.821   7.705   9.886 -0.7017 -0.2955  0.3780
  375MOL0     N51629   8.688   7.721   9.836  0.3663  0.3605 -0.1191
  375MOL0     C51630   8.616   7.623   9.767  0.4466 -0.5200  0.2784
  375MOL0     C51631   8.502   7.685   9.727  0.2104 -0.2980 -0.2936
  375MOL0     C51632   8.396   7.637   9.624  0.0697  0.5905 -0.4323
  375MOL0     C51633   8.446   7.585   9.494 -0.0319  0.4075 -0.0050
  375MOL0     C51634   8.450   7.695   9.392  0.4788  0.0795  0.2369
  375MOL0     C51635   8.533   7.816   9.441 -1.5936 -0.1715 -0.2258
  375MOL0     O51636   8.670   7.778   9.451  0.1844 -0.2621  1.1143
  375MOL0     C51637   8.761   7.872   9.476 -0.8823 -0.0169  0.0354
  375MOL0     C51638   8.863   7.835   9.562 -0.2016 -0.5910  0.1814
  375MOL0     C51639   8.972   7.919   9.592 -0.0721 -0.5512 -0.4648
  375MOL0     C51640   9.083   7.879   9.680 -0.5381  0.0133  0.1556
  375MOL0     C51641   8.980   8.046   9.528  0.0404  0.2302 -0.3224
  375MOL0     C51642   9.086   8.152   9.553  0.5559 -0.2401  0.6600
  375MOL0     O51643   9.071   8.265   9.639 -0.4914 -0.4162 -0.9797
  375MOL0     C51644   8.952   8.286   9.690  0.4652 -0.6362 -0.3746
  375MOL0     C51645   8.883   8.382   9.617 -0.3064 -0.5162  0.7216
  375MOL0     C51646   8.757   8.427   9.664 -0.6414 -0.6197 -0.2799
  375MOL0     C51647   8.702   8.375   9.779  0.6659  1.0019  0.6172
  375MOL0     O51648   8.586   8.411   9.827  0.0077 -0.5906  0.0996
  375MOL0     C51649   8.491   8.304   9.843  0.3436  0.5867 -0.6466
  375MOL0     C51650   8.377   8.338   9.759 -0.2807 -0.0483  0.5132
  375MOL0     C51651   8.267   8.224   9.746 -0.3677 -0.0900  0.0793
  375MOL0     C51652   8.316   8.109   9.651  0.4183  0.5974  0.6416
  375MOL0     C51653   8.212   8.015   9.597 -0.2858  0.2748  0.6645
  375MOL0     C51654   8.089   7.982   9.692 -0.3001  0.6760 -0.1065
  375MOL0     C51655   8.035   7.851   9.641  0.2296  0.4714  1.2035
  375MOL0     C51656   7.944   7.779   9.738  0.6396 -0.0704  0.5551
  375MOL0    Cl51657   7.853   7.641   9.664  0.3680  0.1867 -0.1942
  375MOL0     C51658   8.775   8.281   9.858  0.9971  0.2744  0.0430
  375MOL0     C51659   8.894   8.225   9.806  0.0284  0.5787 -0.1782
  375MOL0     O51660   9.187   8.127   9.494  0.0620  0.5924  0.0587
  375MOL0     C51661   8.875   8.080   9.437 -0.4565 -0.9495 -0.3209
  375MOL0     C51662   8.767   7.993   9.412  0.0460  0.3946  0.0580
  375MOL0     N51663   8.499   7.808   9.788 -0.1372  0.1690  0.1632
  375MOL0     N51664   8.612   7.826   9.847  0.5829 -0.6633  0.8685
  375MOL0     C51665   8.768   7.541  10.949  0.0110  0.0606 -0.0605
  375MOL0     C51666   8.809   7.513  11.078  0.3672  0.3032  0.5959
  375MOL0     C51667   9.038   7.258  11.384 -0.6475 -1.3801 -0.7604
  375MOL0     C51668   9.000   7.137  11.437  0.0973 -0.4976  0.1058
  375MOL0     C51669   9.059   7.088  11.546 -0.8550  0.7000  0.1093
  375MOL0     C51670   9.147   7.160  11.622  0.1499 -0.6414  0.0898
  375MOL0     O51671   9.184   7.087  11.742 -0.1388 -0.7051  0.7925
  375MOL0     C51672   9.319   7.094  11.791  0.2356  0.3366 -0.2475
  375MOL0     C51673   9.427   7.081  11.692  0.0232 -0.1997  0.1887
  375MOL0     C51674   9.467   6.942  11.645 -0.6761  0.3116  0.7845
  375MOL0     C51675   9.534   6.950  11.502  0.2242 -1.0037  0.2263
  375MOL0     C51676   9.439   6.977  11.391  1.1084 -1.3978  0.1888
  375MOL0     C51677   9.356   7.024  11.309  0.0836 -0.1612 -0.5072
  375MOL0     C51678   9.205   7.282  11.573 -0.1553 -0.0372  0.6100
  375MOL0     C51679   9.151   7.330  11.447  0.4019 -0.0715 -1.1649
  375MOL0     C51680   9.191   7.471  11.398 -0.5731 -0.3977  0.4644
  375MOL0     H51681   8.766   7.174  11.071  0.1024 -0.7275 -0.6467
  375MOL0     H51682   8.743   7.223  10.827 -2.5772  1.9371 -1.8798
  375MOL0     H51683   8.576   7.370  10.670  0.2932  1.9539  1.8020
  375MOL0     H51684   8.738   7.306  10.623  0.7549  0.4028 -0.8251
  375MOL0     H51685   8.554   7.454  10.449  1.2510 -1.7742 -2.3829
  375MOL0     H51686   8.669   7.574  10.505 -2.0456  0.1290  1.4081
  375MOL0     H51687   8.855   7.474  10.426 -1.3446  2.9199 -0.7692
  375MOL0     H51688   8.777   7.309  10.393  5.0955  0.5398  4.0373
  375MOL0     H51689   8.626   7.401  10.244  2.5461 -1.7759  2.4053
  375MOL0     H51690   8.683   7.564  10.250  1.3472  0.8703  1.2112
  375MOL0     H51691   8.830   7.312  10.153  1.5698 -0.2701 -0.1599
  375MOL0     H51692   8.924   7.467  10.177 -0.2993 -1.0088  4.0493
  375MOL0     H51693   8.836   7.413   9.949 -1.9670 -0.8533 -0.8402
  375MOL0     H51694   8.684   7.454  10.014  1.1224 -3.0944  3.7405
  375MOL0     H51695   8.921   7.662  10.068 -1.1876  1.5072 -0.0585
  375MOL0     H51696   8.754   7.663  10.092  0.5918 -4.7334  3.3153
  375MOL0     H51697   8.871   7.800   9.909 -1.7632 -0.1515  2.3644
  375MOL0     H51698   8.877   7.654   9.807  3.4325  0.3834  2.5530
  375MOL0     H51699   8.658   7.530   9.730 -0.3055  0.1551 -2.5618
  375MOL0     H51700   8.326   7.721   9.610  0.5531  1.8246  3.3917
  375MOL0     H51701   8.327   7.566   9.671  1.9225 -0.2533  1.1188
  375MOL0     H51702   8.544   7.540   9.509 -0.3418 -1.8161 -3.3871
  375MOL0     H51703   8.380   7.503   9.464  0.4065  0.9215 -2.6569
  375MOL0     H51704   8.491   7.665   9.295 -2.8170 -0.1693 -1.1908
  375MOL0     H51705   8.346   7.727   9.383  0.8640  1.5675  0.8385
  375MOL0     H51706   8.527   7.900   9.371 -1.7106 -1.7936 -2.2554
  375MOL0     H51707   8.486   7.846   9.535  0.0579  0.8173  0.3279
  375MOL0     H51708   8.841   7.737   9.604 -1.1446  0.3614  2.0247
  375MOL0     H51709   9.108   7.948   9.761 -1.5554 -0.6614  1.0596
  375MOL0     H51710   9.178   7.883   9.624 -1.3386 -0.8073 -1.3313
  375MOL0     H51711   9.062   7.778   9.716 -0.3116 -1.6355 -3.7676
  375MOL0     H51712   8.934   8.423   9.530  0.0232  0.4369  1.3479
  375MOL0     H51713   8.704   8.501   9.605 -0.1626 -1.7622 -2.2453
  375MOL0     H51714   8.521   8.206   9.806 -1.5209 -1.3559  2.4788
  375MOL0     H51715   8.446   8.294   9.942  0.3921  2.3174 -0.4069
  375MOL0     H51716   8.330   8.430   9.794 -0.2919  0.5876 -1.0845
  375MOL0     H51717   8.425   8.366   9.665  0.0760 -1.1566  0.3533
  375MOL0     H51718   8.180   8.274   9.702  0.5705  0.3454 -1.3579
  375MOL0     H51719   8.231   8.177   9.838  1.4005 -0.6949  0.5072
  375MOL0     H51720   8.384   8.055   9.718  2.3527  1.1382 -0.8137
  375MOL0     H51721   8.370   8.147   9.564  0.2331 -0.2769  0.1263
  375MOL0     H51722   8.173   8.083   9.521 -0.1441  1.9183  2.0074
  375MOL0     H51723   8.268   7.928   9.560  1.8835  1.0619  1.9405
  375MOL0     H51724   8.014   8.061   9.698 -1.0321  0.0695 -1.0923
  375MOL0     H51725   8.121   7.967   9.796  2.2556  0.8970 -0.7932
  375MOL0     H51726   8.120   7.783   9.625  1.5801  2.1775  0.8234
  375MOL0     H51727   7.974   7.858   9.550  1.1442  0.9081  0.6026
  375MOL0     H51728   7.858   7.838   9.773 -2.3615 -2.7143 -1.7756
  375MOL0     H51729   8.003   7.743   9.822 -0.5301  1.5123  2.1359
  375MOL0     H51730   8.722   8.240   9.943 -0.0802  0.9713 -0.2716
  375MOL0     H51731   8.950   8.146   9.855  2.2495  1.3892 -1.2813
  375MOL0     H51732   8.885   8.176   9.387  3.3402  0.2550  2.2425
  375MOL0     H51733   8.689   8.029   9.346  1.0304 -0.8537 -1.8693
  375MOL0     H51734   8.753   7.646  10.926  0.8164  0.0554 -0.6387
  375MOL0     H51735   8.823   7.601  11.141 -0.4259  1.2844 -0.5399
  375MOL0     H51736   8.925   7.087  11.377  3.0024 -1.1653 -3.2938
  375MOL0     H51737   9.025   6.990  11.579 -0.3354  0.0973 -1.0722
  375MOL0     H51738   9.329   7.182  11.856 -0.8519  0.4947 -0.2783
  375MOL0     H51739   9.335   7.009  11.859  0.4842 -0.9540 -1.8578
  375MOL0     H51740   9.513   7.122  11.745  0.2186 -2.2876  1.5923
  375MOL0     H51741   9.418   7.152  11.609  2.2097 -0.6146 -0.4680
  375MOL0     H51742   9.534   6.898  11.720 -1.1845  0.2158  1.1905
  375MOL0     H51743   9.374   6.885  11.639 -0.7582  0.5777 -0.6789
  375MOL0     H51744   9.587   6.856  11.484  0.5674 -1.3087  2.5152
  375MOL0     H51745   9.608   7.031  11.501 -2.7087  1.9683 -2.6077
  375MOL0     H51746   9.284   7.075  11.249  1.1194  0.9568 -0.8319
  375MOL0     H51747   9.267   7.344  11.636  1.5669  0.8017 -1.7288
  375MOL0     H51748   9.262   7.503  11.474 -1.0402 -0.3310  0.8759
  375MOL0     H51749   9.245   7.461  11.303 -0.3156 -4.3049  0.8866
  375MOL0     H51750   9.110   7.544  11.386 -0.6292 -0.4919  0.2584
  376MOL0     O51751   1.245   6.136   8.733  1.0212 -0.6862 -0.2143
  376MOL0     C51752   1.174   6.056   8.679 -0.7374  0.1852  0.4211
  376MOL0     O51753   1.035   6.046   8.695 -0.0225 -0.5275  0.2796
  376MOL0     C51754   0.990   6.146   8.780  0.0478  1.4582  0.8564
  376MOL0     C51755   0.976   6.108   8.912  0.2502  0.0359  0.1267
  376MOL0     C51756   0.915   6.199   8.998 -0.0405 -0.0351 -0.2285
  376MOL0     C51757   0.865   6.330   8.967 -0.6258 -0.2091  0.7030
  376MOL0     O51758   0.807   6.408   9.065 -0.5097  0.3890 -0.2031
  376MOL0     C51759   0.771   6.547   9.030 -0.2392 -0.2389 -1.0044
  376MOL0     C51760   0.750   6.628   9.153  0.0599 -0.5941 -0.2273
  376MOL0     C51761   0.698   6.767   9.110  0.4453  0.6083 -1.2069
  376MOL0     C51762   0.653   6.850   9.242 -0.2925 -1.5828  0.1501
  376MOL0     C51763   0.741   6.835   9.366 -0.3239  0.3209 -0.1320
  376MOL0     C51764   0.717   6.928   9.487 -0.6290 -0.6918  1.0612
  376MOL0     C51765   0.687   7.071   9.443 -0.5933 -0.1935 -0.6703
  376MOL0     C51766   0.653   7.146   9.574  0.8267  0.1562  0.6113
  376MOL0     N51767   0.644   7.292   9.556 -0.2310 -0.3824 -0.4074
  376MOL0     C51768   0.535   7.350   9.499 -0.0123  0.3704 -0.0051
  376MOL0     C51769   0.571   7.478   9.476 -0.4226  0.2007 -0.2603
  376MOL0     C51770   0.492   7.595   9.410  0.5753 -0.0997  0.1971
  376MOL0     C51771   0.511   7.744   9.453  0.5488 -0.6093 -0.1573
  376MOL0     C51772   0.651   7.798   9.405  0.0594  0.5529 -1.2500
  376MOL0     C51773   0.664   7.846   9.265 -0.9649  0.2180 -0.4441
  376MOL0     O51774   0.652   7.749   9.164  0.1282  0.7498 -0.0816
  376MOL0     C51775   0.763   7.702   9.107 -0.2787 -0.6049  0.2899
  376MOL0     C51776   0.846   7.613   9.183 -0.8282 -0.3561  0.0936
  376MOL0     C51777   0.945   7.545   9.111  0.6516  0.3628  1.0219
  376MOL0     C51778   1.043   7.453   9.174 -0.2696  0.2782  0.1343
  376MOL0     C51779   0.957   7.561   8.968 -0.2352  0.2997 -0.3061
  376MOL0     C51780   1.064   7.510   8.875  0.0524 -0.0667  0.2817
  376MOL0     O51781   1.179   7.590   8.879  0.4245 -0.6110 -0.9593
  376MOL0     C51782   1.293   7.535   8.835 -0.0342  0.2975  0.0074
  376MOL0     C51783   1.341   7.417   8.885  0.6029  0.6862  0.2302
  376MOL0     C51784   1.474   7.385   8.854 -0.4905  0.3378  0.2385
  376MOL0     C51785   1.549   7.463   8.773  0.1714  0.3762  0.1790
  376MOL0     O51786   1.681   7.426   8.746 -0.2150 -0.2397 -0.0201
  376MOL0     C51787   1.710   7.355   8.630 -0.0168  0.1540 -0.6123
  376MOL0     C51788   1.747   7.208   8.673  0.4067  0.5285 -0.3876
  376MOL0     C51789   1.818   7.129   8.565  0.2382 -0.4786  0.4179
  376MOL0     C51790   1.856   6.977   8.605  0.0063  0.2236 -1.1843
  376MOL0     C51791   1.910   6.917   8.480  0.5203  0.4731 -0.5333
  376MOL0     C51792   1.986   6.790   8.516  0.2665  0.0674  0.5198
  376MOL0     C51793   2.051   6.719   8.398 -0.5669 -0.0918 -0.4161
  376MOL0     C51794   2.177   6.787   8.345  0.7180  0.3151  0.1079
  376MOL0    Cl51795   2.242   6.696   8.199 -0.0601 -0.0142 -0.3440
  376MOL0     C51796   1.497   7.580   8.715  0.6788 -0.2604 -0.3888
  376MOL0     C51797   1.371   7.629   8.758  0.5031  0.4552  0.4256
  376MOL0     O51798   1.039   7.429   8.792 -0.3951 -0.0585  0.0723
  376MOL0     C51799   0.879   7.659   8.902 -1.0599  0.0264 -0.9798
  376MOL0     C51800   0.784   7.729   8.971 -0.3628 -0.0868 -0.4849
  376MOL0     N51801   0.701   7.497   9.529  0.0327  0.0115 -0.6391
  376MOL0     N51802   0.740   7.382   9.581 -0.2889 -0.6454  0.3803
  376MOL0     C51803   0.878   6.365   8.832  0.2545 -0.0625  0.5176
  376MOL0     C51804   0.933   6.272   8.737 -0.0390 -0.7772  0.2265
  376MOL0     C51805   1.237   5.967   8.584  0.8022 -0.2947  1.0248
  376MOL0     C51806   1.177   5.941   8.458  0.1136  0.2212  0.7187
  376MOL0     C51807   1.226   5.840   8.366 -0.6758  1.0276  0.2533
  376MOL0     C51808   1.339   5.766   8.398  0.4904  0.7892 -0.1412
  376MOL0     O51809   1.384   5.654   8.321 -0.5259 -0.8726  0.7939
  376MOL0     C51810   1.526   5.638   8.296  0.5653  0.9216 -0.6009
  376MOL0     C51811   1.537   5.586   8.151 -0.2567 -0.0464 -0.3316
  376MOL0     C51812   1.471   5.444   8.141  0.2577  0.4085  0.0553
  376MOL0     C51813   1.468   5.400   7.993 -0.0303  1.3058  0.3343
  376MOL0     C51814   1.588   5.320   7.948 -0.3852 -0.0120 -0.0077
  376MOL0     C51815   1.683   5.254   7.913 -0.4211  0.6557 -1.0852
  376MOL0     C51816   1.397   5.799   8.521 -0.6394  0.1249  0.0298
  376MOL0     C51817   1.342   5.884   8.619  0.7527  0.1170  0.4514
  376MOL0     C51818   1.411   5.907   8.756 -0.3231 -0.1442 -0.0681
  376MOL0     H51819   1.001   6.005   8.934  1.2812  0.4933  1.2127
  376MOL0     H51820   0.901   6.163   9.100 -0.4413 -0.7661 -0.5346
  376MOL0     H51821   0.670   6.547   8.988 -1.8500 -1.3242  2.4665
  376MOL0     H51822   0.848   6.590   8.966  1.4804 -1.0116  0.4527
  376MOL0     H51823   0.671   6.568   9.200 -1.7981  0.1178 -2.2928
  376MOL0     H51824   0.838   6.643   9.217 -0.8294 -1.9796  1.4178
  376MOL0     H51825   0.770   6.813   9.041 -0.1066 -1.6027 -3.4175
  376MOL0     H51826   0.602   6.755   9.058 -1.0592 -0.3201  1.5928
  376MOL0     H51827   0.646   6.955   9.214  1.7512 -2.0722 -2.6202
  376MOL0     H51828   0.557   6.813   9.280  0.6351 -3.4760  0.8162
  376MOL0     H51829   0.845   6.856   9.338 -0.0664 -0.6225  0.0618
  376MOL0     H51830   0.750   6.730   9.395 -0.4581  0.9928  2.6720
  376MOL0     H51831   0.628   6.888   9.536  0.2376 -3.4034  0.5936
  376MOL0     H51832   0.806   6.914   9.550  0.2575 -0.7127 -0.1696
  376MOL0     H51833   0.599   7.074   9.378 -0.4020 -0.2059 -0.9300
  376MOL0     H51834   0.770   7.120   9.392  0.4107  1.1105  2.0602
  376MOL0     H51835   0.557   7.108   9.610  0.2041 -1.4372 -2.3478
  376MOL0     H51836   0.732   7.118   9.644  2.4008  0.2283 -1.0508
  376MOL0     H51837   0.438   7.305   9.479 -0.5569  0.7249  1.7048
  376MOL0     H51838   0.387   7.566   9.411  0.0459  1.6422  2.4436
  376MOL0     H51839   0.523   7.585   9.305  1.8973  1.7798  0.3544
  376MOL0     H51840   0.439   7.815   9.413 -1.0253 -1.8171  0.4536
  376MOL0     H51841   0.498   7.744   9.562 -0.1392 -1.9876 -0.2150
  376MOL0     H51842   0.676   7.875   9.479 -0.2499 -1.9321  1.6616
  376MOL0     H51843   0.730   7.723   9.416 -1.0305 -0.6362 -1.2810
  376MOL0     H51844   0.595   7.927   9.240 -2.7716 -1.6254 -1.7634
  376MOL0     H51845   0.767   7.882   9.267  0.1033 -2.6021 -0.2585
  376MOL0     H51846   0.824   7.596   9.287  1.4579  0.5378  0.7886
  376MOL0     H51847   0.988   7.361   9.194 -0.1327 -0.1242 -1.1932
  376MOL0     H51848   1.079   7.495   9.268  5.7193 -0.5963 -1.3560
  376MOL0     H51849   1.132   7.436   9.112  1.8147  2.1149  2.4469
  376MOL0     H51850   1.281   7.359   8.955  1.5584  0.1645  0.6370
  376MOL0     H51851   1.518   7.293   8.892 -0.2527  0.5079  0.3788
  376MOL0     H51852   1.618   7.344   8.572  0.7237 -1.3239 -1.5692
  376MOL0     H51853   1.792   7.386   8.566  1.7048 -1.1970  0.8266
  376MOL0     H51854   1.798   7.213   8.770 -2.5364  2.9645  1.2447
  376MOL0     H51855   1.652   7.158   8.692  2.0798 -2.5418  0.6516
  376MOL0     H51856   1.917   7.172   8.549  0.0762  0.0894  0.8857
  376MOL0     H51857   1.759   7.135   8.473  2.1911 -1.7714 -0.9994
  376MOL0     H51858   1.769   6.918   8.634  0.8018  0.9246  3.3767
  376MOL0     H51859   1.926   6.975   8.689  1.8381 -0.0635 -2.6442
  376MOL0     H51860   1.831   6.889   8.410 -2.1168 -0.1509  2.4570
  376MOL0     H51861   1.969   6.990   8.424 -0.0337  1.3480 -0.0074
  376MOL0     H51862   1.907   6.725   8.554 -0.9076  0.3709 -1.3030
  376MOL0     H51863   2.058   6.804   8.597  2.3415 -4.6382 -0.1981
  376MOL0     H51864   1.977   6.705   8.318  2.3960 -2.3646 -2.9766
  376MOL0     H51865   2.080   6.619   8.430 -0.4379 -0.1327 -0.6666
  376MOL0     H51866   2.245   6.783   8.430 -1.5469 -2.8227  1.9953
  376MOL0     H51867   2.145   6.885   8.308  1.4423 -0.2028 -2.0307
  376MOL0     H51868   1.558   7.638   8.647  5.1019 -0.5092  2.9017
  376MOL0     H51869   1.330   7.728   8.738  0.0544 -0.2702 -2.7422
  376MOL0     H51870   0.912   7.687   8.802  2.6187  0.0308  0.0880
  376MOL0     H51871   0.710   7.792   8.922 -0.2684 -0.2453 -0.8341
  376MOL0     H51872   0.840   6.464   8.807 -1.0833  0.2441  3.3612
  376MOL0     H51873   0.931   6.300   8.632 -1.6953 -0.0688  0.4144
  376MOL0     H51874   1.092   5.995   8.420  1.7690 -0.0172 -3.9474
  376MOL0     H51875   1.175   5.810   8.275 -2.0058 -0.9177  1.5414
  376MOL0     H51876   1.578   5.731   8.317 -1.9982  2.4085 -0.4506
  376MOL0     H51877   1.556   5.569   8.375 -0.5445  1.4451  0.2994
  376MOL0     H51878   1.643   5.575   8.128 -0.7444 -1.3945 -2.2852
  376MOL0     H51879   1.486   5.660   8.089  1.6099  3.0801  1.6046
  376MOL0     H51880   1.533   5.378   8.203  1.3552  1.2199 -0.1351
  376MOL0     H51881   1.371   5.437   8.185  0.0595  2.1834 -0.0347
  376MOL0     H51882   1.455   5.473   7.913 -0.5899  0.5984 -0.2270
  376MOL0     H51883   1.384   5.331   7.982  1.3899 -0.2432 -1.3953
  376MOL0     H51884   1.767   5.190   7.892 -0.3611 -0.9805  3.0865
  376MOL0     H51885   1.494   5.753   8.539 -0.5883 -0.0113 -0.5562
  376MOL0     H51886   1.490   5.981   8.742 -1.1829  0.6270 -0.9268
  376MOL0     H51887   1.357   5.938   8.847  1.4144  1.6700  0.4070
  376MOL0     H51888   1.456   5.811   8.782  1.8608  0.6859 -0.5593
  377MOL0     O51889  11.186  11.559   3.079  0.6538  0.2266 -0.2353
  377MOL0     C51890  11.196  11.531   3.195  0.1851  0.2526  0.0409
  377MOL0     O51891  11.090  11.486   3.277  0.9459  0.5005  0.5610
  377MOL0     C51892  10.973  11.450   3.215  1.1743 -0.5931 -0.8793
  377MOL0     C51893  10.949  11.318   3.185 -0.2321  0.6866 -0.6136
  377MOL0     C51894  10.830  11.284   3.120 -1.1442 -0.4332  0.7911
  377MOL0     C51895  10.757  11.383   3.059  0.6460  0.3442 -0.4783
  377MOL0     O51896  10.639  11.342   2.984  0.1574  0.0713 -0.7084
  377MOL0     C51897  10.578  11.429   2.890 -0.6686  0.8227  0.3398
  377MOL0     C51898  10.475  11.349   2.811  0.0134 -0.1893 -0.0960
  377MOL0     C51899  10.423  11.440   2.695  0.8124 -0.2419 -0.0667
  377MOL0     C51900  10.277  11.465   2.713  0.8125 -0.1094 -1.0195
  377MOL0     C51901  10.194  11.368   2.628 -0.9426  0.5229  0.2611
  377MOL0     C51902  10.053  11.408   2.629  0.4953 -0.3562 -0.2433
  377MOL0     C51903  10.032  11.522   2.521 -0.2614  0.4090 -0.6500
  377MOL0     C51904   9.959  11.464   2.398  0.4159 -0.8935 -0.4132
  377MOL0     N51905   9.946  11.564   2.305  1.2906 -0.7163 -0.0454
  377MOL0     C51906   9.885  11.692   2.337 -0.1136  0.0724 -0.4213
  377MOL0     C51907   9.913  11.774   2.226  0.1697  0.0884 -0.2863
  377MOL0     C51908   9.844  11.904   2.198  0.2582 -0.6844  0.0932
  377MOL0     C51909   9.777  11.975   2.318 -0.7334  0.5097 -0.0144
  377MOL0     C51910   9.747  12.123   2.316  0.2064 -0.1977  0.4945
  377MOL0     C51911   9.872  12.205   2.275 -0.2201 -0.0299 -0.4813
  377MOL0     O51912   9.982  12.188   2.372  0.4977 -0.8498  0.3279
  377MOL0     C51913   9.991  12.223   2.507  0.0441  0.4184 -1.3194
  377MOL0     C51914   9.895  12.297   2.581  0.0947 -0.6246 -0.5779
  377MOL0     C51915   9.916  12.321   2.721  0.1785 -0.3432  0.1804
  377MOL0     C51916   9.800  12.391   2.790 -0.0117 -0.2905 -0.2395
  377MOL0     C51917  10.030  12.286   2.792 -0.1476  0.1689  0.7138
  377MOL0     C51918  10.056  12.298   2.941 -0.2373  0.2516  0.8123
  377MOL0     O51919   9.957  12.268   3.031 -0.6302 -0.6621  0.6586
  377MOL0     C51920   9.990  12.301   3.159 -0.9821 -0.5420  0.0477
  377MOL0     C51921   9.953  12.422   3.208  0.8273  0.2021 -0.0101
  377MOL0     C51922   9.996  12.457   3.337  0.0668 -0.2691  0.4458
  377MOL0     C51923  10.059  12.370   3.429  0.7558 -0.3708 -0.4208
  377MOL0     O51924  10.096  12.423   3.550 -0.7038 -0.4115 -0.1534
  377MOL0     C51925  10.182  12.341   3.635 -0.3502  0.2206 -1.5862
  377MOL0     C51926  10.161  12.362   3.785 -0.0426 -0.2449 -1.6349
  377MOL0     C51927  10.023  12.328   3.842 -0.5728  0.5356 -0.5240
  377MOL0     C51928  10.013  12.306   3.996  0.0043  0.1577  0.5104
  377MOL0     C51929  10.044  12.425   4.071 -0.8163  0.5697  0.0302
  377MOL0     C51930   9.947  12.448   4.190 -0.1673 -1.0385  0.7064
  377MOL0     C51931   9.979  12.575   4.263  0.4025 -0.3869 -0.5133
  377MOL0     C51932   9.864  12.642   4.330  0.4179 -0.1953 -0.6646
  377MOL0    Cl51933   9.795  12.543   4.468  0.3083  0.3335  0.4290
  377MOL0     C51934  10.080  12.242   3.374  0.2477  0.7377 -0.2933
  377MOL0     C51935  10.048  12.207   3.241  0.4142 -0.1100  0.2485
  377MOL0     O51936  10.177  12.312   2.966 -0.4413 -0.4999  0.6405
  377MOL0     C51937  10.129  12.220   2.710 -0.0276 -1.0892  0.1624
  377MOL0     C51938  10.102  12.180   2.581  0.0177  1.2156 -0.2495
  377MOL0     N51939   9.987  11.698   2.139 -0.1866 -0.2724 -0.6171
  377MOL0     N51940  10.013  11.576   2.184 -0.1237  0.1377 -0.2498
  377MOL0     C51941  10.781  11.512   3.088  0.6296 -0.3610  0.1719
  377MOL0     C51942  10.890  11.550   3.172  0.6367  0.8603  0.8934
  377MOL0     C51943  11.323  11.562   3.247 -0.9442  0.1502 -1.2748
  377MOL0     C51944  11.431  11.537   3.168 -1.0243 -0.1238  0.9024
  377MOL0     C51945  11.566  11.561   3.210  0.2094 -0.5558 -0.7110
  377MOL0     C51946  11.584  11.599   3.340  0.9238  0.7672  0.9029
  377MOL0     O51947  11.705  11.613   3.389  1.1261  0.8219  0.2530
  377MOL0     C51948  11.745  11.578   3.523 -0.6375 -0.5469 -0.3358
  377MOL0     C51949  11.756  11.710   3.598  1.2311 -0.2040  1.2290
  377MOL0     C51950  11.690  11.704   3.743 -0.5093 -0.6557  0.4153
  377MOL0     C51951  11.753  11.599   3.832 -0.3222  0.0570 -0.2745
  377MOL0     C51952  11.669  11.584   3.946  0.9511  0.3264 -0.2124
  377MOL0     C51953  11.602  11.579   4.046 -0.4364  0.3804  0.3229
  377MOL0     C51954  11.477  11.616   3.421  0.0670  0.5226 -0.4364
  377MOL0     C51955  11.350  11.602   3.383 -0.3224  0.4363  0.2375
  377MOL0     C51956  11.236  11.657   3.469  0.5283 -0.5881  0.5191
  377MOL0     H51957  11.022  11.243   3.216  1.3716  1.4723 -2.2793
  377MOL0     H51958  10.813  11.177   3.111 -1.0865 -0.4975  1.4224
  377MOL0     H51959  10.656  11.452   2.816 -1.7707 -0.7433 -1.3827
  377MOL0     H51960  10.524  11.513   2.935 -2.9873  1.4221 -3.1330
  377MOL0     H51961  10.527  11.266   2.763  1.4757  0.0646  0.9754
  377MOL0     H51962  10.389  11.316   2.870 -0.0916  3.8745  2.4990
  377MOL0     H51963  10.464  11.541   2.688 -3.7438  1.8043 -1.3250
  377MOL0     H51964  10.424  11.383   2.602 -0.9556  0.1727 -0.3739
  377MOL0     H51965  10.242  11.463   2.817  1.1427  0.4216 -0.8929
  377MOL0     H51966  10.261  11.567   2.676 -3.2726  0.2257  1.0233
  377MOL0     H51967  10.215  11.265   2.658  1.5446  0.7360 -0.5186
  377MOL0     H51968  10.236  11.385   2.529  3.5701  2.9241  2.2627
  377MOL0     H51969   9.992  11.318   2.613 -0.4814 -0.1251  1.9046
  377MOL0     H51970  10.034  11.443   2.731  0.4005 -1.6415  0.1974
  377MOL0     H51971  10.129  11.567   2.499  0.5105 -1.6781 -1.7354
  377MOL0     H51972   9.963  11.595   2.565  1.4996 -0.0852  3.3023
  377MOL0     H51973  10.013  11.387   2.343  0.8118  0.0525 -1.3950
  377MOL0     H51974   9.867  11.418   2.434  1.3449 -1.8513  0.8255
  377MOL0     H51975   9.813  11.718   2.414  0.5587 -1.3496  0.7562
  377MOL0     H51976   9.769  11.881   2.122  1.0582  1.9543 -1.6340
  377MOL0     H51977   9.922  11.958   2.143  2.5636 -2.5963  1.3127
  377MOL0     H51978   9.689  11.917   2.350 -0.2225  0.0385  0.5771
  377MOL0     H51979   9.838  11.965   2.408 -0.4963  0.2266 -0.2057
  377MOL0     H51980   9.681  12.141   2.231 -0.7841  3.8841  1.8649
  377MOL0     H51981   9.696  12.165   2.404  0.5252  1.3801 -0.0327
  377MOL0     H51982   9.897  12.175   2.172  2.9130 -1.6877  0.6323
  377MOL0     H51983   9.839  12.309   2.277 -0.6545 -0.1608 -0.5711
  377MOL0     H51984   9.805  12.325   2.527  1.0731 -0.1883 -2.0518
  377MOL0     H51985   9.816  12.449   2.881  0.0352  2.0291 -1.6585
  377MOL0     H51986   9.735  12.310   2.826  1.0267 -0.0059  2.5583
  377MOL0     H51987   9.741  12.441   2.713 -0.8107 -1.0681 -0.1564
  377MOL0     H51988   9.909  12.493   3.138  1.1338  1.7241  1.2944
  377MOL0     H51989   9.971  12.561   3.356 -0.7023 -0.1260 -1.1475
  377MOL0     H51990  10.164  12.236   3.611 -1.3585 -0.0488  0.1823
  377MOL0     H51991  10.286  12.358   3.607 -0.2904  0.7240 -1.0924
  377MOL0     H51992  10.231  12.298   3.841 -0.3532 -2.8834 -4.0437
  377MOL0     H51993  10.176  12.469   3.800  1.8072 -0.6460 -0.2121
  377MOL0     H51994  10.002  12.232   3.794  2.5751 -0.9995  0.8520
  377MOL0     H51995   9.941  12.389   3.802 -1.3871  0.1992  0.5742
  377MOL0     H51996  10.065  12.213   4.024  0.2836  0.0586 -0.3027
  377MOL0     H51997   9.910  12.279   4.022 -0.5317  0.6459 -1.0334
  377MOL0     H51998  10.143  12.420   4.117 -1.3756  0.8769  1.3262
  377MOL0     H51999  10.031  12.514   4.008  2.0618 -0.1663 -1.7869
  377MOL0     H52000   9.959  12.367   4.261 -0.1378  1.0249  3.2025
  377MOL0     H52001   9.849  12.460   4.142 -1.1009  2.2962  3.0456
  377MOL0     H52002  10.019  12.653   4.197  2.2051  0.5268  1.5064
  377MOL0     H52003  10.062  12.548   4.329  3.2259  2.5397 -2.5381
  377MOL0     H52004   9.785  12.658   4.256 -1.7082 -0.6233  1.4084
  377MOL0     H52005   9.882  12.741   4.371 -3.8395  1.7045 -2.7686
  377MOL0     H52006  10.142  12.166   3.420  0.6210  2.2544  1.8647
  377MOL0     H52007  10.075  12.115   3.190  1.7466  1.3402 -1.7757
  377MOL0     H52008  10.223  12.188   2.755 -0.4251 -1.2470  0.9005
  377MOL0     H52009  10.177  12.131   2.520 -1.4989 -1.6854  0.0372
  377MOL0     H52010  10.727  11.603   3.062  2.7990  0.4028 -1.9683
  377MOL0     H52011  10.887  11.649   3.215  0.1455  1.3365 -0.1973
  377MOL0     H52012  11.423  11.506   3.064  0.4799  4.5175 -0.8614
  377MOL0     H52013  11.654  11.535   3.152 -0.1072 -3.2292 -0.1083
  377MOL0     H52014  11.670  11.514   3.570  0.6198 -3.5356 -2.1186
  377MOL0     H52015  11.836  11.517   3.519 -2.2743 -3.0928 -2.8921
  377MOL0     H52016  11.695  11.780   3.542  0.5040 -1.3891  0.4948
  377MOL0     H52017  11.856  11.755   3.595  1.7635 -1.2966  1.7390
  377MOL0     H52018  11.699  11.799   3.795  0.9632  0.1155 -1.1362
  377MOL0     H52019  11.586  11.670   3.735 -1.1872  1.4259 -0.3973
  377MOL0     H52020  11.850  11.621   3.877 -2.3875  2.2955  3.6268
  377MOL0     H52021  11.765  11.500   3.788  1.6176  0.0096  0.2837
  377MOL0     H52022  11.527  11.579   4.123 -0.5644 -1.1548  0.2428
  377MOL0     H52023  11.492  11.663   3.518  0.7832  3.5859 -1.8952
  377MOL0     H52024  11.277  11.703   3.559 -1.1201  0.9913  0.5015
  377MOL0     H52025  11.189  11.743   3.421  1.7737  0.1823  0.6533
  377MOL0     H52026  11.159  11.582   3.491 -2.0056  1.1937 -1.6725
  378MOL0     O52027   1.758   8.653   0.657 -0.8261  0.3687  0.0837
  378MOL0     C52028   1.643   8.653   0.619 -0.2309 -0.3653  0.7954
  378MOL0     O52029   1.556   8.739   0.665 -0.0720  0.3368 -0.0778
  378MOL0     C52030   1.556   8.745   0.801  1.3045  0.1887  0.8861
  378MOL0     C52031   1.574   8.630   0.885  0.7187  0.1363  0.0820
  378MOL0     C52032   1.562   8.641   1.028 -0.6838 -0.4038 -0.3001
  378MOL0     C52033   1.564   8.772   1.086 -0.3700  0.7399  0.7525
  378MOL0     O52034   1.582   8.784   1.219 -0.4807  0.1237 -0.0147
  378MOL0     C52035   1.520   8.889   1.291  0.0980 -1.0483  1.1349
  378MOL0     C52036   1.552   8.876   1.445 -0.1463  0.2566  0.4890
  378MOL0     C52037   1.693   8.943   1.475  0.6213  0.5567 -0.7613
  378MOL0     C52038   1.818   8.866   1.438 -0.7871 -1.2776 -0.9498
  378MOL0     C52039   1.833   8.729   1.496 -1.3956 -0.0822 -0.1201
  378MOL0     C52040   1.959   8.667   1.440 -0.2863  0.2395 -0.7465
  378MOL0     C52041   1.974   8.516   1.493 -0.0027 -1.3753  0.1074
  378MOL0     C52042   2.096   8.457   1.432 -0.7111 -0.7405  0.3265
  378MOL0     N52043   2.088   8.309   1.456 -0.0307  0.2082  0.4061
  378MOL0     C52044   2.035   8.238   1.563  0.2387  0.7047 -0.0293
  378MOL0     C52045   2.026   8.110   1.518  0.6689  0.2581 -0.2870
  378MOL0     C52046   2.000   7.990   1.588 -0.3077 -0.8737  0.2945
  378MOL0     C52047   2.052   8.008   1.739  0.4076  0.6685 -0.3507
  378MOL0     C52048   2.203   8.036   1.754  0.3981 -0.3982 -0.4713
  378MOL0     C52049   2.234   8.082   1.900  0.1399 -0.6127  0.3874
  378MOL0     O52050   2.159   8.199   1.931  0.1108  0.1612  0.0749
  378MOL0     C52051   2.189   8.318   1.880 -0.5195  0.3597 -0.2170
  378MOL0     C52052   2.113   8.433   1.914 -0.2150  0.5616 -0.1842
  378MOL0     C52053   2.140   8.565   1.872  0.3588  0.0475  0.1997
  378MOL0     C52054   2.046   8.670   1.921  0.0888  0.3365  0.0414
  378MOL0     C52055   2.241   8.579   1.766 -0.3657  0.4453  0.7770
  378MOL0     C52056   2.274   8.718   1.718  0.0399 -0.6514 -0.3188
  378MOL0     O52057   2.262   8.816   1.811 -0.7106  0.2304  0.2611
  378MOL0     C52058   2.275   8.951   1.771  1.6559  0.4089  0.0070
  378MOL0     C52059   2.370   9.033   1.842  0.0895 -0.4418  1.0127
  378MOL0     C52060   2.388   9.162   1.799  0.1969 -0.1705  0.0732
  378MOL0     C52061   2.324   9.213   1.687  0.2139 -0.3069  0.7538
  378MOL0     O52062   2.357   9.337   1.637  0.4192 -0.3335  0.9003
  378MOL0     C52063   2.335   9.388   1.502  0.3187 -0.2365 -0.8562
  378MOL0     C52064   2.385   9.532   1.500  0.1860  0.5487 -0.1333
  378MOL0     C52065   2.276   9.611   1.574  0.2725 -0.2342  0.6530
  378MOL0     C52066   2.285   9.765   1.522  0.0384  1.2334 -1.6368
  378MOL0     C52067   2.165   9.846   1.584  0.5858  0.0954 -0.3566
  378MOL0     C52068   2.175   9.995   1.535 -0.0771  0.3299 -0.9437
  378MOL0     C52069   2.045  10.086   1.570 -0.4720 -0.6817  0.5586
  378MOL0     C52070   2.002  10.095   1.716  0.1562  0.4419 -0.8026
  378MOL0    Cl52071   2.145  10.107   1.814 -0.1364  0.2068  0.4280
  378MOL0     C52072   2.227   9.136   1.625 -0.1856 -0.1580  0.1458
  378MOL0     C52073   2.210   9.003   1.664 -0.7441 -0.2221 -0.0273
  378MOL0     O52074   2.324   8.732   1.604 -0.1046  0.3930  0.2862
  378MOL0     C52075   2.322   8.472   1.729 -0.0325 -0.0946  0.6106
  378MOL0     C52076   2.302   8.343   1.782  0.5699  0.1079 -1.1416
  378MOL0     N52077   2.077   8.102   1.390  0.4261 -0.4640 -0.4468
  378MOL0     N52078   2.115   8.219   1.359  0.2305 -1.5067  0.8641
  378MOL0     C52079   1.553   8.888   0.993  0.6357 -0.5393 -1.2896
  378MOL0     C52080   1.544   8.872   0.858 -0.0677  0.0767  0.1455
  378MOL0     C52081   1.601   8.584   0.503 -0.2885 -0.2818  0.6592
  378MOL0     C52082   1.484   8.636   0.437  0.3400  0.3016 -0.2516
  378MOL0     C52083   1.432   8.574   0.320 -0.5060  0.9203 -0.1596
  378MOL0     C52084   1.491   8.454   0.277  0.0762 -0.1253 -0.7801
  378MOL0     O52085   1.431   8.389   0.174  0.0377  0.2416 -0.2799
  378MOL0     C52086   1.391   8.254   0.195  0.0839  0.1803  0.6262
  378MOL0     C52087   1.256   8.227   0.133  0.8983  0.4565  0.1406
  378MOL0     C52088   1.137   8.309   0.197 -0.8347  0.6218 -0.1334
  378MOL0     C52089   0.997   8.272   0.136 -0.2441 -0.7982  0.3971
  378MOL0     C52090   0.950   8.140   0.173  0.5867  0.2911  0.2048
  378MOL0     C52091   0.917   8.030   0.209 -0.1343 -0.1877  0.1763
  378MOL0     C52092   1.595   8.392   0.346  0.4769 -0.3774 -0.4065
  378MOL0     C52093   1.654   8.462   0.458  1.2786 -0.7343 -0.1894
  378MOL0     C52094   1.762   8.385   0.523 -0.8669  0.2065 -0.4146
  378MOL0     H52095   1.592   8.528   0.853  2.7988  1.1759 -2.4875
  378MOL0     H52096   1.574   8.549   1.084  1.0458 -0.7952 -1.2381
  378MOL0     H52097   1.412   8.877   1.293 -0.6855  3.7942  0.4921
  378MOL0     H52098   1.533   8.989   1.248 -3.1688 -1.0035 -0.0107
  378MOL0     H52099   1.483   8.935   1.505 -0.2216  1.0451 -0.3432
  378MOL0     H52100   1.549   8.771   1.474 -1.3996  0.3463  0.7310
  378MOL0     H52101   1.689   9.049   1.448 -2.3208  1.5089  2.5007
  378MOL0     H52102   1.698   8.954   1.584  0.4087  3.5634 -0.9754
  378MOL0     H52103   1.821   8.860   1.329 -0.1549 -0.7565 -0.9700
  378MOL0     H52104   1.904   8.931   1.455 -0.0229 -2.1950 -1.2435
  378MOL0     H52105   1.750   8.661   1.477  0.7478 -2.6013 -1.0543
  378MOL0     H52106   1.842   8.739   1.604 -4.2247 -2.6975  0.4759
  378MOL0     H52107   1.963   8.661   1.331  0.6763 -3.2933 -0.6188
  378MOL0     H52108   2.054   8.706   1.478  0.3497 -3.2371  1.6769
  378MOL0     H52109   1.888   8.454   1.467 -0.8218  0.4179 -1.7289
  378MOL0     H52110   1.994   8.514   1.601  2.1501 -0.4754 -0.2090
  378MOL0     H52111   2.100   8.478   1.325  1.3280 -2.6139 -0.0273
  378MOL0     H52112   2.194   8.489   1.469  1.1079 -2.7615 -2.3738
  378MOL0     H52113   2.023   8.285   1.659  1.9240  0.3892  0.3667
  378MOL0     H52114   2.055   7.912   1.535  2.6580  1.0236  0.3709
  378MOL0     H52115   1.893   7.965   1.596 -0.1962 -1.5581 -0.2911
  378MOL0     H52116   1.992   8.078   1.799  0.8406  1.3829 -0.7353
  378MOL0     H52117   2.040   7.910   1.786 -0.9250  2.2172  2.8472
  378MOL0     H52118   2.256   7.944   1.728 -2.7922 -2.8546  1.1683
  378MOL0     H52119   2.229   8.110   1.677  0.8674 -2.1836 -2.1094
  378MOL0     H52120   2.194   8.005   1.966  0.2950 -3.5329 -2.6989
  378MOL0     H52121   2.340   8.095   1.926 -0.1774  0.8954  1.0712
  378MOL0     H52122   2.031   8.409   1.981 -0.8969  0.7839 -0.9298
  378MOL0     H52123   1.989   8.704   1.834  1.9154 -0.5392 -1.5801
  378MOL0     H52124   2.099   8.750   1.973  0.9125 -1.2858  1.8206
  378MOL0     H52125   1.982   8.624   1.997  2.7350 -0.9711  1.6162
  378MOL0     H52126   2.424   8.991   1.926  3.3988  0.3839 -0.5483
  378MOL0     H52127   2.452   9.236   1.845 -1.8940  2.1223 -0.4652
  378MOL0     H52128   2.395   9.338   1.425  0.1273 -0.0210 -1.1499
  378MOL0     H52129   2.227   9.383   1.486 -0.2725  1.9099  1.7166
  378MOL0     H52130   2.481   9.525   1.553 -1.8978 -0.4041  3.8811
  378MOL0     H52131   2.404   9.569   1.399 -2.3221  1.4768 -0.3169
  378MOL0     H52132   2.287   9.609   1.683 -2.0596  0.1716  0.9515
  378MOL0     H52133   2.176   9.571   1.553 -0.3242  0.1765  2.5322
  378MOL0     H52134   2.286   9.761   1.413  1.5991 -0.9361 -1.6124
  378MOL0     H52135   2.380   9.801   1.562 -1.1557  1.2299  1.4870
  378MOL0     H52136   2.067   9.801   1.563  1.0400 -0.9416 -0.2993
  378MOL0     H52137   2.172   9.844   1.693  1.5625  2.2811 -0.3155
  378MOL0     H52138   2.197  10.004   1.429  2.4581 -0.9309 -0.6022
  378MOL0     H52139   2.262  10.034   1.588 -0.1472 -0.3000 -0.3379
  378MOL0     H52140   1.962  10.041   1.515 -0.4128 -1.8797  1.4291
  378MOL0     H52141   2.057  10.191   1.539 -0.8850  0.0305  2.6294
  378MOL0     H52142   1.956  10.000   1.744  1.7617 -0.0823  0.2627
  378MOL0     H52143   1.928  10.174   1.724 -1.0768 -0.7404 -0.1094
  378MOL0     H52144   2.147   9.178   1.566 -2.7108 -1.1498  2.6331
  378MOL0     H52145   2.129   8.939   1.630 -0.4074 -1.9929  2.2067
  378MOL0     H52146   2.402   8.495   1.660 -0.3849  1.9248  0.8165
  378MOL0     H52147   2.370   8.269   1.743 -0.5022 -1.0353 -0.9224
  378MOL0     H52148   1.542   8.988   1.034 -1.9949 -0.0451 -2.9707
  378MOL0     H52149   1.536   8.966   0.803 -0.4289  0.6091  1.0760
  378MOL0     H52150   1.431   8.726   0.468  2.3796  0.7720  2.2446
  378MOL0     H52151   1.352   8.613   0.258 -1.4334  0.1458  0.5366
  378MOL0     H52152   1.472   8.190   0.159  2.5292  3.3979 -0.1248
  378MOL0     H52153   1.380   8.228   0.300  0.7761 -0.4154  0.5598
  378MOL0     H52154   1.240   8.119   0.135  2.3907  0.2049  3.1969
  378MOL0     H52155   1.263   8.258   0.028 -1.2305 -0.8135 -0.4502
  378MOL0     H52156   1.123   8.284   0.302  0.5811 -0.1197 -0.0953
  378MOL0     H52157   1.163   8.413   0.176  0.8974 -0.3534 -3.5793
  378MOL0     H52158   1.009   8.288   0.029  1.0688 -0.8012  0.5234
  378MOL0     H52159   0.922   8.348   0.161  2.5485  2.4891 -0.4209
  378MOL0     H52160   0.906   7.925   0.227  0.4178 -0.5356 -1.3317
  378MOL0     H52161   1.643   8.308   0.297  2.4439  0.0088  0.7414
  378MOL0     H52162   1.759   8.397   0.632 -1.1361  0.7190 -0.4774
  378MOL0     H52163   1.762   8.279   0.495  1.7184 -0.7204  2.5118
  378MOL0     H52164   1.856   8.433   0.494 -0.1208  0.4016  2.0761
  379MOL0     O52165   5.849   6.522   9.979  0.0394  0.4586 -0.2726
  379MOL0     C52166   5.853   6.516   9.854 -0.4746  0.3797 -0.1206
  379MOL0     O52167   5.759   6.449   9.774 -0.0500  0.1516 -0.3137
  379MOL0     C52168   5.665   6.362   9.824  0.6776 -0.6225 -0.9448
  379MOL0     C52169   5.554   6.341   9.734 -0.2265 -0.7136 -0.5239
  379MOL0     C52170   5.450   6.252   9.760  0.4909  0.0542 -0.4839
  379MOL0     C52171   5.459   6.183   9.884  0.2175 -0.2922  0.7204
  379MOL0     O52172   5.364   6.087   9.897  0.3347 -0.0716  0.2983
  379MOL0     C52173   5.332   6.039  10.029 -0.2821 -0.6090  0.3957
  379MOL0     C52174   5.177   6.005  10.041  0.4836  0.0728  0.0653
  379MOL0     C52175   5.076   6.104   9.977 -0.0056 -0.3084  0.6915
  379MOL0     C52176   4.939   6.090  10.045 -0.4266 -0.8038  0.3406
  379MOL0     C52177   4.881   5.948  10.041 -0.3324 -0.2350 -0.6961
  379MOL0     C52178   4.731   5.942  10.074 -0.3761  0.3625  0.1110
  379MOL0     C52179   4.703   5.986  10.218  0.2921 -0.5814 -0.1485
  379MOL0     C52180   4.547   5.980  10.244 -1.1252 -0.4491  1.0350
  379MOL0     N52181   4.468   5.860  10.220 -0.2122  0.1957  0.0801
  379MOL0     C52182   4.333   5.861  10.233  0.4110 -0.9471 -0.0283
  379MOL0     C52183   4.290   5.737  10.196 -0.7979 -0.3921 -0.6666
  379MOL0     C52184   4.157   5.700  10.171  0.2241  0.4510 -0.0182
  379MOL0     C52185   4.104   5.603  10.270  0.9002  0.7600 -0.2900
  379MOL0     C52186   4.169   5.458  10.282  0.9334  0.2642  0.5292
  379MOL0     C52187   4.069   5.361  10.349  0.1649 -0.3292 -0.4645
  379MOL0     O52188   4.138   5.241  10.388 -0.4063 -0.0372 -0.1277
  379MOL0     C52189   4.074   5.151  10.477 -0.5409  0.0026  0.0833
  379MOL0     C52190   3.950   5.180  10.541  0.3923 -0.0864 -0.4678
  379MOL0     C52191   3.882   5.079  10.617  0.2965 -0.7981 -0.3070
  379MOL0     C52192   3.747   5.119  10.662 -0.0552  0.7271  0.4169
  379MOL0     C52193   3.959   4.964  10.667  0.8936 -0.6947  0.2001
  379MOL0     C52194   3.907   4.876  10.773  0.4529  0.0687  1.0821
  379MOL0     O52195   4.000   4.780  10.813 -0.9339  0.6112  0.8059
  379MOL0     C52196   3.966   4.681  10.895  0.3878 -0.4008 -0.2830
  379MOL0     C52197   3.954   4.709  11.034  0.4248  1.1780  0.0189
  379MOL0     C52198   3.916   4.609  11.125  0.1841  0.4874  0.5581
  379MOL0     C52199   3.894   4.485  11.070 -1.2045  0.2894 -0.6298
  379MOL0     O52200   3.872   4.364  11.148  0.0451 -0.0126 -0.1411
  379MOL0     C52201   3.881   4.365  11.292  0.1826  0.7070  0.5349
  379MOL0     C52202   3.871   4.213  11.330  0.4485  0.7916 -0.2434
  379MOL0     C52203   3.974   4.121  11.253 -0.7774 -0.6311 -0.4107
  379MOL0     C52204   3.923   3.981  11.199  0.4877 -0.5797 -0.2900
  379MOL0     C52205   4.018   3.929  11.082 -0.8106 -0.2852  0.0662
  379MOL0     C52206   3.956   3.796  11.020  0.4992  0.0689 -0.0347
  379MOL0     C52207   4.058   3.720  10.936 -0.1868  0.1847 -0.5619
  379MOL0     C52208   4.016   3.581  10.888  0.5338  0.9644 -0.1220
  379MOL0    Cl52209   3.976   3.482  11.034  0.1771 -0.1726 -0.0738
  379MOL0     C52210   3.910   4.457  10.931  0.0723 -0.3759  0.1352
  379MOL0     C52211   3.944   4.555  10.839 -1.3174  0.2260 -0.3440
  379MOL0     O52212   3.803   4.905  10.842  0.4189  0.3305  0.2044
  379MOL0     C52213   4.075   4.937  10.598 -0.3591  0.4246 -0.6790
  379MOL0     C52214   4.123   5.021  10.500  0.5353 -0.8893  0.4210
  379MOL0     N52215   4.401   5.659  10.183  0.2525 -0.2081 -0.4541
  379MOL0     N52216   4.512   5.737  10.183  0.4774 -0.7294  0.7145
  379MOL0     C52217   5.561   6.202   9.979 -0.2281  0.5157 -0.9511
  379MOL0     C52218   5.666   6.288   9.943 -0.6055 -0.2194  0.0210
  379MOL0     C52219   5.953   6.592   9.783 -0.2503  0.1076 -0.0582
  379MOL0     C52220   6.051   6.663   9.863  0.4313 -0.1335 -0.9870
  379MOL0     C52221   6.145   6.744   9.807  0.4607  0.5614  1.2316
  379MOL0     C52222   6.159   6.751   9.669  1.0746 -0.3270  0.0709
  379MOL0     O52223   6.282   6.796   9.622 -0.1689 -0.5430 -0.3828
  379MOL0     C52224   6.269   6.874   9.498  0.0637 -0.8502 -0.2420
  379MOL0     C52225   6.342   7.007   9.499 -0.5785  0.3619  0.1163
  379MOL0     C52226   6.262   7.109   9.578  0.2245  0.3849 -0.0252
  379MOL0     C52227   6.311   7.118   9.729 -0.3669 -0.2472  0.6493
  379MOL0     C52228   6.190   7.133   9.802  0.8050  0.2143 -0.2244
  379MOL0     C52229   6.074   7.142   9.838  0.4031 -0.3188  0.1186
  379MOL0     C52230   6.062   6.688   9.589  0.2780  0.0442 -0.4092
  379MOL0     C52231   5.966   6.613   9.641  1.1353 -0.2354 -0.4897
  379MOL0     C52232   5.874   6.541   9.548 -0.4845 -0.1990 -0.0074
  379MOL0     H52233   5.564   6.402   9.645  1.1014  0.7898  0.5997
  379MOL0     H52234   5.361   6.233   9.701  0.0362 -0.9952  0.4827
  379MOL0     H52235   5.356   6.122  10.097  2.5344  1.4585 -2.7813
  379MOL0     H52236   5.397   5.954  10.050 -0.1249 -0.3683  0.9208
  379MOL0     H52237   5.145   5.909  10.001  0.9631 -0.8481  1.7778
  379MOL0     H52238   5.139   6.008  10.144 -2.0048 -1.0079 -0.7615
  379MOL0     H52239   5.094   6.211   9.990 -0.5608  0.8749 -5.3318
  379MOL0     H52240   5.088   6.105   9.868 -1.1516 -0.5360  0.5498
  379MOL0     H52241   4.947   6.119  10.150 -1.3222 -0.5592  0.3455
  379MOL0     H52242   4.868   6.158   9.996  0.5558 -2.3359 -3.6324
  379MOL0     H52243   4.937   5.885  10.111  0.8109  1.1663 -0.3014
  379MOL0     H52244   4.898   5.912   9.939 -2.7534  2.4715 -2.2105
  379MOL0     H52245   4.670   6.003  10.007 -2.2973  0.2852  1.6938
  379MOL0     H52246   4.717   5.835  10.062 -0.7777  0.6006 -1.7528
  379MOL0     H52247   4.745   6.080  10.255  3.1692 -2.4267  1.7099
  379MOL0     H52248   4.749   5.904  10.274  2.0310 -1.4202 -2.6127
  379MOL0     H52249   4.549   6.001  10.351 -0.3359  0.2465  0.8976
  379MOL0     H52250   4.511   6.064  10.184  1.1969  0.6328  1.0120
  379MOL0     H52251   4.272   5.946  10.262 -0.1792 -1.4054  0.0852
  379MOL0     H52252   4.168   5.643  10.078  0.8186  1.5476 -0.6553
  379MOL0     H52253   4.098   5.790  10.149 -1.1746 -0.0688  1.4094
  379MOL0     H52254   4.099   5.652  10.368  0.9241 -1.1144  0.6996
  379MOL0     H52255   4.003   5.582  10.234 -0.5305  2.3256  2.4757
  379MOL0     H52256   4.180   5.425  10.179  0.4296  3.3032 -0.6102
  379MOL0     H52257   4.265   5.467  10.335  0.8708  1.2523  0.5078
  379MOL0     H52258   4.021   5.411  10.434 -2.4716 -0.9416 -1.4753
  379MOL0     H52259   3.984   5.329  10.287  0.6271 -0.0679 -1.2391
  379MOL0     H52260   3.892   5.270  10.523 -1.0827 -0.8639  0.2679
  379MOL0     H52261   3.687   5.030  10.643 -0.9998  1.4783 -0.2315
  379MOL0     H52262   3.704   5.207  10.613  2.4538  0.7261 -1.9761
  379MOL0     H52263   3.740   5.148  10.768 -1.4714  0.6568  0.3665
  379MOL0     H52264   3.976   4.811  11.066  1.7662  0.5937  1.0639
  379MOL0     H52265   3.938   4.635  11.228  0.0177  2.3494  0.1630
  379MOL0     H52266   3.973   4.409  11.330  0.8129  0.2579 -0.4156
  379MOL0     H52267   3.787   4.408  11.327  0.7233  2.7221 -0.3471
  379MOL0     H52268   3.890   4.204  11.437 -1.6898 -1.2169  0.0592
  379MOL0     H52269   3.767   4.189  11.306  0.5984  1.5799 -1.7735
  379MOL0     H52270   4.064   4.105  11.312 -1.7757  0.5643  1.5359
  379MOL0     H52271   3.997   4.176  11.161  0.1653 -1.5512 -0.7418
  379MOL0     H52272   3.820   3.990  11.162  0.1915 -1.0139  0.4161
  379MOL0     H52273   3.917   3.911  11.282  2.0380  2.8225  2.9977
  379MOL0     H52274   4.046   3.999  11.003  0.1005 -2.9926 -2.1598
  379MOL0     H52275   4.110   3.897  11.130 -0.3286  0.3075 -0.4467
  379MOL0     H52276   3.872   3.818  10.954  0.9655  0.9826 -0.3389
  379MOL0     H52277   3.917   3.734  11.101 -1.9629 -0.0329 -1.2182
  379MOL0     H52278   4.148   3.718  10.998 -1.1334 -0.8464  0.8387
  379MOL0     H52279   4.098   3.782  10.856  0.0811  0.8880  0.0937
  379MOL0     H52280   4.103   3.538  10.837  0.6592  2.4864 -1.2809
  379MOL0     H52281   3.939   3.580  10.810  1.7296 -2.1070 -1.4068
  379MOL0     H52282   3.899   4.355  10.894 -0.2573 -0.3310  0.1122
  379MOL0     H52283   3.943   4.534  10.732 -2.0471  1.4202 -0.5921
  379MOL0     H52284   4.132   4.849  10.626  1.8115  2.3429  1.5015
  379MOL0     H52285   4.207   5.003  10.434  0.7341 -0.5581  0.5806
  379MOL0     H52286   5.561   6.152  10.076 -0.3426  2.0780 -0.1170
  379MOL0     H52287   5.747   6.292  10.015  0.2348 -1.5066 -0.8190
  379MOL0     H52288   6.060   6.658   9.971  2.1916  0.0069 -1.0856
  379MOL0     H52289   6.223   6.799   9.859 -1.4933  5.5646 -0.5915
  379MOL0     H52290   6.322   6.820   9.419 -1.1037  0.9056 -2.3225
  379MOL0     H52291   6.165   6.882   9.464 -0.4544 -2.8473  0.7196
  379MOL0     H52292   6.345   7.038   9.394  1.7104  1.7630  0.5302
  379MOL0     H52293   6.445   6.992   9.532  0.0745 -2.2714 -2.7154
  379MOL0     H52294   6.273   7.211   9.542 -2.7564  0.6678 -0.4380
  379MOL0     H52295   6.158   7.077   9.561  1.4366 -3.4070 -1.4266
  379MOL0     H52296   6.371   7.209   9.736  0.8850 -1.0671  0.9574
  379MOL0     H52297   6.375   7.036   9.764  4.9008  3.4694  0.9950
  379MOL0     H52298   5.982   7.134   9.892  2.0182 -0.6361  3.0405
  379MOL0     H52299   6.072   6.679   9.482 -0.6654 -0.0371 -0.5003
  379MOL0     H52300   5.765   6.540   9.555 -0.6553 -5.1228  0.4601
  379MOL0     H52301   5.885   6.585   9.449  1.2360  0.7179  0.5578
  379MOL0     H52302   5.895   6.434   9.542  0.5619 -0.0078  0.0509
  380MOL0     O52303   1.308   2.406   3.991 -0.6528 -0.7063 -0.2179
  380MOL0     C52304   1.214   2.385   3.914  0.1661 -0.6887 -0.6552
  380MOL0     O52305   1.129   2.483   3.865 -0.2073 -0.2350  0.4919
  380MOL0     C52306   1.184   2.612   3.855  0.6150  0.8180  0.4410
  380MOL0     C52307   1.314   2.665   3.839 -0.2871 -0.0493 -1.2848
  380MOL0     C52308   1.333   2.803   3.845  0.0589  0.1701 -0.1075
  380MOL0     C52309   1.227   2.892   3.836  0.4006  0.8151  0.7706
  380MOL0     O52310   1.235   3.022   3.819 -0.0034 -0.3935 -0.2631
  380MOL0     C52311   1.355   3.085   3.780  0.0290 -1.2655 -0.3135
  380MOL0     C52312   1.356   3.112   3.629 -0.1693  0.6511  0.0317
  380MOL0     C52313   1.489   3.174   3.583  1.0739 -0.6563 -0.8601
  380MOL0     C52314   1.595   3.066   3.542  0.3518 -0.1039  0.2682
  380MOL0     C52315   1.737   3.131   3.534 -0.2138  0.2971  0.3632
  380MOL0     C52316   1.827   3.050   3.450  0.1163  0.1831 -1.3181
  380MOL0     C52317   1.961   3.108   3.420  0.8528 -0.0474 -0.2226
  380MOL0     C52318   1.961   3.201   3.280  0.0825 -0.0920  0.5094
  380MOL0     N52319   1.917   3.129   3.162 -0.1966 -0.0207  0.1869
  380MOL0     C52320   1.809   3.149   3.091  0.6686  0.6604  0.2878
  380MOL0     C52321   1.818   3.075   2.978  0.4788  0.8122  0.9050
  380MOL0     C52322   1.721   3.058   2.864  0.6087 -0.1973  0.6127
  380MOL0     C52323   1.735   3.188   2.774  0.9446  0.5970  0.2911
  380MOL0     C52324   1.713   3.329   2.829  1.4898 -0.6493  0.5028
  380MOL0     C52325   1.686   3.440   2.723 -0.4854 -0.7066 -0.0530
  380MOL0     O52326   1.547   3.451   2.713 -0.0350 -0.5717  0.0340
  380MOL0     C52327   1.484   3.551   2.643  0.0854  0.8390 -0.0956
  380MOL0     C52328   1.367   3.591   2.691  0.9720  0.3454 -0.1251
  380MOL0     C52329   1.284   3.681   2.627  0.4628  0.6199  0.2529
  380MOL0     C52330   1.162   3.728   2.705  0.7341  0.1533  0.6016
  380MOL0     C52331   1.322   3.731   2.500 -0.1974 -0.6920  0.6619
  380MOL0     C52332   1.246   3.833   2.422 -1.2293  0.0985  0.2817
  380MOL0     O52333   1.115   3.802   2.408 -0.1072 -0.4174  0.2152
  380MOL0     C52334   1.035   3.891   2.337 -0.3317  0.1803  0.6187
  380MOL0     C52335   0.917   3.934   2.395  0.0797  0.1193  0.9130
  380MOL0     C52336   0.833   4.009   2.315 -0.4349 -0.9878 -0.2710
  380MOL0     C52337   0.864   4.068   2.194  1.0461 -0.6642 -0.0149
  380MOL0     O52338   0.780   4.158   2.127  0.5743 -0.5024 -0.2031
  380MOL0     C52339   0.827   4.282   2.074  0.1580 -0.0799  0.8917
  380MOL0     C52340   0.717   4.336   1.982 -0.2690 -0.2641  0.1052
  380MOL0     C52341   0.583   4.357   2.060  1.0616 -0.0583 -0.1869
  380MOL0     C52342   0.492   4.447   1.968 -0.6351 -0.2496 -0.3650
  380MOL0     C52343   0.351   4.440   2.041 -0.0840 -0.6501  0.3467
  380MOL0     C52344   0.246   4.527   1.977 -0.6740 -0.8229 -0.0876
  380MOL0     C52345   0.241   4.670   2.032 -0.2717  0.6500 -0.0611
  380MOL0     C52346   0.188   4.769   1.927 -0.5351 -0.2218  0.3527
  380MOL0    Cl52347   0.197   4.952   1.988 -0.3414  0.2486  0.2699
  380MOL0     C52348   0.986   4.023   2.138 -0.5451 -1.8905 -0.2001
  380MOL0     C52349   1.065   3.924   2.205  0.5750 -0.5959  0.8872
  380MOL0     O52350   1.300   3.933   2.375  0.5175 -0.4078 -0.2171
  380MOL0     C52351   1.445   3.690   2.436 -0.1906 -0.6312  0.4319
  380MOL0     C52352   1.529   3.611   2.517 -0.1716  0.9087 -0.8085
  380MOL0     N52353   1.936   3.004   2.986 -0.7943  0.7630 -0.4746
  380MOL0     N52354   1.991   3.036   3.095 -0.1144 -0.3728 -0.6157
  380MOL0     C52355   1.097   2.840   3.836 -0.2795 -0.2744  0.4847
  380MOL0     C52356   1.075   2.701   3.841 -0.8591 -0.9120  0.1685
  380MOL0     C52357   1.178   2.240   3.882  0.9004 -0.6807 -0.3581
  380MOL0     C52358   1.051   2.226   3.835 -0.5097  0.0536 -0.9361
  380MOL0     C52359   1.008   2.102   3.791  0.4051 -0.2719  0.4340
  380MOL0     C52360   1.090   1.989   3.807 -0.6089  0.9766 -0.4276
  380MOL0     O52361   1.040   1.867   3.766  0.5532 -0.3684 -0.5719
  380MOL0     C52362   0.943   1.860   3.661  0.4465 -1.7772  0.5721
  380MOL0     C52363   0.933   1.720   3.599  0.6015 -0.2231 -0.5591
  380MOL0     C52364   0.791   1.701   3.527 -0.4011 -0.2565 -0.4091
  380MOL0     C52365   0.774   1.558   3.488  0.7189 -0.1327  0.5904
  380MOL0     C52366   0.636   1.542   3.445 -0.3515  0.0456 -0.4369
  380MOL0     C52367   0.523   1.535   3.403  0.2531  0.3559  0.0499
  380MOL0     C52368   1.216   2.002   3.866 -0.7680  0.2534 -0.5579
  380MOL0     C52369   1.268   2.129   3.897  0.9567 -0.2236  0.0100
  380MOL0     C52370   1.415   2.135   3.942  0.5197  0.1023 -0.1143
  380MOL0     H52371   1.391   2.590   3.854  0.5021  1.0092  0.2522
  380MOL0     H52372   1.431   2.851   3.847 -0.6612  1.6937  0.0495
  380MOL0     H52373   1.451   3.046   3.812  1.8968  1.9852 -1.4177
  380MOL0     H52374   1.363   3.181   3.833  3.6251 -1.4912 -0.2217
  380MOL0     H52375   1.342   3.013   3.585  2.4426 -0.0667  0.6653
  380MOL0     H52376   1.280   3.187   3.606 -0.8695 -0.6099 -2.0421
  380MOL0     H52377   1.472   3.236   3.494  1.4454 -1.4366 -1.4853
  380MOL0     H52378   1.512   3.246   3.662 -1.6934  0.3536 -0.8657
  380MOL0     H52379   1.598   2.977   3.607 -0.6730  0.6312  1.3703
  380MOL0     H52380   1.572   3.032   3.441  2.9937  0.0164 -0.4408
  380MOL0     H52381   1.777   3.129   3.636 -0.2559  1.0431  0.4000
  380MOL0     H52382   1.730   3.228   3.485 -1.4508 -2.1731 -5.0598
  380MOL0     H52383   1.838   2.952   3.498  0.3701  0.9423  0.2249
  380MOL0     H52384   1.779   3.032   3.353  0.2996  1.6805 -1.7088
  380MOL0     H52385   2.033   3.027   3.409 -1.7744 -3.0990  2.8027
  380MOL0     H52386   1.987   3.176   3.501 -1.7010 -0.7287  1.2827
  380MOL0     H52387   1.912   3.298   3.291 -0.8266 -0.6818  2.0592
  380MOL0     H52388   2.067   3.221   3.262 -0.1043 -1.0693 -2.1251
  380MOL0     H52389   1.728   3.217   3.116  2.6752  2.0358  3.6688
  380MOL0     H52390   1.620   3.055   2.907  0.6918  3.0258  1.2688
  380MOL0     H52391   1.735   2.963   2.811  2.0907  0.7868 -0.8411
  380MOL0     H52392   1.829   3.184   2.717 -1.0472 -0.6865 -3.2616
  380MOL0     H52393   1.661   3.180   2.694  0.2327 -1.4928  1.1129
  380MOL0     H52394   1.622   3.312   2.887  0.0411  1.5469 -0.9901
  380MOL0     H52395   1.787   3.367   2.901 -1.4967  1.3615  2.7723
  380MOL0     H52396   1.736   3.534   2.750 -2.0206  0.2194 -0.2850
  380MOL0     H52397   1.732   3.412   2.628  0.8170 -1.1918  0.7018
  380MOL0     H52398   1.337   3.552   2.787 -0.1675 -0.6132 -0.8479
  380MOL0     H52399   1.109   3.790   2.633 -1.8783 -1.1346  1.2960
  380MOL0     H52400   1.192   3.783   2.795  1.5254  3.6616 -1.5953
  380MOL0     H52401   1.095   3.643   2.720  2.1646 -0.9768  0.7871
  380MOL0     H52402   0.890   3.883   2.488  0.2897  0.3764  1.1146
  380MOL0     H52403   0.738   4.035   2.360 -1.1419 -1.5271 -1.3989
  380MOL0     H52404   0.838   4.357   2.153 -3.3371  1.6719 -0.0876
  380MOL0     H52405   0.920   4.272   2.016  0.7446 -1.4352  1.9936
  380MOL0     H52406   0.739   4.437   1.946 -2.1058  0.8750  1.9153
  380MOL0     H52407   0.706   4.264   1.900  0.7237  0.2943 -0.5463
  380MOL0     H52408   0.602   4.401   2.159  0.5403 -1.6796  0.6674
  380MOL0     H52409   0.530   4.264   2.082 -0.3709  1.5433  4.3113
  380MOL0     H52410   0.479   4.399   1.871  0.2550 -0.5299 -0.3506
  380MOL0     H52411   0.528   4.549   1.954 -1.1773 -0.1250 -0.8836
  380MOL0     H52412   0.319   4.336   2.052 -0.4715 -0.5497  0.1687
  380MOL0     H52413   0.361   4.479   2.143  0.5318 -1.3946  0.5838
  380MOL0     H52414   0.147   4.484   1.994  0.0052 -2.1183  0.7907
  380MOL0     H52415   0.261   4.518   1.869  1.1523 -0.4737  0.0994
  380MOL0     H52416   0.341   4.703   2.062 -0.2313  0.6202 -0.1626
  380MOL0     H52417   0.177   4.683   2.119 -1.8266 -1.3751 -0.8036
  380MOL0     H52418   0.083   4.755   1.902 -1.3747  3.8437  0.9114
  380MOL0     H52419   0.239   4.771   1.830 -1.7454  2.3213 -0.3163
  380MOL0     H52420   1.005   4.054   2.036 -0.8543  0.2894  0.3462
  380MOL0     H52421   1.155   3.890   2.155  1.2558 -0.6464  2.0962
  380MOL0     H52422   1.485   3.741   2.349  0.4344 -1.4177  0.2490
  380MOL0     H52423   1.629   3.601   2.477  0.8450 -0.7187  1.8905
  380MOL0     H52424   1.006   2.899   3.844  1.2365  2.2620  0.2653
  380MOL0     H52425   0.975   2.660   3.830 -1.1955  0.2959 -1.6876
  380MOL0     H52426   0.977   2.304   3.851 -1.7391 -0.8736 -1.9456
  380MOL0     H52427   0.907   2.104   3.752  1.3872  3.2595 -2.3776
  380MOL0     H52428   0.846   1.900   3.692  1.6623  1.8927  0.0605
  380MOL0     H52429   0.981   1.920   3.578 -3.2953 -0.9073 -0.7557
  380MOL0     H52430   0.952   1.640   3.672  0.9656  1.8879  1.8142
  380MOL0     H52431   1.016   1.716   3.528  1.5087 -2.0238  0.5392
  380MOL0     H52432   0.719   1.740   3.599  2.3175 -0.1030  2.3947
  380MOL0     H52433   0.775   1.760   3.435  1.3943  0.2952 -0.4101
  380MOL0     H52434   0.798   1.498   3.577  3.6938  2.3336  1.6578
  380MOL0     H52435   0.844   1.523   3.412  2.3900  1.4119  1.3305
  380MOL0     H52436   0.420   1.555   3.382  0.5749  1.4312 -0.5635
  380MOL0     H52437   1.275   1.911   3.875  1.0739  1.4278 -0.2905
  380MOL0     H52438   1.455   2.037   3.918  1.2181  0.3590 -0.0304
  380MOL0     H52439   1.468   2.212   3.884  0.0120 -0.4461 -1.3517
  380MOL0     H52440   1.415   2.158   4.049  0.4327 -1.2740  0.1962
  381MOL0     O52441   6.377  10.324   3.759  0.1919 -0.4785 -0.4813
  381MOL0     C52442   6.430  10.265   3.855  0.2856  0.0470  0.4049
  381MOL0     O52443   6.530  10.313   3.938  0.5824  0.3805 -0.7118
  381MOL0     C52444   6.594  10.431   3.904 -0.0356 -0.2767  0.0491
  381MOL0     C52445   6.736  10.456   3.892 -0.1268  0.0621 -0.2818
  381MOL0     C52446   6.788  10.579   3.862  0.2347 -0.4171 -0.5508
  381MOL0     C52447   6.707  10.692   3.853 -0.2130  0.3689  0.5235
  381MOL0     O52448   6.744  10.816   3.820 -0.9160  0.0640 -0.4982
  381MOL0     C52449   6.876  10.851   3.877  0.1021 -0.2331  0.0127
  381MOL0     C52450   6.894  11.005   3.918 -0.0189 -0.8286  0.5763
  381MOL0     C52451   6.761  11.057   3.982  0.3038  1.0144  0.2661
  381MOL0     C52452   6.760  11.190   4.043  0.6398 -1.5004  0.0997
  381MOL0     C52453   6.842  11.292   3.951  0.6104  0.0396  0.0208
  381MOL0     C52454   6.845  11.418   4.028  0.5753 -0.8278 -1.0269
  381MOL0     C52455   6.931  11.536   3.953 -0.4707  0.0783  0.1406
  381MOL0     C52456   6.954  11.659   4.031 -1.1154 -0.5246  0.7894
  381MOL0     N52457   6.824  11.726   4.058 -0.2535  0.5217 -0.4401
  381MOL0     C52458   6.782  11.754   4.182 -0.0098 -0.2478  0.2063
  381MOL0     C52459   6.662  11.832   4.165 -0.2321 -0.0451  0.9900
  381MOL0     C52460   6.571  11.907   4.259 -1.4495 -0.1390  0.3862
  381MOL0     C52461   6.648  11.945   4.384  0.0033 -0.7117  0.3343
  381MOL0     C52462   6.570  12.017   4.485 -0.3106  0.0053  0.4476
  381MOL0     C52463   6.621  11.977   4.615  0.6362 -0.1236 -0.2174
  381MOL0     O52464   6.537  12.043   4.708  0.0909  0.8444 -0.4109
  381MOL0     C52465   6.556  12.027   4.843  0.8250  0.3418 -0.9857
  381MOL0     C52466   6.673  11.971   4.905  0.4447  0.4221  1.1482
  381MOL0     C52467   6.692  11.961   5.038  1.6244  0.3245  0.2058
  381MOL0     C52468   6.820  11.901   5.087 -0.8395  0.5924  0.5030
  381MOL0     C52469   6.592  12.013   5.125 -0.2564 -0.7683 -0.1629
  381MOL0     C52470   6.619  12.026   5.271 -0.6006 -0.0663  0.1551
  381MOL0     O52471   6.546  12.130   5.332 -0.0143 -0.5783  0.3060
  381MOL0     C52472   6.572  12.152   5.463  0.3876  1.1774 -0.0994
  381MOL0     C52473   6.544  12.051   5.572 -0.0155  0.4711  0.8573
  381MOL0     C52474   6.583  12.075   5.703  0.9495  1.1600 -0.0865
  381MOL0     C52475   6.638  12.199   5.731  0.9623  0.1771 -0.0355
  381MOL0     O52476   6.669  12.212   5.866  0.2585 -0.3745 -0.3861
  381MOL0     C52477   6.696  12.341   5.920 -1.0137 -0.3796 -1.1766
  381MOL0     C52478   6.688  12.333   6.072  0.5775 -0.8533 -0.8800
  381MOL0     C52479   6.707  12.474   6.142  0.2336  0.0691 -1.0661
  381MOL0     C52480   6.690  12.456   6.300 -0.1614 -0.1573  0.4550
  381MOL0     C52481   6.562  12.398   6.356 -0.1665  1.2732  0.7983
  381MOL0     C52482   6.448  12.507   6.342  0.2985 -1.0484 -0.0279
  381MOL0     C52483   6.470  12.617   6.450 -0.0604  0.2873  0.7580
  381MOL0     C52484   6.341  12.702   6.464  0.3203  0.3090  0.0010
  381MOL0    Cl52485   6.394  12.857   6.510  0.1746 -0.4260 -0.0291
  381MOL0     C52486   6.654  12.295   5.632 -0.4902 -1.2940 -0.6920
  381MOL0     C52487   6.624  12.273   5.500 -0.5072  0.0531 -1.3783
  381MOL0     O52488   6.686  11.938   5.337  0.6631  0.3103 -0.2548
  381MOL0     C52489   6.481  12.076   5.070 -0.1705 -0.6193 -0.2227
  381MOL0     C52490   6.451  12.074   4.933  0.1605  0.6578  0.2019
  381MOL0     N52491   6.641  11.838   4.029 -0.7101 -0.7917 -0.3690
  381MOL0     N52492   6.733  11.768   3.970 -0.4532 -0.8001  0.0949
  381MOL0     C52493   6.575  10.675   3.884  0.1558 -0.2741  0.3387
  381MOL0     C52494   6.514  10.551   3.906 -0.1323  0.8414  0.2946
  381MOL0     C52495   6.374  10.137   3.897 -0.2185  0.5888 -0.1489
  381MOL0     C52496   6.364  10.037   3.801 -1.0043  0.2509  0.0104
  381MOL0     C52497   6.303   9.914   3.832 -0.8035  0.4130 -0.0980
  381MOL0     C52498   6.262   9.886   3.961 -0.4399  1.3053  0.0782
  381MOL0     O52499   6.199   9.761   3.972 -0.1836  0.4185  0.6023
  381MOL0     C52500   6.174   9.722   4.105 -0.2495  0.4046  0.0539
  381MOL0     C52501   6.100   9.595   4.123 -0.7131  0.4597  0.3154
  381MOL0     C52502   5.959   9.602   4.061  0.3421  0.2796  0.0116
  381MOL0     C52503   5.882   9.472   4.074 -0.4107  0.6785  0.2375
  381MOL0     C52504   5.943   9.347   4.017  0.0891  0.8260  0.3561
  381MOL0     C52505   5.989   9.245   3.971 -0.2359  0.0937 -0.2462
  381MOL0     C52506   6.292   9.981   4.062 -0.5795 -0.4293 -0.2859
  381MOL0     C52507   6.338  10.106   4.027 -1.0130 -0.1985  0.2998
  381MOL0     C52508   6.371  10.212   4.144 -0.1427  0.8700 -0.3024
  381MOL0     H52509   6.802  10.370   3.890 -0.0584  0.0992  0.2148
  381MOL0     H52510   6.892  10.584   3.833 -0.6356 -2.6404 -4.9118
  381MOL0     H52511   6.949  10.824   3.800 -1.3626  0.6082 -1.7472
  381MOL0     H52512   6.886  10.801   3.974 -0.2409  0.1184  0.2322
  381MOL0     H52513   6.971  11.018   3.994 -1.0477 -2.4970  1.9977
  381MOL0     H52514   6.927  11.059   3.830  0.7846 -0.3688  1.1488
  381MOL0     H52515   6.670  11.043   3.921 -1.3728  0.4480  2.7506
  381MOL0     H52516   6.749  10.977   4.056  2.9223  0.3948  0.0931
  381MOL0     H52517   6.653  11.207   4.055  1.1777  0.8719  2.6789
  381MOL0     H52518   6.809  11.178   4.140 -1.3672 -0.9581  1.2472
  381MOL0     H52519   6.798  11.307   3.852 -1.9442  1.2910  1.2387
  381MOL0     H52520   6.948  11.269   3.944  0.2861 -1.1174 -1.8730
  381MOL0     H52521   6.742  11.448   4.048  0.4788 -0.2038 -2.3279
  381MOL0     H52522   6.873  11.410   4.133 -2.8994  2.8773  0.4314
  381MOL0     H52523   6.884  11.575   3.862  0.3669  4.4186  1.3313
  381MOL0     H52524   7.026  11.494   3.921 -1.5368  0.7542 -4.8017
  381MOL0     H52525   7.010  11.622   4.117  1.8988  0.1850 -0.7604
  381MOL0     H52526   7.007  11.736   3.974  2.2680 -1.7459  2.0320
  381MOL0     H52527   6.833  11.727   4.274 -1.3325 -5.4773 -0.2937
  381MOL0     H52528   6.499  11.829   4.287 -1.4853  0.0871  0.9298
  381MOL0     H52529   6.533  11.999   4.212  1.0987  1.2990  0.9516
  381MOL0     H52530   6.684  11.849   4.422  1.5418 -0.6769 -0.9346
  381MOL0     H52531   6.734  12.001   4.348 -0.8089 -1.3027 -2.9459
  381MOL0     H52532   6.574  12.126   4.475 -1.8285  0.5549  4.0399
  381MOL0     H52533   6.463  11.993   4.477 -0.3015 -0.6618  1.9782
  381MOL0     H52534   6.610  11.868   4.620 -1.2660  0.0264 -0.5948
  381MOL0     H52535   6.720  12.015   4.644  1.4753 -1.2341 -1.4981
  381MOL0     H52536   6.738  11.923   4.833  1.7016  0.9382  1.9101
  381MOL0     H52537   6.878  11.840   5.017  0.4575  1.5111  0.7387
  381MOL0     H52538   6.791  11.831   5.166 -2.7975  1.6567  0.8002
  381MOL0     H52539   6.893  11.974   5.124  1.6641 -1.5558  0.1479
  381MOL0     H52540   6.494  11.960   5.537  1.2153  0.1615 -0.1848
  381MOL0     H52541   6.578  12.003   5.784  0.8809  0.4069 -0.7396
  381MOL0     H52542   6.796  12.371   5.889 -1.7885  3.9404 -0.2546
  381MOL0     H52543   6.620  12.410   5.881 -0.3605  0.6048 -0.7686
  381MOL0     H52544   6.586  12.300   6.093 -0.7384  3.2353  0.2384
  381MOL0     H52545   6.761  12.257   6.102  1.9966 -0.6354 -3.4699
  381MOL0     H52546   6.639  12.550   6.103  1.6385  0.4726 -2.8987
  381MOL0     H52547   6.811  12.505   6.131  0.5826 -0.5988  0.1498
  381MOL0     H52548   6.713  12.551   6.348  0.2137  1.3050 -2.4098
  381MOL0     H52549   6.774  12.397   6.338  1.0430  0.8416 -0.5608
  381MOL0     H52550   6.535  12.304   6.306  0.8890  1.3706  0.0027
  381MOL0     H52551   6.568  12.367   6.461  0.2725  2.4170  1.1187
  381MOL0     H52552   6.352  12.458   6.360  1.3260 -3.0911  0.1520
  381MOL0     H52553   6.449  12.555   6.244  2.5440 -2.1273 -0.5993
  381MOL0     H52554   6.556  12.681   6.433 -1.5173  1.9531 -0.6787
  381MOL0     H52555   6.491  12.566   6.545 -1.4541 -0.6135  0.6284
  381MOL0     H52556   6.270  12.653   6.532 -0.9729  0.5442 -1.1294
  381MOL0     H52557   6.302  12.714   6.362 -0.1602  1.7228  0.3285
  381MOL0     H52558   6.684  12.397   5.652 -0.0570 -0.9310 -2.9576
  381MOL0     H52559   6.646  12.341   5.419  0.5656  0.1260 -1.0432
  381MOL0     H52560   6.415  12.122   5.143  0.9055 -0.2542  0.5461
  381MOL0     H52561   6.351  12.104   4.905 -0.0097 -0.2712 -0.2280
  381MOL0     H52562   6.516  10.766   3.885 -1.7347 -1.4614  1.6684
  381MOL0     H52563   6.409  10.555   3.933  0.7057  1.9359  3.9871
  381MOL0     H52564   6.402  10.063   3.703  2.1268 -1.0000  0.7688
  381MOL0     H52565   6.299   9.831   3.763 -1.0817  3.4248 -4.0295
  381MOL0     H52566   6.272   9.712   4.153  0.1258 -0.5791 -0.8675
  381MOL0     H52567   6.119   9.803   4.155 -1.4954 -0.5713  0.3097
  381MOL0     H52568   6.104   9.564   4.228 -3.0865 -0.8392  0.0744
  381MOL0     H52569   6.158   9.519   4.070  1.4172  2.7866 -0.8891
  381MOL0     H52570   5.900   9.680   4.111 -0.1328 -0.6123  0.8797
  381MOL0     H52571   5.965   9.614   3.953  2.8943 -1.0281 -0.0573
  381MOL0     H52572   5.789   9.489   4.018 -0.3127 -2.0954 -0.9070
  381MOL0     H52573   5.857   9.459   4.179 -1.1672 -1.0549 -0.1290
  381MOL0     H52574   6.020   9.152   3.927  0.9480 -0.1239  0.9838
  381MOL0     H52575   6.274   9.968   4.168  0.5187  1.5563  0.1866
  381MOL0     H52576   6.477  10.198   4.170  0.2983 -0.9118 -2.6834
  381MOL0     H52577   6.351  10.317   4.122  0.4734  0.7600 -1.4287
  381MOL0     H52578   6.321  10.191   4.239  1.8454  1.5932  0.9922
  382MOL0     O52579   6.477   4.520  10.009 -0.6200 -0.1546  0.9481
  382MOL0     C52580   6.406   4.505   9.909  0.0200  0.7898  0.3484
  382MOL0     O52581   6.349   4.389   9.862  0.5508 -0.2835 -0.4351
  382MOL0     C52582   6.324   4.268   9.928  0.2957  0.0138  0.0354
  382MOL0     C52583   6.363   4.248  10.060  1.3183 -0.8495 -0.3143
  382MOL0     C52584   6.334   4.126  10.122  0.1472 -0.2664  0.5375
  382MOL0     C52585   6.271   4.025  10.050  0.2018  0.3797  0.2738
  382MOL0     O52586   6.266   3.896  10.090 -0.3511 -0.3678 -0.5479
  382MOL0     C52587   6.289   3.866  10.225 -0.7701  0.0646 -0.5978
  382MOL0     C52588   6.239   3.707  10.239 -0.0338 -0.1416 -0.0051
  382MOL0     C52589   6.340   3.618  10.157  0.3989  0.3470 -1.2171
  382MOL0     C52590   6.311   3.465  10.172  1.1957 -0.6137  0.2831
  382MOL0     C52591   6.430   3.390  10.229  0.0535 -1.0854 -1.0538
  382MOL0     C52592   6.449   3.416  10.389 -0.9557  0.4759  0.1360
  382MOL0     C52593   6.579   3.359  10.450 -0.5984  0.5448  0.1060
  382MOL0     C52594   6.718   3.412  10.389 -0.2651 -0.3412 -0.2468
  382MOL0     N52595   6.833   3.358  10.457  0.1458  0.3894 -0.7129
  382MOL0     C52596   6.889   3.416  10.566 -0.4039  0.2756 -0.4034
  382MOL0     C52597   6.978   3.329  10.613  0.6357 -0.3746  0.3139
  382MOL0     C52598   7.073   3.363  10.722 -0.0845  0.6825  0.3954
  382MOL0     C52599   7.219   3.341  10.675  0.5008 -0.1205  0.5359
  382MOL0     C52600   7.242   3.407  10.539 -0.5198 -0.1406  0.2057
  382MOL0     C52601   7.384   3.390  10.505  0.4927 -0.3864  0.1025
  382MOL0     O52602   7.465   3.463  10.600  0.0906  0.0097  0.0962
  382MOL0     C52603   7.599   3.425  10.604  0.7695 -0.6443  0.1856
  382MOL0     C52604   7.669   3.473  10.711  0.1374  0.9653  0.1951
  382MOL0     C52605   7.811   3.443  10.722  0.2683  0.0089 -0.1260
  382MOL0     C52606   7.870   3.493  10.848 -0.0989  0.7428 -0.9915
  382MOL0     C52607   7.876   3.367  10.626 -1.0774  0.2384 -1.6719
  382MOL0     C52608   8.018   3.317  10.634  0.3869 -1.4224  0.4846
  382MOL0     O52609   8.045   3.184  10.631  0.6959 -0.8269  0.1978
  382MOL0     C52610   8.176   3.143  10.654  0.9885  0.0354 -0.3438
  382MOL0     C52611   8.246   3.104  10.537 -0.5030 -0.6384 -0.6446
  382MOL0     C52612   8.376   3.062  10.553 -0.1002  0.7771  0.5195
  382MOL0     C52613   8.450   3.067  10.677  0.2340  0.4536 -0.1136
  382MOL0     O52614   8.577   3.030  10.691  0.3411  0.9655 -0.1014
  382MOL0     C52615   8.673   3.059  10.594 -0.4876 -0.4087  0.5102
  382MOL0     C52616   8.798   3.131  10.650 -0.5932 -0.8515  0.1018
  382MOL0     C52617   8.871   3.056  10.758 -0.4145 -0.7603 -0.6622
  382MOL0     C52618   8.931   2.917  10.736  0.4177  0.2208  0.7681
  382MOL0     C52619   9.000   2.868  10.859 -0.8238  0.4115  0.7007
  382MOL0     C52620   8.915   2.849  10.980  1.1645 -0.7286 -0.1256
  382MOL0     C52621   8.777   2.774  10.967  0.2675 -0.5605 -0.0567
  382MOL0     C52622   8.664   2.822  11.071 -0.1179  0.4291 -0.3380
  382MOL0    Cl52623   8.670   2.748  11.223  0.0723  0.2004 -0.0728
  382MOL0     C52624   8.376   3.118  10.783 -1.1818 -0.1185  0.6748
  382MOL0     C52625   8.243   3.149  10.779 -1.4293 -0.3082  0.8502
  382MOL0     O52626   8.097   3.404  10.661  0.5145  0.9799  0.1112
  382MOL0     C52627   7.803   3.332  10.512 -0.1779  0.5276 -0.6389
  382MOL0     C52628   7.669   3.351  10.506 -0.4087  0.4199 -0.3954
  382MOL0     N52629   6.967   3.211  10.535 -0.4208 -0.2507 -0.4222
  382MOL0     N52630   6.885   3.235  10.443  0.6765 -0.2103  0.3608
  382MOL0     C52631   6.231   4.044   9.923  0.1056 -0.8468  1.0634
  382MOL0     C52632   6.254   4.171   9.863 -1.2350  0.3864  0.5091
  382MOL0     C52633   6.398   4.622   9.826 -0.8843 -0.4618  0.4551
  382MOL0     C52634   6.303   4.715   9.856 -0.2589 -0.1708 -0.1076
  382MOL0     C52635   6.305   4.837   9.790  0.0750 -0.1635  0.0226
  382MOL0     C52636   6.405   4.870   9.694 -0.5326  0.6848  0.1430
  382MOL0     O52637   6.413   4.996   9.641  0.4987  0.3313  0.7724
  382MOL0     C52638   6.392   5.112   9.721  0.5489 -0.5570 -0.8379
  382MOL0     C52639   6.505   5.217   9.694  0.5703 -0.6489  0.0593
  382MOL0     C52640   6.464   5.306   9.574 -0.7590 -1.2205  0.9867
  382MOL0     C52641   6.570   5.408   9.541 -1.2727 -0.5498  0.2264
  382MOL0     C52642   6.597   5.512   9.643  0.3569 -0.3936  0.5136
  382MOL0     C52643   6.615   5.590   9.735  0.1782  0.7502 -0.4600
  382MOL0     C52644   6.495   4.769   9.656  0.0038 -0.2632 -0.4983
  382MOL0     C52645   6.492   4.644   9.720 -0.4552 -0.4902 -0.5138
  382MOL0     C52646   6.577   4.528   9.686 -0.1030 -0.0408  0.2803
  382MOL0     H52647   6.404   4.321  10.129 -1.3346 -0.5580  1.0471
  382MOL0     H52648   6.355   4.106  10.226  1.3659  0.5719  0.4787
  382MOL0     H52649   6.213   3.920  10.282 -0.7898  2.3862 -2.6638
  382MOL0     H52650   6.392   3.883  10.257 -1.3509 -0.0210  1.4711
  382MOL0     H52651   6.238   3.670  10.342  2.2804 -0.9956 -0.2312
  382MOL0     H52652   6.142   3.690  10.193 -1.0745 -3.5347  2.9496
  382MOL0     H52653   6.338   3.654  10.054 -0.5998  1.2237 -0.9115
  382MOL0     H52654   6.443   3.622  10.195  0.2827 -0.7580 -0.7685
  382MOL0     H52655   6.220   3.462  10.232  0.7957  2.4099 -0.0599
  382MOL0     H52656   6.312   3.416  10.074  5.3570  0.9468 -0.6620
  382MOL0     H52657   6.524   3.416  10.180 -0.3680 -2.6869 -2.8261
  382MOL0     H52658   6.420   3.283  10.210  1.9802 -1.8132  1.4134
  382MOL0     H52659   6.442   3.522  10.416 -1.5467  0.4686  0.0224
  382MOL0     H52660   6.368   3.378  10.451 -0.3759 -1.4168 -0.2074
  382MOL0     H52661   6.575   3.254  10.421 -0.8156  0.4156  0.5826
  382MOL0     H52662   6.577   3.345  10.559  1.3149  2.9834  0.5503
  382MOL0     H52663   6.725   3.381  10.284 -0.2314 -2.4864  0.3485
  382MOL0     H52664   6.721   3.521  10.402  1.8390 -0.1084 -2.0277
  382MOL0     H52665   6.876   3.515  10.609  1.1441  0.6668 -0.7546
  382MOL0     H52666   7.064   3.293  10.805  3.0691 -1.1740 -0.6356
  382MOL0     H52667   7.061   3.470  10.744  0.7196  1.7553 -3.6094
  382MOL0     H52668   7.277   3.385  10.756 -1.5733 -1.1396  2.7080
  382MOL0     H52669   7.241   3.234  10.669 -0.0823 -0.2890  1.2880
  382MOL0     H52670   7.173   3.362  10.468 -2.7664  0.3736  1.9307
  382MOL0     H52671   7.220   3.513  10.558  1.1016 -0.0442  1.8547
  382MOL0     H52672   7.399   3.283  10.526  1.6250 -0.4802 -1.0574
  382MOL0     H52673   7.421   3.412  10.405  3.3933 -0.3652  1.0649
  382MOL0     H52674   7.608   3.538  10.773 -0.5976  0.9962 -0.5481
  382MOL0     H52675   7.955   3.428  10.871  0.6019  2.3550  1.2484
  382MOL0     H52676   7.799   3.488  10.931  0.8073 -0.4383 -0.2506
  382MOL0     H52677   7.896   3.598  10.859  1.2795  0.2359  1.4325
  382MOL0     H52678   8.182   3.101  10.449 -1.0421 -1.1193 -0.2489
  382MOL0     H52679   8.433   3.020  10.470 -0.8584 -2.7835  1.6408
  382MOL0     H52680   8.716   2.971  10.545 -1.5694  0.5887 -2.4378
  382MOL0     H52681   8.632   3.118  10.512 -0.0174 -0.2043  0.4156
  382MOL0     H52682   8.864   3.154  10.567 -1.7730  1.4254 -0.2690
  382MOL0     H52683   8.768   3.229  10.688  0.4188 -0.5675  0.2009
  382MOL0     H52684   8.792   3.050  10.834 -2.0235 -2.9737 -2.3674
  382MOL0     H52685   8.941   3.130  10.799  0.1533 -0.8501 -1.4565
  382MOL0     H52686   9.015   2.915  10.665 -0.6783  1.2204 -0.6139
  382MOL0     H52687   8.854   2.850  10.698  1.2995 -0.4293  0.0950
  382MOL0     H52688   9.055   2.776  10.833 -1.5885 -0.0620  0.7198
  382MOL0     H52689   9.076   2.943  10.882 -0.9722  0.4937  0.9303
  382MOL0     H52690   8.894   2.952  11.011 -0.9302 -1.3201  0.5963
  382MOL0     H52691   8.966   2.792  11.059  1.1231 -2.1924 -1.1146
  382MOL0     H52692   8.793   2.667  10.981 -2.6188 -0.9031  1.5348
  382MOL0     H52693   8.728   2.795  10.872 -0.5122  0.4906  0.5521
  382MOL0     H52694   8.563   2.803  11.033 -0.1033 -0.3952 -0.0011
  382MOL0     H52695   8.680   2.930  11.081  3.8997 -0.1116  0.8628
  382MOL0     H52696   8.418   3.131  10.882 -3.5406 -0.7686  1.8451
  382MOL0     H52697   8.189   3.184  10.866  1.4716  1.1750  2.2146
  382MOL0     H52698   7.840   3.270  10.431 -3.9586 -0.6099 -1.7141
  382MOL0     H52699   7.619   3.302  10.422  2.7372  0.9534 -2.7438
  382MOL0     H52700   6.174   3.973   9.863 -2.8865  1.5986  0.7407
  382MOL0     H52701   6.242   4.174   9.755  3.8830  4.5499 -0.3919
  382MOL0     H52702   6.224   4.696   9.928 -1.5989  3.1042 -0.5362
  382MOL0     H52703   6.247   4.921   9.827  0.7391  0.0527  0.6081
  382MOL0     H52704   6.295   5.156   9.692  1.1020  0.8249 -0.6954
  382MOL0     H52705   6.397   5.083   9.826  1.0358 -2.2401 -1.3120
  382MOL0     H52706   6.599   5.164   9.675  1.0799  0.3572 -0.3272
  382MOL0     H52707   6.532   5.273   9.784  0.1158 -1.3635  0.6522
  382MOL0     H52708   6.461   5.237   9.489  1.2177  0.8081 -0.8365
  382MOL0     H52709   6.382   5.376   9.589  0.2440 -0.0012  0.8904
  382MOL0     H52710   6.548   5.466   9.450  2.3370  3.8629  1.7425
  382MOL0     H52711   6.660   5.348   9.528 -2.0860 -2.1695  1.6711
  382MOL0     H52712   6.642   5.654   9.816 -0.1528 -1.7803  1.7773
  382MOL0     H52713   6.571   4.788   9.581  1.1884  0.8568  0.8938
  382MOL0     H52714   6.514   4.447   9.650  1.8047 -1.1905 -0.6075
  382MOL0     H52715   6.647   4.558   9.608 -1.2651  2.5452  0.1250
  382MOL0     H52716   6.646   4.487   9.760  0.1974 -1.6326 -0.8473
  383MOL0     O52717   8.019   5.274   6.042 -0.3475  0.4006  0.7209
  383MOL0     C52718   7.976   5.163   6.038 -0.3873  0.8154  0.6204
  383MOL0     O52719   7.888   5.119   5.950  0.0358 -0.6562  0.4215
  383MOL0     C52720   7.845   5.196   5.845  0.6972 -1.0063 -1.1187
  383MOL0     C52721   7.857   5.136   5.720  0.4410  0.5309  0.1217
  383MOL0     C52722   7.795   5.198   5.607  0.4521  0.6305  0.2162
  383MOL0     C52723   7.739   5.328   5.618 -0.2906  0.1316  0.7723
  383MOL0     O52724   7.688   5.373   5.496 -0.2046 -0.7838  0.4693
  383MOL0     C52725   7.741   5.493   5.433  0.9177 -0.2352 -0.6605
  383MOL0     C52726   7.889   5.493   5.389  0.0776 -0.5097 -0.5518
  383MOL0     C52727   7.915   5.390   5.282  0.2631  0.9880  0.3186
  383MOL0     C52728   8.045   5.413   5.218 -0.2615  0.3395  0.5848
  383MOL0     C52729   8.059   5.329   5.086  0.0400  0.0252 -0.4379
  383MOL0     C52730   8.205   5.297   5.053  0.6777 -0.2104 -0.7013
  383MOL0     C52731   8.229   5.237   4.911  1.2908 -0.0675  0.0813
  383MOL0     C52732   8.367   5.184   4.899 -0.0447 -0.1123  0.6035
  383MOL0     N52733   8.415   5.166   4.760 -0.2395 -0.0710 -0.0446
  383MOL0     C52734   8.536   5.109   4.733 -0.3406  0.0762  0.2391
  383MOL0     C52735   8.579   5.145   4.608  0.5293 -0.3793  1.1646
  383MOL0     C52736   8.704   5.114   4.538 -0.2291 -0.3544 -0.2595
  383MOL0     C52737   8.769   5.235   4.472 -0.5606 -0.0885  0.7632
  383MOL0     C52738   8.818   5.345   4.571  0.6684  0.3001 -0.3469
  383MOL0     C52739   8.968   5.363   4.562  0.0446 -0.5835  0.3231
  383MOL0     O52740   8.988   5.454   4.457  0.0116  0.0162 -0.5929
  383MOL0     C52741   9.116   5.470   4.407  0.0897 -0.6284 -0.1811
  383MOL0     C52742   9.113   5.556   4.293  0.2352 -0.3132 -0.9537
  383MOL0     C52743   9.236   5.605   4.247 -0.7222  0.2819 -0.2051
  383MOL0     C52744   9.226   5.692   4.121 -0.6158  0.0611 -0.0695
  383MOL0     C52745   9.358   5.548   4.292 -0.0335 -1.0720  0.1089
  383MOL0     C52746   9.497   5.582   4.234  0.2066 -0.2753  0.7042
  383MOL0     O52747   9.606   5.521   4.291 -0.1870  0.0862 -0.4228
  383MOL0     C52748   9.735   5.556   4.261  1.0869  0.5167  0.3977
  383MOL0     C52749   9.783   5.507   4.144 -0.2762  0.6137 -0.1973
  383MOL0     C52750   9.899   5.558   4.096  0.2089 -0.0677  0.5300
  383MOL0     C52751   9.970   5.660   4.174 -0.0684  1.3098  0.4545
  383MOL0     O52752  10.092   5.704   4.131  0.8783 -0.5826  0.4686
  383MOL0     C52753  10.166   5.616   4.047  0.3001 -0.6690  1.0274
  383MOL0     C52754  10.317   5.661   4.035  0.1598 -1.0747  0.5041
  383MOL0     C52755  10.395   5.671   4.172  0.7653 -0.8188  0.0084
  383MOL0     C52756  10.394   5.540   4.256 -0.1445  0.0806  1.0165
  383MOL0     C52757  10.512   5.525   4.356  0.4575  0.3346 -0.4694
  383MOL0     C52758  10.644   5.523   4.292 -1.1191  0.3048 -0.2914
  383MOL0     C52759  10.763   5.577   4.373  0.0680 -0.0208 -0.3024
  383MOL0     C52760  10.896   5.579   4.291  0.3708  0.3607 -0.6199
  383MOL0    Cl52761  10.900   5.689   4.139 -0.1931 -0.1246  0.6544
  383MOL0     C52762   9.912   5.702   4.295  0.9797  0.3009 -0.0324
  383MOL0     C52763   9.790   5.657   4.340  0.8667  1.4100 -0.3534
  383MOL0     O52764   9.507   5.678   4.152  0.2706 -0.7286  0.2641
  383MOL0     C52765   9.357   5.449   4.394 -0.6160 -0.6657 -0.6425
  383MOL0     C52766   9.236   5.404   4.446 -0.0861  0.5238  0.4673
  383MOL0     N52767   8.476   5.213   4.553 -0.1519  0.3406  0.3146
  383MOL0     N52768   8.384   5.230   4.641 -0.5576 -0.0177 -0.0006
  383MOL0     C52769   7.738   5.391   5.737  0.5291 -0.4694  0.0891
  383MOL0     C52770   7.784   5.332   5.853 -0.3149  0.4940  0.0492
  383MOL0     C52771   8.020   5.080   6.151 -0.4530  0.6973 -0.1190
  383MOL0     C52772   7.931   4.978   6.198 -0.4029  0.5230 -0.8987
  383MOL0     C52773   7.965   4.888   6.297 -0.0981  0.0288 -0.7089
  383MOL0     C52774   8.084   4.906   6.367  0.8559  1.0284 -0.1788
  383MOL0     O52775   8.095   4.818   6.479  0.0618  0.6345  0.3850
  383MOL0     C52776   8.216   4.806   6.560 -0.2501 -0.1164 -0.0092
  383MOL0     C52777   8.332   4.752   6.469  0.1808 -0.7213  0.0657
  383MOL0     C52778   8.458   4.724   6.546 -1.1600 -0.9444  0.0750
  383MOL0     C52779   8.521   4.848   6.620 -0.0333  0.0126  0.4392
  383MOL0     C52780   8.539   4.965   6.537  0.0234 -0.8646 -0.0315
  383MOL0     C52781   8.558   5.061   6.466  0.6245 -0.0535  0.4668
  383MOL0     C52782   8.172   5.009   6.327 -0.9953  0.0823  0.2071
  383MOL0     C52783   8.149   5.088   6.217  0.6073 -0.4164 -0.1799
  383MOL0     C52784   8.251   5.193   6.195  0.1077 -0.1908 -0.2005
  383MOL0     H52785   7.906   5.041   5.705  0.0756  0.4711 -0.7179
  383MOL0     H52786   7.801   5.158   5.506 -0.9870  0.4374  0.1850
  383MOL0     H52787   7.731   5.580   5.499  3.4863  1.8441 -2.7917
  383MOL0     H52788   7.673   5.510   5.349  0.5086  1.8105  0.0168
  383MOL0     H52789   7.891   5.591   5.339 -2.2345 -0.3882 -0.4766
  383MOL0     H52790   7.960   5.478   5.471 -0.1622 -2.6066 -0.6731
  383MOL0     H52791   7.922   5.287   5.318  0.2356 -0.0441 -2.3884
  383MOL0     H52792   7.832   5.397   5.211  1.6995  2.3288 -1.2946
  383MOL0     H52793   8.046   5.521   5.200 -2.1867  0.3555  0.2818
  383MOL0     H52794   8.129   5.401   5.287  4.3006  6.2961 -2.9866
  383MOL0     H52795   8.008   5.370   4.998 -3.5477 -0.7505  1.0935
  383MOL0     H52796   8.000   5.238   5.102  1.1197 -1.4163 -3.6944
  383MOL0     H52797   8.266   5.388   5.062  2.4251 -1.3632 -0.5157
  383MOL0     H52798   8.240   5.228   5.130 -1.3146  0.3841  0.8154
  383MOL0     H52799   8.212   5.320   4.843 -1.6244  1.3509  2.3269
  383MOL0     H52800   8.156   5.159   4.887 -0.1048  0.9760  0.8401
  383MOL0     H52801   8.439   5.245   4.953  2.3288 -4.7096  3.2280
  383MOL0     H52802   8.380   5.095   4.961  1.7414  1.2384  2.2832
  383MOL0     H52803   8.613   5.063   4.793 -1.0354 -1.2072  0.1854
  383MOL0     H52804   8.685   5.040   4.460 -1.7352  1.8779 -2.1667
  383MOL0     H52805   8.777   5.074   4.609 -2.7859  0.7630  3.2770
  383MOL0     H52806   8.860   5.189   4.430  0.3810  0.8868  1.6919
  383MOL0     H52807   8.706   5.267   4.389 -3.5845 -2.6167  1.8844
  383MOL0     H52808   8.762   5.436   4.545  1.3998 -0.2555 -4.5368
  383MOL0     H52809   8.793   5.310   4.671  1.9716 -0.5091 -0.2719
  383MOL0     H52810   9.011   5.413   4.649 -0.3849  1.5588 -0.6144
  383MOL0     H52811   9.019   5.268   4.543 -0.0432 -0.3912 -0.9616
  383MOL0     H52812   9.015   5.593   4.263  1.2068  3.5054  0.0093
  383MOL0     H52813   9.240   5.798   4.141 -2.2453  0.2247  0.3448
  383MOL0     H52814   9.122   5.673   4.093 -0.7288  0.5369  0.0241
  383MOL0     H52815   9.294   5.659   4.042 -2.1908 -1.0334 -1.0273
  383MOL0     H52816   9.729   5.421   4.106 -4.4670  2.5479  0.7334
  383MOL0     H52817   9.932   5.528   3.997 -1.7878  0.5669 -0.3723
  383MOL0     H52818  10.169   5.514   4.087  3.4093  0.1670  3.3038
  383MOL0     H52819  10.117   5.610   3.949 -0.5306 -1.3351  1.4764
  383MOL0     H52820  10.371   5.585   3.978  0.9960  0.3984 -0.7208
  383MOL0     H52821  10.321   5.750   3.971 -0.1144 -3.2206 -2.7070
  383MOL0     H52822  10.351   5.745   4.240  1.2766 -1.4596  1.0692
  383MOL0     H52823  10.502   5.688   4.157  0.5191 -0.1595 -1.0896
  383MOL0     H52824  10.414   5.456   4.189  0.4059  2.4458 -1.9770
  383MOL0     H52825  10.307   5.521   4.319 -2.4539 -0.3943 -2.0658
  383MOL0     H52826  10.497   5.613   4.418 -1.3068  0.9881 -1.7122
  383MOL0     H52827  10.497   5.432   4.411 -2.7975  0.3520 -1.1020
  383MOL0     H52828  10.643   5.576   4.196  0.1277  1.6805  0.4030
  383MOL0     H52829  10.661   5.418   4.268  0.8809  0.8143 -1.3857
  383MOL0     H52830  10.794   5.524   4.464  2.6590  2.6345  0.5133
  383MOL0     H52831  10.732   5.674   4.413  2.6805  1.0879 -0.7137
  383MOL0     H52832  10.904   5.477   4.253  0.8092 -0.2053  0.9273
  383MOL0     H52833  10.981   5.582   4.359 -0.6525  0.1357  0.7157
  383MOL0     H52834   9.973   5.760   4.363  2.1639 -0.3746 -0.4798
  383MOL0     H52835   9.742   5.666   4.437  2.4288 -0.3711  0.6539
  383MOL0     H52836   9.440   5.396   4.439 -0.4772  1.3734  1.7048
  383MOL0     H52837   9.236   5.322   4.518 -3.7349  1.7138  2.0539
  383MOL0     H52838   7.697   5.492   5.747 -0.7123 -1.0392  1.0900
  383MOL0     H52839   7.780   5.393   5.943  2.2463  1.9271 -0.7191
  383MOL0     H52840   7.833   4.976   6.151 -0.8623 -0.3686  0.0717
  383MOL0     H52841   7.882   4.828   6.335  1.5486 -0.7952  1.8723
  383MOL0     H52842   8.228   4.904   6.608 -0.0326  1.9583 -3.9555
  383MOL0     H52843   8.201   4.742   6.648  0.5375 -0.4765 -0.1278
  383MOL0     H52844   8.350   4.834   6.399  0.9538  0.9656  2.1348
  383MOL0     H52845   8.291   4.662   6.422  0.6486 -2.1960  2.2918
  383MOL0     H52846   8.437   4.648   6.622 -1.3133  1.6554  2.7805
  383MOL0     H52847   8.524   4.682   6.469 -0.2018 -0.6109  0.6965
  383MOL0     H52848   8.618   4.816   6.659 -0.9392 -2.0227  1.1855
  383MOL0     H52849   8.461   4.883   6.705 -0.8111 -0.5469  0.1298
  383MOL0     H52850   8.568   5.132   6.387 -2.1315  0.7125  0.7028
  383MOL0     H52851   8.251   5.043   6.394 -1.5184 -2.6655  2.3789
  383MOL0     H52852   8.224   5.287   6.243  0.7514 -0.2538  0.3030
  383MOL0     H52853   8.346   5.169   6.244 -0.5119  1.1835  1.8048
  383MOL0     H52854   8.271   5.216   6.090  0.7141 -3.2491 -0.8592
  384MOL0     O52855   4.924   6.954   3.399 -0.1472 -0.1584 -0.4295
  384MOL0     C52856   4.898   6.856   3.457  0.1253 -0.2795  0.3325
  384MOL0     O52857   4.895   6.729   3.402 -0.3960  0.1752 -0.5534
  384MOL0     C52858   4.905   6.712   3.269 -0.6110  1.0298 -0.1709
  384MOL0     C52859   4.792   6.704   3.183 -0.1460 -0.0810 -0.5887
  384MOL0     C52860   4.813   6.679   3.050  0.0168  0.1346 -0.0786
  384MOL0     C52861   4.940   6.650   2.996  0.4301  0.1144 -0.2581
  384MOL0     O52862   4.941   6.616   2.866  0.9853  0.0587  0.1633
  384MOL0     C52863   5.069   6.597   2.803 -0.5471 -0.0336  1.1331
  384MOL0     C52864   5.038   6.561   2.649  0.0964 -0.4700 -0.1226
  384MOL0     C52865   5.168   6.537   2.581  0.8561 -0.2302 -0.2244
  384MOL0     C52866   5.171   6.556   2.431  0.1773 -1.1256  0.4407
  384MOL0     C52867   5.080   6.453   2.369  0.7408 -1.2476  0.7082
  384MOL0     C52868   5.095   6.471   2.213 -1.6654  0.1691 -0.9645
  384MOL0     C52869   4.993   6.381   2.130 -0.3646  0.0529  0.1185
  384MOL0     C52870   4.992   6.239   2.153  0.5575 -0.5298 -0.9310
  384MOL0     N52871   5.112   6.165   2.106 -0.1371 -0.2209  0.4430
  384MOL0     C52872   5.235   6.134   2.170 -0.0407  0.7782 -0.3401
  384MOL0     C52873   5.329   6.095   2.073  0.2856 -0.2526  0.5506
  384MOL0     C52874   5.468   6.052   2.109 -0.2561  1.2894  0.2786
  384MOL0     C52875   5.578   6.168   2.082  0.8663 -0.1990  0.4951
  384MOL0     C52876   5.548   6.310   2.148  0.2450  0.1194 -0.3244
  384MOL0     C52877   5.567   6.323   2.298  0.1479 -0.2381 -0.5975
  384MOL0     O52878   5.488   6.233   2.377  0.6188  0.6270 -0.2289
  384MOL0     C52879   5.492   6.251   2.509 -0.5064  0.3079 -1.2138
  384MOL0     C52880   5.381   6.208   2.587 -0.3424 -0.3537 -0.1305
  384MOL0     C52881   5.364   6.220   2.732  0.4929 -0.7423 -0.1096
  384MOL0     C52882   5.226   6.174   2.788 -0.1140  0.8873  0.4970
  384MOL0     C52883   5.478   6.290   2.794  0.1361  0.6053 -0.2208
  384MOL0     C52884   5.488   6.297   2.952 -0.5188  0.1391 -0.8708
  384MOL0     O52885   5.373   6.288   3.029  0.1664 -0.3856 -0.1342
  384MOL0     C52886   5.396   6.329   3.158 -0.0307  1.8432  0.3610
  384MOL0     C52887   5.411   6.235   3.263 -0.4519  0.2150  0.3086
  384MOL0     C52888   5.451   6.274   3.385  0.4630 -0.1077 -0.0327
  384MOL0     C52889   5.461   6.407   3.423 -0.0870  0.0017 -0.3317
  384MOL0     O52890   5.512   6.437   3.550  0.2688 -0.8037  0.5371
  384MOL0     C52891   5.490   6.567   3.599 -0.0008 -0.2684  0.5445
  384MOL0     C52892   5.503   6.597   3.747  0.5419 -0.4740 -0.0445
  384MOL0     C52893   5.640   6.599   3.805  0.3747 -0.5413  1.0396
  384MOL0     C52894   5.630   6.647   3.946 -0.1369 -0.0368 -1.2902
  384MOL0     C52895   5.765   6.629   4.021 -0.1825  0.0739  0.2995
  384MOL0     C52896   5.783   6.693   4.164 -0.5876  0.0931 -0.6993
  384MOL0     C52897   5.904   6.647   4.242  0.2351 -0.5885  0.0752
  384MOL0     C52898   6.036   6.642   4.156 -0.1133  0.2894  0.3050
  384MOL0    Cl52899   6.138   6.526   4.249 -0.5151  0.2160  0.3827
  384MOL0     C52900   5.429   6.506   3.327  0.0384  1.4600 -0.4227
  384MOL0     C52901   5.402   6.461   3.194  0.0456  0.7884  0.4365
  384MOL0     O52902   5.610   6.306   2.998  0.3330 -0.0135 -1.3957
  384MOL0     C52903   5.581   6.336   2.718  0.7724 -0.7652  0.0554
  384MOL0     C52904   5.593   6.316   2.579 -1.3787  0.8014 -0.4125
  384MOL0     N52905   5.264   6.115   1.954  0.3890  0.1756  0.5112
  384MOL0     N52906   5.140   6.154   1.973 -0.4781 -0.1130 -0.3405
  384MOL0     C52907   5.051   6.672   3.081 -0.1589  0.3866  1.2866
  384MOL0     C52908   5.041   6.694   3.218 -0.7393  0.6996  0.3243
  384MOL0     C52909   4.894   6.866   3.607  0.3306 -0.0777 -0.0881
  384MOL0     C52910   4.957   6.974   3.673  0.7849  0.8869 -0.7995
  384MOL0     C52911   4.929   6.987   3.816 -0.4250 -0.6988  0.6538
  384MOL0     C52912   4.858   6.896   3.889 -0.3861  0.0941 -0.0857
  384MOL0     O52913   4.843   6.939   4.021 -0.2749 -0.7901  0.0699
  384MOL0     C52914   4.806   6.845   4.119 -0.1213 -0.6089 -0.0909
  384MOL0     C52915   4.913   6.739   4.131 -0.4026  0.0358  0.3605
  384MOL0     C52916   4.873   6.642   4.236  0.2134  0.4776 -0.1832
  384MOL0     C52917   4.750   6.556   4.205 -0.4032  0.1149  0.9021
  384MOL0     C52918   4.768   6.483   4.073  0.1315 -0.8944  0.6984
  384MOL0     C52919   4.784   6.423   3.964 -0.9262 -0.8528 -0.0664
  384MOL0     C52920   4.807   6.786   3.823  0.1331 -0.0146  0.6844
  384MOL0     C52921   4.820   6.775   3.684  0.3997  0.0759  0.7109
  384MOL0     C52922   4.741   6.669   3.627  1.0524  0.8928 -0.5244
  384MOL0     H52923   4.691   6.706   3.224 -0.3609 -1.8012 -0.9583
  384MOL0     H52924   4.725   6.680   2.986  0.7522 -0.9037 -1.1461
  384MOL0     H52925   5.142   6.527   2.847  1.3109 -1.2105 -3.2344
  384MOL0     H52926   5.122   6.692   2.811  0.8967 -0.8769  2.3433
  384MOL0     H52927   4.979   6.472   2.627  0.8026 -0.9644 -0.0291
  384MOL0     H52928   4.990   6.651   2.607  2.3284  3.2534  4.4289
  384MOL0     H52929   5.248   6.600   2.621 -0.3770  0.8153  0.7012
  384MOL0     H52930   5.193   6.431   2.581  4.0445  0.4061  1.0150
  384MOL0     H52931   5.146   6.660   2.412  1.0666 -0.8855  0.5342
  384MOL0     H52932   5.274   6.544   2.395  0.0683 -0.4084 -0.1245
  384MOL0     H52933   4.975   6.459   2.397  1.4541 -0.3048  3.6090
  384MOL0     H52934   5.110   6.351   2.392 -0.5122 -2.8468 -3.7685
  384MOL0     H52935   5.075   6.574   2.183 -0.0577  0.6397 -0.4749
  384MOL0     H52936   5.198   6.453   2.179 -1.2618  1.5355 -0.5035
  384MOL0     H52937   5.020   6.389   2.024 -0.5116 -4.2079 -0.4319
  384MOL0     H52938   4.891   6.414   2.153 -0.3556 -1.1743  2.1173
  384MOL0     H52939   4.983   6.220   2.260  1.6504  0.1717 -0.6954
  384MOL0     H52940   4.907   6.192   2.103  1.0848 -2.0148 -0.4995
  384MOL0     H52941   5.255   6.135   2.277  0.2154 -1.6144 -0.3181
  384MOL0     H52942   5.499   5.961   2.057 -0.3043  2.0193 -1.1006
  384MOL0     H52943   5.459   6.027   2.215  2.3256  0.6796  0.4187
  384MOL0     H52944   5.669   6.126   2.127 -0.1254 -1.8877  1.0063
  384MOL0     H52945   5.586   6.166   1.972  0.2190 -0.6540  0.4552
  384MOL0     H52946   5.617   6.384   2.106  0.2887  0.6918  0.7319
  384MOL0     H52947   5.443   6.336   2.133  0.3662  0.5673 -0.4096
  384MOL0     H52948   5.674   6.309   2.315  0.4956  2.1472 -0.4745
  384MOL0     H52949   5.530   6.422   2.325 -0.5809 -0.9668  1.2110
  384MOL0     H52950   5.298   6.161   2.536 -0.7425 -0.2221  0.3798
  384MOL0     H52951   5.139   6.237   2.768 -1.3845  0.2194  3.3798
  384MOL0     H52952   5.232   6.172   2.897 -2.9190 -2.0085  0.7286
  384MOL0     H52953   5.212   6.070   2.758  1.0832  0.8294  0.0504
  384MOL0     H52954   5.407   6.128   3.247 -1.4509  0.0960  1.2147
  384MOL0     H52955   5.476   6.197   3.457  1.4150 -0.5545 -0.8186
  384MOL0     H52956   5.554   6.634   3.541 -0.2048 -0.1273  0.4782
  384MOL0     H52957   5.388   6.604   3.581  0.4925  3.6406  4.2025
  384MOL0     H52958   5.466   6.699   3.757  0.5055  0.1905 -4.6320
  384MOL0     H52959   5.441   6.525   3.802  0.8717 -0.7973 -0.0871
  384MOL0     H52960   5.712   6.659   3.747 -0.5429 -0.2950  0.1233
  384MOL0     H52961   5.688   6.501   3.799 -1.9320 -2.0653  4.7093
  384MOL0     H52962   5.558   6.588   4.003 -1.2406  4.0350  2.1123
  384MOL0     H52963   5.596   6.751   3.945 -1.6066 -0.1521  4.0124
  384MOL0     H52964   5.792   6.523   4.015 -2.5724 -0.5173 -2.7512
  384MOL0     H52965   5.840   6.675   3.955  1.0676 -2.4513 -0.1759
  384MOL0     H52966   5.695   6.654   4.215  1.8255 -1.3385  2.7706
  384MOL0     H52967   5.782   6.802   4.149 -1.7569  0.5109  1.8724
  384MOL0     H52968   5.887   6.549   4.287  0.5648 -0.1209  1.2476
  384MOL0     H52969   5.917   6.719   4.323 -1.5719 -0.5753  0.3924
  384MOL0     H52970   6.089   6.738   4.154  2.4508 -1.0343 -1.8771
  384MOL0     H52971   6.028   6.611   4.051  0.9849 -0.3721  0.4083
  384MOL0     H52972   5.428   6.614   3.339  2.2051  1.5953 -1.0356
  384MOL0     H52973   5.405   6.536   3.116  0.9026  0.7187  0.3940
  384MOL0     H52974   5.661   6.388   2.770 -0.8809  0.2881  1.6808
  384MOL0     H52975   5.683   6.354   2.531  0.5743  1.1325  3.2034
  384MOL0     H52976   5.149   6.629   3.062 -0.5380 -1.6297  3.4238
  384MOL0     H52977   5.120   6.685   3.292 -0.9144 -2.8160  0.2281
  384MOL0     H52978   5.026   7.043   3.625  0.1179  3.3471  1.5180
  384MOL0     H52979   4.976   7.061   3.879 -0.5421  1.7129 -1.9037
  384MOL0     H52980   4.791   6.895   4.215 -3.2954 -1.2111 -0.1464
  384MOL0     H52981   4.709   6.802   4.094  0.2035 -1.5257  0.2004
  384MOL0     H52982   5.007   6.784   4.164 -0.4906 -0.4396  1.2987
  384MOL0     H52983   4.924   6.697   4.031 -0.9099 -1.9321  1.0693
  384MOL0     H52984   4.960   6.577   4.247 -1.1369 -1.4555 -0.4974
  384MOL0     H52985   4.859   6.686   4.335  1.1612  0.4032 -0.0056
  384MOL0     H52986   4.662   6.619   4.189 -0.6039  0.0642  1.7517
  384MOL0     H52987   4.733   6.480   4.282  1.4260 -2.0335 -0.6701
  384MOL0     H52988   4.797   6.377   3.868 -1.2199  2.0417 -1.6109
  384MOL0     H52989   4.746   6.709   3.869 -1.2753 -1.4227 -3.1199
  384MOL0     H52990   4.704   6.594   3.697  2.4866 -2.0092 -2.6637
  384MOL0     H52991   4.661   6.703   3.561  1.3856 -0.4218 -1.6475
  384MOL0     H52992   4.802   6.606   3.562  1.1659  2.0925 -1.6248
  385MOL0     O52993  10.817   3.049   1.268 -0.3124 -0.2892 -0.1082
  385MOL0     C52994  10.843   3.172   1.294 -0.6920 -0.3342 -0.0024
  385MOL0     O52995  10.747   3.266   1.288  0.2749  0.2311 -0.7633
  385MOL0     C52996  10.620   3.235   1.274 -0.4182 -0.3950 -0.1034
  385MOL0     C52997  10.534   3.251   1.382  0.0301  0.3682  0.7768
  385MOL0     C52998  10.397   3.217   1.369 -0.1859 -0.3593  0.8762
  385MOL0     C52999  10.337   3.187   1.242  0.3238 -1.2750  1.5842
  385MOL0     O53000  10.207   3.155   1.208 -0.4918  0.4956 -0.1810
  385MOL0     C53001  10.144   3.062   1.311 -0.6513  1.2656 -0.3643
  385MOL0     C53002  10.195   2.921   1.277 -0.3874 -0.4866  0.4056
  385MOL0     C53003  10.118   2.807   1.358 -0.3253 -0.0852  0.0119
  385MOL0     C53004  10.169   2.669   1.338  1.3830 -0.4160  0.2921
  385MOL0     C53005  10.294   2.652   1.418 -1.4005  0.8774  0.5903
  385MOL0     C53006  10.347   2.505   1.439  0.1377 -0.3757 -0.5699
  385MOL0     C53007  10.486   2.512   1.506  0.3958  0.3600 -1.0162
  385MOL0     C53008  10.556   2.370   1.528  1.4764 -0.2344 -0.5096
  385MOL0     N53009  10.582   2.312   1.393 -0.4993  0.9914  0.2499
  385MOL0     C53010  10.702   2.308   1.330  0.3066 -0.2061  0.9950
  385MOL0     C53011  10.674   2.237   1.217  0.0228  0.1368  0.1653
  385MOL0     C53012  10.774   2.233   1.090 -0.5015 -0.4951 -0.1337
  385MOL0     C53013  10.750   2.359   1.009  0.0885  0.1865  0.2443
  385MOL0     C53014  10.851   2.369   0.896 -1.1269 -0.2343 -0.2597
  385MOL0     C53015  10.824   2.481   0.795  0.2418 -0.2295  0.3429
  385MOL0     O53016  10.829   2.607   0.866 -0.0382 -0.3556  0.2781
  385MOL0     C53017  10.818   2.719   0.792  0.0694 -0.6610 -0.7483
  385MOL0     C53018  10.836   2.832   0.861  0.1117 -0.3016 -0.2179
  385MOL0     C53019  10.826   2.961   0.805  0.6635 -0.4646  1.1891
  385MOL0     C53020  10.848   3.086   0.899  0.1586  1.0317 -0.9302
  385MOL0     C53021  10.803   2.967   0.661 -0.0848  0.9840 -0.0289
  385MOL0     C53022  10.774   3.097   0.578  0.8848  0.4992  0.3293
  385MOL0     O53023  10.729   3.083   0.449 -0.6674 -0.6813  0.0204
  385MOL0     C53024  10.687   3.197   0.374 -0.5160 -0.7139 -0.9902
  385MOL0     C53025  10.553   3.228   0.369 -0.4165  0.0577 -1.5481
  385MOL0     C53026  10.509   3.348   0.300 -0.5750  0.1246 -0.4854
  385MOL0     C53027  10.594   3.420   0.218 -1.2506  0.2834 -0.6504
  385MOL0     O53028  10.563   3.528   0.144  0.0889  0.5475 -0.5968
  385MOL0     C53029  10.426   3.528   0.091 -0.5755 -0.2606 -0.9677
  385MOL0     C53030  10.424   3.610  -0.036 -0.8276  0.0013 -0.3532
  385MOL0     C53031  10.275   3.626  -0.073 -0.3072  0.2753  0.4524
  385MOL0     C53032  10.253   3.707  -0.201 -0.0080 -0.1076 -0.5984
  385MOL0     C53033  10.115   3.768  -0.213  0.0747  0.0232  0.1631
  385MOL0     C53034  10.106   3.847  -0.338  0.0315 -0.2683  0.7446
  385MOL0     C53035   9.961   3.883  -0.364 -0.1431 -0.1519  0.6600
  385MOL0     C53036   9.939   3.947  -0.500 -0.4037  0.5990 -0.0404
  385MOL0    Cl53037   9.990   3.829  -0.624  0.9663 -0.0428 -0.0215
  385MOL0     C53038  10.732   3.380   0.226  0.1480 -0.5349  0.5231
  385MOL0     C53039  10.783   3.278   0.308 -0.4604  0.7277  0.2902
  385MOL0     O53040  10.778   3.206   0.640  0.0136 -0.1705 -0.1183
  385MOL0     C53041  10.785   2.845   0.591  0.1738  0.1508 -0.4850
  385MOL0     C53042  10.800   2.726   0.657  0.0287  0.5438  0.4439
  385MOL0     N53043  10.543   2.204   1.206  0.2276  0.8293  0.5275
  385MOL0     N53044  10.493   2.240   1.314 -0.4687 -0.8935 -0.0939
  385MOL0     C53045  10.432   3.175   1.133 -0.0374 -0.8575 -0.6705
  385MOL0     C53046  10.564   3.202   1.148  0.0481  0.9146 -0.4653
  385MOL0     C53047  10.979   3.225   1.316 -0.4801 -0.3716 -0.5784
  385MOL0     C53048  10.993   3.357   1.357  0.6228 -0.2074  0.1742
  385MOL0     C53049  11.114   3.407   1.398  0.8435  1.1319 -0.1386
  385MOL0     C53050  11.225   3.317   1.415 -0.2768 -0.9080  0.0995
  385MOL0     O53051  11.351   3.339   1.450 -0.2813  0.3880 -1.0692
  385MOL0     C53052  11.400   3.471   1.462 -0.1385  0.0284 -0.3262
  385MOL0     C53053  11.359   3.540   1.595 -0.6420  0.4378 -0.2926
  385MOL0     C53054  11.469   3.645   1.630 -0.0814 -0.1846 -0.2458
  385MOL0     C53055  11.432   3.753   1.728  0.6517  1.1312  0.5841
  385MOL0     C53056  11.399   3.701   1.854 -0.5993 -0.5043 -1.1849
  385MOL0     C53057  11.354   3.677   1.961  0.2545  0.0572 -1.1705
  385MOL0     C53058  11.212   3.189   1.378 -0.3997 -0.2849 -0.3372
  385MOL0     C53059  11.101   3.146   1.316 -0.0512 -0.3371  0.0443
  385MOL0     C53060  11.104   3.003   1.259 -0.7135 -0.8820  0.1726
  385MOL0     H53061  10.576   3.282   1.477  0.3182 -1.4551  1.2777
  385MOL0     H53062  10.337   3.217   1.460  1.4327  1.6809  2.0333
  385MOL0     H53063  10.035   3.064   1.302 -0.7986 -0.2214  0.7312
  385MOL0     H53064  10.171   3.109   1.406 -1.5731  0.3344  0.3827
  385MOL0     H53065  10.186   2.904   1.169  2.4610 -2.6155  0.3856
  385MOL0     H53066  10.303   2.910   1.291  0.6194  0.2858 -4.8033
  385MOL0     H53067  10.126   2.833   1.464  0.6079  1.2928 -0.3576
  385MOL0     H53068  10.013   2.809   1.329  0.4072 -0.9762 -2.9867
  385MOL0     H53069  10.096   2.593   1.368  0.0211  0.8337  0.2581
  385MOL0     H53070  10.201   2.658   1.234 -1.5377  3.4809 -1.2454
  385MOL0     H53071  10.298   2.690   1.520 -0.2103  1.4960  0.3412
  385MOL0     H53072  10.366   2.712   1.360 -2.2262  2.6102  1.3137
  385MOL0     H53073  10.279   2.449   1.503  0.3055  0.6873  0.5815
  385MOL0     H53074  10.350   2.454   1.343  2.6459 -3.1319  0.8117
  385MOL0     H53075  10.490   2.564   1.602  0.0271 -0.4399 -0.5614
  385MOL0     H53076  10.543   2.569   1.432  2.8772 -2.7959 -1.7169
  385MOL0     H53077  10.653   2.389   1.576  2.5297  2.4917 -3.3407
  385MOL0     H53078  10.495   2.306   1.591  0.4258 -0.4867 -1.7441
  385MOL0     H53079  10.794   2.362   1.348  1.1396 -1.1701 -0.2190
  385MOL0     H53080  10.760   2.146   1.026  2.0797 -1.4189  0.4040
  385MOL0     H53081  10.875   2.237   1.133 -0.0751 -2.4758 -0.8483
  385MOL0     H53082  10.655   2.354   0.955 -0.3262 -0.7443  1.0139
  385MOL0     H53083  10.762   2.453   1.064  1.3861 -0.4901  1.1859
  385MOL0     H53084  10.955   2.384   0.926 -0.2721 -1.3481 -2.4211
  385MOL0     H53085  10.858   2.274   0.842 -0.9359  0.5872 -1.7231
  385MOL0     H53086  10.900   2.478   0.717 -1.5283 -2.2876 -1.4476
  385MOL0     H53087  10.730   2.462   0.742 -0.4697  0.3060  1.3763
  385MOL0     H53088  10.841   2.824   0.969  0.1310 -0.3724 -0.2243
  385MOL0     H53089  10.756   3.144   0.889  0.9908  2.2783 -1.6286
  385MOL0     H53090  10.930   3.151   0.869  2.9506 -0.6934  2.2831
  385MOL0     H53091  10.876   3.047   0.997 -2.2175  1.5043  0.0161
  385MOL0     H53092  10.494   3.161   0.432  0.4033  0.0029 -0.8205
  385MOL0     H53093  10.403   3.374   0.302 -0.3557  1.0058  0.4213
  385MOL0     H53094  10.393   3.427   0.064  3.6060 -1.5280 -2.0311
  385MOL0     H53095  10.370   3.581   0.169 -0.5260 -2.6668  0.8181
  385MOL0     H53096  10.479   3.704  -0.023  1.7850 -1.4699 -0.2252
  385MOL0     H53097  10.477   3.549  -0.110  1.9731  0.5096  1.0980
  385MOL0     H53098  10.222   3.691  -0.002 -2.9659  1.6808 -2.5890
  385MOL0     H53099  10.221   3.533  -0.092  0.5004  0.1366 -1.3031
  385MOL0     H53100  10.264   3.634  -0.282  2.2726 -2.0129  1.3140
  385MOL0     H53101  10.320   3.794  -0.200 -0.1883  0.0454  1.0872
  385MOL0     H53102  10.047   3.682  -0.215  1.8075 -1.3770 -0.8208
  385MOL0     H53103  10.084   3.832  -0.130 -0.0820 -1.8715  1.6488
  385MOL0     H53104  10.136   3.785  -0.422  4.0290  1.2334  0.8695
  385MOL0     H53105  10.184   3.922  -0.330  1.2240 -1.1285 -1.7990
  385MOL0     H53106   9.934   3.960  -0.291 -0.0113  0.8410 -0.3042
  385MOL0     H53107   9.900   3.793  -0.369  0.8661 -0.8171  0.2020
  385MOL0     H53108  10.011   4.029  -0.496  0.8595 -0.3655 -1.8087
  385MOL0     H53109   9.839   3.987  -0.516 -0.1363  1.2474 -0.1472
  385MOL0     H53110  10.820   3.417   0.175  0.9575 -1.6597  1.0604
  385MOL0     H53111  10.882   3.233   0.311 -2.9050 -5.6485  1.8949
  385MOL0     H53112  10.779   2.845   0.482  3.5845  2.1944 -0.8007
  385MOL0     H53113  10.786   2.637   0.595  3.4049  2.7502 -4.0443
  385MOL0     H53114  10.397   3.162   1.031  0.1524 -1.1435 -0.6979
  385MOL0     H53115  10.630   3.192   1.062  2.2186  1.4158  1.0398
  385MOL0     H53116  10.912   3.429   1.366 -0.5537 -1.1108 -2.4291
  385MOL0     H53117  11.114   3.510   1.433 -2.0668  1.0616  0.2591
  385MOL0     H53118  11.510   3.466   1.459 -0.0878 -1.6969  1.6765
  385MOL0     H53119  11.358   3.525   1.377 -1.4474 -2.2152 -1.1933
  385MOL0     H53120  11.352   3.469   1.678 -1.4184  2.4176  1.4655
  385MOL0     H53121  11.262   3.590   1.588  0.9994  3.7489 -1.5324
  385MOL0     H53122  11.551   3.588   1.672  2.2138  3.3228  0.4742
  385MOL0     H53123  11.496   3.692   1.535 -0.0746  2.6688  1.0673
  385MOL0     H53124  11.337   3.774   1.677  1.5430  1.9841 -0.8223
  385MOL0     H53125  11.490   3.846   1.722  0.2139  1.4066  0.4978
  385MOL0     H53126  11.310   3.660   2.057 -0.4556  0.3702 -1.4343
  385MOL0     H53127  11.302   3.129   1.387 -0.4692 -1.2157 -4.2590
  385MOL0     H53128  11.202   2.958   1.277 -0.8490 -0.4124  2.2430
  385MOL0     H53129  11.033   2.933   1.303 -1.5909  0.3839  0.8285
  385MOL0     H53130  11.098   3.018   1.150 -0.1985 -1.4585  0.0587
  386MOL0     O53131   9.241   7.221   7.692  0.8987 -0.5318  0.0423
  386MOL0     C53132   9.191   7.234   7.804 -0.6357  0.3314  0.5755
  386MOL0     O53133   9.232   7.176   7.914 -0.9196  0.0824  0.5129
  386MOL0     C53134   9.359   7.138   7.919 -0.5056  0.3668 -0.4667
  386MOL0     C53135   9.469   7.212   7.868  0.1295  0.0338  0.1378
  386MOL0     C53136   9.600   7.171   7.882 -0.7104 -0.3511  0.3874
  386MOL0     C53137   9.628   7.040   7.930 -0.6762  0.1141 -1.3012
  386MOL0     O53138   9.754   6.981   7.925  0.0862 -0.0872 -0.5800
  386MOL0     C53139   9.797   6.886   8.031 -0.0452 -0.3259  0.4593
  386MOL0     C53140   9.901   6.951   8.114  0.0957  0.5611  0.1193
  386MOL0     C53141   9.863   7.085   8.185  0.0115 -0.6023  0.0249
  386MOL0     C53142   9.752   7.079   8.278 -0.3527 -1.2857 -0.6824
  386MOL0     C53143   9.752   7.197   8.382 -1.1243 -0.2455  0.3047
  386MOL0     C53144   9.658   7.173   8.494 -0.5586  0.2859 -1.1642
  386MOL0     C53145   9.679   7.269   8.617  0.2552  0.5752  0.7338
  386MOL0     C53146   9.655   7.192   8.749 -0.3028  1.6196  0.0744
  386MOL0     N53147   9.790   7.131   8.788  0.3066  1.2461 -0.0869
  386MOL0     C53148   9.893   7.200   8.836 -1.4235 -0.1890  0.0688
  386MOL0     C53149   9.977   7.106   8.883 -1.1070  0.2951 -1.1416
  386MOL0     C53150  10.095   7.138   8.971  1.3386  0.3143 -0.3266
  386MOL0     C53151  10.062   7.149   9.121 -0.7723 -0.1229 -0.3296
  386MOL0     C53152  10.017   7.006   9.176 -1.7830 -0.0826  0.3316
  386MOL0     C53153  10.019   7.014   9.325  0.3631 -1.1074  0.2028
  386MOL0     O53154   9.975   6.889   9.389 -0.4186  0.9839  0.2010
  386MOL0     C53155   9.841   6.866   9.404 -0.3614 -0.5488  0.0677
  386MOL0     C53156   9.803   6.747   9.477 -0.0227  0.5830 -0.3733
  386MOL0     C53157   9.673   6.710   9.490  0.7487 -0.5165  0.0517
  386MOL0     C53158   9.643   6.600   9.588 -0.3429  0.8260 -0.0275
  386MOL0     C53159   9.568   6.778   9.419 -0.7516  0.6737  0.2489
  386MOL0     C53160   9.424   6.736   9.434 -0.2170 -0.1404 -0.3714
  386MOL0     O53161   9.353   6.831   9.360  0.1453  0.2750  1.3204
  386MOL0     C53162   9.226   6.814   9.327 -0.3283 -0.3184 -0.4754
  386MOL0     C53163   9.189   6.725   9.231 -0.6867 -0.5957  0.6570
  386MOL0     C53164   9.050   6.708   9.202 -1.1170 -0.5741 -0.3250
  386MOL0     C53165   8.955   6.766   9.278 -0.6353 -0.6540  0.0609
  386MOL0     O53166   8.827   6.740   9.241  0.0087  0.3654  0.4778
  386MOL0     C53167   8.719   6.763   9.339  1.0503 -0.0114  0.2565
  386MOL0     C53168   8.585   6.711   9.283 -0.2916 -0.4329 -0.6179
  386MOL0     C53169   8.474   6.709   9.384 -0.3778 -0.0020 -0.5538
  386MOL0     C53170   8.421   6.848   9.424 -0.2185  0.8173 -0.1694
  386MOL0     C53171   8.317   6.827   9.536  1.3759 -0.1449  0.4470
  386MOL0     C53172   8.183   6.764   9.490 -0.4897 -1.4197  0.5578
  386MOL0     C53173   8.099   6.747   9.616 -0.2555  0.0112 -0.1307
  386MOL0     C53174   7.952   6.738   9.561  0.5623  0.6191 -0.6375
  386MOL0    Cl53175   7.928   6.611   9.433  0.1177 -0.3822 -0.1556
  386MOL0     C53176   8.998   6.860   9.377 -0.0930 -1.1178  0.4483
  386MOL0     C53177   9.139   6.896   9.390  0.8066  0.0521 -0.0335
  386MOL0     O53178   9.375   6.634   9.486  0.0910 -0.5096  0.3247
  386MOL0     C53179   9.603   6.893   9.353 -0.6849 -0.5577  0.0884
  386MOL0     C53180   9.738   6.938   9.345 -0.3554  0.3386  0.4957
  386MOL0     N53181   9.918   6.978   8.866  0.1244 -0.0091 -0.1596
  386MOL0     N53182   9.808   6.993   8.802  0.0108 -0.1450 -0.1560
  386MOL0     C53183   9.514   6.957   7.969  0.6105  0.0457 -0.5356
  386MOL0     C53184   9.383   7.015   7.979  0.2982 -0.7551  1.4299
  386MOL0     C53185   9.070   7.328   7.809  1.0476 -0.1022 -0.2124
  386MOL0     C53186   8.981   7.333   7.698  0.9656 -0.1592 -0.1434
  386MOL0     C53187   8.875   7.424   7.690 -0.5704  0.4018  0.4677
  386MOL0     C53188   8.846   7.495   7.801 -0.0557  0.6224 -1.7855
  386MOL0     O53189   8.745   7.580   7.795 -0.0660  0.4490  0.1366
  386MOL0     C53190   8.738   7.679   7.693 -0.2672  0.3400  0.4946
  386MOL0     C53191   8.603   7.729   7.678  0.4245 -0.8704  0.3731
  386MOL0     C53192   8.549   7.791   7.814  0.1320  0.5095  0.7527
  386MOL0     C53193   8.425   7.872   7.814 -0.3227  0.1021  0.8088
  386MOL0     C53194   8.389   7.934   7.942 -0.3699  1.0287  0.1923
  386MOL0     C53195   8.358   7.965   8.049  0.0912  0.3749 -0.1144
  386MOL0     C53196   8.925   7.499   7.923 -1.2662  0.4948  0.1387
  386MOL0     C53197   9.043   7.412   7.919  0.5572 -0.5218 -1.3855
  386MOL0     C53198   9.137   7.430   8.030  0.2289 -0.8609  0.8128
  386MOL0     H53199   9.449   7.314   7.839 -0.3857 -0.2736 -0.5932
  386MOL0     H53200   9.675   7.242   7.850 -2.1940  0.9978 -0.2704
  386MOL0     H53201   9.835   6.797   7.980  0.3068 -0.0563  0.2492
  386MOL0     H53202   9.718   6.867   8.105  1.8909  3.3256  3.8811
  386MOL0     H53203   9.938   6.881   8.189 -0.4923  2.2023  2.0381
  386MOL0     H53204   9.989   6.956   8.050  0.6914  0.8101  0.9461
  386MOL0     H53205   9.961   7.111   8.226 -0.0973  0.8589 -0.5872
  386MOL0     H53206   9.841   7.164   8.113  0.5161 -0.9759 -0.5532
  386MOL0     H53207   9.668   7.090   8.209 -0.1689  2.6090 -0.4854
  386MOL0     H53208   9.746   6.992   8.344  0.1733  0.4304  1.7792
  386MOL0     H53209   9.725   7.285   8.323  1.8361 -0.3987 -1.4742
  386MOL0     H53210   9.851   7.202   8.429 -0.3421  0.5885 -1.3364
  386MOL0     H53211   9.557   7.193   8.458 -0.9056 -0.0042 -0.3842
  386MOL0     H53212   9.652   7.069   8.529 -3.1263  0.3634 -1.2043
  386MOL0     H53213   9.614   7.356   8.615 -1.2237 -0.4994 -0.6183
  386MOL0     H53214   9.786   7.293   8.626  0.6659 -0.9839  0.2912
  386MOL0     H53215   9.629   7.257   8.834 -3.7737  1.3103 -0.5676
  386MOL0     H53216   9.576   7.117   8.742 -1.3756  2.4456  2.2616
  386MOL0     H53217   9.908   7.306   8.816  0.8503  0.2718  3.4290
  386MOL0     H53218  10.130   7.234   8.933 -2.4254  2.8252  1.8110
  386MOL0     H53219  10.169   7.058   8.966  0.8172 -0.2506  0.6543
  386MOL0     H53220  10.147   7.187   9.179  0.6342  1.3369 -3.1086
  386MOL0     H53221   9.988   7.226   9.143 -2.0540 -1.9411  2.1844
  386MOL0     H53222   9.914   6.985   9.146 -0.9290 -4.6490 -0.0727
  386MOL0     H53223  10.084   6.925   9.148 -0.1235  2.0358 -2.2718
  386MOL0     H53224  10.116   7.044   9.364  0.2892  1.6257 -1.4106
  386MOL0     H53225   9.958   7.098   9.360  0.1869 -1.3913  0.5802
  386MOL0     H53226   9.886   6.699   9.527  0.9365 -1.5622 -3.6905
  386MOL0     H53227   9.583   6.635   9.672 -0.5033 -3.7285  2.0341
  386MOL0     H53228   9.733   6.549   9.624 -1.0101 -0.4916 -0.1953
  386MOL0     H53229   9.592   6.522   9.532  1.9614 -2.6873  2.3381
  386MOL0     H53230   9.260   6.659   9.182 -2.7866 -3.1574  0.8417
  386MOL0     H53231   9.024   6.638   9.123  3.4070 -3.4584  0.3954
  386MOL0     H53232   8.745   6.728   9.439 -0.0695  0.0710  0.5992
  386MOL0     H53233   8.724   6.872   9.328  2.0565 -0.1337 -0.6031
  386MOL0     H53234   8.552   6.769   9.195 -2.0795 -0.0844  0.2306
  386MOL0     H53235   8.610   6.610   9.249  3.1175  0.5176 -1.3548
  386MOL0     H53236   8.523   6.650   9.462  0.4085 -1.5394 -2.1547
  386MOL0     H53237   8.397   6.646   9.339  1.3241 -2.4996 -0.1752
  386MOL0     H53238   8.393   6.910   9.339  0.5757  0.4819 -0.6846
  386MOL0     H53239   8.492   6.918   9.470 -0.7042  2.4493 -1.7857
  386MOL0     H53240   8.368   6.786   9.624  1.7002  0.6786  0.6584
  386MOL0     H53241   8.289   6.929   9.563  1.1723 -0.7686  2.7996
  386MOL0     H53242   8.205   6.667   9.443  2.3070  0.2777 -2.0021
  386MOL0     H53243   8.143   6.833   9.416  3.0876 -0.2780 -0.5194
  386MOL0     H53244   8.117   6.831   9.684  0.2751 -0.5516  0.4403
  386MOL0     H53245   8.129   6.664   9.680 -0.8002 -1.8781 -2.2173
  386MOL0     H53246   7.916   6.836   9.526 -2.1683  0.6684  1.9205
  386MOL0     H53247   7.881   6.723   9.642 -1.1317  2.0419 -1.7730
  386MOL0     H53248   8.932   6.929   9.429  0.3389  0.0481 -0.4816
  386MOL0     H53249   9.164   6.985   9.448 -1.9239  0.6521  0.3631
  386MOL0     H53250   9.533   6.957   9.301 -0.4083 -0.7564 -0.5349
  386MOL0     H53251   9.754   7.019   9.275  1.3857 -1.2928 -1.1076
  386MOL0     H53252   9.517   6.855   8.006  1.6538  0.7352  1.3998
  386MOL0     H53253   9.294   6.976   8.026  0.1828  0.3168  2.1503
  386MOL0     H53254   8.985   7.256   7.621 -0.9371 -2.5111  1.9502
  386MOL0     H53255   8.817   7.419   7.598  1.0281  1.1960 -0.6363
  386MOL0     H53256   8.800   7.760   7.732  1.0657 -1.0187  1.2834
  386MOL0     H53257   8.780   7.648   7.596 -2.3370 -2.9914  0.4859
  386MOL0     H53258   8.543   7.656   7.624  3.9554 -1.2001 -3.6375
  386MOL0     H53259   8.607   7.811   7.607 -1.3967 -0.5895  0.5614
  386MOL0     H53260   8.533   7.699   7.871 -1.2948  1.2204  1.5474
  386MOL0     H53261   8.633   7.849   7.852 -0.0960  1.0994  0.3620
  386MOL0     H53262   8.347   7.800   7.788 -0.4599  1.2662 -2.5067
  386MOL0     H53263   8.437   7.954   7.742 -1.5039  0.0422  0.5221
  386MOL0     H53264   8.325   8.003   8.144 -2.7874  2.8681 -1.9618
  386MOL0     H53265   8.900   7.573   7.998 -0.4029  1.2046 -0.2584
  386MOL0     H53266   9.235   7.437   7.983 -1.0172 -1.2651 -2.0111
  386MOL0     H53267   9.127   7.527   8.079  0.2793 -0.2708 -0.3292
  386MOL0     H53268   9.126   7.354   8.109 -0.6297  1.0172  2.6051
  387MOL0     O53269   2.372   3.541   3.173 -0.1789  0.0644 -0.2951
  387MOL0     C53270   2.364   3.450   3.087  0.4449  0.8762 -0.2780
  387MOL0     O53271   2.252   3.406   3.018 -0.3273  0.2516 -0.5808
  387MOL0     C53272   2.144   3.489   3.044  0.2337 -0.0275  0.2378
  387MOL0     C53273   2.084   3.506   3.170 -0.9164 -0.5837  0.8042
  387MOL0     C53274   1.966   3.578   3.176 -0.2157 -0.4507  1.7606
  387MOL0     C53275   1.906   3.639   3.065 -0.5706  0.8626  0.2672
  387MOL0     O53276   1.780   3.702   3.083 -0.2988 -0.4146  0.3610
  387MOL0     C53277   1.731   3.796   2.982  0.3388  0.3410 -0.3724
  387MOL0     C53278   1.603   3.856   3.039  0.2592 -0.4619 -0.4133
  387MOL0     C53279   1.496   3.911   2.938 -0.1099 -0.6308  0.0177
  387MOL0     C53280   1.536   4.034   2.849  0.3445 -0.1220  0.1939
  387MOL0     C53281   1.426   4.088   2.754  0.0668  0.5626 -0.0906
  387MOL0     C53282   1.466   4.209   2.666  0.2890 -0.5731  0.0218
  387MOL0     C53283   1.355   4.246   2.566  0.1160  1.1935  0.2647
  387MOL0     C53284   1.420   4.335   2.465 -0.9379 -0.6795 -0.7833
  387MOL0     N53285   1.416   4.469   2.517  0.5465 -0.5093 -0.3416
  387MOL0     C53286   1.307   4.548   2.536 -0.1535  0.0310  0.6996
  387MOL0     C53287   1.341   4.654   2.603 -0.0695  0.6377 -0.3152
  387MOL0     C53288   1.248   4.763   2.651 -0.0152 -0.0310  0.0983
  387MOL0     C53289   1.309   4.893   2.710 -0.6917  1.0016 -0.2595
  387MOL0     C53290   1.190   4.993   2.728 -0.6004 -0.9007 -0.8091
  387MOL0     C53291   1.250   5.122   2.807  0.2501 -0.3805  0.0487
  387MOL0     O53292   1.260   5.092   2.945  0.2716  0.7602 -0.0917
  387MOL0     C53293   1.259   5.185   3.041 -0.3640  0.6708  0.0020
  387MOL0     C53294   1.294   5.144   3.167 -0.0707 -0.4005  0.0855
  387MOL0     C53295   1.285   5.240   3.266 -0.4687 -0.7167  0.0769
  387MOL0     C53296   1.316   5.189   3.402 -0.3509  0.9601 -0.1399
  387MOL0     C53297   1.260   5.374   3.252 -0.9122  0.4416  0.3517
  387MOL0     C53298   1.258   5.482   3.352 -0.0697 -0.5099  0.0172
  387MOL0     O53299   1.300   5.610   3.317 -0.9147 -0.6768 -0.0349
  387MOL0     C53300   1.355   5.681   3.420  1.1699  0.0358  0.0948
  387MOL0     C53301   1.468   5.631   3.483 -0.0205 -0.4431  0.0416
  387MOL0     C53302   1.500   5.696   3.602 -0.0796  0.0808 -0.3194
  387MOL0     C53303   1.437   5.811   3.652  0.5289  0.7380 -0.2740
  387MOL0     O53304   1.475   5.842   3.784  0.2441  0.0653  0.7516
  387MOL0     C53305   1.379   5.910   3.865  0.3055  0.2119 -0.2159
  387MOL0     C53306   1.437   5.914   4.005  0.5825  0.4116 -0.5246
  387MOL0     C53307   1.413   5.790   4.096  0.6843  0.4509  0.4540
  387MOL0     C53308   1.498   5.797   4.222 -0.0162 -1.2393 -0.1725
  387MOL0     C53309   1.464   5.678   4.320  0.1778  0.2972 -0.1902
  387MOL0     C53310   1.546   5.683   4.438 -0.8051 -0.1077  0.6761
  387MOL0     C53311   1.606   5.547   4.489 -0.0796 -0.0512 -0.8550
  387MOL0     C53312   1.722   5.498   4.403 -0.0510 -0.5397  0.0737
  387MOL0    Cl53313   1.743   5.320   4.391  0.3359 -0.1458  0.1230
  387MOL0     C53314   1.327   5.861   3.584 -0.1082  0.3244 -0.6815
  387MOL0     C53315   1.284   5.793   3.464  0.2262 -0.0488 -0.6694
  387MOL0     O53316   1.206   5.447   3.458 -0.1894 -0.4127  1.2005
  387MOL0     C53317   1.223   5.414   3.121  0.2386  0.3761 -0.5407
  387MOL0     C53318   1.227   5.317   3.021  1.5285 -0.1741  0.2716
  387MOL0     N53319   1.473   4.647   2.645 -0.0161 -0.8119  0.5642
  387MOL0     N53320   1.512   4.534   2.601  0.3740  0.2844 -0.6377
  387MOL0     C53321   1.973   3.630   2.936 -0.1194 -0.0861 -0.2093
  387MOL0     C53322   2.095   3.552   2.927 -0.1293 -0.3016  0.0533
  387MOL0     C53323   2.480   3.359   3.096 -0.9446  0.6925  0.3411
  387MOL0     C53324   2.496   3.258   2.997 -0.1763  0.0997  0.6055
  387MOL0     C53325   2.598   3.164   2.994  0.7688  1.1293 -0.6465
  387MOL0     C53326   2.688   3.156   3.090  0.5730  0.3398  0.0374
  387MOL0     O53327   2.771   3.047   3.087  1.1081 -0.9687  0.3508
  387MOL0     C53328   2.851   3.020   3.204 -0.5565  0.2428 -0.8152
  387MOL0     C53329   2.779   2.972   3.327 -0.5322  0.3358  0.3783
  387MOL0     C53330   2.874   2.917   3.430 -0.4881  0.0377 -0.2899
  387MOL0     C53331   2.803   2.931   3.569 -0.5285  0.4028 -0.1319
  387MOL0     C53332   2.901   2.894   3.672 -0.5875  0.2295  0.2434
  387MOL0     C53333   2.976   2.830   3.750 -0.2010  0.4387  0.1415
  387MOL0     C53334   2.680   3.255   3.188 -0.0696  0.2203 -0.3318
  387MOL0     C53335   2.580   3.354   3.197  0.0802 -0.2922  0.6589
  387MOL0     C53336   2.602   3.464   3.300 -0.2625 -0.5130 -1.0867
  387MOL0     H53337   2.127   3.455   3.255  1.5763  3.2102  2.0731
  387MOL0     H53338   1.902   3.586   3.264 -3.9408 -2.0548 -0.5750
  387MOL0     H53339   1.706   3.743   2.889 -0.2526 -1.1088  0.5712
  387MOL0     H53340   1.799   3.880   2.968  2.8437 -1.6450 -0.6902
  387MOL0     H53341   1.561   3.769   3.090  0.8330  0.2338  1.3281
  387MOL0     H53342   1.618   3.931   3.117  1.7440 -0.9482 -0.1979
  387MOL0     H53343   1.475   3.825   2.874  1.7540 -1.6692  0.7483
  387MOL0     H53344   1.406   3.929   2.998  1.3344  1.2863  1.7660
  387MOL0     H53345   1.547   4.111   2.926 -4.2615  0.3949  0.5775
  387MOL0     H53346   1.631   4.020   2.796  0.7100  2.8046 -0.1119
  387MOL0     H53347   1.360   4.112   2.838  2.4415  1.6251  1.5695
  387MOL0     H53348   1.395   4.007   2.687 -1.0006 -0.8067  1.9426
  387MOL0     H53349   1.483   4.302   2.721  0.0083  1.1106 -2.5664
  387MOL0     H53350   1.561   4.187   2.616 -0.0372  0.0930 -0.9108
  387MOL0     H53351   1.269   4.288   2.621 -0.2824 -0.5670  1.0336
  387MOL0     H53352   1.321   4.160   2.508  2.3692  1.0476 -0.9509
  387MOL0     H53353   1.520   4.301   2.435 -1.1432 -0.1181 -2.2159
  387MOL0     H53354   1.358   4.329   2.375 -2.2537 -3.6090  0.1785
  387MOL0     H53355   1.206   4.520   2.506  0.0192  1.1446 -1.1135
  387MOL0     H53356   1.192   4.716   2.733  0.5338  2.4013  1.9743
  387MOL0     H53357   1.176   4.791   2.573 -0.4509 -0.9206  0.1587
  387MOL0     H53358   1.342   4.865   2.811 -2.4461 -0.0022  0.0728
  387MOL0     H53359   1.383   4.950   2.653  0.4586  2.1278  2.1822
  387MOL0     H53360   1.158   5.029   2.630 -0.9208 -4.2877 -2.0789
  387MOL0     H53361   1.104   4.954   2.783 -0.2624  1.7822  1.8996
  387MOL0     H53362   1.350   5.144   2.771  0.6464 -2.2952 -0.1110
  387MOL0     H53363   1.176   5.200   2.783 -0.4517 -0.8954  0.4930
  387MOL0     H53364   1.309   5.038   3.190 -0.2589 -0.5930 -0.6615
  387MOL0     H53365   1.377   5.098   3.401 -1.0966  0.4437 -0.8549
  387MOL0     H53366   1.221   5.164   3.449 -0.5016 -0.4489 -1.1014
  387MOL0     H53367   1.369   5.254   3.472 -3.2324  1.8301  1.3821
  387MOL0     H53368   1.524   5.548   3.441  2.1156  0.5321  0.8536
  387MOL0     H53369   1.579   5.656   3.664  0.3059  3.8621  1.9352
  387MOL0     H53370   1.363   6.009   3.821 -1.7795  0.6799  1.4263
  387MOL0     H53371   1.278   5.867   3.867 -0.4615  1.9933  2.0896
  387MOL0     H53372   1.546   5.925   4.013  0.6063 -0.8463  2.3745
  387MOL0     H53373   1.393   5.995   4.064 -2.7670  0.0388 -2.3054
  387MOL0     H53374   1.446   5.695   4.052 -0.7371 -0.5241  1.3813
  387MOL0     H53375   1.308   5.781   4.125  0.0221 -6.4129 -2.1257
  387MOL0     H53376   1.474   5.890   4.274  4.4241  0.2761 -0.4247
  387MOL0     H53377   1.605   5.792   4.197 -0.5244  0.6909 -3.2069
  387MOL0     H53378   1.359   5.665   4.349 -0.8074  2.4922 -2.4728
  387MOL0     H53379   1.478   5.584   4.265  0.6898  1.0888 -1.4474
  387MOL0     H53380   1.471   5.701   4.516 -0.9630 -3.5090  1.5056
  387MOL0     H53381   1.626   5.758   4.436  0.9905 -1.6348 -5.3484
  387MOL0     H53382   1.521   5.479   4.497 -0.4305  0.3293 -1.3475
  387MOL0     H53383   1.638   5.551   4.593 -0.9533 -4.1782 -0.2533
  387MOL0     H53384   1.817   5.540   4.439 -0.8556  2.0202 -0.5570
  387MOL0     H53385   1.706   5.534   4.301  1.3797 -0.7912 -0.2637
  387MOL0     H53386   1.267   5.937   3.633  0.6696 -0.4479  1.5654
  387MOL0     H53387   1.193   5.830   3.419 -1.5266 -1.1262  1.7499
  387MOL0     H53388   1.206   5.518   3.096  3.2093  0.7886 -1.1824
  387MOL0     H53389   1.192   5.367   2.932 -3.0064  1.5504  2.7187
  387MOL0     H53390   1.956   3.689   2.846  3.0215  2.6354  0.7716
  387MOL0     H53391   2.134   3.544   2.827 -2.3614  5.0262 -1.6006
  387MOL0     H53392   2.419   3.251   2.921  1.0524 -2.3794 -0.5195
  387MOL0     H53393   2.614   3.105   2.904  4.9242 -0.1179  0.6873
  387MOL0     H53394   2.921   2.947   3.163 -1.7603  1.0739 -4.7672
  387MOL0     H53395   2.914   3.105   3.233  0.5128 -1.3748  2.0346
  387MOL0     H53396   2.711   2.889   3.308  1.5761 -1.3332 -0.2936
  387MOL0     H53397   2.727   3.065   3.351 -0.3542  1.2231 -2.3488
  387MOL0     H53398   2.917   2.819   3.408  1.5883  1.2092 -1.7697
  387MOL0     H53399   2.956   2.987   3.447 -0.7818  0.1599  0.7151
  387MOL0     H53400   2.722   2.859   3.586  1.4952 -1.5747  1.8828
  387MOL0     H53401   2.772   3.033   3.593 -2.6328  0.0825 -1.2181
  387MOL0     H53402   3.042   2.781   3.819  3.0204  4.8220  0.5874
  387MOL0     H53403   2.752   3.250   3.269  0.0267 -0.3814 -0.4496
  387MOL0     H53404   2.625   3.560   3.252  2.7344  0.6510  2.2529
  387MOL0     H53405   2.513   3.460   3.365 -0.4594 -1.8665 -1.4096
  387MOL0     H53406   2.693   3.437   3.354 -0.7478 -1.8578 -0.9129
  388MOL0     O53407   2.795   7.898   3.832 -0.2451 -0.6414 -0.5103
  388MOL0     C53408   2.899   7.832   3.824 -0.1046  0.9509 -0.1373
  388MOL0     O53409   2.988   7.822   3.712 -0.3268  0.3889 -0.6251
  388MOL0     C53410   2.944   7.882   3.594 -0.2190 -0.4565 -0.7103
  388MOL0     C53411   3.013   7.997   3.539  0.7414 -0.5813  1.0163
  388MOL0     C53412   2.962   8.049   3.421  0.3763  0.4566 -0.5807
  388MOL0     C53413   2.841   8.007   3.365  0.3193  0.4086 -0.0553
  388MOL0     O53414   2.789   8.067   3.253  0.0100 -0.4925  0.0073
  388MOL0     C53415   2.883   8.087   3.148  0.7921  0.1183  0.1618
  388MOL0     C53416   2.815   8.110   3.012  0.4210 -0.6235  1.2009
  388MOL0     C53417   2.912   8.114   2.890 -0.6250 -0.5332 -0.0197
  388MOL0     C53418   2.996   8.237   2.870 -0.1000 -0.8765 -0.2734
  388MOL0     C53419   3.023   8.276   2.720  0.8647  0.8942 -1.0779
  388MOL0     C53420   3.107   8.407   2.707  0.8563 -0.3224 -0.1357
  388MOL0     C53421   3.107   8.469   2.564  0.2233  0.6381  0.1396
  388MOL0     C53422   3.230   8.561   2.571 -0.2152 -1.2681  0.3741
  388MOL0     N53423   3.220   8.665   2.469  0.6036 -0.5738  0.2324
  388MOL0     C53424   3.183   8.632   2.341  0.3987  0.5411 -0.3086
  388MOL0     C53425   3.168   8.746   2.277  0.6123 -1.4179 -1.1092
  388MOL0     C53426   3.119   8.765   2.136  0.6917 -0.6403 -0.5482
  388MOL0     C53427   3.052   8.898   2.117 -0.6752  0.3412  0.8260
  388MOL0     C53428   2.926   8.911   2.192  0.0250  0.2386  0.8779
  388MOL0     C53429   2.838   9.019   2.140 -0.5238 -0.2710  0.0748
  388MOL0     O53430   2.723   9.055   2.216  0.3433  0.1627  0.0452
  388MOL0     C53431   2.623   8.970   2.211 -0.0590 -0.1584  0.4148
  388MOL0     C53432   2.623   8.857   2.128  0.3169 -0.3921 -0.4531
  388MOL0     C53433   2.514   8.762   2.136 -0.4236 -0.7749 -0.2738
  388MOL0     C53434   2.507   8.661   2.025  0.6701  0.8058 -0.7173
  388MOL0     C53435   2.405   8.788   2.222  0.2468 -0.0356  0.7231
  388MOL0     C53436   2.292   8.690   2.237  0.1862  0.0209 -0.2012
  388MOL0     O53437   2.194   8.737   2.320  0.8541  0.0264  0.7476
  388MOL0     C53438   2.095   8.648   2.352  0.6830  0.5267  0.4923
  388MOL0     C53439   2.121   8.536   2.426 -0.7258 -0.1887 -0.2611
  388MOL0     C53440   2.026   8.439   2.457 -0.4073 -0.7515 -0.1227
  388MOL0     C53441   1.889   8.491   2.446 -1.0177  0.9205  1.2713
  388MOL0     O53442   1.774   8.434   2.496  0.1122 -0.4310 -0.8119
  388MOL0     C53443   1.786   8.308   2.563  0.5239  1.1064 -0.0785
  388MOL0     C53444   1.829   8.311   2.710 -0.3307  0.1577  0.8176
  388MOL0     C53445   1.725   8.243   2.803 -0.3298 -0.2554 -0.2597
  388MOL0     C53446   1.751   8.261   2.946 -0.2005  0.5268  0.1517
  388MOL0     C53447   1.856   8.162   2.991  0.2426  0.0545  0.3122
  388MOL0     C53448   1.847   8.132   3.144 -0.5505  0.0832  0.6688
  388MOL0     C53449   1.845   8.268   3.232  0.4267  0.0488  0.4658
  388MOL0     C53450   1.773   8.274   3.371 -0.2362 -0.1223 -0.3240
  388MOL0    Cl53451   1.600   8.268   3.347  0.0665 -0.1878 -0.5326
  388MOL0     C53452   1.860   8.605   2.382 -1.1106 -0.6775  1.2624
  388MOL0     C53453   1.959   8.673   2.317 -0.5008  0.8421 -0.0916
  388MOL0     O53454   2.301   8.578   2.196 -0.3638 -0.3084 -0.5825
  388MOL0     C53455   2.407   8.909   2.292 -0.5186 -0.2061  0.1158
  388MOL0     C53456   2.510   8.996   2.290 -0.5947 -0.0949 -1.0804
  388MOL0     N53457   3.220   8.844   2.353  0.1828 -0.3009  0.1754
  388MOL0     N53458   3.230   8.798   2.475 -0.9267 -0.2045  0.8117
  388MOL0     C53459   2.766   7.908   3.425  0.9056  0.4814 -0.3303
  388MOL0     C53460   2.822   7.845   3.536 -0.3028 -0.1365  0.4303
  388MOL0     C53461   2.936   7.757   3.943  0.9979  0.8601 -0.1561
  388MOL0     C53462   2.982   7.621   3.924  0.6162  0.8177  0.5618
  388MOL0     C53463   3.052   7.557   4.027 -0.2046  0.7030 -0.0380
  388MOL0     C53464   3.062   7.628   4.150 -0.9987  1.1461  0.8369
  388MOL0     O53465   3.131   7.573   4.249 -0.0680  0.2943  0.4086
  388MOL0     C53466   3.264   7.555   4.220  0.0999  0.3164  1.1815
  388MOL0     C53467   3.338   7.521   4.335  0.2842 -0.5012  0.2790
  388MOL0     C53468   3.344   7.642   4.435  0.3817 -0.2880  0.4119
  388MOL0     C53469   3.443   7.626   4.551 -0.3055  0.2956  0.0459
  388MOL0     C53470   3.574   7.687   4.517  0.1926 -0.0138 -0.7485
  388MOL0     C53471   3.683   7.740   4.482 -0.3283 -0.5200  1.1514
  388MOL0     C53472   3.000   7.751   4.167 -0.2720 -0.6767 -1.1011
  388MOL0     C53473   2.926   7.819   4.069  0.0011  1.1509  0.1617
  388MOL0     C53474   2.859   7.939   4.098 -0.0407  0.4401  0.0839
  388MOL0     H53475   3.095   8.036   3.597  0.7054  0.5986  0.2998
  388MOL0     H53476   3.010   8.134   3.373 -0.1306 -1.0791 -4.1036
  388MOL0     H53477   2.941   7.995   3.138 -0.6127 -0.5654 -3.0767
  388MOL0     H53478   2.957   8.162   3.177  4.6926 -3.0026 -0.9535
  388MOL0     H53479   2.743   8.030   2.990 -2.0650  1.4956  1.1409
  388MOL0     H53480   2.753   8.200   3.011 -1.5202 -1.8726 -1.2325
  388MOL0     H53481   2.982   8.030   2.903 -0.4543 -0.1427  1.8290
  388MOL0     H53482   2.855   8.104   2.797 -0.2086  0.9974 -0.4657
  388MOL0     H53483   2.929   8.309   2.917 -3.3849 -3.4149 -0.6333
  388MOL0     H53484   3.086   8.233   2.932  1.4542  2.3846 -2.0832
  388MOL0     H53485   2.929   8.279   2.663  0.2142  1.3578 -0.0133
  388MOL0     H53486   3.085   8.203   2.666  2.0352  1.6123 -0.7334
  388MOL0     H53487   3.063   8.470   2.784 -1.8444 -0.8833 -1.0980
  388MOL0     H53488   3.207   8.372   2.733 -0.2032 -2.2342  1.6860
  388MOL0     H53489   3.015   8.519   2.532 -1.0955 -0.6630  1.7122
  388MOL0     H53490   3.120   8.397   2.482 -3.6448 -2.5234  1.9237
  388MOL0     H53491   3.246   8.612   2.666  1.1636  3.7599 -2.2117
  388MOL0     H53492   3.316   8.496   2.551 -0.8381 -1.3733 -2.4835
  388MOL0     H53493   3.177   8.530   2.304 -2.6573 -0.1989  1.8404
  388MOL0     H53494   3.058   8.680   2.103 -1.8205  1.5033 -1.8595
  388MOL0     H53495   3.201   8.750   2.065 -2.7288 -0.3995 -5.0288
  388MOL0     H53496   3.116   8.982   2.147 -2.3281  1.1824  2.1553
  388MOL0     H53497   3.033   8.909   2.010 -2.2153 -1.6032  0.8517
  388MOL0     H53498   2.869   8.818   2.197 -0.0819  0.1819 -0.7876
  388MOL0     H53499   2.953   8.926   2.297  2.6823 -4.7827  1.2044
  388MOL0     H53500   2.896   9.112   2.132 -0.0884 -0.3888  1.4598
  388MOL0     H53501   2.804   9.006   2.037  0.0222  3.2324 -0.6848
  388MOL0     H53502   2.698   8.837   2.052 -1.6833 -0.1283 -2.5840
  388MOL0     H53503   2.579   8.691   1.948 -0.3507  1.2083 -1.5278
  388MOL0     H53504   2.410   8.649   1.976  1.4624 -2.3275 -1.7207
  388MOL0     H53505   2.531   8.563   2.065  0.1839  0.9663 -0.0194
  388MOL0     H53506   2.223   8.507   2.447 -0.6694 -0.2101 -0.5549
  388MOL0     H53507   2.050   8.355   2.521 -0.9864  0.3472  1.6217
  388MOL0     H53508   1.688   8.261   2.551  0.5210  1.3400 -1.0913
  388MOL0     H53509   1.855   8.247   2.504 -0.1225  0.5689 -0.2898
  388MOL0     H53510   1.926   8.266   2.733  0.1906  0.4293 -0.7353
  388MOL0     H53511   1.827   8.416   2.740 -4.7805 -0.2962  2.9976
  388MOL0     H53512   1.713   8.140   2.769  0.5745  0.1484 -1.9435
  388MOL0     H53513   1.630   8.292   2.781 -0.5987 -0.3229  0.7165
  388MOL0     H53514   1.659   8.246   3.002  1.0354 -0.6451  1.9577
  388MOL0     H53515   1.785   8.364   2.958  3.0826 -0.2678 -1.2391
  388MOL0     H53516   1.847   8.064   2.943  2.7790 -0.4681  0.7562
  388MOL0     H53517   1.956   8.197   2.966 -0.2386 -0.4793 -2.6763
  388MOL0     H53518   1.920   8.062   3.184  0.4228  0.3922 -0.5081
  388MOL0     H53519   1.750   8.085   3.166  1.0858 -2.4674  3.1091
  388MOL0     H53520   1.817   8.346   3.160  0.1003 -1.2982 -0.9312
  388MOL0     H53521   1.946   8.303   3.252  0.5154 -1.0346  2.1190
  388MOL0     H53522   1.786   8.365   3.431 -1.9312 -0.5093  0.6939
  388MOL0     H53523   1.798   8.182   3.425  1.6960 -1.2558 -2.9644
  388MOL0     H53524   1.756   8.635   2.373 -0.7583  0.2599 -0.0924
  388MOL0     H53525   1.945   8.762   2.256  1.9034  1.9526  0.8514
  388MOL0     H53526   2.333   8.923   2.370 -3.0894  0.4093 -2.2606
  388MOL0     H53527   2.517   9.080   2.359 -1.9418 -1.1680  0.4254
  388MOL0     H53528   2.667   7.885   3.389  0.5048  4.7444 -2.6515
  388MOL0     H53529   2.763   7.774   3.592  2.0787 -1.2850  1.6353
  388MOL0     H53530   2.984   7.575   3.826 -2.3036  1.2223  0.2341
  388MOL0     H53531   3.106   7.465   4.006 -1.0830  0.0914  0.3096
  388MOL0     H53532   3.275   7.478   4.143 -0.6149  2.1530 -0.8530
  388MOL0     H53533   3.309   7.642   4.173  4.2390 -2.2250 -0.1496
  388MOL0     H53534   3.443   7.493   4.329  1.7996  3.5663  2.9863
  388MOL0     H53535   3.287   7.445   4.395  1.7390  0.4813  2.9579
  388MOL0     H53536   3.376   7.729   4.376 -3.1132  1.6733  1.1167
  388MOL0     H53537   3.242   7.657   4.473  0.2796 -0.4541  0.2000
  388MOL0     H53538   3.458   7.518   4.554 -2.5814 -0.0606  0.3079
  388MOL0     H53539   3.402   7.667   4.644 -0.6447  4.9903 -1.8869
  388MOL0     H53540   3.771   7.775   4.430 -2.4944  2.6260 -0.7431
  388MOL0     H53541   3.008   7.797   4.264 -1.1258 -1.1637 -0.7865
  388MOL0     H53542   2.901   7.976   4.192 -0.2078 -1.8632  1.1387
  388MOL0     H53543   2.880   8.026   4.035 -0.5163  0.4940 -0.0029
  388MOL0     H53544   2.750   7.932   4.111 -0.0629  0.6568  0.0089
  389MOL0     O53545  11.391   1.252   6.006 -0.1178  0.7650  0.5911
  389MOL0     C53546  11.324   1.344   5.963  0.8903 -0.2311  0.7932
  389MOL0     O53547  11.246   1.429   6.044 -0.8176  0.5038 -0.2175
  389MOL0     C53548  11.267   1.444   6.181  0.9989  0.4124  0.8974
  389MOL0     C53549  11.391   1.449   6.227 -0.6447 -0.5606  0.4708
  389MOL0     C53550  11.421   1.470   6.357  0.3701  0.3016 -0.0707
  389MOL0     C53551  11.313   1.481   6.451  1.1225  0.3305  0.1014
  389MOL0     O53552  11.339   1.510   6.579  0.6905 -0.8750 -0.1344
  389MOL0     C53553  11.468   1.551   6.630 -0.1032 -0.5830  0.3105
  389MOL0     C53554  11.453   1.608   6.771  0.3705 -0.2599  0.3722
  389MOL0     C53555  11.588   1.666   6.820 -0.7279 -0.6566 -0.3676
  389MOL0     C53556  11.574   1.705   6.967  0.2535 -0.1840 -0.0303
  389MOL0     C53557  11.526   1.851   7.004  0.7341 -1.1050 -0.1825
  389MOL0     C53558  11.593   1.973   6.927 -0.3129  0.4932  0.4880
  389MOL0     C53559  11.571   2.119   6.965 -0.1255  0.8077 -0.5267
  389MOL0     C53560  11.429   2.164   6.954 -0.0403  1.2310  0.6225
  389MOL0     N53561  11.415   2.297   7.009  0.5212 -0.6929 -0.5212
  389MOL0     C53562  11.512   2.396   7.007 -0.1748  0.2902 -0.5237
  389MOL0     C53563  11.468   2.490   7.089 -0.1316  0.1981 -0.5052
  389MOL0     C53564  11.547   2.619   7.113  0.5687  0.2055  0.4622
  389MOL0     C53565  11.501   2.720   7.001  0.4074  0.3672  0.6689
  389MOL0     C53566  11.351   2.748   7.005  0.1162 -0.6650 -0.0471
  389MOL0     C53567  11.326   2.871   6.906 -0.4104  0.3848  0.8241
  389MOL0     O53568  11.335   2.822   6.765  0.2346 -0.0228  0.0828
  389MOL0     C53569  11.373   2.925   6.683 -0.3618 -0.2126  0.3269
  389MOL0     C53570  11.299   3.046   6.657 -0.7027  0.0092  0.2120
  389MOL0     C53571  11.316   3.144   6.563 -0.6141 -0.5036  0.5295
  389MOL0     C53572  11.226   3.255   6.533  0.2396 -0.4134  0.0195
  389MOL0     C53573  11.436   3.123   6.491 -0.3122  0.5908 -0.7347
  389MOL0     C53574  11.472   3.198   6.370 -0.8911 -0.2035  0.5945
  389MOL0     O53575  11.598   3.258   6.373 -0.2618 -0.5010 -0.2839
  389MOL0     C53576  11.620   3.350   6.272  0.2457 -0.0043 -0.1207
  389MOL0     C53577  11.660   3.314   6.147 -0.8461 -0.1489 -0.3207
  389MOL0     C53578  11.677   3.417   6.052 -0.0613 -0.0963  0.4161
  389MOL0     C53579  11.660   3.549   6.079  0.6584  0.2195  0.8344
  389MOL0     O53580  11.668   3.643   5.990  0.1238 -0.6500  0.0940
  389MOL0     C53581  11.801   3.656   5.951 -0.5552  0.3026  0.0169
  389MOL0     C53582  11.825   3.604   5.807 -0.6338  0.8499 -0.0510
  389MOL0     C53583  11.746   3.687   5.708 -0.3296 -0.4320  1.3693
  389MOL0     C53584  11.633   3.621   5.629  0.2363 -0.4516 -0.3492
  389MOL0     C53585  11.528   3.706   5.555  0.0912  0.1213  0.1356
  389MOL0     C53586  11.586   3.790   5.435  0.3352  0.6450  0.0671
  389MOL0     C53587  11.465   3.871   5.380 -0.9674 -0.1541 -0.0810
  389MOL0     C53588  11.351   3.799   5.296 -0.2996 -0.0913 -0.1258
  389MOL0    Cl53589  11.432   3.739   5.141 -0.8124 -0.4442  0.1737
  389MOL0     C53590  11.635   3.582   6.207 -0.4432  0.7596 -0.1771
  389MOL0     C53591  11.601   3.486   6.295 -1.2306  1.0428 -0.7246
  389MOL0     O53592  11.393   3.211   6.280  0.0097 -0.0649  0.1908
  389MOL0     C53593  11.520   3.014   6.514 -0.2232  0.9430 -0.0599
  389MOL0     C53594  11.490   2.920   6.609  0.0130 -0.7424  0.7393
  389MOL0     N53595  11.339   2.456   7.140  0.0210 -0.2552 -0.5283
  389MOL0     N53596  11.314   2.337   7.085  0.2646 -0.2792 -0.1128
  389MOL0     C53597  11.186   1.475   6.407 -0.3650  0.6518 -0.6013
  389MOL0     C53598  11.156   1.459   6.270 -0.1143  0.4910 -0.5299
  389MOL0     C53599  11.339   1.391   5.819 -0.1075  0.4947 -0.6235
  389MOL0     C53600  11.268   1.510   5.775  0.7627  0.1292  0.9889
  389MOL0     C53601  11.270   1.552   5.646  0.4160 -0.8965 -1.0360
  389MOL0     C53602  11.360   1.496   5.562  0.4871  0.3216 -0.8092
  389MOL0     O53603  11.379   1.520   5.433 -0.4758  0.1980  0.1362
  389MOL0     C53604  11.292   1.610   5.367 -1.1875 -0.9694  1.6005
  389MOL0     C53605  11.333   1.648   5.226  0.3440 -0.2293 -0.0059
  389MOL0     C53606  11.464   1.737   5.226  0.3784 -0.3097  0.1787
  389MOL0     C53607  11.528   1.746   5.091 -0.4076  0.5994  0.0641
  389MOL0     C53608  11.624   1.638   5.074 -0.3654 -0.2690 -0.0703
  389MOL0     C53609  11.702   1.547   5.060  0.6636 -0.7510 -1.2840
  389MOL0     C53610  11.443   1.383   5.603 -0.1481 -0.8839  0.0346
  389MOL0     C53611  11.434   1.333   5.733  0.6031  0.4090  0.3170
  389MOL0     C53612  11.537   1.225   5.779 -0.3035  0.3197  0.5590
  389MOL0     H53613  11.476   1.441   6.161 -2.0976 -0.3350 -1.5369
  389MOL0     H53614  11.524   1.480   6.391 -0.5201  2.2374  2.2687
  389MOL0     H53615  11.500   1.630   6.562 -1.8025 -0.4304 -0.3322
  389MOL0     H53616  11.538   1.466   6.631  1.1740  0.4233  2.0310
  389MOL0     H53617  11.380   1.689   6.770  1.4781  0.7978  1.0785
  389MOL0     H53618  11.430   1.527   6.841  4.0450 -0.7526  1.2695
  389MOL0     H53619  11.667   1.596   6.792 -0.4384 -0.0707 -1.0592
  389MOL0     H53620  11.614   1.758   6.767  0.5308 -0.1368  1.1027
  389MOL0     H53621  11.519   1.632   7.028  0.2030  1.8041  2.4460
  389MOL0     H53622  11.674   1.704   7.009  0.5823  4.0247 -0.3370
  389MOL0     H53623  11.543   1.868   7.111 -0.5785  1.5038 -0.3133
  389MOL0     H53624  11.419   1.870   6.992  1.1663  1.9574 -0.0006
  389MOL0     H53625  11.698   1.946   6.938 -0.6908 -2.4730 -1.8891
  389MOL0     H53626  11.568   1.963   6.820 -1.3611 -1.3247  0.8513
  389MOL0     H53627  11.646   2.179   6.912  0.0064 -0.1505 -1.4750
  389MOL0     H53628  11.597   2.137   7.070  0.4840 -1.7278 -0.1671
  389MOL0     H53629  11.399   2.158   6.849  0.4499  0.9790  0.4898
  389MOL0     H53630  11.359   2.095   7.002 -0.0636  0.9793  0.2296
  389MOL0     H53631  11.608   2.392   6.957  0.8480  1.7643  1.2080
  389MOL0     H53632  11.653   2.602   7.093  0.0918 -0.0361 -2.1732
  389MOL0     H53633  11.527   2.649   7.216 -1.2982 -0.5711  0.3651
  389MOL0     H53634  11.557   2.810   7.028  0.2863  0.1044  1.8635
  389MOL0     H53635  11.542   2.700   6.902 -0.6884  0.3461  0.2011
  389MOL0     H53636  11.291   2.659   6.984 -0.6590 -0.7656  2.2775
  389MOL0     H53637  11.332   2.780   7.108  0.6795  0.1538 -0.1890
  389MOL0     H53638  11.227   2.914   6.927  0.2738  1.3712  2.1959
  389MOL0     H53639  11.398   2.952   6.920  0.8979 -0.7547  0.8487
  389MOL0     H53640  11.202   3.047   6.706 -0.7080 -0.6158  0.2234
  389MOL0     H53641  11.136   3.236   6.593 -0.9885  3.0660 -0.4992
  389MOL0     H53642  11.197   3.273   6.429 -0.6276 -0.7036  0.1987
  389MOL0     H53643  11.266   3.346   6.579  0.7070 -0.2461 -0.7079
  389MOL0     H53644  11.679   3.211   6.116  3.2868  0.9868 -2.3433
  389MOL0     H53645  11.691   3.386   5.949 -0.8986 -2.5122  0.9621
  389MOL0     H53646  11.830   3.760   5.932  0.7878 -0.5631 -3.3196
  389MOL0     H53647  11.871   3.601   6.015 -1.8149 -1.4720 -0.0843
  389MOL0     H53648  11.930   3.617   5.778 -1.4300  1.8007 -2.8148
  389MOL0     H53649  11.805   3.498   5.790 -1.4806  1.1235 -0.8279
  389MOL0     H53650  11.819   3.704   5.628 -1.0381  0.3172  0.8592
  389MOL0     H53651  11.710   3.784   5.742  0.3534  1.2014 -2.1190
  389MOL0     H53652  11.577   3.572   5.709  0.8124 -0.2960  0.1601
  389MOL0     H53653  11.668   3.540   5.565  0.4564  0.0018 -0.8194
  389MOL0     H53654  11.459   3.637   5.506  1.2283 -1.9963  1.3615
  389MOL0     H53655  11.469   3.762   5.628 -2.0723  0.4578 -1.7463
  389MOL0     H53656  11.622   3.724   5.356 -0.0359  1.1994 -0.5802
  389MOL0     H53657  11.671   3.852   5.465  0.0329  1.9643 -1.6523
  389MOL0     H53658  11.499   3.957   5.321 -0.7028  2.3448  3.4343
  389MOL0     H53659  11.418   3.907   5.472 -1.5214 -0.0282 -0.4086
  389MOL0     H53660  11.263   3.860   5.275 -0.0477  0.2020 -0.3425
  389MOL0     H53661  11.325   3.709   5.353  0.8645 -2.1377 -2.6096
  389MOL0     H53662  11.630   3.684   6.246  0.6959  1.3609 -1.5184
  389MOL0     H53663  11.583   3.500   6.401 -0.6481 -2.0188 -0.1261
  389MOL0     H53664  11.609   3.001   6.454 -0.6239 -0.1077 -0.4500
  389MOL0     H53665  11.563   2.841   6.626 -0.7795 -1.9460 -1.1130
  389MOL0     H53666  11.111   1.492   6.483 -0.8456 -1.0491 -0.6484
  389MOL0     H53667  11.061   1.458   6.217  0.4525 -1.9865 -1.6565
  389MOL0     H53668  11.195   1.563   5.836  0.8286  2.3586 -0.7284
  389MOL0     H53669  11.213   1.637   5.612 -1.0236 -2.2199 -2.0897
  389MOL0     H53670  11.190   1.573   5.361 -1.2487 -0.6175  0.1839
  389MOL0     H53671  11.285   1.703   5.424 -1.9252  0.8490 -1.2359
  389MOL0     H53672  11.269   1.707   5.158  2.3289 -1.2442 -2.9642
  389MOL0     H53673  11.346   1.551   5.178 -0.8240 -0.5787  0.3473
  389MOL0     H53674  11.433   1.836   5.261 -1.4085 -1.2404  1.4001
  389MOL0     H53675  11.537   1.700   5.299 -0.2178  1.1093  1.5552
  389MOL0     H53676  11.589   1.836   5.088  0.1126  0.2314 -1.3942
  389MOL0     H53677  11.457   1.745   5.008  1.1767 -0.8047 -1.3482
  389MOL0     H53678  11.779   1.472   5.059 -1.2116 -2.7966 -0.3254
  389MOL0     H53679  11.513   1.336   5.534  0.2239  1.2039 -1.1173
  389MOL0     H53680  11.588   1.229   5.876  3.4466 -3.3136 -0.9801
  389MOL0     H53681  11.477   1.133   5.779 -1.8374  1.2610  1.5957
  389MOL0     H53682  11.621   1.225   5.709  1.5983  1.1041  2.7151
  390MOL0     O53683   8.796   2.516   1.344  0.2738 -0.3226  0.2446
  390MOL0     C53684   8.912   2.478   1.366  0.6368  0.2195 -0.2569
  390MOL0     O53685   9.020   2.485   1.276 -0.0994  0.7123 -0.4867
  390MOL0     C53686   9.012   2.572   1.172  0.2610  0.0981  0.3820
  390MOL0     C53687   8.924   2.549   1.064  0.3288  0.1799  0.7082
  390MOL0     C53688   8.947   2.610   0.938  0.9865  0.6424 -0.1148
  390MOL0     C53689   9.047   2.704   0.927  0.0223  0.2972 -0.7283
  390MOL0     O53690   9.074   2.782   0.819 -0.7295 -0.1354  0.1238
  390MOL0     C53691   9.134   2.699   0.708  0.3154  0.1103  0.0280
  390MOL0     C53692   9.122   2.763   0.573  0.0291  1.2414 -0.0432
  390MOL0     C53693   9.187   2.902   0.577  0.0476 -0.1706 -0.3096
  390MOL0     C53694   9.169   2.990   0.446  0.7446  0.2606  0.8221
  390MOL0     C53695   9.259   3.101   0.445 -0.9212 -0.3331  0.4214
  390MOL0     C53696   9.227   3.172   0.313  0.4567 -0.5507  0.6379
  390MOL0     C53697   9.318   3.298   0.299  0.4081  0.0461  0.0889
  390MOL0     C53698   9.286   3.360   0.159  0.3442  0.2572 -0.2822
  390MOL0     N53699   9.140   3.405   0.163  0.8342  0.5070 -0.6006
  390MOL0     C53700   9.109   3.522   0.238 -0.1222 -0.2114  1.0600
  390MOL0     C53701   8.974   3.530   0.217  0.6953  0.4811  0.1431
  390MOL0     C53702   8.882   3.641   0.269 -1.3378  0.4561  0.5442
  390MOL0     C53703   8.920   3.692   0.405  0.7496 -0.4288 -0.6075
  390MOL0     C53704   8.854   3.835   0.426 -0.2422 -0.4962 -0.1771
  390MOL0     C53705   8.892   3.943   0.325  0.1315  0.7617  0.1518
  390MOL0     O53706   9.035   3.959   0.332 -0.6112 -0.1977 -0.0463
  390MOL0     C53707   9.091   4.012   0.218 -0.2684 -0.5966 -0.4001
  390MOL0     C53708   9.027   4.116   0.144 -0.2566  0.0761 -1.1494
  390MOL0     C53709   9.078   4.170   0.026  0.5342 -0.0822  0.5098
  390MOL0     C53710   8.982   4.262  -0.050 -0.2970 -0.0144 -0.0506
  390MOL0     C53711   9.198   4.122  -0.026  0.1491  1.1007  0.8619
  390MOL0     C53712   9.271   4.180  -0.143  0.0114 -0.1050 -0.0382
  390MOL0     O53713   9.354   4.104  -0.219  0.4705  0.4594 -0.2147
  390MOL0     C53714   9.372   4.146  -0.351  0.3434  0.2800  0.5946
  390MOL0     C53715   9.480   4.228  -0.394  0.0817  0.6617 -0.3700
  390MOL0     C53716   9.488   4.267  -0.528 -0.7468 -1.3468 -0.1400
  390MOL0     C53717   9.404   4.220  -0.621  0.0891 -1.0838 -0.1915
  390MOL0     O53718   9.423   4.264  -0.751 -0.1022  0.4500 -0.1772
  390MOL0     C53719   9.364   4.207  -0.869  0.5938 -0.1511  0.3855
  390MOL0     C53720   9.443   4.089  -0.928  0.3588 -0.6549  1.0011
  390MOL0     C53721   9.392   4.039  -1.067  0.8562 -0.4504 -0.2909
  390MOL0     C53722   9.453   3.909  -1.114  0.0420  1.1510 -0.3881
  390MOL0     C53723   9.595   3.877  -1.069 -0.5501  0.4344 -0.6351
  390MOL0     C53724   9.660   3.751  -1.126  0.4930  0.8028 -0.9852
  390MOL0     C53725   9.591   3.639  -1.044  0.8752  0.4329 -0.5576
  390MOL0     C53726   9.592   3.504  -1.116  0.7685  0.3455  0.4154
  390MOL0    Cl53727   9.552   3.382  -1.006 -0.0442 -0.2542 -0.4815
  390MOL0     C53728   9.294   4.147  -0.576 -0.3977 -0.4935  0.2050
  390MOL0     C53729   9.273   4.113  -0.442 -0.1363 -0.8464 -0.8457
  390MOL0     O53730   9.270   4.298  -0.153 -0.6609 -0.2666 -0.3806
  390MOL0     C53731   9.258   3.998   0.041  0.3615  0.6263  0.8927
  390MOL0     C53732   9.203   3.951   0.157 -0.0207  0.1730  0.6074
  390MOL0     N53733   8.930   3.422   0.141  0.2686  0.4278  0.0370
  390MOL0     N53734   9.024   3.346   0.110 -0.2887  0.3540  0.8833
  390MOL0     C53735   9.125   2.728   1.039 -0.5463  0.2716 -0.5147
  390MOL0     C53736   9.119   2.655   1.161  0.4403  0.0470  0.0984
  390MOL0     C53737   8.951   2.445   1.508  0.3887  0.0939 -0.4443
  390MOL0     C53738   9.077   2.474   1.556 -0.2269 -0.3021  0.3336
  390MOL0     C53739   9.111   2.465   1.693  0.2948 -0.4206  0.2207
  390MOL0     C53740   9.020   2.430   1.787 -0.4010  0.4328 -1.5282
  390MOL0     O53741   9.068   2.419   1.916 -0.9507  0.4421 -0.1493
  390MOL0     C53742   8.988   2.383   2.027 -0.9334  0.8377 -0.2187
  390MOL0     C53743   8.912   2.510   2.071 -0.1886 -1.1259  0.1688
  390MOL0     C53744   8.766   2.476   2.117 -0.6579  0.4151 -0.2114
  390MOL0     C53745   8.695   2.586   2.185  0.4379 -0.1952 -0.3810
  390MOL0     C53746   8.686   2.709   2.098 -0.3581 -0.7328  0.9236
  390MOL0     C53747   8.694   2.812   2.037 -0.4007 -1.0136 -0.8155
  390MOL0     C53748   8.892   2.402   1.746 -0.3255  0.1437 -0.0993
  390MOL0     C53749   8.853   2.411   1.612 -0.1711 -0.0151 -0.1078
  390MOL0     C53750   8.712   2.370   1.590  0.2148 -0.2490  0.1345
  390MOL0     H53751   8.835   2.491   1.086 -3.1832  4.8419  0.3983
  390MOL0     H53752   8.900   2.590   0.842  2.3889  1.1778 -0.9398
  390MOL0     H53753   9.085   2.603   0.698 -2.3368  1.5016 -1.3316
  390MOL0     H53754   9.240   2.696   0.737  0.2479  0.9458  0.3950
  390MOL0     H53755   9.183   2.701   0.508  2.1614  3.3726 -0.2272
  390MOL0     H53756   9.019   2.766   0.535  1.0449 -2.2738 -3.7279
  390MOL0     H53757   9.146   2.964   0.657  3.1113 -0.1137  1.3788
  390MOL0     H53758   9.296   2.891   0.572  0.3751  2.5448 -0.7135
  390MOL0     H53759   9.184   2.929   0.357 -0.7901 -0.3034  0.9225
  390MOL0     H53760   9.066   3.028   0.447  1.0844  1.3812 -1.2800
  390MOL0     H53761   9.365   3.079   0.456 -0.5123  1.7559  1.2447
  390MOL0     H53762   9.248   3.170   0.530  2.2443 -1.8473  2.2361
  390MOL0     H53763   9.249   3.110   0.226 -2.5670  1.0898 -1.4964
  390MOL0     H53764   9.119   3.192   0.306  0.6333 -0.1573 -1.5168
  390MOL0     H53765   9.426   3.282   0.299  0.6179  0.9170  2.8891
  390MOL0     H53766   9.299   3.363   0.385 -0.0183 -1.3611  1.1015
  390MOL0     H53767   9.348   3.446   0.132  0.0030  1.4774  2.4377
  390MOL0     H53768   9.300   3.283   0.084 -1.7676 -0.0352 -0.4405
  390MOL0     H53769   9.174   3.583   0.298  1.6085  0.6803 -1.5435
  390MOL0     H53770   8.782   3.596   0.260 -1.3445  0.4016  0.8963
  390MOL0     H53771   8.884   3.721   0.194 -4.6247  0.0234 -0.1940
  390MOL0     H53772   8.879   3.624   0.480  1.2377 -2.9894 -2.5234
  390MOL0     H53773   9.028   3.685   0.421  0.5152 -0.4483  1.0762
  390MOL0     H53774   8.747   3.816   0.417 -0.0983 -0.5099 -3.0936
  390MOL0     H53775   8.877   3.880   0.522 -2.5018  1.4980 -0.4781
  390MOL0     H53776   8.849   3.911   0.230 -2.0864  4.2680 -0.2314
  390MOL0     H53777   8.842   4.036   0.355 -2.1842 -0.5540  0.6021
  390MOL0     H53778   8.930   4.148   0.182  1.3854 -2.7653  7.7650
  390MOL0     H53779   8.911   4.291   0.028  0.0051 -2.3875  1.2023
  390MOL0     H53780   8.939   4.217  -0.140  1.7897  0.7544 -1.5192
  390MOL0     H53781   9.037   4.354  -0.073 -3.2879  2.3461  1.3790
  390MOL0     H53782   9.554   4.249  -0.317 -1.1492 -2.0564  1.7066
  390MOL0     H53783   9.574   4.327  -0.553 -1.6076  0.8898  1.8689
  390MOL0     H53784   9.265   4.168  -0.840 -0.5528  0.0594 -2.8806
  390MOL0     H53785   9.349   4.272  -0.956  0.3948 -0.5449  0.1225
  390MOL0     H53786   9.547   4.120  -0.941 -0.8096  2.4901 -2.9008
  390MOL0     H53787   9.438   4.012  -0.851  0.2834 -1.4530  0.2234
  390MOL0     H53788   9.398   4.106  -1.153  0.3502 -0.3712 -0.2652
  390MOL0     H53789   9.285   4.038  -1.047  0.8545  0.6125 -0.1767
  390MOL0     H53790   9.458   3.909  -1.223  1.8860  1.1753 -0.3279
  390MOL0     H53791   9.391   3.822  -1.090  0.7696  0.2251 -1.7761
  390MOL0     H53792   9.660   3.959  -1.098 -1.3346  1.6059  0.8266
  390MOL0     H53793   9.601   3.872  -0.960  0.9036 -1.6149 -0.7460
  390MOL0     H53794   9.768   3.737  -1.119  0.0739 -2.3753  1.5565
  390MOL0     H53795   9.631   3.745  -1.232  0.5159 -0.6077 -0.9404
  390MOL0     H53796   9.483   3.649  -1.030  0.8060 -1.6069  0.7000
  390MOL0     H53797   9.636   3.620  -0.946 -0.6828 -2.8323 -0.3716
  390MOL0     H53798   9.690   3.470  -1.151  0.8678 -3.4671  3.6876
  390MOL0     H53799   9.517   3.500  -1.195  1.8649 -1.7725 -0.6065
  390MOL0     H53800   9.215   4.105  -0.638 -2.4815  1.6950  1.1952
  390MOL0     H53801   9.198   4.042  -0.410  2.0867 -3.1187 -0.3718
  390MOL0     H53802   9.336   3.947  -0.016 -1.0461  0.3129 -0.8500
  390MOL0     H53803   9.226   3.861   0.214 -0.1141 -0.1534  0.1370
  390MOL0     H53804   9.193   2.811   1.020  0.2739 -0.6927 -1.9591
  390MOL0     H53805   9.195   2.663   1.239  1.8975 -0.0434 -1.2537
  390MOL0     H53806   9.152   2.524   1.494  3.2257 -0.5498  3.9355
  390MOL0     H53807   9.216   2.482   1.716  1.0108 -1.3564 -2.0089
  390MOL0     H53808   8.912   2.309   2.002 -1.1189  1.5937 -2.0426
  390MOL0     H53809   9.045   2.335   2.106 -0.2069  0.7488 -0.7931
  390MOL0     H53810   8.919   2.595   2.003  1.9011 -0.1380  1.5171
  390MOL0     H53811   8.955   2.552   2.163 -0.5357 -0.5479  0.0729
  390MOL0     H53812   8.690   2.462   2.039 -1.0896  1.9481 -0.0913
  390MOL0     H53813   8.775   2.395   2.191  1.8233  1.4503  0.7292
  390MOL0     H53814   8.749   2.610   2.277 -0.0803 -1.7035  0.3428
  390MOL0     H53815   8.598   2.545   2.214  1.8259 -4.1353 -0.6873
  390MOL0     H53816   8.711   2.910   1.998  0.7588 -0.4774  0.9085
  390MOL0     H53817   8.830   2.365   1.827 -1.9773 -0.9109 -1.7807
  390MOL0     H53818   8.662   2.368   1.687  1.9732  0.6079  1.1008
  390MOL0     H53819   8.659   2.447   1.532 -1.0221 -0.1976  1.2646
  390MOL0     H53820   8.708   2.269   1.548  1.9641 -0.2873  0.0172
  391MOL0     O53821   8.308   6.871   8.673  0.1262  0.3303 -0.6080
  391MOL0     C53822   8.379   6.781   8.719 -0.3084 -0.6905  1.1910
  391MOL0     O53823   8.347   6.713   8.836 -1.2283 -0.5203  0.6661
  391MOL0     C53824   8.260   6.765   8.921  0.5665  0.2490  0.0818
  391MOL0     C53825   8.303   6.845   9.029 -0.4285  0.1198  0.1881
  391MOL0     C53826   8.200   6.898   9.107  0.1890  0.1845 -0.2849
  391MOL0     C53827   8.061   6.868   9.076 -0.4435 -0.3503 -0.1112
  391MOL0     O53828   7.967   6.926   9.164 -0.2661 -0.0406  0.5471
  391MOL0     C53829   7.826   6.895   9.141 -0.0812  0.9114 -0.2368
  391MOL0     C53830   7.741   6.967   9.252  0.7438 -0.2735  0.6427
  391MOL0     C53831   7.595   6.933   9.228 -0.2209 -0.0657 -1.2458
  391MOL0     C53832   7.512   6.992   9.342  1.0962  0.1296  0.2851
  391MOL0     C53833   7.372   7.030   9.298 -0.7655  0.4861  0.0244
  391MOL0     C53834   7.291   6.913   9.229 -0.8645 -0.4156 -0.0538
  391MOL0     C53835   7.171   6.958   9.146  0.6956  0.5369 -0.9344
  391MOL0     C53836   7.096   6.855   9.061 -0.3950  0.0878 -0.3031
  391MOL0     N53837   7.171   6.833   8.929  0.5870 -0.2683 -0.5664
  391MOL0     C53838   7.253   6.725   8.909 -0.3263  0.2780 -0.4289
  391MOL0     C53839   7.272   6.724   8.772  0.1107 -0.2843 -0.3311
  391MOL0     C53840   7.329   6.603   8.700 -0.2270 -0.4285 -0.1016
  391MOL0     C53841   7.225   6.497   8.699 -0.3424  1.3555 -0.0125
  391MOL0     C53842   7.236   6.399   8.575 -0.6252  0.0920  1.0265
  391MOL0     C53843   7.106   6.324   8.560 -0.0968  0.3859 -0.0714
  391MOL0     O53844   7.109   6.204   8.638  0.0291  0.1202 -0.0430
  391MOL0     C53845   6.992   6.150   8.677  0.1029  0.3381 -0.1796
  391MOL0     C53846   6.991   6.089   8.802 -0.8827 -1.0237  0.3605
  391MOL0     C53847   6.885   6.027   8.861  0.0254 -0.2389 -1.1738
  391MOL0     C53848   6.917   5.963   8.995 -0.2079  0.0266 -0.3714
  391MOL0     C53849   6.760   6.034   8.800 -1.0488  0.8614  0.1640
  391MOL0     C53850   6.651   5.953   8.846  0.3517  0.8072 -0.4117
  391MOL0     O53851   6.528   6.003   8.834 -1.2028 -0.6421  0.6679
  391MOL0     C53852   6.406   5.943   8.853 -0.6213 -0.3003  0.2017
  391MOL0     C53853   6.384   5.835   8.933 -0.3655  0.5694 -0.1329
  391MOL0     C53854   6.254   5.800   8.964  0.2764 -0.2382  0.0978
  391MOL0     C53855   6.143   5.876   8.918  0.0491 -1.0750  0.5600
  391MOL0     O53856   6.021   5.836   8.957  0.8413  0.9996  0.9975
  391MOL0     C53857   5.901   5.901   8.905  0.3391  0.5705 -0.2079
  391MOL0     C53858   5.788   5.804   8.930  0.3139  0.0404 -0.0762
  391MOL0     C53859   5.664   5.833   8.843 -0.5351  0.2622 -1.2477
  391MOL0     C53860   5.683   5.751   8.708  0.1307  0.1941 -0.5690
  391MOL0     C53861   5.566   5.799   8.627  0.1144 -0.2824 -0.0304
  391MOL0     C53862   5.538   5.719   8.503  1.1790 -0.5559  0.8374
  391MOL0     C53863   5.420   5.771   8.430  0.2405 -0.6477 -0.0325
  391MOL0     C53864   5.397   5.719   8.290  0.2879 -0.4580  0.3792
  391MOL0    Cl53865   5.329   5.555   8.304 -0.1242 -0.5542 -0.0175
  391MOL0     C53866   6.172   5.983   8.830  0.0913  0.1749  0.1330
  391MOL0     C53867   6.303   6.017   8.804  0.1965 -0.8436  0.4468
  391MOL0     O53868   6.681   5.843   8.885  0.5358  0.3583  0.9445
  391MOL0     C53869   6.760   6.099   8.679 -0.4783  0.3405  0.9945
  391MOL0     C53870   6.876   6.147   8.611  0.6139  0.6916 -0.2065
  391MOL0     N53871   7.212   6.834   8.716  0.1170 -0.0277 -0.1849
  391MOL0     N53872   7.150   6.900   8.812  0.5649  0.2442  0.5797
  391MOL0     C53873   8.028   6.777   8.969 -0.1580 -0.0088  1.0256
  391MOL0     C53874   8.126   6.730   8.892 -0.6575  0.4984  0.4654
  391MOL0     C53875   8.504   6.736   8.657  0.1926  0.0901  0.3274
  391MOL0     C53876   8.608   6.701   8.746 -0.5178  0.2386  1.0784
  391MOL0     C53877   8.731   6.640   8.697 -0.0236 -1.2505 -0.1373
  391MOL0     C53878   8.756   6.635   8.556  0.5932  0.3663  0.1469
  391MOL0     O53879   8.873   6.611   8.494  0.3145  1.0269 -1.0984
  391MOL0     C53880   8.990   6.571   8.572  0.7392 -0.1631 -0.1530
  391MOL0     C53881   9.074   6.475   8.490  0.2407 -0.0943  0.2113
  391MOL0     C53882   9.196   6.438   8.581  0.5846  0.4782  0.6817
  391MOL0     C53883   9.317   6.383   8.495 -0.1416 -0.3632  0.6227
  391MOL0     C53884   9.440   6.374   8.576  0.4025 -0.8278  0.1590
  391MOL0     C53885   9.538   6.373   8.650 -0.1546  0.0601  0.0452
  391MOL0     C53886   8.657   6.672   8.471  0.4535  0.2946  0.4734
  391MOL0     C53887   8.527   6.723   8.518 -0.9856 -0.2107  0.4328
  391MOL0     C53888   8.448   6.801   8.417 -0.0854  0.2757 -0.1898
  391MOL0     H53889   8.405   6.872   9.051 -0.7292  1.9004 -0.3760
  391MOL0     H53890   8.217   6.966   9.190 -2.2769  2.1853 -1.2736
  391MOL0     H53891   7.816   6.788   9.160 -2.8231  1.1424 -0.0041
  391MOL0     H53892   7.792   6.915   9.039 -1.4953  1.7216  0.3685
  391MOL0     H53893   7.773   6.947   9.354 -0.4080 -0.2891  1.0230
  391MOL0     H53894   7.745   7.073   9.224  0.8580 -0.4863 -0.1904
  391MOL0     H53895   7.574   6.990   9.137  1.1039 -0.1371 -1.6267
  391MOL0     H53896   7.571   6.827   9.215 -2.8451  0.4856 -1.4173
  391MOL0     H53897   7.509   6.916   9.421  1.6286 -1.2256 -0.9588
  391MOL0     H53898   7.562   7.075   9.392 -0.1115  0.9809  0.1409
  391MOL0     H53899   7.384   7.117   9.231 -4.7831  0.9613 -0.3155
  391MOL0     H53900   7.315   7.054   9.388  0.1444 -1.1166  1.0614
  391MOL0     H53901   7.343   6.852   9.155 -1.6838 -1.5758  0.2975
  391MOL0     H53902   7.270   6.835   9.304 -0.4637 -2.3230 -1.8371
  391MOL0     H53903   7.202   7.046   9.091 -1.0301  0.4144 -2.1815
  391MOL0     H53904   7.097   6.992   9.220  1.6864  1.2193 -0.2300
  391MOL0     H53905   7.103   6.766   9.125 -0.4599 -0.2158 -0.7131
  391MOL0     H53906   6.997   6.898   9.044 -0.3795  0.2152 -0.0862
  391MOL0     H53907   7.291   6.652   8.980 -0.3717  0.6304 -0.0386
  391MOL0     H53908   7.424   6.581   8.751 -0.2149  0.1054  0.1049
  391MOL0     H53909   7.355   6.614   8.595  1.2953 -1.6450  0.0972
  391MOL0     H53910   7.217   6.442   8.794  1.9743  1.3586  0.2515
  391MOL0     H53911   7.129   6.550   8.700 -1.0383  0.1370  0.0254
  391MOL0     H53912   7.245   6.450   8.478  0.1039  0.9589  1.5426
  391MOL0     H53913   7.312   6.321   8.578 -0.8502 -0.2611 -1.0215
  391MOL0     H53914   7.021   6.382   8.596 -1.6247 -1.0698 -1.1642
  391MOL0     H53915   7.098   6.278   8.461 -0.1169 -1.5817  0.7975
  391MOL0     H53916   7.069   6.108   8.875 -1.9646  6.8780  0.3496
  391MOL0     H53917   6.845   5.991   9.073 -0.4929  1.2733 -1.0458
  391MOL0     H53918   7.012   6.003   9.034  1.5029 -4.1020  0.1747
  391MOL0     H53919   6.940   5.857   8.983 -0.3090 -0.1827  1.1560
  391MOL0     H53920   6.467   5.774   8.965  0.4437  1.7929  0.1698
  391MOL0     H53921   6.248   5.716   9.033  0.0035  2.1553  3.2279
  391MOL0     H53922   5.883   5.992   8.963  1.5302 -2.2683  5.1931
  391MOL0     H53923   5.902   5.910   8.796 -3.7771  3.1187 -0.2607
  391MOL0     H53924   5.816   5.701   8.907  1.3511 -0.0641  1.4835
  391MOL0     H53925   5.771   5.797   9.038  2.3912 -0.0690  0.2881
  391MOL0     H53926   5.638   5.939   8.831 -1.5548  0.2862  0.6916
  391MOL0     H53927   5.569   5.802   8.888 -1.1552  0.1382 -2.5981
  391MOL0     H53928   5.680   5.642   8.719 -1.3383  0.2882  0.2263
  391MOL0     H53929   5.773   5.789   8.659  0.7949 -1.8904 -1.0755
  391MOL0     H53930   5.477   5.776   8.686  0.8253  1.1681  1.6729
  391MOL0     H53931   5.570   5.907   8.613 -1.6574 -0.3987 -1.7565
  391MOL0     H53932   5.530   5.613   8.528 -1.8981 -0.1539  1.8744
  391MOL0     H53933   5.626   5.738   8.441  0.4197  0.7611  0.1148
  391MOL0     H53934   5.447   5.877   8.426  1.2521 -0.8000  1.7258
  391MOL0     H53935   5.331   5.758   8.493  0.0794  0.5256  0.0064
  391MOL0     H53936   5.482   5.722   8.222 -2.7388 -2.7737 -3.9686
  391MOL0     H53937   5.324   5.783   8.240  0.9352  1.8369  2.1768
  391MOL0     H53938   6.096   6.050   8.791  0.2327  0.3497  0.1551
  391MOL0     H53939   6.328   6.109   8.751 -2.1951 -1.0040 -1.1184
  391MOL0     H53940   6.676   6.099   8.610 -0.8457  2.8802  1.3369
  391MOL0     H53941   6.876   6.192   8.513  1.2892  2.6287  0.6207
  391MOL0     H53942   7.928   6.738   8.953  0.2769 -0.2704 -1.4218
  391MOL0     H53943   8.107   6.670   8.803 -0.7221 -0.8906  1.3839
  391MOL0     H53944   8.611   6.707   8.854  0.0344  0.1913  1.0643
  391MOL0     H53945   8.805   6.610   8.771  0.5114 -0.1904 -0.2182
  391MOL0     H53946   9.043   6.665   8.591 -0.3675  0.9520 -2.2060
  391MOL0     H53947   8.965   6.524   8.667  4.4573 -3.2136 -0.4474
  391MOL0     H53948   9.102   6.522   8.396 -0.9155  0.0176 -0.0966
  391MOL0     H53949   9.024   6.385   8.453  1.2014  0.3197 -2.2536
  391MOL0     H53950   9.217   6.522   8.648 -1.5537  1.6359  0.0083
  391MOL0     H53951   9.166   6.359   8.650 -0.6226  0.0858 -0.2544
  391MOL0     H53952   9.347   6.457   8.420  0.0057 -1.1528 -0.1192
  391MOL0     H53953   9.289   6.284   8.457  1.1410 -0.8613  0.9170
  391MOL0     H53954   9.615   6.382   8.723  0.2184 -3.4667  0.2286
  391MOL0     H53955   8.681   6.670   8.366 -1.5937 -0.6432 -0.0158
  391MOL0     H53956   8.504   6.790   8.324  3.1206 -0.2374  1.6479
  391MOL0     H53957   8.351   6.752   8.402 -0.2500 -0.5342  2.8471
  391MOL0     H53958   8.442   6.906   8.449  0.5593 -0.5967  3.2053
  392MOL0     O53959   3.073   7.580  10.643 -0.4731 -0.0301 -0.2067
  392MOL0     C53960   2.981   7.563  10.723 -0.3642  0.7427 -0.1812
  392MOL0     O53961   2.857   7.534  10.695  0.1876  0.4281  0.2693
  392MOL0     C53962   2.800   7.570  10.573 -0.2993 -0.5056 -0.3706
  392MOL0     C53963   2.798   7.478  10.472 -0.3757 -0.6008 -0.9328
  392MOL0     C53964   2.733   7.499  10.353 -0.1745  0.2446  0.3068
  392MOL0     C53965   2.659   7.614  10.328  0.6924  0.1733  0.6475
  392MOL0     O53966   2.590   7.637  10.214 -0.1537  1.1443  0.4301
  392MOL0     C53967   2.467   7.702  10.225  0.8298  0.8315 -0.0006
  392MOL0     C53968   2.366   7.669  10.120 -0.0384 -0.8040  0.2182
  392MOL0     C53969   2.342   7.524  10.113  0.7476 -0.1261  0.0842
  392MOL0     C53970   2.193   7.478  10.069  0.2155 -0.6666  0.3626
  392MOL0     C53971   2.133   7.387  10.181  0.2872  0.8995 -0.1067
  392MOL0     C53972   2.030   7.294  10.118 -1.0184 -0.9180 -0.1627
  392MOL0     C53973   1.970   7.203  10.224  0.2278 -0.3890  0.3205
  392MOL0     C53974   1.870   7.099  10.166  1.2467  0.0316 -0.0594
  392MOL0     N53975   1.827   7.008  10.275  0.3011  0.0787  0.7001
  392MOL0     C53976   1.807   7.036  10.410  0.3513 -0.2447 -0.3310
  392MOL0     C53977   1.750   6.928  10.464 -0.0011  0.5606 -0.8619
  392MOL0     C53978   1.683   6.901  10.598  0.3571 -0.8176  0.2248
  392MOL0     C53979   1.615   7.019  10.669 -0.1636  1.1034  0.2656
  392MOL0     C53980   1.510   6.965  10.768 -0.0853 -0.8209  0.5516
  392MOL0     C53981   1.402   7.070  10.820 -0.6159  0.6845 -0.5452
  392MOL0     O53982   1.299   7.094  10.725  0.8538 -0.0014  0.4310
  392MOL0     C53983   1.177   7.037  10.736  0.1559  0.6486 -0.0144
  392MOL0     C53984   1.155   6.894  10.778 -0.1703 -0.7257 -0.8044
  392MOL0     C53985   1.023   6.842  10.760 -0.8929  0.1441 -1.0909
  392MOL0     C53986   1.002   6.691  10.793 -0.3478 -0.1641  0.3972
  392MOL0     C53987   0.926   6.918  10.713 -0.2612  0.7222 -0.2237
  392MOL0     C53988   0.790   6.868  10.715 -0.0465  0.0373 -0.8368
  392MOL0     O53989   0.734   6.840  10.593 -0.0749 -0.0385 -0.0436
  392MOL0     C53990   0.591   6.832  10.596  0.0132  0.6302 -1.0345
  392MOL0     C53991   0.523   6.713  10.595  0.3764  0.6527 -0.7941
  392MOL0     C53992   0.382   6.709  10.586 -0.5055  0.3299 -0.7319
  392MOL0     C53993   0.310   6.838  10.569  0.6894 -0.3000 -0.1858
  392MOL0     O53994   0.172   6.843  10.572 -0.3273 -0.0573  0.4868
  392MOL0     C53995   0.119   6.842  10.439 -0.4492 -0.6828  0.6966
  392MOL0     C53996  -0.039   6.841  10.429 -0.0514  0.3043  0.4114
  392MOL0     C53997  -0.094   6.768  10.311  0.1639  1.0362  1.1867
  392MOL0     C53998  -0.247   6.775  10.292  0.2412  0.1328 -1.0092
  392MOL0     C53999  -0.292   6.779  10.143  0.2487  0.0313  0.2065
  392MOL0     C54000  -0.438   6.791  10.130  0.1930  0.6704  0.2424
  392MOL0     C54001  -0.511   6.903  10.212  0.2236 -0.1121  1.2265
  392MOL0     C54002  -0.656   6.913  10.167  0.9363  0.2293 -0.2561
  392MOL0    Cl54003  -0.647   6.998  10.015 -0.4551  0.1354  0.1130
  392MOL0     C54004   0.383   6.948  10.550  0.1522  0.4207 -0.2166
  392MOL0     C54005   0.528   6.949  10.563  1.4230  1.0766 -0.1232
  392MOL0     O54006   0.739   6.845  10.823 -0.7647  0.0148  0.3397
  392MOL0     C54007   0.944   7.052  10.689  0.3067 -0.0356 -0.1647
  392MOL0     C54008   1.069   7.109  10.695 -0.5498  0.3227  0.7019
  392MOL0     N54009   1.756   6.830  10.368 -0.6108  0.4364 -0.0690
  392MOL0     N54010   1.807   6.877  10.259  0.6652 -0.1833  0.3385
  392MOL0     C54011   2.655   7.707  10.430 -0.1739 -0.0546 -0.0650
  392MOL0     C54012   2.732   7.692  10.543  0.0371 -0.0715  0.1002
  392MOL0     C54013   2.996   7.584  10.866 -0.5606  0.2841  0.6933
  392MOL0     C54014   2.909   7.672  10.935 -0.3132 -0.3494 -0.3676
  392MOL0     C54015   2.930   7.712  11.067 -0.4400  0.3031  0.2033
  392MOL0     C54016   3.036   7.657  11.144  0.3122  0.4818  0.1619
  392MOL0     O54017   3.051   7.717  11.261  0.1728 -0.4346  0.2789
  392MOL0     C54018   3.028   7.641  11.378  0.9520  0.6999  1.2946
  392MOL0     C54019   2.879   7.643  11.414  0.0521 -1.2411 -0.5307
  392MOL0     C54020   2.841   7.551  11.542  0.0150  0.4095  0.1559
  392MOL0     C54021   2.846   7.397  11.519 -0.3533  0.0472  0.5778
  392MOL0     C54022   2.748   7.346  11.424 -0.3310 -0.0547  0.6432
  392MOL0     C54023   2.677   7.289  11.340 -0.1417 -0.1804  0.3072
  392MOL0     C54024   3.126   7.570  11.081  1.5104  0.3470  0.5251
  392MOL0     C54025   3.109   7.530  10.944  1.0457 -0.5442 -0.2651
  392MOL0     C54026   3.214   7.445  10.874  0.6979 -0.2518 -0.1027
  392MOL0     H54027   2.867   7.397  10.488  0.9172  0.5441 -0.5432
  392MOL0     H54028   2.733   7.432  10.268 -0.5887 -0.3444  0.7694
  392MOL0     H54029   2.484   7.810  10.228 -2.4605  1.5139 -1.3852
  392MOL0     H54030   2.413   7.682  10.318  0.3449  1.5845 -0.1067
  392MOL0     H54031   2.277   7.729  10.138  1.8192  1.6254  1.8292
  392MOL0     H54032   2.414   7.711  10.030  0.2671 -0.5931  0.4780
  392MOL0     H54033   2.406   7.483  10.035 -0.6152  0.1361 -1.2403
  392MOL0     H54034   2.370   7.479  10.209 -0.6203 -1.6421 -0.1802
  392MOL0     H54035   2.122   7.559  10.051  2.6248  1.5943  0.4324
  392MOL0     H54036   2.202   7.411   9.984 -1.3432  0.2459 -0.5727
  392MOL0     H54037   2.072   7.443  10.253 -3.0955 -1.2778 -1.0229
  392MOL0     H54038   2.206   7.334  10.243 -0.8115 -2.6003 -1.5400
  392MOL0     H54039   1.962   7.355  10.058  0.9216  0.1002 -1.4295
  392MOL0     H54040   2.082   7.225  10.051 -0.2776 -0.2410 -0.2978
  392MOL0     H54041   1.911   7.261  10.295  0.4207 -1.0998  1.0730
  392MOL0     H54042   2.051   7.156  10.280  3.2177 -0.1599 -3.4220
  392MOL0     H54043   1.785   7.153  10.123  1.5836  2.1439  1.7382
  392MOL0     H54044   1.918   7.040  10.087 -0.0456 -1.6366  0.3655
  392MOL0     H54045   1.829   7.130  10.459  1.1231 -0.8605  0.5415
  392MOL0     H54046   1.765   6.863  10.660  0.3575  3.1449  2.9824
  392MOL0     H54047   1.606   6.824  10.584  0.0902 -0.9448  2.0842
  392MOL0     H54048   1.691   7.085  10.713  2.2465 -0.7407 -0.9220
  392MOL0     H54049   1.563   7.073  10.589 -2.7707 -3.0524 -1.1181
  392MOL0     H54050   1.451   6.885  10.723 -0.8717  1.3913 -2.7571
  392MOL0     H54051   1.555   6.930  10.861 -0.9969 -0.4720  1.1365
  392MOL0     H54052   1.365   7.032  10.916  0.2581 -1.3052 -0.9530
  392MOL0     H54053   1.473   7.153  10.824  1.5505 -0.9926 -1.9573
  392MOL0     H54054   1.234   6.828  10.813  0.0575  0.4407  1.0281
  392MOL0     H54055   0.937   6.638  10.723 -0.5948 -0.8494  1.1193
  392MOL0     H54056   0.958   6.689  10.894 -1.5224 -0.3411 -0.0950
  392MOL0     H54057   1.097   6.638  10.785  0.1788  0.9822 -1.6626
  392MOL0     H54058   0.583   6.624  10.602 -0.3609  0.2642  1.1737
  392MOL0     H54059   0.322   6.619  10.584 -0.3002  0.1122  1.2014
  392MOL0     H54060   0.148   6.938  10.394  0.7636 -1.3602 -0.0330
  392MOL0     H54061   0.154   6.763  10.372 -2.1694  0.1955 -1.3743
  392MOL0     H54062  -0.072   6.784  10.517 -1.2556 -1.1662 -0.9466
  392MOL0     H54063  -0.080   6.942  10.432  0.3246  0.4947 -0.7528
  392MOL0     H54064  -0.061   6.664  10.305  2.4087  1.7520 -0.0138
  392MOL0     H54065  -0.051   6.805  10.218 -0.4803 -3.7934 -1.3614
  392MOL0     H54066  -0.269   6.864  10.352  0.1683 -2.4782  3.2110
  392MOL0     H54067  -0.289   6.690  10.345 -1.7451 -0.1646 -2.9243
  392MOL0     H54068  -0.234   6.859  10.096  0.8097 -0.9100 -0.7594
  392MOL0     H54069  -0.262   6.690  10.086  0.2526 -0.1881  0.5470
  392MOL0     H54070  -0.482   6.692  10.149  2.1373 -0.3108 -0.0317
  392MOL0     H54071  -0.448   6.812  10.024  0.7331  1.2031  0.2908
  392MOL0     H54072  -0.468   7.003  10.212  0.4927 -0.1648 -0.9662
  392MOL0     H54073  -0.508   6.868  10.315  0.5306 -0.6818  1.0272
  392MOL0     H54074  -0.717   6.962  10.243  2.0316 -0.5464  1.1730
  392MOL0     H54075  -0.691   6.809  10.161  1.1818 -0.0195  1.8280
  392MOL0     H54076   0.331   7.043  10.546 -2.0256 -0.7346 -0.9224
  392MOL0     H54077   0.587   7.039  10.545  1.6530  1.1515  0.9463
  392MOL0     H54078   0.857   7.110  10.662 -1.8462 -2.4320  1.1883
  392MOL0     H54079   1.085   7.206  10.648  0.3740 -1.5149 -3.1322
  392MOL0     H54080   2.587   7.791  10.440 -2.5635 -1.6840 -1.3359
  392MOL0     H54081   2.716   7.761  10.625  1.0765  1.9367 -1.2963
  392MOL0     H54082   2.829   7.720  10.879  0.9359  0.3249 -1.6315
  392MOL0     H54083   2.876   7.790  11.120 -0.7749 -0.1962  0.6077
  392MOL0     H54084   3.060   7.538  11.360 -0.3749  0.5247 -0.2581
  392MOL0     H54085   3.088   7.672  11.465  0.8822 -0.3756  1.7446
  392MOL0     H54086   2.825   7.606  11.327 -1.1110  0.3746 -0.5266
  392MOL0     H54087   2.841   7.740  11.446  0.4317 -1.8423  1.9465
  392MOL0     H54088   2.920   7.567  11.616 -0.2243 -0.4477  0.6076
  392MOL0     H54089   2.749   7.587  11.587  0.4694  3.7145 -1.2627
  392MOL0     H54090   2.835   7.338  11.610 -0.0336 -1.7687 -0.5180
  392MOL0     H54091   2.936   7.361  11.468 -2.5396 -1.6549 -2.3986
  392MOL0     H54092   2.609   7.244  11.271  0.5531 -0.1943 -0.3760
  392MOL0     H54093   3.211   7.530  11.136  1.8306 -0.8523 -0.7483
  392MOL0     H54094   3.272   7.513  10.812  2.0361 -1.0746  0.2014
  392MOL0     H54095   3.282   7.404  10.949 -2.7139 -0.9261  2.9190
  392MOL0     H54096   3.162   7.364  10.822 -1.2466  1.0062 -0.2475
  393MOL0     O54097   6.344   2.023  10.106  0.3202 -0.0727  0.5779
  393MOL0     C54098   6.283   2.117  10.061 -1.1661 -0.4300 -0.9139
  393MOL0     O54099   6.289   2.160   9.929  0.4393  0.2319  0.3930
  393MOL0     C54100   6.402   2.130   9.848 -0.0318  0.5135 -0.1015
  393MOL0     C54101   6.542   2.141   9.885  0.3383  1.0729  0.3334
  393MOL0     C54102   6.635   2.104   9.795 -0.9619 -0.1544  0.4722
  393MOL0     C54103   6.609   2.069   9.657 -0.4882 -0.1475  0.3141
  393MOL0     O54104   6.709   2.013   9.581  0.3136  0.5595 -0.0504
  393MOL0     C54105   6.811   2.103   9.538  0.9099  0.0293  0.8296
  393MOL0     C54106   6.915   2.042   9.442 -0.8615  0.3431  0.0964
  393MOL0     C54107   7.065   2.093   9.453 -0.0571  0.7100 -0.0146
  393MOL0     C54108   7.092   2.243   9.443  0.4013  0.0220 -0.4565
  393MOL0     C54109   7.235   2.280   9.406 -0.9082 -0.1485 -0.2153
  393MOL0     C54110   7.330   2.250   9.516 -1.1135 -0.1120 -0.6402
  393MOL0     C54111   7.469   2.312   9.488 -0.2666 -0.1505 -1.1297
  393MOL0     C54112   7.576   2.311   9.603 -1.1069 -0.1687 -0.3248
  393MOL0     N54113   7.713   2.329   9.554  0.2075 -0.6332 -0.3480
  393MOL0     C54114   7.817   2.356   9.632  0.2866  0.0711 -0.5929
  393MOL0     C54115   7.932   2.339   9.559 -0.2767  0.7339 -0.1398
  393MOL0     C54116   8.085   2.336   9.599  0.2992 -0.3147 -0.0628
  393MOL0     C54117   8.132   2.430   9.712 -0.2820  0.2421 -0.5661
  393MOL0     C54118   8.288   2.426   9.732  0.6090 -0.4547 -0.0970
  393MOL0     C54119   8.326   2.556   9.814  0.0105 -0.3605 -0.3728
  393MOL0     O54120   8.463   2.560   9.854 -0.2569 -0.0821  0.7704
  393MOL0     C54121   8.500   2.669   9.934 -0.4104 -0.1821 -0.2650
  393MOL0     C54122   8.643   2.710   9.932 -0.0290 -0.5446 -0.5279
  393MOL0     C54123   8.696   2.802  10.023 -0.7290  0.4994  0.7361
  393MOL0     C54124   8.850   2.816  10.009 -0.4751  0.4307  0.0478
  393MOL0     C54125   8.605   2.869  10.108  0.0893 -1.0455  0.0850
  393MOL0     C54126   8.658   2.977  10.203  0.0409 -0.0028  0.3084
  393MOL0     O54127   8.791   2.963  10.236 -0.3084 -0.2435 -0.4932
  393MOL0     C54128   8.865   3.071  10.265 -0.3526 -0.6581  0.3476
  393MOL0     C54129   8.986   3.047  10.325 -0.4014 -0.4399 -0.6479
  393MOL0     C54130   9.059   3.163  10.364  0.0008  0.0171  0.2842
  393MOL0     C54131   9.024   3.294  10.321 -0.2971  0.1335 -0.8420
  393MOL0     O54132   9.119   3.396  10.324  0.9747  0.5847  0.0431
  393MOL0     C54133   9.087   3.520  10.385  0.4665  0.4311 -1.1639
  393MOL0     C54134   9.111   3.650  10.297  0.8471 -0.0676 -1.0201
  393MOL0     C54135   9.249   3.653  10.224 -0.5086 -0.2385 -0.8396
  393MOL0     C54136   9.265   3.780  10.146  0.3785 -0.5357 -0.5914
  393MOL0     C54137   9.410   3.790  10.098  0.6699 -0.0260 -0.4429
  393MOL0     C54138   9.447   3.933  10.036  0.4727  0.5697  0.0876
  393MOL0     C54139   9.364   3.965   9.913 -0.0743 -0.1884  1.4987
  393MOL0     C54140   9.384   3.854   9.809  0.0393  0.0557  0.8161
  393MOL0    Cl54141   9.560   3.819   9.770 -0.2332  0.6197 -0.2101
  393MOL0     C54142   8.913   3.310  10.244 -0.1588  0.1255 -0.6614
  393MOL0     C54143   8.833   3.198  10.212 -0.1272  0.5285  0.2501
  393MOL0     O54144   8.574   3.051  10.257 -0.0277  0.4562 -0.2437
  393MOL0     C54145   8.470   2.853  10.088  0.5042  0.3826 -0.4598
  393MOL0     C54146   8.421   2.758  10.004 -0.0140  0.0364 -0.2351
  393MOL0     N54147   7.903   2.295   9.434 -0.3585 -0.0943 -0.6612
  393MOL0     N54148   7.771   2.290   9.437  0.1651  0.3477  0.0529
  393MOL0     C54149   6.473   2.060   9.614 -0.7680 -0.0641  0.4476
  393MOL0     C54150   6.374   2.093   9.713 -0.8925 -0.5554 -0.6706
  393MOL0     C54151   6.181   2.176  10.148  0.0972 -0.3840 -0.1405
  393MOL0     C54152   6.179   2.310  10.176 -0.2189 -0.1628  1.0248
  393MOL0     C54153   6.073   2.370  10.240  0.0819 -0.3122  0.6530
  393MOL0     C54154   5.959   2.296  10.278  0.2269 -0.5815  0.4964
  393MOL0     O54155   5.864   2.368  10.348  0.4750 -0.0818  0.2022
  393MOL0     C54156   5.794   2.300  10.453  1.0865  0.0717 -1.9338
  393MOL0     C54157   5.746   2.390  10.568  0.3230 -0.2527  0.6747
  393MOL0     C54158   5.860   2.438  10.663 -0.9158  0.0444  0.4847
  393MOL0     C54159   5.804   2.531  10.764  0.4252  0.9037 -1.3934
  393MOL0     C54160   5.717   2.467  10.863 -0.7843  0.1396 -0.2264
  393MOL0     C54161   5.646   2.398  10.925  0.3545  0.3368 -0.5011
  393MOL0     C54162   5.967   2.154  10.253  0.1209  0.0477 -0.0724
  393MOL0     C54163   6.072   2.091  10.195 -0.0398 -0.5674  0.9318
  393MOL0     C54164   6.070   1.938  10.186 -0.0053 -0.1880  0.2316
  393MOL0     H54165   6.567   2.153   9.990 -2.4131 -1.1969  1.3831
  393MOL0     H54166   6.736   2.106   9.834 -1.8841 -0.3570  3.0643
  393MOL0     H54167   6.877   2.140   9.618  2.3898  1.3832 -0.9134
  393MOL0     H54168   6.762   2.188   9.490 -0.3253 -0.8349  0.5368
  393MOL0     H54169   6.902   1.938   9.474 -3.3877  1.1571  2.0065
  393MOL0     H54170   6.883   2.050   9.338 -0.5045  1.5915  0.0629
  393MOL0     H54171   7.106   2.048   9.544  1.6958 -4.5634 -2.9669
  393MOL0     H54172   7.119   2.038   9.375 -2.2959  0.3712 -1.4224
  393MOL0     H54173   7.037   2.283   9.358 -0.3837 -0.1224 -0.0285
  393MOL0     H54174   7.060   2.298   9.532 -0.6575 -1.9526  0.4442
  393MOL0     H54175   7.238   2.387   9.380 -1.2132 -0.3022 -0.9126
  393MOL0     H54176   7.270   2.221   9.321 -1.5159  0.5294 -0.9487
  393MOL0     H54177   7.311   2.305   9.609  4.0125  0.7539  0.2287
  393MOL0     H54178   7.340   2.146   9.548  4.4883  0.4385  0.4182
  393MOL0     H54179   7.450   2.412   9.448 -1.2518  0.9153  1.7684
  393MOL0     H54180   7.517   2.249   9.413  0.7667  0.2768 -0.8456
  393MOL0     H54181   7.557   2.396   9.669 -3.3284  0.5916 -1.8128
  393MOL0     H54182   7.577   2.216   9.658 -1.4464  0.8131  1.4272
  393MOL0     H54183   7.829   2.359   9.740 -1.0192  0.6680 -0.4532
  393MOL0     H54184   8.136   2.342   9.503 -1.1156 -3.9105 -1.2198
  393MOL0     H54185   8.100   2.235   9.639 -0.1049  0.2371  1.5491
  393MOL0     H54186   8.116   2.536   9.689  0.1195  0.1927 -1.1037
  393MOL0     H54187   8.061   2.417   9.795  0.1000 -0.4525 -0.3385
  393MOL0     H54188   8.315   2.345   9.801  1.9778  0.1189  0.0568
  393MOL0     H54189   8.335   2.412   9.635 -2.6421  2.0584 -2.2877
  393MOL0     H54190   8.293   2.637   9.749 -0.4131 -1.2724 -1.3262
  393MOL0     H54191   8.262   2.580   9.899 -0.7056  0.3777 -1.0979
  393MOL0     H54192   8.716   2.657   9.872  0.3003  0.8046 -1.3507
  393MOL0     H54193   8.875   2.917   9.975 -4.0696  1.3673 -0.2168
  393MOL0     H54194   8.893   2.733   9.951  4.3793  1.8545  1.1429
  393MOL0     H54195   8.896   2.797  10.106  1.3698  0.7911 -0.7054
  393MOL0     H54196   9.003   2.943  10.351 -0.0226 -0.2570 -0.1609
  393MOL0     H54197   9.152   3.163  10.420 -0.3369  0.4680  0.8603
  393MOL0     H54198   8.989   3.528  10.432  0.7619 -0.6282 -0.3493
  393MOL0     H54199   9.157   3.535  10.467 -0.6107  0.1585 -0.1653
  393MOL0     H54200   9.036   3.647  10.217 -0.0500  1.7357 -0.2999
  393MOL0     H54201   9.093   3.740  10.355  0.8506 -0.3036 -0.6527
  393MOL0     H54202   9.262   3.560  10.168  0.4498 -1.6250  1.5674
  393MOL0     H54203   9.327   3.645  10.300 -0.6647 -0.2437 -0.6773
  393MOL0     H54204   9.243   3.873  10.200  1.0334  0.9655 -2.7743
  393MOL0     H54205   9.195   3.768  10.063  0.7842 -2.0148 -0.7336
  393MOL0     H54206   9.468   3.783  10.190  3.7023  0.9621 -2.1628
  393MOL0     H54207   9.433   3.698  10.043 -0.5732 -0.8178  0.2866
  393MOL0     H54208   9.551   3.941  10.005  1.2458  0.4754  2.4363
  393MOL0     H54209   9.442   4.018  10.106 -0.4019 -1.5862  2.8232
  393MOL0     H54210   9.409   4.055   9.869 -2.1528 -0.7104 -2.0844
  393MOL0     H54211   9.259   3.987   9.935 -1.2154 -0.7672 -2.5247
  393MOL0     H54212   9.338   3.889   9.716 -0.1385  1.9169  1.5503
  393MOL0     H54213   9.335   3.763   9.842  0.1511  0.6200  2.6973
  393MOL0     H54214   8.876   3.409  10.218  0.3959  0.5435  0.0914
  393MOL0     H54215   8.740   3.217  10.158 -2.3186 -0.4015  3.3688
  393MOL0     H54216   8.396   2.921  10.129 -2.1920  0.7839 -5.3154
  393MOL0     H54217   8.313   2.764   9.994  0.1659  3.5815 -1.6490
  393MOL0     H54218   6.446   2.042   9.511 -0.1514 -2.4093  0.6422
  393MOL0     H54219   6.270   2.094   9.681 -0.8942  0.3221 -0.6476
  393MOL0     H54220   6.264   2.365  10.137 -1.8449 -1.3402 -5.2549
  393MOL0     H54221   6.074   2.476  10.263 -3.9317 -0.1958  1.0644
  393MOL0     H54222   5.701   2.253  10.419 -0.9304  0.4454  2.3698
  393MOL0     H54223   5.860   2.222  10.490 -2.7967 -2.4987  0.3323
  393MOL0     H54224   5.685   2.322  10.628 -1.5424  0.1412 -0.6799
  393MOL0     H54225   5.684   2.475  10.538 -1.3717 -1.1816  1.3814
  393MOL0     H54226   5.916   2.355  10.706 -0.9591  0.9789  2.4776
  393MOL0     H54227   5.928   2.490  10.595 -2.1006  0.9256 -0.0526
  393MOL0     H54228   5.744   2.609  10.715  0.1814  2.1888  0.8304
  393MOL0     H54229   5.887   2.585  10.811  0.8537 -0.6503 -0.2987
  393MOL0     H54230   5.585   2.322  10.969 -0.9082  1.9153  0.6017
  393MOL0     H54231   5.890   2.096  10.303 -2.2774  2.9416 -0.1265
  393MOL0     H54232   6.009   1.891  10.263 -3.6984 -0.0451 -2.3454
  393MOL0     H54233   6.040   1.917  10.083 -2.6356  2.6439  0.2928
  393MOL0     H54234   6.170   1.899  10.207  0.4065 -0.4938 -1.9759
  394MOL0     O54235   5.179   9.464  10.588 -0.7180  0.1542 -1.1070
  394MOL0     C54236   5.156   9.399  10.485 -0.6313 -0.6811  1.1059
  394MOL0     O54237   5.151   9.455  10.360  0.4464  0.7385  0.0541
  394MOL0     C54238   5.229   9.560  10.319  0.0543  0.2388  0.8264
  394MOL0     C54239   5.260   9.664  10.404  0.2106 -0.4219 -0.2759
  394MOL0     C54240   5.316   9.784  10.350 -0.3492 -0.6207 -0.3429
  394MOL0     C54241   5.376   9.782  10.221  0.2468  0.8236 -0.1158
  394MOL0     O54242   5.449   9.885  10.175 -0.1595 -0.2981 -0.3427
  394MOL0     C54243   5.527   9.860  10.050  0.2433 -0.0045  0.3403
  394MOL0     C54244   5.450   9.871   9.915 -0.1904 -0.8912 -0.5229
  394MOL0     C54245   5.546   9.837   9.801  0.5686 -0.8713 -0.2839
  394MOL0     C54246   5.486   9.898   9.677  0.7439  0.6943 -0.6406
  394MOL0     C54247   5.583   9.891   9.559 -0.6159  0.7179 -0.6997
  394MOL0     C54248   5.500   9.878   9.438 -0.0709  0.5752  0.0962
  394MOL0     C54249   5.592   9.901   9.307  0.1298  0.7875  0.2694
  394MOL0     C54250   5.683   9.776   9.292  0.0434  0.1691 -0.7925
  394MOL0     N54251   5.616   9.648   9.286  0.4431 -0.0482 -0.7763
  394MOL0     C54252   5.519   9.610   9.190 -0.0205 -1.5853 -0.9466
  394MOL0     C54253   5.501   9.474   9.213  0.5402 -0.3780  0.8399
  394MOL0     C54254   5.389   9.385   9.152  0.5513 -0.2693  0.2231
  394MOL0     C54255   5.443   9.243   9.125  0.6843  0.0851  0.6300
  394MOL0     C54256   5.344   9.156   9.040  0.3755 -0.5093 -0.8594
  394MOL0     C54257   5.215   9.109   9.117 -0.5103 -0.2344  1.3160
  394MOL0     O54258   5.136   9.212   9.179  0.3589  0.3774  0.3893
  394MOL0     C54259   5.043   9.289   9.108 -0.0798  0.6759  1.0366
  394MOL0     C54260   5.023   9.260   8.967  0.2483 -0.2397  0.1805
  394MOL0     C54261   4.950   9.349   8.886  0.0359  0.9429 -0.1267
  394MOL0     C54262   4.934   9.298   8.745  1.0205  1.3119  0.5829
  394MOL0     C54263   4.895   9.463   8.937  1.0620  0.1034  0.3991
  394MOL0     C54264   4.796   9.541   8.857 -0.4139 -0.4198  0.6254
  394MOL0     O54265   4.741   9.649   8.920  0.1069  0.3720  0.5846
  394MOL0     C54266   4.644   9.731   8.855 -0.0189 -0.2471  0.1392
  394MOL0     C54267   4.643   9.787   8.722 -0.0067 -0.9273  0.6271
  394MOL0     C54268   4.528   9.859   8.684 -0.5859  1.5849  0.8399
  394MOL0     C54269   4.413   9.868   8.760 -0.1576 -0.2731  0.2290
  394MOL0     O54270   4.298   9.934   8.717 -0.3637  0.2357 -0.0454
  394MOL0     C54271   4.259   9.909   8.579  0.2251 -1.0424  0.1859
  394MOL0     C54272   4.107   9.876   8.587  0.1209  0.1233 -0.1160
  394MOL0     C54273   4.023   9.997   8.589  0.5231  0.4467  0.7316
  394MOL0     C54274   3.870   9.955   8.598 -0.2110 -0.3597  0.2421
  394MOL0     C54275   3.780  10.077   8.594  0.5120  0.0271 -0.2065
  394MOL0     C54276   3.782  10.189   8.699  0.0859  0.3868  0.2361
  394MOL0     C54277   3.699  10.315   8.653  0.4410 -0.1951 -0.0768
  394MOL0     C54278   3.716  10.431   8.738 -0.2394  0.0643 -0.3530
  394MOL0    Cl54279   3.647  10.391   8.902  0.2442 -0.1640  0.4661
  394MOL0     C54280   4.434   9.854   8.898 -0.4940  0.0094  0.3924
  394MOL0     C54281   4.542   9.773   8.942 -1.2158 -0.0748 -0.0366
  394MOL0     O54282   4.746   9.492   8.750  0.4142  0.2855 -0.6102
  394MOL0     C54283   4.926   9.505   9.067 -0.0792  1.6533  0.1528
  394MOL0     C54284   5.009   9.420   9.155  0.0600 -0.1099  0.4822
  394MOL0     N54285   5.574   9.430   9.324  0.4975 -0.1576 -0.3180
  394MOL0     N54286   5.648   9.534   9.362 -0.5886  0.1618 -0.2497
  394MOL0     C54287   5.350   9.671  10.144  0.6781  0.4837  0.1214
  394MOL0     C54288   5.270   9.563  10.192 -0.6464  0.2919 -0.2429
  394MOL0     C54289   5.115   9.262  10.503  0.3887 -0.1810 -0.4840
  394MOL0     C54290   5.054   9.229  10.625 -0.4989  0.3962  0.0549
  394MOL0     C54291   5.006   9.101  10.645 -0.4525  0.2302 -0.2217
  394MOL0     C54292   5.004   9.014  10.533  0.4664 -0.4295 -0.6252
  394MOL0     O54293   4.923   8.905  10.560  0.8310 -0.0426  0.3768
  394MOL0     C54294   4.777   8.930  10.569  0.3376  0.3259 -0.9618
  394MOL0     C54295   4.708   8.879  10.449  0.4694 -0.0832 -0.4367
  394MOL0     C54296   4.600   8.774  10.494 -0.1260  0.8489 -0.6010
  394MOL0     C54297   4.658   8.632  10.501 -0.5809 -0.4829  0.0770
  394MOL0     C54298   4.560   8.535  10.557 -0.1809 -0.0510  0.1627
  394MOL0     C54299   4.504   8.439  10.608  0.6767  0.2964  0.8358
  394MOL0     C54300   5.060   9.048  10.416 -0.1332  0.9880  0.1664
  394MOL0     C54301   5.112   9.176  10.390 -0.0136 -0.3863  1.3217
  394MOL0     C54302   5.190   9.188  10.257  0.1119  0.5015 -0.5109
  394MOL0     H54303   5.228   9.679  10.506 -0.4141 -2.7078 -0.0873
  394MOL0     H54304   5.332   9.873  10.410 -1.3727  1.1271 -2.5147
  394MOL0     H54305   5.563   9.756  10.052 -2.0339 -0.8396  0.6214
  394MOL0     H54306   5.605   9.937  10.049 -0.6635  0.9661  1.5957
  394MOL0     H54307   5.356   9.815   9.921 -0.9962  0.5204  1.0465
  394MOL0     H54308   5.423   9.977   9.902 -1.7810 -1.3024 -0.7248
  394MOL0     H54309   5.632   9.895   9.836 -1.0069  0.7599  1.0760
  394MOL0     H54310   5.586   9.736   9.796  0.6396 -0.9325  1.1798
  394MOL0     H54311   5.393   9.843   9.662  1.3421 -0.8602  1.0878
  394MOL0     H54312   5.462  10.000   9.709  1.0612 -0.0879  2.2848
  394MOL0     H54313   5.652   9.807   9.571 -2.6705 -0.8703  0.8268
  394MOL0     H54314   5.645   9.980   9.543  1.4764 -0.8509 -1.7441
  394MOL0     H54315   5.446   9.783   9.430 -1.0051  1.0263  0.8705
  394MOL0     H54316   5.426   9.958   9.438 -0.0809  0.6167  2.4454
  394MOL0     H54317   5.647   9.995   9.299  0.1221  0.7135 -0.7252
  394MOL0     H54318   5.516   9.906   9.228  0.2699  0.5408  0.1191
  394MOL0     H54319   5.746   9.783   9.203  0.3841  2.9761 -0.4118
  394MOL0     H54320   5.752   9.770   9.377 -1.8729  1.9832  1.0028
  394MOL0     H54321   5.458   9.670   9.123  1.2801 -1.6830 -2.2576
  394MOL0     H54322   5.352   9.421   9.055 -2.3723 -3.7176 -0.1449
  394MOL0     H54323   5.316   9.390   9.233 -2.3482 -0.1150 -2.2307
  394MOL0     H54324   5.538   9.241   9.071  0.4414 -3.0674  0.1286
  394MOL0     H54325   5.451   9.196   9.224 -0.9929  2.9657  2.2636
  394MOL0     H54326   5.327   9.210   8.947  1.7618  1.1072 -0.2379
  394MOL0     H54327   5.395   9.066   9.004  0.9936  0.2151 -1.8181
  394MOL0     H54328   5.159   9.046   9.047 -3.5786  0.8402  2.6199
  394MOL0     H54329   5.252   9.036   9.188 -2.2388 -0.4736  2.0178
  394MOL0     H54330   5.064   9.174   8.915 -2.6874 -1.4841 -0.2957
  394MOL0     H54331   4.831   9.260   8.736  0.6974  1.4042  3.1104
  394MOL0     H54332   4.998   9.213   8.720 -2.9579 -1.7170 -0.3704
  394MOL0     H54333   4.952   9.369   8.664  1.7929  2.2274  1.5199
  394MOL0     H54334   4.734   9.794   8.663  0.0915  0.5684  0.9314
  394MOL0     H54335   4.516   9.903   8.586  2.1675  0.4793 -0.0746
  394MOL0     H54336   4.288   9.985   8.506  1.4078 -1.4553  0.2110
  394MOL0     H54337   4.311   9.823   8.536  0.1611 -0.9626 -0.0598
  394MOL0     H54338   4.076   9.821   8.497  0.6556 -0.7390  0.2152
  394MOL0     H54339   4.101   9.810   8.674 -0.4275  3.2995  2.4472
  394MOL0     H54340   4.039  10.053   8.496  0.4211  1.2104  1.1720
  394MOL0     H54341   4.040  10.056   8.679 -1.5586 -3.1067  3.7675
  394MOL0     H54342   3.865   9.907   8.697 -1.5415  0.0893  0.4182
  394MOL0     H54343   3.843   9.883   8.520  0.7306  0.4172 -0.8143
  394MOL0     H54344   3.802  10.130   8.501 -0.3179  0.6412 -0.0579
  394MOL0     H54345   3.678  10.040   8.593  1.0011 -1.4796  1.1830
  394MOL0     H54346   3.880  10.231   8.722  1.1830  0.8174 -4.3397
  394MOL0     H54347   3.724  10.148   8.783 -0.5642 -1.0105 -0.8540
  394MOL0     H54348   3.591  10.301   8.642 -0.1448  1.8439  2.1859
  394MOL0     H54349   3.744  10.350   8.560 -0.2810  3.4267  0.7912
  394MOL0     H54350   3.667  10.515   8.688  1.8821  1.4061 -0.3024
  394MOL0     H54351   3.818  10.470   8.737  0.2681 -1.2173 -1.5533
  394MOL0     H54352   4.356   9.879   8.969 -1.0229  0.0624 -0.1926
  394MOL0     H54353   4.544   9.726   9.040 -3.1833  0.1685  0.1700
  394MOL0     H54354   4.887   9.601   9.097 -4.5492  0.6675 -1.6594
  394MOL0     H54355   5.056   9.463   9.243 -1.6256  3.7186 -0.2745
  394MOL0     H54356   5.375   9.644  10.042  0.9762  0.8570  0.0905
  394MOL0     H54357   5.225   9.479  10.139  0.1083 -0.9281  0.9732
  394MOL0     H54358   5.039   9.296  10.709  0.4840 -0.0830  0.6269
  394MOL0     H54359   4.952   9.071  10.735 -1.0344 -1.0153 -0.9589
  394MOL0     H54360   4.737   8.888  10.661 -0.8911  1.1944 -1.0811
  394MOL0     H54361   4.749   9.034  10.587 -1.9348 -0.6685  2.1334
  394MOL0     H54362   4.771   8.836  10.370  1.5071  0.3303  0.1463
  394MOL0     H54363   4.655   8.966  10.409  1.3597  1.4720  1.5964
  394MOL0     H54364   4.555   8.793  10.592 -0.5513  1.3507 -0.8882
  394MOL0     H54365   4.520   8.780  10.420 -2.3388 -1.5330  1.3864
  394MOL0     H54366   4.746   8.637  10.566 -1.6032 -0.8015  1.5336
  394MOL0     H54367   4.690   8.590  10.405 -0.8971  0.3261 -0.3878
  394MOL0     H54368   4.463   8.349  10.650  0.3063  0.5032  0.9233
  394MOL0     H54369   5.054   8.972  10.339  0.5076  0.1377  0.9350
  394MOL0     H54370   5.287   9.227  10.289 -1.0032 -0.8554  6.0553
  394MOL0     H54371   5.194   9.087  10.217 -2.5999  1.3543 -3.3665
  394MOL0     H54372   5.144   9.257  10.185  1.2757  2.1738  0.2783
  395MOL0     O54373   0.111   9.873   0.201  0.5092  0.7130  0.2778
  395MOL0     C54374   0.199   9.855   0.287  0.2533  0.0491  0.6809
  395MOL0     O54375   0.326   9.850   0.263  0.0598 -0.1883 -0.3359
  395MOL0     C54376   0.383   9.884   0.142 -1.1359 -0.7295 -0.7171
  395MOL0     C54377   0.324   9.870   0.012 -0.6809  0.4063 -0.3460
  395MOL0     C54378   0.400   9.903  -0.103 -0.6572  1.7612  0.0897
  395MOL0     C54379   0.524   9.969  -0.104 -0.1274  0.8112  0.5651
  395MOL0     O54380   0.608  10.003  -0.205  0.0697  0.2510  0.4870
  395MOL0     C54381   0.554  10.110  -0.282 -0.1215 -0.0143 -1.2995
  395MOL0     C54382   0.646  10.230  -0.250  0.0731 -0.7661  0.0820
  395MOL0     C54383   0.619  10.352  -0.337 -0.4640 -0.1664 -0.1919
  395MOL0     C54384   0.739  10.379  -0.424 -0.5572  0.7784 -0.3231
  395MOL0     C54385   0.725  10.510  -0.506  0.1083  0.0655  0.0332
  395MOL0     C54386   0.796  10.516  -0.638 -0.3682  0.0738 -0.1515
  395MOL0     C54387   0.741  10.403  -0.729 -0.3716 -0.2627 -0.1386
  395MOL0     C54388   0.755  10.435  -0.879 -0.3475 -0.3409 -0.4104
  395MOL0     N54389   0.708  10.319  -0.954  0.5646  0.0135 -0.2200
  395MOL0     C54390   0.574  10.274  -0.953 -0.2134 -0.8592 -0.6143
  395MOL0     C54391   0.581  10.151  -1.007  0.0929 -0.2273  0.3473
  395MOL0     C54392   0.466  10.044  -1.008  0.4607 -0.6533  0.0264
  395MOL0     C54393   0.428   9.986  -0.868  0.7444  0.0336  0.1361
  395MOL0     C54394   0.287   9.938  -0.858 -0.3943 -0.3267 -0.6331
  395MOL0     C54395   0.261   9.878  -0.712  0.1874 -0.6568 -0.1539
  395MOL0     O54396   0.289   9.980  -0.609 -0.6130 -0.0450  0.5264
  395MOL0     C54397   0.209  10.088  -0.603 -0.8918 -0.0109  0.8727
  395MOL0     C54398   0.266  10.211  -0.615 -0.4927  0.5909  0.9646
  395MOL0     C54399   0.187  10.323  -0.635 -0.1866 -0.0392 -0.2884
  395MOL0     C54400   0.269  10.452  -0.678 -0.0822 -0.5478  0.1311
  395MOL0     C54401   0.049  10.314  -0.635 -0.4426  0.1221 -0.1886
  395MOL0     C54402  -0.035  10.438  -0.658  0.0775 -0.0559  0.5617
  395MOL0     O54403  -0.156  10.410  -0.715 -0.7347 -0.4167 -0.1025
  395MOL0     C54404  -0.267  10.488  -0.693  0.1779 -0.4857 -0.2213
  395MOL0     C54405  -0.277  10.591  -0.596  0.5173 -0.2860 -0.8358
  395MOL0     C54406  -0.397  10.674  -0.593  0.2156  0.8351 -1.2490
  395MOL0     C54407  -0.503  10.654  -0.687 -0.0862 -0.5692  0.0404
  395MOL0     O54408  -0.618  10.734  -0.691 -0.0731 -0.1253 -0.2853
  395MOL0     C54409  -0.623  10.856  -0.610  0.5058 -0.2879  0.9336
  395MOL0     C54410  -0.746  10.943  -0.645  0.2195 -0.2885 -1.4111
  395MOL0     C54411  -0.760  10.967  -0.792 -0.0460  0.7466 -0.6614
  395MOL0     C54412  -0.877  11.066  -0.813 -0.0508 -0.0663  0.5225
  395MOL0     C54413  -1.018  11.006  -0.791  1.1423 -0.3075  0.0850
  395MOL0     C54414  -1.062  10.915  -0.913 -0.8808  0.8847  0.4466
  395MOL0     C54415  -1.050  10.992  -1.046 -0.4356  0.0996  1.5512
  395MOL0     C54416  -1.122  11.124  -1.061  0.8902 -0.7412  0.3434
  395MOL0    Cl54417  -1.294  11.110  -1.009 -0.5087  0.0444 -0.6331
  395MOL0     C54418  -0.490  10.550  -0.778 -0.0449 -0.4941 -0.0482
  395MOL0     C54419  -0.380  10.473  -0.774 -0.7243  0.5722  0.3579
  395MOL0     O54420   0.004  10.550  -0.629 -0.1475  0.4912  0.2928
  395MOL0     C54421  -0.010  10.185  -0.613  0.3668 -0.6369  0.1974
  395MOL0     C54422   0.075  10.076  -0.601  0.0982  0.2703 -0.0199
  395MOL0     N54423   0.712  10.133  -1.055 -0.2024 -0.8977  0.8255
  395MOL0     N54424   0.787  10.235  -1.039  1.2462 -0.4202 -0.4517
  395MOL0     C54425   0.577   9.983   0.024  0.3708  0.2907 -0.9825
  395MOL0     C54426   0.517   9.937   0.143 -0.2206  0.6823 -0.1224
  395MOL0     C54427   0.141   9.836   0.429 -0.1543 -0.2321  0.5978
  395MOL0     C54428   0.003   9.809   0.436 -0.3383 -0.3427 -0.1815
  395MOL0     C54429  -0.067   9.808   0.556 -0.7724  0.1822 -0.2071
  395MOL0     C54430   0.008   9.810   0.674 -0.7111  0.1162  0.6880
  395MOL0     O54431  -0.061   9.798   0.785 -0.6679 -0.3342 -0.5633
  395MOL0     C54432   0.016   9.742   0.893 -0.5963 -0.3223  0.1405
  395MOL0     C54433  -0.082   9.684   0.983  0.4661 -0.1513 -0.5235
  395MOL0     C54434  -0.153   9.555   0.943 -0.4474  1.5426  0.2522
  395MOL0     C54435  -0.300   9.554   0.979 -0.5513  0.9440 -0.5387
  395MOL0     C54436  -0.346   9.430   0.914 -0.3370 -0.0202 -0.0745
  395MOL0     C54437  -0.372   9.311   0.879 -0.6194  0.3218 -0.3896
  395MOL0     C54438   0.147   9.841   0.678 -0.7374  0.1700  0.0794
  395MOL0     C54439   0.215   9.862   0.554  0.6841  0.0322  0.3135
  395MOL0     C54440   0.355   9.905   0.556 -0.5495 -0.7031 -0.4379
  395MOL0     H54441   0.230   9.819  -0.010 -0.5876 -0.2681  0.7005
  395MOL0     H54442   0.364   9.870  -0.200 -0.1619  0.9338  0.1787
  395MOL0     H54443   0.455  10.134  -0.243  1.1689 -0.5003  2.7183
  395MOL0     H54444   0.554  10.087  -0.389 -2.3164 -3.6800 -0.6759
  395MOL0     H54445   0.631  10.257  -0.145 -1.9529 -1.1551 -0.0670
  395MOL0     H54446   0.751  10.198  -0.256  0.9044  0.3564  4.8695
  395MOL0     H54447   0.531  10.330  -0.398 -0.8007  1.2657 -0.2565
  395MOL0     H54448   0.593  10.444  -0.285 -0.3805  1.5630 -3.0232
  395MOL0     H54449   0.831  10.376  -0.366 -0.7477  1.4437  0.0286
  395MOL0     H54450   0.760  10.300  -0.497  0.0230  0.8238 -0.2132
  395MOL0     H54451   0.755  10.595  -0.444  5.3135 -1.4633  0.0873
  395MOL0     H54452   0.622  10.522  -0.540  0.1638  1.1927  0.2364
  395MOL0     H54453   0.797  10.607  -0.698 -1.0453 -1.2170 -2.2390
  395MOL0     H54454   0.904  10.508  -0.626 -0.0582  3.5132  0.3348
  395MOL0     H54455   0.643  10.374  -0.689  1.4287 -1.3384  4.0046
  395MOL0     H54456   0.796  10.312  -0.701  2.1612  0.6068 -1.9256
  395MOL0     H54457   0.700  10.523  -0.911 -1.3544 -0.1563  1.6714
  395MOL0     H54458   0.861  10.456  -0.897 -0.5682  1.6350  0.4327
  395MOL0     H54459   0.493  10.324  -0.901  0.8175 -0.8699  1.0757
  395MOL0     H54460   0.498   9.962  -1.073  4.3589  1.1343 -0.6344
  395MOL0     H54461   0.380  10.100  -1.046  1.3635  1.3867  0.8497
  395MOL0     H54462   0.497   9.909  -0.832 -2.9989 -2.3443  3.0330
  395MOL0     H54463   0.435  10.076  -0.805 -0.1125  0.8669 -0.9154
  395MOL0     H54464   0.213  10.015  -0.882  0.1207  0.3624 -0.0639
  395MOL0     H54465   0.268   9.855  -0.926  2.1858 -3.7248  2.4133
  395MOL0     H54466   0.158   9.841  -0.710 -1.3070  3.0708 -0.1471
  395MOL0     H54467   0.334   9.798  -0.694  2.5555  1.0555 -1.5117
  395MOL0     H54468   0.374  10.213  -0.607 -0.4268  0.0121  0.2658
  395MOL0     H54469   0.219  10.505  -0.760 -0.3943  0.2723  0.8289
  395MOL0     H54470   0.365  10.425  -0.723 -0.2273 -2.2038  0.7566
  395MOL0     H54471   0.282  10.516  -0.590  1.0296 -3.9147  2.6222
  395MOL0     H54472  -0.195  10.622  -0.531  1.4208 -0.5481 -1.8137
  395MOL0     H54473  -0.401  10.761  -0.528  1.1539  1.0403 -1.4522
  395MOL0     H54474  -0.629  10.823  -0.506  3.4344 -0.2702  1.1894
  395MOL0     H54475  -0.540  10.927  -0.616  2.3631 -2.4504 -0.7406
  395MOL0     H54476  -0.837  10.900  -0.603  0.0266 -0.0214 -1.5463
  395MOL0     H54477  -0.721  11.033  -0.587 -0.6253 -0.5863 -0.5579
  395MOL0     H54478  -0.770  10.873  -0.847  1.3211  0.8213 -1.0670
  395MOL0     H54479  -0.666  11.014  -0.823 -0.9763  1.8573 -1.9228
  395MOL0     H54480  -0.859  11.116  -0.909 -0.9809  0.9550  0.8598
  395MOL0     H54481  -0.869  11.150  -0.743  3.9423 -1.4794  2.0243
  395MOL0     H54482  -1.019  10.951  -0.697  0.0554  1.9594  1.4665
  395MOL0     H54483  -1.084  11.093  -0.779  2.9312  1.1031  0.2544
  395MOL0     H54484  -1.163  10.876  -0.895 -0.7740  1.1592  1.7955
  395MOL0     H54485  -0.992  10.831  -0.908  0.6969  2.2232  1.7022
  395MOL0     H54486  -1.079  10.928  -1.130 -2.2431 -0.5877  2.6508
  395MOL0     H54487  -0.943  11.013  -1.055 -0.5245  0.1253  0.4531
  395MOL0     H54488  -1.131  11.155  -1.166 -0.4321  0.8769  0.8859
  395MOL0     H54489  -1.072  11.209  -1.014  1.9444 -1.2076  0.0971
  395MOL0     H54490  -0.577  10.519  -0.835 -2.6044  1.5486  2.4329
  395MOL0     H54491  -0.375  10.386  -0.839  0.2809  0.2420  0.8522
  395MOL0     H54492  -0.117  10.175  -0.598  0.0815  1.4859 -0.0957
  395MOL0     H54493   0.014   9.987  -0.593  1.8848 -1.0898 -0.8734
  395MOL0     H54494   0.680  10.018   0.018  0.5898  0.0356  0.7309
  395MOL0     H54495   0.573   9.947   0.236  3.9414 -3.7293 -1.7213
  395MOL0     H54496  -0.056   9.808   0.345  1.0844 -1.0517 -1.1261
  395MOL0     H54497  -0.175   9.800   0.557 -1.0014  2.6748  0.5582
  395MOL0     H54498   0.089   9.667   0.858 -1.0279  0.3683 -2.5152
  395MOL0     H54499   0.075   9.817   0.945  0.0960  0.7481 -2.0461
  395MOL0     H54500  -0.140   9.769   1.020  5.4785  3.4774  0.0371
  395MOL0     H54501  -0.016   9.649   1.064  1.6035  0.8013 -1.0041
  395MOL0     H54502  -0.137   9.552   0.835 -0.2553 -2.2454  0.2612
  395MOL0     H54503  -0.104   9.466   0.984 -3.7059 -2.2220 -3.1979
  395MOL0     H54504  -0.357   9.631   0.926 -0.5029  2.6267  1.6862
  395MOL0     H54505  -0.331   9.548   1.083 -4.5914 -2.8082 -1.6651
  395MOL0     H54506  -0.396   9.209   0.856 -2.1276 -0.3660  3.4254
  395MOL0     H54507   0.205   9.862   0.768 -0.5378 -1.8988  0.5011
  395MOL0     H54508   0.414   9.824   0.512 -0.1272 -1.3203  1.2028
  395MOL0     H54509   0.369   9.992   0.492  1.3144 -2.1438 -2.1426
  395MOL0     H54510   0.395   9.930   0.654  1.7739 -0.8938 -1.2779
  396MOL0     O54511   1.828  11.505   1.777 -0.1209  0.1873  0.3200
  396MOL0     C54512   1.712  11.541   1.769 -0.5397 -0.6551 -0.0947
  396MOL0     O54513   1.616  11.485   1.843  0.1152 -0.4514  0.1360
  396MOL0     C54514   1.632  11.419   1.961  0.4358  0.6501 -0.9670
  396MOL0     C54515   1.527  11.338   2.006  0.5074 -0.0922 -0.0560
  396MOL0     C54516   1.532  11.258   2.112 -0.3849  0.1314 -0.1930
  396MOL0     C54517   1.654  11.257   2.184  0.2900 -0.5471 -0.0329
  396MOL0     O54518   1.694  11.153   2.266  1.0177 -0.2243 -0.4206
  396MOL0     C54519   1.602  11.081   2.355 -0.0748 -0.2526 -0.5798
  396MOL0     C54520   1.633  10.933   2.344  0.1346  1.1653  0.2239
  396MOL0     C54521   1.590  10.886   2.212  0.6242  1.0366  0.1879
  396MOL0     C54522   1.580  10.728   2.209 -0.4260 -0.5032  0.2816
  396MOL0     C54523   1.527  10.677   2.083  0.6777 -0.1865 -0.4450
  396MOL0     C54524   1.536  10.527   2.081  0.0782 -0.0197 -0.5403
  396MOL0     C54525   1.500  10.471   1.947 -0.6046  0.2178  0.6629
  396MOL0     C54526   1.474  10.320   1.928  0.9062 -0.1788  0.0685
  396MOL0     N54527   1.592  10.242   1.979  0.7592  0.1688  0.2905
  396MOL0     C54528   1.616  10.190   2.103 -0.0624 -0.4450 -0.4502
  396MOL0     C54529   1.745  10.155   2.102 -0.4655  1.2559  1.2364
  396MOL0     C54530   1.829  10.103   2.214  0.0544  1.2859 -0.2358
  396MOL0     C54531   1.783   9.969   2.274  0.4880 -0.4760  0.2881
  396MOL0     C54532   1.779   9.854   2.173 -0.3128  0.0294 -0.7055
  396MOL0     C54533   1.742   9.716   2.226 -0.1868 -0.3341  0.1660
  396MOL0     O54534   1.611   9.718   2.290 -0.0254 -0.5488  0.5807
  396MOL0     C54535   1.563   9.588   2.304  0.2023  0.0840 -0.0870
  396MOL0     C54536   1.604   9.504   2.412  0.7155 -0.4207 -0.8392
  396MOL0     C54537   1.551   9.371   2.435  0.9275  0.0410  1.0092
  396MOL0     C54538   1.583   9.291   2.562  0.1034 -0.1201 -0.7881
  396MOL0     C54539   1.458   9.323   2.332  0.7600  0.4401  0.0284
  396MOL0     C54540   1.389   9.193   2.336 -0.8404 -0.8880 -0.3336
  396MOL0     O54541   1.363   9.142   2.215  0.8378  1.0204  0.0266
  396MOL0     C54542   1.263   9.038   2.208 -0.8679 -0.4871 -0.5320
  396MOL0     C54543   1.143   9.027   2.288 -0.3019  1.0180  0.0866
  396MOL0     C54544   1.073   8.905   2.271  0.3421  0.0750  0.0575
  396MOL0     C54545   1.103   8.808   2.179 -0.2023  1.3651 -1.3949
  396MOL0     O54546   1.032   8.690   2.164  0.8351  0.6213  0.6558
  396MOL0     C54547   0.899   8.669   2.212  0.4359 -0.2040  0.5260
  396MOL0     C54548   0.897   8.516   2.243  0.1084 -0.2425  0.2419
  396MOL0     C54549   0.929   8.471   2.385 -0.2916  1.1932 -0.7494
  396MOL0     C54550   0.927   8.318   2.391 -0.1595 -0.4373  0.1250
  396MOL0     C54551   0.922   8.268   2.540 -0.5538  0.2803 -0.4951
  396MOL0     C54552   1.064   8.246   2.594  0.0848  1.4115  0.5391
  396MOL0     C54553   1.081   8.183   2.740 -1.4946 -0.3270 -0.0603
  396MOL0     C54554   1.179   8.079   2.735 -0.7227  0.0630 -0.9642
  396MOL0    Cl54555   1.343   8.146   2.710 -0.2115 -0.3702  0.1924
  396MOL0     C54556   1.207   8.832   2.087  0.5433 -0.0934  0.1005
  396MOL0     C54557   1.285   8.946   2.107 -0.4095  0.4579  0.4521
  396MOL0     O54558   1.364   9.147   2.449 -0.1119 -0.1798 -0.1423
  396MOL0     C54559   1.417   9.413   2.231 -0.3624 -0.8118  0.3987
  396MOL0     C54560   1.473   9.542   2.225  0.0032  0.2937  0.2158
  396MOL0     N54561   1.798  10.170   1.978 -0.0002  0.1405 -0.6860
  396MOL0     N54562   1.705  10.221   1.908 -0.7467 -0.1689 -0.5976
  396MOL0     C54563   1.761  11.336   2.143 -0.3058 -0.1358 -0.5894
  396MOL0     C54564   1.752  11.423   2.036  0.6826 -0.7587 -0.7453
  396MOL0     C54565   1.676  11.671   1.704  0.9364 -0.3673 -0.0540
  396MOL0     C54566   1.550  11.733   1.728 -0.6472  0.0279 -0.0853
  396MOL0     C54567   1.517  11.862   1.683 -0.4804 -0.6127 -0.1278
  396MOL0     C54568   1.600  11.918   1.581 -1.0156 -0.0472  0.2069
  396MOL0     O54569   1.560  12.046   1.527 -0.5586  0.6087  0.0813
  396MOL0     C54570   1.624  12.093   1.412 -0.6281 -0.5235 -0.7693
  396MOL0     C54571   1.573  12.232   1.389  0.3992 -0.4470 -0.2163
  396MOL0     C54572   1.429  12.231   1.322  1.1048 -1.4178 -0.1043
  396MOL0     C54573   1.440  12.220   1.166  0.4077  0.3963  1.2117
  396MOL0     C54574   1.508  12.340   1.115 -0.6857 -0.3048 -0.2268
  396MOL0     C54575   1.571  12.444   1.096 -0.0844 -0.6881 -0.4784
  396MOL0     C54576   1.719  11.852   1.549 -0.1606  0.4906 -0.3830
  396MOL0     C54577   1.760  11.734   1.614  0.1730  0.6547 -0.2136
  396MOL0     C54578   1.889  11.668   1.578  0.6278  0.1980  0.6224
  396MOL0     H54579   1.443  11.340   1.936  0.5842 -3.2923 -0.4092
  396MOL0     H54580   1.451  11.189   2.136  1.0020 -1.2101  0.8522
  396MOL0     H54581   1.496  11.092   2.330 -0.5752 -3.1465 -0.0803
  396MOL0     H54582   1.629  11.117   2.455 -2.4807 -3.4975  1.4262
  396MOL0     H54583   1.741  10.915   2.355 -0.7077 -5.2915  2.0207
  396MOL0     H54584   1.580  10.874   2.419  1.4914  0.0461  0.3402
  396MOL0     H54585   1.485  10.915   2.207  0.0588 -1.0104 -3.2544
  396MOL0     H54586   1.641  10.943   2.134  0.8675  1.9381  0.9895
  396MOL0     H54587   1.681  10.687   2.221  0.1067  0.8319  0.5032
  396MOL0     H54588   1.522  10.692   2.295  1.7850 -0.6762  1.8153
  396MOL0     H54589   1.585  10.701   1.994  1.2702 -1.3392 -0.3975
  396MOL0     H54590   1.426  10.713   2.064 -0.2314 -2.5086 -0.3721
  396MOL0     H54591   1.631  10.481   2.112  1.6629  1.9368 -2.1995
  396MOL0     H54592   1.469  10.490   2.159 -1.8475  0.1494 -2.0598
  396MOL0     H54593   1.588  10.487   1.884 -1.6168  2.0628 -0.3799
  396MOL0     H54594   1.413  10.524   1.906 -1.4768 -1.6969 -0.0843
  396MOL0     H54595   1.392  10.285   1.990  1.6046  1.7182  2.1914
  396MOL0     H54596   1.447  10.297   1.824  1.0732 -1.3735  0.2792
  396MOL0     H54597   1.554  10.188   2.193  0.1730 -0.5100 -0.2886
  396MOL0     H54598   1.813  10.181   2.289 -2.0013  2.9517 -2.2720
  396MOL0     H54599   1.936  10.089   2.192  0.2080 -1.2126  1.7003
  396MOL0     H54600   1.858   9.959   2.353  2.7540  0.1401 -1.6824
  396MOL0     H54601   1.684   9.989   2.315  0.4555 -0.7898  0.3636
  396MOL0     H54602   1.705   9.859   2.092 -0.9410 -4.5462 -0.6247
  396MOL0     H54603   1.878   9.843   2.127  1.0600 -0.7770  2.2350
  396MOL0     H54604   1.752   9.646   2.143 -1.8085  0.9048 -1.1416
  396MOL0     H54605   1.820   9.695   2.300 -0.7622  0.5169  1.0486
  396MOL0     H54606   1.659   9.562   2.485 -2.1066  1.3608  0.0187
  396MOL0     H54607   1.679   9.323   2.605  0.6805 -1.3815 -1.0849
  396MOL0     H54608   1.604   9.187   2.534 -1.7947 -1.8957  3.5170
  396MOL0     H54609   1.497   9.297   2.630  2.5366  4.9313  2.5061
  396MOL0     H54610   1.111   9.110   2.350 -0.3291  0.2163  1.1782
  396MOL0     H54611   0.991   8.895   2.343  0.8870  1.5098  0.9262
  396MOL0     H54612   0.887   8.725   2.305  2.3372 -1.4313  1.5719
  396MOL0     H54613   0.820   8.691   2.139 -3.1388  0.8508  4.2672
  396MOL0     H54614   0.797   8.480   2.220  0.7118 -0.7425 -1.8524
  396MOL0     H54615   0.966   8.469   2.171  0.1115 -0.7236  0.5532
  396MOL0     H54616   0.864   8.516   2.461  2.8923  1.1363  2.2500
  396MOL0     H54617   1.029   8.505   2.414  0.3710 -0.4648 -0.9818
  396MOL0     H54618   1.008   8.275   2.332 -1.7513 -0.8783 -1.8642
  396MOL0     H54619   0.837   8.268   2.353  0.7788 -0.8509 -1.6391
  396MOL0     H54620   0.880   8.351   2.599 -0.2345 -1.2631  2.0780
  396MOL0     H54621   0.858   8.181   2.557  1.7138 -1.6330 -1.2979
  396MOL0     H54622   1.115   8.342   2.581  0.2651  1.6713  2.8677
  396MOL0     H54623   1.101   8.180   2.515  0.4571  1.5111  0.6246
  396MOL0     H54624   0.988   8.142   2.778 -1.2322  0.4315  1.4524
  396MOL0     H54625   1.115   8.262   2.807 -1.4366 -0.6541  0.3026
  396MOL0     H54626   1.161   8.006   2.656 -3.1744  0.8481 -1.2057
  396MOL0     H54627   1.197   8.025   2.828 -0.0623 -0.2115 -1.2473
  396MOL0     H54628   1.243   8.771   2.005  1.3099 -0.3150  0.5909
  396MOL0     H54629   1.371   8.962   2.041 -2.0622  1.3629 -1.6023
  396MOL0     H54630   1.338   9.387   2.160  1.7512  0.4074 -2.6418
  396MOL0     H54631   1.421   9.608   2.156 -1.7963  0.6133  1.7799
  396MOL0     H54632   1.860  11.331   2.188 -1.0633 -0.6639  1.0606
  396MOL0     H54633   1.829  11.496   2.017 -0.7636  1.1406  0.3392
  396MOL0     H54634   1.481  11.669   1.783 -2.2087  0.5920 -1.3237
  396MOL0     H54635   1.427  11.913   1.718  1.1830  4.7265 -2.5880
  396MOL0     H54636   1.732  12.105   1.425 -0.6623 -1.6439  0.9495
  396MOL0     H54637   1.607  12.032   1.323  1.5799 -2.6237  0.1221
  396MOL0     H54638   1.645  12.293   1.334  0.4749  1.2411  1.6327
  396MOL0     H54639   1.566  12.287   1.483  1.6484 -2.2027  0.9597
  396MOL0     H54640   1.378  12.139   1.354 -0.0860 -1.4094 -1.8728
  396MOL0     H54641   1.374  12.323   1.345  2.9159 -0.5360  0.9488
  396MOL0     H54642   1.336  12.231   1.134  0.5994  0.5678  0.6457
  396MOL0     H54643   1.496  12.134   1.129 -0.4540 -0.3294  1.5680
  396MOL0     H54644   1.628  12.534   1.081  0.4423 -0.5046  2.1160
  396MOL0     H54645   1.784  11.888   1.470 -0.8757  1.5957 -0.4901
  396MOL0     H54646   1.864  11.583   1.514  0.5121  0.5629  0.1729
  396MOL0     H54647   1.952  11.730   1.513  5.1158 -5.3751 -1.1795
  396MOL0     H54648   1.959  11.643   1.659  1.0895  1.0883  0.5096
  397MOL0     O54649  11.449  10.070   2.299  0.4301  0.0574 -0.3869
  397MOL0     C54650  11.344   9.999   2.322  0.3606 -0.0674 -0.0850
  397MOL0     O54651  11.339   9.891   2.409  0.0977 -0.7523 -0.4779
  397MOL0     C54652  11.455   9.837   2.470 -0.2163 -1.3517  0.9608
  397MOL0     C54653  11.576   9.829   2.403 -0.3680 -0.7370  0.1415
  397MOL0     C54654  11.689   9.766   2.472  0.5839 -0.3582  0.7456
  397MOL0     C54655  11.675   9.705   2.593 -0.0041 -0.3216 -0.2804
  397MOL0     O54656  11.765   9.644   2.679 -0.9789 -0.3821  0.0456
  397MOL0     C54657  11.887   9.580   2.627  0.0679  0.7365  0.0020
  397MOL0     C54658  11.846   9.452   2.556 -0.6386  0.4349  0.1967
  397MOL0     C54659  11.728   9.392   2.640  0.6687  0.3846 -0.6713
  397MOL0     C54660  11.694   9.248   2.596  0.5522  0.0301 -0.3679
  397MOL0     C54661  11.568   9.210   2.680  0.7014  0.0308 -0.6899
  397MOL0     C54662  11.545   9.066   2.685  0.2619 -0.4726  0.2413
  397MOL0     C54663  11.419   9.029   2.775  0.2605 -0.0717 -0.7777
  397MOL0     C54664  11.373   8.895   2.769  0.8693 -0.0321 -0.0667
  397MOL0     N54665  11.285   8.869   2.885 -0.2509 -0.5464  0.1021
  397MOL0     C54666  11.211   8.966   2.965 -0.2356  0.0553  1.3369
  397MOL0     C54667  11.129   8.891   3.039 -1.1502 -0.1632 -0.8505
  397MOL0     C54668  11.033   8.937   3.146 -0.5499 -0.3753 -0.1114
  397MOL0     C54669  10.891   8.880   3.128  0.1925 -0.1250 -0.0133
  397MOL0     C54670  10.802   8.936   3.240 -1.4885  0.0830 -0.0967
  397MOL0     C54671  10.653   8.905   3.231 -0.2086  0.8349  0.2068
  397MOL0     O54672  10.579   8.949   3.341 -0.0783 -0.7976  0.2046
  397MOL0     C54673  10.529   9.078   3.343 -0.6139  0.2952 -0.1317
  397MOL0     C54674  10.454   9.115   3.452  0.2064 -1.0113 -0.8781
  397MOL0     C54675  10.390   9.239   3.461  0.8716  0.8038  0.5217
  397MOL0     C54676  10.323   9.266   3.595  0.6540  0.5866  0.2973
  397MOL0     C54677  10.406   9.329   3.355 -0.3264  0.6456  0.2120
  397MOL0     C54678  10.330   9.459   3.349  0.8303  0.2838 -0.6055
  397MOL0     O54679  10.384   9.542   3.264  0.8243  0.0253  0.2922
  397MOL0     C54680  10.326   9.669   3.239  0.0392 -0.1123 -1.5331
  397MOL0     C54681  10.296   9.694   3.107 -0.1945 -0.3040 -0.1664
  397MOL0     C54682  10.250   9.826   3.068 -0.2736 -0.5759  0.2901
  397MOL0     C54683  10.209   9.914   3.181  0.2345 -0.5554  0.1637
  397MOL0     O54684  10.135  10.031   3.155 -1.0711 -0.3261  0.1776
  397MOL0     C54685  10.007  10.012   3.089 -0.9822 -0.1177  1.2977
  397MOL0     C54686   9.904  10.134   3.102  0.3227  0.1276  0.3329
  397MOL0     C54687   9.778  10.113   3.015  0.4212  0.3590 -0.0846
  397MOL0     C54688   9.689  10.231   2.993  0.1260  0.5878 -0.1489
  397MOL0     C54689   9.593  10.210   2.873  0.3604 -1.1894  0.9971
  397MOL0     C54690   9.480  10.114   2.897 -0.5620  0.7842 -0.2460
  397MOL0     C54691   9.367  10.125   2.785  0.0672  0.3423  0.9589
  397MOL0     C54692   9.242  10.059   2.828  0.1635  0.6803 -0.5988
  397MOL0    Cl54693   9.129  10.097   2.698  0.1833 -0.4981 -0.1143
  397MOL0     C54694  10.228   9.878   3.314 -1.2203  0.3903  0.7527
  397MOL0     C54695  10.291   9.757   3.343 -1.3157  1.0416 -1.2691
  397MOL0     O54696  10.237   9.481   3.431 -0.5412  0.1238 -0.3838
  397MOL0     C54697  10.483   9.293   3.242  1.9623 -0.1395  0.5326
  397MOL0     C54698  10.544   9.166   3.240  0.0184 -0.8152  0.3368
  397MOL0     N54699  11.154   8.766   3.014 -0.1528  0.1364 -0.1484
  397MOL0     N54700  11.244   8.750   2.926 -0.3016  0.0890  0.6520
  397MOL0     C54701  11.547   9.716   2.650 -0.0106  0.1702  0.4901
  397MOL0     C54702  11.437   9.775   2.587 -1.0699  0.4244  0.5583
  397MOL0     C54703  11.225  10.046   2.244  0.8939 -0.2148 -0.6071
  397MOL0     C54704  11.233  10.137   2.137  0.1817  0.0895 -0.5222
  397MOL0     C54705  11.124  10.193   2.078  0.0681  0.9652  0.3482
  397MOL0     C54706  10.996  10.134   2.098 -1.1797 -0.2074  0.1810
  397MOL0     O54707  10.881  10.166   2.031  0.1567 -0.5266  0.4899
  397MOL0     C54708  10.882  10.242   1.912 -0.5946  0.0000 -0.9956
  397MOL0     C54709  10.762  10.214   1.822  0.5180  0.1822 -0.0916
  397MOL0     C54710  10.632  10.246   1.887 -0.3224  0.0101 -0.0454
  397MOL0     C54711  10.603  10.396   1.872  0.2422 -0.7290 -0.2389
  397MOL0     C54712  10.463  10.425   1.815 -0.6892 -0.0066 -0.6152
  397MOL0     C54713  10.344  10.456   1.794 -0.5264  0.5730 -0.6644
  397MOL0     C54714  10.983  10.036   2.202  0.6325 -0.0547  0.2143
  397MOL0     C54715  11.092  10.007   2.287 -0.5694  0.4358  0.5599
  397MOL0     C54716  11.059   9.910   2.391  0.5788 -0.2768 -0.5226
  397MOL0     H54717  11.599   9.873   2.306 -2.8626  0.3738 -0.0198
  397MOL0     H54718  11.792   9.783   2.445 -0.0486  3.2241  0.0844
  397MOL0     H54719  11.956   9.533   2.698  2.4096 -0.7246 -2.9806
  397MOL0     H54720  11.944   9.643   2.558  1.9165 -0.9107 -0.0684
  397MOL0     H54721  11.803   9.476   2.458 -0.9646 -0.7154  0.0407
  397MOL0     H54722  11.926   9.381   2.535 -2.4258 -1.1434 -1.8167
  397MOL0     H54723  11.751   9.375   2.745  1.0300  0.1753 -0.7822
  397MOL0     H54724  11.637   9.447   2.618 -0.5037 -1.3819 -0.4469
  397MOL0     H54725  11.672   9.237   2.489  0.3191 -2.8656 -0.1182
  397MOL0     H54726  11.782   9.184   2.610  0.9365  1.0048  2.0789
  397MOL0     H54727  11.475   9.255   2.646  0.3851  2.4204  2.7863
  397MOL0     H54728  11.582   9.247   2.782  1.6712  0.5570 -0.9971
  397MOL0     H54729  11.515   9.035   2.585  1.0254 -2.9142  0.7226
  397MOL0     H54730  11.629   9.016   2.733 -1.0640 -1.7892  1.2569
  397MOL0     H54731  11.331   9.084   2.741 -2.6215 -3.6566  0.1451
  397MOL0     H54732  11.439   9.061   2.878  0.1363  0.5884 -0.9563
  397MOL0     H54733  11.302   8.890   2.686  0.6680  0.1212  0.0953
  397MOL0     H54734  11.440   8.810   2.750 -0.6553 -1.1892 -0.5072
  397MOL0     H54735  11.198   9.073   2.966 -1.3963 -0.0677  1.7902
  397MOL0     H54736  11.019   9.045   3.133 -1.2478 -0.5404 -0.8152
  397MOL0     H54737  11.073   8.914   3.245  4.9365  2.2282 -1.3298
  397MOL0     H54738  10.851   8.911   3.032 -2.9762 -0.0758  1.1959
  397MOL0     H54739  10.896   8.771   3.138 -0.6176 -0.9609 -5.6004
  397MOL0     H54740  10.849   8.924   3.338  0.5636  1.7307 -0.7980
  397MOL0     H54741  10.799   9.044   3.224 -2.0920  0.1699  0.5730
  397MOL0     H54742  10.615   8.933   3.133  2.3287 -0.4764 -1.2619
  397MOL0     H54743  10.649   8.798   3.254  1.7717  1.0093  1.6016
  397MOL0     H54744  10.443   9.036   3.526  0.6790 -1.4197 -1.2414
  397MOL0     H54745  10.374   9.351   3.641  0.5644 -0.0591  1.6448
  397MOL0     H54746  10.340   9.178   3.658  0.1682  1.7105  2.0872
  397MOL0     H54747  10.215   9.282   3.590  0.1466 -2.6236 -2.2833
  397MOL0     H54748  10.328   9.626   3.028 -0.4099  1.2980 -1.7009
  397MOL0     H54749  10.224   9.846   2.965 -0.0993 -1.5724  0.0465
  397MOL0     H54750  10.030   9.992   2.984  0.2966 -2.0770  1.8923
  397MOL0     H54751   9.973   9.912   3.117  3.3762 -2.5682 -1.0533
  397MOL0     H54752   9.872  10.138   3.207  1.2778  1.1723  0.6076
  397MOL0     H54753   9.949  10.227   3.064 -0.0643  0.4861  0.7337
  397MOL0     H54754   9.718  10.037   3.066 -1.4880  1.6836 -0.2236
  397MOL0     H54755   9.806  10.078   2.915 -1.6120  1.7724 -1.2155
  397MOL0     H54756   9.743  10.324   2.976  0.0332  1.5133  3.6575
  397MOL0     H54757   9.632  10.260   3.082  2.2622 -0.1256  1.5315
  397MOL0     H54758   9.544  10.306   2.856  1.2832 -1.0650 -1.3542
  397MOL0     H54759   9.642  10.183   2.779  0.7596 -1.6021  1.3176
  397MOL0     H54760   9.435  10.149   2.990 -1.3967 -2.5934  0.7527
  397MOL0     H54761   9.520  10.014   2.914 -0.8161  0.6306 -0.5358
  397MOL0     H54762   9.406  10.079   2.693 -1.3671  1.0400 -0.0394
  397MOL0     H54763   9.347  10.225   2.745  1.6025 -0.2301 -1.4841
  397MOL0     H54764   9.207  10.097   2.924  1.0287  2.6432 -0.9998
  397MOL0     H54765   9.264   9.952   2.832 -0.7994  0.5064  3.0192
  397MOL0     H54766  10.179   9.934   3.393 -0.3242  0.1623  1.4738
  397MOL0     H54767  10.314   9.748   3.448 -1.0927 -1.3351 -1.4752
  397MOL0     H54768  10.501   9.362   3.160  3.2580  0.3771  1.2230
  397MOL0     H54769  10.589   9.138   3.145  1.0205 -0.3526  0.6580
  397MOL0     H54770  11.534   9.679   2.752 -0.8477  0.1498  0.3802
  397MOL0     H54771  11.341   9.762   2.636 -2.5733  1.3982 -1.9560
  397MOL0     H54772  11.330  10.177   2.107  0.7648  0.7974  2.0886
  397MOL0     H54773  11.134  10.256   1.990 -1.0807 -0.7644 -1.0990
  397MOL0     H54774  10.884  10.346   1.947  0.0058 -0.7107  1.2021
  397MOL0     H54775  10.973  10.230   1.852 -1.5806 -0.7779 -2.3838
  397MOL0     H54776  10.760  10.113   1.781  1.1029  0.9113 -2.0226
  397MOL0     H54777  10.766  10.271   1.729 -0.2409 -0.2419 -0.3925
  397MOL0     H54778  10.553  10.187   1.839 -1.1277  0.9390  0.1119
  397MOL0     H54779  10.626  10.227   1.995 -1.1469  2.4702  0.3922
  397MOL0     H54780  10.676  10.435   1.801 -0.9823  0.6811 -0.7905
  397MOL0     H54781  10.613  10.451   1.966  0.0581  1.8135 -1.6071
  397MOL0     H54782  10.241  10.482   1.779 -2.0649 -4.8317 -1.5025
  397MOL0     H54783  10.888   9.987   2.222  2.1684 -2.4237  2.2306
  397MOL0     H54784  11.098   9.937   2.490 -2.5244  2.5833  0.1288
  397MOL0     H54785  10.954   9.876   2.393  0.5298 -0.1216 -0.3729
  397MOL0     H54786  11.096   9.811   2.364  2.6922 -0.4359  2.4224
  398MOL0     O54787   7.955   0.552   0.555 -0.4821 -0.0631  0.7390
  398MOL0     C54788   7.880   0.649   0.566 -0.2715  0.2197 -0.1835
  398MOL0     O54789   7.841   0.714   0.677  0.0053  0.0408  0.0822
  398MOL0     C54790   7.871   0.657   0.798 -0.4331  0.4998 -0.0160
  398MOL0     C54791   7.815   0.531   0.845  0.8164  0.9098 -0.9089
  398MOL0     C54792   7.851   0.478   0.973  0.0406  0.2356 -0.0486
  398MOL0     C54793   7.930   0.555   1.058  0.3909 -0.6923 -0.3813
  398MOL0     O54794   7.969   0.526   1.194 -0.2823  0.0019  0.4282
  398MOL0     C54795   7.986   0.389   1.220 -0.0957 -0.5063 -0.3033
  398MOL0     C54796   8.023   0.389   1.373  1.2500  0.3549  0.4509
  398MOL0     C54797   7.901   0.374   1.466  0.5764  0.1855  0.7371
  398MOL0     C54798   7.930   0.410   1.611 -0.4229 -0.3459  0.8726
  398MOL0     C54799   8.056   0.322   1.669 -0.0572  0.7893  0.3177
  398MOL0     C54800   8.098   0.387   1.806  0.1606 -0.0964 -0.1706
  398MOL0     C54801   8.189   0.298   1.897 -0.3579 -0.2953 -0.2205
  398MOL0     C54802   8.324   0.282   1.818  0.2748 -0.9022  0.6481
  398MOL0     N54803   8.415   0.192   1.882 -0.1013 -0.3061 -0.4602
  398MOL0     C54804   8.385   0.058   1.912  0.7634 -0.3602  0.3457
  398MOL0     C54805   8.513   0.010   1.923  0.0468  0.3741 -0.7637
  398MOL0     C54806   8.518  -0.137   1.951 -0.4259 -0.2329  0.4055
  398MOL0     C54807   8.484  -0.184   2.093  0.4595  0.4594 -0.1923
  398MOL0     C54808   8.552  -0.104   2.197  0.4794 -0.5668 -0.1834
  398MOL0     C54809   8.702  -0.118   2.183  0.1709  0.3642 -0.2201
  398MOL0     O54810   8.758  -0.071   2.305  0.1672  0.4301  0.3234
  398MOL0     C54811   8.854   0.027   2.310 -0.4777  0.5456  0.3348
  398MOL0     C54812   8.926   0.039   2.430 -0.7079 -0.2663 -0.2079
  398MOL0     C54813   9.033   0.128   2.444  0.2726  0.0796 -1.3349
  398MOL0     C54814   9.099   0.116   2.580 -0.8755 -0.1994 -0.9664
  398MOL0     C54815   9.069   0.216   2.337 -0.1473  0.1979 -0.2834
  398MOL0     C54816   9.184   0.310   2.345 -0.1916  0.6097 -0.1675
  398MOL0     O54817   9.150   0.441   2.326 -0.0132 -0.1664  0.3104
  398MOL0     C54818   9.236   0.524   2.257 -0.7207  1.0869  0.2819
  398MOL0     C54819   9.213   0.658   2.248  0.6585 -0.0921 -0.9127
  398MOL0     C54820   9.289   0.750   2.184 -0.1526  0.1460  1.1518
  398MOL0     C54821   9.409   0.701   2.128  0.0556 -0.7565 -0.8394
  398MOL0     O54822   9.506   0.777   2.058 -0.0521 -0.6230  0.0793
  398MOL0     C54823   9.473   0.915   2.029  0.3957  0.6682 -0.1847
  398MOL0     C54824   9.551   0.968   1.914  0.5023 -0.3210 -0.0182
  398MOL0     C54825   9.503   1.090   1.848 -0.8856 -0.6624 -0.9059
  398MOL0     C54826   9.512   1.222   1.930 -0.8766  0.5647  0.8898
  398MOL0     C54827   9.480   1.345   1.839 -0.7339 -0.0901 -0.9284
  398MOL0     C54828   9.481   1.482   1.921  0.6146 -0.0120 -0.4255
  398MOL0     C54829   9.470   1.611   1.840 -0.2439  0.3443  0.8141
  398MOL0     C54830   9.570   1.616   1.726  0.4160  0.0285 -0.6383
  398MOL0    Cl54831   9.551   1.768   1.652  0.2216 -0.0652  0.0479
  398MOL0     C54832   9.439   0.567   2.128  1.1592  0.7204 -0.0291
  398MOL0     C54833   9.355   0.479   2.197  0.2392 -0.1426  0.5846
  398MOL0     O54834   9.300   0.262   2.341 -0.4729 -0.1348  0.8613
  398MOL0     C54835   8.993   0.215   2.217 -0.2561 -0.1971 -0.7959
  398MOL0     C54836   8.878   0.128   2.205 -0.8653  0.0226 -0.7511
  398MOL0     N54837   8.615   0.114   1.912  0.9241  1.0345  0.4924
  398MOL0     N54838   8.547   0.218   1.878 -1.0033 -0.3735 -0.8091
  398MOL0     C54839   7.978   0.684   1.012  0.1171 -0.6945  0.5195
  398MOL0     C54840   7.951   0.732   0.887 -0.4676 -0.3738  0.3928
  398MOL0     C54841   7.811   0.673   0.431  0.0043  0.7796 -0.3890
  398MOL0     C54842   7.669   0.685   0.433 -0.6299  0.7918 -0.1780
  398MOL0     C54843   7.595   0.714   0.333 -0.5591  0.5808  0.0914
  398MOL0     C54844   7.656   0.717   0.209 -0.0984 -0.1602 -0.7044
  398MOL0     O54845   7.564   0.736   0.109 -0.1893 -0.3168  0.4858
  398MOL0     C54846   7.603   0.812  -0.009 -0.0789  0.5671  0.1295
  398MOL0     C54847   7.585   0.961   0.006 -1.0442  0.6020 -0.2240
  398MOL0     C54848   7.437   1.000   0.031  0.1303 -0.0035  0.1271
  398MOL0     C54849   7.434   1.158   0.044 -0.7227  0.5570  0.0064
  398MOL0     C54850   7.302   1.205   0.098 -0.6563 -0.5794  0.9321
  398MOL0     C54851   7.189   1.251   0.131  0.2533 -0.1765 -0.9957
  398MOL0     C54852   7.793   0.694   0.196  1.0628  0.1722 -1.1591
  398MOL0     C54853   7.875   0.669   0.310  0.4719 -0.3302 -0.3932
  398MOL0     C54854   8.030   0.639   0.288  0.7567  0.0400 -0.5761
  398MOL0     H54855   7.749   0.482   0.774 -1.0043 -0.7857  1.7332
  398MOL0     H54856   7.800   0.387   1.003  4.3114 -1.9857  1.2213
  398MOL0     H54857   8.076   0.359   1.165  1.7369  1.5517  1.3450
  398MOL0     H54858   7.897   0.328   1.205 -1.7455  1.5498  0.5900
  398MOL0     H54859   8.094   0.306   1.385  0.6664 -0.1879  0.1907
  398MOL0     H54860   8.071   0.486   1.391  0.2781  1.0932 -0.7998
  398MOL0     H54861   7.819   0.439   1.435  0.6922  0.5196  1.1268
  398MOL0     H54862   7.874   0.268   1.471 -2.1594  0.7468 -0.5015
  398MOL0     H54863   7.957   0.516   1.609 -1.7388 -0.0041  0.7830
  398MOL0     H54864   7.849   0.385   1.679  0.2101 -3.9150  0.5375
  398MOL0     H54865   8.134   0.309   1.593  0.0406  0.0548  0.5354
  398MOL0     H54866   8.024   0.220   1.690  0.7462  0.1669 -1.2990
  398MOL0     H54867   8.156   0.478   1.788  1.2261 -0.5407  0.8823
  398MOL0     H54868   7.998   0.399   1.847  0.6311 -3.0918  2.1848
  398MOL0     H54869   8.139   0.201   1.913  0.9570 -0.9214  0.2055
  398MOL0     H54870   8.211   0.343   1.995 -0.8823 -2.1078  0.7824
  398MOL0     H54871   8.300   0.234   1.722  2.4407 -0.7649 -0.0343
  398MOL0     H54872   8.370   0.379   1.796 -0.6261 -0.6935 -0.3954
  398MOL0     H54873   8.287   0.014   1.929  0.9070 -0.2080  1.6822
  398MOL0     H54874   8.621  -0.167   1.930 -2.2061 -5.5752 -2.6539
  398MOL0     H54875   8.455  -0.184   1.875  0.1951  0.1278 -0.3424
  398MOL0     H54876   8.375  -0.189   2.105  0.1945 -3.3702 -2.4560
  398MOL0     H54877   8.524  -0.286   2.100 -3.4549 -1.2109  0.6011
  398MOL0     H54878   8.526   0.002   2.193  0.5854 -0.5309  0.0653
  398MOL0     H54879   8.525  -0.150   2.293 -2.1439 -2.8797 -1.8543
  398MOL0     H54880   8.721  -0.225   2.177 -3.7787 -0.4363 -0.6831
  398MOL0     H54881   8.739  -0.067   2.093 -0.1870  1.8045  0.4273
  398MOL0     H54882   8.890  -0.026   2.509 -0.6617 -1.0612 -0.8267
  398MOL0     H54883   9.044   0.155   2.665  0.7174  3.5922 -1.4768
  398MOL0     H54884   9.191   0.175   2.574  0.1599 -1.6389  0.0162
  398MOL0     H54885   9.120   0.009   2.589  0.8477  0.2197  0.6051
  398MOL0     H54886   9.124   0.695   2.298  1.6131  0.8697  0.1353
  398MOL0     H54887   9.269   0.856   2.179  4.2323  1.1600  0.4469
  398MOL0     H54888   9.364   0.921   2.016  0.0246 -0.7108  1.7480
  398MOL0     H54889   9.502   0.969   2.120  2.4895 -1.9740  0.8331
  398MOL0     H54890   9.658   0.958   1.932  0.2516 -1.7348  0.8494
  398MOL0     H54891   9.538   0.896   1.831 -1.7369  0.4633 -0.4345
  398MOL0     H54892   9.395   1.079   1.836 -2.0689  2.3308  3.9826
  398MOL0     H54893   9.558   1.093   1.753  2.6338 -0.9317  0.9603
  398MOL0     H54894   9.606   1.239   1.982 -1.1424 -0.0535  1.5943
  398MOL0     H54895   9.443   1.227   2.015  0.3558  1.9700  1.8562
  398MOL0     H54896   9.565   1.358   1.771 -0.3503 -1.2898 -0.7007
  398MOL0     H54897   9.386   1.329   1.784 -1.1869 -2.1430  0.3477
  398MOL0     H54898   9.580   1.487   1.966  1.2679 -3.3049 -1.2647
  398MOL0     H54899   9.405   1.467   1.998  0.2529 -0.2974 -0.8359
  398MOL0     H54900   9.484   1.694   1.910  2.5038  0.9116 -0.2832
  398MOL0     H54901   9.370   1.624   1.799  0.5002  2.9129 -0.3932
  398MOL0     H54902   9.547   1.535   1.656 -0.4759  0.5500 -0.9671
  398MOL0     H54903   9.670   1.616   1.771  0.3799  4.1591 -0.1103
  398MOL0     H54904   9.526   0.534   2.073 -1.4560 -4.4951 -1.7444
  398MOL0     H54905   9.390   0.380   2.168 -0.9815  0.4655 -3.6856
  398MOL0     H54906   9.015   0.289   2.141 -5.1028  1.9409 -0.4959
  398MOL0     H54907   8.824   0.132   2.111 -0.3928 -2.7165 -1.2203
  398MOL0     H54908   8.044   0.744   1.075 -1.1271  1.3908 -0.0748
  398MOL0     H54909   8.016   0.813   0.854 -0.7618 -0.0030  0.7296
  398MOL0     H54910   7.616   0.678   0.528  0.7473  2.3763  0.7720
  398MOL0     H54911   7.488   0.716   0.350 -0.8145 -2.3544 -0.6818
  398MOL0     H54912   7.698   0.770  -0.043  0.4317 -0.1335  2.2948
  398MOL0     H54913   7.535   0.776  -0.087 -1.5366  1.3922  0.9661
  398MOL0     H54914   7.627   1.006  -0.085 -0.0512  0.8675  0.3491
  398MOL0     H54915   7.636   0.999   0.095 -1.7846 -0.1184  0.5246
  398MOL0     H54916   7.374   0.981  -0.056  0.4381  0.0905 -0.1166
  398MOL0     H54917   7.400   0.949   0.121  3.0029  1.9820  2.6609
  398MOL0     H54918   7.453   1.196  -0.057  0.3449  0.3882  0.1279
  398MOL0     H54919   7.513   1.175   0.118 -0.6412 -5.0362  1.6634
  398MOL0     H54920   7.097   1.306   0.140  2.1096  2.8105  3.1213
  398MOL0     H54921   7.835   0.696   0.096 -0.8764 -0.4531 -2.0362
  398MOL0     H54922   8.081   0.736   0.290  4.6816 -1.6184 -3.8689
  398MOL0     H54923   8.079   0.575   0.362 -1.4113  0.8269  1.6655
  398MOL0     H54924   8.044   0.601   0.186  0.9377  4.1150 -2.3016
  399MOL0     O54925   5.332   6.799   1.119 -0.2740  0.6093 -0.5276
  399MOL0     C54926   5.240   6.883   1.139 -0.5600  0.1411  0.4502
  399MOL0     O54927   5.126   6.890   1.063  0.0442  0.1450  0.7443
  399MOL0     C54928   5.106   6.789   0.968 -0.3574 -0.2185 -0.0265
  399MOL0     C54929   5.152   6.801   0.832  0.4382 -0.5085  0.7076
  399MOL0     C54930   5.103   6.714   0.734  0.7195 -0.5788  0.5157
  399MOL0     C54931   5.013   6.615   0.766  0.0360  0.7220  0.4395
  399MOL0     O54932   4.965   6.527   0.676 -0.8863  0.0564  0.6697
  399MOL0     C54933   5.030   6.499   0.555  0.2514  0.0944 -0.1335
  399MOL0     C54934   4.995   6.358   0.501  0.5068 -0.7130  0.1134
  399MOL0     C54935   5.075   6.346   0.371  0.9005 -0.8262 -0.0377
  399MOL0     C54936   5.024   6.233   0.288  0.6692 -0.4483 -0.2444
  399MOL0     C54937   5.112   6.223   0.165  0.0562 -0.4375 -0.1014
  399MOL0     C54938   5.115   6.070   0.111 -0.7896 -0.2456  0.3965
  399MOL0     C54939   5.156   6.068  -0.041 -0.1893 -1.0777 -0.4613
  399MOL0     C54940   5.306   6.043  -0.067 -0.2160 -0.1965  0.0473
  399MOL0     N54941   5.341   6.061  -0.208 -0.9976  0.3449  0.3336
  399MOL0     C54942   5.353   5.974  -0.306  0.1078 -0.6613  0.2532
  399MOL0     C54943   5.386   6.043  -0.416 -0.4782 -0.9562  0.2137
  399MOL0     C54944   5.425   5.993  -0.552 -0.0883  0.3928 -0.0703
  399MOL0     C54945   5.487   5.853  -0.535 -0.8499  0.3563 -0.3873
  399MOL0     C54946   5.562   5.799  -0.656  0.7197  0.1944  0.2338
  399MOL0     C54947   5.478   5.803  -0.787 -0.6210  0.3008  1.4151
  399MOL0     O54948   5.548   5.736  -0.893 -0.3071 -0.1787 -0.5488
  399MOL0     C54949   5.660   5.787  -0.947  0.5722 -0.7387 -0.8033
  399MOL0     C54950   5.731   5.700  -1.020  0.0461 -0.9666  0.7506
  399MOL0     C54951   5.847   5.743  -1.081 -1.0417  0.0889  0.5411
  399MOL0     C54952   5.920   5.638  -1.156 -0.7164  0.0282 -0.0905
  399MOL0     C54953   5.896   5.878  -1.078 -0.1984 -0.0325  0.4211
  399MOL0     C54954   5.991   5.935  -1.177  0.2709 -1.3915 -0.0924
  399MOL0     O54955   5.981   6.070  -1.199 -0.0784  0.0959 -0.5381
  399MOL0     C54956   6.075   6.133  -1.272 -0.4321 -0.0205  0.6137
  399MOL0     C54957   6.209   6.122  -1.228  0.0877  0.7597  0.5792
  399MOL0     C54958   6.299   6.204  -1.291 -0.4815  0.4719 -0.0798
  399MOL0     C54959   6.260   6.291  -1.393 -0.3056 -0.0989  0.2770
  399MOL0     O54960   6.341   6.382  -1.458  0.5205 -0.2056  0.6157
  399MOL0     C54961   6.483   6.364  -1.449 -0.6936  0.6414 -0.2073
  399MOL0     C54962   6.545   6.248  -1.540 -0.6309  0.9023 -0.0583
  399MOL0     C54963   6.701   6.264  -1.569  0.9594  0.4173 -0.5595
  399MOL0     C54964   6.771   6.141  -1.609 -0.5542 -1.0226  0.2773
  399MOL0     C54965   6.733   6.093  -1.744 -0.1460  0.0093  0.4581
  399MOL0     C54966   6.831   5.993  -1.788  0.0894 -0.3701  0.2193
  399MOL0     C54967   6.779   5.914  -1.899  0.0233  0.4081  0.7198
  399MOL0     C54968   6.904   5.822  -1.962  0.4156 -0.2422 -0.0558
  399MOL0    Cl54969   7.043   5.922  -2.035  0.2180  0.0529  0.0979
  399MOL0     C54970   6.125   6.303  -1.436 -0.2674  0.9811  0.3265
  399MOL0     C54971   6.037   6.218  -1.372  0.5365  0.2381 -0.7728
  399MOL0     O54972   6.073   5.864  -1.230  0.0562  0.3797  0.3352
  399MOL0     C54973   5.820   5.961  -1.000  0.0931 -0.3370 -0.1629
  399MOL0     C54974   5.700   5.924  -0.933  0.2417  0.1324  0.4840
  399MOL0     N54975   5.395   6.183  -0.384  0.2740 -0.1854  0.1289
  399MOL0     N54976   5.359   6.186  -0.264  0.2192 -0.4944 -0.4845
  399MOL0     C54977   4.979   6.591   0.901 -0.0912  0.0541 -1.0521
  399MOL0     C54978   5.016   6.684   1.005 -0.2856  0.0867 -0.4026
  399MOL0     C54979   5.273   6.983   1.245  0.2583 -0.5287 -0.0712
  399MOL0     C54980   5.398   7.046   1.235  0.2026  0.3055  0.1465
  399MOL0     C54981   5.424   7.151   1.320  0.1342 -0.0200 -0.4666
  399MOL0     C54982   5.342   7.173   1.438 -0.6062  0.6556 -0.1472
  399MOL0     O54983   5.388   7.259   1.526  0.0913 -0.8345  0.6130
  399MOL0     C54984   5.303   7.293   1.647  0.1213 -0.3065  0.3073
  399MOL0     C54985   5.365   7.399   1.740  0.3457 -0.3116 -0.1580
  399MOL0     C54986   5.391   7.528   1.670  0.0480  0.8533  0.8604
  399MOL0     C54987   5.453   7.646   1.758 -0.2210  0.2658  0.1962
  399MOL0     C54988   5.355   7.704   1.859  0.4465  0.4074 -0.3194
  399MOL0     C54989   5.302   7.781   1.939  1.1139 -0.7573  0.8652
  399MOL0     C54990   5.224   7.096   1.453 -0.1828  0.0903 -0.2171
  399MOL0     C54991   5.186   7.015   1.357 -0.0234  0.1425  0.2832
  399MOL0     C54992   5.047   6.959   1.375  0.1186 -0.5097  0.5536
  399MOL0     H54993   5.224   6.881   0.813  1.1470 -1.6903 -2.1759
  399MOL0     H54994   5.144   6.729   0.635 -1.1819 -0.5509 -0.3029
  399MOL0     H54995   5.136   6.492   0.581  0.0781 -1.4185  0.2988
  399MOL0     H54996   5.014   6.577   0.481  2.7952 -0.8739 -1.8672
  399MOL0     H54997   5.012   6.277   0.571 -0.7347 -2.9076 -1.9815
  399MOL0     H54998   4.891   6.345   0.469  0.8517 -4.0660  0.0683
  399MOL0     H54999   5.056   6.433   0.307  2.7830 -1.6453 -1.8289
  399MOL0     H55000   5.181   6.340   0.397  1.1011  0.8446 -0.3446
  399MOL0     H55001   5.024   6.142   0.347  1.9377 -1.1160 -1.2165
  399MOL0     H55002   4.919   6.253   0.261  0.4952  0.5406  1.0625
  399MOL0     H55003   5.213   6.259   0.186  0.6665 -2.2715  0.2623
  399MOL0     H55004   5.062   6.293   0.097 -1.8068  1.6109  3.1092
  399MOL0     H55005   5.200   6.021   0.160 -0.3263  0.9611  0.8401
  399MOL0     H55006   5.020   6.020   0.129  1.0112 -4.5262 -0.7005
  399MOL0     H55007   5.113   6.153  -0.095  3.1080  0.4170 -0.9930
  399MOL0     H55008   5.114   5.987  -0.101 -0.5643 -0.3862 -1.1490
  399MOL0     H55009   5.357   6.121  -0.009 -1.8407  0.8523  0.1087
  399MOL0     H55010   5.338   5.947  -0.025  0.2032 -0.3766 -0.6505
  399MOL0     H55011   5.348   5.866  -0.295  0.2003 -0.6415  0.5010
  399MOL0     H55012   5.490   6.058  -0.611  1.9217  0.7224  2.3508
  399MOL0     H55013   5.339   5.987  -0.619 -0.7040 -2.1979  0.8489
  399MOL0     H55014   5.557   5.844  -0.452 -2.5581 -0.5163  1.0366
  399MOL0     H55015   5.397   5.793  -0.518 -1.6354  1.8984  1.2360
  399MOL0     H55016   5.646   5.866  -0.674  0.6196 -0.6659 -4.6068
  399MOL0     H55017   5.608   5.702  -0.634  1.3205  0.1215 -1.2366
  399MOL0     H55018   5.381   5.755  -0.770 -0.4044 -0.1333  1.4504
  399MOL0     H55019   5.459   5.904  -0.825  2.9871  1.7944  3.0944
  399MOL0     H55020   5.694   5.599  -1.033  0.0811 -1.3029  2.8589
  399MOL0     H55021   6.028   5.653  -1.145 -0.7726  1.6589 -1.3242
  399MOL0     H55022   5.894   5.648  -1.261  2.8173 -3.1342 -1.4618
  399MOL0     H55023   5.894   5.538  -1.120  1.2834 -0.2995  0.5658
  399MOL0     H55024   6.251   6.054  -1.155  5.1855 -0.1177 -2.6293
  399MOL0     H55025   6.400   6.192  -1.254 -1.9563 -2.0985  3.7960
  399MOL0     H55026   6.534   6.459  -1.463  1.0007 -0.4202 -1.6608
  399MOL0     H55027   6.513   6.340  -1.346  0.2297 -4.6348 -1.3998
  399MOL0     H55028   6.550   6.153  -1.486  3.1938  2.2092  2.2728
  399MOL0     H55029   6.489   6.236  -1.633 -3.1911  1.3065  1.3295
  399MOL0     H55030   6.749   6.309  -1.482  1.5541  1.5931 -1.4688
  399MOL0     H55031   6.729   6.337  -1.645  1.2457 -0.0054 -0.8592
  399MOL0     H55032   6.759   6.064  -1.532  1.1441  1.2115  2.9730
  399MOL0     H55033   6.876   6.171  -1.604 -1.3856  2.2305  0.4836
  399MOL0     H55034   6.637   6.041  -1.732 -0.6491  0.8034 -0.0570
  399MOL0     H55035   6.736   6.173  -1.818 -0.7622  2.3837  2.8384
  399MOL0     H55036   6.851   5.926  -1.704 -1.1576 -0.0244  0.8053
  399MOL0     H55037   6.920   6.051  -1.813 -1.0656  0.3074 -2.7715
  399MOL0     H55038   6.748   5.976  -1.983  2.6053  0.6009 -0.1992
  399MOL0     H55039   6.694   5.858  -1.860 -0.4355 -0.9875 -2.0287
  399MOL0     H55040   6.872   5.768  -2.052  0.2910 -0.3399  0.0466
  399MOL0     H55041   6.946   5.749  -1.892  1.3385  0.2324 -0.1099
  399MOL0     H55042   6.111   6.373  -1.518 -0.2157 -0.0812 -0.6125
  399MOL0     H55043   5.934   6.204  -1.401  0.5037  0.1710 -0.6241
  399MOL0     H55044   5.842   6.067  -0.993 -0.2639 -0.3415  1.6240
  399MOL0     H55045   5.651   6.000  -0.873 -1.2477 -0.1425 -0.3206
  399MOL0     H55046   4.915   6.507   0.927 -0.3294  0.4607 -0.3033
  399MOL0     H55047   4.967   6.691   1.101  1.9625  0.6753  0.7763
  399MOL0     H55048   5.462   7.020   1.151 -2.3578  1.0118 -2.1886
  399MOL0     H55049   5.517   7.205   1.326  0.7634 -0.8251 -2.4162
  399MOL0     H55050   5.204   7.333   1.623 -0.9133 -2.2846  1.0310
  399MOL0     H55051   5.282   7.202   1.705  2.6231 -1.6062 -0.6434
  399MOL0     H55052   5.457   7.386   1.798  0.7560  3.0342  0.1244
  399MOL0     H55053   5.288   7.419   1.815 -0.2628  2.8589 -1.4522
  399MOL0     H55054   5.461   7.511   1.587  0.8892  0.8473  1.5548
  399MOL0     H55055   5.290   7.556   1.641  0.0159  0.7818  0.9037
  399MOL0     H55056   5.486   7.727   1.693  2.1863 -1.0917 -0.4378
  399MOL0     H55057   5.550   7.621   1.804 -0.4149 -0.4972  0.2127
  399MOL0     H55058   5.262   7.862   1.997  0.9505  0.5930 -1.0510
  399MOL0     H55059   5.155   7.114   1.534 -0.7037  0.1878 -0.6808
  399MOL0     H55060   5.035   6.913   1.473 -0.9420 -3.7482 -0.9511
  399MOL0     H55061   4.965   7.029   1.361  1.4982  1.0473 -0.1296
  399MOL0     H55062   5.030   6.879   1.301  1.8934  1.3983 -2.1244
  400MOL0     O55063   3.181   5.864   3.774  0.0538  0.1336  0.0495
  400MOL0     C55064   3.161   5.975   3.717 -0.9368 -0.4265 -0.3482
  400MOL0     O55065   3.105   6.086   3.782 -0.7064 -0.5713  0.3504
  400MOL0     C55066   3.114   6.082   3.918 -0.6832  0.8918  0.5068
  400MOL0     C55067   3.008   6.031   3.988 -0.5907 -0.0783 -0.2441
  400MOL0     C55068   3.014   6.032   4.137 -0.7957  0.3351  0.2649
  400MOL0     C55069   3.122   6.082   4.203 -0.1054 -1.3576  0.7759
  400MOL0     O55070   3.118   6.094   4.339  0.3768  0.3459 -0.3247
  400MOL0     C55071   3.215   6.020   4.413 -0.0731  0.1103 -0.1025
  400MOL0     C55072   3.258   6.098   4.544 -0.1721 -0.1294 -0.5597
  400MOL0     C55073   3.178   6.061   4.661  0.1298  0.8027  0.8742
  400MOL0     C55074   3.234   6.124   4.791 -0.2761  0.1896  0.4471
  400MOL0     C55075   3.130   6.091   4.894  0.3261 -0.4258 -0.9705
  400MOL0     C55076   3.193   6.090   5.032 -0.3912 -0.0984  0.1666
  400MOL0     C55077   3.105   6.087   5.155 -0.9679 -0.0268  0.2205
  400MOL0     C55078   3.041   5.947   5.189  0.8714 -0.6150  0.6456
  400MOL0     N55079   2.903   5.927   5.125 -0.2579 -0.5190  0.3603
  400MOL0     C55080   2.808   6.022   5.140  0.5436 -0.5898  0.3123
  400MOL0     C55081   2.694   5.963   5.088 -0.1885 -0.3251 -0.2813
  400MOL0     C55082   2.549   5.992   5.105  0.5203 -1.2774 -0.1401
  400MOL0     C55083   2.492   6.000   5.247 -0.1439  0.7449  0.3402
  400MOL0     C55084   2.529   5.894   5.345 -0.1104 -0.4065 -0.2109
  400MOL0     C55085   2.500   5.749   5.296 -0.3954  0.1154  0.0606
  400MOL0     O55086   2.521   5.650   5.395  0.2143 -0.5626  0.3297
  400MOL0     C55087   2.643   5.649   5.457  0.6906 -0.1012  1.1152
  400MOL0     C55088   2.764   5.656   5.388  1.1369 -0.7785 -0.1137
  400MOL0     C55089   2.882   5.630   5.455 -0.0853  0.0720 -0.7901
  400MOL0     C55090   2.998   5.645   5.368 -1.2118  0.3331  0.2274
  400MOL0     C55091   2.888   5.599   5.596 -1.0688 -0.0928  0.4436
  400MOL0     C55092   3.018   5.563   5.668 -0.5125  0.4535 -0.2131
  400MOL0     O55093   3.135   5.553   5.598 -1.3207  0.1153 -0.5624
  400MOL0     C55094   3.243   5.519   5.682 -0.2358  0.7274  0.0095
  400MOL0     C55095   3.305   5.613   5.765  0.0900 -0.0316 -0.0795
  400MOL0     C55096   3.419   5.576   5.839 -0.9253  0.1613 -0.4840
  400MOL0     C55097   3.463   5.442   5.840  0.2140  0.8999  0.1872
  400MOL0     O55098   3.571   5.394   5.921  1.1745 -0.2606 -0.4236
  400MOL0     C55099   3.694   5.475   5.919 -0.4581 -0.3507 -0.1993
  400MOL0     C55100   3.814   5.396   5.948 -1.4045  0.9192 -0.0482
  400MOL0     C55101   3.815   5.252   5.894  0.1953  0.1393 -0.0404
  400MOL0     C55102   3.910   5.173   5.972 -0.4053  0.5515  0.0992
  400MOL0     C55103   3.888   5.029   5.955 -0.4484  1.2568 -0.0881
  400MOL0     C55104   3.971   4.967   5.834  0.5891  1.1274 -0.6146
  400MOL0     C55105   3.954   4.815   5.829  0.4619 -0.2514 -0.5245
  400MOL0     C55106   3.971   4.747   5.694  1.4684  1.2505 -0.4282
  400MOL0    Cl55107   4.130   4.745   5.628  0.0242  0.5861  0.6160
  400MOL0     C55108   3.398   5.347   5.771  0.0792 -0.3068  0.5997
  400MOL0     C55109   3.282   5.383   5.693 -0.0015 -1.0395  0.6018
  400MOL0     O55110   3.003   5.556   5.793 -0.0960 -0.2213  0.1137
  400MOL0     C55111   2.764   5.588   5.660 -0.0379 -1.0386  1.0737
  400MOL0     C55112   2.642   5.623   5.592  0.0028 -0.1003  0.9291
  400MOL0     N55113   2.726   5.842   5.034 -0.0061  0.7079 -0.4410
  400MOL0     N55114   2.853   5.821   5.051  0.1544  0.1893 -0.2103
  400MOL0     C55115   3.230   6.135   4.133 -0.0740  1.0537  0.4669
  400MOL0     C55116   3.223   6.128   3.989  0.9932 -0.5783  0.0068
  400MOL0     C55117   3.159   5.991   3.570  1.3450 -0.3899 -0.5591
  400MOL0     C55118   3.109   6.108   3.512  0.4374 -0.5600 -0.1028
  400MOL0     C55119   3.098   6.121   3.371 -0.4110 -0.3114 -0.5463
  400MOL0     C55120   3.142   6.017   3.294 -0.7949  0.4505  1.1480
  400MOL0     O55121   3.132   6.031   3.153 -0.0756  0.8747 -0.6548
  400MOL0     C55122   3.239   5.994   3.072 -0.0418  0.0199 -0.5620
  400MOL0     C55123   3.228   6.087   2.957  1.0317 -0.4832 -0.1769
  400MOL0     C55124   3.360   6.083   2.878  0.4760  0.2140 -1.2243
  400MOL0     C55125   3.371   6.192   2.767 -0.1585  0.3862 -0.4136
  400MOL0     C55126   3.265   6.177   2.668 -0.7736  0.1418  0.0624
  400MOL0     C55127   3.172   6.147   2.598 -0.4678  0.1197  0.2237
  400MOL0     C55128   3.182   5.900   3.353 -0.2384  0.4043 -0.1667
  400MOL0     C55129   3.203   5.888   3.491  0.4844  1.0349  0.1605
  400MOL0     C55130   3.272   5.761   3.542 -0.2138  0.9390  0.3365
  400MOL0     H55131   2.930   5.995   3.922  2.3979 -0.9108 -3.6423
  400MOL0     H55132   2.936   5.999   4.205 -0.9361 -1.0871 -0.5554
  400MOL0     H55133   3.303   6.018   4.348 -0.6933 -0.5628 -0.9408
  400MOL0     H55134   3.172   5.920   4.424 -1.1471  0.2804 -2.3182
  400MOL0     H55135   3.362   6.078   4.571 -0.3489  1.0232  1.1458
  400MOL0     H55136   3.255   6.204   4.517  1.7143  0.0638 -0.1613
  400MOL0     H55137   3.075   6.082   4.632 -0.1366 -2.1574 -0.7384
  400MOL0     H55138   3.194   5.953   4.656 -0.5148  0.7435 -0.0292
  400MOL0     H55139   3.330   6.072   4.806 -0.0982  0.7624  1.3847
  400MOL0     H55140   3.250   6.231   4.778  4.4799 -0.5436 -2.1968
  400MOL0     H55141   3.082   5.996   4.868  0.2100 -0.4606 -0.6443
  400MOL0     H55142   3.055   6.171   4.897  0.1770 -0.5282  2.7748
  400MOL0     H55143   3.276   6.019   5.029  1.0942  1.5505  0.3292
  400MOL0     H55144   3.244   6.187   5.041 -1.1530  0.3186  0.1031
  400MOL0     H55145   3.047   6.180   5.152  2.6627  2.4896  1.5675
  400MOL0     H55146   3.183   6.114   5.226  0.7675  0.9478 -1.9350
  400MOL0     H55147   3.114   5.867   5.170  1.7960  0.6633 -1.4627
  400MOL0     H55148   3.020   5.948   5.297  2.2441  0.1983  0.9148
  400MOL0     H55149   2.814   6.122   5.182 -0.7041 -1.5102  2.8907
  400MOL0     H55150   2.489   5.922   5.046  0.9825 -1.6011 -0.2365
  400MOL0     H55151   2.527   6.092   5.067  2.3528 -1.0021 -0.5545
  400MOL0     H55152   2.519   6.093   5.297  1.3296  0.1377  0.7246
  400MOL0     H55153   2.383   5.997   5.235 -0.4057  0.0889  2.5237
  400MOL0     H55154   2.637   5.897   5.364 -0.0284  1.2477 -0.8155
  400MOL0     H55155   2.487   5.898   5.446 -2.2002 -0.6231 -1.0260
  400MOL0     H55156   2.393   5.735   5.276 -0.9697  1.1778  2.1143
  400MOL0     H55157   2.542   5.728   5.197  0.5905  2.9243 -0.2274
  400MOL0     H55158   2.770   5.676   5.282  1.4107 -0.6729 -0.0823
  400MOL0     H55159   3.029   5.540   5.364 -4.5760 -0.9418  2.7478
  400MOL0     H55160   3.077   5.703   5.417  0.5850 -3.2182  1.8938
  400MOL0     H55161   3.005   5.676   5.263  2.1668 -2.4035 -0.5339
  400MOL0     H55162   3.279   5.717   5.749 -0.6836  0.0672  1.6658
  400MOL0     H55163   3.480   5.646   5.896  0.6305 -0.8743 -0.7971
  400MOL0     H55164   3.708   5.508   5.815  0.3094 -2.7997 -0.9434
  400MOL0     H55165   3.692   5.559   5.989 -1.1644  0.9784 -1.7306
  400MOL0     H55166   3.896   5.459   5.912 -2.5998  3.1228  0.8792
  400MOL0     H55167   3.835   5.399   6.055  2.7439 -0.0601 -0.6784
  400MOL0     H55168   3.825   5.233   5.787 -0.9402  1.7213 -0.4728
  400MOL0     H55169   3.715   5.212   5.913  0.8396 -1.4814  0.0373
  400MOL0     H55170   3.910   5.198   6.079  4.6085  0.1506  0.4264
  400MOL0     H55171   4.016   5.191   5.951  0.1443 -2.6985 -0.3039
  400MOL0     H55172   3.940   4.987   6.042  0.9628  0.7893 -1.1191
  400MOL0     H55173   3.782   5.001   5.963  0.1283 -0.6587  2.0074
  400MOL0     H55174   4.075   4.998   5.852  0.2929  1.4062  0.6850
  400MOL0     H55175   3.934   5.006   5.739  0.6109  2.2206 -0.1878
  400MOL0     H55176   3.858   4.780   5.869  0.2541  1.0135  0.1287
  400MOL0     H55177   4.021   4.765   5.900 -1.4246 -1.4589  0.4933
  400MOL0     H55178   3.912   4.796   5.616  3.4222  1.6119 -1.7365
  400MOL0     H55179   3.949   4.641   5.710  0.2481  1.7250  1.3399
  400MOL0     H55180   3.430   5.244   5.785 -2.9144 -1.3500  0.5472
  400MOL0     H55181   3.228   5.309   5.635 -3.2359 -0.0247  2.0988
  400MOL0     H55182   2.753   5.580   5.768 -1.4290  2.4682  1.3136
  400MOL0     H55183   2.554   5.617   5.655 -0.7624  3.9094  0.5207
  400MOL0     H55184   3.308   6.189   4.186  0.0619  2.6108 -1.2570
  400MOL0     H55185   3.312   6.166   3.941  1.2066  0.1310  0.9195
  400MOL0     H55186   3.069   6.190   3.571 -2.5646 -2.4768  0.7609
  400MOL0     H55187   3.078   6.219   3.331 -1.0170  1.6483  3.9263
  400MOL0     H55188   3.340   6.021   3.102  0.7279  0.1888 -3.1378
  400MOL0     H55189   3.234   5.886   3.058 -0.7976 -0.1453  0.8002
  400MOL0     H55190   3.214   6.191   2.989 -1.4339 -0.4296 -1.2135
  400MOL0     H55191   3.143   6.052   2.898 -0.6693  0.7730  1.4090
  400MOL0     H55192   3.433   6.116   2.953  0.6184  0.8271 -1.6234
  400MOL0     H55193   3.392   5.982   2.854  1.4895 -0.3380  1.9428
  400MOL0     H55194   3.457   6.186   2.699 -2.1746 -1.0616 -3.0015
  400MOL0     H55195   3.364   6.288   2.820 -0.9565 -0.0845  0.3590
  400MOL0     H55196   3.101   6.108   2.527  1.3546 -0.1445 -1.5511
  400MOL0     H55197   3.226   5.819   3.296 -0.4073 -1.9129  2.7155
  400MOL0     H55198   3.203   5.678   3.560  0.1628  1.1339  3.2283
  400MOL0     H55199   3.327   5.713   3.461 -3.3036 -0.1433 -1.2974
  400MOL0     H55200   3.338   5.754   3.629 -1.5999  2.3171  1.5796
  401MOL0     O55201  10.946   2.437   3.056  0.3262  0.4140  0.5500
  401MOL0     C55202  10.932   2.556   3.030 -0.0241 -0.3580  0.6818
  401MOL0     O55203  10.962   2.654   3.121  0.2455  0.5020 -0.4088
  401MOL0     C55204  10.996   2.631   3.253  0.6174  0.9887  1.1198
  401MOL0     C55205  10.901   2.640   3.353 -0.2857  0.5626 -0.0339
  401MOL0     C55206  10.934   2.612   3.482 -0.7992  0.7881 -0.4891
  401MOL0     C55207  11.070   2.595   3.521  0.2232  0.3146 -0.0290
  401MOL0     O55208  11.096   2.559   3.645 -0.9959  0.5893 -0.0148
  401MOL0     C55209  11.074   2.415   3.678  0.3242 -0.4987 -0.3533
  401MOL0     C55210  11.136   2.388   3.811  0.7085  0.0105 -0.0254
  401MOL0     C55211  11.272   2.450   3.830 -0.4520  0.5570 -0.6295
  401MOL0     C55212  11.369   2.412   3.718  0.3937  0.3508 -0.4561
  401MOL0     C55213  11.492   2.505   3.719 -0.2202  1.3055 -0.7658
  401MOL0     C55214  11.571   2.452   3.600 -0.8237  0.6473  0.0559
  401MOL0     C55215  11.701   2.517   3.575 -0.6640  0.4442  0.1420
  401MOL0     C55216  11.820   2.437   3.629  0.0036 -0.3552 -0.4124
  401MOL0     N55217  11.806   2.380   3.766  0.5486  0.0631 -0.7639
  401MOL0     C55218  11.841   2.469   3.862  1.1702 -0.7156 -0.4589
  401MOL0     C55219  11.846   2.397   3.970  0.4059  0.1495  0.3614
  401MOL0     C55220  11.890   2.444   4.113  0.0507 -0.1142  0.5749
  401MOL0     C55221  11.793   2.404   4.225 -0.4341  0.1842  0.2932
  401MOL0     C55222  11.665   2.493   4.213  0.0856 -0.6806 -0.2520
  401MOL0     C55223  11.544   2.412   4.269  0.2119  0.3832  0.1363
  401MOL0     O55224  11.426   2.497   4.276  0.3757 -0.5413  0.3222
  401MOL0     C55225  11.302   2.460   4.299  1.3356 -0.0888  0.2304
  401MOL0     C55226  11.285   2.370   4.404 -0.0274 -1.9750 -0.0375
  401MOL0     C55227  11.158   2.328   4.451 -0.3489 -0.2557  0.5173
  401MOL0     C55228  11.169   2.249   4.580  0.9055  0.0366  0.2091
  401MOL0     C55229  11.042   2.370   4.376 -0.3079  0.2010 -0.0309
  401MOL0     C55230  10.894   2.341   4.410 -0.4714 -1.1953 -0.8497
  401MOL0     O55231  10.796   2.427   4.378 -0.9053  0.4908 -0.5843
  401MOL0     C55232  10.669   2.393   4.423 -0.1025 -0.2157  1.0624
  401MOL0     C55233  10.573   2.454   4.339 -0.2245 -0.3556  0.4978
  401MOL0     C55234  10.433   2.425   4.368  1.0208 -0.0702  0.4485
  401MOL0     C55235  10.391   2.333   4.464  0.9607 -0.0731 -0.4206
  401MOL0     O55236  10.259   2.307   4.481 -1.0350  0.4626  0.2092
  401MOL0     C55237  10.200   2.247   4.367  0.4349  0.1680 -0.1897
  401MOL0     C55238  10.060   2.196   4.405 -0.3183 -0.1063  0.2639
  401MOL0     C55239  10.008   2.093   4.294 -1.1260 -0.7691  0.0860
  401MOL0     C55240  10.034   2.142   4.150  0.3986 -0.0667  0.0863
  401MOL0     C55241   9.957   2.058   4.053 -0.3887 -0.1044  0.2963
  401MOL0     C55242   9.993   2.107   3.907 -0.6970  0.9571  0.1708
  401MOL0     C55243   9.968   2.019   3.787  0.0608 -0.3692 -0.6593
  401MOL0     C55244  10.037   1.889   3.788 -0.1727  0.4757 -0.4188
  401MOL0    Cl55245  10.047   1.828   3.626 -0.4865 -0.2851  0.4146
  401MOL0     C55246  10.489   2.285   4.558  0.0536  0.4491  0.4308
  401MOL0     C55247  10.625   2.314   4.534  0.9420 -0.5346  0.0366
  401MOL0     O55248  10.885   2.229   4.450  0.2169  0.6323 -0.0118
  401MOL0     C55249  11.068   2.459   4.271 -0.1970  0.1044  0.2316
  401MOL0     C55250  11.190   2.505   4.231 -0.4406 -1.0319 -1.3576
  401MOL0     N55251  11.824   2.265   3.936  0.9070  0.4541  0.9342
  401MOL0     N55252  11.798   2.251   3.809  0.9117 -0.4605  0.6003
  401MOL0     C55253  11.167   2.592   3.424  0.1977  0.1918 -0.6089
  401MOL0     C55254  11.129   2.608   3.290 -0.6147  0.1429 -0.7148
  401MOL0     C55255  10.926   2.588   2.881  0.4830 -0.2318  0.3938
  401MOL0     C55256  10.895   2.490   2.790 -0.5051  0.3840 -0.3921
  401MOL0     C55257  10.862   2.507   2.656  0.3424  0.5129 -0.2589
  401MOL0     C55258  10.846   2.635   2.606  0.4499  0.4278  1.0337
  401MOL0     O55259  10.816   2.663   2.472  0.3241  1.5223  0.0490
  401MOL0     C55260  10.788   2.551   2.381  0.2552 -0.0263 -0.5189
  401MOL0     C55261  10.802   2.607   2.241 -0.4735  0.0666 -0.0301
  401MOL0     C55262  10.951   2.640   2.206  0.3054 -0.0605 -0.1507
  401MOL0     C55263  10.968   2.661   2.053  0.1909 -0.1509  0.1927
  401MOL0     C55264  10.869   2.758   1.993 -1.0355 -0.6596  0.7778
  401MOL0     C55265  10.791   2.838   1.950  0.0605 -0.0020 -0.5205
  401MOL0     C55266  10.878   2.737   2.698  0.1068 -0.9631 -0.3171
  401MOL0     C55267  10.908   2.719   2.830 -0.5155 -0.4068 -0.3931
  401MOL0     C55268  10.946   2.844   2.911 -0.1357 -0.3904  0.2563
  401MOL0     H55269  10.799   2.658   3.319 -0.0773  1.8461 -0.0304
  401MOL0     H55270  10.843   2.588   3.535 -0.1783  0.1871  0.3238
  401MOL0     H55271  11.123   2.347   3.608 -2.4024 -1.3456 -1.5818
  401MOL0     H55272  10.971   2.378   3.678 -0.0561  0.3841 -2.4960
  401MOL0     H55273  11.071   2.429   3.888 -0.5901  0.4426 -1.3026
  401MOL0     H55274  11.135   2.280   3.831 -0.1027  0.6327  4.0287
  401MOL0     H55275  11.259   2.559   3.833  0.8370  0.7073  0.2280
  401MOL0     H55276  11.304   2.424   3.931 -1.4253  1.8025  0.0273
  401MOL0     H55277  11.400   2.308   3.737  5.6928  1.5637 -0.8556
  401MOL0     H55278  11.310   2.420   3.627 -0.0434  1.5309 -0.0863
  401MOL0     H55279  11.547   2.498   3.813 -1.9324  2.2666  0.3700
  401MOL0     H55280  11.466   2.612   3.714 -1.6226  1.1103  1.1906
  401MOL0     H55281  11.578   2.344   3.610 -0.6727  0.6072 -0.4352
  401MOL0     H55282  11.522   2.467   3.503  2.8800  3.2242 -1.6566
  401MOL0     H55283  11.726   2.619   3.608  2.8345 -0.9942  2.6507
  401MOL0     H55284  11.715   2.518   3.467  0.1894  2.1748  0.2293
  401MOL0     H55285  11.832   2.355   3.558  1.7610  2.0542 -3.1317
  401MOL0     H55286  11.914   2.493   3.629  0.1416 -0.5051  1.6310
  401MOL0     H55287  11.870   2.574   3.858  0.1317 -0.3513  0.9284
  401MOL0     H55288  11.900   2.553   4.120  0.3154 -0.1589  0.9250
  401MOL0     H55289  11.991   2.406   4.124 -0.6980 -2.4024  0.0797
  401MOL0     H55290  11.777   2.296   4.217  2.8350 -0.4468  0.7186
  401MOL0     H55291  11.855   2.413   4.315 -0.6309  1.0535  0.3511
  401MOL0     H55292  11.668   2.587   4.269 -4.9593 -0.5005  0.1529
  401MOL0     H55293  11.649   2.515   4.107 -2.1868 -0.4063  0.1014
  401MOL0     H55294  11.528   2.325   4.204  1.9365 -1.0625  1.5314
  401MOL0     H55295  11.567   2.369   4.367  0.0238  0.0241  0.0267
  401MOL0     H55296  11.374   2.335   4.455  1.3910 -1.7920 -2.2173
  401MOL0     H55297  11.240   2.302   4.644  3.9893 -1.6161 -1.6367
  401MOL0     H55298  11.196   2.144   4.563  1.9674  0.3184  0.1097
  401MOL0     H55299  11.069   2.263   4.622  1.2892  2.4695  0.4177
  401MOL0     H55300  10.599   2.524   4.260  3.0896 -1.8796  0.0837
  401MOL0     H55301  10.353   2.480   4.321 -0.3408 -0.3296  2.3309
  401MOL0     H55302  10.201   2.312   4.279 -0.8343 -1.5474 -1.5399
  401MOL0     H55303  10.258   2.163   4.327  0.2173 -0.1651  0.1861
  401MOL0     H55304  10.062   2.156   4.507  1.2685  1.7834  1.0359
  401MOL0     H55305   9.995   2.283   4.420 -2.9111 -2.2465  2.5067
  401MOL0     H55306   9.907   2.058   4.317  0.2803 -5.2055  0.4399
  401MOL0     H55307  10.074   2.007   4.309 -0.2637 -0.1750 -0.2371
  401MOL0     H55308  10.139   2.134   4.124  0.1370  1.3314 -1.5470
  401MOL0     H55309  10.012   2.249   4.140  3.3655  0.5595 -0.5877
  401MOL0     H55310   9.973   1.951   4.066  0.1405 -0.0827 -0.1471
  401MOL0     H55311   9.850   2.081   4.062 -0.8147 -2.2666  1.3044
  401MOL0     H55312  10.100   2.132   3.909 -0.2239 -0.6715 -1.6223
  401MOL0     H55313   9.934   2.198   3.894 -0.2530  1.4458  1.4139
  401MOL0     H55314   9.998   2.076   3.698  0.3533  1.4174  0.5258
  401MOL0     H55315   9.859   2.009   3.793 -0.0634  0.2200 -1.6326
  401MOL0     H55316   9.987   1.819   3.856  0.3776  0.6102  0.1379
  401MOL0     H55317  10.136   1.897   3.832 -0.9115  0.4556  1.3277
  401MOL0     H55318  10.452   2.228   4.643  0.6671  0.0600  0.4444
  401MOL0     H55319  10.705   2.293   4.605  2.0104 -3.4662 -1.8251
  401MOL0     H55320  10.995   2.498   4.200  2.6277  1.1077 -2.3656
  401MOL0     H55321  11.197   2.572   4.146 -3.8761  1.2290 -0.0775
  401MOL0     H55322  11.269   2.572   3.459 -0.7989 -1.4538  1.6309
  401MOL0     H55323  11.194   2.607   3.203 -1.9821 -2.5683 -1.8136
  401MOL0     H55324  10.888   2.387   2.825 -3.6056  1.2911  2.2149
  401MOL0     H55325  10.828   2.420   2.602 -1.4916 -1.5837  3.8362
  401MOL0     H55326  10.847   2.460   2.392 -2.6039 -1.7202  2.5985
  401MOL0     H55327  10.684   2.519   2.392 -0.5368  2.8358  1.9524
  401MOL0     H55328  10.737   2.695   2.242 -1.2319 -0.3694  3.4927
  401MOL0     H55329  10.759   2.536   2.170 -0.5826  1.0193 -0.9417
  401MOL0     H55330  10.977   2.736   2.251  2.3474 -0.6375  0.0092
  401MOL0     H55331  11.007   2.551   2.237 -1.3809 -1.4032 -0.8232
  401MOL0     H55332  10.949   2.570   1.996  1.6221  1.8623 -3.9165
  401MOL0     H55333  11.073   2.686   2.038  0.7513 -3.6189 -3.4667
  401MOL0     H55334  10.725   2.916   1.918 -3.2019 -1.4048  2.1100
  401MOL0     H55335  10.872   2.834   2.650 -0.7925 -1.0719 -0.4348
  401MOL0     H55336  10.888   2.857   3.003 -2.6220  1.1485 -1.4086
  401MOL0     H55337  11.051   2.848   2.941 -0.2402 -2.0575  0.9613
  401MOL0     H55338  10.935   2.936   2.853  3.6889  0.6407  0.9240
  402MOL0     O55339   9.225   4.616   8.679 -1.0944  0.5144  0.0085
  402MOL0     C55340   9.289   4.545   8.759 -0.8952 -0.1981 -0.1606
  402MOL0     O55341   9.383   4.589   8.843  0.3259 -0.6575 -0.1128
  402MOL0     C55342   9.464   4.690   8.789 -1.4651 -0.3242  1.2137
  402MOL0     C55343   9.424   4.820   8.781  0.0081 -0.5231  0.6053
  402MOL0     C55344   9.494   4.927   8.717 -0.4385 -0.0760  0.3080
  402MOL0     C55345   9.624   4.902   8.666  0.2140  1.2339 -0.1477
  402MOL0     O55346   9.718   4.991   8.621  0.1549 -0.6367  0.1259
  402MOL0     C55347   9.665   5.114   8.567  0.7730  0.1928  0.2204
  402MOL0     C55348   9.779   5.196   8.498  0.1955 -0.4891 -0.8421
  402MOL0     C55349   9.864   5.275   8.593  0.3534  1.1542 -0.6998
  402MOL0     C55350   9.876   5.416   8.542 -0.2467 -0.6219 -0.3165
  402MOL0     C55351   9.994   5.486   8.628 -0.2960  0.0364  0.6118
  402MOL0     C55352   9.975   5.487   8.777 -0.4844 -0.1142 -0.3191
  402MOL0     C55353  10.086   5.578   8.846 -0.9636 -0.0788  0.0269
  402MOL0     C55354  10.042   5.581   8.990  0.6984 -0.2111 -0.1331
  402MOL0     N55355  10.125   5.692   9.046 -0.0991  0.3617 -0.2875
  402MOL0     C55356  10.259   5.699   9.034 -0.1067 -0.1093  0.2371
  402MOL0     C55357  10.295   5.819   9.069 -1.3482 -0.0120 -0.0942
  402MOL0     C55358  10.431   5.875   9.084  0.3478  0.0616 -0.0339
  402MOL0     C55359  10.450   6.012   9.023 -0.9434 -0.4681  0.8100
  402MOL0     C55360  10.422   6.036   8.886  0.3179 -0.2844  0.9051
  402MOL0     C55361  10.485   6.173   8.831  0.5101 -0.1591  0.1984
  402MOL0     O55362  10.461   6.186   8.685 -0.5006  0.2210  0.5169
  402MOL0     C55363  10.512   6.299   8.609 -0.1582  0.1414 -0.5615
  402MOL0     C55364  10.611   6.378   8.662  0.1044 -0.1864  0.4295
  402MOL0     C55365  10.667   6.485   8.582 -0.2101 -0.1709 -0.0128
  402MOL0     C55366  10.760   6.583   8.659 -0.0706  0.3594  0.5361
  402MOL0     C55367  10.631   6.502   8.451  0.0013 -0.6069 -0.2650
  402MOL0     C55368  10.691   6.605   8.359 -0.3795  0.0460  0.0194
  402MOL0     O55369  10.712   6.563   8.237 -0.9219 -0.1665 -0.0830
  402MOL0     C55370  10.823   6.601   8.176  0.0938 -0.2969 -0.1233
  402MOL0     C55371  10.931   6.669   8.235 -0.1801  0.8306 -0.1095
  402MOL0     C55372  11.043   6.685   8.153  0.2721  0.4573 -0.2765
  402MOL0     C55373  11.055   6.659   8.017  0.0248  0.2034 -0.0700
  402MOL0     O55374  11.169   6.686   7.942 -0.4569 -1.2507 -0.6779
  402MOL0     C55375  11.304   6.665   8.001  0.8976 -0.1116  0.3362
  402MOL0     C55376  11.325   6.526   8.060 -0.3992  1.0257  0.3393
  402MOL0     C55377  11.463   6.536   8.121 -1.0602  0.1113 -0.1854
  402MOL0     C55378  11.502   6.405   8.180  0.4555  0.0138  0.8259
  402MOL0     C55379  11.612   6.405   8.284 -0.2491  0.3051  1.1927
  402MOL0     C55380  11.745   6.431   8.217 -0.0790  0.6422  0.0119
  402MOL0     C55381  11.788   6.573   8.206  0.0209  0.5841  0.0286
  402MOL0     C55382  11.943   6.588   8.200  0.4000 -0.1319 -0.3183
  402MOL0    Cl55383  11.989   6.758   8.184 -0.0316  0.4110 -0.3983
  402MOL0     C55384  10.952   6.586   7.963 -1.5670 -0.5445  0.4461
  402MOL0     C55385  10.842   6.558   8.041  0.0942  0.4994  0.5944
  402MOL0     O55386  10.697   6.724   8.396 -1.1657 -0.4694 -0.1977
  402MOL0     C55387  10.523   6.437   8.406  0.0781 -0.1401 -0.4943
  402MOL0     C55388  10.470   6.334   8.482  0.4261  0.0992  0.8043
  402MOL0     N55389  10.193   5.877   9.135 -0.5397  0.1226  0.7488
  402MOL0     N55390  10.091   5.802   9.120 -0.4854 -0.3551  0.4351
  402MOL0     C55391   9.669   4.768   8.687 -0.6452 -2.2245 -1.2275
  402MOL0     C55392   9.596   4.662   8.737  0.3531  0.4169  0.0859
  402MOL0     C55393   9.240   4.410   8.788  0.1105 -0.0749  0.7109
  402MOL0     C55394   9.249   4.362   8.921  0.1280 -0.3771  0.5593
  402MOL0     C55395   9.191   4.238   8.949  0.1170 -0.6668  0.5889
  402MOL0     C55396   9.135   4.161   8.849  0.3266 -0.4466 -0.2351
  402MOL0     O55397   9.081   4.049   8.878 -0.5322  0.1864 -0.9601
  402MOL0     C55398   9.151   3.949   8.952  0.2633  0.2994  0.1114
  402MOL0     C55399   9.123   3.814   8.885  0.4785  0.1955 -0.4398
  402MOL0     C55400   9.173   3.692   8.953  0.9714  0.1589 -0.3014
  402MOL0     C55401   9.324   3.678   8.940 -0.6065 -0.3522 -0.8969
  402MOL0     C55402   9.371   3.671   8.799  0.4552  0.8320 -0.4905
  402MOL0     C55403   9.396   3.632   8.688  0.3363  0.1963  0.6483
  402MOL0     C55404   9.122   4.206   8.723 -1.1375 -0.7724 -0.1727
  402MOL0     C55405   9.185   4.322   8.682 -0.7188 -0.5063  0.2381
  402MOL0     C55406   9.189   4.357   8.531  0.3336 -0.9772 -0.0167
  402MOL0     H55407   9.338   4.873   8.822  0.9343 -1.1762  3.7193
  402MOL0     H55408   9.457   5.029   8.715 -1.1818 -0.3098  1.1747
  402MOL0     H55409   9.618   5.176   8.644 -2.0243 -3.9496  2.2534
  402MOL0     H55410   9.589   5.080   8.497  3.0095 -0.8310 -1.8896
  402MOL0     H55411   9.845   5.125   8.448 -0.6321 -0.5244 -1.9112
  402MOL0     H55412   9.734   5.266   8.427 -3.6964 -0.3033  1.5332
  402MOL0     H55413   9.832   5.274   8.698  3.2994 -2.0519  0.3587
  402MOL0     H55414   9.958   5.219   8.596 -0.5545 -0.7085 -3.2763
  402MOL0     H55415   9.905   5.422   8.437  0.7128  1.3764  0.0066
  402MOL0     H55416   9.782   5.469   8.563 -0.1638 -0.4772 -0.3156
  402MOL0     H55417  10.010   5.587   8.590  1.0022  0.6988  2.7308
  402MOL0     H55418  10.073   5.419   8.593  1.3809  1.3521  1.7641
  402MOL0     H55419   9.870   5.512   8.794 -0.8208 -2.0666  0.7904
  402MOL0     H55420   9.990   5.394   8.832 -0.7000 -1.8534 -3.0038
  402MOL0     H55421  10.096   5.675   8.797  0.6165  0.9737  2.2835
  402MOL0     H55422  10.182   5.526   8.840  1.0913  3.3766  0.6444
  402MOL0     H55423   9.937   5.610   8.992  0.6094 -0.4082 -1.1427
  402MOL0     H55424  10.050   5.496   9.058 -1.5844  1.2806  2.1593
  402MOL0     H55425  10.315   5.627   8.976 -2.2353 -2.0716  0.5100
  402MOL0     H55426  10.501   5.807   9.036  1.4808  1.3779 -0.3027
  402MOL0     H55427  10.468   5.877   9.187  1.4111 -3.1800 -0.2531
  402MOL0     H55428  10.411   6.097   9.078  0.7752  1.6520 -1.0627
  402MOL0     H55429  10.559   6.015   9.028 -0.6364  1.8413 -3.2009
  402MOL0     H55430  10.450   5.956   8.817 -1.8071  1.0727 -1.7363
  402MOL0     H55431  10.314   6.046   8.874  0.4956 -1.7601 -4.1085
  402MOL0     H55432  10.439   6.259   8.882 -1.3414 -0.8290 -0.2395
  402MOL0     H55433  10.591   6.158   8.853  0.6799  1.5669  0.7188
  402MOL0     H55434  10.649   6.366   8.763 -0.0481  3.1133  1.0130
  402MOL0     H55435  10.707   6.672   8.693 -0.8124  0.0207  0.3120
  402MOL0     H55436  10.848   6.611   8.601 -1.1828  3.0334 -0.0340
  402MOL0     H55437  10.787   6.532   8.752 -1.5790  0.0622  0.8423
  402MOL0     H55438  10.946   6.691   8.340  1.8032 -1.1142  0.1126
  402MOL0     H55439  11.126   6.732   8.204 -0.0982 -0.9439  1.7447
  402MOL0     H55440  11.373   6.672   7.916  1.3033 -4.6611  0.0471
  402MOL0     H55441  11.319   6.746   8.073 -1.7710 -2.3672  3.7701
  402MOL0     H55442  11.257   6.505   8.143  1.8866 -3.1989  1.4357
  402MOL0     H55443  11.317   6.444   7.987 -2.4516  1.2155  0.2728
  402MOL0     H55444  11.465   6.615   8.196 -1.6587 -0.0961  0.0542
  402MOL0     H55445  11.528   6.555   8.035 -2.4108 -2.9123 -2.0715
  402MOL0     H55446  11.526   6.333   8.101 -0.0694  1.4513 -0.7120
  402MOL0     H55447  11.415   6.364   8.231 -0.4625  2.2917  1.2398
  402MOL0     H55448  11.585   6.478   8.361  1.0259  2.2648 -0.1256
  402MOL0     H55449  11.608   6.307   8.333 -0.3732  0.6272  1.8429
  402MOL0     H55450  11.753   6.384   8.119  3.3507  1.1129 -0.0608
  402MOL0     H55451  11.818   6.378   8.278 -0.6459 -0.9330 -0.6281
  402MOL0     H55452  11.743   6.620   8.293 -2.8044 -2.3333  0.3477
  402MOL0     H55453  11.746   6.617   8.115 -0.3648 -0.8222 -0.5163
  402MOL0     H55454  11.977   6.525   8.118  1.1176 -0.0366 -0.1039
  402MOL0     H55455  11.993   6.541   8.286 -2.2213 -0.8565  0.9061
  402MOL0     H55456  10.962   6.548   7.862 -0.1432 -1.5390  0.9371
  402MOL0     H55457  10.760   6.502   7.999  0.4583  0.0016  0.5420
  402MOL0     H55458  10.482   6.457   8.307  0.6437  3.6877 -0.1183
  402MOL0     H55459  10.394   6.270   8.438  2.1030 -1.5083  0.1361
  402MOL0     H55460   9.764   4.729   8.653 -0.6420 -1.3009 -2.3304
  402MOL0     H55461   9.639   4.563   8.740 -0.8832 -0.1949 -1.0528
  402MOL0     H55462   9.299   4.424   8.995  3.2666 -1.8325 -0.1727
  402MOL0     H55463   9.197   4.199   9.050  1.2891  0.0344  0.8141
  402MOL0     H55464   9.259   3.968   8.954  0.4528 -0.6657 -0.2874
  402MOL0     H55465   9.111   3.955   9.054  0.6240  1.5731  0.1898
  402MOL0     H55466   9.169   3.822   8.786  2.5938  2.0528  0.5950
  402MOL0     H55467   9.017   3.795   8.871  0.4994  0.1526 -0.5443
  402MOL0     H55468   9.139   3.702   9.057  1.8227 -2.0732  0.2393
  402MOL0     H55469   9.126   3.596   8.933 -0.9446  1.1933 -0.9622
  402MOL0     H55470   9.352   3.590   8.999 -0.9189  1.3327  1.9358
  402MOL0     H55471   9.377   3.759   8.991 -0.9437 -1.2722  0.9998
  402MOL0     H55472   9.395   3.608   8.584  0.6489 -2.0474  1.1014
  402MOL0     H55473   9.072   4.151   8.644  1.1301  1.9482 -3.8709
  402MOL0     H55474   9.109   4.425   8.500  0.2407  0.0024  2.1666
  402MOL0     H55475   9.285   4.400   8.503 -1.7143  4.4241  0.1231
  402MOL0     H55476   9.178   4.265   8.473  1.2487 -0.9336 -0.2772
  403MOL0     O55477   5.314  11.390   5.683  0.0150  1.3798 -0.1763
  403MOL0     C55478   5.257  11.460   5.764  0.6685  0.3793  0.5004
  403MOL0     O55479   5.128  11.487   5.782 -0.8606  0.3246  0.4133
  403MOL0     C55480   5.043  11.428   5.693 -0.1695 -0.1768 -0.5544
  403MOL0     C55481   4.941  11.352   5.748 -0.2847  1.2905 -0.5001
  403MOL0     C55482   4.848  11.280   5.665 -0.1098  0.5124 -0.7920
  403MOL0     C55483   4.859  11.286   5.529  0.0974  1.1204 -0.7797
  403MOL0     O55484   4.757  11.242   5.450  0.1738 -0.0478  0.2685
  403MOL0     C55485   4.809  11.153   5.345 -0.0907 -0.2943  0.1992
  403MOL0     C55486   4.686  11.092   5.278 -0.1591  1.0591  0.1242
  403MOL0     C55487   4.718  11.024   5.143 -0.9774 -1.0163  1.0740
  403MOL0     C55488   4.608  10.929   5.088 -1.6223  0.4281 -0.1466
  403MOL0     C55489   4.631  10.863   4.952 -0.3471  0.0628  0.8459
  403MOL0     C55490   4.694  10.725   4.980  1.0027 -1.3559 -0.1790
  403MOL0     C55491   4.738  10.651   4.848 -0.4586 -0.3905  0.5801
  403MOL0     C55492   4.846  10.554   4.900  0.3230  0.8633  0.2727
  403MOL0     N55493   4.901  10.473   4.789  0.1189 -0.1039  0.2597
  403MOL0     C55494   4.850  10.424   4.668 -0.5486  0.1834  0.9712
  403MOL0     C55495   4.950  10.391   4.595 -0.5646  0.2817 -0.3091
  403MOL0     C55496   4.935  10.342   4.456 -0.0718 -0.8702  0.2431
  403MOL0     C55497   4.846  10.440   4.371 -0.6772  1.1198 -0.7882
  403MOL0     C55498   4.904  10.575   4.336  0.1928  0.0792  0.4970
  403MOL0     C55499   4.830  10.698   4.384 -0.4160 -0.2414 -0.5655
  403MOL0     O55500   4.922  10.802   4.427  0.0720 -0.2232  0.5835
  403MOL0     C55501   4.856  10.906   4.511 -0.5733  0.5589  1.1973
  403MOL0     C55502   4.718  10.918   4.533 -0.6310  0.7640 -0.3454
  403MOL0     C55503   4.664  11.022   4.603  0.0376 -0.9784 -0.7499
  403MOL0     C55504   4.513  11.046   4.598  1.3502 -0.1286 -0.2111
  403MOL0     C55505   4.756  11.122   4.659  0.7202  0.5201  0.1685
  403MOL0     C55506   4.710  11.244   4.726  0.2307  0.1864 -0.2838
  403MOL0     O55507   4.614  11.216   4.819 -0.2648 -0.0338  0.3627
  403MOL0     C55508   4.559  11.323   4.876  0.3595 -0.2283  0.2998
  403MOL0     C55509   4.436  11.382   4.830 -0.1354 -0.8839  0.1964
  403MOL0     C55510   4.389  11.497   4.891 -0.0220  0.2847  0.0173
  403MOL0     C55511   4.464  11.562   4.989 -0.2168 -0.5406  0.4837
  403MOL0     O55512   4.410  11.677   5.052  0.3321 -0.2012  0.0200
  403MOL0     C55513   4.479  11.754   5.146  0.3754 -0.2900 -0.6023
  403MOL0     C55514   4.402  11.874   5.195 -0.3423  0.3149 -0.0722
  403MOL0     C55515   4.431  11.987   5.091  0.5390  0.0455  0.8952
  403MOL0     C55516   4.433  12.125   5.152 -0.7559  0.0895  0.3873
  403MOL0     C55517   4.567  12.151   5.227 -0.6564 -0.0330  0.0679
  403MOL0     C55518   4.551  12.253   5.346  1.1942 -0.0978  1.4333
  403MOL0     C55519   4.681  12.301   5.404 -0.8468 -1.0828  0.5442
  403MOL0     C55520   4.660  12.431   5.482  0.4994  0.0585 -0.2980
  403MOL0    Cl55521   4.733  12.554   5.369  0.1776 -0.3712 -0.0011
  403MOL0     C55522   4.587  11.511   5.020 -0.1566 -0.4019  1.3475
  403MOL0     C55523   4.634  11.391   4.963  0.4451 -1.1962 -0.8485
  403MOL0     O55524   4.754  11.353   4.691 -0.3336 -1.0252 -0.6305
  403MOL0     C55525   4.894  11.105   4.642  0.5252 -0.2196  1.0217
  403MOL0     C55526   4.938  10.998   4.577 -1.0265  0.5578  0.4209
  403MOL0     N55527   5.064  10.412   4.671 -0.6524 -0.4918 -0.0045
  403MOL0     N55528   5.038  10.468   4.783 -1.1590 -0.2888  0.0472
  403MOL0     C55529   4.954  11.368   5.470  0.1670 -0.0594  0.4073
  403MOL0     C55530   5.049  11.443   5.552  0.2126  0.5237 -0.1394
  403MOL0     C55531   5.350  11.556   5.835 -0.6924  0.3223 -1.0618
  403MOL0     C55532   5.299  11.628   5.946 -0.4558 -0.3151 -0.4917
  403MOL0     C55533   5.367  11.730   6.006 -0.3574  0.6437  0.5462
  403MOL0     C55534   5.502  11.742   5.993  0.5344  0.0850 -0.3986
  403MOL0     O55535   5.575  11.838   6.052 -0.2613  0.0895  0.2311
  403MOL0     C55536   5.524  11.924   6.149 -0.2626  0.2892  0.0860
  403MOL0     C55537   5.637  11.987   6.232  0.1255  0.8704 -0.2786
  403MOL0     C55538   5.585  12.072   6.348  0.2081  0.2828  0.3959
  403MOL0     C55539   5.694  12.125   6.439 -0.2197  0.8334 -0.6368
  403MOL0     C55540   5.820  12.153   6.365 -0.6030  0.2492 -0.1566
  403MOL0     C55541   5.919  12.189   6.312 -0.7686  0.6860  0.1546
  403MOL0     C55542   5.560  11.667   5.896 -0.3685 -0.0479 -0.8246
  403MOL0     C55543   5.491  11.581   5.809  0.1759 -1.1126 -0.3835
  403MOL0     C55544   5.579  11.505   5.715  0.4087 -0.0906  0.3630
  403MOL0     H55545   4.933  11.351   5.856  0.2612  2.7351 -0.4272
  403MOL0     H55546   4.778  11.210   5.709  1.1697 -0.3079  0.0012
  403MOL0     H55547   4.873  11.077   5.390  0.5970  0.6238  0.8072
  403MOL0     H55548   4.874  11.201   5.271 -1.3107 -3.0294 -2.9180
  403MOL0     H55549   4.645  11.033   5.360  0.7903 -0.5435 -0.5032
  403MOL0     H55550   4.607  11.167   5.267 -1.2906  0.0483  1.0678
  403MOL0     H55551   4.740  11.083   5.054  1.1470 -4.1886 -0.6956
  403MOL0     H55552   4.812  10.969   5.156 -0.7733 -0.9607 -0.0521
  403MOL0     H55553   4.599  10.855   5.168  0.7017  0.5264  0.2838
  403MOL0     H55554   4.515  10.984   5.073 -1.1615  0.8071 -1.8410
  403MOL0     H55555   4.703  10.918   4.891 -0.1233 -0.6953  0.4203
  403MOL0     H55556   4.532  10.857   4.906 -1.1895  4.8154  1.4554
  403MOL0     H55557   4.779  10.734   5.049  1.1049 -0.0720 -0.4578
  403MOL0     H55558   4.619  10.667   5.035 -0.4201  0.5680  0.0379
  403MOL0     H55559   4.784  10.723   4.779 -2.6993 -2.8397 -3.9149
  403MOL0     H55560   4.657  10.606   4.790 -0.3667  1.7971 -1.3862
  403MOL0     H55561   4.924  10.603   4.959 -0.2567 -1.0081  2.7474
  403MOL0     H55562   4.809  10.474   4.965  4.0307  2.0639  4.3904
  403MOL0     H55563   4.742  10.430   4.658 -0.8230 -3.0374  1.0251
  403MOL0     H55564   4.869  10.255   4.453 -1.1152 -0.0950 -0.1022
  403MOL0     H55565   5.029  10.318   4.406 -0.7518 -0.4019 -1.3392
  403MOL0     H55566   4.822  10.380   4.283  0.3408 -0.4545 -0.0268
  403MOL0     H55567   4.748  10.449   4.420 -0.0654  0.9249  0.4928
  403MOL0     H55568   5.009  10.600   4.355  0.0925  0.7884  0.1429
  403MOL0     H55569   4.912  10.576   4.227  1.2603  2.0203  0.5497
  403MOL0     H55570   4.761  10.737   4.310  2.9895  1.0865 -3.3208
  403MOL0     H55571   4.776  10.651   4.467 -1.6355 -1.2739 -1.9120
  403MOL0     H55572   4.650  10.845   4.490 -0.0646 -0.4492  0.7227
  403MOL0     H55573   4.471  10.980   4.521  0.5711  2.8324 -2.4949
  403MOL0     H55574   4.489  11.146   4.562 -1.3358 -1.3005 -1.9851
  403MOL0     H55575   4.484  11.027   4.702  5.1159 -0.4509  0.9387
  403MOL0     H55576   4.376  11.335   4.752  0.9327  0.2261 -1.3574
  403MOL0     H55577   4.290  11.539   4.880 -0.8864 -1.5057  0.5021
  403MOL0     H55578   4.514  11.696   5.232  0.0982  4.2317  2.9201
  403MOL0     H55579   4.571  11.795   5.102 -0.5649  0.7981 -1.6073
  403MOL0     H55580   4.297  11.856   5.219 -1.0507 -0.6926 -3.4614
  403MOL0     H55581   4.445  11.894   5.294 -1.4085  1.0985  0.2515
  403MOL0     H55582   4.366  11.975   5.004  2.8257 -3.3515 -0.5892
  403MOL0     H55583   4.532  11.981   5.049 -0.8794  0.5016 -2.9678
  403MOL0     H55584   4.359  12.124   5.232 -2.6463 -2.4785 -1.2293
  403MOL0     H55585   4.421  12.197   5.071  1.7977 -0.6152 -0.7198
  403MOL0     H55586   4.607  12.057   5.267  0.0193  0.4783  0.6004
  403MOL0     H55587   4.639  12.197   5.158 -0.6693 -0.3884 -0.1919
  403MOL0     H55588   4.497  12.211   5.431  0.1641  0.8996  1.3031
  403MOL0     H55589   4.492  12.337   5.308  1.6704 -0.3525  0.0481
  403MOL0     H55590   4.764  12.295   5.333 -2.5412 -0.6084 -1.5973
  403MOL0     H55591   4.714  12.223   5.473  0.9891  0.3900  1.4366
  403MOL0     H55592   4.706  12.406   5.578 -2.2034 -3.2660  0.3368
  403MOL0     H55593   4.560  12.466   5.510  0.9746  1.6194 -0.4582
  403MOL0     H55594   4.649  11.549   5.101 -0.2278 -3.0029  2.7076
  403MOL0     H55595   4.732  11.351   4.990  1.0131  1.1383  0.9287
  403MOL0     H55596   4.962  11.185   4.672  1.6166 -1.3127  1.5363
  403MOL0     H55597   5.046  10.990   4.573 -1.2107 -4.0901 -0.7399
  403MOL0     H55598   4.957  11.373   5.361  0.3570  3.1957  0.4703
  403MOL0     H55599   5.126  11.508   5.511 -0.1704  2.9771  2.6817
  403MOL0     H55600   5.195  11.614   5.976 -0.6377 -0.7003 -1.2732
  403MOL0     H55601   5.306  11.797   6.066 -1.4075 -1.1964  1.6317
  403MOL0     H55602   5.461  12.003   6.108 -0.1652  0.9999  1.2571
  403MOL0     H55603   5.464  11.872   6.224 -1.8033  0.1287 -1.1949
  403MOL0     H55604   5.684  12.054   6.159  2.5912  0.2363  0.6461
  403MOL0     H55605   5.710  11.917   6.272 -0.6540  0.0754 -0.2145
  403MOL0     H55606   5.533  12.154   6.298  0.3162 -1.7512 -3.4377
  403MOL0     H55607   5.515  12.019   6.412  1.6555 -0.7736  1.1650
  403MOL0     H55608   5.723  12.035   6.495 -0.1659  0.9138 -0.5364
  403MOL0     H55609   5.669  12.200   6.514 -1.4647  0.0088 -0.1901
  403MOL0     H55610   6.009  12.232   6.272 -0.9723 -0.0668 -1.2040
  403MOL0     H55611   5.668  11.679   5.895 -0.0025 -2.6883 -1.3637
  403MOL0     H55612   5.553  11.402   5.690 -0.3577  0.4453 -1.1987
  403MOL0     H55613   5.581  11.552   5.616 -0.1828 -0.7711  0.0184
  403MOL0     H55614   5.680  11.501   5.758  1.5902 -0.4464 -2.2164
  404MOL0     O55615   9.963   3.846   4.903  0.2380 -0.7459  0.0791
  404MOL0     C55616   9.964   3.751   4.977 -0.1396  0.5541 -1.0368
  404MOL0     O55617   9.854   3.669   5.013 -0.4392  0.2923  0.0709
  404MOL0     C55618   9.737   3.739   5.011  0.3050  0.6845 -0.4609
  404MOL0     C55619   9.625   3.682   4.941 -0.8292 -0.8006  0.1797
  404MOL0     C55620   9.496   3.747   4.948 -0.6294 -0.0156 -0.1776
  404MOL0     C55621   9.476   3.860   5.025  0.0858 -0.4589 -0.7041
  404MOL0     O55622   9.360   3.936   5.028  0.4054 -0.7061  0.1385
  404MOL0     C55623   9.257   3.865   5.107 -0.5456 -0.3743  0.0360
  404MOL0     C55624   9.144   3.965   5.146  0.4913  1.1307  0.4179
  404MOL0     C55625   9.174   4.073   5.250 -0.7955  0.1822  0.8408
  404MOL0     C55626   9.269   4.182   5.199  0.1825  0.2094  0.7240
  404MOL0     C55627   9.276   4.301   5.300 -0.0573 -0.7403  0.6098
  404MOL0     C55628   9.343   4.267   5.436 -0.2984  0.4323 -0.3657
  404MOL0     C55629   9.370   4.373   5.541 -0.0056 -0.0708 -0.7231
  404MOL0     C55630   9.384   4.307   5.682  1.2091 -0.3899 -0.1233
  404MOL0     N55631   9.421   4.416   5.777 -0.3410 -1.2183  0.8626
  404MOL0     C55632   9.401   4.553   5.754  0.2448 -0.0698 -0.4163
  404MOL0     C55633   9.477   4.610   5.852  0.0185 -0.0788 -0.2375
  404MOL0     C55634   9.523   4.753   5.856  0.0319  0.1140 -0.5170
  404MOL0     C55635   9.665   4.770   5.802  0.4930  0.1007 -0.5292
  404MOL0     C55636   9.757   4.797   5.922 -0.2157  0.3347 -0.5384
  404MOL0     C55637   9.916   4.830   5.893  1.0648 -0.8355 -0.0017
  404MOL0     O55638   9.978   4.775   5.777  0.2078 -0.2633  0.3697
  404MOL0     C55639  10.090   4.847   5.726 -0.2005 -1.1945 -1.1470
  404MOL0     C55640  10.173   4.913   5.823  0.3089 -0.4619 -0.0760
  404MOL0     C55641  10.288   4.985   5.774  1.0019 -0.5393  0.3020
  404MOL0     C55642  10.396   5.042   5.868 -0.6497  0.4428 -0.2614
  404MOL0     C55643  10.311   4.992   5.631  0.4178  0.2616  0.4679
  404MOL0     C55644  10.417   5.074   5.573 -0.5437  0.2779  0.1665
  404MOL0     O55645  10.470   5.039   5.456 -0.0776  0.3115  0.2913
  404MOL0     C55646  10.578   5.099   5.401 -0.5372 -0.3491 -0.0159
  404MOL0     C55647  10.595   5.067   5.271 -0.7098  0.5558 -0.0557
  404MOL0     C55648  10.715   5.095   5.194  0.1585  0.0977  0.6983
  404MOL0     C55649  10.812   5.165   5.253 -0.5137 -0.1659 -0.2155
  404MOL0     O55650  10.924   5.192   5.173  0.0699 -0.3507  0.4930
  404MOL0     C55651  10.980   5.314   5.198  0.8391  0.3053  0.2018
  404MOL0     C55652  11.108   5.296   5.285  0.6261  0.0762  0.4508
  404MOL0     C55653  11.183   5.424   5.277  0.3397 -0.4549  0.1065
  404MOL0     C55654  11.290   5.416   5.389  0.6902  0.4317 -0.6486
  404MOL0     C55655  11.406   5.520   5.369  0.1106  0.3636 -0.4563
  404MOL0     C55656  11.503   5.466   5.266  0.0258 -0.1595  0.0239
  404MOL0     C55657  11.625   5.564   5.248 -0.4591  0.1671  0.6769
  404MOL0     C55658  11.615   5.634   5.117 -0.0069  0.3847  0.6506
  404MOL0    Cl55659  11.752   5.747   5.094 -0.0275  0.0593 -0.2491
  404MOL0     C55660  10.798   5.203   5.390 -0.6755  0.0602 -0.2312
  404MOL0     C55661  10.688   5.165   5.456 -0.3502 -1.0386 -0.2210
  404MOL0     O55662  10.451   5.174   5.637  0.3986 -0.3034  0.0603
  404MOL0     C55663  10.228   4.921   5.537  0.1907 -0.0247  0.5445
  404MOL0     C55664  10.120   4.850   5.590  0.4215 -0.2372  0.2426
  404MOL0     N55665   9.521   4.510   5.945  0.4609  0.2973 -0.0712
  404MOL0     N55666   9.485   4.399   5.895 -0.3862  1.1685 -0.0849
  404MOL0     C55667   9.582   3.906   5.101 -0.5126  0.0763 -0.1210
  404MOL0     C55668   9.708   3.841   5.098 -1.0468  0.1722 -0.1844
  404MOL0     C55669  10.099   3.681   5.018 -0.3404 -0.5812 -0.2165
  404MOL0     C55670  10.096   3.562   5.080 -0.0540  0.5410  0.7075
  404MOL0     C55671  10.214   3.489   5.101  0.8335 -1.0186 -1.2166
  404MOL0     C55672  10.341   3.543   5.079 -0.2333  1.4097  0.2747
  404MOL0     O55673  10.462   3.493   5.129  0.2893  0.6994  0.0338
  404MOL0     C55674  10.463   3.357   5.180  0.4236  0.5217  0.5873
  404MOL0     C55675  10.409   3.351   5.325  0.3910 -0.1202  1.9850
  404MOL0     C55676  10.508   3.412   5.432 -0.1522 -0.4951  0.4987
  404MOL0     C55677  10.585   3.295   5.498 -0.4339  0.9552  0.0244
  404MOL0     C55678  10.664   3.362   5.593  0.2131 -0.1815 -0.7344
  404MOL0     C55679  10.734   3.430   5.672 -0.0991 -1.1107  0.4130
  404MOL0     C55680  10.344   3.669   5.020  0.3042 -0.4664 -0.1959
  404MOL0     C55681  10.226   3.736   4.988  0.1434 -0.9960 -0.2830
  404MOL0     C55682  10.244   3.875   4.929  0.0470  0.1283  0.1426
  404MOL0     H55683   9.625   3.584   4.894  1.1903 -1.7912  2.0665
  404MOL0     H55684   9.415   3.715   4.884 -0.5462  1.7930 -1.2737
  404MOL0     H55685   9.295   3.828   5.202  0.5662  3.1289  1.1167
  404MOL0     H55686   9.224   3.782   5.045 -0.8428  0.1970 -0.5938
  404MOL0     H55687   9.113   4.026   5.061 -1.5427 -1.7028 -1.0436
  404MOL0     H55688   9.052   3.912   5.175 -1.1448  2.7461 -1.5259
  404MOL0     H55689   9.075   4.119   5.264 -2.1305 -1.3084 -2.6614
  404MOL0     H55690   9.215   4.025   5.339  1.6721 -0.3587 -0.5026
  404MOL0     H55691   9.370   4.141   5.196 -0.0463 -0.2889 -1.9052
  404MOL0     H55692   9.250   4.219   5.098 -0.0823  0.7352  0.9619
  404MOL0     H55693   9.171   4.326   5.319 -0.5898 -3.4646  1.5756
  404MOL0     H55694   9.335   4.383   5.257  1.6521 -2.1024  0.2670
  404MOL0     H55695   9.281   4.196   5.492  3.3772 -0.9741  2.3802
  404MOL0     H55696   9.441   4.224   5.416  0.0244  1.4380 -0.9890
  404MOL0     H55697   9.277   4.430   5.545 -0.4125 -0.7390 -0.3519
  404MOL0     H55698   9.461   4.423   5.508 -0.2913 -1.1825 -3.4517
  404MOL0     H55699   9.284   4.275   5.710 -0.5516  2.1675 -2.8204
  404MOL0     H55700   9.453   4.222   5.687 -1.6210 -2.8459  0.2544
  404MOL0     H55701   9.350   4.594   5.667 -0.8608 -1.1606 -0.3105
  404MOL0     H55702   9.495   4.801   5.950  1.9241  1.2607 -0.4891
  404MOL0     H55703   9.458   4.812   5.790 -2.2977 -1.0863  0.5768
  404MOL0     H55704   9.711   4.695   5.737 -1.1313 -2.7269  1.3634
  404MOL0     H55705   9.649   4.862   5.745 -2.6185 -1.2834 -2.1213
  404MOL0     H55706   9.727   4.892   5.968 -1.5298  1.0890 -2.8064
  404MOL0     H55707   9.770   4.711   5.989  0.7876 -1.9536 -3.4842
  404MOL0     H55708   9.929   4.938   5.888  7.0637 -0.9923  2.9939
  404MOL0     H55709   9.967   4.792   5.982  0.9833 -1.1233 -0.0764
  404MOL0     H55710  10.137   4.913   5.925 -0.4988 -2.0433 -0.3286
  404MOL0     H55711  10.377   5.150   5.876 -2.4893  0.0906  0.8149
  404MOL0     H55712  10.497   5.017   5.835 -1.1000  0.7886 -1.9895
  404MOL0     H55713  10.387   4.999   5.969  2.5500 -1.0178 -0.4997
  404MOL0     H55714  10.524   5.005   5.218 -0.1251 -3.0099  2.9328
  404MOL0     H55715  10.733   5.061   5.092  5.5601  1.7854  0.7709
  404MOL0     H55716  11.015   5.347   5.100  0.2689  0.7576  0.1436
  404MOL0     H55717  10.913   5.390   5.240 -0.5061  0.6354 -2.3343
  404MOL0     H55718  11.080   5.264   5.386 -1.8797  1.9208  0.4288
  404MOL0     H55719  11.172   5.214   5.250  2.6017  1.2695  1.1251
  404MOL0     H55720  11.107   5.500   5.295  0.2748 -0.9201  1.9203
  404MOL0     H55721  11.215   5.442   5.174 -1.7603  3.2795 -0.0644
  404MOL0     H55722  11.332   5.316   5.399 -0.1270 -0.0054 -1.3863
  404MOL0     H55723  11.255   5.444   5.489  1.2661 -0.6988 -0.1159
  404MOL0     H55724  11.372   5.619   5.338 -1.4473  1.1778  3.2398
  404MOL0     H55725  11.458   5.540   5.463  1.2925 -1.2678 -0.7292
  404MOL0     H55726  11.457   5.439   5.170  0.2832 -1.3375  0.2164
  404MOL0     H55727  11.545   5.375   5.309 -0.6844  0.1093  1.3121
  404MOL0     H55728  11.718   5.509   5.234  0.2013  1.4972 -0.4380
  404MOL0     H55729  11.627   5.624   5.339 -3.0832  1.6513 -0.1375
  404MOL0     H55730  11.531   5.704   5.124  2.9515  4.3462  0.4138
  404MOL0     H55731  11.617   5.563   5.035  0.7880  1.8404 -0.6494
  404MOL0     H55732  10.885   5.253   5.430  1.1079 -1.1097 -2.3836
  404MOL0     H55733  10.688   5.184   5.563  0.8339  3.2273 -0.8054
  404MOL0     H55734  10.225   4.935   5.430  1.2967  0.7862  0.6010
  404MOL0     H55735  10.060   4.796   5.518 -0.3380 -0.5335  1.0730
  404MOL0     H55736   9.559   3.991   5.164 -0.0573 -0.4956  0.8412
  404MOL0     H55737   9.783   3.884   5.164 -3.6193  0.4141  2.7908
  404MOL0     H55738  10.005   3.504   5.089  0.8792 -1.5770 -2.0931
  404MOL0     H55739  10.192   3.395   5.151 -0.6944 -0.1669 -0.1976
  404MOL0     H55740  10.406   3.284   5.121  3.4386  0.6411 -2.8648
  404MOL0     H55741  10.563   3.315   5.173 -0.3402 -1.5367  1.3905
  404MOL0     H55742  10.388   3.246   5.350  1.3440 -1.3517 -1.7417
  404MOL0     H55743  10.312   3.402   5.325 -0.6515 -1.9490  0.5446
  404MOL0     H55744  10.572   3.480   5.375 -2.4203  2.4224  1.1312
  404MOL0     H55745  10.460   3.466   5.515 -0.9244 -1.8558  0.9629
  404MOL0     H55746  10.645   3.237   5.427 -1.7620 -0.2462 -0.1585
  404MOL0     H55747  10.523   3.222   5.551 -0.8641  0.5181 -1.0456
  404MOL0     H55748  10.765   3.506   5.741  0.8737  1.3461 -2.4871
  404MOL0     H55749  10.439   3.720   5.023  0.0731 -0.0511  0.1795
  404MOL0     H55750  10.348   3.909   4.936 -0.7247  2.8731 -0.3849
  404MOL0     H55751  10.210   3.869   4.826 -2.3803 -3.3835  0.9718
  404MOL0     H55752  10.179   3.946   4.981 -1.7081 -1.1084 -0.2593
  405MOL0     O55753   2.851   4.807  10.915 -0.3942  0.1236  0.2009
  405MOL0     C55754   2.941   4.768  10.992 -1.4670 -0.8518 -0.7125
  405MOL0     O55755   3.042   4.675  10.969  0.5969 -0.2103 -0.3105
  405MOL0     C55756   3.043   4.614  10.847 -0.5335 -0.1321  0.0311
  405MOL0     C55757   3.144   4.658  10.767 -0.2087  0.0936  0.7243
  405MOL0     C55758   3.157   4.605  10.642 -0.7582  0.6152  0.2607
  405MOL0     C55759   3.091   4.492  10.601  0.2524  0.1923  0.8755
  405MOL0     O55760   3.102   4.430  10.478 -0.5305  0.3721 -0.2889
  405MOL0     C55761   3.150   4.515  10.375  1.3357 -0.1970  0.4952
  405MOL0     C55762   3.094   4.459  10.245  0.8821 -0.5118  1.0928
  405MOL0     C55763   3.123   4.559  10.133 -0.1624 -0.2828  0.1409
  405MOL0     C55764   3.149   4.492  10.011 -0.0640  0.8282  0.2445
  405MOL0     C55765   3.138   4.594   9.893  0.2581  0.7022  0.6667
  405MOL0     C55766   3.193   4.532   9.760 -0.0753 -0.7073  0.3302
  405MOL0     C55767   3.200   4.617   9.635  0.9662  0.2234  0.2246
  405MOL0     C55768   3.270   4.545   9.519  0.6230  0.8594 -0.5975
  405MOL0     N55769   3.247   4.612   9.393  0.4859  0.8614  0.2768
  405MOL0     C55770   3.171   4.573   9.286 -0.0256  0.0228  0.1200
  405MOL0     C55771   3.206   4.650   9.185 -0.1284  0.5032 -0.5635
  405MOL0     C55772   3.141   4.639   9.046 -1.0405 -0.8298 -0.7398
  405MOL0     C55773   3.201   4.739   8.957  0.5314 -0.0979 -0.1847
  405MOL0     C55774   3.113   4.767   8.838 -0.8846 -0.7032  0.8210
  405MOL0     C55775   3.188   4.782   8.701  0.4342 -0.3870 -0.8107
  405MOL0     O55776   3.123   4.833   8.582  0.5558  0.2044  0.5796
  405MOL0     C55777   3.112   4.972   8.573 -0.0704  0.2804 -0.6305
  405MOL0     C55778   3.014   5.037   8.646  0.5838 -0.2330 -0.7300
  405MOL0     C55779   2.987   5.169   8.607 -0.2122 -0.5237 -0.1018
  405MOL0     C55780   2.880   5.238   8.699 -0.1425 -0.0166 -0.3088
  405MOL0     C55781   3.058   5.239   8.507 -0.5031  1.4447  0.2736
  405MOL0     C55782   3.048   5.376   8.454 -0.0782  0.4894  0.4288
  405MOL0     O55783   3.159   5.440   8.404 -0.8043 -0.2628 -0.0679
  405MOL0     C55784   3.170   5.574   8.416 -1.0364 -0.3779  0.6543
  405MOL0     C55785   3.130   5.654   8.305 -0.0259  0.0283 -0.7707
  405MOL0     C55786   3.137   5.793   8.322 -0.2113  0.4938  0.3661
  405MOL0     C55787   3.174   5.852   8.443 -0.7420  0.0172  0.3001
  405MOL0     O55788   3.169   5.991   8.463  0.6932 -0.1226  0.1729
  405MOL0     C55789   3.201   6.072   8.343 -1.0784 -0.5913 -0.0471
  405MOL0     C55790   3.271   6.202   8.381  0.2165  0.4825 -0.2086
  405MOL0     C55791   3.190   6.303   8.454 -0.8255 -0.6246 -0.1193
  405MOL0     C55792   3.283   6.427   8.474  0.7256  0.2637 -0.2061
  405MOL0     C55793   3.241   6.517   8.586 -0.6602 -0.1691  0.0976
  405MOL0     C55794   3.102   6.578   8.576 -0.3659 -1.1833  0.1493
  405MOL0     C55795   3.056   6.672   8.693  0.0413  0.3525  0.0182
  405MOL0     C55796   3.058   6.824   8.669  0.2945 -0.2564 -0.6358
  405MOL0    Cl55797   3.230   6.885   8.656  0.4357  0.2654  0.0465
  405MOL0     C55798   3.218   5.772   8.548 -1.2106 -0.4492 -0.2435
  405MOL0     C55799   3.207   5.634   8.540  0.6441 -0.5284  0.4434
  405MOL0     O55800   2.937   5.433   8.470 -0.3090 -1.2085  0.4431
  405MOL0     C55801   3.154   5.162   8.441 -0.1853 -1.3996  0.1945
  405MOL0     C55802   3.182   5.038   8.486 -0.6807  0.9373 -0.4032
  405MOL0     N55803   3.318   4.726   9.225 -0.4013  1.4295 -1.0301
  405MOL0     N55804   3.345   4.702   9.353  0.3118  0.5877 -0.7666
  405MOL0     C55805   2.976   4.456  10.679 -0.7394  0.2156  0.0386
  405MOL0     C55806   2.956   4.507  10.804 -0.4146 -0.3006 -0.8004
  405MOL0     C55807   2.970   4.853  11.115  0.1214  0.1026 -0.4792
  405MOL0     C55808   3.077   4.811  11.203 -0.2585  0.0419  0.5061
  405MOL0     C55809   3.123   4.894  11.309 -0.0293  0.2844  0.2229
  405MOL0     C55810   3.054   5.014  11.333 -0.0234 -0.3955 -0.9225
  405MOL0     O55811   3.086   5.109  11.432 -0.3248 -0.1696 -0.7773
  405MOL0     C55812   3.192   5.083  11.522 -0.0457  0.3118  0.8226
  405MOL0     C55813   3.188   5.171  11.642 -0.4078  0.4631 -1.1196
  405MOL0     C55814   3.283   5.134  11.756  0.8554  0.6757 -0.1677
  405MOL0     C55815   3.286   5.233  11.878 -0.6125  0.0626 -0.2662
  405MOL0     C55816   3.312   5.168  12.009 -1.6266  0.4721 -0.7051
  405MOL0     C55817   3.318   5.107  12.118 -0.0332  0.1528  0.6732
  405MOL0     C55818   2.943   5.043  11.252 -0.2841 -0.5701  0.2613
  405MOL0     C55819   2.898   4.968  11.139 -0.3242 -0.1690 -0.9076
  405MOL0     C55820   2.772   5.026  11.076 -0.1735  0.2139 -0.1627
  405MOL0     H55821   3.221   4.730  10.794  2.6492 -1.9156 -1.3978
  405MOL0     H55822   3.229   4.651  10.575  1.7418 -2.6023  0.4862
  405MOL0     H55823   3.258   4.498  10.372  1.2220 -0.8810 -1.4370
  405MOL0     H55824   3.119   4.620  10.377 -1.0378 -0.6206 -3.2471
  405MOL0     H55825   3.140   4.365  10.214  3.7832  1.2810 -0.4753
  405MOL0     H55826   2.985   4.455  10.254  0.5390  2.0822 -0.7628
  405MOL0     H55827   3.042   4.629  10.108  0.3867  0.3839  0.1971
  405MOL0     H55828   3.208   4.624  10.158  0.2781 -0.8269  0.0641
  405MOL0     H55829   3.248   4.445  10.014  0.0782  1.1525  0.6202
  405MOL0     H55830   3.081   4.407  10.001  2.0619 -1.3187  2.4458
  405MOL0     H55831   3.176   4.690   9.929 -1.2440  1.5088  0.2117
  405MOL0     H55832   3.030   4.606   9.881  0.1047 -0.0756  1.2171
  405MOL0     H55833   3.299   4.509   9.778 -0.0256 -0.3801  0.4481
  405MOL0     H55834   3.143   4.436   9.742 -1.9445  0.2060  0.4657
  405MOL0     H55835   3.251   4.709   9.665  0.0640  0.3135  1.5889
  405MOL0     H55836   3.103   4.645   9.592  0.9998 -2.2431 -1.6379
  405MOL0     H55837   3.379   4.541   9.527  0.6688 -2.2039 -1.4958
  405MOL0     H55838   3.240   4.439   9.520 -1.5383  1.3581  2.4087
  405MOL0     H55839   3.088   4.503   9.296 -1.2131  0.9976 -2.1965
  405MOL0     H55840   3.032   4.629   9.046 -0.9817 -1.5145 -1.0542
  405MOL0     H55841   3.174   4.549   8.994  1.5381 -0.0672 -0.5630
  405MOL0     H55842   3.205   4.840   9.000 -0.6908  1.3970 -3.3235
  405MOL0     H55843   3.304   4.708   8.940  0.7609  0.6551 -0.1947
  405MOL0     H55844   3.033   4.692   8.836 -1.0334 -0.5368  0.4514
  405MOL0     H55845   3.071   4.867   8.856  1.2917  0.5963 -0.8709
  405MOL0     H55846   3.276   4.841   8.727 -0.8910  0.8790  1.0684
  405MOL0     H55847   3.226   4.683   8.674  1.5798  0.7259 -3.6993
  405MOL0     H55848   2.936   4.997   8.710 -0.0519  0.1841 -1.2317
  405MOL0     H55849   2.848   5.337   8.665 -1.1109 -1.0084 -2.4905
  405MOL0     H55850   2.917   5.252   8.801 -1.0736  2.4597 -0.2554
  405MOL0     H55851   2.788   5.178   8.693  0.1578 -0.5414  0.2481
  405MOL0     H55852   3.110   5.597   8.215  0.8037 -0.8658 -0.3991
  405MOL0     H55853   3.108   5.857   8.239 -3.9660  1.0993  1.9327
  405MOL0     H55854   3.269   6.023   8.273 -0.4257  0.0021  0.1670
  405MOL0     H55855   3.108   6.094   8.289 -0.0695  3.1051 -0.5440
  405MOL0     H55856   3.364   6.182   8.435 -0.1074 -2.7464 -0.6532
  405MOL0     H55857   3.296   6.252   8.286 -0.4982 -0.9242 -1.1768
  405MOL0     H55858   3.160   6.266   8.552  5.9482  1.8173  3.4945
  405MOL0     H55859   3.107   6.339   8.391  1.5391  3.4622 -1.2740
  405MOL0     H55860   3.287   6.479   8.378  2.4031  0.2994 -0.1528
  405MOL0     H55861   3.388   6.406   8.498  0.5481  1.1410  1.4991
  405MOL0     H55862   3.257   6.465   8.680 -1.7126  1.5567  1.2889
  405MOL0     H55863   3.313   6.598   8.575 -0.5839 -0.5245 -2.9384
  405MOL0     H55864   3.025   6.505   8.551 -0.5812 -0.5551 -1.0731
  405MOL0     H55865   3.109   6.651   8.495 -1.3322  0.3545  1.3966
  405MOL0     H55866   3.118   6.657   8.781 -0.3573 -2.0286 -0.0459
  405MOL0     H55867   2.958   6.639   8.727 -0.5474  3.1857  1.2991
  405MOL0     H55868   3.003   6.870   8.752 -2.6086 -2.6382 -1.0575
  405MOL0     H55869   3.007   6.859   8.579 -1.1393  2.1212  0.9995
  405MOL0     H55870   3.240   5.804   8.649  0.0685 -0.7709 -0.4048
  405MOL0     H55871   3.225   5.579   8.632  1.1628  0.5721  1.0181
  405MOL0     H55872   3.193   5.194   8.345 -1.0256 -1.0572 -0.0436
  405MOL0     H55873   3.260   4.980   8.437  0.7750  1.7730  0.8498
  405MOL0     H55874   2.911   4.379  10.638 -1.9185  1.0455  0.2819
  405MOL0     H55875   2.873   4.480  10.868  0.3852  2.9667  1.8719
  405MOL0     H55876   3.136   4.723  11.178 -0.5707  0.1480 -0.6817
  405MOL0     H55877   3.206   4.852  11.366 -0.8629 -0.1817  1.1169
  405MOL0     H55878   3.180   4.983  11.564  2.1657  0.0993  1.1062
  405MOL0     H55879   3.287   5.089  11.468 -1.0325 -0.5117 -1.0647
  405MOL0     H55880   3.086   5.163  11.683  0.6272 -1.6146  1.3402
  405MOL0     H55881   3.213   5.270  11.603  1.2084 -0.3986 -2.3538
  405MOL0     H55882   3.252   5.036  11.792  0.8134  0.1775 -1.4953
  405MOL0     H55883   3.385   5.119  11.720  0.6096 -0.1699 -0.5268
  405MOL0     H55884   3.195   5.293  11.880 -0.4596  0.2902 -0.0475
  405MOL0     H55885   3.369   5.300  11.854  0.0913  0.1965  2.2562
  405MOL0     H55886   3.329   5.030  12.191  0.9022  0.5722  0.9965
  405MOL0     H55887   2.904   5.143  11.273  1.6213 -0.5106  4.5158
  405MOL0     H55888   2.690   4.954  11.084 -0.7413  0.3794 -3.2633
  405MOL0     H55889   2.735   5.110  11.135 -0.9167 -0.5767  0.5184
  405MOL0     H55890   2.784   5.066  10.975 -0.7140  0.5017 -0.1170
  406MOL0     O55891   5.533   5.472   2.547 -0.0907 -0.2658 -0.0913
  406MOL0     C55892   5.421   5.497   2.591 -0.0501  0.3141 -0.2290
  406MOL0     O55893   5.386   5.546   2.719  0.5643 -0.5039 -0.3798
  406MOL0     C55894   5.467   5.639   2.787  1.3242 -0.4538 -0.4645
  406MOL0     C55895   5.394   5.733   2.867 -1.2094 -0.3288  0.2158
  406MOL0     C55896   5.468   5.830   2.944  0.4806 -0.1024 -0.2317
  406MOL0     C55897   5.605   5.824   2.941  0.0520 -0.3859 -0.7605
  406MOL0     O55898   5.670   5.910   3.031 -0.0023  0.4913  0.3828
  406MOL0     C55899   5.814   5.903   3.043 -0.5757  0.3965  0.4998
  406MOL0     C55900   5.858   5.983   3.160 -0.7262 -0.0284 -0.5506
  406MOL0     C55901   5.812   6.128   3.171  0.1796 -0.0461 -0.0412
  406MOL0     C55902   5.896   6.187   3.279 -0.0369 -0.5599  0.1136
  406MOL0     C55903   5.903   6.332   3.262  0.7547  0.3895 -0.6334
  406MOL0     C55904   5.776   6.411   3.295  0.7768  0.6661  0.3980
  406MOL0     C55905   5.804   6.561   3.279  0.6013  0.4014 -0.0928
  406MOL0     C55906   5.871   6.615   3.403 -0.2801  0.7492 -0.7461
  406MOL0     N55907   5.863   6.763   3.406 -0.4683  0.3413  0.0837
  406MOL0     C55908   5.812   6.836   3.509  0.1562  0.2854  0.4034
  406MOL0     C55909   5.834   6.957   3.478  0.0037  0.3487  1.0568
  406MOL0     C55910   5.776   7.086   3.543 -0.1114  0.2911  0.3789
  406MOL0     C55911   5.693   7.171   3.449 -0.6790  0.0317 -0.4033
  406MOL0     C55912   5.786   7.250   3.358  0.3546  0.0475 -0.2608
  406MOL0     C55913   5.733   7.381   3.299 -0.7336 -0.2807  0.0102
  406MOL0     O55914   5.844   7.468   3.276 -0.4860 -0.2001  0.0363
  406MOL0     C55915   5.871   7.501   3.147  0.1842  0.7652  0.1830
  406MOL0     C55916   5.866   7.409   3.040 -0.5910  0.2034 -0.1012
  406MOL0     C55917   5.881   7.438   2.907  0.3000 -0.5608 -0.1650
  406MOL0     C55918   5.882   7.324   2.803  0.1643 -0.4773  1.1355
  406MOL0     C55919   5.893   7.569   2.869  0.0317 -0.2468 -0.5444
  406MOL0     C55920   5.896   7.607   2.721  0.4375 -1.2535  0.8456
  406MOL0     O55921   6.009   7.684   2.679 -0.0005 -0.0965  0.1649
  406MOL0     C55922   6.003   7.739   2.555 -1.5715  0.3848 -0.1947
  406MOL0     C55923   6.070   7.655   2.461  0.0800 -0.8868  0.3503
  406MOL0     C55924   6.082   7.700   2.329  0.5444 -0.8456 -0.3561
  406MOL0     C55925   6.031   7.836   2.304 -0.0650 -0.1185 -0.1502
  406MOL0     O55926   6.046   7.900   2.180  0.1838  0.3760 -0.7562
  406MOL0     C55927   6.170   7.876   2.108 -0.4545 -0.1165  0.2666
  406MOL0     C55928   6.171   7.995   2.020  0.0294 -0.4378  0.1599
  406MOL0     C55929   6.231   7.971   1.875  0.4973 -0.5591 -0.5299
  406MOL0     C55930   6.374   7.908   1.889 -0.3835  0.3574  0.2712
  406MOL0     C55931   6.453   7.885   1.760 -0.2172  1.0385 -0.4304
  406MOL0     C55932   6.580   7.799   1.780  1.0240  0.1706  0.4181
  406MOL0     C55933   6.560   7.652   1.821 -0.6261  0.5210 -0.3941
  406MOL0     C55934   6.688   7.570   1.814 -0.0260 -0.5121  0.5717
  406MOL0    Cl55935   6.733   7.506   1.646  0.0645  0.3948 -0.3399
  406MOL0     C55936   5.956   7.910   2.394  0.4837 -0.6110 -0.6787
  406MOL0     C55937   5.950   7.863   2.526 -0.9842 -0.4897  0.0639
  406MOL0     O55938   5.796   7.597   2.653 -0.1582  0.5244 -0.4145
  406MOL0     C55939   5.911   7.671   2.969 -1.1900 -0.3005 -0.6152
  406MOL0     C55940   5.898   7.633   3.107 -0.6156 -0.8831  0.9328
  406MOL0     N55941   5.899   6.963   3.353  0.0063 -0.3488 -0.2158
  406MOL0     N55942   5.924   6.846   3.315 -0.1849  0.3613  0.7370
  406MOL0     C55943   5.665   5.720   2.863  0.2249  0.6802  0.2796
  406MOL0     C55944   5.601   5.626   2.790  0.0454 -0.3809  1.0102
  406MOL0     C55945   5.301   5.471   2.501  0.3371 -0.4284 -0.1462
  406MOL0     C55946   5.180   5.508   2.553  0.6383 -0.3136 -0.3623
  406MOL0     C55947   5.061   5.502   2.476 -0.5061  1.5193  0.1563
  406MOL0     C55948   5.058   5.450   2.347 -0.6230 -0.8356 -0.1154
  406MOL0     O55949   4.926   5.454   2.295 -0.4966  0.5480 -0.3244
  406MOL0     C55950   4.922   5.393   2.164 -0.3375  0.2839  0.0013
  406MOL0     C55951   4.783   5.368   2.119 -0.4715 -0.2168 -0.0177
  406MOL0     C55952   4.747   5.472   1.999 -0.1230  0.2358 -0.3195
  406MOL0     C55953   4.694   5.606   2.054 -0.4549 -0.1384  0.5800
  406MOL0     C55954   4.793   5.713   2.050 -1.1145  0.3438  1.3349
  406MOL0     C55955   4.859   5.817   2.068  0.9812  0.2721  0.5417
  406MOL0     C55956   5.178   5.401   2.302 -1.0036  1.3956  0.6753
  406MOL0     C55957   5.297   5.407   2.375 -0.0089  0.0730 -0.9344
  406MOL0     C55958   5.420   5.355   2.298 -0.0439  0.8740  0.2460
  406MOL0     H55959   5.286   5.729   2.868 -1.2721 -1.2990  4.0720
  406MOL0     H55960   5.416   5.896   3.013 -2.4448 -3.2565  0.8707
  406MOL0     H55961   5.859   5.941   2.950  0.5588 -0.4859  0.6636
  406MOL0     H55962   5.858   5.805   3.059  0.6062  1.1435  2.0439
  406MOL0     H55963   5.835   5.933   3.255  2.7864 -0.6638  0.1017
  406MOL0     H55964   5.967   5.988   3.155 -0.6472 -1.1840 -0.2273
  406MOL0     H55965   5.826   6.167   3.070  0.7025 -0.3830 -0.1059
  406MOL0     H55966   5.710   6.143   3.207  0.4519  2.2497 -0.0930
  406MOL0     H55967   5.867   6.181   3.385 -0.3454  2.3718  0.2793
  406MOL0     H55968   6.003   6.163   3.273  0.1800 -0.1829  1.7782
  406MOL0     H55969   5.929   6.352   3.157  1.1167  0.0867 -0.6048
  406MOL0     H55970   5.987   6.381   3.313 -1.1128  0.6052  2.4629
  406MOL0     H55971   5.692   6.378   3.234 -0.2175  3.2237  0.2483
  406MOL0     H55972   5.749   6.395   3.400 -0.3774  0.7050  0.1160
  406MOL0     H55973   5.710   6.616   3.272  0.2181 -0.3878 -1.2237
  406MOL0     H55974   5.864   6.584   3.190  0.5336  0.6189 -0.0831
  406MOL0     H55975   5.820   6.589   3.496  1.0064 -1.5017 -0.5885
  406MOL0     H55976   5.972   6.574   3.412 -0.8528 -0.3706  1.3097
  406MOL0     H55977   5.762   6.813   3.602 -2.2471  3.3059  0.0014
  406MOL0     H55978   5.846   7.157   3.587  2.0698 -1.4611 -0.1026
  406MOL0     H55979   5.712   7.050   3.625 -0.2446  2.4558  1.2881
  406MOL0     H55980   5.620   7.113   3.391 -1.2550 -0.8975  1.1814
  406MOL0     H55981   5.635   7.240   3.511  0.0799  2.6505 -2.4158
  406MOL0     H55982   5.877   7.275   3.413 -0.4990  1.4420  0.5839
  406MOL0     H55983   5.801   7.182   3.274  0.6736  0.8677 -0.8791
  406MOL0     H55984   5.670   7.360   3.213 -0.5732 -2.4091  0.3670
  406MOL0     H55985   5.666   7.435   3.367  2.5421  2.8150  1.0766
  406MOL0     H55986   5.842   7.306   3.064 -1.3328  0.9820  3.0029
  406MOL0     H55987   5.853   7.234   2.858 -1.5704 -0.7261 -0.0759
  406MOL0     H55988   5.979   7.319   2.754 -0.1051 -2.6719  0.7400
  406MOL0     H55989   5.811   7.341   2.722  1.7903  1.6424  0.0404
  406MOL0     H55990   6.115   7.560   2.486 -2.8174 -2.0339  1.7317
  406MOL0     H55991   6.128   7.642   2.249  1.8256  0.3517 -0.5337
  406MOL0     H55992   6.250   7.878   2.182  0.1341  2.7897 -0.3523
  406MOL0     H55993   6.176   7.776   2.064  3.0413 -0.3562  1.0003
  406MOL0     H55994   6.068   8.025   2.003 -0.4160 -0.7085  2.1282
  406MOL0     H55995   6.206   8.084   2.074 -0.7075 -0.8080  1.2891
  406MOL0     H55996   6.234   8.058   1.810 -1.7395  0.0997  0.1607
  406MOL0     H55997   6.155   7.915   1.819 -3.5324  2.9236  0.8947
  406MOL0     H55998   6.369   7.813   1.943 -0.3755  0.0925 -0.1894
  406MOL0     H55999   6.433   7.975   1.952  0.9503 -0.4818 -0.0258
  406MOL0     H56000   6.386   7.836   1.688  0.9659  0.3403 -1.0923
  406MOL0     H56001   6.489   7.977   1.713 -2.1177  1.3423 -1.4237
  406MOL0     H56002   6.639   7.857   1.851  0.6014 -1.4917  2.2123
  406MOL0     H56003   6.637   7.812   1.687 -0.3860  3.3250 -0.1697
  406MOL0     H56004   6.495   7.602   1.749 -2.3342  0.1078  1.3348
  406MOL0     H56005   6.522   7.638   1.923 -1.2072  1.7942 -0.4085
  406MOL0     H56006   6.691   7.487   1.886  3.5002 -0.1145  1.0869
  406MOL0     H56007   6.758   7.643   1.857 -0.4100 -0.2051  0.6735
  406MOL0     H56008   5.910   8.004   2.367 -1.8639 -2.0543 -2.0240
  406MOL0     H56009   5.921   7.924   2.612 -0.1784 -0.4232  0.2972
  406MOL0     H56010   5.925   7.778   2.954  1.1264 -0.9000 -3.4810
  406MOL0     H56011   5.918   7.703   3.188  2.1710 -1.4343  0.8171
  406MOL0     H56012   5.773   5.715   2.851  0.2211 -2.1532  0.8743
  406MOL0     H56013   5.654   5.549   2.735 -1.0342 -0.2959 -0.2088
  406MOL0     H56014   5.170   5.554   2.651  1.8503  0.5402 -0.6204
  406MOL0     H56015   4.967   5.538   2.516  0.0758  0.9501  2.1386
  406MOL0     H56016   4.991   5.435   2.091  0.9976 -0.3497  0.8465
  406MOL0     H56017   4.965   5.295   2.188 -4.2285 -1.8252 -0.6471
  406MOL0     H56018   4.722   5.379   2.210 -0.9968 -0.2475 -0.3618
  406MOL0     H56019   4.778   5.267   2.078 -0.0078 -0.1445 -0.2551
  406MOL0     H56020   4.838   5.472   1.938 -0.1495 -2.7055 -0.4827
  406MOL0     H56021   4.673   5.419   1.939 -0.1974  0.2386 -0.2303
  406MOL0     H56022   4.659   5.585   2.156  0.5290 -0.2910  0.8909
  406MOL0     H56023   4.609   5.627   1.987 -1.1600 -0.2829  1.4111
  406MOL0     H56024   4.926   5.900   2.075  1.6651  0.2964 -3.5322
  406MOL0     H56025   5.180   5.356   2.204  1.3320  2.3044  0.2335
  406MOL0     H56026   5.476   5.443   2.265  2.3755 -0.9912 -0.9352
  406MOL0     H56027   5.485   5.293   2.361 -0.6835  0.0167  0.0828
  406MOL0     H56028   5.396   5.300   2.206  0.2815  0.2833  0.5059
  407MOL0     O56029   6.874   1.404   5.662 -0.2958 -0.6897  0.6198
  407MOL0     C56030   6.786   1.391   5.748 -0.0490 -0.1847  0.5504
  407MOL0     O56031   6.715   1.277   5.762 -0.2752 -0.1216  0.1302
  407MOL0     C56032   6.750   1.177   5.679 -0.1711  0.2638 -0.3848
  407MOL0     C56033   6.683   1.168   5.559 -0.0581  0.0219 -0.2282
  407MOL0     C56034   6.700   1.065   5.474 -0.4155  0.2354  0.1522
  407MOL0     C56035   6.813   0.981   5.487 -0.8512 -1.1830 -0.0081
  407MOL0     O56036   6.870   0.926   5.374 -0.5896  0.4716 -0.3902
  407MOL0     C56037   6.989   0.859   5.400  0.1498 -0.1287  0.3851
  407MOL0     C56038   7.038   0.773   5.282 -0.7785  0.3687 -0.8856
  407MOL0     C56039   7.076   0.854   5.156  0.3011 -0.5593  0.4009
  407MOL0     C56040   7.129   0.760   5.050 -0.3139 -0.2731  0.5677
  407MOL0     C56041   7.196   0.850   4.944  0.3428 -1.0126  0.2603
  407MOL0     C56042   7.287   0.763   4.852  0.3706  0.3708 -0.3945
  407MOL0     C56043   7.311   0.846   4.721 -0.4111 -0.2717 -0.4819
  407MOL0     C56044   7.396   0.773   4.615  0.1790  0.4573  0.8941
  407MOL0     N56045   7.430   0.842   4.489 -0.6319  0.3311 -0.1049
  407MOL0     C56046   7.465   0.967   4.493 -0.3253  0.2713  0.1584
  407MOL0     C56047   7.499   0.992   4.362 -0.5998 -0.0141 -0.8465
  407MOL0     C56048   7.535   1.121   4.290 -0.6008 -0.4581 -0.3285
  407MOL0     C56049   7.685   1.145   4.259 -1.3544 -0.6264 -0.4476
  407MOL0     C56050   7.700   1.269   4.162 -0.2722  0.2615 -0.4756
  407MOL0     C56051   7.640   1.241   4.017 -0.8838 -1.1940 -0.3636
  407MOL0     O56052   7.684   1.320   3.910  0.2232 -0.4751  0.3365
  407MOL0     C56053   7.631   1.447   3.905  0.6325 -0.5581 -0.6855
  407MOL0     C56054   7.516   1.468   3.847  0.0044  0.5902 -0.1308
  407MOL0     C56055   7.452   1.594   3.839 -0.8537 -0.9710 -0.5265
  407MOL0     C56056   7.341   1.603   3.751 -0.1158  0.4894 -0.3414
  407MOL0     C56057   7.523   1.714   3.890  0.5443  0.3129 -0.3313
  407MOL0     C56058   7.472   1.855   3.871 -0.6600 -0.3353  1.1929
  407MOL0     O56059   7.569   1.957   3.871 -0.0158  0.2791  0.2381
  407MOL0     C56060   7.552   2.076   3.796  0.2133  0.2013  1.0097
  407MOL0     C56061   7.431   2.106   3.728  0.2018 -0.7280  0.2831
  407MOL0     C56062   7.444   2.224   3.649  0.5438 -0.3779 -0.8620
  407MOL0     C56063   7.552   2.320   3.652 -0.2063  0.0192 -0.5617
  407MOL0     O56064   7.568   2.419   3.563 -0.0605  0.2001 -0.4612
  407MOL0     C56065   7.486   2.540   3.596 -0.5779  0.1891 -0.4040
  407MOL0     C56066   7.515   2.608   3.731  0.3259 -0.8146 -1.1855
  407MOL0     C56067   7.494   2.752   3.725 -0.0871  0.4115 -0.6807
  407MOL0     C56068   7.344   2.785   3.729 -1.2878  0.5603  0.4309
  407MOL0     C56069   7.330   2.937   3.751 -0.0309  0.3665  0.0452
  407MOL0     C56070   7.293   2.978   3.894  0.1868 -0.2084  1.0599
  407MOL0     C56071   7.292   3.132   3.909  0.3412  0.3848  0.6646
  407MOL0     C56072   7.431   3.190   3.903  0.2502 -0.4423  0.2937
  407MOL0    Cl56073   7.530   3.123   4.043 -0.0368 -0.0368 -0.1474
  407MOL0     C56074   7.664   2.285   3.724  1.0496 -0.7858  0.3310
  407MOL0     C56075   7.662   2.167   3.795 -0.3201 -0.6034 -0.8710
  407MOL0     O56076   7.354   1.875   3.872 -0.1500  0.8135  0.5864
  407MOL0     C56077   7.639   1.689   3.968 -0.0210 -0.1489  0.4941
  407MOL0     C56078   7.696   1.557   3.964 -0.0540  0.1139  0.0426
  407MOL0     N56079   7.487   0.874   4.298  0.9351 -1.1595  0.1628
  407MOL0     N56080   7.436   0.790   4.371 -0.2711  0.0038  0.6225
  407MOL0     C56081   6.876   0.982   5.621 -0.8395 -0.0203 -0.7270
  407MOL0     C56082   6.836   1.076   5.712  0.3751  0.4391 -1.3625
  407MOL0     C56083   6.755   1.507   5.834 -1.1044  0.2963 -0.4340
  407MOL0     C56084   6.631   1.542   5.868  0.1420  0.5110 -1.3637
  407MOL0     C56085   6.593   1.655   5.947  0.2576 -0.2574  0.4074
  407MOL0     C56086   6.696   1.743   5.983 -0.1205 -0.6694  0.2699
  407MOL0     O56087   6.681   1.860   6.054 -0.8975  0.8264 -0.5720
  407MOL0     C56088   6.558   1.902   6.117  0.2800  0.6904 -0.0621
  407MOL0     C56089   6.536   1.832   6.249  0.3936  0.2941  0.1029
  407MOL0     C56090   6.467   1.698   6.243 -0.3150 -0.5715 -0.3894
  407MOL0     C56091   6.449   1.638   6.383 -0.4399 -0.4300  0.0940
  407MOL0     C56092   6.368   1.720   6.475  0.1473 -0.1073 -0.4314
  407MOL0     C56093   6.302   1.789   6.546 -0.3602 -0.9821 -0.2990
  407MOL0     C56094   6.825   1.710   5.945  1.0708  0.1903  0.0711
  407MOL0     C56095   6.858   1.590   5.871  0.0988 -0.0706 -0.3433
  407MOL0     C56096   7.014   1.554   5.855  0.0357  0.0023  0.2677
  407MOL0     H56097   6.600   1.235   5.542 -2.2241 -1.8395  2.1922
  407MOL0     H56098   6.639   1.052   5.385 -1.0150 -2.9788  0.9096
  407MOL0     H56099   6.988   0.787   5.482 -1.3531 -1.2946 -0.6151
  407MOL0     H56100   7.074   0.927   5.416 -1.0637  1.1998  1.5244
  407MOL0     H56101   7.123   0.711   5.313 -0.7048  0.8591 -0.0801
  407MOL0     H56102   6.963   0.697   5.254  1.0757 -1.5042 -1.0132
  407MOL0     H56103   6.991   0.911   5.116  1.6464  0.5941 -0.9370
  407MOL0     H56104   7.153   0.927   5.180  1.6587 -0.9608 -2.3440
  407MOL0     H56105   7.204   0.701   5.104 -1.0399  1.9863  4.3361
  407MOL0     H56106   7.053   0.689   5.016  0.6832 -0.4438 -1.4655
  407MOL0     H56107   7.252   0.929   4.994  0.5895 -2.1681  1.9022
  407MOL0     H56108   7.117   0.907   4.893  1.3887 -1.5452 -2.0856
  407MOL0     H56109   7.383   0.737   4.896  0.3971 -1.0304 -1.2257
  407MOL0     H56110   7.238   0.666   4.838 -1.0950  0.3915  3.3446
  407MOL0     H56111   7.378   0.929   4.744  0.5611 -1.4588  1.1940
  407MOL0     H56112   7.212   0.872   4.682 -0.8357 -1.6761 -0.4248
  407MOL0     H56113   7.484   0.730   4.663 -2.4812 -1.5832  4.4725
  407MOL0     H56114   7.336   0.685   4.588  0.4507 -0.2320  2.4685
  407MOL0     H56115   7.466   1.043   4.570 -1.3141  1.2420 -0.7530
  407MOL0     H56116   7.510   1.206   4.354  3.5958  0.6519  0.1523
  407MOL0     H56117   7.464   1.128   4.207 -1.9131 -0.5144  0.7429
  407MOL0     H56118   7.743   1.165   4.349  1.2433  0.3841 -2.2293
  407MOL0     H56119   7.731   1.063   4.203  1.3070 -0.3688  1.1821
  407MOL0     H56120   7.646   1.348   4.216  0.4851  1.0610 -0.8782
  407MOL0     H56121   7.806   1.291   4.149 -0.6464  2.2680 -0.3403
  407MOL0     H56122   7.681   1.142   3.992  2.1202 -0.1580  0.1283
  407MOL0     H56123   7.533   1.218   4.025 -0.9994 -1.0483 -1.3896
  407MOL0     H56124   7.476   1.381   3.797  3.6598 -1.2647 -0.1627
  407MOL0     H56125   7.350   1.545   3.659 -0.3298  1.2284 -0.8421
  407MOL0     H56126   7.332   1.706   3.714  0.6189  0.7723  0.2372
  407MOL0     H56127   7.252   1.584   3.811 -1.2959  1.1910 -1.7943
  407MOL0     H56128   7.332   2.064   3.742 -1.2988  2.0343 -1.0776
  407MOL0     H56129   7.357   2.234   3.585 -2.1022 -1.9513  2.2492
  407MOL0     H56130   7.500   2.625   3.529 -2.6017 -0.5113 -1.8120
  407MOL0     H56131   7.379   2.521   3.587 -1.0520  2.4114 -0.0020
  407MOL0     H56132   7.451   2.557   3.804 -1.8745  2.3296 -0.6843
  407MOL0     H56133   7.619   2.602   3.767 -1.2729  2.1920  5.7091
  407MOL0     H56134   7.539   2.795   3.636 -1.7108  0.7924 -1.3527
  407MOL0     H56135   7.540   2.794   3.815  0.8252 -1.3718 -0.2602
  407MOL0     H56136   7.290   2.735   3.810 -0.7958  0.7342  0.8745
  407MOL0     H56137   7.289   2.738   3.647 -2.3657 -1.0637  2.0175
  407MOL0     H56138   7.419   2.988   3.714  1.2700 -0.2521  2.1628
  407MOL0     H56139   7.243   2.966   3.692 -1.7593 -1.4157  1.5745
  407MOL0     H56140   7.360   2.930   3.966 -1.7560 -2.0443  1.7887
  407MOL0     H56141   7.196   2.928   3.908  0.4275 -0.3174  2.4794
  407MOL0     H56142   7.247   3.151   4.007 -1.1583 -2.7512  0.7016
  407MOL0     H56143   7.232   3.186   3.835  1.0811  3.6823  2.2790
  407MOL0     H56144   7.425   3.299   3.905  1.3723 -0.3756  1.5363
  407MOL0     H56145   7.484   3.161   3.812  0.6660  2.7531 -0.6043
  407MOL0     H56146   7.751   2.350   3.726  0.2137  0.3412  2.1701
  407MOL0     H56147   7.748   2.145   3.857 -2.4809 -0.9514  2.2695
  407MOL0     H56148   7.702   1.768   4.007 -2.5596  2.4585 -0.3431
  407MOL0     H56149   7.792   1.532   4.007 -1.6876 -1.0973  3.3516
  407MOL0     H56150   6.957   0.917   5.652  0.9106  0.3940 -3.9847
  407MOL0     H56151   6.880   1.058   5.810 -2.1197 -2.7946 -0.6546
  407MOL0     H56152   6.550   1.475   5.841  0.7424 -1.0368  0.4815
  407MOL0     H56153   6.492   1.670   5.982  1.1041  0.9826  2.4982
  407MOL0     H56154   6.556   2.011   6.121  0.7138  0.6614  1.9160
  407MOL0     H56155   6.474   1.877   6.051  1.1391  1.4202 -1.4806
  407MOL0     H56156   6.483   1.903   6.314  1.5255 -0.5306  2.0071
  407MOL0     H56157   6.630   1.833   6.304 -0.0390  0.2685  0.8717
  407MOL0     H56158   6.365   1.714   6.208  0.0035 -1.8496 -2.0065
  407MOL0     H56159   6.535   1.625   6.200  1.1564 -0.2992  1.3507
  407MOL0     H56160   6.542   1.610   6.432 -0.2723  1.1358  0.7214
  407MOL0     H56161   6.406   1.540   6.359  0.0494 -0.8065  0.7408
  407MOL0     H56162   6.237   1.859   6.593  1.2014  2.0324 -2.2575
  407MOL0     H56163   6.906   1.774   5.979 -0.5455  1.0149  2.6561
  407MOL0     H56164   7.042   1.454   5.888  2.1576  0.2439 -0.6421
  407MOL0     H56165   7.029   1.579   5.749  0.7149  2.5330  0.8847
  407MOL0     H56166   7.087   1.619   5.904  1.4799 -1.2175 -0.1803
  408MOL0     O56167  10.020  10.006   5.084 -0.0054  0.0001 -0.3086
  408MOL0     C56168  10.013   9.880   5.084  1.6638 -0.0579  0.1669
  408MOL0     O56169   9.897   9.809   5.059 -0.2699 -0.1160 -0.9612
  408MOL0     C56170   9.782   9.877   5.047  0.9814  0.0421 -0.5225
  408MOL0     C56171   9.732   9.896   4.924 -0.4492 -0.6793 -0.2266
  408MOL0     C56172   9.615   9.976   4.899  0.4499 -0.0559 -0.0760
  408MOL0     C56173   9.538  10.028   5.011  0.0040  0.0685  0.1192
  408MOL0     O56174   9.431  10.108   4.987  0.2882  0.1189  0.4674
  408MOL0     C56175   9.317  10.094   5.066  0.3202  0.1222 -0.3917
  408MOL0     C56176   9.236  10.225   5.043 -0.1238 -0.1999 -0.2034
  408MOL0     C56177   9.315  10.348   5.080 -0.4037  0.4992  0.0801
  408MOL0     C56178   9.232  10.471   5.042 -0.5557 -0.2063 -0.5529
  408MOL0     C56179   9.301  10.591   5.093  1.1567 -0.3107  0.0740
  408MOL0     C56180   9.323  10.581   5.249  0.7269  0.0949 -0.4787
  408MOL0     C56181   9.301  10.723   5.310  0.1241 -0.4735  0.3165
  408MOL0     C56182   9.409  10.830   5.283 -0.6233  0.0309  0.3143
  408MOL0     N56183   9.409  10.923   5.401  0.6527  0.4163  0.2809
  408MOL0     C56184   9.360  11.047   5.393  0.1762  0.0950  0.0682
  408MOL0     C56185   9.372  11.092   5.519  0.0785 -0.7874 -0.0585
  408MOL0     C56186   9.320  11.230   5.556 -0.2044  0.2475  0.2930
  408MOL0     C56187   9.174  11.255   5.517  0.3417  0.4468 -0.1251
  408MOL0     C56188   9.077  11.152   5.576 -0.3997 -0.8015 -0.2130
  408MOL0     C56189   8.931  11.175   5.560 -0.6471 -1.5631 -0.3838
  408MOL0     O56190   8.899  11.293   5.625 -0.3877  0.2145  0.1076
  408MOL0     C56191   8.763  11.296   5.650 -1.0413 -0.1745  0.4533
  408MOL0     C56192   8.732  11.321   5.781  0.7748  1.1413  0.4906
  408MOL0     C56193   8.599  11.331   5.827  0.0585 -0.1726  0.5218
  408MOL0     C56194   8.582  11.332   5.976 -0.2113  0.1794 -0.0766
  408MOL0     C56195   8.499  11.315   5.726  0.0096  0.2903 -0.6962
  408MOL0     C56196   8.359  11.274   5.778 -0.3762  0.9165 -0.2885
  408MOL0     O56197   8.302  11.353   5.879  0.3400  0.1080 -0.6357
  408MOL0     C56198   8.178  11.318   5.924 -0.2930 -0.1778 -0.4478
  408MOL0     C56199   8.156  11.210   6.012  0.0299 -0.4495 -0.2483
  408MOL0     C56200   8.025  11.189   6.057 -0.0103 -1.0694 -1.1822
  408MOL0     C56201   7.913  11.262   6.011  0.0454  1.0867  0.3625
  408MOL0     O56202   7.781  11.223   6.052 -1.0275 -0.1145 -0.5560
  408MOL0     C56203   7.670  11.281   5.978  0.3032 -0.3883  0.8486
  408MOL0     C56204   7.565  11.174   5.982  0.5841 -0.3963 -0.0459
  408MOL0     C56205   7.424  11.225   5.945 -0.1096 -0.7616 -0.2979
  408MOL0     C56206   7.323  11.127   5.995  0.4564 -0.2710  0.0661
  408MOL0     C56207   7.278  11.029   5.889 -0.2252  0.4334  0.0906
  408MOL0     C56208   7.182  10.914   5.937  0.1221  0.3818  0.4699
  408MOL0     C56209   7.038  10.968   5.971 -0.2775 -0.5646  0.1644
  408MOL0     C56210   6.936  10.869   6.004  0.6985 -0.0392  0.1808
  408MOL0    Cl56211   6.978  10.775   6.158  0.1273 -0.1464  0.4711
  408MOL0     C56212   7.943  11.375   5.932  0.1120  0.3288 -0.2815
  408MOL0     C56213   8.075  11.400   5.889  0.4831  0.7824  0.4057
  408MOL0     O56214   8.305  11.180   5.720  0.9511  0.4791 -0.6650
  408MOL0     C56215   8.529  11.294   5.595 -0.3710  0.0774 -1.4227
  408MOL0     C56216   8.659  11.283   5.555 -0.3112 -0.4574  0.5843
  408MOL0     N56217   9.407  10.993   5.603 -0.0034 -0.7249  0.3899
  408MOL0     N56218   9.436  10.890   5.527  0.8179  0.4713  0.1178
  408MOL0     C56219   9.599  10.005   5.136 -0.1139  0.2996 -1.0713
  408MOL0     C56220   9.710   9.928   5.150 -1.3713  0.4858 -0.5433
  408MOL0     C56221  10.129   9.795   5.118  0.1468  0.6127 -0.0660
  408MOL0     C56222  10.239   9.825   5.201  0.0811 -0.7571 -0.0148
  408MOL0     C56223  10.353   9.746   5.213  0.2167 -1.2705 -1.3592
  408MOL0     C56224  10.365   9.633   5.135 -0.7738 -0.2411 -0.3735
  408MOL0     O56225  10.474   9.550   5.129  0.8719 -0.4737 -0.6140
  408MOL0     C56226  10.598   9.581   5.202  0.2043 -0.0822 -0.1900
  408MOL0     C56227  10.677   9.703   5.150 -1.0089 -1.0959  0.1499
  408MOL0     C56228  10.792   9.760   5.237  0.5699  0.6302  0.4556
  408MOL0     C56229  10.917   9.680   5.256 -0.7449  0.7867 -0.1620
  408MOL0     C56230  10.984   9.721   5.375 -1.1515 -0.4873 -0.0041
  408MOL0     C56231  11.054   9.762   5.469  0.0011  0.1904  0.9475
  408MOL0     C56232  10.264   9.595   5.050 -0.1453  0.3450  0.0235
  408MOL0     C56233  10.144   9.670   5.046 -0.5087  0.6337 -0.0450
  408MOL0     C56234  10.053   9.614   4.947 -0.3242 -0.3984  0.2977
  408MOL0     H56235   9.776   9.854   4.835 -0.7107  0.7006 -1.0337
  408MOL0     H56236   9.577   9.998   4.799 -2.7498 -0.2264  0.9816
  408MOL0     H56237   9.341  10.082   5.172  3.8397 -0.1985 -1.1339
  408MOL0     H56238   9.266  10.000   5.042 -0.7361  0.4653  0.3983
  408MOL0     H56239   9.208  10.233   4.937 -1.0830 -1.5408 -0.0665
  408MOL0     H56240   9.142  10.213   5.096 -0.9106  1.9862 -0.9569
  408MOL0     H56241   9.344  10.340   5.185  1.9744  0.7573 -0.4978
  408MOL0     H56242   9.404  10.345   5.015 -1.2986 -2.1059 -1.1796
  408MOL0     H56243   9.222  10.482   4.934 -2.9817  1.3730 -0.2443
  408MOL0     H56244   9.128  10.473   5.076 -0.4591  1.6165 -0.2803
  408MOL0     H56245   9.244  10.681   5.068 -0.8503 -1.0972  1.5149
  408MOL0     H56246   9.405  10.599   5.059  1.5946  1.1255  1.6264
  408MOL0     H56247   9.259  10.503   5.291  3.2849 -1.4070  0.9055
  408MOL0     H56248   9.429  10.557   5.264  0.8124  1.0248  0.4506
  408MOL0     H56249   9.300  10.703   5.417  0.5031 -0.1437  0.3852
  408MOL0     H56250   9.199  10.744   5.278 -0.6747 -0.9814  2.3804
  408MOL0     H56251   9.509  10.787   5.286  1.1540  3.5344 -2.0748
  408MOL0     H56252   9.388  10.884   5.190  4.1484  1.7992  0.0244
  408MOL0     H56253   9.330  11.102   5.304 -1.6504  2.6088  2.0926
  408MOL0     H56254   9.382  11.301   5.502 -3.8838  1.5067 -2.7281
  408MOL0     H56255   9.338  11.250   5.662 -0.4344  0.8684  0.2227
  408MOL0     H56256   9.147  11.358   5.541 -0.8007  0.7211 -2.2954
  408MOL0     H56257   9.169  11.240   5.408 -0.4073  0.4538 -0.0926
  408MOL0     H56258   9.099  11.054   5.532 -1.5896 -0.3980 -1.7987
  408MOL0     H56259   9.097  11.141   5.683 -0.1642 -1.3540 -0.3082
  408MOL0     H56260   8.907  11.186   5.454  3.0132  3.9427 -1.0712
  408MOL0     H56261   8.887  11.087   5.607  1.8727 -3.6739 -1.6873
  408MOL0     H56262   8.817  11.311   5.848  1.2019 -2.1044 -0.3390
  408MOL0     H56263   8.677  11.321   6.028 -0.2315 -2.5096 -0.4907
  408MOL0     H56264   8.523  11.250   6.017 -0.1593  1.7830  3.5089
  408MOL0     H56265   8.536  11.428   6.000 -0.4976  0.2761 -0.9447
  408MOL0     H56266   8.228  11.141   6.054 -1.5809 -1.1640  1.4729
  408MOL0     H56267   8.009  11.120   6.139  1.3770  1.7881  1.7007
  408MOL0     H56268   7.638  11.368   6.036  0.0817 -0.1518  0.3748
  408MOL0     H56269   7.687  11.302   5.872 -3.7825 -0.2241  0.0819
  408MOL0     H56270   7.597  11.086   5.926  2.7549  1.0795 -1.2756
  408MOL0     H56271   7.560  11.149   6.089  1.6134  1.8925  0.5823
  408MOL0     H56272   7.420  11.245   5.837  0.0471  3.5097  0.3198
  408MOL0     H56273   7.409  11.319   5.998 -2.1361 -2.6309  2.7121
  408MOL0     H56274   7.240  11.185   6.036  0.5710  0.0879 -0.2012
  408MOL0     H56275   7.356  11.065   6.078  1.2965 -1.0798 -0.8572
  408MOL0     H56276   7.228  11.099   5.822  1.0814 -0.8036 -2.2687
  408MOL0     H56277   7.351  10.973   5.830 -2.2297 -1.6987 -0.5199
  408MOL0     H56278   7.232  10.878   6.027  1.6081 -2.1743 -1.2338
  408MOL0     H56279   7.185  10.831   5.865  2.5330  0.2879  0.5734
  408MOL0     H56280   7.005  11.030   5.886 -0.2667 -0.0368  0.5367
  408MOL0     H56281   7.035  11.037   6.057 -1.9672 -2.7025  1.9421
  408MOL0     H56282   6.917  10.800   5.921 -0.3326 -2.4633  2.2751
  408MOL0     H56283   6.840  10.919   6.018  0.1751 -0.7218 -0.8503
  408MOL0     H56284   7.866  11.443   5.897 -2.5379 -2.2077  0.1631
  408MOL0     H56285   8.074  11.493   5.833 -0.3055 -1.0827 -2.9465
  408MOL0     H56286   8.448  11.283   5.524 -1.8084  1.2901 -0.0393
  408MOL0     H56287   8.677  11.266   5.449  1.6719  1.3251  0.5602
  408MOL0     H56288   9.545  10.030   5.226 -0.4532 -0.8760 -0.9315
  408MOL0     H56289   9.767   9.923   5.242 -0.5147  1.3323 -1.0059
  408MOL0     H56290  10.246   9.902   5.277  0.9005 -0.3973 -0.4452
  408MOL0     H56291  10.429   9.774   5.285 -0.2496  3.1800 -2.2966
  408MOL0     H56292  10.574   9.584   5.309  1.9843  1.3221  0.2162
  408MOL0     H56293  10.663   9.495   5.184 -1.8963 -1.3805 -2.1151
  408MOL0     H56294  10.610   9.790   5.140 -0.3469 -0.3661  1.7530
  408MOL0     H56295  10.722   9.675   5.055  1.5431  2.0111  0.2923
  408MOL0     H56296  10.817   9.859   5.199  5.6855 -0.7481 -0.5120
  408MOL0     H56297  10.737   9.774   5.330 -2.1141  3.4012 -1.3556
  408MOL0     H56298  10.981   9.701   5.170 -2.5318  0.5414 -1.6124
  408MOL0     H56299  10.907   9.571   5.261  1.5099  0.5811  1.0256
  408MOL0     H56300  11.122   9.794   5.545 -1.8181  2.8052  1.6174
  408MOL0     H56301  10.260   9.506   4.988 -2.5647  0.7779 -0.5769
  408MOL0     H56302  10.016   9.682   4.870 -4.1653 -1.3074  1.1365
  408MOL0     H56303  10.084   9.531   4.883  0.1986 -3.0911  3.7423
  408MOL0     H56304   9.968   9.578   5.006 -0.4778 -2.1044 -0.8962
  409MOL0     O56305   9.833   4.918  10.124  0.4271  0.2936 -0.4614
  409MOL0     C56306   9.853   4.877  10.232 -0.2889 -0.2749 -0.3188
  409MOL0     O56307   9.923   4.758  10.253  0.5994 -0.2436  0.2891
  409MOL0     C56308   9.990   4.693  10.144 -0.2621 -0.8940 -1.0342
  409MOL0     C56309  10.059   4.757  10.040 -0.1047  0.5009  0.3755
  409MOL0     C56310  10.133   4.681   9.945  0.2766  0.0008 -0.2388
  409MOL0     C56311  10.140   4.544   9.955  0.3309  0.0123 -0.0608
  409MOL0     O56312  10.214   4.466   9.860 -0.2875 -0.3182  0.1137
  409MOL0     C56313  10.137   4.380   9.770 -1.1862 -0.7719  0.4756
  409MOL0     C56314  10.186   4.410   9.627  0.0439 -0.4583  0.1947
  409MOL0     C56315  10.132   4.291   9.535 -0.3567 -0.4079  0.3732
  409MOL0     C56316  10.165   4.312   9.386 -0.0553  0.6372 -0.1325
  409MOL0     C56317  10.115   4.200   9.303  0.8917 -0.7193  0.6516
  409MOL0     C56318  10.143   4.204   9.151 -0.5881 -0.4167 -0.2238
  409MOL0     C56319  10.064   4.096   9.074 -0.4077 -0.0382 -0.6975
  409MOL0     C56320  10.074   4.113   8.919 -0.1960 -0.3060  0.0687
  409MOL0     N56321  10.193   4.056   8.861  0.3830 -0.2778  0.1518
  409MOL0     C56322  10.312   4.109   8.872  0.5455 -0.2136  0.0477
  409MOL0     C56323  10.392   4.025   8.803 -0.4428  0.4810 -0.5015
  409MOL0     C56324  10.555   4.011   8.806  1.3392 -0.7694 -0.2354
  409MOL0     C56325  10.628   4.148   8.808  0.3536  0.6710 -0.6334
  409MOL0     C56326  10.782   4.138   8.785 -0.0271 -0.0500  0.3434
  409MOL0     C56327  10.882   4.242   8.849  0.2267 -0.2509 -0.3548
  409MOL0     O56328  10.812   4.370   8.829 -0.0275  0.4297  0.4377
  409MOL0     C56329  10.822   4.474   8.926 -0.4877 -0.7237 -0.8633
  409MOL0     C56330  10.789   4.598   8.869  0.2092  0.2338  0.2462
  409MOL0     C56331  10.790   4.719   8.933 -0.6390  0.5560  0.2938
  409MOL0     C56332  10.754   4.846   8.859 -0.0108  0.1827 -0.1729
  409MOL0     C56333  10.818   4.718   9.070  0.2915 -0.4304 -0.0295
  409MOL0     C56334  10.815   4.842   9.157  0.8890  0.7290 -0.2851
  409MOL0     O56335  10.924   4.857   9.249  0.8949 -0.1542  0.3833
  409MOL0     C56336  10.914   4.961   9.343 -1.0415  0.2498  0.5928
  409MOL0     C56337  10.793   5.009   9.391  0.1801  0.1782 -0.5145
  409MOL0     C56338  10.786   5.119   9.480  0.4110 -0.1260 -0.1608
  409MOL0     C56339  10.901   5.177   9.533  0.0054 -0.5629  0.4745
  409MOL0     O56340  10.882   5.276   9.629  0.3659  0.1184  0.5306
  409MOL0     C56341  10.988   5.315   9.725 -0.8055 -0.7475  0.3464
  409MOL0     C56342  10.941   5.422   9.839  0.3649  0.8881 -0.6567
  409MOL0     C56343  11.064   5.463   9.929  0.3320 -0.0287  0.5898
  409MOL0     C56344  11.021   5.567  10.033 -0.2748  0.0410 -0.2175
  409MOL0     C56345  11.155   5.601  10.111  0.2349 -0.0896  1.2784
  409MOL0     C56346  11.140   5.732  10.182 -0.8275 -0.5907 -0.0717
  409MOL0     C56347  11.063   5.715  10.311  0.9165 -0.0561  1.4854
  409MOL0     C56348  11.029   5.859  10.366 -0.1000  0.1677  0.0965
  409MOL0    Cl56349  10.941   5.848  10.520 -0.3108 -0.1781 -0.2306
  409MOL0     C56350  11.024   5.140   9.481 -0.3031 -0.3732 -0.6425
  409MOL0     C56351  11.033   5.029   9.388 -0.1351 -0.5690  0.6845
  409MOL0     O56352  10.732   4.936   9.139 -0.1007  1.2953 -0.8693
  409MOL0     C56353  10.863   4.593   9.125 -0.3750 -1.0271  0.7022
  409MOL0     C56354  10.877   4.476   9.053 -0.4745  0.1623  0.9151
  409MOL0     N56355  10.311   3.929   8.738  0.8341 -0.3384 -0.3177
  409MOL0     N56356  10.184   3.957   8.770 -0.3410  0.6469  0.0207
  409MOL0     C56357  10.059   4.478  10.053 -0.7844  0.0703 -0.3196
  409MOL0     C56358   9.988   4.557  10.145  0.0252  0.3863 -0.8743
  409MOL0     C56359   9.802   4.952  10.353  0.8259 -0.0940 -0.0670
  409MOL0     C56360   9.814   4.911  10.482 -0.2988  1.0305  0.1895
  409MOL0     C56361   9.774   4.994  10.593 -0.2925  0.4779  0.6176
  409MOL0     C56362   9.718   5.114  10.585 -0.7266 -0.1522 -0.9314
  409MOL0     O56363   9.690   5.183  10.701 -1.4499 -0.1890 -0.0788
  409MOL0     C56364   9.705   5.320  10.679  1.2938 -0.0028 -0.2895
  409MOL0     C56365   9.700   5.396  10.803 -1.0989  0.0496 -0.0075
  409MOL0     C56366   9.823   5.386  10.896  0.2015 -0.7820 -0.1309
  409MOL0     C56367   9.937   5.473  10.849 -0.2913 -1.0724  0.6790
  409MOL0     C56368  10.069   5.439  10.898  1.5336 -0.5631  0.1184
  409MOL0     C56369  10.178   5.425  10.945 -0.2365 -0.0838  0.1495
  409MOL0     C56370   9.688   5.148  10.452  0.0458 -0.3158  0.4705
  409MOL0     C56371   9.728   5.082  10.341 -0.3564 -0.1604  1.1253
  409MOL0     C56372   9.703   5.143  10.210 -0.8660  0.2853 -0.2015
  409MOL0     H56373  10.064   4.866  10.035 -0.2693  0.4616 -1.0784
  409MOL0     H56374  10.189   4.722   9.862 -1.3792  2.3638 -0.3007
  409MOL0     H56375  10.028   4.388   9.780 -1.4401 -1.0537 -1.6272
  409MOL0     H56376  10.165   4.275   9.784 -1.9287 -0.9621  0.5748
  409MOL0     H56377  10.136   4.495   9.580 -1.3846 -2.5791 -2.3229
  409MOL0     H56378  10.294   4.424   9.613 -0.3177  4.1486  0.4733
  409MOL0     H56379  10.191   4.207   9.571  1.2611 -0.1553 -1.5056
  409MOL0     H56380  10.027   4.275   9.562 -1.3792  0.9365 -2.3944
  409MOL0     H56381  10.117   4.405   9.354 -2.2559 -0.1022  0.7836
  409MOL0     H56382  10.274   4.306   9.385 -0.1191 -1.5425 -1.4924
  409MOL0     H56383  10.009   4.192   9.328  1.1171 -2.3830  1.1890
  409MOL0     H56384  10.162   4.106   9.332  0.6098 -1.0139  0.1775
  409MOL0     H56385  10.114   4.301   9.111  0.2605 -0.1074 -0.1137
  409MOL0     H56386  10.249   4.182   9.133 -0.8663 -2.2164  0.0904
  409MOL0     H56387   9.961   4.107   9.107 -1.1500  1.1437 -3.1218
  409MOL0     H56388  10.093   3.995   9.103  0.8076  0.8407  1.4008
  409MOL0     H56389   9.990   4.074   8.862 -0.8527 -0.4858  1.1280
  409MOL0     H56390  10.074   4.220   8.893 -3.3184 -0.1818  0.2449
  409MOL0     H56391  10.342   4.185   8.944 -1.7103 -0.4540  1.3743
  409MOL0     H56392  10.580   3.942   8.725 -1.0343  1.1245 -2.7407
  409MOL0     H56393  10.577   3.962   8.902  2.1170 -1.9526 -0.9882
  409MOL0     H56394  10.595   4.221   8.734  0.2568  1.6523  0.3556
  409MOL0     H56395  10.620   4.198   8.905  2.5871  0.8855 -0.4943
  409MOL0     H56396  10.810   4.045   8.836 -0.8164 -0.4874  0.0080
  409MOL0     H56397  10.784   4.146   8.676 -4.4213 -0.8329  0.0058
  409MOL0     H56398  10.905   4.201   8.948 -1.1581 -1.9738 -0.7033
  409MOL0     H56399  10.973   4.246   8.788 -1.6617 -3.1714 -3.7357
  409MOL0     H56400  10.756   4.597   8.766 -0.2634 -2.8601  0.3397
  409MOL0     H56401  10.803   4.835   8.762 -0.7824 -1.1786 -0.4368
  409MOL0     H56402  10.776   4.939   8.913 -1.3409 -1.3566  3.3561
  409MOL0     H56403  10.647   4.854   8.839  0.3222  1.2342 -1.7081
  409MOL0     H56404  10.695   4.967   9.368 -1.1949  1.8066  1.9016
  409MOL0     H56405  10.690   5.161   9.508 -0.2731 -1.5447 -0.2971
  409MOL0     H56406  11.031   5.229   9.777  0.0413  0.5855  1.9239
  409MOL0     H56407  11.064   5.357   9.659  0.1752 -0.7398  1.4651
  409MOL0     H56408  10.906   5.507   9.781 -1.5274  0.8557  0.3494
  409MOL0     H56409  10.858   5.382   9.899 -1.1068 -2.6248 -4.5046
  409MOL0     H56410  11.143   5.497   9.861 -0.1898  1.2341  0.5924
  409MOL0     H56411  11.088   5.372   9.986  1.6411 -1.1491 -1.5947
  409MOL0     H56412  10.948   5.521  10.101  1.9155 -4.5447 -0.5548
  409MOL0     H56413  10.982   5.660   9.991  1.8080  1.7921  1.5231
  409MOL0     H56414  11.163   5.524  10.188 -1.5908 -0.6254  0.9908
  409MOL0     H56415  11.245   5.596  10.050 -0.4776 -0.8434  0.2500
  409MOL0     H56416  11.089   5.797  10.111 -1.2862 -1.0612 -0.1747
  409MOL0     H56417  11.236   5.782  10.197 -1.9772  3.5083 -3.9533
  409MOL0     H56418  11.132   5.670  10.383  3.3579  1.1575  0.0340
  409MOL0     H56419  10.970   5.658  10.307  0.2109  1.1031  0.5667
  409MOL0     H56420  10.951   5.901  10.302 -2.1304 -4.9586 -1.3365
  409MOL0     H56421  11.119   5.920  10.361  0.9782 -1.4457 -2.7307
  409MOL0     H56422  11.104   5.198   9.526 -3.8328  3.0842  1.7650
  409MOL0     H56423  11.129   4.997   9.348 -1.1810 -2.2995 -0.5539
  409MOL0     H56424  10.892   4.596   9.230 -2.2129 -1.3995  1.2705
  409MOL0     H56425  10.919   4.390   9.104  0.2034  0.0473  0.1749
  409MOL0     H56426  10.072   4.371  10.040  1.0534  0.2331 -0.1744
  409MOL0     H56427   9.926   4.503  10.216  2.4281  0.5664  1.5276
  409MOL0     H56428   9.879   4.827  10.503  0.6487  1.0955 -2.2482
  409MOL0     H56429   9.798   4.939  10.683 -1.1707 -3.0273 -1.0976
  409MOL0     H56430   9.792   5.349  10.619 -0.2571  2.2945 -1.5569
  409MOL0     H56431   9.610   5.352  10.636  1.5572  0.0124 -0.8691
  409MOL0     H56432   9.603   5.379  10.852 -0.9959 -0.0777  0.1508
  409MOL0     H56433   9.692   5.503  10.779  3.0815  0.4570 -0.2374
  409MOL0     H56434   9.793   5.406  10.999 -0.9826 -0.8230 -0.4563
  409MOL0     H56435   9.853   5.281  10.884  3.7073  0.2265 -1.3399
  409MOL0     H56436   9.911   5.576  10.875  0.0158 -1.4815  2.7807
  409MOL0     H56437   9.938   5.463  10.740  2.8443 -1.9159  0.6749
  409MOL0     H56438  10.281   5.413  10.975  0.8157  3.2291 -1.6752
  409MOL0     H56439   9.643   5.245  10.434 -1.2244 -1.2220 -1.4931
  409MOL0     H56440   9.665   5.245  10.216  0.7135  0.8080  2.1414
  409MOL0     H56441   9.796   5.153  10.152  1.5518 -1.5212  3.0366
  409MOL0     H56442   9.653   5.079  10.136  0.7752 -2.0753  0.5918
  410MOL0     O56443   7.400   2.686   1.714  0.1851  0.2014 -0.7728
  410MOL0     C56444   7.429   2.588   1.643  0.9778 -0.6514 -0.0423
  410MOL0     O56445   7.338   2.515   1.571  0.9449 -0.6463 -0.2379
  410MOL0     C56446   7.210   2.564   1.575 -0.3615  0.6968 -1.1733
  410MOL0     C56447   7.116   2.493   1.649 -0.4788  0.2529 -0.7340
  410MOL0     C56448   6.989   2.526   1.675  0.1664 -0.0575  0.7898
  410MOL0     C56449   6.936   2.633   1.596 -0.5900 -0.4454  0.1258
  410MOL0     O56450   6.802   2.672   1.587  1.2742 -0.5376  0.0604
  410MOL0     C56451   6.712   2.576   1.653  1.4304 -0.2578  0.0013
  410MOL0     C56452   6.564   2.624   1.646  0.5225  1.0297 -0.0033
  410MOL0     C56453   6.527   2.725   1.758  0.7059  0.8820 -1.5578
  410MOL0     C56454   6.384   2.762   1.748 -0.0029 -0.0526 -0.9630
  410MOL0     C56455   6.377   2.884   1.649 -0.3862  0.1182  0.1525
  410MOL0     C56456   6.235   2.938   1.627 -1.1753  1.3524 -0.2481
  410MOL0     C56457   6.235   3.059   1.534  0.1722 -0.4335  1.1103
  410MOL0     C56458   6.097   3.090   1.481  0.4410  0.3458 -0.3181
  410MOL0     N56459   6.084   3.230   1.432 -1.2720  0.2151 -0.1348
  410MOL0     C56460   6.086   3.344   1.505 -0.3764 -0.1850 -0.2172
  410MOL0     C56461   6.048   3.435   1.403 -0.0726 -0.0973 -0.0564
  410MOL0     C56462   6.026   3.582   1.418  0.4823 -0.1772  0.1832
  410MOL0     C56463   6.160   3.661   1.400  0.2079 -0.4005 -1.2011
  410MOL0     C56464   6.217   3.668   1.263  0.3657  0.9579  0.4701
  410MOL0     C56465   6.131   3.746   1.156  0.1295 -0.4554  0.4365
  410MOL0     O56466   6.122   3.886   1.188  0.2384 -1.0491 -0.5339
  410MOL0     C56467   6.008   3.957   1.191  0.3314  0.7880 -0.1491
  410MOL0     C56468   5.948   3.964   1.315  0.1368 -0.1934  0.2661
  410MOL0     C56469   5.825   4.029   1.340  0.6964  0.7134 -0.6960
  410MOL0     C56470   5.785   4.039   1.486 -0.9585  0.3570 -0.4506
  410MOL0     C56471   5.755   4.089   1.236  0.2036 -0.1973 -0.6506
  410MOL0     C56472   5.621   4.154   1.244  0.1593  0.2857 -0.1631
  410MOL0     O56473   5.571   4.239   1.143  0.3669  0.4441 -0.3815
  410MOL0     C56474   5.444   4.270   1.156 -0.4204  0.0952  0.6829
  410MOL0     C56475   5.395   4.374   1.236 -0.7486 -0.1441  0.6957
  410MOL0     C56476   5.261   4.405   1.236 -0.4855 -0.6502  0.0257
  410MOL0     C56477   5.164   4.343   1.159 -0.7909 -0.0875 -0.6593
  410MOL0     O56478   5.032   4.394   1.169  0.2312  0.5635  0.2802
  410MOL0     C56479   4.949   4.384   1.056  0.6952  0.3688 -0.1376
  410MOL0     C56480   4.808   4.406   1.123 -0.5868 -0.0966  0.2865
  410MOL0     C56481   4.760   4.267   1.175  0.4051 -0.3948  0.0499
  410MOL0     C56482   4.620   4.281   1.242 -0.0420  0.1780 -0.2044
  410MOL0     C56483   4.616   4.365   1.377  0.1082 -0.0345 -0.6079
  410MOL0     C56484   4.487   4.345   1.442  1.2429  0.1716 -0.6188
  410MOL0     C56485   4.477   4.392   1.582  0.6814  0.3263 -0.2067
  410MOL0     C56486   4.414   4.527   1.593  0.7828 -0.7443 -0.3042
  410MOL0    Cl56487   4.381   4.552   1.761  0.2500 -0.2002 -0.4732
  410MOL0     C56488   5.208   4.244   1.065 -0.5424 -0.2046 -0.1890
  410MOL0     C56489   5.345   4.214   1.063  0.7900 -0.0095 -0.2809
  410MOL0     O56490   5.548   4.099   1.328 -0.3177  0.0056  0.6907
  410MOL0     C56491   5.822   4.096   1.106  0.0229 -0.5369 -0.9644
  410MOL0     C56492   5.950   4.042   1.092  0.0912  0.4014  0.2108
  410MOL0     N56493   6.022   3.365   1.280 -0.9147 -0.4555 -0.0074
  410MOL0     N56494   6.045   3.249   1.303 -0.0991  0.8576 -0.3898
  410MOL0     C56495   7.028   2.711   1.530 -0.0576 -0.0292 -0.4729
  410MOL0     C56496   7.168   2.685   1.516  0.0618  1.0161 -0.7804
  410MOL0     C56497   7.573   2.540   1.630  0.0692  0.4877 -0.0561
  410MOL0     C56498   7.599   2.424   1.553  0.2830 -0.1747 -0.4821
  410MOL0     C56499   7.718   2.361   1.574 -0.3026  0.5722  0.0044
  410MOL0     C56500   7.826   2.417   1.643  0.5832  0.3933 -0.0660
  410MOL0     O56501   7.955   2.370   1.647  0.0847  0.7039 -1.1450
  410MOL0     C56502   7.990   2.237   1.600 -0.5294  0.3429 -0.0921
  410MOL0     C56503   8.131   2.217   1.544  0.2453 -0.2798 -0.2629
  410MOL0     C56504   8.162   2.066   1.541 -0.1388 -1.3775  0.4383
  410MOL0     C56505   8.064   1.980   1.455  0.1367  0.6974 -0.0116
  410MOL0     C56506   8.053   2.041   1.316 -0.7563 -0.2578  0.3998
  410MOL0     C56507   8.053   2.103   1.211  0.0654 -0.3210  0.6294
  410MOL0     C56508   7.802   2.533   1.715  0.0137 -0.1365 -0.1908
  410MOL0     C56509   7.674   2.595   1.714 -0.3125  1.1301  0.3283
  410MOL0     C56510   7.664   2.718   1.807 -0.0536  0.5942  0.3552
  410MOL0     H56511   7.152   2.397   1.684 -0.4194  0.3124 -0.6303
  410MOL0     H56512   6.922   2.455   1.721  0.5607 -1.0269 -0.0889
  410MOL0     H56513   6.734   2.547   1.756  1.1602 -0.0173  0.1300
  410MOL0     H56514   6.705   2.487   1.590 -2.1716 -1.8649  2.3263
  410MOL0     H56515   6.561   2.682   1.553 -1.0744  0.1103 -0.5564
  410MOL0     H56516   6.489   2.545   1.638  1.5459  0.0562 -0.1813
  410MOL0     H56517   6.556   2.682   1.855 -0.3169 -0.5254 -1.8447
  410MOL0     H56518   6.589   2.811   1.732  1.1660  0.2701 -2.5351
  410MOL0     H56519   6.328   2.674   1.713  2.0997 -2.1478  0.6249
  410MOL0     H56520   6.346   2.790   1.846 -0.3057 -0.1380 -1.0556
  410MOL0     H56521   6.417   2.857   1.551  1.0374 -3.8150  1.6302
  410MOL0     H56522   6.425   2.969   1.699  3.2416 -1.1766 -0.8454
  410MOL0     H56523   6.176   2.867   1.567 -0.6439  3.3471 -3.3936
  410MOL0     H56524   6.193   2.959   1.725  3.5598  4.8103  1.3967
  410MOL0     H56525   6.314   3.041   1.461 -1.0375 -2.5822  0.2614
  410MOL0     H56526   6.283   3.142   1.588 -0.4240  0.9294 -0.3773
  410MOL0     H56527   6.065   3.020   1.404 -1.0328  0.2482  0.3306
  410MOL0     H56528   6.031   3.070   1.567  0.5263 -0.2222 -0.3805
  410MOL0     H56529   6.109   3.358   1.610  0.0779  1.2669 -0.4845
  410MOL0     H56530   5.989   3.623   1.512 -0.9188  0.6094 -0.6846
  410MOL0     H56531   5.949   3.616   1.349 -3.2549 -1.1832  3.4969
  410MOL0     H56532   6.136   3.760   1.442  0.1650 -0.7617 -0.3560
  410MOL0     H56533   6.234   3.619   1.469 -0.5517 -2.0119 -1.3224
  410MOL0     H56534   6.312   3.722   1.269 -0.2154  2.3895 -1.9730
  410MOL0     H56535   6.246   3.566   1.236 -3.4514 -1.3747  3.9272
  410MOL0     H56536   6.187   3.737   1.062  0.4014 -0.9633  0.6459
  410MOL0     H56537   6.031   3.703   1.151 -0.5822  1.1963 -0.4527
  410MOL0     H56538   5.997   3.919   1.401 -2.8538  0.8935  2.7476
  410MOL0     H56539   5.758   4.144   1.502  0.6879  0.3459  3.5991
  410MOL0     H56540   5.857   4.018   1.565 -1.8311  3.2145  1.2640
  410MOL0     H56541   5.699   3.974   1.506  0.6034 -0.9129  3.0154
  410MOL0     H56542   5.467   4.438   1.285 -0.7858 -0.6870  1.4695
  410MOL0     H56543   5.217   4.480   1.301 -1.1477  0.6706 -1.8400
  410MOL0     H56544   4.967   4.454   0.973 -2.8578 -0.1823 -1.5344
  410MOL0     H56545   4.938   4.284   1.012 -3.3957  0.5470  0.0963
  410MOL0     H56546   4.818   4.493   1.189  0.0671  0.4436 -0.4988
  410MOL0     H56547   4.733   4.415   1.044 -1.6613  1.5016  1.4412
  410MOL0     H56548   4.827   4.213   1.243 -1.0025  1.0291  2.7270
  410MOL0     H56549   4.751   4.205   1.085 -0.4389  1.1388 -0.9542
  410MOL0     H56550   4.591   4.178   1.264 -0.9589  0.8581  1.9661
  410MOL0     H56551   4.551   4.335   1.177  0.2509  2.6786  1.4300
  410MOL0     H56552   4.700   4.326   1.435  0.8642  1.2640 -0.7826
  410MOL0     H56553   4.627   4.471   1.353 -3.3579  0.1361 -2.0442
  410MOL0     H56554   4.462   4.239   1.430 -1.3669  0.8035 -1.5848
  410MOL0     H56555   4.423   4.402   1.374  0.0869 -1.9690 -1.4533
  410MOL0     H56556   4.577   4.411   1.624  0.7097  1.9530 -0.9012
  410MOL0     H56557   4.419   4.324   1.645  0.3342  0.3415 -0.5139
  410MOL0     H56558   4.313   4.524   1.550 -0.7415  2.0973  2.6106
  410MOL0     H56559   4.461   4.609   1.538 -3.4766  0.8254 -2.0239
  410MOL0     H56560   5.126   4.200   1.009 -3.1891  1.4387  2.1470
  410MOL0     H56561   5.373   4.146   0.984  2.9005  0.0223  0.3973
  410MOL0     H56562   5.768   4.143   1.025  1.5893  2.4385 -0.4090
  410MOL0     H56563   6.007   4.054   1.001  3.2461 -0.9512  1.8654
  410MOL0     H56564   7.001   2.807   1.487 -3.2136  0.9702  3.1376
  410MOL0     H56565   7.252   2.737   1.471 -1.6472  2.5365 -2.3859
  410MOL0     H56566   7.533   2.380   1.479  0.9861 -1.2516 -0.4976
  410MOL0     H56567   7.726   2.275   1.508 -0.7107  1.0962 -0.7283
  410MOL0     H56568   7.968   2.171   1.685 -0.2479 -1.0219 -1.0495
  410MOL0     H56569   7.914   2.203   1.529 -2.7055  0.3958  2.0766
  410MOL0     H56570   8.202   2.269   1.608  0.4308  0.0213 -0.7088
  410MOL0     H56571   8.138   2.263   1.445 -0.8251 -0.4157 -0.4226
  410MOL0     H56572   8.266   2.051   1.509  0.1691 -1.6677  1.5039
  410MOL0     H56573   8.161   2.028   1.644 -1.7096  0.1691  1.0367
  410MOL0     H56574   7.971   1.985   1.513  0.9968 -1.0223  1.6304
  410MOL0     H56575   8.084   1.873   1.453 -2.7960  0.0920 -1.2466
  410MOL0     H56576   8.063   2.150   1.115 -1.6531 -1.4483 -0.1560
  410MOL0     H56577   7.882   2.577   1.773  1.3855  0.0370 -2.1256
  410MOL0     H56578   7.602   2.691   1.894 -3.3011  0.2061 -1.9100
  410MOL0     H56579   7.762   2.749   1.844 -0.4283  0.0019  1.9341
  410MOL0     H56580   7.631   2.802   1.746  2.1727 -1.4438 -4.1516
  411MOL0     O56581   7.426   6.784  11.113  0.7941  0.2720 -0.2427
  411MOL0     C56582   7.387   6.677  11.157  0.0319  0.4924  0.6350
  411MOL0     O56583   7.265   6.651  11.226  0.4172  1.4242  0.4588
  411MOL0     C56584   7.161   6.743  11.242 -1.2113  0.3722 -0.4336
  411MOL0     C56585   7.042   6.685  11.285  0.3592 -0.3025 -0.1788
  411MOL0     C56586   6.924   6.762  11.288 -1.0495 -0.5271  0.1070
  411MOL0     C56587   6.932   6.898  11.255  0.1526 -0.5137 -0.1213
  411MOL0     O56588   6.809   6.965  11.256  0.1223  0.6790  0.1358
  411MOL0     C56589   6.818   7.105  11.293 -0.2270  0.0599  0.4541
  411MOL0     C56590   6.688   7.148  11.363 -0.4796 -0.4876  0.7993
  411MOL0     C56591   6.658   7.301  11.380  0.3399  0.3802  0.8685
  411MOL0     C56592   6.537   7.336  11.458 -0.6101 -0.8268  0.0247
  411MOL0     C56593   6.526   7.481  11.477  0.4828 -1.1111 -0.2806
  411MOL0     C56594   6.388   7.517  11.540  0.1300  1.2262 -0.3630
  411MOL0     C56595   6.368   7.670  11.529  0.1153  0.8364 -0.1051
  411MOL0     C56596   6.437   7.765  11.643 -0.3954 -0.7908 -0.5080
  411MOL0     N56597   6.357   7.774  11.768 -0.8552  0.2384 -0.1206
  411MOL0     C56598   6.236   7.845  11.767 -0.1299 -0.2069 -1.1917
  411MOL0     C56599   6.169   7.789  11.870  0.2229  0.1808 -0.1772
  411MOL0     C56600   6.032   7.835  11.926 -0.3727  0.7483 -0.0118
  411MOL0     C56601   6.019   7.911  12.058 -0.8287  0.2059  0.3730
  411MOL0     C56602   5.896   7.998  12.051 -0.7515  0.6544 -0.1508
  411MOL0     C56603   5.890   8.062  12.190  0.6355  1.4431  0.5181
  411MOL0     O56604   6.002   8.146  12.217 -0.0576 -0.6780  0.5690
  411MOL0     C56605   6.020   8.226  12.329 -0.1942 -0.0240 -0.4039
  411MOL0     C56606   6.119   8.322  12.334 -0.1314  0.1661  0.1301
  411MOL0     C56607   6.152   8.404  12.438 -0.0713 -0.2675  0.4194
  411MOL0     C56608   6.247   8.517  12.406 -1.1655 -0.6783  0.1287
  411MOL0     C56609   6.074   8.393  12.556 -0.8127 -0.0989 -1.1370
  411MOL0     C56610   6.087   8.474  12.685  0.9132 -0.5630  1.2132
  411MOL0     O56611   5.997   8.441  12.790  0.2776  0.0242 -0.0719
  411MOL0     C56612   6.015   8.493  12.921 -0.1012  0.0325  0.0737
  411MOL0     C56613   6.130   8.553  12.983 -1.7693  0.0622  0.2236
  411MOL0     C56614   6.124   8.614  13.110  0.5546  0.3889  0.0472
  411MOL0     C56615   5.999   8.604  13.175 -0.4510  0.0534  0.4910
  411MOL0     O56616   5.985   8.660  13.299 -0.7225 -0.5842 -0.3496
  411MOL0     C56617   6.024   8.794  13.324  0.2954 -0.4218  0.0246
  411MOL0     C56618   6.125   8.805  13.433  0.2552  0.0819  0.1113
  411MOL0     C56619   6.080   8.756  13.567  0.1812 -0.0791  0.0044
  411MOL0     C56620   6.171   8.804  13.679  0.0903  0.4708 -0.2550
  411MOL0     C56621   6.107   8.780  13.824 -0.1917  0.0223 -0.0969
  411MOL0     C56622   5.988   8.864  13.862 -0.9538 -0.3904 -0.3782
  411MOL0     C56623   6.022   9.016  13.887 -0.3415  1.0762 -0.3360
  411MOL0     C56624   5.909   9.114  13.899 -0.2359  0.0760 -0.3108
  411MOL0    Cl56625   5.778   9.036  13.985  0.0828 -0.3734 -0.0313
  411MOL0     C56626   5.890   8.539  13.115 -0.2343  0.4190  0.9253
  411MOL0     C56627   5.898   8.482  12.989  0.1319  0.0218 -0.2141
  411MOL0     O56628   6.179   8.555  12.694 -0.1199 -0.4129 -1.0653
  411MOL0     C56629   5.971   8.299  12.556 -0.1204 -0.6003  1.0568
  411MOL0     C56630   5.941   8.225  12.444  0.5722  1.2454 -0.1841
  411MOL0     N56631   6.229   7.683  11.927 -0.5444 -0.4523 -0.7545
  411MOL0     N56632   6.343   7.675  11.866  0.6333 -0.2003 -0.1485
  411MOL0     C56633   7.050   6.959  11.201 -0.8291  0.6012 -0.0126
  411MOL0     C56634   7.167   6.881  11.211  0.2072  0.3443  0.6169
  411MOL0     C56635   7.475   6.554  11.136  0.4447  0.3505  0.9390
  411MOL0     C56636   7.494   6.461  11.236  1.1042  1.1726  0.1873
  411MOL0     C56637   7.593   6.363  11.235  0.5150  0.9647 -0.6403
  411MOL0     C56638   7.673   6.364  11.120  0.2254  0.1555  0.3189
  411MOL0     O56639   7.774   6.275  11.107 -0.0227  0.1641  0.1604
  411MOL0     C56640   7.722   6.157  11.046 -0.2048  0.7700  0.5464
  411MOL0     C56641   7.804   6.050  11.119 -0.3225  1.2741  0.6948
  411MOL0     C56642   7.784   5.917  11.048  1.0760  0.2610  0.8543
  411MOL0     C56643   7.865   5.800  11.112 -0.5241  0.4789  0.5606
  411MOL0     C56644   7.989   5.787  11.030  0.6723  0.9619  1.2624
  411MOL0     C56645   8.069   5.759  10.942 -0.3534  0.4490  0.8334
  411MOL0     C56646   7.649   6.445  11.009 -1.1841 -0.2626  0.2309
  411MOL0     C56647   7.545   6.538  11.017  1.2333  0.2256  1.0054
  411MOL0     C56648   7.523   6.620  10.890  0.5659  0.2459  0.0219
  411MOL0     H56649   7.024   6.580  11.306 -2.2587  0.0368 -0.4318
  411MOL0     H56650   6.830   6.712  11.305 -2.7038  2.2024 -0.3761
  411MOL0     H56651   6.821   7.153  11.195 -3.7811  1.6773  0.9806
  411MOL0     H56652   6.903   7.135  11.355  0.0318 -0.0516  0.1552
  411MOL0     H56653   6.620   7.105  11.289  1.0478 -1.5966 -0.0110
  411MOL0     H56654   6.677   7.101  11.461  0.1850 -1.8274  0.2517
  411MOL0     H56655   6.745   7.343  11.431  0.9901 -1.5696  1.4580
  411MOL0     H56656   6.645   7.344  11.280  3.0076 -2.5042 -0.9118
  411MOL0     H56657   6.456   7.304  11.390 -0.3255  3.4890 -2.7132
  411MOL0     H56658   6.535   7.281  11.553 -1.5124 -1.5234 -0.3719
  411MOL0     H56659   6.540   7.539  11.385  0.4878 -2.0229 -0.8640
  411MOL0     H56660   6.611   7.526  11.531  0.2744  0.5698 -1.2883
  411MOL0     H56661   6.306   7.460  11.495 -0.3689  1.5843  0.0756
  411MOL0     H56662   6.383   7.490  11.646  0.8374  0.6797 -0.4627
  411MOL0     H56663   6.261   7.694  11.525  0.3077  1.5549 -2.7612
  411MOL0     H56664   6.408   7.699  11.431 -0.7756  0.2785 -0.6413
  411MOL0     H56665   6.538   7.736  11.672  0.7545  2.1226 -1.2322
  411MOL0     H56666   6.457   7.864  11.601  1.6132 -1.5776 -1.5366
  411MOL0     H56667   6.215   7.933  11.708  0.5247  0.2944 -0.6909
  411MOL0     H56668   5.956   7.757  11.918  2.0860 -1.6481 -1.9885
  411MOL0     H56669   5.993   7.908  11.854 -1.5874 -0.1991 -0.3468
  411MOL0     H56670   6.031   7.836  12.136 -0.3051 -1.9089 -1.6167
  411MOL0     H56671   6.109   7.974  12.053  0.2070 -1.3210 -1.4487
  411MOL0     H56672   5.904   8.073  11.972 -0.8143 -1.1091 -1.9000
  411MOL0     H56673   5.808   7.936  12.031  0.8546 -1.3092 -1.5531
  411MOL0     H56674   5.800   8.125  12.191 -0.6739 -0.3674  0.7530
  411MOL0     H56675   5.876   7.982  12.263  1.4982 -0.9085 -1.7491
  411MOL0     H56676   6.174   8.329  12.241  0.8635  0.5120  0.7436
  411MOL0     H56677   6.266   8.601  12.472 -2.3941 -1.5391  1.6287
  411MOL0     H56678   6.216   8.566  12.313  0.4643 -1.4938 -0.9062
  411MOL0     H56679   6.347   8.471  12.397 -0.2979  1.0972  0.3488
  411MOL0     H56680   6.219   8.558  12.922 -3.4682 -0.0234 -2.3923
  411MOL0     H56681   6.199   8.680  13.153  0.9062 -0.8303  1.4204
  411MOL0     H56682   6.067   8.847  13.239  1.8516  0.7980  1.4914
  411MOL0     H56683   5.935   8.854  13.349  1.2273  1.1517 -0.2801
  411MOL0     H56684   6.219   8.761  13.400  2.3313  3.9840  0.2665
  411MOL0     H56685   6.144   8.912  13.420 -1.7479  0.4224 -0.4525
  411MOL0     H56686   6.089   8.647  13.558  1.8694 -0.1887  2.2976
  411MOL0     H56687   5.982   8.789  13.602  0.9622  0.9983  1.2599
  411MOL0     H56688   6.191   8.909  13.656 -1.8575  1.1625  0.9343
  411MOL0     H56689   6.259   8.741  13.667  0.2205 -0.4525  3.8659
  411MOL0     H56690   6.074   8.676  13.831 -0.4462  0.2060  1.8644
  411MOL0     H56691   6.185   8.783  13.901 -2.0766  1.8905  1.8657
  411MOL0     H56692   5.953   8.806  13.949  0.8337  0.2139  0.8082
  411MOL0     H56693   5.901   8.864  13.796 -0.8745  0.5367 -0.4871
  411MOL0     H56694   6.078   9.062  13.804 -0.8911 -0.7399 -1.7859
  411MOL0     H56695   6.078   9.023  13.980 -0.6544 -0.0479 -0.0586
  411MOL0     H56696   5.873   9.136  13.798  0.6423  2.7645 -0.1122
  411MOL0     H56697   5.932   9.209  13.948 -0.9530  0.5336 -0.8458
  411MOL0     H56698   5.798   8.521  13.170 -2.6620  0.2112 -2.8236
  411MOL0     H56699   5.818   8.420  12.948  2.4410 -0.9263 -3.7655
  411MOL0     H56700   5.898   8.287  12.635 -3.9025  2.4659 -1.6056
  411MOL0     H56701   5.854   8.161  12.457  0.6178  0.7858 -1.8858
  411MOL0     H56702   7.074   7.061  11.175 -0.8045  1.0437  1.6370
  411MOL0     H56703   7.261   6.930  11.191  1.7668 -2.3070  0.9837
  411MOL0     H56704   7.431   6.461  11.324 -3.0623  4.4297 -2.3731
  411MOL0     H56705   7.605   6.299  11.322 -2.4681  1.8958  0.5739
  411MOL0     H56706   7.618   6.134  11.068  0.3326 -1.6902  0.7597
  411MOL0     H56707   7.744   6.152  10.939 -2.5387  1.3243 -0.0166
  411MOL0     H56708   7.765   6.037  11.221 -1.5215 -1.0191  0.0178
  411MOL0     H56709   7.911   6.069  11.113 -0.0358 -0.4041  0.1421
  411MOL0     H56710   7.680   5.884  11.051  1.8390 -2.3311  1.2158
  411MOL0     H56711   7.803   5.929  10.941 -2.9823 -3.1212 -0.5229
  411MOL0     H56712   7.800   5.712  11.108 -1.1349  0.9595 -0.8067
  411MOL0     H56713   7.889   5.819  11.217 -2.3626  2.6512  0.6868
  411MOL0     H56714   8.139   5.740  10.863 -0.8471 -0.0382  0.5040
  411MOL0     H56715   7.709   6.427  10.920 -2.1324  1.5189 -0.8259
  411MOL0     H56716   7.561   6.722  10.906 -2.8654  1.4608  1.2190
  411MOL0     H56717   7.556   6.575  10.796  0.4315  0.4468 -0.1228
  411MOL0     H56718   7.420   6.655  10.884  1.3849  3.7926  2.8093
  412MOL0     O56719  10.424   0.216   3.478 -0.3958  1.0989  0.4267
  412MOL0     C56720  10.340   0.274   3.531 -0.7741 -0.4999 -0.5005
  412MOL0     O56721  10.358   0.379   3.615 -0.0000 -0.3895  0.2831
  412MOL0     C56722  10.484   0.433   3.631  0.0941  0.3735  0.1975
  412MOL0     C56723  10.536   0.486   3.509  0.0757 -0.3016 -1.0017
  412MOL0     C56724  10.662   0.539   3.517  0.6454 -0.4836  0.0164
  412MOL0     C56725  10.720   0.557   3.647 -0.2167 -0.2300 -0.0703
  412MOL0     O56726  10.846   0.615   3.642 -0.1187 -0.1538  0.7699
  412MOL0     C56727  10.930   0.644   3.748 -1.1043  0.4894 -1.2206
  412MOL0     C56728  11.036   0.740   3.691 -0.9906 -0.3630  0.3668
  412MOL0     C56729  11.110   0.682   3.579  0.0886  0.3008  0.3695
  412MOL0     C56730  11.206   0.571   3.613  0.7253 -0.4734 -0.2969
  412MOL0     C56731  11.261   0.502   3.486 -0.3955 -0.0679 -0.3721
  412MOL0     C56732  11.404   0.439   3.517  0.6866  0.5632  0.4159
  412MOL0     C56733  11.460   0.372   3.400 -0.2661  0.3966  0.9946
  412MOL0     C56734  11.512   0.474   3.293  1.1770  0.1899 -1.2404
  412MOL0     N56735  11.530   0.393   3.167  0.1428  0.1259 -0.6068
  412MOL0     C56736  11.431   0.354   3.087  0.7670  0.0255 -1.0698
  412MOL0     C56737  11.489   0.323   2.968 -0.3142 -0.5470  0.8954
  412MOL0     C56738  11.410   0.270   2.848  0.1004 -1.1667  0.4557
  412MOL0     C56739  11.346   0.388   2.764 -0.0156  0.7485  0.9542
  412MOL0     C56740  11.461   0.491   2.713  0.4722  0.2286 -0.7130
  412MOL0     C56741  11.437   0.530   2.577 -0.1151  0.2502  0.3217
  412MOL0     O56742  11.479   0.668   2.551  0.8121  0.6905 -0.1650
  412MOL0     C56743  11.586   0.709   2.478 -0.3107  0.5578 -0.4352
  412MOL0     C56744  11.615   0.848   2.477 -0.8046  1.4161 -0.4214
  412MOL0     C56745  11.703   0.906   2.390  0.0979  0.4678 -0.8004
  412MOL0     C56746  11.720   1.058   2.388 -0.2578 -0.3067  0.5221
  412MOL0     C56747  11.770   0.828   2.293  0.0021  0.9556  0.0014
  412MOL0     C56748  11.866   0.877   2.191  0.1281  0.4576  0.8091
  412MOL0     O56749  11.983   0.801   2.193  0.7809 -0.0029  0.1687
  412MOL0     C56750  12.076   0.826   2.096  0.4945 -0.0310 -0.4341
  412MOL0     C56751  12.091   0.739   1.995  0.7133 -0.2551  0.5678
  412MOL0     C56752  12.178   0.769   1.882 -0.6969  0.1682 -0.7153
  412MOL0     C56753  12.255   0.889   1.885  0.4904  0.1023 -0.2647
  412MOL0     O56754  12.328   0.914   1.774 -0.4701 -0.9201 -0.9892
  412MOL0     C56755  12.449   0.995   1.782  0.0430 -0.2531 -0.0318
  412MOL0     C56756  12.538   0.933   1.894 -0.3680 -0.0256 -0.1323
  412MOL0     C56757  12.669   1.022   1.909  0.3005  0.1215 -0.8835
  412MOL0     C56758  12.728   0.972   2.047  0.0287  0.0769 -0.0599
  412MOL0     C56759  12.875   1.025   2.067 -1.3669  0.2010  0.0346
  412MOL0     C56760  12.879   1.165   2.110  0.1916  0.0259 -0.1945
  412MOL0     C56761  13.029   1.208   2.120 -0.2582 -0.2863  0.1827
  412MOL0     C56762  13.102   1.222   1.988  0.4097 -0.2205  0.0213
  412MOL0    Cl56763  13.027   1.329   1.876  0.0882 -0.0592 -0.0262
  412MOL0     C56764  12.233   0.986   1.986  1.0568  0.2359  0.0106
  412MOL0     C56765  12.152   0.948   2.089  0.1559 -0.1506 -0.0789
  412MOL0     O56766  11.852   0.977   2.125  0.0444 -0.6538 -0.0475
  412MOL0     C56767  11.741   0.687   2.289  0.1623 -0.0456 -0.5356
  412MOL0     C56768  11.653   0.633   2.383  0.6991  0.5041 -0.2882
  412MOL0     N56769  11.622   0.346   2.982 -0.1162 -0.0880  0.4312
  412MOL0     N56770  11.648   0.377   3.100  0.5046 -0.1423 -0.3206
  412MOL0     C56771  10.659   0.512   3.761 -0.2919  0.0876  0.5361
  412MOL0     C56772  10.543   0.448   3.755  0.1564  0.8262  0.2800
  412MOL0     C56773  10.201   0.219   3.540 -0.8648 -1.3236  0.4618
  412MOL0     C56774  10.127   0.249   3.655 -0.0072  0.2856  0.0024
  412MOL0     C56775   9.991   0.210   3.666 -0.3204  0.0484  0.0505
  412MOL0     C56776   9.932   0.143   3.557  0.8720  0.1235 -0.8088
  412MOL0     O56777   9.802   0.104   3.561  0.2682  0.5001 -0.8658
  412MOL0     C56778   9.710   0.182   3.613  0.6138  0.1443 -0.4451
  412MOL0     C56779   9.607   0.079   3.668  0.5140  0.3328  0.0530
  412MOL0     C56780   9.637   0.034   3.811 -1.0557  0.1276 -0.0199
  412MOL0     C56781   9.708  -0.102   3.815 -0.3120  0.0869  0.4616
  412MOL0     C56782   9.757  -0.147   3.944 -0.4761  0.8215  0.2103
  412MOL0     C56783   9.806  -0.186   4.049  0.3809  1.0731 -0.6160
  412MOL0     C56784  10.010   0.112   3.445 -0.4969  0.1331  0.0667
  412MOL0     C56785  10.139   0.155   3.431  1.1743  0.6328 -0.8731
  412MOL0     C56786  10.207   0.134   3.300 -0.1908 -0.4496 -0.3344
  412MOL0     H56787  10.484   0.472   3.415 -0.9985 -0.4094 -0.4061
  412MOL0     H56788  10.712   0.578   3.429  4.7931 -1.0064  1.9220
  412MOL0     H56789  10.988   0.555   3.774  0.0411  0.9020 -2.2469
  412MOL0     H56790  10.880   0.686   3.835  0.3261 -1.8582  0.8592
  412MOL0     H56791  10.991   0.837   3.668 -1.1850 -0.2801  1.0736
  412MOL0     H56792  11.104   0.775   3.769  0.2314  1.8122 -1.5500
  412MOL0     H56793  11.046   0.635   3.504  1.0294  1.3463 -1.1459
  412MOL0     H56794  11.168   0.763   3.535  0.1903  1.3754  2.3721
  412MOL0     H56795  11.281   0.612   3.681 -0.2971  1.7385 -0.4051
  412MOL0     H56796  11.156   0.493   3.670 -0.2825  1.6712  1.8988
  412MOL0     H56797  11.275   0.571   3.403 -2.4920 -0.2315 -0.9285
  412MOL0     H56798  11.192   0.422   3.458 -1.5085 -0.8121  3.8226
  412MOL0     H56799  11.478   0.511   3.552  3.7829 -1.4396 -1.4565
  412MOL0     H56800  11.394   0.362   3.594 -1.9537 -1.4208 -1.7035
  412MOL0     H56801  11.390   0.298   3.358  3.2044 -2.2700 -0.6599
  412MOL0     H56802  11.550   0.320   3.434  0.9457  2.4379  1.0868
  412MOL0     H56803  11.433   0.549   3.281 -1.6931 -2.0312  1.9818
  412MOL0     H56804  11.610   0.516   3.319  2.8449 -2.9654 -1.8978
  412MOL0     H56805  11.328   0.332   3.110  1.5902 -1.8297  1.2409
  412MOL0     H56806  11.332   0.195   2.864 -2.2677  1.0063 -0.2742
  412MOL0     H56807  11.485   0.217   2.787  2.3918  0.8991  1.3135
  412MOL0     H56808  11.302   0.346   2.673  2.7914 -1.6421  0.5564
  412MOL0     H56809  11.267   0.438   2.821 -0.2069  1.4096  0.1453
  412MOL0     H56810  11.453   0.569   2.789  2.2207  1.7796 -2.0027
  412MOL0     H56811  11.562   0.450   2.723 -0.3344 -2.3689 -2.1964
  412MOL0     H56812  11.477   0.452   2.512  1.4909  1.4068 -0.1217
  412MOL0     H56813  11.329   0.533   2.557 -0.2993 -0.7244  1.0901
  412MOL0     H56814  11.566   0.915   2.547 -0.5559  1.2299 -0.0677
  412MOL0     H56815  11.634   1.109   2.431  1.4696  1.7620  1.7300
  412MOL0     H56816  11.741   1.110   2.294  1.0858  2.2546  2.1109
  412MOL0     H56817  11.804   1.087   2.452  0.0630  0.9633 -0.4403
  412MOL0     H56818  12.030   0.649   1.986  0.7919 -0.3973  1.3989
  412MOL0     H56819  12.192   0.707   1.794  2.1482 -0.2240 -0.0790
  412MOL0     H56820  12.501   0.981   1.687  0.9959  2.4789 -0.0164
  412MOL0     H56821  12.423   1.100   1.801 -1.5246 -0.6627  0.2060
  412MOL0     H56822  12.486   0.918   1.989  1.5715 -2.0211  0.7125
  412MOL0     H56823  12.570   0.834   1.859 -2.0334 -0.3856 -0.7020
  412MOL0     H56824  12.640   1.127   1.901  0.0692  0.6174  3.7855
  412MOL0     H56825  12.733   0.979   1.831 -0.2903 -2.6239  0.0308
  412MOL0     H56826  12.722   0.863   2.053  0.4883  0.0993  1.0678
  412MOL0     H56827  12.668   1.008   2.131  2.2467 -1.9621  2.5821
  412MOL0     H56828  12.923   0.969   2.148  0.7931  2.2000  0.2674
  412MOL0     H56829  12.933   1.013   1.975 -0.2708  0.8867  0.6093
  412MOL0     H56830  12.837   1.166   2.211  0.7051  1.8862  0.0353
  412MOL0     H56831  12.827   1.237   2.047  0.4448 -0.6164 -1.1720
  412MOL0     H56832  13.098   1.148   2.180  0.6812  2.7946  2.4535
  412MOL0     H56833  13.040   1.301   2.176  0.1768 -0.1118 -0.1845
  412MOL0     H56834  13.122   1.126   1.939 -1.1764  0.4280 -2.0799
  412MOL0     H56835  13.206   1.250   2.005  1.2106 -2.5201 -0.7808
  412MOL0     H56836  12.296   1.074   1.987  0.7276  0.4976 -0.8911
  412MOL0     H56837  12.147   1.012   2.177 -1.4728  0.2406 -0.4237
  412MOL0     H56838  11.797   0.622   2.223  0.4501 -2.9655  2.3280
  412MOL0     H56839  11.626   0.528   2.385 -1.6112  1.0273  1.7145
  412MOL0     H56840  10.718   0.526   3.851  0.9798  2.8144 -0.5832
  412MOL0     H56841  10.493   0.412   3.844 -0.2439  2.2079  0.6322
  412MOL0     H56842  10.182   0.295   3.736  1.0582 -0.8248 -0.0631
  412MOL0     H56843   9.938   0.234   3.757 -0.2445 -0.6362  0.2827
  412MOL0     H56844   9.754   0.238   3.696  0.1227 -2.4087  1.6925
  412MOL0     H56845   9.659   0.245   3.540 -1.4655  0.7027  1.3782
  412MOL0     H56846   9.599   0.003   3.591 -2.2399 -0.3117  0.8537
  412MOL0     H56847   9.501   0.106   3.670  0.0072 -1.5545  1.3165
  412MOL0     H56848   9.698   0.100   3.873  2.2013 -3.0466  0.5075
  412MOL0     H56849   9.542   0.018   3.863  0.9293 -0.3878  3.8380
  412MOL0     H56850   9.794  -0.110   3.747  1.2548 -0.4285  2.3913
  412MOL0     H56851   9.633  -0.173   3.779  0.1017 -0.6065  0.9588
  412MOL0     H56852   9.843  -0.207   4.148 -0.3295  2.8885  0.0736
  412MOL0     H56853   9.960   0.057   3.366  0.3492 -0.7708  0.1330
  412MOL0     H56854  10.153   0.086   3.218 -3.5151 -1.2053  2.1087
  412MOL0     H56855  10.207   0.238   3.267 -1.3614  0.1762  1.4762
  412MOL0     H56856  10.306   0.091   3.319 -0.6830 -1.5633 -0.1962
  413MOL0     O56857  10.682   3.950   4.223  0.6696 -0.0999  0.3215
  413MOL0     C56858  10.626   4.044   4.279  0.4334  0.3515  0.9854
  413MOL0     O56859  10.570   4.156   4.215 -0.8944 -0.3459 -0.7366
  413MOL0     C56860  10.497   4.143   4.092 -0.2244 -0.4507 -0.3123
  413MOL0     C56861  10.414   4.258   4.062 -0.5547  0.5265  0.4146
  413MOL0     C56862  10.335   4.271   3.947  0.0789  0.3461 -1.4431
  413MOL0     C56863  10.329   4.159   3.873  0.3932 -0.1401  0.3250
  413MOL0     O56864  10.234   4.171   3.774 -0.3259  0.4225  0.5454
  413MOL0     C56865  10.190   4.055   3.692 -0.3963  0.1191  0.3591
  413MOL0     C56866  10.124   4.106   3.569 -0.7356  0.6999  0.1660
  413MOL0     C56867  10.226   4.169   3.477 -1.0380 -0.5120  1.0513
  413MOL0     C56868  10.148   4.232   3.358 -0.7140  0.6004 -0.1090
  413MOL0     C56869  10.241   4.333   3.290 -0.1952  0.2296  0.5516
  413MOL0     C56870  10.164   4.419   3.195 -0.5360  0.1778  0.2599
  413MOL0     C56871  10.247   4.514   3.109  0.0396  0.0658  0.6706
  413MOL0     C56872  10.305   4.635   3.180 -0.3147  0.2136  1.2447
  413MOL0     N56873  10.324   4.749   3.105  0.0707  0.4963 -0.4364
  413MOL0     C56874  10.242   4.857   3.100  0.1967 -0.1905  0.9104
  413MOL0     C56875  10.293   4.935   3.004 -0.8288  0.1293  0.8364
  413MOL0     C56876  10.229   5.063   2.954 -0.5680  0.4660 -0.4240
  413MOL0     C56877  10.321   5.161   2.878 -0.2173 -0.7357 -0.1419
  413MOL0     C56878  10.448   5.203   2.956  0.0346 -0.2688 -1.6973
  413MOL0     C56879  10.517   5.327   2.904 -0.1523  0.1289  0.9534
  413MOL0     O56880  10.645   5.341   2.959  0.3422 -0.5514 -0.1052
  413MOL0     C56881  10.699   5.468   2.959  1.0697 -0.5245  0.6996
  413MOL0     C56882  10.790   5.497   3.057 -0.0200 -0.0349  0.6741
  413MOL0     C56883  10.840   5.627   3.069 -0.3319  0.2698 -0.5268
  413MOL0     C56884  10.942   5.656   3.182  0.0836  0.2059 -0.0353
  413MOL0     C56885  10.816   5.728   2.976  0.2332  1.5971  0.3435
  413MOL0     C56886  10.851   5.875   2.973  1.0317 -0.7101 -0.3842
  413MOL0     O56887  10.817   5.949   2.857  0.6205  0.5444  0.3077
  413MOL0     C56888  10.822   6.081   2.851  0.0939 -0.1906  0.4915
  413MOL0     C56889  10.725   6.157   2.777 -0.5846 -0.8199 -0.0389
  413MOL0     C56890  10.745   6.293   2.761  0.9742 -0.3177  0.1574
  413MOL0     C56891  10.850   6.362   2.827 -0.8731  0.3128  0.2145
  413MOL0     O56892  10.845   6.492   2.804 -0.0139  0.0759  0.4821
  413MOL0     C56893  10.972   6.557   2.811  0.0354  0.3291 -0.9244
  413MOL0     C56894  10.947   6.694   2.731 -0.4702 -0.6309  0.1976
  413MOL0     C56895  10.872   6.803   2.814  0.7718  0.2381 -0.2342
  413MOL0     C56896  10.831   6.930   2.739 -1.1476 -0.5145  0.6746
  413MOL0     C56897  10.760   7.036   2.818 -0.3078  0.5387 -1.6201
  413MOL0     C56898  10.842   7.069   2.935 -0.5079 -0.3052  0.5137
  413MOL0     C56899  10.796   7.200   2.994  0.5762 -0.1713  0.2194
  413MOL0     C56900  10.677   7.174   3.085 -0.5224 -0.4563  0.4922
  413MOL0    Cl56901  10.738   7.105   3.243 -0.5269  0.0613 -0.1077
  413MOL0     C56902  10.945   6.295   2.896  0.4312 -0.4806  0.0815
  413MOL0     C56903  10.933   6.153   2.898 -0.0617  0.1532 -0.5202
  413MOL0     O56904  10.869   5.927   3.082  0.4152  0.6435  0.1766
  413MOL0     C56905  10.728   5.693   2.865 -0.2025 -0.1077 -0.2835
  413MOL0     C56906  10.662   5.565   2.857  0.1171  0.0645  0.4127
  413MOL0     N56907  10.398   4.871   2.949 -0.2848  0.3890 -0.2145
  413MOL0     N56908  10.418   4.761   3.015 -0.9603 -0.9615  0.0852
  413MOL0     C56909  10.412   4.045   3.895 -0.3870 -0.3592  0.3945
  413MOL0     C56910  10.496   4.031   4.001 -0.3571  0.1829  0.0154
  413MOL0     C56911  10.623   4.046   4.434 -0.1740 -0.0347  0.6008
  413MOL0     C56912  10.520   4.108   4.497  0.5746  0.7509  0.2674
  413MOL0     C56913  10.500   4.106   4.636  0.0573  0.8583 -0.1688
  413MOL0     C56914  10.605   4.060   4.717 -0.2618  0.7447  0.0340
  413MOL0     O56915  10.604   4.090   4.854 -0.6628  0.4186 -0.4340
  413MOL0     C56916  10.727   4.075   4.940  0.8862  0.5536  1.3897
  413MOL0     C56917  10.720   4.148   5.070 -0.1364  0.0123  0.1101
  413MOL0     C56918  10.662   4.062   5.179  0.4481  0.1223 -0.1697
  413MOL0     C56919  10.510   4.063   5.180 -0.3133  0.3545 -0.3966
  413MOL0     C56920  10.451   3.956   5.253 -0.3252 -1.0056  0.3105
  413MOL0     C56921  10.390   3.864   5.310 -0.6731 -0.1702 -0.8027
  413MOL0     C56922  10.708   3.992   4.657 -0.9264  1.1335  0.0979
  413MOL0     C56923  10.725   3.978   4.515 -0.2758 -0.5234 -1.0226
  413MOL0     C56924  10.852   3.910   4.467  0.0824 -0.5720 -0.3982
  413MOL0     H56925  10.412   4.343   4.129  0.4423  0.7316  0.1890
  413MOL0     H56926  10.287   4.366   3.926 -1.7728 -0.2137 -0.0463
  413MOL0     H56927  10.127   3.990   3.753 -0.9508 -0.4130 -0.7459
  413MOL0     H56928  10.281   3.999   3.672  0.1218  0.8802  0.5448
  413MOL0     H56929  10.077   4.018   3.523  0.6505  0.2975 -0.5335
  413MOL0     H56930  10.050   4.181   3.600 -1.4170 -0.5219  1.6291
  413MOL0     H56931  10.280   4.237   3.543  0.4801 -1.1195  0.4908
  413MOL0     H56932  10.298   4.096   3.440  0.9909  2.2487 -0.9109
  413MOL0     H56933  10.091   4.162   3.297 -1.7560  0.2762  1.1880
  413MOL0     H56934  10.065   4.291   3.397  1.4034  1.3045  3.9068
  413MOL0     H56935  10.326   4.282   3.244  1.7375  2.8121  0.9965
  413MOL0     H56936  10.281   4.400   3.367 -2.4923  2.3790  0.0169
  413MOL0     H56937  10.099   4.351   3.139 -0.9220 -0.9496  1.9833
  413MOL0     H56938  10.084   4.479   3.240 -2.1764 -0.3059 -1.8703
  413MOL0     H56939  10.190   4.559   3.027  2.3957  2.5795  0.2745
  413MOL0     H56940  10.313   4.450   3.049  1.6031  0.6275  1.7365
  413MOL0     H56941  10.235   4.667   3.258 -1.1592 -2.6755  1.7937
  413MOL0     H56942  10.400   4.606   3.226  0.7894 -0.2700 -1.1939
  413MOL0     H56943  10.151   4.875   3.156  0.1531  0.8981  0.5260
  413MOL0     H56944  10.178   5.111   3.038 -4.6484  0.4401 -2.6791
  413MOL0     H56945  10.142   5.048   2.891 -2.4528  2.3169  1.5546
  413MOL0     H56946  10.348   5.115   2.783 -1.7157 -2.1477  0.0898
  413MOL0     H56947  10.260   5.242   2.839  0.2121 -0.3767 -0.0865
  413MOL0     H56948  10.418   5.216   3.060 -0.1311 -0.3193 -1.7389
  413MOL0     H56949  10.517   5.119   2.943  0.8446  0.0784  0.1460
  413MOL0     H56950  10.523   5.313   2.796  1.2585  0.3893  0.9796
  413MOL0     H56951  10.458   5.416   2.925  1.4134  1.4065  0.1084
  413MOL0     H56952  10.806   5.424   3.135  0.6951 -0.5256  0.0849
  413MOL0     H56953  10.977   5.562   3.225  2.5148  0.2328 -1.7992
  413MOL0     H56954  10.891   5.713   3.261  0.9464 -1.2968  1.7026
  413MOL0     H56955  11.030   5.711   3.147 -0.3709  0.6459 -0.4979
  413MOL0     H56956  10.638   6.108   2.735 -1.3516  0.4672  0.0168
  413MOL0     H56957  10.673   6.355   2.710  0.2452 -1.4437 -0.2302
  413MOL0     H56958  11.007   6.567   2.914  2.2267  0.9044 -1.6539
  413MOL0     H56959  11.050   6.503   2.757 -0.9950 -0.2027 -1.9199
  413MOL0     H56960  11.046   6.735   2.706 -0.7631  2.5702  3.4909
  413MOL0     H56961  10.892   6.668   2.640  0.1460 -1.1489 -0.0417
  413MOL0     H56962  10.931   6.837   2.899 -0.3165  2.2967 -0.2243
  413MOL0     H56963  10.786   6.746   2.850  0.6227 -0.0817 -1.0824
  413MOL0     H56964  10.777   6.914   2.645 -1.4193  3.2588  0.0157
  413MOL0     H56965  10.929   6.972   2.715  0.0442 -3.8320 -0.7325
  413MOL0     H56966  10.750   7.129   2.762  1.5414  0.7632 -1.6212
  413MOL0     H56967  10.667   6.986   2.847  1.1372 -2.0762 -1.1475
  413MOL0     H56968  10.944   7.096   2.907 -0.3752  0.5470  1.7210
  413MOL0     H56969  10.859   6.991   3.010 -0.8746  1.0939  2.1198
  413MOL0     H56970  10.769   7.278   2.921 -0.6660  0.9437  1.7990
  413MOL0     H56971  10.878   7.245   3.050  2.9791 -1.3158 -2.1433
  413MOL0     H56972  10.621   7.099   3.028  1.1889  1.2513 -3.9267
  413MOL0     H56973  10.619   7.267   3.094 -0.7885 -0.5783  0.0673
  413MOL0     H56974  11.030   6.345   2.942  1.2203 -1.8104  0.1124
  413MOL0     H56975  11.014   6.100   2.946 -0.3572  2.4653  2.9517
  413MOL0     H56976  10.702   5.766   2.789  1.2889 -0.5189 -1.2339
  413MOL0     H56977  10.589   5.557   2.777 -1.6434  0.0396  1.9528
  413MOL0     H56978  10.412   3.957   3.833  1.6777 -1.2842  1.5825
  413MOL0     H56979  10.547   3.936   4.008 -1.9663 -0.7805 -0.7433
  413MOL0     H56980  10.446   4.160   4.437  0.2914 -0.8168 -0.7892
  413MOL0     H56981  10.411   4.145   4.684  0.7100 -0.1134  1.9579
  413MOL0     H56982  10.757   3.971   4.955 -0.1718  0.0892  0.4725
  413MOL0     H56983  10.804   4.123   4.879  0.5026 -0.8937 -0.3010
  413MOL0     H56984  10.665   4.241   5.054 -2.0415 -1.1470 -0.2979
  413MOL0     H56985  10.824   4.174   5.092  0.9200 -3.3257 -0.4278
  413MOL0     H56986  10.709   3.964   5.178  0.2050 -0.0334  1.2048
  413MOL0     H56987  10.690   4.107   5.275  1.3807  0.9853 -0.8314
  413MOL0     H56988  10.465   4.053   5.081 -3.7498  0.7955  0.9639
  413MOL0     H56989  10.468   4.153   5.226  1.5041  1.1801 -0.2307
  413MOL0     H56990  10.335   3.782   5.351  0.7649  0.2994  2.3390
  413MOL0     H56991  10.784   3.940   4.715  1.6254  1.6640 -2.5730
  413MOL0     H56992  10.918   3.881   4.549  2.1794 -0.5308 -2.0137
  413MOL0     H56993  10.816   3.828   4.404  0.9041 -2.4670  1.4559
  413MOL0     H56994  10.909   3.976   4.402 -0.3237 -0.7999 -0.9956
  414MOL0     O56995   1.594   3.639   5.982  0.6611  0.2515 -0.5690
  414MOL0     C56996   1.519   3.732   5.956  0.2779  0.4116  0.7399
  414MOL0     O56997   1.392   3.718   5.915 -0.2348  0.3389  0.0551
  414MOL0     C56998   1.333   3.600   5.911 -1.2607  0.2571  0.1117
  414MOL0     C56999   1.313   3.503   6.015 -0.0344 -0.0385 -0.6632
  414MOL0     C57000   1.236   3.391   5.996  0.3174 -0.4446 -0.0871
  414MOL0     C57001   1.190   3.359   5.872 -0.2030  0.3539 -0.3025
  414MOL0     O57002   1.130   3.239   5.851 -0.5415  0.4097 -0.2572
  414MOL0     C57003   1.110   3.140   5.957  0.3160  0.7858  0.3007
  414MOL0     C57004   1.029   3.022   5.899  0.0022 -0.1980 -1.2302
  414MOL0     C57005   0.894   3.067   5.858  0.0786  0.8921 -0.0436
  414MOL0     C57006   0.809   2.951   5.807  0.3206  0.2550  0.2524
  414MOL0     C57007   0.670   3.007   5.792 -0.6178  0.7043 -0.5693
  414MOL0     C57008   0.587   2.954   5.666  0.8452 -0.3090  1.4151
  414MOL0     C57009   0.551   2.805   5.691  0.0021  0.7821 -0.7681
  414MOL0     C57010   0.457   2.772   5.583 -0.1473  0.3160 -0.3435
  414MOL0     N57011   0.426   2.629   5.573  0.7062 -0.2420 -0.5709
  414MOL0     C57012   0.336   2.553   5.640 -0.1721  0.1532  0.0192
  414MOL0     C57013   0.359   2.423   5.598 -1.1651 -0.9138  0.3381
  414MOL0     C57014   0.290   2.302   5.639 -0.1726  0.6312 -0.3539
  414MOL0     C57015   0.201   2.314   5.764 -0.6607  0.4242 -0.1520
  414MOL0     C57016   0.119   2.180   5.774  0.8561  0.6715 -0.6556
  414MOL0     C57017   0.015   2.193   5.892 -0.2040  0.1394  1.1078
  414MOL0     O57018  -0.062   2.310   5.872  0.4030  0.7195 -0.2332
  414MOL0     C57019  -0.179   2.313   5.943  0.6421 -0.6794 -0.4923
  414MOL0     C57020  -0.291   2.366   5.869 -0.2080 -0.3850  0.0993
  414MOL0     C57021  -0.414   2.382   5.938 -0.0269  0.9195  0.8814
  414MOL0     C57022  -0.530   2.437   5.855 -0.1508  0.5531  0.6954
  414MOL0     C57023  -0.419   2.329   6.078 -0.0129 -0.7340  0.3116
  414MOL0     C57024  -0.540   2.327   6.152  0.2590 -0.5039 -0.4891
  414MOL0     O57025  -0.531   2.329   6.285  0.1162  0.2313 -0.0929
  414MOL0     C57026  -0.636   2.298   6.366 -0.0802  0.5760 -0.0964
  414MOL0     C57027  -0.646   2.371   6.474  0.5972 -0.4182 -0.9503
  414MOL0     C57028  -0.746   2.355   6.577 -0.1865  0.9836  0.7663
  414MOL0     C57029  -0.840   2.247   6.560  0.4259  0.1173 -0.4009
  414MOL0     O57030  -0.937   2.217   6.663 -0.5122  0.3031  0.0079
  414MOL0     C57031  -0.878   2.171   6.789  0.7639  0.4179  0.3230
  414MOL0     C57032  -0.978   2.125   6.900 -0.1249  0.0641  0.3553
  414MOL0     C57033  -0.913   2.058   7.020  0.3047 -0.4618  1.2309
  414MOL0     C57034  -1.005   2.011   7.124  0.6947  0.5477  0.5518
  414MOL0     C57035  -0.940   1.931   7.236  0.0308  0.6442  0.3177
  414MOL0     C57036  -1.037   1.897   7.347 -0.4297 -0.6083 -0.5819
  414MOL0     C57037  -0.959   1.857   7.471  0.2419 -0.6402  0.0193
  414MOL0     C57038  -1.042   1.826   7.600  0.3111 -0.8060  0.6958
  414MOL0    Cl57039  -1.084   1.982   7.678 -0.1654 -0.0447 -0.5357
  414MOL0     C57040  -0.821   2.158   6.456  0.5046  0.4860 -0.0435
  414MOL0     C57041  -0.725   2.187   6.361 -0.0763  0.0769  0.0539
  414MOL0     O57042  -0.644   2.300   6.098  0.0945 -0.0685 -0.4788
  414MOL0     C57043  -0.305   2.280   6.146 -1.0757 -1.7971 -0.4111
  414MOL0     C57044  -0.190   2.270   6.079 -1.3351 -0.2722 -0.4802
  414MOL0     N57045   0.478   2.429   5.522 -0.7193 -0.1496 -0.1909
  414MOL0     N57046   0.516   2.550   5.505 -0.1898  0.3554  0.7583
  414MOL0     C57047   1.211   3.446   5.756 -0.4191  0.2611 -0.7699
  414MOL0     C57048   1.284   3.565   5.778 -0.6687  0.9991 -0.0389
  414MOL0     C57049   1.595   3.858   5.916  1.3337 -0.3619  0.0010
  414MOL0     C57050   1.553   3.911   5.788 -0.6482 -0.2780 -0.4910
  414MOL0     C57051   1.621   4.033   5.751  0.3081 -0.3701  0.1767
  414MOL0     C57052   1.716   4.098   5.828  0.0905  0.0959 -0.4029
  414MOL0     O57053   1.751   4.226   5.782 -0.3494 -0.8534  0.5741
  414MOL0     C57054   1.843   4.318   5.853  0.6155  0.1324 -0.1675
  414MOL0     C57055   1.818   4.457   5.786 -0.4287  0.1019 -1.0056
  414MOL0     C57056   1.865   4.472   5.643 -0.8709  1.3481  1.5766
  414MOL0     C57057   2.004   4.541   5.629  0.4709 -0.3411 -0.4698
  414MOL0     C57058   2.110   4.441   5.649  0.1775 -0.4109  0.9576
  414MOL0     C57059   2.202   4.358   5.675 -0.4988 -0.0994  1.0214
  414MOL0     C57060   1.758   4.046   5.948  0.4990 -0.2924  0.8717
  414MOL0     C57061   1.703   3.918   5.992  0.4432  0.7121 -0.4865
  414MOL0     C57062   1.751   3.847   6.126 -0.0849  0.0101 -0.3855
  414MOL0     H57063   1.335   3.526   6.119 -2.1066 -1.9852  0.2867
  414MOL0     H57064   1.218   3.337   6.088 -0.4312  0.9671  0.6260
  414MOL0     H57065   1.051   3.177   6.041 -2.1907  0.5425 -1.2379
  414MOL0     H57066   1.202   3.091   5.990  0.3261  0.4985 -0.1541
  414MOL0     H57067   1.072   2.986   5.805  0.7751  1.2827 -1.4745
  414MOL0     H57068   1.027   2.954   5.984  2.9981  1.0926  0.0129
  414MOL0     H57069   0.854   3.109   5.952  2.4390  2.0764  0.5160
  414MOL0     H57070   0.898   3.145   5.782 -1.9420  0.6667 -0.4365
  414MOL0     H57071   0.859   2.919   5.715  3.3966  0.8825  1.5839
  414MOL0     H57072   0.805   2.867   5.878 -0.2334  0.4131  0.4096
  414MOL0     H57073   0.674   3.116   5.795 -2.6469  0.8455  3.1021
  414MOL0     H57074   0.609   2.979   5.878 -1.9932  1.9239 -1.1066
  414MOL0     H57075   0.490   3.006   5.666  0.9171 -0.0636 -0.9822
  414MOL0     H57076   0.638   2.960   5.570 -0.3235  0.2689  0.7992
  414MOL0     H57077   0.492   2.802   5.784  2.1897  0.2997  0.6815
  414MOL0     H57078   0.638   2.739   5.696 -0.0028  0.4508 -3.6065
  414MOL0     H57079   0.368   2.835   5.596  1.5458  2.2469  3.8619
  414MOL0     H57080   0.515   2.799   5.495  0.9752  4.6346  1.4222
  414MOL0     H57081   0.274   2.589   5.721 -0.6639  0.4277 -0.4735
  414MOL0     H57082   0.369   2.230   5.663  1.4168  2.7335  1.0153
  414MOL0     H57083   0.227   2.259   5.561  0.3830  1.2871 -1.1772
  414MOL0     H57084   0.267   2.307   5.851  1.8699 -1.3003 -2.0651
  414MOL0     H57085   0.140   2.404   5.769 -2.7059 -0.9616  1.7312
  414MOL0     H57086   0.055   2.168   5.687  3.3031  0.4495 -2.5220
  414MOL0     H57087   0.182   2.091   5.785 -3.1247 -2.3576 -0.0764
  414MOL0     H57088  -0.037   2.097   5.897  1.1680 -0.9081 -1.9308
  414MOL0     H57089   0.071   2.208   5.985  0.4898 -0.7713  0.8557
  414MOL0     H57090  -0.255   2.391   5.770 -1.0659 -1.8605 -0.6242
  414MOL0     H57091  -0.498   2.451   5.751  0.4416 -0.7542  0.6872
  414MOL0     H57092  -0.573   2.530   5.895 -3.2425 -0.1531 -0.6805
  414MOL0     H57093  -0.608   2.361   5.841  0.4924  0.2583 -1.7887
  414MOL0     H57094  -0.568   2.446   6.485  0.6521 -0.2429 -2.3067
  414MOL0     H57095  -0.761   2.424   6.660  0.2718  0.5923  1.1817
  414MOL0     H57096  -0.814   2.086   6.762 -1.9281 -0.9553 -2.4273
  414MOL0     H57097  -0.811   2.249   6.823  1.2644  1.0394 -1.9314
  414MOL0     H57098  -1.042   2.205   6.940 -0.1844  0.3856 -0.3785
  414MOL0     H57099  -1.042   2.052   6.850 -0.0927 -0.7405  1.4355
  414MOL0     H57100  -0.854   2.136   7.069  1.3645 -1.1538  1.0798
  414MOL0     H57101  -0.859   1.971   6.982  0.7130 -0.1484  1.0883
  414MOL0     H57102  -1.076   1.938   7.083  2.6808 -1.8145  1.0931
  414MOL0     H57103  -1.059   2.096   7.167 -0.6828  0.1263 -0.2626
  414MOL0     H57104  -0.904   1.834   7.199 -0.4825  0.2189  0.9064
  414MOL0     H57105  -0.861   1.993   7.279 -0.1424  0.1104  1.4255
  414MOL0     H57106  -1.111   1.826   7.308 -1.9448  1.6612 -2.0924
  414MOL0     H57107  -1.088   1.992   7.364 -1.4845 -0.5422 -3.5617
  414MOL0     H57108  -0.899   1.946   7.494 -0.1758  0.2328 -2.1023
  414MOL0     H57109  -0.898   1.769   7.452  1.1143  0.2487 -1.4012
  414MOL0     H57110  -0.980   1.771   7.671  0.1941 -0.6807  0.8948
  414MOL0     H57111  -1.131   1.768   7.576  0.7372 -1.6124  1.0438
  414MOL0     H57112  -0.873   2.066   6.479  4.4754 -1.0338  4.8316
  414MOL0     H57113  -0.726   2.128   6.270 -2.7520  0.4941 -0.2518
  414MOL0     H57114  -0.317   2.259   6.252 -5.5075  0.2916 -0.2760
  414MOL0     H57115  -0.104   2.242   6.140 -1.9242 -0.8080  0.1152
  414MOL0     H57116   1.183   3.413   5.657  0.9556  0.5522 -1.2831
  414MOL0     H57117   1.308   3.627   5.692  3.2678 -1.6802 -1.1469
  414MOL0     H57118   1.462   3.891   5.733 -3.4577  0.3051  3.4665
  414MOL0     H57119   1.606   4.070   5.650  0.3782  2.2085  1.0408
  414MOL0     H57120   1.826   4.310   5.961  0.8410  0.7140 -0.0829
  414MOL0     H57121   1.946   4.287   5.833  0.7183 -2.3740  3.2194
  414MOL0     H57122   1.860   4.542   5.840 -1.3580  0.4218 -0.7537
  414MOL0     H57123   1.712   4.486   5.780  0.3966  5.9018  3.2994
  414MOL0     H57124   1.869   4.372   5.600 -1.0613  0.8328  2.7287
  414MOL0     H57125   1.792   4.526   5.582 -0.1594 -0.4265 -0.9675
  414MOL0     H57126   2.020   4.629   5.693 -1.5411 -0.5726  0.4211
  414MOL0     H57127   2.023   4.582   5.529  0.0730 -0.2599 -0.5138
  414MOL0     H57128   2.264   4.273   5.694  1.0137  0.3946 -1.3169
  414MOL0     H57129   1.821   4.106   6.013  0.8589  3.1474 -2.2740
  414MOL0     H57130   1.666   3.830   6.193  0.3047  1.7433  0.6077
  414MOL0     H57131   1.803   3.751   6.126  0.7854  0.4591  0.4910
  414MOL0     H57132   1.817   3.916   6.180  1.9432 -0.5650 -1.9994
  415MOL0     O57133  10.560   3.521   4.252  0.5442  0.8647 -0.4991
  415MOL0     C57134  10.509   3.585   4.344 -0.5459 -1.0156 -0.2975
  415MOL0     O57135  10.383   3.649   4.332 -0.5230 -0.1031 -0.6882
  415MOL0     C57136  10.315   3.602   4.230  1.3059 -0.4878  0.8688
  415MOL0     C57137  10.273   3.682   4.125  0.1792  0.3952  0.6365
  415MOL0     C57138  10.206   3.631   4.008 -0.9500 -0.3127  0.3987
  415MOL0     C57139  10.181   3.503   3.991  0.7379  0.0507  0.4984
  415MOL0     O57140  10.119   3.471   3.877  0.2202 -0.1728  0.6130
  415MOL0     C57141  10.085   3.337   3.845  0.2607 -0.0186  0.0001
  415MOL0     C57142   9.934   3.323   3.866  0.4545 -0.3804 -0.2539
  415MOL0     C57143   9.881   3.184   3.807 -0.2353 -0.4537 -0.4292
  415MOL0     C57144   9.925   3.075   3.907 -0.2860  0.3372 -0.3040
  415MOL0     C57145   9.947   2.941   3.842  0.5524 -0.1939 -0.2944
  415MOL0     C57146   9.813   2.861   3.816  0.0169  0.1205 -1.2713
  415MOL0     C57147   9.817   2.733   3.899 -0.3246 -0.5024  0.7620
  415MOL0     C57148   9.689   2.659   3.911  0.2072 -0.3814 -0.6838
  415MOL0     N57149   9.696   2.552   4.013  0.8375  0.8382 -0.3585
  415MOL0     C57150   9.620   2.563   4.137 -0.3962  0.2244  0.3696
  415MOL0     C57151   9.640   2.443   4.195  0.3266  0.2336  0.4183
  415MOL0     C57152   9.577   2.383   4.321 -0.4822  0.2929 -0.2439
  415MOL0     C57153   9.575   2.488   4.433  0.0544  1.6525  0.7211
  415MOL0     C57154   9.518   2.429   4.563 -0.4141  0.5098 -0.0666
  415MOL0     C57155   9.524   2.540   4.665  0.2787  0.0332 -1.1789
  415MOL0     O57156   9.442   2.510   4.780  1.5608  0.8769  0.0191
  415MOL0     C57157   9.406   2.612   4.866 -0.1001  0.5371  0.5723
  415MOL0     C57158   9.434   2.749   4.847 -0.3661  0.0844  0.6097
  415MOL0     C57159   9.392   2.843   4.942  1.0471 -0.2973 -0.3757
  415MOL0     C57160   9.433   2.986   4.911 -0.0042  1.7523 -0.4069
  415MOL0     C57161   9.330   2.803   5.064 -0.0027 -0.2798 -0.3196
  415MOL0     C57162   9.284   2.900   5.172 -0.0913 -0.1431 -0.6760
  415MOL0     O57163   9.206   2.849   5.268 -1.0134  0.0985 -0.6072
  415MOL0     C57164   9.155   2.928   5.370 -0.4073  0.3275 -0.1787
  415MOL0     C57165   9.190   2.916   5.508  0.2597  0.3488  0.4432
  415MOL0     C57166   9.116   2.986   5.606  0.6649  0.6017 -0.0536
  415MOL0     C57167   9.018   3.071   5.567  0.6855 -0.2035 -0.5965
  415MOL0     O57168   8.945   3.145   5.649  0.4364 -0.3522  0.0603
  415MOL0     C57169   8.888   3.068   5.753  0.5224 -0.5651 -0.1493
  415MOL0     C57170   8.758   3.123   5.801 -0.6767 -0.0251 -0.4873
  415MOL0     C57171   8.709   3.048   5.919 -0.5784 -0.1009  0.1173
  415MOL0     C57172   8.569   3.100   5.955 -0.1708  0.1776 -0.6124
  415MOL0     C57173   8.516   3.042   6.086  0.3746  0.6213 -0.3691
  415MOL0     C57174   8.366   3.066   6.128  0.1907  0.2492  0.8206
  415MOL0     C57175   8.271   2.998   6.024  0.0690 -0.1965 -0.4456
  415MOL0     C57176   8.119   3.027   6.057  0.5394 -0.9887 -0.2851
  415MOL0    Cl57177   8.091   3.199   6.029  0.2596 -0.1754  0.6506
  415MOL0     C57178   8.986   3.092   5.429  0.2185  0.1769  1.0492
  415MOL0     C57179   9.045   3.009   5.337  0.2453  0.3855  0.1110
  415MOL0     O57180   9.337   3.010   5.187  0.2333 -0.3268  0.9122
  415MOL0     C57181   9.297   2.667   5.075 -0.0842 -0.1922 -0.4169
  415MOL0     C57182   9.326   2.586   4.970  0.4718  0.0861  0.2620
  415MOL0     N57183   9.717   2.368   4.109  0.3820 -0.7169 -1.1183
  415MOL0     N57184   9.758   2.432   4.008 -0.6839  0.4363 -0.2390
  415MOL0     C57185  10.199   3.422   4.104 -0.8431 -0.3612  0.0476
  415MOL0     C57186  10.278   3.465   4.216  0.7839  0.4737  0.2767
  415MOL0     C57187  10.582   3.585   4.479 -0.5173  0.6909  0.6958
  415MOL0     C57188  10.698   3.504   4.489 -0.3904  0.1597 -0.9188
  415MOL0     C57189  10.773   3.481   4.608  0.3210  0.4586 -0.1697
  415MOL0     C57190  10.725   3.549   4.723  0.4147 -1.3120 -0.3523
  415MOL0     O57191  10.807   3.537   4.829  0.4469 -0.2818  0.2057
  415MOL0     C57192  10.744   3.513   4.954 -0.9590  1.3367  0.1237
  415MOL0     C57193  10.835   3.412   5.032 -0.3526  0.1360  0.5897
  415MOL0     C57194  10.976   3.457   5.070 -0.0113 -0.2009  0.2033
  415MOL0     C57195  11.048   3.339   5.142  0.2356 -0.5802 -0.1828
  415MOL0     C57196  11.159   3.406   5.209 -0.6985 -0.7913  0.4883
  415MOL0     C57197  11.249   3.441   5.286  0.7594 -0.1252  0.1906
  415MOL0     C57198  10.641   3.654   4.707 -0.1626  0.6650 -1.3485
  415MOL0     C57199  10.555   3.669   4.592  0.2986  0.6243 -0.2704
  415MOL0     C57200  10.445   3.773   4.583 -0.4099  1.1072 -0.5060
  415MOL0     H57201  10.296   3.788   4.130  2.5800 -0.0631  0.2658
  415MOL0     H57202  10.191   3.702   3.927  0.1040  1.8238  1.9452
  415MOL0     H57203  10.139   3.271   3.914 -0.2919  0.8702  1.3098
  415MOL0     H57204  10.117   3.307   3.745  0.7062 -2.5348  0.8223
  415MOL0     H57205   9.912   3.344   3.971  1.1133  1.8772 -0.5082
  415MOL0     H57206   9.891   3.408   3.811  0.3469 -0.8143 -0.8525
  415MOL0     H57207   9.774   3.190   3.784 -0.5028  0.2624  0.9290
  415MOL0     H57208   9.938   3.160   3.717 -1.2042  0.9903 -1.4873
  415MOL0     H57209  10.020   3.110   3.949 -0.6999 -0.4013  1.2696
  415MOL0     H57210   9.868   3.067   3.999  0.8648 -2.5774  0.2444
  415MOL0     H57211  10.022   2.892   3.904  0.5530 -0.9421 -0.8565
  415MOL0     H57212   9.996   2.960   3.746 -0.4261  2.1253 -0.3847
  415MOL0     H57213   9.720   2.916   3.833  0.0711 -0.4679  1.2111
  415MOL0     H57214   9.800   2.838   3.710 -0.9714 -0.7822 -0.9685
  415MOL0     H57215   9.844   2.750   4.004 -0.6869 -1.0478  0.9486
  415MOL0     H57216   9.890   2.661   3.862  0.9113 -0.7953  3.5123
  415MOL0     H57217   9.609   2.725   3.947 -0.0457 -0.5515 -0.9343
  415MOL0     H57218   9.659   2.626   3.811 -1.6221  2.5184 -1.1995
  415MOL0     H57219   9.550   2.643   4.159 -0.2424  0.9595 -1.5637
  415MOL0     H57220   9.639   2.302   4.360  0.6945  0.6122 -1.3627
  415MOL0     H57221   9.481   2.339   4.294 -0.4307  2.2905 -4.4580
  415MOL0     H57222   9.679   2.519   4.451  0.2669  1.9688 -0.9225
  415MOL0     H57223   9.519   2.576   4.402 -2.3158  0.0334  0.1284
  415MOL0     H57224   9.429   2.368   4.547  0.5096 -0.7152 -0.7173
  415MOL0     H57225   9.597   2.357   4.586  0.5686  1.6551  0.3020
  415MOL0     H57226   9.632   2.538   4.685 -0.1682 -1.2719  1.5226
  415MOL0     H57227   9.481   2.634   4.629 -3.0813 -0.9786 -0.1386
  415MOL0     H57228   9.507   2.786   4.775  0.6229 -1.3562  0.8294
  415MOL0     H57229   9.352   3.059   4.927 -2.2445 -0.3020 -1.6609
  415MOL0     H57230   9.449   2.997   4.803  1.1654 -1.0242 -0.5881
  415MOL0     H57231   9.528   3.006   4.961 -0.3362 -3.2249  2.8229
  415MOL0     H57232   9.272   2.854   5.542 -0.7788  0.2019  2.9619
  415MOL0     H57233   9.149   2.978   5.709  3.3635  1.0887 -0.8048
  415MOL0     H57234   8.874   2.965   5.720 -1.1655 -0.2698 -0.4773
  415MOL0     H57235   8.959   3.068   5.836  0.0575  0.3007  0.2605
  415MOL0     H57236   8.774   3.224   5.839  0.3597 -0.5441  0.5462
  415MOL0     H57237   8.692   3.147   5.717  1.2720 -0.3056 -2.1655
  415MOL0     H57238   8.775   3.060   6.006 -0.2658 -1.2320  0.0484
  415MOL0     H57239   8.688   2.944   5.893 -0.3451  0.1575 -1.1596
  415MOL0     H57240   8.505   3.084   5.868  0.2667  2.2485 -1.3716
  415MOL0     H57241   8.569   3.208   5.972 -3.0798  0.2207 -0.5015
  415MOL0     H57242   8.535   2.934   6.082  4.4836  0.8516  4.0316
  415MOL0     H57243   8.570   3.079   6.173  1.3867  0.9892 -1.1284
  415MOL0     H57244   8.333   3.170   6.137  1.0763  0.9913 -2.8190
  415MOL0     H57245   8.352   3.015   6.224 -2.3920  1.6294  1.2649
  415MOL0     H57246   8.295   2.892   6.032  3.7842  0.6266  2.1522
  415MOL0     H57247   8.294   3.015   5.919 -1.7269 -3.5432 -1.5052
  415MOL0     H57248   8.110   3.012   6.165 -2.3213  0.1956 -0.2710
  415MOL0     H57249   8.036   2.975   6.011 -2.1639  1.3239  1.5986
  415MOL0     H57250   8.907   3.160   5.399  2.0709  1.4681 -1.2413
  415MOL0     H57251   9.023   3.015   5.231  0.0704  2.7117  0.2424
  415MOL0     H57252   9.254   2.629   5.167 -1.1412 -0.2084 -0.9021
  415MOL0     H57253   9.301   2.486   5.003  1.6469 -0.2710  0.1201
  415MOL0     H57254  10.180   3.317   4.120  2.4739 -0.9117  0.9465
  415MOL0     H57255  10.305   3.385   4.284  4.8038 -0.8188 -2.4364
  415MOL0     H57256  10.751   3.456   4.407 -0.3505  1.1075 -1.4615
  415MOL0     H57257  10.853   3.408   4.615  0.4974  0.7580  1.3636
  415MOL0     H57258  10.709   3.593   5.019 -3.0508  1.2895 -0.8677
  415MOL0     H57259  10.651   3.460   4.932 -0.9129  1.5578 -0.6385
  415MOL0     H57260  10.849   3.316   4.981 -2.6840 -0.5467  1.1198
  415MOL0     H57261  10.789   3.388   5.129  1.3444 -2.5267  0.8400
  415MOL0     H57262  11.032   3.487   4.981  1.0629  0.7902  1.1760
  415MOL0     H57263  10.970   3.543   5.138 -1.7268 -0.1013 -0.0307
  415MOL0     H57264  11.083   3.266   5.068  1.0949 -3.0329  2.4589
  415MOL0     H57265  10.990   3.283   5.216 -1.9259 -0.0793 -1.4124
  415MOL0     H57266  11.330   3.464   5.351  0.4109  1.0471  0.2259
  415MOL0     H57267  10.631   3.726   4.787 -3.2772  1.1112 -1.9765
  415MOL0     H57268  10.452   3.844   4.665  1.2274  1.2704 -0.7352
  415MOL0     H57269  10.445   3.829   4.489 -0.4001  3.0748  0.6272
  415MOL0     H57270  10.352   3.715   4.586 -0.4520  1.1434 -0.9473
  416MOL0     O57271   0.930  11.261  11.209 -0.4887 -0.7885  0.4769
  416MOL0     C57272   0.823  11.211  11.245 -0.1748 -0.2717 -0.4842
  416MOL0     O57273   0.753  11.117  11.175 -0.8408  0.1223  0.6293
  416MOL0     C57274   0.797  11.069  11.053  0.6578 -0.3456  0.1884
  416MOL0     C57275   0.861  10.948  11.032  0.8822  0.0747  0.1058
  416MOL0     C57276   0.939  10.928  10.912  0.5777 -0.4471  0.7544
  416MOL0     C57277   0.925  11.011  10.807 -0.1427  0.3071 -1.0636
  416MOL0     O57278   0.978  10.993  10.680  0.0827  0.0488 -0.5118
  416MOL0     C57279   1.028  10.871  10.627 -0.5871 -0.4676 -0.3922
  416MOL0     C57280   0.912  10.780  10.621 -0.0526 -0.4191 -0.4370
  416MOL0     C57281   0.813  10.830  10.520  0.4692 -1.1946  0.5177
  416MOL0     C57282   0.730  10.721  10.432  0.2529  0.0413 -0.6661
  416MOL0     C57283   0.628  10.788  10.345  0.2179  0.2716 -0.4838
  416MOL0     C57284   0.533  10.687  10.290 -1.1182  0.2247 -0.2037
  416MOL0     C57285   0.405  10.760  10.244 -1.0939  0.5805  1.1644
  416MOL0     C57286   0.299  10.663  10.186 -0.6091  0.2429  0.9026
  416MOL0     N57287   0.344  10.589  10.061 -0.0846  0.2566 -0.5687
  416MOL0     C57288   0.343  10.657   9.945 -0.4053 -0.3073 -0.7026
  416MOL0     C57289   0.391  10.563   9.853  0.3716  0.4504 -0.0646
  416MOL0     C57290   0.412  10.596   9.718 -0.1630 -0.9100 -0.4802
  416MOL0     C57291   0.303  10.555   9.617 -0.4872 -1.2073 -0.5266
  416MOL0     C57292   0.298  10.401   9.600  0.4002 -0.6239  0.3370
  416MOL0     C57293   0.189  10.344   9.517  0.1978 -0.1114 -0.2411
  416MOL0     O57294   0.060  10.411   9.535  0.0627  0.7770  0.5187
  416MOL0     C57295  -0.020  10.362   9.634 -1.0442  0.0940 -0.1417
  416MOL0     C57296   0.015  10.399   9.767 -0.7619  0.5439  0.0654
  416MOL0     C57297  -0.045  10.335   9.872  0.9870 -0.7314 -0.3631
  416MOL0     C57298  -0.002  10.394  10.009  0.0753  0.3715 -0.5285
  416MOL0     C57299  -0.131  10.226   9.862 -0.3885 -0.6311 -0.5603
  416MOL0     C57300  -0.198  10.156   9.974  0.2416  0.7941  0.7450
  416MOL0     O57301  -0.246  10.032   9.943  0.0006 -0.8957 -0.6799
  416MOL0     C57302  -0.332   9.975  10.030 -0.0374 -0.3575 -1.1542
  416MOL0     C57303  -0.291   9.857  10.101 -0.6648  0.1834 -0.0984
  416MOL0     C57304  -0.369   9.795  10.198 -0.0230  0.3327  0.2578
  416MOL0     C57305  -0.502   9.836  10.218  0.1188 -0.0652 -0.7860
  416MOL0     O57306  -0.592   9.779  10.303  0.2248 -0.7330  0.1359
  416MOL0     C57307  -0.559   9.737  10.435 -0.1221 -0.4384  0.4864
  416MOL0     C57308  -0.628   9.610  10.476 -0.2063  0.8981 -0.3271
  416MOL0     C57309  -0.783   9.645  10.491 -1.1203  0.2401 -0.3084
  416MOL0     C57310  -0.880   9.526  10.506  0.8938  0.1142 -0.0657
  416MOL0     C57311  -1.030   9.559  10.467  0.5654 -0.6302  0.0481
  416MOL0     C57312  -1.094   9.645  10.571 -0.5604  0.0573 -0.5786
  416MOL0     C57313  -1.230   9.679  10.516  0.0010 -0.0563  0.8943
  416MOL0     C57314  -1.339   9.720  10.619 -0.6802  0.2043  0.1232
  416MOL0    Cl57315  -1.274   9.850  10.720 -0.1464  0.5549 -0.5295
  416MOL0     C57316  -0.542   9.957  10.153  0.1207  0.1294  0.5072
  416MOL0     C57317  -0.455  10.029  10.069  0.0955 -0.2639  0.8383
  416MOL0     O57318  -0.208  10.218  10.076 -1.1428 -0.6188 -0.1964
  416MOL0     C57319  -0.148  10.177   9.729 -0.6464  0.8449  0.1456
  416MOL0     C57320  -0.103  10.251   9.620  0.5950 -0.0810  0.2121
  416MOL0     N57321   0.410  10.447   9.920 -0.4205  0.1172 -0.1060
  416MOL0     N57322   0.374  10.458  10.043 -0.1520 -0.5891 -0.2865
  416MOL0     C57323   0.866  11.133  10.832 -0.1775 -0.2326 -0.7593
  416MOL0     C57324   0.802  11.168  10.953 -0.2385  0.5968 -0.3636
  416MOL0     C57325   0.771  11.257  11.376 -0.3022 -0.3176  0.3968
  416MOL0     C57326   0.853  11.353  11.446  0.5482  0.0576  0.8864
  416MOL0     C57327   0.817  11.396  11.574 -0.6371  0.7316  0.0145
  416MOL0     C57328   0.700  11.353  11.640  0.2042  0.1213  0.1819
  416MOL0     O57329   0.672  11.421  11.751  0.8705 -0.1087  0.8043
  416MOL0     C57330   0.736  11.382  11.870 -0.3901  0.0159 -0.3500
  416MOL0     C57331   0.632  11.304  11.965  0.0665 -0.2513  0.1441
  416MOL0     C57332   0.661  11.324  12.106 -0.3363 -0.0904 -0.2884
  416MOL0     C57333   0.611  11.205  12.194  0.0816 -0.4245 -1.2414
  416MOL0     C57334   0.721  11.107  12.184 -0.6101 -1.1842 -0.6572
  416MOL0     C57335   0.817  11.030  12.194 -0.3765  0.1227  0.3939
  416MOL0     C57336   0.616  11.265  11.570 -0.2562 -0.0625 -0.5466
  416MOL0     C57337   0.650  11.218  11.443  0.3125  0.9634 -1.0484
  416MOL0     C57338   0.549  11.119  11.395 -0.3382  0.1347  0.4888
  416MOL0     H57339   0.871  10.885  11.120 -0.9418 -0.9816 -0.3836
  416MOL0     H57340   1.006  10.843  10.902  1.2084  0.0949  0.2762
  416MOL0     H57341   1.098  10.817  10.692 -0.4991 -0.7277 -0.7002
  416MOL0     H57342   1.058  10.885  10.523  3.2947 -2.3329  0.2872
  416MOL0     H57343   0.947  10.678  10.601 -1.1932 -0.7135 -1.0104
  416MOL0     H57344   0.867  10.779  10.721  1.0769  1.8412  0.1611
  416MOL0     H57345   0.742  10.901  10.564  0.6093 -1.2450  0.8327
  416MOL0     H57346   0.868  10.881  10.440 -0.7307 -1.2391 -0.3494
  416MOL0     H57347   0.797  10.653  10.379 -2.1117 -2.5643 -0.4986
  416MOL0     H57348   0.670  10.658  10.498  0.9057 -0.6397 -0.7186
  416MOL0     H57349   0.676  10.841  10.262  0.3229  1.8945  0.5531
  416MOL0     H57350   0.577  10.866  10.403  2.2325  0.2080  1.5109
  416MOL0     H57351   0.569  10.624  10.209  2.7851  2.5888 -0.5330
  416MOL0     H57352   0.502  10.620  10.371 -2.8360  1.8430  0.5689
  416MOL0     H57353   0.433  10.829  10.164  3.3995 -1.0557  1.0504
  416MOL0     H57354   0.358  10.815  10.326 -0.6002  0.0930  1.7847
  416MOL0     H57355   0.275  10.585  10.258  1.7102 -4.7555 -3.0525
  416MOL0     H57356   0.204  10.712  10.164 -0.9765 -2.0159 -4.0885
  416MOL0     H57357   0.317  10.762   9.932  0.7113 -0.0249 -0.8409
  416MOL0     H57358   0.499  10.537   9.689  1.0949 -0.1002  1.4853
  416MOL0     H57359   0.420  10.705   9.711  3.6156 -1.0206  0.0530
  416MOL0     H57360   0.202  10.591   9.640  0.6734  1.9799  0.1860
  416MOL0     H57361   0.318  10.602   9.519 -1.5236  0.4303  0.0544
  416MOL0     H57362   0.388  10.359   9.554  0.5679 -0.9921  0.9792
  416MOL0     H57363   0.301  10.356   9.700  1.2376  2.7141  1.9669
  416MOL0     H57364   0.200  10.345   9.408 -0.9366 -0.3113 -0.3710
  416MOL0     H57365   0.182  10.239   9.548 -2.0500  0.8713  3.2229
  416MOL0     H57366   0.087  10.480   9.773 -0.7856  0.5636  0.0736
  416MOL0     H57367  -0.084  10.417  10.077 -1.8225  0.5216 -2.7308
  416MOL0     H57368   0.045  10.492   9.999 -0.3140  1.0963  3.3394
  416MOL0     H57369   0.072  10.325  10.051 -0.9632  0.2223  1.1525
  416MOL0     H57370  -0.195   9.807  10.085  0.5687  2.1153  0.9634
  416MOL0     H57371  -0.336   9.702  10.241  2.9036  1.0268 -0.2521
  416MOL0     H57372  -0.450   9.728  10.428  0.1969  2.9081 -0.4017
  416MOL0     H57373  -0.576   9.817  10.508  1.2706  0.7454 -0.4313
  416MOL0     H57374  -0.624   9.538  10.393 -2.6337  1.2986 -0.8787
  416MOL0     H57375  -0.586   9.558  10.562  0.6741 -0.3009 -1.4332
  416MOL0     H57376  -0.815   9.692  10.398 -4.4167 -0.8493  0.1347
  416MOL0     H57377  -0.788   9.715  10.575  2.3574  0.6439 -0.3134
  416MOL0     H57378  -0.871   9.486  10.607  0.5882  0.4873  0.1106
  416MOL0     H57379  -0.851   9.462  10.421  1.6881  0.9773 -0.4686
  416MOL0     H57380  -1.024   9.613  10.372  0.2815  1.0150  0.9246
  416MOL0     H57381  -1.088   9.468  10.449  0.5468 -0.8477  1.1285
  416MOL0     H57382  -1.034   9.734  10.591 -3.0611  1.5035  1.1398
  416MOL0     H57383  -1.106   9.595  10.668  0.1402  2.6679  0.9660
  416MOL0     H57384  -1.270   9.590  10.467  4.1430 -1.1520 -0.9128
  416MOL0     H57385  -1.219   9.749  10.432  1.1060  1.2078  2.0517
  416MOL0     H57386  -1.361   9.637  10.686  0.9001 -1.5987 -1.4866
  416MOL0     H57387  -1.436   9.756  10.586  0.2684  1.0020 -1.9211
  416MOL0     H57388  -0.643   9.996  10.154  0.4030  0.8834  0.3827
  416MOL0     H57389  -0.498  10.104  10.003 -0.2506 -0.5914  0.6887
  416MOL0     H57390  -0.191  10.081   9.700  1.7580 -0.1104 -0.4933
  416MOL0     H57391  -0.114  10.216   9.518  0.0670  4.0329 -1.3338
  416MOL0     H57392   0.865  11.210  10.755 -3.1522  0.6559  0.0472
  416MOL0     H57393   0.771  11.271  10.960  1.2779  0.9734  1.5194
  416MOL0     H57394   0.953  11.388  11.423  1.3681 -0.8792  2.7978
  416MOL0     H57395   0.890  11.449  11.633 -1.6050  1.0405  0.9635
  416MOL0     H57396   0.823  11.316  11.861 -3.3186 -4.9093  2.7200
  416MOL0     H57397   0.760  11.477  11.919  2.4636 -0.8971  0.1833
  416MOL0     H57398   0.622  11.196  11.954 -0.7495 -0.2267  0.5736
  416MOL0     H57399   0.530  11.342  11.953  1.0031  1.9591 -1.5733
  416MOL0     H57400   0.764  11.354  12.128 -0.8355  0.7787  0.9363
  416MOL0     H57401   0.597  11.409  12.131 -1.0194 -0.3430 -1.1299
  416MOL0     H57402   0.514  11.166  12.160  0.0321 -1.8937  0.4056
  416MOL0     H57403   0.615  11.244  12.296  2.2534  1.6532 -2.0445
  416MOL0     H57404   0.899  10.963  12.210 -2.0409 -2.1102  0.1002
  416MOL0     H57405   0.520  11.240  11.614 -0.9717  1.2508 -1.3054
  416MOL0     H57406   0.473  11.097  11.470 -1.8444  0.7581 -0.7944
  416MOL0     H57407   0.493  11.152  11.307  0.3782 -1.7306 -0.7328
  416MOL0     H57408   0.604  11.033  11.355 -0.9835  1.5532 -3.9658
  417MOL0     O57409   8.444   8.603   8.600  0.3242 -0.0874 -0.3321
  417MOL0     C57410   8.483   8.492   8.563 -0.5407 -0.9536 -0.3615
  417MOL0     O57411   8.433   8.416   8.452  0.5154  0.7153  0.0669
  417MOL0     C57412   8.328   8.465   8.383  0.6132  0.3918  0.6110
  417MOL0     C57413   8.215   8.380   8.356 -0.3935  0.2179 -0.4911
  417MOL0     C57414   8.126   8.419   8.260 -0.0719  0.0293  0.3473
  417MOL0     C57415   8.120   8.540   8.202 -0.0103  0.5418 -0.2309
  417MOL0     O57416   8.029   8.577   8.116  0.2830 -0.6053  0.5435
  417MOL0     C57417   8.097   8.618   7.987 -0.1020 -0.2110  0.8474
  417MOL0     C57418   8.006   8.585   7.868 -0.4539  0.3236 -0.2490
  417MOL0     C57419   8.028   8.455   7.792 -0.2803 -0.1612  0.3109
  417MOL0     C57420   7.995   8.329   7.881 -0.4017  0.4207  0.7865
  417MOL0     C57421   8.010   8.209   7.795 -1.0711 -0.4651 -0.0026
  417MOL0     C57422   7.876   8.165   7.727  0.2049 -0.6421 -0.2568
  417MOL0     C57423   7.741   8.149   7.800  0.5604 -0.6057  0.5298
  417MOL0     C57424   7.731   8.070   7.931  0.6232 -0.1028 -0.2669
  417MOL0     N57425   7.792   7.935   7.912  0.2126 -0.4420 -0.1798
  417MOL0     C57426   7.730   7.829   7.856  0.3912 -0.5339  0.1640
  417MOL0     C57427   7.802   7.724   7.899 -0.5807  0.2038  0.4434
  417MOL0     C57428   7.776   7.576   7.887  0.6357 -0.2303  0.3185
  417MOL0     C57429   7.673   7.521   7.991 -0.4776 -0.5646  0.1935
  417MOL0     C57430   7.519   7.537   7.942 -0.3785  0.5861  0.6226
  417MOL0     C57431   7.431   7.546   8.063  0.0755  0.2402 -0.2245
  417MOL0     O57432   7.306   7.603   8.038 -0.3369 -0.1094 -0.1179
  417MOL0     C57433   7.297   7.729   7.982 -0.9029  0.3999 -0.2068
  417MOL0     C57434   7.186   7.739   7.892 -0.1335  0.8436 -0.2042
  417MOL0     C57435   7.162   7.861   7.821 -0.0225  0.3937  0.8317
  417MOL0     C57436   7.057   7.881   7.713  0.9791  0.3972 -0.0602
  417MOL0     C57437   7.258   7.965   7.852  0.1043 -1.3898 -0.4003
  417MOL0     C57438   7.248   8.097   7.777 -0.8700 -0.0094 -0.4999
  417MOL0     O57439   7.136   8.173   7.794 -0.3479 -1.1098 -0.0051
  417MOL0     C57440   7.121   8.290   7.718 -0.2723 -0.6615 -0.8850
  417MOL0     C57441   7.060   8.405   7.774 -0.3134  0.0467  0.3341
  417MOL0     C57442   7.054   8.529   7.712  1.0534 -0.0393 -0.4702
  417MOL0     C57443   7.079   8.539   7.583  0.4016 -0.5590  0.5065
  417MOL0     O57444   7.067   8.659   7.512  0.5681  0.0915  0.1681
  417MOL0     C57445   7.008   8.783   7.567  0.7123  0.6256 -0.0560
  417MOL0     C57446   7.015   8.894   7.468 -0.0090 -0.9340 -0.5123
  417MOL0     C57447   6.959   8.842   7.333 -0.8811 -0.3052 -0.2651
  417MOL0     C57448   6.976   8.960   7.242 -0.3516  0.1209  0.1104
  417MOL0     C57449   6.899   8.949   7.104 -0.4144  1.3750  0.6263
  417MOL0     C57450   7.004   8.917   6.995 -0.0830  0.9996  0.3993
  417MOL0     C57451   6.951   8.897   6.860  0.6098  0.1831 -0.7878
  417MOL0     C57452   7.064   8.860   6.752  0.3828  0.3450 -0.3351
  417MOL0    Cl57453   7.175   8.997   6.758  0.0966  0.0232 -0.0674
  417MOL0     C57454   7.133   8.424   7.518  0.1758 -1.4658 -0.6182
  417MOL0     C57455   7.148   8.294   7.584 -0.9908 -0.5330  0.1892
  417MOL0     O57456   7.336   8.116   7.695  0.3132  0.4616  0.1133
  417MOL0     C57457   7.358   7.953   7.946  0.0780 -0.7211 -0.6767
  417MOL0     C57458   7.384   7.831   8.006 -0.4839 -0.2379  0.4481
  417MOL0     N57459   7.921   7.760   7.957 -0.0961  0.1841  0.4030
  417MOL0     N57460   7.908   7.890   7.972  0.5870 -0.4809 -0.5089
  417MOL0     C57461   8.221   8.631   8.229 -0.4427 -0.1075 -0.4950
  417MOL0     C57462   8.327   8.595   8.316 -0.4036 -0.6595  0.7719
  417MOL0     C57463   8.606   8.438   8.620 -0.5849 -0.0941 -0.1744
  417MOL0     C57464   8.698   8.358   8.540  0.3519  0.4953 -0.7348
  417MOL0     C57465   8.813   8.316   8.603 -1.1830  0.7765  0.3330
  417MOL0     C57466   8.840   8.322   8.734 -1.2411 -0.1089 -1.1343
  417MOL0     O57467   8.951   8.250   8.769 -1.2830 -0.0423  0.2787
  417MOL0     C57468   9.022   8.286   8.895  0.9767  0.3797 -0.1073
  417MOL0     C57469   8.990   8.186   9.008 -0.3575  0.1770 -0.0370
  417MOL0     C57470   9.107   8.162   9.100  0.7384 -0.4086 -0.2516
  417MOL0     C57471   9.195   8.274   9.155  0.1900 -0.0916  0.1127
  417MOL0     C57472   9.128   8.365   9.249  0.6577  0.3504 -0.7607
  417MOL0     C57473   9.085   8.448   9.326 -0.0634 -0.3880  1.5429
  417MOL0     C57474   8.746   8.391   8.810  0.7526 -0.2631 -0.0746
  417MOL0     C57475   8.632   8.454   8.759  0.1421 -0.4013  1.2025
  417MOL0     C57476   8.547   8.540   8.849  0.3574 -0.1544  0.2517
  417MOL0     H57477   8.200   8.283   8.402  3.1237 -0.2788 -0.1201
  417MOL0     H57478   8.063   8.335   8.231  0.5048 -0.1186 -0.5343
  417MOL0     H57479   8.192   8.564   7.973  0.0572 -0.8875  3.7129
  417MOL0     H57480   8.118   8.725   7.991  1.9191 -0.3781 -2.0730
  417MOL0     H57481   7.902   8.599   7.898 -0.2659  1.2527  0.0053
  417MOL0     H57482   8.030   8.648   7.783  3.0930 -3.2306 -2.2339
  417MOL0     H57483   7.950   8.451   7.715 -1.3822 -0.9327  1.4176
  417MOL0     H57484   8.129   8.444   7.752 -0.5116 -1.4680  0.0341
  417MOL0     H57485   8.062   8.324   7.968  1.3850 -0.3201 -0.5765
  417MOL0     H57486   7.899   8.328   7.934 -0.4045 -0.2516  0.7740
  417MOL0     H57487   8.056   8.137   7.862 -2.4412 -0.5692  0.8708
  417MOL0     H57488   8.095   8.228   7.729 -1.4163 -1.1449 -0.6617
  417MOL0     H57489   7.867   8.225   7.636 -0.5201  1.6517  1.2353
  417MOL0     H57490   7.892   8.066   7.686  0.7792 -1.1291  1.0739
  417MOL0     H57491   7.671   8.092   7.738  0.9039 -1.3774  0.8387
  417MOL0     H57492   7.701   8.248   7.821  1.1225 -0.4480  0.8463
  417MOL0     H57493   7.793   8.117   8.008 -1.4182  0.1619  1.3019
  417MOL0     H57494   7.634   8.074   7.981  0.2202  1.1857 -1.1150
  417MOL0     H57495   7.630   7.822   7.815  1.4467 -3.0260 -2.3086
  417MOL0     H57496   7.868   7.516   7.884 -0.3417 -1.8925 -4.2703
  417MOL0     H57497   7.742   7.576   7.783  0.3738  1.1093  0.3861
  417MOL0     H57498   7.694   7.414   8.006 -0.3696 -0.4118  1.2368
  417MOL0     H57499   7.690   7.559   8.092  1.5630  2.3429 -1.1063
  417MOL0     H57500   7.516   7.626   7.877 -1.3715  1.3415  1.6610
  417MOL0     H57501   7.477   7.451   7.889  2.6611  0.6742 -2.3024
  417MOL0     H57502   7.418   7.443   8.100  0.2223 -0.4042 -1.8822
  417MOL0     H57503   7.480   7.593   8.149  0.9046  2.2862 -1.7344
  417MOL0     H57504   7.117   7.656   7.884  1.6689 -0.8324  0.6156
  417MOL0     H57505   7.021   7.792   7.660  3.0452  0.3521 -1.4934
  417MOL0     H57506   7.112   7.936   7.637  1.8536  1.0384  1.0003
  417MOL0     H57507   6.970   7.942   7.740  0.7546 -0.0433  0.2221
  417MOL0     H57508   7.032   8.391   7.878 -0.7290  0.8895  0.3448
  417MOL0     H57509   7.013   8.616   7.762 -1.9284 -2.6419  2.0642
  417MOL0     H57510   6.908   8.764   7.607  0.6813 -4.0629 -1.7321
  417MOL0     H57511   7.070   8.817   7.651 -0.2969  2.2907  0.0479
  417MOL0     H57512   6.949   8.972   7.507 -1.7061 -2.7960  0.5406
  417MOL0     H57513   7.119   8.929   7.471 -0.0597 -0.8141 -0.0326
  417MOL0     H57514   6.852   8.817   7.336 -0.7644 -0.7670  2.1171
  417MOL0     H57515   7.020   8.765   7.287 -1.8308 -0.7437 -0.8289
  417MOL0     H57516   7.080   8.993   7.231 -0.4395  0.4976  0.3683
  417MOL0     H57517   6.924   9.049   7.278  1.3351  1.4222 -0.5506
  417MOL0     H57518   6.822   8.871   7.099  0.8981  0.0924 -2.0088
  417MOL0     H57519   6.857   9.046   7.077 -1.1296  2.1765  4.1557
  417MOL0     H57520   7.070   8.834   7.021  1.8035  2.2230 -0.2887
  417MOL0     H57521   7.070   9.004   6.998 -1.1066  1.8312 -0.2618
  417MOL0     H57522   6.884   8.974   6.821 -1.1800 -0.7013  0.4060
  417MOL0     H57523   6.884   8.811   6.850 -0.3320  0.6656  1.0043
  417MOL0     H57524   7.018   8.847   6.653  1.3271 -1.8262 -0.5438
  417MOL0     H57525   7.112   8.769   6.788 -0.0819  0.2781  0.1209
  417MOL0     H57526   7.178   8.435   7.419  4.6090  2.4476  1.4422
  417MOL0     H57527   7.208   8.218   7.536  1.1607  1.9924 -1.4028
  417MOL0     H57528   7.422   8.039   7.961 -1.6358  0.5933 -0.6248
  417MOL0     H57529   7.457   7.799   8.080  1.2943 -0.3901 -1.2695
  417MOL0     H57530   8.219   8.736   8.204 -2.1694  0.1753  0.6384
  417MOL0     H57531   8.401   8.666   8.352 -1.0615 -0.4604  1.7791
  417MOL0     H57532   8.679   8.331   8.436 -0.9037 -1.9085  0.0563
  417MOL0     H57533   8.888   8.268   8.541 -1.4537 -0.2614  0.7857
  417MOL0     H57534   9.128   8.281   8.869  0.6784 -4.8350 -1.3187
  417MOL0     H57535   8.997   8.390   8.919  0.7675  0.1647  0.6224
  417MOL0     H57536   8.966   8.090   8.961 -1.4881  1.6355 -2.6199
  417MOL0     H57537   8.901   8.217   9.064 -0.5425  2.1404 -1.3440
  417MOL0     H57538   9.081   8.103   9.189  2.0765 -1.4672 -0.5242
  417MOL0     H57539   9.176   8.097   9.045 -1.0856 -2.0209 -0.7729
  417MOL0     H57540   9.251   8.330   9.079 -0.5628 -2.9958 -2.8168
  417MOL0     H57541   9.272   8.215   9.207  1.3041 -0.6918 -2.1101
  417MOL0     H57542   9.039   8.525   9.385 -0.4864  0.7711 -0.2290
  417MOL0     H57543   8.752   8.385   8.918  0.6258 -1.4743 -0.1151
  417MOL0     H57544   8.585   8.642   8.848  0.8188 -0.3345 -0.4598
  417MOL0     H57545   8.442   8.534   8.819  0.2875  0.8647  0.2638
  417MOL0     H57546   8.559   8.491   8.946  0.2364 -2.6496 -0.9116
  418MOL0     O57547   9.168   6.634   5.990 -0.0852 -0.1408 -0.3155
  418MOL0     C57548   9.269   6.657   6.059  0.6012  0.1926  0.5210
  418MOL0     O57549   9.271   6.644   6.193  0.0073  0.1386  0.0701
  418MOL0     C57550   9.166   6.571   6.245 -0.6504  0.5974 -0.5961
  418MOL0     C57551   9.040   6.626   6.257  0.1765  0.0333  0.0211
  418MOL0     C57552   8.940   6.568   6.328  0.4683 -0.1244  0.0549
  418MOL0     C57553   8.958   6.442   6.382  1.0529 -0.8481  0.1930
  418MOL0     O57554   8.871   6.386   6.470 -0.2388  0.0682 -0.1810
  418MOL0     C57555   8.743   6.439   6.489  0.6525 -1.1425  0.2588
  418MOL0     C57556   8.667   6.351   6.584  0.2464 -0.6452  0.9351
  418MOL0     C57557   8.630   6.217   6.523  0.5489  0.1922 -0.4046
  418MOL0     C57558   8.732   6.123   6.574  0.1942 -0.3023  0.6608
  418MOL0     C57559   8.731   5.991   6.515 -1.9587 -0.0882 -0.0366
  418MOL0     C57560   8.852   5.917   6.575  0.4945 -0.6378  0.3746
  418MOL0     C57561   8.876   5.786   6.520  0.1202 -0.5508  0.3177
  418MOL0     C57562   8.933   5.768   6.377 -0.2451 -0.3985 -0.7940
  418MOL0     N57563   8.931   5.624   6.349 -1.0353  0.1940 -0.7175
  418MOL0     C57564   9.036   5.538   6.348  0.4204 -0.0566  0.3400
  418MOL0     C57565   8.980   5.416   6.328  0.6137 -0.8239 -0.4031
  418MOL0     C57566   9.047   5.290   6.304 -1.0174  0.2778  0.2433
  418MOL0     C57567   9.005   5.173   6.393 -0.6789  0.2653  0.3572
  418MOL0     C57568   9.102   5.059   6.353  0.9550  0.4172 -0.3739
  418MOL0     C57569   9.054   4.938   6.434  0.0819 -0.2628  0.8090
  418MOL0     O57570   9.100   4.817   6.371 -0.9979  0.0744 -0.1181
  418MOL0     C57571   9.211   4.754   6.426  0.7915  0.7220 -0.4258
  418MOL0     C57572   9.325   4.718   6.349  0.0929 -0.4262  0.3713
  418MOL0     C57573   9.433   4.653   6.407  0.2308 -0.3362 -0.5731
  418MOL0     C57574   9.540   4.622   6.304 -0.2191 -0.6294  0.6575
  418MOL0     C57575   9.436   4.625   6.545 -0.7017 -0.2843 -0.6614
  418MOL0     C57576   9.550   4.557   6.617  1.0301  0.0036  0.4967
  418MOL0     O57577   9.550   4.588   6.757 -0.8247  0.1207  0.5220
  418MOL0     C57578   9.648   4.534   6.829 -0.0781  0.2926 -0.0658
  418MOL0     C57579   9.787   4.550   6.800 -1.1632 -0.3399  0.8704
  418MOL0     C57580   9.880   4.492   6.893 -0.7713 -0.1408 -0.0375
  418MOL0     C57581   9.835   4.409   6.995 -0.5729 -0.0537 -0.6733
  418MOL0     O57582   9.926   4.352   7.077  0.1390  0.0587 -0.2866
  418MOL0     C57583  10.005   4.244   7.024  0.0624 -0.8570  0.4727
  418MOL0     C57584  10.112   4.191   7.121 -0.2062  0.4835 -0.5376
  418MOL0     C57585  10.199   4.315   7.153  0.3629  0.3254  1.3788
  418MOL0     C57586  10.342   4.286   7.129  1.6270 -0.5123 -0.6628
  418MOL0     C57587  10.399   4.330   6.989 -0.5579  0.1173  0.4215
  418MOL0     C57588  10.557   4.315   6.991 -0.4238  0.5619  0.2542
  418MOL0     C57589  10.616   4.398   6.878 -0.6961 -0.0378 -1.0568
  418MOL0     C57590  10.775   4.405   6.879 -0.1891 -0.6268 -0.1185
  418MOL0    Cl57591  10.833   4.243   6.832 -0.5026  0.2491  0.3163
  418MOL0     C57592   9.701   4.377   7.014 -0.3852 -0.2444  0.1683
  418MOL0     C57593   9.609   4.457   6.943 -0.3684 -0.9903 -0.3997
  418MOL0     O57594   9.638   4.496   6.550 -0.2237  0.5635 -1.0990
  418MOL0     C57595   9.323   4.657   6.619 -0.4962  0.5343  0.8496
  418MOL0     C57596   9.207   4.722   6.568 -0.5987 -0.0881 -0.1234
  418MOL0     N57597   8.849   5.434   6.310  0.5737  0.3549  0.0615
  418MOL0     N57598   8.813   5.557   6.327 -0.4990 -0.6183  0.3039
  418MOL0     C57599   9.080   6.380   6.368 -0.1363 -0.4821 -0.1811
  418MOL0     C57600   9.187   6.450   6.313 -0.0405 -0.2091  0.0891
  418MOL0     C57601   9.376   6.730   5.981 -0.3627 -0.1577 -0.3966
  418MOL0     C57602   9.504   6.724   6.039 -0.3581 -0.0651  0.7251
  418MOL0     C57603   9.615   6.778   5.971 -0.0830 -0.1763 -0.5232
  418MOL0     C57604   9.601   6.836   5.846 -0.4945 -0.4477  0.0080
  418MOL0     O57605   9.701   6.881   5.777  0.0658  0.2870  0.3962
  418MOL0     C57606   9.721   6.818   5.650 -0.0996 -0.1772  0.4596
  418MOL0     C57607   9.728   6.663   5.645  0.1709  0.4100 -0.0590
  418MOL0     C57608   9.840   6.606   5.726  0.2863  0.9609 -1.0578
  418MOL0     C57609   9.811   6.456   5.756 -0.7711  0.4014  0.8827
  418MOL0     C57610   9.806   6.384   5.629  0.0716  0.4162 -0.7291
  418MOL0     C57611   9.791   6.317   5.530 -0.1558 -0.3699 -0.2884
  418MOL0     C57612   9.472   6.841   5.789  1.0018 -0.1583  0.7291
  418MOL0     C57613   9.364   6.775   5.848  0.1350 -0.7167  0.7461
  418MOL0     C57614   9.224   6.819   5.794 -0.0604 -0.1171  0.6037
  418MOL0     H57615   9.022   6.726   6.218 -2.2306 -0.8792 -1.4497
  418MOL0     H57616   8.841   6.612   6.322  0.4339 -0.3260 -1.0955
  418MOL0     H57617   8.677   6.453   6.403  0.1487 -0.0014  0.8114
  418MOL0     H57618   8.748   6.537   6.538  1.7523  0.5006 -2.8678
  418MOL0     H57619   8.718   6.345   6.680  0.7330  1.3656  0.8514
  418MOL0     H57620   8.573   6.400   6.613  1.8327  0.7855  4.1622
  418MOL0     H57621   8.528   6.193   6.551  0.0749 -0.1100 -2.2372
  418MOL0     H57622   8.625   6.225   6.414  1.1382 -1.4021 -0.5712
  418MOL0     H57623   8.834   6.163   6.579 -0.6013  1.7628  1.0968
  418MOL0     H57624   8.711   6.109   6.680  1.4758  1.5059  1.2078
  418MOL0     H57625   8.745   6.000   6.407 -2.9224  1.2756 -0.0686
  418MOL0     H57626   8.645   5.927   6.539 -0.4024 -3.3619 -2.3541
  418MOL0     H57627   8.933   5.981   6.539  2.4525 -2.6719  0.9261
  418MOL0     H57628   8.856   5.919   6.685  2.0177 -2.2594  0.3862
  418MOL0     H57629   8.783   5.730   6.531 -1.3114  1.5062 -0.6744
  418MOL0     H57630   8.960   5.757   6.585  0.4969  4.3783  2.5165
  418MOL0     H57631   8.862   5.816   6.309 -1.5413 -0.9505  0.1249
  418MOL0     H57632   9.035   5.807   6.373 -0.3604 -0.1996 -3.4702
  418MOL0     H57633   9.139   5.567   6.366  1.1207 -1.4653 -1.0985
  418MOL0     H57634   9.154   5.309   6.310 -1.1541  1.3381 -0.3328
  418MOL0     H57635   9.041   5.266   6.197  1.9689  2.7731 -0.6431
  418MOL0     H57636   9.009   5.195   6.500  3.7439  1.5338  0.1062
  418MOL0     H57637   8.906   5.152   6.352 -0.8564  3.2698 -1.0029
  418MOL0     H57638   9.098   5.032   6.247 -0.5006  1.8024 -0.7006
  418MOL0     H57639   9.209   5.078   6.368  0.8306 -0.0727  1.4790
  418MOL0     H57640   9.082   4.958   6.538 -1.0665 -0.3898  1.1606
  418MOL0     H57641   8.946   4.925   6.430  0.4494 -5.7476  0.9156
  418MOL0     H57642   9.309   4.746   6.246 -0.0164  1.2607  0.8190
  418MOL0     H57643   9.646   4.626   6.333  0.0909 -0.2934 -0.4882
  418MOL0     H57644   9.537   4.692   6.220 -0.7241  2.5716  3.1491
  418MOL0     H57645   9.528   4.521   6.264 -0.5169 -0.0873 -0.6822
  418MOL0     H57646   9.810   4.608   6.711  1.0032 -2.7946 -0.2780
  418MOL0     H57647   9.980   4.513   6.855  0.3781 -0.5043  2.5135
  418MOL0     H57648   9.932   4.163   7.018 -1.4027  0.2372  2.3268
  418MOL0     H57649  10.055   4.258   6.928  2.5757 -2.9994  1.3325
  418MOL0     H57650  10.062   4.153   7.211  2.8354  2.0444  2.0475
  418MOL0     H57651  10.159   4.099   7.085 -1.1435  0.2648 -1.2360
  418MOL0     H57652  10.190   4.327   7.261  2.8426 -0.1237  1.6879
  418MOL0     H57653  10.167   4.406   7.100  1.4688  1.3059  2.3388
  418MOL0     H57654  10.369   4.182   7.147  1.1899 -0.2218  2.1163
  418MOL0     H57655  10.402   4.340   7.203 -2.0734  1.3561  1.2139
  418MOL0     H57656  10.345   4.284   6.906 -1.3509 -0.4022  1.2045
  418MOL0     H57657  10.384   4.437   6.975  0.0987 -0.1315 -2.8630
  418MOL0     H57658  10.580   4.209   6.981 -0.1745  0.7528 -1.3257
  418MOL0     H57659  10.604   4.347   7.084  0.1259 -0.8606  0.4941
  418MOL0     H57660  10.583   4.502   6.888  1.1614  0.5930 -1.1347
  418MOL0     H57661  10.601   4.359   6.777 -0.7794 -2.0649 -0.3029
  418MOL0     H57662  10.808   4.443   6.976 -2.5203  2.2780 -0.3257
  418MOL0     H57663  10.800   4.476   6.800  1.5959  0.3595  1.2879
  418MOL0     H57664   9.685   4.321   7.106  1.3638 -4.8425 -2.0040
  418MOL0     H57665   9.503   4.459   6.963 -1.2963  2.4038 -4.2504
  418MOL0     H57666   9.316   4.628   6.723 -1.0815  2.8845  1.5185
  418MOL0     H57667   9.123   4.742   6.634 -0.5174  1.3398 -0.4209
  418MOL0     H57668   9.095   6.284   6.416  2.5082 -0.1873 -0.2502
  418MOL0     H57669   9.286   6.406   6.302 -0.4406 -1.8427  2.2215
  418MOL0     H57670   9.527   6.665   6.128  2.2581  2.1570  1.6402
  418MOL0     H57671   9.708   6.765   6.027 -1.2131  0.9117  1.7124
  418MOL0     H57672   9.648   6.862   5.582 -2.8323  1.4421  4.0770
  418MOL0     H57673   9.820   6.846   5.613 -0.0720 -0.2908  0.4488
  418MOL0     H57674   9.744   6.620   5.545  2.6428  1.7717 -0.3222
  418MOL0     H57675   9.635   6.618   5.682 -1.4580  1.7866 -2.2371
  418MOL0     H57676   9.936   6.622   5.676  2.1416  0.3879  1.9849
  418MOL0     H57677   9.844   6.657   5.823  3.4051  1.4684 -1.3351
  418MOL0     H57678   9.713   6.446   5.803 -0.5046 -0.4179  1.2948
  418MOL0     H57679   9.888   6.420   5.825 -0.8967  3.9551  3.1295
  418MOL0     H57680   9.768   6.270   5.437 -0.5800  0.0104 -0.3751
  418MOL0     H57681   9.459   6.884   5.690 -2.6565 -4.0576 -0.8047
  418MOL0     H57682   9.185   6.727   5.748  1.1661 -0.8458  0.9828
  418MOL0     H57683   9.169   6.856   5.881 -0.8863 -1.3542  0.6418
  418MOL0     H57684   9.234   6.895   5.717  1.9918 -2.1688 -1.2918
  419MOL0     O57685   0.712   4.766   7.136  0.4313  0.3296  0.1528
  419MOL0     C57686   0.780   4.822   7.051  1.0912 -0.3408 -0.0246
  419MOL0     O57687   0.750   4.836   6.918 -0.2670 -0.3446 -0.2211
  419MOL0     C57688   0.650   4.762   6.873  0.8543 -0.0805 -0.5846
  419MOL0     C57689   0.686   4.677   6.770 -0.2646  0.4892 -0.4648
  419MOL0     C57690   0.595   4.608   6.702 -0.1644 -0.1869 -0.5856
  419MOL0     C57691   0.462   4.621   6.746  0.2488 -0.6651 -0.7293
  419MOL0     O57692   0.354   4.551   6.689 -0.1086 -0.4929  0.1137
  419MOL0     C57693   0.354   4.526   6.547  0.1423 -1.2764  0.7636
  419MOL0     C57694   0.290   4.393   6.500  0.8454  0.1252 -0.2517
  419MOL0     C57695   0.392   4.283   6.513  0.2858 -0.1523  0.6518
  419MOL0     C57696   0.347   4.140   6.469 -0.6224 -0.9684  0.4639
  419MOL0     C57697   0.435   4.017   6.508  0.4570 -0.8029  0.3635
  419MOL0     C57698   0.430   3.993   6.661  0.7490  0.7567 -0.0316
  419MOL0     C57699   0.464   3.843   6.696 -0.4886  0.8687 -0.1160
  419MOL0     C57700   0.616   3.819   6.698  0.2403 -0.6753 -0.6331
  419MOL0     N57701   0.652   3.691   6.763  0.1292 -0.7462  0.0194
  419MOL0     C57702   0.722   3.593   6.697 -0.6764 -0.3532 -0.1891
  419MOL0     C57703   0.755   3.508   6.800 -0.3651 -0.6058 -0.2039
  419MOL0     C57704   0.853   3.392   6.788  0.9546  0.2129  0.1700
  419MOL0     C57705   0.994   3.427   6.716  0.0050  0.7111 -0.1606
  419MOL0     C57706   1.101   3.480   6.809 -0.6044 -0.3651  1.0505
  419MOL0     C57707   1.070   3.600   6.895 -0.1513 -0.3685 -0.7896
  419MOL0     O57708   1.179   3.609   6.988 -0.0306  0.5883  0.6999
  419MOL0     C57709   1.148   3.663   7.104  0.1120  0.5978 -0.1914
  419MOL0     C57710   1.022   3.706   7.156 -0.2574 -0.0036 -0.4200
  419MOL0     C57711   1.007   3.766   7.284  0.2637 -0.7340  1.0055
  419MOL0     C57712   0.889   3.849   7.314  0.0640 -1.1329  0.0028
  419MOL0     C57713   1.118   3.763   7.364  0.0616 -0.7478  0.4769
  419MOL0     C57714   1.107   3.811   7.495 -0.0815  0.7525 -0.9582
  419MOL0     O57715   1.114   3.702   7.587  0.6588  0.1074 -0.1482
  419MOL0     C57716   1.081   3.728   7.721 -0.3400  0.7538 -0.2531
  419MOL0     C57717   1.170   3.680   7.820 -0.6240 -0.4437  0.1326
  419MOL0     C57718   1.137   3.683   7.959  0.3588 -0.0661  0.2473
  419MOL0     C57719   1.018   3.746   7.993 -0.0222 -0.1601  0.4372
  419MOL0     O57720   0.979   3.763   8.123  0.0566 -0.4166  0.1834
  419MOL0     C57721   1.069   3.832   8.205  0.0490 -0.0431 -0.3253
  419MOL0     C57722   1.102   3.756   8.330 -0.1467 -1.1881 -0.6641
  419MOL0     C57723   0.991   3.789   8.427  0.8409 -0.1674  0.0276
  419MOL0     C57724   1.015   3.730   8.563 -0.7168  1.2221  0.2918
  419MOL0     C57725   0.884   3.755   8.659 -0.0403  0.4576 -0.1663
  419MOL0     C57726   0.750   3.698   8.605  0.9471 -0.3466  0.3634
  419MOL0     C57727   0.643   3.691   8.712  0.3186  0.7902 -0.3948
  419MOL0     C57728   0.611   3.821   8.779 -0.2820 -0.1295 -0.5194
  419MOL0    Cl57729   0.708   3.834   8.939 -0.6631 -0.0884  0.9336
  419MOL0     C57730   0.922   3.789   7.897 -0.1447  0.1795 -0.1003
  419MOL0     C57731   0.959   3.782   7.762 -0.5564 -0.0446 -0.2514
  419MOL0     O57732   1.085   3.932   7.518  0.0266 -0.1282 -0.0878
  419MOL0     C57733   1.234   3.698   7.323 -0.1337 -0.7082 -0.8174
  419MOL0     C57734   1.245   3.647   7.202 -0.7185 -0.1224  1.2019
  419MOL0     N57735   0.696   3.549   6.916 -0.4726 -0.4711 -0.2140
  419MOL0     N57736   0.635   3.659   6.893 -0.2603 -0.8959  0.0937
  419MOL0     C57737   0.415   4.704   6.846  0.2702  0.8078 -0.0668
  419MOL0     C57738   0.511   4.777   6.915  0.0012  0.4606  0.0218
  419MOL0     C57739   0.914   4.876   7.109  0.4968 -0.3400 -0.6383
  419MOL0     C57740   1.032   4.880   7.032  0.0477 -0.1576  1.4555
  419MOL0     C57741   1.156   4.927   7.065  0.1742 -0.3782  0.0905
  419MOL0     C57742   1.168   4.959   7.195  0.4423 -0.6250 -0.2288
  419MOL0     O57743   1.287   5.023   7.239 -0.5228 -0.4587  0.2625
  419MOL0     C57744   1.304   5.149   7.185 -0.2978  0.2028  1.1264
  419MOL0     C57745   1.448   5.181   7.136  0.4799  0.3457  0.2386
  419MOL0     C57746   1.483   5.123   6.999  0.3674 -0.1357  0.7943
  419MOL0     C57747   1.583   5.203   6.919 -1.4896 -0.4601 -0.2236
  419MOL0     C57748   1.610   5.151   6.785  0.1766  0.0688 -0.1793
  419MOL0     C57749   1.620   5.103   6.673 -0.1391 -0.4661  0.5644
  419MOL0     C57750   1.062   4.974   7.279  0.5551 -0.4097 -0.1614
  419MOL0     C57751   0.930   4.934   7.239  1.2065 -0.3419 -0.3616
  419MOL0     C57752   0.816   4.954   7.343  0.6269 -0.4873 -0.1372
  419MOL0     H57753   0.785   4.676   6.726  0.1484  1.8503  0.3735
  419MOL0     H57754   0.630   4.569   6.607 -1.7968  2.7786 -2.5779
  419MOL0     H57755   0.451   4.547   6.501  0.7559 -3.2970  1.0370
  419MOL0     H57756   0.291   4.607   6.510  1.7691 -0.4049 -0.2113
  419MOL0     H57757   0.206   4.359   6.561  1.0353  0.1499  0.0257
  419MOL0     H57758   0.258   4.400   6.396  1.8838 -1.5088 -0.7188
  419MOL0     H57759   0.463   4.328   6.443 -0.3816 -1.0798 -0.6762
  419MOL0     H57760   0.429   4.261   6.613 -2.7133 -3.8329  1.1741
  419MOL0     H57761   0.246   4.119   6.505 -0.6243 -0.8581  0.5232
  419MOL0     H57762   0.348   4.143   6.360  2.4637  1.1671  0.4083
  419MOL0     H57763   0.540   4.031   6.480  0.3373  2.6262  1.2351
  419MOL0     H57764   0.394   3.930   6.456  1.0923 -0.1216 -1.3451
  419MOL0     H57765   0.502   4.059   6.710 -3.1874  4.2806  1.5950
  419MOL0     H57766   0.332   4.028   6.695  0.4558  1.0206 -1.1107
  419MOL0     H57767   0.404   3.769   6.642  2.7516 -0.9884 -1.4415
  419MOL0     H57768   0.438   3.832   6.802  0.9052  1.9964  0.3739
  419MOL0     H57769   0.636   3.827   6.591 -0.6086 -0.5409 -0.7922
  419MOL0     H57770   0.676   3.893   6.753  2.1056 -2.6023  0.0395
  419MOL0     H57771   0.757   3.596   6.595 -2.1077  0.1039 -0.6862
  419MOL0     H57772   0.791   3.326   6.727  0.2068  1.0105  0.0473
  419MOL0     H57773   0.872   3.356   6.890 -2.1994 -0.2043  0.6922
  419MOL0     H57774   1.039   3.332   6.684 -1.0095 -0.2545  1.1660
  419MOL0     H57775   0.984   3.484   6.623 -3.6667  0.6647  0.0616
  419MOL0     H57776   1.138   3.400   6.874  0.1662  0.7994  2.0722
  419MOL0     H57777   1.180   3.522   6.746 -2.4999  0.8893 -0.6079
  419MOL0     H57778   1.065   3.693   6.838 -0.3486 -0.3396 -0.7275
  419MOL0     H57779   0.975   3.578   6.946  1.5108  1.2505  3.4650
  419MOL0     H57780   0.944   3.726   7.083  0.2063  2.0043 -0.4243
  419MOL0     H57781   0.905   3.956   7.294 -0.3624 -0.7453  1.6193
  419MOL0     H57782   0.864   3.835   7.419  2.8659  1.5454  1.1800
  419MOL0     H57783   0.814   3.803   7.248  0.8664  2.2028 -3.6525
  419MOL0     H57784   1.270   3.645   7.795  0.8696 -1.1526  5.6746
  419MOL0     H57785   1.207   3.638   8.029  1.1209 -0.7618 -0.9372
  419MOL0     H57786   1.160   3.864   8.154 -0.1166 -0.1602 -0.7004
  419MOL0     H57787   1.027   3.928   8.237 -0.7734  0.3172 -2.3452
  419MOL0     H57788   1.108   3.651   8.299  0.2470 -1.1013 -0.8928
  419MOL0     H57789   1.196   3.792   8.372 -2.0989  6.2417 -1.3694
  419MOL0     H57790   0.896   3.758   8.381  1.6678 -0.6386 -1.4397
  419MOL0     H57791   0.979   3.896   8.444  3.5188  0.3308 -0.7373
  419MOL0     H57792   1.102   3.767   8.618 -0.9283 -0.1663  1.6388
  419MOL0     H57793   1.030   3.624   8.542 -2.5228  1.1651 -0.9658
  419MOL0     H57794   0.909   3.702   8.751  0.1076 -0.4084 -0.6886
  419MOL0     H57795   0.874   3.863   8.672 -0.0165  0.5444 -0.8131
  419MOL0     H57796   0.765   3.601   8.558 -0.9381 -1.4243  1.8062
  419MOL0     H57797   0.730   3.777   8.532  2.0094 -0.7736 -0.4059
  419MOL0     H57798   0.676   3.625   8.793  1.9557  2.5268  0.4235
  419MOL0     H57799   0.550   3.650   8.670  1.1490 -1.6552 -0.0154
  419MOL0     H57800   0.505   3.815   8.806  0.1826 -0.3781  1.4010
  419MOL0     H57801   0.626   3.915   8.725  0.3862  1.0697  1.6248
  419MOL0     H57802   0.823   3.820   7.928 -0.4299 -0.6109 -0.2216
  419MOL0     H57803   0.885   3.801   7.685  0.5996 -1.5749 -1.8092
  419MOL0     H57804   1.321   3.679   7.386  1.5107 -3.7740 -3.7209
  419MOL0     H57805   1.325   3.589   7.158 -1.5084  0.9062 -1.8150
  419MOL0     H57806   0.309   4.701   6.870  0.4080 -4.7594  1.2971
  419MOL0     H57807   0.478   4.841   6.996 -4.1476 -0.1722 -0.9414
  419MOL0     H57808   1.014   4.860   6.927  0.2554  1.9898  0.9571
  419MOL0     H57809   1.241   4.928   6.998  1.5994 -2.0692  1.7476
  419MOL0     H57810   1.245   5.158   7.093  0.8715 -2.9050 -0.0613
  419MOL0     H57811   1.280   5.221   7.264 -1.7673 -2.5505  3.3409
  419MOL0     H57812   1.516   5.157   7.218 -2.1046  1.4229  2.9179
  419MOL0     H57813   1.460   5.290   7.142 -1.1104  0.4979  1.4371
  419MOL0     H57814   1.524   5.022   7.006  0.5868 -0.2476 -1.2680
  419MOL0     H57815   1.400   5.116   6.927 -0.0621  1.2751  1.1369
  419MOL0     H57816   1.677   5.200   6.975 -2.1143 -1.6288  0.8067
  419MOL0     H57817   1.546   5.306   6.918  1.1523  0.6420  2.1774
  419MOL0     H57818   1.594   5.061   6.578  0.5232 -1.2431  0.7167
  419MOL0     H57819   1.076   5.003   7.383 -2.3541  0.6307  0.0183
  419MOL0     H57820   0.810   4.861   7.400  0.1490 -0.1329  0.4029
  419MOL0     H57821   0.834   5.031   7.419  0.7486 -0.6766  0.0276
  419MOL0     H57822   0.719   4.967   7.294  0.2805  0.0345  0.6708
  420MOL0     O57823   6.489   5.193   0.727 -0.0418 -0.0081 -0.3498
  420MOL0     C57824   6.605   5.175   0.687 -0.3409  0.3140  0.1725
  420MOL0     O57825   6.643   5.131   0.556  0.1302  0.4553 -0.1782
  420MOL0     C57826   6.567   5.051   0.490 -0.9403  0.4137  0.1288
  420MOL0     C57827   6.481   5.101   0.397 -0.3646 -0.3397 -0.1775
  420MOL0     C57828   6.399   5.014   0.326 -0.8472 -0.4015 -0.0334
  420MOL0     C57829   6.412   4.873   0.341  0.4218  0.0238  0.1587
  420MOL0     O57830   6.330   4.781   0.274  0.8213  0.2216 -0.2482
  420MOL0     C57831   6.363   4.642   0.269 -0.5872  1.0008  0.2110
  420MOL0     C57832   6.314   4.572   0.139  0.5739  0.6646 -0.3679
  420MOL0     C57833   6.347   4.649   0.007 -0.3253 -0.1487 -0.9702
  420MOL0     C57834   6.348   4.560  -0.111 -0.5783 -0.2594  0.8522
  420MOL0     C57835   6.430   4.625  -0.225  0.7720 -0.7648  0.0281
  420MOL0     C57836   6.387   4.765  -0.275  0.0161 -0.2393 -0.2549
  420MOL0     C57837   6.242   4.772  -0.327  0.2945  0.0802 -0.4088
  420MOL0     C57838   6.248   4.702  -0.463  0.5616  0.2087 -0.1153
  420MOL0     N57839   6.112   4.732  -0.513  0.5494  0.6413 -0.9351
  420MOL0     C57840   6.075   4.839  -0.601  0.0080 -0.0098  1.4857
  420MOL0     C57841   5.951   4.824  -0.643 -0.2119  0.2600 -1.0057
  420MOL0     C57842   5.857   4.898  -0.725 -0.2996 -0.1311 -0.1305
  420MOL0     C57843   5.725   4.936  -0.664  0.1582  0.2958  0.2875
  420MOL0     C57844   5.628   4.985  -0.776  0.0223 -0.7612  0.1738
  420MOL0     C57845   5.482   5.000  -0.711 -0.0114  0.9534  0.1006
  420MOL0     O57846   5.490   5.084  -0.603 -0.0869 -0.0242  0.0797
  420MOL0     C57847   5.362   5.106  -0.540  0.0490 -0.1775 -0.0358
  420MOL0     C57848   5.356   5.197  -0.434 -0.8054  0.5227 -0.6063
  420MOL0     C57849   5.238   5.217  -0.360  0.5482  0.0558  0.6985
  420MOL0     C57850   5.255   5.309  -0.253  0.0829  0.3453 -0.7082
  420MOL0     C57851   5.126   5.143  -0.389  0.1989  0.2979  1.3352
  420MOL0     C57852   4.995   5.148  -0.319  1.3107 -0.3400 -0.9375
  420MOL0     O57853   4.896   5.053  -0.365 -0.7810  0.3497 -0.3620
  420MOL0     C57854   4.765   5.052  -0.328 -0.3163  0.3597 -0.1094
  420MOL0     C57855   4.692   4.947  -0.389 -0.1537  0.4906  0.0545
  420MOL0     C57856   4.551   4.936  -0.361 -0.6057 -0.8821  0.5382
  420MOL0     C57857   4.477   5.030  -0.285 -1.1712  0.2618  0.5577
  420MOL0     O57858   4.341   5.023  -0.265 -0.0619  0.1868 -0.2082
  420MOL0     C57859   4.285   4.890  -0.270  0.8419  0.8722 -0.3193
  420MOL0     C57860   4.134   4.918  -0.235 -0.2389 -0.0668  1.3881
  420MOL0     C57861   4.081   4.818  -0.129 -0.0502  0.1618 -0.3783
  420MOL0     C57862   3.938   4.869  -0.085 -0.2680  0.1440  0.0420
  420MOL0     C57863   3.879   4.796   0.035 -0.8919 -0.2768 -0.4313
  420MOL0     C57864   3.882   4.650   0.019  1.2978  0.0089 -0.1943
  420MOL0     C57865   3.815   4.590   0.142  0.3033 -0.8131  0.0956
  420MOL0     C57866   3.784   4.440   0.118 -0.0287 -0.1635 -0.0181
  420MOL0    Cl57867   3.616   4.401   0.080  0.2509  0.2696  0.4727
  420MOL0     C57868   4.557   5.135  -0.227  0.3187 -0.1441 -0.4620
  420MOL0     C57869   4.692   5.136  -0.238  0.2039  0.4715  1.0435
  420MOL0     O57870   4.975   5.233  -0.226 -0.3944 -0.1061  0.3673
  420MOL0     C57871   5.134   5.047  -0.500  0.5106 -1.2892  0.6527
  420MOL0     C57872   5.246   5.034  -0.572  1.0830  0.6695  0.0758
  420MOL0     N57873   5.904   4.704  -0.582 -0.0716  0.2208 -0.7550
  420MOL0     N57874   6.000   4.649  -0.506  0.4964 -0.1908  0.1160
  420MOL0     C57875   6.489   4.824   0.450 -0.5817  0.8596 -0.0889
  420MOL0     C57876   6.570   4.906   0.528 -0.3225 -0.4780  0.8771
  420MOL0     C57877   6.713   5.190   0.782  0.5879 -0.1517 -0.3460
  420MOL0     C57878   6.841   5.223   0.742 -0.6836 -0.1044  0.8864
  420MOL0     C57879   6.943   5.249   0.835  0.4172 -0.1533 -1.0941
  420MOL0     C57880   6.939   5.223   0.970 -0.4764 -0.2042 -0.5098
  420MOL0     O57881   7.049   5.210   1.060 -0.3821 -1.2811  0.3199
  420MOL0     C57882   7.181   5.220   1.003  0.1068  0.5481  0.0845
  420MOL0     C57883   7.286   5.175   1.094  0.2090  0.7412  0.9619
  420MOL0     C57884   7.294   5.241   1.227 -0.3854 -0.3007 -0.2214
  420MOL0     C57885   7.412   5.189   1.300  0.0575 -0.3092 -0.3453
  420MOL0     C57886   7.536   5.256   1.257 -0.5454  0.3081  0.5640
  420MOL0     C57887   7.633   5.321   1.220 -0.7987 -0.5366 -1.1580
  420MOL0     C57888   6.806   5.192   1.013  0.3144  0.1574 -0.3415
  420MOL0     C57889   6.694   5.176   0.924 -1.1844 -0.0300 -0.9928
  420MOL0     C57890   6.564   5.135   0.991  0.3677 -0.3578 -0.1737
  420MOL0     H57891   6.484   5.209   0.380  0.6997 -0.5512 -1.5511
  420MOL0     H57892   6.315   5.046   0.265 -1.4928 -0.8570  0.6041
  420MOL0     H57893   6.328   4.600   0.364  0.0922  1.8459  0.8533
  420MOL0     H57894   6.472   4.635   0.265 -0.6883 -0.5120 -1.9310
  420MOL0     H57895   6.369   4.479   0.122  0.7539  0.7237 -0.1039
  420MOL0     H57896   6.207   4.549   0.137  0.8336 -0.7021 -2.4433
  420MOL0     H57897   6.292   4.743  -0.004  0.2304  1.0938  4.4032
  420MOL0     H57898   6.447   4.689   0.024 -1.2937  1.2935  1.8699
  420MOL0     H57899   6.393   4.466  -0.077 -0.7592 -1.2820 -1.5344
  420MOL0     H57900   6.251   4.540  -0.157  1.6745 -1.5947 -3.9673
  420MOL0     H57901   6.422   4.558  -0.311  0.0610  0.0126 -0.5237
  420MOL0     H57902   6.536   4.628  -0.197  1.1995  1.1566 -1.5533
  420MOL0     H57903   6.401   4.835  -0.192  3.2831  0.6811 -1.4312
  420MOL0     H57904   6.465   4.781  -0.350  2.5808 -3.7959  1.3378
  420MOL0     H57905   6.210   4.877  -0.325 -0.9848 -0.3082  0.6179
  420MOL0     H57906   6.165   4.727  -0.265 -0.9699  0.4758 -1.6276
  420MOL0     H57907   6.325   4.742  -0.530  0.7374  3.0394  1.6014
  420MOL0     H57908   6.253   4.593  -0.464 -2.0270 -0.1586  3.8510
  420MOL0     H57909   6.132   4.921  -0.644 -0.4553 -0.5434 -0.2038
  420MOL0     H57910   5.836   4.846  -0.819  2.8750 -0.9658 -0.4995
  420MOL0     H57911   5.905   4.990  -0.760 -1.8936  1.3865  1.4879
  420MOL0     H57912   5.677   4.855  -0.609  0.0362  2.0778  3.0268
  420MOL0     H57913   5.729   5.010  -0.583  0.7160  0.1036  0.4449
  420MOL0     H57914   5.660   5.084  -0.810  1.9543 -1.9162 -1.5926
  420MOL0     H57915   5.628   4.911  -0.857 -2.2573 -0.9060  0.2435
  420MOL0     H57916   5.424   5.044  -0.792 -2.1296 -1.8660 -0.0718
  420MOL0     H57917   5.445   4.900  -0.686 -0.7832  1.4469  0.9845
  420MOL0     H57918   5.455   5.236  -0.416 -0.4315 -0.9189  0.7102
  420MOL0     H57919   5.223   5.410  -0.280  1.0684  0.3960 -1.7372
  420MOL0     H57920   5.360   5.307  -0.223  0.2452 -2.0467 -1.2393
  420MOL0     H57921   5.203   5.277  -0.162 -0.2705  1.1971 -0.6064
  420MOL0     H57922   4.745   4.885  -0.460  0.7125  2.6966 -1.3031
  420MOL0     H57923   4.499   4.855  -0.411  1.7832 -2.7527  0.8694
  420MOL0     H57924   4.282   4.843  -0.368  0.7799 -0.1655  0.1662
  420MOL0     H57925   4.322   4.818  -0.197  0.3369  0.5005 -0.4267
  420MOL0     H57926   4.128   5.020  -0.194  0.1865 -0.6013  2.8531
  420MOL0     H57927   4.072   4.919  -0.325  2.0233  0.4702 -0.2586
  420MOL0     H57928   4.139   4.807  -0.037 -1.9938  1.1715  1.0446
  420MOL0     H57929   4.068   4.720  -0.177  1.6156 -0.6801  0.7715
  420MOL0     H57930   3.876   4.858  -0.175  1.5791  1.6766 -1.5085
  420MOL0     H57931   3.950   4.976  -0.064  1.9176  0.0081 -0.2614
  420MOL0     H57932   3.929   4.828   0.127 -2.0137  3.5540 -0.9934
  420MOL0     H57933   3.777   4.831   0.050 -0.9623 -0.9898  1.0148
  420MOL0     H57934   3.984   4.611   0.014  0.0607 -3.5575 -0.6027
  420MOL0     H57935   3.837   4.612  -0.073 -0.4315 -2.6446  1.5940
  420MOL0     H57936   3.723   4.646   0.161 -1.6013 -2.2125 -3.9204
  420MOL0     H57937   3.882   4.597   0.229 -0.9968  3.2123  0.9860
  420MOL0     H57938   3.801   4.381   0.208 -0.1200 -0.1759 -0.0088
  420MOL0     H57939   3.840   4.403   0.032 -0.4164 -1.7233  0.3683
  420MOL0     H57940   4.517   5.219  -0.170 -0.3391  0.0499 -1.1897
  420MOL0     H57941   4.737   5.223  -0.192 -0.9056  0.7472  1.6259
  420MOL0     H57942   5.059   4.979  -0.537  0.0210 -0.3912 -0.0188
  420MOL0     H57943   5.244   4.956  -0.648  2.8890 -0.0768  0.7308
  420MOL0     H57944   6.500   4.719   0.476 -2.2241  0.7842  0.4469
  420MOL0     H57945   6.628   4.875   0.615 -0.1369  0.5839  1.1507
  420MOL0     H57946   6.874   5.242   0.640  1.9074  0.0155  1.6759
  420MOL0     H57947   7.037   5.280   0.791 -0.0280  2.1471 -0.5370
  420MOL0     H57948   7.190   5.147   0.922  0.2176  0.9493 -0.2649
  420MOL0     H57949   7.208   5.318   0.962  1.8462 -0.1744 -0.6192
  420MOL0     H57950   7.380   5.173   1.037 -1.8936  3.0733 -3.0789
  420MOL0     H57951   7.267   5.070   1.117  0.1049  0.8011  1.1494
  420MOL0     H57952   7.305   5.347   1.200  0.5652 -0.3275  0.0419
  420MOL0     H57953   7.201   5.233   1.285  0.7709  1.3340  2.0106
  420MOL0     H57954   7.416   5.080   1.306 -2.3717 -0.3899  1.1452
  420MOL0     H57955   7.407   5.225   1.404  0.9565  2.6528 -1.2195
  420MOL0     H57956   7.720   5.366   1.176 -1.4670  1.1792 -0.8311
  420MOL0     H57957   6.805   5.174   1.120 -2.3512  1.6489 -0.0375
  420MOL0     H57958   6.565   5.131   1.100 -5.3753  2.7357  0.3738
  420MOL0     H57959   6.503   5.223   0.969  0.3275 -0.1303  0.8098
  420MOL0     H57960   6.520   5.046   0.945 -0.7856 -0.6967  1.4884
  421MOL0     O57961   0.198   6.425   3.568  0.4040 -0.1255  0.1482
  421MOL0     C57962   0.226   6.319   3.611 -0.0987  0.6900  0.6073
  421MOL0     O57963   0.265   6.296   3.744 -0.2643 -0.8210  0.5359
  421MOL0     C57964   0.269   6.407   3.827  0.0815 -0.1312  1.3065
  421MOL0     C57965   0.174   6.448   3.925  0.6050  0.6906 -0.6620
  421MOL0     C57966   0.194   6.557   4.006 -0.9027 -1.0177  0.4228
  421MOL0     C57967   0.316   6.634   3.999  0.6849 -0.9842  0.2777
  421MOL0     O57968   0.311   6.743   4.088 -0.5097 -0.4789  0.2198
  421MOL0     C57969   0.410   6.840   4.063 -0.5254 -0.1895 -0.8995
  421MOL0     C57970   0.459   6.891   4.198  1.0993 -1.2773 -0.2812
  421MOL0     C57971   0.512   6.786   4.289 -0.1247  0.0669 -0.8043
  421MOL0     C57972   0.635   6.706   4.227  0.8367  0.5117  0.3300
  421MOL0     C57973   0.709   6.631   4.334 -0.5010  0.2298 -0.1833
  421MOL0     C57974   0.828   6.565   4.264 -0.5572  0.0817 -0.0580
  421MOL0     C57975   0.933   6.497   4.361 -0.1849  0.1817  0.4396
  421MOL0     C57976   1.034   6.404   4.281  0.7160 -0.0087 -1.0032
  421MOL0     N57977   1.115   6.326   4.373  0.4958  0.5768  0.4284
  421MOL0     C57978   1.128   6.185   4.368 -0.3997  0.4963  0.3854
  421MOL0     C57979   1.202   6.164   4.479  0.7647 -1.1130  0.1919
  421MOL0     C57980   1.246   6.035   4.535  0.2396  0.4865  0.2315
  421MOL0     C57981   1.181   6.027   4.661 -0.4010  0.0415  0.7415
  421MOL0     C57982   1.218   5.886   4.713  0.2498 -0.2196  0.1122
  421MOL0     C57983   1.372   5.865   4.743  0.6369  0.5200 -0.5433
  421MOL0     O57984   1.392   5.735   4.800 -0.5755 -0.0677 -0.9143
  421MOL0     C57985   1.508   5.705   4.873 -0.6412 -0.3483  1.1735
  421MOL0     C57986   1.514   5.572   4.910  1.1688 -0.9362 -0.1969
  421MOL0     C57987   1.623   5.517   4.966 -0.7232 -0.3095 -0.7300
  421MOL0     C57988   1.628   5.371   5.002  0.3363  0.3004 -0.4035
  421MOL0     C57989   1.727   5.602   5.008 -0.4495  0.7254 -0.4306
  421MOL0     C57990   1.858   5.568   5.081  0.5469  0.1049  0.0684
  421MOL0     O57991   1.854   5.469   5.175  0.0326 -0.9060 -0.2136
  421MOL0     C57992   1.977   5.428   5.217 -0.4566  0.6078  0.2543
  421MOL0     C57993   2.081   5.504   5.266 -0.1029 -0.0001 -0.2344
  421MOL0     C57994   2.205   5.445   5.295 -0.5250  0.8847  0.4938
  421MOL0     C57995   2.224   5.306   5.290  0.3851 -0.1970 -0.8131
  421MOL0     O57996   2.353   5.252   5.318  0.5874  0.1829  0.8108
  421MOL0     C57997   2.396   5.128   5.259  1.6281  0.2262 -1.0574
  421MOL0     C57998   2.406   5.137   5.105 -0.1957 -0.4442 -0.5301
  421MOL0     C57999   2.439   4.992   5.049 -0.1107 -0.2588  1.3286
  421MOL0     C58000   2.588   4.954   5.061 -0.2267 -0.7781 -0.0588
  421MOL0     C58001   2.613   4.813   5.027 -0.2445 -0.5062  0.3543
  421MOL0     C58002   2.764   4.767   5.019 -0.2907  0.3675  0.8836
  421MOL0     C58003   2.804   4.625   4.986 -0.6475  0.0810 -0.0242
  421MOL0     C58004   2.956   4.603   5.019 -0.2504  0.2432  0.3737
  421MOL0    Cl58005   3.067   4.722   4.934  0.2917  0.0255  0.1032
  421MOL0     C58006   2.113   5.226   5.246  0.4046  0.2169  0.8555
  421MOL0     C58007   1.994   5.286   5.209 -0.1633  0.1569  0.5274
  421MOL0     O58008   1.956   5.637   5.052 -0.0179  0.1020 -0.5242
  421MOL0     C58009   1.720   5.739   4.965 -0.6775  0.7798 -0.1708
  421MOL0     C58010   1.616   5.793   4.895 -0.4100  0.7606 -0.0672
  421MOL0     N58011   1.240   6.283   4.526 -0.8159  0.4229 -0.3467
  421MOL0     N58012   1.197   6.378   4.465  0.4232 -1.0456  0.8723
  421MOL0     C58013   0.410   6.609   3.894 -0.6858  0.1508 -0.0582
  421MOL0     C58014   0.386   6.498   3.808 -0.1131  0.8091  0.5610
  421MOL0     C58015   0.217   6.208   3.524  0.3210 -0.6452 -0.3221
  421MOL0     C58016   0.100   6.198   3.447  0.1744 -0.4860  0.5500
  421MOL0     C58017   0.073   6.093   3.364  0.6042  0.4075  0.2360
  421MOL0     C58018   0.173   5.994   3.348  0.4819 -0.0115  0.1058
  421MOL0     O58019   0.175   5.890   3.261 -0.2666 -0.6888  0.1936
  421MOL0     C58020   0.084   5.890   3.147  0.0845 -0.2612 -0.5737
  421MOL0     C58021  -0.053   5.822   3.181  0.0251 -0.7786 -0.5532
  421MOL0     C58022  -0.142   5.791   3.067 -0.0774 -0.3638  0.3621
  421MOL0     C58023  -0.196   5.905   2.981 -0.0020 -0.0262 -0.2887
  421MOL0     C58024  -0.311   5.874   2.900  0.2740  0.3036  0.6723
  421MOL0     C58025  -0.414   5.857   2.833  0.7992 -0.2551 -0.1322
  421MOL0     C58026   0.283   6.004   3.433 -0.1498 -0.0824 -0.4572
  421MOL0     C58027   0.305   6.102   3.520  0.3048 -0.5249  0.3336
  421MOL0     C58028   0.423   6.105   3.612 -0.2083 -0.1415  0.1032
  421MOL0     H58029   0.081   6.392   3.924  0.9201  0.1233 -2.4747
  421MOL0     H58030   0.119   6.574   4.082  1.2689  0.8876  2.2717
  421MOL0     H58031   0.378   6.920   3.996 -1.1297  3.2486  3.1357
  421MOL0     H58032   0.501   6.796   4.020 -0.4900  0.3889 -1.4357
  421MOL0     H58033   0.535   6.969   4.187  0.0258 -0.1323  0.1916
  421MOL0     H58034   0.383   6.944   4.257 -0.1150  0.0293 -2.8767
  421MOL0     H58035   0.547   6.832   4.381 -1.2005 -0.7430  0.0374
  421MOL0     H58036   0.435   6.710   4.307 -2.1422  1.0494 -4.2331
  421MOL0     H58037   0.599   6.638   4.149 -1.3288  1.4044  0.4683
  421MOL0     H58038   0.697   6.778   4.173 -1.1987  1.1411 -1.3407
  421MOL0     H58039   0.642   6.555   4.374 -1.2040  0.9455  0.0285
  421MOL0     H58040   0.728   6.699   4.418 -0.9871 -0.9561  0.9077
  421MOL0     H58041   0.778   6.489   4.204 -1.7134  0.6337  0.1808
  421MOL0     H58042   0.882   6.638   4.203 -0.7652 -0.8934 -1.4574
  421MOL0     H58043   0.883   6.440   4.441 -0.1822 -1.2210 -0.5111
  421MOL0     H58044   0.989   6.583   4.397 -1.1743  0.6619  0.8764
  421MOL0     H58045   0.968   6.351   4.211  0.6540 -1.4753  0.1322
  421MOL0     H58046   1.103   6.464   4.220  2.5194  0.4501  1.3746
  421MOL0     H58047   1.082   6.117   4.298  2.0919  1.3803 -2.2813
  421MOL0     H58048   1.354   6.050   4.546 -0.1009  1.4157  3.2172
  421MOL0     H58049   1.214   5.949   4.475 -0.8026  2.5969 -2.4579
  421MOL0     H58050   1.214   6.094   4.741  0.0070 -1.8587  2.2596
  421MOL0     H58051   1.073   6.018   4.642 -0.2208  0.9265 -0.8846
  421MOL0     H58052   1.168   5.874   4.809  1.3433 -0.2009  0.7000
  421MOL0     H58053   1.174   5.806   4.653 -3.4096 -0.3092  2.6040
  421MOL0     H58054   1.432   5.868   4.652  3.1723  0.1949  1.0169
  421MOL0     H58055   1.400   5.938   4.820  0.2679 -0.8087  0.9133
  421MOL0     H58056   1.426   5.514   4.882 -2.5130  3.7935  0.2208
  421MOL0     H58057   1.555   5.309   4.948  0.7360  0.1963 -0.8316
  421MOL0     H58058   1.604   5.350   5.107 -1.4900 -0.5790 -0.9531
  421MOL0     H58059   1.729   5.337   4.979  1.1935  1.0452  1.9812
  421MOL0     H58060   2.072   5.610   5.287  0.7825 -0.2167  1.4581
  421MOL0     H58061   2.280   5.515   5.329 -3.2267  3.8118  0.9629
  421MOL0     H58062   2.495   5.102   5.297  1.6653 -1.0703 -1.9565
  421MOL0     H58063   2.328   5.046   5.284  3.7090 -0.6629  2.2849
  421MOL0     H58064   2.307   5.161   5.064 -1.0414  2.1816  2.5725
  421MOL0     H58065   2.474   5.217   5.073 -1.6672  0.8898 -0.4619
  421MOL0     H58066   2.427   4.982   4.940  1.1918  2.6487  0.8304
  421MOL0     H58067   2.375   4.917   5.096  0.8343 -0.9884  1.5129
  421MOL0     H58068   2.614   4.959   5.167  3.0116 -1.0173 -0.7425
  421MOL0     H58069   2.647   5.027   5.004  0.1039 -1.0061 -0.0122
  421MOL0     H58070   2.557   4.754   5.101 -3.7196  1.9972 -0.0082
  421MOL0     H58071   2.566   4.788   4.932  0.4169  1.4071 -0.5144
  421MOL0     H58072   2.820   4.791   5.109  1.2830 -2.6841  0.8436
  421MOL0     H58073   2.801   4.825   4.934  0.1283 -2.9208 -1.3461
  421MOL0     H58074   2.788   4.602   4.880 -2.7473  1.4187 -0.0569
  421MOL0     H58075   2.745   4.562   5.053  1.8049 -3.5676 -0.9681
  421MOL0     H58076   2.981   4.499   4.996 -0.9759 -0.5522  2.8739
  421MOL0     H58077   2.972   4.607   5.127  1.1658  1.1079  0.1561
  421MOL0     H58078   2.114   5.118   5.238 -2.0523 -0.3714  5.4054
  421MOL0     H58079   1.910   5.227   5.176 -0.0140 -0.4481  1.2002
  421MOL0     H58080   1.797   5.806   5.003  2.8671 -1.1307 -3.2634
  421MOL0     H58081   1.608   5.900   4.882  0.7833  1.0635  1.4496
  421MOL0     H58082   0.504   6.661   3.886 -0.0443 -0.6950  1.6453
  421MOL0     H58083   0.466   6.465   3.744  0.4252  2.2513  0.4592
  421MOL0     H58084   0.020   6.271   3.449  0.4065 -0.1917 -0.4688
  421MOL0     H58085  -0.021   6.089   3.311  0.1477  2.9378  0.7401
  421MOL0     H58086   0.067   5.995   3.125 -1.0999 -0.4062 -0.4473
  421MOL0     H58087   0.144   5.836   3.073 -0.1072 -4.7853  2.1584
  421MOL0     H58088  -0.097   5.880   3.263  1.7802 -1.6684  1.1091
  421MOL0     H58089  -0.029   5.725   3.224  0.2769 -0.9345 -1.0501
  421MOL0     H58090  -0.092   5.725   2.996 -0.1296  0.5919 -0.5921
  421MOL0     H58091  -0.227   5.729   3.096  0.0818 -1.9262 -2.1885
  421MOL0     H58092  -0.121   5.940   2.910 -1.2005 -0.5410 -1.8749
  421MOL0     H58093  -0.208   5.998   3.038  3.9682  0.2845  0.3338
  421MOL0     H58094  -0.492   5.822   2.768  1.1001 -1.8888  0.3465
  421MOL0     H58095   0.370   5.939   3.434 -0.8025 -1.0531  2.2443
  421MOL0     H58096   0.503   6.034   3.593  1.6010  2.2391 -1.7745
  421MOL0     H58097   0.476   6.200   3.600  3.6904 -2.2503 -1.1115
  421MOL0     H58098   0.403   6.094   3.719 -0.8603 -1.6589 -0.1447
  422MOL0     O58099   6.135   4.498   3.228 -0.1642 -0.5420 -0.4562
  422MOL0     C58100   6.207   4.432   3.304  1.0148  0.5240  0.7733
  422MOL0     O58101   6.341   4.429   3.297 -0.6780 -0.1316  1.0277
  422MOL0     C58102   6.412   4.450   3.179  0.5166  0.1950  0.4037
  422MOL0     C58103   6.410   4.582   3.138 -0.0954 -0.1641 -0.7081
  422MOL0     C58104   6.477   4.627   3.021 -1.3905 -0.9956  0.6531
  422MOL0     C58105   6.558   4.531   2.959  0.6801 -0.0636  1.1259
  422MOL0     O58106   6.647   4.560   2.854  1.1490 -0.7861  0.9153
  422MOL0     C58107   6.642   4.688   2.787  0.3205  1.3417 -0.3488
  422MOL0     C58108   6.753   4.681   2.683  0.0961 -0.0378  0.4580
  422MOL0     C58109   6.771   4.826   2.628  0.5091 -0.5462  0.7333
  422MOL0     C58110   6.692   4.855   2.499 -0.3254  1.2335  0.3304
  422MOL0     C58111   6.677   5.007   2.462  0.4841  0.3945  0.0240
  422MOL0     C58112   6.596   5.035   2.344 -0.6958 -0.1996  0.2984
  422MOL0     C58113   6.620   5.175   2.288 -0.4521  0.3633  0.0554
  422MOL0     C58114   6.594   5.294   2.402 -0.2383  0.8698 -0.3438
  422MOL0     N58115   6.522   5.406   2.335 -0.2022  0.2872  0.4240
  422MOL0     C58116   6.391   5.438   2.354  0.4836  2.0353 -0.1899
  422MOL0     C58117   6.355   5.525   2.257 -0.0096 -0.0824 -0.1489
  422MOL0     C58118   6.216   5.571   2.208  0.0796  0.2291  0.3346
  422MOL0     C58119   6.098   5.568   2.303 -0.1417  0.5360  0.3418
  422MOL0     C58120   5.961   5.590   2.232  0.4106  0.0356 -0.0153
  422MOL0     C58121   5.878   5.688   2.325  0.5867 -0.4508  0.2909
  422MOL0     O58122   5.747   5.677   2.265  0.3998 -0.4792  0.6036
  422MOL0     C58123   5.636   5.734   2.331  0.2905 -0.3714  0.7273
  422MOL0     C58124   5.519   5.715   2.257 -0.1880 -0.1656 -0.0689
  422MOL0     C58125   5.398   5.764   2.309 -0.5446  0.1680  1.2320
  422MOL0     C58126   5.284   5.746   2.214  0.3117  0.6125 -0.6663
  422MOL0     C58127   5.395   5.836   2.432  0.3883 -0.0314  0.5955
  422MOL0     C58128   5.269   5.884   2.489  0.1671 -0.7524 -0.1324
  422MOL0     O58129   5.201   5.981   2.421  0.1902  0.4228  0.7103
  422MOL0     C58130   5.065   5.976   2.438 -0.1496  0.2180 -0.3410
  422MOL0     C58131   4.986   5.874   2.401  0.8220 -0.3043  0.3501
  422MOL0     C58132   4.852   5.876   2.427  0.5482  0.6897 -0.0760
  422MOL0     C58133   4.783   5.986   2.482  0.2869  0.3552 -0.4369
  422MOL0     O58134   4.647   6.003   2.506 -0.3756 -0.4895 -0.0361
  422MOL0     C58135   4.552   5.897   2.515  0.5430  1.3210  0.7135
  422MOL0     C58136   4.515   5.845   2.373  0.3692 -0.9892 -0.2744
  422MOL0     C58137   4.422   5.940   2.284  0.5337  0.2165  0.0855
  422MOL0     C58138   4.483   6.077   2.269 -0.0635 -0.5614 -0.8125
  422MOL0     C58139   4.414   6.158   2.158 -0.0534  0.5533 -0.0367
  422MOL0     C58140   4.259   6.169   2.162  0.0768 -0.2360 -0.3889
  422MOL0     C58141   4.220   6.246   2.034  0.6813  0.0454 -0.5955
  422MOL0     C58142   4.077   6.256   2.019 -0.0930  0.0225  0.1189
  422MOL0    Cl58143   4.029   6.100   1.938 -0.0792 -0.4044 -0.4823
  422MOL0     C58144   4.866   6.089   2.521 -1.2406 -0.1441 -0.2112
  422MOL0     C58145   5.003   6.088   2.496 -0.4390 -0.3534  1.0188
  422MOL0     O58146   5.230   5.845   2.599 -0.8783  0.5436  0.3631
  422MOL0     C58147   5.516   5.857   2.496 -1.0086 -0.6249 -0.3747
  422MOL0     C58148   5.639   5.806   2.451  0.7366  0.3366 -0.1505
  422MOL0     N58149   6.475   5.548   2.183 -0.4488  1.7384 -0.1534
  422MOL0     N58150   6.571   5.471   2.230  0.6622 -0.2084 -0.1992
  422MOL0     C58151   6.546   4.395   2.987  0.2699 -0.1256 -0.7362
  422MOL0     C58152   6.480   4.351   3.105  0.4502  0.1084  0.5719
  422MOL0     C58153   6.141   4.375   3.424  0.1734  0.9090 -0.1240
  422MOL0     C58154   6.226   4.317   3.522 -0.4416 -0.0158  0.6583
  422MOL0     C58155   6.176   4.271   3.643 -0.7367  0.2305 -0.8414
  422MOL0     C58156   6.042   4.273   3.674 -0.6262 -0.3896  0.0093
  422MOL0     O58157   6.008   4.199   3.788 -0.0836  0.1080  0.3542
  422MOL0     C58158   5.873   4.165   3.801 -0.2751 -0.9465 -0.2470
  422MOL0     C58159   5.855   4.075   3.922  0.6484  0.5061 -0.4064
  422MOL0     C58160   5.874   4.153   4.054  0.3681 -0.3278  0.3229
  422MOL0     C58161   5.938   4.065   4.165  0.6030  0.0897 -0.6048
  422MOL0     C58162   6.069   4.018   4.124 -0.7354 -0.0717  0.0613
  422MOL0     C58163   6.177   3.966   4.110 -0.2997  0.0323 -0.0277
  422MOL0     C58164   5.953   4.326   3.581 -0.0044  0.5021  0.2223
  422MOL0     C58165   5.997   4.375   3.450 -0.7967  0.6941  0.5187
  422MOL0     C58166   5.898   4.428   3.341 -0.2366  0.1965 -0.6439
  422MOL0     H58167   6.356   4.653   3.200 -0.7030 -0.1902 -1.1950
  422MOL0     H58168   6.483   4.733   2.999 -0.0003 -0.8965  1.3705
  422MOL0     H58169   6.655   4.770   2.858 -2.5665  1.7732 -0.1797
  422MOL0     H58170   6.547   4.703   2.735 -2.7866  1.7289  4.7492
  422MOL0     H58171   6.847   4.642   2.724 -0.3903 -0.8598  0.8276
  422MOL0     H58172   6.703   4.606   2.620 -3.2497  1.7106  0.8091
  422MOL0     H58173   6.737   4.900   2.702 -0.2261  0.7652 -0.8639
  422MOL0     H58174   6.877   4.839   2.603  0.8790 -1.5330  1.6557
  422MOL0     H58175   6.707   4.783   2.418  0.0469  0.0586  1.4156
  422MOL0     H58176   6.589   4.824   2.518 -0.7731 -0.0123 -3.3578
  422MOL0     H58177   6.778   5.048   2.453  0.6912  0.0177  0.5579
  422MOL0     H58178   6.626   5.063   2.542 -1.1642 -0.5404 -0.3330
  422MOL0     H58179   6.622   4.973   2.258 -1.3147  2.9727 -2.3807
  422MOL0     H58180   6.492   5.032   2.379 -0.5768 -0.4010  0.6334
  422MOL0     H58181   6.551   5.201   2.207 -0.6736  0.1865  0.1876
  422MOL0     H58182   6.721   5.173   2.246 -0.2835 -4.3871  0.1150
  422MOL0     H58183   6.545   5.260   2.493  0.0938  1.6316  0.1379
  422MOL0     H58184   6.693   5.325   2.439  0.8966 -1.5866 -1.0895
  422MOL0     H58185   6.310   5.393   2.410  3.9134 -0.2642  3.5085
  422MOL0     H58186   6.200   5.506   2.121  2.9780 -0.0560 -0.0885
  422MOL0     H58187   6.233   5.672   2.171  3.9087  0.8458  3.2193
  422MOL0     H58188   6.094   5.471   2.352 -0.0348 -0.0254 -0.7366
  422MOL0     H58189   6.113   5.641   2.383  0.3732 -2.5468  3.2584
  422MOL0     H58190   5.982   5.633   2.133 -0.0271 -3.5820 -1.8354
  422MOL0     H58191   5.899   5.503   2.208  1.2539 -1.1054  1.7521
  422MOL0     H58192   5.883   5.662   2.431  3.1428  3.1342  1.2194
  422MOL0     H58193   5.923   5.787   2.319  0.6536 -0.5461 -1.6123
  422MOL0     H58194   5.530   5.663   2.163  3.2735 -0.5566  0.4234
  422MOL0     H58195   5.311   5.693   2.122 -4.2872 -1.2352 -1.2180
  422MOL0     H58196   5.237   5.843   2.194 -0.7440  0.0840 -0.8534
  422MOL0     H58197   5.203   5.693   2.266  1.9112 -0.2741  1.0105
  422MOL0     H58198   5.020   5.777   2.366  0.1784  1.1224 -5.3046
  422MOL0     H58199   4.802   5.785   2.398  1.2161  0.1205  0.5204
  422MOL0     H58200   4.588   5.815   2.577 -2.1744  0.1744  0.9283
  422MOL0     H58201   4.458   5.937   2.556 -1.7974  0.5150 -3.2634
  422MOL0     H58202   4.610   5.812   2.328 -0.5345 -3.8606 -0.2886
  422MOL0     H58203   4.451   5.757   2.376 -3.2494  1.2522 -3.1524
  422MOL0     H58204   4.318   5.930   2.317  0.3044 -1.2529 -0.9561
  422MOL0     H58205   4.428   5.901   2.182 -1.4192  3.6197 -1.4919
  422MOL0     H58206   4.592   6.083   2.273 -0.1613  0.8221  1.6171
  422MOL0     H58207   4.462   6.128   2.363 -0.9905 -1.5815 -0.4370
  422MOL0     H58208   4.464   6.254   2.151 -2.0842  1.5415 -4.0517
  422MOL0     H58209   4.438   6.104   2.066  0.5596 -0.7842  0.8696
  422MOL0     H58210   4.232   6.229   2.249  0.2173  1.4958 -1.4914
  422MOL0     H58211   4.216   6.068   2.170  0.3565 -0.3843 -0.7194
  422MOL0     H58212   4.282   6.210   1.952  0.7700  0.4956 -0.7288
  422MOL0     H58213   4.262   6.346   2.053  3.6523 -1.1905 -0.0412
  422MOL0     H58214   4.047   6.331   1.946 -1.9044 -1.4932 -0.7706
  422MOL0     H58215   4.026   6.272   2.115  1.5995  0.1829  1.0280
  422MOL0     H58216   4.830   6.171   2.583  1.5468  0.7053  0.4377
  422MOL0     H58217   5.062   6.171   2.533 -0.3702 -1.1413  2.7423
  422MOL0     H58218   5.517   5.931   2.575  1.1202  0.1129 -1.0236
  422MOL0     H58219   5.730   5.826   2.506 -0.5230 -0.1860  2.2708
  422MOL0     H58220   6.622   4.330   2.946  2.3725 -0.5141  3.2246
  422MOL0     H58221   6.488   4.252   3.149 -0.6737  0.0319  0.6422
  422MOL0     H58222   6.333   4.323   3.505 -0.5611  2.9542  0.4093
  422MOL0     H58223   6.252   4.223   3.705 -1.1888  1.6212  0.8937
  422MOL0     H58224   5.819   4.260   3.807  0.0105 -0.8504  1.2264
  422MOL0     H58225   5.830   4.107   3.718 -1.1407 -1.6767  0.6801
  422MOL0     H58226   5.925   3.991   3.914  0.4998  0.5186 -2.5858
  422MOL0     H58227   5.754   4.032   3.921  0.6920  0.2627  1.8037
  422MOL0     H58228   5.949   4.228   4.027  0.7218 -1.0368 -0.7270
  422MOL0     H58229   5.787   4.206   4.094  1.4639  0.8801  1.2294
  422MOL0     H58230   5.867   3.990   4.201  1.0110 -0.0397 -0.0408
  422MOL0     H58231   5.953   4.129   4.252  0.1980  0.5212 -0.8524
  422MOL0     H58232   6.269   3.910   4.110  0.4654  1.0542 -3.3617
  422MOL0     H58233   5.845   4.325   3.592  0.0745  1.8624  1.5518
  422MOL0     H58234   5.794   4.395   3.349  0.1306 -0.6142  1.6752
  422MOL0     H58235   5.892   4.537   3.346  0.3614  0.2696 -1.3821
  422MOL0     H58236   5.922   4.399   3.238  1.4954 -0.8465 -0.0044
  423MOL0     O58237   4.580   1.416   8.358 -0.2823  0.1115  0.1487
  423MOL0     C58238   4.637   1.376   8.460 -0.1106  0.4860 -0.6030
  423MOL0     O58239   4.565   1.347   8.575 -0.1175  0.6923 -0.4713
  423MOL0     C58240   4.429   1.345   8.571 -0.8370  0.9092 -0.8858
  423MOL0     C58241   4.365   1.471   8.566  0.2647 -0.0688  0.0434
  423MOL0     C58242   4.229   1.488   8.587 -0.4358  0.1308 -0.2747
  423MOL0     C58243   4.154   1.369   8.630  0.1014 -0.4102 -0.4020
  423MOL0     O58244   4.021   1.374   8.674 -0.6005 -0.5351  1.2445
  423MOL0     C58245   3.955   1.503   8.702 -0.1508  0.3343  0.0853
  423MOL0     C58246   3.810   1.481   8.732  0.7846  0.4621 -0.3346
  423MOL0     C58247   3.789   1.416   8.871 -0.4963  0.5793  0.0383
  423MOL0     C58248   3.643   1.367   8.896  0.3025  0.5243  0.2725
  423MOL0     C58249   3.617   1.331   9.047  0.3441 -1.0059  0.1175
  423MOL0     C58250   3.469   1.299   9.063 -0.7714  0.6672 -0.1893
  423MOL0     C58251   3.437   1.295   9.217 -0.5558  0.8320 -0.0467
  423MOL0     C58252   3.506   1.181   9.293 -0.4665 -0.2187  0.0692
  423MOL0     N58253   3.435   1.052   9.268 -0.7956  0.2942  0.1025
  423MOL0     C58254   3.320   1.014   9.337  0.4931  0.9781 -0.4105
  423MOL0     C58255   3.309   0.888   9.311 -0.6680  0.3862 -0.4664
  423MOL0     C58256   3.196   0.796   9.350  0.4189  0.7544 -0.8678
  423MOL0     C58257   3.221   0.649   9.327 -0.3272 -0.0409 -0.6288
  423MOL0     C58258   3.303   0.595   9.438 -0.2255 -0.2930  0.5658
  423MOL0     C58259   3.327   0.447   9.414  0.3120  0.1376  0.3018
  423MOL0     O58260   3.455   0.412   9.448  0.4055 -0.8105  0.5067
  423MOL0     C58261   3.496   0.278   9.432  0.4798  0.0166  0.6990
  423MOL0     C58262   3.418   0.172   9.375  0.0238 -0.0698  0.4934
  423MOL0     C58263   3.472   0.045   9.371  0.7090 -0.0783  0.4453
  423MOL0     C58264   3.377  -0.057   9.322 -0.5719 -0.1315  0.0871
  423MOL0     C58265   3.608   0.026   9.403  0.1382 -0.3728 -0.3717
  423MOL0     C58266   3.679  -0.114   9.417  0.0553 -0.1756 -0.0615
  423MOL0     O58267   3.806  -0.106   9.422 -0.2846  0.1286  0.1798
  423MOL0     C58268   3.875  -0.226   9.416 -0.2066 -0.3395  0.7939
  423MOL0     C58269   3.967  -0.231   9.322 -0.6417  0.3419 -0.4482
  423MOL0     C58270   4.038  -0.347   9.303 -0.0898 -0.1327  0.4618
  423MOL0     C58271   4.035  -0.458   9.385  0.9277 -0.4181 -0.0758
  423MOL0     O58272   4.111  -0.571   9.356 -0.6478 -0.0002 -0.2322
  423MOL0     C58273   4.140  -0.666   9.459 -0.6937  0.3216 -0.9664
  423MOL0     C58274   4.036  -0.773   9.484  0.1892  0.5988 -0.7887
  423MOL0     C58275   3.969  -0.842   9.354 -0.1743 -0.1664  0.4038
  423MOL0     C58276   3.884  -0.966   9.383  0.2570 -0.8074 -0.4294
  423MOL0     C58277   3.862  -1.055   9.269  0.0358  0.3744 -1.1337
  423MOL0     C58278   3.793  -1.190   9.311 -0.1137 -0.6897 -0.7522
  423MOL0     C58279   3.775  -1.299   9.207 -0.4021 -0.0478 -1.2073
  423MOL0     C58280   3.776  -1.443   9.276 -0.5927  0.0580  0.3068
  423MOL0    Cl58281   3.654  -1.452   9.420  0.4370  0.3387  0.2603
  423MOL0     C58282   3.947  -0.441   9.495 -0.4447 -0.2547  0.4992
  423MOL0     C58283   3.865  -0.328   9.512 -0.2997 -0.5637 -0.8379
  423MOL0     O58284   3.615  -0.217   9.389 -0.9207  0.8684 -0.5540
  423MOL0     C58285   3.683   0.130   9.446  0.4660  0.3785 -0.1905
  423MOL0     C58286   3.628   0.254   9.466 -0.4979 -0.5553  0.7983
  423MOL0     N58287   3.424   0.842   9.248 -0.3065 -0.1789  0.2025
  423MOL0     N58288   3.501   0.935   9.216 -0.0190 -0.1886  0.1768
  423MOL0     C58289   4.211   1.240   8.631  1.0022 -0.2264 -0.0461
  423MOL0     C58290   4.348   1.230   8.604  0.0801  0.3392  0.6035
  423MOL0     C58291   4.788   1.340   8.468  0.9882  0.9850  0.4166
  423MOL0     C58292   4.884   1.438   8.426  0.3928 -0.4245  0.6167
  423MOL0     C58293   5.021   1.408   8.402 -0.0424 -0.0058 -1.5938
  423MOL0     C58294   5.070   1.279   8.444  0.3061 -0.0204  0.3538
  423MOL0     O58295   5.200   1.254   8.429  0.8461  0.2032 -0.5048
  423MOL0     C58296   5.253   1.135   8.489 -0.0864 -0.4069 -0.6270
  423MOL0     C58297   5.407   1.128   8.468 -0.0304 -0.6309 -0.1213
  423MOL0     C58298   5.471   1.000   8.525 -0.0828 -0.5380  0.8615
  423MOL0     C58299   5.601   0.956   8.445  0.8525  0.1557 -0.3041
  423MOL0     C58300   5.701   1.060   8.473  0.6677  0.8192  1.0342
  423MOL0     C58301   5.780   1.154   8.473  0.4406 -0.2209 -0.3987
  423MOL0     C58302   4.975   1.179   8.501 -1.3172 -0.0280 -0.1057
  423MOL0     C58303   4.838   1.209   8.505  0.3229 -0.6695 -0.2748
  423MOL0     C58304   4.753   1.087   8.546  1.3653 -0.6992 -0.3029
  423MOL0     H58305   4.442   1.545   8.550  1.1941 -0.6902  1.4485
  423MOL0     H58306   4.182   1.586   8.586 -1.7312 -0.4581  0.2118
  423MOL0     H58307   3.971   1.570   8.617  0.1382  1.3794  0.9337
  423MOL0     H58308   3.992   1.550   8.794  2.6404 -3.3935  1.0926
  423MOL0     H58309   3.747   1.571   8.724 -0.5624 -0.1199  2.3771
  423MOL0     H58310   3.759   1.417   8.659 -2.2429  1.7286  0.4833
  423MOL0     H58311   3.859   1.332   8.882 -2.8819 -1.3773  1.1520
  423MOL0     H58312   3.821   1.499   8.935 -0.1829  0.5646 -0.0929
  423MOL0     H58313   3.572   1.446   8.869  0.4843  0.6796  0.2494
  423MOL0     H58314   3.619   1.279   8.836  2.2004 -1.9180  2.8303
  423MOL0     H58315   3.639   1.422   9.102  1.2660 -1.7000  0.9267
  423MOL0     H58316   3.674   1.244   9.081  1.1172 -0.0938  1.1742
  423MOL0     H58317   3.410   1.380   9.019 -0.1236  1.0966 -0.2786
  423MOL0     H58318   3.451   1.197   9.028 -1.3514 -0.6508  3.4892
  423MOL0     H58319   3.331   1.270   9.222 -0.4045  0.2182  0.2083
  423MOL0     H58320   3.454   1.390   9.268  1.0566  0.2931  0.4716
  423MOL0     H58321   3.615   1.177   9.290 -0.5068 -0.8682 -1.4878
  423MOL0     H58322   3.486   1.196   9.400  0.3188 -2.4843  0.5778
  423MOL0     H58323   3.245   1.072   9.389  0.6329 -0.5829  1.6733
  423MOL0     H58324   3.108   0.822   9.290 -0.3373 -1.3646 -0.7488
  423MOL0     H58325   3.178   0.812   9.457 -0.9461 -0.5098 -0.8713
  423MOL0     H58326   3.133   0.591   9.299 -0.1483 -1.0380  0.7664
  423MOL0     H58327   3.283   0.653   9.237  4.5740  1.2141  2.4147
  423MOL0     H58328   3.398   0.649   9.446 -0.0384 -0.5757  0.2661
  423MOL0     H58329   3.239   0.612   9.525 -3.7133 -0.4862 -1.7778
  423MOL0     H58330   3.255   0.396   9.479  0.3060 -2.3325 -1.5502
  423MOL0     H58331   3.327   0.409   9.312  1.6867 -0.7898  0.6295
  423MOL0     H58332   3.320   0.190   9.332  0.9163  2.2951 -0.7656
  423MOL0     H58333   3.367  -0.147   9.383  1.2960  0.6919  1.7116
  423MOL0     H58334   3.433  -0.076   9.230  0.3156  1.9906  0.1199
  423MOL0     H58335   3.276  -0.027   9.292  0.1323 -0.4704 -3.0133
  423MOL0     H58336   3.979  -0.141   9.263 -1.4366  1.6914  1.3528
  423MOL0     H58337   4.097  -0.349   9.213 -3.2806 -3.0824 -1.8203
  423MOL0     H58338   4.227  -0.724   9.427  0.4757  1.2636  0.3728
  423MOL0     H58339   4.179  -0.632   9.556  2.2061 -1.5302 -1.3393
  423MOL0     H58340   4.092  -0.843   9.546 -1.7591 -0.5088 -0.1931
  423MOL0     H58341   3.962  -0.752   9.561 -1.3029 -6.6721  0.5148
  423MOL0     H58342   4.056  -0.859   9.290  1.4339  0.5221  2.2838
  423MOL0     H58343   3.904  -0.772   9.302 -1.2382 -1.3457  0.1161
  423MOL0     H58344   3.788  -0.961   9.436  0.3544 -4.9051  0.4344
  423MOL0     H58345   3.942  -1.021   9.458 -1.2784 -0.3825  1.1662
  423MOL0     H58346   3.808  -1.017   9.183  2.1779  2.0691 -1.8339
  423MOL0     H58347   3.968  -1.067   9.246 -0.0334 -2.2065 -0.3901
  423MOL0     H58348   3.692  -1.162   9.342 -0.0398 -1.0270 -0.2030
  423MOL0     H58349   3.842  -1.224   9.403  1.8589  3.1899 -0.1414
  423MOL0     H58350   3.867  -1.289   9.148  0.7226  0.1330  0.4828
  423MOL0     H58351   3.681  -1.288   9.153 -1.2850 -1.2145  0.0397
  423MOL0     H58352   3.881  -1.462   9.301 -0.3022  2.1458  0.8538
  423MOL0     H58353   3.761  -1.521   9.201  0.2821 -1.0168  1.2212
  423MOL0     H58354   3.937  -0.521   9.568 -0.3747 -0.0494  0.7335
  423MOL0     H58355   3.804  -0.323   9.601 -0.0673 -0.9592 -0.6501
  423MOL0     H58356   3.788   0.125   9.471  0.4910 -0.1941 -0.3840
  423MOL0     H58357   3.683   0.334   9.514  3.2944  0.5753 -4.5617
  423MOL0     H58358   4.145   1.156   8.647  2.9167 -1.3333  2.8098
  423MOL0     H58359   4.390   1.130   8.596 -0.1943  0.3279 -0.9233
  423MOL0     H58360   4.848   1.538   8.402  0.0151 -1.0300 -1.5474
  423MOL0     H58361   5.105   1.474   8.383  2.8549 -2.2922  1.8604
  423MOL0     H58362   5.234   1.146   8.596  1.2622  0.9646 -0.5044
  423MOL0     H58363   5.204   1.043   8.455 -2.0686  1.5727 -3.6791
  423MOL0     H58364   5.457   1.210   8.520 -0.7880  1.2511 -2.1877
  423MOL0     H58365   5.427   1.144   8.361 -2.3920 -0.4879 -0.5955
  423MOL0     H58366   5.483   0.993   8.633 -0.5506 -1.0875  0.8786
  423MOL0     H58367   5.392   0.927   8.507  2.6489 -3.3018 -0.8468
  423MOL0     H58368   5.595   0.941   8.337 -0.4750  0.2652 -0.2665
  423MOL0     H58369   5.622   0.854   8.480 -1.5627 -0.7952 -1.3882
  423MOL0     H58370   5.838   1.240   8.501 -0.0547 -0.3954  1.2533
  423MOL0     H58371   5.003   1.081   8.537 -0.2696  1.9109  5.5255
  423MOL0     H58372   4.717   1.108   8.647  0.8236 -1.5373 -0.3164
  423MOL0     H58373   4.673   1.081   8.471 -0.1805  2.6495  0.8592
  423MOL0     H58374   4.815   0.997   8.545  1.6249 -0.5555  1.3877
  424MOL0     O58375   5.254   4.949   0.702 -0.1205 -0.4302  0.2460
  424MOL0     C58376   5.239   4.848   0.767  0.3129  0.0120  0.4552
  424MOL0     O58377   5.324   4.736   0.757 -0.6228 -0.0614  0.7845
  424MOL0     C58378   5.424   4.744   0.652  0.6233  0.0108  0.0636
  424MOL0     C58379   5.544   4.827   0.668 -0.3290 -0.4772  0.4038
  424MOL0     C58380   5.633   4.832   0.558 -0.1076  0.5634 -0.2015
  424MOL0     C58381   5.608   4.748   0.443 -0.2657  1.0078  0.2429
  424MOL0     O58382   5.699   4.756   0.340 -0.3632  0.1745  0.4343
  424MOL0     C58383   5.748   4.643   0.265  0.2676 -0.5909 -0.5245
  424MOL0     C58384   5.898   4.677   0.244 -0.7217  0.3423  0.3137
  424MOL0     C58385   5.964   4.700   0.389  0.2874  0.4372  0.3291
  424MOL0     C58386   5.999   4.568   0.453 -0.4827 -0.0611  0.8458
  424MOL0     C58387   6.056   4.582   0.591 -0.0015  0.2404  0.6186
  424MOL0     C58388   6.146   4.464   0.630  0.0398 -0.5318  0.3342
  424MOL0     C58389   6.081   4.322   0.615  0.3202  0.6302  0.4106
  424MOL0     C58390   6.182   4.221   0.664 -0.0329  0.6430 -0.2421
  424MOL0     N58391   6.105   4.095   0.665 -1.3834  1.2654  0.6642
  424MOL0     C58392   6.009   4.062   0.584 -0.5118  0.4057  0.3349
  424MOL0     C58393   5.962   3.943   0.623 -0.0025  0.0781 -0.0226
  424MOL0     C58394   5.843   3.874   0.559 -0.0986 -0.1366  0.8009
  424MOL0     C58395   5.860   3.759   0.452 -0.2789  0.2306 -0.4905
  424MOL0     C58396   5.745   3.656   0.452  0.3084 -0.4677  0.2322
  424MOL0     C58397   5.794   3.524   0.404 -0.4047 -0.0783  0.1407
  424MOL0     O58398   5.847   3.536   0.274 -0.2955 -0.0336  0.1528
  424MOL0     C58399   5.911   3.428   0.215  0.2077 -0.2328 -0.3903
  424MOL0     C58400   5.968   3.446   0.090  0.0107  0.7488  0.7161
  424MOL0     C58401   6.034   3.337   0.016  0.0676  1.1161 -0.4952
  424MOL0     C58402   6.096   3.373  -0.122  0.2253 -0.5059 -0.1730
  424MOL0     C58403   6.052   3.218   0.088  0.6244  0.2701 -0.3246
  424MOL0     C58404   6.127   3.106   0.026 -0.7533 -0.0924  1.2855
  424MOL0     O58405   6.069   2.991   0.058 -0.0606  0.0192  0.2620
  424MOL0     C58406   6.130   2.884  -0.010 -0.4032  0.6587 -0.0471
  424MOL0     C58407   6.120   2.876  -0.152 -0.2881  0.5844  0.3971
  424MOL0     C58408   6.151   2.766  -0.224 -0.3954  0.3259  0.0762
  424MOL0     C58409   6.198   2.657  -0.154 -0.3682 -0.0267  0.7188
  424MOL0     O58410   6.215   2.543  -0.216 -0.4170 -0.5229 -0.3256
  424MOL0     C58411   6.357   2.509  -0.213 -0.4126  0.0117  0.2620
  424MOL0     C58412   6.358   2.423  -0.342  0.1332  0.4759  0.5388
  424MOL0     C58413   6.321   2.275  -0.321 -0.3951  0.1177  0.7917
  424MOL0     C58414   6.441   2.185  -0.304  0.8024  0.0073  0.3060
  424MOL0     C58415   6.377   2.055  -0.239 -0.1376 -0.7282 -0.2486
  424MOL0     C58416   6.465   1.935  -0.238 -0.7943  0.8882  0.2163
  424MOL0     C58417   6.393   1.817  -0.178  0.9678  0.9731 -0.8508
  424MOL0     C58418   6.479   1.698  -0.153  0.2462  0.7210 -0.2077
  424MOL0    Cl58419   6.578   1.732  -0.004 -0.0745 -0.5106  0.1543
  424MOL0     C58420   6.208   2.657  -0.016 -0.5207 -0.1983 -0.1020
  424MOL0     C58421   6.187   2.772   0.056 -0.2327 -0.4941  0.1942
  424MOL0     O58422   6.229   3.125  -0.042  0.0592 -0.5324  0.1366
  424MOL0     C58423   5.989   3.202   0.217 -0.5740 -0.7233  0.3815
  424MOL0     C58424   5.920   3.305   0.278  0.2721 -0.3212 -0.1197
  424MOL0     N58425   6.023   3.910   0.738  0.5322 -0.0565  0.0951
  424MOL0     N58426   6.121   3.989   0.758  0.1631 -0.2687 -0.7492
  424MOL0     C58427   5.493   4.670   0.435  0.1240 -0.7758  0.7940
  424MOL0     C58428   5.403   4.663   0.541 -0.9648  0.1319 -0.3999
  424MOL0     C58429   5.133   4.826   0.865 -0.6778 -0.8669 -0.3064
  424MOL0     C58430   5.003   4.835   0.835  0.1776  0.0621 -0.0791
  424MOL0     C58431   4.902   4.818   0.937 -0.7465 -1.0191 -0.4488
  424MOL0     C58432   4.923   4.764   1.067  0.7590 -0.2631  0.3009
  424MOL0     O58433   4.829   4.736   1.163 -0.0723 -0.3015  0.3891
  424MOL0     C58434   4.704   4.795   1.154 -0.1653  0.1734  0.6842
  424MOL0     C58435   4.590   4.704   1.099  0.2199  0.5195  0.1254
  424MOL0     C58436   4.466   4.780   1.066 -0.3365 -0.1654 -0.2176
  424MOL0     C58437   4.375   4.789   1.188 -0.5181 -0.9200  1.2182
  424MOL0     C58438   4.274   4.895   1.186  0.6435  0.7653  0.2377
  424MOL0     C58439   4.183   4.976   1.200  0.0744  0.5038 -0.0281
  424MOL0     C58440   5.059   4.747   1.086 -0.4445 -0.0666 -0.8952
  424MOL0     C58441   5.161   4.789   0.994  0.1742 -0.1891 -0.8783
  424MOL0     C58442   5.306   4.785   1.054 -0.1186 -0.3661  0.3486
  424MOL0     H58443   5.562   4.886   0.758 -0.4688  1.9730 -1.0879
  424MOL0     H58444   5.719   4.897   0.570  1.1159 -1.0974  0.4526
  424MOL0     H58445   5.700   4.652   0.167 -3.2517 -0.2971  1.0890
  424MOL0     H58446   5.725   4.552   0.321 -4.5890  0.6236 -0.1915
  424MOL0     H58447   5.951   4.590   0.204  0.0884  0.3841  1.2534
  424MOL0     H58448   5.916   4.756   0.171 -2.0862 -0.0973 -0.5338
  424MOL0     H58449   6.057   4.754   0.373  1.0962 -0.8925  0.3341
  424MOL0     H58450   5.904   4.762   0.456  2.0870  1.0025  1.4824
  424MOL0     H58451   5.916   4.497   0.461  1.9107 -3.2560 -0.2422
  424MOL0     H58452   6.074   4.526   0.386 -1.4762  0.4091 -0.6057
  424MOL0     H58453   5.973   4.581   0.662 -1.9965  1.7326 -1.5446
  424MOL0     H58454   6.128   4.664   0.588  2.8893 -2.0482 -3.7692
  424MOL0     H58455   6.243   4.459   0.580 -0.2397  1.8486 -0.5695
  424MOL0     H58456   6.170   4.470   0.737 -0.3019 -2.3467  0.5416
  424MOL0     H58457   6.057   4.306   0.509  0.9533  2.1026  0.0231
  424MOL0     H58458   5.986   4.309   0.666 -0.6130 -1.9452 -1.7402
  424MOL0     H58459   6.260   4.204   0.589 -0.9948 -0.5730 -1.0028
  424MOL0     H58460   6.222   4.245   0.763 -2.2074 -1.5842  1.3087
  424MOL0     H58461   5.967   4.119   0.501  3.1281  2.0066 -0.6086
  424MOL0     H58462   5.772   3.948   0.521  2.4113  1.7708 -0.4834
  424MOL0     H58463   5.807   3.829   0.652 -2.3714  1.3514  0.7094
  424MOL0     H58464   5.877   3.801   0.352  1.9106 -1.3382 -0.8580
  424MOL0     H58465   5.954   3.706   0.469  1.4049  2.8818 -1.0605
  424MOL0     H58466   5.730   3.660   0.560  0.6441  0.5336  0.2551
  424MOL0     H58467   5.656   3.684   0.395  2.2240 -1.4637 -3.5961
  424MOL0     H58468   5.870   3.478   0.469 -0.8919 -3.3511 -1.4049
  424MOL0     H58469   5.713   3.452   0.393  0.0383 -0.3204 -1.9450
  424MOL0     H58470   5.956   3.541   0.040  5.8436  0.7893 -1.4371
  424MOL0     H58471   6.202   3.349  -0.129  0.8799  2.2755 -1.2922
  424MOL0     H58472   6.077   3.479  -0.140  1.9096 -0.2783 -0.7972
  424MOL0     H58473   6.032   3.327  -0.198 -0.3030  2.0320 -1.3882
  424MOL0     H58474   6.090   2.967  -0.202  2.5105  1.9811  1.0351
  424MOL0     H58475   6.152   2.754  -0.332 -3.9713 -1.6218  0.0869
  424MOL0     H58476   6.429   2.591  -0.216  1.3506 -1.4563  0.9912
  424MOL0     H58477   6.378   2.439  -0.132  0.1724 -0.7925 -0.5742
  424MOL0     H58478   6.283   2.463  -0.412  1.4288  1.1244 -0.5214
  424MOL0     H58479   6.455   2.442  -0.387  0.4233  1.4316  1.5268
  424MOL0     H58480   6.267   2.245  -0.411  1.0059  1.9032 -0.7377
  424MOL0     H58481   6.256   2.265  -0.234 -0.8642  0.4034  0.4800
  424MOL0     H58482   6.501   2.235  -0.226  0.3676 -1.0261  1.3327
  424MOL0     H58483   6.491   2.166  -0.399  2.3403 -0.7074  1.2123
  424MOL0     H58484   6.353   2.083  -0.136  4.4015  2.2354  0.3049
  424MOL0     H58485   6.291   2.031  -0.302 -2.1543  1.6283  1.4228
  424MOL0     H58486   6.566   1.948  -0.199  0.7759 -7.1687  0.6624
  424MOL0     H58487   6.487   1.899  -0.339 -1.2708 -3.5876  1.4681
  424MOL0     H58488   6.318   1.792  -0.254 -0.0315 -0.4926  0.5678
  424MOL0     H58489   6.340   1.846  -0.087  1.0534 -3.5742  0.8489
  424MOL0     H58490   6.537   1.676  -0.243  1.0849  2.4778 -0.1442
  424MOL0     H58491   6.408   1.617  -0.137  3.4561 -2.5827 -1.3902
  424MOL0     H58492   6.232   2.565   0.036  0.1372  0.1912  0.3012
  424MOL0     H58493   6.196   2.765   0.164  0.5435 -2.5855  0.0325
  424MOL0     H58494   5.991   3.111   0.277  0.7932  0.5189  2.3278
  424MOL0     H58495   5.881   3.288   0.378 -0.3137 -0.8920 -0.4408
  424MOL0     H58496   5.479   4.609   0.346  2.6624  0.8013 -0.8038
  424MOL0     H58497   5.315   4.600   0.534  0.6667 -2.5585  1.2062
  424MOL0     H58498   4.974   4.866   0.735  1.4290  2.2040  0.1422
  424MOL0     H58499   4.804   4.857   0.912 -0.5715  0.1005  0.5537
  424MOL0     H58500   4.668   4.832   1.251  0.3261  1.3417  0.4444
  424MOL0     H58501   4.696   4.883   1.090 -2.7483 -1.6699 -1.8025
  424MOL0     H58502   4.568   4.619   1.165 -2.0156 -0.6300 -1.9635
  424MOL0     H58503   4.622   4.675   0.999 -0.2841  0.3968  0.0009
  424MOL0     H58504   4.482   4.883   1.031  0.9934  0.6953  2.6045
  424MOL0     H58505   4.421   4.738   0.976  1.0955  0.6360 -1.3549
  424MOL0     H58506   4.437   4.824   1.270 -0.0067 -1.6605  1.1588
  424MOL0     H58507   4.332   4.691   1.211 -2.9177  0.4113  2.8684
  424MOL0     H58508   4.092   5.032   1.211 -0.9738 -0.5161 -2.6275
  424MOL0     H58509   5.098   4.707   1.179 -3.0194  3.2200  1.8858
  424MOL0     H58510   5.312   4.767   1.161  0.2681 -0.2186  0.3568
  424MOL0     H58511   5.368   4.706   1.011  1.2034  1.8508 -2.1418
  424MOL0     H58512   5.364   4.872   1.020  0.5105 -0.0737  2.0891
  425MOL0     O58513   3.360   8.599   0.712  0.5873 -0.0613  0.4601
  425MOL0     C58514   3.300   8.545   0.616  0.5852 -0.0864 -0.6032
  425MOL0     O58515   3.181   8.594   0.571  0.2419 -0.0232 -0.6848
  425MOL0     C58516   3.106   8.686   0.641 -1.1433 -0.5083  0.6793
  425MOL0     C58517   3.056   8.787   0.559 -0.6758 -0.9976 -0.6332
  425MOL0     C58518   2.976   8.887   0.603  0.7032  0.1542  0.3780
  425MOL0     C58519   2.942   8.881   0.742 -1.4349  0.2308  0.1124
  425MOL0     O58520   2.871   8.984   0.801 -0.7652  0.2055  0.2328
  425MOL0     C58521   2.791   9.082   0.730  0.4826  0.2602  0.1619
  425MOL0     C58522   2.711   9.157   0.840  0.0685  0.5171  0.8821
  425MOL0     C58523   2.808   9.251   0.923 -0.2294 -0.0678  0.0583
  425MOL0     C58524   2.850   9.368   0.840  0.1212  0.6317 -1.2352
  425MOL0     C58525   2.950   9.450   0.924 -0.4490  0.1496  0.4840
  425MOL0     C58526   3.002   9.559   0.829 -0.3622  0.1883 -0.0592
  425MOL0     C58527   3.087   9.654   0.914  0.3868 -0.4464 -0.1746
  425MOL0     C58528   2.987   9.741   0.990  0.4284 -0.0717  0.7470
  425MOL0     N58529   3.013   9.877   0.947  0.6013 -0.2464  0.9470
  425MOL0     C58530   2.997   9.936   0.824  1.3984 -1.0193 -0.4804
  425MOL0     C58531   3.020  10.070   0.836 -0.0495 -0.3436 -0.1789
  425MOL0     C58532   3.049  10.152   0.709 -0.1702 -0.3036 -0.2378
  425MOL0     C58533   2.922  10.195   0.637 -0.8086 -0.0396  0.3192
  425MOL0     C58534   2.848  10.307   0.717  0.2312  0.2540 -0.2825
  425MOL0     C58535   2.925  10.437   0.702 -0.4311  0.5983  0.7069
  425MOL0     O58536   2.901  10.501   0.567  0.5669  1.1685 -0.4916
  425MOL0     C58537   2.951  10.625   0.530  0.0257  0.2743 -0.9017
  425MOL0     C58538   2.924  10.682   0.405 -0.9082  0.6214 -0.0707
  425MOL0     C58539   2.974  10.812   0.369  0.7073  0.0622 -0.4153
  425MOL0     C58540   2.933  10.860   0.236 -0.1786  0.1864 -0.3403
  425MOL0     C58541   3.048  10.893   0.463 -0.1599  0.8676 -0.1369
  425MOL0     C58542   3.105  11.028   0.439  0.1321  1.0053  0.0207
  425MOL0     O58543   3.082  11.083   0.317  0.3498 -0.2774  0.1614
  425MOL0     C58544   3.186  11.146   0.247  0.5255 -0.7663 -0.7440
  425MOL0     C58545   3.153  11.220   0.132  0.2182  1.4741 -0.1705
  425MOL0     C58546   3.252  11.290   0.063 -0.3996 -0.2598 -0.9733
  425MOL0     C58547   3.383  11.297   0.097 -0.7787  0.7613 -0.4261
  425MOL0     O58548   3.478  11.362   0.026 -0.6058  0.5050 -0.2041
  425MOL0     C58549   3.447  11.391  -0.108  0.6065 -0.5387  0.1662
  425MOL0     C58550   3.573  11.429  -0.177 -0.8223 -0.1184  0.0125
  425MOL0     C58551   3.617  11.567  -0.147 -1.4185 -0.1914  0.3805
  425MOL0     C58552   3.761  11.597  -0.217  0.4547  0.5456  0.3456
  425MOL0     C58553   3.823  11.730  -0.173  1.8726 -0.0939  0.4106
  425MOL0     C58554   3.837  11.827  -0.301 -0.4361  0.2309 -0.2590
  425MOL0     C58555   3.923  11.953  -0.264  0.0141  0.0038 -0.7491
  425MOL0     C58556   3.855  12.043  -0.155 -0.9187  0.5606 -0.7232
  425MOL0    Cl58557   3.680  12.078  -0.182 -0.0068  0.2400  0.1616
  425MOL0     C58558   3.423  11.232   0.220  0.2605 -0.7501 -0.0015
  425MOL0     C58559   3.327  11.154   0.293  0.0572 -0.0347 -0.0134
  425MOL0     O58560   3.164  11.089   0.528  0.1266 -0.0625 -1.1830
  425MOL0     C58561   3.083  10.827   0.580  0.5069  0.8168 -1.0857
  425MOL0     C58562   3.038  10.701   0.621  0.4853 -1.3715  0.4801
  425MOL0     N58563   3.059  10.097   0.966 -0.5867 -0.1298  0.7117
  425MOL0     N58564   3.052   9.983   1.021  0.1763 -0.2091  0.0387
  425MOL0     C58565   2.994   8.786   0.823 -1.1245  0.4069 -0.0526
  425MOL0     C58566   3.074   8.683   0.779 -0.0588 -1.0937 -0.1250
  425MOL0     C58567   3.351   8.423   0.552  0.9856 -0.4052 -0.7478
  425MOL0     C58568   3.259   8.346   0.473  0.4207  1.0430  0.2965
  425MOL0     C58569   3.299   8.226   0.415  0.4672  0.9586  0.2149
  425MOL0     C58570   3.427   8.166   0.444 -0.0395 -1.3506  0.1033
  425MOL0     O58571   3.483   8.048   0.392  0.2065 -0.5054 -0.2988
  425MOL0     C58572   3.394   7.932   0.391 -0.0870 -1.1394  0.4985
  425MOL0     C58573   3.423   7.832   0.502  0.3942  0.1490  0.1810
  425MOL0     C58574   3.299   7.748   0.524 -0.1214 -0.3008  0.3997
  425MOL0     C58575   3.299   7.651   0.641  0.4875  0.9572  0.2067
  425MOL0     C58576   3.404   7.550   0.649  0.6750  0.5739  0.5493
  425MOL0     C58577   3.486   7.460   0.638  0.0699 -0.4765 -0.2535
  425MOL0     C58578   3.518   8.246   0.511 -0.1675  0.2434  0.4476
  425MOL0     C58579   3.492   8.374   0.563  1.5610 -0.5651  0.6944
  425MOL0     C58580   3.595   8.447   0.641  0.2293  0.2420 -0.0306
  425MOL0     H58581   3.079   8.785   0.453 -3.1614  2.4377 -1.3751
  425MOL0     H58582   2.961   8.971   0.537  1.0413 -1.3050 -1.6726
  425MOL0     H58583   2.723   9.030   0.661 -2.1888  2.4691  0.9172
  425MOL0     H58584   2.842   9.153   0.663  2.0050 -0.7813  0.1810
  425MOL0     H58585   2.621   9.202   0.799 -0.8170 -1.8079  0.1198
  425MOL0     H58586   2.664   9.085   0.908  2.0555 -0.5452  1.2293
  425MOL0     H58587   2.737   9.292   0.996 -0.9036  1.5713 -1.4418
  425MOL0     H58588   2.887   9.203   0.981  3.2391  1.8168 -2.7286
  425MOL0     H58589   2.914   9.330   0.759  2.0821  0.5093  0.2882
  425MOL0     H58590   2.755   9.415   0.813 -0.7487 -0.4475 -0.1442
  425MOL0     H58591   3.027   9.387   0.968 -1.5415 -0.1747  2.0292
  425MOL0     H58592   2.889   9.493   1.005 -3.2982  0.4625 -1.6795
  425MOL0     H58593   3.071   9.527   0.751  0.0636 -1.0387  0.7940
  425MOL0     H58594   2.911   9.607   0.789 -0.2409 -0.5168 -1.2320
  425MOL0     H58595   3.162   9.701   0.849  1.5621 -2.7665 -0.6265
  425MOL0     H58596   3.156   9.592   0.972 -1.3705 -2.8137 -0.4585
  425MOL0     H58597   2.886   9.710   0.962  1.4848 -1.7670 -1.4864
  425MOL0     H58598   3.004   9.748   1.098  3.0384 -1.6316  0.5030
  425MOL0     H58599   2.980   9.883   0.732  2.4444 -0.7266 -0.8520
  425MOL0     H58600   3.096  10.089   0.633  1.0008 -0.4162  0.5647
  425MOL0     H58601   3.115  10.238   0.720 -0.7564  0.1411 -0.1474
  425MOL0     H58602   2.948  10.238   0.540 -2.0305  0.2071  0.0849
  425MOL0     H58603   2.852  10.113   0.624 -1.7773  0.4069  2.3417
  425MOL0     H58604   2.751  10.318   0.666  0.7741 -2.8414 -2.2170
  425MOL0     H58605   2.846  10.284   0.824  2.8402 -0.1979 -0.2625
  425MOL0     H58606   2.882  10.502   0.779 -0.1074 -0.0576  1.4594
  425MOL0     H58607   3.033  10.427   0.714 -0.3201 -1.0472 -1.2177
  425MOL0     H58608   2.866  10.626   0.333  0.3464 -0.9388  0.0626
  425MOL0     H58609   2.879  10.952   0.260 -0.5395  0.2696 -1.4128
  425MOL0     H58610   2.867  10.789   0.185  1.0808 -0.5078 -1.0629
  425MOL0     H58611   3.025  10.868   0.177  0.3376 -0.7074  0.3111
  425MOL0     H58612   3.050  11.213   0.097  1.0101 -0.3598 -2.4031
  425MOL0     H58613   3.210  11.350  -0.017 -1.1091  0.5305 -0.0369
  425MOL0     H58614   3.411  11.306  -0.167 -2.0023 -0.3418  1.3084
  425MOL0     H58615   3.375  11.473  -0.116  0.9971 -0.2981 -0.9176
  425MOL0     H58616   3.658  11.365  -0.151 -0.6943 -0.3530 -0.9281
  425MOL0     H58617   3.560  11.434  -0.286 -0.3379  1.5558 -0.0018
  425MOL0     H58618   3.651  11.574  -0.043  2.3740  1.6284 -0.7903
  425MOL0     H58619   3.543  11.634  -0.192 -2.3667 -0.4632  1.5144
  425MOL0     H58620   3.759  11.584  -0.326  3.5545 -0.7201  0.3392
  425MOL0     H58621   3.834  11.522  -0.186  0.6996  0.2723 -0.8241
  425MOL0     H58622   3.761  11.776  -0.095  0.1910  2.2485 -2.0974
  425MOL0     H58623   3.921  11.712  -0.127  0.9430 -0.0875  2.4981
  425MOL0     H58624   3.740  11.850  -0.345 -0.1591 -0.2827 -1.1821
  425MOL0     H58625   3.892  11.776  -0.381  0.4770  0.4067  0.2456
  425MOL0     H58626   3.946  12.013  -0.352  0.9732  0.1968 -0.3785
  425MOL0     H58627   4.019  11.907  -0.237 -0.6136 -0.0600  1.5648
  425MOL0     H58628   3.908  12.139  -0.157 -2.3639  1.3985 -1.0607
  425MOL0     H58629   3.857  11.990  -0.060 -2.7839 -1.6667 -1.8293
  425MOL0     H58630   3.528  11.244   0.244  1.0740 -2.2614 -2.4532
  425MOL0     H58631   3.376  11.095   0.370  4.7334 -0.3276 -2.8353
  425MOL0     H58632   3.132  10.883   0.659  0.7302 -0.5634 -0.2142
  425MOL0     H58633   3.064  10.681   0.725  6.5494 -0.6009 -0.4958
  425MOL0     H58634   2.961   8.765   0.924 -0.9505 -1.0346 -0.2758
  425MOL0     H58635   3.104   8.609   0.852  0.7558 -0.4003  0.2605
  425MOL0     H58636   3.165   8.394   0.448  0.5157  0.0882 -2.1157
  425MOL0     H58637   3.236   8.177   0.341  0.1352 -3.2903  2.9026
  425MOL0     H58638   3.292   7.969   0.406  0.3420  0.4152 -0.2124
  425MOL0     H58639   3.395   7.880   0.295  0.9859  4.2161 -2.8456
  425MOL0     H58640   3.444   7.883   0.597  0.5259 -2.2995  1.5539
  425MOL0     H58641   3.507   7.765   0.481  2.0243  1.6776  1.4838
  425MOL0     H58642   3.224   7.822   0.555  1.9386  0.9478  2.7874
  425MOL0     H58643   3.279   7.691   0.433 -0.4389  0.2870  0.0912
  425MOL0     H58644   3.202   7.601   0.639  1.1747 -0.4952  0.8949
  425MOL0     H58645   3.305   7.701   0.738  0.6420  0.2965  0.5455
  425MOL0     H58646   3.559   7.385   0.616 -0.3080 -1.2671  1.0408
  425MOL0     H58647   3.620   8.211   0.518  0.2272  0.7300 -2.0864
  425MOL0     H58648   3.690   8.403   0.610 -1.6583 -3.0911 -1.6959
  425MOL0     H58649   3.589   8.555   0.629 -2.7629  0.0815 -0.8441
  425MOL0     H58650   3.595   8.423   0.747  1.9058 -0.2749 -0.1129
  426MOL0     O58651   1.755  11.051  11.332 -0.1296 -0.3690  0.2352
  426MOL0     C58652   1.644  11.097  11.308 -0.2983  0.6806  0.1193
  426MOL0     O58653   1.529  11.053  11.380 -0.0096 -0.3292 -0.1685
  426MOL0     C58654   1.546  10.965  11.476  0.3612  0.6754 -0.3214
  426MOL0     C58655   1.488  10.838  11.461  0.1246  0.4611  0.6302
  426MOL0     C58656   1.485  10.753  11.578  0.9973  0.5532  1.1530
  426MOL0     C58657   1.531  10.799  11.700 -0.7083  0.6947  0.0049
  426MOL0     O58658   1.543  10.710  11.802 -0.1256 -0.3348 -0.2671
  426MOL0     C58659   1.569  10.765  11.929  0.1178 -0.4893 -0.3590
  426MOL0     C58660   1.545  10.649  12.035 -0.2857 -0.6303 -0.2293
  426MOL0     C58661   1.406  10.643  12.085  0.1720  0.1554  0.0442
  426MOL0     C58662   1.383  10.509  12.153  0.7378 -0.0846  1.0219
  426MOL0     C58663   1.249  10.510  12.226  1.2088  0.6588  0.2208
  426MOL0     C58664   1.233  10.387  12.303  0.4047  0.6598  0.0970
  426MOL0     C58665   1.192  10.254  12.217 -0.5730 -1.0483  0.1166
  426MOL0     C58666   1.123  10.150  12.305 -0.1685 -0.1513  0.2799
  426MOL0     N58667   1.039  10.054  12.227 -0.5534  0.4002  0.7242
  426MOL0     C58668   1.076   9.983  12.114 -0.1489  1.0209 -0.1577
  426MOL0     C58669   0.957   9.928  12.069  0.1420 -0.3865  0.5130
  426MOL0     C58670   0.926   9.821  11.964 -0.6018  0.3543  0.1257
  426MOL0     C58671   0.897   9.698  12.036 -0.1686  0.7212  0.0926
  426MOL0     C58672   0.894   9.572  11.947  0.3997  0.1181 -0.4189
  426MOL0     C58673   0.831   9.451  12.029 -0.5494  0.8116 -0.4597
  426MOL0     O58674   0.792   9.340  11.946 -0.3941  0.4406 -0.6505
  426MOL0     C58675   0.727   9.227  11.978  0.2377  0.5742 -0.2365
  426MOL0     C58676   0.679   9.200  12.110 -0.5373  0.5820 -0.7555
  426MOL0     C58677   0.612   9.074  12.142 -0.0388  0.7144 -0.7841
  426MOL0     C58678   0.539   9.055  12.278  0.3741 -0.8214  0.5755
  426MOL0     C58679   0.603   8.973  12.046 -0.2727  1.0511  0.3163
  426MOL0     C58680   0.535   8.850  12.067 -0.5447 -0.4303 -0.2190
  426MOL0     O58681   0.451   8.797  11.970  0.4284 -0.4441  0.1632
  426MOL0     C58682   0.389   8.677  12.011 -0.8285 -0.9736 -0.2655
  426MOL0     C58683   0.281   8.683  12.102 -0.7696 -0.8195  0.1542
  426MOL0     C58684   0.235   8.567  12.163 -0.5470 -0.1290 -1.0792
  426MOL0     C58685   0.303   8.447  12.142  0.0673 -0.1450  0.0720
  426MOL0     O58686   0.245   8.333  12.199 -0.3407  0.6593 -0.9077
  426MOL0     C58687   0.314   8.203  12.186  0.3610 -1.5836  0.4325
  426MOL0     C58688   0.237   8.094  12.266  0.1281 -0.7077  0.5432
  426MOL0     C58689   0.332   8.006  12.345 -0.6274 -1.1415 -0.0031
  426MOL0     C58690   0.411   8.077  12.453 -0.5664  0.0963  0.8114
  426MOL0     C58691   0.463   7.999  12.582 -0.4634  1.1394 -0.2294
  426MOL0     C58692   0.539   7.869  12.545  0.0026 -0.1867  0.3293
  426MOL0     C58693   0.617   7.798  12.660  0.6706  0.4478 -0.6694
  426MOL0     C58694   0.687   7.687  12.589  1.1469  0.4127 -0.7157
  426MOL0    Cl58695   0.811   7.625  12.704  0.3990  0.1593 -0.1337
  426MOL0     C58696   0.399   8.446  12.047  0.0150 -0.9167  0.8177
  426MOL0     C58697   0.459   8.561  11.997 -0.8712 -0.2401  0.4346
  426MOL0     O58698   0.588   8.786  12.159  1.2219  0.3480  0.5501
  426MOL0     C58699   0.652   9.001  11.919 -0.3042  1.3299  0.6756
  426MOL0     C58700   0.710   9.126  11.887  0.3743 -0.6511 -1.0236
  426MOL0     N58701   0.851   9.961  12.153 -0.7384  1.1864 -0.4212
  426MOL0     N58702   0.903  10.031  12.253 -0.2068  0.3533  0.9899
  426MOL0     C58703   1.579  10.926  11.708 -0.2028  0.3902 -0.9240
  426MOL0     C58704   1.596  11.008  11.596  0.4599 -0.2939  0.4266
  426MOL0     C58705   1.630  11.205  11.203  0.0400  0.3549  0.0229
  426MOL0     C58706   1.739  11.213  11.101 -0.1375 -0.6941 -0.1643
  426MOL0     C58707   1.742  11.313  11.006 -0.4108  0.0994 -0.7771
  426MOL0     C58708   1.645  11.416  11.010  0.3327  0.5460 -1.2566
  426MOL0     O58709   1.635  11.521  10.915 -0.1012 -0.1988  0.2347
  426MOL0     C58710   1.717  11.496  10.801 -0.2712 -0.3885 -1.0778
  426MOL0     C58711   1.684  11.587  10.684 -0.2004  0.5905 -1.1920
  426MOL0     C58712   1.718  11.735  10.691 -0.0810 -0.6216 -0.5174
  426MOL0     C58713   1.649  11.818  10.800 -0.6516 -0.6589  0.1476
  426MOL0     C58714   1.500  11.824  10.799 -0.4388 -0.4925  0.7259
  426MOL0     C58715   1.380  11.811  10.802  0.7168  0.6195  0.5897
  426MOL0     C58716   1.546  11.410  11.102  0.0360 -0.6154 -0.2821
  426MOL0     C58717   1.536  11.310  11.198 -0.4450 -0.4277  0.9958
  426MOL0     C58718   1.425  11.318  11.297 -0.0499  0.3820 -0.1762
  426MOL0     H58719   1.448  10.806  11.365 -0.8931  3.0832  0.0895
  426MOL0     H58720   1.433  10.659  11.564  2.1393 -0.1875  1.7521
  426MOL0     H58721   1.509  10.848  11.966  1.3696  1.1126 -1.7928
  426MOL0     H58722   1.671  10.803  11.940 -0.9409  2.5894 -0.4004
  426MOL0     H58723   1.586  10.551  12.011  1.2680 -0.3036  0.9502
  426MOL0     H58724   1.600  10.683  12.123 -2.1857  3.3903 -0.3664
  426MOL0     H58725   1.384  10.719  12.162 -2.8017  0.3139 -0.8667
  426MOL0     H58726   1.336  10.643  12.002 -0.3887 -3.5425  0.3386
  426MOL0     H58727   1.372  10.426  12.082  0.7743  0.7486  0.0292
  426MOL0     H58728   1.467  10.483  12.219  1.5693  0.8854  0.3832
  426MOL0     H58729   1.172  10.525  12.149  3.1184  1.9038 -1.5671
  426MOL0     H58730   1.239  10.587  12.302 -3.3012 -0.6722  1.2749
  426MOL0     H58731   1.325  10.364  12.359  0.1580 -1.1762 -0.1703
  426MOL0     H58732   1.146  10.407  12.366 -0.4588  0.3887 -0.9814
  426MOL0     H58733   1.280  10.208  12.171 -1.4444  0.4254 -3.3572
  426MOL0     H58734   1.138  10.285  12.127  0.6545 -0.8290 -0.5619
  426MOL0     H58735   1.198  10.098  12.366  2.1282  1.5983 -0.9122
  426MOL0     H58736   1.056  10.206  12.371 -0.9743 -1.8899  1.0290
  426MOL0     H58737   1.180   9.966  12.087  0.3293  2.3103  0.7571
  426MOL0     H58738   1.009   9.804  11.894  0.3361 -0.7727  1.4800
  426MOL0     H58739   0.840   9.848  11.901  0.3066  3.6118  0.0633
  426MOL0     H58740   0.978   9.694  12.109  0.1351  4.1610  0.0855
  426MOL0     H58741   0.799   9.712  12.082  0.5714 -1.5740  2.6393
  426MOL0     H58742   0.834   9.597  11.858 -0.6548 -1.3884 -0.1672
  426MOL0     H58743   0.994   9.541  11.917  0.5569 -1.9463  1.9145
  426MOL0     H58744   0.891   9.411  12.112 -1.3257  0.3721 -0.1015
  426MOL0     H58745   0.733   9.484  12.065 -0.5574 -0.9120  1.2566
  426MOL0     H58746   0.682   9.272  12.191  1.4014 -0.0911 -0.1839
  426MOL0     H58747   0.512   9.152  12.319 -0.2739 -0.4373 -0.6979
  426MOL0     H58748   0.602   9.020  12.360 -0.0541  1.9327  2.2071
  426MOL0     H58749   0.444   9.002  12.269 -0.6486  1.1060 -0.8331
  426MOL0     H58750   0.240   8.780  12.128 -0.7645 -0.5660 -0.7429
  426MOL0     H58751   0.162   8.567  12.243  3.0297 -1.7274  2.5879
  426MOL0     H58752   0.298   8.180  12.080  0.8776 -0.7690  0.1645
  426MOL0     H58753   0.419   8.212  12.216  0.0421 -0.1819  1.2005
  426MOL0     H58754   0.185   8.144  12.348  4.8642  0.0737  3.4416
  426MOL0     H58755   0.187   8.026  12.195  0.7852 -2.7458  1.9539
  426MOL0     H58756   0.401   7.977  12.266 -1.1752 -0.1282 -0.8812
  426MOL0     H58757   0.286   7.915  12.386  2.0866 -2.5099  0.1725
  426MOL0     H58758   0.357   8.163  12.495 -1.1755  0.3172 -0.4026
  426MOL0     H58759   0.495   8.119  12.398  0.1262  0.1109  1.8393
  426MOL0     H58760   0.528   8.067  12.638 -2.3617  1.9402  1.1432
  426MOL0     H58761   0.385   7.985  12.658 -1.5440  0.4606 -1.4174
  426MOL0     H58762   0.616   7.890  12.470 -1.2834  1.0106 -0.6977
  426MOL0     H58763   0.476   7.795  12.494  3.4095 -1.4069 -2.5449
  426MOL0     H58764   0.556   7.772  12.747 -2.0465  1.0307 -2.2535
  426MOL0     H58765   0.694   7.872  12.682  0.9937  0.5830 -2.1179
  426MOL0     H58766   0.737   7.723  12.499  1.6032  1.3055 -0.1188
  426MOL0     H58767   0.618   7.607  12.561  0.9527  0.9490 -1.8410
  426MOL0     H58768   0.452   8.358  12.012  1.8262  0.8084 -1.0479
  426MOL0     H58769   0.540   8.557  11.924  0.1145 -4.0052  1.5150
  426MOL0     H58770   0.625   8.941  11.833  0.0173  2.8875 -0.5603
  426MOL0     H58771   0.730   9.145  11.782 -6.9066 -2.4383 -3.3183
  426MOL0     H58772   1.636  10.958  11.795  0.7445  2.4792 -2.2369
  426MOL0     H58773   1.642  11.103  11.620 -3.1129  0.7375  4.3562
  426MOL0     H58774   1.822  11.143  11.107 -0.6574 -1.2877  0.2488
  426MOL0     H58775   1.833  11.332  10.950  1.2163  0.2809  1.7717
  426MOL0     H58776   1.821  11.521  10.822 -1.1797  1.9382  1.2582
  426MOL0     H58777   1.695  11.395  10.766  0.0340 -1.2373  1.0747
  426MOL0     H58778   1.577  11.589  10.660 -0.1069 -1.6043 -2.0962
  426MOL0     H58779   1.731  11.540  10.597 -3.3330  0.3350 -2.9222
  426MOL0     H58780   1.825  11.753  10.677  0.5795 -2.6154  1.4143
  426MOL0     H58781   1.677  11.773  10.597  1.4278 -1.2741 -1.4821
  426MOL0     H58782   1.682  11.923  10.805  0.4162 -0.9930  0.4687
  426MOL0     H58783   1.685  11.776  10.895  1.0729 -1.7889 -0.9391
  426MOL0     H58784   1.273  11.798  10.799  0.2727  3.6985 -1.3615
  426MOL0     H58785   1.474  11.489  11.121  0.1790 -1.3538  4.4240
  426MOL0     H58786   1.360  11.405  11.282  1.3897  1.2875 -1.5293
  426MOL0     H58787   1.360  11.232  11.279 -0.0566  0.2751  0.3504
  426MOL0     H58788   1.464  11.322  11.399 -3.1309  1.7376  1.0817
  427MOL0     O58789   7.913   2.474   2.456 -0.0259  0.0938 -0.6203
  427MOL0     C58790   7.837   2.509   2.363 -0.1010  0.2596  0.3874
  427MOL0     O58791   7.758   2.615   2.358  0.3895 -0.5526 -0.5834
  427MOL0     C58792   7.735   2.707   2.462 -0.8046  0.5852 -0.1296
  427MOL0     C58793   7.785   2.709   2.588  0.5315 -0.2506 -0.8050
  427MOL0     C58794   7.741   2.803   2.690  0.2972  0.2581  0.8621
  427MOL0     C58795   7.662   2.908   2.649  0.2765 -0.2868 -0.5291
  427MOL0     O58796   7.621   2.993   2.754 -0.0286 -0.1233  0.0043
  427MOL0     C58797   7.554   3.113   2.715  0.0310  0.1767  0.5517
  427MOL0     C58798   7.511   3.176   2.846  0.1235 -0.3902 -0.4165
  427MOL0     C58799   7.627   3.251   2.914  1.0078  0.4776 -0.0287
  427MOL0     C58800   7.568   3.329   3.028  0.3086 -0.5743  0.3678
  427MOL0     C58801   7.667   3.341   3.135 -0.0811 -0.1777  0.2113
  427MOL0     C58802   7.613   3.353   3.273  0.4101  0.6412  0.6476
  427MOL0     C58803   7.520   3.228   3.311 -0.3925 -0.4369 -0.0025
  427MOL0     C58804   7.506   3.210   3.466  0.5263  0.3074  0.0171
  427MOL0     N58805   7.409   3.293   3.538  0.4336  0.1566  0.1661
  427MOL0     C58806   7.432   3.412   3.595 -1.2260 -0.0957  0.0028
  427MOL0     C58807   7.312   3.457   3.637  0.1440 -0.0210  0.3164
  427MOL0     C58808   7.285   3.582   3.724  0.3839 -0.8173 -0.5367
  427MOL0     C58809   7.321   3.713   3.644  0.2402 -0.0980  0.2829
  427MOL0     C58810   7.308   3.844   3.715  0.6819 -0.3860  0.2803
  427MOL0     C58811   7.163   3.909   3.716  0.3164  0.1283 -0.1954
  427MOL0     O58812   7.064   3.823   3.776 -0.3219  0.9011 -0.0214
  427MOL0     C58813   6.930   3.849   3.775 -0.5081 -0.5387 -0.3897
  427MOL0     C58814   6.870   3.969   3.759 -0.1364  1.0351 -0.3895
  427MOL0     C58815   6.728   3.989   3.768 -1.1105  0.2344  0.7734
  427MOL0     C58816   6.679   4.127   3.748 -0.6944  0.4408  0.2366
  427MOL0     C58817   6.644   3.876   3.808 -0.6980 -0.6838  0.9340
  427MOL0     C58818   6.500   3.877   3.812  0.0941 -0.7458 -0.9373
  427MOL0     O58819   6.436   3.759   3.791  0.4370  0.8219  0.7906
  427MOL0     C58820   6.297   3.751   3.802 -0.0199  0.7107 -0.3283
  427MOL0     C58821   6.244   3.638   3.870  0.3900 -0.1926  0.1683
  427MOL0     C58822   6.108   3.620   3.879  0.8362  0.6248 -0.3704
  427MOL0     C58823   6.012   3.697   3.807 -0.6819  0.6243 -0.5552
  427MOL0     O58824   5.876   3.672   3.816 -0.0940  0.4729 -0.2576
  427MOL0     C58825   5.786   3.692   3.706  0.2970  0.2819  0.3929
  427MOL0     C58826   5.652   3.752   3.745  0.3366  0.4117 -0.1074
  427MOL0     C58827   5.567   3.803   3.633  0.2298 -0.1321  1.1299
  427MOL0     C58828   5.602   3.951   3.599  0.1035  0.2315 -0.0209
  427MOL0     C58829   5.529   4.003   3.477  0.7278 -0.1822 -0.5033
  427MOL0     C58830   5.578   4.138   3.446 -0.8492  0.1369  0.0322
  427MOL0     C58831   5.489   4.194   3.328 -0.0503  0.3794 -0.7384
  427MOL0     C58832   5.538   4.334   3.285  0.3093 -0.1030  0.1814
  427MOL0    Cl58833   5.411   4.449   3.231 -0.3833  0.1423 -0.0492
  427MOL0     C58834   6.064   3.803   3.738 -1.0234  0.2485  0.5780
  427MOL0     C58835   6.199   3.833   3.738  0.0819  0.5214 -0.4670
  427MOL0     O58836   6.442   3.977   3.861  0.1733 -0.0035  0.9526
  427MOL0     C58837   6.716   3.754   3.831  0.5371  0.6726 -0.4499
  427MOL0     C58838   6.851   3.746   3.818  0.9301  0.2774 -0.4829
  427MOL0     N58839   7.217   3.353   3.622 -0.1773 -0.3265 -0.0956
  427MOL0     N58840   7.279   3.253   3.564  0.5369  0.0735 -0.1241
  427MOL0     C58841   7.628   2.921   2.518 -0.1496  0.6826  0.5690
  427MOL0     C58842   7.663   2.819   2.423  1.2408  0.1463 -0.2455
  427MOL0     C58843   7.829   2.414   2.261  0.7697  0.2637  0.4951
  427MOL0     C58844   7.791   2.282   2.295  0.5308 -0.5078  0.6984
  427MOL0     C58845   7.791   2.186   2.189  1.1132 -0.4191 -0.2721
  427MOL0     C58846   7.830   2.205   2.054 -0.1063 -0.1782 -0.8852
  427MOL0     O58847   7.816   2.102   1.971 -0.4081  0.6136 -0.2970
  427MOL0     C58848   7.908   1.996   1.986  0.1642  0.1143  0.1145
  427MOL0     C58849   7.909   1.903   1.861  0.8565  0.8505 -0.3743
  427MOL0     C58850   8.014   1.798   1.883 -0.5199  0.2478 -0.0929
  427MOL0     C58851   7.994   1.668   1.801 -1.1040  0.8671 -0.6962
  427MOL0     C58852   7.934   1.688   1.662 -0.0583  0.5609 -0.8281
  427MOL0     C58853   7.884   1.719   1.551 -0.2194 -0.4419 -0.6725
  427MOL0     C58854   7.857   2.342   2.023  0.1285  0.3561 -0.0726
  427MOL0     C58855   7.857   2.443   2.122  0.2878 -1.1218  0.1924
  427MOL0     C58856   7.913   2.578   2.077  0.4491  1.0917  0.4600
  427MOL0     H58857   7.849   2.630   2.626 -1.4218 -1.9241 -0.8644
  427MOL0     H58858   7.775   2.799   2.793  2.0758  1.9772  0.3950
  427MOL0     H58859   7.461   3.089   2.662 -1.1302 -2.9190  3.5789
  427MOL0     H58860   7.629   3.177   2.669  1.9611 -1.7250  0.8524
  427MOL0     H58861   7.439   3.258   2.832  1.9852  1.2017 -1.2410
  427MOL0     H58862   7.473   3.097   2.911 -2.6414  1.1576  0.0596
  427MOL0     H58863   7.713   3.192   2.946  1.2636  1.0606  0.3806
  427MOL0     H58864   7.680   3.314   2.841 -0.9030 -0.9198 -2.8092
  427MOL0     H58865   7.536   3.427   2.992  2.0286  1.0690  2.9285
  427MOL0     H58866   7.482   3.274   3.065  0.6839 -3.2606 -2.3447
  427MOL0     H58867   7.727   3.430   3.115 -0.7577 -0.0737 -1.5741
  427MOL0     H58868   7.734   3.255   3.132  0.1372 -0.0004 -0.0313
  427MOL0     H58869   7.697   3.369   3.341  0.5175 -0.7994  0.8724
  427MOL0     H58870   7.541   3.435   3.286  2.0465  2.0532  1.2129
  427MOL0     H58871   7.540   3.132   3.263 -5.8595 -2.4526  0.9492
  427MOL0     H58872   7.426   3.254   3.260  1.1192 -2.5785 -4.3705
  427MOL0     H58873   7.464   3.111   3.486 -1.7190  1.6203  2.3997
  427MOL0     H58874   7.612   3.209   3.495  1.0069 -0.4356 -1.6332
  427MOL0     H58875   7.522   3.472   3.598 -1.4157  0.1905  0.0135
  427MOL0     H58876   7.331   3.561   3.821 -1.1574 -2.3467 -0.0803
  427MOL0     H58877   7.180   3.590   3.754  1.2440  0.6577  2.4311
  427MOL0     H58878   7.420   3.702   3.598 -0.9982  1.4795 -3.0483
  427MOL0     H58879   7.259   3.712   3.555  0.1405 -3.2133  0.2995
  427MOL0     H58880   7.334   3.837   3.822 -2.3298 -0.2073  1.1169
  427MOL0     H58881   7.373   3.916   3.664  1.1390  1.2045  2.9060
  427MOL0     H58882   7.163   4.000   3.778 -2.5264 -2.6220  4.4631
  427MOL0     H58883   7.131   3.942   3.617  1.5212  0.5316 -0.4659
  427MOL0     H58884   6.936   4.052   3.740  1.4009 -0.2217 -0.7300
  427MOL0     H58885   6.573   4.135   3.721 -0.3603 -0.0693 -1.3200
  427MOL0     H58886   6.747   4.172   3.676  1.7167  0.0158  2.1111
  427MOL0     H58887   6.697   4.184   3.840 -2.6689 -0.2064  1.0855
  427MOL0     H58888   6.316   3.569   3.914 -0.7202 -1.3513  0.2017
  427MOL0     H58889   6.070   3.545   3.948  3.3875  1.9208  2.6953
  427MOL0     H58890   5.836   3.742   3.623 -2.1791  0.5085 -1.0609
  427MOL0     H58891   5.763   3.590   3.672  1.0553  0.5520 -1.0062
  427MOL0     H58892   5.591   3.672   3.789  3.0944  0.5708  4.6459
  427MOL0     H58893   5.667   3.824   3.826 -1.3877 -0.7198  1.3080
  427MOL0     H58894   5.463   3.807   3.666  0.3680  1.2721  1.4279
  427MOL0     H58895   5.563   3.731   3.551  0.2861  1.3897 -0.2603
  427MOL0     H58896   5.709   3.955   3.574 -0.6277  0.0202 -3.9574
  427MOL0     H58897   5.585   4.012   3.688  1.8312 -0.7950  1.0687
  427MOL0     H58898   5.563   3.939   3.395 -0.4762 -3.1294  1.1423
  427MOL0     H58899   5.420   3.993   3.479  0.3819  0.9515 -4.8013
  427MOL0     H58900   5.684   4.140   3.416 -0.2182  0.4967  2.0961
  427MOL0     H58901   5.559   4.197   3.536 -0.3939  1.9419 -0.9983
  427MOL0     H58902   5.388   4.204   3.368  0.6161  0.1747  1.1456
  427MOL0     H58903   5.497   4.124   3.245  1.0919 -1.8205  1.0946
  427MOL0     H58904   5.617   4.316   3.211  0.5876 -1.5574  0.8010
  427MOL0     H58905   5.586   4.388   3.367 -2.0564  0.6664  1.1457
  427MOL0     H58906   6.006   3.877   3.684  0.4753  3.0559  2.5172
  427MOL0     H58907   6.242   3.914   3.680 -1.5929  1.4431 -0.4767
  427MOL0     H58908   6.652   3.675   3.868  1.4521 -0.1350 -0.5629
  427MOL0     H58909   6.889   3.646   3.840  1.0701  0.8822  2.5192
  427MOL0     H58910   7.557   2.995   2.482 -1.8414 -0.8869  0.5222
  427MOL0     H58911   7.622   2.819   2.322 -0.9068 -2.2641  0.5286
  427MOL0     H58912   7.760   2.255   2.396  1.9000 -1.2912  0.9395
  427MOL0     H58913   7.772   2.084   2.222  0.0583  0.6124  2.6006
  427MOL0     H58914   8.011   2.033   1.996  1.6547 -3.0140 -1.9443
  427MOL0     H58915   7.884   1.952   2.083  1.0961  1.8674  1.1972
  427MOL0     H58916   7.919   1.956   1.767 -1.9302 -1.9195 -2.4454
  427MOL0     H58917   7.808   1.861   1.872  0.8711  0.9130  0.0344
  427MOL0     H58918   8.106   1.848   1.851 -1.6945  0.1933 -4.0138
  427MOL0     H58919   8.015   1.771   1.989  1.6622 -2.9142 -0.7712
  427MOL0     H58920   7.947   1.592   1.864  2.2001  0.6925  1.8762
  427MOL0     H58921   8.095   1.628   1.789 -0.7949 -0.4165  4.0823
  427MOL0     H58922   7.836   1.739   1.457 -1.5074 -2.1949 -0.4452
  427MOL0     H58923   7.878   2.379   1.923  0.7623 -1.1182 -0.4974
  427MOL0     H58924   7.824   2.634   2.048  0.3610 -0.2084 -2.0535
  427MOL0     H58925   7.971   2.620   2.159  4.3401  0.8273 -1.9109
  427MOL0     H58926   7.982   2.571   1.992 -1.8309  0.3020 -1.4266
  428MOL0     O58927  11.345  10.889   8.927  0.4777 -0.3820  0.7017
  428MOL0     C58928  11.352  10.998   8.861 -0.3783 -0.2744  0.2098
  428MOL0     O58929  11.251  11.095   8.854 -0.8720 -0.1788  0.3696
  428MOL0     C58930  11.122  11.059   8.896 -0.0059 -0.2521 -0.2890
  428MOL0     C58931  11.076  11.122   9.014  0.1348 -0.1393  0.4104
  428MOL0     C58932  10.951  11.087   9.067 -0.1022  0.1678  0.2486
  428MOL0     C58933  10.877  10.987   9.004 -1.0378  0.1396  0.1074
  428MOL0     O58934  10.748  10.945   9.035 -0.4131  0.1760  0.6383
  428MOL0     C58935  10.691  10.987   9.156 -0.6543 -0.2634  0.9383
  428MOL0     C58936  10.568  10.906   9.201 -0.1090 -0.3226 -0.2814
  428MOL0     C58937  10.505  10.971   9.320  0.1168  0.3519  0.4913
  428MOL0     C58938  10.387  10.881   9.366 -0.1038 -0.6907 -0.3846
  428MOL0     C58939  10.269  10.899   9.271 -0.1512 -0.3484  0.8914
  428MOL0     C58940  10.139  10.856   9.334  0.4252 -0.4733 -0.9578
  428MOL0     C58941  10.142  10.707   9.398 -0.4048 -0.5718 -0.5201
  428MOL0     C58942  10.007  10.629   9.407  0.3471 -0.0040 -0.6231
  428MOL0     N58943   9.976  10.560   9.278 -0.5251 -0.4402  0.1129
  428MOL0     C58944  10.041  10.450   9.234 -0.0811  0.9062 -0.2532
  428MOL0     C58945   9.983  10.416   9.114  0.2526 -0.0180  0.9579
  428MOL0     C58946  10.025  10.300   9.022  0.3757  0.4578  0.1378
  428MOL0     C58947   9.897  10.211   8.994  0.1327  0.4781 -0.8091
  428MOL0     C58948   9.902  10.088   8.890  0.2773 -0.7738  0.3491
  428MOL0     C58949  10.017   9.999   8.898 -0.1282  0.5457  0.5662
  428MOL0     O58950  10.029   9.956   9.037 -0.1256 -1.0281  0.3059
  428MOL0     C58951  10.115   9.858   9.071 -0.0759  0.2728  0.4691
  428MOL0     C58952  10.199   9.789   8.972 -0.6612 -0.0793 -0.2476
  428MOL0     C58953  10.275   9.673   9.007  1.6497  0.0096  0.9544
  428MOL0     C58954  10.337   9.596   8.897 -0.3958  0.1225 -0.1626
  428MOL0     C58955  10.270   9.628   9.136 -0.2519  0.2706 -0.0883
  428MOL0     C58956  10.344   9.511   9.195  0.1361  0.3640 -0.0686
  428MOL0     O58957  10.397   9.531   9.316  0.3431  0.6649 -0.8290
  428MOL0     C58958  10.455   9.426   9.387 -1.0937  0.1598 -0.6478
  428MOL0     C58959  10.596   9.417   9.366 -0.0223  1.1350 -0.6409
  428MOL0     C58960  10.671   9.308   9.415  0.4513 -0.6140 -0.1897
  428MOL0     C58961  10.611   9.217   9.508 -0.5988  0.1548  0.5292
  428MOL0     O58962  10.686   9.111   9.561  0.1280  0.1152  0.1748
  428MOL0     C58963  10.698   8.997   9.482  1.1870 -0.0090 -0.1514
  428MOL0     C58964  10.791   8.990   9.366  0.2612 -0.5265 -0.5944
  428MOL0     C58965  10.932   9.017   9.425 -1.0624 -0.4128  0.1640
  428MOL0     C58966  11.029   9.012   9.308 -0.6391  0.7660  0.1296
  428MOL0     C58967  11.164   9.039   9.365  0.3114 -0.1925  0.2916
  428MOL0     C58968  11.269   9.074   9.248 -0.2527 -1.1556  0.8965
  428MOL0     C58969  11.399   9.124   9.310  0.3322 -0.1510 -0.0212
  428MOL0     C58970  11.512   9.122   9.199  0.1468 -0.3820 -0.9532
  428MOL0    Cl58971  11.657   9.210   9.256  0.2120 -0.3826  0.3211
  428MOL0     C58972  10.475   9.236   9.534  0.4784 -0.6668  0.3001
  428MOL0     C58973  10.391   9.338   9.479  0.0986  0.4928  0.2100
  428MOL0     O58974  10.357   9.412   9.124  0.1203  0.3804 -0.1005
  428MOL0     C58975  10.198   9.714   9.237 -0.7980  0.8570  0.1342
  428MOL0     C58976  10.121   9.821   9.197 -0.3226 -0.0868  0.3322
  428MOL0     N58977   9.887  10.513   9.087  0.6177 -0.5801 -0.0042
  428MOL0     N58978   9.884  10.597   9.184  0.2691  0.1847  0.6097
  428MOL0     C58979  10.927  10.919   8.897  0.2320  0.2313 -0.1030
  428MOL0     C58980  11.050  10.957   8.847  0.6441 -0.5666  0.4806
  428MOL0     C58981  11.494  11.018   8.810 -0.1897  1.1459  0.3499
  428MOL0     C58982  11.554  11.139   8.824  0.2185  0.2884 -0.0657
  428MOL0     C58983  11.674  11.162   8.773 -0.8083  0.8093 -0.7047
  428MOL0     C58984  11.756  11.061   8.717  0.8856 -0.0228  0.1630
  428MOL0     O58985  11.881  11.071   8.668 -0.5030 -0.2928 -0.0740
  428MOL0     C58986  11.971  11.165   8.731 -0.8008 -0.7477  0.8112
  428MOL0     C58987  12.069  11.213   8.624  0.5622  0.1884  0.6520
  428MOL0     C58988  12.002  11.292   8.508 -0.0255  1.2497  0.3364
  428MOL0     C58989  11.947  11.433   8.547 -0.0729  0.3198 -0.1248
  428MOL0     C58990  11.852  11.484   8.441  0.9160  1.0219 -0.5332
  428MOL0     C58991  11.780  11.529   8.352  0.5276  1.1519 -0.4672
  428MOL0     C58992  11.695  10.931   8.707  0.7085  0.9089  0.1986
  428MOL0     C58993  11.561  10.914   8.747 -0.3077  0.9948 -1.4660
  428MOL0     C58994  11.502  10.774   8.722  0.3946  0.1292 -0.1381
  428MOL0     H58995  11.136  11.205   9.051 -2.2410  1.5388  0.7585
  428MOL0     H58996  10.909  11.136   9.154 -1.9430 -0.3931 -0.2611
  428MOL0     H58997  10.669  11.093   9.139  1.8345  0.4709  1.7324
  428MOL0     H58998  10.762  10.985   9.240  1.0433  0.6232 -0.4071
  428MOL0     H58999  10.490  10.898   9.124 -1.1286 -2.2860  0.8728
  428MOL0     H59000  10.601  10.806   9.229 -1.9448 -1.1716 -0.9567
  428MOL0     H59001  10.573  10.978   9.405 -0.8980 -3.9374  1.9209
  428MOL0     H59002  10.471  11.073   9.300  1.3450  1.7406  4.5148
  428MOL0     H59003  10.419  10.776   9.370  2.1892 -0.0246  1.1967
  428MOL0     H59004  10.364  10.911   9.469  0.6629 -1.7921  0.1349
  428MOL0     H59005  10.282  10.845   9.177 -2.0271 -0.9701  0.9500
  428MOL0     H59006  10.254  11.004   9.243 -2.3321 -1.4234 -2.6870
  428MOL0     H59007  10.117  10.922   9.419  2.8745  1.8530 -1.9923
  428MOL0     H59008  10.060  10.863   9.259 -1.4438 -1.3841  0.8135
  428MOL0     H59009  10.165  10.720   9.505 -0.3007 -0.1895 -0.5868
  428MOL0     H59010  10.222  10.654   9.345  1.7513 -0.3393  2.2420
  428MOL0     H59011  10.021  10.542   9.472  0.6334 -2.5309 -3.8090
  428MOL0     H59012   9.923  10.696   9.424 -0.3147 -1.2723  1.5185
  428MOL0     H59013  10.115  10.394   9.291 -1.5037 -1.7980 -0.9092
  428MOL0     H59014  10.102  10.247   9.078 -0.6508 -1.3101 -0.0355
  428MOL0     H59015  10.066  10.329   8.925  0.5846 -1.3381 -0.3425
  428MOL0     H59016   9.861  10.165   9.087  2.4852 -0.1839 -0.1769
  428MOL0     H59017   9.822  10.283   8.960 -2.7718 -1.9515 -0.0385
  428MOL0     H59018   9.806  10.037   8.902  0.5443 -0.9469  1.9650
  428MOL0     H59019   9.888  10.135   8.792 -2.5341 -1.1952  0.4521
  428MOL0     H59020  10.003   9.909   8.838 -0.2346  0.1507  1.1778
  428MOL0     H59021  10.107  10.045   8.855  0.1906 -1.4994 -1.1826
  428MOL0     H59022  10.190   9.812   8.866  0.5650 -3.4983 -1.2175
  428MOL0     H59023  10.313   9.489   8.902  0.6536 -0.1079  3.8485
  428MOL0     H59024  10.446   9.596   8.912 -0.7278  0.0908  2.9680
  428MOL0     H59025  10.302   9.648   8.808 -2.4363  0.8865  1.0238
  428MOL0     H59026  10.646   9.480   9.293  2.7940  2.6614  2.3602
  428MOL0     H59027  10.778   9.319   9.406  0.5135 -0.0500  1.0403
  428MOL0     H59028  10.716   8.920   9.558  2.3958  2.4636  2.2140
  428MOL0     H59029  10.597   8.979   9.445  0.3448  3.6037  0.0358
  428MOL0     H59030  10.791   8.903   9.300  2.0052  0.2127 -1.6447
  428MOL0     H59031  10.762   9.073   9.302  2.3052 -1.3300 -2.7060
  428MOL0     H59032  10.962   8.930   9.485  0.7818 -2.4539 -3.4365
  428MOL0     H59033  10.935   9.110   9.483 -0.9623  1.2678 -2.4224
  428MOL0     H59034  11.006   9.081   9.226  0.6810 -0.6898 -1.5210
  428MOL0     H59035  11.043   8.912   9.267  2.1792  2.6787 -4.2795
  428MOL0     H59036  11.156   9.121   9.437 -1.7306  1.0689 -1.2397
  428MOL0     H59037  11.203   8.951   9.417 -0.1660 -2.5268 -2.9733
  428MOL0     H59038  11.220   9.152   9.190 -0.3377 -1.6181  0.3391
  428MOL0     H59039  11.286   8.984   9.188 -0.2246 -0.1734 -0.6445
  428MOL0     H59040  11.422   9.039   9.374  0.1270 -0.5002 -0.4015
  428MOL0     H59041  11.392   9.219   9.363 -2.5571  0.4539 -1.2696
  428MOL0     H59042  11.483   9.176   9.108 -3.2515  1.9270  1.2598
  428MOL0     H59043  11.541   9.017   9.200  2.8893  0.2382  1.2689
  428MOL0     H59044  10.434   9.155   9.594  0.8231 -0.4631  0.8145
  428MOL0     H59045  10.285   9.340   9.501  0.0489  1.8096 -0.0583
  428MOL0     H59046  10.196   9.689   9.343 -0.8192  0.8438  0.1308
  428MOL0     H59047  10.061   9.880   9.266 -1.2326 -0.2438 -0.3090
  428MOL0     H59048  10.864  10.842   8.855  0.2549 -0.9632  1.9019
  428MOL0     H59049  11.084  10.902   8.760 -1.2684 -2.6563  0.9409
  428MOL0     H59050  11.515  11.223   8.881 -0.0505 -1.7585  3.0087
  428MOL0     H59051  11.714  11.263   8.784 -1.6318  1.1070 -0.3209
  428MOL0     H59052  11.918  11.250   8.774 -5.6521 -2.7122 -0.6806
  428MOL0     H59053  12.031  11.117   8.809 -1.9759 -2.7968  0.5263
  428MOL0     H59054  12.103  11.115   8.589 -3.4395 -1.8234  1.8066
  428MOL0     H59055  12.153  11.266   8.670  0.2641  1.2841 -0.0465
  428MOL0     H59056  12.087  11.319   8.444 -0.3356 -2.0137 -1.7236
  428MOL0     H59057  11.932  11.223   8.458  1.5892 -0.5793  0.4638
  428MOL0     H59058  12.024  11.506   8.572 -0.2141  0.3855  0.1267
  428MOL0     H59059  11.890  11.424   8.640 -0.1061  2.7778  0.1435
  428MOL0     H59060  11.735  11.573   8.265  0.7671  0.6458 -0.8542
  428MOL0     H59061  11.759  10.855   8.665  1.0162  1.0897  0.3383
  428MOL0     H59062  11.525  10.696   8.795 -0.2770 -0.1187 -0.1869
  428MOL0     H59063  11.396  10.770   8.695  0.1303  1.6905  0.5543
  428MOL0     H59064  11.546  10.739   8.629 -2.4351 -0.7821 -1.2331
  429MOL0     O59065   4.037   8.807   3.796 -0.2197 -0.8786 -0.1715
  429MOL0     C59066   3.978   8.857   3.890  0.2937 -0.4877  0.2072
  429MOL0     O59067   3.882   8.960   3.876  0.1463 -0.4668  0.2414
  429MOL0     C59068   3.852   9.013   3.751  0.0559  0.2979 -1.2868
  429MOL0     C59069   3.719   9.039   3.708  1.3035 -0.0221 -0.0633
  429MOL0     C59070   3.694   9.081   3.578  0.0047  0.0797 -0.5099
  429MOL0     C59071   3.795   9.131   3.502  0.3838  0.2803  0.5513
  429MOL0     O59072   3.754   9.196   3.384  0.2305 -0.7426  0.1974
  429MOL0     C59073   3.850   9.217   3.274  0.3892 -0.4870 -0.1185
  429MOL0     C59074   3.812   9.340   3.194  0.4096 -0.3064 -0.3183
  429MOL0     C59075   3.928   9.389   3.093  0.6387 -0.7581  0.1467
  429MOL0     C59076   3.875   9.484   2.987 -0.5808 -0.2145 -0.1403
  429MOL0     C59077   3.980   9.516   2.870  0.0753 -0.2774  0.4880
  429MOL0     C59078   4.109   9.572   2.933 -0.3899 -0.0193 -0.5126
  429MOL0     C59079   4.206   9.627   2.831 -0.6510  0.7084  0.3143
  429MOL0     C59080   4.348   9.646   2.890  0.7095 -1.1161 -0.6957
  429MOL0     N59081   4.426   9.519   2.883 -0.3315  0.5492 -0.1822
  429MOL0     C59082   4.429   9.411   2.972 -0.1215 -0.8075 -0.4373
  429MOL0     C59083   4.513   9.319   2.906  0.4257  0.0427 -0.0868
  429MOL0     C59084   4.567   9.185   2.970 -0.8765  0.1588 -0.2837
  429MOL0     C59085   4.718   9.168   2.953 -0.0516  0.3022 -0.1416
  429MOL0     C59086   4.773   9.025   2.994  0.6793  0.1055 -0.6026
  429MOL0     C59087   4.925   9.011   2.985 -0.1839  0.2416 -0.6339
  429MOL0     O59088   4.955   8.964   2.858 -0.1542 -0.0651 -0.4072
  429MOL0     C59089   5.060   9.027   2.808  0.1584 -0.0517  0.7339
  429MOL0     C59090   5.184   9.005   2.861 -0.4352 -0.0717  0.3260
  429MOL0     C59091   5.292   9.078   2.807 -0.8253  0.7989  0.0969
  429MOL0     C59092   5.427   9.020   2.856 -1.3417  0.2378  0.7193
  429MOL0     C59093   5.275   9.180   2.711  0.9892 -0.0846 -0.7718
  429MOL0     C59094   5.374   9.283   2.668 -0.9011 -0.4799  0.4637
  429MOL0     O59095   5.505   9.241   2.664 -0.2473  0.2507 -0.4888
  429MOL0     C59096   5.602   9.325   2.645  0.9351  0.5520  0.6575
  429MOL0     C59097   5.632   9.427   2.745  0.2023 -0.5876 -0.0915
  429MOL0     C59098   5.731   9.523   2.708  0.1708 -0.4516 -0.0984
  429MOL0     C59099   5.796   9.522   2.580  0.1814  0.6834 -0.2786
  429MOL0     O59100   5.884   9.625   2.562  0.0159  0.1477  0.6953
  429MOL0     C59101   5.815   9.720   2.481  0.2808  0.4245  0.1467
  429MOL0     C59102   5.893   9.845   2.489  0.8509  0.4601 -0.9697
  429MOL0     C59103   5.874   9.893   2.640  0.4918 -0.2353  0.1512
  429MOL0     C59104   5.972  10.013   2.662  0.3440 -0.2821  0.7081
  429MOL0     C59105   5.945  10.068   2.799 -0.3561 -0.0771 -0.1586
  429MOL0     C59106   5.997   9.980   2.912 -0.6445  0.8829  0.6079
  429MOL0     C59107   5.962  10.038   3.047 -0.1408 -0.6804 -0.6707
  429MOL0     C59108   5.984  10.184   3.057  0.2505  0.6386  1.3035
  429MOL0    Cl59109   5.826  10.265   3.063  0.1639  0.1481 -0.1667
  429MOL0     C59110   5.768   9.419   2.489 -0.6532 -0.6748 -0.1434
  429MOL0     C59111   5.668   9.325   2.520  0.3395  0.5797  0.0277
  429MOL0     O59112   5.341   9.400   2.656  0.4820  0.0634 -0.2510
  429MOL0     C59113   5.147   9.189   2.654  0.1660  0.0110  0.3874
  429MOL0     C59114   5.039   9.120   2.706  0.5795 -0.4127 -0.3960
  429MOL0     N59115   4.548   9.366   2.783  0.2118 -1.2975  0.2176
  429MOL0     N59116   4.495   9.478   2.771 -0.2939 -1.3209  0.8215
  429MOL0     C59117   3.926   9.113   3.546 -0.8337 -0.4144  0.9211
  429MOL0     C59118   3.958   9.060   3.668 -0.2525 -0.3557 -0.5606
  429MOL0     C59119   4.004   8.809   4.023 -0.3368 -1.0329 -0.1939
  429MOL0     C59120   3.952   8.891   4.136  0.0659  0.6751  0.9413
  429MOL0     C59121   3.990   8.853   4.268 -0.9554 -0.1562 -0.5257
  429MOL0     C59122   4.074   8.747   4.294 -0.0271  0.5093 -0.1913
  429MOL0     O59123   4.114   8.702   4.415 -0.3751  0.1697 -0.2621
  429MOL0     C59124   4.065   8.783   4.528 -0.3176  0.9195 -0.0069
  429MOL0     C59125   4.121   8.715   4.652  0.6124 -0.6417  0.3110
  429MOL0     C59126   4.066   8.584   4.682  0.1892  1.5201 -0.6839
  429MOL0     C59127   4.143   8.528   4.805  0.3033  0.5126  0.2695
  429MOL0     C59128   4.289   8.500   4.782  1.0358 -0.9880 -0.8078
  429MOL0     C59129   4.414   8.495   4.792  0.2578  0.3309  0.7368
  429MOL0     C59130   4.112   8.662   4.189  0.0169  0.2713 -0.3620
  429MOL0     C59131   4.079   8.699   4.055  0.0630 -0.1175 -0.1676
  429MOL0     C59132   4.111   8.593   3.953 -0.1880  0.1456 -1.8909
  429MOL0     H59133   3.639   9.016   3.778  0.3693 -0.4243 -1.2374
  429MOL0     H59134   3.592   9.083   3.543 -0.3364 -1.1733  0.3614
  429MOL0     H59135   3.866   9.128   3.212  3.5940 -0.6535  0.7424
  429MOL0     H59136   3.950   9.246   3.308  0.8289  0.0686 -1.7911
  429MOL0     H59137   3.726   9.306   3.135  0.5661  1.2754 -1.5200
  429MOL0     H59138   3.782   9.418   3.265  0.2582 -2.3135  1.9681
  429MOL0     H59139   4.006   9.440   3.150 -0.3557 -1.1274  1.8976
  429MOL0     H59140   3.973   9.309   3.034 -1.0064 -0.5271 -1.5435
  429MOL0     H59141   3.787   9.433   2.948 -0.1463  0.4841 -2.1387
  429MOL0     H59142   3.837   9.581   3.023 -0.4270 -0.3088  0.2885
  429MOL0     H59143   3.933   9.598   2.815  4.9549  2.2236 -0.4920
  429MOL0     H59144   3.990   9.419   2.821 -1.7981 -0.7495  0.9483
  429MOL0     H59145   4.089   9.651   3.006  1.0913 -0.4653  0.4113
  429MOL0     H59146   4.160   9.496   2.992  0.0206 -1.4452 -2.5959
  429MOL0     H59147   4.176   9.728   2.801 -0.8631  0.6518  0.3403
  429MOL0     H59148   4.213   9.557   2.747  1.6823  1.2619 -0.0177
  429MOL0     H59149   4.404   9.730   2.847 -0.0021 -0.3439 -0.1372
  429MOL0     H59150   4.339   9.663   2.997  1.0892  0.5755 -0.9082
  429MOL0     H59151   4.402   9.402   3.077  1.3573 -1.6652 -0.1074
  429MOL0     H59152   4.508   9.103   2.928 -0.5875 -0.7159  0.9944
  429MOL0     H59153   4.548   9.193   3.077  1.4688 -1.2649  0.3026
  429MOL0     H59154   4.742   9.191   2.848  0.8126 -0.9541 -0.2428
  429MOL0     H59155   4.765   9.252   3.006  0.3187 -0.1476  0.2475
  429MOL0     H59156   4.738   8.986   3.090 -2.2207 -2.2671 -2.4372
  429MOL0     H59157   4.728   8.956   2.922  0.9682  1.6226 -2.3025
  429MOL0     H59158   4.971   9.107   3.007  0.7656 -0.4604  0.6365
  429MOL0     H59159   4.979   8.939   3.048  1.4930 -0.5916 -2.8683
  429MOL0     H59160   5.192   8.951   2.955 -0.3329 -1.3033 -0.3712
  429MOL0     H59161   5.423   8.946   2.936 -0.7198 -0.2072  0.3462
  429MOL0     H59162   5.491   9.100   2.895  2.3663 -2.0323 -0.2197
  429MOL0     H59163   5.484   8.972   2.776 -2.2174 -1.0157  0.8145
  429MOL0     H59164   5.574   9.437   2.836  0.3550  0.0503 -0.0598
  429MOL0     H59165   5.751   9.605   2.776  3.6066 -2.8974  2.1563
  429MOL0     H59166   5.802   9.689   2.377 -4.1445  1.9806  0.0378
  429MOL0     H59167   5.720   9.743   2.530 -1.6563 -1.3865 -2.5257
  429MOL0     H59168   5.994   9.826   2.454  0.9099  0.4468 -0.7941
  429MOL0     H59169   5.858   9.930   2.429  1.7553  0.5251 -1.4203
  429MOL0     H59170   5.894   9.803   2.699 -2.6358 -1.1938 -0.0636
  429MOL0     H59171   5.771   9.928   2.651  0.1756 -0.7776 -0.8980
  429MOL0     H59172   5.954  10.091   2.587 -1.3100 -1.4133 -0.1449
  429MOL0     H59173   6.074   9.982   2.639  1.1460  0.7847  2.5287
  429MOL0     H59174   6.003  10.160   2.792 -0.8348  0.1330 -1.9935
  429MOL0     H59175   5.839  10.087   2.819 -0.3565 -3.0338  3.8446
  429MOL0     H59176   6.106   9.975   2.903 -0.7105  1.4814 -0.7195
  429MOL0     H59177   5.949   9.882   2.897 -1.0166  1.0143  0.9236
  429MOL0     H59178   6.029   9.990   3.119  0.2980 -0.0907 -0.6757
  429MOL0     H59179   5.857  10.017   3.069  0.3898 -1.2582  1.5605
  429MOL0     H59180   6.045  10.213   2.971 -0.5359 -3.8255 -1.0220
  429MOL0     H59181   6.047  10.223   3.138 -0.5328  1.7839  1.3986
  429MOL0     H59182   5.818   9.401   2.395  1.2688 -3.5792  1.3041
  429MOL0     H59183   5.627   9.258   2.446  1.9392  2.0302 -2.3127
  429MOL0     H59184   5.127   9.270   2.584  0.8742  2.3503  2.7093
  429MOL0     H59185   4.934   9.126   2.677  1.3559 -0.0144 -3.5942
  429MOL0     H59186   4.003   9.154   3.482 -2.0476 -3.2176 -2.7261
  429MOL0     H59187   4.064   9.060   3.687  0.3426  2.5462 -3.1766
  429MOL0     H59188   3.896   8.981   4.114 -4.0625 -2.0091 -0.6876
  429MOL0     H59189   3.956   8.918   4.348  0.0403 -0.6442  0.3089
  429MOL0     H59190   4.097   8.888   4.522  0.4581  0.5889 -2.5094
  429MOL0     H59191   3.956   8.785   4.534 -0.2975 -0.4752  2.4950
  429MOL0     H59192   4.107   8.780   4.738  1.0963 -0.5863  0.3527
  429MOL0     H59193   4.230   8.713   4.638  0.5577  1.0369 -0.5299
  429MOL0     H59194   3.959   8.588   4.704  0.5113  0.1940  1.4831
  429MOL0     H59195   4.087   8.516   4.599 -1.4625  1.6882 -1.2583
  429MOL0     H59196   4.087   8.442   4.844  2.7337 -0.9692  0.7413
  429MOL0     H59197   4.120   8.606   4.878  0.3054 -1.0322  2.0142
  429MOL0     H59198   4.521   8.500   4.787  0.4436 -2.8739 -0.8390
  429MOL0     H59199   4.176   8.577   4.212  0.0951  0.5742  0.5807
  429MOL0     H59200   4.133   8.495   3.997 -3.5791  0.4432  0.8910
  429MOL0     H59201   4.014   8.569   3.908 -3.2870 -2.4933  4.8964
  429MOL0     H59202   4.185   8.626   3.879  1.0107  0.9957 -0.3501
  430MOL0     O59203   7.509   6.791   7.050  0.8400 -0.1167  0.0586
  430MOL0     C59204   7.510   6.670   7.070 -0.9242 -0.0034  0.9772
  430MOL0     O59205   7.621   6.598   7.121 -0.2661  1.4051 -0.5965
  430MOL0     C59206   7.752   6.646   7.135  0.1975 -0.6872 -0.0046
  430MOL0     C59207   7.845   6.537   7.130  0.9041 -0.1220 -0.3494
  430MOL0     C59208   7.981   6.560   7.112  0.2380  0.2761  0.4103
  430MOL0     C59209   8.033   6.688   7.116 -0.7404 -0.2139  0.0843
  430MOL0     O59210   8.163   6.735   7.098 -0.2032  0.0389  0.2179
  430MOL0     C59211   8.266   6.641   7.063 -0.5429  0.0733 -0.2299
  430MOL0     C59212   8.404   6.703   7.074 -0.3665  0.6859 -0.8189
  430MOL0     C59213   8.435   6.800   6.956 -0.8284  0.1511  0.0818
  430MOL0     C59214   8.473   6.724   6.830 -0.2018 -0.0407  0.7578
  430MOL0     C59215   8.553   6.815   6.718 -0.2378  0.3207  0.8128
  430MOL0     C59216   8.683   6.866   6.764 -0.6741  0.2393 -0.4606
  430MOL0     C59217   8.763   6.921   6.643 -0.7378  0.6679 -1.2606
  430MOL0     C59218   8.893   6.983   6.696  0.0485  0.1412 -0.1359
  430MOL0     N59219   8.882   7.121   6.745  0.0523 -0.5618 -0.2149
  430MOL0     C59220   8.861   7.235   6.668 -0.2740  0.0330 -0.3699
  430MOL0     C59221   8.893   7.344   6.738  0.1584 -0.9264  0.9195
  430MOL0     C59222   8.871   7.484   6.680 -1.2984  0.5216  0.4489
  430MOL0     C59223   9.000   7.566   6.683 -0.7037 -0.0987  0.2674
  430MOL0     C59224   9.000   7.676   6.583 -0.2650  0.4856  0.5302
  430MOL0     C59225   9.051   7.805   6.638  0.8997  0.2536 -0.1651
  430MOL0     O59226   9.182   7.791   6.696  0.6212  0.1833 -1.6852
  430MOL0     C59227   9.290   7.837   6.633 -0.2752 -0.6966 -0.7122
  430MOL0     C59228   9.359   7.935   6.695  0.5135 -0.1332 -0.0493
  430MOL0     C59229   9.450   8.022   6.629 -0.0293 -0.6659  0.4725
  430MOL0     C59230   9.527   8.123   6.704 -0.5049 -0.7293 -0.0469
  430MOL0     C59231   9.477   7.986   6.492  0.8892 -0.4348 -0.8262
  430MOL0     C59232   9.567   8.065   6.412 -1.0258  0.1976  0.0451
  430MOL0     O59233   9.662   8.144   6.467 -0.0336  0.0883  0.1426
  430MOL0     C59234   9.728   8.232   6.376  0.7928 -0.8528  0.1236
  430MOL0     C59235   9.836   8.192   6.301 -0.2235  0.2367  0.8115
  430MOL0     C59236   9.892   8.287   6.214  0.3047 -0.0503  0.1658
  430MOL0     C59237   9.848   8.419   6.213  0.2982  0.9264 -0.2279
  430MOL0     O59238   9.918   8.501   6.131  0.0164  0.1825  0.4351
  430MOL0     C59239   9.901   8.648   6.122  0.3714  0.2462 -0.4738
  430MOL0     C59240   9.954   8.719   6.251  0.4566 -0.1051  0.5194
  430MOL0     C59241  10.099   8.732   6.247 -0.2936  0.5026 -0.1188
  430MOL0     C59242  10.185   8.605   6.240 -0.8277  0.1340 -0.1088
  430MOL0     C59243  10.340   8.642   6.251 -0.4373  0.0587 -0.1555
  430MOL0     C59244  10.437   8.525   6.222 -0.0410  0.1191  0.0305
  430MOL0     C59245  10.570   8.582   6.210  0.0026 -0.5034  0.1302
  430MOL0     C59246  10.665   8.472   6.197 -0.6707  0.0647  0.6576
  430MOL0    Cl59247  10.692   8.396   6.366 -0.1952 -0.0997  0.0791
  430MOL0     C59248   9.744   8.463   6.295 -0.0928  0.4955  1.0360
  430MOL0     C59249   9.684   8.366   6.374 -0.2430  0.2327 -0.8727
  430MOL0     O59250   9.549   8.056   6.286  0.8768  0.0967 -0.4625
  430MOL0     C59251   9.402   7.887   6.432  0.5715  0.7837  0.4767
  430MOL0     C59252   9.314   7.807   6.504 -0.3695  0.8797 -0.1910
  430MOL0     N59253   8.933   7.294   6.862  0.2948 -0.7055  0.3026
  430MOL0     N59254   8.926   7.167   6.867  0.3620 -0.6877  0.1415
  430MOL0     C59255   7.939   6.795   7.140 -0.1914  0.1482 -0.1192
  430MOL0     C59256   7.799   6.777   7.140 -0.6483 -0.4239 -0.2157
  430MOL0     C59257   7.382   6.584   7.056 -0.3881  0.5243  0.5349
  430MOL0     C59258   7.383   6.442   7.083 -0.8384  1.4744 -0.3096
  430MOL0     C59259   7.278   6.361   7.046  0.3213 -0.8848  1.7614
  430MOL0     C59260   7.163   6.417   6.993  0.0736  0.8036  0.4043
  430MOL0     O59261   7.056   6.338   6.965 -0.5920  0.9222 -0.4984
  430MOL0     C59262   7.011   6.363   6.830  0.2828 -0.0244 -0.5094
  430MOL0     C59263   7.120   6.352   6.719  0.2925 -0.4214  0.8210
  430MOL0     C59264   7.048   6.363   6.587  1.2333  0.4448  0.0371
  430MOL0     C59265   7.134   6.341   6.460  0.4316  0.0655 -0.6679
  430MOL0     C59266   7.046   6.362   6.340 -0.1752  0.7666 -0.2896
  430MOL0     C59267   6.994   6.398   6.233 -0.4239 -0.8630  0.1474
  430MOL0     C59268   7.148   6.557   6.996  0.0192 -0.8345  0.4878
  430MOL0     C59269   7.254   6.638   7.020  0.2119 -0.9394 -0.5713
  430MOL0     C59270   7.233   6.788   6.993 -0.2595  0.0178  0.1460
  430MOL0     H59271   7.804   6.436   7.122 -0.9853  0.5990 -0.2700
  430MOL0     H59272   8.058   6.484   7.102  1.0374  1.2808 -1.7238
  430MOL0     H59273   8.259   6.608   6.959  4.1622 -0.2795 -0.6371
  430MOL0     H59274   8.278   6.550   7.122  0.6284  1.2976  1.5045
  430MOL0     H59275   8.420   6.759   7.166 -2.8127  1.8390 -1.0125
  430MOL0     H59276   8.473   6.618   7.065 -0.2335  0.5752  0.8139
  430MOL0     H59277   8.345   6.860   6.938  0.9811  3.1420  0.1802
  430MOL0     H59278   8.526   6.855   6.979 -1.6931  2.4422 -1.5566
  430MOL0     H59279   8.530   6.637   6.862 -1.3573 -0.7915  0.8121
  430MOL0     H59280   8.377   6.688   6.794  0.0798 -0.8478  0.7947
  430MOL0     H59281   8.492   6.905   6.707  1.8561  1.6965  0.1047
  430MOL0     H59282   8.566   6.758   6.626  1.0345  3.4903 -1.0955
  430MOL0     H59283   8.667   6.946   6.837  1.2310 -0.0744  0.3532
  430MOL0     H59284   8.752   6.793   6.808  2.4576  4.0001  1.5247
  430MOL0     H59285   8.705   6.996   6.590 -0.2419  0.3642 -2.2547
  430MOL0     H59286   8.791   6.849   6.565  0.4652 -1.9820  1.4011
  430MOL0     H59287   8.926   6.918   6.778 -2.1277 -1.1107 -0.1614
  430MOL0     H59288   8.980   6.987   6.631  2.8330 -1.5076  3.1551
  430MOL0     H59289   8.826   7.243   6.565  1.6961 -1.6234 -1.2374
  430MOL0     H59290   8.797   7.526   6.748 -3.4064 -0.3350 -1.1977
  430MOL0     H59291   8.830   7.479   6.579  0.4305  2.2359 -0.3889
  430MOL0     H59292   9.027   7.600   6.784 -0.7616 -2.1140  0.9969
  430MOL0     H59293   9.083   7.497   6.664 -2.1010 -2.1334  1.2268
  430MOL0     H59294   9.042   7.636   6.490 -1.8557 -0.6444  0.2579
  430MOL0     H59295   8.898   7.700   6.552 -1.0699 -3.3531 -0.3113
  430MOL0     H59296   9.056   7.868   6.548  0.8602  0.2761 -0.1517
  430MOL0     H59297   8.979   7.857   6.702 -0.7751 -1.0492 -0.9105
  430MOL0     H59298   9.342   7.934   6.802 -1.2319 -3.7495 -0.1950
  430MOL0     H59299   9.508   8.224   6.666  1.8640  0.3153  1.3241
  430MOL0     H59300   9.635   8.105   6.710  0.4437  3.2660 -1.6629
  430MOL0     H59301   9.486   8.137   6.804  2.3112  1.7155  0.9328
  430MOL0     H59302   9.871   8.090   6.300 -0.8537  0.0141  0.2055
  430MOL0     H59303   9.972   8.256   6.148 -0.2215  0.7081 -0.8441
  430MOL0     H59304   9.953   8.694   6.037 -0.3229  0.6807 -0.6680
  430MOL0     H59305   9.796   8.674   6.113  0.8549  2.5344 -0.2013
  430MOL0     H59306   9.911   8.819   6.264  4.1434  1.5302  1.6863
  430MOL0     H59307   9.933   8.667   6.345 -0.9494 -1.2844 -0.4094
  430MOL0     H59308  10.127   8.781   6.341 -2.6424 -0.1991  1.0348
  430MOL0     H59309  10.138   8.795   6.167  0.3184 -0.1670 -0.3551
  430MOL0     H59310  10.165   8.559   6.143 -3.4639 -0.3446  0.5967
  430MOL0     H59311  10.156   8.531   6.316 -1.4761 -0.8378 -1.2776
  430MOL0     H59312  10.368   8.720   6.180 -1.2575  0.4600 -0.0561
  430MOL0     H59313  10.354   8.676   6.354 -0.6001 -5.6848  2.1582
  430MOL0     H59314  10.401   8.477   6.131  0.9876 -0.6605  0.0179
  430MOL0     H59315  10.418   8.465   6.312 -0.9306 -2.3744 -1.6995
  430MOL0     H59316  10.596   8.641   6.299 -0.4089 -0.9070  0.5215
  430MOL0     H59317  10.572   8.654   6.128 -2.1020  0.7040  1.0454
  430MOL0     H59318  10.757   8.515   6.157 -0.4905 -2.4368 -1.8858
  430MOL0     H59319  10.630   8.403   6.120 -2.2697  3.3950 -1.8657
  430MOL0     H59320   9.705   8.564   6.293 -2.7563 -0.4432 -1.8587
  430MOL0     H59321   9.607   8.394   6.444 -0.5856 -3.2927  0.3650
  430MOL0     H59322   9.412   7.886   6.324  0.4120  1.2513  0.4525
  430MOL0     H59323   9.253   7.730   6.459 -1.5567  0.4338  2.0014
  430MOL0     H59324   7.987   6.891   7.155  1.8824 -1.0204  1.3676
  430MOL0     H59325   7.732   6.862   7.148 -1.0028 -0.7719  0.6344
  430MOL0     H59326   7.473   6.403   7.131 -1.3754  0.3683 -0.1715
  430MOL0     H59327   7.285   6.255   7.069 -0.5982 -1.7785 -1.5575
  430MOL0     H59328   6.937   6.288   6.800 -1.3705  1.0780  0.6955
  430MOL0     H59329   6.975   6.465   6.817 -2.0421 -0.7100  0.0833
  430MOL0     H59330   7.175   6.257   6.725 -0.3543 -0.8046  0.8182
  430MOL0     H59331   7.188   6.436   6.704  2.0983 -1.6484  1.7603
  430MOL0     H59332   6.960   6.298   6.589  0.2138  1.6997 -1.3315
  430MOL0     H59333   6.998   6.459   6.570  0.3684 -0.6072 -4.9581
  430MOL0     H59334   7.173   6.239   6.455 -0.3743 -0.3165  0.5206
  430MOL0     H59335   7.217   6.411   6.446 -0.7101  1.5189 -0.4720
  430MOL0     H59336   6.956   6.424   6.136 -1.8909 -2.8436  0.1337
  430MOL0     H59337   7.049   6.600   6.981 -0.2890 -0.9244  2.0839
  430MOL0     H59338   7.130   6.808   6.963 -0.0167  1.7397  0.3546
  430MOL0     H59339   7.247   6.844   7.086 -0.0498  0.4672 -0.1538
  430MOL0     H59340   7.308   6.829   6.925  4.6711 -1.7041  3.9691
  431MOL0     O59341   0.181   2.773   7.537 -0.3264 -0.5865  1.2423
  431MOL0     C59342   0.255   2.840   7.609 -0.5882 -0.1948  0.6786
  431MOL0     O59343   0.390   2.857   7.587 -0.3031  0.1243  0.2617
  431MOL0     C59344   0.462   2.954   7.647  0.3833 -0.1911  1.0928
  431MOL0     C59345   0.437   3.081   7.623  0.6739  0.7743 -0.9901
  431MOL0     C59346   0.492   3.191   7.684  0.6772 -0.5909 -0.4717
  431MOL0     C59347   0.592   3.162   7.785  0.3976 -0.5095 -0.0274
  431MOL0     O59348   0.636   3.281   7.852 -0.1094  0.4940 -0.7790
  431MOL0     C59349   0.767   3.263   7.910 -0.1567 -0.5848 -0.0125
  431MOL0     C59350   0.810   3.400   7.983  1.0315 -0.3214 -0.7010
  431MOL0     C59351   0.733   3.436   8.107 -0.5644  0.2940 -0.2475
  431MOL0     C59352   0.670   3.568   8.097  0.6510  0.0937 -0.9475
  431MOL0     C59353   0.595   3.606   8.231  0.9863 -0.4122  0.3717
  431MOL0     C59354   0.496   3.717   8.238  0.8939 -0.0168  0.2299
  431MOL0     C59355   0.550   3.854   8.192 -0.2131  0.1405 -0.4507
  431MOL0     C59356   0.456   3.972   8.212  0.2391 -0.2755 -0.3413
  431MOL0     N59357   0.498   4.093   8.143  0.2087 -0.4651  0.8543
  431MOL0     C59358   0.572   4.194   8.198  0.7520  0.3830  0.0245
  431MOL0     C59359   0.578   4.295   8.109  0.1130  0.2426 -1.3432
  431MOL0     C59360   0.642   4.428   8.132  0.5622  0.2066  0.7593
  431MOL0     C59361   0.597   4.481   8.264  0.1364 -0.3696 -1.0491
  431MOL0     C59362   0.449   4.515   8.255  0.3682 -0.1541  0.5627
  431MOL0     C59363   0.392   4.578   8.388  0.0511 -0.3512  0.0687
  431MOL0     O59364   0.248   4.587   8.397  0.3879  0.5179 -0.0628
  431MOL0     C59365   0.191   4.715   8.394 -0.0024  0.1294 -0.6572
  431MOL0     C59366   0.212   4.807   8.297 -0.1460  0.7811 -0.0422
  431MOL0     C59367   0.147   4.934   8.301  0.7481  0.6410 -0.2057
  431MOL0     C59368   0.183   5.030   8.197 -0.5493 -1.3235  0.6175
  431MOL0     C59369   0.040   4.951   8.386 -0.3178  0.5631  1.1047
  431MOL0     C59370  -0.066   5.055   8.370  0.1228 -0.2210 -0.3146
  431MOL0     O59371  -0.062   5.145   8.260 -0.2805  0.3900  0.0201
  431MOL0     C59372  -0.122   5.271   8.256  0.4870 -0.7510 -0.3325
  431MOL0     C59373  -0.046   5.379   8.225 -0.5029  1.0288 -0.7911
  431MOL0     C59374  -0.097   5.512   8.222 -0.6828  0.4113 -0.0189
  431MOL0     C59375  -0.235   5.537   8.243 -0.0273 -0.1914  0.7153
  431MOL0     O59376  -0.297   5.657   8.215  0.3478 -0.6445 -0.2311
  431MOL0     C59377  -0.238   5.741   8.109  0.4277 -1.0074 -0.7396
  431MOL0     C59378  -0.316   5.870   8.104  0.4882  0.2792  0.1585
  431MOL0     C59379  -0.451   5.844   8.026  0.2218 -0.8391  0.0685
  431MOL0     C59380  -0.473   5.893   7.880  0.3791 -0.1470 -0.0815
  431MOL0     C59381  -0.538   6.030   7.875 -0.7048 -0.5931 -0.4748
  431MOL0     C59382  -0.557   6.070   7.732 -0.3973  0.5766 -0.2344
  431MOL0     C59383  -0.598   6.215   7.705 -1.3922 -0.5020 -0.3254
  431MOL0     C59384  -0.716   6.265   7.791 -0.3258 -0.1920  0.3903
  431MOL0    Cl59385  -0.845   6.153   7.767 -0.2274  0.1024 -0.1299
  431MOL0     C59386  -0.311   5.430   8.286  0.0053  0.6987 -0.0435
  431MOL0     C59387  -0.258   5.298   8.298 -0.8641 -0.0054  1.1079
  431MOL0     O59388  -0.147   5.068   8.464 -0.0436  0.0037  0.2102
  431MOL0     C59389   0.019   4.857   8.492 -0.7436 -0.2642  0.6898
  431MOL0     C59390   0.097   4.740   8.496 -0.5398  0.3574 -0.6226
  431MOL0     N59391   0.510   4.250   7.994 -0.7513  0.2419 -0.0248
  431MOL0     N59392   0.461   4.132   8.018 -0.1280  1.0580 -0.2440
  431MOL0     C59393   0.639   3.027   7.802 -0.0503  0.0706  0.5034
  431MOL0     C59394   0.567   2.926   7.730  0.0299 -0.0846 -0.1864
  431MOL0     C59395   0.186   2.919   7.720 -0.2881  0.7970 -0.4510
  431MOL0     C59396   0.240   2.891   7.847 -0.4557 -0.1303  0.1167
  431MOL0     C59397   0.191   2.953   7.960 -0.8980  0.3810  0.1594
  431MOL0     C59398   0.098   3.050   7.957  0.1304 -0.1304  0.6512
  431MOL0     O59399   0.062   3.104   8.072  0.5293  0.3815 -0.1983
  431MOL0     C59400  -0.078   3.137   8.090 -1.4531 -0.2194 -0.1895
  431MOL0     C59401  -0.081   3.286   8.139 -1.1570  0.5229  0.1018
  431MOL0     C59402  -0.214   3.353   8.149  1.5061 -1.1036  0.3199
  431MOL0     C59403  -0.211   3.498   8.200  0.0261  0.7018 -0.3722
  431MOL0     C59404  -0.175   3.515   8.347  0.3924  0.9938 -0.3981
  431MOL0     C59405  -0.175   3.530   8.468 -0.2464 -0.2192 -0.1779
  431MOL0     C59406   0.055   3.093   7.823  0.1496  0.6861 -1.8062
  431MOL0     C59407   0.085   3.018   7.708 -0.1525 -0.5480  0.0200
  431MOL0     C59408   0.011   3.053   7.582 -0.6883  0.6449  0.0470
  431MOL0     H59409   0.358   3.102   7.552 -1.2840 -3.2008 -0.2485
  431MOL0     H59410   0.451   3.290   7.669  0.4750 -0.8158 -1.4459
  431MOL0     H59411   0.833   3.231   7.830 -2.8658 -1.2133 -2.1277
  431MOL0     H59412   0.760   3.195   7.996 -1.1875  1.4424  1.6100
  431MOL0     H59413   0.919   3.407   7.985  1.0222  1.9292 -2.6233
  431MOL0     H59414   0.782   3.477   7.910  0.6509 -1.5429 -1.8779
  431MOL0     H59415   0.655   3.361   8.122 -0.8158  0.4173 -0.9073
  431MOL0     H59416   0.796   3.443   8.196 -0.1579  3.0447 -0.6703
  431MOL0     H59417   0.750   3.643   8.093  1.0745 -0.3639 -1.1241
  431MOL0     H59418   0.617   3.584   8.003  3.2087 -0.5487 -2.6154
  431MOL0     H59419   0.668   3.612   8.312 -1.1218 -0.1039  2.3670
  431MOL0     H59420   0.532   3.521   8.261 -0.9389  0.3526 -1.2982
  431MOL0     H59421   0.402   3.678   8.198  1.4158 -0.3736 -0.6847
  431MOL0     H59422   0.483   3.732   8.345 -0.4088 -1.7205  0.3474
  431MOL0     H59423   0.576   3.831   8.088  2.1349  0.3673  0.0306
  431MOL0     H59424   0.634   3.872   8.260  0.2305 -0.3327 -0.8668
  431MOL0     H59425   0.355   3.942   8.183 -0.5854  2.6246 -0.8411
  431MOL0     H59426   0.445   4.006   8.315 -1.3049  0.3392 -0.6691
  431MOL0     H59427   0.604   4.188   8.302  1.0314 -6.3718 -0.0352
  431MOL0     H59428   0.613   4.502   8.057 -0.1601 -0.5304  0.2958
  431MOL0     H59429   0.751   4.418   8.131  0.8580  1.9709 -3.3030
  431MOL0     H59430   0.607   4.411   8.347 -1.4827  2.7638  2.0079
  431MOL0     H59431   0.663   4.559   8.302 -0.6276 -1.3532  2.7398
  431MOL0     H59432   0.430   4.594   8.181  1.3668  1.8033  2.2738
  431MOL0     H59433   0.397   4.423   8.231  1.5138 -0.1840 -2.1958
  431MOL0     H59434   0.418   4.513   8.472  1.1245  2.3166  1.9375
  431MOL0     H59435   0.426   4.681   8.405 -2.3063  0.5185 -0.1623
  431MOL0     H59436   0.282   4.776   8.220  2.1719 -2.8313  3.1355
  431MOL0     H59437   0.116   5.017   8.111  2.1301  0.6593 -1.9376
  431MOL0     H59438   0.283   5.016   8.156 -1.2028 -1.7747 -0.9024
  431MOL0     H59439   0.193   5.130   8.238  1.1555 -1.3339  0.2756
  431MOL0     H59440   0.061   5.365   8.211 -0.7393  0.1645 -1.8549
  431MOL0     H59441  -0.027   5.585   8.184 -0.4441  0.9718  1.4386
  431MOL0     H59442  -0.137   5.774   8.136 -0.5878  0.6303  1.3213
  431MOL0     H59443  -0.232   5.692   8.011 -0.1520 -1.3386 -0.6133
  431MOL0     H59444  -0.335   5.901   8.207 -1.7154 -0.4476  0.0156
  431MOL0     H59445  -0.270   5.954   8.051  0.9647  1.4506  2.2893
  431MOL0     H59446  -0.534   5.879   8.088 -0.7938 -0.7888 -1.2641
  431MOL0     H59447  -0.467   5.735   8.030 -0.7466 -0.7405 -0.6306
  431MOL0     H59448  -0.541   5.821   7.833 -2.1775  2.5981 -0.8761
  431MOL0     H59449  -0.378   5.887   7.826  2.1216 -3.1094  2.9509
  431MOL0     H59450  -0.636   6.028   7.923 -0.5979 -0.2426 -0.2410
  431MOL0     H59451  -0.469   6.087   7.937 -0.6704 -1.0807 -0.0559
  431MOL0     H59452  -0.623   5.999   7.682 -1.1586 -1.9587  3.9111
  431MOL0     H59453  -0.457   6.059   7.688 -0.6153  2.0034 -1.1665
  431MOL0     H59454  -0.609   6.222   7.597 -4.0742 -0.2320 -0.1037
  431MOL0     H59455  -0.520   6.286   7.735 -0.8881 -0.1809 -2.2440
  431MOL0     H59456  -0.739   6.370   7.768  0.1109  0.0245  0.9064
  431MOL0     H59457  -0.680   6.264   7.894 -2.0840  0.1409  1.0421
  431MOL0     H59458  -0.417   5.443   8.304 -0.3637 -2.3234  0.5762
  431MOL0     H59459  -0.326   5.223   8.337 -2.0331  0.8101  0.7300
  431MOL0     H59460  -0.048   4.860   8.577 -1.6481 -1.2380  0.0435
  431MOL0     H59461   0.068   4.675   8.578 -1.8802  1.0402 -0.5309
  431MOL0     H59462   0.728   3.010   7.861 -1.1738 -1.6169  1.8195
  431MOL0     H59463   0.597   2.825   7.756  0.5370  0.5004  1.6263
  431MOL0     H59464   0.322   2.821   7.854 -0.5025 -0.0602  1.6405
  431MOL0     H59465   0.245   2.932   8.052 -1.4321  1.3204  0.7091
  431MOL0     H59466  -0.136   3.099   8.005  1.1183 -2.0736 -1.2490
  431MOL0     H59467  -0.104   3.083   8.181 -0.8929 -1.0671 -0.5148
  431MOL0     H59468  -0.016   3.349   8.077 -0.6217 -0.9749 -0.9066
  431MOL0     H59469  -0.050   3.286   8.243 -1.3923  1.0066  0.1728
  431MOL0     H59470  -0.268   3.355   8.054  1.4145  2.5741  0.2945
  431MOL0     H59471  -0.280   3.301   8.219  0.0089  0.3365  0.0331
  431MOL0     H59472  -0.312   3.539   8.191 -2.1332 -3.8639  0.2080
  431MOL0     H59473  -0.153   3.561   8.132 -2.3567  3.6417  0.0997
  431MOL0     H59474  -0.203   3.535   8.571 -2.3650 -2.7023 -0.5520
  431MOL0     H59475  -0.013   3.176   7.815 -0.4376  0.4631  0.1642
  431MOL0     H59476  -0.002   2.971   7.511  2.9384 -2.7291  2.7733
  431MOL0     H59477  -0.084   3.098   7.612 -1.1075 -2.4257  4.3969
  431MOL0     H59478   0.069   3.127   7.526  0.2717  1.1676  1.6568
  432MOL0     O59479   2.697   4.364   6.962 -0.4186  0.3219 -0.0538
  432MOL0     C59480   2.805   4.404   7.015  0.3165 -0.3013  0.0337
  432MOL0     O59481   2.918   4.326   7.040  0.9103  0.5381  0.8186
  432MOL0     C59482   2.913   4.190   7.006  0.6626 -0.3919 -0.4630
  432MOL0     C59483   2.928   4.147   6.877  0.0051  0.0621 -0.6107
  432MOL0     C59484   2.932   4.007   6.848  0.2376 -0.9500  0.1039
  432MOL0     C59485   2.913   3.916   6.953 -0.8843 -0.7418  0.8407
  432MOL0     O59486   2.922   3.783   6.932  0.1867  0.5978  0.7643
  432MOL0     C59487   2.835   3.742   6.828  0.4356 -0.2704  0.3738
  432MOL0     C59488   2.819   3.590   6.841 -0.1825 -0.5501 -0.3886
  432MOL0     C59489   2.744   3.565   6.969  0.3393  0.4679  0.0050
  432MOL0     C59490   2.712   3.413   6.969  0.4902  0.0904 -0.7629
  432MOL0     C59491   2.615   3.371   7.080  0.1453  0.2260 -1.1132
  432MOL0     C59492   2.607   3.219   7.108 -0.4299 -0.4355  0.5900
  432MOL0     C59493   2.534   3.143   6.998 -0.7134 -0.5490  0.3441
  432MOL0     C59494   2.383   3.153   6.994  0.2756  0.7107 -0.1212
  432MOL0     N59495   2.313   3.070   6.893  0.4445 -0.2925  0.0756
  432MOL0     C59496   2.277   3.116   6.767  0.6295 -1.0146 -0.1252
  432MOL0     C59497   2.204   3.023   6.703 -0.0203 -0.1636  0.2042
  432MOL0     C59498   2.145   3.011   6.565  0.1223  0.6623 -0.1543
  432MOL0     C59499   1.995   3.024   6.567 -0.4158  0.6832  0.2211
  432MOL0     C59500   1.927   3.049   6.433  0.5690 -0.6717 -0.0209
  432MOL0     C59501   1.795   3.131   6.450 -0.1393  0.7444 -0.2382
  432MOL0     O59502   1.796   3.260   6.496  0.4587  0.1039  0.4726
  432MOL0     C59503   1.886   3.342   6.435 -0.6079  0.1089 -0.2853
  432MOL0     C59504   2.018   3.349   6.473 -1.9381  0.1518  1.0105
  432MOL0     C59505   2.109   3.437   6.408 -0.8430  0.6117 -0.3374
  432MOL0     C59506   2.230   3.476   6.496  0.4474  1.4619  1.4923
  432MOL0     C59507   2.066   3.519   6.298 -0.0903 -0.1868 -0.0685
  432MOL0     C59508   2.148   3.612   6.218  0.3932  0.1703 -0.8073
  432MOL0     O59509   2.091   3.700   6.120 -0.6052  0.0902 -0.1300
  432MOL0     C59510   2.163   3.773   6.031 -0.2216 -0.6386 -0.1459
  432MOL0     C59511   2.298   3.751   5.986  0.1607 -0.8785  0.0815
  432MOL0     C59512   2.359   3.824   5.884 -0.2289 -0.3550  0.3460
  432MOL0     C59513   2.294   3.941   5.830  0.2740  0.7369 -0.5869
  432MOL0     O59514   2.344   4.033   5.743 -0.4939 -0.0085 -0.0487
  432MOL0     C59515   2.466   4.096   5.793  0.0833  0.7749 -0.3433
  432MOL0     C59516   2.459   4.179   5.929  0.9545 -0.0101  0.0953
  432MOL0     C59517   2.582   4.250   5.974 -0.4894 -0.5572  0.2255
  432MOL0     C59518   2.702   4.159   6.023  0.0157  0.1294 -0.3653
  432MOL0     C59519   2.840   4.227   5.996  0.1923 -0.6455 -0.3473
  432MOL0     C59520   2.889   4.277   5.855 -0.4535 -0.2885  0.3484
  432MOL0     C59521   3.026   4.334   5.873  0.1793 -0.0218 -0.3005
  432MOL0     C59522   3.084   4.376   5.740 -0.9452 -0.2995  0.5678
  432MOL0    Cl59523   3.108   4.244   5.616 -0.0680  0.1042 -0.0221
  432MOL0     C59524   2.166   3.966   5.877  0.9880  0.5295 -0.1549
  432MOL0     C59525   2.109   3.891   5.980 -0.2349 -0.1818  1.0371
  432MOL0     O59526   2.270   3.619   6.249  0.1107 -0.3323  0.9117
  432MOL0     C59527   1.935   3.498   6.258 -0.2810 -0.1920  0.1155
  432MOL0     C59528   1.844   3.419   6.327 -0.7553  0.1200  0.6751
  432MOL0     N59529   2.203   2.911   6.794  0.4906 -0.7491 -0.6904
  432MOL0     N59530   2.267   2.943   6.902 -0.9390  0.3091 -0.9495
  432MOL0     C59531   2.901   3.956   7.084  1.0044 -0.4639 -0.8488
  432MOL0     C59532   2.895   4.099   7.111 -0.7226 -0.4068 -0.0404
  432MOL0     C59533   2.827   4.544   7.047 -0.9094 -1.0065  1.0302
  432MOL0     C59534   2.933   4.580   7.132 -0.1562 -0.2305 -0.4736
  432MOL0     C59535   2.966   4.717   7.157 -0.4254 -0.6678 -0.6795
  432MOL0     C59536   2.895   4.821   7.093 -1.0996 -0.5557 -0.2657
  432MOL0     O59537   2.919   4.955   7.120 -0.8312  0.5925  0.8688
  432MOL0     C59538   2.899   4.997   7.252 -0.3693 -0.4175 -0.2734
  432MOL0     C59539   2.933   5.142   7.278 -0.6236  1.4969  0.1938
  432MOL0     C59540   2.846   5.190   7.401  0.4442 -0.7312 -0.5576
  432MOL0     C59541   2.862   5.346   7.431  0.3912 -0.2772  0.3587
  432MOL0     C59542   2.737   5.385   7.499  0.4338  0.2367  0.1013
  432MOL0     C59543   2.634   5.421   7.553 -0.0952 -0.1620  0.3835
  432MOL0     C59544   2.793   4.789   7.010 -0.2773  0.8920 -0.4097
  432MOL0     C59545   2.749   4.662   6.994  0.2358 -0.5201 -0.9917
  432MOL0     C59546   2.621   4.652   6.916 -0.0000  0.0515 -0.4672
  432MOL0     H59547   2.927   4.218   6.795 -1.6480  1.1230  0.2726
  432MOL0     H59548   2.956   3.984   6.744  0.6482  3.1850 -0.9104
  432MOL0     H59549   2.886   3.761   6.733 -2.4698  0.2895 -1.1831
  432MOL0     H59550   2.732   3.777   6.833  0.2321 -0.9050  0.7229
  432MOL0     H59551   2.759   3.551   6.758  0.2188 -1.6616 -0.1693
  432MOL0     H59552   2.912   3.532   6.838 -0.4346 -0.9375 -1.7452
  432MOL0     H59553   2.809   3.576   7.057 -2.4612  0.8619  2.2061
  432MOL0     H59554   2.655   3.627   6.983  2.2672  3.2287  1.0653
  432MOL0     H59555   2.652   3.383   6.882  0.0157  1.3399 -0.8773
  432MOL0     H59556   2.806   3.358   6.971  1.0704  1.0800  0.9846
  432MOL0     H59557   2.515   3.411   7.063  0.9975  2.4150 -1.3160
  432MOL0     H59558   2.638   3.422   7.174  1.0372 -1.3033 -0.4711
  432MOL0     H59559   2.710   3.181   7.107 -0.4694 -0.5464 -0.4784
  432MOL0     H59560   2.556   3.192   7.200 -0.9968 -0.7097  0.2024
  432MOL0     H59561   2.553   3.037   7.019  1.7626 -0.1314  0.4619
  432MOL0     H59562   2.570   3.164   6.897  1.2774  0.2486  1.1735
  432MOL0     H59563   2.339   3.115   7.087 -1.8439 -1.3162 -1.8388
  432MOL0     H59564   2.338   3.253   6.987 -1.4332  0.0458  0.7759
  432MOL0     H59565   2.294   3.219   6.738  1.6200 -1.3691 -0.8533
  432MOL0     H59566   2.173   2.916   6.518 -0.3414  0.2464  0.4031
  432MOL0     H59567   2.194   3.081   6.496 -0.2657 -1.6637 -2.9863
  432MOL0     H59568   1.960   2.932   6.616 -0.4869 -1.1901 -3.0475
  432MOL0     H59569   1.969   3.110   6.631 -0.9213  0.9380 -0.3201
  432MOL0     H59570   1.988   3.098   6.357 -2.0841  2.0708 -0.5966
  432MOL0     H59571   1.909   2.951   6.388  0.0161 -0.8195  0.5119
  432MOL0     H59572   1.735   3.128   6.358 -0.9560  1.0066  0.2749
  432MOL0     H59573   1.736   3.078   6.525  4.8932  0.2439  3.9560
  432MOL0     H59574   2.062   3.281   6.545 -0.4888  0.4148  0.4206
  432MOL0     H59575   2.323   3.462   6.439 -0.8588 -1.2361 -0.1902
  432MOL0     H59576   2.256   3.406   6.576  0.8838 -0.5793 -0.3380
  432MOL0     H59577   2.214   3.579   6.529 -4.0194  1.3779  0.2641
  432MOL0     H59578   2.353   3.663   6.020  2.5916 -0.6273 -2.7818
  432MOL0     H59579   2.462   3.798   5.861 -0.1059 -0.7536  1.3000
  432MOL0     H59580   2.547   4.024   5.807  0.1042  0.5879 -1.3057
  432MOL0     H59581   2.499   4.159   5.710  1.1081  1.0008  0.2254
  432MOL0     H59582   2.371   4.245   5.927 -2.6937 -4.1767  2.8765
  432MOL0     H59583   2.423   4.109   6.005 -4.0114  2.4087  0.3730
  432MOL0     H59584   2.569   4.334   6.043 -0.9436  0.5138 -1.1060
  432MOL0     H59585   2.619   4.301   5.884 -1.6394  1.4717  0.8327
  432MOL0     H59586   2.701   4.066   5.966 -2.3123 -0.1859  0.0949
  432MOL0     H59587   2.693   4.145   6.131 -2.0224 -0.1691 -0.5372
  432MOL0     H59588   2.849   4.314   6.062 -1.2445  2.4930 -3.8839
  432MOL0     H59589   2.917   4.154   6.022  0.1180 -0.2605  1.0781
  432MOL0     H59590   2.830   4.364   5.823  1.3025  1.1690  0.9079
  432MOL0     H59591   2.875   4.201   5.778  1.6236  1.0679 -1.4915
  432MOL0     H59592   3.090   4.265   5.929 -2.7032 -2.4502  0.2492
  432MOL0     H59593   3.021   4.426   5.932 -0.9353  0.3535 -0.9535
  432MOL0     H59594   3.175   4.435   5.751 -2.8262  2.4031  3.3384
  432MOL0     H59595   3.013   4.442   5.690 -1.5843 -1.9747 -0.8400
  432MOL0     H59596   2.112   4.058   5.858  0.9445  0.6734  0.6315
  432MOL0     H59597   2.014   3.928   6.015 -0.6461  2.2925 -2.2128
  432MOL0     H59598   1.904   3.531   6.159 -0.4214  0.8496  0.4979
  432MOL0     H59599   1.745   3.409   6.283 -0.0042 -0.2551 -1.0291
  432MOL0     H59600   2.882   3.887   7.165 -0.0310  0.9628  0.1926
  432MOL0     H59601   2.869   4.128   7.212  1.2211 -3.0114  1.3004
  432MOL0     H59602   2.976   4.492   7.179 -4.9747 -2.4047  0.4619
  432MOL0     H59603   3.058   4.732   7.213  0.3229 -1.0776 -1.7514
  432MOL0     H59604   2.790   4.998   7.262 -0.4761 -2.9870 -0.5282
  432MOL0     H59605   2.948   4.937   7.330 -2.8254 -2.6449 -0.3006
  432MOL0     H59606   2.904   5.195   7.186  2.8460  0.6534 -1.5582
  432MOL0     H59607   3.038   5.144   7.310 -1.6831 -2.4469  5.2797
  432MOL0     H59608   2.740   5.182   7.377 -0.1621  4.4381 -0.5844
  432MOL0     H59609   2.883   5.136   7.489  1.2838  1.7445  0.7070
  432MOL0     H59610   2.865   5.407   7.340  0.3420  1.5638  1.5409
  432MOL0     H59611   2.949   5.367   7.495 -1.6593 -1.5378  3.8338
  432MOL0     H59612   2.537   5.434   7.597 -0.1910 -0.9026  0.4036
  432MOL0     H59613   2.737   4.863   6.953 -0.8507  0.0987 -0.8915
  432MOL0     H59614   2.572   4.749   6.907 -1.4056 -0.6668 -0.8315
  432MOL0     H59615   2.644   4.621   6.813 -0.1839 -1.7121 -0.0142
  432MOL0     H59616   2.564   4.573   6.965  0.1968 -2.3940 -3.8070
  433MOL0     O59617   0.146   6.445   4.459 -0.9738  0.2347 -0.3245
  433MOL0     C59618   0.149   6.569   4.439  0.5458 -0.2033 -0.8398
  433MOL0     O59619   0.057   6.633   4.364  0.6545 -0.1466  0.3823
  433MOL0     C59620  -0.043   6.572   4.290 -0.7075 -0.7638 -0.1870
  433MOL0     C59621  -0.154   6.644   4.260  0.0381 -0.4975  0.2804
  433MOL0     C59622  -0.273   6.585   4.213  0.9680  0.5620 -0.8332
  433MOL0     C59623  -0.275   6.447   4.167  0.0491  0.4224  0.4326
  433MOL0     O59624  -0.373   6.380   4.082 -0.0919 -0.0023 -0.6691
  433MOL0     C59625  -0.492   6.445   4.047 -0.0990  0.0082  0.5282
  433MOL0     C59626  -0.569   6.369   3.927 -0.1857  0.4604  0.0843
  433MOL0     C59627  -0.689   6.469   3.885 -0.0177 -0.1415  0.1848
  433MOL0     C59628  -0.755   6.425   3.758 -0.6114 -0.4450 -0.3586
  433MOL0     C59629  -0.672   6.453   3.642 -0.4447 -0.2815 -0.1595
  433MOL0     C59630  -0.759   6.525   3.544 -0.5615 -0.6942  0.5119
  433MOL0     C59631  -0.892   6.455   3.488 -0.2598  0.0069  0.9375
  433MOL0     C59632  -0.864   6.330   3.409  0.1709  0.3697  0.3730
  433MOL0     N59633  -0.982   6.268   3.344 -0.6936  0.8874 -0.0026
  433MOL0     C59634  -0.965   6.173   3.244 -0.3337 -0.0776  0.0600
  433MOL0     C59635  -1.093   6.145   3.211 -0.6314 -0.8632 -1.1004
  433MOL0     C59636  -1.130   6.051   3.096 -0.2092  0.2920  0.3762
  433MOL0     C59637  -1.135   5.906   3.148  0.2780 -1.3960 -0.3986
  433MOL0     C59638  -1.130   5.794   3.046 -0.0867 -0.6515 -0.3805
  433MOL0     C59639  -1.186   5.846   2.919 -1.4675  0.9574 -0.4874
  433MOL0     O59640  -1.227   5.735   2.836 -0.6164 -0.0472 -0.2165
  433MOL0     C59641  -1.361   5.700   2.833  0.7949 -0.9263 -0.7503
  433MOL0     C59642  -1.395   5.586   2.905 -0.1161 -0.4957  0.5610
  433MOL0     C59643  -1.527   5.539   2.896 -0.5086 -0.0679 -1.4903
  433MOL0     C59644  -1.570   5.421   2.976 -0.0699  0.1079  0.2850
  433MOL0     C59645  -1.619   5.595   2.804 -0.1478  0.4156  1.5232
  433MOL0     C59646  -1.764   5.552   2.775  0.1686  0.8470  0.1513
  433MOL0     O59647  -1.849   5.646   2.745 -0.1796 -0.1967  0.0198
  433MOL0     C59648  -1.971   5.612   2.691  0.0403 -0.1233  0.5590
  433MOL0     C59649  -1.973   5.527   2.579  0.2028 -0.7791  0.2490
  433MOL0     C59650  -2.096   5.504   2.505 -0.1992  1.0486 -0.4368
  433MOL0     C59651  -2.211   5.557   2.563  0.4691 -0.1787 -0.7471
  433MOL0     O59652  -2.332   5.537   2.501  0.3631 -0.1383 -0.0487
  433MOL0     C59653  -2.459   5.556   2.566  0.1631 -0.1605  1.0984
  433MOL0     C59654  -2.500   5.698   2.536 -0.3489 -0.3659 -0.4320
  433MOL0     C59655  -2.647   5.722   2.571 -0.1544  0.2105  0.0024
  433MOL0     C59656  -2.747   5.690   2.471  0.1717  0.3084 -0.2944
  433MOL0     C59657  -2.766   5.806   2.361 -0.3695 -0.5239 -0.0305
  433MOL0     C59658  -2.753   5.738   2.220  0.1402  1.0159  0.2580
  433MOL0     C59659  -2.788   5.842   2.116  0.1263  0.9126  0.0834
  433MOL0     C59660  -2.717   5.807   1.984 -0.5577 -0.2630  0.2959
  433MOL0    Cl59661  -2.549   5.876   1.997  0.2121  0.4026 -0.0753
  433MOL0     C59662  -2.208   5.640   2.679  0.5095  1.4040  0.1068
  433MOL0     C59663  -2.089   5.666   2.744 -0.2007  0.8072  0.4404
  433MOL0     O59664  -1.788   5.433   2.777 -0.3937  0.0508  0.7560
  433MOL0     C59665  -1.579   5.711   2.735  0.1043 -0.6897  0.7442
  433MOL0     C59666  -1.450   5.764   2.752  0.8456 -0.5257  0.5316
  433MOL0     N59667  -1.183   6.229   3.284  0.2217  0.3519 -0.0209
  433MOL0     N59668  -1.115   6.289   3.375 -0.8327 -0.8947 -0.3590
  433MOL0     C59669  -0.155   6.377   4.191 -1.4785 -0.0235 -0.1942
  433MOL0     C59670  -0.038   6.436   4.234  1.1717 -0.4885 -0.2229
  433MOL0     C59671   0.252   6.651   4.510  0.9441 -0.6966 -0.7046
  433MOL0     C59672   0.211   6.788   4.541 -0.0456 -0.3228  0.2544
  433MOL0     C59673   0.306   6.877   4.596  0.0655  0.0651 -0.4370
  433MOL0     C59674   0.439   6.834   4.632  0.3229  0.5504 -0.3445
  433MOL0     O59675   0.539   6.922   4.674  0.0529 -0.2718 -0.0387
  433MOL0     C59676   0.500   7.062   4.699 -0.6276  1.1488 -1.1106
  433MOL0     C59677   0.519   7.147   4.574 -0.1703 -0.0990  1.1821
  433MOL0     C59678   0.528   7.300   4.612 -0.1747  0.4235  0.0650
  433MOL0     C59679   0.649   7.366   4.684 -0.1133 -0.4389 -0.1700
  433MOL0     C59680   0.780   7.324   4.638  0.8412 -0.8576  0.0332
  433MOL0     C59681   0.885   7.278   4.613 -0.0618  1.1592  0.1821
  433MOL0     C59682   0.471   6.700   4.626  0.5912  0.0543  0.1769
  433MOL0     C59683   0.372   6.606   4.565 -0.3736 -0.3712  0.1572
  433MOL0     C59684   0.424   6.461   4.551  0.5058  0.7619 -0.0936
  433MOL0     H59685  -0.159   6.752   4.273 -0.5574 -0.2363 -1.7320
  433MOL0     H59686  -0.353   6.653   4.188  0.4516  0.3634  0.2402
  433MOL0     H59687  -0.471   6.536   3.989 -2.0977 -0.9588 -1.8873
  433MOL0     H59688  -0.561   6.451   4.131 -0.7905  0.3388 -0.0478
  433MOL0     H59689  -0.512   6.337   3.840  0.3545 -3.4579  1.6445
  433MOL0     H59690  -0.599   6.274   3.973  0.1631  0.3009 -0.0167
  433MOL0     H59691  -0.768   6.472   3.960 -0.0133 -4.0497  0.5500
  433MOL0     H59692  -0.653   6.571   3.870  1.9194 -1.0277 -1.6919
  433MOL0     H59693  -0.772   6.317   3.755  0.0472 -0.6238  1.3600
  433MOL0     H59694  -0.852   6.474   3.751 -0.1373  0.3993 -1.2722
  433MOL0     H59695  -0.627   6.366   3.593  0.0673  0.7145 -1.5024
  433MOL0     H59696  -0.592   6.521   3.672 -0.0155 -0.3718 -1.0617
  433MOL0     H59697  -0.763   6.626   3.586  0.2016 -0.0635 -0.8843
  433MOL0     H59698  -0.696   6.549   3.458  0.6417 -0.0788  1.5402
  433MOL0     H59699  -0.949   6.535   3.440 -1.1177  0.8772  3.2737
  433MOL0     H59700  -0.954   6.423   3.573 -0.5533 -2.1010  0.0038
  433MOL0     H59701  -0.801   6.365   3.327 -0.4938 -1.0223 -0.7692
  433MOL0     H59702  -0.815   6.250   3.466 -2.6438 -1.8813 -0.1554
  433MOL0     H59703  -0.871   6.135   3.205 -0.7844  1.5221 -2.8269
  433MOL0     H59704  -1.058   6.060   3.015 -0.5480 -1.0899 -0.1002
  433MOL0     H59705  -1.230   6.071   3.058 -0.0810 -0.5432 -0.4255
  433MOL0     H59706  -1.056   5.886   3.220  1.1716  0.5148 -0.7903
  433MOL0     H59707  -1.220   5.884   3.213  1.0380 -1.2176  0.6707
  433MOL0     H59708  -1.022   5.781   3.032 -0.4076 -1.6145 -2.4073
  433MOL0     H59709  -1.181   5.704   3.082 -2.3991 -1.0643 -4.1731
  433MOL0     H59710  -1.273   5.909   2.940  0.2614  3.5527 -0.7199
  433MOL0     H59711  -1.109   5.899   2.863  0.2103 -0.9737 -0.1350
  433MOL0     H59712  -1.323   5.531   2.965  2.4567 -0.7662 -2.4729
  433MOL0     H59713  -1.573   5.340   2.903  0.2118  1.1146 -0.8796
  433MOL0     H59714  -1.666   5.445   3.024  0.7440 -0.6377  2.3759
  433MOL0     H59715  -1.498   5.405   3.057 -3.5993  0.1250  3.7522
  433MOL0     H59716  -1.879   5.486   2.546  0.9509  1.6757 -0.8994
  433MOL0     H59717  -2.087   5.442   2.416  1.2142 -0.7390  0.8753
  433MOL0     H59718  -2.521   5.476   2.526 -0.7030  0.7824  0.5034
  433MOL0     H59719  -2.443   5.542   2.673  3.6143 -0.4741  0.6619
  433MOL0     H59720  -2.443   5.778   2.584  1.0058 -1.4133 -0.2396
  433MOL0     H59721  -2.496   5.720   2.428 -1.0939  2.3016 -0.0016
  433MOL0     H59722  -2.648   5.830   2.593  0.2118  0.0818  0.6785
  433MOL0     H59723  -2.670   5.672   2.666  0.5863  0.4267  0.3067
  433MOL0     H59724  -2.840   5.677   2.528  0.9656  1.6624  1.4075
  433MOL0     H59725  -2.715   5.597   2.424  3.5850  1.2412 -0.0511
  433MOL0     H59726  -2.867   5.847   2.365 -0.4924 -0.5793 -1.6948
  433MOL0     H59727  -2.693   5.886   2.373 -1.8798  0.9302 -0.1402
  433MOL0     H59728  -2.825   5.658   2.203  0.6626  1.0521 -2.5135
  433MOL0     H59729  -2.650   5.708   2.197 -0.5626  0.2520 -2.1311
  433MOL0     H59730  -2.761   5.940   2.156  0.4789 -0.1090  2.5159
  433MOL0     H59731  -2.895   5.840   2.093  0.0015 -0.8726  0.6125
  433MOL0     H59732  -2.771   5.854   1.901  1.2574  1.0879 -0.1798
  433MOL0     H59733  -2.723   5.699   1.965 -2.2932 -0.3949  1.3998
  433MOL0     H59734  -2.297   5.682   2.725 -1.1248 -0.3874 -1.2696
  433MOL0     H59735  -2.097   5.730   2.832 -0.2612  0.3180  0.7963
  433MOL0     H59736  -1.636   5.763   2.660  3.5177  1.3333 -0.6994
  433MOL0     H59737  -1.429   5.853   2.694  0.8325  1.0490  2.8049
  433MOL0     H59738  -0.147   6.282   4.141 -3.1071 -0.9798  1.2696
  433MOL0     H59739   0.053   6.378   4.249  1.2443 -0.4117 -0.3612
  433MOL0     H59740   0.123   6.834   4.496  0.3060  0.2431  0.1446
  433MOL0     H59741   0.286   6.984   4.594 -0.1449  0.1636  2.5482
  433MOL0     H59742   0.397   7.071   4.737 -1.0282 -1.0484 -1.5340
  433MOL0     H59743   0.559   7.085   4.789 -1.9426  1.5387 -0.3116
  433MOL0     H59744   0.436   7.127   4.505  0.3692 -0.1258  0.5280
  433MOL0     H59745   0.605   7.109   4.518 -1.7983 -0.6697 -1.0598
  433MOL0     H59746   0.535   7.356   4.518 -0.5231 -1.4086 -1.1066
  433MOL0     H59747   0.436   7.312   4.670 -0.1317 -0.3108  0.3080
  433MOL0     H59748   0.627   7.360   4.791 -2.8650  0.4418 -0.6077
  433MOL0     H59749   0.644   7.472   4.660 -4.1378 -0.5035 -0.2925
  433MOL0     H59750   0.984   7.239   4.602  0.5124  1.8737  2.2522
  433MOL0     H59751   0.571   6.664   4.651  0.1986 -2.2115 -1.1615
  433MOL0     H59752   0.414   6.419   4.451 -0.3849 -0.3347  0.4305
  433MOL0     H59753   0.529   6.459   4.583 -0.6612  0.6369  4.4807
  433MOL0     H59754   0.367   6.391   4.613  1.2746  0.1505 -0.0550
  434MOL0     O59755   9.929   7.780   8.894 -0.2425 -0.4799  0.2298
  434MOL0     C59756   9.863   7.708   8.814  0.5571 -0.5593 -0.0811
  434MOL0     O59757   9.727   7.705   8.808  0.2513  0.1909 -0.2211
  434MOL0     C59758   9.638   7.773   8.884 -0.2783 -0.1924  0.2179
  434MOL0     C59759   9.500   7.780   8.836 -0.1439  0.2476  0.4959
  434MOL0     C59760   9.401   7.789   8.933  0.5608 -0.0179  0.1223
  434MOL0     C59761   9.424   7.826   9.064  0.1644  0.5823 -0.5504
  434MOL0     O59762   9.321   7.863   9.147  0.3378  0.4319 -0.8096
  434MOL0     C59763   9.307   7.804   9.282  1.3578  0.7981 -0.3858
  434MOL0     C59764   9.194   7.699   9.280 -1.2967  0.2837 -0.1531
  434MOL0     C59765   9.071   7.759   9.204 -0.4795  0.0977  0.0415
  434MOL0     C59766   8.952   7.662   9.203  0.3955 -0.1594 -0.2705
  434MOL0     C59767   8.833   7.717   9.119  0.4777 -0.1135  0.0682
  434MOL0     C59768   8.824   7.659   8.975  0.4308 -0.1710  0.4952
  434MOL0     C59769   8.712   7.717   8.894 -0.1395  0.4827  0.0176
  434MOL0     C59770   8.664   7.626   8.780 -1.1052  0.0149  0.2545
  434MOL0     N59771   8.598   7.698   8.669  0.5836 -0.5018  0.2200
  434MOL0     C59772   8.668   7.788   8.595  0.4867 -0.5323  0.5393
  434MOL0     C59773   8.573   7.866   8.532  0.1516  0.3888  0.2212
  434MOL0     C59774   8.604   7.989   8.459  0.2851 -0.0629 -0.3990
  434MOL0     C59775   8.602   7.986   8.302  1.0392 -0.5864 -0.1167
  434MOL0     C59776   8.695   7.888   8.231 -0.2566  0.4575  0.0988
  434MOL0     C59777   8.822   7.958   8.193 -0.7497  0.1052  0.1302
  434MOL0     O59778   8.894   8.007   8.310 -0.4203 -0.3143 -0.3456
  434MOL0     C59779   8.971   7.924   8.386  0.0521  0.1458 -0.7024
  434MOL0     C59780   8.985   7.962   8.521  0.2488 -0.0487 -0.6330
  434MOL0     C59781   9.060   7.879   8.602  0.6601 -0.4056 -0.9889
  434MOL0     C59782   9.094   7.936   8.732 -0.4715  0.0153 -0.8128
  434MOL0     C59783   9.106   7.746   8.569  1.2097 -0.0005  0.5172
  434MOL0     C59784   9.158   7.648   8.663  0.3537  0.0911 -0.3049
  434MOL0     O59785   9.232   7.550   8.599  0.1766  0.0285  0.6703
  434MOL0     C59786   9.252   7.433   8.657  0.2449 -0.7646 -0.7228
  434MOL0     C59787   9.330   7.402   8.764 -0.3629 -0.6929 -0.0675
  434MOL0     C59788   9.337   7.274   8.813 -1.0020  1.7561 -0.9429
  434MOL0     C59789   9.257   7.169   8.761  0.1020 -0.2733  0.2082
  434MOL0     O59790   9.267   7.045   8.810 -0.1103  0.3039 -0.0961
  434MOL0     C59791   9.173   6.946   8.764 -0.5153  0.1113 -0.0854
  434MOL0     C59792   9.175   6.836   8.884  0.6315  0.1245 -0.4842
  434MOL0     C59793   9.305   6.756   8.909 -0.2465 -0.3137  0.1613
  434MOL0     C59794   9.423   6.843   8.950  0.4655 -0.7203 -0.6158
  434MOL0     C59795   9.525   6.773   9.038  0.1735 -0.0013  0.3984
  434MOL0     C59796   9.636   6.713   8.940  0.1769  0.2329  1.4023
  434MOL0     C59797   9.767   6.680   9.008  0.3988  0.0676  0.8617
  434MOL0     C59798   9.760   6.627   9.152 -0.4770 -0.0225 -0.2509
  434MOL0    Cl59799   9.920   6.577   9.200 -0.4275 -0.0679  0.0649
  434MOL0     C59800   9.198   7.197   8.634 -0.5813 -0.0216 -0.3136
  434MOL0     C59801   9.186   7.333   8.595  0.8260  0.2531 -0.2974
  434MOL0     O59802   9.141   7.659   8.786 -0.1193  0.5260  0.5579
  434MOL0     C59803   9.077   7.709   8.436  0.2177  0.0349 -0.6274
  434MOL0     C59804   9.019   7.797   8.348  0.4502  0.0916  0.5071
  434MOL0     N59805   8.451   7.818   8.579  0.0316 -0.0370 -0.7698
  434MOL0     N59806   8.467   7.719   8.654  0.0859 -0.4810 -0.9023
  434MOL0     C59807   9.554   7.849   9.105  0.2615 -0.4329 -0.2309
  434MOL0     C59808   9.661   7.807   9.017 -0.0156 -0.2964 -0.7540
  434MOL0     C59809   9.933   7.655   8.700 -0.0125 -0.3850  0.9029
  434MOL0     C59810   9.887   7.681   8.571  0.6112  0.1751  0.6848
  434MOL0     C59811   9.943   7.628   8.462  0.4593  0.4945 -0.1154
  434MOL0     C59812  10.043   7.528   8.474 -0.7403 -0.8930 -0.1108
  434MOL0     O59813  10.108   7.481   8.353 -1.0602 -0.3599  0.8052
  434MOL0     C59814  10.222   7.389   8.362 -0.3875  0.4861  0.5442
  434MOL0     C59815  10.260   7.352   8.223 -1.0689  0.0936 -0.0562
  434MOL0     C59816  10.337   7.216   8.232  0.0337  0.6159 -0.3517
  434MOL0     C59817  10.429   7.183   8.114 -0.8007  0.1179 -0.0999
  434MOL0     C59818  10.344   7.124   8.002  0.6889 -0.3132  0.2473
  434MOL0     C59819  10.296   7.063   7.906 -0.5454 -0.4979  1.2983
  434MOL0     C59820  10.100   7.510   8.604  0.1379 -0.1899 -0.2526
  434MOL0     C59821  10.043   7.570   8.716  0.3670 -0.6552  0.0844
  434MOL0     C59822  10.108   7.539   8.841 -0.4725 -1.1574 -0.7906
  434MOL0     H59823   9.470   7.763   8.733 -0.6796  0.6828  0.5752
  434MOL0     H59824   9.295   7.796   8.907 -0.5931  0.0705  4.2518
  434MOL0     H59825   9.288   7.879   9.359 -0.2993  0.0279  0.0285
  434MOL0     H59826   9.400   7.757   9.316 -1.0401 -1.9087  3.2302
  434MOL0     H59827   9.228   7.616   9.217  0.4742  0.0287  1.0547
  434MOL0     H59828   9.181   7.663   9.382  2.8350 -0.6059  0.2625
  434MOL0     H59829   9.041   7.858   9.242  0.9629  0.1841  1.0266
  434MOL0     H59830   9.093   7.765   9.097 -1.9058  1.1705 -0.2260
  434MOL0     H59831   8.989   7.563   9.175 -0.1304 -0.6730  0.8017
  434MOL0     H59832   8.904   7.645   9.299 -1.6361  2.2097 -0.7560
  434MOL0     H59833   8.839   7.825   9.101 -1.1299 -0.2351 -1.4122
  434MOL0     H59834   8.735   7.700   9.164  1.2010 -2.0958  1.0151
  434MOL0     H59835   8.918   7.682   8.924  1.2585 -0.9893  1.5984
  434MOL0     H59836   8.813   7.550   8.973  2.5793 -0.4344 -2.5486
  434MOL0     H59837   8.736   7.814   8.850 -0.1324 -0.2886 -1.7691
  434MOL0     H59838   8.621   7.729   8.953 -1.6826  0.3411 -2.2026
  434MOL0     H59839   8.743   7.576   8.723 -0.3055  2.9453 -1.4267
  434MOL0     H59840   8.604   7.545   8.822 -0.3882 -1.3350 -1.2181
  434MOL0     H59841   8.774   7.809   8.608  0.4025  0.7104 -0.5943
  434MOL0     H59842   8.687   8.041   8.507 -1.5456  1.9917  0.6804
  434MOL0     H59843   8.510   8.040   8.481 -1.4595 -2.0671 -2.6042
  434MOL0     H59844   8.497   7.965   8.277  0.9921 -1.4995  0.7751
  434MOL0     H59845   8.617   8.086   8.262 -2.3687 -0.0273 -0.3665
  434MOL0     H59846   8.730   7.807   8.295  0.1055 -0.7130 -1.5226
  434MOL0     H59847   8.647   7.842   8.144 -1.3522  0.4875  0.6739
  434MOL0     H59848   8.892   7.899   8.133 -0.6927  1.4721 -1.1995
  434MOL0     H59849   8.797   8.044   8.130 -3.6240 -1.1933 -0.6891
  434MOL0     H59850   8.966   8.061   8.563 -2.2308 -0.9557  0.6198
  434MOL0     H59851   9.018   7.907   8.806 -0.0940 -0.3860 -0.5790
  434MOL0     H59852   9.103   8.045   8.733  0.4234  0.0051  2.0269
  434MOL0     H59853   9.194   7.918   8.774  0.0587  1.0167 -1.6047
  434MOL0     H59854   9.390   7.482   8.807  0.3401 -2.0962  1.7050
  434MOL0     H59855   9.383   7.259   8.910 -2.9289  1.1736 -0.0523
  434MOL0     H59856   9.074   6.992   8.751 -0.0605  1.4864  1.0481
  434MOL0     H59857   9.216   6.904   8.672  2.2894 -1.0567  1.6270
  434MOL0     H59858   9.141   6.880   8.978  3.2811  3.7714 -1.0288
  434MOL0     H59859   9.099   6.762   8.856  0.7992 -0.1753 -0.1531
  434MOL0     H59860   9.333   6.703   8.817  4.0701  3.0511 -0.7912
  434MOL0     H59861   9.263   6.687   8.982 -3.3385  0.3010 -0.8834
  434MOL0     H59862   9.383   6.932   8.999 -0.4053 -0.6748 -1.3731
  434MOL0     H59863   9.480   6.886   8.867  0.9179 -1.1359 -0.5257
  434MOL0     H59864   9.576   6.848   9.099  1.0157 -0.3401  0.1177
  434MOL0     H59865   9.487   6.694   9.103 -0.0642 -0.4752 -0.2987
  434MOL0     H59866   9.655   6.775   8.852  0.7063  0.0379  1.3796
  434MOL0     H59867   9.597   6.618   8.902  1.8469  0.6321 -1.6019
  434MOL0     H59868   9.829   6.769   9.015  0.4017 -0.0225  2.3476
  434MOL0     H59869   9.820   6.605   8.950  1.5912 -1.3185  3.5770
  434MOL0     H59870   9.695   6.540   9.163  0.3559 -0.6561 -0.2637
  434MOL0     H59871   9.727   6.703   9.223  2.9944  0.8606  0.6263
  434MOL0     H59872   9.141   7.123   8.579 -1.4055 -1.4451  2.3005
  434MOL0     H59873   9.122   7.369   8.515  1.9089  0.5600 -1.0554
  434MOL0     H59874   9.108   7.613   8.397 -2.4138 -0.6610 -1.2163
  434MOL0     H59875   8.998   7.763   8.247 -0.0035  0.1012  0.5962
  434MOL0     H59876   9.585   7.877   9.205  0.6774 -4.9849  1.1359
  434MOL0     H59877   9.756   7.821   9.069 -2.5281  1.2347  4.0777
  434MOL0     H59878   9.812   7.760   8.568 -0.4547 -0.6637  2.8010
  434MOL0     H59879   9.908   7.664   8.366 -2.0922  1.0319  0.9182
  434MOL0     H59880  10.300   7.437   8.422  1.2727 -1.6157  0.1690
  434MOL0     H59881  10.188   7.299   8.413 -0.5718  0.9816  1.3166
  434MOL0     H59882  10.325   7.434   8.191  1.5372 -1.9257 -0.3620
  434MOL0     H59883  10.181   7.346   8.148  0.4805 -0.3695 -1.7487
  434MOL0     H59884  10.395   7.218   8.325 -0.4004 -1.1602 -0.0061
  434MOL0     H59885  10.271   7.131   8.250 -0.3792  1.4063  2.2530
  434MOL0     H59886  10.503   7.113   8.153 -1.7725  0.1288  1.9191
  434MOL0     H59887  10.495   7.258   8.069  0.9502 -3.1887 -3.5490
  434MOL0     H59888  10.266   7.011   7.818 -1.3233  3.4175 -1.0087
  434MOL0     H59889  10.192   7.454   8.618  0.3663  0.9734  4.5637
  434MOL0     H59890  10.159   7.442   8.839 -2.2552 -2.1797  0.5771
  434MOL0     H59891  10.173   7.622   8.872 -1.8093  0.0427 -1.0908
  434MOL0     H59892  10.047   7.517   8.929  1.5199 -2.2341  0.4053
  435MOL0     O59893   0.004   8.386  11.412  1.0258  0.2949 -0.2385
  435MOL0     C59894  -0.006   8.366  11.287 -0.4690 -0.7118 -0.1724
  435MOL0     O59895  -0.091   8.272  11.228  0.0417 -0.1462  0.6201
  435MOL0     C59896  -0.181   8.213  11.308 -0.1223 -0.4554 -0.2247
  435MOL0     C59897  -0.233   8.092  11.266 -0.3269 -0.3266  0.0509
  435MOL0     C59898  -0.315   8.014  11.347  0.4875 -0.0266 -0.1139
  435MOL0     C59899  -0.359   8.060  11.469 -0.7427  0.5521 -1.1051
  435MOL0     O59900  -0.424   7.969  11.543 -0.8440  0.5246 -0.0653
  435MOL0     C59901  -0.514   8.028  11.640 -0.0752 -0.0315 -0.9790
  435MOL0     C59902  -0.600   7.913  11.702 -0.4774 -0.5948 -0.1013
  435MOL0     C59903  -0.527   7.855  11.832  0.4895  0.6620  0.8098
  435MOL0     C59904  -0.613   7.742  11.901  0.4036  0.2607 -0.0847
  435MOL0     C59905  -0.537   7.706  12.027 -0.8024  0.9641  0.7145
  435MOL0     C59906  -0.578   7.571  12.088  0.5027 -0.1294 -0.1552
  435MOL0     C59907  -0.719   7.565  12.152  0.2067 -0.7302 -0.3540
  435MOL0     C59908  -0.737   7.669  12.262  0.1224 -1.3604  0.2343
  435MOL0     N59909  -0.644   7.638  12.376 -0.1165 -0.3644  0.8830
  435MOL0     C59910  -0.644   7.514  12.440  0.4490 -0.3005 -0.9617
  435MOL0     C59911  -0.532   7.516  12.512 -0.0469 -1.0297 -0.5625
  435MOL0     C59912  -0.501   7.421  12.621 -0.0319  0.9116  0.7439
  435MOL0     C59913  -0.351   7.410  12.648 -0.8539  0.0624  0.2448
  435MOL0     C59914  -0.252   7.342  12.546  0.6715  1.0466 -0.4731
  435MOL0     C59915  -0.299   7.198  12.524  0.7874 -0.1759 -0.4270
  435MOL0     O59916  -0.395   7.201  12.412  1.0972  0.9440  0.6343
  435MOL0     C59917  -0.430   7.083  12.350 -1.5205  0.3359  0.7987
  435MOL0     C59918  -0.395   6.957  12.396 -0.0186  0.4578 -0.3288
  435MOL0     C59919  -0.412   6.842  12.319 -0.0882 -0.4769 -0.8904
  435MOL0     C59920  -0.344   6.715  12.371 -0.5602 -0.9407  0.6310
  435MOL0     C59921  -0.470   6.863  12.189 -0.9061  0.5865 -0.2385
  435MOL0     C59922  -0.483   6.748  12.092  0.0221 -0.0534  0.2425
  435MOL0     O59923  -0.460   6.620  12.132 -0.5093 -0.6768  0.2756
  435MOL0     C59924  -0.428   6.525  12.041  0.7136  0.1458 -0.1656
  435MOL0     C59925  -0.347   6.535  11.933 -1.1174 -0.0054  0.2187
  435MOL0     C59926  -0.319   6.432  11.840 -0.3704 -0.7773  0.0479
  435MOL0     C59927  -0.392   6.311  11.857 -0.2977  0.2677  0.0755
  435MOL0     O59928  -0.373   6.217  11.762  0.1806  0.3759  0.2939
  435MOL0     C59929  -0.434   6.092  11.792 -0.5427  0.0442  0.5259
  435MOL0     C59930  -0.403   5.977  11.696  0.3772  0.0223  0.8325
  435MOL0     C59931  -0.437   5.846  11.770 -0.3955 -0.4241  0.6533
  435MOL0     C59932  -0.577   5.834  11.818  0.0875 -0.8948  0.6478
  435MOL0     C59933  -0.616   5.714  11.911  0.4853  0.2195  0.1981
  435MOL0     C59934  -0.671   5.742  12.052 -0.2135  0.3435 -0.0953
  435MOL0     C59935  -0.562   5.770  12.161 -0.5428 -0.4688  0.3608
  435MOL0     C59936  -0.643   5.802  12.293  0.3889 -0.3167 -0.3294
  435MOL0    Cl59937  -0.704   5.647  12.361  0.3390 -0.2382  0.5364
  435MOL0     C59938  -0.476   6.299  11.974  0.4231 -0.4455 -1.0986
  435MOL0     C59939  -0.500   6.410  12.060 -0.3464  0.0491 -0.4665
  435MOL0     O59940  -0.543   6.780  11.990  0.3247 -0.6499  0.4045
  435MOL0     C59941  -0.497   6.999  12.138 -0.1523 -0.4449  0.7232
  435MOL0     C59942  -0.480   7.109  12.218 -0.8154  0.4258 -0.3432
  435MOL0     N59943  -0.459   7.631  12.485  0.6405  0.0528 -0.4830
  435MOL0     N59944  -0.534   7.709  12.418 -0.7072 -0.3617 -0.1219
  435MOL0     C59945  -0.332   8.196  11.509  0.2484 -0.8239  0.0684
  435MOL0     C59946  -0.253   8.277  11.417  1.1864  0.5666 -0.6380
  435MOL0     C59947   0.061   8.464  11.201  0.1321  1.1170 -0.1282
  435MOL0     C59948   0.010   8.474  11.071  0.8718 -0.3672  0.5842
  435MOL0     C59949   0.080   8.542  10.974 -0.1657  0.3167  0.0306
  435MOL0     C59950   0.198   8.604  11.007  0.4520 -0.2302  0.0943
  435MOL0     O59951   0.281   8.661  10.918 -0.5252  0.2824 -0.7537
  435MOL0     C59952   0.206   8.711  10.802  0.3809  0.4529 -0.1155
  435MOL0     C59953   0.310   8.782  10.722  0.6852  0.8070  1.2203
  435MOL0     C59954   0.409   8.691  10.644 -0.1895 -0.3699  0.2276
  435MOL0     C59955   0.552   8.688  10.701  0.3736 -0.1895 -0.5147
  435MOL0     C59956   0.639   8.680  10.587  0.7752  0.8079 -0.5643
  435MOL0     C59957   0.714   8.673  10.493 -0.8863 -0.4127 -0.2217
  435MOL0     C59958   0.249   8.608  11.134 -0.4411  0.1770 -0.6945
  435MOL0     C59959   0.189   8.527  11.227 -0.3644 -0.2846  0.0774
  435MOL0     C59960   0.265   8.511  11.359  0.1570  0.1450 -0.2694
  435MOL0     H59961  -0.199   8.054  11.170  1.8847  0.6154  0.4042
  435MOL0     H59962  -0.335   7.912  11.317  0.6794 -0.5244  1.3567
  435MOL0     H59963  -0.583   8.098  11.591 -1.9221  0.7829  2.4722
  435MOL0     H59964  -0.461   8.084  11.717 -0.1814 -2.3618  0.9209
  435MOL0     H59965  -0.699   7.950  11.732  0.1446  1.9478 -1.0122
  435MOL0     H59966  -0.625   7.849  11.617  1.6283 -2.8515  0.8641
  435MOL0     H59967  -0.428   7.818  11.802  0.1583 -0.2146  0.7640
  435MOL0     H59968  -0.506   7.939  11.898  1.2893  0.9206  0.2347
  435MOL0     H59969  -0.710   7.785  11.926 -1.2184 -3.0420 -0.1007
  435MOL0     H59970  -0.627   7.658  11.832  2.4801  0.4897 -0.8424
  435MOL0     H59971  -0.536   7.787  12.100  1.4812  0.9601  0.7581
  435MOL0     H59972  -0.432   7.702  11.997 -0.6642  2.3103  0.9523
  435MOL0     H59973  -0.560   7.494  12.012  0.0693  0.1612 -0.5601
  435MOL0     H59974  -0.504   7.555  12.167 -0.2562 -1.7035  0.2582
  435MOL0     H59975  -0.729   7.465  12.193 -1.3821  0.3442  2.1189
  435MOL0     H59976  -0.801   7.588  12.083 -1.7462 -1.1196  1.7267
  435MOL0     H59977  -0.722   7.768  12.219 -3.1698 -1.7885 -2.2690
  435MOL0     H59978  -0.840   7.656  12.298  0.0934 -0.1837  0.6148
  435MOL0     H59979  -0.715   7.433  12.428 -2.2086  1.7871 -0.4120
  435MOL0     H59980  -0.541   7.324  12.588 -1.7331  1.3074  1.5459
  435MOL0     H59981  -0.548   7.457  12.712 -1.4734 -0.3114  0.5322
  435MOL0     H59982  -0.312   7.508  12.675 -2.0046 -0.0197  2.3963
  435MOL0     H59983  -0.349   7.358  12.745  1.3094 -1.9221 -0.7626
  435MOL0     H59984  -0.257   7.397  12.451  1.2334  0.4505 -0.8523
  435MOL0     H59985  -0.152   7.345  12.588  0.6327  0.7904 -0.3564
  435MOL0     H59986  -0.205   7.148  12.498  2.4574  2.0741  0.9135
  435MOL0     H59987  -0.336   7.156  12.618  0.2312  4.4079  1.6588
  435MOL0     H59988  -0.344   6.949  12.492 -5.8274  0.8735  3.2838
  435MOL0     H59989  -0.407   6.626  12.365 -2.2551  0.2539 -0.1611
  435MOL0     H59990  -0.328   6.709  12.480  0.1230  4.6961  1.1606
  435MOL0     H59991  -0.251   6.704  12.314  0.2044  0.1885  1.6116
  435MOL0     H59992  -0.277   6.616  11.919  2.4150 -3.2160 -3.4477
  435MOL0     H59993  -0.239   6.452  11.769 -1.7002 -0.7602 -1.5037
  435MOL0     H59994  -0.419   6.058  11.894  0.2936  1.3548  0.8638
  435MOL0     H59995  -0.543   6.103  11.786 -0.5633 -0.7216 -1.1632
  435MOL0     H59996  -0.465   5.996  11.607 -3.0172 -0.6177  2.9016
  435MOL0     H59997  -0.295   5.972  11.678  0.5413  0.1982  1.7194
  435MOL0     H59998  -0.378   5.839  11.862  0.2481  2.0592  0.5195
  435MOL0     H59999  -0.394   5.765  11.711 -0.2178  0.8826 -1.1162
  435MOL0     H60000  -0.635   5.845  11.726  3.8480  1.7644 -1.7223
  435MOL0     H60001  -0.609   5.910  11.890 -0.3007 -1.3680  0.9831
  435MOL0     H60002  -0.692   5.667  11.848  1.5712 -3.3461  1.3130
  435MOL0     H60003  -0.534   5.641  11.915  0.2163 -0.0306  1.2752
  435MOL0     H60004  -0.731   5.655  12.081 -4.6480  3.4666  1.1355
  435MOL0     H60005  -0.750   5.818  12.048 -0.9847 -0.2995  1.7255
  435MOL0     H60006  -0.498   5.853  12.129  0.3666 -1.9485 -1.9224
  435MOL0     H60007  -0.494   5.685  12.171 -0.6115 -0.6310 -0.4472
  435MOL0     H60008  -0.730   5.866  12.275  0.9160 -0.0348 -2.1195
  435MOL0     H60009  -0.572   5.841  12.367  0.7009 -1.8388  0.2101
  435MOL0     H60010  -0.515   6.200  11.995 -1.0958  0.1816 -0.8244
  435MOL0     H60011  -0.562   6.414  12.150  0.8539 -1.0258  0.4548
  435MOL0     H60012  -0.523   7.027  12.037 -0.3662 -0.8364  0.6662
  435MOL0     H60013  -0.498   7.210  12.185 -0.6459  0.5932  0.0695
  435MOL0     H60014  -0.366   8.240  11.602 -0.7939 -2.6548  0.6069
  435MOL0     H60015  -0.243   8.381  11.445 -0.0757  1.7004 -3.9075
  435MOL0     H60016  -0.078   8.422  11.035  2.8306 -1.8419 -2.4434
  435MOL0     H60017   0.048   8.536  10.871 -1.0468 -2.7793  0.3634
  435MOL0     H60018   0.183   8.628  10.735 -1.2806  2.5945 -2.3914
  435MOL0     H60019   0.116   8.768  10.827 -0.6080 -1.0091 -0.2518
  435MOL0     H60020   0.352   8.854  10.793  1.9818  1.4501 -0.1335
  435MOL0     H60021   0.259   8.846  10.649 -0.1695 -0.4478  0.6917
  435MOL0     H60022   0.390   8.583  10.641  1.6442 -0.8939  2.8769
  435MOL0     H60023   0.400   8.725  10.541 -1.2148  0.3464  0.5334
  435MOL0     H60024   0.579   8.607  10.770 -3.8200 -2.8416 -1.6144
  435MOL0     H60025   0.567   8.784  10.752 -0.4347  0.1810 -0.9575
  435MOL0     H60026   0.786   8.656  10.416  1.4971 -1.2654  2.0634
  435MOL0     H60027   0.346   8.655  11.153 -1.6250  1.2939  4.0113
  435MOL0     H60028   0.269   8.408  11.396 -1.2910  0.5324  1.1063
  435MOL0     H60029   0.363   8.559  11.356 -0.5304  1.5457 -1.5819
  435MOL0     H60030   0.201   8.566  11.429 -0.2795  1.3467 -1.5761
  436MOL0     O60031   5.029   1.144   5.614 -0.0539 -0.3531 -0.0089
  436MOL0     C60032   5.034   1.048   5.688  0.7364 -0.7832  0.7448
  436MOL0     O60033   5.082   1.046   5.812 -0.6933 -0.1770 -0.1267
  436MOL0     C60034   5.148   1.160   5.852  0.0348 -0.4934  0.6974
  436MOL0     C60035   5.088   1.284   5.865 -0.2599 -0.7838 -0.4197
  436MOL0     C60036   5.166   1.393   5.917 -0.1338 -0.6474  0.6515
  436MOL0     C60037   5.300   1.380   5.953  1.0254 -0.1217  0.2171
  436MOL0     O60038   5.383   1.469   6.012  0.1498 -0.5627  0.2453
  436MOL0     C60039   5.363   1.610   6.005  0.3629 -0.1784  0.0272
  436MOL0     C60040   5.417   1.680   6.133  0.1828  0.1255  0.6290
  436MOL0     C60041   5.425   1.835   6.125  0.5786  0.9812  1.2847
  436MOL0     C60042   5.500   1.907   6.009 -0.2492  0.6471  0.2310
  436MOL0     C60043   5.482   2.053   6.020 -0.2896 -0.1379  0.3969
  436MOL0     C60044   5.596   2.108   6.110  0.5058 -0.3979 -0.8534
  436MOL0     C60045   5.600   2.257   6.101  0.0929 -0.5644 -0.7572
  436MOL0     C60046   5.514   2.324   6.217  1.4531 -0.6194 -0.2209
  436MOL0     N60047   5.593   2.338   6.344  0.5818  1.1961 -0.1171
  436MOL0     C60048   5.667   2.448   6.374  0.2770  0.7584 -0.5920
  436MOL0     C60049   5.740   2.411   6.480 -0.2640 -0.1682  0.4521
  436MOL0     C60050   5.844   2.501   6.531  0.0492  0.1306  0.2200
  436MOL0     C60051   5.797   2.572   6.661 -0.9816 -0.3400 -0.2139
  436MOL0     C60052   5.865   2.710   6.682 -0.1740 -0.2790  1.1794
  436MOL0     C60053   5.827   2.768   6.823 -0.1363  0.9275 -0.1919
  436MOL0     O60054   5.950   2.768   6.912  0.8066 -0.4119  0.5498
  436MOL0     C60055   5.978   2.662   6.994  1.0489 -0.4822  0.4379
  436MOL0     C60056   5.882   2.560   7.012  0.2965 -0.5427 -1.0405
  436MOL0     C60057   5.929   2.442   7.074  0.4461 -0.7434  0.1623
  436MOL0     C60058   5.820   2.338   7.115 -0.4996 -0.2014  0.5010
  436MOL0     C60059   6.069   2.448   7.118 -0.5911 -0.1249 -0.3434
  436MOL0     C60060   6.121   2.335   7.202 -0.1668 -0.2399  0.5442
  436MOL0     O60061   6.074   2.208   7.180 -0.1827  0.2448 -0.0676
  436MOL0     C60062   6.125   2.098   7.241  0.3962 -0.7031  0.7058
  436MOL0     C60063   6.241   2.084   7.306  0.2167 -0.1067 -0.0672
  436MOL0     C60064   6.266   1.964   7.362  0.1310 -0.2408 -0.8306
  436MOL0     C60065   6.187   1.853   7.336 -0.7366 -0.0276 -0.0661
  436MOL0     O60066   6.213   1.727   7.376  0.8863  0.5263  0.1881
  436MOL0     C60067   6.308   1.709   7.478  0.2465 -0.2063 -0.0257
  436MOL0     C60068   6.341   1.556   7.496  0.4411 -0.1561  0.3890
  436MOL0     C60069   6.324   1.471   7.368  0.7124  0.0132  0.2110
  436MOL0     C60070   6.327   1.317   7.399  0.7432  0.1527  0.8296
  436MOL0     C60071   6.464   1.274   7.436 -0.2264 -0.4055 -0.6451
  436MOL0     C60072   6.476   1.121   7.435  0.4624  0.4602 -0.2211
  436MOL0     C60073   6.620   1.078   7.467 -1.0061  0.8407  0.2329
  436MOL0     C60074   6.634   0.934   7.426 -0.2020  0.3114  0.3135
  436MOL0    Cl60075   6.747   0.926   7.287 -0.0582 -0.2136  0.1488
  436MOL0     C60076   6.082   1.859   7.251  0.2286 -0.4675 -0.2421
  436MOL0     C60077   6.049   1.985   7.200  0.2732  0.2566  0.0137
  436MOL0     O60078   6.215   2.367   7.276 -0.1565  0.7221 -0.2907
  436MOL0     C60079   6.156   2.555   7.089  0.0501 -0.6406  0.4124
  436MOL0     C60080   6.107   2.657   7.029  0.7573 -0.7678  0.3796
  436MOL0     N60081   5.709   2.278   6.513 -0.2730 -0.3017  0.6336
  436MOL0     N60082   5.609   2.241   6.444 -0.2763 -0.1092 -0.3120
  436MOL0     C60083   5.355   1.257   5.952  0.0365  0.6040 -0.0364
  436MOL0     C60084   5.281   1.149   5.894  0.3325  0.1364  0.1608
  436MOL0     C60085   5.016   0.912   5.624  0.8754  0.1245 -0.1747
  436MOL0     C60086   4.994   0.797   5.697  0.2358  0.0203 -0.2456
  436MOL0     C60087   4.980   0.671   5.645 -0.2989  0.9217  1.1138
  436MOL0     C60088   5.007   0.652   5.514 -0.4307  0.3721 -0.6223
  436MOL0     O60089   4.998   0.525   5.453 -0.2192  0.0243  0.7221
  436MOL0     C60090   4.928   0.410   5.516 -0.6443 -0.3897  0.0835
  436MOL0     C60091   4.867   0.313   5.414 -0.7476 -0.2045 -0.2366
  436MOL0     C60092   4.864   0.170   5.482  0.0521 -0.5516  0.8178
  436MOL0     C60093   4.790   0.073   5.389  0.0597  0.3591 -0.0484
  436MOL0     C60094   4.688   0.003   5.456 -0.9947  0.1422  0.7256
  436MOL0     C60095   4.607  -0.065   5.514 -0.3866  0.4007 -0.2935
  436MOL0     C60096   5.041   0.759   5.435 -0.4445  0.4202  0.1961
  436MOL0     C60097   5.047   0.888   5.484 -0.5781 -0.6620  0.3692
  436MOL0     C60098   5.115   0.993   5.392  0.9393  0.0182  1.1543
  436MOL0     H60099   4.982   1.284   5.841 -0.9400 -0.3260  2.2174
  436MOL0     H60100   5.128   1.494   5.906  2.4082  0.2461 -1.0788
  436MOL0     H60101   5.256   1.635   5.999 -0.0545 -1.4015  1.5869
  436MOL0     H60102   5.406   1.648   5.912 -0.6933 -0.6704 -0.6867
  436MOL0     H60103   5.358   1.653   6.222  0.4717  0.4502  0.9234
  436MOL0     H60104   5.515   1.635   6.156  0.0215 -2.1227 -2.5478
  436MOL0     H60105   5.320   1.859   6.106 -0.1494 -2.8152 -0.4758
  436MOL0     H60106   5.463   1.869   6.221  0.3596  0.9490  1.3825
  436MOL0     H60107   5.608   1.888   6.013 -0.3195 -0.0753 -0.9857
  436MOL0     H60108   5.472   1.875   5.908  0.2346  3.7408 -0.9765
  436MOL0     H60109   5.381   2.082   6.048 -0.8509  1.3633 -2.7548
  436MOL0     H60110   5.484   2.094   5.918 -2.2045 -1.5286 -0.2398
  436MOL0     H60111   5.580   2.082   6.215  1.5617  0.5147 -0.4517
  436MOL0     H60112   5.695   2.076   6.076  0.4815  0.0555 -1.3671
  436MOL0     H60113   5.553   2.290   6.008  0.3088 -2.3792 -1.5589
  436MOL0     H60114   5.701   2.299   6.096  1.1535 -2.8169  0.1890
  436MOL0     H60115   5.481   2.425   6.187  2.0061 -1.1075 -2.6883
  436MOL0     H60116   5.420   2.275   6.245 -0.1055  2.2358  0.0175
  436MOL0     H60117   5.663   2.542   6.320  0.3200 -0.3775 -2.6294
  436MOL0     H60118   5.871   2.585   6.467 -1.1573  2.2421  2.3037
  436MOL0     H60119   5.937   2.448   6.552 -1.2937 -2.8829 -0.8490
  436MOL0     H60120   5.688   2.577   6.657 -1.1235  0.3794  2.5088
  436MOL0     H60121   5.819   2.515   6.752 -0.5562  0.6687  0.3288
  436MOL0     H60122   5.973   2.701   6.667 -0.4462 -0.7980 -0.8010
  436MOL0     H60123   5.841   2.779   6.600  1.6198  0.6560  1.4092
  436MOL0     H60124   5.805   2.874   6.809  1.4598  1.2535 -0.4013
  436MOL0     H60125   5.735   2.720   6.860  1.1532 -0.8321  0.9006
  436MOL0     H60126   5.775   2.570   6.993  0.1825 -1.5506 -0.9512
  436MOL0     H60127   5.823   2.249   7.052  2.8760  0.4169 -0.4241
  436MOL0     H60128   5.721   2.379   7.095 -0.6031  0.0569  1.4965
  436MOL0     H60129   5.808   2.299   7.217 -3.5292  0.4482  0.4807
  436MOL0     H60130   6.314   2.164   7.314 -0.1971  0.1163  2.1205
  436MOL0     H60131   6.361   1.949   7.413 -0.2779 -1.3940 -0.3546
  436MOL0     H60132   6.400   1.759   7.449 -1.6976  3.2251 -0.9008
  436MOL0     H60133   6.275   1.748   7.575 -0.6404  0.5087 -0.5978
  436MOL0     H60134   6.434   1.551   7.553  1.8138  4.1581 -1.0781
  436MOL0     H60135   6.277   1.517   7.576  2.2144 -3.1961  0.4701
  436MOL0     H60136   6.386   1.495   7.281  0.5493 -0.0319  0.0802
  436MOL0     H60137   6.219   1.489   7.343 -0.7083 -3.2845  2.9511
  436MOL0     H60138   6.313   1.261   7.306 -0.4485 -0.9472  1.6413
  436MOL0     H60139   6.248   1.283   7.466 -0.1584 -0.6080 -0.5640
  436MOL0     H60140   6.537   1.313   7.364  1.6920 -1.1735  0.8078
  436MOL0     H60141   6.485   1.325   7.531  2.4502  1.8538 -2.2815
  436MOL0     H60142   6.446   1.081   7.338 -1.1401  1.6630 -0.2532
  436MOL0     H60143   6.404   1.083   7.508 -1.1886  4.0211  0.2347
  436MOL0     H60144   6.634   1.088   7.575  0.2844 -0.3361  0.2064
  436MOL0     H60145   6.701   1.136   7.424 -0.7600  1.5691  1.6244
  436MOL0     H60146   6.547   0.882   7.384  0.7253 -3.0215  2.1406
  436MOL0     H60147   6.670   0.871   7.508 -1.8156  0.7906  1.4433
  436MOL0     H60148   6.020   1.776   7.218  0.6788 -0.1476 -1.9930
  436MOL0     H60149   5.973   1.993   7.122 -1.8908 -2.0055  1.7294
  436MOL0     H60150   6.262   2.571   7.109  0.3335  2.7887 -2.8188
  436MOL0     H60151   6.164   2.743   6.994  1.4353 -0.8664  1.2254
  436MOL0     H60152   5.458   1.237   5.979  0.9078  1.8761 -2.1594
  436MOL0     H60153   5.323   1.049   5.888  1.2120  0.5273 -0.3012
  436MOL0     H60154   4.994   0.804   5.806 -0.9998 -1.5177 -0.1014
  436MOL0     H60155   4.944   0.591   5.709  0.8155  1.8578  3.0024
  436MOL0     H60156   5.000   0.354   5.577 -2.1077 -1.0465  1.2764
  436MOL0     H60157   4.850   0.438   5.588  0.8938  2.6140  0.7541
  436MOL0     H60158   4.929   0.310   5.324  1.8573 -4.9297  1.3754
  436MOL0     H60159   4.768   0.350   5.385 -0.8421  1.3455  1.7932
  436MOL0     H60160   4.960   0.128   5.514 -0.3434 -0.3295  2.3292
  436MOL0     H60161   4.796   0.182   5.566 -0.2060 -2.8523  1.0144
  436MOL0     H60162   4.859  -0.000   5.348  1.2023  0.7974  1.0092
  436MOL0     H60163   4.751   0.138   5.310 -0.6789  0.6460  0.5371
  436MOL0     H60164   4.537  -0.132   5.560 -1.0300 -1.2413 -3.4108
  436MOL0     H60165   5.064   0.729   5.334  1.8380 -0.9528  1.0519
  436MOL0     H60166   5.054   1.084   5.392  0.9703  0.0362  0.5419
  436MOL0     H60167   5.206   1.023   5.444  0.6219  0.0290  1.7177
  436MOL0     H60168   5.130   0.950   5.293 -1.3758  2.7493 -0.5378
  437MOL0     O60169   0.144   9.948   2.070  0.0249 -1.1121 -0.6695
  437MOL0     C60170   0.210  10.019   1.988  0.4186  0.2273 -0.7169
  437MOL0     O60171   0.292  10.127   2.031 -0.8081  0.0972 -0.0420
  437MOL0     C60172   0.295  10.159   2.169  0.0068 -0.6201 -0.4423
  437MOL0     C60173   0.185  10.153   2.251  0.2505 -0.6872 -0.1475
  437MOL0     C60174   0.185  10.152   2.387  0.1509 -0.1347 -0.2915
  437MOL0     C60175   0.310  10.178   2.442 -0.7926  0.4256  0.8817
  437MOL0     O60176   0.321  10.177   2.574  0.2107  0.4976  0.7036
  437MOL0     C60177   0.317  10.049   2.635 -0.0774  0.4026  0.1022
  437MOL0     C60178   0.242  10.071   2.762 -0.0275 -0.2049  0.3444
  437MOL0     C60179   0.339  10.156   2.853 -0.5678  0.9689 -1.3095
  437MOL0     C60180   0.283  10.192   2.991  0.7108 -0.4401  0.1327
  437MOL0     C60181   0.198  10.317   2.981 -0.0083 -0.4394 -0.0740
  437MOL0     C60182   0.192  10.373   3.119  0.0681  0.4126 -0.0072
  437MOL0     C60183   0.120  10.290   3.227  0.8915 -0.5907 -0.4659
  437MOL0     C60184   0.103  10.376   3.354 -0.3809  0.5582  1.0424
  437MOL0     N60185  -0.004  10.476   3.344 -0.7873  0.3643  0.3137
  437MOL0     C60186  -0.123  10.458   3.405 -0.7141 -0.3876  0.0678
  437MOL0     C60187  -0.177  10.585   3.411 -0.1556 -0.4886 -0.3692
  437MOL0     C60188  -0.303  10.630   3.483 -0.1422 -0.1610  0.8980
  437MOL0     C60189  -0.422  10.586   3.408  0.2080 -0.3844  0.0093
  437MOL0     C60190  -0.552  10.666   3.430 -1.3972 -0.3255  0.2315
  437MOL0     C60191  -0.675  10.608   3.361 -0.0005 -0.5439  0.7090
  437MOL0     O60192  -0.641  10.607   3.223 -0.6766  0.0657 -0.3578
  437MOL0     C60193  -0.743  10.554   3.139 -0.0286 -0.9843  1.0393
  437MOL0     C60194  -0.697  10.530   3.012  0.7504  0.3180  0.6829
  437MOL0     C60195  -0.780  10.491   2.908 -0.2474 -0.3619  0.9563
  437MOL0     C60196  -0.717  10.500   2.765  0.4081 -0.0129  0.2129
  437MOL0     C60197  -0.925  10.467   2.925 -0.3592  0.2219 -0.2801
  437MOL0     C60198  -1.025  10.432   2.825 -0.2663 -0.2872  0.6763
  437MOL0     O60199  -1.127  10.354   2.859  0.7541 -0.5726 -0.5881
  437MOL0     C60200  -1.247  10.340   2.789  0.3357 -0.4524 -0.0040
  437MOL0     C60201  -1.277  10.387   2.655 -0.0635 -0.6060 -0.7385
  437MOL0     C60202  -1.396  10.379   2.604 -0.5444  0.5342 -0.5814
  437MOL0     C60203  -1.504  10.316   2.668  0.1051 -0.8141 -0.1875
  437MOL0     O60204  -1.631  10.308   2.617 -0.4384  0.5089 -0.0066
  437MOL0     C60205  -1.642  10.336   2.474 -0.4204 -0.5159 -0.3280
  437MOL0     C60206  -1.778  10.305   2.418 -0.3358  0.5079  0.1148
  437MOL0     C60207  -1.882  10.422   2.452  0.5645 -0.3224  0.1506
  437MOL0     C60208  -2.008  10.389   2.368  0.2453  0.1700 -1.3697
  437MOL0     C60209  -2.149  10.389   2.437 -0.0177 -0.2720 -0.4955
  437MOL0     C60210  -2.196  10.522   2.502 -1.0094  1.8664  0.1118
  437MOL0     C60211  -2.340  10.503   2.556 -0.5311 -1.8824 -0.4788
  437MOL0     C60212  -2.369  10.629   2.643 -0.1504 -0.1966 -0.9447
  437MOL0    Cl60213  -2.496  10.585   2.753  0.4378  0.2257  0.1328
  437MOL0     C60214  -1.477  10.254   2.784 -0.0301 -0.2676  0.2708
  437MOL0     C60215  -1.354  10.274   2.851 -0.5466 -0.4214 -0.5486
  437MOL0     O60216  -1.003  10.477   2.714 -0.5787  0.3245 -0.0551
  437MOL0     C60217  -0.965  10.482   3.058  0.2251  0.5722  0.1705
  437MOL0     C60218  -0.877  10.530   3.158  0.3654 -0.1558 -0.0040
  437MOL0     N60219  -0.085  10.671   3.364  0.8142 -0.3585 -0.5846
  437MOL0     N60220   0.020  10.608   3.326  0.4302 -0.6600 -0.3726
  437MOL0     C60221   0.425  10.197   2.367 -0.1608 -1.1348  0.6001
  437MOL0     C60222   0.418  10.193   2.228 -0.1729 -0.3717  0.7861
  437MOL0     C60223   0.199  10.018   1.842  0.6868  0.3360 -1.3077
  437MOL0     C60224   0.231  10.136   1.771  0.2411  1.1691  0.5080
  437MOL0     C60225   0.209  10.141   1.635  0.4348  0.1650 -0.2785
  437MOL0     C60226   0.166  10.028   1.563 -0.7088 -0.2680 -0.6082
  437MOL0     O60227   0.127  10.060   1.437 -0.1863 -0.4078 -0.0075
  437MOL0     C60228   0.037   9.973   1.370  0.0485  0.4983  0.9125
  437MOL0     C60229   0.034  10.022   1.226 -1.1324  0.2182 -0.6137
  437MOL0     C60230  -0.041  10.148   1.216  0.1642 -0.7116  0.3997
  437MOL0     C60231  -0.057  10.188   1.062  0.0939 -0.3303 -0.6781
  437MOL0     C60232  -0.093  10.325   1.048  0.0316 -0.2208 -0.7599
  437MOL0     C60233  -0.139  10.436   1.037 -0.5530  0.7086 -0.7500
  437MOL0     C60234   0.142   9.904   1.631  0.0222 -0.8215 -0.2954
  437MOL0     C60235   0.151   9.903   1.773  0.1880  0.8750  0.6430
  437MOL0     C60236   0.117   9.767   1.836  0.7629  0.0325  0.6674
  437MOL0     H60237   0.080  10.144   2.224 -1.4678  2.6654  4.1720
  437MOL0     H60238   0.099  10.134   2.450  0.6463  2.3957  1.2101
  437MOL0     H60239   0.416  10.005   2.653 -0.4012 -0.3570  0.1003
  437MOL0     H60240   0.267   9.976   2.570  1.3791  2.3649 -3.5330
  437MOL0     H60241   0.144  10.116   2.744 -1.3474 -1.4687  3.5342
  437MOL0     H60242   0.218   9.970   2.797  0.1191 -0.6668 -0.8516
  437MOL0     H60243   0.431  10.098   2.865 -0.9842  0.2472 -1.5233
  437MOL0     H60244   0.380  10.242   2.799 -0.0416  1.8222  0.3659
  437MOL0     H60245   0.228  10.102   3.021  2.0939 -0.7700  1.8862
  437MOL0     H60246   0.369  10.208   3.058  0.1786 -2.5803  1.4392
  437MOL0     H60247   0.103  10.308   2.929 -0.4139  0.8973  0.3845
  437MOL0     H60248   0.252  10.390   2.920 -2.4307 -0.2944 -2.2124
  437MOL0     H60249   0.296  10.392   3.148  0.5784  0.6961 -1.8544
  437MOL0     H60250   0.140  10.469   3.111  3.0844  2.1133 -1.0910
  437MOL0     H60251   0.187  10.210   3.259  1.2150 -0.8560 -1.7561
  437MOL0     H60252   0.022  10.251   3.196 -0.1634 -1.5048  3.4842
  437MOL0     H60253   0.087  10.314   3.442 -0.6939  1.6506  1.7777
  437MOL0     H60254   0.200  10.426   3.368  0.9744 -1.6594  0.1365
  437MOL0     H60255  -0.162  10.370   3.455 -0.9070 -0.8568 -0.8994
  437MOL0     H60256  -0.307  10.739   3.475 -1.0582 -0.1791  1.0346
  437MOL0     H60257  -0.302  10.589   3.584  0.7877 -0.6861  0.6940
  437MOL0     H60258  -0.395  10.572   3.303  1.6386  0.6211  0.2115
  437MOL0     H60259  -0.438  10.482   3.438 -0.6154 -0.2964 -0.0789
  437MOL0     H60260  -0.576  10.685   3.535 -0.9115  3.3658 -0.2032
  437MOL0     H60261  -0.531  10.766   3.391  0.6119 -0.9515 -0.4374
  437MOL0     H60262  -0.705  10.507   3.388 -0.4549  0.1122  2.7961
  437MOL0     H60263  -0.764  10.670   3.375 -0.9441 -0.9751 -2.4543
  437MOL0     H60264  -0.594  10.554   2.986  1.0600 -0.9530  0.6719
  437MOL0     H60265  -0.765  10.428   2.698 -1.6873  1.7866 -0.3338
  437MOL0     H60266  -0.609  10.487   2.759  1.0706  1.5560  4.8043
  437MOL0     H60267  -0.747  10.594   2.719  0.3842 -0.6695 -1.1676
  437MOL0     H60268  -1.203  10.431   2.589  0.2149  0.9645  0.5313
  437MOL0     H60269  -1.406  10.420   2.504 -1.8168 -0.4038 -0.8558
  437MOL0     H60270  -1.623  10.442   2.457  3.0296 -0.9126  0.3723
  437MOL0     H60271  -1.564  10.288   2.414  2.2890  3.0880 -0.0092
  437MOL0     H60272  -1.774  10.301   2.309 -2.1964 -1.8435  0.0534
  437MOL0     H60273  -1.804  10.211   2.467 -0.2452 -0.0799 -0.9373
  437MOL0     H60274  -1.833  10.517   2.431 -2.6805  1.4707  0.0685
  437MOL0     H60275  -1.906  10.417   2.558 -0.0170 -1.4379 -0.0165
  437MOL0     H60276  -1.996  10.289   2.325 -3.5554 -0.4624 -1.2590
  437MOL0     H60277  -2.003  10.458   2.283  2.0084 -0.6038 -1.9500
  437MOL0     H60278  -2.228  10.364   2.365 -0.6768  1.5782 -0.4815
  437MOL0     H60279  -2.156  10.306   2.508  0.6697 -0.8001 -1.0306
  437MOL0     H60280  -2.215  10.603   2.431  0.1834  1.5973 -0.5450
  437MOL0     H60281  -2.129  10.551   2.584 -1.9716  0.5037  1.4174
  437MOL0     H60282  -2.343  10.418   2.625  0.1976 -1.3495  0.2281
  437MOL0     H60283  -2.401  10.494   2.465 -2.5944 -1.2910  0.7924
  437MOL0     H60284  -2.388  10.725   2.594 -0.7633  0.6439  0.8721
  437MOL0     H60285  -2.278  10.653   2.698 -1.1024  2.9921 -0.5396
  437MOL0     H60286  -1.556  10.203   2.839 -0.8530  0.5756 -0.1068
  437MOL0     H60287  -1.342  10.237   2.953  0.9391 -1.0000 -0.9021
  437MOL0     H60288  -1.070  10.464   3.079  0.4355 -2.2454 -0.7676
  437MOL0     H60289  -0.926  10.555   3.252  0.1911  0.2672 -0.2054
  437MOL0     H60290   0.519  10.221   2.415  0.5198 -2.6160  0.0982
  437MOL0     H60291   0.512  10.200   2.174  1.3231 -1.3582  3.1502
  437MOL0     H60292   0.269  10.229   1.813  4.0025 -0.0977  0.2682
  437MOL0     H60293   0.238  10.232   1.584 -0.2255  2.8589  3.6697
  437MOL0     H60294   0.070   9.869   1.366 -1.3029  0.0710  0.5655
  437MOL0     H60295  -0.060   9.970   1.421 -0.5928  1.8023 -0.1621
  437MOL0     H60296   0.003   9.940   1.161  0.1522 -0.6943 -0.1243
  437MOL0     H60297   0.127  10.045   1.172 -0.0792 -0.0743  0.9827
  437MOL0     H60298  -0.137  10.120   1.261  0.7585 -1.7626  1.0800
  437MOL0     H60299  -0.008  10.228   1.283  1.8229 -1.1697  0.1732
  437MOL0     H60300  -0.139  10.126   1.026 -0.9150  0.1221  0.7521
  437MOL0     H60301   0.034  10.162   1.006  0.3210 -2.4965  0.5627
  437MOL0     H60302  -0.187  10.528   1.011 -1.4233 -0.0742 -2.0020
  437MOL0     H60303   0.113   9.822   1.565  4.8019 -0.7850 -2.8454
  437MOL0     H60304   0.044   9.716   1.772  0.8970  0.5534  0.0816
  437MOL0     H60305   0.208   9.708   1.848  0.0314 -1.2564  0.0768
  437MOL0     H60306   0.079   9.778   1.938  1.4351  1.1897  0.8120
  438MOL0     O60307  10.361   0.316   4.983 -0.7029  0.1468 -0.2767
  438MOL0     C60308  10.259   0.332   4.916  0.1866 -0.8616  0.1035
  438MOL0     O60309  10.233   0.279   4.792 -0.3981 -0.4095 -0.5891
  438MOL0     C60310  10.315   0.185   4.749  0.3558 -0.5242  1.0456
  438MOL0     C60311  10.426   0.217   4.665  0.8386 -0.1137  0.0473
  438MOL0     C60312  10.490   0.114   4.604 -0.4126 -0.3659  0.7416
  438MOL0     C60313  10.455  -0.021   4.628 -0.5011 -0.4809  0.7650
  438MOL0     O60314  10.526  -0.117   4.561 -0.2805 -0.3301  0.4114
  438MOL0     C60315  10.666  -0.135   4.617 -0.8245  0.0656  0.0641
  438MOL0     C60316  10.703  -0.283   4.593 -0.0598 -0.1244  0.0147
  438MOL0     C60317  10.799  -0.331   4.708  0.3590 -0.3643 -0.4660
  438MOL0     C60318  10.715  -0.375   4.832 -0.2660  0.7078  0.6390
  438MOL0     C60319  10.805  -0.378   4.958  0.7073  0.1247  0.7010
  438MOL0     C60320  10.864  -0.514   4.979  0.8538  0.3894 -0.6449
  438MOL0     C60321  10.926  -0.535   5.127 -1.0060  0.2677  0.1717
  438MOL0     C60322  11.039  -0.443   5.155 -0.5310  0.3854 -0.0403
  438MOL0     N60323  11.156  -0.473   5.073  0.3873  0.0858  1.4839
  438MOL0     C60324  11.226  -0.591   5.057 -0.5525 -0.3646 -0.9411
  438MOL0     C60325  11.300  -0.568   4.948  0.2331 -0.6505  0.6823
  438MOL0     C60326  11.393  -0.673   4.877 -0.3834 -1.1433 -1.1342
  438MOL0     C60327  11.325  -0.803   4.881 -0.9021  0.1856  1.1417
  438MOL0     C60328  11.413  -0.906   4.815 -0.4510  0.4101  0.2716
  438MOL0     C60329  11.479  -0.874   4.682  0.3617 -0.3166  0.1879
  438MOL0     O60330  11.383  -0.840   4.577 -0.1435 -0.2728 -0.2174
  438MOL0     C60331  11.358  -0.928   4.480 -0.7293  0.4376  1.2857
  438MOL0     C60332  11.308  -1.055   4.517 -0.1396 -0.1984  0.5099
  438MOL0     C60333  11.257  -1.139   4.423  0.3007  0.5688  0.6882
  438MOL0     C60334  11.190  -1.263   4.474  0.1643  0.2113 -0.0183
  438MOL0     C60335  11.285  -1.113   4.285  0.3722 -0.1185 -0.0526
  438MOL0     C60336  11.271  -1.221   4.182  0.8168 -0.4871 -0.9762
  438MOL0     O60337  11.306  -1.177   4.055 -0.7724 -0.2053 -0.3886
  438MOL0     C60338  11.338  -1.272   3.960  0.2477 -0.6034  0.3587
  438MOL0     C60339  11.321  -1.232   3.830 -0.6872 -0.7304 -0.8819
  438MOL0     C60340  11.336  -1.307   3.720 -0.1823  0.6170  0.1648
  438MOL0     C60341  11.390  -1.431   3.732 -0.5573 -0.9454 -0.9960
  438MOL0     O60342  11.420  -1.490   3.610 -0.3651 -0.3736 -0.3083
  438MOL0     C60343  11.522  -1.589   3.619 -0.4091  0.9530  0.4978
  438MOL0     C60344  11.577  -1.612   3.475  0.5782  0.1896  0.5332
  438MOL0     C60345  11.488  -1.719   3.391 -0.0818  0.8671 -0.5814
  438MOL0     C60346  11.560  -1.763   3.269  0.5337 -0.3890 -0.7661
  438MOL0     C60347  11.482  -1.846   3.168 -0.0551 -0.4230 -0.2979
  438MOL0     C60348  11.380  -1.767   3.086 -0.2120 -0.8086  1.3016
  438MOL0     C60349  11.305  -1.848   2.989  0.6603  0.2137  0.6231
  438MOL0     C60350  11.199  -1.771   2.912  0.4308  1.3600  0.5429
  438MOL0    Cl60351  11.118  -1.873   2.783 -0.3190  0.0211  0.2006
  438MOL0     C60352  11.409  -1.481   3.865 -0.2959 -0.1043  0.1108
  438MOL0     C60353  11.376  -1.403   3.976  0.2968 -0.2376 -0.3697
  438MOL0     O60354  11.212  -1.328   4.209  0.1972  0.0062  0.6032
  438MOL0     C60355  11.333  -0.987   4.250 -0.8168 -0.1464 -0.1218
  438MOL0     C60356  11.380  -0.897   4.342 -0.2479 -0.8544 -0.4701
  438MOL0     N60357  11.276  -0.442   4.904  1.0406  0.8222 -0.1886
  438MOL0     N60358  11.198  -0.376   4.987 -0.0938 -0.1875  0.8037
  438MOL0     C60359  10.337  -0.049   4.702 -0.5777  0.6505 -0.1541
  438MOL0     C60360  10.275   0.051   4.767 -0.9719 -0.3473  0.1915
  438MOL0     C60361  10.152   0.417   4.963  0.1473  0.8797 -1.2938
  438MOL0     C60362  10.021   0.399   4.923  0.5475  1.4193 -0.1459
  438MOL0     C60363   9.918   0.472   4.970  0.2425  0.3451  1.0643
  438MOL0     C60364   9.937   0.566   5.073 -0.4757 -0.4940  0.2675
  438MOL0     O60365   9.839   0.638   5.121 -0.2565 -0.2928 -0.8401
  438MOL0     C60366   9.742   0.688   5.032 -0.1936  0.0148  0.3895
  438MOL0     C60367   9.685   0.826   5.082  0.5979 -0.2172 -0.1497
  438MOL0     C60368   9.587   0.894   4.984 -0.4294 -0.7241  0.0946
  438MOL0     C60369   9.657   0.970   4.877  0.4067  0.0756  0.5241
  438MOL0     C60370   9.569   1.025   4.781  0.3454 -0.4811 -0.5326
  438MOL0     C60371   9.500   1.063   4.687  0.5820  0.5227 -0.5187
  438MOL0     C60372  10.073   0.598   5.110 -0.2135 -0.0046 -0.3765
  438MOL0     C60373  10.176   0.524   5.059  0.5736  0.5079  0.4773
  438MOL0     C60374  10.313   0.568   5.097  0.5995 -0.1073  0.5341
  438MOL0     H60375  10.463   0.318   4.651 -0.3758  0.8933  3.1793
  438MOL0     H60376  10.590   0.130   4.567 -0.1772 -1.3278  0.9433
  438MOL0     H60377  10.668  -0.113   4.724 -0.2110  0.4266 -0.0136
  438MOL0     H60378  10.742  -0.076   4.564 -0.8859 -1.0064 -1.2697
  438MOL0     H60379  10.609  -0.339   4.590 -1.1694  1.4988  1.6891
  438MOL0     H60380  10.757  -0.295   4.499  1.7814 -0.7551  1.0819
  438MOL0     H60381  10.872  -0.405   4.674  2.2436  1.3973 -0.4448
  438MOL0     H60382  10.861  -0.244   4.734 -0.8964  0.2203  0.6918
  438MOL0     H60383  10.628  -0.310   4.832 -0.4501  0.4890 -0.8779
  438MOL0     H60384  10.676  -0.475   4.811  0.1583  0.5204  0.7095
  438MOL0     H60385  10.744  -0.343   5.041 -0.1106  0.5764 -0.0686
  438MOL0     H60386  10.885  -0.304   4.950 -0.1900  1.5674  3.7102
  438MOL0     H60387  10.787  -0.591   4.964  0.7471  0.0598  1.2958
  438MOL0     H60388  10.938  -0.537   4.903 -0.6641 -2.7910 -1.3350
  438MOL0     H60389  10.972  -0.635   5.129  0.3092  0.8698  0.8323
  438MOL0     H60390  10.855  -0.527   5.210 -0.2813 -0.3682  0.8648
  438MOL0     H60391  11.004  -0.340   5.138  0.5758  0.9500  0.9377
  438MOL0     H60392  11.060  -0.448   5.262 -1.0771 -0.3807  0.0333
  438MOL0     H60393  11.224  -0.677   5.124 -3.6948 -0.7521 -1.4148
  438MOL0     H60394  11.488  -0.683   4.929  0.2574  1.3086 -1.7099
  438MOL0     H60395  11.408  -0.638   4.774 -1.3960  1.8645 -0.3794
  438MOL0     H60396  11.308  -0.838   4.983  2.1237 -0.6041  1.4741
  438MOL0     H60397  11.229  -0.804   4.829 -1.1500 -4.0208  1.2888
  438MOL0     H60398  11.494  -0.940   4.880  0.2137 -2.1106 -1.7161
  438MOL0     H60399  11.344  -0.989   4.799  0.9811 -0.5529 -1.1961
  438MOL0     H60400  11.540  -0.785   4.696 -0.8089  0.6900 -0.8568
  438MOL0     H60401  11.548  -0.951   4.645  0.8477  0.2995 -0.1990
  438MOL0     H60402  11.302  -1.080   4.622  4.3061 -0.9307  0.8035
  438MOL0     H60403  11.252  -1.352   4.487 -0.4220 -0.0663  0.9756
  438MOL0     H60404  11.107  -1.294   4.410 -1.1253  2.2568  0.5561
  438MOL0     H60405  11.137  -1.239   4.567 -2.1910  0.0841 -1.2571
  438MOL0     H60406  11.290  -1.130   3.807 -0.5112 -0.3456  0.5217
  438MOL0     H60407  11.321  -1.257   3.625  0.9962 -0.9253 -0.8853
  438MOL0     H60408  11.607  -1.551   3.676  0.1567  1.4824 -0.6663
  438MOL0     H60409  11.496  -1.684   3.667  0.9078  0.0636 -0.4717
  438MOL0     H60410  11.584  -1.514   3.428 -0.9822 -0.6216 -1.5370
  438MOL0     H60411  11.683  -1.638   3.480  0.3311 -0.9418  0.1931
  438MOL0     H60412  11.396  -1.670   3.357 -0.4464 -0.9578 -2.4356
  438MOL0     H60413  11.466  -1.810   3.447  2.8495 -1.6149 -3.1319
  438MOL0     H60414  11.654  -1.807   3.303  0.3400  0.2766  0.6847
  438MOL0     H60415  11.586  -1.673   3.213 -1.6419 -0.0202 -1.2632
  438MOL0     H60416  11.549  -1.895   3.097  0.1572 -0.5551 -0.0045
  438MOL0     H60417  11.427  -1.924   3.223  0.4376 -1.3772 -1.1170
  438MOL0     H60418  11.432  -1.688   3.031 -4.7062  3.3361  2.2758
  438MOL0     H60419  11.309  -1.721   3.156 -0.9974 -4.0470  2.8296
  438MOL0     H60420  11.261  -1.926   3.051  0.3334 -0.3798 -0.3294
  438MOL0     H60421  11.369  -1.881   2.907  1.3936  1.5025  0.6467
  438MOL0     H60422  11.249  -1.701   2.845  3.7088  0.3767  1.7295
  438MOL0     H60423  11.128  -1.714   2.973  1.2834  2.1328  0.8307
  438MOL0     H60424  11.442  -1.584   3.867 -2.2191 -1.0617 -4.4848
  438MOL0     H60425  11.385  -1.467   4.063 -0.3808 -1.3001 -1.0494
  438MOL0     H60426  11.340  -0.956   4.146 -1.2027 -1.8049 -0.6686
  438MOL0     H60427  11.430  -0.802   4.326 -0.0047 -0.4713  2.1841
  438MOL0     H60428  10.316  -0.154   4.718  1.1244  0.6260  2.5808
  438MOL0     H60429  10.193   0.051   4.838 -0.4653  2.2071  0.8855
  438MOL0     H60430  10.000   0.327   4.845  0.9648 -1.8802  2.5554
  438MOL0     H60431   9.820   0.452   4.928  0.3662 -0.1845  1.0125
  438MOL0     H60432   9.775   0.705   4.929 -3.8319 -1.1664 -1.1352
  438MOL0     H60433   9.652   0.626   5.036  0.0349 -0.3316  0.1916
  438MOL0     H60434   9.778   0.882   5.096  0.8686 -1.1020  1.9671
  438MOL0     H60435   9.646   0.824   5.184 -2.8886  2.2724 -1.2595
  438MOL0     H60436   9.536   0.808   4.939  1.6192 -3.4431  2.5165
  438MOL0     H60437   9.518   0.955   5.042  0.9620  0.9097  0.1207
  438MOL0     H60438   9.727   0.901   4.829  2.0400  2.4619 -0.7195
  438MOL0     H60439   9.703   1.059   4.921  0.2121  0.1457  0.5895
  438MOL0     H60440   9.440   1.088   4.602 -2.6070 -2.1447  0.7272
  438MOL0     H60441  10.084   0.674   5.188 -2.6559  1.6124 -1.4770
  438MOL0     H60442  10.362   0.499   5.166  2.1809  1.3201  0.9179
  438MOL0     H60443  10.383   0.574   5.013  0.8033 -1.9929  0.5178
  438MOL0     H60444  10.312   0.667   5.142  1.1820  0.4048 -0.5334
  439MOL0     O60445  10.307   0.727   5.584 -0.0684 -0.4703  0.0379
  439MOL0     C60446  10.196   0.703   5.531 -0.0761 -0.6034  0.3021
  439MOL0     O60447  10.146   0.580   5.525  0.1488 -0.2640  0.0182
  439MOL0     C60448  10.190   0.481   5.610  0.1833 -0.4650 -0.5246
  439MOL0     C60449  10.313   0.442   5.645 -0.3122 -0.6304 -0.1822
  439MOL0     C60450  10.342   0.354   5.745 -0.7016  1.5555  0.2788
  439MOL0     C60451  10.247   0.289   5.820  0.2353  0.1254  0.4746
  439MOL0     O60452  10.288   0.205   5.925  0.1120  0.1564  0.6563
  439MOL0     C60453  10.191   0.139   6.007  0.0705  0.1516  0.5960
  439MOL0     C60454  10.263   0.043   6.091  0.1202  0.2877  0.4063
  439MOL0     C60455  10.161  -0.043   6.169  0.7699  0.6779 -0.1508
  439MOL0     C60456  10.084   0.033   6.283 -0.0135  0.5810 -0.0368
  439MOL0     C60457  10.094  -0.052   6.404 -0.0445 -1.1176  0.6439
  439MOL0     C60458  10.233  -0.072   6.466 -0.2512 -0.0348  0.0956
  439MOL0     C60459  10.306   0.059   6.532 -0.2912  0.4543  0.1303
  439MOL0     C60460  10.443   0.019   6.590 -0.1523 -0.9459 -0.2991
  439MOL0     N60461  10.545  -0.004   6.485  0.1644  0.3885  0.0711
  439MOL0     C60462  10.640  -0.103   6.475 -0.0254 -0.2398 -0.3572
  439MOL0     C60463  10.717  -0.087   6.366 -0.2395  0.0226 -0.3106
  439MOL0     C60464  10.844  -0.167   6.329 -0.0482 -0.9719 -0.0164
  439MOL0     C60465  10.808  -0.305   6.267 -0.6637 -0.2876  0.2115
  439MOL0     C60466  10.707  -0.269   6.138 -0.1663  0.7653 -1.0353
  439MOL0     C60467  10.724  -0.385   6.031 -0.3303 -0.4269  0.9702
  439MOL0     O60468  10.652  -0.501   6.059  0.0062  0.1680  0.0642
  439MOL0     C60469  10.660  -0.610   5.974 -0.2465 -0.1736  0.3998
  439MOL0     C60470  10.733  -0.627   5.852 -0.5751 -0.6172  0.5413
  439MOL0     C60471  10.728  -0.740   5.770  0.9801 -0.3230  0.3839
  439MOL0     C60472  10.823  -0.746   5.648 -0.0125 -0.4199  0.1247
  439MOL0     C60473  10.647  -0.850   5.810 -0.1681  0.6218 -0.4413
  439MOL0     C60474  10.626  -0.978   5.722  0.6379 -0.0019  0.1969
  439MOL0     O60475  10.554  -1.072   5.786 -0.5319 -0.0165 -0.2325
  439MOL0     C60476  10.479  -1.150   5.701 -1.1396 -0.2412  0.1102
  439MOL0     C60477  10.355  -1.119   5.651  0.2834  0.4538  0.0393
  439MOL0     C60478  10.276  -1.216   5.584 -1.3249 -0.0411 -0.7039
  439MOL0     C60479  10.331  -1.341   5.557 -0.2612 -0.3299 -0.3363
  439MOL0     O60480  10.266  -1.427   5.485  0.8551 -0.2240  0.0954
  439MOL0     C60481  10.134  -1.468   5.515 -0.1307 -0.4959 -0.3382
  439MOL0     C60482  10.131  -1.551   5.644 -0.8666 -0.4234 -0.4392
  439MOL0     C60483  10.187  -1.686   5.631  0.2913  0.4538 -0.5364
  439MOL0     C60484  10.170  -1.764   5.762  0.4383 -0.8299  0.5357
  439MOL0     C60485  10.254  -1.888   5.740  0.3060  0.3018 -1.0504
  439MOL0     C60486  10.219  -1.985   5.855  0.2638  0.3265 -0.7599
  439MOL0     C60487  10.336  -2.081   5.886  0.4122 -0.0447 -0.1952
  439MOL0     C60488  10.379  -2.162   5.772  0.4301  0.4505  0.1970
  439MOL0    Cl60489  10.246  -2.250   5.690  0.4690 -0.2544 -0.5618
  439MOL0     C60490  10.459  -1.371   5.598 -0.3660  0.4331 -0.3473
  439MOL0     C60491  10.528  -1.283   5.676 -0.1187 -0.2509  0.3595
  439MOL0     O60492  10.634  -0.960   5.594 -0.7052 -0.1237 -0.1866
  439MOL0     C60493  10.590  -0.842   5.937  0.3153  0.1367 -0.2808
  439MOL0     C60494  10.590  -0.726   6.013  0.4074  0.2561  0.9561
  439MOL0     N60495  10.654   0.016   6.292 -0.4701 -0.4615  0.5447
  439MOL0     N60496  10.554   0.061   6.362  0.1608 -0.3504 -0.2884
  439MOL0     C60497  10.112   0.313   5.778  0.4038 -0.0502  0.1566
  439MOL0     C60498  10.084   0.409   5.669 -1.3083  0.0162  0.7388
  439MOL0     C60499  10.143   0.821   5.448  0.3359 -0.5246 -1.5631
  439MOL0     C60500  10.221   0.929   5.398  0.1024 -0.5978 -0.1079
  439MOL0     C60501  10.161   1.042   5.341  0.1109 -0.0261  1.2307
  439MOL0     C60502  10.026   1.043   5.316 -0.6466 -0.1999 -0.3577
  439MOL0     O60503   9.981   1.163   5.260  0.2379  0.0701  0.2448
  439MOL0     C60504   9.852   1.168   5.199  0.6643  0.3327 -0.2232
  439MOL0     C60505   9.829   1.305   5.126  0.4362  0.8498 -0.3576
  439MOL0     C60506   9.685   1.332   5.070  0.4758 -0.3716  0.3775
  439MOL0     C60507   9.596   1.437   5.132  0.4498 -1.0368 -0.5495
  439MOL0     C60508   9.586   1.432   5.281  0.1129  0.0305  0.7572
  439MOL0     C60509   9.566   1.444   5.399  0.6501 -1.0073  1.1215
  439MOL0     C60510   9.950   0.944   5.365 -0.1824  0.1132 -1.1009
  439MOL0     C60511  10.003   0.834   5.435 -0.7290  0.5514  0.3728
  439MOL0     C60512   9.887   0.736   5.489 -0.7292 -0.3878  1.4623
  439MOL0     H60513  10.399   0.494   5.603 -0.9487  1.4638  0.9882
  439MOL0     H60514  10.440   0.311   5.760 -1.3083  0.1739  0.3668
  439MOL0     H60515  10.129   0.074   5.945  0.6476  0.0498  0.1150
  439MOL0     H60516  10.132   0.218   6.055  0.9994  1.1823  0.0898
  439MOL0     H60517  10.317  -0.024   6.023  3.6396  0.0666  3.1257
  439MOL0     H60518  10.336   0.096   6.152  0.7782  0.7596 -0.7644
  439MOL0     H60519  10.094  -0.081   6.092 -0.1987  1.1426  0.4403
  439MOL0     H60520  10.207  -0.138   6.197  1.7108  0.2749 -2.8341
  439MOL0     H60521  10.139   0.127   6.297  0.1079  0.5699 -0.4270
  439MOL0     H60522   9.981   0.040   6.247  0.4120 -0.4163 -1.5643
  439MOL0     H60523  10.052  -0.149   6.375 -2.1202  0.0700 -0.6374
  439MOL0     H60524  10.027  -0.004   6.476  0.0072  1.4843 -0.9082
  439MOL0     H60525  10.229  -0.137   6.554  2.4797  3.8009  3.4449
  439MOL0     H60526  10.297  -0.132   6.401  1.5182 -0.2740  1.9555
  439MOL0     H60527  10.249   0.103   6.614  0.6170 -0.5082  1.3051
  439MOL0     H60528  10.323   0.134   6.454  1.1474 -0.8702 -0.8977
  439MOL0     H60529  10.470   0.094   6.664 -2.2399 -0.7905  0.3599
  439MOL0     H60530  10.424  -0.071   6.649  0.8438 -1.5916 -0.9216
  439MOL0     H60531  10.663  -0.184   6.544 -0.6494 -0.7254 -0.7056
  439MOL0     H60532  10.903  -0.176   6.420 -2.3244  0.6077  1.7365
  439MOL0     H60533  10.895  -0.092   6.268 -0.5779  0.3390  1.0831
  439MOL0     H60534  10.905  -0.347   6.240 -0.1266 -0.5485  2.3775
  439MOL0     H60535  10.757  -0.375   6.333 -1.1775 -1.3829 -1.2824
  439MOL0     H60536  10.607  -0.257   6.180  0.2192  0.5016  0.0074
  439MOL0     H60537  10.739  -0.175   6.094  2.2088 -0.1233 -1.3670
  439MOL0     H60538  10.676  -0.357   5.937 -0.2444 -1.6650  0.5312
  439MOL0     H60539  10.833  -0.398   6.028  0.0497  2.3707 -1.8947
  439MOL0     H60540  10.807  -0.554   5.819  2.6235 -3.9873 -0.4556
  439MOL0     H60541  10.766  -0.716   5.560 -0.4008  0.6623  0.7215
  439MOL0     H60542  10.863  -0.847   5.638  0.5328 -0.0533 -1.8440
  439MOL0     H60543  10.912  -0.685   5.669  0.8677 -1.7088  0.2176
  439MOL0     H60544  10.292  -1.038   5.686 -1.4282 -2.0911  3.5789
  439MOL0     H60545  10.170  -1.202   5.567 -1.6449 -1.8480 -0.3560
  439MOL0     H60546  10.074  -1.379   5.536  0.4180 -0.5222  1.5609
  439MOL0     H60547  10.096  -1.509   5.421  2.9573 -2.1766 -0.9840
  439MOL0     H60548  10.195  -1.489   5.707  1.0299 -1.7840 -0.9104
  439MOL0     H60549  10.033  -1.569   5.689  0.6186 -1.6833  2.5565
  439MOL0     H60550  10.294  -1.684   5.607  0.9288  2.4804  2.0399
  439MOL0     H60551  10.141  -1.743   5.549  1.7448 -0.3017 -0.8720
  439MOL0     H60552  10.071  -1.789   5.799  0.5308 -1.6360  0.2530
  439MOL0     H60553  10.217  -1.702   5.839  0.6520  0.4578 -0.5825
  439MOL0     H60554  10.225  -1.932   5.644 -0.6398  1.1487 -1.1687
  439MOL0     H60555  10.358  -1.855   5.737  1.2435 -2.0492  1.4607
  439MOL0     H60556  10.128  -2.042   5.832  0.2445 -0.2739  0.6892
  439MOL0     H60557  10.208  -1.919   5.941  0.4684  4.0850 -3.3761
  439MOL0     H60558  10.311  -2.149   5.969  1.3298  3.3633  3.1571
  439MOL0     H60559  10.423  -2.025   5.922  1.8337 -1.3951 -1.3770
  439MOL0     H60560  10.448  -2.242   5.801 -1.0639 -1.7548 -1.9123
  439MOL0     H60561  10.427  -2.098   5.697 -0.6929  2.4010  1.0819
  439MOL0     H60562  10.497  -1.473   5.603 -0.7604  0.3460  2.3091
  439MOL0     H60563  10.630  -1.312   5.701  0.8354  1.8655 -0.7456
  439MOL0     H60564  10.537  -0.923   5.987  0.6962  0.0736  0.0303
  439MOL0     H60565  10.540  -0.726   6.109 -3.0260 -1.6884 -0.6506
  439MOL0     H60566  10.027   0.263   5.821  0.7137 -0.7960 -0.0745
  439MOL0     H60567   9.989   0.422   5.619  0.1267  0.6588 -2.0397
  439MOL0     H60568  10.328   0.915   5.410  0.3446 -4.6822 -4.1990
  439MOL0     H60569  10.222   1.116   5.290 -0.4859 -1.6338 -2.0696
  439MOL0     H60570   9.843   1.084   5.130  1.9008  2.0791 -2.6565
  439MOL0     H60571   9.769   1.164   5.271  0.3527 -1.5583 -0.6346
  439MOL0     H60572   9.901   1.292   5.044  0.6614 -3.0423  0.2526
  439MOL0     H60573   9.874   1.375   5.196  2.4697  0.2490 -1.0098
  439MOL0     H60574   9.694   1.370   4.967 -0.9289 -2.6366 -0.6517
  439MOL0     H60575   9.621   1.244   5.058 -0.1655  0.2778 -1.2486
  439MOL0     H60576   9.495   1.422   5.093  0.6880 -1.5256 -0.9941
  439MOL0     H60577   9.626   1.538   5.105  1.2844 -1.3422 -0.8283
  439MOL0     H60578   9.536   1.479   5.496 -1.3734 -0.2822  0.2904
  439MOL0     H60579   9.842   0.946   5.352 -0.9660 -1.8829  3.2959
  439MOL0     H60580   9.783   0.768   5.479 -0.0777  1.8695  1.3406
  439MOL0     H60581   9.896   0.636   5.445 -0.5426  0.2749 -0.0598
  439MOL0     H60582   9.913   0.742   5.595  0.7744  2.0066  1.0452
  440MOL0     O60583   6.747  11.515  11.115 -0.6009 -1.0865 -0.5625
  440MOL0     C60584   6.756  11.619  11.177 -0.0010 -0.6561  0.2575
  440MOL0     O60585   6.873  11.682  11.215 -0.1064  0.5653  0.4273
  440MOL0     C60586   6.993  11.631  11.170 -0.5646  0.1884  0.4800
  440MOL0     C60587   7.056  11.548  11.262  0.5150  0.2824  0.1711
  440MOL0     C60588   7.168  11.479  11.212  0.5845 -0.3569  0.0090
  440MOL0     C60589   7.216  11.495  11.082  0.1851 -0.0383 -0.6184
  440MOL0     O60590   7.316  11.420  11.042 -0.7512  0.2841 -0.0521
  440MOL0     C60591   7.355  11.422  10.911  0.2850 -0.7869  0.1840
  440MOL0     C60592   7.461  11.327  10.883  0.0381  0.8223  0.3588
  440MOL0     C60593   7.420  11.177  10.875 -0.3248  0.1136  0.3782
  440MOL0     C60594   7.326  11.143  10.748 -0.2707 -0.4742  0.3426
  440MOL0     C60595   7.271  11.009  10.735  0.0794  0.4625  0.4593
  440MOL0     C60596   7.190  10.967  10.859  0.5831  0.1684 -0.1318
  440MOL0     C60597   7.098  10.847  10.828 -0.4199 -1.0371  0.1789
  440MOL0     C60598   7.150  10.716  10.865 -0.8385 -0.0299 -0.2158
  440MOL0     N60599   7.229  10.659  10.758  0.1587 -0.0196  0.9805
  440MOL0     C60600   7.362  10.648  10.756 -0.6112  0.1221 -0.5441
  440MOL0     C60601   7.392  10.590  10.634  0.4692  0.6126 -0.4172
  440MOL0     C60602   7.535  10.549  10.599 -0.4553  0.3553 -0.5010
  440MOL0     C60603   7.586  10.609  10.464  0.5238  0.0768  0.0431
  440MOL0     C60604   7.688  10.509  10.392  1.2023 -0.2003 -0.3151
  440MOL0     C60605   7.795  10.573  10.316  0.3031 -0.1749  0.2147
  440MOL0     O60606   7.924  10.524  10.359  0.3211 -0.3039  0.3027
  440MOL0     C60607   7.989  10.585  10.465  0.9381 -0.7953  0.0788
  440MOL0     C60608   7.932  10.669  10.560 -0.0954 -0.3035  0.3319
  440MOL0     C60609   8.005  10.716  10.669 -0.1597 -1.4765  1.2562
  440MOL0     C60610   7.946  10.818  10.760  0.8739 -0.6745  0.2096
  440MOL0     C60611   8.142  10.681  10.685  0.3667  0.0816  1.0621
  440MOL0     C60612   8.229  10.719  10.798  0.1546 -0.4519  0.6571
  440MOL0     O60613   8.196  10.714  10.919  0.7278  0.5551 -0.2179
  440MOL0     C60614   8.292  10.745  11.010  0.6267 -0.5142 -0.1556
  440MOL0     C60615   8.281  10.874  11.055 -0.0269  0.2339  0.3528
  440MOL0     C60616   8.362  10.927  11.151 -0.0159 -0.4596  0.8993
  440MOL0     C60617   8.457  10.839  11.207 -0.1973 -0.0577 -0.2858
  440MOL0     O60618   8.535  10.886  11.310 -0.4702 -0.0128  0.5258
  440MOL0     C60619   8.675  10.861  11.297  0.0209  0.5627  0.4446
  440MOL0     C60620   8.745  10.992  11.328 -0.0265  0.5382  0.1363
  440MOL0     C60621   8.705  11.063  11.455  0.1227 -0.0958 -0.1089
  440MOL0     C60622   8.713  10.973  11.578  0.0718  0.2778 -0.5072
  440MOL0     C60623   8.682  11.051  11.708 -0.4684  0.2659 -0.3143
  440MOL0     C60624   8.539  11.052  11.746  0.0962  0.0946 -0.6665
  440MOL0     C60625   8.509  11.136  11.873 -0.7794 -0.7759 -0.0091
  440MOL0     C60626   8.566  11.064  11.991 -0.1063  0.4097  0.4754
  440MOL0    Cl60627   8.526  11.176  12.129  0.4468  0.0157 -0.2762
  440MOL0     C60628   8.473  10.708  11.157  0.3749  0.5345  0.2746
  440MOL0     C60629   8.383  10.671  11.059  0.3295 -0.3508 -0.0739
  440MOL0     O60630   8.335  10.775  10.749  0.4016  0.4426  0.4098
  440MOL0     C60631   8.196  10.596  10.582  0.2290 -0.9430  0.3140
  440MOL0     C60632   8.117  10.546  10.479 -0.3712 -1.1227 -0.3393
  440MOL0     N60633   7.269  10.575  10.565  0.2222 -0.8060 -0.4098
  440MOL0     N60634   7.182  10.628  10.639  0.6860  0.3832 -0.1508
  440MOL0     C60635   7.148  11.590  10.999  0.1356  0.3458  0.2694
  440MOL0     C60636   7.030  11.654  11.038 -0.8296  0.3319  0.7633
  440MOL0     C60637   6.627  11.688  11.205 -0.8412  0.3805  0.6048
  440MOL0     C60638   6.521  11.613  11.244  0.1312 -0.5772 -0.3645
  440MOL0     C60639   6.402  11.677  11.273 -0.6807  0.3560  0.2328
  440MOL0     C60640   6.394  11.816  11.274  0.7772  0.8714 -0.0127
  440MOL0     O60641   6.274  11.864  11.307 -0.3220 -0.2638 -0.5048
  440MOL0     C60642   6.245  12.007  11.289  0.7421  0.0890  0.3481
  440MOL0     C60643   6.103  12.018  11.247  0.2876 -0.5928  0.1531
  440MOL0     C60644   6.004  11.905  11.297  0.3861  0.3814  0.4252
  440MOL0     C60645   5.860  11.918  11.235 -1.0168  0.4722  0.5313
  440MOL0     C60646   5.857  11.935  11.090 -0.1263 -0.5774  0.6068
  440MOL0     C60647   5.864  11.941  10.968  0.0479 -0.1840 -0.8966
  440MOL0     C60648   6.501  11.886  11.237  0.1419  0.5036 -0.2373
  440MOL0     C60649   6.619  11.831  11.198  0.4437 -0.1837  0.5955
  440MOL0     C60650   6.727  11.929  11.156 -0.4696 -0.6578  0.7826
  440MOL0     H60651   7.015  11.536  11.362  1.3320 -0.4140  0.4303
  440MOL0     H60652   7.228  11.404  11.262  0.0919 -2.6142 -2.5728
  440MOL0     H60653   7.395  11.518  10.879 -2.9287 -0.3167 -3.1558
  440MOL0     H60654   7.268  11.403  10.847 -1.2146 -0.4203  2.0257
  440MOL0     H60655   7.517  11.341  10.790  0.5666 -2.5375  0.0424
  440MOL0     H60656   7.538  11.345  10.959  2.6423 -2.2050 -1.3170
  440MOL0     H60657   7.513  11.119  10.873  0.4073  1.2705  0.1443
  440MOL0     H60658   7.386  11.146  10.975 -1.8392 -0.1199 -0.1896
  440MOL0     H60659   7.247  11.217  10.760  2.4508  2.2970  3.0172
  440MOL0     H60660   7.396  11.157  10.666  1.4293 -3.2954  1.1427
  440MOL0     H60661   7.348  10.931  10.736 -1.5074 -1.3461 -2.5630
  440MOL0     H60662   7.219  11.004  10.639 -3.1525  3.1103  1.8901
  440MOL0     H60663   7.262  10.943  10.938  1.2496  1.5049 -0.3058
  440MOL0     H60664   7.122  11.048  10.885  0.4160 -0.0813  0.2086
  440MOL0     H60665   7.069  10.852  10.722 -0.2576 -2.5842  0.0425
  440MOL0     H60666   7.006  10.872  10.880 -1.5283  1.8931 -2.7834
  440MOL0     H60667   7.209  10.723  10.957 -0.0284 -0.5308 -0.6938
  440MOL0     H60668   7.075  10.638  10.878 -2.2043  0.8202 -2.4044
  440MOL0     H60669   7.431  10.665  10.838  0.8132  0.0622 -1.6953
  440MOL0     H60670   7.542  10.440  10.598  2.9075  0.4717 -1.1806
  440MOL0     H60671   7.595  10.590  10.681  1.3317  1.7378 -2.3708
  440MOL0     H60672   7.498  10.604  10.400  0.7734 -0.8766 -0.2397
  440MOL0     H60673   7.617  10.714  10.470 -0.6546  0.5619 -1.5688
  440MOL0     H60674   7.740  10.456  10.472  1.2654 -0.5458 -0.5842
  440MOL0     H60675   7.629  10.432  10.342  0.8876 -0.5015  0.4998
  440MOL0     H60676   7.790  10.539  10.212 -2.0183  0.2520  0.1466
  440MOL0     H60677   7.791  10.681  10.327  1.3474  0.7220 -5.0963
  440MOL0     H60678   7.824  10.681  10.565 -0.3269 -1.9119 -0.1484
  440MOL0     H60679   7.900  10.763  10.842 -0.7961  0.0101 -0.2326
  440MOL0     H60680   7.868  10.881  10.716  1.0477 -1.4885 -1.3498
  440MOL0     H60681   8.020  10.883  10.808  0.1001 -2.7825  4.7812
  440MOL0     H60682   8.199  10.935  11.018  1.1190  0.7668 -1.4577
  440MOL0     H60683   8.350  11.028  11.188 -1.4038  0.2204 -1.2464
  440MOL0     H60684   8.724  10.783  11.357  3.0507  1.6180 -0.4350
  440MOL0     H60685   8.707  10.852  11.193  1.7823  1.5041  0.8582
  440MOL0     H60686   8.846  10.958  11.348  0.2785  1.2426 -0.1863
  440MOL0     H60687   8.746  11.047  11.233  2.1774  0.8070  0.2612
  440MOL0     H60688   8.600  11.093  11.447  0.4159  1.4549  1.2146
  440MOL0     H60689   8.775  11.148  11.461  0.4352  0.0027 -3.4393
  440MOL0     H60690   8.817  10.941  11.591  1.1333  4.0563  2.0032
  440MOL0     H60691   8.643  10.890  11.571  0.6388 -0.1887 -0.7207
  440MOL0     H60692   8.748  11.010  11.785 -1.0042 -0.5105 -0.2667
  440MOL0     H60693   8.713  11.156  11.697 -0.4431  0.1732 -1.2238
  440MOL0     H60694   8.527  10.947  11.774  0.5883 -0.0156 -0.8563
  440MOL0     H60695   8.472  11.071  11.661 -2.5238 -3.7619  0.2817
  440MOL0     H60696   8.401  11.146  11.885 -0.9021 -0.9961 -0.8730
  440MOL0     H60697   8.548  11.238  11.865  1.0344 -1.4825 -0.7647
  440MOL0     H60698   8.675  11.064  11.985  0.0109 -0.8432  1.9587
  440MOL0     H60699   8.539  10.958  11.997 -0.3991  0.2360 -2.5401
  440MOL0     H60700   8.549  10.639  11.192  1.3286  1.0699 -0.6927
  440MOL0     H60701   8.380  10.567  11.027  1.2244 -0.2809 -0.4100
  440MOL0     H60702   8.293  10.552  10.605  0.7682 -0.4665 -0.9481
  440MOL0     H60703   8.158  10.484  10.400  0.7350  1.6922 -2.1274
  440MOL0     H60704   7.175  11.605  10.895 -1.0108  2.1164  0.1997
  440MOL0     H60705   6.976  11.710  10.962  1.6397 -0.3984 -1.6981
  440MOL0     H60706   6.521  11.505  11.231  1.4081 -0.5613 -0.6863
  440MOL0     H60707   6.316  11.613  11.289  1.0152 -2.4957 -1.1957
  440MOL0     H60708   6.255  12.064  11.381 -0.9953 -2.0928  1.9843
  440MOL0     H60709   6.315  12.043  11.212  0.0280  3.5627  1.1967
  440MOL0     H60710   6.100  12.035  11.139 -4.9827 -0.3528  0.0947
  440MOL0     H60711   6.062  12.112  11.283  1.0656 -0.3018  0.3101
  440MOL0     H60712   6.050  11.806  11.289  3.7641  1.7026  1.6197
  440MOL0     H60713   5.994  11.919  11.405 -0.5731 -0.7135  0.4969
  440MOL0     H60714   5.823  12.005  11.290  0.7822  1.6334  0.0109
  440MOL0     H60715   5.788  11.838  11.255 -4.0586  3.1447  1.0614
  440MOL0     H60716   5.868  11.960  10.863 -0.0051 -2.8526 -1.4499
  440MOL0     H60717   6.511  11.991  11.263  1.7745 -0.3710  3.2184
  440MOL0     H60718   6.799  11.876  11.095 -0.8417 -1.2443  0.8476
  440MOL0     H60719   6.690  12.019  11.105 -3.6147 -1.3911  1.5446
  440MOL0     H60720   6.788  11.944  11.246 -1.1135 -4.0459  1.9148
  441MOL0     O60721   1.349   1.459   2.787 -0.1328  0.0549  0.0625
  441MOL0     C60722   1.266   1.491   2.876  0.6107  0.1043  0.0702
  441MOL0     O60723   1.235   1.615   2.920  0.1219 -0.3928 -0.7444
  441MOL0     C60724   1.329   1.718   2.928  0.5520 -0.6780  0.2291
  441MOL0     C60725   1.468   1.705   2.929 -0.6977  0.2773  1.0662
  441MOL0     C60726   1.551   1.821   2.930  0.0890  0.3994 -0.1875
  441MOL0     C60727   1.497   1.947   2.930 -0.3606 -0.0931 -0.7857
  441MOL0     O60728   1.587   2.052   2.927 -1.0144 -0.0666 -0.4499
  441MOL0     C60729   1.541   2.179   2.874  0.8938  0.7854  0.1847
  441MOL0     C60730   1.652   2.283   2.876 -0.3893 -0.5930  0.3985
  441MOL0     C60731   1.675   2.328   3.022 -0.3424  0.1241  0.0454
  441MOL0     C60732   1.748   2.462   3.038  0.1865  1.0779  1.0402
  441MOL0     C60733   1.777   2.492   3.182 -0.3283  0.3918 -1.1884
  441MOL0     C60734   1.863   2.620   3.208 -0.8027 -0.6256 -0.5046
  441MOL0     C60735   1.846   2.657   3.360  1.0499 -0.5871 -0.1796
  441MOL0     C60736   1.909   2.557   3.464  0.1510  0.9003  0.1953
  441MOL0     N60737   2.054   2.553   3.450 -0.0475  0.2229  0.0126
  441MOL0     C60738   2.125   2.469   3.375 -0.2073  0.0866 -0.0984
  441MOL0     C60739   2.256   2.496   3.404 -0.1744  0.9216  0.9952
  441MOL0     C60740   2.373   2.415   3.340  0.4000  0.0302 -0.0638
  441MOL0     C60741   2.500   2.441   3.419 -0.2289  0.1041  0.1741
  441MOL0     C60742   2.477   2.382   3.553 -0.8550 -0.6920 -0.1896
  441MOL0     C60743   2.596   2.284   3.592 -0.3202 -0.1823 -0.6253
  441MOL0     O60744   2.710   2.351   3.639 -1.1983 -0.6548 -0.3244
  441MOL0     C60745   2.818   2.277   3.692 -1.0537  0.1808  0.6807
  441MOL0     C60746   2.813   2.140   3.730  0.2699 -1.0464 -0.4610
  441MOL0     C60747   2.928   2.071   3.761 -0.0486 -0.1270  1.2596
  441MOL0     C60748   2.900   1.934   3.808 -0.1027  0.2575 -0.3057
  441MOL0     C60749   3.047   2.148   3.786 -0.1270 -0.1321 -0.1889
  441MOL0     C60750   3.175   2.093   3.847  0.1968  0.1604 -0.4319
  441MOL0     O60751   3.280   2.186   3.863 -0.4640 -0.2822 -1.2124
  441MOL0     C60752   3.389   2.128   3.917 -1.4781  1.1874  1.0377
  441MOL0     C60753   3.402   2.097   4.057 -0.1980  0.1780  0.8283
  441MOL0     C60754   3.525   2.059   4.113 -0.1539 -0.5215 -0.2114
  441MOL0     C60755   3.633   2.024   4.029 -0.5059 -0.2801 -0.8141
  441MOL0     O60756   3.747   1.984   4.095  0.0341  0.7253 -0.1205
  441MOL0     C60757   3.854   1.933   4.012 -0.4904  0.1606  0.1080
  441MOL0     C60758   3.969   2.035   4.027 -0.0311 -0.1040 -1.1052
  441MOL0     C60759   4.087   1.970   3.959  0.6361 -0.8515 -0.2647
  441MOL0     C60760   4.180   1.878   4.023  0.2867 -0.4345 -0.4531
  441MOL0     C60761   4.267   1.806   3.911 -0.0340 -0.1764 -0.6003
  441MOL0     C60762   4.403   1.734   3.958  0.2473  0.2781 -0.2046
  441MOL0     C60763   4.501   1.685   3.854 -1.0543  0.2423 -0.3824
  441MOL0     C60764   4.645   1.689   3.905 -1.0153  0.1244  0.4077
  441MOL0    Cl60765   4.747   1.607   3.786 -0.0909  0.7023  0.1676
  441MOL0     C60766   3.621   2.058   3.897 -0.4228  0.1090  0.7402
  441MOL0     C60767   3.502   2.102   3.840  1.0409 -0.4060 -0.4913
  441MOL0     O60768   3.180   1.974   3.891 -0.2067  0.5407  0.2474
  441MOL0     C60769   3.055   2.289   3.751  1.2661  0.6520 -0.2355
  441MOL0     C60770   2.935   2.346   3.700 -0.4919  0.4074 -0.1804
  441MOL0     N60771   2.262   2.597   3.495 -0.2711  0.5152 -0.6563
  441MOL0     N60772   2.141   2.621   3.539  0.2058 -0.8442 -0.5983
  441MOL0     C60773   1.358   1.965   2.940 -0.0793  0.1761 -0.2453
  441MOL0     C60774   1.272   1.849   2.931 -0.1655 -0.4839  0.2003
  441MOL0     C60775   1.173   1.384   2.915  0.1583  0.1388 -0.2309
  441MOL0     C60776   1.034   1.387   2.887 -0.1254 -0.5291 -0.1023
  441MOL0     C60777   0.960   1.274   2.919 -0.4816 -0.3968  0.3611
  441MOL0     C60778   1.017   1.161   2.962 -0.0260 -0.2015  0.3452
  441MOL0     O60779   0.950   1.051   3.004 -0.2148  0.0836  0.1248
  441MOL0     C60780   0.851   1.009   2.912  0.1620 -0.1305  1.5103
  441MOL0     C60781   0.827   0.857   2.927  0.1730 -1.0640 -0.1536
  441MOL0     C60782   0.947   0.778   2.873 -0.1618  1.3269  0.0222
  441MOL0     C60783   0.942   0.639   2.944 -0.3651 -0.1881  0.1978
  441MOL0     C60784   0.839   0.554   2.894  0.1828 -0.0990  0.4073
  441MOL0     C60785   0.762   0.482   2.832 -0.2108 -0.3820 -0.1400
  441MOL0     C60786   1.162   1.153   2.989  0.9842 -0.6889  0.1564
  441MOL0     C60787   1.237   1.263   2.956  0.1673 -0.0059 -0.3603
  441MOL0     C60788   1.391   1.233   2.967 -0.9093 -0.5210  0.0269
  441MOL0     H60789   1.508   1.604   2.929 -2.3759 -0.4210  2.2437
  441MOL0     H60790   1.658   1.806   2.923  0.2484  0.1905  2.1794
  441MOL0     H60791   1.453   2.208   2.932 -0.2133 -0.1979 -0.9476
  441MOL0     H60792   1.515   2.172   2.769 -0.2267  1.3891  0.4159
  441MOL0     H60793   1.742   2.245   2.828 -0.2389 -2.3434  1.9670
  441MOL0     H60794   1.624   2.375   2.824 -0.6767 -0.7443  0.2844
  441MOL0     H60795   1.573   2.341   3.058 -1.7011 -1.5339 -2.8936
  441MOL0     H60796   1.715   2.245   3.081 -0.5835  0.1527  0.2503
  441MOL0     H60797   1.844   2.452   2.986  0.4121 -0.9635  1.7363
  441MOL0     H60798   1.688   2.538   2.988 -0.9435  0.3107  1.1925
  441MOL0     H60799   1.838   2.413   3.227  1.2061  1.4387 -1.3328
  441MOL0     H60800   1.678   2.516   3.223  1.3579  2.3798  2.1770
  441MOL0     H60801   1.963   2.585   3.179 -0.3690  0.5689 -0.5317
  441MOL0     H60802   1.822   2.698   3.143 -2.4740  0.9123  2.1880
  441MOL0     H60803   1.740   2.675   3.381  0.9113  1.1640 -2.1195
  441MOL0     H60804   1.898   2.751   3.379 -0.4962  0.7260 -2.1125
  441MOL0     H60805   1.886   2.592   3.565 -1.2683 -0.6056  0.4423
  441MOL0     H60806   1.856   2.463   3.445 -2.3135  2.2253  0.0604
  441MOL0     H60807   2.096   2.385   3.313  2.5723  0.0365 -1.5120
  441MOL0     H60808   2.397   2.447   3.238  1.6744 -0.0230  0.1977
  441MOL0     H60809   2.357   2.307   3.330 -2.4382  0.2755  0.9826
  441MOL0     H60810   2.582   2.395   3.363 -0.0986  0.7642 -0.1805
  441MOL0     H60811   2.513   2.549   3.427  1.6912 -0.0358 -0.5026
  441MOL0     H60812   2.468   2.466   3.622 -0.4072  0.1219 -1.0884
  441MOL0     H60813   2.397   2.308   3.556  0.3254 -2.0171 -0.4944
  441MOL0     H60814   2.556   2.215   3.666 -2.4789  3.4044  1.8582
  441MOL0     H60815   2.636   2.226   3.508  3.0530 -0.1671  0.8065
  441MOL0     H60816   2.721   2.085   3.747  1.6809 -3.7605 -1.0391
  441MOL0     H60817   2.795   1.906   3.798 -0.7846  2.3881  0.2989
  441MOL0     H60818   2.924   1.936   3.915 -1.1389  0.7331 -0.0604
  441MOL0     H60819   2.960   1.857   3.759  0.2480 -1.8003  3.0479
  441MOL0     H60820   3.327   2.108   4.134 -0.4625  1.2068  0.4410
  441MOL0     H60821   3.527   2.036   4.219 -1.8304  4.7029  1.2513
  441MOL0     H60822   3.879   1.827   4.027 -0.0520  0.4025  1.1576
  441MOL0     H60823   3.837   1.937   3.904 -0.2489 -1.4754 -0.0180
  441MOL0     H60824   3.954   2.126   3.968 -1.1763  1.0280  0.8393
  441MOL0     H60825   3.992   2.060   4.131 -0.8872  0.7488 -1.1081
  441MOL0     H60826   4.152   2.053   3.928  0.1455 -0.6205 -0.6937
  441MOL0     H60827   4.051   1.913   3.873 -1.8858 -0.9401  0.7620
  441MOL0     H60828   4.125   1.808   4.087  0.9747  1.4780  2.4141
  441MOL0     H60829   4.243   1.940   4.088  1.1353 -1.2024 -0.5245
  441MOL0     H60830   4.197   1.740   3.859  0.1202 -0.2888 -0.6649
  441MOL0     H60831   4.305   1.876   3.836 -0.5389  1.1709  0.3632
  441MOL0     H60832   4.367   1.643   4.007 -0.0106  0.9956  0.9857
  441MOL0     H60833   4.449   1.802   4.030  0.8737  0.5578 -0.8632
  441MOL0     H60834   4.479   1.744   3.765 -2.1929  0.3704 -0.0285
  441MOL0     H60835   4.479   1.581   3.828 -1.3635 -1.0428  4.2086
  441MOL0     H60836   4.666   1.643   4.002  6.0237  0.3458 -0.5115
  441MOL0     H60837   4.661   1.796   3.923 -2.6427  0.1080  2.3815
  441MOL0     H60838   3.698   2.054   3.820  0.2969 -3.3791  1.4603
  441MOL0     H60839   3.487   2.120   3.734  1.4569 -2.3996 -0.9277
  441MOL0     H60840   3.149   2.343   3.745  2.7809 -1.7947 -0.0347
  441MOL0     H60841   2.925   2.446   3.658 -3.7410 -0.1783 -1.0467
  441MOL0     H60842   1.308   2.059   2.961  2.9532  1.8417  0.1234
  441MOL0     H60843   1.164   1.863   2.927  0.2579  6.5961  1.1207
  441MOL0     H60844   0.993   1.482   2.852  0.4008 -1.0393 -2.2363
  441MOL0     H60845   0.853   1.273   2.903 -0.3063 -1.0714 -0.9640
  441MOL0     H60846   0.751   1.050   2.932 -0.0680  0.7167 -1.0779
  441MOL0     H60847   0.886   1.035   2.812 -2.6839  1.0996  0.7503
  441MOL0     H60848   0.733   0.832   2.877 -1.3904  1.4925  1.2981
  441MOL0     H60849   0.813   0.834   3.033 -0.9705  3.2362  0.8219
  441MOL0     H60850   0.942   0.768   2.764  1.4077  1.4896 -0.0856
  441MOL0     H60851   1.039   0.833   2.896  2.6872 -2.3979 -1.4256
  441MOL0     H60852   0.929   0.641   3.053  2.2225  2.0701  0.5674
  441MOL0     H60853   1.035   0.594   2.911 -1.4369 -0.1147 -3.3181
  441MOL0     H60854   0.693   0.417   2.783 -0.7623 -1.8238  2.3875
  441MOL0     H60855   1.207   1.061   3.026  1.2854 -0.8667 -0.6244
  441MOL0     H60856   1.456   1.301   3.022  0.5783 -0.0774 -2.1396
  441MOL0     H60857   1.397   1.150   3.038  2.4821  1.2601  2.0940
  441MOL0     H60858   1.442   1.195   2.878 -1.2737 -2.3211  0.5459
  442MOL0     O60859  11.513   9.030   7.593  0.7521 -0.1395 -0.6847
  442MOL0     C60860  11.484   9.097   7.696  0.7761  0.4765  0.4290
  442MOL0     O60861  11.450   9.053   7.821 -0.2566  0.3337  0.0202
  442MOL0     C60862  11.417   8.917   7.824 -1.0240  0.5189 -0.7903
  442MOL0     C60863  11.293   8.869   7.769 -0.1090 -0.0671  0.7666
  442MOL0     C60864  11.267   8.732   7.790 -0.1836 -0.7769  0.6812
  442MOL0     C60865  11.362   8.645   7.843 -0.0478  0.2114 -0.4434
  442MOL0     O60866  11.348   8.510   7.871 -0.1038  0.0866  0.4067
  442MOL0     C60867  11.223   8.465   7.926 -0.4300 -0.8424  0.5381
  442MOL0     C60868  11.247   8.406   8.064  0.3676 -0.7853  0.6476
  442MOL0     C60869  11.319   8.271   8.052 -0.6292 -0.4472 -0.3359
  442MOL0     C60870  11.385   8.228   8.187 -0.9901  0.6137 -0.3282
  442MOL0     C60871  11.442   8.090   8.195 -0.1155 -0.4104 -0.0885
  442MOL0     C60872  11.534   8.054   8.093  0.4567  0.1407 -0.0660
  442MOL0     C60873  11.646   8.165   8.071 -0.4383  0.1810  0.1883
  442MOL0     C60874  11.768   8.088   8.008  0.8311  0.1145  0.2521
  442MOL0     N60875  11.748   8.037   7.870  0.5231  0.0582  0.4199
  442MOL0     C60876  11.722   8.112   7.756  0.0028 -0.3234  0.5279
  442MOL0     C60877  11.753   8.026   7.655 -0.4286  0.2363 -0.4433
  442MOL0     C60878  11.724   8.043   7.508  0.0388  0.9282  0.4881
  442MOL0     C60879  11.860   8.024   7.428  0.4917 -0.2159 -0.4310
  442MOL0     C60880  11.982   8.114   7.464 -0.3782  0.5576  0.1735
  442MOL0     C60881  11.982   8.259   7.422  0.0551  0.0486 -0.7052
  442MOL0     O60882  11.864   8.333   7.466 -0.4333  0.1959 -0.9375
  442MOL0     C60883  11.871   8.388   7.592 -0.3619  0.3182 -0.1378
  442MOL0     C60884  11.967   8.362   7.695  1.1858  0.1918  0.4597
  442MOL0     C60885  11.963   8.426   7.814 -0.1481 -0.5973 -0.4524
  442MOL0     C60886  12.074   8.392   7.904 -0.2132 -0.2289  0.5704
  442MOL0     C60887  11.849   8.503   7.850 -0.3887 -0.5921  0.4403
  442MOL0     C60888  11.843   8.577   7.979  1.1310 -1.0930 -0.5040
  442MOL0     O60889  11.877   8.520   8.097 -0.1683  0.1499 -0.0351
  442MOL0     C60890  11.879   8.605   8.207 -0.1482  0.3191  0.7905
  442MOL0     C60891  11.766   8.617   8.295  0.0795  0.4465  0.0681
  442MOL0     C60892  11.767   8.678   8.425 -0.0889  0.3875  0.7495
  442MOL0     C60893  11.884   8.744   8.467  0.1320 -0.1781 -0.5125
  442MOL0     O60894  11.880   8.792   8.597 -0.8989  0.2611 -0.2913
  442MOL0     C60895  12.013   8.825   8.657  0.0551 -0.1930  0.9359
  442MOL0     C60896  12.015   8.837   8.809  1.1262 -0.1140  0.1117
  442MOL0     C60897  11.984   8.977   8.862  0.6920  0.4569  0.2934
  442MOL0     C60898  11.958   8.988   9.016 -0.4500 -0.7561  0.4202
  442MOL0     C60899  12.086   8.974   9.097  0.0685  1.1880  0.1499
  442MOL0     C60900  12.062   8.976   9.251 -0.1739 -0.9278 -0.0754
  442MOL0     C60901  11.956   9.074   9.307 -0.3428  0.0674  0.2230
  442MOL0     C60902  11.918   9.045   9.447  0.6469 -0.1484 -0.7390
  442MOL0    Cl60903  11.781   8.927   9.437  0.0558 -0.0520 -0.2248
  442MOL0     C60904  11.998   8.741   8.383 -0.7539 -0.0672 -0.7434
  442MOL0     C60905  11.991   8.669   8.263  0.4858  0.6009  0.1621
  442MOL0     O60906  11.798   8.695   7.973  0.7256 -0.7424 -0.2894
  442MOL0     C60907  11.747   8.512   7.754  0.8298  0.7375 -0.5618
  442MOL0     C60908  11.757   8.460   7.628  0.0748  0.9290  0.0408
  442MOL0     N60909  11.773   7.900   7.709  0.6301 -0.6409  1.0896
  442MOL0     N60910  11.756   7.909   7.835 -0.6507 -0.3760 -0.2761
  442MOL0     C60911  11.473   8.704   7.904  0.3451 -0.9713  0.0436
  442MOL0     C60912  11.501   8.840   7.898  0.2664 -0.7321 -0.0992
  442MOL0     C60913  11.515   9.239   7.682 -0.6637  0.4203 -0.0668
  442MOL0     C60914  11.617   9.295   7.765  0.1492  0.3227 -0.5560
  442MOL0     C60915  11.638   9.431   7.776  0.1921  0.3635 -0.5294
  442MOL0     C60916  11.562   9.519   7.700 -0.7108 -0.4904  0.4867
  442MOL0     O60917  11.575   9.652   7.743  0.3324 -0.1561  0.2946
  442MOL0     C60918  11.454   9.738   7.757 -0.4296 -0.8609  1.5207
  442MOL0     C60919  11.361   9.686   7.872 -0.1675  0.0582 -0.4024
  442MOL0     C60920  11.423   9.691   8.011  0.3205 -0.8865 -0.3484
  442MOL0     C60921  11.320   9.694   8.121  0.6646 -0.6469 -0.3282
  442MOL0     C60922  11.172   9.711   8.092  0.5426  0.5298  0.8650
  442MOL0     C60923  11.056   9.726   8.069  0.6016 -0.4213 -0.5272
  442MOL0     C60924  11.478   9.465   7.603  0.5033 -0.3197  0.2054
  442MOL0     C60925  11.454   9.329   7.593 -0.3511  1.2495  1.0340
  442MOL0     C60926  11.354   9.282   7.482 -0.6294 -0.9188  0.4325
  442MOL0     H60927  11.222   8.933   7.718  1.7283  0.1935 -1.6650
  442MOL0     H60928  11.176   8.683   7.759 -0.1342 -2.3496  2.8163
  442MOL0     H60929  11.179   8.385   7.867 -2.5040  1.6419 -1.5530
  442MOL0     H60930  11.152   8.549   7.927  2.3952  1.8529  4.3152
  442MOL0     H60931  11.300   8.480   8.125  1.7490 -0.9398 -0.3427
  442MOL0     H60932  11.145   8.397   8.103 -1.1679  0.8377 -2.6441
  442MOL0     H60933  11.235   8.204   8.032  0.2637 -0.7915 -3.3846
  442MOL0     H60934  11.387   8.269   7.966  1.8045 -3.2529  1.4469
  442MOL0     H60935  11.450   8.300   8.238 -1.8714  3.0055 -2.3834
  442MOL0     H60936  11.304   8.203   8.256  0.9119 -4.3646  0.4840
  442MOL0     H60937  11.365   8.012   8.193  0.5206 -1.0333 -1.0488
  442MOL0     H60938  11.492   8.078   8.291  1.5343 -0.8971 -0.9796
  442MOL0     H60939  11.585   7.964   8.128  0.3631  0.8718  2.1368
  442MOL0     H60940  11.486   8.041   7.996 -0.5278  0.7073  0.3224
  442MOL0     H60941  11.676   8.209   8.167 -4.3417  2.4131  0.5761
  442MOL0     H60942  11.628   8.242   7.996  2.2300  0.9016  0.1846
  442MOL0     H60943  11.861   8.144   8.017  0.1765  1.2987 -0.1975
  442MOL0     H60944  11.789   7.999   8.069 -1.1594  0.9018  2.2269
  442MOL0     H60945  11.698   8.217   7.747  3.0668  0.2867 -3.0699
  442MOL0     H60946  11.692   8.143   7.477  2.5074  1.7968  0.5181
  442MOL0     H60947  11.657   7.964   7.475 -0.6674  0.0883  3.5956
  442MOL0     H60948  11.901   7.925   7.449  2.7476  0.6373 -0.5318
  442MOL0     H60949  11.827   8.030   7.324  0.2960 -2.0983 -0.5126
  442MOL0     H60950  12.006   8.115   7.571 -0.6876 -0.3309  0.2540
  442MOL0     H60951  12.070   8.070   7.417  0.9327  0.6209  2.4174
  442MOL0     H60952  12.071   8.310   7.462 -1.7571  0.2233  3.5715
  442MOL0     H60953  11.981   8.256   7.312 -2.0578  1.4619 -0.7842
  442MOL0     H60954  12.050   8.296   7.668  0.1528  0.0307 -2.8520
  442MOL0     H60955  12.030   8.342   7.991  0.9475  1.6170  2.2846
  442MOL0     H60956  12.130   8.481   7.933 -0.8658  0.5241 -0.3925
  442MOL0     H60957  12.153   8.338   7.851  1.8352  1.9365  1.2576
  442MOL0     H60958  11.680   8.567   8.252  2.0411 -2.0659 -1.1742
  442MOL0     H60959  11.682   8.678   8.492 -2.1281  3.7852 -1.5577
  442MOL0     H60960  12.083   8.744   8.635  1.8080  1.8638 -1.9182
  442MOL0     H60961  12.057   8.916   8.614 -1.2757  0.3857  0.7587
  442MOL0     H60962  11.938   8.765   8.836 -1.4739  1.8352 -1.5501
  442MOL0     H60963  12.113   8.796   8.834  0.7511 -1.2787 -0.2647
  442MOL0     H60964  11.898   9.024   8.813 -1.2579 -3.7681 -0.8524
  442MOL0     H60965  12.071   9.036   8.833  1.5683 -2.5061 -4.2801
  442MOL0     H60966  11.874   8.929   9.054  0.5713 -2.6101 -0.1200
  442MOL0     H60967  11.932   9.094   9.024 -0.0859 -0.5627 -0.7531
  442MOL0     H60968  12.118   8.874   9.064 -1.4761  0.8926 -0.5725
  442MOL0     H60969  12.155   9.049   9.058  0.6705  0.2661 -0.6325
  442MOL0     H60970  12.156   8.974   9.306 -1.3032  1.5502  2.1224
  442MOL0     H60971  12.024   8.878   9.280 -0.9710 -0.9973 -1.2777
  442MOL0     H60972  11.871   9.080   9.239  0.4202 -1.4624 -0.9427
  442MOL0     H60973  12.003   9.173   9.313  1.2137 -0.3875 -2.6052
  442MOL0     H60974  11.893   9.144   9.485 -1.7573 -1.1369  0.4482
  442MOL0     H60975  12.007   8.996   9.487  3.9020  1.2672 -5.4684
  442MOL0     H60976  12.098   8.774   8.407  0.1566 -1.4999 -2.3607
  442MOL0     H60977  12.084   8.650   8.211 -0.2147  0.2525 -1.0228
  442MOL0     H60978  11.653   8.559   7.780 -1.2114 -3.6409  0.9421
  442MOL0     H60979  11.683   8.488   7.554  0.8588  2.0624 -0.3383
  442MOL0     H60980  11.543   8.640   7.958  1.1598 -1.1681 -1.2093
  442MOL0     H60981  11.587   8.884   7.947  1.2415 -3.3349  0.7279
  442MOL0     H60982  11.662   9.236   7.844 -2.1035  1.7948  2.0005
  442MOL0     H60983  11.704   9.473   7.851  0.2286  1.1481 -0.9827
  442MOL0     H60984  11.467   9.845   7.772 -0.6538 -0.8922  1.9612
  442MOL0     H60985  11.392   9.724   7.668 -0.1474 -1.3350  1.3927
  442MOL0     H60986  11.348   9.578   7.860  0.1025  0.1111 -1.1831
  442MOL0     H60987  11.265   9.737   7.858  0.1619 -0.1005 -4.0651
  442MOL0     H60988  11.503   9.617   8.022  0.8066 -0.3883 -0.4778
  442MOL0     H60989  11.477   9.786   8.009 -1.1996  0.0077 -1.9232
  442MOL0     H60990  11.347   9.777   8.186 -1.8230 -0.5716  0.7355
  442MOL0     H60991  11.323   9.605   8.185 -0.4199 -0.9534 -0.6791
  442MOL0     H60992  10.954   9.727   8.036  1.3814  0.1533 -3.2095
  442MOL0     H60993  11.426   9.538   7.542 -0.1345 -0.0764  1.0178
  442MOL0     H60994  11.340   9.363   7.410 -0.0191 -0.3269  0.9617
  442MOL0     H60995  11.388   9.196   7.424 -0.5855 -0.7707  0.2346
  442MOL0     H60996  11.255   9.272   7.526 -1.6278  3.0032 -0.5146
  443MOL0     O60997   8.297   5.679   2.022  0.3740  0.1663 -0.6199
  443MOL0     C60998   8.414   5.681   1.997  0.4199  0.0298  0.3084
  443MOL0     O60999   8.472   5.763   1.910 -0.2133  0.0325  0.0798
  443MOL0     C61000   8.418   5.873   1.841 -0.4947  1.1975 -0.1361
  443MOL0     C61001   8.449   6.001   1.874 -0.5420 -0.0354  0.0772
  443MOL0     C61002   8.391   6.117   1.812 -0.8752  0.3644  0.0314
  443MOL0     C61003   8.293   6.093   1.705 -0.4481 -0.2946 -0.4269
  443MOL0     O61004   8.231   6.195   1.639 -0.6101  0.2713  0.0697
  443MOL0     C61005   8.220   6.326   1.710  0.0616 -0.5812  0.3744
  443MOL0     C61006   8.114   6.406   1.635 -0.4615  0.0492  0.5258
  443MOL0     C61007   7.978   6.343   1.680 -0.5064  0.7264 -0.1781
  443MOL0     C61008   7.855   6.405   1.613  0.8625 -0.2948 -0.0987
  443MOL0     C61009   7.784   6.518   1.690 -0.9754  0.1987 -0.2292
  443MOL0     C61010   7.737   6.487   1.839 -0.3725  0.0713  0.0566
  443MOL0     C61011   7.652   6.359   1.841  0.1255 -0.9586  0.4526
  443MOL0     C61012   7.589   6.344   1.973  0.5401 -0.0639  0.7994
  443MOL0     N61013   7.527   6.210   1.999  0.3104  0.0791 -0.7529
  443MOL0     C61014   7.439   6.136   1.921 -0.5826  0.4968  0.0572
  443MOL0     C61015   7.408   6.027   1.996 -0.3640 -1.2926 -0.9940
  443MOL0     C61016   7.284   5.949   1.992  0.4831 -0.5607  0.0440
  443MOL0     C61017   7.303   5.830   1.900 -0.0801 -0.3889 -0.3535
  443MOL0     C61018   7.390   5.727   1.976  0.1658  0.0747  0.6932
  443MOL0     C61019   7.409   5.611   1.877  0.3364 -1.1366  0.7971
  443MOL0     O61020   7.297   5.582   1.792 -0.0637 -0.1656 -1.0126
  443MOL0     C61021   7.272   5.449   1.743 -0.4823 -0.1746 -0.6211
  443MOL0     C61022   7.336   5.336   1.772  0.2788 -0.0130 -0.6929
  443MOL0     C61023   7.301   5.207   1.711  0.1632 -0.3422 -0.1288
  443MOL0     C61024   7.378   5.089   1.760 -0.4078  0.6144  0.2565
  443MOL0     C61025   7.187   5.206   1.620  0.0736 -0.9855 -1.5118
  443MOL0     C61026   7.135   5.084   1.554 -0.0864  0.7711  0.2893
  443MOL0     O61027   7.006   5.085   1.534  0.2627 -0.1088 -0.6256
  443MOL0     C61028   6.949   4.980   1.482  0.2410  0.7486  0.3142
  443MOL0     C61029   6.920   4.972   1.346 -0.1975  0.4051 -1.2719
  443MOL0     C61030   6.854   4.862   1.286  0.5227 -0.1164 -0.2015
  443MOL0     C61031   6.815   4.751   1.363 -0.7788  0.2484  0.1846
  443MOL0     O61032   6.771   4.631   1.318  0.0208  0.7325 -0.1782
  443MOL0     C61033   6.650   4.636   1.240  0.2424 -0.5729 -0.6297
  443MOL0     C61034   6.610   4.486   1.245  0.5513  0.9501 -0.6257
  443MOL0     C61035   6.554   4.451   1.375 -0.5773  0.1119 -1.0511
  443MOL0     C61036   6.626   4.344   1.455 -0.7670 -0.4143  0.5733
  443MOL0     C61037   6.567   4.298   1.581  0.9916  0.0096  0.5270
  443MOL0     C61038   6.455   4.192   1.564  0.6539  0.1901 -0.7198
  443MOL0     C61039   6.433   4.114   1.696  1.0604 -0.2440  0.7119
  443MOL0     C61040   6.304   4.030   1.698  0.1650 -0.6629 -0.8105
  443MOL0    Cl61041   6.192   4.149   1.738 -0.4260 -0.1306  0.1610
  443MOL0     C61042   6.862   4.753   1.493 -0.1872  0.7126  0.2270
  443MOL0     C61043   6.919   4.862   1.561  0.3058  0.4817 -0.0061
  443MOL0     O61044   7.220   5.006   1.509  0.3533 -0.1139 -0.4641
  443MOL0     C61045   7.136   5.326   1.580 -0.7333 -0.0928 -0.5057
  443MOL0     C61046   7.165   5.447   1.650 -0.2710 -0.3871  0.0962
  443MOL0     N61047   7.488   6.030   2.104  0.6161  0.1515 -0.0723
  443MOL0     N61048   7.558   6.132   2.108 -0.1046  0.6055  0.1672
  443MOL0     C61049   8.256   5.968   1.680  0.5691  1.0158  0.6381
  443MOL0     C61050   8.325   5.855   1.736 -0.2594 -0.0651  0.0191
  443MOL0     C61051   8.507   5.575   2.039  0.2138  0.5591 -0.8411
  443MOL0     C61052   8.573   5.492   1.954  0.3400 -0.1267  0.4651
  443MOL0     C61053   8.646   5.382   1.990  0.9582  1.6430 -0.5146
  443MOL0     C61054   8.649   5.341   2.123  0.6251  0.5047 -0.2005
  443MOL0     O61055   8.710   5.227   2.170 -0.0990  0.0018 -0.9340
  443MOL0     C61056   8.848   5.219   2.141  0.0309 -0.0330  0.9572
  443MOL0     C61057   8.927   5.282   2.257 -0.7730  0.1367  0.5265
  443MOL0     C61058   8.920   5.210   2.394  0.0870  0.3863  0.7436
  443MOL0     C61059   8.886   5.062   2.386 -0.1156 -0.1759  0.7797
  443MOL0     C61060   8.869   5.013   2.525 -0.3903 -0.8254 -0.3174
  443MOL0     C61061   8.882   4.960   2.638  0.5445 -0.4811  0.3341
  443MOL0     C61062   8.586   5.430   2.215  0.4453  0.7693  1.2346
  443MOL0     C61063   8.515   5.547   2.183 -0.9900 -0.4303  0.6199
  443MOL0     C61064   8.465   5.642   2.294  0.1669 -0.1081  0.2793
  443MOL0     H61065   8.520   6.016   1.955 -1.4611  0.6252  0.7845
  443MOL0     H61066   8.424   6.217   1.836 -0.3265  0.6586 -1.8330
  443MOL0     H61067   8.315   6.379   1.697  1.4656 -3.2850 -1.3709
  443MOL0     H61068   8.199   6.310   1.816 -0.7058  1.8584  0.6619
  443MOL0     H61069   8.113   6.511   1.663 -2.4503 -0.3993  2.4110
  443MOL0     H61070   8.136   6.400   1.528 -1.4401  1.3194  0.2326
  443MOL0     H61071   7.983   6.240   1.643 -2.4459  1.3334 -2.3649
  443MOL0     H61072   7.974   6.333   1.789  0.6776 -1.5126 -0.2725
  443MOL0     H61073   7.887   6.436   1.513  1.6862 -2.6720 -0.6380
  443MOL0     H61074   7.783   6.328   1.585  2.0602 -2.4254  2.2843
  443MOL0     H61075   7.701   6.543   1.623  0.0001 -1.9966 -2.4053
  443MOL0     H61076   7.847   6.608   1.690  2.6785 -2.1096 -2.3093
  443MOL0     H61077   7.819   6.478   1.912 -0.5491 -0.5987  0.1747
  443MOL0     H61078   7.688   6.577   1.877  2.6041  1.2876  1.3828
  443MOL0     H61079   7.713   6.269   1.848 -0.6658 -1.3688  3.9065
  443MOL0     H61080   7.585   6.368   1.756  1.4676 -1.0590 -0.6596
  443MOL0     H61081   7.654   6.371   2.058 -3.1301  0.5510  3.6673
  443MOL0     H61082   7.500   6.407   1.979  1.4857  1.5980 -1.3519
  443MOL0     H61083   7.390   6.170   1.831 -0.1362 -3.9670 -2.1468
  443MOL0     H61084   7.197   6.014   1.979  1.3357  1.2678  2.5546
  443MOL0     H61085   7.255   5.917   2.093  1.1706  0.7200  0.6844
  443MOL0     H61086   7.203   5.793   1.877 -0.7852 -0.8003  2.8767
  443MOL0     H61087   7.359   5.852   1.809  2.9273 -1.2023  1.1805
  443MOL0     H61088   7.489   5.753   2.014  1.2874 -1.6707 -0.8927
  443MOL0     H61089   7.328   5.700   2.062 -2.3902  0.5879 -0.8757
  443MOL0     H61090   7.491   5.631   1.807 -0.1104 -2.2262 -0.0632
  443MOL0     H61091   7.442   5.527   1.939  1.8411 -1.5350 -0.4963
  443MOL0     H61092   7.410   5.342   1.852  1.6892  0.1206 -1.9526
  443MOL0     H61093   7.335   5.058   1.856 -2.3309  0.7617 -0.5106
  443MOL0     H61094   7.484   5.114   1.751  0.4493 -2.7639 -0.2696
  443MOL0     H61095   7.360   4.998   1.702 -0.5490  1.4937 -1.1248
  443MOL0     H61096   6.939   5.056   1.280  2.2430  0.9927  0.0769
  443MOL0     H61097   6.834   4.853   1.180  1.3418  3.5199 -0.7776
  443MOL0     H61098   6.580   4.707   1.285  1.5740  0.5368 -0.2280
  443MOL0     H61099   6.671   4.662   1.136 -0.1806  0.5245 -0.4530
  443MOL0     H61100   6.534   4.481   1.166  1.2717  0.2475 -1.2886
  443MOL0     H61101   6.690   4.421   1.209 -0.4338 -0.3666 -0.5403
  443MOL0     H61102   6.451   4.424   1.352 -1.0616  2.3744 -1.7896
  443MOL0     H61103   6.546   4.542   1.436  0.8175 -1.4452  1.6437
  443MOL0     H61104   6.723   4.383   1.489 -1.1977  0.1974  1.1178
  443MOL0     H61105   6.641   4.257   1.392 -1.3635 -0.6635  0.7679
  443MOL0     H61106   6.650   4.254   1.637  0.9301 -1.9189 -0.8228
  443MOL0     H61107   6.535   4.385   1.640  1.7218 -1.1279  2.7323
  443MOL0     H61108   6.476   4.111   1.493  0.6191 -0.1162 -0.3865
  443MOL0     H61109   6.365   4.238   1.523  1.4279 -0.6153 -3.4856
  443MOL0     H61110   6.425   4.184   1.780  1.9032 -0.5998  1.0958
  443MOL0     H61111   6.519   4.047   1.699  0.1445 -1.5259 -0.3955
  443MOL0     H61112   6.297   3.941   1.761 -0.3799 -1.7069 -2.2938
  443MOL0     H61113   6.282   3.993   1.598  1.7671  3.5242 -2.9384
  443MOL0     H61114   6.845   4.661   1.549  0.9638 -0.7871 -1.7473
  443MOL0     H61115   6.944   4.828   1.661 -1.7289 -3.8213 -0.7252
  443MOL0     H61116   7.057   5.333   1.506  0.1438  0.7749 -1.3791
  443MOL0     H61117   7.118   5.541   1.624  1.4241  0.1456 -1.2867
  443MOL0     H61118   8.170   5.962   1.614  1.0641  0.2362  0.0351
  443MOL0     H61119   8.307   5.749   1.718 -2.1151 -0.0957  1.7354
  443MOL0     H61120   8.550   5.508   1.849  1.3277 -3.1574 -0.3276
  443MOL0     H61121   8.678   5.322   1.906  0.5251  2.2577 -1.1311
  443MOL0     H61122   8.882   5.115   2.132 -1.5138 -0.5225  0.3470
  443MOL0     H61123   8.878   5.258   2.043 -1.1873  0.6044  0.8122
  443MOL0     H61124   8.893   5.386   2.255  0.6132  0.6253  0.9524
  443MOL0     H61125   9.032   5.275   2.227 -1.0738 -1.3917 -0.2626
  443MOL0     H61126   9.013   5.215   2.451  1.6216 -0.5069 -1.5520
  443MOL0     H61127   8.839   5.257   2.452 -0.4807  1.5679 -0.9142
  443MOL0     H61128   8.956   5.008   2.322  1.4392  0.4437  1.8924
  443MOL0     H61129   8.788   5.057   2.337  0.8271 -1.6269 -1.1011
  443MOL0     H61130   8.870   4.919   2.736 -0.3330 -1.4170 -0.1499
  443MOL0     H61131   8.605   5.399   2.318 -0.1501 -1.1643  0.8171
  443MOL0     H61132   8.544   5.662   2.368 -1.3376  1.0787  1.6185
  443MOL0     H61133   8.448   5.742   2.253  0.9164 -1.4959 -3.9564
  443MOL0     H61134   8.374   5.607   2.342  0.3594 -0.2271  0.5587
  444MOL0     O61135   7.865   2.690   5.420 -0.2175 -0.0588  0.0240
  444MOL0     C61136   7.807   2.605   5.347  0.1468  0.0554 -0.1061
  444MOL0     O61137   7.816   2.596   5.209  0.5533 -0.1236  0.0185
  444MOL0     C61138   7.843   2.714   5.144 -0.5177  0.7168  0.4455
  444MOL0     C61139   7.974   2.741   5.097  0.1084  0.5486  0.7746
  444MOL0     C61140   8.004   2.862   5.038  0.4591  0.2982  0.3576
  444MOL0     C61141   7.904   2.955   5.012  0.6099 -0.6995 -0.0999
  444MOL0     O61142   7.951   3.059   4.945 -0.3916 -0.3881 -0.2147
  444MOL0     C61143   7.870   3.173   4.930  0.0556 -0.2259 -0.3354
  444MOL0     C61144   7.951   3.286   4.882  0.2926  1.2629 -0.9658
  444MOL0     C61145   7.862   3.409   4.874 -0.2376 -0.1566 -0.9534
  444MOL0     C61146   7.943   3.535   4.850 -0.1175  0.0925 -0.7292
  444MOL0     C61147   7.849   3.654   4.845 -0.3019 -0.3318  0.4825
  444MOL0     C61148   7.941   3.784   4.832  0.5153 -0.2704  0.5669
  444MOL0     C61149   7.867   3.914   4.861 -0.9251 -0.4431  0.3362
  444MOL0     C61150   7.896   4.029   4.772 -0.2862  0.7601  0.4419
  444MOL0     N61151   7.850   4.156   4.810  0.2319 -0.0971  0.2088
  444MOL0     C61152   7.724   4.205   4.803  0.7023 -0.1599 -1.0798
  444MOL0     C61153   7.751   4.341   4.814  1.3617  0.8768  0.0046
  444MOL0     C61154   7.649   4.452   4.788 -0.8443  0.4979 -0.4390
  444MOL0     C61155   7.671   4.563   4.885  0.3247 -1.1176 -1.3221
  444MOL0     C61156   7.547   4.654   4.916  0.3732  0.3513 -1.0589
  444MOL0     C61157   7.451   4.651   4.803  0.2559 -0.6858  0.1914
  444MOL0     O61158   7.359   4.760   4.829  0.6720 -0.5537  0.2551
  444MOL0     C61159   7.284   4.767   4.945  0.8704  0.4384  0.0570
  444MOL0     C61160   7.170   4.688   4.957 -0.0783 -0.5841 -0.6014
  444MOL0     C61161   7.101   4.688   5.079  0.5026 -0.2233 -0.6124
  444MOL0     C61162   6.992   4.599   5.089  0.8469  0.4097 -0.6873
  444MOL0     C61163   7.134   4.783   5.179  0.1038  0.4246 -0.4298
  444MOL0     C61164   7.039   4.823   5.292  0.7998 -0.6381 -0.1912
  444MOL0     O61165   7.079   4.905   5.391  0.2702 -0.2212  0.4764
  444MOL0     C61166   6.990   4.937   5.489  0.1306  0.7627 -0.3835
  444MOL0     C61167   6.963   4.849   5.598  0.0177  0.1019  0.3459
  444MOL0     C61168   6.849   4.882   5.685 -0.6337  0.4518  0.0929
  444MOL0     C61169   6.768   5.002   5.667 -1.3976  0.5548  1.0470
  444MOL0     O61170   6.672   5.028   5.758 -0.8517 -0.3802  0.6055
  444MOL0     C61171   6.658   5.165   5.800 -0.3408  0.7828  0.7871
  444MOL0     C61172   6.729   5.182   5.933  0.2821 -0.5972  0.6162
  444MOL0     C61173   6.884   5.154   5.917 -0.1939  0.6341  0.4246
  444MOL0     C61174   6.947   5.162   6.059 -0.6687  0.0301  0.9094
  444MOL0     C61175   7.097   5.115   6.059  0.1923  0.3427  0.3077
  444MOL0     C61176   7.115   4.963   6.014  0.1036  0.0821  0.1166
  444MOL0     C61177   7.254   4.899   6.013 -0.2983 -0.5369  0.5751
  444MOL0     C61178   7.255   4.753   6.025 -1.3771  0.4127 -0.0485
  444MOL0    Cl61179   7.173   4.669   5.888  0.5370  0.1970 -0.0300
  444MOL0     C61180   6.795   5.083   5.554  0.6711  0.1458  0.1157
  444MOL0     C61181   6.908   5.051   5.479  0.1473 -0.0572  0.0586
  444MOL0     O61182   6.944   4.751   5.306  0.2879 -0.4575  0.0912
  444MOL0     C61183   7.259   4.858   5.162 -0.2020  0.2488 -0.1319
  444MOL0     C61184   7.329   4.853   5.044 -0.0018 -0.1187 -1.0249
  444MOL0     N61185   7.894   4.364   4.844  0.2371  0.3649 -0.3757
  444MOL0     N61186   7.942   4.246   4.857  0.3161 -0.7460 -0.0981
  444MOL0     C61187   7.776   2.928   5.051  0.4956 -0.0702 -0.8766
  444MOL0     C61188   7.745   2.810   5.121  0.3173 -0.0936  0.3436
  444MOL0     C61189   7.750   2.490   5.429  0.2000  0.2145  0.3480
  444MOL0     C61190   7.687   2.387   5.353 -0.1000  0.2431 -0.4290
  444MOL0     C61191   7.619   2.281   5.424 -1.1039 -0.6676  0.2533
  444MOL0     C61192   7.619   2.276   5.567  0.4872  0.6018  0.4430
  444MOL0     O61193   7.584   2.159   5.629 -0.2158 -0.5232 -0.2457
  444MOL0     C61194   7.616   2.128   5.764  0.5033  0.6241  0.3562
  444MOL0     C61195   7.506   2.185   5.849  0.3123 -0.2937  0.0699
  444MOL0     C61196   7.543   2.169   6.000 -0.2282 -0.0262 -0.1367
  444MOL0     C61197   7.401   2.173   6.077  0.5594  0.1449  0.2402
  444MOL0     C61198   7.300   2.071   6.071  0.0900 -0.3237  0.6318
  444MOL0     C61199   7.208   1.985   6.067 -0.3070  0.1485  0.1381
  444MOL0     C61200   7.677   2.379   5.636  0.5287 -0.5105 -0.5344
  444MOL0     C61201   7.740   2.484   5.571 -0.9104  0.2296 -0.5284
  444MOL0     C61202   7.795   2.587   5.664 -0.1147 -1.0864 -0.2664
  444MOL0     H61203   8.058   2.678   5.124 -0.5437  0.5144  2.9581
  444MOL0     H61204   8.107   2.880   5.012  0.4527  0.1859  0.2558
  444MOL0     H61205   7.832   3.190   5.031 -0.1538  0.1654 -0.4780
  444MOL0     H61206   7.781   3.154   4.868 -0.2834 -0.2458  0.1552
  444MOL0     H61207   8.025   3.301   4.962 -1.2259 -1.3346  1.1121
  444MOL0     H61208   7.996   3.244   4.792 -2.0797 -0.3271 -1.5218
  444MOL0     H61209   7.783   3.397   4.800 -2.5056  1.4745  1.0727
  444MOL0     H61210   7.812   3.430   4.968 -2.6868  3.0855 -2.7835
  444MOL0     H61211   8.009   3.549   4.936 -2.1169  1.1317  0.6980
  444MOL0     H61212   8.003   3.532   4.758  1.4110 -1.5652  0.2543
  444MOL0     H61213   7.791   3.667   4.937 -0.4426  2.1506  0.0998
  444MOL0     H61214   7.772   3.651   4.768 -1.3563  0.4072  1.4592
  444MOL0     H61215   8.033   3.782   4.892  2.8092 -2.6081 -2.6898
  444MOL0     H61216   7.973   3.781   4.728  1.0315  0.8514  0.6782
  444MOL0     H61217   7.904   3.942   4.960 -0.0657 -1.9893  0.4732
  444MOL0     H61218   7.761   3.892   4.847 -1.8751  2.7309  1.5028
  444MOL0     H61219   8.004   4.041   4.756 -0.4862  3.9140  0.9097
  444MOL0     H61220   7.858   4.021   4.670 -5.2512 -0.7201  2.1323
  444MOL0     H61221   7.630   4.155   4.781  0.2062  0.7067 -0.9960
  444MOL0     H61222   7.546   4.415   4.783  0.0505 -2.0350 -4.0031
  444MOL0     H61223   7.659   4.505   4.693 -1.4121 -0.5704 -1.1169
  444MOL0     H61224   7.707   4.524   4.981 -1.7918 -0.0760 -0.0328
  444MOL0     H61225   7.748   4.635   4.855 -1.0550  1.0424  0.0360
  444MOL0     H61226   7.503   4.623   5.010  1.2347 -1.2173 -1.1417
  444MOL0     H61227   7.583   4.756   4.932  2.2815 -0.4383 -0.0060
  444MOL0     H61228   7.492   4.670   4.703  0.7068 -1.6615  0.1840
  444MOL0     H61229   7.404   4.553   4.800  1.9602 -1.5989 -4.3390
  444MOL0     H61230   7.133   4.619   4.882  0.1515 -1.0093 -0.3291
  444MOL0     H61231   6.900   4.656   5.073 -0.1925 -0.3677  1.9091
  444MOL0     H61232   6.983   4.557   5.190 -0.2955  0.7571 -0.6333
  444MOL0     H61233   6.997   4.519   5.016 -0.8077  1.0817 -1.5870
  444MOL0     H61234   7.031   4.768   5.622  1.7200  2.0720  2.6510
  444MOL0     H61235   6.818   4.811   5.762  0.2835 -0.3775 -0.2771
  444MOL0     H61236   6.699   5.235   5.727 -0.2450 -3.5584 -3.8463
  444MOL0     H61237   6.550   5.176   5.809 -1.1118 -3.5016 -1.0004
  444MOL0     H61238   6.711   5.280   5.977  0.3990  0.3998 -1.4713
  444MOL0     H61239   6.685   5.116   6.009  0.6501  0.6386  1.9452
  444MOL0     H61240   6.923   5.235   5.854 -1.0541  0.6542 -0.1002
  444MOL0     H61241   6.907   5.063   5.861  3.4876 -0.3342  3.1671
  444MOL0     H61242   6.897   5.095   6.129 -0.9496 -0.9115 -0.1613
  444MOL0     H61243   6.935   5.266   6.092  0.5349 -0.1069  1.8481
  444MOL0     H61244   7.154   5.175   5.987  0.5165 -1.4575 -0.9872
  444MOL0     H61245   7.143   5.121   6.158  3.3786  1.2716 -1.0655
  444MOL0     H61246   7.070   4.955   5.914  0.2717 -0.2167  0.0641
  444MOL0     H61247   7.066   4.896   6.085  1.6271 -0.1121  1.0236
  444MOL0     H61248   7.313   4.943   6.095 -1.7305  2.4911  0.1313
  444MOL0     H61249   7.307   4.935   5.925  0.1984 -1.0778  0.6483
  444MOL0     H61250   7.217   4.726   6.125 -1.7881 -0.3576 -0.3994
  444MOL0     H61251   7.357   4.715   6.030 -1.7718 -0.5234  2.3465
  444MOL0     H61252   6.727   5.161   5.522  0.5241 -0.5973 -1.4798
  444MOL0     H61253   6.928   5.112   5.392  0.9611 -0.1619  0.1612
  444MOL0     H61254   7.300   4.924   5.238  3.3624 -0.4739 -1.2430
  444MOL0     H61255   7.420   4.913   5.038 -1.1278  2.3801  3.1229
  444MOL0     H61256   7.692   2.995   5.036  0.8455  1.1313  1.9966
  444MOL0     H61257   7.645   2.788   5.157 -0.0667 -1.3845 -1.3835
  444MOL0     H61258   7.699   2.382   5.245 -0.0259 -1.0601 -0.3689
  444MOL0     H61259   7.582   2.191   5.375 -4.3304 -0.2474  1.6610
  444MOL0     H61260   7.615   2.019   5.779  1.6255  0.5476 -0.0461
  444MOL0     H61261   7.714   2.163   5.798  2.0113 -3.1224  0.3670
  444MOL0     H61262   7.417   2.128   5.820 -0.4982  0.9332  0.0676
  444MOL0     H61263   7.461   2.283   5.836 -4.0779 -2.0777  0.0617
  444MOL0     H61264   7.601   2.077   6.013 -0.7086 -0.4013 -0.6292
  444MOL0     H61265   7.600   2.262   6.009  1.5091 -1.0757  0.1438
  444MOL0     H61266   7.346   2.264   6.048 -2.3491 -2.2943 -2.6369
  444MOL0     H61267   7.431   2.195   6.179  0.1809  1.9843 -0.0056
  444MOL0     H61268   7.138   1.904   6.057  1.2513 -1.1294 -0.9595
  444MOL0     H61269   7.683   2.368   5.744  1.1638 -1.3811 -0.6505
  444MOL0     H61270   7.905   2.586   5.659  0.0655 -3.7785  1.8953
  444MOL0     H61271   7.769   2.685   5.623  1.8597  1.2343  3.4120
  444MOL0     H61272   7.761   2.579   5.767 -2.4115 -1.2613 -0.9955
  445MOL0     O61273   9.521   1.871   8.202 -0.7004 -0.3474  0.4140
  445MOL0     C61274   9.553   1.793   8.296  0.4303 -0.5625  0.9211
  445MOL0     O61275   9.543   1.659   8.281 -0.6556 -0.2076  0.7385
  445MOL0     C61276   9.499   1.598   8.171  0.5889  0.9236  0.5757
  445MOL0     C61277   9.572   1.603   8.050 -1.2149 -0.1839  0.2301
  445MOL0     C61278   9.536   1.519   7.938 -1.2278 -0.1182  0.1895
  445MOL0     C61279   9.412   1.457   7.946 -0.5378 -0.2424 -0.4761
  445MOL0     O61280   9.372   1.359   7.862  0.2278 -0.3412  0.6209
  445MOL0     C61281   9.446   1.320   7.747  0.6667 -0.3037 -0.6166
  445MOL0     C61282   9.362   1.246   7.647 -0.0406 -0.0478  0.0689
  445MOL0     C61283   9.402   1.269   7.497  0.2143  0.1124 -0.3870
  445MOL0     C61284   9.366   1.412   7.446 -0.2579 -0.7683  0.0786
  445MOL0     C61285   9.214   1.435   7.424  0.0915  0.4080  1.1515
  445MOL0     C61286   9.169   1.368   7.296 -0.1230  0.3708 -0.3986
  445MOL0     C61287   9.016   1.407   7.260  0.4766 -0.6406  0.0975
  445MOL0     C61288   8.917   1.334   7.345  0.0404  0.1182  0.1615
  445MOL0     N61289   8.781   1.377   7.314 -0.2004  0.0164 -0.0787
  445MOL0     C61290   8.717   1.387   7.189  0.3910 -0.4537  0.2531
  445MOL0     C61291   8.579   1.397   7.213  0.3480 -0.0435  0.7823
  445MOL0     C61292   8.469   1.387   7.116  0.5186 -0.3725  0.2014
  445MOL0     C61293   8.396   1.249   7.123 -0.6981  0.3956  0.4032
  445MOL0     C61294   8.272   1.251   7.024  0.0409 -0.3351  0.0305
  445MOL0     C61295   8.198   1.120   7.042  0.3588  0.6488 -0.8041
  445MOL0     O61296   8.071   1.133   6.976 -0.3734  0.6232 -0.2349
  445MOL0     C61297   7.961   1.186   7.038 -0.6614 -0.5005 -0.5903
  445MOL0     C61298   7.842   1.175   6.967 -0.6269 -0.3620 -0.6795
  445MOL0     C61299   7.725   1.226   7.034  0.1128 -0.2379  0.2684
  445MOL0     C61300   7.600   1.217   6.960  0.3671  0.6095 -1.0689
  445MOL0     C61301   7.730   1.292   7.160 -0.6796  0.1107 -0.1624
  445MOL0     C61302   7.605   1.351   7.213 -0.0657 -0.4457 -0.5448
  445MOL0     O61303   7.631   1.480   7.247  0.3024  0.3316  0.2265
  445MOL0     C61304   7.531   1.543   7.326 -0.6678 -0.2190  0.5003
  445MOL0     C61305   7.419   1.612   7.278  0.9951 -0.3258  0.5007
  445MOL0     C61306   7.332   1.682   7.368  0.2419  0.9031 -0.1188
  445MOL0     C61307   7.349   1.682   7.503 -0.2969  0.0434 -0.5221
  445MOL0     O61308   7.280   1.756   7.593 -0.0175 -0.5149 -0.4734
  445MOL0     C61309   7.149   1.809   7.558 -0.4133  0.2343  0.3217
  445MOL0     C61310   7.100   1.904   7.662  0.0733  0.1932 -0.4669
  445MOL0     C61311   7.196   2.011   7.705  0.5296  0.2614 -0.4526
  445MOL0     C61312   7.133   2.114   7.811 -0.9468  0.2880 -1.1126
  445MOL0     C61313   7.258   2.207   7.855  0.1815  0.1924 -0.3885
  445MOL0     C61314   7.216   2.285   7.980 -0.1618 -0.5426 -0.9787
  445MOL0     C61315   7.306   2.412   7.999  0.9581 -0.3686  0.1513
  445MOL0     C61316   7.258   2.513   8.100 -0.0057  0.3840  0.2178
  445MOL0    Cl61317   7.372   2.655   8.097  0.1411 -0.2223 -0.2482
  445MOL0     C61318   7.468   1.617   7.546  0.4784 -0.3899  0.6079
  445MOL0     C61319   7.553   1.542   7.466 -1.0461  0.0001 -0.2775
  445MOL0     O61320   7.507   1.282   7.238 -0.1739 -0.2900  0.4583
  445MOL0     C61321   7.851   1.305   7.227  0.0197 -0.2165  0.0698
  445MOL0     C61322   7.961   1.252   7.161 -0.1246 -0.0634  0.8531
  445MOL0     N61323   8.573   1.410   7.350 -0.4924 -0.0912 -0.0049
  445MOL0     N61324   8.691   1.389   7.410  0.9773  0.2342  0.0250
  445MOL0     C61325   9.327   1.468   8.060 -0.3407  0.3328  0.1241
  445MOL0     C61326   9.379   1.531   8.172 -0.0207 -0.3757 -0.3836
  445MOL0     C61327   9.604   1.845   8.423 -0.9699 -0.1380 -0.2754
  445MOL0     C61328   9.597   1.985   8.445 -0.2383  0.2540 -0.4264
  445MOL0     C61329   9.647   2.050   8.562  0.2785 -0.1785 -0.3946
  445MOL0     C61330   9.706   1.977   8.659 -0.3361 -0.4311 -0.6312
  445MOL0     O61331   9.747   2.025   8.782 -0.0992 -0.6307  0.4253
  445MOL0     C61332   9.698   2.157   8.828 -0.8038 -0.8169 -0.0832
  445MOL0     C61333   9.548   2.147   8.851  0.1675  0.7891 -0.3898
  445MOL0     C61334   9.528   2.065   8.981 -0.5754  0.4966  0.5857
  445MOL0     C61335   9.383   2.027   9.004 -0.1950 -0.1154  0.2586
  445MOL0     C61336   9.309   2.145   9.045  0.2059  0.9156 -0.0218
  445MOL0     C61337   9.243   2.240   9.056 -0.0605 -0.3067 -0.5238
  445MOL0     C61338   9.731   1.837   8.634  0.7847 -0.1675 -0.1553
  445MOL0     C61339   9.665   1.771   8.529 -1.7047  0.1526 -0.9453
  445MOL0     C61340   9.688   1.619   8.527  0.1309 -0.9537  0.1096
  445MOL0     H61341   9.668   1.654   8.050 -0.5528 -1.2681  2.6306
  445MOL0     H61342   9.610   1.520   7.859 -2.2181 -3.5671 -0.9998
  445MOL0     H61343   9.531   1.256   7.771 -0.5415 -1.4219  0.8871
  445MOL0     H61344   9.469   1.413   7.695 -0.1654  0.5113  0.4376
  445MOL0     H61345   9.372   1.138   7.658  1.6437 -0.1155 -1.5829
  445MOL0     H61346   9.259   1.269   7.674 -0.9891 -2.4656 -1.1637
  445MOL0     H61347   9.510   1.263   7.487  0.0139 -3.5814 -1.8659
  445MOL0     H61348   9.368   1.181   7.442  0.7666 -0.2608 -0.1337
  445MOL0     H61349   9.388   1.487   7.523 -0.3860  0.1402 -0.7599
  445MOL0     H61350   9.422   1.439   7.357 -1.1501  1.8458  0.2306
  445MOL0     H61351   9.179   1.538   7.434  0.0745  0.4660  0.5139
  445MOL0     H61352   9.162   1.389   7.509 -0.9046 -0.1294  0.2691
  445MOL0     H61353   9.236   1.390   7.212  1.2636 -1.5454  0.1602
  445MOL0     H61354   9.175   1.259   7.300  0.1483  0.4289  1.6171
  445MOL0     H61355   9.000   1.380   7.155  2.3309  0.1639 -0.4302
  445MOL0     H61356   9.002   1.513   7.281  0.8389 -0.7931  1.1532
  445MOL0     H61357   8.920   1.225   7.334 -1.8319  0.3386 -4.8234
  445MOL0     H61358   8.924   1.360   7.451 -2.4270 -1.4306  0.7797
  445MOL0     H61359   8.777   1.362   7.102  1.5964  0.3436  0.8226
  445MOL0     H61360   8.504   1.423   7.019  0.7074 -0.8766  0.0816
  445MOL0     H61361   8.388   1.451   7.152  1.2628 -0.1629  1.5911
  445MOL0     H61362   8.457   1.163   7.093  2.1507  1.2499  3.2299
  445MOL0     H61363   8.368   1.225   7.226 -2.4049  1.1515  0.1516
  445MOL0     H61364   8.204   1.332   7.051 -1.0393 -1.8335  2.0199
  445MOL0     H61365   8.295   1.256   6.917  0.2669 -2.2038 -0.0476
  445MOL0     H61366   8.250   1.033   7.002 -2.8985 -1.3383 -1.0695
  445MOL0     H61367   8.184   1.100   7.149 -3.4213 -0.3250 -1.3301
  445MOL0     H61368   7.832   1.124   6.872 -0.7131 -0.6444 -0.5216
  445MOL0     H61369   7.540   1.307   6.977  1.7910  1.7684 -2.0166
  445MOL0     H61370   7.549   1.125   6.992 -1.7882  0.8271 -3.5458
  445MOL0     H61371   7.620   1.218   6.853  0.2179  4.2271 -1.1765
  445MOL0     H61372   7.382   1.607   7.177 -2.7993 -3.1289  1.8126
  445MOL0     H61373   7.245   1.723   7.319  0.5801 -0.6719 -2.1937
  445MOL0     H61374   7.173   1.865   7.468  0.8978  0.3389  0.7113
  445MOL0     H61375   7.079   1.725   7.549 -2.0112  1.5156  0.3153
  445MOL0     H61376   7.007   1.939   7.617 -0.9651  0.1114  1.5169
  445MOL0     H61377   7.077   1.839   7.746  4.4823  0.7946  1.4892
  445MOL0     H61378   7.218   2.073   7.617 -1.1364  0.9175 -0.4442
  445MOL0     H61379   7.287   1.966   7.745  1.1210  0.6047 -1.3878
  445MOL0     H61380   7.084   2.073   7.899 -3.4146  3.5590 -0.8017
  445MOL0     H61381   7.056   2.178   7.767 -2.9081  0.1799  1.8993
  445MOL0     H61382   7.346   2.148   7.884 -1.0355 -1.9224 -0.8177
  445MOL0     H61383   7.282   2.283   7.780  2.0483  1.0679  1.0074
  445MOL0     H61384   7.216   2.206   8.056 -1.8058  0.1356 -0.2202
  445MOL0     H61385   7.113   2.321   7.980  0.4309  1.6479  2.5065
  445MOL0     H61386   7.290   2.465   7.904  1.1138  0.0517  0.3621
  445MOL0     H61387   7.410   2.389   8.025  2.2116  2.0092 -2.2496
  445MOL0     H61388   7.251   2.485   8.206 -1.5578  0.7842  0.2437
  445MOL0     H61389   7.159   2.546   8.068  1.3490  3.5502 -1.0886
  445MOL0     H61390   7.482   1.617   7.654  3.1095 -1.2546  0.3263
  445MOL0     H61391   7.645   1.498   7.504 -2.6177 -2.3665  1.0261
  445MOL0     H61392   7.864   1.350   7.325 -0.0938 -1.0937  0.4974
  445MOL0     H61393   8.055   1.258   7.216  1.1740  2.4820 -1.3727
  445MOL0     H61394   9.240   1.403   8.056 -1.0085  1.2593 -1.6745
  445MOL0     H61395   9.327   1.523   8.267  0.9279 -3.8955 -0.0265
  445MOL0     H61396   9.558   2.044   8.362 -1.6283 -0.7984 -0.5533
  445MOL0     H61397   9.638   2.158   8.561  1.7392 -0.0300 -1.5582
  445MOL0     H61398   9.751   2.180   8.921 -2.6044  1.0405  0.5563
  445MOL0     H61399   9.733   2.227   8.752  3.2306 -0.5713  1.7685
  445MOL0     H61400   9.491   2.088   8.778 -0.1995 -1.0308  1.2948
  445MOL0     H61401   9.506   2.244   8.876 -1.6154 -0.4415  1.7092
  445MOL0     H61402   9.592   1.977   8.968  0.9629  1.7587 -0.9093
  445MOL0     H61403   9.552   2.117   9.074 -2.3650 -2.8272  3.1342
  445MOL0     H61404   9.378   1.950   9.082 -2.7228 -1.0036 -0.6971
  445MOL0     H61405   9.333   1.991   8.914  1.4450  1.4314 -1.3480
  445MOL0     H61406   9.177   2.325   9.057  1.3813  0.8557 -0.7271
  445MOL0     H61407   9.792   1.785   8.707 -1.7803 -1.9436  0.8733
  445MOL0     H61408   9.593   1.569   8.509  0.8693 -1.7428 -1.7980
  445MOL0     H61409   9.755   1.598   8.444  1.3982 -0.9606  1.1008
  445MOL0     H61410   9.737   1.582   8.618 -0.3793 -1.7651  0.0629
  446MOL0     O61411   2.724   6.750   5.074 -0.9479  0.2622  0.2587
  446MOL0     C61412   2.651   6.651   5.080 -0.0900 -0.3635  0.0864
  446MOL0     O61413   2.661   6.534   5.000 -0.2564  0.5685  0.6591
  446MOL0     C61414   2.738   6.535   4.883  0.5399  0.2694 -1.2215
  446MOL0     C61415   2.767   6.647   4.801 -0.2613  0.3687  0.0615
  446MOL0     C61416   2.834   6.621   4.679  0.0824 -0.3637 -0.5707
  446MOL0     C61417   2.884   6.498   4.650  0.7859  0.0668  0.2593
  446MOL0     O61418   2.932   6.494   4.522 -0.1819  0.3438 -1.1104
  446MOL0     C61419   2.955   6.361   4.462  1.3195 -0.7689 -0.4158
  446MOL0     C61420   2.832   6.280   4.428  0.3518  0.4655 -0.0762
  446MOL0     C61421   2.763   6.354   4.327  0.7349 -0.2258  1.5800
  446MOL0     C61422   2.785   6.311   4.182  0.8797  1.1037 -0.8744
  446MOL0     C61423   2.731   6.396   4.072  0.3654 -0.1742 -0.4360
  446MOL0     C61424   2.770   6.360   3.922  0.6879  0.3240  1.0035
  446MOL0     C61425   2.701   6.236   3.869 -0.2497  0.5270  0.0974
  446MOL0     C61426   2.729   6.216   3.717  0.8041 -0.4885 -0.0017
  446MOL0     N61427   2.680   6.086   3.670  0.4264 -0.1235 -0.9964
  446MOL0     C61428   2.768   5.984   3.627 -0.1065 -0.0381  0.3216
  446MOL0     C61429   2.695   5.920   3.531  0.9103 -0.0264  0.3846
  446MOL0     C61430   2.738   5.802   3.456 -1.1655 -0.7486 -0.3618
  446MOL0     C61431   2.777   5.860   3.316 -0.4682  0.3045  1.5655
  446MOL0     C61432   2.845   5.746   3.240 -0.6404  0.0046  0.2078
  446MOL0     C61433   2.886   5.787   3.090 -0.5536  0.1709  0.1700
  446MOL0     O61434   2.932   5.668   3.034 -0.5463  0.2604  0.1754
  446MOL0     C61435   2.889   5.643   2.909 -0.8011 -0.2639 -0.2763
  446MOL0     C61436   2.882   5.741   2.816  0.4361 -0.0669  0.1846
  446MOL0     C61437   2.838   5.708   2.687 -0.8275 -0.4611  0.6876
  446MOL0     C61438   2.840   5.828   2.595  0.5457  0.3378 -0.1041
  446MOL0     C61439   2.803   5.579   2.649 -0.4009  0.2803 -0.9845
  446MOL0     C61440   2.761   5.528   2.514  1.2222  0.6233 -0.8978
  446MOL0     O61441   2.784   5.602   2.406 -0.0804  0.5951  0.2886
  446MOL0     C61442   2.747   5.571   2.273  0.7915  0.1148 -0.2589
  446MOL0     C61443   2.835   5.625   2.175  0.7113  0.4456 -0.0732
  446MOL0     C61444   2.791   5.622   2.042  0.0179  0.6108  0.0252
  446MOL0     C61445   2.669   5.565   2.003 -0.0904 -0.1401 -0.3342
  446MOL0     O61446   2.612   5.574   1.877  0.5596 -0.8344 -0.1601
  446MOL0     C61447   2.681   5.594   1.758  0.2403 -0.0562 -0.4374
  446MOL0     C61448   2.594   5.557   1.634  0.3539 -0.7863  0.3087
  446MOL0     C61449   2.454   5.616   1.651 -0.3979  0.9468 -0.0377
  446MOL0     C61450   2.367   5.605   1.530 -0.4315  0.2665 -0.5718
  446MOL0     C61451   2.249   5.710   1.535  0.8828  0.0887 -0.2959
  446MOL0     C61452   2.141   5.667   1.429 -0.3252 -0.2791 -0.6046
  446MOL0     C61453   2.047   5.781   1.388  0.0664  0.0322 -0.1803
  446MOL0     C61454   2.061   5.818   1.238 -0.8031  0.4349 -0.2558
  446MOL0    Cl61455   2.233   5.837   1.168  0.1718  0.1529 -0.0493
  446MOL0     C61456   2.588   5.510   2.098 -0.3859  0.2897  0.7429
  446MOL0     C61457   2.624   5.518   2.235 -0.4831  0.5858  0.2993
  446MOL0     O61458   2.710   5.412   2.519 -0.4753 -0.1606 -0.1825
  446MOL0     C61459   2.821   5.481   2.747 -0.1067 -0.0939  0.4993
  446MOL0     C61460   2.868   5.514   2.872  0.2054 -0.0046 -0.5544
  446MOL0     N61461   2.559   5.963   3.532 -0.7993  0.7135  0.2631
  446MOL0     N61462   2.549   6.066   3.617 -0.5003  0.5281  0.3195
  446MOL0     C61463   2.871   6.382   4.734  0.2976  0.0555  0.6747
  446MOL0     C61464   2.776   6.404   4.841  0.0662  0.4659 -0.4497
  446MOL0     C61465   2.537   6.642   5.185  0.3405  0.1080 -0.5303
  446MOL0     C61466   2.465   6.517   5.212 -0.4486  0.0975  0.3889
  446MOL0     C61467   2.359   6.511   5.308  0.2560  0.0626 -0.4131
  446MOL0     C61468   2.310   6.625   5.364  0.3677 -0.8928 -0.0062
  446MOL0     O61469   2.199   6.628   5.450 -0.6244  0.2699 -0.0290
  446MOL0     C61470   2.128   6.508   5.476 -0.2634 -0.0788 -0.6672
  446MOL0     C61471   2.041   6.531   5.597 -0.4230  1.1695 -0.0169
  446MOL0     C61472   1.897   6.587   5.586  1.0611 -0.0245  1.2708
  446MOL0     C61473   1.909   6.733   5.533  0.6256 -0.5686  0.4747
  446MOL0     C61474   1.786   6.779   5.458 -0.5346  0.4820 -0.1851
  446MOL0     C61475   1.698   6.828   5.388  0.1986 -0.0494 -0.3821
  446MOL0     C61476   2.375   6.751   5.346 -0.0899  0.2402  0.9896
  446MOL0     C61477   2.485   6.758   5.254 -1.0749 -0.6168  0.8802
  446MOL0     C61478   2.535   6.907   5.251 -0.1534 -0.3159 -0.1736
  446MOL0     H61479   2.718   6.741   4.826 -0.9975  0.1409 -0.4850
  446MOL0     H61480   2.828   6.706   4.611 -1.8964 -0.3221 -0.4023
  446MOL0     H61481   3.007   6.302   4.537  0.4115  1.1437  1.8523
  446MOL0     H61482   3.018   6.377   4.374  1.1896 -0.8062 -0.5180
  446MOL0     H61483   2.864   6.187   4.379 -0.3864  0.8108 -1.2392
  446MOL0     H61484   2.769   6.257   4.514 -0.0923 -1.0398 -0.7781
  446MOL0     H61485   2.655   6.345   4.343  0.8662 -2.1065  1.6489
  446MOL0     H61486   2.780   6.462   4.333 -0.0272 -0.0386  0.6659
  446MOL0     H61487   2.893   6.304   4.165  1.7765  2.3577  3.1179
  446MOL0     H61488   2.736   6.214   4.169 -1.9182  1.9538  1.9546
  446MOL0     H61489   2.744   6.504   4.082  2.5831 -0.2178 -2.1261
  446MOL0     H61490   2.623   6.379   4.079 -0.4574  3.7878 -1.4178
  446MOL0     H61491   2.735   6.445   3.863  0.2992  0.7738  1.8666
  446MOL0     H61492   2.877   6.340   3.920  0.1398 -3.5091  1.8512
  446MOL0     H61493   2.594   6.247   3.887 -0.3454 -0.9231  0.5765
  446MOL0     H61494   2.737   6.147   3.923  2.4158  0.4649 -1.5891
  446MOL0     H61495   2.680   6.298   3.662 -1.5243 -0.3462  2.0998
  446MOL0     H61496   2.832   6.217   3.681  1.1448 -0.7475  0.9393
  446MOL0     H61497   2.863   5.958   3.673 -0.1891  1.9774  1.8071
  446MOL0     H61498   2.670   5.717   3.457  1.1745 -2.7836 -1.4989
  446MOL0     H61499   2.831   5.766   3.501 -0.7079  1.8377  0.9470
  446MOL0     H61500   2.692   5.892   3.256  0.4867  1.9254  1.0312
  446MOL0     H61501   2.854   5.936   3.331  1.0162 -0.3771 -1.6483
  446MOL0     H61502   2.934   5.703   3.288 -1.6950 -0.3308  1.9339
  446MOL0     H61503   2.779   5.660   3.235 -0.1287 -0.4705  1.3313
  446MOL0     H61504   2.795   5.837   3.053  1.3270  3.2250 -0.7132
  446MOL0     H61505   2.970   5.856   3.080  1.4579 -2.2905 -0.9988
  446MOL0     H61506   2.912   5.844   2.837  1.9981 -0.8400  2.0327
  446MOL0     H61507   2.928   5.811   2.533  0.0769  2.1553 -1.3540
  446MOL0     H61508   2.848   5.927   2.642  1.1589  1.9827 -3.4065
  446MOL0     H61509   2.754   5.828   2.528  1.7555  1.3861 -1.7153
  446MOL0     H61510   2.926   5.675   2.207  0.6145  0.9912 -0.6279
  446MOL0     H61511   2.843   5.672   1.961 -0.3246 -1.6769 -1.7232
  446MOL0     H61512   2.724   5.693   1.738  1.2356 -0.7423 -1.8503
  446MOL0     H61513   2.769   5.530   1.751  0.7416  0.4810  0.6863
  446MOL0     H61514   2.639   5.573   1.535 -0.2107 -1.4265 -0.0594
  446MOL0     H61515   2.583   5.449   1.639 -0.7969 -1.0102 -3.4136
  446MOL0     H61516   2.474   5.723   1.664 -1.1445  1.1449 -0.4476
  446MOL0     H61517   2.406   5.568   1.737  1.0804  1.9305  1.4001
  446MOL0     H61518   2.329   5.503   1.514  0.7967  0.0907 -2.8622
  446MOL0     H61519   2.427   5.631   1.442  1.9183  2.0112  1.4129
  446MOL0     H61520   2.213   5.718   1.638 -2.0469 -0.0374 -1.2247
  446MOL0     H61521   2.297   5.804   1.509  3.9059 -1.4202 -0.6064
  446MOL0     H61522   2.085   5.578   1.456  2.2164 -1.2590  1.9637
  446MOL0     H61523   2.196   5.649   1.336  0.5736  1.6302 -0.4973
  446MOL0     H61524   2.081   5.874   1.436  1.9736 -0.6338 -0.1596
  446MOL0     H61525   1.946   5.770   1.429 -1.5184  5.5448 -1.7267
  446MOL0     H61526   2.005   5.907   1.209  0.6858  1.4175 -0.2254
  446MOL0     H61527   2.008   5.733   1.193 -2.4051  1.7034 -0.8356
  446MOL0     H61528   2.488   5.472   2.084 -0.0036  0.2460 -2.9293
  446MOL0     H61529   2.562   5.492   2.321  2.3202 -0.0648  2.2456
  446MOL0     H61530   2.808   5.375   2.726 -0.2848  0.3006 -1.6090
  446MOL0     H61531   2.889   5.435   2.943  2.6812  0.1178 -1.0784
  446MOL0     H61532   2.910   6.282   4.713 -3.7141 -1.7140  0.7132
  446MOL0     H61533   2.768   6.319   4.907 -1.8139 -0.3352 -1.6040
  446MOL0     H61534   2.496   6.430   5.154 -2.8204 -1.2089  0.9225
  446MOL0     H61535   2.303   6.420   5.324 -3.4926  1.8583 -1.8971
  446MOL0     H61536   2.054   6.473   5.403 -2.0187 -1.0572  1.4700
  446MOL0     H61537   2.197   6.425   5.492  0.2187  0.2125 -1.1859
  446MOL0     H61538   2.100   6.585   5.672 -0.8606 -0.7469  1.8257
  446MOL0     H61539   2.035   6.425   5.625  1.6113  0.3789 -2.1995
  446MOL0     H61540   1.843   6.527   5.512 -1.6902 -0.1242  3.2355
  446MOL0     H61541   1.838   6.581   5.678 -1.5079  2.0943 -0.1147
  446MOL0     H61542   1.991   6.748   5.461 -0.8088 -1.1364 -1.3393
  446MOL0     H61543   1.937   6.798   5.616 -0.4768 -0.0664  0.4623
  446MOL0     H61544   1.613   6.862   5.332  0.7366  3.0564  0.5307
  446MOL0     H61545   2.324   6.840   5.380  2.2426  3.0577 -2.1441
  446MOL0     H61546   2.467   6.975   5.303 -0.8246 -2.3530  1.7823
  446MOL0     H61547   2.629   6.899   5.306 -1.5060 -3.6840  1.9954
  446MOL0     H61548   2.551   6.947   5.150 -0.9064 -1.0296 -0.5976
  447MOL0     O61549   7.532   4.576   5.878 -0.6233  0.1186 -0.4250
  447MOL0     C61550   7.633   4.577   5.812 -0.7229  0.4500  0.4317
  447MOL0     O61551   7.677   4.684   5.751 -1.3079  0.1241  0.1385
  447MOL0     C61552   7.586   4.790   5.746 -0.0265  0.8882  0.2766
  447MOL0     C61553   7.476   4.789   5.658 -0.3435  0.3189  0.1194
  447MOL0     C61554   7.396   4.894   5.635  0.5873 -0.0012 -0.9656
  447MOL0     C61555   7.421   5.019   5.710 -0.3272  0.1858  0.2320
  447MOL0     O61556   7.362   5.136   5.697  0.3291  0.6052  0.4895
  447MOL0     C61557   7.247   5.148   5.608 -0.6164 -0.1962 -0.0625
  447MOL0     C61558   7.163   5.271   5.638  0.0714  1.0244  0.3497
  447MOL0     C61559   7.229   5.408   5.656 -0.5365  0.1229  1.0268
  447MOL0     C61560   7.263   5.469   5.517  0.1261 -0.1218  0.3904
  447MOL0     C61561   7.384   5.573   5.518 -0.1020 -0.5371  0.2354
  447MOL0     C61562   7.370   5.690   5.617 -1.1115 -0.0623 -0.5009
  447MOL0     C61563   7.472   5.795   5.579 -0.6084  0.4091  0.8297
  447MOL0     C61564   7.498   5.918   5.669 -0.5982 -0.0112  1.0338
  447MOL0     N61565   7.574   5.894   5.795  0.3705  0.1319  0.3489
  447MOL0     C61566   7.624   5.771   5.842 -0.6111 -0.4169  0.2075
  447MOL0     C61567   7.672   5.801   5.970 -0.0889  0.4940 -0.1244
  447MOL0     C61568   7.741   5.713   6.080 -0.5857  0.4778 -0.5675
  447MOL0     C61569   7.897   5.701   6.054  0.3629  0.3326  0.1886
  447MOL0     C61570   7.958   5.578   6.136 -1.0767 -0.3549  0.1949
  447MOL0     C61571   8.031   5.619   6.266  0.0460 -0.6700 -0.1584
  447MOL0     O61572   8.150   5.688   6.238  0.0647 -0.8713 -0.4277
  447MOL0     C61573   8.224   5.689   6.351 -0.4703 -0.4734 -0.6708
  447MOL0     C61574   8.318   5.583   6.368 -0.1107  0.3647 -1.2462
  447MOL0     C61575   8.403   5.578   6.484 -0.9720  0.7615  0.8129
  447MOL0     C61576   8.504   5.472   6.486  0.4163 -0.2297  0.5377
  447MOL0     C61577   8.390   5.673   6.583 -0.1450  0.8335  0.2572
  447MOL0     C61578   8.467   5.665   6.709 -0.0016  0.4996  0.1224
  447MOL0     O61579   8.491   5.789   6.757 -0.4750 -0.4373  0.4767
  447MOL0     C61580   8.517   5.792   6.893  0.3244 -0.0415 -0.1620
  447MOL0     C61581   8.638   5.830   6.953  0.2498 -0.1803 -0.2744
  447MOL0     C61582   8.652   5.828   7.088 -0.9421  0.2690  0.5653
  447MOL0     C61583   8.540   5.786   7.165  0.0124 -0.9160  0.2791
  447MOL0     O61584   8.566   5.796   7.298 -0.2582  0.2623  0.5927
  447MOL0     C61585   8.454   5.772   7.391 -0.3223 -0.2271  0.1564
  447MOL0     C61586   8.491   5.756   7.537  0.0397 -0.3938 -0.2905
  447MOL0     C61587   8.354   5.744   7.612  0.1870  0.1664  1.3275
  447MOL0     C61588   8.394   5.726   7.756  0.0952  0.0891  0.9948
  447MOL0     C61589   8.276   5.751   7.847  0.3064  0.0606  0.7492
  447MOL0     C61590   8.331   5.757   7.997 -0.3124 -0.2951  0.3531
  447MOL0     C61591   8.230   5.836   8.075  0.9510  0.2076 -0.4044
  447MOL0     C61592   8.274   5.858   8.222 -0.1613 -0.1946  0.4447
  447MOL0    Cl61593   8.286   5.702   8.310  0.5537  0.0936 -0.5751
  447MOL0     C61594   8.420   5.756   7.113 -0.4489 -0.5932  1.3197
  447MOL0     C61595   8.406   5.763   6.974 -1.2443  0.3011 -0.0047
  447MOL0     O61596   8.497   5.560   6.766 -0.3440  0.0263  0.5234
  447MOL0     C61597   8.309   5.787   6.555  0.2484 -0.0401  0.3741
  447MOL0     C61598   8.233   5.796   6.438 -0.6415  1.3805 -0.7225
  447MOL0     N61599   7.662   5.936   5.983 -1.0651  0.0953  0.3703
  447MOL0     N61600   7.589   5.990   5.887 -0.5466  0.6490  0.2441
  447MOL0     C61601   7.535   5.021   5.796  0.0694 -0.4769  0.0727
  447MOL0     C61602   7.611   4.912   5.817 -0.1472  0.8107  0.0828
  447MOL0     C61603   7.700   4.448   5.779  0.2724  0.6113  0.7959
  447MOL0     C61604   7.797   4.455   5.681  0.4892  0.1616 -0.0245
  447MOL0     C61605   7.869   4.345   5.634  0.3407  0.4127  0.7232
  447MOL0     C61606   7.823   4.219   5.674 -0.4232 -1.9641  0.4923
  447MOL0     O61607   7.886   4.112   5.624 -1.6683  0.3964  0.7037
  447MOL0     C61608   8.039   4.112   5.622 -0.1998  0.4759  0.5261
  447MOL0     C61609   8.087   4.056   5.764 -0.7560  0.0092  0.3925
  447MOL0     C61610   8.052   3.907   5.779  0.3188  0.8808  1.0179
  447MOL0     C61611   8.142   3.803   5.710 -1.4131 -0.4168  0.4206
  447MOL0     C61612   8.103   3.670   5.753 -1.1444  0.5690 -0.4385
  447MOL0     C61613   8.106   3.559   5.797  0.5339  0.8000  0.6489
  447MOL0     C61614   7.734   4.207   5.774 -0.3447 -0.4587  1.3831
  447MOL0     C61615   7.673   4.315   5.834 -0.5403  0.5135  0.5333
  447MOL0     C61616   7.567   4.293   5.942 -0.0024  0.6847  0.6968
  447MOL0     H61617   7.458   4.692   5.612  0.0061  0.1270  0.3877
  447MOL0     H61618   7.314   4.892   5.564  1.4114  1.9214 -2.0481
  447MOL0     H61619   7.187   5.058   5.628  1.3902 -0.8257  4.0089
  447MOL0     H61620   7.277   5.158   5.503  0.3227 -1.3773  0.0737
  447MOL0     H61621   7.085   5.285   5.562  1.4025 -1.0677 -1.5147
  447MOL0     H61622   7.122   5.245   5.736  2.6646 -0.4917  1.1066
  447MOL0     H61623   7.153   5.470   5.704 -1.7036  1.8292 -2.6933
  447MOL0     H61624   7.314   5.408   5.725  0.6857  2.2860 -0.3516
  447MOL0     H61625   7.282   5.391   5.442  2.4003 -0.2597  1.0291
  447MOL0     H61626   7.169   5.515   5.487 -0.3955 -2.7115 -2.4799
  447MOL0     H61627   7.405   5.611   5.417  2.4174 -0.9545  0.5355
  447MOL0     H61628   7.467   5.505   5.537  0.7380 -0.6439 -3.1938
  447MOL0     H61629   7.270   5.731   5.598 -1.3804 -1.9731 -3.9622
  447MOL0     H61630   7.393   5.652   5.717 -2.7993  0.3730  0.0990
  447MOL0     H61631   7.433   5.834   5.485  0.3514  1.9158  1.0144
  447MOL0     H61632   7.567   5.742   5.565  2.7009  4.7311  3.9066
  447MOL0     H61633   7.528   6.007   5.612  1.4392 -0.1142  1.8332
  447MOL0     H61634   7.397   5.941   5.705 -0.6090 -1.5945  2.1086
  447MOL0     H61635   7.625   5.673   5.796  2.3683 -0.2995 -0.1549
  447MOL0     H61636   7.698   5.613   6.068 -3.2772  1.7379 -2.3297
  447MOL0     H61637   7.717   5.751   6.180  0.4952 -4.5273  1.9623
  447MOL0     H61638   7.920   5.681   5.949 -1.4073 -2.0820  0.1857
  447MOL0     H61639   7.950   5.793   6.081 -1.6322  1.6428 -0.0974
  447MOL0     H61640   7.883   5.513   6.182 -0.3384  0.3508  2.5496
  447MOL0     H61641   8.035   5.526   6.078  0.8873 -0.4315  2.6716
  447MOL0     H61642   7.964   5.686   6.320  0.6196  1.2639 -1.7306
  447MOL0     H61643   8.058   5.525   6.315  5.4922  0.1435 -0.9441
  447MOL0     H61644   8.324   5.491   6.311  0.3341 -3.1956  3.8598
  447MOL0     H61645   8.473   5.384   6.544 -1.1932 -0.4597 -0.5963
  447MOL0     H61646   8.590   5.506   6.544 -0.2084  0.7462  0.9178
  447MOL0     H61647   8.533   5.443   6.385 -4.3260  2.3057 -1.9155
  447MOL0     H61648   8.727   5.865   6.903  0.2921  2.4382  1.4737
  447MOL0     H61649   8.749   5.854   7.129 -0.9182 -0.0357  0.7068
  447MOL0     H61650   8.392   5.862   7.381 -0.3411 -0.3583 -1.0419
  447MOL0     H61651   8.410   5.677   7.360  0.0838 -0.7607  1.1444
  447MOL0     H61652   8.544   5.662   7.556  0.0699 -0.1965  0.6604
  447MOL0     H61653   8.557   5.830   7.583 -0.3148 -0.8011  0.9321
  447MOL0     H61654   8.303   5.661   7.563  1.0930  0.1282  0.3884
  447MOL0     H61655   8.301   5.836   7.585  3.5838  1.7577 -0.5847
  447MOL0     H61656   8.474   5.796   7.780 -0.0520 -0.6444  4.0384
  447MOL0     H61657   8.426   5.622   7.771  0.1961  0.2433  1.9107
  447MOL0     H61658   8.230   5.848   7.823 -1.9229 -0.6263  1.8887
  447MOL0     H61659   8.191   5.682   7.843 -0.9892  1.6173  0.1116
  447MOL0     H61660   8.427   5.808   8.013 -0.4117 -0.1184  0.3891
  447MOL0     H61661   8.355   5.657   8.033  0.2373 -1.2842 -2.5756
  447MOL0     H61662   8.131   5.791   8.062  0.3826  1.3396 -0.1316
  447MOL0     H61663   8.225   5.936   8.032  0.2268  0.8836  1.1752
  447MOL0     H61664   8.213   5.927   8.280  1.7142  1.6669  0.3010
  447MOL0     H61665   8.371   5.908   8.224 -0.0895 -0.2549 -0.8628
  447MOL0     H61666   8.335   5.735   7.176  0.3776 -1.5864  2.1229
  447MOL0     H61667   8.306   5.764   6.932 -2.0155  2.1217  1.6860
  447MOL0     H61668   8.303   5.880   6.610 -2.7708  1.0693 -1.6004
  447MOL0     H61669   8.174   5.885   6.418 -0.2359  1.7750 -0.2233
  447MOL0     H61670   7.561   5.119   5.838 -0.2363  1.0632 -3.0461
  447MOL0     H61671   7.698   4.909   5.882 -0.1120  2.8856  0.1847
  447MOL0     H61672   7.828   4.548   5.633  1.3358 -0.1017 -0.0068
  447MOL0     H61673   7.942   4.343   5.553  0.8638 -2.5828  1.1421
  447MOL0     H61674   8.066   4.043   5.541 -0.5630  1.4858 -0.4870
  447MOL0     H61675   8.082   4.209   5.598 -0.3637 -0.0622 -2.3809
  447MOL0     H61676   8.038   4.114   5.843 -0.2665 -1.9210  2.2035
  447MOL0     H61677   8.196   4.061   5.776 -0.4964 -2.5983 -0.3721
  447MOL0     H61678   8.069   3.888   5.885  3.4074  2.0459  0.8563
  447MOL0     H61679   7.946   3.899   5.753  0.3641  3.7460 -0.4596
  447MOL0     H61680   8.247   3.823   5.734 -1.1096 -2.1255  0.6783
  447MOL0     H61681   8.133   3.812   5.601  1.0409 -2.4459 -0.0399
  447MOL0     H61682   8.095   3.457   5.830 -3.9965  0.7600 -0.2969
  447MOL0     H61683   7.711   4.102   5.795 -1.1683  0.0342  3.1553
  447MOL0     H61684   7.566   4.375   6.015 -2.7451  2.0160 -0.6720
  447MOL0     H61685   7.464   4.286   5.905  0.1784 -1.1370  0.4539
  447MOL0     H61686   7.591   4.199   5.992  0.6068 -0.4380 -1.5691
  448MOL0     O61687  10.295  10.209   9.970 -0.5461 -0.5459  0.8680
  448MOL0     C61688  10.306  10.321   9.921 -0.3354  0.3782 -0.5518
  448MOL0     O61689  10.211  10.421   9.922 -0.3191  0.1438  0.2692
  448MOL0     C61690  10.089  10.389   9.968 -0.6887  1.4046  0.0816
  448MOL0     C61691  10.005  10.306   9.895 -0.7145  0.5082  0.1664
  448MOL0     C61692   9.878  10.274   9.954 -0.2509  0.3960 -0.5319
  448MOL0     C61693   9.834  10.320  10.080 -0.1541 -0.4712 -0.2965
  448MOL0     O61694   9.710  10.309  10.124  0.6688 -0.1417  0.0237
  448MOL0     C61695   9.641  10.190  10.085  0.4707 -0.4218 -0.2052
  448MOL0     C61696   9.559  10.200   9.957 -0.0418 -0.7208 -0.7723
  448MOL0     C61697   9.455  10.318   9.964  0.6930 -0.9532 -0.3012
  448MOL0     C61698   9.513  10.461   9.934  0.4468  0.4588  0.1698
  448MOL0     C61699   9.419  10.577   9.891  0.0462 -0.8018 -0.4492
  448MOL0     C61700   9.499  10.713   9.892  0.2370 -0.1650  0.3959
  448MOL0     C61701   9.410  10.821   9.840 -0.1616  0.4472  0.2359
  448MOL0     C61702   9.362  10.820   9.701 -1.0104 -0.1171 -0.4396
  448MOL0     N61703   9.481  10.806   9.605  0.3391  0.0716  0.4365
  448MOL0     C61704   9.550  10.915   9.567  0.0943 -0.5656 -0.0385
  448MOL0     C61705   9.618  10.881   9.460  0.0993  0.0895 -0.3645
  448MOL0     C61706   9.715  10.978   9.390  0.7871  1.7048  0.4596
  448MOL0     C61707   9.658  11.056   9.263 -1.5199  1.1098 -0.5478
  448MOL0     C61708   9.770  11.114   9.178  0.1954  0.5702  0.7335
  448MOL0     C61709   9.876  11.200   9.242 -0.8455  0.0815 -0.0793
  448MOL0     O61710   9.827  11.284   9.339  0.2075 -0.7698  0.2409
  448MOL0     C61711   9.918  11.359   9.407 -0.3923 -0.4195 -1.2228
  448MOL0     C61712  10.058  11.345   9.395  0.2283  0.8822 -0.5360
  448MOL0     C61713  10.147  11.421   9.475  1.0787 -0.3870  1.6757
  448MOL0     C61714  10.290  11.397   9.461  0.6788 -0.4807 -0.3666
  448MOL0     C61715  10.094  11.519   9.557 -0.3485 -0.4861 -0.3741
  448MOL0     C61716  10.175  11.622   9.623  0.7070  0.4809  0.3755
  448MOL0     O61717  10.289  11.574   9.682 -0.0722 -0.1331 -0.7346
  448MOL0     C61718  10.363  11.646   9.778  1.3134  0.2338  0.0571
  448MOL0     C61719  10.407  11.576   9.888 -0.5433 -0.3154 -0.3390
  448MOL0     C61720  10.482  11.647   9.985  0.5835  0.4590 -0.5646
  448MOL0     C61721  10.516  11.781   9.972 -0.8008 -0.9899 -0.3612
  448MOL0     O61722  10.590  11.853  10.068  0.6279 -0.6734  0.0466
  448MOL0     C61723  10.667  11.779  10.169 -0.6844 -1.1123 -0.2712
  448MOL0     C61724  10.788  11.723  10.106 -0.8580 -0.2003  0.4039
  448MOL0     C61725  10.922  11.719  10.203  0.2683  0.8466 -0.5853
  448MOL0     C61726  10.996  11.589  10.165 -0.1676 -0.9813 -0.2375
  448MOL0     C61727  11.122  11.578  10.246  0.3995 -0.1545 -0.7544
  448MOL0     C61728  11.230  11.676  10.187 -0.6285 -0.5458 -0.5903
  448MOL0     C61729  11.354  11.664  10.269 -0.1697 -1.0349  0.7137
  448MOL0     C61730  11.457  11.774  10.236 -0.3972 -0.7190  0.2718
  448MOL0    Cl61731  11.397  11.925  10.292  0.4166  0.3602 -0.4073
  448MOL0     C61732  10.484  11.839   9.850  0.0721  0.8677 -0.9473
  448MOL0     C61733  10.410  11.776   9.746 -0.3809 -0.0924  0.0856
  448MOL0     O61734  10.119  11.728   9.646 -0.3612  0.3574 -0.2977
  448MOL0     C61735   9.961  11.526   9.576 -0.5082  0.2988 -0.0602
  448MOL0     C61736   9.878  11.456   9.497 -0.3770  0.9853 -0.5939
  448MOL0     N61737   9.594  10.746   9.431 -0.3210  0.0366 -0.7733
  448MOL0     N61738   9.508  10.702   9.517  0.3810  0.1396  0.0623
  448MOL0     C61739   9.926  10.400  10.159 -0.6063 -0.0185 -0.3147
  448MOL0     C61740  10.054  10.417  10.104 -0.5628  0.0995 -0.2767
  448MOL0     C61741  10.433  10.334   9.851  0.2428  0.1032  0.8199
  448MOL0     C61742  10.554  10.273   9.906  0.2541  0.0314 -0.0607
  448MOL0     C61743  10.672  10.267   9.831  0.3193 -0.4427 -0.8643
  448MOL0     C61744  10.670  10.316   9.707  0.8521 -0.5456  0.1241
  448MOL0     O61745  10.778  10.300   9.641 -0.5053  0.3398  0.1128
  448MOL0     C61746  10.802  10.344   9.508 -1.1439  0.1074  0.5559
  448MOL0     C61747  10.948  10.343   9.463  0.8406 -0.5587  0.1795
  448MOL0     C61748  11.015  10.215   9.420 -0.4464 -0.0428  0.4981
  448MOL0     C61749  11.011  10.106   9.519 -0.0950  0.2446 -0.3840
  448MOL0     C61750  11.065  10.149   9.648 -1.3028 -0.0650  0.8463
  448MOL0     C61751  11.114  10.198   9.746 -0.2431  0.0360 -0.2874
  448MOL0     C61752  10.554  10.370   9.647  0.3857  0.8639  1.1492
  448MOL0     C61753  10.436  10.384   9.722 -0.4576 -0.0492 -0.5206
  448MOL0     C61754  10.317  10.445   9.663  0.6473  0.3392 -0.2758
  448MOL0     H61755  10.034  10.271   9.796 -2.9609  1.0513 -0.7413
  448MOL0     H61756   9.820  10.202   9.897 -1.6019 -0.4917  1.8369
  448MOL0     H61757   9.575  10.162  10.167  0.1353  0.8337 -0.0397
  448MOL0     H61758   9.710  10.110  10.055  1.2084  0.1863 -0.1541
  448MOL0     H61759   9.625  10.222   9.872  0.8792  4.6900  0.9584
  448MOL0     H61760   9.506  10.105   9.944 -3.4103  0.7266  1.1391
  448MOL0     H61761   9.382  10.284   9.890  0.9233 -1.8556 -0.1358
  448MOL0     H61762   9.398  10.319  10.058  3.0561  1.2470  1.2343
  448MOL0     H61763   9.559  10.496  10.026  1.8515 -2.1879  0.5781
  448MOL0     H61764   9.583  10.444   9.851 -2.0050  0.0874 -1.9744
  448MOL0     H61765   9.329  10.589   9.951  0.8039  3.2951  0.1538
  448MOL0     H61766   9.396  10.550   9.787  0.0376  2.2051 -1.3403
  448MOL0     H61767   9.513  10.737   9.998  0.5245 -1.4420  0.6666
  448MOL0     H61768   9.603  10.711   9.859 -0.2059 -2.9602 -1.1715
  448MOL0     H61769   9.469  10.911   9.857  2.1425 -0.9790  0.3442
  448MOL0     H61770   9.320  10.825   9.901  0.0687  1.0416  0.5485
  448MOL0     H61771   9.303  10.728   9.689 -2.5207  0.5583  1.3487
  448MOL0     H61772   9.304  10.909   9.675 -0.5106 -0.2457 -2.1545
  448MOL0     H61773   9.544  11.014   9.611  1.4191 -0.4575 -0.0521
  448MOL0     H61774   9.803  10.917   9.367 -0.7888  0.2148 -2.0737
  448MOL0     H61775   9.733  11.058   9.463 -5.0802  2.2218  1.8178
  448MOL0     H61776   9.583  10.996   9.209 -3.6050  2.6679  0.4413
  448MOL0     H61777   9.611  11.138   9.317  1.2071  1.1566  1.9920
  448MOL0     H61778   9.832  11.040   9.125  1.3645  1.3243  1.0167
  448MOL0     H61779   9.717  11.175   9.104  1.3011  0.2703 -0.3358
  448MOL0     H61780   9.965  11.148   9.277 -0.3080  2.5518  2.5503
  448MOL0     H61781   9.900  11.259   9.153 -0.2597  0.3468  0.2510
  448MOL0     H61782  10.101  11.269   9.331 -1.2188 -0.4949  0.0496
  448MOL0     H61783  10.341  11.495   9.461 -0.0342  0.2084  5.1694
  448MOL0     H61784  10.316  11.351   9.365 -1.1299 -1.1877 -0.5564
  448MOL0     H61785  10.335  11.335   9.539  2.5711 -2.6060 -2.9410
  448MOL0     H61786  10.385  11.471   9.899  0.8169 -0.8171 -2.0197
  448MOL0     H61787  10.498  11.585  10.072 -0.0890 -1.0326 -1.4677
  448MOL0     H61788  10.693  11.849  10.248 -1.9401  0.6457 -1.3366
  448MOL0     H61789  10.616  11.696  10.219 -1.7160 -0.7637 -0.7142
  448MOL0     H61790  10.765  11.620  10.076 -1.1443 -0.5793  1.8514
  448MOL0     H61791  10.810  11.771  10.011  1.4166 -2.8260 -0.5469
  448MOL0     H61792  10.892  11.707  10.307  0.3554  0.4450 -0.6038
  448MOL0     H61793  10.966  11.817  10.181  0.7002  0.0032 -4.1409
  448MOL0     H61794  11.025  11.603  10.060  2.9384 -0.8079  0.5496
  448MOL0     H61795  10.933  11.503  10.190  1.4150 -1.8583  0.8418
  448MOL0     H61796  11.096  11.587  10.352  0.0120 -2.0416 -0.6540
  448MOL0     H61797  11.150  11.473  10.228 -0.3128 -0.7577  1.4081
  448MOL0     H61798  11.182  11.774  10.192 -2.2771 -1.2403 -1.8026
  448MOL0     H61799  11.256  11.641  10.086  0.4657 -1.8088  0.1003
  448MOL0     H61800  11.412  11.579  10.232  0.8379 -0.3522  0.6925
  448MOL0     H61801  11.333  11.660  10.376 -1.0233 -0.9262  0.5511
  448MOL0     H61802  11.478  11.791  10.130  1.3115  1.6892  0.9203
  448MOL0     H61803  11.552  11.761  10.289 -2.1762 -2.1917  3.4301
  448MOL0     H61804  10.514  11.942   9.831 -2.8694  1.4041 -3.2752
  448MOL0     H61805  10.390  11.821   9.650  2.7629  2.7022  0.5485
  448MOL0     H61806   9.923  11.601   9.645 -3.1504  1.1630 -2.2398
  448MOL0     H61807   9.772  11.477   9.509 -0.7185 -0.4422 -0.8636
  448MOL0     H61808   9.904  10.447  10.255  1.0374  3.1241 -1.3416
  448MOL0     H61809  10.119  10.485  10.157 -1.2270 -0.7963  1.8197
  448MOL0     H61810  10.542  10.230  10.005  0.7191 -0.2764 -0.1355
  448MOL0     H61811  10.765  10.241   9.879  0.3085 -1.1071 -1.1920
  448MOL0     H61812  10.740  10.300   9.429 -0.8598  0.1858  0.2869
  448MOL0     H61813  10.771  10.449   9.501 -3.8941 -0.7139 -2.5122
  448MOL0     H61814  11.001  10.387   9.547  0.9493  2.5177 -1.3487
  448MOL0     H61815  10.960  10.408   9.376  2.0460  0.3688  1.0065
  448MOL0     H61816  10.971  10.181   9.326  2.6405  1.1120 -1.5471
  448MOL0     H61817  11.118  10.242   9.396 -1.8937  2.5507 -4.0810
  448MOL0     H61818  11.077  10.023   9.490  1.6954  0.5594  2.4619
  448MOL0     H61819  10.909  10.068   9.532  1.5244 -4.9890 -0.7763
  448MOL0     H61820  11.138  10.264   9.827  1.3652  2.8310 -2.8356
  448MOL0     H61821  10.560  10.417   9.550 -1.7467  4.4593  2.5581
  448MOL0     H61822  10.286  10.540   9.707  2.9270  0.5658  0.9792
  448MOL0     H61823  10.343  10.458   9.558  1.6453  0.8980  0.0279
  448MOL0     H61824  10.234  10.373   9.671  1.1352 -0.3032 -0.9054
  449MOL0     O61825   8.301   7.633   3.608  0.4405  0.1070  0.8036
  449MOL0     C61826   8.365   7.675   3.704  0.3743  0.3534  0.1409
  449MOL0     O61827   8.490   7.634   3.736 -0.5545 -0.2510 -0.6572
  449MOL0     C61828   8.552   7.541   3.657  0.1784  0.1311 -0.3944
  449MOL0     C61829   8.683   7.563   3.626 -0.4659  0.2957 -0.7271
  449MOL0     C61830   8.758   7.476   3.553 -1.4696 -0.8319 -0.5107
  449MOL0     C61831   8.701   7.364   3.494  0.9528  1.0158  1.3756
  449MOL0     O61832   8.768   7.275   3.407 -0.5092 -0.0680  0.4313
  449MOL0     C61833   8.897   7.315   3.367  0.9401  0.2403 -1.0184
  449MOL0     C61834   8.963   7.201   3.287 -1.0393 -1.3462  1.1787
  449MOL0     C61835   9.089   7.278   3.228  0.6008  0.3740  0.1920
  449MOL0     C61836   9.167   7.183   3.117  0.4859  0.1639  0.4670
  449MOL0     C61837   9.240   7.265   3.022 -0.5792 -0.2049  0.1397
  449MOL0     C61838   9.165   7.349   2.919  0.3030 -0.2175 -0.3557
  449MOL0     C61839   9.106   7.260   2.810  0.1897 -0.6315 -0.0084
  449MOL0     C61840   8.973   7.334   2.758  0.0600  0.7873  0.0839
  449MOL0     N61841   9.013   7.456   2.675  0.0671  0.2199  0.4829
  449MOL0     C61842   9.068   7.449   2.543 -0.4070  0.0070  0.5178
  449MOL0     C61843   9.077   7.574   2.502  0.3881 -0.2181 -0.1528
  449MOL0     C61844   9.149   7.618   2.381  0.5702 -0.0315  0.6871
  449MOL0     C61845   9.063   7.654   2.260 -0.4670 -0.3698 -0.5952
  449MOL0     C61846   8.984   7.534   2.198 -0.3757  0.0248 -0.5223
  449MOL0     C61847   8.902   7.572   2.075 -0.6962 -0.0685 -0.3964
  449MOL0     O61848   8.791   7.668   2.079  0.4646  0.3695  0.2549
  449MOL0     C61849   8.814   7.803   2.103 -0.4710 -0.0743  0.5367
  449MOL0     C61850   8.937   7.867   2.086  0.5188 -1.0459 -0.1344
  449MOL0     C61851   8.951   8.007   2.102  0.1500  0.9125 -0.2536
  449MOL0     C61852   9.093   8.062   2.098  0.3045  0.0887  0.2449
  449MOL0     C61853   8.834   8.080   2.138  0.4413 -0.6052 -0.8056
  449MOL0     C61854   8.845   8.224   2.164 -0.8310 -0.6730  0.5836
  449MOL0     O61855   8.752   8.275   2.250  0.2895  0.2498  0.2363
  449MOL0     C61856   8.762   8.409   2.281  0.9744  1.6311  0.7430
  449MOL0     C61857   8.650   8.480   2.290  0.5012  0.1330  0.1095
  449MOL0     C61858   8.636   8.599   2.347 -1.0121 -1.3605 -0.1476
  449MOL0     C61859   8.757   8.670   2.382  0.6175 -0.1303  0.5102
  449MOL0     O61860   8.763   8.799   2.441 -0.0011 -0.4039  0.2379
  449MOL0     C61861   8.640   8.868   2.431  0.2755 -0.2960  0.1675
  449MOL0     C61862   8.646   8.998   2.504  0.2393  0.2264  0.3967
  449MOL0     C61863   8.634   8.977   2.658  0.2491 -1.0952 -0.0442
  449MOL0     C61864   8.486   8.962   2.702 -0.4709 -0.3977  0.4709
  449MOL0     C61865   8.478   8.945   2.852  0.2053 -0.5773  0.1763
  449MOL0     C61866   8.530   8.810   2.898  0.4085 -0.5654 -0.6309
  449MOL0     C61867   8.457   8.761   3.026 -0.2126  0.2598 -0.3219
  449MOL0     C61868   8.505   8.623   3.076 -0.0393  0.2043  0.5150
  449MOL0    Cl61869   8.683   8.607   3.119 -0.2618  0.1381 -0.4762
  449MOL0     C61870   8.877   8.602   2.362 -0.2520  0.0056 -0.0898
  449MOL0     C61871   8.879   8.470   2.312 -0.0727  0.4347  0.0828
  449MOL0     O61872   8.928   8.292   2.096 -0.2904  0.4145  0.0507
  449MOL0     C61873   8.706   8.011   2.151  0.4059 -0.3439 -0.6215
  449MOL0     C61874   8.703   7.873   2.127 -0.4927  0.4433  0.0179
  449MOL0     N61875   9.035   7.656   2.602 -0.6126  1.0653 -0.9528
  449MOL0     N61876   9.004   7.586   2.714 -0.0188  0.3384  0.1602
  449MOL0     C61877   8.558   7.342   3.517  0.1101 -0.1101 -0.2760
  449MOL0     C61878   8.497   7.423   3.605 -0.2803 -1.0897 -0.1068
  449MOL0     C61879   8.307   7.781   3.784  0.4181 -0.1675 -0.6646
  449MOL0     C61880   8.320   7.919   3.751  0.1471 -0.0744  0.0795
  449MOL0     C61881   8.278   8.018   3.840 -0.0110  1.0363  0.0002
  449MOL0     C61882   8.207   7.988   3.955  0.1937  0.4661 -0.1446
  449MOL0     O61883   8.167   8.095   4.029  0.7665 -1.0413  0.7309
  449MOL0     C61884   8.063   8.076   4.125 -0.9235 -0.9148 -0.1353
  449MOL0     C61885   8.011   8.217   4.144 -0.1874 -0.4945 -0.1640
  449MOL0     C61886   7.926   8.218   4.267 -0.9173 -1.0803  0.1919
  449MOL0     C61887   7.855   8.353   4.293 -0.0145 -0.5416  0.8475
  449MOL0     C61888   7.816   8.370   4.437  0.6597 -0.9693 -0.8353
  449MOL0     C61889   7.783   8.372   4.555  1.1479  0.3328 -0.7608
  449MOL0     C61890   8.199   7.851   3.992  0.6414  0.0763  0.6593
  449MOL0     C61891   8.254   7.753   3.913 -0.0036 -0.2625  0.4862
  449MOL0     C61892   8.275   7.618   3.971  0.4579 -0.5355 -0.1080
  449MOL0     H61893   8.740   7.643   3.673 -0.1286 -0.7162  0.6791
  449MOL0     H61894   8.865   7.490   3.545 -0.8198 -3.3427  2.1947
  449MOL0     H61895   8.961   7.346   3.450  0.4860 -3.9822  1.1247
  449MOL0     H61896   8.876   7.403   3.304  1.4720  1.3250  0.2821
  449MOL0     H61897   9.002   7.118   3.347  4.0803  0.9580  1.5239
  449MOL0     H61898   8.904   7.171   3.199 -0.7241  1.1607  0.0488
  449MOL0     H61899   9.067   7.376   3.185 -0.8486 -0.4540 -1.0405
  449MOL0     H61900   9.155   7.289   3.315  0.2937  0.7443  0.3821
  449MOL0     H61901   9.235   7.123   3.178  0.2818 -2.4666 -1.7281
  449MOL0     H61902   9.101   7.116   3.061  1.2645 -3.1542  3.2078
  449MOL0     H61903   9.303   7.196   2.966 -0.5948 -0.8760  0.9183
  449MOL0     H61904   9.317   7.329   3.066  0.6592 -0.3283 -1.7349
  449MOL0     H61905   9.087   7.411   2.964  2.4189  1.9791  0.5194
  449MOL0     H61906   9.226   7.427   2.872  0.8480 -0.9031 -0.8051
  449MOL0     H61907   9.074   7.169   2.863 -2.7941  0.4569  0.2099
  449MOL0     H61908   9.183   7.238   2.734  2.2456  0.4696  1.6387
  449MOL0     H61909   8.923   7.262   2.693  0.2483  2.2564 -1.7756
  449MOL0     H61910   8.913   7.356   2.847  1.1270 -1.3375  1.4208
  449MOL0     H61911   9.104   7.358   2.496  2.7019  1.1075  0.5590
  449MOL0     H61912   9.231   7.547   2.365  1.9735  2.2037 -3.3631
  449MOL0     H61913   9.183   7.719   2.404 -0.0724  0.1478  0.8638
  449MOL0     H61914   8.990   7.728   2.295  0.7664  0.3183  0.5934
  449MOL0     H61915   9.134   7.696   2.189  0.4270  2.2957  1.7004
  449MOL0     H61916   9.057   7.465   2.155 -0.4102  0.2276 -0.9067
  449MOL0     H61917   8.910   7.489   2.265  0.7800  1.5661  1.9527
  449MOL0     H61918   8.973   7.599   1.996 -1.6540  0.0733 -1.2233
  449MOL0     H61919   8.847   7.482   2.047 -0.9445 -0.8697  2.3787
  449MOL0     H61920   9.025   7.815   2.051 -0.0163 -0.9279 -1.7498
  449MOL0     H61921   9.166   7.980   2.103 -1.1484 -1.2159  0.9219
  449MOL0     H61922   9.110   8.123   2.187  2.3250  1.5311 -1.0412
  449MOL0     H61923   9.107   8.113   2.002 -1.5552  0.2868  0.0547
  449MOL0     H61924   8.548   8.442   2.279 -0.2475  2.5043 -1.9322
  449MOL0     H61925   8.543   8.654   2.352  0.0141  0.4196  0.9613
  449MOL0     H61926   8.609   8.895   2.329 -1.1146  2.7964  1.2890
  449MOL0     H61927   8.563   8.804   2.476  1.2223 -1.4258  0.2340
  449MOL0     H61928   8.733   9.058   2.475 -0.4722  1.6467  1.0733
  449MOL0     H61929   8.559   9.055   2.470  0.1186  0.8828  1.7563
  449MOL0     H61930   8.672   9.069   2.702  0.1239  0.2966 -2.6581
  449MOL0     H61931   8.700   8.895   2.687 -1.5967 -3.1912 -1.4079
  449MOL0     H61932   8.436   8.879   2.651 -0.2514 -0.4059  0.2640
  449MOL0     H61933   8.431   9.049   2.665 -1.3424 -0.9466  0.4560
  449MOL0     H61934   8.529   9.030   2.900 -0.8717  2.2770 -3.3171
  449MOL0     H61935   8.372   8.953   2.876 -0.3061 -3.0825 -0.9536
  449MOL0     H61936   8.636   8.819   2.924  0.2488  1.4789 -0.5210
  449MOL0     H61937   8.516   8.732   2.823 -2.0107 -2.5947  1.7135
  449MOL0     H61938   8.350   8.740   3.012  0.1918 -1.3003 -1.4664
  449MOL0     H61939   8.487   8.824   3.110  2.5797  0.0714 -1.0902
  449MOL0     H61940   8.483   8.552   2.996  1.0084  1.4236 -0.9070
  449MOL0     H61941   8.451   8.596   3.167 -0.1412 -2.9262 -0.3658
  449MOL0     H61942   8.977   8.643   2.375 -0.1234  1.5611 -4.2697
  449MOL0     H61943   8.976   8.425   2.295 -0.2939  0.7852 -2.5489
  449MOL0     H61944   8.618   8.061   2.189  0.8352 -2.3556  3.5446
  449MOL0     H61945   8.612   7.816   2.140  0.0736 -0.1228  1.7554
  449MOL0     H61946   8.515   7.257   3.466  1.8636  0.2761 -2.5712
  449MOL0     H61947   8.394   7.404   3.634  0.3418  2.2374  6.1419
  449MOL0     H61948   8.363   7.945   3.655 -0.5865 -0.4406 -0.3596
  449MOL0     H61949   8.288   8.123   3.814  0.2966  0.9313 -0.3020
  449MOL0     H61950   7.981   8.016   4.085  0.8314 -2.7030 -1.2480
  449MOL0     H61951   8.103   8.021   4.211 -0.7806 -0.1687  0.2791
  449MOL0     H61952   7.955   8.245   4.055 -3.5139  1.6931  2.3734
  449MOL0     H61953   8.100   8.278   4.164  0.5519 -2.0408  1.5634
  449MOL0     H61954   7.851   8.139   4.259 -0.0160 -2.1809  1.8540
  449MOL0     H61955   7.998   8.194   4.346  3.9188 -0.2322 -3.4606
  449MOL0     H61956   7.769   8.343   4.225  2.3909 -1.9672 -2.2352
  449MOL0     H61957   7.919   8.434   4.258 -0.4312 -2.0310 -4.0920
  449MOL0     H61958   7.745   8.370   4.656  1.6368 -2.6970 -0.5594
  449MOL0     H61959   8.152   7.844   4.089 -1.4575 -0.0936 -0.3097
  449MOL0     H61960   8.257   7.619   4.079 -0.2923 -2.3062 -0.1770
  449MOL0     H61961   8.209   7.540   3.933 -1.3372  1.0112 -0.3449
  449MOL0     H61962   8.377   7.582   3.964  0.0080 -1.6458 -1.2539
  450MOL0     O61963   3.415   1.706   6.890 -0.5368  0.3171 -0.2130
  450MOL0     C61964   3.457   1.738   7.003  0.4856  0.3569 -0.1814
  450MOL0     O61965   3.484   1.864   7.041 -0.1930  0.2839 -0.3934
  450MOL0     C61966   3.454   1.980   6.979  0.8437 -0.7128  0.4550
  450MOL0     C61967   3.336   1.988   6.900 -0.5449  0.4312  0.1506
  450MOL0     C61968   3.303   2.097   6.828  0.3352  0.1896 -0.2885
  450MOL0     C61969   3.388   2.204   6.825 -0.3789 -0.7362 -0.8410
  450MOL0     O61970   3.345   2.319   6.757  1.0360  0.4903 -0.8778
  450MOL0     C61971   3.388   2.446   6.793 -0.4470 -0.3914  0.2122
  450MOL0     C61972   3.369   2.537   6.674 -0.3959 -1.1151  1.1422
  450MOL0     C61973   3.460   2.657   6.665  0.1032  0.3255 -1.0798
  450MOL0     C61974   3.405   2.779   6.735  0.3661 -0.0152  0.4687
  450MOL0     C61975   3.490   2.903   6.769 -0.0224 -0.5131 -0.6851
  450MOL0     C61976   3.407   3.019   6.827  0.0060  0.3360 -0.6177
  450MOL0     C61977   3.512   3.134   6.854 -0.3090  0.6361  0.2909
  450MOL0     C61978   3.460   3.237   6.950 -0.1276 -0.1344 -0.7115
  450MOL0     N61979   3.571   3.321   7.004  0.0203  0.1761  0.5191
  450MOL0     C61980   3.620   3.412   6.921 -0.3197 -0.5483 -0.0669
  450MOL0     C61981   3.730   3.456   6.989  0.7125  0.6296  0.3413
  450MOL0     C61982   3.826   3.551   6.939 -0.7601 -0.5103  0.1265
  450MOL0     C61983   3.812   3.677   7.020 -0.2699  0.0146  0.0491
  450MOL0     C61984   3.682   3.755   7.001  0.0956 -0.5326  0.0383
  450MOL0     C61985   3.622   3.780   7.143 -0.1359 -0.1038 -0.5362
  450MOL0     O61986   3.717   3.860   7.225 -0.0910 -0.1670 -0.1714
  450MOL0     C61987   3.676   3.897   7.349 -0.2287 -0.0099 -0.3297
  450MOL0     C61988   3.760   3.963   7.431  0.4869  0.5291 -1.0108
  450MOL0     C61989   3.738   3.994   7.564 -0.8900  0.3711  0.1756
  450MOL0     C61990   3.853   4.046   7.644 -0.1674  0.1152  0.6305
  450MOL0     C61991   3.621   3.933   7.622  0.1465 -0.4413  0.7046
  450MOL0     C61992   3.596   3.940   7.757  1.0163  0.6151  0.2961
  450MOL0     O61993   3.580   3.820   7.811  0.7576 -0.3639  0.4069
  450MOL0     C61994   3.556   3.810   7.949 -0.1676 -0.8846  0.2112
  450MOL0     C61995   3.665   3.781   8.029  0.3027  0.1351  0.7479
  450MOL0     C61996   3.646   3.769   8.169  0.2261  0.6370 -0.6079
  450MOL0     C61997   3.526   3.801   8.232 -0.5156 -0.7873  1.0184
  450MOL0     O61998   3.502   3.794   8.366 -0.2324  0.2260 -0.2375
  450MOL0     C61999   3.535   3.672   8.436  0.1791 -0.7128  0.0504
  450MOL0     C62000   3.470   3.548   8.387 -0.1087 -0.6929  0.6858
  450MOL0     C62001   3.316   3.550   8.400 -0.4892  0.0903 -0.3082
  450MOL0     C62002   3.274   3.566   8.552  0.7479 -0.7242 -0.6223
  450MOL0     C62003   3.119   3.544   8.574 -0.5394 -0.3310 -0.0289
  450MOL0     C62004   3.078   3.397   8.553 -0.3596 -2.0038  0.2827
  450MOL0     C62005   2.926   3.388   8.531 -0.1225  0.2121 -0.2494
  450MOL0     C62006   2.870   3.284   8.623 -0.3095  0.5996  0.3448
  450MOL0    Cl62007   2.946   3.119   8.615  0.4686 -0.7791  0.0217
  450MOL0     C62008   3.418   3.845   8.150  0.4048  0.1122  0.5456
  450MOL0     C62009   3.431   3.844   8.011 -0.1647  1.1117  1.9276
  450MOL0     O62010   3.578   4.046   7.813  1.3582  0.2528 -0.8953
  450MOL0     C62011   3.532   3.861   7.541 -0.3918 -1.0665 -0.8487
  450MOL0     C62012   3.555   3.850   7.407  0.3855 -0.0834 -0.0820
  450MOL0     N62013   3.750   3.388   7.102 -0.1509  0.1531 -1.2560
  450MOL0     N62014   3.653   3.302   7.112 -0.4592 -0.5643 -0.3126
  450MOL0     C62015   3.504   2.209   6.911 -0.0621 -0.5201  0.0282
  450MOL0     C62016   3.534   2.090   6.976 -0.1604 -0.2124  0.3638
  450MOL0     C62017   3.436   1.636   7.109  0.1774  0.2571 -0.8494
  450MOL0     C62018   3.379   1.670   7.234  0.7782 -0.2125  0.1232
  450MOL0     C62019   3.358   1.571   7.320 -0.0296 -0.2521  0.1366
  450MOL0     C62020   3.389   1.436   7.293  0.1683  0.2572 -0.0434
  450MOL0     O62021   3.373   1.341   7.389  0.6636 -0.2361 -0.1345
  450MOL0     C62022   3.249   1.331   7.461 -0.7793  0.7581 -0.3068
  450MOL0     C62023   3.287   1.252   7.590 -0.3687  0.2862 -0.1780
  450MOL0     C62024   3.232   1.111   7.581  0.1568  0.5996  0.3273
  450MOL0     C62025   3.247   1.031   7.701  0.5732  0.0640 -0.5327
  450MOL0     C62026   3.180   0.904   7.669  0.2262 -0.9233  0.1464
  450MOL0     C62027   3.120   0.802   7.649 -0.5898  0.6938  0.1247
  450MOL0     C62028   3.459   1.405   7.181  0.7765  1.0413  0.8054
  450MOL0     C62029   3.480   1.510   7.085 -0.9309  0.4915  0.4443
  450MOL0     C62030   3.567   1.465   6.959 -0.2357 -0.8734  0.1007
  450MOL0     H62031   3.267   1.904   6.893 -2.9720  2.1899  1.3112
  450MOL0     H62032   3.216   2.101   6.764  0.5940  0.3995 -0.6314
  450MOL0     H62033   3.494   2.449   6.819 -0.2017 -0.3106 -0.7589
  450MOL0     H62034   3.341   2.485   6.884  1.9694 -0.6715  1.6649
  450MOL0     H62035   3.387   2.479   6.584  1.7365  0.4303  0.4953
  450MOL0     H62036   3.261   2.554   6.664 -0.1809 -0.4722 -0.3127
  450MOL0     H62037   3.553   2.641   6.720  2.0442  3.0694 -3.2750
  450MOL0     H62038   3.476   2.686   6.560  0.0829 -1.3232 -1.5653
  450MOL0     H62039   3.316   2.802   6.677 -0.2699  0.7964  1.7188
  450MOL0     H62040   3.358   2.743   6.827  1.4821  1.0331  1.4881
  450MOL0     H62041   3.534   2.933   6.673  0.5878 -0.7895 -0.4926
  450MOL0     H62042   3.569   2.864   6.833  2.2657 -0.7926 -3.4574
  450MOL0     H62043   3.327   3.058   6.763 -1.6158  0.8507  1.5842
  450MOL0     H62044   3.364   2.980   6.920  0.3191  0.0187 -0.6069
  450MOL0     H62045   3.561   3.169   6.762  1.8124 -0.8010  0.7753
  450MOL0     H62046   3.600   3.082   6.895 -1.5460 -1.3300  0.5725
  450MOL0     H62047   3.385   3.295   6.896  0.2106  1.9321  0.8867
  450MOL0     H62048   3.411   3.185   7.033  0.1785  2.8480  1.5007
  450MOL0     H62049   3.589   3.431   6.819 -0.6815 -0.7618  0.0015
  450MOL0     H62050   3.819   3.573   6.832  2.0541  1.8415  0.2984
  450MOL0     H62051   3.926   3.510   6.952 -0.4746 -0.4377 -1.6709
  450MOL0     H62052   3.839   3.652   7.123  1.6508  5.3175  1.1356
  450MOL0     H62053   3.905   3.729   6.999  0.7743 -1.3779  1.0331
  450MOL0     H62054   3.711   3.854   6.965 -0.7176 -0.1922  0.3122
  450MOL0     H62055   3.622   3.698   6.929  0.9324 -3.5608  1.5484
  450MOL0     H62056   3.528   3.836   7.143  0.9021  1.7193 -0.7662
  450MOL0     H62057   3.608   3.683   7.191  3.9138  0.4890  2.4357
  450MOL0     H62058   3.857   3.990   7.390 -0.1319  2.3805 -1.3487
  450MOL0     H62059   3.944   4.034   7.583 -1.6655  1.3177 -2.0130
  450MOL0     H62060   3.863   3.987   7.736  1.9251  0.4894  0.7029
  450MOL0     H62061   3.819   4.144   7.678 -2.3497 -1.1569  2.3833
  450MOL0     H62062   3.766   3.772   7.989 -0.0243  0.5918 -0.1962
  450MOL0     H62063   3.735   3.737   8.221 -1.6482 -3.1275  0.6842
  450MOL0     H62064   3.641   3.647   8.426 -0.2721 -3.3121  0.8518
  450MOL0     H62065   3.514   3.689   8.542 -3.3910 -0.1412 -0.6357
  450MOL0     H62066   3.501   3.514   8.288  3.4073 -0.4793  1.5917
  450MOL0     H62067   3.516   3.466   8.443 -1.4807 -3.1016 -1.4947
  450MOL0     H62068   3.283   3.455   8.356  1.3331 -0.4275 -0.6438
  450MOL0     H62069   3.269   3.628   8.339 -0.4602  1.1352  0.9614
  450MOL0     H62070   3.305   3.667   8.581  0.9574 -0.3115 -2.2282
  450MOL0     H62071   3.334   3.493   8.607  2.1974  2.7775  2.9128
  450MOL0     H62072   3.099   3.559   8.681 -0.0993  1.3152 -0.1436
  450MOL0     H62073   3.062   3.607   8.505  0.9875 -1.0963 -2.0869
  450MOL0     H62074   3.107   3.342   8.643 -0.8878  1.2584  2.5917
  450MOL0     H62075   3.135   3.358   8.468  2.3681  3.2580 -0.6955
  450MOL0     H62076   2.903   3.355   8.429 -0.6146 -0.2286  0.0020
  450MOL0     H62077   2.878   3.485   8.544 -1.1466  0.2311 -3.4002
  450MOL0     H62078   2.763   3.264   8.606  0.3349 -2.6984 -0.5314
  450MOL0     H62079   2.881   3.323   8.724 -2.0196 -1.4520  1.4132
  450MOL0     H62080   3.327   3.871   8.204  0.5053  0.5909  0.4864
  450MOL0     H62081   3.347   3.871   7.948  0.0981 -1.9406  0.0652
  450MOL0     H62082   3.440   3.831   7.590 -0.4361 -0.7411 -0.7282
  450MOL0     H62083   3.489   3.780   7.355 -0.7028  0.4823  0.5128
  450MOL0     H62084   3.580   2.286   6.914 -0.3912 -0.2144  0.8606
  450MOL0     H62085   3.626   2.088   7.035 -2.5154 -2.9889  4.4301
  450MOL0     H62086   3.350   1.770   7.266 -1.4866 -0.3075 -1.3565
  450MOL0     H62087   3.316   1.585   7.420 -2.1800 -1.0743 -0.5835
  450MOL0     H62088   3.195   1.420   7.495 -2.2805 -0.9359  2.1223
  450MOL0     H62089   3.184   1.271   7.397 -0.7865 -1.4707  1.6267
  450MOL0     H62090   3.255   1.309   7.678  3.3358  1.5153  0.5828
  450MOL0     H62091   3.395   1.244   7.604 -0.0198  0.3966 -2.5271
  450MOL0     H62092   3.125   1.115   7.563  0.4547 -1.8704 -2.8636
  450MOL0     H62093   3.282   1.055   7.501  0.0995 -0.3986  0.9725
  450MOL0     H62094   3.200   1.086   7.784 -3.6058  0.6620 -3.0155
  450MOL0     H62095   3.353   1.019   7.725  1.3865  2.0773 -2.6750
  450MOL0     H62096   3.043   0.728   7.648 -1.8455  1.9077  1.5097
  450MOL0     H62097   3.503   1.307   7.174 -0.7486  0.2545  1.5904
  450MOL0     H62098   3.634   1.381   6.979 -0.5444 -1.4329 -1.1452
  450MOL0     H62099   3.508   1.415   6.882  0.4178 -0.1048 -0.9196
  450MOL0     H62100   3.611   1.548   6.903 -0.3872 -0.3612  0.7245
  451MOL0     O62101   7.006   2.725   4.681 -0.1652  0.1783 -0.4598
  451MOL0     C62102   6.912   2.655   4.715  0.2756 -0.7940  0.1522
  451MOL0     O62103   6.878   2.632   4.848  0.4587 -0.2177  0.6459
  451MOL0     C62104   6.973   2.682   4.931  1.3448  0.2759 -0.5204
  451MOL0     C62105   6.936   2.778   5.033  0.8766 -0.2520 -0.0907
  451MOL0     C62106   7.031   2.830   5.126  0.3129  0.4421  0.8004
  451MOL0     C62107   7.161   2.778   5.111  0.5170 -0.6235 -0.4185
  451MOL0     O62108   7.261   2.827   5.189 -0.1597  0.2678 -0.1581
  451MOL0     C62109   7.281   2.971   5.182  0.6259 -0.3291 -0.0387
  451MOL0     C62110   7.424   3.005   5.215  0.3088 -0.5998 -0.1091
  451MOL0     C62111   7.481   2.943   5.349 -0.0286 -1.0255 -1.0197
  451MOL0     C62112   7.413   3.021   5.462 -0.0868 -1.3534 -0.1714
  451MOL0     C62113   7.486   2.969   5.609  0.8105 -0.1468  0.5985
  451MOL0     C62114   7.432   2.823   5.637 -0.0063  0.2406 -0.1553
  451MOL0     C62115   7.484   2.775   5.773  0.6163 -0.2445  0.1670
  451MOL0     C62116   7.419   2.641   5.802 -0.1723 -0.5548  0.3299
  451MOL0     N62117   7.462   2.597   5.933 -0.2009  0.1734  0.0116
  451MOL0     C62118   7.409   2.638   6.054 -1.2354  0.1580  0.0688
  451MOL0     C62119   7.483   2.580   6.147 -0.5333  0.1905 -0.4035
  451MOL0     C62120   7.456   2.576   6.291  0.1491  0.2807 -0.2907
  451MOL0     C62121   7.442   2.425   6.338 -0.1209  0.2282 -0.0237
  451MOL0     C62122   7.402   2.408   6.480  0.0991  0.5130  0.2218
  451MOL0     C62123   7.251   2.408   6.497  0.1064 -0.8323  0.6562
  451MOL0     O62124   7.195   2.292   6.439  0.8387 -0.7218 -0.7549
  451MOL0     C62125   7.053   2.281   6.452 -1.0691 -0.2283 -0.4195
  451MOL0     C62126   6.996   2.211   6.356 -0.2228  1.3214  0.7612
  451MOL0     C62127   6.857   2.165   6.367  0.4238 -0.5968 -0.1897
  451MOL0     C62128   6.800   2.092   6.243  0.1190  0.2759 -0.1478
  451MOL0     C62129   6.773   2.208   6.474 -0.0156  0.5274  0.2260
  451MOL0     C62130   6.619   2.182   6.484  0.6144  0.5975  0.6155
  451MOL0     O62131   6.557   2.173   6.604 -0.2790  0.1095 -0.3861
  451MOL0     C62132   6.420   2.182   6.621  0.3565  0.4607  0.0262
  451MOL0     C62133   6.319   2.151   6.534 -0.1439  0.4804  0.0564
  451MOL0     C62134   6.184   2.167   6.574 -0.3188 -0.6489  0.4335
  451MOL0     C62135   6.152   2.225   6.699  0.0766 -0.1487  0.2973
  451MOL0     O62136   6.016   2.248   6.741 -0.3872 -0.0747  0.6160
  451MOL0     C62137   5.906   2.154   6.739 -0.2596 -0.7558 -0.3523
  451MOL0     C62138   5.917   2.034   6.840 -0.0204 -0.3812 -1.0201
  451MOL0     C62139   6.001   1.922   6.790 -0.2852  0.3274 -0.4959
  451MOL0     C62140   5.955   1.795   6.863 -0.5141  0.0524 -1.2761
  451MOL0     C62141   6.071   1.687   6.848  0.1817  0.4741 -0.2880
  451MOL0     C62142   6.045   1.579   6.953 -0.1789  0.1978 -0.7618
  451MOL0     C62143   6.136   1.452   6.955 -0.5536 -0.0444  1.2035
  451MOL0     C62144   6.059   1.316   6.977  0.2433 -0.1106  0.7988
  451MOL0    Cl62145   5.949   1.281   6.847  0.5100 -0.6228 -0.2934
  451MOL0     C62146   6.258   2.266   6.778 -0.8095  0.2031  0.2913
  451MOL0     C62147   6.386   2.236   6.739  0.9048 -1.1827 -0.5447
  451MOL0     O62148   6.560   2.197   6.376 -0.2630  0.5576 -0.8887
  451MOL0     C62149   6.834   2.298   6.570  0.1195  0.0180  0.7253
  451MOL0     C62150   6.968   2.338   6.557  0.7097  0.3382  0.2041
  451MOL0     N62151   7.593   2.518   6.083 -0.7858  0.1569  0.0017
  451MOL0     N62152   7.567   2.516   5.955 -0.6609  0.2458 -1.2060
  451MOL0     C62153   7.190   2.680   5.023  0.8671 -0.5476 -0.2782
  451MOL0     C62154   7.097   2.623   4.935  0.5704  0.4876  0.4280
  451MOL0     C62155   6.818   2.586   4.610 -0.8229  0.2080 -0.3474
  451MOL0     C62156   6.687   2.556   4.654 -0.1679 -0.5973  0.4914
  451MOL0     C62157   6.591   2.511   4.565 -0.7472  0.1902  0.2230
  451MOL0     C62158   6.632   2.481   4.429  0.5139 -0.0648 -0.3852
  451MOL0     O62159   6.539   2.414   4.355 -0.4647 -0.7967 -0.3800
  451MOL0     C62160   6.560   2.328   4.244 -0.4006 -0.6611 -0.2499
  451MOL0     C62161   6.434   2.264   4.191  1.0837 -0.0361  0.0241
  451MOL0     C62162   6.389   2.146   4.286 -0.2883  0.1012 -0.1610
  451MOL0     C62163   6.266   2.072   4.219  0.2027 -0.5357  0.0797
  451MOL0     C62164   6.144   2.148   4.208 -0.0169 -0.0825  0.1077
  451MOL0     C62165   6.038   2.199   4.184  0.2619 -0.1403  0.7937
  451MOL0     C62166   6.766   2.501   4.390 -0.9966 -0.2762 -0.2679
  451MOL0     C62167   6.858   2.569   4.469  0.8274 -0.7432 -0.1930
  451MOL0     C62168   6.990   2.598   4.403  0.4387 -0.2790 -0.2183
  451MOL0     H62169   6.831   2.801   5.026  0.9300 -0.5171 -2.4085
  451MOL0     H62170   7.003   2.899   5.205 -0.7705 -0.2267  1.0276
  451MOL0     H62171   7.218   3.029   5.251  0.9326  1.4043 -1.1366
  451MOL0     H62172   7.272   3.016   5.082 -0.5577 -3.2562 -1.3741
  451MOL0     H62173   7.488   2.975   5.132  0.0313  3.0188 -1.8532
  451MOL0     H62174   7.437   3.114   5.213  0.2297 -0.4000  3.4782
  451MOL0     H62175   7.468   2.835   5.352  0.2850 -1.0737  2.3923
  451MOL0     H62176   7.590   2.953   5.349 -0.1075  0.1717 -2.3135
  451MOL0     H62177   7.427   3.127   5.439 -3.0040 -0.9336 -0.3854
  451MOL0     H62178   7.305   3.005   5.473 -0.3121  0.0099 -0.2372
  451MOL0     H62179   7.448   3.034   5.688 -2.3811 -2.4162  1.1589
  451MOL0     H62180   7.592   2.991   5.595 -0.0274  4.6756  0.2280
  451MOL0     H62181   7.323   2.825   5.631 -0.0885  3.5150  0.4713
  451MOL0     H62182   7.471   2.752   5.564  0.1284 -0.3448  0.4683
  451MOL0     H62183   7.469   2.849   5.852 -2.0382 -0.5635  0.0515
  451MOL0     H62184   7.591   2.750   5.767  1.1067  1.5400  0.9221
  451MOL0     H62185   7.310   2.643   5.794 -0.3797  4.8598  0.7181
  451MOL0     H62186   7.466   2.571   5.732  3.3612  1.3433  0.5837
  451MOL0     H62187   7.327   2.710   6.055 -1.0879  0.3181  0.4338
  451MOL0     H62188   7.364   2.631   6.313  0.3684  0.7295 -0.4883
  451MOL0     H62189   7.521   2.631   6.359 -0.6610 -1.2899  1.8806
  451MOL0     H62190   7.368   2.378   6.274  1.5217 -0.1238 -1.7602
  451MOL0     H62191   7.538   2.377   6.319 -0.1522 -0.8772  2.2509
  451MOL0     H62192   7.443   2.312   6.515  1.8123  2.3448  3.8043
  451MOL0     H62193   7.440   2.492   6.539 -2.1950  0.4196  2.0071
  451MOL0     H62194   7.227   2.428   6.602  0.9349  4.9780  0.0529
  451MOL0     H62195   7.212   2.498   6.450 -2.5710 -1.5301  1.3619
  451MOL0     H62196   7.058   2.195   6.269  0.2838  1.1538  1.1496
  451MOL0     H62197   6.874   2.039   6.182 -0.2103 -1.1651  0.6319
  451MOL0     H62198   6.747   2.158   6.175  1.2331  1.6097  0.2240
  451MOL0     H62199   6.724   2.017   6.269  0.8976 -2.0910 -3.9691
  451MOL0     H62200   6.348   2.107   6.440 -1.5360  0.5057 -0.4066
  451MOL0     H62201   6.113   2.138   6.497  1.2472 -0.2568 -1.2322
  451MOL0     H62202   5.824   2.215   6.779 -0.6667 -0.7639 -1.1598
  451MOL0     H62203   5.877   2.109   6.644 -2.1464  0.5044 -0.4455
  451MOL0     H62204   5.953   2.074   6.935  1.4359 -1.5024 -1.0554
  451MOL0     H62205   5.816   1.996   6.853  0.2729 -0.0862  3.4757
  451MOL0     H62206   6.109   1.938   6.791 -0.2328  0.2452  2.0515
  451MOL0     H62207   5.979   1.898   6.686 -2.3207  3.0576 -0.8311
  451MOL0     H62208   5.857   1.763   6.829 -1.3846  0.9330  0.2668
  451MOL0     H62209   5.956   1.820   6.970  0.8960  1.1714 -1.5075
  451MOL0     H62210   6.074   1.643   6.748 -3.1037 -2.1366  0.5547
  451MOL0     H62211   6.168   1.730   6.873  0.5062 -1.0076  1.2369
  451MOL0     H62212   5.947   1.537   6.928 -0.1039  0.7482 -2.0764
  451MOL0     H62213   6.046   1.626   7.052  0.0569  0.5927 -0.9524
  451MOL0     H62214   6.197   1.466   7.045 -0.2736  2.9909  0.6614
  451MOL0     H62215   6.192   1.460   6.862 -0.4977 -1.3455  1.1193
  451MOL0     H62216   6.014   1.318   7.077 -4.0654  0.0719 -0.9413
  451MOL0     H62217   6.142   1.244   6.987  3.2167  2.7360 -1.1631
  451MOL0     H62218   6.238   2.322   6.868 -0.0554 -1.1381  1.3285
  451MOL0     H62219   6.462   2.260   6.813 -0.8890 -0.1730  1.0542
  451MOL0     H62220   6.778   2.340   6.652  0.4319  2.7960 -0.3806
  451MOL0     H62221   7.021   2.387   6.638  4.8860  1.0869 -2.6507
  451MOL0     H62222   7.283   2.628   5.044  0.7024 -0.8017 -0.1714
  451MOL0     H62223   7.129   2.557   4.855  3.4190  0.7387  1.2443
  451MOL0     H62224   6.657   2.583   4.754  2.4244 -1.5118  1.6107
  451MOL0     H62225   6.486   2.495   4.589 -0.8977  0.4097 -0.2696
  451MOL0     H62226   6.596   2.397   4.167 -2.4879  3.0506  1.8295
  451MOL0     H62227   6.637   2.251   4.260 -0.1541 -1.0469 -2.7948
  451MOL0     H62228   6.452   2.229   4.089 -1.4611  0.4333 -0.6528
  451MOL0     H62229   6.353   2.336   4.194 -0.1022 -1.3256  2.4916
  451MOL0     H62230   6.475   2.082   4.309 -0.0785  0.1964 -0.6713
  451MOL0     H62231   6.368   2.174   4.389  1.0433  1.5192 -0.2311
  451MOL0     H62232   6.237   1.978   4.266 -0.9925  0.7784  2.1386
  451MOL0     H62233   6.303   2.040   4.121  1.7534 -0.9286  0.7672
  451MOL0     H62234   5.948   2.248   4.153  1.0241  1.4147  0.9629
  451MOL0     H62235   6.796   2.467   4.291 -0.3300  1.8739 -0.8633
  451MOL0     H62236   7.055   2.667   4.458  0.8442 -1.2618  0.5539
  451MOL0     H62237   7.044   2.506   4.381 -0.6421 -0.8943 -0.3874
  451MOL0     H62238   6.977   2.641   4.303 -1.2167  1.2873  0.6026
  452MOL0     O62239  11.269   7.816   3.036  0.0883 -0.5698  0.2024
  452MOL0     C62240  11.283   7.705   3.004 -0.1934 -0.0021 -0.4724
  452MOL0     O62241  11.371   7.620   3.056 -0.1575 -0.7114  0.1263
  452MOL0     C62242  11.470   7.671   3.135  0.4720 -0.1344 -1.1778
  452MOL0     C62243  11.596   7.728   3.100 -0.7468 -0.0264 -0.0795
  452MOL0     C62244  11.674   7.793   3.199 -0.0101 -0.0609  0.7177
  452MOL0     C62245  11.619   7.814   3.329 -0.4358 -0.8206 -0.6275
  452MOL0     O62246  11.682   7.895   3.431 -0.4099  0.0785  0.3830
  452MOL0     C62247  11.806   7.953   3.390  0.4928 -0.5871  0.0616
  452MOL0     C62248  11.865   8.037   3.506  0.0764 -0.3611  0.2407
  452MOL0     C62249  12.016   8.046   3.517 -0.4028  1.0438 -0.0238
  452MOL0     C62250  12.053   8.089   3.662 -0.2948  0.4926 -0.1659
  452MOL0     C62251  12.207   8.100   3.685  0.8445  0.0888 -0.0397
  452MOL0     C62252  12.244   8.162   3.821 -0.3531 -0.1834 -0.6752
  452MOL0     C62253  12.186   8.089   3.942 -0.2507 -0.5229  0.1923
  452MOL0     C62254  12.188   7.934   3.948 -0.2285 -0.3991  0.1421
  452MOL0     N62255  12.327   7.888   3.956  0.0803 -0.5590  0.6165
  452MOL0     C62256  12.435   7.925   4.037 -0.3058 -0.5133 -0.3007
  452MOL0     C62257  12.537   7.852   3.992 -0.3699 -0.0337 -0.4790
  452MOL0     C62258  12.686   7.855   4.040  0.5276 -0.2948  0.1291
  452MOL0     C62259  12.719   7.990   4.098  0.0479  0.6448  0.1648
  452MOL0     C62260  12.868   8.012   4.098 -0.2922 -0.4861 -0.1476
  452MOL0     C62261  12.962   7.902   4.158  0.4389 -0.3766 -0.1966
  452MOL0     O62262  12.905   7.868   4.292 -0.2384 -0.4531 -0.0850
  452MOL0     C62263  12.950   7.750   4.345 -0.6857 -0.8982 -0.7040
  452MOL0     C62264  13.064   7.680   4.309  0.5798 -0.2286 -1.0939
  452MOL0     C62265  13.090   7.549   4.363 -0.9873 -0.9646  0.1319
  452MOL0     C62266  13.206   7.477   4.302  1.0395  0.7133  0.3288
  452MOL0     C62267  12.997   7.505   4.464  0.0573  1.3130  0.4190
  452MOL0     C62268  13.017   7.370   4.531 -0.1846  0.1676 -0.4185
  452MOL0     O62269  12.907   7.315   4.589 -1.1670  0.3131  0.1027
  452MOL0     C62270  12.921   7.188   4.652  0.1699  0.6328  0.1161
  452MOL0     C62271  12.906   7.185   4.791 -0.9613 -0.0274  0.1782
  452MOL0     C62272  12.936   7.069   4.859  0.4637  0.4252  0.1796
  452MOL0     C62273  12.978   6.959   4.796  0.3399 -0.3782  0.9519
  452MOL0     O62274  13.035   6.852   4.859 -0.2493  0.0238  0.1575
  452MOL0     C62275  12.954   6.789   4.948  0.4884 -0.2781 -0.4153
  452MOL0     C62276  13.023   6.685   5.042  0.4125 -0.1581  0.2517
  452MOL0     C62277  12.920   6.589   5.088  0.7999 -0.6099 -0.1581
  452MOL0     C62278  12.990   6.478   5.159  0.1514  0.1026 -0.4753
  452MOL0     C62279  12.901   6.373   5.229 -1.3309  0.3310 -0.2383
  452MOL0     C62280  12.956   6.243   5.282 -0.3152  1.4592 -0.7053
  452MOL0     C62281  13.052   6.193   5.179  0.5065  0.4596 -0.1406
  452MOL0     C62282  13.107   6.058   5.220  0.4032 -0.5585 -0.3344
  452MOL0    Cl62283  13.187   6.061   5.383  0.3181 -0.0516  0.8390
  452MOL0     C62284  13.001   6.966   4.654 -0.3852 -0.7428 -0.4256
  452MOL0     C62285  12.959   7.073   4.576 -0.1047 -0.3741 -0.6156
  452MOL0     O62286  13.128   7.318   4.534  0.0724  0.4463 -0.7069
  452MOL0     C62287  12.895   7.583   4.498 -0.4025  0.5690  0.5149
  452MOL0     C62288  12.865   7.694   4.428  1.0846 -0.4929 -0.1540
  452MOL0     N62289  12.491   7.768   3.890 -0.2002  0.2168 -1.6396
  452MOL0     N62290  12.366   7.795   3.870 -1.2377 -0.7478  1.3434
  452MOL0     C62291  11.496   7.766   3.362  0.7185  0.2903  0.3545
  452MOL0     C62292  11.422   7.690   3.269 -0.1666 -0.8797 -0.7583
  452MOL0     C62293  11.176   7.643   2.920 -0.1336  0.2296 -0.4813
  452MOL0     C62294  11.166   7.507   2.909  0.8764  0.8402  0.7196
  452MOL0     C62295  11.074   7.443   2.821  0.0508 -0.2868 -0.1432
  452MOL0     C62296  10.977   7.518   2.761  0.8226 -0.6187 -1.5462
  452MOL0     O62297  10.873   7.464   2.699 -0.0399 -0.1392 -1.2611
  452MOL0     C62298  10.896   7.355   2.611 -0.9197 -0.0447 -1.0126
  452MOL0     C62299  10.809   7.354   2.495 -0.6081  0.0478  0.2543
  452MOL0     C62300  10.860   7.451   2.386  0.4341 -0.1001  0.8956
  452MOL0     C62301  10.787   7.417   2.253 -0.5777  0.3996  0.4746
  452MOL0     C62302  10.837   7.506   2.142 -0.6798  0.0673 -0.4272
  452MOL0     C62303  10.876   7.566   2.044 -0.5718 -0.7932  0.5953
  452MOL0     C62304  10.984   7.661   2.775 -0.0493  0.4028 -0.4370
  452MOL0     C62305  11.091   7.724   2.836  1.1261  0.9488  0.1964
  452MOL0     C62306  11.094   7.873   2.816  0.0622  0.0675 -0.0170
  452MOL0     H62307  11.636   7.697   3.004  0.6636 -1.0070  0.7799
  452MOL0     H62308  11.770   7.837   3.175 -0.7184  1.0749 -0.1562
  452MOL0     H62309  11.786   8.012   3.300 -1.0064 -2.5226 -0.9585
  452MOL0     H62310  11.879   7.880   3.355  0.0954  0.0040 -2.1590
  452MOL0     H62311  11.828   8.141   3.506 -0.2690 -0.4818  0.4816
  452MOL0     H62312  11.822   7.992   3.596  1.1878 -0.5490  0.6970
  452MOL0     H62313  12.057   7.946   3.499 -1.2654  1.0374 -2.2784
  452MOL0     H62314  12.057   8.114   3.441 -0.5613 -0.5833 -1.6450
  452MOL0     H62315  12.007   8.188   3.676 -2.2701 -0.1663 -1.5340
  452MOL0     H62316  12.011   8.018   3.733 -2.3692  1.5065 -0.3048
  452MOL0     H62317  12.242   8.170   3.609  2.0890 -0.0168  0.4211
  452MOL0     H62318  12.251   8.001   3.679  0.5852  0.0628 -2.3600
  452MOL0     H62319  12.353   8.169   3.833 -0.2030  0.0075 -2.0613
  452MOL0     H62320  12.217   8.267   3.832 -0.4988 -0.2866  0.0657
  452MOL0     H62321  12.083   8.121   3.962 -1.3769 -3.3088 -0.7629
  452MOL0     H62322  12.244   8.124   4.028 -4.1646 -2.2144  3.9029
  452MOL0     H62323  12.145   7.902   4.043  2.7472  0.7713  2.0357
  452MOL0     H62324  12.131   7.892   3.864 -0.1428  3.3931 -2.0621
  452MOL0     H62325  12.438   7.990   4.124  1.4857 -4.1941  2.7198
  452MOL0     H62326  12.752   7.820   3.960  0.5112 -1.4999  0.6246
  452MOL0     H62327  12.703   7.781   4.118  1.6982  0.4682  0.6417
  452MOL0     H62328  12.682   8.067   4.029  0.0941 -1.7569 -2.7140
  452MOL0     H62329  12.673   8.008   4.196  2.6534  0.8073  1.4261
  452MOL0     H62330  12.907   8.033   3.998  0.6984 -0.9682  0.1211
  452MOL0     H62331  12.879   8.105   4.155 -1.1914  0.4382 -1.4164
  452MOL0     H62332  12.959   7.821   4.085  2.8571 -0.2508 -0.4977
  452MOL0     H62333  13.070   7.920   4.155  0.3805  0.3742  1.1578
  452MOL0     H62334  13.130   7.720   4.233 -0.1386  0.9090 -1.1507
  452MOL0     H62335  13.298   7.497   4.358  1.6266  0.8817 -0.6790
  452MOL0     H62336  13.218   7.499   4.196  1.6461  3.2784  0.8734
  452MOL0     H62337  13.192   7.368   4.302  1.5964  0.5124 -3.5728
  452MOL0     H62338  12.883   7.276   4.845 -2.3703 -0.0836 -0.2889
  452MOL0     H62339  12.924   7.077   4.967 -0.8034  1.0831  0.0032
  452MOL0     H62340  12.903   6.863   5.011  2.8684  0.9201  0.2108
  452MOL0     H62341  12.867   6.745   4.897 -0.5999 -1.0047  1.9473
  452MOL0     H62342  13.096   6.630   4.981 -0.5680  1.5928 -2.7162
  452MOL0     H62343  13.074   6.736   5.125 -0.3879  1.0746  0.0216
  452MOL0     H62344  12.867   6.555   4.998  1.1058 -0.2165 -0.4918
  452MOL0     H62345  12.855   6.642   5.159 -2.2380 -0.6228 -2.7244
  452MOL0     H62346  13.058   6.518   5.236 -2.8077 -0.3380  2.6048
  452MOL0     H62347  13.033   6.418   5.078 -1.2900  1.4128 -2.2887
  452MOL0     H62348  12.852   6.427   5.310  1.4724  3.6719 -0.5220
  452MOL0     H62349  12.828   6.342   5.153 -4.5500  1.8536  2.0340
  452MOL0     H62350  12.892   6.160   5.313  2.2638  0.3065  2.0188
  452MOL0     H62351  12.999   6.264   5.380  0.5680 -0.8201 -0.5305
  452MOL0     H62352  13.139   6.259   5.181 -0.5393  1.8963 -0.6124
  452MOL0     H62353  13.000   6.181   5.084  0.6068 -2.8421  0.0915
  452MOL0     H62354  13.180   6.013   5.152 -1.9741 -1.3298 -2.5413
  452MOL0     H62355  13.030   5.982   5.234  1.1921 -1.0828  1.4118
  452MOL0     H62356  13.041   6.874   4.613  4.4436 -0.3781  2.7356
  452MOL0     H62357  12.971   7.078   4.468  1.3799 -1.6231 -0.5397
  452MOL0     H62358  12.825   7.575   4.581  0.8630 -1.7544  1.4356
  452MOL0     H62359  12.772   7.748   4.446  2.9451  2.4911  1.2918
  452MOL0     H62360  11.443   7.780   3.456 -1.7025 -0.0475 -0.9081
  452MOL0     H62361  11.324   7.663   3.307 -1.3070  1.8424 -1.5447
  452MOL0     H62362  11.228   7.458   2.984  3.4538  4.0275  0.9172
  452MOL0     H62363  11.068   7.334   2.817 -2.3372 -0.1448 -1.9586
  452MOL0     H62364  11.002   7.362   2.584 -0.5696  2.0626  0.6637
  452MOL0     H62365  10.881   7.262   2.667  1.4011  0.0787 -0.0898
  452MOL0     H62366  10.701   7.372   2.505 -0.1729  3.8119 -0.2859
  452MOL0     H62367  10.816   7.252   2.455 -1.6083 -0.0032  0.1814
  452MOL0     H62368  10.840   7.552   2.423  0.0704  0.4604 -0.7495
  452MOL0     H62369  10.967   7.457   2.361 -0.2586  0.5087 -2.3332
  452MOL0     H62370  10.681   7.432   2.272  0.1071  2.1484  3.8295
  452MOL0     H62371  10.797   7.314   2.219 -2.8286  0.9854 -2.2420
  452MOL0     H62372  10.911   7.613   1.954  0.9075 -1.4250  0.8191
  452MOL0     H62373  10.903   7.724   2.739  0.7377  0.6911 -1.7382
  452MOL0     H62374  11.044   7.901   2.723 -1.1200  1.1673  0.9147
  452MOL0     H62375  11.052   7.920   2.906  0.1045 -0.1079  0.0944
  452MOL0     H62376  11.198   7.906   2.802  0.4469 -0.4435  1.4186
  453MOL0     O62377   6.367   7.390   0.773  0.3345 -0.1009  0.6893
  453MOL0     C62378   6.372   7.457   0.668 -0.1453  0.5006  0.3035
  453MOL0     O62379   6.325   7.584   0.653  0.6490  0.8474 -0.3349
  453MOL0     C62380   6.262   7.650   0.756  0.4018 -0.3239  0.2522
  453MOL0     C62381   6.126   7.639   0.781  0.6820  0.3424 -0.3082
  453MOL0     C62382   6.060   7.716   0.884 -0.4874  0.1897 -0.5024
  453MOL0     C62383   6.124   7.808   0.958  0.2998 -0.8350 -1.4071
  453MOL0     O62384   6.057   7.895   1.049 -0.0463  0.4380 -0.0709
  453MOL0     C62385   6.133   7.972   1.147  0.6527 -0.4525 -0.2340
  453MOL0     C62386   6.036   8.018   1.259 -0.5940 -0.1546  0.3786
  453MOL0     C62387   6.110   8.075   1.381  0.5769  0.5723  0.0353
  453MOL0     C62388   6.004   8.134   1.484  0.3354 -0.3065  0.3510
  453MOL0     C62389   6.072   8.213   1.595  0.7430  0.2154 -0.8482
  453MOL0     C62390   5.972   8.205   1.716 -0.2330  0.4300  0.3473
  453MOL0     C62391   6.027   8.290   1.828  0.0943 -0.6542 -0.6526
  453MOL0     C62392   5.938   8.301   1.954 -0.0543 -0.5019 -0.2864
  453MOL0     N62393   5.820   8.384   1.928  0.9664 -0.7470  0.2731
  453MOL0     C62394   5.797   8.517   1.940  0.1488 -0.4325 -0.2228
  453MOL0     C62395   5.668   8.546   1.897  0.8719 -0.1352 -0.5118
  453MOL0     C62396   5.609   8.680   1.877 -0.1179  0.4358 -0.7605
  453MOL0     C62397   5.651   8.773   1.992  1.0825 -0.0216 -0.7806
  453MOL0     C62398   5.580   8.914   1.972 -1.4173  0.1191 -0.0460
  453MOL0     C62399   5.610   9.033   2.077  0.0462  0.1163  0.6522
  453MOL0     O62400   5.504   9.134   2.076 -0.2310  0.7616 -0.0908
  453MOL0     C62401   5.475   9.213   1.969 -0.5915  0.7650 -1.0078
  453MOL0     C62402   5.340   9.234   1.958  0.0552 -0.2737 -0.6025
  453MOL0     C62403   5.287   9.310   1.856  1.3798 -0.6434  0.4065
  453MOL0     C62404   5.134   9.313   1.854  0.1458  0.3677  0.6826
  453MOL0     C62405   5.375   9.379   1.769 -0.9260  0.4717 -0.6528
  453MOL0     C62406   5.326   9.467   1.652 -0.0953  0.8957  0.1823
  453MOL0     O62407   5.416   9.569   1.630  0.1045  0.0604 -0.0292
  453MOL0     C62408   5.364   9.680   1.571 -0.2894  0.1456 -0.4628
  453MOL0     C62409   5.419   9.709   1.445 -0.0215 -0.2462 -0.1487
  453MOL0     C62410   5.369   9.824   1.376  0.6997  0.8905 -0.5046
  453MOL0     C62411   5.277   9.910   1.437  0.0827 -0.4700 -0.6022
  453MOL0     O62412   5.222  10.013   1.363 -0.5569 -1.0289  0.2530
  453MOL0     C62413   5.119  10.103   1.417 -0.2805  0.3683  0.5389
  453MOL0     C62414   4.982  10.038   1.433  0.8945  0.0559  0.0891
  453MOL0     C62415   4.892  10.060   1.316  0.2053 -0.0182  0.6757
  453MOL0     C62416   4.882   9.933   1.232 -0.1606  0.1401 -0.5912
  453MOL0     C62417   4.775   9.927   1.123 -0.2871 -0.5813 -0.2418
  453MOL0     C62418   4.631   9.899   1.177 -1.5265  0.0383  0.3348
  453MOL0     C62419   4.599   9.749   1.182 -0.3263  1.0866 -0.0114
  453MOL0     C62420   4.441   9.745   1.196 -0.2106  0.3884 -0.1945
  453MOL0    Cl62421   4.392   9.575   1.229 -0.3852 -0.1883 -0.3468
  453MOL0     C62422   5.235   9.880   1.569 -0.9465 -0.9850 -0.3259
  453MOL0     C62423   5.290   9.770   1.637  0.1187  0.6071 -0.6574
  453MOL0     O62424   5.220   9.451   1.593  0.6681  0.1051 -0.0485
  453MOL0     C62425   5.515   9.368   1.795  0.0494  0.5949 -0.1106
  453MOL0     C62426   5.562   9.286   1.895 -0.4321  0.0913  0.1682
  453MOL0     N62427   5.615   8.428   1.850  1.1628  0.4991 -0.9535
  453MOL0     N62428   5.705   8.344   1.872  0.3823 -0.0347 -0.6654
  453MOL0     C62429   6.261   7.810   0.931 -0.5036 -0.7491  1.5205
  453MOL0     C62430   6.338   7.734   0.838  0.0315 -0.0031  0.8575
  453MOL0     C62431   6.398   7.380   0.537  1.0234 -0.2535  0.0066
  453MOL0     C62432   6.464   7.431   0.428  0.3674 -0.1484 -0.0678
  453MOL0     C62433   6.495   7.358   0.316 -0.9095 -0.3654 -0.0075
  453MOL0     C62434   6.463   7.224   0.304  0.9145 -0.3753  0.3926
  453MOL0     O62435   6.495   7.152   0.193 -0.0437 -0.1675  0.3843
  453MOL0     C62436   6.485   7.004   0.196 -0.6161 -0.7930 -1.0140
  453MOL0     C62437   6.578   6.955   0.081  0.4865 -0.3437  0.2869
  453MOL0     C62438   6.588   6.800   0.082 -0.3161 -0.0754  0.1479
  453MOL0     C62439   6.671   6.725  -0.027 -0.5049 -0.3398  0.4761
  453MOL0     C62440   6.608   6.751  -0.154  0.0856 -0.2276 -0.0887
  453MOL0     C62441   6.558   6.761  -0.263  1.2480  0.2318  0.7088
  453MOL0     C62442   6.394   7.166   0.404 -0.2398  0.6997  0.0282
  453MOL0     C62443   6.348   7.237   0.519 -0.9410  0.2744 -1.0164
  453MOL0     C62444   6.240   7.176   0.606  1.0015  0.1352  0.1972
  453MOL0     H62445   6.066   7.564   0.731  1.7197 -0.5910 -0.1790
  453MOL0     H62446   5.952   7.711   0.889 -0.5190  1.0245 -0.2074
  453MOL0     H62447   6.194   8.053   1.108 -0.4213 -0.3396 -1.7822
  453MOL0     H62448   6.198   7.905   1.205  0.4174 -1.2317 -0.8515
  453MOL0     H62449   5.959   8.086   1.222 -2.5879 -2.3286  0.2766
  453MOL0     H62450   5.979   7.933   1.299 -0.7928 -0.7788 -1.1377
  453MOL0     H62451   6.165   7.991   1.423  2.6341  1.2828 -1.0981
  453MOL0     H62452   6.163   8.162   1.341 -0.7802  1.2542 -0.3424
  453MOL0     H62453   5.942   8.202   1.425  0.3295 -2.8771 -2.9250
  453MOL0     H62454   5.944   8.046   1.512  2.8216 -3.1265 -2.4028
  453MOL0     H62455   6.089   8.316   1.562  4.0760  1.1087  2.9078
  453MOL0     H62456   6.170   8.174   1.625 -0.0324  0.8034  3.0052
  453MOL0     H62457   5.873   8.242   1.687 -1.3818 -2.2581  0.6140
  453MOL0     H62458   5.965   8.104   1.756  1.8878  1.3244  3.3609
  453MOL0     H62459   6.020   8.391   1.787 -0.0319 -0.1478  0.5627
  453MOL0     H62460   6.131   8.268   1.856  0.5815 -2.5472 -3.5496
  453MOL0     H62461   5.921   8.197   1.984 -1.0548 -1.6528 -4.1927
  453MOL0     H62462   5.989   8.355   2.034 -0.9275 -0.3170  0.1543
  453MOL0     H62463   5.872   8.590   1.971 -0.9488 -0.0264  1.6534
  453MOL0     H62464   5.500   8.687   1.874 -0.0067  2.8068 -1.0567
  453MOL0     H62465   5.643   8.710   1.777  0.4890 -0.7943 -0.9391
  453MOL0     H62466   5.632   8.732   2.091  0.2035  1.5025 -0.2801
  453MOL0     H62467   5.757   8.790   1.970  1.3759 -0.6385  0.1072
  453MOL0     H62468   5.617   8.946   1.874  1.3609 -0.6562  0.6671
  453MOL0     H62469   5.471   8.905   1.979 -1.3038 -1.0202  0.4544
  453MOL0     H62470   5.614   8.991   2.178  3.2785 -1.5444 -0.0419
  453MOL0     H62471   5.712   9.067   2.058  0.4374 -1.2557  0.1913
  453MOL0     H62472   5.277   9.187   2.033 -1.8481 -1.1575 -2.6171
  453MOL0     H62473   5.095   9.211   1.861  2.3328 -0.6185 -0.4976
  453MOL0     H62474   5.101   9.346   1.756  0.8490  2.0199  0.9725
  453MOL0     H62475   5.086   9.362   1.939 -3.0556 -1.9061  0.3667
  453MOL0     H62476   5.500   9.660   1.392 -0.4776  2.0175 -3.2607
  453MOL0     H62477   5.390   9.844   1.271 -0.1450 -3.8038 -1.7731
  453MOL0     H62478   5.151  10.145   1.513  1.6528  1.0334 -0.3388
  453MOL0     H62479   5.106  10.190   1.352 -0.8410  0.4521  0.7591
  453MOL0     H62480   4.990   9.932   1.459  2.1729 -0.4332 -2.0558
  453MOL0     H62481   4.938  10.081   1.523  3.7594 -1.1101  2.1937
  453MOL0     H62482   4.926  10.149   1.262 -0.8680  0.7466  1.2133
  453MOL0     H62483   4.789  10.088   1.339 -0.5942 -1.2323 -1.1924
  453MOL0     H62484   4.852   9.842   1.285 -0.9944 -0.5026 -2.1094
  453MOL0     H62485   4.975   9.917   1.177 -0.5586  0.5644 -1.4054
  453MOL0     H62486   4.776  10.022   1.069  1.8833 -1.0960 -1.1688
  453MOL0     H62487   4.793   9.850   1.048  1.1483 -1.5036  0.9943
  453MOL0     H62488   4.563   9.954   1.112 -1.5671 -0.4917 -0.0708
  453MOL0     H62489   4.628   9.936   1.281 -0.9333 -1.0374  0.7469
  453MOL0     H62490   4.645   9.705   1.271 -0.6244 -0.6163 -0.6439
  453MOL0     H62491   4.627   9.682   1.100 -0.8432 -0.5641  1.1109
  453MOL0     H62492   4.400   9.787   1.104 -3.2251 -0.4070  0.6547
  453MOL0     H62493   4.407   9.813   1.275  3.7563  3.2014 -0.6384
  453MOL0     H62494   5.186   9.956   1.629  0.0519 -0.8527  0.3420
  453MOL0     H62495   5.279   9.759   1.744  3.9954  0.8742 -0.0946
  453MOL0     H62496   5.584   9.421   1.730  0.2672 -1.0447 -1.2815
  453MOL0     H62497   5.670   9.281   1.908 -0.6627 -0.0968  2.4662
  453MOL0     H62498   6.323   7.888   0.975  1.3712 -0.8079 -0.7932
  453MOL0     H62499   6.439   7.758   0.807  0.6577 -0.7576  2.2349
  453MOL0     H62500   6.485   7.537   0.430 -0.3606  0.0039 -0.2326
  453MOL0     H62501   6.547   7.400   0.231 -2.1631  0.3072 -0.4684
  453MOL0     H62502   6.510   6.953   0.289 -1.1767  1.8917  0.7258
  453MOL0     H62503   6.383   6.970   0.173 -0.5492 -1.1524 -0.7958
  453MOL0     H62504   6.678   6.996   0.091  0.7119 -0.8568  0.1722
  453MOL0     H62505   6.526   6.985  -0.010  0.1790  0.2197  0.6425
  453MOL0     H62506   6.625   6.756   0.175  1.6084  0.3294 -0.3776
  453MOL0     H62507   6.483   6.771   0.081 -0.2358 -0.3980  0.6119
  453MOL0     H62508   6.663   6.617  -0.020 -1.1464 -0.4930 -1.9837
  453MOL0     H62509   6.777   6.752  -0.016 -1.3591  3.4948  0.6794
  453MOL0     H62510   6.512   6.780  -0.358  3.2156 -5.2071 -1.7371
  453MOL0     H62511   6.356   7.067   0.380  0.8902  0.3388 -0.3081
  453MOL0     H62512   6.144   7.228   0.602  0.0618 -1.5368  0.1088
  453MOL0     H62513   6.214   7.074   0.575 -4.5803  0.0962  3.6309
  453MOL0     H62514   6.267   7.180   0.712  2.7133  2.1609 -0.2578
  454MOL0     O62515   1.466   7.855   8.552  0.2740  0.2365  0.4453
  454MOL0     C62516   1.580   7.895   8.543 -0.1716  0.5307  0.3401
  454MOL0     O62517   1.644   7.972   8.635  0.0241 -0.5958  0.1454
  454MOL0     C62518   1.591   7.951   8.760 -0.3753  0.2615 -0.5524
  454MOL0     C62519   1.498   8.036   8.829  0.2561 -0.6269 -0.1946
  454MOL0     C62520   1.447   7.996   8.957 -0.6464 -0.1722  0.2352
  454MOL0     C62521   1.494   7.874   9.008  0.9543  0.1663  0.7654
  454MOL0     O62522   1.455   7.813   9.126  0.2197 -0.5604 -0.5938
  454MOL0     C62523   1.346   7.880   9.196 -0.8367 -0.7036  0.5604
  454MOL0     C62524   1.299   7.796   9.305  0.6917  0.2936  0.1401
  454MOL0     C62525   1.154   7.803   9.352 -0.3650  0.6676  0.4804
  454MOL0     C62526   1.148   7.721   9.488 -0.3100 -0.3161  0.3508
  454MOL0     C62527   1.016   7.744   9.554 -0.4344  0.2406 -0.6668
  454MOL0     C62528   1.022   7.674   9.693  0.2329 -0.1153  0.2956
  454MOL0     C62529   0.887   7.673   9.762  0.3199 -0.3869 -0.1622
  454MOL0     C62530   0.877   7.537   9.842  0.0388  0.0996  0.1470
  454MOL0     N62531   0.749   7.533   9.934 -0.0674 -0.3219  0.7203
  454MOL0     C62532   0.618   7.510   9.893  0.8592 -0.6427  0.3627
  454MOL0     C62533   0.541   7.499  10.003 -0.0547 -0.9911  0.4912
  454MOL0     C62534   0.396   7.489   9.993 -1.1232  0.1437 -0.7491
  454MOL0     C62535   0.335   7.623   9.969 -0.0769  0.0403  1.1937
  454MOL0     C62536   0.317   7.709  10.091 -0.6721 -0.1184 -0.1846
  454MOL0     C62537   0.201   7.809  10.091 -0.1215 -0.4846 -0.2485
  454MOL0     O62538   0.237   7.913  10.006 -0.3450  0.2246  0.8579
  454MOL0     C62539   0.130   7.934   9.914 -0.2503 -0.6891 -0.2176
  454MOL0     C62540   0.155   7.893   9.782  0.4623 -1.0462  0.0970
  454MOL0     C62541   0.054   7.903   9.682 -0.6276  0.0539 -0.7458
  454MOL0     C62542   0.069   7.860   9.544  0.3964  0.3409 -0.1848
  454MOL0     C62543  -0.068   7.958   9.719  0.0383 -0.5016  0.6644
  454MOL0     C62544  -0.180   7.997   9.635 -0.0343 -0.8356  0.1106
  454MOL0     O62545  -0.257   8.101   9.675  0.0126 -0.5247  0.1174
  454MOL0     C62546  -0.382   8.132   9.622 -0.2746 -0.1517 -0.3000
  454MOL0     C62547  -0.386   8.174   9.491 -0.1409  0.1344  0.2348
  454MOL0     C62548  -0.514   8.182   9.431 -0.5830 -0.3760 -0.6994
  454MOL0     C62549  -0.631   8.160   9.502  0.5065  0.2176 -0.3778
  454MOL0     O62550  -0.755   8.204   9.451  1.3178 -0.1744 -0.6284
  454MOL0     C62551  -0.767   8.271   9.329  0.5473  0.0347  1.1410
  454MOL0     C62552  -0.727   8.420   9.332 -0.1215 -0.7830  2.1727
  454MOL0     C62553  -0.765   8.514   9.212  0.4432 -0.1217  0.5068
  454MOL0     C62554  -0.674   8.496   9.085 -0.1830  0.4440  0.3033
  454MOL0     C62555  -0.747   8.576   8.971 -0.4947  0.1879 -0.1680
  454MOL0     C62556  -0.693   8.533   8.832  0.3337 -0.5724  0.4090
  454MOL0     C62557  -0.776   8.593   8.721  0.1107 -0.7148  0.2030
  454MOL0     C62558  -0.852   8.497   8.641 -0.2809  0.4007  0.3087
  454MOL0    Cl62559  -0.744   8.386   8.568  0.4985 -0.1748 -0.1473
  454MOL0     C62560  -0.630   8.113   9.635  0.5067 -0.8618 -0.0199
  454MOL0     C62561  -0.503   8.106   9.694 -0.3320 -0.6325  0.6235
  454MOL0     O62562  -0.210   7.916   9.548 -0.5233 -0.3812  0.8698
  454MOL0     C62563  -0.092   7.998   9.851  0.0015 -0.1947 -0.5927
  454MOL0     C62564   0.002   7.982   9.945  0.0755  0.1832 -0.3272
  454MOL0     N62565   0.619   7.510  10.118 -0.6976  0.8286 -0.2443
  454MOL0     N62566   0.744   7.524  10.074  0.2823 -1.1501 -0.3699
  454MOL0     C62567   1.596   7.802   8.948 -0.1284  0.6961 -0.6213
  454MOL0     C62568   1.638   7.831   8.818  0.4590 -0.4467 -0.0952
  454MOL0     C62569   1.666   7.846   8.428  1.1684  0.4371  0.5616
  454MOL0     C62570   1.802   7.851   8.446  0.7656 -0.0510 -0.3214
  454MOL0     C62571   1.887   7.805   8.350 -0.1150 -0.4692  0.4324
  454MOL0     C62572   1.842   7.777   8.222  0.6541  0.1746  0.5327
  454MOL0     O62573   1.932   7.746   8.119  0.4234  0.1577  0.4608
  454MOL0     C62574   1.896   7.769   7.982 -0.2386  0.6730  0.3181
  454MOL0     C62575   2.014   7.754   7.893  0.3175 -0.5344  0.2071
  454MOL0     C62576   2.066   7.610   7.882 -0.6241  0.0353  0.3678
  454MOL0     C62577   1.977   7.520   7.792 -1.0539  0.5627 -0.0719
  454MOL0     C62578   2.036   7.388   7.762  0.2953  0.4912  0.1997
  454MOL0     C62579   2.081   7.286   7.719 -0.0764  0.1400 -1.3345
  454MOL0     C62580   1.704   7.770   8.197 -0.4397 -0.0850 -0.4908
  454MOL0     C62581   1.620   7.802   8.296  1.0916  0.3131  0.2503
  454MOL0     C62582   1.469   7.800   8.264  0.3874  0.2680  0.0815
  454MOL0     H62583   1.485   8.133   8.782  5.8976 -0.3138 -1.9488
  454MOL0     H62584   1.364   8.049   9.002 -1.8908  1.8846 -3.9474
  454MOL0     H62585   1.261   7.880   9.129 -0.0317 -5.5653 -0.8467
  454MOL0     H62586   1.377   7.982   9.224 -2.3259 -0.3794  1.1052
  454MOL0     H62587   1.309   7.690   9.278 -2.2818  0.1298 -0.7090
  454MOL0     H62588   1.357   7.819   9.395  1.3261 -1.0696  0.1002
  454MOL0     H62589   1.146   7.910   9.370 -0.2131  1.1348 -1.8653
  454MOL0     H62590   1.084   7.758   9.280  1.7552  0.6568 -1.7212
  454MOL0     H62591   1.177   7.619   9.465  2.4000  1.0569 -3.0468
  454MOL0     H62592   1.224   7.755   9.559 -0.1906 -0.1330  0.1345
  454MOL0     H62593   0.937   7.710   9.486 -2.7289 -0.0366  1.9508
  454MOL0     H62594   0.994   7.851   9.563 -1.7528  0.0981 -1.7519
  454MOL0     H62595   1.066   7.575   9.676 -0.4227 -0.2643 -0.5981
  454MOL0     H62596   1.104   7.722   9.747  0.7002  2.8048 -2.6968
  454MOL0     H62597   0.810   7.678   9.684  0.6789  2.3861 -0.4286
  454MOL0     H62598   0.860   7.758   9.825  1.0424 -2.1630  2.7500
  454MOL0     H62599   0.880   7.445   9.783 -1.6198  0.0258  0.1293
  454MOL0     H62600   0.963   7.534   9.910  2.9168  0.6320 -3.2166
  454MOL0     H62601   0.571   7.499   9.796 -0.0712 -1.1632  0.8600
  454MOL0     H62602   0.361   7.452  10.090  0.0660  0.4813 -0.1778
  454MOL0     H62603   0.367   7.421   9.912 -0.8456 -0.4390 -0.3639
  454MOL0     H62604   0.396   7.679   9.898  0.6457 -1.4940  0.5629
  454MOL0     H62605   0.238   7.597   9.925 -0.0255 -1.0300  1.6984
  454MOL0     H62606   0.297   7.641  10.175  1.4789  1.0499  1.3840
  454MOL0     H62607   0.413   7.759  10.109  1.3544 -3.2802 -1.1815
  454MOL0     H62608   0.114   7.756  10.051  0.7096 -0.6427 -1.9451
  454MOL0     H62609   0.173   7.845  10.190  0.8545  1.4946 -0.6398
  454MOL0     H62610   0.251   7.846   9.763  0.9214 -0.8058  1.6956
  454MOL0     H62611   0.041   7.944   9.479  0.1679  0.7916  0.4795
  454MOL0     H62612   0.014   7.768   9.523  2.5035 -1.4945  1.7205
  454MOL0     H62613   0.175   7.840   9.526  0.6084 -0.2621  1.5575
  454MOL0     H62614  -0.293   8.203   9.443 -0.2136 -1.2374 -0.8001
  454MOL0     H62615  -0.511   8.199   9.324  1.0277 -3.8152 -1.3087
  454MOL0     H62616  -0.731   8.208   9.247 -0.3660  0.3079  0.5132
  454MOL0     H62617  -0.874   8.272   9.308  0.6824  0.6314  0.4172
  454MOL0     H62618  -0.785   8.460   9.415 -0.1072  0.6356  1.5375
  454MOL0     H62619  -0.619   8.428   9.349 -0.0416  1.0247  1.1427
  454MOL0     H62620  -0.755   8.616   9.252 -0.0565  0.3316 -0.4851
  454MOL0     H62621  -0.868   8.496   9.180  1.3323  0.7243 -3.4065
  454MOL0     H62622  -0.682   8.392   9.053 -1.1678 -0.7007  3.8799
  454MOL0     H62623  -0.567   8.512   9.094  0.1130 -0.1209 -1.6356
  454MOL0     H62624  -0.853   8.549   8.973 -0.6553  0.2542  4.8537
  454MOL0     H62625  -0.736   8.683   8.989  0.6653 -0.0288  0.5371
  454MOL0     H62626  -0.707   8.425   8.830 -1.5338 -0.3500 -0.9030
  454MOL0     H62627  -0.590   8.570   8.832 -0.6249  2.3820  0.4946
  454MOL0     H62628  -0.715   8.656   8.655 -1.4710  0.9010  0.1975
  454MOL0     H62629  -0.854   8.659   8.761  0.9636  1.0973 -0.9892
  454MOL0     H62630  -0.911   8.547   8.563 -0.8049 -1.6206 -0.6524
  454MOL0     H62631  -0.924   8.437   8.697  2.8646 -4.0797  0.0959
  454MOL0     H62632  -0.716   8.083   9.693  0.6554 -1.1820  0.0388
  454MOL0     H62633  -0.475   8.071   9.793  3.0421 -1.7813 -0.6122
  454MOL0     H62634  -0.190   8.028   9.886  0.8626  1.6256  0.4133
  454MOL0     H62635  -0.027   8.000  10.048 -1.1378 -0.3873 -0.5568
  454MOL0     H62636   1.624   7.709   8.997  0.3138  1.9178  1.5631
  454MOL0     H62637   1.704   7.759   8.769  2.0157  1.6643 -1.2809
  454MOL0     H62638   1.845   7.900   8.533  1.0594 -0.5936 -0.1505
  454MOL0     H62639   1.993   7.826   8.366  0.3478 -1.9450 -0.4609
  454MOL0     H62640   1.832   7.684   7.955 -0.0934  0.4882  0.5468
  454MOL0     H62641   1.842   7.864   7.981  0.6778  1.1897 -0.4698
  454MOL0     H62642   2.096   7.817   7.928  0.6809 -0.7754 -0.1905
  454MOL0     H62643   1.979   7.788   7.795 -0.1445 -1.7201 -0.0534
  454MOL0     H62644   2.170   7.616   7.848  0.1985  0.5157  2.7761
  454MOL0     H62645   2.071   7.571   7.984  0.1466  0.2473  0.4176
  454MOL0     H62646   1.961   7.574   7.697  1.5242  2.5919  0.5250
  454MOL0     H62647   1.882   7.494   7.840 -0.3466  1.9186  2.2083
  454MOL0     H62648   2.125   7.190   7.699 -0.2453  0.1760 -1.8962
  454MOL0     H62649   1.673   7.739   8.098  0.9914 -1.0436 -0.6668
  454MOL0     H62650   1.446   7.771   8.161 -0.4182  3.0559 -0.5896
  454MOL0     H62651   1.414   7.735   8.333  0.5117  0.8933  0.7898
  454MOL0     H62652   1.417   7.893   8.286 -3.4197 -1.4470 -0.7909
  455MOL0     O62653  11.439   0.862  11.044  0.0546  0.8946 -0.8259
  455MOL0     C62654  11.513   0.915  10.968 -0.0519  0.7272 -0.4861
  455MOL0     O62655  11.606   1.011  11.012 -0.5075 -0.0133  1.4082
  455MOL0     C62656  11.569   1.079  11.124  0.8377  0.3266  0.1961
  455MOL0     C62657  11.446   1.149  11.142  0.4589  0.4326 -0.6095
  455MOL0     C62658  11.433   1.224  11.259 -0.0920 -0.1564  0.7634
  455MOL0     C62659  11.527   1.238  11.360  0.1432 -0.3047 -0.2148
  455MOL0     O62660  11.519   1.303  11.483  0.3656  0.5376  0.3720
  455MOL0     C62661  11.435   1.424  11.487  0.0434  0.1888 -0.3212
  455MOL0     C62662  11.427   1.464  11.637 -0.5705  0.8798 -0.7921
  455MOL0     C62663  11.334   1.589  11.657 -0.3689  1.0815 -0.9509
  455MOL0     C62664  11.307   1.636  11.807 -0.7033 -0.1438  0.1239
  455MOL0     C62665  11.217   1.760  11.816  0.2077 -0.2166  0.6159
  455MOL0     C62666  11.151   1.787  11.955 -0.3369 -0.2900  0.3211
  455MOL0     C62667  11.055   1.908  11.947 -1.1665 -0.2248  0.6057
  455MOL0     C62668  10.999   1.947  12.079 -0.3868  0.2877 -0.2062
  455MOL0     N62669  10.912   2.067  12.083 -0.4967 -0.8438 -0.7038
  455MOL0     C62670  10.770   2.064  12.072 -0.8257 -0.3585  0.1963
  455MOL0     C62671  10.724   2.194  12.077  0.0423  0.3655 -0.1281
  455MOL0     C62672  10.583   2.250  12.058 -1.1873  0.0190 -0.5622
  455MOL0     C62673  10.585   2.350  11.939  0.4983  0.2365  0.4352
  455MOL0     C62674  10.470   2.453  11.952  0.1560 -0.1698  0.7426
  455MOL0     C62675  10.521   2.575  12.026  0.5245 -0.0555  0.2527
  455MOL0     O62676  10.591   2.675  11.942  0.2181  0.4612  0.1797
  455MOL0     C62677  10.518   2.784  11.881  0.4547 -0.7194  0.4290
  455MOL0     C62678  10.376   2.786  11.858 -0.6909  0.4086 -0.5074
  455MOL0     C62679  10.322   2.890  11.783 -0.2605 -0.0017 -0.1151
  455MOL0     C62680  10.178   2.848  11.751  0.1645 -0.3650 -0.3561
  455MOL0     C62681  10.406   2.991  11.732 -1.0264  0.1976 -0.0818
  455MOL0     C62682  10.357   3.098  11.636 -0.0024 -0.1819 -0.3512
  455MOL0     O62683  10.456   3.156  11.568  0.2262 -0.6814 -0.2545
  455MOL0     C62684  10.433   3.228  11.456  0.4726 -0.1875 -0.7621
  455MOL0     C62685  10.540   3.315  11.413 -0.5379 -0.7657 -0.5616
  455MOL0     C62686  10.535   3.382  11.284  0.9494 -0.3408 -0.6106
  455MOL0     C62687  10.420   3.375  11.205  0.1970 -1.0264  0.1799
  455MOL0     O62688  10.407   3.428  11.077 -0.3897 -0.2436  0.5377
  455MOL0     C62689  10.518   3.518  11.046  0.1544 -0.5112  0.0175
  455MOL0     C62690  10.504   3.591  10.911 -0.2966  0.2783  0.5436
  455MOL0     C62691  10.513   3.747  10.922 -0.3279 -0.4120  0.1422
  455MOL0     C62692  10.400   3.816  10.995  1.0168  0.3890  0.1908
  455MOL0     C62693  10.426   3.967  11.028  0.1511  0.4274 -0.7992
  455MOL0     C62694  10.325   4.060  10.964  0.0719 -1.3442 -1.0566
  455MOL0     C62695  10.341   4.215  11.000  1.4734 -0.4307  0.1709
  455MOL0     C62696  10.442   4.285  10.917 -0.1553 -0.5303 -0.5142
  455MOL0    Cl62697  10.398   4.287  10.740 -0.1489  0.1882 -0.0627
  455MOL0     C62698  10.311   3.290  11.255  0.0008  0.4415  0.2352
  455MOL0     C62699  10.320   3.219  11.371 -0.3046  1.0053 -0.2542
  455MOL0     O62700  10.243   3.137  11.650  0.2445 -0.1561 -0.4391
  455MOL0     C62701  10.540   2.981  11.756 -0.4647 -0.0476 -1.2465
  455MOL0     C62702  10.594   2.880  11.826 -0.7077  1.2218  0.6809
  455MOL0     N62703  10.841   2.264  12.099  0.2124  0.4805 -0.5990
  455MOL0     N62704  10.947   2.195  12.108  0.0347 -0.0097  0.3303
  455MOL0     C62705  11.642   1.166  11.341  0.2234 -0.0756  0.4488
  455MOL0     C62706  11.670   1.088  11.224  0.6653  0.2028 -0.1655
  455MOL0     C62707  11.517   0.881  10.827  0.6105  0.6595 -0.1506
  455MOL0     C62708  11.401   0.884  10.759  1.1144 -0.1321  0.1193
  455MOL0     C62709  11.399   0.856  10.623  0.3216  1.1055  0.4243
  455MOL0     C62710  11.509   0.820  10.558  0.1172  0.7945  0.0348
  455MOL0     O62711  11.491   0.766  10.431 -0.5888 -0.4294  0.1195
  455MOL0     C62712  11.580   0.667  10.374  0.4267 -0.0966  0.4504
  455MOL0     C62713  11.653   0.725  10.252  0.1168 -0.2662 -0.6465
  455MOL0     C62714  11.569   0.746  10.140  0.7762 -1.8305  0.8416
  455MOL0     C62715  11.498   0.893  10.141 -0.1882  0.1693  0.6475
  455MOL0     C62716  11.400   0.881  10.037  0.7175  0.9069 -0.5060
  455MOL0     C62717  11.313   0.849   9.959  0.1103 -1.3544 -0.2693
  455MOL0     C62718  11.629   0.815  10.629  0.0909 -0.1313 -0.0828
  455MOL0     C62719  11.641   0.849  10.757 -0.9737 -0.4659 -0.4106
  455MOL0     C62720  11.785   0.853  10.815 -0.7374 -0.1136  0.8970
  455MOL0     H62721  11.373   1.167  11.064 -0.1967 -0.0573 -0.1196
  455MOL0     H62722  11.340   1.279  11.262 -0.0018  0.0069  0.6281
  455MOL0     H62723  11.332   1.398  11.461  1.4577 -4.7509 -2.0759
  455MOL0     H62724  11.480   1.507  11.431  1.8640 -0.4027  0.2024
  455MOL0     H62725  11.381   1.378  11.687  2.4414  0.6281  1.8670
  455MOL0     H62726  11.520   1.486  11.690 -1.1327 -0.8177  1.0392
  455MOL0     H62727  11.378   1.665  11.591 -1.7043  2.3602 -0.4307
  455MOL0     H62728  11.236   1.574  11.611 -0.4170  0.7496 -0.7403
  455MOL0     H62729  11.259   1.552  11.860  0.2826  0.4568  2.0529
  455MOL0     H62730  11.395   1.662  11.867 -0.0927  0.5644 -1.0683
  455MOL0     H62731  11.147   1.750  11.732 -1.1415  2.9535  1.1815
  455MOL0     H62732  11.279   1.846  11.788 -1.1492  1.2022  1.7622
  455MOL0     H62733  11.091   1.701  11.987  0.3340 -0.6220  0.7013
  455MOL0     H62734  11.222   1.804  12.036 -2.9462  3.2592  2.1525
  455MOL0     H62735  10.965   1.878  11.893 -1.0021  1.3927 -0.6476
  455MOL0     H62736  11.102   1.985  11.885  1.4973 -1.7969  0.5199
  455MOL0     H62737  10.950   1.858  12.118  0.4120  0.6035  1.6619
  455MOL0     H62738  11.075   1.979  12.152 -1.3809 -0.8678  1.3909
  455MOL0     H62739  10.710   1.978  12.043 -0.1854 -0.9280  0.5248
  455MOL0     H62740  10.559   2.298  12.153  3.3121  1.0582  0.2764
  455MOL0     H62741  10.509   2.172  12.035  0.2300 -1.2029 -1.1308
  455MOL0     H62742  10.687   2.385  11.925  1.7971 -2.9888  0.8205
  455MOL0     H62743  10.559   2.280  11.859 -0.4929 -2.5260  2.9846
  455MOL0     H62744  10.423   2.482  11.858 -0.0956 -1.3712  0.4775
  455MOL0     H62745  10.395   2.402  12.014  0.6216  0.6647  2.0460
  455MOL0     H62746  10.440   2.614  12.089 -1.7084 -1.5682 -1.5539
  455MOL0     H62747  10.590   2.532  12.100 -1.5388 -0.9230  1.7527
  455MOL0     H62748  10.314   2.708  11.900 -0.0476  0.2442  0.1769
  455MOL0     H62749  10.118   2.933  11.718 -1.1494 -1.1075  0.0471
  455MOL0     H62750  10.138   2.830  11.851 -1.7576  0.9922 -0.8343
  455MOL0     H62751  10.186   2.760  11.687 -0.8892  0.0304 -1.0605
  455MOL0     H62752  10.619   3.349  11.480  1.0458 -0.7115 -2.3580
  455MOL0     H62753  10.615   3.454  11.269  0.0066  0.5955 -1.3209
  455MOL0     H62754  10.536   3.583  11.132  1.6354 -4.0900  2.6876
  455MOL0     H62755  10.616   3.469  11.045  0.8127  0.5862 -3.7311
  455MOL0     H62756  10.591   3.574  10.847 -1.2858 -1.9385 -0.3175
  455MOL0     H62757  10.410   3.560  10.863 -1.0873 -0.0516  2.2575
  455MOL0     H62758  10.529   3.788  10.822 -0.6483 -0.8273 -0.0829
  455MOL0     H62759  10.606   3.761  10.977  0.5790  1.1491 -1.6956
  455MOL0     H62760  10.384   3.756  11.085 -3.2938  0.8811 -0.0551
  455MOL0     H62761  10.306   3.803  10.941  1.0789 -0.5511  0.2830
  455MOL0     H62762  10.415   3.969  11.136 -4.6198  3.3080 -1.0584
  455MOL0     H62763  10.528   3.986  10.991  1.5809 -4.2470  0.0791
  455MOL0     H62764  10.225   4.031  10.997  0.6028 -3.6329 -1.3057
  455MOL0     H62765  10.345   4.045  10.858  1.9051 -0.7036 -0.8475
  455MOL0     H62766  10.379   4.230  11.101  2.1144 -0.4332 -0.0595
  455MOL0     H62767  10.250   4.275  10.994  2.8828  1.8357  0.3199
  455MOL0     H62768  10.543   4.247  10.933  1.0543  2.0077 -1.5093
  455MOL0     H62769  10.459   4.389  10.948  2.5946 -0.6917 -1.2371
  455MOL0     H62770  10.222   3.272  11.195  0.7427  4.1221 -2.3093
  455MOL0     H62771  10.246   3.141  11.385  2.5602 -1.8789 -0.2024
  455MOL0     H62772  10.616   3.052  11.723  2.2375 -0.3308  3.5154
  455MOL0     H62773  10.702   2.872  11.828 -0.8120 -0.9057  0.0703
  455MOL0     H62774  11.712   1.171  11.424 -0.7621  0.5143  1.2662
  455MOL0     H62775  11.767   1.041  11.208  2.8144  3.2332  2.6753
  455MOL0     H62776  11.312   0.918  10.810  1.4123 -1.0413  1.2855
  455MOL0     H62777  11.307   0.858  10.566 -0.5808  1.1609  1.8393
  455MOL0     H62778  11.657   0.644  10.448  0.9501 -2.1286 -0.6517
  455MOL0     H62779  11.528   0.575  10.345  0.4303  0.6138 -2.0686
  455MOL0     H62780  11.732   0.660  10.212  1.5684  0.7782  0.4329
  455MOL0     H62781  11.703   0.816  10.285 -1.0150  0.0546  0.2455
  455MOL0     H62782  11.631   0.736  10.050  3.2017 -0.0759  2.1956
  455MOL0     H62783  11.497   0.664  10.126 -1.3458  0.2948 -1.8319
  455MOL0     H62784  11.574   0.968  10.117  0.1960  0.7139  3.3495
  455MOL0     H62785  11.448   0.922  10.233  1.0330  0.5824  1.1926
  455MOL0     H62786  11.235   0.836   9.887 -0.5896  1.7856 -0.2360
  455MOL0     H62787  11.724   0.783  10.588 -0.4577 -1.4507 -0.3558
  455MOL0     H62788  11.791   0.810  10.916 -1.4001 -1.2774  0.4588
  455MOL0     H62789  11.859   0.793  10.762 -0.6304  0.6236  0.1966
  455MOL0     H62790  11.838   0.949  10.808 -1.2100  0.1851  1.3548
  456MOL0     O62791   7.202   0.406   3.986 -0.6002 -0.2575 -0.0343
  456MOL0     C62792   7.093   0.465   3.976 -0.3652 -0.1552 -0.0196
  456MOL0     O62793   6.997   0.433   3.884  0.4710  0.0851  0.7812
  456MOL0     C62794   7.019   0.361   3.771 -0.4100 -0.4042  0.1039
  456MOL0     C62795   7.094   0.249   3.763  0.1108 -0.2260 -0.2462
  456MOL0     C62796   7.107   0.181   3.639 -0.2765 -0.2240 -0.2851
  456MOL0     C62797   7.027   0.211   3.533  0.2295  0.0038 -0.2252
  456MOL0     O62798   7.026   0.131   3.417 -0.4627 -0.6717  0.0536
  456MOL0     C62799   6.933   0.166   3.308 -0.7487  1.5274 -0.5287
  456MOL0     C62800   6.945   0.078   3.189 -0.0605 -1.0659  0.9171
  456MOL0     C62801   7.017   0.151   3.076  0.6277 -0.1061 -0.8167
  456MOL0     C62802   7.152   0.214   3.127 -0.0854  0.7788 -0.1705
  456MOL0     C62803   7.215   0.286   3.016 -0.0966  0.0609 -0.1568
  456MOL0     C62804   7.341   0.351   3.062 -1.0777  0.1128  0.4424
  456MOL0     C62805   7.394   0.431   2.940 -0.7314  0.6618 -0.2865
  456MOL0     C62806   7.515   0.525   2.977 -0.4797 -0.6919  0.0069
  456MOL0     N62807   7.634   0.448   3.011  0.4337  1.6186 -0.0972
  456MOL0     C62808   7.666   0.400   3.136 -1.0954 -0.2476  0.4962
  456MOL0     C62809   7.788   0.332   3.132  0.6164 -1.0693 -1.1941
  456MOL0     C62810   7.840   0.250   3.252  0.3798 -0.2446  0.0771
  456MOL0     C62811   7.918   0.344   3.347 -0.6941  0.2285  0.2889
  456MOL0     C62812   7.933   0.303   3.493 -0.0321  0.2294 -0.8510
  456MOL0     C62813   7.813   0.323   3.588  0.3709 -0.4677  0.1434
  456MOL0     O62814   7.863   0.335   3.723  0.3231 -0.1367 -0.0081
  456MOL0     C62815   7.912   0.225   3.793  0.2739 -0.3262  0.0350
  456MOL0     C62816   7.989   0.246   3.906  0.7904  0.1531  0.0854
  456MOL0     C62817   8.047   0.136   3.966 -0.2417 -0.2165 -0.1702
  456MOL0     C62818   8.114   0.174   4.095  0.4688  0.2515 -0.4682
  456MOL0     C62819   8.055   0.009   3.905  0.4020 -0.0407 -0.7569
  456MOL0     C62820   8.117  -0.100   3.970 -0.3609  1.0584  0.0144
  456MOL0     O62821   8.243  -0.074   4.018 -0.0847 -0.2010 -0.2285
  456MOL0     C62822   8.295  -0.161   4.112  0.5508 -0.3440  0.2398
  456MOL0     C62823   8.238  -0.191   4.237 -0.7323  0.6726 -0.0969
  456MOL0     C62824   8.287  -0.285   4.333  0.0293  0.0168  0.3788
  456MOL0     C62825   8.409  -0.342   4.306  0.2218 -0.2550  0.4212
  456MOL0     O62826   8.448  -0.427   4.408 -0.9781  0.3129  0.3018
  456MOL0     C62827   8.590  -0.452   4.419  0.0564 -0.6598  0.2388
  456MOL0     C62828   8.632  -0.539   4.538 -0.1166 -0.2946 -0.2991
  456MOL0     C62829   8.782  -0.558   4.571 -0.4021 -0.5094 -0.6429
  456MOL0     C62830   8.785  -0.620   4.709  0.6305 -0.1464  0.8344
  456MOL0     C62831   8.928  -0.615   4.772  0.1292  0.1421 -0.2234
  456MOL0     C62832   8.937  -0.690   4.897 -0.4498  0.7789  0.8147
  456MOL0     C62833   8.840  -0.635   4.998  0.1115 -0.0237 -0.8238
  456MOL0     C62834   8.857  -0.702   5.136  0.2770  0.7252  0.4159
  456MOL0    Cl62835   9.016  -0.669   5.207 -0.3742 -0.0330  0.0655
  456MOL0     C62836   8.479  -0.297   4.195  0.4539  0.7025 -0.2802
  456MOL0     C62837   8.422  -0.208   4.101 -0.2506 -0.2777  0.6467
  456MOL0     O62838   8.062  -0.210   3.949  0.0383  0.1492 -0.6733
  456MOL0     C62839   7.976  -0.009   3.787  0.5043 -0.0090  1.2807
  456MOL0     C62840   7.896   0.097   3.741 -0.1959  0.8928  0.7932
  456MOL0     N62841   7.819   0.335   3.005 -0.2378 -0.3736 -0.2541
  456MOL0     N62842   7.731   0.391   2.934 -0.0819 -0.1015 -1.3197
  456MOL0     C62843   6.938   0.321   3.551  0.9759 -0.1757  0.8916
  456MOL0     C62844   6.936   0.400   3.662 -0.6288  0.0087 -0.9343
  456MOL0     C62845   7.053   0.579   4.073 -0.3901  0.1509 -0.7100
  456MOL0     C62846   7.154   0.662   4.130 -0.0039 -0.0975  0.4745
  456MOL0     C62847   7.124   0.773   4.211 -0.5243  0.2627  0.3889
  456MOL0     C62848   6.988   0.796   4.244  0.0762  0.0533 -0.5807
  456MOL0     O62849   6.970   0.898   4.330 -0.5362  0.4791  0.0830
  456MOL0     C62850   6.885   1.007   4.300 -1.0502 -0.6159  0.0604
  456MOL0     C62851   6.927   1.119   4.395  0.7430  0.3768 -0.3376
  456MOL0     C62852   7.048   1.184   4.341 -0.6489  0.4920 -0.4432
  456MOL0     C62853   7.101   1.298   4.431 -1.3794 -0.0362  0.2112
  456MOL0     C62854   7.016   1.410   4.452  1.1562  0.0124  0.3047
  456MOL0     C62855   6.931   1.495   4.456 -0.4129  0.3350 -0.3658
  456MOL0     C62856   6.892   0.707   4.196 -0.6056 -0.1167 -0.3713
  456MOL0     C62857   6.920   0.613   4.107  0.1156 -0.2030  0.4189
  456MOL0     C62858   6.799   0.533   4.047 -0.4567  0.5359  0.3179
  456MOL0     H62859   7.168   0.224   3.838  1.1210  1.9543 -0.4542
  456MOL0     H62860   7.185   0.104   3.636  3.4723  3.2765 -2.0039
  456MOL0     H62861   6.951   0.270   3.278 -0.1830  1.4967 -0.2960
  456MOL0     H62862   6.831   0.153   3.347  0.4774 -1.6893  2.0606
  456MOL0     H62863   6.987  -0.022   3.206 -3.9121 -3.2101 -0.7777
  456MOL0     H62864   6.845   0.048   3.154 -0.2413 -1.6220  1.8549
  456MOL0     H62865   7.033   0.080   2.994 -1.9801 -1.6585 -0.0965
  456MOL0     H62866   6.954   0.232   3.037  0.2916 -0.3101 -0.7086
  456MOL0     H62867   7.141   0.282   3.211 -0.1314 -0.1823  0.6282
  456MOL0     H62868   7.220   0.134   3.158  0.8850  1.7068  0.1423
  456MOL0     H62869   7.149   0.362   2.974  0.6524  0.4977 -0.5651
  456MOL0     H62870   7.235   0.224   2.928  1.2121  1.6139 -1.0084
  456MOL0     H62871   7.340   0.416   3.150 -1.0623  1.7960 -0.7647
  456MOL0     H62872   7.410   0.271   3.091  1.6979  3.0748  2.6737
  456MOL0     H62873   7.312   0.496   2.907 -1.6082 -0.6535 -0.8103
  456MOL0     H62874   7.431   0.363   2.862  2.5412  0.5364  1.2247
  456MOL0     H62875   7.545   0.589   2.894  3.3005 -1.1640  0.8403
  456MOL0     H62876   7.494   0.592   3.060  2.1434 -0.9723  1.0006
  456MOL0     H62877   7.609   0.425   3.225  0.9354  1.3595  1.4175
  456MOL0     H62878   7.890   0.161   3.213 -0.3592  0.0257 -1.5784
  456MOL0     H62879   7.750   0.216   3.304 -0.8127  1.3262 -0.8757
  456MOL0     H62880   8.018   0.363   3.307  0.4645 -0.1210  2.8473
  456MOL0     H62881   7.857   0.435   3.349 -2.3066 -0.7385  4.0669
  456MOL0     H62882   7.978   0.204   3.498  0.4133  0.3843 -1.5505
  456MOL0     H62883   8.008   0.366   3.542  0.7862 -1.4899  0.1987
  456MOL0     H62884   7.780   0.426   3.569  0.9091 -0.1365  0.9040
  456MOL0     H62885   7.731   0.253   3.573  0.5535 -0.6325 -0.0839
  456MOL0     H62886   7.987   0.347   3.946 -1.7493 -0.3342  1.3733
  456MOL0     H62887   8.088   0.278   4.118 -0.2455  0.6116 -2.6417
  456MOL0     H62888   8.223   0.161   4.101  1.1534  4.6820  0.8558
  456MOL0     H62889   8.081   0.102   4.170  2.3542 -0.2841 -0.0972
  456MOL0     H62890   8.141  -0.147   4.260 -1.4953 -1.4156  0.9370
  456MOL0     H62891   8.227  -0.303   4.422 -2.4446  0.6037 -1.0619
  456MOL0     H62892   8.626  -0.503   4.329  0.1177 -3.8965  1.9506
  456MOL0     H62893   8.640  -0.355   4.430  0.9380 -0.3361 -4.3387
  456MOL0     H62894   8.582  -0.488   4.621 -3.6620 -1.3828 -1.6039
  456MOL0     H62895   8.580  -0.635   4.533  0.4024 -0.5546 -0.8586
  456MOL0     H62896   8.833  -0.461   4.573  1.0899 -1.2702 -0.4743
  456MOL0     H62897   8.840  -0.619   4.501  1.4406  1.6240 -1.0894
  456MOL0     H62898   8.744  -0.720   4.696 -1.9899  0.8903  0.5943
  456MOL0     H62899   8.722  -0.558   4.774 -0.5429  0.1045 -0.4917
  456MOL0     H62900   8.994  -0.667   4.703 -3.2609  0.0358 -3.7746
  456MOL0     H62901   8.961  -0.513   4.797 -0.3738  0.7742 -2.0215
  456MOL0     H62902   9.042  -0.690   4.929 -0.7890 -0.4010  2.0248
  456MOL0     H62903   8.918  -0.796   4.875  3.2104  0.4173 -1.3799
  456MOL0     H62904   8.737  -0.661   4.970 -0.0491  1.1167 -1.3829
  456MOL0     H62905   8.852  -0.526   5.005  2.9141 -0.3683  1.0675
  456MOL0     H62906   8.823  -0.805   5.123 -2.0681  1.8495 -5.0035
  456MOL0     H62907   8.790  -0.658   5.210  0.8959  2.0110  0.2377
  456MOL0     H62908   8.574  -0.344   4.170  0.5861  0.7486  0.1354
  456MOL0     H62909   8.482  -0.181   4.014  3.2233 -1.5588  2.4551
  456MOL0     H62910   7.959  -0.105   3.739 -0.4587  0.3967  0.7921
  456MOL0     H62911   7.831   0.086   3.654  1.4351 -2.4623 -0.2093
  456MOL0     H62912   6.877   0.353   3.467  1.7047  1.9274  1.1108
  456MOL0     H62913   6.865   0.482   3.670 -4.1952 -2.8865 -0.5998
  456MOL0     H62914   7.262   0.648   4.123 -0.2014 -1.5666  0.0204
  456MOL0     H62915   7.205   0.835   4.247 -0.2759  2.9389 -3.9237
  456MOL0     H62916   6.891   1.040   4.196  1.2853 -2.2356 -0.3897
  456MOL0     H62917   6.787   0.967   4.328 -0.4708 -1.3562  1.1124
  456MOL0     H62918   6.949   1.073   4.492  1.5691  2.3986  0.4951
  456MOL0     H62919   6.847   1.193   4.398 -0.9245 -1.3642 -0.5491
  456MOL0     H62920   7.131   1.114   4.331 -2.3238 -1.8640  1.2713
  456MOL0     H62921   7.032   1.225   4.240  2.7869  4.2013  0.2853
  456MOL0     H62922   7.196   1.324   4.382 -1.1836  0.3320  0.7800
  456MOL0     H62923   7.129   1.274   4.534 -2.8833 -0.4403  0.5442
  456MOL0     H62924   6.858   1.570   4.430  0.0322  0.2203 -1.9891
  456MOL0     H62925   6.788   0.720   4.221  0.1188 -0.0936  3.1385
  456MOL0     H62926   6.704   0.574   4.085 -1.2042  0.3050 -1.2001
  456MOL0     H62927   6.805   0.555   3.940 -0.3655  1.2602  0.4671
  456MOL0     H62928   6.809   0.431   4.084 -0.8609  0.3500 -0.0706
  457MOL0     O62929   3.096   2.119   1.427  0.8153 -0.3522  0.1558
  457MOL0     C62930   3.041   2.059   1.331 -0.4087 -0.0751  0.0737
  457MOL0     O62931   2.929   1.990   1.339 -0.4344 -1.1119 -0.5589
  457MOL0     C62932   2.847   2.002   1.451 -0.3321 -0.3233  0.0766
  457MOL0     C62933   2.873   1.961   1.582  0.0220  0.9443 -0.3680
  457MOL0     C62934   2.778   1.971   1.679 -0.2121  0.0887 -0.4140
  457MOL0     C62935   2.653   2.017   1.645 -0.3920 -0.2729 -0.5417
  457MOL0     O62936   2.546   2.026   1.740 -0.1636  0.4400  0.8124
  457MOL0     C62937   2.540   1.950   1.860 -0.0171  0.0260 -0.1835
  457MOL0     C62938   2.500   1.805   1.823 -0.4513 -0.3993  0.0067
  457MOL0     C62939   2.383   1.784   1.728 -0.2810  0.2739 -0.3211
  457MOL0     C62940   2.348   1.632   1.721 -0.0161 -0.1522 -0.1561
  457MOL0     C62941   2.214   1.644   1.640  0.1654  0.0381 -0.0609
  457MOL0     C62942   2.158   1.506   1.606 -0.3413 -0.2391  0.1083
  457MOL0     C62943   2.068   1.513   1.482  0.1381  0.3176 -0.2052
  457MOL0     C62944   1.961   1.612   1.477  0.9976 -0.5555  0.1956
  457MOL0     N62945   1.832   1.559   1.428 -0.3900  0.2265  0.4551
  457MOL0     C62946   1.752   1.453   1.483 -0.6412  0.5760 -0.2459
  457MOL0     C62947   1.647   1.440   1.397  0.1978 -0.5404 -0.6562
  457MOL0     C62948   1.535   1.332   1.406  0.0063  0.1957  0.4017
  457MOL0     C62949   1.595   1.194   1.365  0.9454  0.0481 -0.7478
  457MOL0     C62950   1.706   1.138   1.463 -0.2113 -0.3111  0.9440
  457MOL0     C62951   1.747   0.993   1.425  0.5957  0.0447  0.0267
  457MOL0     O62952   1.861   0.942   1.493  0.2720  0.2874  0.8708
  457MOL0     C62953   1.867   0.923   1.626 -0.2019  1.0296  0.5265
  457MOL0     C62954   1.812   0.815   1.695 -0.6543 -0.3800  0.2605
  457MOL0     C62955   1.831   0.793   1.828 -0.1232 -0.2456  0.3807
  457MOL0     C62956   1.787   0.652   1.876 -0.1377  0.2003 -0.1504
  457MOL0     C62957   1.900   0.890   1.908  1.2124  0.2034 -0.2668
  457MOL0     C62958   1.910   0.886   2.049  0.1050 -0.1936 -0.2865
  457MOL0     O62959   1.807   0.827   2.119  0.7502 -0.7091 -0.0587
  457MOL0     C62960   1.830   0.802   2.248  0.3504 -0.7184  1.1225
  457MOL0     C62961   1.844   0.673   2.295 -0.1100 -0.1359  0.8362
  457MOL0     C62962   1.860   0.647   2.423 -0.5005  0.8096 -0.0922
  457MOL0     C62963   1.862   0.758   2.523 -0.8421  0.1019 -1.0736
  457MOL0     O62964   1.873   0.710   2.653  0.1135 -0.6705 -0.3186
  457MOL0     C62965   1.875   0.816   2.741  0.5592 -0.4577 -0.6256
  457MOL0     C62966   1.882   0.757   2.877 -0.5149  0.9589 -0.1360
  457MOL0     C62967   2.026   0.694   2.900 -0.5606  1.0575 -0.2089
  457MOL0     C62968   2.060   0.703   3.047 -0.1876 -0.0625  0.8235
  457MOL0     C62969   2.155   0.590   3.079  0.3489 -0.7163 -0.6831
  457MOL0     C62970   2.161   0.588   3.228  0.1387  0.4790 -0.3028
  457MOL0     C62971   2.277   0.499   3.280 -0.1689 -0.3739 -0.5819
  457MOL0     C62972   2.280   0.479   3.428 -0.3844  0.5619  0.0756
  457MOL0    Cl62973   2.283   0.639   3.519 -0.3537  0.1787  0.1970
  457MOL0     C62974   1.824   0.884   2.476  0.0473 -1.3759  0.9285
  457MOL0     C62975   1.811   0.907   2.339  0.1486 -0.3714  0.4865
  457MOL0     O62976   2.017   0.943   2.090 -0.3747 -0.3490 -0.2151
  457MOL0     C62977   1.949   1.009   1.842 -0.4951  0.5115 -0.1516
  457MOL0     C62978   1.934   1.019   1.708  0.6009 -0.1644 -0.0847
  457MOL0     N62979   1.677   1.525   1.286  0.2658 -0.5736 -0.4112
  457MOL0     N62980   1.775   1.589   1.305 -0.3318 -0.6118 -0.2873
  457MOL0     C62981   2.620   2.057   1.513  0.1866  0.1245  0.3808
  457MOL0     C62982   2.718   2.045   1.413  0.1506  0.3180 -0.4280
  457MOL0     C62983   3.125   2.034   1.209 -0.2854  0.1696  0.5909
  457MOL0     C62984   3.265   2.061   1.208  0.1606 -0.5613 -0.0112
  457MOL0     C62985   3.345   2.051   1.098  0.3686  0.2303 -0.5702
  457MOL0     C62986   3.295   1.986   0.985 -0.1426 -0.3212 -1.1193
  457MOL0     O62987   3.389   1.960   0.884 -0.1888  0.0145 -0.5001
  457MOL0     C62988   3.352   1.879   0.766 -0.4861 -0.4450 -0.2636
  457MOL0     C62989   3.308   1.967   0.647 -0.4000  0.3168 -0.1471
  457MOL0     C62990   3.413   2.073   0.601  0.0552 -0.3465 -1.0247
  457MOL0     C62991   3.543   2.005   0.544 -0.7590 -0.5141  0.5002
  457MOL0     C62992   3.624   2.113   0.483 -0.2389 -1.1717  0.7827
  457MOL0     C62993   3.695   2.195   0.420 -0.6564  1.0168 -0.8525
  457MOL0     C62994   3.157   1.972   0.967  0.0492 -0.1031  0.3896
  457MOL0     C62995   3.071   1.989   1.081  0.3823  0.0592  0.0687
  457MOL0     C62996   2.923   1.982   1.060 -0.1651 -0.4741  0.6808
  457MOL0     H62997   2.971   1.930   1.614  0.6909  1.2787 -1.9615
  457MOL0     H62998   2.816   1.945   1.778  2.5346 -1.1818 -1.6858
  457MOL0     H62999   2.479   1.999   1.936  3.9951  2.1837  1.9783
  457MOL0     H63000   2.644   1.948   1.894 -0.1472  1.0328  0.2982
  457MOL0     H63001   2.589   1.749   1.794  0.7046 -0.0313  2.5382
  457MOL0     H63002   2.471   1.757   1.917  0.0996 -0.3845  0.1874
  457MOL0     H63003   2.302   1.837   1.778 -1.3100 -0.3429 -1.2725
  457MOL0     H63004   2.398   1.825   1.627 -0.2258  3.1169  0.7464
  457MOL0     H63005   2.426   1.573   1.673  0.8227 -0.5766  1.6614
  457MOL0     H63006   2.324   1.598   1.822  2.7629  0.7193  0.8820
  457MOL0     H63007   2.224   1.688   1.540 -0.8240 -1.0762 -0.6807
  457MOL0     H63008   2.143   1.702   1.698 -0.5870 -0.2957 -0.6373
  457MOL0     H63009   2.246   1.446   1.579  0.5563  0.9369  0.2999
  457MOL0     H63010   2.120   1.461   1.698 -1.5104 -0.1000 -0.2892
  457MOL0     H63011   2.012   1.420   1.490 -2.6438  2.0424  3.2379
  457MOL0     H63012   2.135   1.522   1.396 -0.9636  3.2067 -0.8952
  457MOL0     H63013   1.938   1.636   1.582  0.3434 -0.6376  0.0754
  457MOL0     H63014   2.001   1.694   1.417  0.8234 -0.1486  0.6258
  457MOL0     H63015   1.771   1.392   1.570 -0.8310 -0.0424 -0.6280
  457MOL0     H63016   1.465   1.350   1.324 -1.6542  1.2500  1.9892
  457MOL0     H63017   1.474   1.329   1.496 -0.5482  2.5792  0.1631
  457MOL0     H63018   1.508   1.129   1.362  0.8963 -0.2606  2.8033
  457MOL0     H63019   1.638   1.205   1.265 -3.1169 -2.9557 -3.1296
  457MOL0     H63020   1.791   1.206   1.448 -1.1970  1.4447  2.8097
  457MOL0     H63021   1.670   1.144   1.566  1.2283  0.7211  1.4251
  457MOL0     H63022   1.659   0.928   1.431 -1.1337  2.1401 -1.0945
  457MOL0     H63023   1.767   1.002   1.318 -0.1571  3.4476  0.0702
  457MOL0     H63024   1.777   0.732   1.635  0.0941 -0.2657 -0.3706
  457MOL0     H63025   1.680   0.645   1.898  0.2469 -2.0738  1.2612
  457MOL0     H63026   1.840   0.621   1.967 -0.9101  0.6337  0.4683
  457MOL0     H63027   1.823   0.581   1.802  0.2013 -0.9576  1.0759
  457MOL0     H63028   1.848   0.588   2.228  1.4777 -1.4927  2.5515
  457MOL0     H63029   1.865   0.542   2.450 -0.9202  0.5755 -0.9135
  457MOL0     H63030   1.957   0.888   2.737  0.7434 -0.6307  0.0118
  457MOL0     H63031   1.777   0.864   2.738 -1.8543 -4.7908 -0.1074
  457MOL0     H63032   1.859   0.826   2.959 -0.1979  0.8607  0.0396
  457MOL0     H63033   1.800   0.685   2.876  0.3778 -0.0957  0.1247
  457MOL0     H63034   2.105   0.750   2.848  2.1281 -0.2488  2.2031
  457MOL0     H63035   2.021   0.588   2.873  2.3043  0.6204  0.6147
  457MOL0     H63036   1.965   0.682   3.096  0.1792 -1.0941  1.1154
  457MOL0     H63037   2.102   0.800   3.073  0.7319 -0.5794  1.3093
  457MOL0     H63038   2.105   0.496   3.053  0.0474 -0.2318 -1.9030
  457MOL0     H63039   2.250   0.604   3.026  0.9238  0.3235  0.5538
  457MOL0     H63040   2.068   0.553   3.274  0.5439  0.3628  0.4520
  457MOL0     H63041   2.185   0.689   3.264  2.1698  0.0908 -0.4159
  457MOL0     H63042   2.370   0.550   3.251  1.3329 -0.6168  3.1728
  457MOL0     H63043   2.279   0.404   3.224 -1.4547  0.9962 -3.1191
  457MOL0     H63044   2.381   0.440   3.445 -0.0422  1.2419 -0.3617
  457MOL0     H63045   2.214   0.403   3.469 -0.1989 -0.4236 -1.3779
  457MOL0     H63046   1.826   0.975   2.535  2.0770  0.0198 -1.1161
  457MOL0     H63047   1.781   1.007   2.307 -2.1192 -1.3214 -0.5856
  457MOL0     H63048   2.004   1.093   1.885  0.4280  1.1991 -2.4805
  457MOL0     H63049   1.984   1.104   1.663 -1.5002  1.8429  1.1180
  457MOL0     H63050   2.521   2.100   1.495  0.5549 -0.2844 -3.4763
  457MOL0     H63051   2.703   2.069   1.308  0.5126  1.4247 -0.2410
  457MOL0     H63052   3.316   2.081   1.301 -0.8519 -0.4025  0.5177
  457MOL0     H63053   3.450   2.067   1.118  0.0551  1.7099  0.0955
  457MOL0     H63054   3.435   1.815   0.733 -1.2199 -0.3995 -2.3653
  457MOL0     H63055   3.270   1.813   0.796  0.8072 -0.3241  4.1628
  457MOL0     H63056   3.210   2.009   0.672 -1.9338 -2.0837 -1.6716
  457MOL0     H63057   3.276   1.915   0.556 -0.8559  4.7278 -2.7693
  457MOL0     H63058   3.380   2.148   0.528  4.3218  3.0562  0.1410
  457MOL0     H63059   3.447   2.120   0.694 -1.0350 -0.8403 -0.3616
  457MOL0     H63060   3.521   1.921   0.477  0.9084 -2.8962  2.7272
  457MOL0     H63061   3.599   1.958   0.625 -0.6875 -3.4980 -1.1391
  457MOL0     H63062   3.757   2.256   0.357 -0.6281  2.1155  0.1844
  457MOL0     H63063   3.112   1.934   0.875 -0.4515  0.7285  0.2806
  457MOL0     H63064   2.902   1.885   1.105 -2.7595 -0.0847  0.4949
  457MOL0     H63065   2.864   2.053   1.119  0.5123 -1.0989  2.1639
  457MOL0     H63066   2.891   1.967   0.956  2.1761 -2.0831  0.1218
  458MOL0     O63067   1.816   0.950   0.772  0.2256 -0.9591  0.0373
  458MOL0     C63068   1.790   1.047   0.842  0.7865 -0.5690 -0.5432
  458MOL0     O63069   1.673   1.122   0.834 -0.6815  0.2122  0.2297
  458MOL0     C63070   1.596   1.108   0.726 -0.1877 -0.1662 -0.3487
  458MOL0     C63071   1.465   1.080   0.749  0.5550  1.5861 -0.0376
  458MOL0     C63072   1.360   1.075   0.654  0.2098  0.3602  0.0561
  458MOL0     C63073   1.380   1.106   0.521 -0.2653  0.4354  0.0703
  458MOL0     O63074   1.285   1.117   0.422  0.8166 -0.4439  0.1667
  458MOL0     C63075   1.225   0.984   0.408 -0.1482 -0.0567 -0.6059
  458MOL0     C63076   1.083   1.006   0.356  0.3646  0.4303  0.1662
  458MOL0     C63077   1.003   0.873   0.366  0.0129 -0.5188  0.2844
  458MOL0     C63078   0.873   0.880   0.443 -0.7570  0.2304 -0.0901
  458MOL0     C63079   0.828   0.739   0.488 -0.2910  0.0517  0.4001
  458MOL0     C63080   0.674   0.730   0.469  0.3626 -0.3226  0.2192
  458MOL0     C63081   0.618   0.599   0.462  0.4107 -0.2457 -0.4019
  458MOL0     C63082   0.480   0.592   0.393 -0.1026  0.0924 -0.6174
  458MOL0     N63083   0.481   0.600   0.246 -0.4350  0.6953  0.1433
  458MOL0     C63084   0.499   0.502   0.144 -0.1237 -0.2401 -0.6973
  458MOL0     C63085   0.493   0.557   0.027 -0.0895 -0.1790 -0.3424
  458MOL0     C63086   0.496   0.472  -0.099 -0.8384  0.1744 -0.5884
  458MOL0     C63087   0.436   0.544  -0.213 -0.0304  0.2658  0.3659
  458MOL0     C63088   0.545   0.618  -0.283 -1.1245 -0.5715  0.3729
  458MOL0     C63089   0.508   0.691  -0.415  0.2442  0.3576 -0.4451
  458MOL0     O63090   0.402   0.790  -0.384 -0.6179  0.1550 -0.0415
  458MOL0     C63091   0.432   0.907  -0.333 -1.0682 -0.5776 -0.5341
  458MOL0     C63092   0.411   0.927  -0.202  0.6435 -0.4147  0.1921
  458MOL0     C63093   0.415   1.046  -0.145 -0.9337 -0.5889 -0.5965
  458MOL0     C63094   0.383   1.046   0.003 -0.6693  0.2839  0.4260
  458MOL0     C63095   0.426   1.170  -0.225 -0.1582 -0.2540  0.0655
  458MOL0     C63096   0.403   1.313  -0.171 -1.0550 -0.7500 -0.6582
  458MOL0     O63097   0.383   1.414  -0.263  0.2949 -0.9911 -0.5021
  458MOL0     C63098   0.311   1.522  -0.231 -0.3254 -0.5968 -0.1904
  458MOL0     C63099   0.198   1.529  -0.148  0.4977 -0.6717 -0.3859
  458MOL0     C63100   0.122   1.645  -0.136 -0.1216 -1.2779  0.4043
  458MOL0     C63101   0.148   1.756  -0.218 -0.4674 -0.3733 -0.5552
  458MOL0     O63102   0.062   1.866  -0.196  0.0079  0.3831 -0.0292
  458MOL0     C63103   0.070   1.987  -0.270  0.0016  0.0078 -0.1473
  458MOL0     C63104   0.136   2.092  -0.186 -0.6156  0.6539  0.6679
  458MOL0     C63105   0.037   2.159  -0.096 -0.0540 -0.0546 -0.2647
  458MOL0     C63106   0.117   2.242   0.002 -0.5590  0.1874 -0.7690
  458MOL0     C63107   0.036   2.353   0.078 -0.9033 -0.4081  0.3241
  458MOL0     C63108   0.034   2.490   0.006 -0.1581 -0.5315  0.2056
  458MOL0     C63109  -0.071   2.591   0.071  0.1673 -0.8618  0.2029
  458MOL0     C63110  -0.028   2.645   0.210 -0.2105  0.0142  0.3013
  458MOL0    Cl63111  -0.144   2.765   0.285  0.1240  0.1277 -0.0182
  458MOL0     C63112   0.249   1.747  -0.306 -0.4220 -0.8992  0.2956
  458MOL0     C63113   0.333   1.634  -0.314 -0.1526  0.7930 -0.1172
  458MOL0     O63114   0.422   1.332  -0.045  0.2519 -0.2169  0.1234
  458MOL0     C63115   0.443   1.154  -0.360  0.6485  1.3767 -0.3334
  458MOL0     C63116   0.457   1.020  -0.410  0.4696  0.1335  0.3516
  458MOL0     N63117   0.465   0.693   0.060  0.5316  0.0107  1.0121
  458MOL0     N63118   0.454   0.719   0.183 -0.0551  0.3803 -0.2938
  458MOL0     C63119   1.520   1.142   0.486 -0.0479  0.7411 -0.6419
  458MOL0     C63120   1.622   1.142   0.592 -0.5674 -0.6798  0.1422
  458MOL0     C63121   1.872   1.081   0.970 -0.7371 -0.4837  0.3168
  458MOL0     C63122   1.977   0.989   1.005  0.2455  0.2323 -0.3334
  458MOL0     C63123   2.045   0.996   1.122  1.2786  0.1658 -0.2672
  458MOL0     C63124   2.024   1.097   1.216 -0.2972 -0.2017  0.5942
  458MOL0     O63125   2.098   1.108   1.331 -0.2542 -0.7082 -0.4340
  458MOL0     C63126   2.225   1.046   1.349 -0.1408  0.3939  0.5369
  458MOL0     C63127   2.293   1.109   1.467  0.3692 -1.3504 -0.1452
  458MOL0     C63128   2.423   1.052   1.517  0.4541 -0.4316 -0.1283
  458MOL0     C63129   2.470   1.117   1.654 -0.2279  0.0241 -0.3366
  458MOL0     C63130   2.399   1.036   1.756  0.0770 -0.0625 -0.4342
  458MOL0     C63131   2.369   0.986   1.865  0.1977 -0.9863  0.4463
  458MOL0     C63132   1.936   1.198   1.176  0.0353  0.2344  0.0958
  458MOL0     C63133   1.866   1.191   1.055  0.2358  0.0435  0.4237
  458MOL0     C63134   1.761   1.302   1.026 -0.2710  0.6514  0.3905
  458MOL0     H63135   1.442   1.053   0.851 -1.7569  3.6497  0.0880
  458MOL0     H63136   1.257   1.057   0.682 -0.6761 -0.7750 -3.4080
  458MOL0     H63137   1.211   0.927   0.501  1.3247  0.4168 -0.0566
  458MOL0     H63138   1.290   0.927   0.342 -1.3769  0.3216 -2.1905
  458MOL0     H63139   1.052   1.089   0.420  1.1441  3.0172 -2.5824
  458MOL0     H63140   1.085   1.038   0.251 -0.4600  3.1229  0.9061
  458MOL0     H63141   0.974   0.854   0.262  0.2011  0.4816  0.0392
  458MOL0     H63142   1.061   0.787   0.399 -1.4064 -1.0858  1.4083
  458MOL0     H63143   0.904   0.940   0.529  0.9143 -3.6725  2.3137
  458MOL0     H63144   0.798   0.941   0.393  0.5119  1.4805 -0.5261
  458MOL0     H63145   0.847   0.717   0.593 -1.6298 -2.1426  0.2272
  458MOL0     H63146   0.880   0.664   0.428  1.9112  1.3656  0.5382
  458MOL0     H63147   0.626   0.795   0.542  1.4578  0.0928  0.6022
  458MOL0     H63148   0.671   0.776   0.370  0.2074  1.3841  0.9899
  458MOL0     H63149   0.594   0.582   0.568  0.2820 -1.1367 -0.5625
  458MOL0     H63150   0.683   0.522   0.419 -1.0547 -0.8673 -1.6318
  458MOL0     H63151   0.443   0.493   0.420 -2.3198  0.8032 -0.8965
  458MOL0     H63152   0.413   0.663   0.443  0.6862 -0.3559  1.1444
  458MOL0     H63153   0.479   0.397   0.163 -0.9900 -0.0601 -0.5759
  458MOL0     H63154   0.442   0.377  -0.086  1.9716 -1.1982  2.0253
  458MOL0     H63155   0.599   0.452  -0.129 -0.5016  2.5551 -1.1811
  458MOL0     H63156   0.395   0.469  -0.281  0.7253  1.2611 -1.2460
  458MOL0     H63157   0.351   0.606  -0.181 -2.6136 -1.5336 -2.4534
  458MOL0     H63158   0.595   0.692  -0.219 -1.6838  0.3594 -0.2386
  458MOL0     H63159   0.617   0.544  -0.319 -1.0573  0.9195 -2.9079
  458MOL0     H63160   0.606   0.727  -0.449  0.9667 -0.2761  0.8546
  458MOL0     H63161   0.477   0.617  -0.489 -3.0812 -1.8314  2.7975
  458MOL0     H63162   0.377   0.842  -0.143 -1.6317  3.1713  4.7511
  458MOL0     H63163   0.297   1.110   0.019 -1.0891 -0.2159  0.2063
  458MOL0     H63164   0.465   1.073   0.071  0.4551 -1.8327  0.0156
  458MOL0     H63165   0.363   0.950   0.052 -0.9987  1.3090  2.3612
  458MOL0     H63166   0.164   1.447  -0.087  0.0427  0.1061  0.4187
  458MOL0     H63167   0.059   1.635  -0.049  1.4844  1.3884  1.9885
  458MOL0     H63168   0.128   1.967  -0.361 -1.7954  0.5209 -1.4770
  458MOL0     H63169  -0.022   2.033  -0.308  1.6851  2.1870 -1.8499
  458MOL0     H63170   0.222   2.041  -0.141  0.1307 -2.2172 -3.4445
  458MOL0     H63171   0.179   2.163  -0.257 -0.7218 -2.3579 -2.7266
  458MOL0     H63172  -0.031   2.091  -0.044 -3.5026  0.6659 -3.3518
  458MOL0     H63173  -0.022   2.231  -0.154 -1.3407  0.1845  1.2812
  458MOL0     H63174   0.197   2.292  -0.053  2.1473 -1.9420  0.9928
  458MOL0     H63175   0.146   2.162   0.071  0.9733 -0.3909 -2.0252
  458MOL0     H63176  -0.068   2.319   0.084 -2.5974  3.4317 -2.7120
  458MOL0     H63177   0.070   2.367   0.181 -2.0927  4.9370  0.2891
  458MOL0     H63178   0.010   2.474  -0.100  0.6314  5.2340 -1.2140
  458MOL0     H63179   0.130   2.543   0.007  0.3116 -1.1832 -2.6093
  458MOL0     H63180  -0.165   2.536   0.072  0.3174 -1.1162  0.2807
  458MOL0     H63181  -0.096   2.680   0.013  1.2489 -1.1269 -0.6913
  458MOL0     H63182   0.064   2.703   0.195 -0.1381 -0.8373 -4.1761
  458MOL0     H63183  -0.011   2.560   0.276 -2.2616 -0.4387  0.2919
  458MOL0     H63184   0.281   1.830  -0.367  1.2711 -2.3959 -0.9778
  458MOL0     H63185   0.413   1.626  -0.387 -4.1949 -0.1885 -4.9267
  458MOL0     H63186   0.455   1.238  -0.427  0.8731 -0.4004 -2.6655
  458MOL0     H63187   0.487   0.998  -0.512 -2.9055  0.3852 -0.8304
  458MOL0     H63188   1.529   1.167   0.381  0.1134  0.0967 -0.7826
  458MOL0     H63189   1.716   1.176   0.550 -2.2681  2.3229 -1.5441
  458MOL0     H63190   1.996   0.902   0.943  0.8579 -0.4844  0.8222
  458MOL0     H63191   2.122   0.922   1.139 -0.7264 -1.6989  1.2525
  458MOL0     H63192   2.223   0.938   1.366  0.6976  0.0800 -1.1430
  458MOL0     H63193   2.296   1.052   1.266  0.6738  0.3322  1.2094
  458MOL0     H63194   2.218   1.103   1.546 -2.2307  0.5800 -2.2748
  458MOL0     H63195   2.301   1.217   1.448  1.0334 -1.4460 -0.4202
  458MOL0     H63196   2.432   0.943   1.524 -1.1615 -0.6320 -0.6404
  458MOL0     H63197   2.502   1.072   1.445 -0.1967 -1.7041 -1.2483
  458MOL0     H63198   2.437   1.219   1.671 -1.4243 -0.4628  0.4375
  458MOL0     H63199   2.577   1.100   1.668  0.2041  1.5558 -1.5793
  458MOL0     H63200   2.319   0.960   1.956  0.7172  0.1152  1.0699
  458MOL0     H63201   1.923   1.285   1.238  0.2829  0.9319 -0.8090
  458MOL0     H63202   1.660   1.269   1.053 -0.1332  1.2048  1.6588
  458MOL0     H63203   1.788   1.393   1.080 -1.1490  0.4492  1.2157
  458MOL0     H63204   1.754   1.338   0.923  1.3664  1.6303  0.5893
  459MOL0     O63205   2.318   9.692   9.640  0.6182  1.2540  0.6717
  459MOL0     C63206   2.373   9.779   9.577  0.2782  0.3761  0.3645
  459MOL0     O63207   2.496   9.836   9.612  0.7019 -0.6481  0.0641
  459MOL0     C63208   2.557   9.772   9.710 -0.0129 -0.3337  0.2360
  459MOL0     C63209   2.668   9.687   9.692 -0.4317 -1.1131  0.1126
  459MOL0     C63210   2.730   9.621   9.802 -0.1385 -0.6820  0.0750
  459MOL0     C63211   2.678   9.625   9.928 -0.0186 -0.9632 -0.5999
  459MOL0     O63212   2.720   9.561  10.043 -0.2531  0.2473 -0.3278
  459MOL0     C63213   2.847   9.508  10.069 -0.5888  0.2987  0.3981
  459MOL0     C63214   2.933   9.606  10.147  0.3560  0.5468 -0.3735
  459MOL0     C63215   3.081   9.579  10.153 -0.1432  0.0497  0.0167
  459MOL0     C63216   3.156   9.707  10.190 -0.6340 -0.0804  0.4444
  459MOL0     C63217   3.118   9.774  10.320 -0.0356  0.4880 -1.4011
  459MOL0     C63218   3.177   9.688  10.440  0.2837 -0.0752  0.1621
  459MOL0     C63219   3.321   9.749  10.474 -0.2548 -0.0254 -0.3395
  459MOL0     C63220   3.361   9.671  10.609  0.0906 -0.4767  0.9312
  459MOL0     N63221   3.506   9.699  10.641  0.4571  0.4619  0.4429
  459MOL0     C63222   3.552   9.800  10.712 -0.9338 -1.0923  0.0426
  459MOL0     C63223   3.685   9.776  10.723 -0.3409 -0.7297  0.0894
  459MOL0     C63224   3.797   9.843  10.791  0.4322 -0.3460 -0.2145
  459MOL0     C63225   3.796   9.784  10.934 -0.5721  0.4902 -0.9251
  459MOL0     C63226   3.887   9.667  10.933  0.1348 -0.0721 -0.4666
  459MOL0     C63227   3.917   9.613  11.074  0.2850  0.2316 -0.4946
  459MOL0     O63228   3.977   9.483  11.055  0.4127 -0.4631 -0.5562
  459MOL0     C63229   4.022   9.433  11.172 -0.0327 -0.2230 -0.3033
  459MOL0     C63230   4.138   9.338  11.177  0.1506 -0.2655  0.0721
  459MOL0     C63231   4.179   9.273  11.292  0.0471 -0.4371  0.1871
  459MOL0     C63232   4.296   9.185  11.270 -0.0696 -0.0617 -0.1002
  459MOL0     C63233   4.127   9.302  11.419  0.9350  0.2980  0.0331
  459MOL0     C63234   4.158   9.241  11.551  1.3050 -0.0383 -0.6135
  459MOL0     O63235   4.085   9.276  11.666 -0.4652 -0.8396  0.1362
  459MOL0     C63236   4.128   9.200  11.775 -0.4088  0.1894 -0.0237
  459MOL0     C63237   4.237   9.232  11.857 -0.9216  0.0173  0.1818
  459MOL0     C63238   4.288   9.154  11.960 -1.2333  0.0240  0.3103
  459MOL0     C63239   4.225   9.036  11.997  0.6002 -0.2116  0.4304
  459MOL0     O63240   4.253   8.952  12.099 -0.4212 -0.3782  0.1366
  459MOL0     C63241   4.286   9.011  12.233  0.3713 -0.0163  0.3718
  459MOL0     C63242   4.374   8.923  12.314  0.0796  0.1650  0.1027
  459MOL0     C63243   4.509   8.870  12.267  0.0984  0.0602  0.3549
  459MOL0     C63244   4.624   8.974  12.278  0.4305 -0.1269  0.3484
  459MOL0     C63245   4.761   8.895  12.261  0.2016 -0.7631  0.5498
  459MOL0     C63246   4.758   8.844  12.115 -0.5259 -0.8725 -0.2250
  459MOL0     C63247   4.900   8.794  12.059  0.4315  0.0652 -0.0461
  459MOL0     C63248   4.890   8.721  11.918 -0.7079  0.4215  0.2000
  459MOL0    Cl63249   4.729   8.641  11.903  0.0018  0.5811 -0.0551
  459MOL0     C63250   4.106   9.001  11.916 -0.2434 -0.2591 -0.9311
  459MOL0     C63251   4.059   9.081  11.810 -0.1676 -0.0475 -0.9042
  459MOL0     O63252   4.237   9.148  11.546 -0.6062 -0.0740  0.4070
  459MOL0     C63253   4.013   9.393  11.416 -0.1512  0.1278 -0.9276
  459MOL0     C63254   3.965   9.456  11.292 -0.0723  0.0913  1.0899
  459MOL0     N63255   3.716   9.654  10.666  0.6777  0.1631 -0.9642
  459MOL0     N63256   3.605   9.612  10.618 -0.4610  0.9654  0.0273
  459MOL0     C63257   2.570   9.717   9.949 -0.0233 -0.1084 -0.3437
  459MOL0     C63258   2.520   9.791   9.840  0.4322  0.3843  0.5148
  459MOL0     C63259   2.296   9.857   9.470  0.3980 -0.2343 -0.4047
  459MOL0     C63260   2.361   9.963   9.400 -0.3491 -0.8003  0.6697
  459MOL0     C63261   2.291  10.047   9.313  0.3777 -0.0955  0.1169
  459MOL0     C63262   2.146  10.025   9.299 -0.8291 -0.2218  0.3167
  459MOL0     O63263   2.075  10.086   9.195 -0.3560 -0.4511 -0.5897
  459MOL0     C63264   2.148  10.183   9.118 -0.1795  0.4424  0.0220
  459MOL0     C63265   2.046  10.225   9.010  0.9986  0.1575  0.0260
  459MOL0     C63266   2.025  10.136   8.891 -0.0194 -0.3292  1.5016
  459MOL0     C63267   1.963  10.214   8.777 -0.1673 -0.2507  0.8494
  459MOL0     C63268   1.865  10.314   8.818  0.1755 -0.7693  0.1045
  459MOL0     C63269   1.784  10.401   8.820  0.4412  0.6020 -0.3934
  459MOL0     C63270   2.093   9.922   9.361  1.0656  0.5318  0.0339
  459MOL0     C63271   2.159   9.835   9.442 -0.6861 -0.2707 -0.2157
  459MOL0     C63272   2.091   9.714   9.493 -0.2649  0.1481  0.3853
  459MOL0     H63273   2.703   9.685   9.590 -1.0492  2.9760 -0.3358
  459MOL0     H63274   2.818   9.559   9.785 -0.5573 -1.6183  1.1872
  459MOL0     H63275   2.880   9.476   9.969 -0.1293  6.4109 -1.8443
  459MOL0     H63276   2.845   9.421  10.134  1.5617  0.6280  0.9917
  459MOL0     H63277   2.919   9.707  10.108 -0.2170  0.3126 -0.7925
  459MOL0     H63278   2.909   9.603  10.254  0.7318 -0.6033 -0.3006
  459MOL0     H63279   3.103   9.489  10.212  0.0239 -0.9032 -1.4551
  459MOL0     H63280   3.115   9.559  10.051  1.8389  0.0635  0.6335
  459MOL0     H63281   3.264   9.690  10.187 -0.7810 -0.9727  0.1392
  459MOL0     H63282   3.133   9.781  10.114  1.2724 -0.5384 -0.6543
  459MOL0     H63283   3.010   9.784  10.339  0.2780 -2.6879  4.5858
  459MOL0     H63284   3.146   9.879  10.325  2.3901 -0.1078 -1.3461
  459MOL0     H63285   3.115   9.698  10.531 -3.8637  1.3655 -2.5230
  459MOL0     H63286   3.177   9.580  10.420 -0.5170  0.2250 -1.6544
  459MOL0     H63287   3.319   9.858  10.482 -1.6444  0.1146 -2.1467
  459MOL0     H63288   3.390   9.710  10.399 -0.2332 -2.1437  0.6854
  459MOL0     H63289   3.304   9.699  10.698 -0.0143 -1.8275  1.3148
  459MOL0     H63290   3.336   9.565  10.599 -2.8222  0.1286  0.9537
  459MOL0     H63291   3.497   9.883  10.756 -1.7066  0.0918 -2.9352
  459MOL0     H63292   3.775   9.950  10.796 -0.6680 -0.6225  1.5214
  459MOL0     H63293   3.890   9.822  10.737 -0.2203  1.2695 -2.0835
  459MOL0     H63294   3.839   9.857  11.004  0.3014  0.3386 -1.2795
  459MOL0     H63295   3.698   9.748  10.964 -0.6078  1.1295 -0.2452
  459MOL0     H63296   3.841   9.585  10.877 -2.3461  0.2462  0.9609
  459MOL0     H63297   3.989   9.683  10.898  1.2635  0.2614  2.6638
  459MOL0     H63298   3.989   9.681  11.120 -1.7965  0.6175  2.4637
  459MOL0     H63299   3.817   9.605  11.118 -0.0870 -0.5767 -1.4511
  459MOL0     H63300   4.182   9.305  11.083  1.1339 -2.0541  1.1023
  459MOL0     H63301   4.274   9.081  11.295  2.6683 -1.0917 -1.4545
  459MOL0     H63302   4.383   9.211  11.331 -0.2855 -0.9097  0.5934
  459MOL0     H63303   4.338   9.182  11.169  1.1793 -1.9660  0.4266
  459MOL0     H63304   4.285   9.325  11.827 -0.4291  0.4198  2.0673
  459MOL0     H63305   4.369   9.190  12.023 -1.4206 -0.2911  0.7390
  459MOL0     H63306   4.350   9.099  12.228 -1.1111  1.1039  0.5884
  459MOL0     H63307   4.197   9.042  12.289 -1.6497 -2.1558 -1.4445
  459MOL0     H63308   4.393   8.977  12.407 -1.5642  1.8668 -0.4622
  459MOL0     H63309   4.321   8.829  12.334  0.8171 -0.7578 -1.9539
  459MOL0     H63310   4.508   8.830  12.165 -1.1257 -0.1396  0.4212
  459MOL0     H63311   4.531   8.788  12.336 -0.3324 -0.0995  0.3074
  459MOL0     H63312   4.620   9.020  12.377  0.6324  0.3252  0.1458
  459MOL0     H63313   4.602   9.055  12.207  1.2422  0.5965  0.9070
  459MOL0     H63314   4.847   8.959  12.281  0.1685 -0.9460  1.2870
  459MOL0     H63315   4.750   8.814  12.333 -3.2549 -1.3349 -0.4503
  459MOL0     H63316   4.726   8.921  12.044 -2.8829 -0.7227  0.8971
  459MOL0     H63317   4.684   8.767  12.093  0.3485 -2.7268  2.7226
  459MOL0     H63318   4.942   8.722  12.129 -4.2678 -3.3666 -0.2854
  459MOL0     H63319   4.962   8.884  12.051  2.8767 -1.4857  0.5845
  459MOL0     H63320   4.973   8.650  11.913  0.3342  1.6143 -0.0464
  459MOL0     H63321   4.915   8.784  11.832  0.8602 -1.3032 -0.6740
  459MOL0     H63322   4.043   8.916  11.940  0.9485 -1.7511 -2.8034
  459MOL0     H63323   3.972   9.052  11.752 -0.8578 -0.5710  0.3435
  459MOL0     H63324   3.961   9.410  11.510 -1.6509 -2.1606 -1.2714
  459MOL0     H63325   3.879   9.521  11.297 -0.2278  0.2083 -1.5452
  459MOL0     H63326   2.516   9.716  10.043 -3.9302 -2.2304 -2.3858
  459MOL0     H63327   2.453   9.874   9.857 -0.0598  0.0708  0.1168
  459MOL0     H63328   2.469   9.964   9.411 -0.0908 -0.6494 -1.5057
  459MOL0     H63329   2.343  10.128   9.263  0.9551 -1.3643 -1.4143
  459MOL0     H63330   2.174  10.268   9.182 -2.6571  0.4393  1.1348
  459MOL0     H63331   2.239  10.135   9.081 -0.3458 -1.8482  2.3174
  459MOL0     H63332   2.088  10.315   8.964 -0.6202  0.6837 -0.4785
  459MOL0     H63333   1.954  10.236   9.068  0.8130  0.2543 -0.2855
  459MOL0     H63334   2.118  10.096   8.850 -0.3931 -0.5430  0.8392
  459MOL0     H63335   1.956  10.054   8.914  0.6876 -2.1174 -2.0703
  459MOL0     H63336   1.902  10.147   8.715 -0.3914  0.6209  0.1060
  459MOL0     H63337   2.047  10.261   8.726  1.0753  2.3654  4.8546
  459MOL0     H63338   1.720  10.487   8.819  0.6116  0.7343 -0.0800
  459MOL0     H63339   1.988   9.905   9.342  0.2826  3.3087  1.3218
  459MOL0     H63340   1.994   9.704   9.443 -0.6488  5.5560 -0.5588
  459MOL0     H63341   2.152   9.627   9.470 -2.2298 -1.4873  1.0047
  459MOL0     H63342   2.079   9.717   9.601  2.0502  2.2900  0.6681
  460MOL0     O63343   8.867   2.789   8.540  0.3596  0.1872  0.0696
  460MOL0     C63344   8.760   2.854   8.555  0.3180  0.4282 -0.2788
  460MOL0     O63345   8.667   2.876   8.461 -0.0185 -0.0478  0.8877
  460MOL0     C63346   8.679   2.844   8.323  0.5688 -1.1012  0.0369
  460MOL0     C63347   8.565   2.834   8.243 -0.2915  1.1085 -1.0290
  460MOL0     C63348   8.570   2.797   8.112 -0.9654 -0.9494  0.7058
  460MOL0     C63349   8.699   2.791   8.046 -0.3979 -0.0736 -0.5187
  460MOL0     O63350   8.719   2.759   7.907  0.4120 -0.1639 -0.9818
  460MOL0     C63351   8.659   2.632   7.867 -0.2087  0.8239  0.0356
  460MOL0     C63352   8.691   2.583   7.727 -0.1243 -0.0529 -0.6040
  460MOL0     C63353   8.825   2.645   7.680 -0.0214 -0.1081 -0.4712
  460MOL0     C63354   8.856   2.586   7.540 -0.1869 -0.3043  0.0055
  460MOL0     C63355   8.957   2.671   7.475  0.3041  0.2166  1.1577
  460MOL0     C63356   9.095   2.670   7.542 -0.4745  0.1443 -0.3273
  460MOL0     C63357   9.177   2.795   7.521  0.2785  0.3448 -0.7976
  460MOL0     C63358   9.121   2.909   7.603  0.2406 -0.0198  0.2810
  460MOL0     N63359   9.148   3.045   7.537 -0.6573 -0.5253 -0.1723
  460MOL0     C63360   9.121   3.093   7.409 -0.1504 -0.3861  0.4777
  460MOL0     C63361   9.178   3.214   7.407 -0.4070 -0.0619 -0.9207
  460MOL0     C63362   9.157   3.320   7.306  0.0619 -0.1510  0.0533
  460MOL0     C63363   9.016   3.388   7.320 -0.2895  1.0076  0.3294
  460MOL0     C63364   8.988   3.476   7.194 -0.2206  0.3355 -0.2383
  460MOL0     C63365   8.846   3.533   7.181  0.0412 -0.0827 -0.5221
  460MOL0     O63366   8.766   3.418   7.150  0.2291 -0.5323 -0.1205
  460MOL0     C63367   8.627   3.445   7.153 -0.7133  1.0598 -0.1584
  460MOL0     C63368   8.540   3.333   7.156 -0.5047 -0.6895  0.0031
  460MOL0     C63369   8.400   3.342   7.184 -0.1784 -0.3694 -0.6645
  460MOL0     C63370   8.315   3.223   7.212  0.4883 -0.3874 -0.4146
  460MOL0     C63371   8.347   3.477   7.176  0.6531 -0.4048 -0.9769
  460MOL0     C63372   8.198   3.512   7.186  0.1458  0.2601  0.3485
  460MOL0     O63373   8.162   3.649   7.213 -0.3665  0.0271 -0.0406
  460MOL0     C63374   8.029   3.676   7.216  1.1612 -0.5145 -1.3395
  460MOL0     C63375   7.971   3.725   7.098  0.5465  0.8882 -0.3021
  460MOL0     C63376   7.834   3.717   7.092  0.1267 -1.4148 -0.4442
  460MOL0     C63377   7.758   3.693   7.206  0.3578  0.0834  0.5211
  460MOL0     O63378   7.624   3.705   7.181 -0.2911  0.0486 -0.4405
  460MOL0     C63379   7.567   3.793   7.277 -0.2645 -0.2690  0.4675
  460MOL0     C63380   7.432   3.848   7.239  0.5474 -0.0157 -0.0011
  460MOL0     C63381   7.455   3.944   7.131 -0.2426 -0.1528 -0.0955
  460MOL0     C63382   7.328   3.985   7.065 -0.5079  0.6854 -0.5468
  460MOL0     C63383   7.340   4.089   6.960 -0.2837  0.3197 -1.2047
  460MOL0     C63384   7.221   4.082   6.858  0.3514 -0.6167 -0.1744
  460MOL0     C63385   7.088   4.097   6.925 -0.3576 -0.7102  0.2559
  460MOL0     C63386   6.977   4.072   6.838 -0.4398  0.3977  0.1200
  460MOL0    Cl63387   6.954   4.190   6.704  0.0769 -0.2564 -0.7469
  460MOL0     C63388   7.809   3.650   7.329  0.2538 -0.4071 -0.1289
  460MOL0     C63389   7.952   3.646   7.337  0.3262  0.4118  0.7654
  460MOL0     O63390   8.121   3.417   7.178 -0.0072 -1.5421 -1.0036
  460MOL0     C63391   8.436   3.581   7.170 -0.6421 -0.3960  0.5441
  460MOL0     C63392   8.575   3.570   7.153 -0.5661 -0.5872 -0.2205
  460MOL0     N63393   9.238   3.240   7.533  0.5743 -0.8002  0.1876
  460MOL0     N63394   9.218   3.134   7.608  0.1240 -1.0673 -0.4728
  460MOL0     C63395   8.813   2.811   8.125 -0.0250  0.7011 -0.5765
  460MOL0     C63396   8.801   2.836   8.260 -1.2043  0.3445 -0.6086
  460MOL0     C63397   8.729   2.912   8.687  0.1472 -0.2958 -1.2257
  460MOL0     C63398   8.834   2.950   8.775 -0.3747 -1.5176  0.5465
  460MOL0     C63399   8.810   3.001   8.903  0.1030  1.0028  0.4522
  460MOL0     C63400   8.682   2.998   8.957  0.3587 -0.5801  0.0796
  460MOL0     O63401   8.645   3.027   9.084 -0.1474 -0.1143 -0.4486
  460MOL0     C63402   8.744   3.048   9.191  0.4239 -0.5286  0.2032
  460MOL0     C63403   8.696   2.974   9.321 -1.2840  1.0559  0.2763
  460MOL0     C63404   8.729   2.823   9.310  0.9625  0.0840 -0.0015
  460MOL0     C63405   8.677   2.743   9.438  0.4255 -0.2120 -0.7368
  460MOL0     C63406   8.736   2.799   9.559 -0.3584 -0.1474 -0.1141
  460MOL0     C63407   8.781   2.838   9.662  0.4202 -0.0821  0.1132
  460MOL0     C63408   8.578   2.950   8.874 -0.0267 -0.3718 -0.3002
  460MOL0     C63409   8.594   2.916   8.742 -1.0447  0.5080 -0.1618
  460MOL0     C63410   8.461   2.891   8.682 -0.2855  0.0499 -0.4620
  460MOL0     H63411   8.467   2.836   8.290 -1.1786  0.8755 -2.7978
  460MOL0     H63412   8.483   2.783   8.048 -1.3137  2.4022  0.2291
  460MOL0     H63413   8.550   2.630   7.879 -0.2405 -0.8391 -0.2399
  460MOL0     H63414   8.691   2.550   7.932 -0.7240  0.2305 -0.4387
  460MOL0     H63415   8.694   2.474   7.729 -0.3646 -0.1010 -2.1170
  460MOL0     H63416   8.613   2.620   7.660  0.4192  1.3982 -0.4902
  460MOL0     H63417   8.805   2.752   7.684 -1.8317 -0.4528  0.9200
  460MOL0     H63418   8.898   2.622   7.758 -1.2516 -1.1692  0.4143
  460MOL0     H63419   8.902   2.487   7.549  0.1948 -0.0735  0.7638
  460MOL0     H63420   8.769   2.590   7.475  0.4049  3.0411 -0.7928
  460MOL0     H63421   8.921   2.772   7.454  2.4571  0.6202 -1.0650
  460MOL0     H63422   8.958   2.633   7.372 -3.6113 -0.1448  1.1069
  460MOL0     H63423   9.096   2.655   7.650  1.5730 -1.5377 -0.5252
  460MOL0     H63424   9.150   2.584   7.503 -1.9370 -1.4404  0.9275
  460MOL0     H63425   9.162   2.819   7.415 -0.0935  0.9016 -0.6239
  460MOL0     H63426   9.283   2.784   7.543  0.4530 -0.8998 -2.0651
  460MOL0     H63427   9.013   2.905   7.618  0.3767  1.4550  1.9945
  460MOL0     H63428   9.170   2.915   7.701  2.0736  0.4423 -0.6112
  460MOL0     H63429   9.058   3.045   7.335  0.3343  1.3393 -1.1200
  460MOL0     H63430   9.161   3.274   7.206  2.6659 -1.9245  0.8649
  460MOL0     H63431   9.243   3.384   7.322  0.5406 -0.7197 -0.1900
  460MOL0     H63432   8.944   3.306   7.334  0.8410 -0.3657 -1.4663
  460MOL0     H63433   9.004   3.434   7.419 -4.0393 -3.5893  2.4318
  460MOL0     H63434   9.057   3.561   7.193 -0.2304  0.3537 -1.8237
  460MOL0     H63435   9.002   3.422   7.100 -1.4748 -1.0937  0.3561
  460MOL0     H63436   8.821   3.575   7.279  2.4930 -2.0189  1.0485
  460MOL0     H63437   8.841   3.610   7.103 -1.0779  0.9049  0.4905
  460MOL0     H63438   8.577   3.233   7.175 -0.0530 -0.4293  0.5249
  460MOL0     H63439   8.268   3.238   7.310  0.7868  1.1845 -0.4757
  460MOL0     H63440   8.380   3.136   7.225  1.5720 -0.0407 -2.9679
  460MOL0     H63441   8.253   3.200   7.125  1.5037 -0.7977 -1.0510
  460MOL0     H63442   8.030   3.748   7.010  0.0627  4.2157  0.0974
  460MOL0     H63443   7.794   3.762   7.001 -0.7934  2.4337  1.6441
  460MOL0     H63444   7.557   3.730   7.366  0.2149 -0.1792  0.5891
  460MOL0     H63445   7.638   3.875   7.290  3.0967 -2.8896  0.3199
  460MOL0     H63446   7.381   3.762   7.195 -0.0102  0.0782  0.4629
  460MOL0     H63447   7.379   3.889   7.325 -0.1118 -0.3041 -0.2653
  460MOL0     H63448   7.523   3.914   7.050 -1.5995  1.9592 -2.1324
  460MOL0     H63449   7.500   4.032   7.177  1.9169 -1.0992 -0.2396
  460MOL0     H63450   7.252   4.004   7.142  2.0002 -4.0577  3.7009
  460MOL0     H63451   7.294   3.897   7.011  1.5728 -0.3782 -0.2433
  460MOL0     H63452   7.340   4.187   7.008 -0.0456  0.5159 -1.5920
  460MOL0     H63453   7.434   4.079   6.904  0.1371 -0.8805 -0.3274
  460MOL0     H63454   7.223   3.990   6.799 -1.6564  0.5095 -2.1757
  460MOL0     H63455   7.238   4.162   6.785  2.5948 -0.4946  0.4000
  460MOL0     H63456   7.098   4.197   6.967  1.3800 -0.4460 -0.6984
  460MOL0     H63457   7.081   4.022   7.004  0.7400 -2.1316 -0.9459
  460MOL0     H63458   6.886   4.058   6.897  0.4912  5.4753  3.3727
  460MOL0     H63459   7.004   3.979   6.787 -0.5665 -0.2944  1.2913
  460MOL0     H63460   7.755   3.633   7.421  0.8066 -1.0902  0.0840
  460MOL0     H63461   8.003   3.607   7.424 -0.4382 -2.2615  0.0995
  460MOL0     H63462   8.386   3.678   7.171 -0.7960 -0.4566 -0.4539
  460MOL0     H63463   8.630   3.662   7.139  0.5961 -1.5541 -2.7082
  460MOL0     H63464   8.913   2.802   8.082 -0.3349 -1.0855 -0.9972
  460MOL0     H63465   8.893   2.856   8.314 -1.4123  0.0893 -0.1547
  460MOL0     H63466   8.937   2.962   8.742 -0.5133 -0.0058  0.6150
  460MOL0     H63467   8.894   3.033   8.965 -0.8895  3.3522  0.7179
  460MOL0     H63468   8.845   3.019   9.165  0.1296 -1.4607  0.0686
  460MOL0     H63469   8.739   3.156   9.206 -0.5536 -0.6262  0.6826
  460MOL0     H63470   8.587   2.983   9.316 -1.3633 -0.4180 -1.4394
  460MOL0     H63471   8.749   3.023   9.404  0.4457  2.5326 -1.5870
  460MOL0     H63472   8.668   2.782   9.229  0.2367  0.1228  0.5262
  460MOL0     H63473   8.837   2.806   9.305  1.0446  0.5141  0.2227
  460MOL0     H63474   8.694   2.635   9.436 -0.1249 -0.3331  0.3451
  460MOL0     H63475   8.567   2.746   9.437  0.3407 -2.0151 -1.0504
  460MOL0     H63476   8.825   2.874   9.753  1.0148 -1.9730  0.6099
  460MOL0     H63477   8.481   2.943   8.922 -0.1182 -0.8543 -0.5523
  460MOL0     H63478   8.459   2.874   8.574  1.0493  2.8174 -1.0463
  460MOL0     H63479   8.415   2.805   8.731 -0.0871 -0.6536 -1.4940
  460MOL0     H63480   8.400   2.979   8.704  0.0393 -0.2688  2.0609
  461MOL0     O63481   7.039   8.582   6.957 -0.3655  0.0918 -0.0189
  461MOL0     C63482   7.092   8.516   7.042 -0.4034  0.0516 -0.6733
  461MOL0     O63483   7.227   8.517   7.066  0.7139 -0.2092  0.6495
  461MOL0     C63484   7.299   8.588   6.963 -0.2906  0.5120 -0.8069
  461MOL0     C63485   7.348   8.722   6.988  1.0724 -0.2411  0.4407
  461MOL0     C63486   7.425   8.793   6.897 -0.6412 -0.1050  0.1551
  461MOL0     C63487   7.457   8.724   6.778 -0.9089  0.4637 -0.3064
  461MOL0     O63488   7.534   8.790   6.680 -0.3387  0.0853  0.7037
  461MOL0     C63489   7.453   8.851   6.585 -0.2107  0.1715  0.8517
  461MOL0     C63490   7.500   8.796   6.448 -0.0393 -0.1473  0.7273
  461MOL0     C63491   7.394   8.775   6.340  0.9434 -0.0373 -0.1673
  461MOL0     C63492   7.321   8.899   6.294  0.5000 -0.1462  0.2329
  461MOL0     C63493   7.180   8.868   6.241  0.1480  0.7189 -0.7351
  461MOL0     C63494   7.204   8.806   6.100 -0.8658 -0.1980 -0.0439
  461MOL0     C63495   7.078   8.737   6.048  0.3497  0.8989 -0.3235
  461MOL0     C63496   6.981   8.834   5.985 -0.2537  0.6671 -0.5896
  461MOL0     N63497   6.874   8.776   5.909  0.0704 -0.6189 -0.1469
  461MOL0     C63498   6.885   8.715   5.789  0.3023 -0.5422  0.2545
  461MOL0     C63499   6.779   8.628   5.776 -0.0324  0.2271 -0.2345
  461MOL0     C63500   6.761   8.547   5.649 -0.3015  0.3704 -0.7613
  461MOL0     C63501   6.634   8.587   5.572  0.0673  0.1862 -0.1386
  461MOL0     C63502   6.610   8.515   5.435  0.4726 -0.3385  0.0975
  461MOL0     C63503   6.717   8.540   5.330 -0.1722  0.0721 -0.1506
  461MOL0     O63504   6.668   8.501   5.199  0.2410 -0.0586  0.1285
  461MOL0     C63505   6.670   8.369   5.163 -0.1067 -0.8049  0.7432
  461MOL0     C63506   6.627   8.348   5.037  0.1130  0.4458  0.0664
  461MOL0     C63507   6.613   8.212   4.992  0.0113 -0.2676 -0.0925
  461MOL0     C63508   6.580   8.199   4.847 -0.1045  1.0571  0.0049
  461MOL0     C63509   6.647   8.099   5.077  0.3162 -0.5435  0.5045
  461MOL0     C63510   6.632   7.958   5.043  0.5514  0.9701  0.4657
  461MOL0     O63511   6.694   7.863   5.115  0.1571 -0.1246 -0.1607
  461MOL0     C63512   6.701   7.734   5.081 -1.3873  1.3295 -0.7190
  461MOL0     C63513   6.697   7.679   4.947  0.6215 -0.1497 -1.6148
  461MOL0     C63514   6.707   7.546   4.921 -0.0839  1.1601  0.3069
  461MOL0     C63515   6.733   7.459   5.024 -0.3968  0.5922  0.6305
  461MOL0     O63516   6.744   7.324   4.992 -0.6676  1.0194 -0.3716
  461MOL0     C63517   6.718   7.230   5.112 -0.4437  0.7233  0.5143
  461MOL0     C63518   6.704   7.085   5.061 -0.3951  0.1203  0.1025
  461MOL0     C63519   6.675   6.975   5.163 -0.2574  0.3782  0.2409
  461MOL0     C63520   6.708   6.839   5.110 -0.2325 -0.8115  0.0649
  461MOL0     C63521   6.684   6.727   5.216 -0.1288 -0.4200  0.6513
  461MOL0     C63522   6.777   6.700   5.332  0.0519 -0.5875 -0.7045
  461MOL0     C63523   6.766   6.564   5.391  0.5525  0.7801 -0.0461
  461MOL0     C63524   6.879   6.532   5.487 -1.1767  0.0143 -0.4029
  461MOL0    Cl63525   6.882   6.366   5.536 -0.4403 -0.1201  0.1249
  461MOL0     C63526   6.741   7.500   5.150  0.1184 -1.1388  0.2902
  461MOL0     C63527   6.731   7.640   5.179 -0.8901  0.5907 -0.0788
  461MOL0     O63528   6.566   7.928   4.943  0.1806 -0.2870  0.1690
  461MOL0     C63529   6.683   8.129   5.209 -0.4768 -0.1369 -0.9444
  461MOL0     C63530   6.691   8.263   5.250 -0.1059  0.5178  0.2636
  461MOL0     N63531   6.704   8.637   5.891 -0.1343  0.2419  1.1966
  461MOL0     N63532   6.763   8.717   5.970 -0.0494 -0.7780 -0.5551
  461MOL0     C63533   7.420   8.591   6.753  0.2937 -0.1328 -0.0429
  461MOL0     C63534   7.336   8.532   6.844  0.3558 -0.9945 -0.4297
  461MOL0     C63535   7.000   8.443   7.133 -0.4761 -0.6774  0.6494
  461MOL0     C63536   6.903   8.511   7.196 -0.2476  0.0277 -0.0317
  461MOL0     C63537   6.825   8.448   7.290  0.5349  0.8614 -0.6890
  461MOL0     C63538   6.847   8.312   7.322 -0.5381 -0.5245  0.5170
  461MOL0     O63539   6.774   8.244   7.408 -0.5918  0.1243  0.5881
  461MOL0     C63540   6.748   8.320   7.525 -0.5375  0.0778  0.4134
  461MOL0     C63541   6.708   8.240   7.648 -0.1130 -0.4855 -0.7167
  461MOL0     C63542   6.678   8.335   7.766  0.2279 -0.4914 -0.0766
  461MOL0     C63543   6.607   8.267   7.881 -1.1862 -0.0605 -0.0619
  461MOL0     C63544   6.474   8.215   7.864  0.6118 -0.7933  0.0260
  461MOL0     C63545   6.359   8.186   7.859  0.2326 -0.4738  0.5676
  461MOL0     C63546   6.951   8.242   7.252  0.2532  0.2362 -0.7613
  461MOL0     C63547   7.034   8.308   7.165 -0.5136  0.5071  0.4061
  461MOL0     C63548   7.156   8.227   7.108 -0.0274  0.3453 -0.5430
  461MOL0     H63549   7.310   8.764   7.080  0.5718  3.4129 -1.2286
  461MOL0     H63550   7.464   8.894   6.901 -0.6406 -0.0975 -0.0576
  461MOL0     H63551   7.476   8.958   6.583 -1.0652  0.3641 -1.2524
  461MOL0     H63552   7.345   8.849   6.598 -0.1578  1.6428  1.7791
  461MOL0     H63553   7.575   8.868   6.413 -1.5792  1.7569  1.1842
  461MOL0     H63554   7.542   8.698   6.470  4.0163  1.9106  3.4412
  461MOL0     H63555   7.441   8.748   6.245  1.4420  2.7619 -0.8151
  461MOL0     H63556   7.322   8.696   6.364  0.3787  0.8426  1.1437
  461MOL0     H63557   7.304   8.967   6.378  0.9766 -0.9556  0.9962
  461MOL0     H63558   7.378   8.951   6.215 -0.3790 -1.2794 -1.1988
  461MOL0     H63559   7.114   8.954   6.227 -0.3970  0.3621 -0.3631
  461MOL0     H63560   7.128   8.802   6.311 -1.0918  1.4553 -0.9242
  461MOL0     H63561   7.239   8.886   6.036 -0.5071 -0.0193  0.3722
  461MOL0     H63562   7.296   8.747   6.102  0.3598  1.5784 -1.2633
  461MOL0     H63563   7.013   8.687   6.120 -1.5182  1.0220 -1.8646
  461MOL0     H63564   7.128   8.661   5.988  1.5358  1.0227  0.4779
  461MOL0     H63565   6.935   8.896   6.062  0.2221 -1.6252  1.6912
  461MOL0     H63566   7.042   8.886   5.911 -1.0312 -0.2018 -1.8926
  461MOL0     H63567   6.962   8.724   5.713  0.3427 -0.4296  0.3086
  461MOL0     H63568   6.754   8.439   5.665 -0.5440  0.7158  1.7648
  461MOL0     H63569   6.850   8.562   5.587  1.7540  1.3281  2.2348
  461MOL0     H63570   6.549   8.556   5.634  1.0248 -0.7522  0.7364
  461MOL0     H63571   6.637   8.695   5.555  0.6013  0.4738  1.5871
  461MOL0     H63572   6.589   8.416   5.476 -4.1435  1.8829  4.1295
  461MOL0     H63573   6.518   8.561   5.397  0.7803  1.5441  1.4888
  461MOL0     H63574   6.736   8.647   5.339 -0.3785  0.0433  0.7598
  461MOL0     H63575   6.810   8.486   5.346  0.2366 -1.0865 -5.0816
  461MOL0     H63576   6.597   8.430   4.973 -5.3396 -0.8687  0.4683
  461MOL0     H63577   6.642   8.120   4.803 -3.5902 -3.2817  2.0879
  461MOL0     H63578   6.612   8.290   4.794  1.4992  1.3476  1.4008
  461MOL0     H63579   6.476   8.177   4.821 -0.6901  4.7153 -1.4049
  461MOL0     H63580   6.680   7.760   4.877 -1.5627  3.0517  2.2120
  461MOL0     H63581   6.716   7.497   4.825  1.3055 -2.1978  1.9950
  461MOL0     H63582   6.802   7.237   5.181 -1.3787  6.1203  1.4865
  461MOL0     H63583   6.623   7.260   5.156  0.8140  2.6854  2.0955
  461MOL0     H63584   6.614   7.095   5.000 -1.7421  1.8967  2.2142
  461MOL0     H63585   6.787   7.056   4.995 -1.1740 -1.3427 -0.2594
  461MOL0     H63586   6.567   6.979   5.181 -0.6353  3.5672 -1.8251
  461MOL0     H63587   6.739   6.995   5.249 -0.0830  2.6191 -0.3557
  461MOL0     H63588   6.814   6.850   5.087 -0.0433 -1.5311  0.5528
  461MOL0     H63589   6.659   6.821   5.014  0.5638  0.6492 -0.6354
  461MOL0     H63590   6.588   6.751   5.261  0.8375  0.6130  2.2666
  461MOL0     H63591   6.677   6.632   5.161 -1.0887 -1.0655  1.8494
  461MOL0     H63592   6.772   6.775   5.411 -3.0405  0.1937 -1.5098
  461MOL0     H63593   6.877   6.707   5.288  1.4669  0.6079  2.4149
  461MOL0     H63594   6.766   6.499   5.304 -0.0072 -1.8918  1.8071
  461MOL0     H63595   6.667   6.556   5.438 -0.2297 -1.6947 -1.8839
  461MOL0     H63596   6.868   6.590   5.579  0.3850 -2.3102  1.3708
  461MOL0     H63597   6.977   6.552   5.441 -2.4696 -0.2747 -3.5827
  461MOL0     H63598   6.760   7.439   5.238  0.3037 -1.8032 -0.1994
  461MOL0     H63599   6.742   7.669   5.283  0.3669 -0.4874  0.1181
  461MOL0     H63600   6.695   8.046   5.278 -0.2536  1.4171  0.9716
  461MOL0     H63601   6.723   8.280   5.352  1.3063  2.4564 -0.4437
  461MOL0     H63602   7.434   8.533   6.662 -0.5259  1.9226 -1.5711
  461MOL0     H63603   7.300   8.433   6.817 -0.0533 -0.5555 -1.4948
  461MOL0     H63604   6.872   8.613   7.175  2.8477  1.0897 -0.0150
  461MOL0     H63605   6.742   8.506   7.328 -1.1223 -1.5004 -0.5032
  461MOL0     H63606   6.838   8.377   7.550  1.8762 -3.0454 -0.5221
  461MOL0     H63607   6.663   8.386   7.505 -1.1358 -1.7570 -4.1042
  461MOL0     H63608   6.790   8.172   7.675 -0.7957 -2.1042 -2.4976
  461MOL0     H63609   6.613   8.189   7.629 -0.9283  0.2800  1.0413
  461MOL0     H63610   6.775   8.370   7.801  0.2614 -0.2712 -0.3859
  461MOL0     H63611   6.625   8.425   7.732  2.2113  0.3354 -1.0938
  461MOL0     H63612   6.603   8.355   7.946  1.3925  0.6367 -0.7304
  461MOL0     H63613   6.671   8.189   7.924 -1.7226 -0.4313  0.0712
  461MOL0     H63614   6.252   8.178   7.862  0.1681  0.4187  1.1633
  461MOL0     H63615   6.959   8.137   7.279  1.5577  0.2647 -0.9655
  461MOL0     H63616   7.233   8.216   7.186 -0.5577  2.3568  0.3302
  461MOL0     H63617   7.108   8.131   7.088  0.0056 -0.5367  2.9677
  461MOL0     H63618   7.203   8.273   7.021 -0.7464  1.7319 -0.2331
  462MOL0     O63619   8.025   4.595   0.140  0.4939  0.4196  0.3867
  462MOL0     C63620   8.104   4.525   0.080 -0.1251  0.5022 -0.4940
  462MOL0     O63621   8.230   4.493   0.113 -0.3758 -0.3584 -0.4947
  462MOL0     C63622   8.256   4.521   0.242  0.7631  0.4289 -0.9645
  462MOL0     C63623   8.188   4.442   0.337  1.1639  0.8195  0.0882
  462MOL0     C63624   8.218   4.451   0.474 -0.3898 -0.1458 -0.3400
  462MOL0     C63625   8.315   4.543   0.509  0.3599 -0.4461 -0.2850
  462MOL0     O63626   8.327   4.549   0.643 -0.3382 -0.1079 -0.5933
  462MOL0     C63627   8.453   4.527   0.695 -0.2078  0.0587 -0.5244
  462MOL0     C63628   8.422   4.495   0.847 -0.8943  0.0583 -0.6200
  462MOL0     C63629   8.533   4.436   0.941  0.7653  0.0916  0.8271
  462MOL0     C63630   8.656   4.518   0.953  0.2956  0.6356 -0.4369
  462MOL0     C63631   8.788   4.447   0.994 -0.5816 -0.4405  0.2188
  462MOL0     C63632   8.916   4.538   0.969 -0.7415  0.8082 -0.1012
  462MOL0     C63633   8.951   4.547   0.820  0.7554 -0.4493 -0.4120
  462MOL0     C63634   9.089   4.624   0.818 -1.0257 -0.2241 -0.4846
  462MOL0     N63635   9.196   4.535   0.781 -0.5927  0.0809 -0.2203
  462MOL0     C63636   9.246   4.513   0.654 -0.6099 -0.6667 -0.5261
  462MOL0     C63637   9.366   4.458   0.667  1.6278  0.3129 -0.3034
  462MOL0     C63638   9.479   4.429   0.573  0.5957  0.0117  1.3409
  462MOL0     C63639   9.429   4.318   0.484  0.1433 -0.0961 -0.5075
  462MOL0     C63640   9.527   4.281   0.371 -0.1878  0.3511  0.1292
  462MOL0     C63641   9.626   4.166   0.406 -0.2618 -0.2128 -0.0393
  462MOL0     O63642   9.745   4.157   0.326  0.3116 -0.9840 -0.6133
  462MOL0     C63643   9.865   4.206   0.385 -0.2048  0.2786  0.0901
  462MOL0     C63644   9.990   4.158   0.348  0.4783 -0.5765  0.6837
  462MOL0     C63645  10.101   4.216   0.402  0.6483 -0.5938  0.1587
  462MOL0     C63646  10.231   4.156   0.344 -0.0105  0.4086 -0.4229
  462MOL0     C63647  10.097   4.302   0.509  0.2676 -0.2877  0.9760
  462MOL0     C63648  10.212   4.344   0.590  0.0650  0.5333 -0.1570
  462MOL0     O63649  10.324   4.382   0.516 -0.2156 -0.0772  0.0122
  462MOL0     C63650  10.444   4.411   0.575 -0.1838  0.6912  0.3388
  462MOL0     C63651  10.515   4.322   0.653 -0.8872  0.3333 -0.2171
  462MOL0     C63652  10.642   4.360   0.704 -0.4833  0.3582 -0.5589
  462MOL0     C63653  10.686   4.492   0.703  1.2948 -1.0985 -0.8648
  462MOL0     O63654  10.808   4.530   0.752  0.2497  0.5882  0.0814
  462MOL0     C63655  10.853   4.458   0.863 -0.2323  0.0875 -0.1527
  462MOL0     C63656  10.955   4.546   0.931 -0.9520  0.0826 -0.1017
  462MOL0     C63657  10.889   4.664   0.989  0.0270 -0.8267 -0.0951
  462MOL0     C63658  10.962   4.728   1.107 -0.3869 -0.5553 -0.7053
  462MOL0     C63659  10.989   4.873   1.095 -0.0765  0.7115 -0.7417
  462MOL0     C63660  11.109   4.912   1.179  0.7470 -0.0293 -0.6172
  462MOL0     C63661  11.128   5.067   1.194 -0.7314 -0.4979 -0.0023
  462MOL0     C63662  11.238   5.093   1.300  0.0926  0.2564 -0.6820
  462MOL0    Cl63663  11.402   5.048   1.218  0.0504  0.0336  0.0040
  462MOL0     C63664  10.617   4.585   0.637  0.4440 -0.3287  0.2245
  462MOL0     C63665  10.497   4.541   0.564 -0.0045 -0.2201  0.2882
  462MOL0     O63666  10.208   4.337   0.709 -0.7747  0.4972 -0.1972
  462MOL0     C63667   9.967   4.350   0.555  0.4241 -0.4947  0.9600
  462MOL0     C63668   9.854   4.319   0.473 -0.2440 -0.7224 -0.4296
  462MOL0     N63669   9.379   4.434   0.802  1.7444  0.8409 -1.3902
  462MOL0     N63670   9.281   4.489   0.874 -0.4162  0.3020 -0.5338
  462MOL0     C63671   8.387   4.622   0.419  0.5443  0.9422  0.3795
  462MOL0     C63672   8.358   4.604   0.282 -0.5043  0.4831  0.5322
  462MOL0     C63673   8.055   4.472  -0.055 -0.3730 -1.1028 -0.6679
  462MOL0     C63674   7.956   4.553  -0.120 -0.7909  0.2374  0.4500
  462MOL0     C63675   7.905   4.519  -0.246  0.4992  0.2358  0.2682
  462MOL0     C63676   7.954   4.406  -0.322 -0.4258  0.4225 -0.0114
  462MOL0     O63677   7.895   4.378  -0.449 -0.3656  0.1095 -1.0330
  462MOL0     C63678   7.985   4.337  -0.556 -1.1603 -0.1693 -0.4618
  462MOL0     C63679   7.916   4.240  -0.648  0.2248  0.3074 -0.9539
  462MOL0     C63680   7.812   4.297  -0.749 -0.6923 -0.7304  0.8079
  462MOL0     C63681   7.735   4.177  -0.814  0.3403 -0.5282  0.9037
  462MOL0     C63682   7.649   4.232  -0.924 -0.3262 -0.5088  0.0441
  462MOL0     C63683   7.578   4.279  -1.010  0.0792 -0.1596  0.2685
  462MOL0     C63684   8.044   4.324  -0.254 -1.3000  0.0546  0.0866
  462MOL0     C63685   8.097   4.353  -0.118 -0.3183 -0.0243 -0.7539
  462MOL0     C63686   8.167   4.239  -0.049 -0.0262 -0.7326  0.4800
  462MOL0     H63687   8.108   4.370   0.326  0.0553  1.5369  2.7707
  462MOL0     H63688   8.181   4.391   0.556  2.5850  0.9128  1.9385
  462MOL0     H63689   8.520   4.613   0.686  0.3614 -0.5459 -2.5285
  462MOL0     H63690   8.497   4.439   0.647  0.7209 -0.4455  1.1768
  462MOL0     H63691   8.400   4.588   0.900  2.3576 -0.0556  1.2265
  462MOL0     H63692   8.340   4.422   0.847  1.3828 -2.8747 -3.9141
  462MOL0     H63693   8.505   4.402   1.041 -0.1690 -3.0336 -0.3842
  462MOL0     H63694   8.559   4.340   0.897 -3.0779 -0.5813 -0.3607
  462MOL0     H63695   8.670   4.558   0.852  0.4316 -1.1982 -1.1826
  462MOL0     H63696   8.633   4.599   1.024  1.1304 -0.6154  1.3249
  462MOL0     H63697   8.808   4.359   0.931 -1.2950  1.4329 -2.8075
  462MOL0     H63698   8.785   4.414   1.098  0.0888  0.1567  0.4356
  462MOL0     H63699   8.906   4.637   1.014  1.4139  1.9837 -2.0013
  462MOL0     H63700   9.006   4.503   1.021  0.9280  5.4874  0.7154
  462MOL0     H63701   8.888   4.611   0.758 -1.0439 -0.8099  0.9831
  462MOL0     H63702   8.960   4.449   0.772  2.0949 -0.7418  0.3834
  462MOL0     H63703   9.087   4.706   0.746  0.1060 -0.1328 -0.4338
  462MOL0     H63704   9.118   4.664   0.916 -0.8526  1.5888 -1.2180
  462MOL0     H63705   9.204   4.543   0.559 -1.4246 -1.1391 -0.3216
  462MOL0     H63706   9.566   4.401   0.633  0.2471 -2.2382  0.8671
  462MOL0     H63707   9.516   4.513   0.513  3.8175 -3.0182 -1.3922
  462MOL0     H63708   9.429   4.232   0.552  3.2494  0.4122  0.3112
  462MOL0     H63709   9.325   4.342   0.462 -0.5694 -2.1270  0.3845
  462MOL0     H63710   9.475   4.254   0.278  3.3050 -0.4703 -1.7464
  462MOL0     H63711   9.585   4.371   0.350  3.4726 -1.1974  2.5571
  462MOL0     H63712   9.662   4.164   0.509  0.5212 -4.9354 -0.1594
  462MOL0     H63713   9.572   4.072   0.389  0.7661 -0.2581 -3.9275
  462MOL0     H63714   9.998   4.078   0.275 -1.3858  1.1033 -1.5319
  462MOL0     H63715  10.269   4.231   0.275  2.5683  0.6111  1.0767
  462MOL0     H63716  10.219   4.055   0.303  0.2301 -0.2660  1.0701
  462MOL0     H63717  10.311   4.150   0.418 -0.6803 -1.2284  0.2333
  462MOL0     H63718  10.488   4.217   0.656  2.0188 -0.5332 -0.8057
  462MOL0     H63719  10.696   4.290   0.766 -1.4140 -0.9547 -1.1903
  462MOL0     H63720  10.777   4.414   0.928  0.8128 -0.6592  0.5962
  462MOL0     H63721  10.904   4.365   0.836 -2.2041 -1.1135  0.0464
  462MOL0     H63722  11.011   4.482   1.000 -0.7523 -0.6589 -0.9280
  462MOL0     H63723  11.028   4.587   0.860  1.8113 -2.6961  0.8975
  462MOL0     H63724  10.786   4.638   1.016 -0.2274 -2.6987 -2.6030
  462MOL0     H63725  10.871   4.731   0.905  3.4392  1.1483  0.5636
  462MOL0     H63726  11.057   4.679   1.131 -0.0778  0.9423  1.4396
  462MOL0     H63727  10.907   4.717   1.201  1.9145  5.2791  1.8096
  462MOL0     H63728  11.006   4.908   0.993 -0.3218 -1.3650 -1.5497
  462MOL0     H63729  10.902   4.925   1.136 -2.6632 -2.4497 -1.8105
  462MOL0     H63730  11.191   4.874   1.117  0.0035  1.0546 -2.3437
  462MOL0     H63731  11.101   4.850   1.269 -0.6173 -0.0795 -0.7519
  462MOL0     H63732  11.035   5.116   1.223 -1.3374 -2.5931  1.8982
  462MOL0     H63733  11.168   5.114   1.104  1.0760 -3.4568 -0.9175
  462MOL0     H63734  11.201   5.031   1.382 -3.0150 -1.0672 -2.8552
  462MOL0     H63735  11.242   5.196   1.335 -0.7026 -0.0433  0.3835
  462MOL0     H63736  10.656   4.686   0.635 -1.3639  0.4722  1.4840
  462MOL0     H63737  10.469   4.617   0.492  0.5131  0.5945  0.9219
  462MOL0     H63738   9.986   4.420   0.635 -0.6646  1.0237 -0.0449
  462MOL0     H63739   9.760   4.362   0.507 -1.1129 -1.0709 -2.2507
  462MOL0     H63740   8.462   4.688   0.461  3.6591 -2.1076  0.0131
  462MOL0     H63741   8.413   4.668   0.214 -0.4012  3.9932  3.5761
  462MOL0     H63742   7.909   4.644  -0.083 -0.7617  0.4894 -0.1248
  462MOL0     H63743   7.835   4.577  -0.306  0.0999 -1.8872 -1.4591
  462MOL0     H63744   8.018   4.420  -0.619 -2.9451  1.0616  0.1465
  462MOL0     H63745   8.072   4.282  -0.519 -1.0525 -0.3602 -1.0045
  462MOL0     H63746   7.869   4.158  -0.592  3.4440 -0.5511  0.7211
  462MOL0     H63747   7.997   4.210  -0.714  1.2741 -1.0234  0.8321
  462MOL0     H63748   7.747   4.361  -0.689 -3.1205  0.8020 -3.1017
  462MOL0     H63749   7.859   4.359  -0.826 -0.2493 -0.1740  1.5055
  462MOL0     H63750   7.671   4.125  -0.742  0.3185  1.0335  2.0710
  462MOL0     H63751   7.817   4.118  -0.856 -0.9274 -0.8973 -1.2079
  462MOL0     H63752   7.496   4.321  -1.064 -1.5104 -1.4111  1.5870
  462MOL0     H63753   8.084   4.232  -0.298 -2.9160  0.0083 -1.3843
  462MOL0     H63754   8.138   4.232   0.056 -0.7704  2.5307  0.5995
  462MOL0     H63755   8.143   4.149  -0.106  0.5965 -1.5691  1.5215
  462MOL0     H63756   8.275   4.256  -0.043 -0.2115 -0.0925  3.0558
  463MOL0     O63757   4.040  11.066   3.118 -0.0348 -0.0059  0.2451
  463MOL0     C63758   4.102  11.171   3.104 -0.1705 -0.4218 -0.8856
  463MOL0     O63759   4.081  11.284   3.184  0.0598 -0.1002  0.2508
  463MOL0     C63760   3.991  11.302   3.282  0.9558 -1.4764 -0.3239
  463MOL0     C63761   3.898  11.216   3.335 -0.0758  0.3238 -0.6535
  463MOL0     C63762   3.810  11.249   3.439  0.0943 -0.1870  0.2494
  463MOL0     C63763   3.818  11.384   3.486  0.6184 -0.5242 -0.5035
  463MOL0     O63764   3.723  11.435   3.574  0.3354 -0.0936 -0.8916
  463MOL0     C63765   3.780  11.477   3.697  0.1787 -0.7019  0.9256
  463MOL0     C63766   3.664  11.486   3.803 -0.0765  0.1410 -0.2464
  463MOL0     C63767   3.559  11.586   3.762 -0.1373 -0.5709  0.1010
  463MOL0     C63768   3.466  11.631   3.882 -0.5294  0.0025  0.0215
  463MOL0     C63769   3.364  11.730   3.825 -0.5349 -0.6425 -0.0697
  463MOL0     C63770   3.255  11.744   3.920 -0.1707  0.1225 -0.2498
  463MOL0     C63771   3.162  11.624   3.909 -0.3715  0.5311  0.0510
  463MOL0     C63772   3.026  11.637   3.979  0.8124  0.3299 -0.0247
  463MOL0     N63773   2.928  11.537   3.944  1.2303  0.6852 -0.1090
  463MOL0     C63774   2.929  11.412   3.990 -0.4154 -0.0970 -0.5437
  463MOL0     C63775   2.806  11.360   4.011  1.4201 -0.0991  0.3394
  463MOL0     C63776   2.758  11.227   4.062 -0.6563 -0.4085 -0.2808
  463MOL0     C63777   2.740  11.128   3.958 -1.0047 -0.6424  0.0805
  463MOL0     C63778   2.699  10.991   4.011 -0.4036  0.3969 -0.4442
  463MOL0     C63779   2.582  10.935   3.934  0.0800 -0.4534  0.0478
  463MOL0     O63780   2.560  10.795   3.955 -0.3917 -0.0109 -0.7696
  463MOL0     C63781   2.494  10.756   4.070  0.8753 -0.3022 -0.8456
  463MOL0     C63782   2.422  10.832   4.162 -0.0096 -0.5367 -1.1008
  463MOL0     C63783   2.350  10.776   4.272 -0.2722 -0.6332 -0.1269
  463MOL0     C63784   2.271  10.867   4.362 -0.0293  1.5660 -0.5566
  463MOL0     C63785   2.352  10.641   4.288 -0.3055  0.5163  0.8841
  463MOL0     C63786   2.292  10.557   4.405 -0.8126 -0.5776  0.2920
  463MOL0     O63787   2.335  10.426   4.406  0.8407 -0.3481  0.0861
  463MOL0     C63788   2.289  10.335   4.502  0.4591  0.2857 -0.0769
  463MOL0     C63789   2.376  10.230   4.529 -1.4625  0.6189  0.1043
  463MOL0     C63790   2.345  10.115   4.606  0.4411 -0.0521 -0.6026
  463MOL0     C63791   2.225  10.124   4.678 -0.6481 -0.2656 -0.2216
  463MOL0     O63792   2.181  10.021   4.762  0.0642 -0.0353  0.3545
  463MOL0     C63793   2.258   9.898   4.784  0.7256 -0.3341 -0.3000
  463MOL0     C63794   2.186   9.800   4.871 -0.9776 -0.4208 -0.3826
  463MOL0     C63795   2.056   9.740   4.805  0.5732 -0.8552 -0.2953
  463MOL0     C63796   2.074   9.640   4.689  0.1714 -0.0866  0.4324
  463MOL0     C63797   1.946   9.549   4.674  0.6443  0.0463 -0.0546
  463MOL0     C63798   2.002   9.417   4.610  0.2109  0.0436  0.5943
  463MOL0     C63799   1.899   9.297   4.602 -0.1418 -0.7156 -0.5791
  463MOL0     C63800   1.970   9.160   4.626 -0.5976  1.1216 -0.5767
  463MOL0    Cl63801   2.119   9.151   4.516 -0.3125 -0.1012 -0.3172
  463MOL0     C63802   2.137  10.232   4.668 -0.1754  0.3044  1.0283
  463MOL0     C63803   2.166  10.332   4.571  0.5236  0.5721 -0.0013
  463MOL0     O63804   2.224  10.608   4.489  0.0128 -0.7198  0.3807
  463MOL0     C63805   2.414  10.561   4.186  0.4382  0.4253 -0.8217
  463MOL0     C63806   2.490  10.618   4.089 -0.2560  0.1037  0.1836
  463MOL0     N63807   2.727  11.471   3.980  0.5211  0.0279  0.0668
  463MOL0     N63808   2.797  11.574   3.931 -0.3179  1.0252 -0.5541
  463MOL0     C63809   3.902  11.479   3.425 -0.1500  0.7730 -0.6110
  463MOL0     C63810   3.993  11.430   3.333 -0.3402 -0.0331 -0.2314
  463MOL0     C63811   4.211  11.175   3.009 -0.2917 -0.2865  0.6288
  463MOL0     C63812   4.206  11.078   2.908 -0.0718  0.8390  0.8766
  463MOL0     C63813   4.325  11.037   2.840 -0.0527 -0.5369  0.4067
  463MOL0     C63814   4.435  11.132   2.838  0.8973  0.0293  0.0104
  463MOL0     O63815   4.545  11.116   2.755 -0.4526 -0.1398 -0.6375
  463MOL0     C63816   4.533  11.082   2.617  0.0546  0.1084 -0.1139
  463MOL0     C63817   4.450  11.186   2.538  0.0804  0.3534 -0.0035
  463MOL0     C63818   4.502  11.319   2.554 -0.3005 -0.1859  1.1116
  463MOL0     C63819   4.419  11.440   2.495  0.1401 -0.4105 -0.1725
  463MOL0     C63820   4.510  11.550   2.466 -0.3530  1.8675  0.8962
  463MOL0     C63821   4.573  11.647   2.456 -0.1001  0.4736  0.5813
  463MOL0     C63822   4.435  11.242   2.925  1.8114  0.3204 -0.2859
  463MOL0     C63823   4.328  11.251   3.013  0.7920 -0.4318  0.7049
  463MOL0     C63824   4.349  11.367   3.100 -0.4832  0.1334 -0.0871
  463MOL0     H63825   3.875  11.125   3.280  0.0537 -0.7391  0.9739
  463MOL0     H63826   3.722  11.195   3.472  1.0620 -3.3449 -1.8979
  463MOL0     H63827   3.823  11.575   3.675  0.8685 -1.5669 -2.0748
  463MOL0     H63828   3.861  11.406   3.721  2.6576  1.2336 -1.1241
  463MOL0     H63829   3.613  11.394   3.830  2.2463 -0.7996  1.2077
  463MOL0     H63830   3.710  11.523   3.895 -0.4332  0.2053 -0.0937
  463MOL0     H63831   3.603  11.672   3.712  0.1575 -0.2197  0.9648
  463MOL0     H63832   3.486  11.535   3.697 -1.8601  1.9979 -0.1272
  463MOL0     H63833   3.414  11.543   3.922  0.5161  0.0661  1.5953
  463MOL0     H63834   3.523  11.680   3.962 -0.8174  1.1591 -0.4618
  463MOL0     H63835   3.325  11.711   3.725  1.1897  3.3042 -1.6856
  463MOL0     H63836   3.422  11.823   3.818  1.2471 -1.7132 -0.2956
  463MOL0     H63837   3.284  11.763   4.023 -3.1776  3.5280  0.1874
  463MOL0     H63838   3.205  11.836   3.887  0.1506  0.2210 -0.4658
  463MOL0     H63839   3.200  11.525   3.935 -2.2462 -0.6081 -1.2565
  463MOL0     H63840   3.138  11.607   3.804 -2.0384  0.7936  0.3533
  463MOL0     H63841   3.037  11.634   4.088 -0.8741  0.5830  0.1789
  463MOL0     H63842   2.979  11.734   3.956 -0.2324  0.3963  2.1916
  463MOL0     H63843   3.006  11.349   4.032 -1.4058 -0.5217  0.7112
  463MOL0     H63844   2.664  11.244   4.116  0.2014 -0.4018  1.2657
  463MOL0     H63845   2.830  11.185   4.133 -1.6793 -1.1708  0.3463
  463MOL0     H63846   2.672  11.182   3.892 -2.4448 -0.2565  1.7939
  463MOL0     H63847   2.835  11.108   3.907 -1.3105 -0.5748 -0.5270
  463MOL0     H63848   2.780  10.920   3.992 -1.4649 -0.3554 -2.4982
  463MOL0     H63849   2.666  10.995   4.115 -2.0344  0.7220 -0.9431
  463MOL0     H63850   2.492  10.998   3.942 -0.4902 -1.1924 -0.4599
  463MOL0     H63851   2.597  10.949   3.826 -0.8885  1.5445  0.1144
  463MOL0     H63852   2.442  10.936   4.140  0.8124 -0.9599 -2.5341
  463MOL0     H63853   2.167  10.834   4.365  0.0460  1.3648  0.4163
  463MOL0     H63854   2.285  10.972   4.333 -1.5100  1.4712 -1.7433
  463MOL0     H63855   2.327  10.862   4.456  0.4164 -0.0187 -0.8884
  463MOL0     H63856   2.474  10.239   4.483 -2.5374 -1.6990 -2.9310
  463MOL0     H63857   2.404  10.024   4.614  2.4642  1.1594 -1.3121
  463MOL0     H63858   2.277   9.845   4.690 -1.5106 -3.1682  0.7075
  463MOL0     H63859   2.348   9.930   4.838 -1.0569  1.7387  1.6730
  463MOL0     H63860   2.266   9.728   4.890 -0.9354 -1.0017 -2.5164
  463MOL0     H63861   2.158   9.846   4.967  2.3794 -0.7780  0.9208
  463MOL0     H63862   1.984   9.820   4.786  2.6751  1.1438 -0.0946
  463MOL0     H63863   2.005   9.681   4.882 -1.0410 -0.8215 -1.2839
  463MOL0     H63864   2.162   9.576   4.696 -2.4595 -4.3928 -1.5103
  463MOL0     H63865   2.079   9.707   4.603 -1.4265  1.7037  1.6698
  463MOL0     H63866   1.905   9.516   4.770 -0.4006  0.6200 -0.2884
  463MOL0     H63867   1.864   9.600   4.624 -2.9260 -0.8894  4.1824
  463MOL0     H63868   2.091   9.392   4.668  2.6211  1.4827 -2.2416
  463MOL0     H63869   2.041   9.432   4.510 -0.9306 -1.2009 -0.0791
  463MOL0     H63870   1.854   9.296   4.502 -0.8538  0.3261 -0.2924
  463MOL0     H63871   1.821   9.313   4.678  0.4275 -0.1281 -0.1065
  463MOL0     H63872   1.904   9.078   4.596  1.3805 -1.3998  1.4838
  463MOL0     H63873   2.002   9.150   4.730  0.7573  4.0389 -0.6163
  463MOL0     H63874   2.048  10.234   4.729 -1.3305 -0.5775 -0.5590
  463MOL0     H63875   2.092  10.405   4.542 -1.1731 -0.9314  0.3790
  463MOL0     H63876   2.425  10.453   4.184  0.3644  0.4212 -1.0331
  463MOL0     H63877   2.546  10.551   4.025  0.3518 -0.1976  1.0087
  463MOL0     H63878   3.912  11.584   3.450  0.0368  1.3048 -2.7106
  463MOL0     H63879   4.072  11.492   3.292  1.9674 -2.4338  0.2783
  463MOL0     H63880   4.115  11.021   2.893 -0.1596  1.1893  0.0390
  463MOL0     H63881   4.352  10.944   2.791  0.6068 -0.8099  1.2575
  463MOL0     H63882   4.636  11.086   2.581 -0.7013 -2.0823 -2.8333
  463MOL0     H63883   4.484  10.985   2.601 -2.6599  0.7276  3.1270
  463MOL0     H63884   4.347  11.196   2.574 -0.3888 -0.8091 -0.9247
  463MOL0     H63885   4.446  11.167   2.430 -2.2881 -3.1218  0.5236
  463MOL0     H63886   4.521  11.339   2.659  0.4869  1.5562  0.6830
  463MOL0     H63887   4.601  11.328   2.509  0.5013 -3.6574  1.9426
  463MOL0     H63888   4.347  11.473   2.570 -2.0876 -0.4166 -2.1727
  463MOL0     H63889   4.362  11.398   2.411  2.4463 -2.3850 -0.8547
  463MOL0     H63890   4.630  11.736   2.439 -0.9543  0.8194 -0.5938
  463MOL0     H63891   4.514  11.316   2.925  0.7681  1.4925 -1.6556
  463MOL0     H63892   4.284  11.445   3.058  2.1085  1.7604 -1.3976
  463MOL0     H63893   4.312  11.344   3.200 -0.4227 -0.0359 -0.1030
  463MOL0     H63894   4.449  11.410   3.100 -0.4293  0.0070  0.1037
  464MOL0     O63895  11.118   2.365   1.475 -0.0660  0.0472  0.3764
  464MOL0     C63896  11.080   2.453   1.394  0.5593  0.5315 -1.2444
  464MOL0     O63897  11.114   2.461   1.266 -0.1867 -0.6539 -1.0360
  464MOL0     C63898  11.242   2.455   1.209  0.0010  0.2247 -0.6235
  464MOL0     C63899  11.352   2.407   1.288 -0.6390 -0.1677  0.2602
  464MOL0     C63900  11.467   2.352   1.218  0.9977 -0.1137  0.1469
  464MOL0     C63901  11.475   2.375   1.079  0.1124 -0.2636  0.4296
  464MOL0     O63902  11.596   2.340   1.021 -0.2195 -0.5072  0.4665
  464MOL0     C63903  11.611   2.326   0.875  0.4045  0.0009  0.4913
  464MOL0     C63904  11.748   2.252   0.860  0.5393 -0.8650  1.1358
  464MOL0     C63905  11.867   2.287   0.949 -0.5403 -0.3444 -0.2838
  464MOL0     C63906  11.919   2.439   0.927  0.5267 -0.3180 -0.1130
  464MOL0     C63907  12.046   2.448   1.012 -0.2486  0.4538 -0.7603
  464MOL0     C63908  12.021   2.498   1.162  0.3303  0.8001 -0.0767
  464MOL0     C63909  12.147   2.516   1.251 -0.0755  0.6686 -0.9700
  464MOL0     C63910  12.264   2.597   1.187  0.1665  0.1969  0.3396
  464MOL0     N63911  12.355   2.486   1.138  0.2774  0.3724  0.1511
  464MOL0     C63912  12.434   2.407   1.214  0.3875 -0.2171 -0.1959
  464MOL0     C63913  12.474   2.314   1.125  0.2963 -0.1233  0.1871
  464MOL0     C63914  12.556   2.208   1.174 -0.1507  0.8121  0.4789
  464MOL0     C63915  12.701   2.238   1.211  0.4226  0.3869  0.3626
  464MOL0     C63916  12.757   2.272   1.081  0.5463 -0.5217 -0.0520
  464MOL0     C63917  12.901   2.319   1.097 -0.5627  0.5244  0.2619
  464MOL0     O63918  12.886   2.467   1.116  1.0076  0.1361 -0.1565
  464MOL0     C63919  12.993   2.542   1.150  0.0528  0.3049 -0.3103
  464MOL0     C63920  13.107   2.487   1.219  0.3788  0.1357 -0.2821
  464MOL0     C63921  13.211   2.574   1.262  0.6125 -0.4807  0.0862
  464MOL0     C63922  13.327   2.509   1.327  0.2653  1.2220 -0.2730
  464MOL0     C63923  13.201   2.712   1.234 -0.2779 -0.1921 -0.1979
  464MOL0     C63924  13.311   2.816   1.255 -0.0965 -0.9389  0.0693
  464MOL0     O63925  13.310   2.919   1.161 -0.5699 -0.4451  0.4551
  464MOL0     C63926  13.417   3.007   1.152  0.4660  0.7551 -1.2126
  464MOL0     C63927  13.398   3.147   1.175  0.0538 -0.2460 -0.1498
  464MOL0     C63928  13.511   3.236   1.184 -0.0523 -0.3406 -0.3455
  464MOL0     C63929  13.637   3.194   1.182  0.1968  0.7817 -0.0133
  464MOL0     O63930  13.736   3.290   1.181 -0.0859  0.3132 -0.0120
  464MOL0     C63931  13.866   3.242   1.169  0.5211 -0.8524 -0.6585
  464MOL0     C63932  13.955   3.365   1.204 -0.5904  0.2194  0.3222
  464MOL0     C63933  14.101   3.339   1.241  0.6420 -0.1078 -0.0483
  464MOL0     C63934  14.182   3.295   1.120  0.2766 -0.4195  0.1509
  464MOL0     C63935  14.322   3.295   1.150  0.0518  0.1891  0.5173
  464MOL0     C63936  14.403   3.217   1.034  0.6508 -0.4174  0.0721
  464MOL0     C63937  14.557   3.223   1.067 -0.5154  0.3316 -0.3085
  464MOL0     C63938  14.657   3.175   0.954  0.0852  0.6227 -0.8690
  464MOL0    Cl63939  14.638   2.997   0.939 -0.2090  0.1799 -0.0441
  464MOL0     C63940  13.653   3.059   1.155 -0.5985  0.1234 -1.6790
  464MOL0     C63941  13.550   2.969   1.132  0.2287 -0.5485  0.1521
  464MOL0     O63942  13.382   2.807   1.351 -0.3866  0.2570 -0.5036
  464MOL0     C63943  13.081   2.761   1.168 -0.0527 -0.3953 -0.8393
  464MOL0     C63944  12.982   2.676   1.133  1.0053 -1.4201  0.5060
  464MOL0     N63945  12.430   2.331   0.995  0.0126  0.2487 -0.4897
  464MOL0     N63946  12.362   2.441   1.008 -1.0237 -0.1982  0.1953
  464MOL0     C63947  11.380   2.447   1.016 -1.0083  0.4533  0.4908
  464MOL0     C63948  11.258   2.483   1.069 -0.1749 -0.3571 -0.9291
  464MOL0     C63949  10.973   2.542   1.441  0.3984  0.7064  0.0587
  464MOL0     C63950  10.950   2.545   1.577  0.1005 -0.3794 -0.0722
  464MOL0     C63951  10.861   2.635   1.641  0.6358 -0.1139  0.7669
  464MOL0     C63952  10.779   2.712   1.562 -0.1696  0.6510 -1.1885
  464MOL0     O63953  10.688   2.790   1.632  0.0439 -0.1847 -0.5853
  464MOL0     C63954  10.618   2.893   1.564 -0.1095  0.3860  0.4415
  464MOL0     C63955  10.530   2.963   1.665  0.1480 -0.3512 -0.5151
  464MOL0     C63956  10.435   2.866   1.738  0.2729  0.5417  0.6168
  464MOL0     C63957  10.367   2.912   1.859 -0.3238  1.2029 -0.1677
  464MOL0     C63958  10.272   3.015   1.840 -0.0370 -0.7979  1.0221
  464MOL0     C63959  10.182   3.100   1.827 -0.7684 -0.1840 -0.8952
  464MOL0     C63960  10.801   2.706   1.426 -0.5234 -0.6769 -0.0851
  464MOL0     C63961  10.891   2.630   1.363 -0.8663  0.0472 -0.5015
  464MOL0     C63962  10.905   2.651   1.215  0.7493 -0.6307 -0.5383
  464MOL0     H63963  11.366   2.401   1.395  3.7453  2.9527  0.1637
  464MOL0     H63964  11.543   2.296   1.271 -1.2424 -2.3325  1.2258
  464MOL0     H63965  11.623   2.427   0.833 -1.9644 -0.0386 -0.4789
  464MOL0     H63966  11.532   2.268   0.827 -1.7908  1.3207  2.2647
  464MOL0     H63967  11.735   2.145   0.876  0.9300 -1.4751 -1.9594
  464MOL0     H63968  11.780   2.274   0.757  0.6339 -2.2632  0.8552
  464MOL0     H63969  11.850   2.282   1.056 -0.5699  0.1304 -0.2642
  464MOL0     H63970  11.938   2.203   0.943  0.7719  0.5412  1.8014
  464MOL0     H63971  11.940   2.454   0.821 -1.5456  1.9452 -0.2925
  464MOL0     H63972  11.843   2.507   0.968  0.2712 -0.4726 -0.3316
  464MOL0     H63973  12.101   2.527   0.961 -4.1901  3.3010 -1.0378
  464MOL0     H63974  12.097   2.351   1.012 -0.4180  0.3059 -3.2176
  464MOL0     H63975  11.967   2.593   1.149  1.7805  1.3979 -2.2949
  464MOL0     H63976  11.950   2.430   1.210  0.3142  0.2148 -0.9161
  464MOL0     H63977  12.185   2.424   1.296 -0.1472  1.6775  1.2589
  464MOL0     H63978  12.108   2.576   1.333 -0.3372  1.3227 -1.5574
  464MOL0     H63979  12.231   2.655   1.101 -0.4940  2.5522  2.0917
  464MOL0     H63980  12.309   2.665   1.260  0.2156  1.2874 -0.6788
  464MOL0     H63981  12.457   2.411   1.320  1.8160 -2.8775 -0.3117
  464MOL0     H63982  12.548   2.128   1.099 -3.6796  0.1203  1.4110
  464MOL0     H63983  12.495   2.176   1.259 -2.9934  1.2022 -1.2519
  464MOL0     H63984  12.704   2.314   1.289 -3.3723 -0.3154  1.3647
  464MOL0     H63985  12.744   2.150   1.259  0.1455  0.8074  1.3927
  464MOL0     H63986  12.743   2.184   1.017 -2.0079  0.5079 -1.0445
  464MOL0     H63987  12.693   2.348   1.034 -1.7820 -1.4839  1.4157
  464MOL0     H63988  12.955   2.272   1.179 -1.2139 -0.0795  0.3469
  464MOL0     H63989  12.954   2.302   1.002 -2.5981  0.2250 -0.8850
  464MOL0     H63990  13.105   2.380   1.236 -0.4855  0.2509  0.4070
  464MOL0     H63991  13.415   2.503   1.261 -0.2393  0.2967 -0.8901
  464MOL0     H63992  13.303   2.407   1.355 -1.1893  0.8032 -2.7004
  464MOL0     H63993  13.353   2.555   1.423  1.0061  1.1933 -0.4518
  464MOL0     H63994  13.301   3.196   1.173  1.0023  1.7694 -2.3455
  464MOL0     H63995  13.489   3.342   1.190  0.0144 -0.3359 -0.1778
  464MOL0     H63996  13.884   3.158   1.236 -0.3539 -3.2365 -3.2053
  464MOL0     H63997  13.883   3.209   1.066  0.5627  3.7239 -2.3397
  464MOL0     H63998  13.953   3.434   1.120  0.0266 -1.5808 -1.2551
  464MOL0     H63999  13.921   3.421   1.292 -1.6898  1.0921 -0.6302
  464MOL0     H64000  14.108   3.270   1.325 -0.9600 -0.2077  0.0373
  464MOL0     H64001  14.139   3.433   1.282 -0.2432  0.0944  0.3524
  464MOL0     H64002  14.174   3.371   1.042 -1.6874 -1.1513 -0.4334
  464MOL0     H64003  14.140   3.203   1.078  1.0452 -0.8115  0.2256
  464MOL0     H64004  14.344   3.401   1.168 -6.5753  1.9147  1.1554
  464MOL0     H64005  14.342   3.242   1.244  2.5030 -1.5980 -0.8837
  464MOL0     H64006  14.393   3.268   0.938 -2.8885 -0.7974  0.1096
  464MOL0     H64007  14.361   3.117   1.021  1.0154 -0.4087 -1.2685
  464MOL0     H64008  14.574   3.173   1.163 -0.0532  4.1850  1.8218
  464MOL0     H64009  14.578   3.328   1.087  1.2169 -0.0388  0.0385
  464MOL0     H64010  14.759   3.204   0.982  1.1421 -1.3434 -2.4682
  464MOL0     H64011  14.622   3.222   0.862 -0.0572  1.7405 -0.2695
  464MOL0     H64012  13.756   3.026   1.145  0.4443  2.6876 -0.3575
  464MOL0     H64013  13.579   2.865   1.117  3.3715  0.2396 -0.1155
  464MOL0     H64014  13.072   2.869   1.159  3.0944  0.0833  0.5158
  464MOL0     H64015  12.895   2.721   1.087 -1.2990 -1.5139  4.3015
  464MOL0     H64016  11.406   2.483   0.917 -2.7315 -1.7895 -0.8733
  464MOL0     H64017  11.186   2.538   1.009 -1.1298 -1.3100 -0.6817
  464MOL0     H64018  10.999   2.479   1.648 -1.2720 -4.2773 -2.3785
  464MOL0     H64019  10.853   2.637   1.749  0.5175 -0.3739  0.7647
  464MOL0     H64020  10.687   2.966   1.520  1.2823 -1.5214 -0.6788
  464MOL0     H64021  10.572   2.848   1.476  2.2903  4.0364 -3.0737
  464MOL0     H64022  10.460   3.039   1.628  0.4589  0.4564  0.5086
  464MOL0     H64023  10.597   3.019   1.730 -1.3949  2.3117 -1.0616
  464MOL0     H64024  10.367   2.806   1.677  3.5419 -0.4082 -2.4391
  464MOL0     H64025  10.497   2.782   1.773 -0.9656 -1.3022 -1.3806
  464MOL0     H64026  10.431   2.946   1.941 -0.6323 -1.3738  1.2602
  464MOL0     H64027  10.319   2.825   1.904  1.4277  1.8428  3.3428
  464MOL0     H64028  10.103   3.172   1.826 -0.8133 -0.0313  2.5295
  464MOL0     H64029  10.725   2.758   1.369 -1.1907 -1.7661 -0.2347
  464MOL0     H64030  10.910   2.548   1.177  2.7218 -1.0232  0.6428
  464MOL0     H64031  10.816   2.699   1.175 -2.0615 -2.8851  2.4633
  464MOL0     H64032  11.004   2.693   1.196  1.9051 -2.5803  0.7373
  465MOL0     O64033  10.976  10.616   8.522 -0.3898  0.3039 -0.3983
  465MOL0     C64034  10.995  10.517   8.447 -0.9872 -0.1234  0.0129
  465MOL0     O64035  10.922  10.490   8.345 -0.0496  0.3957 -0.0734
  465MOL0     C64036  10.880  10.599   8.262 -0.4121  0.6638 -0.2902
  465MOL0     C64037  10.753  10.582   8.202 -0.3790  0.4224  0.1901
  465MOL0     C64038  10.702  10.685   8.116  0.1371 -0.0821 -0.4097
  465MOL0     C64039  10.774  10.808   8.109 -0.4430  0.3854  0.6619
  465MOL0     O64040  10.728  10.906   8.026  0.7828  0.3056 -0.4307
  465MOL0     C64041  10.597  10.956   8.059 -0.1227  0.0635 -0.0568
  465MOL0     C64042  10.579  11.079   7.974  0.2274  0.1589  0.2344
  465MOL0     C64043  10.570  11.061   7.822 -0.2871  1.2008 -0.2925
  465MOL0     C64044  10.461  10.948   7.779  0.2944  0.0830  0.2448
  465MOL0     C64045  10.433  10.939   7.629 -0.1567  0.5622 -0.2134
  465MOL0     C64046  10.323  11.042   7.585 -0.9808  1.2725  0.1013
  465MOL0     C64047  10.297  11.004   7.428 -0.1232 -1.3407  0.4880
  465MOL0     C64048  10.207  11.117   7.376 -0.6969  0.6430 -0.3788
  465MOL0     N64049  10.285  11.225   7.298  0.6557  0.6540  0.1167
  465MOL0     C64050  10.401  11.282   7.325 -1.0360  0.5832 -0.5618
  465MOL0     C64051  10.430  11.352   7.215 -0.3362  0.2612  1.0405
  465MOL0     C64052  10.550  11.439   7.189  1.0447 -0.7790 -0.5134
  465MOL0     C64053  10.534  11.588   7.220 -1.3597  0.1157 -0.0480
  465MOL0     C64054  10.436  11.655   7.143  0.2337 -0.0290  0.0550
  465MOL0     C64055  10.465  11.691   6.996  0.3572  0.1714 -0.1859
  465MOL0     O64056  10.362  11.765   6.924  0.0632 -0.7155 -0.4175
  465MOL0     C64057  10.242  11.704   6.900 -0.1275 -0.1182 -0.0609
  465MOL0     C64058  10.214  11.569   6.912  1.5192  0.7492 -0.8035
  465MOL0     C64059  10.086  11.512   6.870 -0.0263  0.2983  0.4827
  465MOL0     C64060  10.078  11.354   6.879  0.9017 -0.0324  0.4955
  465MOL0     C64061   9.986  11.595   6.813  0.1042  0.8439  0.1381
  465MOL0     C64062   9.853  11.541   6.763  0.3627  0.1875 -0.1720
  465MOL0     O64063   9.823  11.409   6.784  0.4711 -0.0117  0.5498
  465MOL0     C64064   9.712  11.363   6.719  0.3201 -0.3878  0.2938
  465MOL0     C64065   9.604  11.297   6.785 -0.0304 -0.7293  0.3043
  465MOL0     C64066   9.488  11.259   6.720 -0.1779 -0.0241 -0.3248
  465MOL0     C64067   9.481  11.257   6.581  0.6207 -0.1445 -0.2116
  465MOL0     O64068   9.371  11.189   6.539  0.0113 -0.6206 -0.4383
  465MOL0     C64069   9.312  11.199   6.411  0.2301 -0.1217  0.4247
  465MOL0     C64070   9.397  11.135   6.296 -0.1007  1.3609 -0.3716
  465MOL0     C64071   9.470  11.004   6.342 -0.8606 -0.3016 -0.1836
  465MOL0     C64072   9.550  10.934   6.226  0.1149  0.2175  0.1963
  465MOL0     C64073   9.457  10.856   6.133  0.0509  0.1957  0.1626
  465MOL0     C64074   9.356  10.748   6.187 -0.4581 -0.6215 -0.0686
  465MOL0     C64075   9.211  10.786   6.148  0.2299  0.0319 -0.3670
  465MOL0     C64076   9.116  10.687   6.219 -0.5363 -0.1646 -0.4825
  465MOL0    Cl64077   8.956  10.685   6.152  0.0838  0.0785  0.0228
  465MOL0     C64078   9.596  11.312   6.511  0.9155 -0.3959  0.3455
  465MOL0     C64079   9.699  11.379   6.578 -0.1288  0.2774  0.5330
  465MOL0     O64080   9.775  11.622   6.724 -0.1749 -0.4347 -0.4783
  465MOL0     C64081  10.030  11.730   6.798  1.3918 -0.0873  0.1209
  465MOL0     C64082  10.151  11.787   6.843  0.6425  0.7042  0.6285
  465MOL0     N64083  10.332  11.340   7.122 -1.9770 -0.5208  0.1234
  465MOL0     N64084  10.240  11.270   7.173 -0.5302  0.4886 -0.5853
  465MOL0     C64085  10.895  10.823   8.168 -0.1491  0.6130 -0.3368
  465MOL0     C64086  10.948  10.717   8.238  0.3682  0.7588 -0.0129
  465MOL0     C64087  11.090  10.411   8.500  0.5373 -0.1072  0.2000
  465MOL0     C64088  11.113  10.419   8.636  0.2918  0.1820 -0.4601
  465MOL0     C64089  11.215  10.345   8.698  0.3463 -0.1696  0.2808
  465MOL0     C64090  11.286  10.259   8.622 -0.0787  0.3243 -0.7865
  465MOL0     O64091  11.394  10.198   8.663 -0.1061 -0.0187 -0.4096
  465MOL0     C64092  11.441  10.226   8.786  0.1008 -0.3934 -0.0653
  465MOL0     C64093  11.550  10.128   8.824 -0.3795 -0.3811  0.4466
  465MOL0     C64094  11.498  10.000   8.882  0.6029 -0.2236 -0.4580
  465MOL0     C64095  11.395   9.915   8.810  0.3130 -0.8003 -0.4850
  465MOL0     C64096  11.443   9.853   8.683  0.7157 -1.1283  0.2590
  465MOL0     C64097  11.484   9.794   8.585 -0.3059 -0.7425  0.4714
  465MOL0     C64098  11.255  10.233   8.486  0.2558 -0.5893 -0.5510
  465MOL0     C64099  11.168  10.318   8.422  1.1869 -0.3072 -0.2495
  465MOL0     C64100  11.161  10.307   8.267  0.1350 -0.2574 -0.5284
  465MOL0     H64101  10.706  10.487   8.225 -1.0026  1.5084  4.1113
  465MOL0     H64102  10.617  10.686   8.049  0.3712  2.0493 -0.7515
  465MOL0     H64103  10.595  10.978   8.166  0.2205 -1.6636  0.3382
  465MOL0     H64104  10.520  10.883   8.032 -2.2699  2.8837 -1.9911
  465MOL0     H64105  10.484  11.124   8.003 -1.5609 -0.6748 -3.7024
  465MOL0     H64106  10.660  11.150   7.994 -1.6445  2.6258 -0.5358
  465MOL0     H64107  10.546  11.155   7.771  0.0124  0.1605 -2.4389
  465MOL0     H64108  10.663  11.023   7.779 -0.7414 -0.5855  0.2139
  465MOL0     H64109  10.502  10.849   7.804  2.5471  0.2694 -2.3051
  465MOL0     H64110  10.371  10.969   7.838  0.9903  1.9562  0.7056
  465MOL0     H64111  10.394  10.838   7.616  0.5284  0.5249 -2.2536
  465MOL0     H64112  10.529  10.939   7.577  1.3088 -0.6872  2.2709
  465MOL0     H64113  10.231  11.024   7.642 -1.0427  1.5761  0.0968
  465MOL0     H64114  10.366  11.143   7.589 -5.5715  3.4320  1.5876
  465MOL0     H64115  10.247  10.907   7.418 -0.2338 -1.3774  1.3812
  465MOL0     H64116  10.390  11.000   7.369  0.2538  1.4808  0.7650
  465MOL0     H64117  10.128  11.080   7.309 -0.9287  0.8903 -0.2469
  465MOL0     H64118  10.155  11.161   7.462  0.6083 -2.7272  2.3354
  465MOL0     H64119  10.454  11.276   7.420 -0.5916 -1.6947 -0.9108
  465MOL0     H64120  10.580  11.430   7.084 -0.1525  0.6288 -1.0199
  465MOL0     H64121  10.634  11.409   7.253 -0.6198  0.5683  2.4927
  465MOL0     H64122  10.509  11.598   7.326 -1.5134  1.3879 -0.1931
  465MOL0     H64123  10.632  11.633   7.201 -1.5275  0.8037  0.6427
  465MOL0     H64124  10.340  11.602   7.145 -0.6296  1.4298 -0.4387
  465MOL0     H64125  10.413  11.750   7.193 -0.3646  0.3434 -0.8896
  465MOL0     H64126  10.560  11.744   6.984  0.3221 -0.0457 -1.5527
  465MOL0     H64127  10.477  11.594   6.948  4.9883  0.0744  0.7126
  465MOL0     H64128  10.280  11.490   6.946  2.3708  0.2443 -3.4061
  465MOL0     H64129  10.058  11.311   6.781  1.3318  3.5807 -1.3674
  465MOL0     H64130  10.000  11.330   6.951  1.2640  2.6869  1.9402
  465MOL0     H64131  10.170  11.318   6.926  1.9061  3.5529  1.6604
  465MOL0     H64132   9.623  11.272   6.889  0.2241 -2.3893 -0.1229
  465MOL0     H64133   9.413  11.204   6.776 -0.8206 -2.2680 -3.1685
  465MOL0     H64134   9.218  11.142   6.411 -2.6588  4.1728  0.6412
  465MOL0     H64135   9.276  11.300   6.388 -0.9776 -1.0957 -2.5961
  465MOL0     H64136   9.335  11.111   6.210 -0.6611  1.2119  0.0648
  465MOL0     H64137   9.471  11.205   6.257  0.6919  1.4487  1.1983
  465MOL0     H64138   9.392  10.937   6.378 -2.0088  0.7672 -0.6043
  465MOL0     H64139   9.542  11.024   6.422 -2.2921  0.8158  0.8913
  465MOL0     H64140   9.623  10.870   6.277 -0.2520 -0.0804  0.3542
  465MOL0     H64141   9.611  11.006   6.170  0.7240  0.2334  0.8596
  465MOL0     H64142   9.399  10.937   6.088  1.7397  1.5213  0.2618
  465MOL0     H64143   9.518  10.809   6.056  0.1148 -2.2775  1.6084
  465MOL0     H64144   9.373  10.738   6.294 -0.6629 -0.6311 -0.0363
  465MOL0     H64145   9.386  10.649   6.150 -0.7043 -0.3104 -1.1263
  465MOL0     H64146   9.187  10.775   6.042 -0.5938 -1.6620 -0.0285
  465MOL0     H64147   9.172  10.875   6.198 -1.6057 -2.7775  3.7253
  465MOL0     H64148   9.109  10.716   6.325  4.5003  0.2350 -0.0009
  465MOL0     H64149   9.153  10.585   6.207 -1.6298 -0.4970 -1.1050
  465MOL0     H64150   9.597  11.307   6.403 -1.0084  0.2384  0.2555
  465MOL0     H64151   9.784  11.428   6.532  0.2073 -0.2417  0.6045
  465MOL0     H64152   9.954  11.791   6.751  4.3726  1.6793 -2.8589
  465MOL0     H64153  10.174  11.892   6.828  3.0352 -0.1018 -2.5110
  465MOL0     H64154  10.956  10.912   8.156  0.0292  0.5879  0.3231
  465MOL0     H64155  11.044  10.727   8.287 -0.0289  1.6022  0.6309
  465MOL0     H64156  11.049  10.481   8.699  1.3950  0.3175  0.5634
  465MOL0     H64157  11.246  10.379   8.796  1.0388  1.4260 -0.4645
  465MOL0     H64158  11.497  10.319   8.772  1.6873 -1.6312 -2.9043
  465MOL0     H64159  11.366  10.237   8.865  0.0076  1.9995 -0.4079
  465MOL0     H64160  11.616  10.186   8.889 -0.3918  0.2508 -0.0813
  465MOL0     H64161  11.617  10.113   8.738  4.2777  0.6713  3.5500
  465MOL0     H64162  11.574   9.923   8.899 -0.8315 -1.0936  2.8013
  465MOL0     H64163  11.473  10.030   8.984 -1.2866  0.1944 -1.0031
  465MOL0     H64164  11.309   9.981   8.799  0.3652 -0.9964 -2.6584
  465MOL0     H64165  11.339   9.834   8.858 -1.3858 -1.1951 -2.9162
  465MOL0     H64166  11.524   9.735   8.505 -0.9569 -1.3495  0.5819
  465MOL0     H64167  11.317  10.157   8.440  1.8414 -0.4087  1.1694
  465MOL0     H64168  11.094  10.373   8.211 -0.7924  1.4308  2.3552
  465MOL0     H64169  11.263  10.332   8.239  0.7624  1.5661  2.9112
  465MOL0     H64170  11.122  10.208   8.243  2.3655 -0.8530 -1.9151
  466MOL0     O64171   7.581   3.398   6.907 -0.2686 -0.3579 -0.4251
  466MOL0     C64172   7.619   3.497   6.852  0.3873  0.1897 -0.1422
  466MOL0     O64173   7.530   3.593   6.803 -0.0498 -0.3139  0.4609
  466MOL0     C64174   7.398   3.564   6.821  0.3223  0.5688 -0.2516
  466MOL0     C64175   7.336   3.639   6.916 -0.2070  0.9568 -0.3284
  466MOL0     C64176   7.196   3.621   6.937 -0.8169  0.7686  0.7182
  466MOL0     C64177   7.130   3.514   6.874  0.3265 -0.6071 -0.9054
  466MOL0     O64178   7.000   3.483   6.909 -0.1107  0.0853 -1.4055
  466MOL0     C64179   6.924   3.415   6.804  0.1534 -0.6215 -0.3164
  466MOL0     C64180   6.779   3.447   6.792  0.1603  0.0399  0.6252
  466MOL0     C64181   6.765   3.567   6.699 -0.4922  1.0515 -0.0651
  466MOL0     C64182   6.706   3.701   6.765  0.0485  0.3637  0.0936
  466MOL0     C64183   6.711   3.823   6.659 -0.6872  0.5483  0.8088
  466MOL0     C64184   6.589   3.832   6.568 -0.2450  0.4427  0.3136
  466MOL0     C64185   6.608   3.928   6.455  0.1897  0.0855 -0.0068
  466MOL0     C64186   6.592   4.078   6.490 -0.7407 -0.1169  0.2127
  466MOL0     N64187   6.453   4.116   6.495 -0.9111 -0.4913 -0.1258
  466MOL0     C64188   6.371   4.146   6.388  0.6860  0.3418  1.3597
  466MOL0     C64189   6.251   4.188   6.439 -0.4940  0.7915 -0.5537
  466MOL0     C64190   6.138   4.222   6.363 -0.1286 -0.0298  0.1973
  466MOL0     C64191   6.037   4.105   6.382  0.0620  0.3624  0.5370
  466MOL0     C64192   5.913   4.150   6.307  0.5413 -0.2628  0.0024
  466MOL0     C64193   5.796   4.052   6.339  0.6068  0.6090 -0.5860
  466MOL0     O64194   5.681   4.099   6.274  0.1236  0.7389  0.0970
  466MOL0     C64195   5.586   4.152   6.359  0.5003  0.6943  0.8478
  466MOL0     C64196   5.580   4.292   6.382 -0.4196 -0.0375 -0.3960
  466MOL0     C64197   5.479   4.351   6.461 -0.1094 -0.0307 -0.6166
  466MOL0     C64198   5.483   4.501   6.487 -0.1404  0.5230  0.1763
  466MOL0     C64199   5.374   4.266   6.506  0.2343  0.4739 -0.1694
  466MOL0     C64200   5.245   4.324   6.568 -1.0787 -0.1129  0.4713
  466MOL0     O64201   5.185   4.268   6.680  0.2484 -0.2596 -0.5793
  466MOL0     C64202   5.252   4.215   6.786  0.6418  0.3772  0.3651
  466MOL0     C64203   5.159   4.164   6.877 -0.1591  0.2977 -0.4980
  466MOL0     C64204   5.204   4.081   6.983 -0.8635  0.3158  0.4932
  466MOL0     C64205   5.342   4.058   7.006  0.2914 -0.3552 -0.2402
  466MOL0     O64206   5.408   3.993   7.107  0.5204 -0.2512 -0.1630
  466MOL0     C64207   5.334   3.908   7.190  0.4757  0.2561  0.0014
  466MOL0     C64208   5.303   3.771   7.115  0.5757  0.6283  0.3282
  466MOL0     C64209   5.246   3.669   7.218 -0.0616 -0.1199  0.3225
  466MOL0     C64210   5.214   3.543   7.129 -0.2861  0.3024  0.2278
  466MOL0     C64211   5.149   3.439   7.220 -0.2515 -0.6641  0.1626
  466MOL0     C64212   5.248   3.376   7.330 -0.1833 -1.4836  0.5262
  466MOL0     C64213   5.240   3.219   7.340 -0.1773  0.1195 -0.1492
  466MOL0     C64214   5.097   3.146   7.343 -1.0401 -0.0183  0.0153
  466MOL0    Cl64215   4.995   3.199   7.489  0.4447  0.0824  0.0459
  466MOL0     C64216   5.430   4.120   6.917 -0.6099  0.0129  0.7514
  466MOL0     C64217   5.388   4.200   6.812  0.1660 -0.7714 -0.1976
  466MOL0     O64218   5.206   4.429   6.512 -0.4123 -0.3583 -0.1547
  466MOL0     C64219   5.372   4.129   6.475 -0.5515 -0.8692  0.8515
  466MOL0     C64220   5.486   4.072   6.418 -0.1414  0.1792  0.6768
  466MOL0     N64221   6.262   4.178   6.580 -1.0102 -0.5044 -0.7919
  466MOL0     N64222   6.382   4.144   6.609  1.0948 -0.6379  0.8097
  466MOL0     C64223   7.196   3.433   6.781 -0.0477  0.9856 -0.9170
  466MOL0     C64224   7.327   3.467   6.753 -0.1452  0.9021  0.2028
  466MOL0     C64225   7.758   3.522   6.829 -0.5052 -0.0669 -0.0814
  466MOL0     C64226   7.799   3.631   6.750 -0.6388 -0.8802 -0.1366
  466MOL0     C64227   7.934   3.659   6.730 -0.4662  0.0568 -0.7564
  466MOL0     C64228   8.033   3.574   6.788 -0.5761  0.1489  0.1099
  466MOL0     O64229   8.161   3.591   6.760 -0.5902  0.3179 -0.3659
  466MOL0     C64230   8.254   3.481   6.777  0.0986 -0.2917  1.2116
  466MOL0     C64231   8.370   3.488   6.675  0.3328  1.2980  0.0628
  466MOL0     C64232   8.317   3.446   6.534 -0.1451  0.1869  0.0209
  466MOL0     C64233   8.415   3.460   6.409  0.1475  0.6191  0.5588
  466MOL0     C64234   8.434   3.601   6.374  0.7333 -0.4865 -1.4002
  466MOL0     C64235   8.431   3.722   6.355  0.5930  1.4366  0.2665
  466MOL0     C64236   7.991   3.468   6.867 -0.0974 -0.5480  0.5341
  466MOL0     C64237   7.857   3.441   6.881 -0.7600 -0.6233  0.5240
  466MOL0     C64238   7.828   3.320   6.968  0.4487 -0.4002 -1.0164
  466MOL0     H64239   7.396   3.702   6.980 -2.8138  1.8942  1.3889
  466MOL0     H64240   7.144   3.683   7.009 -0.5555  1.7041  0.1128
  466MOL0     H64241   6.927   3.309   6.833 -1.0517 -0.8229 -0.8794
  466MOL0     H64242   6.964   3.407   6.702  1.7848 -1.5937  0.3609
  466MOL0     H64243   6.733   3.361   6.742 -0.5718 -0.2419  1.7568
  466MOL0     H64244   6.734   3.451   6.892 -0.7423  0.9915  0.2138
  466MOL0     H64245   6.861   3.577   6.647  0.3409 -4.9613 -0.3311
  466MOL0     H64246   6.690   3.541   6.624  0.3440  0.4704 -0.7185
  466MOL0     H64247   6.603   3.673   6.789 -1.0112  0.0199 -4.0869
  466MOL0     H64248   6.754   3.735   6.857 -0.0531 -0.1220  0.3287
  466MOL0     H64249   6.805   3.827   6.604  0.2960  2.1151  2.4535
  466MOL0     H64250   6.706   3.919   6.712 -3.4606 -0.0612  1.8125
  466MOL0     H64251   6.583   3.733   6.523 -0.2579  0.5587  0.0613
  466MOL0     H64252   6.507   3.844   6.639  2.4598 -0.4307  3.8613
  466MOL0     H64253   6.526   3.902   6.386  2.1731 -1.6498 -1.8572
  466MOL0     H64254   6.702   3.917   6.400 -0.5544  1.7106 -1.7246
  466MOL0     H64255   6.632   4.085   6.592 -0.7483  0.8439  0.1591
  466MOL0     H64256   6.645   4.151   6.429  1.7810 -2.0396 -0.0845
  466MOL0     H64257   6.397   4.143   6.283  1.2338  2.9615  1.3507
  466MOL0     H64258   6.167   4.248   6.260 -1.7175  0.0446 -0.2591
  466MOL0     H64259   6.098   4.312   6.410 -1.9372 -0.8529  0.3032
  466MOL0     H64260   6.065   4.006   6.343  2.6508  1.6917 -1.2570
  466MOL0     H64261   6.013   4.095   6.488 -1.1478 -0.0232  0.2410
  466MOL0     H64262   5.880   4.251   6.334 -4.3122 -1.0854 -1.9187
  466MOL0     H64263   5.934   4.147   6.200  3.8340  0.1916  0.5219
  466MOL0     H64264   5.819   3.950   6.307 -0.5140 -0.1746  0.9442
  466MOL0     H64265   5.796   4.045   6.449  1.2621 -4.9442 -0.6537
  466MOL0     H64266   5.651   4.357   6.331 -3.9265  3.5349 -1.2357
  466MOL0     H64267   5.459   4.530   6.590  1.1912  1.0396  0.3691
  466MOL0     H64268   5.417   4.556   6.421  2.5463  0.6895 -2.6119
  466MOL0     H64269   5.583   4.545   6.477 -0.2146  1.1068  1.7367
  466MOL0     H64270   5.055   4.158   6.846  0.6945 -0.3662 -3.6543
  466MOL0     H64271   5.134   4.029   7.048 -2.6684  0.4244 -1.2623
  466MOL0     H64272   5.399   3.881   7.274  2.9006 -0.7322 -2.0488
  466MOL0     H64273   5.243   3.957   7.225 -1.2100 -1.1548 -2.1241
  466MOL0     H64274   5.230   3.775   7.033  1.7012 -0.1398 -0.7417
  466MOL0     H64275   5.396   3.729   7.076  0.9020 -0.9387  2.5986
  466MOL0     H64276   5.159   3.705   7.273 -1.0826  0.5339 -1.6290
  466MOL0     H64277   5.321   3.648   7.294 -2.0390  2.4515  3.2243
  466MOL0     H64278   5.304   3.499   7.083 -0.5990 -1.6955  1.4206
  466MOL0     H64279   5.152   3.584   7.048  0.8936  0.8604 -0.4236
  466MOL0     H64280   5.054   3.481   7.256  0.0742  1.7377 -1.5533
  466MOL0     H64281   5.131   3.362   7.144  0.5508 -0.3445 -0.3644
  466MOL0     H64282   5.234   3.414   7.431  2.4624  2.1697 -0.2689
  466MOL0     H64283   5.348   3.402   7.293 -1.8454  0.4474 -3.2724
  466MOL0     H64284   5.307   3.180   7.418  2.6836 -1.1292 -2.9969
  466MOL0     H64285   5.302   3.176   7.260  2.8221  4.7367 -0.6695
  466MOL0     H64286   5.108   3.037   7.344  3.2810  0.2054  1.3808
  466MOL0     H64287   5.031   3.167   7.259 -2.8943 -0.1934  1.3622
  466MOL0     H64288   5.537   4.106   6.926 -0.7354 -2.9766 -0.9764
  466MOL0     H64289   5.467   4.246   6.753 -0.6540  2.5827  1.0971
  466MOL0     H64290   5.283   4.071   6.498 -1.6806  0.3884 -0.1633
  466MOL0     H64291   5.474   3.970   6.382 -0.1337  0.7302 -0.9764
  466MOL0     H64292   7.153   3.353   6.722  0.7856  0.0948 -0.3307
  466MOL0     H64293   7.378   3.424   6.667  0.9052  0.1704  1.1600
  466MOL0     H64294   7.729   3.705   6.714 -0.5584  0.9710  3.1119
  466MOL0     H64295   7.961   3.745   6.671  0.0861  0.6040  0.2590
  466MOL0     H64296   8.302   3.498   6.874  4.5206  0.7132 -0.8925
  466MOL0     H64297   8.208   3.383   6.767  0.2003 -0.0917 -3.0224
  466MOL0     H64298   8.458   3.432   6.707 -1.2933 -0.3318  1.8762
  466MOL0     H64299   8.404   3.592   6.666  1.7869  0.7486 -1.3349
  466MOL0     H64300   8.292   3.340   6.546  0.3572 -0.0541 -0.9449
  466MOL0     H64301   8.219   3.483   6.501 -1.1557 -3.9381 -2.3866
  466MOL0     H64302   8.379   3.407   6.321  3.5754 -3.6819  1.3689
  466MOL0     H64303   8.512   3.422   6.443  0.9846  3.3310  1.4746
  466MOL0     H64304   8.414   3.827   6.339  1.5953  1.7487  1.1175
  466MOL0     H64305   8.068   3.412   6.919  0.9028 -1.1340 -1.4544
  466MOL0     H64306   7.762   3.245   6.924 -1.7729  1.2943 -0.7821
  466MOL0     H64307   7.922   3.278   7.005  1.6399  3.0146  0.2341
  466MOL0     H64308   7.776   3.343   7.061 -3.5889 -5.0625 -1.7134
  467MOL0     O64309   7.746   4.827  11.483  0.0775 -0.0069  0.0500
  467MOL0     C64310   7.714   4.946  11.477  0.8617 -0.0751 -0.6564
  467MOL0     O64311   7.776   5.048  11.414  0.7083 -0.6732  0.7071
  467MOL0     C64312   7.884   5.031  11.333  0.5214 -0.9334 -0.5784
  467MOL0     C64313   7.971   5.139  11.332  0.1961 -0.3677  0.1014
  467MOL0     C64314   8.089   5.141  11.251  0.5130 -0.3518  0.1722
  467MOL0     C64315   8.119   5.038  11.167  0.1196  0.4623  0.3353
  467MOL0     O64316   8.239   5.009  11.101 -0.7003 -0.1629 -0.1789
  467MOL0     C64317   8.365   5.048  11.158  0.2487 -0.5146 -0.9645
  467MOL0     C64318   8.479   4.982  11.079 -0.0812 -0.7812 -0.2070
  467MOL0     C64319   8.615   5.037  11.141  0.1410 -0.6794  0.0534
  467MOL0     C64320   8.703   5.116  11.047 -0.3158  0.2212  0.3146
  467MOL0     C64321   8.816   5.181  11.126 -0.1373 -0.5887  0.2494
  467MOL0     C64322   8.910   5.264  11.050  0.0952 -0.2568 -0.0531
  467MOL0     C64323   9.036   5.300  11.137  0.2122  0.3452 -0.3857
  467MOL0     C64324   9.166   5.339  11.065 -0.5318 -0.1095 -0.4529
  467MOL0     N64325   9.264   5.388  11.156 -0.5667 -0.4627 -0.1680
  467MOL0     C64326   9.366   5.307  11.207 -0.2555 -0.0177  0.2325
  467MOL0     C64327   9.450   5.396  11.262  0.2137  0.4958 -0.0183
  467MOL0     C64328   9.581   5.370  11.328 -0.8668  0.4926  0.1803
  467MOL0     C64329   9.680   5.488  11.306  0.0857 -0.5844 -0.3817
  467MOL0     C64330   9.801   5.476  11.391 -0.7526 -0.0006 -0.2979
  467MOL0     C64331   9.927   5.543  11.327 -0.0464 -0.2866 -0.3213
  467MOL0     O64332   9.892   5.673  11.277 -0.2849  0.3797  0.7486
  467MOL0     C64333   9.880   5.783  11.359  0.8332 -1.1034 -0.1734
  467MOL0     C64334   9.944   5.800  11.477  0.2790 -0.9717  0.2401
  467MOL0     C64335   9.948   5.920  11.548  0.2966 -1.2645 -0.7160
  467MOL0     C64336  10.044   5.906  11.664  0.0276 -0.7438  0.7999
  467MOL0     C64337   9.884   6.037  11.497  0.6675 -0.3327 -0.3073
  467MOL0     C64338   9.881   6.161  11.561  0.1785  0.3223 -1.1559
  467MOL0     O64339   9.918   6.269  11.496  0.0439  0.1894  0.4437
  467MOL0     C64340   9.918   6.392  11.559 -0.0245  0.4632 -0.4694
  467MOL0     C64341   9.817   6.484  11.526  0.4735 -0.9958  0.5479
  467MOL0     C64342   9.817   6.617  11.578 -0.4349 -0.3794  1.1428
  467MOL0     C64343   9.937   6.661  11.650  0.5395  0.3847  0.5829
  467MOL0     O64344   9.947   6.787  11.702 -0.0916  0.0255  0.6565
  467MOL0     C64345   9.902   6.800  11.836 -1.1927  0.8220  0.0822
  467MOL0     C64346   9.956   6.939  11.880 -0.0204  0.2520  0.5274
  467MOL0     C64347   9.862   7.049  11.820  0.4933 -0.0815  0.3249
  467MOL0     C64348   9.753   7.093  11.925 -0.9793  0.6183 -0.2182
  467MOL0     C64349   9.675   6.976  11.997  1.0431  0.0565  0.2342
  467MOL0     C64350   9.607   7.018  12.129  0.6572  0.5582 -0.4523
  467MOL0     C64351   9.544   6.902  12.215 -0.0117 -0.9896  0.0665
  467MOL0     C64352   9.477   6.789  12.145 -0.2892  1.0320  0.0075
  467MOL0    Cl64353   9.373   6.702  12.260  0.2398  0.7652  0.2183
  467MOL0     C64354  10.040   6.564  11.681  0.1150  0.4216  1.4528
  467MOL0     C64355  10.028   6.424  11.643 -0.0690 -0.4137  0.2527
  467MOL0     O64356   9.852   6.154  11.685  0.4009  0.4538  0.1042
  467MOL0     C64357   9.822   6.021  11.372  0.2728 -1.1787  1.1633
  467MOL0     C64358   9.818   5.900  11.303  0.7427  0.1302 -0.0725
  467MOL0     N64359   9.395   5.522  11.250  0.3899  0.4789 -0.4365
  467MOL0     N64360   9.278   5.515  11.203  0.5206 -0.0812  0.2914
  467MOL0     C64361   8.031   4.927  11.166 -0.7880  0.3156 -0.0237
  467MOL0     C64362   7.914   4.923  11.244  0.0164  0.0727 -0.2684
  467MOL0     C64363   7.592   4.986  11.549  0.5932 -1.2169  0.2493
  467MOL0     C64364   7.495   5.047  11.468  1.2031  0.7357  0.0903
  467MOL0     C64365   7.367   5.055  11.519 -0.4735  0.0006 -0.1464
  467MOL0     C64366   7.338   5.041  11.661  0.7326 -0.9594 -0.3933
  467MOL0     O64367   7.210   5.075  11.695 -0.0797  0.0055 -0.4370
  467MOL0     C64368   7.140   5.011  11.811  0.3766 -0.6757  0.6393
  467MOL0     C64369   6.992   5.068  11.814  0.0667 -0.4488 -0.9464
  467MOL0     C64370   6.980   5.191  11.894 -0.8270 -0.2281  1.4487
  467MOL0     C64371   6.849   5.275  11.874  0.4958  0.1353 -0.5288
  467MOL0     C64372   6.864   5.410  11.926  0.0771 -0.3587 -0.4179
  467MOL0     C64373   6.861   5.515  11.993 -0.4466 -0.4393  0.4390
  467MOL0     C64374   7.436   4.987  11.736  0.2514 -0.7034  0.3269
  467MOL0     C64375   7.564   4.953  11.682 -0.3625 -0.1261 -0.8607
  467MOL0     C64376   7.667   4.886  11.774  0.2040  0.1950 -0.9849
  467MOL0     H64377   7.923   5.207  11.401 -2.5362 -1.4999 -0.5467
  467MOL0     H64378   8.162   5.220  11.246  2.1750 -1.8532 -0.1157
  467MOL0     H64379   8.376   5.044  11.267  2.1239  1.1918 -1.0509
  467MOL0     H64380   8.373   5.153  11.128 -0.8398 -0.0814  0.1671
  467MOL0     H64381   8.488   4.875  11.100 -2.3227 -0.4911  2.9559
  467MOL0     H64382   8.467   5.005  10.973  1.4417 -3.2274 -1.0035
  467MOL0     H64383   8.588   5.106  11.221  0.4131  2.4286 -2.3540
  467MOL0     H64384   8.667   4.951  11.183  2.5832  2.0790  3.2797
  467MOL0     H64385   8.735   5.049  10.967  0.2107  2.7731 -1.7196
  467MOL0     H64386   8.638   5.186  10.995 -0.6131 -0.3550 -0.1099
  467MOL0     H64387   8.873   5.097  11.167 -0.1033 -1.4946 -1.5249
  467MOL0     H64388   8.783   5.248  11.206  0.8082  2.3980 -1.6999
  467MOL0     H64389   8.951   5.215  10.961  2.0788 -2.8864  2.1168
  467MOL0     H64390   8.866   5.359  11.020  1.9576  0.2128 -1.4396
  467MOL0     H64391   9.058   5.208  11.193 -0.0142 -1.1880 -2.6999
  467MOL0     H64392   9.011   5.371  11.216  3.4630  0.0597  1.0579
  467MOL0     H64393   9.205   5.263  10.997  3.0971  1.6237 -0.5509
  467MOL0     H64394   9.131   5.413  10.993 -0.9066 -0.5584 -0.7387
  467MOL0     H64395   9.386   5.201  11.189  0.6738  0.1059  0.4672
  467MOL0     H64396   9.628   5.288  11.272 -1.7784 -1.6164  2.3273
  467MOL0     H64397   9.579   5.321  11.426  5.0908 -1.4701 -0.2908
  467MOL0     H64398   9.715   5.493  11.203  0.0370  3.2613 -0.3771
  467MOL0     H64399   9.638   5.588  11.324  1.3864 -0.1800  0.5524
  467MOL0     H64400   9.781   5.532  11.483 -0.0288  2.7769 -1.7206
  467MOL0     H64401   9.820   5.373  11.423  0.0596 -0.3672 -1.8678
  467MOL0     H64402  10.004   5.541  11.404  0.2396  1.6444 -0.5145
  467MOL0     H64403   9.961   5.479  11.245 -0.9793  0.2951 -1.1943
  467MOL0     H64404   9.989   5.708  11.513 -1.1654 -2.1267 -0.8068
  467MOL0     H64405   9.999   5.832  11.731  1.1365 -0.3042  2.0620
  467MOL0     H64406  10.053   6.003  11.713 -0.2877 -1.9799  3.4808
  467MOL0     H64407  10.145   5.883  11.629  0.0509 -1.1071  1.0859
  467MOL0     H64408   9.728   6.455  11.471 -2.4266 -0.2748  4.3517
  467MOL0     H64409   9.725   6.671  11.558 -1.5203 -2.6509 -0.5240
  467MOL0     H64410   9.794   6.790  11.855 -1.3144  1.2823 -0.3501
  467MOL0     H64411   9.955   6.734  11.905  0.5260  2.1059  0.0586
  467MOL0     H64412   9.956   6.944  11.989  1.7110 -3.7044  0.8801
  467MOL0     H64413  10.057   6.960  11.845  0.5612 -1.9102  0.7143
  467MOL0     H64414   9.808   7.011  11.732  2.5753 -0.0047 -1.0817
  467MOL0     H64415   9.920   7.137  11.789 -2.8640  1.9326 -0.7364
  467MOL0     H64416   9.679   7.163  11.886  0.0003  1.6720 -0.2713
  467MOL0     H64417   9.807   7.142  12.007 -1.9843 -0.3233  1.0471
  467MOL0     H64418   9.600   6.937  11.927  1.8890 -0.6520 -0.3035
  467MOL0     H64419   9.741   6.891  12.018 -0.6935 -2.0364 -2.1980
  467MOL0     H64420   9.529   7.090  12.104  0.4691  0.5842  0.1944
  467MOL0     H64421   9.683   7.072  12.186  2.4785 -2.5794  0.3874
  467MOL0     H64422   9.472   6.944  12.286  1.1541  0.2418  0.5591
  467MOL0     H64423   9.621   6.870  12.286  1.2143  2.1268  0.2862
  467MOL0     H64424   9.547   6.718  12.099 -1.8821 -0.2362 -0.5420
  467MOL0     H64425   9.411   6.823  12.065 -0.0990 -1.8823 -1.5381
  467MOL0     H64426  10.121   6.587  11.749 -0.1778 -0.7262  2.2254
  467MOL0     H64427  10.107   6.352  11.662  2.7648  1.8084 -2.1872
  467MOL0     H64428   9.778   6.109  11.327 -3.0279 -2.7011  1.1442
  467MOL0     H64429   9.769   5.882  11.208  0.0011 -0.1420  0.3452
  467MOL0     H64430   8.050   4.836  11.110 -0.9394  0.7312 -0.7685
  467MOL0     H64431   7.842   4.841  11.243 -0.3697  0.4010  0.2263
  467MOL0     H64432   7.508   5.061  11.361 -1.4617  2.2700 -0.1024
  467MOL0     H64433   7.280   5.087  11.463  1.1885  4.0934 -0.7916
  467MOL0     H64434   7.128   4.902  11.814 -0.0110 -0.6070  2.2186
  467MOL0     H64435   7.180   5.042  11.908 -0.2263 -1.2033  1.0664
  467MOL0     H64436   6.930   4.991  11.862 -1.1824  0.9656 -0.1886
  467MOL0     H64437   6.968   5.087  11.709 -1.0115 -2.5308 -1.1410
  467MOL0     H64438   7.003   5.173  11.999 -1.3220 -1.1911  1.4089
  467MOL0     H64439   7.065   5.251  11.862  1.3282 -2.5162  2.5575
  467MOL0     H64440   6.772   5.226  11.934  0.3586  0.7735 -0.1752
  467MOL0     H64441   6.806   5.285  11.774 -3.4735  4.2420  1.2637
  467MOL0     H64442   6.869   5.605  12.050  2.3689  0.9243 -1.8804
  467MOL0     H64443   7.419   4.971  11.842 -0.3039  1.2132  0.5704
  467MOL0     H64444   7.677   4.782  11.744  2.5696  0.4129 -1.1421
  467MOL0     H64445   7.759   4.945  11.780 -0.7323  1.5473  1.7176
  467MOL0     H64446   7.647   4.877  11.881  1.5164  1.6892 -0.5738
  468MOL0     O64447   1.950   3.306  10.723 -0.1423  1.1130 -1.2317
  468MOL0     C64448   2.029   3.388  10.693  0.0003 -0.8138  1.1859
  468MOL0     O64449   2.010   3.487  10.598  0.5513  1.1887 -0.3047
  468MOL0     C64450   1.882   3.509  10.559 -0.3053  0.3330  0.6953
  468MOL0     C64451   1.792   3.593  10.622 -0.7794 -0.3941 -0.4284
  468MOL0     C64452   1.660   3.589  10.572  0.4136 -0.1989  0.1045
  468MOL0     C64453   1.623   3.528  10.449 -0.3089  0.0764  0.6751
  468MOL0     O64454   1.486   3.541  10.403 -0.4782 -0.1636 -0.8580
  468MOL0     C64455   1.468   3.508  10.267  0.0322  1.0561  0.1917
  468MOL0     C64456   1.329   3.542  10.217  0.1054  0.6134  1.1899
  468MOL0     C64457   1.271   3.673  10.269  0.0409 -0.3552 -0.0255
  468MOL0     C64458   1.291   3.796  10.175  0.2482  1.2521 -0.5606
  468MOL0     C64459   1.224   3.791  10.038  0.4587  0.8236 -0.2810
  468MOL0     C64460   1.083   3.814  10.025  0.1490  0.2612 -0.2445
  468MOL0     C64461   1.038   3.955  10.088  0.3379  0.4629  0.4423
  468MOL0     C64462   1.097   4.070  10.010 -0.6397  0.0511  0.2540
  468MOL0     N64463   1.069   4.055   9.869 -0.5945  0.4665  0.3524
  468MOL0     C64464   0.966   4.114   9.804 -0.4059 -1.1754 -0.7019
  468MOL0     C64465   0.986   4.095   9.674  0.5240 -0.4630  0.1541
  468MOL0     C64466   0.932   4.181   9.561 -0.3721 -0.0061  0.2674
  468MOL0     C64467   1.024   4.302   9.551  0.0152  0.0140  0.5674
  468MOL0     C64468   0.988   4.413   9.446 -0.7893 -0.2754 -0.3539
  468MOL0     C64469   0.895   4.516   9.502  0.3353 -0.2862 -0.7184
  468MOL0     O64470   0.850   4.610   9.402  0.0461 -0.0539  0.1556
  468MOL0     C64471   0.850   4.746   9.428  0.4905 -0.0276 -0.5432
  468MOL0     C64472   0.827   4.827   9.321 -0.5402 -0.5205  1.0879
  468MOL0     C64473   0.808   4.961   9.334 -0.0724 -1.1848 -0.1144
  468MOL0     C64474   0.781   5.042   9.211 -0.4562  0.5220  0.1129
  468MOL0     C64475   0.821   5.027   9.460  0.2813 -0.3104 -0.6583
  468MOL0     C64476   0.797   5.170   9.486  0.8255  0.1144 -0.7275
  468MOL0     O64477   0.716   5.241   9.399 -0.5694 -0.0438 -0.2075
  468MOL0     C64478   0.690   5.377   9.419 -0.0356  1.2650  0.6856
  468MOL0     C64479   0.623   5.426   9.535 -0.8906  0.4526 -0.6156
  468MOL0     C64480   0.607   5.563   9.536  0.6313  0.2310  0.9142
  468MOL0     C64481   0.629   5.651   9.431  0.7565  0.5536 -0.4049
  468MOL0     O64482   0.592   5.782   9.451  0.1958  0.7626  0.3833
  468MOL0     C64483   0.595   5.873   9.342 -0.6554 -0.1771 -0.3307
  468MOL0     C64484   0.728   5.945   9.318 -0.4336 -0.3775 -0.1117
  468MOL0     C64485   0.750   6.043   9.436  0.2338  1.0153 -0.1939
  468MOL0     C64486   0.863   6.143   9.416  0.5758 -1.2588  0.8760
  468MOL0     C64487   0.899   6.220   9.545 -1.0532 -0.0167 -0.2814
  468MOL0     C64488   1.028   6.311   9.528  0.2937 -0.3474 -0.5417
  468MOL0     C64489   1.023   6.411   9.646  0.3244 -0.7573  0.1070
  468MOL0     C64490   1.121   6.531   9.620  0.2094 -0.5238 -0.6620
  468MOL0    Cl64491   1.051   6.650   9.507 -0.2002 -0.6179  0.2480
  468MOL0     C64492   0.687   5.600   9.313  0.0762 -0.5440  0.9453
  468MOL0     C64493   0.729   5.463   9.321 -0.2958 -0.7572  0.6712
  468MOL0     O64494   0.852   5.220   9.584  0.6199  0.5465  1.2080
  468MOL0     C64495   0.857   4.955   9.571  0.0900  0.0919 -0.1844
  468MOL0     C64496   0.865   4.810   9.559 -0.4046 -1.2700 -1.1240
  468MOL0     N64497   1.088   4.009   9.659 -0.2700  0.3822  0.0133
  468MOL0     N64498   1.152   3.993   9.776  0.1751 -0.0003  1.2078
  468MOL0     C64499   1.725   3.471  10.377  0.7818  0.4073  0.0964
  468MOL0     C64500   1.857   3.455  10.431  0.4248  0.3203 -0.1038
  468MOL0     C64501   2.163   3.386  10.761  0.1832 -0.5352 -0.4995
  468MOL0     C64502   2.174   3.329  10.892 -0.5565 -0.3326 -0.3338
  468MOL0     C64503   2.291   3.325  10.964 -0.4109 -0.4241 -0.4829
  468MOL0     C64504   2.400   3.391  10.903 -1.5356  0.6073 -0.8090
  468MOL0     O64505   2.516   3.399  10.981  0.1400 -0.6780 -0.4013
  468MOL0     C64506   2.643   3.434  10.930 -0.1385 -0.8859 -0.0625
  468MOL0     C64507   2.740   3.330  10.990  1.3996  1.1217  0.3805
  468MOL0     C64508   2.873   3.398  11.032 -0.6520 -0.9267  0.2854
  468MOL0     C64509   2.856   3.489  11.152 -0.4619 -0.0768 -0.1843
  468MOL0     C64510   2.975   3.510  11.240 -0.1288  0.3172 -0.1033
  468MOL0     C64511   3.078   3.534  11.301  0.1112  0.0240  0.4604
  468MOL0     C64512   2.395   3.446  10.781  0.3797 -0.1301  0.3051
  468MOL0     C64513   2.279   3.449  10.708  0.4827 -0.6601  0.5602
  468MOL0     C64514   2.288   3.500  10.567  0.3536  0.2822  0.2233
  468MOL0     H64515   1.810   3.637  10.720 -0.1510 -0.2278 -0.6187
  468MOL0     H64516   1.584   3.626  10.641  0.6918  2.1943 -0.7757
  468MOL0     H64517   1.491   3.401  10.259  0.5059  1.2328 -1.1240
  468MOL0     H64518   1.533   3.555  10.192  1.0105  1.4393  1.2578
  468MOL0     H64519   1.336   3.521  10.109  2.3256 -0.3136  1.4493
  468MOL0     H64520   1.264   3.468  10.264  0.3882 -0.5984 -0.2337
  468MOL0     H64521   1.162   3.667  10.274  0.0151 -0.5601 -0.7190
  468MOL0     H64522   1.317   3.692  10.366  0.5467 -1.2675 -0.0733
  468MOL0     H64523   1.249   3.881  10.230  0.9249  0.7408  0.7945
  468MOL0     H64524   1.399   3.812  10.167  0.7309 -1.0589  0.7459
  468MOL0     H64525   1.244   3.692   9.995 -1.8587  0.3120 -0.3199
  468MOL0     H64526   1.286   3.855   9.975 -0.2329  0.2688 -1.5626
  468MOL0     H64527   1.052   3.812   9.920 -1.4208 -1.2477  0.1863
  468MOL0     H64528   1.022   3.744  10.084  1.4566  2.0118  3.5296
  468MOL0     H64529   1.067   3.953  10.193  3.8186 -2.8156 -0.3158
  468MOL0     H64530   0.929   3.955  10.093  0.3645  1.9634  1.4476
  468MOL0     H64531   1.054   4.162  10.049  1.3560  1.8152 -1.3983
  468MOL0     H64532   1.206   4.083  10.014 -0.6037 -0.2964  0.3870
  468MOL0     H64533   0.889   4.176   9.849 -0.3217 -2.1046  0.8160
  468MOL0     H64534   0.825   4.200   9.577 -0.5527 -0.2272 -0.6423
  468MOL0     H64535   0.929   4.126   9.467  0.0535 -1.5533  1.1294
  468MOL0     H64536   1.017   4.338   9.654  0.9167 -1.7565  1.3029
  468MOL0     H64537   1.129   4.280   9.529  0.3878  2.0764  0.1529
  468MOL0     H64538   1.076   4.474   9.426 -0.2070 -1.1755 -0.6408
  468MOL0     H64539   0.971   4.370   9.346  0.0096 -2.5279  0.4182
  468MOL0     H64540   0.806   4.470   9.544  0.2946 -0.3041 -0.8261
  468MOL0     H64541   0.950   4.568   9.582  0.9169 -2.0589  0.0702
  468MOL0     H64542   0.828   4.777   9.225  2.0407 -0.8097  1.1997
  468MOL0     H64543   0.830   5.139   9.212  2.4198 -0.8287 -0.6087
  468MOL0     H64544   0.673   5.060   9.212 -0.5547  0.1036 -0.9647
  468MOL0     H64545   0.796   4.986   9.118  0.6364  0.9108  0.0504
  468MOL0     H64546   0.602   5.351   9.611  1.4969 -0.0099 -0.3455
  468MOL0     H64547   0.559   5.583   9.631 -0.0101  0.3880  0.5614
  468MOL0     H64548   0.574   5.816   9.252  0.6070 -1.8190  0.3729
  468MOL0     H64549   0.513   5.943   9.357  0.4147  1.0448  0.0651
  468MOL0     H64550   0.813   5.877   9.325  0.6087  0.9663  0.5631
  468MOL0     H64551   0.709   5.988   9.219 -1.0256 -1.2797 -0.4092
  468MOL0     H64552   0.771   5.987   9.528 -0.2151  0.9106 -0.1557
  468MOL0     H64553   0.660   6.102   9.454  1.9761  3.6941  0.3346
  468MOL0     H64554   0.839   6.227   9.350 -1.1510 -0.6200  2.2232
  468MOL0     H64555   0.954   6.104   9.369 -0.0523 -1.7606  0.0346
  468MOL0     H64556   0.815   6.281   9.581 -0.4953  1.2825 -1.0827
  468MOL0     H64557   0.926   6.137   9.609  0.0526 -1.7499 -2.8293
  468MOL0     H64558   1.029   6.356   9.428  0.0452 -2.3789 -1.5298
  468MOL0     H64559   1.119   6.250   9.523  0.2247 -0.6193  1.1032
  468MOL0     H64560   1.044   6.363   9.742 -0.6056  0.6970  1.0879
  468MOL0     H64561   0.924   6.458   9.641 -0.8615 -3.2503 -1.2606
  468MOL0     H64562   1.213   6.485   9.584 -0.0324 -0.8339 -0.8893
  468MOL0     H64563   1.152   6.592   9.705 -0.6876  0.4700 -1.0087
  468MOL0     H64564   0.704   5.649   9.218 -3.1585 -1.8404 -0.4713
  468MOL0     H64565   0.787   5.437   9.233 -0.2784  3.3054 -0.7198
  468MOL0     H64566   0.873   5.000   9.668  1.7580  1.0936 -0.8779
  468MOL0     H64567   0.886   4.761   9.654 -0.4740 -0.1473 -0.5087
  468MOL0     H64568   1.703   3.421  10.283 -3.2275  2.6925 -0.3970
  468MOL0     H64569   1.938   3.421  10.367  0.0088  2.4335 -1.8479
  468MOL0     H64570   2.076   3.294  10.926 -1.2016 -0.2888 -2.0408
  468MOL0     H64571   2.299   3.275  11.060 -3.2608 -0.0687  0.0192
  468MOL0     H64572   2.652   3.429  10.822  0.3279 -1.1495 -0.0119
  468MOL0     H64573   2.663   3.535  10.967  1.4515 -0.3849 -2.1233
  468MOL0     H64574   2.772   3.260  10.912  0.2119  4.0856 -3.0308
  468MOL0     H64575   2.690   3.278  11.073 -1.6766 -0.2913 -2.1395
  468MOL0     H64576   2.954   3.329  11.057 -0.7470 -0.7813  1.0380
  468MOL0     H64577   2.920   3.458  10.954 -1.0340 -2.4158 -1.1356
  468MOL0     H64578   2.784   3.427  11.207 -0.5310  1.2486  1.2910
  468MOL0     H64579   2.810   3.582  11.117  0.2366  0.8977  1.3893
  468MOL0     H64580   3.175   3.560  11.341  0.8626  1.3605 -2.0468
  468MOL0     H64581   2.476   3.512  10.748 -0.2013  2.7230  3.8724
  468MOL0     H64582   2.226   3.590  10.561 -0.5444 -0.3706 -0.5965
  468MOL0     H64583   2.395   3.519  10.556  0.3256  1.0291  1.0956
  468MOL0     H64584   2.253   3.425  10.496 -0.6561  0.0048  0.9778
  469MOL0     O64585   4.056  10.775   7.482  0.7561 -0.1716 -0.3563
  469MOL0     C64586   4.069  10.830   7.371  0.2524  0.4656 -0.5578
  469MOL0     O64587   4.034  10.957   7.343  0.2538  0.1569  0.0696
  469MOL0     C64588   3.956  11.019   7.443  0.6307  0.5271 -0.3879
  469MOL0     C64589   4.010  11.129   7.514 -0.0411  1.1629 -1.5575
  469MOL0     C64590   3.935  11.204   7.604 -0.0760  0.0139  0.0082
  469MOL0     C64591   3.804  11.164   7.645 -0.4653 -0.4302 -0.8809
  469MOL0     O64592   3.714  11.234   7.726 -0.6853  0.0678  0.5499
  469MOL0     C64593   3.736  11.343   7.816  0.3831 -0.0013  0.5629
  469MOL0     C64594   3.613  11.323   7.915  0.8830  0.3987  1.7614
  469MOL0     C64595   3.483  11.372   7.842 -0.5094  0.1135 -0.4330
  469MOL0     C64596   3.364  11.324   7.916 -0.3495 -0.7218  0.1726
  469MOL0     C64597   3.322  11.429   8.026  0.0469  0.9090  1.5931
  469MOL0     C64598   3.203  11.383   8.106 -0.4970  0.1796  0.7310
  469MOL0     C64599   3.150  11.493   8.204  0.1857  1.2404  0.2236
  469MOL0     C64600   3.034  11.424   8.284 -0.6001 -0.0243 -0.6421
  469MOL0     N64601   2.975  11.516   8.381 -0.4527 -0.7271 -0.2932
  469MOL0     C64602   3.016  11.527   8.514 -0.0398 -0.2175  0.8124
  469MOL0     C64603   2.929  11.608   8.577  0.5219 -0.2638  0.1854
  469MOL0     C64604   2.937  11.643   8.726 -0.0100 -0.1756 -0.5560
  469MOL0     C64605   2.805  11.713   8.756 -0.8047  0.0240  0.7078
  469MOL0     C64606   2.780  11.736   8.902 -0.2192 -0.3503  0.2292
  469MOL0     C64607   2.640  11.787   8.919 -0.0720 -0.1441  0.4234
  469MOL0     O64608   2.619  11.857   9.055 -0.2079  0.2527 -0.0018
  469MOL0     C64609   2.484  11.891   9.076  0.3852 -0.2908 -0.7831
  469MOL0     C64610   2.377  11.873   8.991 -0.4160  0.8888  0.8350
  469MOL0     C64611   2.246  11.932   9.014  0.4966 -0.7132 -0.0956
  469MOL0     C64612   2.136  11.877   8.921  0.8868  0.1117 -0.5547
  469MOL0     C64613   2.226  12.020   9.129  0.3017  1.3881  0.4901
  469MOL0     C64614   2.103  12.103   9.142  0.2001  0.2595 -0.1007
  469MOL0     O64615   2.031  12.141   9.036 -1.0450 -0.4011 -0.4613
  469MOL0     C64616   1.922  12.221   9.060 -0.2204 -0.0831  0.7163
  469MOL0     C64617   1.814  12.201   8.969 -0.2767  0.9115 -0.0041
  469MOL0     C64618   1.698  12.274   8.986 -0.0875  0.0671 -0.0289
  469MOL0     C64619   1.694  12.377   9.083  0.8090  0.6661  0.7705
  469MOL0     O64620   1.574  12.447   9.085 -0.4330  0.2691  0.7401
  469MOL0     C64621   1.524  12.488   9.210  0.4837  0.6043 -0.2968
  469MOL0     C64622   1.393  12.574   9.211  0.0745  0.2604  0.0995
  469MOL0     C64623   1.359  12.633   9.351 -0.4687 -0.2517  0.8009
  469MOL0     C64624   1.228  12.711   9.324  0.5852  0.0706 -0.5958
  469MOL0     C64625   1.195  12.784   9.453 -0.2006  0.6270 -0.4484
  469MOL0     C64626   1.068  12.873   9.428  0.5628 -0.1818 -0.5292
  469MOL0     C64627   1.011  12.917   9.561 -0.7993 -0.9052  0.1048
  469MOL0     C64628   0.925  12.816   9.645 -0.0376 -0.3328 -0.1659
  469MOL0    Cl64629   0.835  12.908   9.757  0.1640 -0.7976  0.2377
  469MOL0     C64630   1.792  12.386   9.179  0.2764 -0.0631 -0.7994
  469MOL0     C64631   1.914  12.313   9.164  0.7366 -0.6473  0.0327
  469MOL0     O64632   2.075  12.118   9.263  0.5336 -0.1466 -0.9445
  469MOL0     C64633   2.342  12.043   9.202 -0.3193  0.0634 -0.4728
  469MOL0     C64634   2.464  11.983   9.187  0.7934  0.6769  0.3106
  469MOL0     N64635   2.835  11.641   8.474  0.2443 -0.1141  0.4050
  469MOL0     N64636   2.867  11.590   8.356 -0.5837  0.5725 -0.2679
  469MOL0     C64637   3.757  11.049   7.585 -0.3707  0.8431 -0.2383
  469MOL0     C64638   3.831  10.975   7.485  0.2009 -0.0727 -0.4043
  469MOL0     C64639   4.129  10.758   7.253 -0.3107  0.0361 -0.2153
  469MOL0     C64640   4.111  10.811   7.119  0.9594 -0.6575 -0.1007
  469MOL0     C64641   4.206  10.783   7.027  0.0875  0.5901 -0.1143
  469MOL0     C64642   4.301  10.688   7.047 -0.1962  0.3913 -0.0120
  469MOL0     O64643   4.393  10.649   6.951  0.4840 -0.2327  0.4586
  469MOL0     C64644   4.384  10.690   6.807 -1.0111 -0.6532  0.3429
  469MOL0     C64645   4.250  10.648   6.737 -0.0160 -0.5826  0.2667
  469MOL0     C64646   4.269  10.518   6.661 -0.6652  0.3296 -1.2755
  469MOL0     C64647   4.142  10.437   6.629 -0.4723  0.4846 -0.0710
  469MOL0     C64648   4.105  10.355   6.748  1.1930  0.1166 -0.9443
  469MOL0     C64649   4.065  10.287   6.844 -0.1618 -0.4567 -0.1355
  469MOL0     C64650   4.312  10.621   7.163  1.1109  0.0454  0.0907
  469MOL0     C64651   4.234  10.661   7.273  0.5953  0.0461 -1.3015
  469MOL0     C64652   4.273  10.598   7.413 -0.8790  0.1413  0.7204
  469MOL0     H64653   4.111  11.165   7.495 -0.1322  0.5084 -3.4278
  469MOL0     H64654   3.975  11.292   7.653 -1.8837  0.8860 -0.0218
  469MOL0     H64655   3.728  11.439   7.766 -1.1080 -1.2101 -1.6959
  469MOL0     H64656   3.834  11.339   7.865 -1.4249  0.8683  4.7466
  469MOL0     H64657   3.607  11.219   7.949 -2.3506  0.4281  1.5361
  469MOL0     H64658   3.643  11.385   8.000  1.7219  2.3676  0.1072
  469MOL0     H64659   3.485  11.481   7.832 -1.7882  0.0612 -1.5650
  469MOL0     H64660   3.484  11.321   7.745  0.2008 -2.0270  0.6322
  469MOL0     H64661   3.289  11.306   7.838 -1.7884  0.0991  1.3244
  469MOL0     H64662   3.367  11.220   7.950 -2.0739 -2.2321 -3.6862
  469MOL0     H64663   3.311  11.529   7.983 -3.0771 -0.6429 -1.7223
  469MOL0     H64664   3.406  11.432   8.096  3.2689 -2.3667 -1.6826
  469MOL0     H64665   3.121  11.376   8.033  1.6279  0.0020 -1.7812
  469MOL0     H64666   3.217  11.286   8.155 -0.3673 -0.8932 -1.3045
  469MOL0     H64667   3.113  11.580   8.149  0.0181 -1.2458 -4.1072
  469MOL0     H64668   3.227  11.515   8.277  1.3562 -4.0049  0.9385
  469MOL0     H64669   2.956  11.395   8.212 -1.1645 -0.5542  0.1735
  469MOL0     H64670   3.067  11.327   8.322  1.6075 -0.3223 -3.0279
  469MOL0     H64671   3.106  11.479   8.551  2.7313  3.0791 -1.0794
  469MOL0     H64672   3.022  11.706   8.753  1.8188 -0.5115 -4.7122
  469MOL0     H64673   2.944  11.551   8.785  0.5740 -1.0447 -1.9271
  469MOL0     H64674   2.802  11.813   8.713  1.3760 -0.1560  0.0013
  469MOL0     H64675   2.723  11.654   8.714 -0.6257 -1.1153  1.8905
  469MOL0     H64676   2.801  11.649   8.965  2.9904  0.6210  0.7128
  469MOL0     H64677   2.853  11.813   8.929  0.7721 -0.0965 -2.7424
  469MOL0     H64678   2.609  11.859   8.843  0.5919 -0.2456  0.0561
  469MOL0     H64679   2.579  11.696   8.914 -0.5321  0.2182 -0.9461
  469MOL0     H64680   2.371  11.809   8.904  1.2575 -0.3836  1.6014
  469MOL0     H64681   2.136  11.912   8.817 -1.1875  1.7428 -0.0672
  469MOL0     H64682   2.035  11.901   8.955  1.8684  0.8577  1.9907
  469MOL0     H64683   2.143  11.768   8.914 -0.6527  0.0869 -2.8864
  469MOL0     H64684   1.815  12.124   8.893  0.8801 -2.3713  3.0827
  469MOL0     H64685   1.618  12.279   8.913  0.8952 -0.4397 -1.1668
  469MOL0     H64686   1.503  12.403   9.275 -0.9146 -0.0435 -1.5454
  469MOL0     H64687   1.596  12.561   9.248 -0.5778  2.3064 -1.4583
  469MOL0     H64688   1.411  12.654   9.139  2.9001  1.6918  2.2107
  469MOL0     H64689   1.306  12.513   9.184 -0.8802  1.5441  0.1651
  469MOL0     H64690   1.432  12.699   9.399 -0.7738 -1.8840  3.7269
  469MOL0     H64691   1.352  12.549   9.420  1.1945 -0.8935  0.2252
  469MOL0     H64692   1.152  12.639   9.294  1.7027 -0.5550 -2.1080
  469MOL0     H64693   1.255  12.786   9.249  0.7563 -0.8820 -1.5152
  469MOL0     H64694   1.150  12.719   9.529 -2.6786  1.9785 -0.6454
  469MOL0     H64695   1.288  12.833   9.485  4.9824 -6.7130 -1.7481
  469MOL0     H64696   0.987  12.821   9.376  1.2921  1.6795 -3.8501
  469MOL0     H64697   1.094  12.964   9.372 -1.0645 -0.6236 -2.1279
  469MOL0     H64698   0.962  13.008   9.528  1.3963  0.4050  0.2576
  469MOL0     H64699   1.090  12.963   9.621 -0.5989  2.7039 -2.6186
  469MOL0     H64700   0.988  12.741   9.695 -0.5383 -1.3087 -0.9534
  469MOL0     H64701   0.858  12.755   9.583  0.2678 -4.3733  3.0154
  469MOL0     H64702   1.776  12.452   9.263  0.0420  0.4501 -1.2441
  469MOL0     H64703   1.985  12.319   9.246 -1.5164 -3.5615  2.4005
  469MOL0     H64704   2.335  12.126   9.271  1.7438  0.2058 -0.3902
  469MOL0     H64705   2.539  12.025   9.254  1.7355 -1.9310  1.0248
  469MOL0     H64706   3.660  11.004   7.606  0.1018 -0.2830 -0.4119
  469MOL0     H64707   3.789  10.890   7.431 -0.3598  0.6671 -1.1717
  469MOL0     H64708   4.036  10.888   7.107  1.8556 -0.0314 -2.0873
  469MOL0     H64709   4.187  10.820   6.927 -0.1797 -2.9673 -1.5041
  469MOL0     H64710   4.396  10.798   6.810  0.9110 -0.8503  1.0010
  469MOL0     H64711   4.464  10.637   6.754  0.1665 -0.4609  1.8854
  469MOL0     H64712   4.202  10.731   6.684 -0.7309 -1.5616 -0.6861
  469MOL0     H64713   4.168  10.626   6.807 -2.1152 -0.0815 -1.8847
  469MOL0     H64714   4.337  10.525   6.575 -0.5178 -0.0627 -1.1966
  469MOL0     H64715   4.332  10.462   6.731 -1.4983  1.1634  0.1807
  469MOL0     H64716   4.169  10.377   6.541  0.5133  1.0125 -0.1475
  469MOL0     H64717   4.063  10.506   6.597  0.1475  0.7143 -1.1626
  469MOL0     H64718   4.030  10.233   6.929 -2.9471  0.9454 -0.2997
  469MOL0     H64719   4.392  10.548   7.164 -1.5066 -3.0128  0.2280
  469MOL0     H64720   4.341  10.670   7.459 -2.7286  0.3682  3.2993
  469MOL0     H64721   4.185  10.561   7.467 -1.4464 -0.5902 -0.6480
  469MOL0     H64722   4.329  10.508   7.388 -2.0979 -0.0923 -1.4202
  470MOL0     O64723   5.142  11.027   8.168 -0.3905  0.0103 -0.3417
  470MOL0     C64724   5.081  11.104   8.244 -0.0227  0.8469  0.7906
  470MOL0     O64725   5.068  11.083   8.376  0.6330  0.6936 -0.1914
  470MOL0     C64726   5.147  11.000   8.442  0.9272  0.9971  0.6334
  470MOL0     C64727   5.271  11.049   8.483 -0.6445  0.9567 -1.0227
  470MOL0     C64728   5.356  10.967   8.563  0.4505 -0.0972  0.5939
  470MOL0     C64729   5.318  10.839   8.598 -0.2747  0.6903 -0.5981
  470MOL0     O64730   5.387  10.750   8.672 -0.2873 -0.2839 -0.0473
  470MOL0     C64731   5.521  10.789   8.705 -0.5358 -1.1115 -0.2302
  470MOL0     C64732   5.578  10.687   8.788 -0.4800 -0.4972 -0.2724
  470MOL0     C64733   5.581  10.551   8.716  0.7289  0.2187  0.7878
  470MOL0     C64734   5.660  10.457   8.809 -0.6912  0.1729  0.0608
  470MOL0     C64735   5.679  10.319   8.737 -0.6573  0.2242 -0.0326
  470MOL0     C64736   5.758  10.214   8.818  0.0034 -0.3291  0.0485
  470MOL0     C64737   5.702  10.164   8.956  0.3369 -0.4152  0.4479
  470MOL0     C64738   5.788  10.059   9.018 -0.1114  0.1389  0.7082
  470MOL0     N64739   5.795   9.944   8.932 -0.2748  0.5399 -0.2816
  470MOL0     C64740   5.890   9.912   8.841  0.3135  0.4842  0.3988
  470MOL0     C64741   5.871   9.788   8.785 -0.6954 -0.0282 -0.2899
  470MOL0     C64742   5.956   9.717   8.683  0.5949 -0.2377  0.1161
  470MOL0     C64743   5.882   9.713   8.544  0.5529 -0.3326 -0.1487
  470MOL0     C64744   5.945   9.628   8.434 -0.1732  0.7699  0.5424
  470MOL0     C64745   6.084   9.669   8.380 -0.2372  0.3943  0.2728
  470MOL0     O64746   6.105   9.605   8.264  0.6378 -0.3674 -0.2865
  470MOL0     C64747   6.216   9.645   8.189  0.1295  0.4399 -0.2286
  470MOL0     C64748   6.303   9.549   8.128 -0.5133 -0.3256 -0.5438
  470MOL0     C64749   6.412   9.591   8.047  0.2555 -0.9176 -0.2177
  470MOL0     C64750   6.505   9.494   7.975  0.5696 -0.0768 -1.0573
  470MOL0     C64751   6.434   9.725   8.020  0.3084 -0.2364  0.1312
  470MOL0     C64752   6.546   9.794   7.940  0.1404  1.5087  0.0124
  470MOL0     O64753   6.529   9.924   7.916 -0.0345  0.1436 -0.3199
  470MOL0     C64754   6.620   9.991   7.834 -0.1618 -0.3157 -0.2538
  470MOL0     C64755   6.674   9.925   7.728  0.9448  0.1455  1.3425
  470MOL0     C64756   6.747   9.999   7.636  0.0520 -1.5627  0.2504
  470MOL0     C64757   6.781  10.133   7.640  0.2850  0.1581 -0.6066
  470MOL0     O64758   6.870  10.188   7.554  0.5472 -0.0223  0.1579
  470MOL0     C64759   6.896  10.332   7.565  0.5281 -0.1864  0.1112
  470MOL0     C64760   7.000  10.375   7.468 -0.3382 -0.2077 -0.1998
  470MOL0     C64761   7.133  10.330   7.536 -0.5213  0.4956  0.9646
  470MOL0     C64762   7.249  10.361   7.443  0.6336 -0.4429  0.0537
  470MOL0     C64763   7.380  10.310   7.493 -1.1046 -0.1463  0.6049
  470MOL0     C64764   7.410  10.166   7.465 -0.7328  0.3161  0.1806
  470MOL0     C64765   7.512  10.106   7.570 -0.4746 -1.0319 -0.5243
  470MOL0     C64766   7.572   9.972   7.525 -0.1748  0.4509  0.0655
  470MOL0    Cl64767   7.692   9.915   7.643  0.2957  0.5546  0.1270
  470MOL0     C64768   6.720  10.197   7.751 -0.0527 -0.1482 -0.1464
  470MOL0     C64769   6.632  10.133   7.843 -1.4391  1.5567  0.7134
  470MOL0     O64770   6.649   9.732   7.923 -0.8205 -0.0991  0.2482
  470MOL0     C64771   6.352   9.818   8.092  0.3706  0.8126 -0.2933
  470MOL0     C64772   6.248   9.781   8.182  0.2468 -0.9127  0.1330
  470MOL0     N64773   5.758   9.745   8.851 -0.2919 -0.1601 -0.0333
  470MOL0     N64774   5.705   9.836   8.931 -0.1835 -0.4658  1.2557
  470MOL0     C64775   5.192  10.796   8.565  0.1807  0.4240 -0.6154
  470MOL0     C64776   5.107  10.870   8.488  0.0699 -1.1349 -0.2153
  470MOL0     C64777   5.004  11.221   8.189 -0.7557  0.5708 -0.7474
  470MOL0     C64778   4.937  11.298   8.284  0.0543  0.2210 -0.8586
  470MOL0     C64779   4.872  11.422   8.246  0.5211  0.3549  0.4990
  470MOL0     C64780   4.874  11.459   8.112 -0.4524  0.4182  0.0770
  470MOL0     O64781   4.804  11.572   8.083 -0.1681  0.1916  1.2603
  470MOL0     C64782   4.893  11.678   8.077 -0.6161  0.2617 -0.4733
  470MOL0     C64783   4.849  11.780   7.982  0.5349  0.4214 -0.4946
  470MOL0     C64784   4.940  11.904   7.989 -0.0047  0.9578  0.0131
  470MOL0     C64785   4.881  12.009   8.082  0.6031 -0.7175 -0.1429
  470MOL0     C64786   4.739  12.042   8.058  0.3299  0.0890 -0.2045
  470MOL0     C64787   4.622  12.070   8.042 -0.3488 -0.8300  0.6547
  470MOL0     C64788   4.933  11.380   8.015  0.2961 -0.0423 -0.8281
  470MOL0     C64789   5.012  11.262   8.057  1.5092  0.7412 -0.1661
  470MOL0     C64790   5.073  11.190   7.944 -0.2802  0.4293 -0.6662
  470MOL0     H64791   5.313  11.147   8.459  2.0489  0.1580  0.0686
  470MOL0     H64792   5.453  11.010   8.585  0.5525  0.8162 -1.4613
  470MOL0     H64793   5.522  10.879   8.766 -1.6644  0.1544 -2.0071
  470MOL0     H64794   5.588  10.800   8.619 -2.3742 -0.8999 -1.6859
  470MOL0     H64795   5.683  10.717   8.793 -0.7579  0.6433 -0.9406
  470MOL0     H64796   5.521  10.675   8.880 -2.8132 -1.7670 -1.7803
  470MOL0     H64797   5.478  10.516   8.720  1.2306 -1.1968  3.0899
  470MOL0     H64798   5.621  10.541   8.615  1.9370  0.0559  1.2645
  470MOL0     H64799   5.757  10.491   8.846  0.5390 -2.3367 -0.7016
  470MOL0     H64800   5.594  10.441   8.895  1.5178  3.8686  2.7789
  470MOL0     H64801   5.728  10.323   8.639  0.7790  2.8223  0.6947
  470MOL0     H64802   5.577  10.281   8.727 -0.0539 -1.5847  0.4135
  470MOL0     H64803   5.767  10.133   8.746  0.7045  0.9029 -1.2906
  470MOL0     H64804   5.864  10.239   8.831  0.3231 -1.0224 -1.1286
  470MOL0     H64805   5.605  10.115   8.948  0.6178 -1.1021  1.1459
  470MOL0     H64806   5.709  10.251   9.022  0.3275  1.5485 -2.0068
  470MOL0     H64807   5.892  10.087   9.035  0.8164 -1.5742 -1.6159
  470MOL0     H64808   5.753  10.026   9.117  2.8212 -0.6423  1.5840
  470MOL0     H64809   5.973   9.971   8.804 -0.0874  1.1753  0.5985
  470MOL0     H64810   5.978   9.613   8.709  1.5688  0.3960  2.0193
  470MOL0     H64811   6.060   9.747   8.668  1.4730 -3.9905 -2.9395
  470MOL0     H64812   5.783   9.668   8.556  1.4570 -2.8237 -1.2433
  470MOL0     H64813   5.875   9.816   8.509 -2.2652 -0.4226 -0.1253
  470MOL0     H64814   5.961   9.522   8.456  2.6631  0.8962 -0.4975
  470MOL0     H64815   5.886   9.623   8.342  2.2890 -1.4086 -1.0313
  470MOL0     H64816   6.065   9.774   8.357 -1.1231 -0.3228 -2.7775
  470MOL0     H64817   6.165   9.662   8.454 -1.7787  0.1067  2.0147
  470MOL0     H64818   6.290   9.441   8.129 -4.3050  0.0041  0.2440
  470MOL0     H64819   6.501   9.500   7.866  1.5717 -2.5034 -1.2969
  470MOL0     H64820   6.484   9.391   8.007  0.0870 -0.5201 -2.7010
  470MOL0     H64821   6.608   9.501   8.012 -0.2362 -0.7967  1.4813
  470MOL0     H64822   6.668   9.818   7.708 -4.0422  0.4161 -0.0751
  470MOL0     H64823   6.795   9.942   7.557  1.1814 -0.2998 -0.0143
  470MOL0     H64824   6.807  10.379   7.522  2.0024  0.1880 -2.7648
  470MOL0     H64825   6.924  10.362   7.666  1.8768  1.5755 -0.7405
  470MOL0     H64826   6.995  10.315   7.377 -1.4770  0.6756 -0.7406
  470MOL0     H64827   6.995  10.483   7.458  0.5233 -0.2911 -1.8562
  470MOL0     H64828   7.130  10.221   7.546  0.5424  0.6549  4.2007
  470MOL0     H64829   7.134  10.387   7.629 -2.7208 -0.8791  1.9339
  470MOL0     H64830   7.255  10.470   7.440  1.5617 -0.4339  1.6478
  470MOL0     H64831   7.219  10.328   7.343 -0.3880  2.5394 -0.7405
  470MOL0     H64832   7.455  10.373   7.444 -1.2178 -1.0238 -0.7509
  470MOL0     H64833   7.382  10.328   7.600 -1.8620 -0.8453  0.7453
  470MOL0     H64834   7.449  10.162   7.363  1.9672  1.7288  1.0540
  470MOL0     H64835   7.312  10.118   7.475 -1.5652  1.5751 -1.4522
  470MOL0     H64836   7.464  10.082   7.665 -2.3453  3.1762 -0.1504
  470MOL0     H64837   7.585  10.185   7.589 -2.3243  0.4922  0.6282
  470MOL0     H64838   7.625   9.981   7.430 -0.4713 -1.0601 -0.2730
  470MOL0     H64839   7.504   9.889   7.503  1.2733 -1.0269  0.9440
  470MOL0     H64840   6.739  10.304   7.751 -1.9672  0.2627 -1.5818
  470MOL0     H64841   6.586  10.177   7.931  0.0631  0.2886  2.1854
  470MOL0     H64842   6.382   9.922   8.095  0.6403  0.7441  2.7370
  470MOL0     H64843   6.197   9.861   8.236  2.7313  0.4313  0.6375
  470MOL0     H64844   5.155  10.701   8.604  3.5809 -0.0417  1.9675
  470MOL0     H64845   5.010  10.831   8.458  0.0074 -1.2181  0.0977
  470MOL0     H64846   4.934  11.271   8.389 -1.7606  1.2400 -0.6100
  470MOL0     H64847   4.818  11.483   8.317  1.7824  0.9033  1.0054
  470MOL0     H64848   4.908  11.727   8.174 -1.1148  0.5505 -0.5400
  470MOL0     H64849   4.991  11.640   8.044 -0.5592  0.4857 -0.5670
  470MOL0     H64850   4.744  11.803   8.006  1.0206 -0.1690  2.5772
  470MOL0     H64851   4.846  11.728   7.886  0.5816 -0.3795 -0.0640
  470MOL0     H64852   5.035  11.871   8.031 -0.0264 -0.2938 -0.8723
  470MOL0     H64853   4.938  11.960   7.894 -3.4998  1.4366  0.2147
  470MOL0     H64854   4.936  12.102   8.061 -2.4680  0.6746 -3.0334
  470MOL0     H64855   4.882  11.986   8.189 -3.8782  0.5313  0.3777
  470MOL0     H64856   4.516  12.084   8.038 -0.2237  0.0505  0.2294
  470MOL0     H64857   4.934  11.403   7.909 -3.1527 -0.6460 -1.1195
  470MOL0     H64858   5.077  11.248   7.851 -1.7372 -2.9381 -3.0316
  470MOL0     H64859   5.177  11.167   7.970 -0.9304  0.1657  2.0133
  470MOL0     H64860   5.023  11.093   7.931 -1.7781  1.3248 -1.9055
  471MOL0     O64861   5.176   9.045   2.311 -0.2666 -0.6925  1.2519
  471MOL0     C64862   5.187   8.966   2.217 -0.3828 -1.0072  0.5303
  471MOL0     O64863   5.139   8.987   2.096  0.5546 -1.0742  0.3398
  471MOL0     C64864   5.039   9.073   2.076  0.3632  0.0674 -0.3182
  471MOL0     C64865   4.942   9.017   2.001 -0.9508 -0.1448 -0.2043
  471MOL0     C64866   4.826   9.086   1.980 -0.9765 -0.0660  0.8188
  471MOL0     C64867   4.790   9.220   2.021  1.1808  0.4988 -0.7166
  471MOL0     O64868   4.671   9.278   1.981 -0.1873  0.3454 -0.0768
  471MOL0     C64869   4.639   9.407   2.036  0.4733 -0.7796  0.0302
  471MOL0     C64870   4.536   9.406   2.150  0.0004 -0.3963 -0.3239
  471MOL0     C64871   4.422   9.314   2.133  0.1580 -0.1630  0.6115
  471MOL0     C64872   4.328   9.328   2.256  0.9144 -0.4066 -1.3582
  471MOL0     C64873   4.225   9.442   2.275 -0.4005 -0.7830  0.3753
  471MOL0     C64874   4.155   9.437   2.413  0.2948 -0.4248 -0.4922
  471MOL0     C64875   4.060   9.557   2.455  0.1867  0.2530  0.2400
  471MOL0     C64876   4.134   9.695   2.457  0.5216 -0.1448 -0.1954
  471MOL0     N64877   4.035   9.807   2.437  0.3513 -0.1267 -0.5807
  471MOL0     C64878   4.022   9.871   2.319  0.2592  0.9993  1.0284
  471MOL0     C64879   3.925   9.966   2.343  0.7014 -0.0671  0.5309
  471MOL0     C64880   3.893  10.073   2.250 -0.1190  0.4415  0.6470
  471MOL0     C64881   3.957  10.204   2.290  0.8017 -0.3987  0.2732
  471MOL0     C64882   3.883  10.283   2.396 -0.6804  1.0748 -0.1310
  471MOL0     C64883   3.930  10.412   2.415 -0.4690  0.4202 -0.9215
  471MOL0     O64884   3.935  10.495   2.299  0.0104 -0.3506  0.1610
  471MOL0     C64885   3.816  10.533   2.250  0.2268 -0.4160  0.2792
  471MOL0     C64886   3.760  10.470   2.146  0.0176  0.1328  0.2506
  471MOL0     C64887   3.639  10.489   2.086 -0.0369 -0.7147  0.6615
  471MOL0     C64888   3.604  10.403   1.956  0.4192  1.2075 -0.0988
  471MOL0     C64889   3.567  10.605   2.148 -0.0015 -0.1567  0.5095
  471MOL0     C64890   3.434  10.650   2.099 -0.1169 -0.0078  0.6080
  471MOL0     O64891   3.379  10.769   2.153 -0.0157 -0.1213  0.2027
  471MOL0     C64892   3.249  10.793   2.127  0.4541  0.5027 -0.0940
  471MOL0     C64893   3.214  10.921   2.074  0.5014 -0.1388  0.3794
  471MOL0     C64894   3.076  10.950   2.052  0.6023 -0.1769  0.2566
  471MOL0     C64895   2.978  10.848   2.045 -0.0881 -0.3706  0.2185
  471MOL0     O64896   2.862  10.888   1.986 -0.1580  0.6489  0.4610
  471MOL0     C64897   2.784  10.793   1.916 -0.9682  0.1619 -0.4535
  471MOL0     C64898   2.683  10.871   1.822 -0.6878  0.0666 -0.6141
  471MOL0     C64899   2.571  10.928   1.908  0.0109 -0.7471 -0.3654
  471MOL0     C64900   2.606  11.063   1.962 -0.2345  0.5123  0.1356
  471MOL0     C64901   2.504  11.095   2.070 -1.4327  0.1428 -0.3419
  471MOL0     C64902   2.542  11.225   2.155  0.4156  0.2107 -0.2026
  471MOL0     C64903   2.456  11.263   2.276  0.4649 -0.0025 -0.1408
  471MOL0     C64904   2.325  11.314   2.218 -0.6355 -1.1978  0.8454
  471MOL0    Cl64905   2.222  11.436   2.308 -0.1438 -0.0832  0.0892
  471MOL0     C64906   3.004  10.725   2.107 -0.0054 -0.0604  0.0923
  471MOL0     C64907   3.145  10.691   2.144  0.1321 -0.2868  0.0847
  471MOL0     O64908   3.394  10.585   2.004 -0.6104  0.0087 -0.3999
  471MOL0     C64909   3.612  10.667   2.260 -0.9149 -0.0734 -0.9173
  471MOL0     C64910   3.742  10.639   2.306  0.2968  0.2580  0.0170
  471MOL0     N64911   3.885   9.959   2.471 -0.1770 -0.1739 -0.2322
  471MOL0     N64912   3.941   9.851   2.521  0.1422 -0.5691 -0.0577
  471MOL0     C64913   4.893   9.269   2.110  0.9563 -0.2169 -1.0538
  471MOL0     C64914   5.009   9.199   2.137  0.6295 -0.8340  0.2054
  471MOL0     C64915   5.277   8.848   2.237 -0.2162 -0.3576  0.1520
  471MOL0     C64916   5.372   8.851   2.344  0.0420 -1.0514  0.6507
  471MOL0     C64917   5.450   8.736   2.361 -0.5951 -0.4038  0.0138
  471MOL0     C64918   5.455   8.626   2.275  0.4826  0.3847  0.3931
  471MOL0     O64919   5.550   8.534   2.291 -1.0365  0.3616  0.1760
  471MOL0     C64920   5.540   8.400   2.229 -0.6523  0.9180  0.2608
  471MOL0     C64921   5.608   8.287   2.298  0.0431 -1.1648  0.3677
  471MOL0     C64922   5.755   8.275   2.255  0.2663  0.8772  0.2486
  471MOL0     C64923   5.829   8.407   2.287 -0.0570 -0.9489 -0.4516
  471MOL0     C64924   5.978   8.383   2.296 -0.0480 -0.5163 -0.1312
  471MOL0     C64925   6.086   8.331   2.304 -0.1529  0.5247 -0.2353
  471MOL0     C64926   5.355   8.630   2.169 -0.1301 -0.2153 -0.0263
  471MOL0     C64927   5.269   8.735   2.154 -0.3381 -0.2146  0.8886
  471MOL0     C64928   5.169   8.728   2.038  0.1361  0.4225  0.5073
  471MOL0     H64929   4.957   8.915   1.967 -0.4071 -0.9988  2.3005
  471MOL0     H64930   4.764   9.034   1.908  1.1643 -1.4674 -0.1086
  471MOL0     H64931   4.594   9.462   1.953 -0.2515 -1.1135  0.1935
  471MOL0     H64932   4.725   9.469   2.063  0.8911 -2.1342  2.0566
  471MOL0     H64933   4.583   9.377   2.244 -0.0582 -1.4338 -0.6061
  471MOL0     H64934   4.495   9.507   2.163 -0.4335 -0.3853 -1.6403
  471MOL0     H64935   4.362   9.342   2.046 -0.3045 -1.2881  0.5387
  471MOL0     H64936   4.455   9.210   2.125  3.3187  0.6355  1.9364
  471MOL0     H64937   4.278   9.232   2.271  1.8416 -0.8156 -0.7854
  471MOL0     H64938   4.398   9.326   2.339  0.1340 -1.4346 -0.6986
  471MOL0     H64939   4.159   9.429   2.189 -0.4387 -1.5485  0.5144
  471MOL0     H64940   4.270   9.540   2.255 -2.2465 -0.5495 -3.6622
  471MOL0     H64941   4.100   9.344   2.394 -1.0437  0.0610  0.7348
  471MOL0     H64942   4.228   9.433   2.494 -0.6802  2.1178  0.6397
  471MOL0     H64943   4.000   9.542   2.546  0.3101  3.1216  0.8974
  471MOL0     H64944   3.975   9.565   2.387 -2.7232 -0.7021  3.4463
  471MOL0     H64945   4.189   9.705   2.551  1.0689  1.0063 -0.6136
  471MOL0     H64946   4.212   9.700   2.379  3.4763  0.7123  2.5960
  471MOL0     H64947   4.080   9.863   2.228  0.1325  1.4118  0.9075
  471MOL0     H64948   3.786  10.096   2.245  0.3030  2.5690 -4.2926
  471MOL0     H64949   3.926  10.043   2.151 -1.2737 -0.5113  0.5136
  471MOL0     H64950   4.063  10.194   2.314  0.9219 -1.4024 -0.5991
  471MOL0     H64951   3.955  10.268   2.201 -0.7398 -2.2923 -1.1376
  471MOL0     H64952   3.775  10.294   2.377 -0.3633  0.8738 -2.3245
  471MOL0     H64953   3.900  10.221   2.485  0.2043 -0.1043 -1.0972
  471MOL0     H64954   3.864  10.459   2.489  2.4411  2.3493  0.6515
  471MOL0     H64955   4.034  10.420   2.447 -0.3043  3.7743 -1.8640
  471MOL0     H64956   3.825  10.393   2.104 -1.0799 -0.6361 -0.0846
  471MOL0     H64957   3.520  10.334   1.967 -1.9155  3.4865 -2.2475
  471MOL0     H64958   3.692  10.350   1.918 -1.4895 -2.0541 -0.3025
  471MOL0     H64959   3.564  10.476   1.885 -3.5989  0.6926  1.3880
  471MOL0     H64960   3.287  10.994   2.039 -1.1356  1.1909 -0.4554
  471MOL0     H64961   3.051  11.046   2.007 -4.3356 -0.6633  1.3837
  471MOL0     H64962   2.850  10.732   1.853 -3.6482 -2.0072 -1.3573
  471MOL0     H64963   2.728  10.728   1.984 -1.6632  0.1668 -1.0085
  471MOL0     H64964   2.740  10.956   1.783  0.1688  0.8550  2.1095
  471MOL0     H64965   2.639  10.789   1.764  1.0657 -2.4468  1.4144
  471MOL0     H64966   2.555  10.848   1.981  0.9181 -0.0265  0.6535
  471MOL0     H64967   2.479  10.935   1.850 -0.8095 -2.3765  0.6317
  471MOL0     H64968   2.587  11.136   1.883 -2.3626 -1.0356 -0.8909
  471MOL0     H64969   2.710  11.065   1.997 -0.4899  4.0285  1.0205
  471MOL0     H64970   2.412  11.113   2.013 -0.4053  3.5036 -1.1350
  471MOL0     H64971   2.494  11.022   2.151 -0.1351 -1.2229 -1.3502
  471MOL0     H64972   2.533  11.305   2.081 -3.3708 -1.6314 -2.0047
  471MOL0     H64973   2.642  11.216   2.197 -0.0979 -1.2472  0.8080
  471MOL0     H64974   2.506  11.346   2.326 -0.0532  0.4623 -0.3840
  471MOL0     H64975   2.444  11.181   2.347  2.1877 -1.6261 -1.5977
  471MOL0     H64976   2.253  11.234   2.197 -0.7556 -1.1262  0.9789
  471MOL0     H64977   2.354  11.369   2.128  2.1158 -0.7858  1.9083
  471MOL0     H64978   2.930  10.646   2.101 -1.4018  1.1394  0.9597
  471MOL0     H64979   3.170  10.591   2.179  0.1810 -1.7046 -3.5397
  471MOL0     H64980   3.548  10.742   2.307  1.6735  1.2708  0.7408
  471MOL0     H64981   3.782  10.685   2.395  2.9623 -0.5534 -0.6687
  471MOL0     H64982   4.900   9.366   2.157 -2.9039 -0.6721  0.9287
  471MOL0     H64983   5.077   9.238   2.211  1.0718 -2.4395  0.6975
  471MOL0     H64984   5.371   8.936   2.412 -0.3273  1.7058 -2.5478
  471MOL0     H64985   5.530   8.729   2.434  1.3393 -4.1515 -2.1531
  471MOL0     H64986   5.435   8.380   2.210 -0.7028 -0.7136  1.9918
  471MOL0     H64987   5.606   8.406   2.142  1.6767 -5.4172  1.0441
  471MOL0     H64988   5.561   8.191   2.277 -0.3069 -0.8007 -0.6064
  471MOL0     H64989   5.595   8.311   2.404 -0.8542 -1.8206  0.4126
  471MOL0     H64990   5.785   8.192   2.319  0.6282  2.7104  2.5697
  471MOL0     H64991   5.774   8.238   2.154  0.1923  0.8729  0.2359
  471MOL0     H64992   5.804   8.433   2.390  1.6681 -3.7929  0.8176
  471MOL0     H64993   5.815   8.493   2.222  2.5683  1.4825  1.9127
  471MOL0     H64994   6.172   8.270   2.319  0.4771 -1.2918 -7.4575
  471MOL0     H64995   5.358   8.550   2.095  0.7572  1.9635 -2.5321
  471MOL0     H64996   5.070   8.762   2.073 -0.8983 -1.6003 -0.2887
  471MOL0     H64997   5.202   8.802   1.965  0.3267  0.6761  0.8445
  471MOL0     H64998   5.182   8.632   1.988  2.5814  0.9405  0.0478
  472MOL0     O64999   1.886   9.429   7.182  0.1338 -0.1201  0.0352
  472MOL0     C65000   1.768   9.421   7.172  0.0874  0.4501  0.0216
  472MOL0     O65001   1.704   9.314   7.103  0.0905  0.1401 -0.1229
  472MOL0     C65002   1.773   9.232   7.019 -0.0907  0.5222  0.1931
  472MOL0     C65003   1.833   9.274   6.898  0.2004  0.0902 -0.1116
  472MOL0     C65004   1.903   9.183   6.822 -0.8509  0.6119 -0.0339
  472MOL0     C65005   1.916   9.051   6.867  0.1324 -0.1755 -0.2890
  472MOL0     O65006   1.984   8.956   6.786 -0.4972  0.0684 -0.8192
  472MOL0     C65007   2.130   8.970   6.796 -0.2279  0.2086 -0.0982
  472MOL0     C65008   2.175   8.926   6.936  0.3992  0.2608  0.1474
  472MOL0     C65009   2.325   8.917   6.959 -0.4202  0.7446  0.3292
  472MOL0     C65010   2.363   8.904   7.106  1.0251  0.0915  0.5219
  472MOL0     C65011   2.519   8.865   7.116  0.6783 -0.4507 -0.2232
  472MOL0     C65012   2.551   8.872   7.263  0.7055  0.2414 -0.6282
  472MOL0     C65013   2.697   8.835   7.292  0.6051  0.3562  1.7790
  472MOL0     C65014   2.721   8.850   7.442  0.1814 -0.6470  0.0480
  472MOL0     N65015   2.751   8.990   7.464 -0.7674 -0.2536 -0.7242
  472MOL0     C65016   2.673   9.092   7.507  0.3858  0.2052  1.1523
  472MOL0     C65017   2.742   9.205   7.502  0.2661  0.7494  1.0219
  472MOL0     C65018   2.701   9.341   7.542  0.6755 -0.0244  0.0011
  472MOL0     C65019   2.599   9.408   7.436 -0.5475 -0.7517 -0.3390
  472MOL0     C65020   2.458   9.344   7.415 -0.3847 -0.1424  0.3179
  472MOL0     C65021   2.370   9.340   7.554 -0.6101  0.6177  1.1830
  472MOL0     O65022   2.234   9.352   7.506 -0.1428  1.0428  0.6078
  472MOL0     C65023   2.138   9.422   7.578 -0.0932 -1.0851  0.0363
  472MOL0     C65024   2.149   9.480   7.706 -0.2262  0.3992 -0.3390
  472MOL0     C65025   2.042   9.547   7.771 -0.0868  0.4018  0.8006
  472MOL0     C65026   2.057   9.620   7.893  0.2779  0.0814 -0.0460
  472MOL0     C65027   1.925   9.559   7.690  0.1176  0.3152 -1.1813
  472MOL0     C65028   1.800   9.605   7.752 -1.1514  0.3733 -0.0846
  472MOL0     O65029   1.776   9.598   7.888  1.4864 -0.4302  0.1336
  472MOL0     C65030   1.655   9.649   7.930  0.5315  0.0880  0.7215
  472MOL0     C65031   1.574   9.751   7.876  0.1116 -0.4669  0.8467
  472MOL0     C65032   1.456   9.793   7.940  0.5979 -0.5137 -0.7925
  472MOL0     C65033   1.408   9.737   8.068  0.7137  0.2019  0.0572
  472MOL0     O65034   1.299   9.782   8.141  0.2861 -0.4811 -0.1694
  472MOL0     C65035   1.180   9.770   8.074  0.6696 -0.0140  1.0407
  472MOL0     C65036   1.072   9.861   8.135  0.0229 -0.0544 -0.0377
  472MOL0     C65037   1.065  10.005   8.095  0.7324 -0.0286  0.7995
  472MOL0     C65038   0.924  10.067   8.118  0.1465  0.0044 -0.2081
  472MOL0     C65039   0.903  10.226   8.118  0.2262  0.5534 -1.0497
  472MOL0     C65040   0.923  10.295   7.988 -0.6148 -0.6908  0.4371
  472MOL0     C65041   0.925  10.448   8.014 -0.5123  0.7450  0.7439
  472MOL0     C65042   1.067  10.514   7.973 -0.1284  1.0402 -0.3864
  472MOL0    Cl65043   1.066  10.686   8.041  0.0151 -0.1356  0.2991
  472MOL0     C65044   1.486   9.638   8.116 -0.3450 -0.3623  0.1265
  472MOL0     C65045   1.606   9.597   8.052  0.6276 -0.1115 -0.2861
  472MOL0     O65046   1.711   9.617   7.669 -0.4767  0.3439  0.5716
  472MOL0     C65047   1.917   9.503   7.560 -0.6736  0.3406  0.8379
  472MOL0     C65048   2.023   9.440   7.504 -0.2380 -0.1117 -0.0977
  472MOL0     N65049   2.874   9.175   7.460 -0.0332  0.4170  0.3790
  472MOL0     N65050   2.872   9.048   7.441 -0.2810  0.4745 -0.5878
  472MOL0     C65051   1.849   9.002   6.985  0.8353 -0.2223 -0.8593
  472MOL0     C65052   1.775   9.096   7.061  0.4785 -0.4490  0.4833
  472MOL0     C65053   1.676   9.523   7.230  1.9510 -0.2842 -0.2144
  472MOL0     C65054   1.532   9.496   7.241  0.5968 -0.1506  0.6626
  472MOL0     C65055   1.445   9.589   7.294 -0.3006 -0.4929  0.2510
  472MOL0     C65056   1.497   9.715   7.340  1.2999 -0.8039  0.4661
  472MOL0     O65057   1.417   9.812   7.404  0.2829  0.0417 -0.2218
  472MOL0     C65058   1.480   9.887   7.512 -0.3438  0.3282 -0.3227
  472MOL0     C65059   1.378   9.912   7.614  0.8970  0.3364 -0.5915
  472MOL0     C65060   1.255   9.986   7.571 -0.3505  1.1894  0.3561
  472MOL0     C65061   1.173  10.041   7.683 -0.3974 -0.7314 -0.1662
  472MOL0     C65062   1.066  10.138   7.635 -0.0923  0.3971 -0.3207
  472MOL0     C65063   0.965  10.208   7.612 -0.2476  0.2075  0.4061
  472MOL0     C65064   1.629   9.741   7.319  0.0775 -0.7962 -0.5128
  472MOL0     C65065   1.719   9.654   7.261 -0.2876  1.6404  0.1110
  472MOL0     C65066   1.859   9.702   7.233 -0.0207 -0.2152 -0.6201
  472MOL0     H65067   1.815   9.379   6.876 -2.1870 -0.4729 -1.2421
  472MOL0     H65068   1.956   9.212   6.732 -0.9614  0.8429 -0.0262
  472MOL0     H65069   2.163   9.072   6.779 -3.3311  1.8573  2.6133
  472MOL0     H65070   2.174   8.898   6.726  0.9741 -1.5996  2.3685
  472MOL0     H65071   2.122   8.997   7.000 -2.3944 -1.9599  0.5007
  472MOL0     H65072   2.125   8.829   6.939  1.1862 -0.1580 -0.1576
  472MOL0     H65073   2.377   8.834   6.911 -1.3905 -1.3005  2.6209
  472MOL0     H65074   2.370   9.009   6.920  0.1776  0.0459 -0.6736
  472MOL0     H65075   2.341   8.993   7.165 -2.2108  0.7580 -1.4629
  472MOL0     H65076   2.306   8.825   7.155  1.4972  0.1452  1.1697
  472MOL0     H65077   2.584   8.926   7.053  3.2341 -2.0532  0.7292
  472MOL0     H65078   2.537   8.759   7.099 -1.4734 -0.8116 -0.5243
  472MOL0     H65079   2.531   8.971   7.305 -0.0975 -1.3236  3.1009
  472MOL0     H65080   2.474   8.812   7.313 -2.2737  1.7528 -3.1312
  472MOL0     H65081   2.761   8.890   7.223 -2.1142 -0.4583 -1.6812
  472MOL0     H65082   2.721   8.731   7.270 -2.1134  0.0973 -0.5215
  472MOL0     H65083   2.629   8.812   7.487  0.6196  1.1229  2.6637
  472MOL0     H65084   2.812   8.791   7.458  0.1880 -0.6072  0.1557
  472MOL0     H65085   2.566   9.097   7.527 -0.0610 -5.1568  1.7161
  472MOL0     H65086   2.783   9.410   7.568 -1.0272  1.3909  1.9737
  472MOL0     H65087   2.655   9.319   7.639  0.5254 -0.1786 -0.1055
  472MOL0     H65088   2.576   9.507   7.479 -1.7275 -1.6752  1.2764
  472MOL0     H65089   2.655   9.413   7.343  1.7856  1.1618  1.0269
  472MOL0     H65090   2.420   9.404   7.332  1.4328 -3.3498 -3.1257
  472MOL0     H65091   2.470   9.246   7.367  0.6182 -0.5326  1.3153
  472MOL0     H65092   2.389   9.249   7.611  3.9394  1.4132  1.2544
  472MOL0     H65093   2.398   9.430   7.609  1.0206  0.0834  1.2865
  472MOL0     H65094   2.239   9.466   7.765  1.8351  3.5571 -2.4572
  472MOL0     H65095   2.160   9.616   7.929  0.4122  0.4370 -0.3770
  472MOL0     H65096   1.989   9.586   7.972  1.5125 -0.1467  0.9312
  472MOL0     H65097   2.026   9.722   7.871 -1.5482  0.0291  1.8884
  472MOL0     H65098   1.605   9.808   7.789 -0.4095  1.3248  1.7886
  472MOL0     H65099   1.402   9.872   7.888 -1.4796 -1.5795 -0.3928
  472MOL0     H65100   1.189   9.807   7.971 -0.9500  0.8484  1.1706
  472MOL0     H65101   1.150   9.665   8.067  2.1705 -0.4941  1.6042
  472MOL0     H65102   0.976   9.821   8.101  0.7078  0.8942 -3.5118
  472MOL0     H65103   1.078   9.856   8.244  0.4684  2.7271  0.1411
  472MOL0     H65104   1.078  10.009   7.987 -1.7104  1.5330  0.4796
  472MOL0     H65105   1.140  10.062   8.152 -0.3511  0.1697  2.0917
  472MOL0     H65106   0.904  10.023   8.217  1.8855  2.0959  1.1572
  472MOL0     H65107   0.859  10.021   8.043  0.1889  0.5660 -0.5932
  472MOL0     H65108   0.800  10.245   8.149  0.4608 -2.0534  1.8766
  472MOL0     H65109   0.969  10.270   8.193  0.6993 -1.9672  0.1203
  472MOL0     H65110   0.840  10.273   7.921  1.7037  1.4506 -3.5226
  472MOL0     H65111   1.016  10.259   7.943  0.6362  1.4410  1.1711
  472MOL0     H65112   0.904  10.482   8.116 -0.1973  0.6186  0.8536
  472MOL0     H65113   0.849  10.490   7.947 -2.0334 -1.2750  1.0984
  472MOL0     H65114   1.081  10.498   7.866 -0.0477 -2.3817  0.0324
  472MOL0     H65115   1.145  10.456   8.022 -0.9260  2.4208  2.7287
  472MOL0     H65116   1.452   9.588   8.206 -1.1129  1.2657  0.7698
  472MOL0     H65117   1.668   9.523   8.102  0.7661  1.0232  1.2825
  472MOL0     H65118   1.826   9.512   7.501 -0.7740  0.2511  0.9782
  472MOL0     H65119   2.008   9.398   7.405 -3.4274  1.5561 -0.4747
  472MOL0     H65120   1.876   8.902   7.017 -0.4443  0.0458  1.1806
  472MOL0     H65121   1.731   9.054   7.151  1.7728 -2.7326  0.1149
  472MOL0     H65122   1.502   9.405   7.190 -1.4753  1.1673 -0.6126
  472MOL0     H65123   1.337   9.581   7.287 -0.3574  0.3035  0.1293
  472MOL0     H65124   1.564   9.833   7.556  1.2026  2.0887 -0.9576
  472MOL0     H65125   1.515   9.976   7.458 -0.9159  0.2900 -0.7589
  472MOL0     H65126   1.422   9.970   7.695  0.7320 -1.5674  0.9243
  472MOL0     H65127   1.349   9.816   7.655 -2.3170  1.0840 -0.8095
  472MOL0     H65128   1.282  10.070   7.507  1.3318 -0.9101 -1.8953
  472MOL0     H65129   1.203   9.909   7.513 -1.1265  2.1631 -0.2792
  472MOL0     H65130   1.238  10.094   7.753 -2.2969 -0.8365  1.7758
  472MOL0     H65131   1.129   9.958   7.739  0.6790 -0.9912  0.3286
  472MOL0     H65132   0.885  10.277   7.599 -2.0663 -1.8844 -0.1729
  472MOL0     H65133   1.670   9.840   7.336  0.7809 -0.6933 -2.6406
  472MOL0     H65134   1.932   9.654   7.299  0.2444 -0.2443 -0.9312
  472MOL0     H65135   1.895   9.695   7.129  1.9177  0.1613 -0.0174
  472MOL0     H65136   1.846   9.808   7.256  0.9859 -0.2887  0.3521
  473MOL0     O65137   6.259   1.757   4.388 -0.8518  0.4040 -0.9432
  473MOL0     C65138   6.250   1.717   4.505  0.4561  0.2931  0.2620
  473MOL0     O65139   6.129   1.703   4.566 -0.6902  0.1206 -0.3099
  473MOL0     C65140   6.012   1.773   4.529 -1.2276  1.2511 -0.7707
  473MOL0     C65141   6.002   1.898   4.469 -0.1749 -0.6300 -0.0679
  473MOL0     C65142   5.882   1.952   4.432  0.6513 -0.2877 -0.2640
  473MOL0     C65143   5.760   1.906   4.474 -0.3243  0.2085  0.0108
  473MOL0     O65144   5.641   1.958   4.434 -0.0531 -0.5644 -0.0796
  473MOL0     C65145   5.632   2.051   4.333  0.6686 -0.0610  0.5353
  473MOL0     C65146   5.502   2.044   4.249  0.0972 -0.5461 -0.5803
  473MOL0     C65147   5.514   2.135   4.133  0.3681  0.7503 -0.9068
  473MOL0     C65148   5.635   2.098   4.032  0.1105 -0.5187  1.5620
  473MOL0     C65149   5.651   2.209   3.927  0.0300 -0.0063  0.9188
  473MOL0     C65150   5.783   2.188   3.847  0.1983 -0.1063 -0.3366
  473MOL0     C65151   5.870   2.310   3.865  0.8282  0.2777  0.0530
  473MOL0     C65152   5.995   2.302   3.780  0.6610  0.9177  0.1012
  473MOL0     N65153   6.064   2.427   3.787 -0.3521  0.7689 -0.3137
  473MOL0     C65154   6.138   2.456   3.893  0.5383 -0.3039 -1.4387
  473MOL0     C65155   6.172   2.587   3.882  0.1608  0.3250  0.3982
  473MOL0     C65156   6.258   2.673   3.974 -0.0561  0.4336 -0.0577
  473MOL0     C65157   6.250   2.623   4.117  0.7333 -0.1153 -0.4733
  473MOL0     C65158   6.305   2.730   4.208  0.8138  0.0420 -0.3916
  473MOL0     C65159   6.442   2.781   4.159  1.2377 -0.6020 -0.3585
  473MOL0     O65160   6.526   2.813   4.272  0.4535  0.9949  0.2720
  473MOL0     C65161   6.509   2.921   4.355  0.1019  0.0470 -0.4226
  473MOL0     C65162   6.586   2.913   4.470 -1.7421 -1.2311  0.7274
  473MOL0     C65163   6.578   3.023   4.560  0.0225  0.6786  0.8971
  473MOL0     C65164   6.670   3.005   4.685 -0.3533 -0.1237  0.6461
  473MOL0     C65165   6.493   3.130   4.538 -0.4615 -0.0232 -0.1882
  473MOL0     C65166   6.486   3.254   4.621 -1.0372 -0.1060  0.2542
  473MOL0     O65167   6.454   3.236   4.751  0.2313  0.1989 -0.8308
  473MOL0     C65168   6.472   3.330   4.848  0.5678  0.1660 -1.4056
  473MOL0     C65169   6.426   3.290   4.976 -0.1824 -0.8036  0.8285
  473MOL0     C65170   6.423   3.384   5.081 -0.2105  0.3417  0.8037
  473MOL0     C65171   6.494   3.508   5.073 -0.0132 -0.1134 -0.1896
  473MOL0     O65172   6.501   3.587   5.188  0.6484 -0.0867  0.1783
  473MOL0     C65173   6.637   3.623   5.225 -0.4885 -0.1925 -1.4069
  473MOL0     C65174   6.628   3.681   5.371  1.3126 -0.7041 -0.8879
  473MOL0     C65175   6.771   3.683   5.426 -0.6415 -0.3617  0.2713
  473MOL0     C65176   6.776   3.753   5.560  0.6380  0.1083  0.1100
  473MOL0     C65177   6.784   3.908   5.566 -0.0075 -0.7307  0.1914
  473MOL0     C65178   6.925   3.940   5.511  0.1942 -0.3150  0.6180
  473MOL0     C65179   6.936   4.087   5.469 -0.3300 -0.3313 -0.2508
  473MOL0     C65180   7.064   4.121   5.403  0.1339 -1.1814 -0.4587
  473MOL0    Cl65181   7.077   4.032   5.250  0.4033  0.2276 -0.4172
  473MOL0     C65182   6.553   3.536   4.945  0.4014 -0.3275  0.2983
  473MOL0     C65183   6.541   3.458   4.834 -0.0231  0.8678  0.8138
  473MOL0     O65184   6.487   3.366   4.560 -0.2286  0.3258 -0.0595
  473MOL0     C65185   6.403   3.124   4.432 -0.5496  0.7740  0.3594
  473MOL0     C65186   6.418   3.024   4.334 -0.2910  1.4607  0.8249
  473MOL0     N65187   6.134   2.634   3.757 -0.6765  0.3038  0.2557
  473MOL0     N65188   6.058   2.536   3.713 -0.7167  0.2646  0.8310
  473MOL0     C65189   5.771   1.784   4.544 -0.7395  0.0319 -0.7909
  473MOL0     C65190   5.893   1.710   4.564 -0.0399  0.2881  0.3280
  473MOL0     C65191   6.381   1.697   4.579  0.4425 -0.5099  0.0786
  473MOL0     C65192   6.495   1.761   4.531 -0.4685 -0.3783 -0.5995
  473MOL0     C65193   6.608   1.753   4.615  0.5262  0.1643 -0.3442
  473MOL0     C65194   6.618   1.679   4.731 -0.0230  1.4020 -1.0136
  473MOL0     O65195   6.744   1.673   4.795  0.4697 -0.1165  0.2347
  473MOL0     C65196   6.769   1.667   4.933 -0.0021  1.0470 -0.2290
  473MOL0     C65197   6.793   1.799   5.004 -0.1089 -0.2470 -0.1414
  473MOL0     C65198   6.904   1.886   4.931  0.1786  0.6951 -0.2670
  473MOL0     C65199   7.046   1.825   4.939 -0.3824 -0.5127  0.7830
  473MOL0     C65200   7.083   1.773   4.806  0.7214  0.8513  0.8438
  473MOL0     C65201   7.097   1.728   4.692  0.1541 -0.8486 -0.0199
  473MOL0     C65202   6.507   1.606   4.771  1.5601  0.3762 -0.4378
  473MOL0     C65203   6.381   1.629   4.703 -0.1703 -0.1277 -0.0234
  473MOL0     C65204   6.266   1.551   4.753  0.1694 -0.2001  0.0928
  473MOL0     H65205   6.084   1.961   4.436 -0.9751 -0.9266 -2.8821
  473MOL0     H65206   5.882   2.045   4.376  3.8994  0.4684  0.7861
  473MOL0     H65207   5.718   2.041   4.266  1.4304 -0.3292  1.5280
  473MOL0     H65208   5.656   2.143   4.387  4.1112 -0.1467 -0.6521
  473MOL0     H65209   5.486   1.944   4.210 -0.9775 -0.6611  0.1093
  473MOL0     H65210   5.424   2.084   4.314  0.3970  0.4105 -0.7928
  473MOL0     H65211   5.418   2.161   4.086  0.9473  3.6623 -0.6705
  473MOL0     H65212   5.542   2.234   4.172 -1.4384  1.3527 -1.0517
  473MOL0     H65213   5.728   2.111   4.089  0.8547  0.7090  0.1281
  473MOL0     H65214   5.622   2.000   3.985  1.5496  2.4771 -6.6072
  473MOL0     H65215   5.640   2.305   3.978 -0.7291 -0.7348  2.1774
  473MOL0     H65216   5.577   2.209   3.847  0.7750 -2.2318  0.1556
  473MOL0     H65217   5.833   2.098   3.884 -1.2636 -1.0687 -0.5789
  473MOL0     H65218   5.764   2.176   3.739 -1.1727  0.7270 -0.2055
  473MOL0     H65219   5.889   2.337   3.969  0.3613  2.5749 -0.3956
  473MOL0     H65220   5.817   2.400   3.831  0.1728  0.4239  1.3947
  473MOL0     H65221   6.057   2.213   3.791  0.3066  0.4289 -1.4810
  473MOL0     H65222   5.971   2.307   3.673  0.9707  3.3088  0.0903
  473MOL0     H65223   6.152   2.399   3.984 -1.4841  0.5744 -0.5198
  473MOL0     H65224   6.239   2.779   3.959  2.8347  0.9138 -0.9188
  473MOL0     H65225   6.360   2.652   3.941 -0.1815 -3.2822  1.3609
  473MOL0     H65226   6.151   2.587   4.145  0.5260  1.6330  1.2140
  473MOL0     H65227   6.303   2.529   4.132 -2.7930 -1.8719  2.4885
  473MOL0     H65228   6.231   2.809   4.216  1.4655  0.5770  0.5938
  473MOL0     H65229   6.309   2.696   4.312 -0.4092  2.1789  0.4020
  473MOL0     H65230   6.492   2.697   4.111 -1.2349 -1.8017 -1.0024
  473MOL0     H65231   6.427   2.862   4.087 -2.5947 -0.2272  0.6139
  473MOL0     H65232   6.663   2.838   4.466 -0.0485  0.4035  1.3018
  473MOL0     H65233   6.743   2.925   4.672  0.3595  0.5903  0.1017
  473MOL0     H65234   6.608   2.992   4.774 -1.7320  1.0427 -0.0776
  473MOL0     H65235   6.717   3.103   4.698  0.7312 -0.4209 -0.7927
  473MOL0     H65236   6.385   3.191   4.998 -3.9061  0.0591 -1.3172
  473MOL0     H65237   6.389   3.354   5.179 -1.2303 -1.0575  0.0588
  473MOL0     H65238   6.713   3.545   5.217  0.4939 -0.1939  4.0988
  473MOL0     H65239   6.679   3.697   5.157  0.1991  1.4905  0.7273
  473MOL0     H65240   6.581   3.779   5.362 -0.6584 -1.5876 -0.8070
  473MOL0     H65241   6.560   3.622   5.434  0.3835  1.6065  0.3966
  473MOL0     H65242   6.826   3.751   5.360  1.1733  0.3350  2.3779
  473MOL0     H65243   6.823   3.586   5.429  0.8226  0.3965  0.3646
  473MOL0     H65244   6.853   3.702   5.618  0.7272 -1.8434 -1.6085
  473MOL0     H65245   6.683   3.725   5.609  0.8790 -1.1046 -0.1111
  473MOL0     H65246   6.715   3.946   5.490  0.0026 -1.5676 -0.2440
  473MOL0     H65247   6.763   3.961   5.660  1.1149  2.8964 -1.4112
  473MOL0     H65248   6.958   3.886   5.422  0.9658  3.3119 -1.4910
  473MOL0     H65249   7.001   3.919   5.587  0.1249 -0.4878  0.6407
  473MOL0     H65250   6.917   4.156   5.553  2.3819  0.0980  0.0973
  473MOL0     H65251   6.853   4.106   5.400 -0.0080  1.1106 -0.2768
  473MOL0     H65252   7.154   4.103   5.464  1.4564  0.3386 -1.8675
  473MOL0     H65253   7.059   4.229   5.386 -2.4252 -1.2215 -0.3941
  473MOL0     H65254   6.605   3.631   4.945 -0.8507  0.3742  0.2920
  473MOL0     H65255   6.583   3.489   4.739  2.6262  1.6834  2.1553
  473MOL0     H65256   6.334   3.206   4.413 -1.2326  0.3553  0.9654
  473MOL0     H65257   6.348   3.039   4.253  0.5780 -2.0910 -0.7765
  473MOL0     H65258   5.675   1.754   4.587 -0.9289 -0.8169 -1.7613
  473MOL0     H65259   5.891   1.621   4.625  4.6681  0.1641  0.6328
  473MOL0     H65260   6.503   1.805   4.432 -1.0562 -2.2432 -1.5356
  473MOL0     H65261   6.698   1.804   4.581  0.0552  0.3195 -1.3792
  473MOL0     H65262   6.704   1.595   4.983 -0.0089 -0.8153 -2.7024
  473MOL0     H65263   6.858   1.603   4.938  0.5236  1.7527 -0.4510
  473MOL0     H65264   6.827   1.771   5.104  1.6366 -0.8505 -0.8574
  473MOL0     H65265   6.709   1.867   5.014  1.1550  1.5342 -0.9756
  473MOL0     H65266   6.869   1.904   4.829 -1.3967 -2.8715 -0.4835
  473MOL0     H65267   6.916   1.979   4.987 -2.3328  0.4535  0.7895
  473MOL0     H65268   7.050   1.750   5.019  0.4452  0.7695  1.9935
  473MOL0     H65269   7.113   1.905   4.972  0.3567  0.2314 -2.2658
  473MOL0     H65270   7.087   1.684   4.595  0.2286  2.3112 -1.5527
  473MOL0     H65271   6.506   1.548   4.863  0.5903  1.0561  0.0027
  473MOL0     H65272   6.209   1.511   4.669 -1.7694  2.7855 -0.1214
  473MOL0     H65273   6.302   1.462   4.807  0.5735 -0.6737 -0.9275
  473MOL0     H65274   6.201   1.615   4.813  1.1563  0.7707  0.1657
  474MOL0     O65275   7.837  10.672   3.392 -0.0955  0.8296  0.6463
  474MOL0     C65276   7.745  10.749   3.402 -0.1735  0.3220  0.2605
  474MOL0     O65277   7.698  10.801   3.531  0.5179 -0.3171  0.3993
  474MOL0     C65278   7.771  10.769   3.639 -0.3047  0.7188 -0.1677
  474MOL0     C65279   7.884  10.846   3.680  0.5263  0.1335 -0.1969
  474MOL0     C65280   7.960  10.801   3.789  0.3428 -0.2583  0.4971
  474MOL0     C65281   7.939  10.679   3.846  0.7760 -0.0363  0.2213
  474MOL0     O65282   8.013  10.638   3.964 -0.3145  0.2806  0.4690
  474MOL0     C65283   8.070  10.502   3.971  0.1541 -0.1190 -0.5183
  474MOL0     C65284   8.128  10.453   3.840  0.0174 -0.1011 -0.0204
  474MOL0     C65285   8.198  10.314   3.838 -0.0119 -2.1985  0.6846
  474MOL0     C65286   8.100  10.198   3.834  0.8105 -0.7508  0.5174
  474MOL0     C65287   8.167  10.061   3.857 -0.0976  0.2381 -0.7806
  474MOL0     C65288   8.076   9.943   3.803 -0.0316 -0.3242  0.0107
  474MOL0     C65289   8.158   9.813   3.776  1.0045  0.6657  0.7010
  474MOL0     C65290   8.053   9.707   3.716 -0.5007 -0.3550  1.0581
  474MOL0     N65291   8.061   9.585   3.801 -0.9015  0.1238  0.3481
  474MOL0     C65292   8.148   9.480   3.787  0.9145 -0.0032  0.3793
  474MOL0     C65293   8.115   9.398   3.889  0.2151  0.5122  0.9113
  474MOL0     C65294   8.184   9.267   3.915  0.9327  0.2194 -0.7725
  474MOL0     C65295   8.311   9.278   3.999 -0.4723  1.2564 -0.5563
  474MOL0     C65296   8.407   9.157   3.971 -0.6671  0.2479  0.8272
  474MOL0     C65297   8.540   9.157   4.054  0.3588 -0.2193  0.1353
  474MOL0     O65298   8.621   9.050   4.009 -0.2036  0.0588 -0.0065
  474MOL0     C65299   8.758   9.049   4.055 -0.3932  0.1234 -0.3241
  474MOL0     C65300   8.850   8.979   3.979 -0.2641 -0.2833 -0.2323
  474MOL0     C65301   8.982   8.967   4.023 -0.0123 -1.0949 -0.2588
  474MOL0     C65302   9.077   8.889   3.942  0.4500  0.9277 -0.0789
  474MOL0     C65303   9.023   9.044   4.132 -0.2528  0.0705 -1.0458
  474MOL0     C65304   9.157   9.038   4.182  0.8905 -0.2169  0.9855
  474MOL0     O65305   9.169   9.004   4.309 -0.6013  0.7223 -0.5138
  474MOL0     C65306   9.289   9.024   4.370 -0.8764  0.5040  0.0108
  474MOL0     C65307   9.369   9.131   4.349  0.2226 -0.0983 -0.4649
  474MOL0     C65308   9.478   9.158   4.424 -0.1167  0.1086  0.3133
  474MOL0     C65309   9.522   9.068   4.526  0.3684 -0.3877  0.3117
  474MOL0     O65310   9.641   9.094   4.594  0.2606  0.6054 -0.1073
  474MOL0     C65311   9.637   9.061   4.735 -0.5071 -0.8085 -0.3351
  474MOL0     C65312   9.710   9.176   4.812 -0.3773  0.6778 -0.9394
  474MOL0     C65313   9.657   9.320   4.783 -0.3507 -0.3738  0.9989
  474MOL0     C65314   9.742   9.427   4.867  0.1563 -0.9257  0.5109
  474MOL0     C65315   9.648   9.537   4.922  0.3351  0.2002 -0.0533
  474MOL0     C65316   9.563   9.482   5.046  0.2584 -0.2620  0.2012
  474MOL0     C65317   9.478   9.600   5.118 -0.2904 -0.3012 -0.5407
  474MOL0     C65318   9.404   9.546   5.237  0.7672  0.0853  1.0551
  474MOL0    Cl65319   9.371   9.696   5.326  0.0726 -0.1879 -0.2544
  474MOL0     C65320   9.442   8.954   4.553 -0.4827  1.2288 -0.3009
  474MOL0     C65321   9.331   8.933   4.475 -0.8161  0.1534  0.0810
  474MOL0     O65322   9.249   9.076   4.109  0.3267  1.1298 -0.2635
  474MOL0     C65323   8.928   9.101   4.214  0.8392  0.4646 -1.0527
  474MOL0     C65324   8.795   9.105   4.182 -0.3716 -0.4065  0.1924
  474MOL0     N65325   8.010   9.452   3.964 -0.2178  0.1492  0.5250
  474MOL0     N65326   7.978   9.563   3.911 -0.4238 -0.2963  0.5361
  474MOL0     C65327   7.821  10.606   3.804 -0.1688 -0.5633 -1.0639
  474MOL0     C65328   7.741  10.651   3.708 -0.9039  0.3208 -0.2068
  474MOL0     C65329   7.698  10.827   3.277  0.2596 -0.1866 -0.6880
  474MOL0     C65330   7.601  10.926   3.302 -0.3435  0.5458 -0.2998
  474MOL0     C65331   7.561  11.014   3.196 -0.5809 -0.1945  0.0051
  474MOL0     C65332   7.610  11.003   3.072 -0.0984  0.2025  0.0309
  474MOL0     O65333   7.577  11.105   2.986  0.1135  0.1792  0.5444
  474MOL0     C65334   7.498  11.065   2.874  0.1519 -0.5661 -0.1481
  474MOL0     C65335   7.511  11.159   2.757 -0.4235 -0.4466 -1.3403
  474MOL0     C65336   7.435  11.120   2.629 -0.2858  0.1586 -0.0719
  474MOL0     C65337   7.287  11.087   2.639  0.7200  0.3902 -0.4496
  474MOL0     C65338   7.255  10.949   2.685 -0.7201 -0.3394  0.3795
  474MOL0     C65339   7.241  10.838   2.736 -0.5308 -0.3473  1.0338
  474MOL0     C65340   7.685  10.886   3.049 -0.0929  0.5058  0.3545
  474MOL0     C65341   7.733  10.800   3.144  0.5625 -0.1124  0.5821
  474MOL0     C65342   7.809  10.681   3.094  0.1076  0.1658 -0.2215
  474MOL0     H65343   7.892  10.940   3.627 -2.9418  0.5007 -0.2991
  474MOL0     H65344   8.041  10.869   3.815 -1.2337  3.6682 -3.5486
  474MOL0     H65345   7.990  10.432   3.996 -0.4449  0.4908 -0.6765
  474MOL0     H65346   8.144  10.494   4.051  1.6008 -1.2085 -1.9169
  474MOL0     H65347   8.046  10.450   3.768 -1.4470  0.8620  1.5552
  474MOL0     H65348   8.206  10.518   3.799  2.5466 -3.6012 -1.2819
  474MOL0     H65349   8.261  10.301   3.749  0.3393 -1.8647  0.8813
  474MOL0     H65350   8.271  10.301   3.918  0.8745 -0.3617  0.2358
  474MOL0     H65351   8.028  10.218   3.914  1.0082  2.1501  0.0881
  474MOL0     H65352   8.038  10.197   3.744  0.4231 -1.0557  0.7837
  474MOL0     H65353   8.180  10.053   3.965 -0.9700 -2.3858 -0.8058
  474MOL0     H65354   8.262  10.047   3.803  0.5795 -1.0427  0.6693
  474MOL0     H65355   7.990   9.931   3.871  1.3992  0.2514  2.0301
  474MOL0     H65356   8.024   9.972   3.712 -1.2684 -1.4580  0.3180
  474MOL0     H65357   8.200   9.776   3.870 -2.3187  0.6192  2.3145
  474MOL0     H65358   8.231   9.836   3.699 -2.1394  0.5321 -2.5700
  474MOL0     H65359   7.953   9.750   3.716  0.2568  1.5753 -0.0135
  474MOL0     H65360   8.063   9.683   3.609  1.2963  0.0885  1.0873
  474MOL0     H65361   8.229   9.457   3.718  0.4388 -1.8572  0.3890
  474MOL0     H65362   8.207   9.217   3.820 -0.8884 -1.5388 -0.3551
  474MOL0     H65363   8.111   9.207   3.970  0.6929  1.7986  0.7052
  474MOL0     H65364   8.364   9.367   3.963 -0.4227 -0.0441 -4.1066
  474MOL0     H65365   8.282   9.281   4.105  4.1301  0.5246  0.9600
  474MOL0     H65366   8.355   9.065   4.000 -1.8703  0.7508  0.3005
  474MOL0     H65367   8.437   9.162   3.865 -2.4326  0.5894  0.3204
  474MOL0     H65368   8.600   9.249   4.056  2.9557 -1.8278  0.9660
  474MOL0     H65369   8.511   9.134   4.157 -1.3425  0.4731 -0.1499
  474MOL0     H65370   8.822   8.921   3.892  1.2235  0.5508 -1.3352
  474MOL0     H65371   9.184   8.911   3.951  0.4830  0.6198  0.3351
  474MOL0     H65372   9.050   8.896   3.836 -0.0532  2.3327  0.1200
  474MOL0     H65373   9.068   8.784   3.971  3.3774  0.3166 -1.1156
  474MOL0     H65374   9.347   9.202   4.271 -3.2105  2.3591  2.4137
  474MOL0     H65375   9.543   9.236   4.386  2.3574 -1.4211  1.1063
  474MOL0     H65376   9.534   9.061   4.773 -0.3466  2.4660  0.3866
  474MOL0     H65377   9.680   8.962   4.751  0.4739 -0.6304 -1.6853
  474MOL0     H65378   9.695   9.166   4.920  1.0931  0.9901 -0.6828
  474MOL0     H65379   9.819   9.173   4.804  0.2712 -0.2741  4.3265
  474MOL0     H65380   9.554   9.324   4.819 -0.8886 -3.6901  0.1664
  474MOL0     H65381   9.668   9.342   4.677  4.6274 -0.9128  1.1477
  474MOL0     H65382   9.822   9.466   4.803 -1.8129  1.0529 -0.8841
  474MOL0     H65383   9.785   9.375   4.953  1.6288 -2.0815 -0.8562
  474MOL0     H65384   9.723   9.612   4.947  1.3893  0.3019 -3.1326
  474MOL0     H65385   9.587   9.592   4.849  0.8844 -3.2238 -3.3752
  474MOL0     H65386   9.632   9.436   5.117  0.2124 -1.7313 -0.6653
  474MOL0     H65387   9.496   9.403   5.012  0.7983 -0.1774 -1.0973
  474MOL0     H65388   9.399   9.628   5.047 -0.6325  1.4715  0.4907
  474MOL0     H65389   9.548   9.674   5.156  0.5670 -1.7176  0.7824
  474MOL0     H65390   9.472   9.489   5.302  3.4538  0.4794 -1.2370
  474MOL0     H65391   9.326   9.471   5.221  1.7946 -0.8624  0.3163
  474MOL0     H65392   9.461   8.877   4.627 -3.2959 -0.8444 -1.5891
  474MOL0     H65393   9.261   8.851   4.475 -0.8768  0.2016 -1.1052
  474MOL0     H65394   8.960   9.137   4.311 -2.0937 -2.4561  1.2159
  474MOL0     H65395   8.717   9.158   4.236 -1.7331  1.6138 -3.3817
  474MOL0     H65396   7.792  10.517   3.858 -0.7627 -1.0022 -2.0940
  474MOL0     H65397   7.654  10.592   3.686 -1.0376  0.6292 -0.5044
  474MOL0     H65398   7.572  10.933   3.406 -4.0906 -1.8931 -0.9452
  474MOL0     H65399   7.484  11.088   3.215 -0.4287  0.1291 -0.6272
  474MOL0     H65400   7.519  10.964   2.839  1.0316 -0.2975 -0.4298
  474MOL0     H65401   7.393  11.083   2.897  0.2536  0.0733 -0.1535
  474MOL0     H65402   7.611  11.183   2.720 -0.8024  0.1969 -1.9691
  474MOL0     H65403   7.470  11.247   2.807 -0.6116 -2.6143  2.7335
  474MOL0     H65404   7.432  11.217   2.577 -3.9526  0.6540  0.7406
  474MOL0     H65405   7.489  11.042   2.576  1.1785  3.5418 -4.2019
  474MOL0     H65406   7.238  11.084   2.541 -0.5184  0.3179  0.1524
  474MOL0     H65407   7.232  11.151   2.708  1.6292 -2.0034  2.7467
  474MOL0     H65408   7.242  10.742   2.784  3.1024 -0.7262  0.4678
  474MOL0     H65409   7.711  10.881   2.944  1.8496 -0.7706  0.8428
  474MOL0     H65410   7.776  10.579   3.115  0.1975  0.3325  0.7729
  474MOL0     H65411   7.817  10.690   2.985  0.7404  3.2886 -0.0165
  474MOL0     H65412   7.907  10.689   3.141  0.3584  2.8686 -1.0579
  475MOL0     O65413   1.012   4.766   1.554 -0.0138 -0.6821 -0.6184
  475MOL0     C65414   0.922   4.819   1.623 -0.0451  0.2788  0.2672
  475MOL0     O65415   0.916   4.946   1.676 -0.5633 -0.5804 -0.7730
  475MOL0     C65416   1.027   5.025   1.652  0.5414  0.9324  0.3170
  475MOL0     C65417   1.066   5.073   1.533 -0.3446  0.2161  0.4112
  475MOL0     C65418   1.169   5.173   1.523 -0.2066  0.2771  0.3672
  475MOL0     C65419   1.236   5.223   1.639 -0.0193 -0.6994 -0.3447
  475MOL0     O65420   1.342   5.314   1.650 -0.2205 -0.1156 -0.3113
  475MOL0     C65421   1.381   5.376   1.526  0.1878  0.4912 -0.5469
  475MOL0     C65422   1.513   5.440   1.540 -0.0280  0.5308 -0.6807
  475MOL0     C65423   1.568   5.503   1.416 -0.7592  0.6234 -0.5512
  475MOL0     C65424   1.679   5.411   1.340 -0.4626 -0.5226 -0.7827
  475MOL0     C65425   1.731   5.489   1.220  0.1521 -0.6322  0.8484
  475MOL0     C65426   1.821   5.405   1.130  0.2150 -0.5325 -0.2763
  475MOL0     C65427   1.866   5.489   1.016  0.4815 -0.2696  0.4134
  475MOL0     C65428   1.933   5.406   0.910 -0.8640 -0.0062 -0.1669
  475MOL0     N65429   1.862   5.303   0.838 -0.0383 -1.5112  0.7788
  475MOL0     C65430   1.761   5.336   0.755  0.0703  0.3171  0.3304
  475MOL0     C65431   1.679   5.223   0.734 -1.2158 -1.4040  0.3445
  475MOL0     C65432   1.582   5.223   0.631  0.6448 -0.7640 -0.0047
  475MOL0     C65433   1.634   5.155   0.500 -0.0147 -0.1754  0.2871
  475MOL0     C65434   1.629   5.007   0.514 -0.0953  0.8399 -0.0987
  475MOL0     C65435   1.702   4.943   0.399 -0.5604 -0.4520 -0.2563
  475MOL0     O65436   1.644   4.980   0.275 -0.0600  0.1496  0.3607
  475MOL0     C65437   1.717   4.959   0.166 -0.1255  1.0760  0.1475
  475MOL0     C65438   1.854   5.002   0.154 -0.0733 -0.1944  0.2498
  475MOL0     C65439   1.942   4.951   0.058  0.7866  0.3277 -0.2531
  475MOL0     C65440   2.084   5.006   0.062 -0.1108  0.3233 -0.4703
  475MOL0     C65441   1.891   4.884  -0.047 -0.0952  0.0554  0.2348
  475MOL0     C65442   1.967   4.828  -0.161 -0.3350  0.2020 -1.1966
  475MOL0     O65443   2.083   4.894  -0.192  0.5613  0.0319  0.0249
  475MOL0     C65444   2.165   4.853  -0.298 -0.4084  0.2137  0.1194
  475MOL0     C65445   2.124   4.862  -0.430 -1.2883  0.1125 -1.3944
  475MOL0     C65446   2.213   4.824  -0.529  0.0210  0.4303 -0.3685
  475MOL0     C65447   2.336   4.760  -0.496  0.1825  0.4821  0.1294
  475MOL0     O65448   2.417   4.724  -0.599  0.0262 -0.6733 -1.1135
  475MOL0     C65449   2.550   4.681  -0.581  0.5405 -0.8546  0.3541
  475MOL0     C65450   2.574   4.537  -0.554  0.2562 -0.3568 -0.1219
  475MOL0     C65451   2.558   4.461  -0.676  0.7417 -0.7756  0.0316
  475MOL0     C65452   2.553   4.304  -0.667 -0.1436  0.1678 -0.4678
  475MOL0     C65453   2.686   4.244  -0.740  0.9304 -0.1828  0.3695
  475MOL0     C65454   2.712   4.093  -0.674 -0.6469 -0.6044  0.9472
  475MOL0     C65455   2.619   3.988  -0.748 -0.3282 -0.9550  0.4870
  475MOL0     C65456   2.614   3.848  -0.675 -0.0029 -0.5625 -0.2714
  475MOL0    Cl65457   2.767   3.765  -0.669  0.1682  0.2209  0.4294
  475MOL0     C65458   2.369   4.748  -0.357  0.7617  0.8407 -0.6703
  475MOL0     C65459   2.280   4.791  -0.260  0.0556  0.3917  0.1991
  475MOL0     O65460   1.925   4.735  -0.228  0.5193  0.1028 -0.5497
  475MOL0     C65461   1.753   4.838  -0.037  0.1978  0.4856 -0.3936
  475MOL0     C65462   1.667   4.885   0.067  0.6912 -0.4687  1.1800
  475MOL0     N65463   1.735   5.134   0.830  0.1597  0.0142  0.2260
  475MOL0     N65464   1.854   5.179   0.877  0.0977  0.5269 -0.6100
  475MOL0     C65465   1.197   5.166   1.760 -0.3841  0.5669 -0.6209
  475MOL0     C65466   1.095   5.068   1.764 -0.5581 -0.8372 -0.1951
  475MOL0     C65467   0.794   4.749   1.612  0.4621 -0.3043  0.0357
  475MOL0     C65468   0.681   4.819   1.575  0.4958  0.6285  0.8015
  475MOL0     C65469   0.550   4.759   1.577 -0.2197 -0.3699 -0.7948
  475MOL0     C65470   0.535   4.624   1.618  0.2246 -0.0794 -0.1719
  475MOL0     O65471   0.413   4.552   1.606  1.3251 -0.8384  0.0100
  475MOL0     C65472   0.336   4.560   1.486  0.5215 -0.2910  0.0048
  475MOL0     C65473   0.211   4.466   1.489  0.0087 -0.5493 -0.3807
  475MOL0     C65474   0.259   4.323   1.472 -0.7123 -0.3367  0.3898
  475MOL0     C65475   0.138   4.233   1.450 -0.0123  0.6936 -1.1063
  475MOL0     C65476   0.156   4.099   1.516  0.0393  0.0004 -0.0144
  475MOL0     C65477   0.171   3.992   1.571  0.5940  0.3435  0.9027
  475MOL0     C65478   0.650   4.556   1.661 -0.5072  0.2359  0.4946
  475MOL0     C65479   0.775   4.616   1.647 -0.5081  0.7351  0.5131
  475MOL0     C65480   0.893   4.539   1.706  0.2741 -0.2069  0.9693
  475MOL0     H65481   1.029   5.018   1.447  1.0956 -1.1296  0.6160
  475MOL0     H65482   1.213   5.186   1.424  0.6266 -1.6264  0.4315
  475MOL0     H65483   1.303   5.441   1.485 -0.4427 -0.8464 -1.5653
  475MOL0     H65484   1.408   5.305   1.447  0.9407 -0.5576  0.6249
  475MOL0     H65485   1.501   5.517   1.617  1.4038 -1.5416  1.7922
  475MOL0     H65486   1.577   5.360   1.577 -3.6425 -1.5968  1.5268
  475MOL0     H65487   1.477   5.523   1.358 -1.3633  0.7034  0.3917
  475MOL0     H65488   1.608   5.595   1.460 -1.4703  1.5838 -1.8252
  475MOL0     H65489   1.766   5.384   1.402  0.3884  1.5338 -1.0157
  475MOL0     H65490   1.627   5.319   1.311 -4.6828  1.0415  1.0996
  475MOL0     H65491   1.773   5.587   1.246  1.0624  0.0687 -2.7211
  475MOL0     H65492   1.644   5.527   1.164  2.0024  2.3517 -0.2291
  475MOL0     H65493   1.907   5.362   1.182 -2.0206 -6.0799 -0.4675
  475MOL0     H65494   1.767   5.313   1.107  0.0839 -1.0471  1.8626
  475MOL0     H65495   1.936   5.564   1.055  0.3513 -0.4658  1.0406
  475MOL0     H65496   1.780   5.538   0.969  0.8256  1.8889  1.8483
  475MOL0     H65497   1.973   5.470   0.831  3.5537 -1.0005  1.0122
  475MOL0     H65498   2.022   5.371   0.962 -0.5484  1.0999  0.0568
  475MOL0     H65499   1.743   5.435   0.713 -0.9118  1.0771  2.3927
  475MOL0     H65500   1.546   5.325   0.614  1.4870 -0.3983  0.3624
  475MOL0     H65501   1.500   5.157   0.661  0.8444 -1.5076 -1.0344
  475MOL0     H65502   1.600   5.194   0.404 -1.7495  4.9423  2.5704
  475MOL0     H65503   1.739   5.187   0.499 -0.2703  0.7163  0.3517
  475MOL0     H65504   1.672   4.977   0.610 -0.1217 -1.5000 -0.7522
  475MOL0     H65505   1.525   4.974   0.521  0.2444 -0.2278  0.1391
  475MOL0     H65506   1.811   4.954   0.402 -0.8898  4.8191  1.6394
  475MOL0     H65507   1.681   4.836   0.413 -2.5207 -0.1240 -0.4284
  475MOL0     H65508   1.904   5.073   0.219  0.0234  0.9041 -0.9814
  475MOL0     H65509   2.107   5.046   0.161 -3.3301 -2.3187  1.5875
  475MOL0     H65510   2.089   5.085  -0.013 -2.6351 -0.8614 -2.0512
  475MOL0     H65511   2.156   4.928   0.038 -3.3446 -2.0995 -3.3997
  475MOL0     H65512   2.027   4.904  -0.458 -1.8889 -0.9768 -0.9939
  475MOL0     H65513   2.209   4.852  -0.633  1.1106  2.9375  0.1964
  475MOL0     H65514   2.605   4.713  -0.669 -1.9058  0.0491 -0.9435
  475MOL0     H65515   2.587   4.732  -0.491 -2.8032  1.1255  0.7906
  475MOL0     H65516   2.681   4.536  -0.532  0.0973  2.0815  0.9712
  475MOL0     H65517   2.511   4.501  -0.472  0.8161  1.9377  1.4037
  475MOL0     H65518   2.618   4.503  -0.757 -2.2745  0.3680 -1.7985
  475MOL0     H65519   2.454   4.473  -0.707  0.8703  1.0801  0.2331
  475MOL0     H65520   2.470   4.255  -0.719  0.8223 -1.8536 -0.1935
  475MOL0     H65521   2.541   4.268  -0.564 -0.6547 -1.3805 -1.0350
  475MOL0     H65522   2.654   4.242  -0.844 -4.6415 -4.4913  1.6969
  475MOL0     H65523   2.767   4.317  -0.727 -1.3261  2.7403 -0.6996
  475MOL0     H65524   2.696   4.078  -0.567  0.1605  1.1090  1.3503
  475MOL0     H65525   2.816   4.064  -0.688 -1.0843 -1.4408 -0.8045
  475MOL0     H65526   2.652   3.972  -0.851  0.8033  3.7952 -0.1581
  475MOL0     H65527   2.520   4.030  -0.768  0.1013  0.8839  1.9452
  475MOL0     H65528   2.544   3.777  -0.718  1.5741 -2.5503  0.2779
  475MOL0     H65529   2.590   3.866  -0.569  0.4525 -0.1203 -0.2370
  475MOL0     H65530   2.454   4.687  -0.329  2.1950  3.2162  0.4519
  475MOL0     H65531   2.298   4.773  -0.154 -0.2552 -0.3338  0.1431
  475MOL0     H65532   1.702   4.780  -0.113 -2.9156  1.9245  0.4330
  475MOL0     H65533   1.569   4.837   0.067  1.3037 -2.0652 -2.6272
  475MOL0     H65534   1.232   5.203   1.856  0.9271 -1.6278 -0.1778
  475MOL0     H65535   1.073   5.015   1.856 -1.5224 -1.5981 -0.8437
  475MOL0     H65536   0.692   4.918   1.534  1.1906 -0.4261 -1.7203
  475MOL0     H65537   0.474   4.827   1.539  0.5247  0.8218 -0.2063
  475MOL0     H65538   0.290   4.659   1.493  0.6282 -0.3361  1.6880
  475MOL0     H65539   0.389   4.563   1.391  0.2604  3.0525 -0.1451
  475MOL0     H65540   0.148   4.490   1.403  1.3536 -0.4004 -1.3662
  475MOL0     H65541   0.156   4.481   1.582  0.1923 -0.3963 -0.2966
  475MOL0     H65542   0.320   4.326   1.381  1.6196 -1.2533  1.8539
  475MOL0     H65543   0.317   4.310   1.564  2.6816  2.2208 -1.1682
  475MOL0     H65544   0.123   4.233   1.342  3.3012  2.0542 -1.7028
  475MOL0     H65545   0.049   4.275   1.497 -2.4154 -2.8096 -2.1018
  475MOL0     H65546   0.173   3.899   1.623 -0.8742 -1.7290 -2.4624
  475MOL0     H65547   0.641   4.452   1.693 -1.2274 -0.2779 -1.2350
  475MOL0     H65548   0.877   4.432   1.692 -2.1600  0.1944  0.1142
  475MOL0     H65549   0.993   4.560   1.667 -0.4255  3.5568  0.7890
  475MOL0     H65550   0.881   4.571   1.811 -0.4699 -1.2475  1.2130
  476MOL0     O65551   0.241   3.443   9.080  0.0934  0.6255  0.1187
  476MOL0     C65552   0.269   3.560   9.079 -0.4765 -0.5052 -0.3921
  476MOL0     O65553   0.337   3.616   9.183 -0.7394 -0.1743 -0.3800
  476MOL0     C65554   0.364   3.527   9.286 -0.1987  0.0793 -0.2804
  476MOL0     C65555   0.269   3.474   9.365  0.2216 -0.2231  0.3717
  476MOL0     C65556   0.287   3.394   9.477 -0.7205  0.1086  0.3220
  476MOL0     C65557   0.420   3.373   9.524  0.1283  0.3564 -0.1251
  476MOL0     O65558   0.455   3.301   9.633 -0.1157 -0.5771  0.4425
  476MOL0     C65559   0.358   3.266   9.728  0.4491  0.0745  0.9569
  476MOL0     C65560   0.428   3.218   9.847 -0.4099 -0.5928 -1.2110
  476MOL0     C65561   0.561   3.289   9.886 -0.3191  0.1219 -1.0025
  476MOL0     C65562   0.559   3.437   9.921 -0.4454  0.0041  0.1703
  476MOL0     C65563   0.675   3.525   9.875 -0.1707  0.7161  0.1631
  476MOL0     C65564   0.636   3.676   9.904 -0.2143 -0.7079 -0.1877
  476MOL0     C65565   0.747   3.768   9.891 -0.9910  0.0860 -0.3895
  476MOL0     C65566   0.795   3.801   9.753 -0.3649 -0.1083  0.7491
  476MOL0     N65567   0.697   3.866   9.667  0.3707  0.1249 -0.3842
  476MOL0     C65568   0.666   3.826   9.541  0.5270 -0.0891 -0.2083
  476MOL0     C65569   0.560   3.904   9.511 -0.5105 -0.2707 -0.1857
  476MOL0     C65570   0.492   3.904   9.369 -0.2096  0.2380  0.1071
  476MOL0     C65571   0.562   3.984   9.258 -0.9531 -0.6142  0.7003
  476MOL0     C65572   0.593   4.133   9.306 -0.5118  0.8571 -1.1468
  476MOL0     C65573   0.720   4.195   9.248  0.4798  0.2703  0.0161
  476MOL0     O65574   0.720   4.338   9.249  0.1969  0.3848 -0.0590
  476MOL0     C65575   0.658   4.393   9.144  1.2549 -0.4005  0.7055
  476MOL0     C65576   0.638   4.534   9.145  0.9732 -0.0972 -0.4081
  476MOL0     C65577   0.575   4.606   9.048  0.3227  0.3536  0.2223
  476MOL0     C65578   0.558   4.755   9.072 -0.7820  1.1800  0.0417
  476MOL0     C65579   0.526   4.546   8.931 -0.0416 -0.6112 -0.1404
  476MOL0     C65580   0.474   4.630   8.817 -0.4975 -0.1020 -0.8695
  476MOL0     O65581   0.556   4.730   8.765 -0.6705 -0.1363  0.0562
  476MOL0     C65582   0.508   4.822   8.683  0.3907 -1.0433 -0.5616
  476MOL0     C65583   0.593   4.878   8.588 -0.2979  2.0842 -0.0220
  476MOL0     C65584   0.552   4.982   8.507 -0.1331  0.6790 -0.2107
  476MOL0     C65585   0.429   5.038   8.520 -0.6056  1.0544 -0.1793
  476MOL0     O65586   0.406   5.157   8.452  0.3464  0.2975  0.1856
  476MOL0     C65587   0.335   5.272   8.506  0.4169  0.2913  0.4932
  476MOL0     C65588   0.432   5.397   8.504  0.4434 -1.0738  0.3759
  476MOL0     C65589   0.379   5.523   8.581  0.6096 -0.5147 -0.6806
  476MOL0     C65590   0.265   5.603   8.518  0.3353  0.0631  0.1273
  476MOL0     C65591   0.194   5.710   8.603  0.0755  0.0964 -0.3232
  476MOL0     C65592   0.081   5.765   8.531  0.5278 -0.5161 -0.3733
  476MOL0     C65593   0.037   5.896   8.597 -1.5632  0.6541 -0.4905
  476MOL0     C65594  -0.083   5.945   8.516  0.0030  0.7917  0.6877
  476MOL0    Cl65595  -0.117   6.106   8.573  0.1973 -0.2336 -0.2783
  476MOL0     C65596   0.343   4.986   8.610  0.0224 -0.0395  0.0409
  476MOL0     C65597   0.382   4.888   8.699  0.1521  0.0647  0.1618
  476MOL0     O65598   0.363   4.603   8.775 -0.6245 -0.7561 -0.1639
  476MOL0     C65599   0.519   4.403   8.926 -0.3576 -0.2218 -0.0757
  476MOL0     C65600   0.587   4.336   9.032 -0.4031  0.5694  0.0893
  476MOL0     N65601   0.548   3.991   9.617 -0.1151  0.1368 -0.2540
  476MOL0     N65602   0.630   3.981   9.707 -0.6489  0.5736 -0.0768
  476MOL0     C65603   0.526   3.427   9.439  0.0969  0.0354 -0.7394
  476MOL0     C65604   0.499   3.500   9.319 -0.3897  0.4628 -0.0758
  476MOL0     C65605   0.265   3.624   8.945 -0.2971  0.0479  0.0432
  476MOL0     C65606   0.299   3.547   8.831 -0.2609 -0.4415  0.4304
  476MOL0     C65607   0.286   3.609   8.706  1.4979  0.3820  0.0447
  476MOL0     C65608   0.258   3.745   8.688 -0.2897  0.0817  0.2731
  476MOL0     O65609   0.241   3.813   8.565 -0.8954 -0.2183 -0.4709
  476MOL0     C65610   0.115   3.796   8.508 -0.4080  0.1948  1.0295
  476MOL0     C65611   0.112   3.880   8.389  0.5622  0.4181 -0.0326
  476MOL0     C65612  -0.023   3.839   8.320 -0.0653  0.2677  0.8905
  476MOL0     C65613  -0.150   3.903   8.384 -0.5298 -0.2817 -1.0273
  476MOL0     C65614  -0.266   3.890   8.295 -0.2511 -0.5040 -0.2689
  476MOL0     C65615  -0.359   3.903   8.229 -0.2003  0.7094  0.3609
  476MOL0     C65616   0.243   3.823   8.805 -0.4969  0.4222 -0.4281
  476MOL0     C65617   0.245   3.766   8.934 -0.6192  0.7978  0.3842
  476MOL0     C65618   0.197   3.857   9.039  0.5988 -0.5657  0.0858
  476MOL0     H65619   0.167   3.499   9.336  1.0304  1.1676 -1.5403
  476MOL0     H65620   0.213   3.340   9.536  1.0939 -0.9445  1.7565
  476MOL0     H65621   0.282   3.194   9.697  0.2934 -0.3575  2.2944
  476MOL0     H65622   0.299   3.353   9.758 -3.2553 -0.6924 -3.0620
  476MOL0     H65623   0.366   3.204   9.936 -0.5521 -1.5001 -1.4319
  476MOL0     H65624   0.451   3.111   9.840  0.0075 -0.9369  2.9513
  476MOL0     H65625   0.610   3.234   9.967  0.2104  0.4256 -1.1113
  476MOL0     H65626   0.631   3.278   9.802  1.5720  1.8757  0.2451
  476MOL0     H65627   0.462   3.475   9.887  0.0712  1.4898  0.2809
  476MOL0     H65628   0.565   3.457  10.028  2.2466 -1.8294  0.4581
  476MOL0     H65629   0.699   3.513   9.769 -1.0506 -1.2575  0.1392
  476MOL0     H65630   0.768   3.498   9.926 -0.1826  1.0131  0.3429
  476MOL0     H65631   0.554   3.699   9.836  0.6905 -1.4008 -1.5706
  476MOL0     H65632   0.597   3.682  10.006 -2.7006 -0.7916 -1.0692
  476MOL0     H65633   0.832   3.716   9.935 -2.5621 -2.1488  0.1820
  476MOL0     H65634   0.741   3.854   9.959 -1.2097 -0.9404  0.9186
  476MOL0     H65635   0.884   3.865   9.761 -1.4916  1.8989 -1.4087
  476MOL0     H65636   0.820   3.705   9.708 -0.8510 -1.7509  3.7879
  476MOL0     H65637   0.714   3.743   9.490  1.6545  0.8111 -0.6420
  476MOL0     H65638   0.386   3.930   9.370  0.2322  2.4033 -1.3429
  476MOL0     H65639   0.500   3.801   9.333 -0.1806 -0.1735  1.2616
  476MOL0     H65640   0.637   3.927   9.203 -2.8891 -1.1391 -1.5221
  476MOL0     H65641   0.476   4.000   9.192 -2.3786 -0.7676  2.4289
  476MOL0     H65642   0.510   4.193   9.266 -1.1260  1.5574  1.0245
  476MOL0     H65643   0.589   4.147   9.415 -0.7080  5.1561 -1.5530
  476MOL0     H65644   0.807   4.151   9.296  0.8470  0.4460 -0.4774
  476MOL0     H65645   0.727   4.163   9.143 -2.8466 -0.4257 -0.1135
  476MOL0     H65646   0.665   4.570   9.243 -1.7446  0.8506  0.0620
  476MOL0     H65647   0.465   4.777   9.020 -1.5549 -3.3181 -0.9499
  476MOL0     H65648   0.643   4.812   9.035  1.1700  0.9533  3.6837
  476MOL0     H65649   0.544   4.778   9.178  1.3091 -2.0087  1.1634
  476MOL0     H65650   0.688   4.827   8.574 -1.3693 -0.0024  0.0560
  476MOL0     H65651   0.606   5.012   8.418 -0.1832 -4.1059 -2.1405
  476MOL0     H65652   0.242   5.288   8.451 -0.3815 -0.6286  1.5224
  476MOL0     H65653   0.306   5.269   8.612  0.2712 -2.1086  0.4343
  476MOL0     H65654   0.535   5.367   8.528  1.3116  0.2478 -1.4514
  476MOL0     H65655   0.451   5.439   8.405  1.6339  0.0880  1.0706
  476MOL0     H65656   0.471   5.581   8.591  0.5962 -0.0356 -2.7826
  476MOL0     H65657   0.347   5.495   8.681 -3.4010 -1.1825 -1.9621
  476MOL0     H65658   0.189   5.537   8.475 -4.0084  3.9461  1.1099
  476MOL0     H65659   0.303   5.661   8.434 -3.7146  1.3813 -1.0180
  476MOL0     H65660   0.163   5.665   8.698  3.6944  0.0800  1.0491
  476MOL0     H65661   0.268   5.782   8.639  1.9526 -3.0193  2.7285
  476MOL0     H65662   0.000   5.691   8.527  0.1617 -0.1054 -0.6282
  476MOL0     H65663   0.106   5.785   8.426 -1.7632  1.2653 -0.6649
  476MOL0     H65664   0.116   5.970   8.584 -2.1114  1.0157 -2.1183
  476MOL0     H65665   0.004   5.880   8.700 -1.0302  1.1781 -0.2337
  476MOL0     H65666  -0.171   5.888   8.546 -0.2211  1.8506  2.1545
  476MOL0     H65667  -0.068   5.942   8.407  0.4197  1.4799  0.7169
  476MOL0     H65668   0.244   5.032   8.609  0.2059  0.3686  0.4269
  476MOL0     H65669   0.307   4.848   8.767  0.9417 -1.6087  0.1022
  476MOL0     H65670   0.466   4.344   8.852  1.2360 -4.9404  2.1614
  476MOL0     H65671   0.593   4.229   9.014 -1.5595  0.6910 -1.2337
  476MOL0     H65672   0.631   3.429   9.466  0.9439  1.8309 -3.6265
  476MOL0     H65673   0.577   3.543   9.257 -0.7005 -1.8100 -2.2120
  476MOL0     H65674   0.325   3.442   8.834 -0.4050 -0.4700  0.8479
  476MOL0     H65675   0.306   3.552   8.616  0.5558 -1.3442  0.8820
  476MOL0     H65676   0.125   3.693   8.474 -0.6662  1.0164 -1.8069
  476MOL0     H65677   0.023   3.799   8.566 -1.8720  1.9441 -1.1862
  476MOL0     H65678   0.194   3.877   8.318 -0.2609 -1.3213 -0.9615
  476MOL0     H65679   0.101   3.983   8.425 -1.6056 -0.0860  0.9545
  476MOL0     H65680  -0.024   3.880   8.219 -1.1510 -1.0938  0.3215
  476MOL0     H65681  -0.028   3.732   8.343  5.1290  0.3350  3.9226
  476MOL0     H65682  -0.124   4.007   8.406  2.6771 -1.4650  1.4506
  476MOL0     H65683  -0.160   3.848   8.477  4.0365  3.1286  1.9049
  476MOL0     H65684  -0.444   3.920   8.165  1.1039  3.2184 -0.8335
  476MOL0     H65685   0.212   3.925   8.785 -2.8956 -0.7177 -3.2528
  476MOL0     H65686   0.211   3.964   9.025 -3.0767 -0.0038 -0.2631
  476MOL0     H65687   0.088   3.855   9.044  0.4042  3.2600 -0.1168
  476MOL0     H65688   0.237   3.833   9.138  1.2509  3.0031  0.8130
  477MOL0     O65689   3.620   7.188   3.022 -0.0814 -0.6131  0.0458
  477MOL0     C65690   3.642   7.070   3.053 -0.0147  0.6024 -0.1558
  477MOL0     O65691   3.560   6.959   3.024 -0.0240 -0.0825  0.3318
  477MOL0     C65692   3.477   6.979   2.922  0.1794 -0.3922 -0.1440
  477MOL0     C65693   3.363   7.062   2.924 -0.1240 -1.0343 -0.7943
  477MOL0     C65694   3.276   7.065   2.817  0.4246  1.1831 -0.5651
  477MOL0     C65695   3.297   6.974   2.707  0.4855  0.1684  0.0005
  477MOL0     O65696   3.194   6.964   2.618 -0.1119  0.3278  0.2483
  477MOL0     C65697   3.232   6.944   2.472 -0.3885 -0.2886 -0.8400
  477MOL0     C65698   3.192   7.069   2.399  0.3888  0.0466  0.3093
  477MOL0     C65699   3.211   7.063   2.245  0.9576 -0.6366  0.5509
  477MOL0     C65700   3.206   7.204   2.188 -0.5778  0.2585  0.3993
  477MOL0     C65701   3.077   7.279   2.226  0.3518 -0.5405  0.1505
  477MOL0     C65702   3.039   7.401   2.154  0.6470  0.0753 -0.1320
  477MOL0     C65703   3.155   7.513   2.148 -0.5720  1.1000  0.7940
  477MOL0     C65704   3.120   7.631   2.059  0.3336  0.7426 -1.3148
  477MOL0     N65705   2.993   7.704   2.095 -0.2144 -0.2667 -0.4589
  477MOL0     C65706   2.889   7.750   2.006 -0.0219  0.6296  0.2530
  477MOL0     C65707   2.808   7.844   2.074  0.0361 -1.0357 -0.1678
  477MOL0     C65708   2.693   7.914   2.019 -0.1117 -0.7086  0.4155
  477MOL0     C65709   2.699   8.063   2.030 -0.6292 -0.6221  0.2090
  477MOL0     C65710   2.791   8.112   1.923 -1.2323  0.5664  0.8033
  477MOL0     C65711   2.835   8.263   1.936 -0.0059  1.4255  0.4192
  477MOL0     O65712   2.904   8.291   2.053 -0.2315 -0.0711 -0.3736
  477MOL0     C65713   3.014   8.219   2.079  0.2074  0.8832  0.0985
  477MOL0     C65714   3.034   8.172   2.218 -0.0409 -0.5985  0.6549
  477MOL0     C65715   3.141   8.089   2.249 -0.2282  0.3718 -0.3560
  477MOL0     C65716   3.138   8.037   2.391 -0.8975  0.4467 -0.0642
  477MOL0     C65717   3.233   8.052   2.153 -0.2610 -0.2317  0.9189
  477MOL0     C65718   3.343   7.950   2.175 -0.7227 -0.0560 -0.5368
  477MOL0     O65719   3.331   7.860   2.279 -0.6719 -0.4833  0.4370
  477MOL0     C65720   3.420   7.765   2.322  0.6325 -1.2163  0.5187
  477MOL0     C65721   3.372   7.696   2.435  0.2285 -0.4655  1.1007
  477MOL0     C65722   3.462   7.614   2.502 -0.9242  0.6899 -0.6215
  477MOL0     C65723   3.589   7.584   2.453 -0.3385 -0.1046 -0.6927
  477MOL0     O65724   3.684   7.500   2.514  0.0019  0.1171 -0.0401
  477MOL0     C65725   3.641   7.436   2.636 -0.5291 -0.1671 -0.3938
  477MOL0     C65726   3.750   7.351   2.699  0.6794  0.3637 -0.2511
  477MOL0     C65727   3.868   7.420   2.767  0.8162  0.4056 -0.0148
  477MOL0     C65728   3.977   7.321   2.829 -0.2506 -0.6442  0.0365
  477MOL0     C65729   4.106   7.376   2.895 -0.2455  0.4339  0.9771
  477MOL0     C65730   4.208   7.275   2.952  0.6643 -0.1592 -0.0204
  477MOL0     C65731   4.208   7.138   2.879 -0.3697  0.1129  0.3028
  477MOL0     C65732   4.340   7.065   2.924  0.5095  0.9420 -0.1920
  477MOL0    Cl65733   4.327   6.901   2.857 -0.4385 -0.2758 -0.4140
  477MOL0     C65734   3.630   7.644   2.335  0.5482 -0.7933  0.3192
  477MOL0     C65735   3.549   7.742   2.274  0.2774  0.4683 -0.3172
  477MOL0     O65736   3.441   7.949   2.097 -0.2548  0.7325  0.3515
  477MOL0     C65737   3.221   8.105   2.023 -0.1941 -0.2160 -0.7929
  477MOL0     C65738   3.118   8.186   1.985  0.2789  0.1900 -0.4031
  477MOL0     N65739   2.864   7.855   2.199  0.0778 -0.0958  0.3501
  477MOL0     N65740   2.971   7.775   2.210 -0.0350 -0.6937  0.1007
  477MOL0     C65741   3.399   6.880   2.717 -0.2986  0.5669  0.5092
  477MOL0     C65742   3.490   6.891   2.819 -0.1417  0.2097 -0.1686
  477MOL0     C65743   3.773   7.044   3.109 -0.7995 -0.1356 -0.5599
  477MOL0     C65744   3.836   6.922   3.074  0.2159  0.2583  1.1942
  477MOL0     C65745   3.972   6.897   3.100  0.3817  0.1167  0.5171
  477MOL0     C65746   4.043   6.994   3.178  0.4233 -0.1450  0.2978
  477MOL0     O65747   4.174   6.985   3.213 -0.6014  0.6234  0.0839
  477MOL0     C65748   4.238   6.854   3.188  0.4926  0.0491 -0.1133
  477MOL0     C65749   4.368   6.862   3.246 -1.1168  0.2868  1.2315
  477MOL0     C65750   4.390   6.775   3.370 -0.1377 -0.9731 -0.7723
  477MOL0     C65751   4.384   6.618   3.349  0.0611 -0.9087  0.0113
  477MOL0     C65752   4.397   6.543   3.482  0.8574 -0.1483  0.1432
  477MOL0     C65753   4.394   6.486   3.589  0.6430 -0.2594 -0.1767
  477MOL0     C65754   3.980   7.110   3.223 -0.2209 -0.4509  0.6699
  477MOL0     C65755   3.842   7.131   3.191 -0.0033 -1.3222 -0.2989
  477MOL0     C65756   3.805   7.275   3.243  0.6664  0.5798 -0.6716
  477MOL0     H65757   3.351   7.127   3.010  1.7467  2.3200 -2.8339
  477MOL0     H65758   3.199   7.141   2.808  1.4358  2.5219  1.3506
  477MOL0     H65759   3.180   6.859   2.428 -0.2555 -1.7494  1.5787
  477MOL0     H65760   3.341   6.939   2.469 -0.2147  1.6975  0.4197
  477MOL0     H65761   3.098   7.112   2.436  0.1209 -0.9359  0.8108
  477MOL0     H65762   3.265   7.146   2.428  0.6075  0.3409 -0.9647
  477MOL0     H65763   3.310   7.028   2.217  1.0202  1.1018 -1.7953
  477MOL0     H65764   3.131   7.005   2.196  0.5559 -1.0395  1.6550
  477MOL0     H65765   3.293   7.267   2.207  1.7278 -1.9093 -2.0830
  477MOL0     H65766   3.203   7.193   2.079 -1.4738  2.4618  0.1532
  477MOL0     H65767   3.080   7.306   2.332  0.6865 -2.7934  0.7544
  477MOL0     H65768   2.991   7.211   2.225  0.2951 -0.4662 -0.8905
  477MOL0     H65769   3.013   7.374   2.051  3.9136  1.3570 -1.4149
  477MOL0     H65770   2.944   7.433   2.197 -0.0086 -0.6214 -1.0322
  477MOL0     H65771   3.252   7.472   2.119 -1.5837  1.3018 -3.5322
  477MOL0     H65772   3.154   7.558   2.248 -1.1277  2.5555  0.1548
  477MOL0     H65773   3.211   7.692   2.065 -0.6762  2.1458  0.7741
  477MOL0     H65774   3.110   7.587   1.959 -1.7211 -3.9207  0.6572
  477MOL0     H65775   2.869   7.737   1.900 -1.0431 -1.6143  0.6621
  477MOL0     H65776   2.594   7.883   2.052 -1.3024 -0.5602 -2.6824
  477MOL0     H65777   2.706   7.884   1.914 -0.0445  0.1249  0.1771
  477MOL0     H65778   2.595   8.091   2.007  0.1240 -0.0825 -3.0690
  477MOL0     H65779   2.734   8.107   2.124 -1.8269  1.2868 -0.1741
  477MOL0     H65780   2.884   8.055   1.920 -1.3696  0.3082  1.2505
  477MOL0     H65781   2.739   8.099   1.828 -1.6498 -1.0839  1.2226
  477MOL0     H65782   2.900   8.282   1.850  1.0835 -2.0380  0.3424
  477MOL0     H65783   2.741   8.317   1.921 -1.1582 -0.5056  0.3435
  477MOL0     H65784   2.952   8.180   2.288 -0.3672 -1.2901  0.3692
  477MOL0     H65785   3.229   8.073   2.440 -1.5148 -0.5875  1.9065
  477MOL0     H65786   3.141   7.929   2.403  5.8724  0.3378  0.8913
  477MOL0     H65787   3.046   8.074   2.437 -2.6795 -0.3912 -2.6774
  477MOL0     H65788   3.269   7.708   2.466 -0.0845  0.8510 -0.3407
  477MOL0     H65789   3.439   7.572   2.600  0.3227 -0.9461 -0.9799
  477MOL0     H65790   3.598   7.494   2.717  0.5365 -1.9755  1.5975
  477MOL0     H65791   3.562   7.363   2.616 -0.2842 -0.9685  1.3673
  477MOL0     H65792   3.694   7.280   2.759  2.3515 -0.4103  0.4594
  477MOL0     H65793   3.796   7.298   2.615  1.3111  1.2954 -0.5106
  477MOL0     H65794   3.831   7.481   2.850 -2.8544 -3.6963  1.7798
  477MOL0     H65795   3.919   7.478   2.690  0.1136 -0.7837 -1.4086
  477MOL0     H65796   4.023   7.261   2.750  2.5282 -1.9633  2.4834
  477MOL0     H65797   3.914   7.262   2.895 -2.0301  1.2207  0.0972
  477MOL0     H65798   4.160   7.429   2.816 -0.5755 -1.2580 -0.4613
  477MOL0     H65799   4.086   7.443   2.979  1.2726 -1.3241  2.8207
  477MOL0     H65800   4.184   7.253   3.057 -0.1180 -1.0391 -0.3732
  477MOL0     H65801   4.306   7.324   2.951  1.1555 -1.1077 -0.7951
  477MOL0     H65802   4.202   7.153   2.771  0.3179 -1.3991  0.0293
  477MOL0     H65803   4.119   7.078   2.905 -0.9614  1.6634  2.0860
  477MOL0     H65804   4.356   7.057   3.032  0.0045 -3.5295 -0.2529
  477MOL0     H65805   4.434   7.106   2.885  0.2301  0.4822 -1.3786
  477MOL0     H65806   3.725   7.613   2.293  2.9528  1.0080  3.9696
  477MOL0     H65807   3.594   7.797   2.191 -1.0941 -1.3545 -2.3850
  477MOL0     H65808   3.282   8.072   1.939  0.4991 -1.7563  0.2510
  477MOL0     H65809   3.129   8.224   1.884  3.1014 -0.1441 -0.2994
  477MOL0     H65810   3.415   6.811   2.634  0.5182  0.7295  0.5220
  477MOL0     H65811   3.581   6.832   2.813  2.9374  4.4583 -0.0554
  477MOL0     H65812   3.777   6.850   3.018  0.5878 -2.0483  3.5303
  477MOL0     H65813   4.023   6.804   3.078 -1.9021 -1.7340  2.5611
  477MOL0     H65814   4.186   6.766   3.227 -2.4011  0.5091 -2.5066
  477MOL0     H65815   4.247   6.847   3.079  1.5404  1.8770 -0.1774
  477MOL0     H65816   4.387   6.969   3.259  2.0980 -0.0370  0.2843
  477MOL0     H65817   4.439   6.824   3.171 -0.3324  2.5086  0.7517
  477MOL0     H65818   4.478   6.807   3.426 -2.6476  1.2852  2.2412
  477MOL0     H65819   4.310   6.799   3.440 -0.2217  2.3965 -1.8064
  477MOL0     H65820   4.460   6.581   3.280 -0.1456  0.8631 -1.2264
  477MOL0     H65821   4.291   6.588   3.301  0.3522  3.9497 -4.3752
  477MOL0     H65822   4.394   6.420   3.673 -2.4758 -0.2445 -0.0559
  477MOL0     H65823   4.030   7.189   3.278  0.2862 -0.7087  0.5857
  477MOL0     H65824   3.820   7.352   3.167  0.2392  0.2587 -1.0851
  477MOL0     H65825   3.702   7.281   3.280  1.5534  0.1866  2.0625
  477MOL0     H65826   3.867   7.291   3.332  0.3135 -1.1034 -0.1026
  478MOL0     O65827   1.643   1.901   4.545 -0.5197 -0.3811 -0.7248
  478MOL0     C65828   1.593   2.012   4.570 -0.3735  0.3872 -0.3237
  478MOL0     O65829   1.653   2.108   4.659 -0.3838  0.7992 -0.2712
  478MOL0     C65830   1.770   2.058   4.716  0.3601 -0.6517  0.0021
  478MOL0     C65831   1.768   2.035   4.853  0.2140  0.5824 -0.2660
  478MOL0     C65832   1.877   1.989   4.926 -0.2767 -0.2083  0.7606
  478MOL0     C65833   2.001   1.980   4.862  0.1967  0.5057  0.6054
  478MOL0     O65834   2.101   1.946   4.945  0.1447  0.0743 -0.2014
  478MOL0     C65835   2.226   1.922   4.883 -0.3896  0.1095  0.0879
  478MOL0     C65836   2.314   1.854   4.984  0.3587 -0.4097 -0.0809
  478MOL0     C65837   2.230   1.735   5.041  0.5798 -0.5520  0.6323
  478MOL0     C65838   2.307   1.643   5.130 -0.9374 -0.4450 -0.2229
  478MOL0     C65839   2.283   1.666   5.282 -0.1540  0.8668  0.3155
  478MOL0     C65840   2.178   1.569   5.347 -0.1705 -0.2397  0.3926
  478MOL0     C65841   2.035   1.610   5.295 -0.2457  0.1413  0.1610
  478MOL0     C65842   1.946   1.494   5.318 -1.1150  0.0993  0.4412
  478MOL0     N65843   1.861   1.503   5.438 -0.4321 -0.1385 -1.1328
  478MOL0     C65844   1.729   1.541   5.452  0.3231  0.6543 -0.4180
  478MOL0     C65845   1.701   1.512   5.580  0.5625  0.4087 -0.0648
  478MOL0     C65846   1.571   1.532   5.654 -0.3322 -0.6194 -0.9607
  478MOL0     C65847   1.534   1.672   5.646  0.7047  0.1081 -0.0631
  478MOL0     C65848   1.630   1.783   5.687 -0.5100  0.3217 -0.4625
  478MOL0     C65849   1.705   1.753   5.814  0.7243 -0.0202  0.2820
  478MOL0     O65850   1.618   1.712   5.921  0.3035 -0.4092 -0.7672
  478MOL0     C65851   1.662   1.663   6.044  0.1056  0.1836 -0.2549
  478MOL0     C65852   1.794   1.619   6.068  0.8951  0.1936 -0.2072
  478MOL0     C65853   1.837   1.589   6.204  0.2885 -0.6978 -0.1256
  478MOL0     C65854   1.992   1.567   6.213 -0.6968  1.2144  0.2552
  478MOL0     C65855   1.745   1.599   6.312  0.4142 -0.1982 -0.1091
  478MOL0     C65856   1.786   1.555   6.457  0.1563 -0.0942  0.7100
  478MOL0     O65857   1.692   1.596   6.551  0.6972 -0.2178  0.5834
  478MOL0     C65858   1.686   1.534   6.671  0.0667 -0.8096  0.5571
  478MOL0     C65859   1.716   1.615   6.786 -0.2852  1.1685 -0.2292
  478MOL0     C65860   1.720   1.573   6.922 -0.1809  1.5213 -0.2759
  478MOL0     C65861   1.698   1.431   6.938  0.8838  0.1825  0.7239
  478MOL0     O65862   1.702   1.377   7.065  0.5607  0.4453 -0.1865
  478MOL0     C65863   1.567   1.358   7.101 -0.3311 -0.0290 -0.4452
  478MOL0     C65864   1.500   1.486   7.153  0.3919 -0.1193  0.5443
  478MOL0     C65865   1.351   1.467   7.184  0.0477  0.1757  1.1299
  478MOL0     C65866   1.331   1.431   7.329 -0.8697 -0.2349  1.0140
  478MOL0     C65867   1.182   1.440   7.376  0.0167  1.0865 -0.0799
  478MOL0     C65868   1.092   1.314   7.323  0.2385  0.6196  0.4209
  478MOL0     C65869   0.958   1.299   7.401 -0.1324 -0.1385 -0.5122
  478MOL0     C65870   0.890   1.166   7.390 -0.8112  0.1478  0.5350
  478MOL0    Cl65871   0.816   1.155   7.226 -0.1132 -0.6106 -0.0934
  478MOL0     C65872   1.676   1.351   6.824 -0.4238  0.1684 -0.2670
  478MOL0     C65873   1.670   1.401   6.695  0.1238  0.5166 -0.5539
  478MOL0     O65874   1.887   1.496   6.481  0.3081  0.4289 -0.9650
  478MOL0     C65875   1.615   1.645   6.286  0.2758  0.1156  0.3976
  478MOL0     C65876   1.574   1.677   6.158 -0.0623  0.2052 -0.5699
  478MOL0     N65877   1.804   1.467   5.652 -0.3346  0.5057  0.5041
  478MOL0     N65878   1.897   1.455   5.567 -0.5614  1.0539 -0.1138
  478MOL0     C65879   2.011   2.008   4.725  0.1342 -0.4778 -0.0681
  478MOL0     C65880   1.897   2.051   4.646  0.0178 -0.1525  0.5322
  478MOL0     C65881   1.450   2.041   4.535  0.6834 -1.1236 -0.9839
  478MOL0     C65882   1.365   2.102   4.630  0.0728 -0.3367  0.3559
  478MOL0     C65883   1.240   2.156   4.589  0.3558  0.2798  0.4617
  478MOL0     C65884   1.191   2.143   4.460  0.9147  0.2522 -0.0799
  478MOL0     O65885   1.076   2.209   4.427 -0.1637 -0.7466 -0.0553
  478MOL0     C65886   1.086   2.310   4.324  0.5662  0.4047 -0.4515
  478MOL0     C65887   1.008   2.268   4.206  0.1675  0.8126  0.1173
  478MOL0     C65888   0.853   2.275   4.209 -0.1883  0.1738 -1.0874
  478MOL0     C65889   0.814   2.414   4.269  0.1645 -0.5543 -0.4610
  478MOL0     C65890   0.869   2.538   4.209  0.5323  0.0891 -0.5669
  478MOL0     C65891   0.927   2.639   4.168 -0.4742  0.7886 -0.7452
  478MOL0     C65892   1.272   2.066   4.375  0.7377  0.8241  0.5672
  478MOL0     C65893   1.402   2.018   4.404 -0.1058 -0.4046 -0.0596
  478MOL0     C65894   1.465   1.926   4.304  0.8295  0.1352  0.6172
  478MOL0     H65895   1.686   2.043   4.925  2.9884  0.0787  3.2233
  478MOL0     H65896   1.873   1.956   5.029  0.1882  1.5364  1.3689
  478MOL0     H65897   2.277   2.015   4.854  0.8642 -1.6119 -3.9755
  478MOL0     H65898   2.222   1.850   4.801  0.3234  1.0719 -0.8360
  478MOL0     H65899   2.404   1.810   4.939  0.2216  0.7063 -1.5320
  478MOL0     H65900   2.343   1.910   5.073 -1.2933 -0.8321  0.7809
  478MOL0     H65901   2.146   1.773   5.100  0.7530 -0.1313  0.6087
  478MOL0     H65902   2.203   1.674   4.955 -2.7730 -2.1489  2.5769
  478MOL0     H65903   2.285   1.539   5.104  0.8472 -0.9632  0.1898
  478MOL0     H65904   2.414   1.656   5.109 -1.4156  1.3155 -1.8510
  478MOL0     H65905   2.261   1.768   5.314  1.9243  0.6227  2.8814
  478MOL0     H65906   2.383   1.650   5.324 -0.6574  3.3617  2.8239
  478MOL0     H65907   2.185   1.468   5.305 -2.0341  1.0389 -3.5018
  478MOL0     H65908   2.192   1.561   5.455 -0.6362  0.5863  0.5208
  478MOL0     H65909   2.026   1.623   5.187 -4.6180  0.3860  0.3932
  478MOL0     H65910   2.006   1.702   5.347 -0.8012 -0.0489  0.1843
  478MOL0     H65911   1.888   1.493   5.225  1.1496 -0.4783 -1.0356
  478MOL0     H65912   1.984   1.392   5.317 -3.3129 -0.7867  0.8705
  478MOL0     H65913   1.661   1.577   5.375 -0.6896 -1.9534 -0.8848
  478MOL0     H65914   1.589   1.515   5.761  4.0377  1.4339 -1.1280
  478MOL0     H65915   1.490   1.464   5.629 -1.4143 -0.3833  1.5893
  478MOL0     H65916   1.503   1.688   5.542  0.2287  0.1161  0.0748
  478MOL0     H65917   1.446   1.666   5.710  0.8484 -0.2173  0.1041
  478MOL0     H65918   1.701   1.805   5.606  0.0802 -1.3174 -0.4243
  478MOL0     H65919   1.576   1.877   5.704  2.5362  1.9867  0.7617
  478MOL0     H65920   1.774   1.669   5.795  1.2367  0.5258 -0.3094
  478MOL0     H65921   1.751   1.843   5.856 -2.7276  2.9003 -1.6522
  478MOL0     H65922   1.875   1.630   5.996  1.9292 -0.6601  0.7822
  478MOL0     H65923   2.016   1.460   6.212 -0.1327  1.3343  0.5144
  478MOL0     H65924   2.034   1.608   6.306  0.1709  0.8944  0.0171
  478MOL0     H65925   2.047   1.623   6.137  2.2917 -0.7988  0.7518
  478MOL0     H65926   1.736   1.719   6.763 -0.2630  1.1986 -0.0792
  478MOL0     H65927   1.748   1.629   7.010 -0.4016 -2.9396  2.9936
  478MOL0     H65928   1.511   1.319   7.015 -1.3627  3.7074 -1.6330
  478MOL0     H65929   1.571   1.284   7.181  0.1366 -1.7671 -1.9800
  478MOL0     H65930   1.561   1.522   7.237  2.1030  0.9196 -1.0918
  478MOL0     H65931   1.494   1.557   7.071 -0.3907  0.5057  1.1304
  478MOL0     H65932   1.304   1.391   7.121  1.5703 -1.0211  1.3820
  478MOL0     H65933   1.305   1.563   7.159  2.3340  0.5586 -2.1217
  478MOL0     H65934   1.405   1.500   7.371  2.1492 -2.1346 -0.8218
  478MOL0     H65935   1.347   1.327   7.357 -1.8861 -0.6512  0.1366
  478MOL0     H65936   1.194   1.446   7.485 -3.5220  1.6956  0.3712
  478MOL0     H65937   1.117   1.524   7.350 -2.3821 -1.0243 -1.3771
  478MOL0     H65938   1.158   1.228   7.342  2.0116  2.0172  0.9324
  478MOL0     H65939   1.076   1.332   7.217  1.8007 -0.4786 -0.0413
  478MOL0     H65940   0.885   1.375   7.372 -2.4708 -1.4008  1.6151
  478MOL0     H65941   0.975   1.321   7.507 -1.2720 -2.8485  0.3165
  478MOL0     H65942   0.810   1.163   7.465 -1.8717  0.4101 -0.5603
  478MOL0     H65943   0.966   1.087   7.391 -1.2813 -0.3220 -0.1514
  478MOL0     H65944   1.675   1.245   6.845  1.5415  0.5802  2.4086
  478MOL0     H65945   1.664   1.342   6.604 -0.8894 -2.5582  1.3611
  478MOL0     H65946   1.537   1.634   6.361  1.2707  1.9271  1.7698
  478MOL0     H65947   1.473   1.717   6.158  0.0688  0.7274  1.8000
  478MOL0     H65948   2.109   2.024   4.680  0.6725  0.5784  1.4068
  478MOL0     H65949   1.905   2.091   4.546 -4.2226  1.6279  0.6737
  478MOL0     H65950   1.399   2.139   4.726 -1.3900  0.3552  0.6263
  478MOL0     H65951   1.178   2.216   4.655  1.0021 -0.3083  1.6286
  478MOL0     H65952   1.044   2.404   4.363  1.2055  0.4484  0.1524
  478MOL0     H65953   1.190   2.323   4.295  1.2297 -1.6327  0.8138
  478MOL0     H65954   1.042   2.168   4.176 -1.6631  1.0362 -3.2284
  478MOL0     H65955   1.039   2.319   4.115 -2.8671 -2.2188 -2.9041
  478MOL0     H65956   0.834   2.262   4.103  2.2845  3.7980 -2.1782
  478MOL0     H65957   0.810   2.191   4.263  1.4057 -0.4492 -0.7241
  478MOL0     H65958   0.840   2.416   4.375 -0.5926  2.3204 -0.2452
  478MOL0     H65959   0.706   2.407   4.256  0.3753 -1.5254 -1.9550
  478MOL0     H65960   1.000   2.710   4.136  1.2770 -0.8360 -0.5470
  478MOL0     H65961   1.241   2.047   4.273 -1.1478  1.4909  0.9754
  478MOL0     H65962   1.402   1.848   4.260  1.9967 -0.6472  0.2747
  478MOL0     H65963   1.500   1.987   4.220  1.0584  1.4634  1.6512
  478MOL0     H65964   1.548   1.868   4.346 -0.7502 -1.1420  2.1114
  479MOL0     O65965   6.099   5.510   6.977  0.3787 -0.5847  0.4717
  479MOL0     C65966   6.049   5.505   6.864  0.1607  0.8540  1.2580
  479MOL0     O65967   6.098   5.572   6.756 -0.4432  0.0971  0.6856
  479MOL0     C65968   6.233   5.614   6.762  0.3996 -0.1356  0.9204
  479MOL0     C65969   6.333   5.516   6.764 -0.7304 -0.0908 -0.2340
  479MOL0     C65970   6.471   5.552   6.772  0.4125  0.5696  0.6646
  479MOL0     C65971   6.500   5.691   6.776 -0.4786  0.6159 -0.0690
  479MOL0     O65972   6.618   5.741   6.820  0.0345 -0.4688  0.4426
  479MOL0     C65973   6.733   5.721   6.737  0.4510  0.2498 -0.7231
  479MOL0     C65974   6.714   5.761   6.584 -0.3395 -0.7507 -0.1858
  479MOL0     C65975   6.684   5.912   6.577  0.1740  0.1151  0.0190
  479MOL0     C65976   6.693   5.961   6.425  0.1238 -1.0042  0.2829
  479MOL0     C65977   6.703   6.114   6.426  0.1338  0.2537 -0.4260
  479MOL0     C65978   6.719   6.174   6.294 -0.4986 -0.1250  0.4950
  479MOL0     C65979   6.615   6.141   6.193 -0.4888 -0.5528  1.2781
  479MOL0     C65980   6.583   6.270   6.117  0.2706 -0.3305  0.6606
  479MOL0     N65981   6.501   6.370   6.203  0.2480  0.3791  0.3663
  479MOL0     C65982   6.400   6.352   6.285  0.7035  0.6877  0.1454
  479MOL0     C65983   6.365   6.477   6.329 -0.3499  0.1670 -0.1345
  479MOL0     C65984   6.233   6.511   6.385  0.0479 -0.6811 -1.6036
  479MOL0     C65985   6.250   6.525   6.536 -0.2272  0.9541 -0.6228
  479MOL0     C65986   6.123   6.590   6.598 -0.3377  0.6238 -0.0663
  479MOL0     C65987   5.994   6.513   6.573 -1.2103 -0.7098  0.3566
  479MOL0     O65988   6.016   6.371   6.588 -0.0722  0.2395 -0.3820
  479MOL0     C65989   5.906   6.283   6.588 -0.1010 -0.1351 -0.4700
  479MOL0     C65990   5.928   6.150   6.578 -0.0550 -0.4597 -0.4403
  479MOL0     C65991   5.833   6.056   6.567 -0.3382 -0.0728  0.2250
  479MOL0     C65992   5.882   5.915   6.554 -0.4010 -0.1264 -0.0531
  479MOL0     C65993   5.693   6.096   6.561  0.5552  0.0505 -0.4560
  479MOL0     C65994   5.587   6.011   6.544  0.3891 -0.6267  0.1402
  479MOL0     O65995   5.469   6.057   6.584 -0.0823  0.3176  0.2890
  479MOL0     C65996   5.353   5.973   6.570 -0.7148  0.0742 -0.5921
  479MOL0     C65997   5.349   5.828   6.585  0.1262  0.1479  0.3562
  479MOL0     C65998   5.228   5.755   6.584 -0.3017  0.1659 -0.3818
  479MOL0     C65999   5.105   5.828   6.569 -0.0832  0.2338  0.0839
  479MOL0     O66000   4.975   5.777   6.557  0.1582  0.5720  0.1615
  479MOL0     C66001   4.953   5.645   6.607 -0.1687 -0.1659 -0.6315
  479MOL0     C66002   4.819   5.593   6.552 -0.2608  0.6426  0.0338
  479MOL0     C66003   4.808   5.602   6.401  0.5690 -0.5077 -1.2414
  479MOL0     C66004   4.672   5.563   6.353 -0.6283 -0.0967 -1.1355
  479MOL0     C66005   4.674   5.558   6.194 -0.7225 -0.3778  0.2533
  479MOL0     C66006   4.530   5.562   6.130  1.0443 -0.3454  0.7816
  479MOL0     C66007   4.470   5.423   6.153 -1.1681  0.8475  0.2756
  479MOL0     C66008   4.355   5.396   6.057  0.0304 -0.6957  0.4462
  479MOL0    Cl66009   4.227   5.526   6.081 -0.1105  0.1342  0.1175
  479MOL0     C66010   5.113   5.968   6.553  0.6048 -0.0120  0.2364
  479MOL0     C66011   5.232   6.041   6.558  0.4162  0.2007 -0.8553
  479MOL0     O66012   5.605   5.908   6.486 -0.6649  0.8428  0.2195
  479MOL0     C66013   5.662   6.231   6.585  0.2723  0.0527  0.8420
  479MOL0     C66014   5.771   6.318   6.605 -0.0232  0.1355  0.1553
  479MOL0     N66015   6.461   6.568   6.284  0.0990  0.5710 -0.3470
  479MOL0     N66016   6.544   6.497   6.214  0.2764 -0.1719  0.1991
  479MOL0     C66017   6.404   5.786   6.763  0.3430 -0.9571  0.2510
  479MOL0     C66018   6.269   5.744   6.747 -0.3200 -0.2717  0.1894
  479MOL0     C66019   5.909   5.464   6.843 -0.2006  0.1557 -0.9905
  479MOL0     C66020   5.820   5.512   6.935 -0.3115  0.2011  0.3524
  479MOL0     C66021   5.680   5.496   6.937  0.7656  0.5358  0.0377
  479MOL0     C66022   5.619   5.426   6.833  0.6258 -0.9955  0.4025
  479MOL0     O66023   5.477   5.399   6.809 -0.1713  0.1044 -0.0326
  479MOL0     C66024   5.405   5.347   6.930  0.2005  0.1892  0.8733
  479MOL0     C66025   5.248   5.359   6.915  0.6125  0.1954  0.6488
  479MOL0     C66026   5.208   5.500   6.886  0.2310 -0.5483 -0.2927
  479MOL0     C66027   5.242   5.601   6.997 -0.5330 -0.3730  0.7561
  479MOL0     C66028   5.200   5.735   6.961  1.4444 -0.4515 -0.2072
  479MOL0     C66029   5.151   5.844   6.934 -0.6419  0.0548 -0.0769
  479MOL0     C66030   5.711   5.375   6.734 -0.3082  0.3460 -1.0999
  479MOL0     C66031   5.856   5.375   6.749 -0.4037 -0.0819  0.8499
  479MOL0     C66032   5.936   5.313   6.646  0.7373  0.3698 -0.7210
  479MOL0     H66033   6.313   5.409   6.765 -2.5107  0.0984  3.8517
  479MOL0     H66034   6.536   5.465   6.783  1.0536  0.5331 -2.5043
  479MOL0     H66035   6.727   5.613   6.723  2.4564 -0.3163  1.9509
  479MOL0     H66036   6.823   5.767   6.778 -0.2806  0.2098  0.9991
  479MOL0     H66037   6.808   5.751   6.529  0.0313  5.1672 -1.3212
  479MOL0     H66038   6.628   5.701   6.553  0.2042 -1.8766  0.4399
  479MOL0     H66039   6.589   5.944   6.621  2.4417  4.3929  2.5103
  479MOL0     H66040   6.758   5.972   6.631 -0.0773 -2.5047  3.6772
  479MOL0     H66041   6.790   5.928   6.386  2.9019  1.7484  4.0318
  479MOL0     H66042   6.614   5.926   6.359  1.4328  1.5648 -2.9343
  479MOL0     H66043   6.786   6.147   6.489 -0.5495 -1.3618  1.4344
  479MOL0     H66044   6.609   6.156   6.464 -0.0810 -1.2873  0.8344
  479MOL0     H66045   6.715   6.283   6.305 -2.9638  0.1078 -1.8842
  479MOL0     H66046   6.815   6.142   6.252 -2.0981  0.7218 -4.5292
  479MOL0     H66047   6.527   6.095   6.239 -0.4300  0.2869  2.2607
  479MOL0     H66048   6.658   6.073   6.119 -0.3113  0.3723  0.5019
  479MOL0     H66049   6.664   6.327   6.070 -2.9869  3.3493 -1.0904
  479MOL0     H66050   6.516   6.241   6.036  0.6470  1.5746 -0.3980
  479MOL0     H66051   6.334   6.266   6.291  0.9692  0.5759  3.5126
  479MOL0     H66052   6.155   6.435   6.377 -1.4434  0.4393  1.2030
  479MOL0     H66053   6.196   6.604   6.341  0.7915  3.6077  5.3787
  479MOL0     H66054   6.268   6.430   6.586  2.1917  1.0224 -1.2470
  479MOL0     H66055   6.325   6.596   6.571 -0.3411  0.6645  0.2189
  479MOL0     H66056   6.142   6.608   6.704 -1.3445  1.0298  0.0506
  479MOL0     H66057   6.113   6.686   6.547  1.2491  0.4036 -0.8555
  479MOL0     H66058   5.917   6.540   6.647  1.6031 -1.4974  3.8421
  479MOL0     H66059   5.964   6.531   6.469 -1.4690  3.0575  0.9124
  479MOL0     H66060   6.032   6.122   6.568 -0.1965 -1.5737  0.8908
  479MOL0     H66061   5.874   5.857   6.647  0.9349  0.3220  0.3706
  479MOL0     H66062   5.990   5.909   6.536 -0.3140 -1.2067  0.7165
  479MOL0     H66063   5.836   5.861   6.471 -5.2701  2.8487  0.3438
  479MOL0     H66064   5.436   5.764   6.600 -0.4772 -0.8071 -0.0583
  479MOL0     H66065   5.227   5.648   6.604 -0.3781  0.3577  0.7088
  479MOL0     H66066   5.029   5.577   6.568  0.2214 -0.2646  0.2875
  479MOL0     H66067   4.961   5.654   6.716  1.8700 -1.5716 -0.6228
  479MOL0     H66068   4.799   5.490   6.584 -0.5347  0.8405  0.5079
  479MOL0     H66069   4.737   5.649   6.599 -1.9168 -2.4011  1.0286
  479MOL0     H66070   4.884   5.532   6.364  2.2619  1.0554 -0.8389
  479MOL0     H66071   4.820   5.706   6.369  2.2156  0.0055  0.8238
  479MOL0     H66072   4.599   5.629   6.400  0.0505  0.5114 -0.9108
  479MOL0     H66073   4.657   5.459   6.385 -0.7180 -0.7336 -3.1402
  479MOL0     H66074   4.738   5.638   6.157  0.9633 -2.2189 -1.0254
  479MOL0     H66075   4.729   5.471   6.157  0.2763 -0.0700  0.9599
  479MOL0     H66076   4.534   5.577   6.022 -2.3016  1.0119  0.7087
  479MOL0     H66077   4.462   5.639   6.169 -1.6445 -2.1329 -0.1246
  479MOL0     H66078   4.442   5.422   6.259  0.1625  0.8203  0.6511
  479MOL0     H66079   4.550   5.352   6.132  0.3024  2.4103  0.2910
  479MOL0     H66080   4.312   5.298   6.080  0.4638 -1.1453 -0.6085
  479MOL0     H66081   4.385   5.402   5.952 -1.1047 -0.0796  0.1362
  479MOL0     H66082   5.025   6.021   6.518  0.1858 -0.5471  0.4612
  479MOL0     H66083   5.246   6.148   6.550 -0.9853  0.7853  2.5885
  479MOL0     H66084   5.563   6.274   6.593  0.3747  0.1310  1.9612
  479MOL0     H66085   5.743   6.418   6.636 -1.0882  0.5681 -1.9973
  479MOL0     H66086   6.422   5.892   6.770 -0.5412 -0.8424  0.9571
  479MOL0     H66087   6.195   5.823   6.760 -1.3597 -1.0508 -0.8181
  479MOL0     H66088   5.847   5.569   7.024 -2.7625  2.9935 -0.5555
  479MOL0     H66089   5.623   5.520   7.026  0.8405 -1.6167  0.7347
  479MOL0     H66090   5.438   5.243   6.941  3.6496  1.1190  0.5434
  479MOL0     H66091   5.442   5.395   7.021 -0.2674  2.2565  0.0172
  479MOL0     H66092   5.204   5.324   7.008 -0.7115  0.3431  0.1005
  479MOL0     H66093   5.211   5.298   6.832  0.3090  0.8635  0.2857
  479MOL0     H66094   5.247   5.536   6.790 -1.0383  2.1171  0.1003
  479MOL0     H66095   5.099   5.503   6.880  0.2491 -0.7080 -0.7669
  479MOL0     H66096   5.351   5.607   7.004 -0.6075  2.0890  0.8296
  479MOL0     H66097   5.212   5.566   7.096  0.9988 -3.0600  0.3541
  479MOL0     H66098   5.112   5.937   6.899 -1.1506 -0.6235 -1.3462
  479MOL0     H66099   5.666   5.304   6.664 -0.7239 -0.3491 -0.1501
  479MOL0     H66100   5.871   5.278   6.565  2.1101 -0.8446 -1.3356
  479MOL0     H66101   6.004   5.385   6.600  0.1436 -0.0329 -2.3019
  479MOL0     H66102   5.999   5.237   6.691 -0.8079  0.6175  2.0852
  480MOL0     O66103   1.990  10.181   4.140 -0.2037 -0.2968  0.5154
  480MOL0     C66104   2.084  10.250   4.115 -0.1169  0.8288  0.4233
  480MOL0     O66105   2.210  10.199   4.115  0.1300 -0.0487  0.2697
  480MOL0     C66106   2.229  10.070   4.160 -0.2905  0.2056 -0.3707
  480MOL0     C66107   2.197  10.031   4.290 -0.6324  0.2255  0.8805
  480MOL0     C66108   2.206   9.901   4.335  0.1188  1.7053 -0.2670
  480MOL0     C66109   2.282   9.803   4.271  0.7745 -0.2264 -0.4641
  480MOL0     O66110   2.299   9.677   4.325 -0.1980  0.0676  0.5931
  480MOL0     C66111   2.422   9.609   4.297  0.6503  0.5149 -0.4120
  480MOL0     C66112   2.460   9.519   4.403 -1.0770  0.1433  0.2470
  480MOL0     C66113   2.547   9.596   4.499  0.3472  0.8773  0.3391
  480MOL0     C66114   2.611   9.502   4.608  0.2989 -0.2318 -0.3620
  480MOL0     C66115   2.656   9.579   4.727 -1.3134 -0.5806 -1.1544
  480MOL0     C66116   2.795   9.641   4.716 -0.2402  0.3887  0.9110
  480MOL0     C66117   2.860   9.652   4.859 -0.2716 -0.9557  0.0528
  480MOL0     C66118   2.780   9.746   4.957 -0.0392  0.6265  0.5029
  480MOL0     N66119   2.743   9.870   4.888  0.1456  0.1036  0.4886
  480MOL0     C66120   2.816   9.960   4.823 -0.0333 -0.0312 -0.8038
  480MOL0     C66121   2.725  10.032   4.747 -0.0472 -0.2246 -0.0440
  480MOL0     C66122   2.752  10.138   4.648  0.3429 -0.1246  1.0636
  480MOL0     C66123   2.759  10.282   4.721  0.6478 -0.3015 -0.5385
  480MOL0     C66124   2.843  10.378   4.630  0.2887  0.4112  0.5415
  480MOL0     C66125   2.876  10.488   4.723  0.2468  0.1958  0.1756
  480MOL0     O66126   2.761  10.561   4.767  0.1346 -0.0297  0.0358
  480MOL0     C66127   2.726  10.669   4.689  0.2851 -0.4283 -1.5340
  480MOL0     C66128   2.761  10.795   4.745 -0.0723  0.8499  0.4714
  480MOL0     C66129   2.706  10.911   4.709 -0.9327  0.0449  0.5120
  480MOL0     C66130   2.771  11.036   4.771 -0.7064  0.1641  0.9472
  480MOL0     C66131   2.625  10.906   4.591 -0.3554  0.4934 -0.0373
  480MOL0     C66132   2.568  11.030   4.532 -0.5934  0.2940 -0.0779
  480MOL0     O66133   2.532  11.115   4.623  0.2465 -0.4442  0.1219
  480MOL0     C66134   2.498  11.250   4.599 -0.7084  0.0348  0.2657
  480MOL0     C66135   2.564  11.350   4.671 -0.1168  0.9947 -0.5625
  480MOL0     C66136   2.535  11.478   4.655  0.1561 -0.3213  0.1381
  480MOL0     C66137   2.439  11.514   4.558 -0.3131  0.0463  0.2326
  480MOL0     O66138   2.416  11.643   4.535  0.3488  0.0661 -0.7411
  480MOL0     C66139   2.526  11.737   4.527  0.5554 -0.4191 -0.1190
  480MOL0     C66140   2.475  11.875   4.508  0.0500  0.8937  0.3456
  480MOL0     C66141   2.400  11.907   4.380  0.4730 -0.5329 -0.6708
  480MOL0     C66142   2.477  11.888   4.249 -0.0084 -0.2532  0.2966
  480MOL0     C66143   2.506  12.028   4.190 -0.1386  1.0332  0.4593
  480MOL0     C66144   2.617  12.017   4.079  0.8440  0.1568  0.3224
  480MOL0     C66145   2.754  12.007   4.142 -0.2414  0.0488 -0.6474
  480MOL0     C66146   2.852  11.967   4.040  0.3471  0.8903 -0.2723
  480MOL0    Cl66147   3.010  11.926   4.128 -0.0625  0.1828 -0.4912
  480MOL0     C66148   2.369  11.424   4.489 -0.5956 -0.0667  0.1793
  480MOL0     C66149   2.397  11.286   4.504  0.9205 -0.5360  0.5685
  480MOL0     O66150   2.544  11.037   4.411 -0.3961 -0.0330  0.7445
  480MOL0     C66151   2.603  10.779   4.531  0.7702 -0.5833  0.1042
  480MOL0     C66152   2.644  10.661   4.586  1.2084  0.3894  0.0422
  480MOL0     N66153   2.604   9.983   4.778 -0.0406 -0.9176  0.0575
  480MOL0     N66154   2.611   9.894   4.858  0.2315  0.1367  0.2430
  480MOL0     C66155   2.327   9.849   4.144  0.1423  0.7108 -0.7317
  480MOL0     C66156   2.297   9.971   4.090  0.4256  0.1039 -0.1228
  480MOL0     C66157   2.078  10.379   4.066  0.3614  0.2280 -0.0937
  480MOL0     C66158   2.125  10.409   3.941  0.5108 -0.3537  0.2340
  480MOL0     C66159   2.130  10.538   3.887 -0.7582 -0.7322 -0.4506
  480MOL0     C66160   2.080  10.646   3.968 -0.7491 -0.2755 -0.3561
  480MOL0     O66161   2.073  10.769   3.916  0.3871 -0.0969  0.7489
  480MOL0     C66162   2.037  10.887   3.995 -0.5421 -0.9655 -0.1870
  480MOL0     C66163   2.073  11.024   3.932 -0.2053  0.0208 -0.0216
  480MOL0     C66164   2.070  11.131   4.045  0.2552  0.1276  0.1648
  480MOL0     C66165   2.172  11.249   4.019  1.0695  0.5483  0.9964
  480MOL0     C66166   2.293  11.237   4.100 -0.1544  1.4701  0.2073
  480MOL0     C66167   2.393  11.237   4.170 -0.4990 -0.7726 -0.4961
  480MOL0     C66168   2.013  10.615   4.092  0.1787 -0.0755  0.3033
  480MOL0     C66169   2.012  10.487   4.139 -0.8367  0.7166 -0.6959
  480MOL0     C66170   1.960  10.450   4.280 -0.0552 -0.4242  0.4005
  480MOL0     H66171   2.149  10.105   4.353  1.2731  2.9167 -0.6274
  480MOL0     H66172   2.180   9.873   4.437 -1.8274  1.5697 -0.7680
  480MOL0     H66173   2.507   9.678   4.291  1.9669 -0.9545  0.4811
  480MOL0     H66174   2.405   9.538   4.215 -0.5748 -2.2555  2.0818
  480MOL0     H66175   2.372   9.466   4.444 -1.3222  2.7571  3.4980
  480MOL0     H66176   2.530   9.451   4.353  0.5376  1.3453  0.7980
  480MOL0     H66177   2.629   9.654   4.454 -0.6420  0.9389 -1.4911
  480MOL0     H66178   2.479   9.666   4.548  1.3553  1.4350  0.9671
  480MOL0     H66179   2.543   9.421   4.638 -0.3457  0.4662  0.0997
  480MOL0     H66180   2.693   9.448   4.559  1.0300  2.5165 -2.3953
  480MOL0     H66181   2.654   9.508   4.810 -1.1877 -0.4403 -1.0307
  480MOL0     H66182   2.593   9.660   4.763  2.7932  3.2269 -1.6091
  480MOL0     H66183   2.861   9.572   4.662 -2.3449  1.2119 -3.0362
  480MOL0     H66184   2.794   9.734   4.660 -1.8067 -0.3123 -0.2716
  480MOL0     H66185   2.966   9.677   4.847 -0.9097  4.7459  3.0885
  480MOL0     H66186   2.866   9.554   4.908  0.3293 -1.2906 -0.6619
  480MOL0     H66187   2.692   9.688   4.987 -0.7279  0.3041 -1.9270
  480MOL0     H66188   2.831   9.767   5.051 -0.4338 -1.6215  1.2932
  480MOL0     H66189   2.925   9.966   4.819  0.0775  2.2646  2.2242
  480MOL0     H66190   2.671  10.136   4.574  1.2951 -1.1731  0.0257
  480MOL0     H66191   2.847  10.115   4.599  0.2105 -1.7162  1.5157
  480MOL0     H66192   2.657  10.323   4.724  0.4643 -0.7433 -0.6006
  480MOL0     H66193   2.793  10.265   4.824  0.2791  4.3006  0.5535
  480MOL0     H66194   2.931  10.320   4.600 -0.7840 -1.1807  0.3255
  480MOL0     H66195   2.799  10.419   4.539  2.0021 -1.9144 -1.5008
  480MOL0     H66196   2.924  10.442   4.810 -0.2627  1.4769  1.1648
  480MOL0     H66197   2.958  10.549   4.682  0.9490  0.2409  1.5982
  480MOL0     H66198   2.823  10.798   4.834 -0.3843  0.7860  0.6948
  480MOL0     H66199   2.775  11.108   4.688  0.0418 -3.2540 -2.2702
  480MOL0     H66200   2.877  11.019   4.790 -0.1475 -0.4652 -2.1142
  480MOL0     H66201   2.718  11.079   4.856  0.2696  1.5937  0.8716
  480MOL0     H66202   2.635  11.329   4.751  0.5991  1.1282 -1.1421
  480MOL0     H66203   2.571  11.567   4.707  0.7185  0.5905 -1.7124
  480MOL0     H66204   2.569  11.743   4.628 -0.9880 -0.3315  0.5614
  480MOL0     H66205   2.600  11.706   4.453  3.7764 -0.6776  2.9381
  480MOL0     H66206   2.408  11.907   4.588 -0.1252 -0.0072  0.5720
  480MOL0     H66207   2.557  11.946   4.521 -1.2765  2.4923  0.3855
  480MOL0     H66208   2.369  12.011   4.398 -0.7653 -1.4236  3.2746
  480MOL0     H66209   2.308  11.848   4.385  0.0185  0.1213 -1.1778
  480MOL0     H66210   2.411  11.842   4.175  1.4348 -2.0452  0.0813
  480MOL0     H66211   2.557  11.817   4.270 -0.0627 -0.3992  0.0223
  480MOL0     H66212   2.414  12.070   4.147  1.5072  1.4599 -3.0438
  480MOL0     H66213   2.545  12.097   4.265  2.2433 -0.7652  0.9478
  480MOL0     H66214   2.613  12.105   4.014 -1.2451 -0.5597 -0.6080
  480MOL0     H66215   2.597  11.925   4.022  0.3107  1.3082 -1.4382
  480MOL0     H66216   2.755  11.921   4.209  1.0541 -0.2142 -0.9783
  480MOL0     H66217   2.775  12.098   4.199  0.8538 -1.8065  2.0851
  480MOL0     H66218   2.866  12.052   3.971  0.2115  0.2804 -1.0641
  480MOL0     H66219   2.807  11.884   3.985  1.3137 -1.4783  2.2633
  480MOL0     H66220   2.292  11.461   4.423 -2.1882 -1.8294  0.9805
  480MOL0     H66221   2.345  11.209   4.449  1.5280 -0.1361 -0.6082
  480MOL0     H66222   2.549  10.779   4.437 -0.4901  1.6526  0.7655
  480MOL0     H66223   2.608  10.563   4.554  0.3525  0.4747  0.7231
  480MOL0     H66224   2.385   9.790   4.074 -1.6936  1.4853 -3.0371
  480MOL0     H66225   2.351   9.983   3.996 -0.1883  1.2100 -0.3438
  480MOL0     H66226   2.175  10.327   3.889 -0.1117 -1.0496  0.7029
  480MOL0     H66227   2.178  10.566   3.794 -0.6074 -1.5772 -0.6368
  480MOL0     H66228   1.927  10.885   3.999 -0.8374  0.5548 -3.5198
  480MOL0     H66229   2.084  10.873   4.093 -0.9167 -3.0409 -0.2574
  480MOL0     H66230   2.025  11.046   3.836  2.0693  0.1578 -1.1875
  480MOL0     H66231   2.176  11.010   3.899  0.6308  0.2733  2.3357
  480MOL0     H66232   1.971  11.171   4.066  1.3161  3.3667 -0.5051
  480MOL0     H66233   2.083  11.083   4.142 -0.6284  0.3400  0.3994
  480MOL0     H66234   2.126  11.343   4.050  2.2106  1.3968  0.2074
  480MOL0     H66235   2.194  11.265   3.913  0.4537  0.3683  0.8355
  480MOL0     H66236   2.479  11.240   4.234 -1.0440  1.0616  0.2096
  480MOL0     H66237   1.942  10.681   4.141 -0.0236  2.3289 -2.8814
  480MOL0     H66238   1.966  10.545   4.334 -4.3044  1.3340 -1.6855
  480MOL0     H66239   1.865  10.396   4.290  0.8926 -2.3596 -0.5586
  480MOL0     H66240   2.027  10.384   4.336 -0.8764  0.5663  2.6797
  481MOL0     O66241   3.316  10.731  10.306  0.4357 -0.3237 -0.1281
  481MOL0     C66242   3.264  10.839  10.335 -0.1453  0.0320 -0.5478
  481MOL0     O66243   3.208  10.863  10.466 -0.0371 -0.6082 -0.0620
  481MOL0     C66244   3.253  10.770  10.552 -0.2890 -0.6662  0.0680
  481MOL0     C66245   3.166  10.665  10.597  0.7729  0.0029  0.0679
  481MOL0     C66246   3.224  10.561  10.676 -0.2374 -0.4573  0.2059
  481MOL0     C66247   3.348  10.590  10.744 -0.0915  0.5086 -0.1477
  481MOL0     O66248   3.402  10.517  10.847 -0.0756  0.0420  0.6701
  481MOL0     C66249   3.340  10.391  10.886 -0.0162 -0.2411 -0.9416
  481MOL0     C66250   3.416  10.319  11.005 -0.3556  0.6649  0.4550
  481MOL0     C66251   3.349  10.188  11.045  0.2371  0.0163  1.3035
  481MOL0     C66252   3.378  10.059  10.960  0.2480 -0.8989  0.5485
  481MOL0     C66253   3.308   9.944  11.022  0.3227  0.2073 -0.6561
  481MOL0     C66254   3.369   9.901  11.162 -0.1414 -0.4874 -0.1276
  481MOL0     C66255   3.291   9.784  11.235  0.4509  0.3866 -0.2462
  481MOL0     C66256   3.343   9.741  11.368  0.4179  0.3471  0.5541
  481MOL0     N66257   3.495   9.736  11.364 -0.9175 -0.6154  0.1458
  481MOL0     C66258   3.569   9.824  11.433  0.5007  0.0222 -0.1041
  481MOL0     C66259   3.689   9.769  11.423  0.1809 -1.1245  0.7853
  481MOL0     C66260   3.819   9.830  11.458 -0.4644 -0.7539 -0.2615
  481MOL0     C66261   3.831   9.956  11.371  0.1500  0.5395  0.6157
  481MOL0     C66262   3.943  10.049  11.424 -0.3369 -0.2021 -0.1962
  481MOL0     C66263   4.074  10.010  11.358  0.5612  0.5324  0.5748
  481MOL0     O66264   4.109   9.870  11.366 -0.2056 -1.2626  1.0717
  481MOL0     C66265   4.144   9.822  11.485 -0.2749  0.4182 -0.8948
  481MOL0     C66266   4.217   9.701  11.463  0.6995 -0.4306  0.3110
  481MOL0     C66267   4.292   9.644  11.565  0.5182 -0.5021 -1.3213
  481MOL0     C66268   4.386   9.534  11.523 -0.0932 -0.2351 -0.6136
  481MOL0     C66269   4.298   9.712  11.701 -0.1253  0.2327  0.1628
  481MOL0     C66270   4.371   9.653  11.822 -0.3777 -0.2505 -0.5203
  481MOL0     O66271   4.387   9.732  11.935 -0.3836 -0.4988 -0.3181
  481MOL0     C66272   4.447   9.680  12.050 -0.7807 -0.2829 -0.6923
  481MOL0     C66273   4.404   9.562  12.098  0.2261  0.1911 -0.0345
  481MOL0     C66274   4.465   9.510  12.206 -0.3423 -0.0113 -0.2080
  481MOL0     C66275   4.550   9.577  12.297  0.2699 -0.9176  0.3805
  481MOL0     O66276   4.603   9.528  12.410  1.0821  0.1657 -0.1514
  481MOL0     C66277   4.517   9.458  12.505  0.0630  0.0918 -0.3610
  481MOL0     C66278   4.556   9.310  12.514 -0.1021 -0.4810 -0.1976
  481MOL0     C66279   4.707   9.275  12.514 -1.3085 -0.1629 -0.5461
  481MOL0     C66280   4.779   9.348  12.627  0.2460  0.3375  0.4110
  481MOL0     C66281   4.931   9.319  12.606  0.9312  0.3278  0.3463
  481MOL0     C66282   5.020   9.392  12.705  0.0367 -1.1106  0.0592
  481MOL0     C66283   5.020   9.544  12.686  0.5260 -0.3675  0.4141
  481MOL0     C66284   5.147   9.617  12.725  0.4254  0.2211  0.4381
  481MOL0    Cl66285   5.257   9.641  12.578  1.0035 -0.1560  0.1647
  481MOL0     C66286   4.582   9.710  12.248 -0.3718  0.1012 -0.9958
  481MOL0     C66287   4.536   9.751  12.126  0.2152 -0.1056  0.5298
  481MOL0     O66288   4.436   9.545  11.809  0.8023 -0.2479  0.0294
  481MOL0     C66289   4.232   9.834  11.712  0.3409 -0.5563 -0.4236
  481MOL0     C66290   4.167   9.886  11.604 -0.1816 -0.1046 -0.2543
  481MOL0     N66291   3.693   9.648  11.360 -0.3743  0.1088  0.4232
  481MOL0     N66292   3.566   9.631  11.341  0.6536  0.5334  0.3224
  481MOL0     C66293   3.417  10.715  10.718  0.0835  0.0581 -0.1483
  481MOL0     C66294   3.376  10.799  10.622  0.1236 -1.1378  0.4330
  481MOL0     C66295   3.268  10.950  10.233 -0.1302 -0.1456  0.6660
  481MOL0     C66296   3.396  11.012  10.222  0.5172  0.3182  0.3576
  481MOL0     C66297   3.417  11.118  10.132  0.0089 -0.5466 -0.2401
  481MOL0     C66298   3.330  11.152  10.030  0.1025  0.7714 -0.1750
  481MOL0     O66299   3.368  11.249   9.939  0.4264  0.0646 -0.7017
  481MOL0     C66300   3.301  11.240   9.806  0.6428  0.1517 -0.0179
  481MOL0     C66301   3.354  11.119   9.730 -0.5437  0.0886  0.5442
  481MOL0     C66302   3.505  11.131   9.719 -0.6609 -0.8711  0.0520
  481MOL0     C66303   3.550  11.029   9.610  0.5606 -0.5765  0.1144
  481MOL0     C66304   3.564  10.893   9.670  0.0768 -0.3943  0.4631
  481MOL0     C66305   3.591  10.782   9.727 -0.0548 -0.3892 -0.4459
  481MOL0     C66306   3.202  11.097  10.034 -0.2430  0.4046  0.3935
  481MOL0     C66307   3.173  10.983  10.130  0.2565 -1.2210  0.9824
  481MOL0     C66308   3.053  10.898  10.084 -0.8592  0.4007 -0.6198
  481MOL0     H66309   3.068  10.648  10.553  0.3565 -1.5315  1.4868
  481MOL0     H66310   3.174  10.466  10.691  1.0129 -1.3536 -1.0097
  481MOL0     H66311   3.322  10.318  10.806 -4.1570 -2.8972  1.9823
  481MOL0     H66312   3.243  10.414  10.931  1.4064 -0.5108  2.5916
  481MOL0     H66313   3.519  10.292  10.980 -0.1868 -1.7146  3.1782
  481MOL0     H66314   3.426  10.382  11.094 -0.1714 -1.5200  2.0459
  481MOL0     H66315   3.384  10.169  11.147  0.5849 -0.9804  1.0162
  481MOL0     H66316   3.243  10.216  11.048  1.2392  4.4604  1.5140
  481MOL0     H66317   3.327  10.054  10.864 -3.3921 -2.4547  2.3781
  481MOL0     H66318   3.485  10.037  10.965 -0.0200 -2.0219  2.6716
  481MOL0     H66319   3.314   9.858  10.955 -2.1386 -0.0429 -0.6578
  481MOL0     H66320   3.203   9.968  11.042  0.1230  0.1203 -1.5724
  481MOL0     H66321   3.471   9.865  11.145  0.2925  0.2825  0.7109
  481MOL0     H66322   3.373   9.978  11.239  0.2556 -0.4032 -0.2333
  481MOL0     H66323   3.298   9.700  11.165 -0.0919 -2.0430  2.4461
  481MOL0     H66324   3.186   9.809  11.253  1.3790  1.6281  4.7369
  481MOL0     H66325   3.311   9.818  11.440 -1.4266 -2.1555  2.5899
  481MOL0     H66326   3.298   9.648  11.404 -0.5686  1.7579  3.3024
  481MOL0     H66327   3.547   9.925  11.467  1.4444  0.4006 -0.5665
  481MOL0     H66328   3.898   9.756  11.443  0.7233  0.4544 -0.1401
  481MOL0     H66329   3.828   9.862  11.562 -1.5147 -0.3295 -0.2883
  481MOL0     H66330   3.847   9.923  11.268  3.0709  4.7037 -0.5141
  481MOL0     H66331   3.747  10.027  11.375  1.4421  2.2179 -0.5843
  481MOL0     H66332   3.906  10.150  11.404 -0.5588  0.2343  2.1530
  481MOL0     H66333   3.942  10.059  11.533 -2.7238 -0.6316 -0.1396
  481MOL0     H66334   4.060  10.043  11.254  2.3621  2.1649  0.7786
  481MOL0     H66335   4.159  10.062  11.403  0.6843  0.6391  0.2274
  481MOL0     H66336   4.218   9.662  11.362  1.7612 -4.7148  1.7904
  481MOL0     H66337   4.383   9.513  11.416 -0.2784  1.8431 -1.0677
  481MOL0     H66338   4.348   9.444  11.573  1.3312  0.4320  1.8218
  481MOL0     H66339   4.490   9.544  11.555  0.1110 -5.1198  1.1415
  481MOL0     H66340   4.335   9.502  12.040 -0.5889 -1.2130  2.2457
  481MOL0     H66341   4.437   9.408  12.230 -2.6077 -0.2729 -3.3629
  481MOL0     H66342   4.538   9.488  12.608  0.8922 -1.0452 -0.1801
  481MOL0     H66343   4.412   9.476  12.482  0.6437  3.4160 -0.9121
  481MOL0     H66344   4.523   9.278  12.613  0.0607  3.8991  1.5227
  481MOL0     H66345   4.504   9.254  12.435 -1.6086  2.5753 -1.5838
  481MOL0     H66346   4.740   9.304  12.414 -0.3301  1.2143  0.1376
  481MOL0     H66347   4.722   9.168  12.529  0.0068 -0.1297 -1.4332
  481MOL0     H66348   4.742   9.311  12.724  1.0071 -0.4548  0.4129
  481MOL0     H66349   4.754   9.454  12.617  0.3184  0.2765 -0.4731
  481MOL0     H66350   4.958   9.214  12.615 -2.2343 -0.4913  1.6273
  481MOL0     H66351   4.965   9.346  12.505 -1.3668 -2.4841 -1.3041
  481MOL0     H66352   5.123   9.358  12.693  0.5515  0.2350  0.4664
  481MOL0     H66353   4.992   9.368  12.808 -1.2207  1.7526  0.4790
  481MOL0     H66354   4.941   9.581  12.752 -0.8155 -2.2614 -0.0465
  481MOL0     H66355   4.990   9.558  12.582 -2.5094 -0.5675  1.1721
  481MOL0     H66356   5.200   9.564  12.805  1.7479 -2.9250 -2.3229
  481MOL0     H66357   5.124   9.716  12.767 -0.2475  0.1105  0.3483
  481MOL0     H66358   4.647   9.778  12.303  0.2057 -1.6669  0.5984
  481MOL0     H66359   4.567   9.846  12.084 -0.9730 -0.4611 -1.2550
  481MOL0     H66360   4.216   9.880  11.809 -2.4314  0.4418 -1.2535
  481MOL0     H66361   4.119   9.982  11.621 -4.2529 -1.7761 -1.1001
  481MOL0     H66362   3.509  10.742  10.768  1.9771  0.9028 -3.7030
  481MOL0     H66363   3.424  10.892  10.595 -1.6022  0.0746  1.3578
  481MOL0     H66364   3.473  10.990  10.295 -1.9615  1.1700  3.4647
  481MOL0     H66365   3.499  11.189  10.137 -0.3416 -0.2128  1.4242
  481MOL0     H66366   3.192  11.229   9.812  0.8319 -1.9577  0.2709
  481MOL0     H66367   3.323  11.333   9.754 -1.6983  0.0305 -1.3334
  481MOL0     H66368   3.306  11.110   9.632  0.3374 -0.6861  0.1669
  481MOL0     H66369   3.331  11.030   9.788  1.8774 -2.1533 -1.6686
  481MOL0     H66370   3.547  11.230   9.700  1.1516 -1.8575 -1.3443
  481MOL0     H66371   3.553  11.094   9.810 -0.5436  1.7414  1.1319
  481MOL0     H66372   3.643  11.067   9.565 -1.5168  2.8528 -1.6950
  481MOL0     H66373   3.484  11.024   9.523  3.2255 -1.8660 -2.0277
  481MOL0     H66374   3.618  10.684   9.761 -0.1970  0.0531  0.9867
  481MOL0     H66375   3.127  11.111   9.956  0.9200  2.4051 -0.4464
  481MOL0     H66376   2.962  10.937  10.132 -1.1135  1.4220 -1.8924
  481MOL0     H66377   3.044  10.883   9.976  1.0935 -1.7971 -0.5725
  481MOL0     H66378   3.071  10.798  10.125  0.7877  0.4887 -1.0695
  482MOL0     O66379   4.542   3.692   9.970  0.2524  0.6222 -0.3516
  482MOL0     C66380   4.559   3.660   9.856 -0.8057  0.1480  0.5524
  482MOL0     O66381   4.482   3.700   9.744  0.1545 -0.7606 -0.0018
  482MOL0     C66382   4.411   3.818   9.763  1.0871  0.4356  0.1591
  482MOL0     C66383   4.278   3.817   9.794  1.1249 -0.2080  1.0765
  482MOL0     C66384   4.204   3.936   9.814  0.2589  0.3231 -0.1260
  482MOL0     C66385   4.271   4.059   9.798 -0.9168  0.8436 -0.8077
  482MOL0     O66386   4.209   4.187   9.816  0.2335 -0.3592  0.6229
  482MOL0     C66387   4.070   4.174   9.862  0.3802 -0.2695  0.4759
  482MOL0     C66388   4.009   4.319   9.867  0.1999  0.5849  0.3691
  482MOL0     C66389   4.069   4.411   9.974  0.1723 -0.3552  0.0050
  482MOL0     C66390   3.986   4.542   9.968 -0.0614  0.7789 -0.7481
  482MOL0     C66391   4.050   4.655  10.058  0.8038 -0.5265  0.1056
  482MOL0     C66392   4.166   4.735   9.991 -0.1178  0.6167 -0.4418
  482MOL0     C66393   4.208   4.854  10.078 -0.2370 -1.1173 -0.2707
  482MOL0     C66394   4.255   4.983   9.991  0.6341  1.3451  0.6784
  482MOL0     N66395   4.373   4.948   9.920 -0.3597  0.3237  0.0320
  482MOL0     C66396   4.422   5.005   9.805 -0.4904  0.6970  0.7464
  482MOL0     C66397   4.531   4.937   9.778 -0.2361  0.5757  0.4235
  482MOL0     C66398   4.623   4.971   9.665  0.5812  0.2227 -1.0693
  482MOL0     C66399   4.561   4.943   9.533 -0.7433  0.2968  0.7418
  482MOL0     C66400   4.666   4.966   9.422 -0.1764 -0.0207  0.1684
  482MOL0     C66401   4.662   4.883   9.294  0.5620  0.8140  0.5058
  482MOL0     O66402   4.530   4.827   9.264  0.6575  0.1538 -0.3935
  482MOL0     C66403   4.429   4.913   9.252 -0.0604 -0.1636  0.4504
  482MOL0     C66404   4.298   4.862   9.252 -1.0420 -0.5562  0.0690
  482MOL0     C66405   4.180   4.945   9.227  0.0651  0.7983 -0.6273
  482MOL0     C66406   4.044   4.874   9.214  0.3342 -0.0147 -0.4476
  482MOL0     C66407   4.190   5.085   9.214 -0.8402 -0.4496  0.2372
  482MOL0     C66408   4.083   5.185   9.193 -0.7093  0.5906  0.0844
  482MOL0     O66409   3.970   5.169   9.265  0.0250 -0.3700 -0.5465
  482MOL0     C66410   3.896   5.274   9.309  0.3874 -0.5595  0.1329
  482MOL0     C66411   3.870   5.400   9.246 -0.4598  0.0331  0.9524
  482MOL0     C66412   3.788   5.492   9.299 -0.9178 -0.4899 -0.1951
  482MOL0     C66413   3.733   5.475   9.423  0.7339 -0.8735 -0.8150
  482MOL0     O66414   3.669   5.588   9.467  0.0220  0.7410 -0.8138
  482MOL0     C66415   3.618   5.586   9.604 -0.2214 -1.0288 -0.8932
  482MOL0     C66416   3.494   5.680   9.621 -0.0064 -0.1424  0.8602
  482MOL0     C66417   3.397   5.686   9.501  0.1407  0.5520 -0.8097
  482MOL0     C66418   3.370   5.831   9.451  0.7056 -0.2503 -0.2062
  482MOL0     C66419   3.498   5.912   9.403  0.8037 -0.4292 -0.0867
  482MOL0     C66420   3.457   6.010   9.292 -0.8005  0.0705  0.0511
  482MOL0     C66421   3.376   6.133   9.351 -0.1962  0.1261 -0.6422
  482MOL0     C66422   3.327   6.217   9.235  0.0297 -0.2118 -0.6324
  482MOL0    Cl66423   3.238   6.342   9.318 -0.5976 -0.3641 -0.3347
  482MOL0     C66424   3.755   5.354   9.488 -0.0173  0.1304  0.0895
  482MOL0     C66425   3.834   5.251   9.435  0.4267  0.7808 -0.6081
  482MOL0     O66426   4.118   5.274   9.113  0.3755  0.2786  0.0672
  482MOL0     C66427   4.316   5.137   9.217 -0.4608  0.4773 -0.3113
  482MOL0     C66428   4.439   5.054   9.226  0.7417  0.2386  0.6185
  482MOL0     N66429   4.552   4.848   9.882 -0.2938  0.5250 -0.3609
  482MOL0     N66430   4.458   4.861   9.969  0.0644 -0.1048 -0.3678
  482MOL0     C66431   4.407   4.054   9.765  0.1096  0.4544 -1.2052
  482MOL0     C66432   4.480   3.940   9.757  0.5689  0.0401  0.0774
  482MOL0     C66433   4.670   3.561   9.826  0.9052 -0.8796  0.3325
  482MOL0     C66434   4.637   3.464   9.728 -0.4753 -0.0395  0.0742
  482MOL0     C66435   4.724   3.365   9.700  0.4126 -0.3317  0.0480
  482MOL0     C66436   4.851   3.362   9.764 -0.0963 -0.1235 -0.7903
  482MOL0     O66437   4.952   3.276   9.720 -0.0942  0.2264  0.6489
  482MOL0     C66438   5.050   3.232   9.810 -0.7462  0.6362 -1.4193
  482MOL0     C66439   5.011   3.171   9.951 -0.5226  0.1901  0.4919
  482MOL0     C66440   5.125   3.082  10.002 -0.0943  0.5383  0.3787
  482MOL0     C66441   5.098   2.940   9.971 -0.3832  0.1997 -0.5117
  482MOL0     C66442   5.221   2.863   9.959  0.1689 -0.2534 -0.2295
  482MOL0     C66443   5.310   2.789   9.941 -0.3276 -0.0609  0.1496
  482MOL0     C66444   4.880   3.458   9.859  0.8396 -0.5176 -1.0605
  482MOL0     C66445   4.798   3.563   9.880  0.5321  0.5814 -0.4348
  482MOL0     C66446   4.834   3.670   9.980  0.0946 -0.5359 -1.0893
  482MOL0     H66447   4.227   3.723   9.773 -2.8614  1.7939  0.8522
  482MOL0     H66448   4.105   3.933   9.858  1.5252 -0.6557  2.8742
  482MOL0     H66449   4.060   4.127   9.960 -3.3263 -0.1990  0.2783
  482MOL0     H66450   4.004   4.121   9.793 -0.2029 -0.9725  1.5375
  482MOL0     H66451   4.015   4.361   9.767  1.0617  0.6814  0.4553
  482MOL0     H66452   3.901   4.316   9.884 -0.4097 -0.8009 -2.9863
  482MOL0     H66453   4.068   4.359  10.070 -1.5029 -0.1184  0.1387
  482MOL0     H66454   4.174   4.422   9.944  1.2632 -2.7351  2.5126
  482MOL0     H66455   3.965   4.578   9.867 -0.3569  1.0727 -0.5846
  482MOL0     H66456   3.885   4.513  10.000 -0.9862 -0.1170 -4.1382
  482MOL0     H66457   4.075   4.614  10.156 -1.3025  2.8427  2.2586
  482MOL0     H66458   3.968   4.722  10.088 -0.9486 -2.2114 -0.6807
  482MOL0     H66459   4.248   4.669   9.964 -0.0180  0.4492  0.2501
  482MOL0     H66460   4.122   4.784   9.903 -0.3974  4.1998  1.4957
  482MOL0     H66461   4.291   4.821  10.141  1.0054  1.6923 -0.2912
  482MOL0     H66462   4.123   4.889  10.137  1.0280  0.1345  0.8637
  482MOL0     H66463   4.178   5.019   9.923  1.2261 -1.7490 -1.9241
  482MOL0     H66464   4.305   5.048  10.063  4.8421 -1.8567  1.0830
  482MOL0     H66465   4.380   5.089   9.750  0.1869  1.5370  1.4660
  482MOL0     H66466   4.720   4.922   9.680  3.0141  4.9462  0.6156
  482MOL0     H66467   4.653   5.076   9.667 -0.4987  0.5936 -2.5638
  482MOL0     H66468   4.526   4.839   9.529  0.2063  0.0066 -1.2640
  482MOL0     H66469   4.477   5.010   9.511 -1.3119 -0.5767  0.1932
  482MOL0     H66470   4.646   5.071   9.396 -1.9606 -0.1696  0.7860
  482MOL0     H66471   4.769   4.965   9.459  0.0997  0.7354 -0.5392
  482MOL0     H66472   4.691   4.939   9.204 -0.3632  0.9402  0.2821
  482MOL0     H66473   4.741   4.807   9.298  1.7491  1.8263 -1.6938
  482MOL0     H66474   4.301   4.755   9.268  0.4940 -0.2588  2.2752
  482MOL0     H66475   3.981   4.923   9.139 -2.3722  1.4023  2.5405
  482MOL0     H66476   3.990   4.849   9.305  1.5607  2.0620  0.9360
  482MOL0     H66477   4.083   4.779   9.178  1.1214 -0.2517  0.9528
  482MOL0     H66478   3.913   5.397   9.147  0.3523  0.1660  1.2852
  482MOL0     H66479   3.772   5.581   9.238 -0.2780 -0.3133 -0.1070
  482MOL0     H66480   3.572   5.489   9.627 -5.4336  1.6744  1.8396
  482MOL0     H66481   3.701   5.614   9.669 -0.0783 -2.7135 -0.2936
  482MOL0     H66482   3.433   5.643   9.704 -2.6380 -0.0937 -0.9156
  482MOL0     H66483   3.531   5.782   9.635  2.9106  0.0252 -5.0539
  482MOL0     H66484   3.299   5.638   9.515 -0.2680  0.4774 -3.5037
  482MOL0     H66485   3.440   5.626   9.420  1.0320  0.5565 -0.3547
  482MOL0     H66486   3.327   5.892   9.532 -0.0054  0.3673 -1.0331
  482MOL0     H66487   3.303   5.816   9.366 -0.8680 -2.9465  1.3502
  482MOL0     H66488   3.535   5.968   9.489  0.7510 -0.2622 -0.1717
  482MOL0     H66489   3.571   5.838   9.371  0.8564 -0.5526  0.3100
  482MOL0     H66490   3.401   5.950   9.220  0.9621 -0.1996 -1.1751
  482MOL0     H66491   3.556   6.033   9.250  0.5151 -3.3275  1.0283
  482MOL0     H66492   3.444   6.187   9.417  3.0189 -2.1438 -1.8378
  482MOL0     H66493   3.294   6.096   9.414 -0.0555  0.8815 -0.0015
  482MOL0     H66494   3.257   6.152   9.183 -1.8931  1.7536 -0.6652
  482MOL0     H66495   3.401   6.260   9.167 -2.9177  4.4281 -1.3520
  482MOL0     H66496   3.710   5.333   9.585  1.8483 -1.5830  0.6474
  482MOL0     H66497   3.842   5.155   9.485 -1.2292  1.0387  0.2513
  482MOL0     H66498   4.350   5.240   9.211  1.3429 -0.1388 -2.6548
  482MOL0     H66499   4.527   5.115   9.204 -0.6974  1.6280 -1.7090
  482MOL0     H66500   4.451   4.150   9.740  2.1235 -0.5552 -1.6897
  482MOL0     H66501   4.585   3.934   9.732  1.7271  0.9368  4.0701
  482MOL0     H66502   4.543   3.472   9.673 -2.0867 -0.4721  2.5829
  482MOL0     H66503   4.718   3.297   9.616 -0.3318 -2.9315  2.0690
  482MOL0     H66504   5.103   3.149   9.762 -0.0559 -1.1482  2.0911
  482MOL0     H66505   5.123   3.312   9.826  2.0519 -2.1488  1.0077
  482MOL0     H66506   4.920   3.111   9.950 -0.0204 -0.5873 -0.5136
  482MOL0     H66507   5.001   3.256  10.019  0.5376 -0.4713  1.5016
  482MOL0     H66508   5.221   3.103   9.954 -0.7915  0.0825 -1.2491
  482MOL0     H66509   5.128   3.105  10.109  0.7408 -0.3134  0.5456
  482MOL0     H66510   5.047   2.944   9.875  0.8663 -1.6422 -1.3208
  482MOL0     H66511   5.021   2.890  10.031 -2.3457  3.2108 -0.3196
  482MOL0     H66512   5.388   2.716   9.931  0.6486  1.1822 -2.0259
  482MOL0     H66513   4.977   3.469   9.908 -0.2635 -1.4360  1.4822
  482MOL0     H66514   4.916   3.647  10.049 -2.6938 -1.3223  2.2544
  482MOL0     H66515   4.865   3.757   9.920  0.8447 -0.6765 -0.9195
  482MOL0     H66516   4.766   3.705  10.058  4.4652  1.5700  2.1656
  483MOL0     O66517   9.460  11.457   6.240  0.3732 -0.3495 -0.1076
  483MOL0     C66518   9.507  11.502   6.138 -0.7571  0.3441 -0.0243
  483MOL0     O66519   9.484  11.448   6.024  0.3031 -0.1897 -0.0711
  483MOL0     C66520   9.385  11.360   6.010 -0.3118 -0.0783  0.3651
  483MOL0     C66521   9.255  11.392   6.054 -0.0909  0.2420 -0.0142
  483MOL0     C66522   9.152  11.302   6.057 -0.3174  0.1633  0.5049
  483MOL0     C66523   9.175  11.177   5.990  0.1288  0.5174 -0.1266
  483MOL0     O66524   9.083  11.077   5.969  0.1504 -0.6184 -1.1431
  483MOL0     C66525   8.949  11.089   6.025 -1.3005  0.3047 -0.2407
  483MOL0     C66526   8.850  10.998   5.954 -0.0985 -1.5779 -0.2548
  483MOL0     C66527   8.725  10.975   6.031  0.8246 -0.3168  1.1888
  483MOL0     C66528   8.628  10.874   5.955 -0.0174 -0.3598  0.7233
  483MOL0     C66529   8.507  10.847   6.040 -0.2182 -0.5381  0.6783
  483MOL0     C66530   8.411  10.752   5.961  0.5079 -0.2355  0.3562
  483MOL0     C66531   8.269  10.799   6.000  0.2337  0.3010  0.1327
  483MOL0     C66532   8.168  10.690   5.970 -0.2021  0.4468  0.0914
  483MOL0     N66533   8.049  10.713   6.049 -0.6808 -0.7902 -0.1514
  483MOL0     C66534   7.943  10.807   6.030  1.1809  0.1644 -0.5465
  483MOL0     C66535   7.845  10.789   6.121  0.3123  0.2061 -0.2804
  483MOL0     C66536   7.730  10.891   6.129 -0.1782  1.0057 -0.2628
  483MOL0     C66537   7.591  10.828   6.119 -0.2001  0.0089  0.5931
  483MOL0     C66538   7.591  10.673   6.137 -0.4247 -0.0277  0.1320
  483MOL0     C66539   7.450  10.634   6.133 -0.3058 -0.9771  0.6820
  483MOL0     O66540   7.436  10.493   6.164  0.3351 -0.7073 -0.1735
  483MOL0     C66541   7.319  10.428   6.129 -0.3647  0.3570 -0.1701
  483MOL0     C66542   7.315  10.286   6.119 -0.0718  0.3856  0.1364
  483MOL0     C66543   7.203  10.217   6.090  0.6848  0.4677 -0.3586
  483MOL0     C66544   7.210  10.067   6.070 -1.4993  0.0804 -1.0185
  483MOL0     C66545   7.073  10.280   6.083 -0.6339 -0.3997  0.2278
  483MOL0     C66546   6.953  10.204   6.062 -0.6247 -0.4061  0.2351
  483MOL0     O66547   6.852  10.257   5.977 -0.4780 -0.0653 -0.7430
  483MOL0     C66548   6.734  10.186   5.993 -1.1723 -0.0850  0.7009
  483MOL0     C66549   6.684  10.129   5.881  0.1634  1.2936 -0.1206
  483MOL0     C66550   6.587  10.028   5.886 -0.0232 -0.4813 -1.1597
  483MOL0     C66551   6.529   9.997   6.010 -1.4347 -1.2551 -0.3272
  483MOL0     O66552   6.443   9.895   6.050  0.4193  0.4175  0.0609
  483MOL0     C66553   6.426   9.793   5.951 -0.5936 -0.2014 -0.5677
  483MOL0     C66554   6.300   9.727   6.013 -0.5809 -0.6716 -0.3242
  483MOL0     C66555   6.230   9.609   5.930  0.3996 -0.4503  0.9359
  483MOL0     C66556   6.312   9.486   5.935  0.0241  0.1903 -0.0318
  483MOL0     C66557   6.243   9.385   5.845  0.7536 -0.6590  0.1886
  483MOL0     C66558   6.300   9.374   5.705 -0.6911  0.3677  0.9940
  483MOL0     C66559   6.245   9.247   5.641  0.2565  0.0910  0.1781
  483MOL0     C66560   6.096   9.260   5.587 -0.0733  0.3410  0.9793
  483MOL0    Cl66561   6.077   9.296   5.416 -0.0674 -0.2995 -0.4047
  483MOL0     C66562   6.563  10.076   6.120 -0.4570  0.1818 -0.7798
  483MOL0     C66563   6.676  10.165   6.110 -1.0629 -0.2824 -0.1285
  483MOL0     O66564   6.945  10.103   6.130 -0.1037 -0.1913 -0.3469
  483MOL0     C66565   7.080  10.416   6.094  0.0536  0.3865  0.0845
  483MOL0     C66566   7.192  10.489   6.105  0.3507  0.7903  0.0158
  483MOL0     N66567   7.899  10.687   6.205  0.0713 -0.5178  0.5146
  483MOL0     N66568   8.017  10.651   6.166 -0.3598  0.5343  0.0828
  483MOL0     C66569   9.299  11.156   5.925  1.1368  0.2363 -0.3950
  483MOL0     C66570   9.402  11.242   5.943  0.2352 -0.6413 -0.1634
  483MOL0     C66571   9.597  11.625   6.162 -1.1755  0.1685  0.8205
  483MOL0     C66572   9.669  11.668   6.055 -0.6923  0.2379  0.5285
  483MOL0     C66573   9.763  11.777   6.059  0.2377 -0.0281 -0.2072
  483MOL0     C66574   9.790  11.833   6.184  0.1719 -0.9761  0.6629
  483MOL0     O66575   9.889  11.927   6.189 -0.1562 -0.6934  0.0082
  483MOL0     C66576   9.892  12.012   6.304 -0.3513  0.1096 -0.4317
  483MOL0     C66577   9.766  12.098   6.352  0.9040 -0.1788  1.1081
  483MOL0     C66578   9.705  12.187   6.238  0.5982 -1.1528  0.1750
  483MOL0     C66579   9.636  12.300   6.310  0.2002  0.6277  0.9217
  483MOL0     C66580   9.559  12.390   6.223  0.5831 -1.2846 -0.5108
  483MOL0     C66581   9.494  12.471   6.151 -0.3402  0.5241 -0.5825
  483MOL0     C66582   9.717  11.791   6.288 -0.0746 -0.3389  0.3226
  483MOL0     C66583   9.631  11.690   6.283 -0.1375 -0.2280 -0.2003
  483MOL0     C66584   9.541  11.680   6.400 -0.2086 -0.4884  0.0303
  483MOL0     H66585   9.231  11.494   6.082 -2.3263  0.4047 -2.1788
  483MOL0     H66586   9.059  11.332   6.104 -0.8996  0.0202 -0.5127
  483MOL0     H66587   8.911  11.191   6.009 -1.1708  0.2715 -0.7818
  483MOL0     H66588   8.960  11.065   6.131 -1.8065  0.8847 -0.0517
  483MOL0     H66589   8.826  11.038   5.855  0.3462  3.4425  1.3713
  483MOL0     H66590   8.900  10.902   5.938 -1.3772 -2.1920 -0.7796
  483MOL0     H66591   8.742  10.942   6.134 -3.4344  1.8781  2.8441
  483MOL0     H66592   8.676  11.071   6.051  0.2817 -0.3691  0.1700
  483MOL0     H66593   8.590  10.915   5.862  1.4775 -1.5405 -0.4553
  483MOL0     H66594   8.685  10.783   5.935 -1.1046 -0.7763 -0.6240
  483MOL0     H66595   8.466  10.943   6.073  3.5109  1.1599  0.9471
  483MOL0     H66596   8.536  10.800   6.134 -0.2565 -0.2723  0.8222
  483MOL0     H66597   8.432  10.774   5.856  0.7298  2.3395  0.8770
  483MOL0     H66598   8.426  10.646   5.984 -3.2947 -0.5642  2.0468
  483MOL0     H66599   8.241  10.899   5.966  0.9301  1.8821  3.7112
  483MOL0     H66600   8.265  10.823   6.107  2.6883 -1.1426  0.6340
  483MOL0     H66601   8.135  10.686   5.866  2.2358 -1.1969 -0.6935
  483MOL0     H66602   8.206  10.594   6.005 -2.2252  0.6407  3.2304
  483MOL0     H66603   7.935  10.880   5.950 -0.5696  0.7853  0.1325
  483MOL0     H66604   7.737  10.965   6.049 -1.3905  1.0836 -0.3122
  483MOL0     H66605   7.746  10.941   6.225 -0.5822  0.1037  0.2908
  483MOL0     H66606   7.523  10.879   6.187  0.6433  0.4685  1.1085
  483MOL0     H66607   7.577  10.859   6.016  0.0383  4.6197  1.7189
  483MOL0     H66608   7.636  10.624   6.050  1.3063  1.7344 -0.0151
  483MOL0     H66609   7.642  10.643   6.228  0.3848  0.1578 -0.2555
  483MOL0     H66610   7.397  10.697   6.204  1.0597  2.2971 -0.9668
  483MOL0     H66611   7.408  10.644   6.033  0.0002  1.0764  0.7115
  483MOL0     H66612   7.414  10.244   6.108 -0.2104  0.7360 -3.8046
  483MOL0     H66613   7.163  10.020   5.983 -0.9811 -2.0096 -0.2318
  483MOL0     H66614   7.193  10.020   6.167  2.5421  2.3334  1.0395
  483MOL0     H66615   7.313  10.034   6.056 -1.7236 -0.8536 -0.5838
  483MOL0     H66616   6.736  10.136   5.786  2.2104 -3.6726  0.3268
  483MOL0     H66617   6.564   9.977   5.792 -2.4287 -1.3205 -0.1865
  483MOL0     H66618   6.408   9.825   5.848  0.4915  3.0485  0.1483
  483MOL0     H66619   6.506   9.720   5.961 -1.0865 -0.7181 -0.3091
  483MOL0     H66620   6.335   9.678   6.105  0.9853 -1.2381 -1.1846
  483MOL0     H66621   6.232   9.809   6.041 -1.1424 -1.8059  1.9554
  483MOL0     H66622   6.223   9.654   5.831  3.2171  0.5088  1.0682
  483MOL0     H66623   6.129   9.589   5.966  0.6382 -3.1297  0.3322
  483MOL0     H66624   6.309   9.446   6.036  1.6856  0.6734  0.2330
  483MOL0     H66625   6.417   9.502   5.912  0.5952  1.4224  3.0543
  483MOL0     H66626   6.268   9.289   5.891  3.2905 -0.2930 -0.2932
  483MOL0     H66627   6.134   9.394   5.837  0.6985 -2.6826 -3.5974
  483MOL0     H66628   6.409   9.371   5.707 -0.4115 -0.4806 -3.6433
  483MOL0     H66629   6.266   9.454   5.639 -3.3084  0.5524  2.4176
  483MOL0     H66630   6.251   9.165   5.714 -1.1071  1.3847  1.8537
  483MOL0     H66631   6.296   9.219   5.549 -0.8753  0.0936 -0.4642
  483MOL0     H66632   6.045   9.342   5.639 -2.1423  0.3997 -1.0037
  483MOL0     H66633   6.054   9.162   5.612 -0.1348  0.4841  1.4382
  483MOL0     H66634   6.532  10.054   6.222  3.3329  3.5856  1.3802
  483MOL0     H66635   6.710  10.214   6.200  2.3764 -0.5391 -1.1722
  483MOL0     H66636   6.986  10.470   6.098 -0.3840 -0.3695  0.1122
  483MOL0     H66637   7.174  10.596   6.099 -2.4388  0.3279 -1.7165
  483MOL0     H66638   9.312  11.064   5.869 -0.7746  1.7440 -3.5967
  483MOL0     H66639   9.496  11.214   5.895 -0.1804  0.8562 -2.0010
  483MOL0     H66640   9.668  11.615   5.961 -1.1460 -1.7422  1.5821
  483MOL0     H66641   9.828  11.805   5.976 -0.1558  0.2149 -0.4327
  483MOL0     H66642   9.920  11.942   6.383  0.4803 -0.4659 -1.2132
  483MOL0     H66643   9.973  12.085   6.294  1.3676 -1.5623  0.6968
  483MOL0     H66644   9.802  12.168   6.429  2.2111  0.6116 -0.1773
  483MOL0     H66645   9.690  12.030   6.391  1.6067 -1.1198  0.8851
  483MOL0     H66646   9.794  12.230   6.192 -1.9373  3.3040 -1.1230
  483MOL0     H66647   9.642  12.129   6.171  1.0127 -0.7983 -0.5307
  483MOL0     H66648   9.722  12.362   6.337 -0.0484  1.3680  0.0419
  483MOL0     H66649   9.582  12.261   6.397  1.8992  0.5159  1.9653
  483MOL0     H66650   9.428  12.531   6.093  1.9549 -0.7256 -4.8926
  483MOL0     H66651   9.741  11.839   6.382  4.8355  0.0272 -0.8134
  483MOL0     H66652   9.529  11.576   6.432  1.4350 -0.3072  1.3996
  483MOL0     H66653   9.572  11.731   6.492 -0.3043 -0.2209 -0.0854
  483MOL0     H66654   9.440  11.702   6.365 -0.9055 -2.9514  0.3257
  484MOL0     O66655   0.228   4.222   9.143 -0.0013 -1.2759  0.1380
  484MOL0     C66656   0.121   4.282   9.164 -0.1376 -0.5391 -0.2316
  484MOL0     O66657   0.060   4.350   9.057 -0.0736  0.5222 -0.7241
  484MOL0     C66658   0.077   4.300   8.926  0.3888 -0.1962 -0.3450
  484MOL0     C66659   0.007   4.184   8.878 -0.1481  0.2532 -0.6083
  484MOL0     C66660  -0.017   4.169   8.743  0.2106 -0.5308 -0.0380
  484MOL0     C66661   0.065   4.237   8.650  0.2804 -0.8458 -0.7298
  484MOL0     O66662   0.048   4.206   8.515  0.6297 -0.6364 -0.9484
  484MOL0     C66663   0.164   4.238   8.431 -0.8585 -0.1427 -0.8089
  484MOL0     C66664   0.130   4.238   8.284  0.5035  0.0068 -0.5904
  484MOL0     C66665   0.042   4.359   8.252 -0.4678  1.3637 -1.4863
  484MOL0     C66666   0.001   4.359   8.100  1.0094 -0.0813 -0.9842
  484MOL0     C66667  -0.100   4.474   8.080 -0.0758 -0.5739  0.1128
  484MOL0     C66668  -0.035   4.606   8.117  1.0631  0.7252 -0.0714
  484MOL0     C66669  -0.105   4.722   8.044 -0.0160  0.1668 -0.0165
  484MOL0     C66670  -0.047   4.752   7.904  0.3810 -0.2410 -0.3316
  484MOL0     N66671  -0.113   4.859   7.839  0.4152 -0.4907 -0.2031
  484MOL0     C66672  -0.092   4.990   7.873  0.0400 -0.1338  0.3920
  484MOL0     C66673  -0.183   5.063   7.807  0.9056 -0.5434 -0.1152
  484MOL0     C66674  -0.215   5.203   7.815  1.1126 -0.8839 -0.7472
  484MOL0     C66675  -0.084   5.295   7.835 -0.0681  0.1746 -0.2217
  484MOL0     C66676  -0.123   5.435   7.840  0.9040 -0.0162 -0.5112
  484MOL0     C66677  -0.166   5.487   7.700  0.0444  0.2666 -0.4748
  484MOL0     O66678  -0.159   5.630   7.703 -0.0344 -0.0571 -0.4214
  484MOL0     C66679  -0.203   5.712   7.601  0.7092  0.0330  0.1163
  484MOL0     C66680  -0.258   5.668   7.476 -1.1161 -0.3234 -0.5455
  484MOL0     C66681  -0.303   5.754   7.374 -0.3792 -0.0182  1.2431
  484MOL0     C66682  -0.359   5.682   7.246  0.3103  0.1586 -1.1343
  484MOL0     C66683  -0.295   5.893   7.397  0.7988 -0.1849 -0.2483
  484MOL0     C66684  -0.345   5.998   7.297 -0.5090  0.4378  0.1101
  484MOL0     O66685  -0.395   5.961   7.179 -0.3619 -0.1318 -0.0670
  484MOL0     C66686  -0.451   6.045   7.093 -0.1524  0.3587  0.2541
  484MOL0     C66687  -0.592   6.065   7.098  0.1597 -0.5997 -0.6393
  484MOL0     C66688  -0.650   6.152   7.005  0.0218 -0.5285 -0.3486
  484MOL0     C66689  -0.573   6.208   6.902 -0.3960 -0.8061 -0.3353
  484MOL0     O66690  -0.636   6.289   6.811  0.2352  0.0456  0.1920
  484MOL0     C66691  -0.694   6.411   6.853  0.1869 -0.2361 -0.1395
  484MOL0     C66692  -0.768   6.480   6.743 -0.1405 -0.6246  0.3707
  484MOL0     C66693  -0.811   6.613   6.787 -0.1553 -1.8384  0.3024
  484MOL0     C66694  -0.854   6.712   6.666  0.5950 -0.5899  0.1893
  484MOL0     C66695  -0.910   6.847   6.715  0.2593 -0.0471  0.2057
  484MOL0     C66696  -0.982   6.944   6.607 -0.0318  0.5222  0.5504
  484MOL0     C66697  -0.882   6.967   6.491  0.9720 -0.2520  0.7600
  484MOL0     C66698  -0.936   7.066   6.393 -0.9435 -0.6352  0.7435
  484MOL0    Cl66699  -0.959   7.240   6.480 -0.1928 -0.2123 -0.0074
  484MOL0     C66700  -0.441   6.171   6.883  0.5553  1.2593 -0.2623
  484MOL0     C66701  -0.381   6.089   6.975 -0.5006 -0.3112 -0.8978
  484MOL0     O66702  -0.362   6.113   7.342 -0.7433  0.7628 -0.8849
  484MOL0     C66703  -0.244   5.938   7.519 -0.1286 -0.6058 -0.3255
  484MOL0     C66704  -0.201   5.848   7.616 -0.5665 -0.0938  0.2661
  484MOL0     N66705  -0.264   4.974   7.736  0.1838 -0.0029 -0.4324
  484MOL0     N66706  -0.216   4.849   7.749  0.0755  0.9406 -0.0516
  484MOL0     C66707   0.132   4.354   8.699  0.0806 -0.1319  0.5662
  484MOL0     C66708   0.129   4.388   8.831 -0.6374  0.1332  0.3754
  484MOL0     C66709   0.073   4.306   9.297 -0.4768  0.0902  0.7749
  484MOL0     C66710  -0.016   4.419   9.321  0.3878  0.2838 -0.5091
  484MOL0     C66711  -0.088   4.435   9.440 -0.1995 -0.1870  0.0126
  484MOL0     C66712  -0.060   4.359   9.551  0.7783 -0.1690 -0.2065
  484MOL0     O66713  -0.129   4.378   9.676  0.3204  0.2194  0.0583
  484MOL0     C66714  -0.273   4.371   9.665  0.0963 -0.3620 -0.4610
  484MOL0     C66715  -0.338   4.300   9.784 -0.6769 -0.7309  0.3300
  484MOL0     C66716  -0.319   4.149   9.780 -0.5356  0.3807 -0.9907
  484MOL0     C66717  -0.361   4.073   9.916  0.2061  0.5226 -0.3614
  484MOL0     C66718  -0.294   3.934   9.928  0.0326 -0.7429 -1.1167
  484MOL0     C66719  -0.236   3.835   9.944  0.2796  0.4929 -0.5343
  484MOL0     C66720   0.038   4.258   9.536  0.1026  0.0429 -0.1785
  484MOL0     C66721   0.098   4.231   9.409  0.0039  0.5609 -0.2222
  484MOL0     C66722   0.184   4.113   9.422 -1.0025 -1.3326  0.3257
  484MOL0     H66723  -0.049   4.125   8.950 -1.6347  0.3520 -1.6570
  484MOL0     H66724  -0.071   4.084   8.703 -0.4953  1.2474 -3.1249
  484MOL0     H66725   0.242   4.163   8.449  0.7560  2.0428  2.1665
  484MOL0     H66726   0.196   4.339   8.458  2.0780 -1.4786  1.3489
  484MOL0     H66727   0.221   4.246   8.224  2.0854 -2.1508  1.3674
  484MOL0     H66728   0.086   4.142   8.256  0.8273  0.5104 -3.1603
  484MOL0     H66729  -0.044   4.351   8.319  0.1387 -0.3539 -0.8534
  484MOL0     H66730   0.109   4.445   8.256  1.8316 -0.3487  2.1744
  484MOL0     H66731   0.094   4.381   8.047 -0.7609  4.8706 -2.6208
  484MOL0     H66732  -0.047   4.265   8.072 -1.4956  1.1660 -1.1824
  484MOL0     H66733  -0.192   4.443   8.130  0.7823 -4.5776 -0.4234
  484MOL0     H66734  -0.108   4.471   7.971 -1.3788  4.7078 -0.1844
  484MOL0     H66735  -0.046   4.617   8.225  1.1530 -2.4105  0.3449
  484MOL0     H66736   0.070   4.601   8.087  0.2435  0.2368 -3.1555
  484MOL0     H66737  -0.096   4.816   8.100  3.7580  0.7217 -1.2535
  484MOL0     H66738  -0.210   4.692   8.042  0.1859 -0.9719  2.6120
  484MOL0     H66739   0.061   4.768   7.910  0.5723 -0.7002 -2.0183
  484MOL0     H66740  -0.053   4.657   7.851  2.1312 -1.8712  2.1341
  484MOL0     H66741  -0.009   5.031   7.930  0.2883  2.0795 -1.4285
  484MOL0     H66742  -0.278   5.210   7.904 -1.5446  0.5608 -2.6065
  484MOL0     H66743  -0.277   5.234   7.731  1.0501  0.4109 -0.2462
  484MOL0     H66744  -0.043   5.275   7.934 -2.3476  1.8019  1.1474
  484MOL0     H66745  -0.012   5.283   7.753  2.1373 -4.1925  1.9751
  484MOL0     H66746  -0.217   5.444   7.895 -0.4943  1.1567 -2.9162
  484MOL0     H66747  -0.047   5.491   7.896  0.6980 -0.7162  0.4971
  484MOL0     H66748  -0.107   5.441   7.620  0.4785  0.2520 -0.1478
  484MOL0     H66749  -0.270   5.455   7.685  1.0850 -4.0512  0.3078
  484MOL0     H66750  -0.251   5.561   7.461 -1.5169  0.0138 -3.9578
  484MOL0     H66751  -0.384   5.579   7.271  2.0302 -0.2340 -0.8593
  484MOL0     H66752  -0.296   5.699   7.158 -0.8587 -1.1570 -2.2696
  484MOL0     H66753  -0.458   5.724   7.226 -0.8972 -1.6063  0.7971
  484MOL0     H66754  -0.650   6.026   7.181 -0.6459  0.8116 -0.5052
  484MOL0     H66755  -0.757   6.160   7.019 -0.3198  0.8969 -3.0310
  484MOL0     H66756  -0.771   6.393   6.929  1.4577 -2.0146  0.8050
  484MOL0     H66757  -0.615   6.470   6.898 -0.0216  0.7236 -1.0010
  484MOL0     H66758  -0.708   6.489   6.653 -2.2948  1.6687 -0.9722
  484MOL0     H66759  -0.858   6.423   6.716  0.8545 -3.0737  1.9247
  484MOL0     H66760  -0.738   6.662   6.851  0.3520  0.2606 -1.7617
  484MOL0     H66761  -0.901   6.602   6.849  0.5922 -1.9735  1.3988
  484MOL0     H66762  -0.942   6.687   6.606  0.8719  0.4058 -0.6695
  484MOL0     H66763  -0.768   6.734   6.602  1.9914 -0.7271  1.9499
  484MOL0     H66764  -0.979   6.835   6.798  1.3557 -0.1932  1.1243
  484MOL0     H66765  -0.830   6.904   6.763 -1.8850  1.0654  2.6766
  484MOL0     H66766  -1.002   7.032   6.669  0.7337 -0.4075  2.1790
  484MOL0     H66767  -1.079   6.904   6.577  0.4992  1.0878 -2.1614
  484MOL0     H66768  -0.859   6.875   6.435 -0.8051 -0.7372  0.7591
  484MOL0     H66769  -0.790   6.995   6.542  1.0202 -0.0887  0.5864
  484MOL0     H66770  -1.030   7.026   6.355 -1.1669 -0.7080  1.3652
  484MOL0     H66771  -0.869   7.078   6.307 -1.2942  2.4551  0.7817
  484MOL0     H66772  -0.388   6.200   6.793  0.7982  2.2572  0.1910
  484MOL0     H66773  -0.276   6.063   6.972  0.2449  2.1446  0.7560
  484MOL0     H66774  -0.231   6.043   7.541 -0.6530  0.0616 -2.8687
  484MOL0     H66775  -0.156   5.882   7.709  0.2615  1.5960 -0.7097
  484MOL0     H66776   0.188   4.421   8.635 -1.7225 -1.3276 -2.4466
  484MOL0     H66777   0.158   4.487   8.863 -2.2940  0.6902  0.2697
  484MOL0     H66778  -0.045   4.480   9.236  1.4663  1.4635 -0.0744
  484MOL0     H66779  -0.172   4.500   9.464  0.7828  0.9728  0.4442
  484MOL0     H66780  -0.304   4.476   9.662 -0.1458 -0.3652 -5.5480
  484MOL0     H66781  -0.309   4.322   9.574 -3.1619  0.5508  0.2121
  484MOL0     H66782  -0.445   4.321   9.784 -0.5022  0.2364  0.8283
  484MOL0     H66783  -0.291   4.341   9.874  1.3745 -5.3146  1.6247
  484MOL0     H66784  -0.372   4.105   9.695 -2.9479  0.8555  0.1922
  484MOL0     H66785  -0.210   4.142   9.771 -0.4920  0.3671 -0.5233
  484MOL0     H66786  -0.470   4.057   9.913  0.5105 -2.0727 -0.2637
  484MOL0     H66787  -0.335   4.134  10.003  0.5679  0.3503 -0.3488
  484MOL0     H66788  -0.181   3.744   9.944  0.9925  0.9201 -0.7793
  484MOL0     H66789   0.056   4.206   9.629 -1.0349  0.6073  0.3743
  484MOL0     H66790   0.200   4.084   9.526 -0.6667 -0.3391  0.5584
  484MOL0     H66791   0.156   4.030   9.356  0.0761  0.0383 -1.9889
  484MOL0     H66792   0.288   4.137   9.399 -0.9136 -2.7623 -0.9424
  485MOL0     O66793   2.372  11.110   1.242  0.3723 -0.0709 -0.2322
  485MOL0     C66794   2.341  11.231   1.227 -0.8285  0.2852 -0.8977
  485MOL0     O66795   2.254  11.292   1.315 -0.8048  0.2534 -0.2257
  485MOL0     C66796   2.128  11.232   1.336 -0.8354  0.3899 -0.2348
  485MOL0     C66797   2.037  11.304   1.422 -0.1952 -0.4813  0.3633
  485MOL0     C66798   1.901  11.259   1.436 -0.5388  0.2988 -0.0946
  485MOL0     C66799   1.860  11.141   1.384 -0.5234 -0.4200  0.7283
  485MOL0     O66800   1.737  11.091   1.393 -0.5659  0.0807  0.0592
  485MOL0     C66801   1.727  10.973   1.474  0.7223 -0.4765  0.3702
  485MOL0     C66802   1.760  11.001   1.621  0.0034  1.0484 -0.1234
  485MOL0     C66803   1.644  11.075   1.697  0.1595  0.6836 -0.9313
  485MOL0     C66804   1.541  10.972   1.752 -0.6667 -0.3936 -0.5918
  485MOL0     C66805   1.400  11.032   1.778 -0.2848 -1.0354  0.7533
  485MOL0     C66806   1.339  10.987   1.912 -0.1218 -0.2927 -0.5807
  485MOL0     C66807   1.198  11.042   1.949 -0.5216  0.0388 -0.5629
  485MOL0     C66808   1.086  11.003   1.850 -0.1896 -0.0050  0.6123
  485MOL0     N66809   1.034  10.860   1.861 -0.2681 -0.7400 -0.0567
  485MOL0     C66810   1.108  10.754   1.880 -0.5249 -0.2011 -0.0897
  485MOL0     C66811   1.030  10.655   1.875 -1.6113 -0.2074 -0.4336
  485MOL0     C66812   1.075  10.514   1.858  0.2289 -0.0070  0.8996
  485MOL0     C66813   0.977  10.439   1.764 -0.0292  0.5801 -0.3499
  485MOL0     C66814   0.979  10.282   1.785  1.3393 -1.4839 -0.0601
  485MOL0     C66815   0.907  10.216   1.673  0.8512  0.2900 -0.6515
  485MOL0     O66816   0.994  10.218   1.559 -0.4720 -0.2403  0.0429
  485MOL0     C66817   0.939  10.163   1.441  0.7804 -0.6983 -0.1489
  485MOL0     C66818   0.949  10.234   1.321  0.5135  1.0037 -0.2569
  485MOL0     C66819   0.909  10.174   1.203  0.6383 -0.4588  0.4484
  485MOL0     C66820   0.920  10.262   1.072 -0.1339  0.1472 -0.4711
  485MOL0     C66821   0.865  10.038   1.197  0.0860  0.4843 -0.1505
  485MOL0     C66822   0.831   9.962   1.070  0.0205 -0.5446 -0.0273
  485MOL0     O66823   0.712   9.878   1.076 -0.5359 -0.6019  0.0445
  485MOL0     C66824   0.679   9.799   0.968  0.0144 -0.1866 -0.3397
  485MOL0     C66825   0.626   9.668   0.995 -0.5614  0.2151 -0.4456
  485MOL0     C66826   0.569   9.584   0.897  0.1528 -0.6892 -0.9630
  485MOL0     C66827   0.572   9.624   0.760  0.0006  0.7514 -0.1500
  485MOL0     O66828   0.504   9.554   0.665 -0.2999  0.5058  0.7247
  485MOL0     C66829   0.365   9.544   0.698  0.1936  0.9398  0.0453
  485MOL0     C66830   0.289   9.476   0.581  0.0308  0.0998 -0.4327
  485MOL0     C66831   0.138   9.448   0.625 -1.7373  0.5695 -1.0698
  485MOL0     C66832   0.048   9.408   0.501  0.3871 -0.9892 -0.6761
  485MOL0     C66833   0.063   9.264   0.475  0.8766 -0.8391 -0.4082
  485MOL0     C66834   0.025   9.167   0.581  0.9026  0.8566  0.3415
  485MOL0     C66835   0.052   9.021   0.542  0.2128  0.4345  0.0996
  485MOL0     C66836   0.005   8.926   0.650 -0.0374  0.4504  0.4932
  485MOL0    Cl66837   0.130   8.906   0.787 -0.1928 -0.7507  0.5619
  485MOL0     C66838   0.638   9.745   0.728 -0.0651 -0.1990  0.6295
  485MOL0     C66839   0.671   9.837   0.830 -0.5361  0.4109 -0.4372
  485MOL0     O66840   0.912   9.955   0.980 -0.2660 -0.1754  0.0216
  485MOL0     C66841   0.843   9.970   1.317 -0.1334  0.4616  0.1344
  485MOL0     C66842   0.886  10.029   1.443 -0.6851  0.4178  0.8471
  485MOL0     N66843   0.892  10.696   1.847 -0.3395  0.5076 -0.1970
  485MOL0     N66844   0.908  10.823   1.844  0.3612 -0.6057  0.4774
  485MOL0     C66845   1.949  11.073   1.311 -0.5908 -0.0582  0.1252
  485MOL0     C66846   2.082  11.108   1.293  0.2540  1.3932 -0.0977
  485MOL0     C66847   2.391  11.311   1.107 -0.6904  0.6030 -0.3239
  485MOL0     C66848   2.304  11.409   1.058 -0.5840 -0.5641  0.2467
  485MOL0     C66849   2.328  11.486   0.942  0.3997  0.6098  0.2069
  485MOL0     C66850   2.452  11.469   0.877 -0.1570  0.3735  0.0495
  485MOL0     O66851   2.488  11.520   0.755  0.6468 -0.1375  0.3137
  485MOL0     C66852   2.386  11.604   0.695 -0.6793 -0.0047 -0.8353
  485MOL0     C66853   2.442  11.694   0.585 -0.3518  0.4128 -0.1845
  485MOL0     C66854   2.553  11.774   0.644  0.6006 -0.3504  0.0888
  485MOL0     C66855   2.638  11.853   0.548 -0.4007 -0.3578 -0.1801
  485MOL0     C66856   2.566  11.954   0.470  0.2104  0.5358 -0.6809
  485MOL0     C66857   2.519  12.039   0.397  0.2958 -0.8367  0.6926
  485MOL0     C66858   2.545  11.378   0.931  0.1673 -0.2773 -0.3859
  485MOL0     C66859   2.520  11.292   1.046 -0.3469 -0.0050  0.4594
  485MOL0     C66860   2.628  11.201   1.084 -0.3292  0.1618 -0.5909
  485MOL0     H66861   2.062  11.402   1.461 -0.2814 -1.2721  2.5423
  485MOL0     H66862   1.830  11.320   1.492 -0.8520  1.2574 -1.4832
  485MOL0     H66863   1.795  10.896   1.437 -0.6953 -0.6526 -2.1164
  485MOL0     H66864   1.625  10.933   1.474 -0.3871  2.1341  1.6331
  485MOL0     H66865   1.776  10.910   1.679 -4.1170  1.3546  1.8834
  485MOL0     H66866   1.854  11.059   1.625  0.8274 -0.2813  0.5130
  485MOL0     H66867   1.682  11.145   1.772  0.7399  1.4428 -1.9210
  485MOL0     H66868   1.590  11.134   1.623 -0.5958  3.2825  1.4833
  485MOL0     H66869   1.525  10.876   1.703 -1.3368 -0.1190 -0.9152
  485MOL0     H66870   1.576  10.939   1.850  1.6271 -0.2183 -1.2995
  485MOL0     H66871   1.333  11.006   1.696 -1.3759  3.4178 -0.0005
  485MOL0     H66872   1.417  11.139   1.790 -0.2023 -1.1807  2.1371
  485MOL0     H66873   1.347  10.879   1.927  0.2052 -0.2324 -0.3075
  485MOL0     H66874   1.420  11.021   1.978 -1.1023  1.1052 -0.0514
  485MOL0     H66875   1.206  11.151   1.952 -3.0299  0.2985 -0.8774
  485MOL0     H66876   1.170  10.996   2.044 -2.9817 -0.9121 -1.6412
  485MOL0     H66877   1.003  11.074   1.854 -0.5987 -0.4751  0.3815
  485MOL0     H66878   1.122  11.000   1.747  3.7606 -2.5912  1.8077
  485MOL0     H66879   1.216  10.752   1.895 -0.3092  0.1742 -1.4330
  485MOL0     H66880   1.071  10.478   1.961 -0.7301  1.0590  1.2623
  485MOL0     H66881   1.175  10.499   1.816 -0.2668  0.0543 -0.3186
  485MOL0     H66882   0.874  10.458   1.796 -2.1878 -2.8140 -4.3227
  485MOL0     H66883   0.990  10.450   1.656  1.0931  2.5252 -0.0612
  485MOL0     H66884   1.084  10.252   1.785  1.9049  0.3376 -0.7017
  485MOL0     H66885   0.946  10.261   1.887 -3.2458 -0.0740 -1.0313
  485MOL0     H66886   0.887  10.117   1.715  3.0151  0.3500  0.6622
  485MOL0     H66887   0.810  10.259   1.645  0.6771  0.1988 -0.1928
  485MOL0     H66888   0.974  10.340   1.321  2.4909  0.5789 -0.7798
  485MOL0     H66889   1.019  10.256   1.026 -1.2151 -4.2655 -2.7182
  485MOL0     H66890   0.910  10.366   1.107 -0.7646 -0.5828  1.6560
  485MOL0     H66891   0.843  10.235   0.999 -0.8252 -4.6254  1.6626
  485MOL0     H66892   0.636   9.630   1.097 -1.7923 -2.2040 -1.1457
  485MOL0     H66893   0.518   9.493   0.927 -1.8115  0.6675  0.0214
  485MOL0     H66894   0.349   9.480   0.786 -2.2612 -0.7823 -1.5004
  485MOL0     H66895   0.341   9.646   0.729 -0.0749  0.5079  1.3380
  485MOL0     H66896   0.287   9.548   0.498 -4.8264 -1.4495 -2.0026
  485MOL0     H66897   0.340   9.385   0.548 -1.1132 -1.0910  0.9070
  485MOL0     H66898   0.104   9.544   0.665  3.7488  1.9089  1.3219
  485MOL0     H66899   0.142   9.368   0.699 -3.3009  0.5233 -0.9871
  485MOL0     H66900   0.069   9.475   0.418 -1.5112  0.2908 -0.1853
  485MOL0     H66901  -0.058   9.431   0.516  0.8030 -0.4180  1.9854
  485MOL0     H66902  -0.008   9.256   0.392  0.5502  1.7537 -0.4508
  485MOL0     H66903   0.165   9.250   0.436  1.0290  1.8157 -1.1385
  485MOL0     H66904  -0.083   9.177   0.592  1.0656  2.4242  0.8422
  485MOL0     H66905   0.073   9.181   0.678  0.5726 -0.4505  0.7171
  485MOL0     H66906   0.155   9.001   0.510 -0.2278 -1.1478 -0.3970
  485MOL0     H66907  -0.013   9.001   0.456 -0.5721  2.4090  0.1822
  485MOL0     H66908  -0.014   8.826   0.610  2.7882  0.5172 -1.2606
  485MOL0     H66909  -0.093   8.963   0.683 -2.7022 -3.4256 -2.1237
  485MOL0     H66910   0.661   9.770   0.625 -1.6508  1.5025  0.6423
  485MOL0     H66911   0.711   9.936   0.811 -0.2909  0.3177 -0.4141
  485MOL0     H66912   0.813   9.866   1.315  2.5514 -0.3966 -0.3823
  485MOL0     H66913   0.882   9.977   1.538 -2.0702  2.7251  2.1519
  485MOL0     H66914   1.910  10.985   1.260 -1.3301  0.8877 -1.0020
  485MOL0     H66915   2.135  11.043   1.225 -2.8073 -1.1959 -0.2388
  485MOL0     H66916   2.202  11.411   1.096 -0.4616  0.1640  0.5465
  485MOL0     H66917   2.244  11.548   0.912 -0.1580 -0.4203 -0.4094
  485MOL0     H66918   2.328  11.525   0.646  3.0621 -2.6295 -1.4748
  485MOL0     H66919   2.342  11.674   0.766 -1.5242 -0.5392 -0.8250
  485MOL0     H66920   2.356  11.742   0.536 -1.4630 -2.7351 -1.5764
  485MOL0     H66921   2.491  11.628   0.514  1.1441  1.5774 -0.2958
  485MOL0     H66922   2.518  11.854   0.711 -3.3108 -0.9800 -0.9401
  485MOL0     H66923   2.629  11.704   0.680 -0.3455  0.3217  3.8382
  485MOL0     H66924   2.680  11.781   0.477  2.9192  0.7050  0.5390
  485MOL0     H66925   2.727  11.894   0.597  3.2700 -1.0755 -5.3920
  485MOL0     H66926   2.483  12.123   0.341  1.4003  0.7789  2.2884
  485MOL0     H66927   2.638  11.379   0.876  0.6494 -1.4182  0.3686
  485MOL0     H66928   2.628  11.110   1.024  0.7070 -1.7822  2.1507
  485MOL0     H66929   2.731  11.237   1.077  0.2327 -0.9455  1.5163
  485MOL0     H66930   2.615  11.159   1.183  4.9289 -0.8578 -0.0184
  486MOL0     O66931   8.497   2.826   6.562  0.4372  0.0045  0.2818
  486MOL0     C66932   8.526   2.940   6.546 -0.2839  0.7358  0.7469
  486MOL0     O66933   8.468   3.051   6.598 -0.3173 -0.3205  0.0676
  486MOL0     C66934   8.358   3.033   6.672 -0.4458 -0.4036  0.1861
  486MOL0     C66935   8.381   3.035   6.810 -0.1462  0.0585  0.3442
  486MOL0     C66936   8.271   3.025   6.898  0.4191  1.2798  0.5575
  486MOL0     C66937   8.132   3.019   6.852  0.1290  0.3307  1.0083
  486MOL0     O66938   8.040   3.029   6.956 -0.3195  0.2382 -0.0403
  486MOL0     C66939   7.909   2.979   6.923 -0.0490  0.3949  0.3562
  486MOL0     C66940   7.856   2.907   7.042 -0.2265  0.2503  0.0927
  486MOL0     C66941   7.919   2.771   7.063  0.1679 -0.5531  0.3101
  486MOL0     C66942   7.861   2.662   6.971 -0.0981 -0.0469  0.4477
  486MOL0     C66943   7.957   2.605   6.859  0.1303  0.1456 -0.3729
  486MOL0     C66944   8.093   2.551   6.917 -0.0561  1.0936 -0.0084
  486MOL0     C66945   8.179   2.509   6.801 -0.8965 -0.2139  0.3220
  486MOL0     C66946   8.331   2.551   6.813  0.5985 -0.7487 -0.7254
  486MOL0     N66947   8.409   2.470   6.718  0.7819  0.0100  0.4946
  486MOL0     C66948   8.426   2.504   6.582 -0.7446  0.3021 -0.2838
  486MOL0     C66949   8.472   2.394   6.524  0.6091 -0.7101 -0.4730
  486MOL0     C66950   8.504   2.400   6.375 -0.6218 -0.7439  0.1883
  486MOL0     C66951   8.654   2.373   6.373 -1.1617  0.7062 -0.2645
  486MOL0     C66952   8.715   2.380   6.226 -0.2021  0.3836  0.4774
  486MOL0     C66953   8.658   2.286   6.117 -0.0056 -0.1394  0.0307
  486MOL0     O66954   8.664   2.142   6.157  0.1474 -0.2466  0.2692
  486MOL0     C66955   8.642   2.062   6.049  0.2442  0.7912 -0.4006
  486MOL0     C66956   8.513   2.032   6.019  0.8980  0.5833 -0.5609
  486MOL0     C66957   8.495   1.942   5.910 -0.0484 -0.3486 -0.3776
  486MOL0     C66958   8.360   1.880   5.879  0.6661 -0.3128  0.1055
  486MOL0     C66959   8.604   1.921   5.825 -0.8421  0.5835 -0.1309
  486MOL0     C66960   8.588   1.857   5.688  0.1081 -0.0404  0.0394
  486MOL0     O66961   8.460   1.873   5.630 -0.0062  0.6927  0.9494
  486MOL0     C66962   8.450   1.838   5.497  0.6721 -0.9845  0.8067
  486MOL0     C66963   8.506   1.722   5.430  0.1945  0.0256  0.7083
  486MOL0     C66964   8.450   1.682   5.306  0.0292  0.6629  0.3159
  486MOL0     C66965   8.358   1.761   5.231 -0.9139  0.0943 -0.0594
  486MOL0     O66966   8.332   1.728   5.100 -0.1398 -0.1633 -1.4568
  486MOL0     C66967   8.308   1.826   4.992 -0.6284  0.8010 -0.0155
  486MOL0     C66968   8.280   1.762   4.859  0.3751  0.2045  0.7102
  486MOL0     C66969   8.154   1.683   4.870 -0.0082 -0.5651 -0.1650
  486MOL0     C66970   8.110   1.626   4.734 -0.2514 -0.5133 -0.0257
  486MOL0     C66971   8.214   1.511   4.700  0.6115 -0.5351 -0.1592
  486MOL0     C66972   8.164   1.398   4.608 -0.1176  0.2422  0.0805
  486MOL0     C66973   8.264   1.283   4.626 -0.1641 -0.5072 -0.1028
  486MOL0     C66974   8.242   1.160   4.534  0.2482 -0.5904  0.6336
  486MOL0    Cl66975   8.339   1.187   4.386 -0.0004  0.3106  0.7736
  486MOL0     C66976   8.309   1.879   5.298  0.2667 -0.5864 -0.6363
  486MOL0     C66977   8.365   1.921   5.425  0.4043  0.6558  0.1438
  486MOL0     O66978   8.685   1.812   5.624 -0.8722 -0.0833  0.3457
  486MOL0     C66979   8.741   1.939   5.875  0.5585 -0.4429  0.1013
  486MOL0     C66980   8.752   2.010   5.994  0.3009  0.5333  0.7792
  486MOL0     N66981   8.493   2.304   6.620 -1.2214  0.3575  0.6821
  486MOL0     N66982   8.466   2.346   6.732  0.1119 -0.5001  0.2578
  486MOL0     C66983   8.120   3.008   6.709  0.4292  0.8774  1.1191
  486MOL0     C66984   8.236   3.013   6.624  0.3900  0.1607  0.7295
  486MOL0     C66985   8.648   2.969   6.468 -0.8596 -0.7586  0.7307
  486MOL0     C66986   8.688   3.109   6.461 -0.8272  0.5963 -0.7439
  486MOL0     C66987   8.796   3.153   6.386 -0.2226  0.6563 -0.4196
  486MOL0     C66988   8.875   3.056   6.308  1.1338 -0.3736 -1.1923
  486MOL0     O66989   8.982   3.117   6.248 -0.2746 -0.1049 -0.1808
  486MOL0     C66990   9.078   3.038   6.167 -0.2426  0.2800  0.7012
  486MOL0     C66991   9.217   3.120   6.166  0.5173 -0.5988  0.1415
  486MOL0     C66992   9.325   3.072   6.075  0.0796  0.4396  0.1418
  486MOL0     C66993   9.391   2.929   6.090  0.6487 -0.9666  0.1020
  486MOL0     C66994   9.396   2.879   6.222  0.8860 -1.2676 -0.0332
  486MOL0     C66995   9.405   2.844   6.332 -0.3207  0.4751 -0.1371
  486MOL0     C66996   8.845   2.922   6.319  0.4592 -0.4629  0.1998
  486MOL0     C66997   8.726   2.884   6.387 -0.3329  1.0312 -0.5671
  486MOL0     C66998   8.695   2.741   6.365 -0.3173 -0.3347 -0.3151
  486MOL0     H66999   8.477   3.024   6.859 -1.0552  2.3450  2.9014
  486MOL0     H67000   8.288   3.025   7.005  1.0361 -2.0921  0.5805
  486MOL0     H67001   7.920   2.911   6.838  2.0247 -0.2513  1.0742
  486MOL0     H67002   7.846   3.065   6.898  2.6172  2.4604  0.2901
  486MOL0     H67003   7.874   2.971   7.129 -1.3204  0.5076  0.1523
  486MOL0     H67004   7.746   2.905   7.036 -0.5348  5.2852 -0.6693
  486MOL0     H67005   8.025   2.793   7.046  0.0065 -0.6664 -0.8839
  486MOL0     H67006   7.901   2.749   7.169  2.0576  1.9882  1.2667
  486MOL0     H67007   7.851   2.576   7.039 -2.8202  0.5513  0.9128
  486MOL0     H67008   7.764   2.698   6.936 -0.0085 -1.6590 -1.6547
  486MOL0     H67009   7.980   2.688   6.791 -1.9617  1.8283  0.8684
  486MOL0     H67010   7.895   2.526   6.815 -3.4173  2.4680  0.0823
  486MOL0     H67011   8.147   2.622   6.982 -1.0337  0.0848  1.9949
  486MOL0     H67012   8.075   2.463   6.980 -0.8747  1.7877  0.7580
  486MOL0     H67013   8.144   2.561   6.712  3.7644  1.6932 -0.6671
  486MOL0     H67014   8.170   2.403   6.779  0.2663 -0.0466 -1.0710
  486MOL0     H67015   8.339   2.660   6.805  1.5894 -0.5485  1.9587
  486MOL0     H67016   8.363   2.532   6.916 -0.8945 -1.0057 -0.2942
  486MOL0     H67017   8.397   2.593   6.526 -1.4734  1.7393  2.2188
  486MOL0     H67018   8.477   2.501   6.343  0.4136  0.2087  2.1099
  486MOL0     H67019   8.454   2.323   6.314 -0.4285  0.9983 -2.3097
  486MOL0     H67020   8.713   2.442   6.434  2.7778  0.0510 -2.8997
  486MOL0     H67021   8.682   2.274   6.409  0.6845  1.7618  1.4339
  486MOL0     H67022   8.694   2.478   6.182  0.9999 -0.4152 -2.0744
  486MOL0     H67023   8.823   2.369   6.235 -0.3026  0.8681  2.6749
  486MOL0     H67024   8.554   2.315   6.094  1.4248  2.6605 -4.1188
  486MOL0     H67025   8.705   2.308   6.021  0.3953  2.3473  0.7102
  486MOL0     H67026   8.433   2.071   6.081 -1.6924  0.7582 -3.7342
  486MOL0     H67027   8.301   1.867   5.970 -0.5263  2.8640 -0.0934
  486MOL0     H67028   8.371   1.777   5.845  0.1199 -1.1574  2.2996
  486MOL0     H67029   8.312   1.956   5.816 -0.9795 -1.6056 -0.2505
  486MOL0     H67030   8.571   1.650   5.477 -2.2443 -2.7682  0.0783
  486MOL0     H67031   8.473   1.586   5.262  1.7201 -0.7621  3.9716
  486MOL0     H67032   8.220   1.885   5.020 -1.0686  1.3228 -2.2966
  486MOL0     H67033   8.396   1.891   4.994 -0.2032  0.2432 -0.2723
  486MOL0     H67034   8.273   1.830   4.774  0.6899 -0.7073 -0.0713
  486MOL0     H67035   8.359   1.693   4.829 -1.1571 -0.3358 -2.4414
  486MOL0     H67036   8.083   1.755   4.912  3.1146  2.4792  0.4068
  486MOL0     H67037   8.164   1.601   4.942  1.2327 -0.2733  0.0079
  486MOL0     H67038   8.106   1.697   4.650  1.7672 -0.5064 -0.1696
  486MOL0     H67039   8.005   1.596   4.746 -0.3314  0.1673  1.0831
  486MOL0     H67040   8.301   1.564   4.658 -0.2678  0.1825 -1.1358
  486MOL0     H67041   8.246   1.461   4.792 -0.0925  0.6645  0.7660
  486MOL0     H67042   8.153   1.421   4.502 -2.8111 -1.8709 -0.1897
  486MOL0     H67043   8.075   1.348   4.649  0.4253 -3.1305 -2.4666
  486MOL0     H67044   8.269   1.255   4.732  0.1172  2.2327  0.6683
  486MOL0     H67045   8.357   1.331   4.596  1.2875 -3.0098  0.1218
  486MOL0     H67046   8.136   1.149   4.510  0.1510  2.1652 -0.5167
  486MOL0     H67047   8.283   1.072   4.586  0.6033 -0.3076  0.8414
  486MOL0     H67048   8.221   1.933   5.263  1.0575  0.9878 -0.2954
  486MOL0     H67049   8.338   2.020   5.461  0.6677  1.7149 -2.3496
  486MOL0     H67050   8.832   1.895   5.833  0.1901 -1.7060  0.5706
  486MOL0     H67051   8.854   2.025   6.028  0.4005  1.7304  0.0009
  486MOL0     H67052   8.019   3.001   6.672 -0.1259  0.1519  2.6796
  486MOL0     H67053   8.225   3.016   6.516  0.0273 -2.9334  0.5966
  486MOL0     H67054   8.634   3.189   6.511 -2.0738 -1.4758  1.4177
  486MOL0     H67055   8.822   3.258   6.399  1.2688  0.1568  0.9097
  486MOL0     H67056   9.101   2.940   6.210  0.1051  0.6946  1.4759
  486MOL0     H67057   9.020   3.022   6.076 -1.8314  0.0432  1.7013
  486MOL0     H67058   9.250   3.116   6.270 -3.2980  2.0508  1.6819
  486MOL0     H67059   9.180   3.219   6.138 -1.0070 -1.0425  0.5183
  486MOL0     H67060   9.281   3.076   5.975  1.0923  0.1571 -0.3364
  486MOL0     H67061   9.408   3.143   6.068 -2.0309  2.8910 -1.2204
  486MOL0     H67062   9.494   2.930   6.053  0.7969  0.2280  0.5172
  486MOL0     H67063   9.331   2.861   6.027 -1.8086  1.0873  0.0631
  486MOL0     H67064   9.415   2.805   6.431 -1.0423 -1.7539 -0.8801
  486MOL0     H67065   8.921   2.847   6.301 -2.8659 -4.2316  0.3379
  486MOL0     H67066   8.785   2.690   6.329 -1.4373 -1.8232 -1.1339
  486MOL0     H67067   8.661   2.689   6.454  1.7856  1.3608  1.5981
  486MOL0     H67068   8.619   2.725   6.288 -0.2456 -1.9742 -0.0875
  487MOL0     O67069  10.081   9.399   2.489  0.1380 -0.2196  0.1802
  487MOL0     C67070  10.143   9.293   2.467 -0.4069 -0.4055 -1.3948
  487MOL0     O67071  10.102   9.163   2.503  0.4346 -0.5894  0.0837
  487MOL0     C67072  10.002   9.157   2.602  0.3220 -0.8682  0.0939
  487MOL0     C67073   9.881   9.079   2.589 -0.4252 -0.3922  1.0321
  487MOL0     C67074   9.790   9.075   2.694  0.1770  0.1179 -0.5367
  487MOL0     C67075   9.817   9.141   2.815  0.5347  0.2724  0.1430
  487MOL0     O67076   9.734   9.130   2.919 -0.3370  0.1401 -0.1153
  487MOL0     C67077   9.711   9.253   2.991  0.0513 -0.5716  0.8428
  487MOL0     C67078   9.575   9.230   3.061 -0.2797 -0.3971 -0.0268
  487MOL0     C67079   9.446   9.250   2.976 -0.2005  0.6397  0.3737
  487MOL0     C67080   9.307   9.207   3.030 -0.6420  0.8894 -0.4180
  487MOL0     C67081   9.249   9.317   3.130 -0.8003  0.4443  0.4924
  487MOL0     C67082   9.146   9.245   3.216 -0.1831  0.3938 -0.8631
  487MOL0     C67083   9.096   9.334   3.333 -0.5998 -0.6538 -0.0108
  487MOL0     C67084   9.008   9.451   3.298 -0.2980  0.9305  0.5766
  487MOL0     N67085   8.893   9.410   3.217  0.9627  1.4203 -1.0948
  487MOL0     C67086   8.887   9.387   3.075  0.7236 -0.0279  0.0211
  487MOL0     C67087   8.755   9.397   3.033  0.5769 -0.3695 -0.4634
  487MOL0     C67088   8.675   9.395   2.901 -0.5228 -0.4790 -0.2753
  487MOL0     C67089   8.761   9.340   2.780 -0.5201 -0.3450 -0.0160
  487MOL0     C67090   8.851   9.451   2.721  0.1106  0.6724 -0.9883
  487MOL0     C67091   8.939   9.380   2.614  0.4742 -0.6197  0.9570
  487MOL0     O67092   9.065   9.361   2.665  0.4967  0.0628  0.1903
  487MOL0     C67093   9.176   9.369   2.582 -0.4289 -0.4644 -0.5983
  487MOL0     C67094   9.184   9.391   2.446 -0.1731  0.6489  0.2940
  487MOL0     C67095   9.309   9.396   2.381  0.1967  0.7643  0.0964
  487MOL0     C67096   9.303   9.410   2.232  0.1467  0.3115  0.9904
  487MOL0     C67097   9.427   9.367   2.453 -0.4772 -0.1138 -0.0371
  487MOL0     C67098   9.564   9.370   2.396  0.7744  0.1565  0.2700
  487MOL0     O67099   9.573   9.313   2.281  0.4001 -0.3012 -0.5991
  487MOL0     C67100   9.662   9.346   2.186 -0.7697 -0.3954  0.7479
  487MOL0     C67101   9.795   9.323   2.219 -0.2559  0.2491  1.0112
  487MOL0     C67102   9.886   9.319   2.114 -0.1720  0.9981 -0.2248
  487MOL0     C67103   9.857   9.356   1.980 -0.1912 -0.4059  0.2912
  487MOL0     O67104   9.954   9.347   1.875  0.6547  0.2586 -0.6534
  487MOL0     C67105  10.086   9.308   1.901  0.6844  0.7460 -0.4137
  487MOL0     C67106  10.174   9.319   1.781  0.3582 -1.1919 -0.1824
  487MOL0     C67107  10.244   9.462   1.757 -0.6473  0.0442 -0.5242
  487MOL0     C67108  10.349   9.443   1.644  0.5922  0.0469  0.4895
  487MOL0     C67109  10.386   9.582   1.587  0.1160  0.4228 -0.0155
  487MOL0     C67110  10.481   9.661   1.673 -0.4343 -0.0949 -0.5437
  487MOL0     C67111  10.545   9.773   1.584  0.5345  0.1326  0.0774
  487MOL0     C67112  10.635   9.853   1.679 -0.0223 -0.6807 -0.1176
  487MOL0    Cl67113  10.747   9.965   1.592 -0.1104 -0.2518 -0.2148
  487MOL0     C67114   9.721   9.391   1.954  0.7843  0.2380 -0.2511
  487MOL0     C67115   9.627   9.374   2.055 -0.6342 -0.2211  0.5297
  487MOL0     O67116   9.660   9.418   2.456 -1.4742 -0.1125 -0.8387
  487MOL0     C67117   9.415   9.350   2.595  0.0111  0.6793 -0.7425
  487MOL0     C67118   9.293   9.356   2.659 -0.8464  0.2946 -0.7483
  487MOL0     N67119   8.689   9.430   3.150 -0.4993 -0.2865 -0.0762
  487MOL0     N67120   8.763   9.433   3.251  0.7900 -0.2336  0.1014
  487MOL0     C67121   9.946   9.195   2.832 -0.2959 -0.2808  0.4651
  487MOL0     C67122  10.041   9.203   2.722  0.5990  0.5977  0.9833
  487MOL0     C67123  10.264   9.302   2.381 -0.7964  0.5007 -0.0946
  487MOL0     C67124  10.246   9.377   2.267 -0.3701  0.4186 -0.0306
  487MOL0     C67125  10.354   9.394   2.178 -0.6527 -0.7821  0.5173
  487MOL0     C67126  10.476   9.328   2.191  0.7847  0.1958 -0.7543
  487MOL0     O67127  10.581   9.364   2.116 -0.1218  0.3724 -0.4394
  487MOL0     C67128  10.588   9.306   1.982 -0.0320  0.3212 -0.1925
  487MOL0     C67129  10.721   9.358   1.936 -0.5147  0.3300  0.2008
  487MOL0     C67130  10.745   9.306   1.792  0.2184  0.3090 -0.7767
  487MOL0     C67131  10.882   9.342   1.733 -0.0810  0.4855  0.1992
  487MOL0     C67132  10.871   9.458   1.642 -0.2806  0.1714  0.3692
  487MOL0     C67133  10.873   9.536   1.547  0.2772  0.6670 -0.8608
  487MOL0     C67134  10.488   9.251   2.305  0.8616  0.3399 -0.4926
  487MOL0     C67135  10.388   9.235   2.393  0.1804 -0.0390 -1.3339
  487MOL0     C67136  10.402   9.127   2.497 -0.3835  0.5377  1.0401
  487MOL0     H67137   9.861   9.030   2.494  2.6567  1.0308 -0.4957
  487MOL0     H67138   9.693   9.027   2.695  1.4586 -2.6726  0.4759
  487MOL0     H67139   9.692   9.338   2.925  1.6458 -0.8938 -0.0913
  487MOL0     H67140   9.791   9.280   3.061 -1.0640  1.1715  1.5274
  487MOL0     H67141   9.584   9.125   3.090 -0.5272 -0.8402 -1.4730
  487MOL0     H67142   9.570   9.292   3.151  2.3128  1.6800 -1.1642
  487MOL0     H67143   9.438   9.358   2.961 -0.6031  0.4115 -1.2009
  487MOL0     H67144   9.469   9.199   2.882 -1.4408 -0.8820  0.8680
  487MOL0     H67145   9.232   9.204   2.951  0.9483  1.2680 -2.0225
  487MOL0     H67146   9.321   9.106   3.069  1.2107  1.8670  1.6858
  487MOL0     H67147   9.205   9.394   3.065 -1.9441  0.0587  0.7903
  487MOL0     H67148   9.329   9.364   3.188 -1.3997  0.3215  1.4261
  487MOL0     H67149   9.070   9.213   3.145 -1.4305  1.2223  0.0703
  487MOL0     H67150   9.197   9.158   3.260  0.9425  0.2672 -2.3154
  487MOL0     H67151   9.187   9.371   3.381 -0.1127 -4.2880  2.1754
  487MOL0     H67152   9.042   9.268   3.401  0.4737 -1.5575 -0.0098
  487MOL0     H67153   8.980   9.515   3.382 -1.3339  0.2632  0.7526
  487MOL0     H67154   9.063   9.526   3.240  0.3305  2.1275  2.6017
  487MOL0     H67155   8.968   9.361   3.008  0.7386 -1.0283  0.4079
  487MOL0     H67156   8.640   9.497   2.879  0.2158 -0.1507  0.0241
  487MOL0     H67157   8.581   9.340   2.914 -1.4914  1.2362  0.4456
  487MOL0     H67158   8.821   9.265   2.831 -1.5236  0.2182  2.0980
  487MOL0     H67159   8.694   9.292   2.708  1.9878 -3.4265 -0.4827
  487MOL0     H67160   8.799   9.525   2.660  0.3149  0.3915 -1.5197
  487MOL0     H67161   8.918   9.490   2.798 -1.9094 -0.6614  1.5642
  487MOL0     H67162   8.900   9.291   2.565  1.0493  0.9337 -2.6398
  487MOL0     H67163   8.946   9.443   2.525 -2.7681  1.2378  1.8613
  487MOL0     H67164   9.092   9.397   2.390 -0.4816 -0.2919  0.6910
  487MOL0     H67165   9.206   9.450   2.203  1.6275  3.1512 -0.5083
  487MOL0     H67166   9.301   9.308   2.193 -4.7909 -0.1509  1.7962
  487MOL0     H67167   9.388   9.467   2.193  1.3947 -1.4837  0.9034
  487MOL0     H67168   9.818   9.282   2.317 -4.6107 -1.8524  1.3911
  487MOL0     H67169   9.976   9.278   2.157 -1.8386 -3.0074 -0.1207
  487MOL0     H67170  10.121   9.377   1.979 -3.2110  2.3975  0.1163
  487MOL0     H67171  10.081   9.204   1.934  0.5565  0.7235 -0.5027
  487MOL0     H67172  10.254   9.246   1.796  0.8888 -0.4207  0.9245
  487MOL0     H67173  10.115   9.294   1.692  0.9195 -1.1077 -0.5913
  487MOL0     H67174  10.295   9.494   1.849  0.4212  1.3247 -1.5279
  487MOL0     H67175  10.170   9.540   1.737 -0.7665  1.2417  3.6432
  487MOL0     H67176  10.317   9.381   1.560 -0.4320 -0.4366  1.2080
  487MOL0     H67177  10.438   9.405   1.695  0.0139  1.1640  2.4465
  487MOL0     H67178  10.439   9.563   1.494  0.5462  1.3283  0.0275
  487MOL0     H67179  10.309   9.657   1.567  2.1512  2.6051 -0.2029
  487MOL0     H67180  10.553   9.590   1.716 -0.9327  0.7951  1.8865
  487MOL0     H67181  10.426   9.700   1.758 -3.5836 -3.0855 -1.0082
  487MOL0     H67182  10.477   9.839   1.530 -0.0907  0.4058  1.1836
  487MOL0     H67183  10.616   9.733   1.510  2.7545  1.8085  1.1523
  487MOL0     H67184  10.690   9.799   1.757  0.6094  0.9318  0.5833
  487MOL0     H67185  10.572   9.925   1.731  3.5515  1.3099  1.8690
  487MOL0     H67186   9.685   9.419   1.856 -0.6995  0.2299  0.2679
  487MOL0     H67187   9.522   9.395   2.038 -1.1949 -2.3360  1.0104
  487MOL0     H67188   9.508   9.348   2.651 -1.4155  0.6976  1.8027
  487MOL0     H67189   9.282   9.345   2.767 -2.1323  2.3840 -0.6136
  487MOL0     H67190   9.983   9.205   2.934  0.3673  0.2164  0.1767
  487MOL0     H67191  10.144   9.232   2.741  0.2205  1.3015  2.0682
  487MOL0     H67192  10.152   9.428   2.247  0.8401  1.7937 -2.7478
  487MOL0     H67193  10.331   9.455   2.092  0.0142 -0.3371  0.6488
  487MOL0     H67194  10.581   9.197   1.975  4.0366 -0.0970 -0.2577
  487MOL0     H67195  10.512   9.355   1.921  0.4857  3.5464  1.5151
  487MOL0     H67196  10.795   9.310   2.001 -0.2944  0.2947 -0.0718
  487MOL0     H67197  10.737   9.466   1.936  1.0770  0.1447 -1.1300
  487MOL0     H67198  10.722   9.199   1.801 -0.7680  0.0298 -4.7556
  487MOL0     H67199  10.670   9.321   1.713  1.3224  3.2254 -1.3958
  487MOL0     H67200  10.914   9.250   1.683 -1.4675 -0.1078  0.3596
  487MOL0     H67201  10.945   9.361   1.821 -3.0444 -1.2286  2.9264
  487MOL0     H67202  10.891   9.599   1.462  1.1702  2.2724  0.4654
  487MOL0     H67203  10.585   9.202   2.305  0.0485 -1.4936 -3.2756
  487MOL0     H67204  10.397   9.171   2.597  0.0042 -0.7020  1.6193
  487MOL0     H67205  10.327   9.047   2.491  2.2595 -2.0440 -0.0784
  487MOL0     H67206  10.503   9.087   2.490  0.9484  3.8569 -0.9982
  488MOL0     O67207   0.621   1.105   9.519  0.2123  0.1819  1.1901
  488MOL0     C67208   0.583   1.002   9.472  0.0862 -0.1090  0.2812
  488MOL0     O67209   0.592   0.887   9.545  0.5592  0.1051  0.5146
  488MOL0     C67210   0.662   0.894   9.662  0.5537  0.3377 -0.3346
  488MOL0     C67211   0.761   0.805   9.673 -0.0094  0.0272 -0.1937
  488MOL0     C67212   0.822   0.778   9.792 -1.9229 -0.6532  0.5621
  488MOL0     C67213   0.807   0.865   9.905 -0.9498  0.0896 -0.2072
  488MOL0     O67214   0.890   0.860  10.010  0.3048  0.1138 -0.3326
  488MOL0     C67215   0.999   0.953  10.003  0.3231 -1.2813  0.5694
  488MOL0     C67216   1.000   1.045  10.125 -1.0131  0.9979  0.8306
  488MOL0     C67217   0.992   0.980  10.257  0.2362  0.0772 -0.3084
  488MOL0     C67218   1.078   1.049  10.358 -0.6181  0.7130 -0.6041
  488MOL0     C67219   1.123   0.953  10.474 -0.3277  0.6811 -0.5516
  488MOL0     C67220   1.255   0.956  10.539  0.7395  0.5458  0.1786
  488MOL0     C67221   1.371   0.929  10.438 -0.9746 -0.8298 -0.2432
  488MOL0     C67222   1.357   0.810  10.347 -0.2533 -0.1851 -0.1732
  488MOL0     N67223   1.472   0.793  10.262  0.3562 -0.0103 -0.5561
  488MOL0     C67224   1.476   0.704  10.157  0.6013 -0.5601  0.2503
  488MOL0     C67225   1.602   0.698  10.108  0.4255  0.5779 -0.7544
  488MOL0     C67226   1.679   0.628  10.008 -0.1479  0.8879  0.1643
  488MOL0     C67227   1.785   0.534  10.057 -0.2534 -0.5682  0.3274
  488MOL0     C67228   1.725   0.399  10.086  0.6719  0.6870 -0.3981
  488MOL0     C67229   1.832   0.311  10.139  0.5764 -0.0307 -0.2498
  488MOL0     O67230   1.778   0.185  10.158  0.1082 -0.1840 -0.7084
  488MOL0     C67231   1.829   0.095  10.252 -0.1892  0.5449  0.8804
  488MOL0     C67232   1.770  -0.027  10.249  0.1836 -0.3759  0.5663
  488MOL0     C67233   1.803  -0.129  10.343 -0.3726 -0.0581  0.4802
  488MOL0     C67234   1.712  -0.245  10.359  0.4758  0.7496  0.4046
  488MOL0     C67235   1.916  -0.109  10.433  1.2604  0.9519  0.2505
  488MOL0     C67236   1.955  -0.207  10.538  0.1739  0.4070 -0.2210
  488MOL0     O67237   1.917  -0.340  10.509  1.0048 -0.3924  0.1848
  488MOL0     C67238   1.918  -0.439  10.608 -0.1774 -1.3728  0.6712
  488MOL0     C67239   1.797  -0.472  10.664  0.1215  0.1216 -0.5832
  488MOL0     C67240   1.797  -0.573  10.770  0.7769  0.6391  1.0427
  488MOL0     C67241   1.918  -0.623  10.820  0.5469  0.0481 -0.0318
  488MOL0     O67242   1.926  -0.740  10.895 -0.5433 -0.3732 -0.2723
  488MOL0     C67243   1.804  -0.757  10.982 -0.3037 -1.1759  0.0277
  488MOL0     C67244   1.859  -0.858  11.079  0.6778 -0.9473 -0.6041
  488MOL0     C67245   1.760  -0.882  11.189  0.4346 -0.2501 -0.1789
  488MOL0     C67246   1.638  -0.957  11.132  0.0670  0.7791  0.2105
  488MOL0     C67247   1.582  -1.050  11.247  0.3106 -0.1194  0.3916
  488MOL0     C67248   1.442  -1.107  11.217 -0.6098 -0.3444  0.6344
  488MOL0     C67249   1.355  -1.131  11.343  0.0702 -0.2372 -1.2669
  488MOL0     C67250   1.429  -1.185  11.465 -0.3313 -0.5905 -0.3486
  488MOL0    Cl67251   1.312  -1.216  11.594  0.4098 -0.1358  0.6799
  488MOL0     C67252   2.040  -0.585  10.766 -0.6303 -0.3337 -0.2760
  488MOL0     C67253   2.040  -0.494  10.657 -0.4915 -0.5362 -0.0403
  488MOL0     O67254   2.018  -0.178  10.635  0.1626 -0.3090 -0.8931
  488MOL0     C67255   1.974   0.018  10.428  0.1811 -0.3019 -0.0158
  488MOL0     C67256   1.921   0.117  10.354 -0.9616 -0.4810 -0.3266
  488MOL0     N67257   1.672   0.786  10.188 -0.1968 -0.5603 -0.3976
  488MOL0     N67258   1.597   0.844  10.286  0.1268  0.7232  1.1896
  488MOL0     C67259   0.715   0.968   9.891 -0.4499  0.5175  0.5864
  488MOL0     C67260   0.638   0.977   9.772 -0.2069  0.1003  0.0953
  488MOL0     C67261   0.533   1.000   9.334  0.7995 -0.0120  0.1060
  488MOL0     C67262   0.395   1.015   9.301 -0.0107  1.3021  0.0496
  488MOL0     C67263   0.347   1.018   9.168  0.2381  0.0385  0.5086
  488MOL0     C67264   0.444   1.000   9.061  0.4984  0.2014  0.3742
  488MOL0     O67265   0.423   1.002   8.921 -0.1538  0.0817 -0.4006
  488MOL0     C67266   0.299   1.054   8.869  0.1433  0.6527 -0.3891
  488MOL0     C67267   0.170   0.968   8.896 -0.2224 -0.6568  0.0140
  488MOL0     C67268   0.178   0.830   8.962  0.4289 -0.2827 -1.2126
  488MOL0     C67269   0.254   0.728   8.878  0.1464  0.8379  0.4454
  488MOL0     C67270   0.188   0.684   8.749 -0.5455 -0.0609 -0.3961
  488MOL0     C67271   0.130   0.648   8.649 -0.1030 -0.3787  0.1643
  488MOL0     C67272   0.583   0.972   9.094 -0.3552 -0.3521 -0.2559
  488MOL0     C67273   0.628   0.981   9.234  0.6464 -0.2064  0.4190
  488MOL0     C67274   0.771   0.977   9.260  0.2645 -0.2886 -0.4708
  488MOL0     H67275   0.790   0.747   9.585 -1.7595  0.2834 -0.9861
  488MOL0     H67276   0.899   0.701   9.797 -2.1068 -0.8566  0.3219
  488MOL0     H67277   0.992   1.014   9.913  2.6463 -0.5005  0.8569
  488MOL0     H67278   1.096   0.902  10.006  1.4046  0.6994  1.3549
  488MOL0     H67279   1.101   1.086  10.122 -0.3329 -0.6226  0.4298
  488MOL0     H67280   0.917   1.114  10.111 -0.4867  1.6103  0.6671
  488MOL0     H67281   0.889   0.985  10.292 -0.8551  1.3799 -3.3510
  488MOL0     H67282   1.025   0.877  10.240 -1.8824 -0.5272 -1.0728
  488MOL0     H67283   1.168   1.099  10.322  0.4528 -2.3355 -2.4946
  488MOL0     H67284   1.018   1.124  10.410  2.3422  0.6780  3.2937
  488MOL0     H67285   1.114   0.850  10.436 -1.1409  0.0267  1.2706
  488MOL0     H67286   1.049   0.970  10.553  1.7642 -1.5618  2.0935
  488MOL0     H67287   1.274   1.048  10.595  1.2835  1.3509 -1.2583
  488MOL0     H67288   1.258   0.874  10.611 -1.9041  0.5226  0.3559
  488MOL0     H67289   1.452   0.909  10.510 -1.5001 -1.1416  0.2766
  488MOL0     H67290   1.396   1.019  10.381 -0.2165 -1.3535 -0.7603
  488MOL0     H67291   1.374   0.721  10.409  0.3152 -1.6102 -2.2620
  488MOL0     H67292   1.263   0.803  10.291 -1.4788  1.5389  1.5321
  488MOL0     H67293   1.400   0.652  10.100 -3.0907  2.7294  1.6692
  488MOL0     H67294   1.721   0.702   9.939 -0.9948  2.0013  0.8041
  488MOL0     H67295   1.613   0.571   9.942  0.6289  0.1434  0.0084
  488MOL0     H67296   1.854   0.520   9.974 -0.1811  0.8178  0.1338
  488MOL0     H67297   1.832   0.581  10.143 -1.2933 -0.1743  0.7025
  488MOL0     H67298   1.650   0.410  10.165 -0.1829  0.2637 -1.1386
  488MOL0     H67299   1.697   0.344   9.996  5.8000 -3.4443  0.0631
  488MOL0     H67300   1.910   0.289  10.065  1.3112  1.2391  0.0997
  488MOL0     H67301   1.886   0.352  10.225  0.3099 -2.5322  1.2096
  488MOL0     H67302   1.678  -0.042  10.192 -0.7488 -0.6021  2.0624
  488MOL0     H67303   1.745  -0.330  10.300  0.0676  0.9859 -0.1734
  488MOL0     H67304   1.615  -0.210  10.324  0.7662 -1.1432 -2.6092
  488MOL0     H67305   1.697  -0.261  10.466 -2.6452 -4.0554 -0.4686
  488MOL0     H67306   1.711  -0.433  10.612  0.6312  1.5654 -0.3971
  488MOL0     H67307   1.698  -0.613  10.786  1.9980 -2.7744  0.7845
  488MOL0     H67308   1.790  -0.656  11.021  0.2916 -0.2957 -1.9094
  488MOL0     H67309   1.717  -0.791  10.924 -0.6779 -0.7726  0.3451
  488MOL0     H67310   1.869  -0.953  11.025 -0.0974 -0.4911 -1.5951
  488MOL0     H67311   1.962  -0.828  11.101 -0.6593  3.1660  0.8092
  488MOL0     H67312   1.733  -0.787  11.236 -0.2926 -0.7162  0.3647
  488MOL0     H67313   1.811  -0.941  11.265  0.9894 -2.2082 -1.9838
  488MOL0     H67314   1.673  -1.023  11.052  1.7100  0.8647  0.8301
  488MOL0     H67315   1.570  -0.880  11.093  0.2414 -0.1195 -2.0523
  488MOL0     H67316   1.665  -1.114  11.279  1.2656  1.3113  0.8776
  488MOL0     H67317   1.568  -0.978  11.328  0.8058 -0.4677  0.7908
  488MOL0     H67318   1.471  -1.202  11.171 -2.7494 -1.0218  0.5688
  488MOL0     H67319   1.388  -1.039  11.150  2.2423 -1.0364 -2.6411
  488MOL0     H67320   1.267  -1.195  11.330 -1.4391  1.3378  0.5808
  488MOL0     H67321   1.310  -1.035  11.371 -3.9184 -1.9842 -1.0144
  488MOL0     H67322   1.506  -1.115  11.497 -0.0257 -0.4331 -1.3931
  488MOL0     H67323   1.480  -1.278  11.438 -1.1340 -0.6675 -1.7330
  488MOL0     H67324   2.132  -0.631  10.801  0.4975  1.4528 -0.7790
  488MOL0     H67325   2.138  -0.466  10.618  0.9677 -0.0282  3.6011
  488MOL0     H67326   2.050   0.044  10.501 -0.3955 -1.2054  0.9404
  488MOL0     H67327   1.960   0.218  10.357 -0.0912 -0.8074 -0.2070
  488MOL0     H67328   0.709   1.041   9.971 -0.4313  0.7137  0.4082
  488MOL0     H67329   0.576   1.065   9.761  0.5062  0.5346 -0.6129
  488MOL0     H67330   0.324   1.025   9.383  0.1851 -0.9107  0.5437
  488MOL0     H67331   0.240   1.032   9.151  0.2913 -0.2005 -0.0176
  488MOL0     H67332   0.292   1.149   8.922 -1.7543 -0.9031  2.4189
  488MOL0     H67333   0.322   1.069   8.763  2.7547 -1.3026 -0.2085
  488MOL0     H67334   0.121   0.964   8.798 -0.4322  4.7407 -0.3779
  488MOL0     H67335   0.112   1.040   8.955  0.4953  0.8031 -1.0185
  488MOL0     H67336   0.220   0.836   9.063 -3.4525  0.4886  0.5442
  488MOL0     H67337   0.073   0.800   8.973  0.0087  0.2180 -3.3356
  488MOL0     H67338   0.257   0.638   8.940  0.6659  1.8909  1.9911
  488MOL0     H67339   0.358   0.758   8.861  0.2006  0.7126  0.5525
  488MOL0     H67340   0.065   0.629   8.567  1.6552 -3.4068 -0.6803
  488MOL0     H67341   0.656   0.936   9.023  0.2021  0.3914 -0.0735
  488MOL0     H67342   0.829   0.978   9.167 -0.6160  2.2621 -1.0641
  488MOL0     H67343   0.794   1.074   9.305 -2.0678 -0.7037  1.8192
  488MOL0     H67344   0.807   0.902   9.330 -2.1069  0.9399  2.2488
  489MOL0     O67345   5.556   8.297  11.478 -0.7675  0.3090  0.3724
  489MOL0     C67346   5.638   8.320  11.565 -0.6386  0.1482  0.1178
  489MOL0     O67347   5.755   8.366  11.524 -0.4802  0.9275 -0.1802
  489MOL0     C67348   5.781   8.413  11.397 -0.6592 -0.9665  0.2821
  489MOL0     C67349   5.750   8.348  11.275  0.2873 -0.0427  0.0326
  489MOL0     C67350   5.765   8.414  11.150 -0.3227 -0.0608  0.6430
  489MOL0     C67351   5.811   8.546  11.148 -1.0780 -0.3454  1.1570
  489MOL0     O67352   5.833   8.618  11.031  0.0227 -0.2952 -0.4631
  489MOL0     C67353   5.729   8.603  10.931 -0.1550 -0.0344  0.6176
  489MOL0     C67354   5.688   8.737  10.868  0.6168  0.4233  0.5388
  489MOL0     C67355   5.798   8.791  10.771 -0.5358  0.4885 -0.6046
  489MOL0     C67356   5.808   8.946  10.793 -0.4549 -0.0816  0.4369
  489MOL0     C67357   5.895   9.025  10.678  0.0975  0.3137  0.7492
  489MOL0     C67358   5.873   9.175  10.681  0.7091  0.7893  0.4842
  489MOL0     C67359   5.945   9.239  10.565 -0.9486 -0.4733 -0.2566
  489MOL0     C67360   5.931   9.392  10.540  0.2634  0.1863 -0.1851
  489MOL0     N67361   6.041   9.437  10.465 -0.5632 -0.4046 -0.1219
  489MOL0     C67362   6.079   9.387  10.342  1.0604 -0.5523 -0.1650
  489MOL0     C67363   6.209   9.407  10.344  0.2682 -1.2896 -0.5514
  489MOL0     C67364   6.303   9.379  10.240 -0.0439  0.0781  0.4981
  489MOL0     C67365   6.306   9.476  10.124 -1.3265 -0.9367  0.6233
  489MOL0     C67366   6.417   9.436  10.024  0.1452 -0.4397  0.5849
  489MOL0     C67367   6.415   9.519   9.894 -0.7073  0.0599  0.5189
  489MOL0     O67368   6.442   9.665   9.930 -0.1987  1.2378 -0.6425
  489MOL0     C67369   6.551   9.728   9.881  0.1108  0.4280 -0.3678
  489MOL0     C67370   6.553   9.864   9.906 -0.8969  0.3459 -1.0448
  489MOL0     C67371   6.660   9.946   9.875 -0.2409  0.2566  0.2435
  489MOL0     C67372   6.691  10.079   9.960  0.3017 -0.0593 -0.4768
  489MOL0     C67373   6.761   9.901   9.791 -1.5464  0.4564  0.0945
  489MOL0     C67374   6.868   9.987   9.733  1.0646 -0.0749  0.4361
  489MOL0     O67375   6.992   9.936   9.738 -0.5628 -0.2249  0.4160
  489MOL0     C67376   7.106  10.009   9.729  0.3225 -1.2962  0.0389
  489MOL0     C67377   7.142  10.046   9.596  0.6706 -0.0310  0.3850
  489MOL0     C67378   7.277  10.089   9.579  0.0941  1.0932  1.5929
  489MOL0     C67379   7.360  10.103   9.685 -0.0022 -0.3502 -1.6483
  489MOL0     O67380   7.494  10.113   9.658  0.0902 -0.3822 -0.8461
  489MOL0     C67381   7.582  10.076   9.765 -0.6180 -0.4301 -0.1891
  489MOL0     C67382   7.714  10.060   9.698  0.2205  0.2480  0.2197
  489MOL0     C67383   7.828  10.050   9.799 -0.8167  0.3815  0.1811
  489MOL0     C67384   7.831   9.908   9.865  0.1399  0.0300 -0.0211
  489MOL0     C67385   7.969   9.882   9.925 -0.7541  0.4732  0.2543
  489MOL0     C67386   7.981   9.731   9.960  0.9986  0.0517 -0.6085
  489MOL0     C67387   8.122   9.692  10.004 -0.7236 -0.9891 -0.0436
  489MOL0     C67388   8.168   9.561   9.937  0.2713  1.1441 -0.0357
  489MOL0    Cl67389   8.200   9.563   9.758 -0.0568  0.0828 -0.1241
  489MOL0     C67390   7.311  10.079   9.824 -0.0870 -0.4786  0.2072
  489MOL0     C67391   7.179  10.027   9.848 -0.4763  0.4973 -0.7764
  489MOL0     O67392   6.832  10.097   9.700  0.1866 -0.6354 -0.1482
  489MOL0     C67393   6.760   9.760   9.752  0.4584 -0.2311  0.5608
  489MOL0     C67394   6.659   9.679   9.808  0.0268 -0.2411  0.5841
  489MOL0     N67395   6.244   9.485  10.453 -0.0429  0.4676  0.2497
  489MOL0     N67396   6.148   9.498  10.535 -0.1488 -0.3412 -0.0176
  489MOL0     C67397   5.848   8.595  11.261  0.0097  0.0308 -0.4034
  489MOL0     C67398   5.840   8.539  11.388 -0.2189 -0.4028 -0.0489
  489MOL0     C67399   5.616   8.294  11.713 -0.3011  0.1769  0.1353
  489MOL0     C67400   5.520   8.199  11.756 -1.1301  0.1771 -0.3594
  489MOL0     C67401   5.501   8.164  11.891  0.2825  0.1540  0.4446
  489MOL0     C67402   5.572   8.225  11.999  0.7600 -0.5278  0.3819
  489MOL0     O67403   5.546   8.223  12.134  0.0041  0.0327  0.1231
  489MOL0     C67404   5.425   8.163  12.168  0.1214  0.8988 -1.5494
  489MOL0     C67405   5.397   8.185  12.320 -0.4033 -0.6985  0.3515
  489MOL0     C67406   5.508   8.122  12.408  0.3169  0.2223 -0.1627
  489MOL0     C67407   5.526   7.970  12.394  0.7179  0.5451  0.7002
  489MOL0     C67408   5.642   7.940  12.483 -0.5683 -0.1961  0.3162
  489MOL0     C67409   5.741   7.928  12.554  0.3520 -0.6481 -0.3566
  489MOL0     C67410   5.659   8.326  11.955  0.8873  0.1303 -0.1428
  489MOL0     C67411   5.685   8.363  11.818  0.3163  0.1146  0.2962
  489MOL0     C67412   5.780   8.469  11.799  0.6515  0.2792  0.4436
  489MOL0     H67413   5.702   8.251  11.286  0.7504  0.0033  5.7652
  489MOL0     H67414   5.740   8.368  11.055  1.6060  0.1123  0.0102
  489MOL0     H67415   5.647   8.564  10.992 -1.2860 -0.8804 -1.3327
  489MOL0     H67416   5.744   8.529  10.852 -3.7974  0.4206 -0.6938
  489MOL0     H67417   5.601   8.718  10.805  1.3001  1.5939 -0.8031
  489MOL0     H67418   5.669   8.798  10.957 -0.7631 -0.2518  0.7448
  489MOL0     H67419   5.891   8.754  10.815 -1.1655 -1.6390 -0.9108
  489MOL0     H67420   5.761   8.755  10.675 -5.4445 -1.6712  1.6774
  489MOL0     H67421   5.710   8.996  10.787 -1.0926 -1.3358  0.1784
  489MOL0     H67422   5.838   8.961  10.897 -1.5950 -0.2075  0.8077
  489MOL0     H67423   5.858   8.993  10.581 -0.0052  2.0903  0.1523
  489MOL0     H67424   6.004   9.022  10.689  0.0552  1.1160  1.5809
  489MOL0     H67425   5.765   9.193  10.679  0.3113 -1.0598  1.9002
  489MOL0     H67426   5.915   9.204  10.778  2.4467 -1.5262  0.5092
  489MOL0     H67427   5.942   9.176  10.476  0.1451 -1.7931  0.5929
  489MOL0     H67428   6.052   9.234  10.591 -0.9098 -3.2677 -0.6902
  489MOL0     H67429   5.843   9.417  10.480  0.7890  0.5544 -0.8308
  489MOL0     H67430   5.928   9.446  10.635  2.5558 -1.5469  0.9767
  489MOL0     H67431   6.022   9.338  10.264  0.1753  2.0344 -1.2483
  489MOL0     H67432   6.301   9.275  10.206  3.0120  0.7380 -2.3027
  489MOL0     H67433   6.400   9.394  10.289 -0.8396 -2.0314  2.9043
  489MOL0     H67434   6.206   9.490  10.082 -0.0329  2.9192 -1.6903
  489MOL0     H67435   6.328   9.578  10.156  1.1018 -1.2233  0.1003
  489MOL0     H67436   6.518   9.434  10.067  0.6728 -1.8724 -0.6341
  489MOL0     H67437   6.413   9.331   9.993 -3.0243 -0.0558 -0.7185
  489MOL0     H67438   6.481   9.477   9.817 -1.7350  1.5099 -1.2498
  489MOL0     H67439   6.318   9.526   9.842 -0.3376  0.1192 -0.1790
  489MOL0     H67440   6.485   9.899   9.984  1.2882  2.9100 -0.1083
  489MOL0     H67441   6.778  10.130   9.916  1.3458 -2.3642 -1.2451
  489MOL0     H67442   6.710  10.052  10.064  0.0321  1.5247  0.0038
  489MOL0     H67443   6.599  10.138   9.963 -0.0951 -0.6468  2.6744
  489MOL0     H67444   7.080  10.031   9.508  1.5715 -1.3096 -0.0598
  489MOL0     H67445   7.330  10.095   9.484 -0.1279 -0.9607  1.3015
  489MOL0     H67446   7.586  10.161   9.834  0.1180  0.0198 -0.7650
  489MOL0     H67447   7.560   9.977   9.806 -0.7736 -2.3077 -4.3259
  489MOL0     H67448   7.732   9.971   9.637  1.1419 -0.3124  1.2590
  489MOL0     H67449   7.739  10.145   9.634 -0.2568 -0.3414 -0.7650
  489MOL0     H67450   7.806  10.121   9.879 -1.7710  0.3855 -0.0769
  489MOL0     H67451   7.924  10.070   9.750 -1.1804  2.3776  0.1921
  489MOL0     H67452   7.799   9.829   9.797 -1.2303 -0.1649  0.8115
  489MOL0     H67453   7.756   9.904   9.944 -1.5817 -1.7897 -1.6623
  489MOL0     H67454   8.051   9.892   9.854 -1.2892  1.2046 -0.2716
  489MOL0     H67455   7.995   9.952  10.005  1.0567 -0.1148  0.2237
  489MOL0     H67456   7.947   9.680   9.870 -2.4701  2.3005 -0.7996
  489MOL0     H67457   7.917   9.700  10.044 -1.0510 -1.9078 -2.7613
  489MOL0     H67458   8.132   9.671  10.111  0.9874 -0.2072 -0.0221
  489MOL0     H67459   8.199   9.767   9.986 -2.0708  0.3360 -0.5082
  489MOL0     H67460   8.100   9.478   9.958 -0.0672  1.7582  1.4353
  489MOL0     H67461   8.261   9.523   9.981  1.3141  1.5044 -1.8426
  489MOL0     H67462   7.382  10.080   9.906  0.7415 -1.2601 -0.4817
  489MOL0     H67463   7.140   9.993   9.943  0.1755 -1.6939 -1.2516
  489MOL0     H67464   6.833   9.709   9.690 -0.6106  0.0239 -0.9796
  489MOL0     H67465   6.675   9.582   9.761  1.1578 -0.2786  1.0145
  489MOL0     H67466   5.894   8.692  11.248 -0.2824  0.2975  0.4543
  489MOL0     H67467   5.875   8.602  11.469 -1.8858  2.3050 -1.3019
  489MOL0     H67468   5.462   8.148  11.681 -0.2199  3.8381 -3.9011
  489MOL0     H67469   5.422   8.090  11.903  1.4776 -1.1488  0.5387
  489MOL0     H67470   5.346   8.215  12.114 -0.2500 -0.4399 -2.3227
  489MOL0     H67471   5.434   8.059  12.136 -0.1251  1.1300 -2.3871
  489MOL0     H67472   5.299   8.153  12.357  0.7289 -1.9066  2.4995
  489MOL0     H67473   5.386   8.292  12.343 -1.7281 -0.3564 -1.5681
  489MOL0     H67474   5.602   8.171  12.382  0.2859  0.5960  0.3957
  489MOL0     H67475   5.479   8.140  12.512  0.8483 -1.4033  0.2958
  489MOL0     H67476   5.552   7.953  12.289 -0.3675  2.7386  0.0118
  489MOL0     H67477   5.434   7.917  12.422 -0.6988  1.7067 -1.4627
  489MOL0     H67478   5.823   7.906  12.620 -0.2909  0.1347  0.7238
  489MOL0     H67479   5.710   8.388  12.028  1.4828  1.6144 -1.7500
  489MOL0     H67480   5.748   8.548  11.730  5.9597  0.5982 -2.1846
  489MOL0     H67481   5.795   8.520  11.895  0.7889  0.8446  0.1303
  489MOL0     H67482   5.879   8.436  11.766  1.2058  2.1241  0.1113
  490MOL0     O67483   5.300   6.873   4.054  0.5103 -0.1060 -0.2120
  490MOL0     C67484   5.252   6.757   4.083 -0.1476  0.0517  0.2498
  490MOL0     O67485   5.256   6.709   4.214  0.0701  0.4811  0.5819
  490MOL0     C67486   5.313   6.785   4.307 -0.5013 -0.1170  0.1430
  490MOL0     C67487   5.446   6.791   4.321 -0.5634  0.4104 -0.2281
  490MOL0     C67488   5.509   6.856   4.432  0.2999  0.9996  0.4200
  490MOL0     C67489   5.428   6.916   4.536 -0.3249 -0.3642 -0.0872
  490MOL0     O67490   5.467   6.981   4.647 -0.2631 -0.2860 -0.1076
  490MOL0     C67491   5.605   7.019   4.665 -0.4060  0.1386  0.4481
  490MOL0     C67492   5.676   6.919   4.757  0.4353 -0.6808  0.6276
  490MOL0     C67493   5.714   6.786   4.693  0.2367 -0.2599  0.2116
  490MOL0     C67494   5.769   6.694   4.800  0.6341 -0.1494 -0.2429
  490MOL0     C67495   5.824   6.565   4.744  0.1387 -0.4119  0.2035
  490MOL0     C67496   5.736   6.455   4.794  0.2296  0.2851 -0.8387
  490MOL0     C67497   5.771   6.418   4.941  0.3395  0.3606 -1.6521
  490MOL0     C67498   5.695   6.286   4.991 -0.2050 -0.3684 -0.4447
  490MOL0     N67499   5.746   6.255   5.124  0.7081  0.0498 -1.3723
  490MOL0     C67500   5.686   6.290   5.248 -0.5693  0.4319 -0.9897
  490MOL0     C67501   5.751   6.208   5.343  1.3320  0.2078  0.2526
  490MOL0     C67502   5.732   6.203   5.490  0.0274 -0.3903  0.0385
  490MOL0     C67503   5.833   6.296   5.544 -0.8348 -0.2732  0.1818
  490MOL0     C67504   5.803   6.346   5.684 -0.3598  0.3618  0.7499
  490MOL0     C67505   5.895   6.444   5.736 -0.2686 -0.5464 -1.4842
  490MOL0     O67506   5.872   6.557   5.654  0.0860 -0.0036  0.3871
  490MOL0     C67507   5.905   6.682   5.694 -0.6327  0.5085  0.0434
  490MOL0     C67508   5.852   6.796   5.638 -0.3344  0.6436 -0.4923
  490MOL0     C67509   5.881   6.922   5.655 -0.2583 -0.6510  0.6969
  490MOL0     C67510   5.820   7.036   5.567  0.3106  0.0468 -0.5460
  490MOL0     C67511   5.982   6.941   5.746 -0.5877  0.7885  0.5531
  490MOL0     C67512   6.041   7.079   5.759 -0.4923 -0.2861 -0.7621
  490MOL0     O67513   6.014   7.185   5.683  0.5993  0.0892 -0.8755
  490MOL0     C67514   6.046   7.302   5.733  0.0994 -0.2777 -0.8429
  490MOL0     C67515   6.163   7.363   5.693  0.5841 -0.4998 -0.3770
  490MOL0     C67516   6.191   7.491   5.716  0.0854 -0.7617 -1.2797
  490MOL0     C67517   6.101   7.559   5.803 -0.0549 -0.6173 -0.9198
  490MOL0     O67518   6.118   7.686   5.842  1.1993 -0.4510 -0.3781
  490MOL0     C67519   6.255   7.747   5.834 -0.5749  0.5657  0.3878
  490MOL0     C67520   6.256   7.889   5.899  1.4305  0.1709 -0.2081
  490MOL0     C67521   6.231   7.872   6.054 -0.6538  0.9061 -0.0516
  490MOL0     C67522   6.105   7.933   6.111  0.3953 -0.2359 -0.3396
  490MOL0     C67523   6.123   7.991   6.255 -0.2764  1.1591 -0.5904
  490MOL0     C67524   5.987   8.041   6.305 -0.4357 -0.8165 -0.3255
  490MOL0     C67525   6.025   8.130   6.430  0.1191  0.4853 -1.0633
  490MOL0     C67526   5.926   8.235   6.465  0.9342 -1.1267  0.9083
  490MOL0    Cl67527   5.774   8.147   6.517  0.0257  0.4093 -0.2923
  490MOL0     C67528   5.978   7.503   5.851 -0.5875 -0.2366 -0.3171
  490MOL0     C67529   5.964   7.370   5.813  0.6815  0.0098 -0.2078
  490MOL0     O67530   6.141   7.074   5.830  0.2697 -1.0798 -0.6220
  490MOL0     C67531   6.050   6.832   5.817  1.4216 -0.7240  0.2299
  490MOL0     C67532   6.005   6.702   5.788  0.1513  1.0534  0.9620
  490MOL0     N67533   5.847   6.142   5.273 -0.3600 -0.0492  0.5004
  490MOL0     N67534   5.849   6.171   5.152  0.7394  0.0959  0.5724
  490MOL0     C67535   5.290   6.901   4.520  0.8481  0.6684  0.9951
  490MOL0     C67536   5.236   6.839   4.411  0.7734 -0.9419 -0.7180
  490MOL0     C67537   5.205   6.660   3.970 -0.2827  0.5314  0.4447
  490MOL0     C67538   5.173   6.715   3.843  1.0119 -0.1094  0.3972
  490MOL0     C67539   5.144   6.627   3.736  0.7503 -0.9223  0.7352
  490MOL0     C67540   5.143   6.490   3.755 -0.0747 -0.3785  0.1618
  490MOL0     O67541   5.115   6.396   3.655  0.7974 -0.0321  0.1990
  490MOL0     C67542   5.117   6.431   3.518  0.4845  0.2795  0.3170
  490MOL0     C67543   5.063   6.316   3.440 -0.7151 -0.2698 -0.3492
  490MOL0     C67544   5.037   6.348   3.296 -1.1418 -0.7739 -0.4440
  490MOL0     C67545   5.031   6.220   3.207 -0.7341  0.3774 -0.5315
  490MOL0     C67546   4.981   6.256   3.078 -0.3477  0.1180 -0.5060
  490MOL0     C67547   4.925   6.252   2.973  0.5522  1.0878  0.2656
  490MOL0     C67548   5.171   6.437   3.886  0.7998  0.9482  0.0435
  490MOL0     C67549   5.207   6.515   3.992  0.4806 -0.3893 -0.2095
  490MOL0     C67550   5.244   6.444   4.122  0.2613  0.0775 -0.1643
  490MOL0     H67551   5.499   6.739   4.242 -0.8750 -2.8022  1.4985
  490MOL0     H67552   5.615   6.861   4.451  0.4938  2.1768 -0.8004
  490MOL0     H67553   5.601   7.121   4.705  0.0602 -0.6482  2.6897
  490MOL0     H67554   5.665   7.033   4.574  0.1667  1.6802  1.0255
  490MOL0     H67555   5.763   6.975   4.792  0.4222  0.2054 -0.7056
  490MOL0     H67556   5.619   6.899   4.848 -0.9136 -0.6349 -0.1878
  490MOL0     H67557   5.629   6.737   4.645 -0.5064  0.7495  0.4610
  490MOL0     H67558   5.792   6.803   4.619  1.3403 -1.4360  1.0769
  490MOL0     H67559   5.852   6.747   4.849  0.7963 -0.6112 -0.0195
  490MOL0     H67560   5.694   6.679   4.878 -0.3265 -1.7354 -1.4359
  490MOL0     H67561   5.928   6.541   4.771 -0.6500 -1.2702  2.7821
  490MOL0     H67562   5.804   6.573   4.637  3.0576 -2.6954 -0.6564
  490MOL0     H67563   5.628   6.474   4.789 -0.4425 -2.6168  0.4376
  490MOL0     H67564   5.741   6.367   4.730 -2.6984 -0.7395  0.1824
  490MOL0     H67565   5.751   6.498   5.013 -4.2189 -1.9039  0.0066
  490MOL0     H67566   5.877   6.394   4.946 -0.0338 -1.1723  0.9267
  490MOL0     H67567   5.586   6.295   4.979 -0.5619  2.5390  3.2140
  490MOL0     H67568   5.744   6.205   4.937 -1.3660 -2.3869  1.3540
  490MOL0     H67569   5.621   6.373   5.274 -0.6016 -0.4012  1.9296
  490MOL0     H67570   5.752   6.101   5.522  1.4956 -0.5478 -1.2600
  490MOL0     H67571   5.631   6.241   5.509  0.0274  0.0925 -0.8427
  490MOL0     H67572   5.931   6.247   5.548 -0.1050  0.9066 -1.9777
  490MOL0     H67573   5.851   6.376   5.472  1.7221  1.6923  2.7600
  490MOL0     H67574   5.706   6.395   5.693 -0.5360  0.6745 -1.9951
  490MOL0     H67575   5.797   6.255   5.744 -0.1581 -1.2589 -1.5555
  490MOL0     H67576   5.883   6.461   5.844  0.5495 -1.4235 -1.2391
  490MOL0     H67577   5.993   6.397   5.730 -0.3901 -1.9965  3.4091
  490MOL0     H67578   5.781   6.772   5.559 -3.6205 -2.2759  2.9771
  490MOL0     H67579   5.894   7.063   5.491 -0.2556 -1.4754 -1.7003
  490MOL0     H67580   5.779   7.105   5.641  0.4828 -1.1307  0.6784
  490MOL0     H67581   5.731   7.006   5.511 -0.0168 -0.3337  0.1673
  490MOL0     H67582   6.227   7.306   5.626 -0.4722 -1.5776 -0.5180
  490MOL0     H67583   6.287   7.533   5.688 -0.1396 -0.4333 -1.5596
  490MOL0     H67584   6.325   7.687   5.892  0.4152  1.6145  0.3097
  490MOL0     H67585   6.273   7.766   5.728 -1.0954  1.9015  0.5164
  490MOL0     H67586   6.345   7.951   5.888  1.8120 -0.3159  0.1009
  490MOL0     H67587   6.182   7.957   5.854  0.2278 -0.0215  1.3967
  490MOL0     H67588   6.319   7.892   6.117 -0.8849  0.9863  0.2456
  490MOL0     H67589   6.210   7.766   6.074  1.8413  0.0543 -1.4494
  490MOL0     H67590   6.020   7.865   6.104 -0.8779  1.3269 -0.6648
  490MOL0     H67591   6.073   8.016   6.046 -0.4001  2.3146  3.0481
  490MOL0     H67592   6.157   7.913   6.325 -0.5385  2.2470  0.8020
  490MOL0     H67593   6.199   8.070   6.246  0.3197  0.3672 -3.3317
  490MOL0     H67594   5.915   7.964   6.334 -0.5752  0.5464  3.5139
  490MOL0     H67595   5.941   8.108   6.233 -1.5706 -0.1203  0.9895
  490MOL0     H67596   6.121   8.181   6.418  0.7075 -0.0040  1.2194
  490MOL0     H67597   6.038   8.062   6.515 -1.7042  2.6043  1.0101
  490MOL0     H67598   5.912   8.303   6.381  1.1611  0.3486  2.0178
  490MOL0     H67599   5.966   8.291   6.551  1.9541 -1.2327  0.5068
  490MOL0     H67600   5.908   7.553   5.916  0.4771 -0.4859  1.0660
  490MOL0     H67601   5.873   7.322   5.845 -0.2802  0.5945 -1.9079
  490MOL0     H67602   6.141   6.864   5.867  2.9046 -0.3915 -2.4569
  490MOL0     H67603   6.064   6.622   5.833  2.0694  0.7609 -1.8237
  490MOL0     H67604   5.213   6.943   4.584 -2.9034 -0.8485 -2.1336
  490MOL0     H67605   5.128   6.826   4.406  0.8391 -1.5717 -0.6562
  490MOL0     H67606   5.170   6.823   3.832  0.9089  0.0044  1.4964
  490MOL0     H67607   5.119   6.676   3.643 -4.3106 -3.3256  0.5224
  490MOL0     H67608   5.049   6.514   3.498 -2.0512 -2.2329 -2.2529
  490MOL0     H67609   5.219   6.460   3.488  1.7025 -3.6584  0.0941
  490MOL0     H67610   4.971   6.283   3.489 -0.0770 -1.5238  0.0304
  490MOL0     H67611   5.135   6.234   3.448  1.0727  1.3357  0.9966
  490MOL0     H67612   4.938   6.394   3.289  0.2787  3.2210  2.2372
  490MOL0     H67613   5.114   6.410   3.249 -1.0770 -0.3986  0.1553
  490MOL0     H67614   4.962   6.152   3.258 -0.1151 -0.5949 -0.9686
  490MOL0     H67615   5.130   6.175   3.199  0.0956  2.2786 -1.5070
  490MOL0     H67616   4.880   6.266   2.876  0.0531  1.7503  0.5853
  490MOL0     H67617   5.165   6.329   3.893 -2.1606  1.0573  0.5151
  490MOL0     H67618   5.164   6.466   4.193 -0.0570  0.0936 -0.5233
  490MOL0     H67619   5.247   6.335   4.113 -4.2772 -0.2678  0.4281
  490MOL0     H67620   5.343   6.475   4.157 -0.0804  2.5972 -1.2383
  491MOL0     O67621  11.361   5.691  10.651  0.3298  0.3569 -0.1117
  491MOL0     C67622  11.313   5.685  10.766 -0.5469  0.5096 -0.3456
  491MOL0     O67623  11.281   5.791  10.845  0.5057  0.6011  0.0972
  491MOL0     C67624  11.322   5.917  10.799 -0.7555  0.2737  0.0823
  491MOL0     C67625  11.454   5.968  10.827 -0.4628 -0.2295  0.0247
  491MOL0     C67626  11.493   6.097  10.796  0.3361 -0.0265 -0.4655
  491MOL0     C67627  11.415   6.180  10.722 -0.2709 -0.1465  0.6607
  491MOL0     O67628  11.465   6.303  10.689  0.3619  0.2226 -0.5206
  491MOL0     C67629  11.389   6.396  10.606  0.6864  0.6847 -0.2539
  491MOL0     C67630  11.441   6.540  10.629  0.5579 -0.0922 -1.6128
  491MOL0     C67631  11.467   6.575  10.774 -0.2484 -0.6822 -0.5251
  491MOL0     C67632  11.602   6.637  10.798  0.0981 -0.8633  0.9245
  491MOL0     C67633  11.651   6.648  10.943  0.1273  0.3492  0.0986
  491MOL0     C67634  11.794   6.698  10.965  0.0855 -0.7772  0.3762
  491MOL0     C67635  11.808   6.766  11.108 -0.9927  0.3701 -0.2482
  491MOL0     C67636  11.963   6.795  11.121 -0.0941  0.2622  0.0077
  491MOL0     N67637  11.990   6.848  11.257 -0.0097  1.1945 -0.2667
  491MOL0     C67638  11.995   6.766  11.369 -0.3889 -0.4209 -0.2762
  491MOL0     C67639  12.060   6.851  11.459  0.9800  0.5094 -0.6701
  491MOL0     C67640  12.081   6.809  11.601 -0.0375 -0.6858 -0.2522
  491MOL0     C67641  11.985   6.898  11.681 -0.0744  0.6910  0.8610
  491MOL0     C67642  11.990   6.856  11.829  0.0159 -0.5469 -0.6114
  491MOL0     C67643  11.950   6.979  11.923  0.4161 -0.2215  0.0706
  491MOL0     O67644  12.004   6.962  12.057 -0.3509  0.8246  0.3570
  491MOL0     C67645  11.969   7.065  12.143  0.0901  0.8902 -0.0498
  491MOL0     C67646  11.846   7.058  12.206  0.4673  0.0436 -0.2839
  491MOL0     C67647  11.799   7.151  12.300  1.0023 -0.1028 -0.7188
  491MOL0     C67648  11.667   7.119  12.358  0.1710  0.6749 -0.3971
  491MOL0     C67649  11.867   7.273  12.323 -0.4790  0.0528  1.7204
  491MOL0     C67650  11.817   7.383  12.398  0.1497 -0.3923  0.0941
  491MOL0     O67651  11.910   7.482  12.423 -0.1965 -0.0177  0.5321
  491MOL0     C67652  11.895   7.547  12.542  0.7476  0.6500 -0.7022
  491MOL0     C67653  11.963   7.505  12.655 -0.3295 -0.3971  0.3189
  491MOL0     C67654  11.949   7.564  12.775 -0.7006 -0.9078 -0.2592
  491MOL0     C67655  11.860   7.673  12.789 -0.5473  0.0881 -0.3674
  491MOL0     O67656  11.845   7.723  12.914 -0.1210  0.2433 -0.2765
  491MOL0     C67657  11.832   7.866  12.948 -0.5717  0.3279  0.2583
  491MOL0     C67658  11.938   7.907  13.060  0.6120  0.4149  0.3510
  491MOL0     C67659  12.083   7.894  13.002  1.0529  0.1613 -0.5751
  491MOL0     C67660  12.199   7.939  13.093 -0.1062 -0.0387  0.3936
  491MOL0     C67661  12.330   7.917  13.013 -0.9500  0.3807 -0.4480
  491MOL0     C67662  12.450   7.990  13.084 -0.2465 -0.2326  0.8292
  491MOL0     C67663  12.493   7.937  13.222  0.6160  0.4680  0.2102
  491MOL0     C67664  12.575   8.041  13.301 -0.0591  0.4795  0.3238
  491MOL0    Cl67665  12.742   8.082  13.237 -0.0429 -0.0176 -0.0316
  491MOL0     C67666  11.808   7.730  12.669 -0.6146 -0.4546  0.5023
  491MOL0     C67667  11.823   7.663  12.547  0.4952 -0.2553  0.3263
  491MOL0     O67668  11.703   7.382  12.442 -0.4617  0.4071  0.7954
  491MOL0     C67669  11.992   7.279  12.256  0.9013  0.0766  0.4438
  491MOL0     C67670  12.046   7.182  12.161 -0.0308 -0.0871  0.3311
  491MOL0     N67671  12.094   6.970  11.402 -0.8043  0.6163 -0.3393
  491MOL0     N67672  12.053   6.968  11.286 -0.2536  0.9091 -0.0845
  491MOL0     C67673  11.292   6.129  10.682  0.6407 -0.2717  0.1381
  491MOL0     C67674  11.234   6.002  10.728 -0.1396 -1.1442  1.2123
  491MOL0     C67675  11.311   5.548  10.826 -0.2303  0.0178 -0.3993
  491MOL0     C67676  11.327   5.527  10.962 -0.5456 -0.0866  0.0109
  491MOL0     C67677  11.338   5.395  11.022 -0.0065 -1.2743 -0.7561
  491MOL0     C67678  11.333   5.283  10.937  0.5602  0.4233  0.5795
  491MOL0     O67679  11.368   5.159  10.992  0.5950  0.1147  0.2005
  491MOL0     C67680  11.385   5.051  10.900 -0.0166 -0.5292 -0.4435
  491MOL0     C67681  11.414   4.925  10.988  1.0147 -0.6741  1.4495
  491MOL0     C67682  11.482   4.812  10.911 -0.0733  0.9028  0.6764
  491MOL0     C67683  11.508   4.692  10.993 -0.0117 -0.2386 -0.0264
  491MOL0     C67684  11.631   4.624  10.962  0.0304  0.4790  0.4608
  491MOL0     C67685  11.732   4.574  10.940  0.9135  0.2715  0.0401
  491MOL0     C67686  11.300   5.308  10.802 -0.2309 -0.6500 -0.9171
  491MOL0     C67687  11.288   5.432  10.746  0.5982 -0.5428  0.8010
  491MOL0     C67688  11.241   5.422  10.604  0.2622 -0.3625  0.3503
  491MOL0     H67689  11.520   5.908  10.889  2.0264  1.6095 -0.7191
  491MOL0     H67690  11.594   6.121  10.827  1.5405 -0.6892 -3.5300
  491MOL0     H67691  11.281   6.386  10.624  0.2677  2.3794 -1.5498
  491MOL0     H67692  11.398   6.381  10.498 -1.9244  0.9597 -0.5876
  491MOL0     H67693  11.537   6.544  10.577 -0.1533 -1.6592 -3.1528
  491MOL0     H67694  11.372   6.613  10.585 -1.4405 -1.2611 -0.5585
  491MOL0     H67695  11.384   6.636  10.811 -1.2233 -1.6897 -0.9642
  491MOL0     H67696  11.463   6.481  10.831  2.6865 -0.5556  0.0555
  491MOL0     H67697  11.675   6.564  10.761  0.8097 -0.7836  2.1194
  491MOL0     H67698  11.607   6.725  10.733  1.4396 -0.1737  1.9049
  491MOL0     H67699  11.635   6.547  10.979 -4.2741 -0.3136 -2.8615
  491MOL0     H67700  11.568   6.699  10.994 -2.5858 -1.7609 -1.8938
  491MOL0     H67701  11.862   6.613  10.953  1.8950  0.4930  1.2588
  491MOL0     H67702  11.822   6.780  10.898  1.3160 -0.7657  0.8913
  491MOL0     H67703  11.767   6.710  11.192 -0.4258  1.3806  0.7270
  491MOL0     H67704  11.763   6.866  11.100 -1.4433  0.1082 -1.2423
  491MOL0     H67705  12.022   6.703  11.107  2.2994  1.6083  0.5851
  491MOL0     H67706  12.002   6.858  11.041  2.7810  1.9328  2.4955
  491MOL0     H67707  11.960   6.664  11.381  0.0343 -0.6775 -1.1407
  491MOL0     H67708  12.187   6.824  11.622 -0.3088  1.0819 -0.0013
  491MOL0     H67709  12.053   6.704  11.612 -0.9133 -0.7543 -2.4796
  491MOL0     H67710  12.002   7.005  11.667  1.6504  0.1108 -2.6512
  491MOL0     H67711  11.883   6.869  11.654 -0.1802  0.2333  1.7264
  491MOL0     H67712  11.918   6.775  11.846 -1.7425  0.8883 -0.8985
  491MOL0     H67713  12.094   6.833  11.852 -0.1800 -0.7633  0.0790
  491MOL0     H67714  11.988   7.076  11.891  1.2853  0.5765  3.1150
  491MOL0     H67715  11.841   6.986  11.927  0.5584  2.7666  0.9706
  491MOL0     H67716  11.788   6.967  12.190 -0.3980  0.7355 -1.2327
  491MOL0     H67717  11.626   7.019  12.340 -1.6302  0.7408  2.6764
  491MOL0     H67718  11.596   7.197  12.329 -1.5829 -0.7828 -0.2508
  491MOL0     H67719  11.672   7.136  12.466  3.0884  0.1760 -0.3886
  491MOL0     H67720  12.017   7.410  12.651  0.6814  0.1878 -1.8028
  491MOL0     H67721  11.991   7.543  12.873  2.3588  0.7349 -1.1156
  491MOL0     H67722  11.843   7.934  12.862 -0.0240 -1.2557 -0.9696
  491MOL0     H67723  11.731   7.872  12.990  0.1408  0.3218  2.0515
  491MOL0     H67724  11.914   8.007  13.096 -1.4277  0.1912 -0.2446
  491MOL0     H67725  11.929   7.838  13.144  0.5456 -0.6562 -0.5073
  491MOL0     H67726  12.094   7.951  12.909  0.0874  0.2608 -0.6374
  491MOL0     H67727  12.089   7.787  12.983  1.8750 -0.0429  0.7085
  491MOL0     H67728  12.197   7.878  13.183  0.6348 -0.7414 -0.0476
  491MOL0     H67729  12.198   8.044  13.120  0.5404  0.2449 -0.6085
  491MOL0     H67730  12.343   7.809  13.012 -0.8482  0.3800 -1.9958
  491MOL0     H67731  12.328   7.941  12.906  0.6400  2.5300 -0.0568
  491MOL0     H67732  12.414   8.092  13.101 -5.3892 -1.0802 -2.4831
  491MOL0     H67733  12.535   7.983  13.016 -1.3942  2.1350 -0.9930
  491MOL0     H67734  12.562   7.854  13.203  0.8644  1.5048 -5.1660
  491MOL0     H67735  12.410   7.902  13.284  0.2408  4.7476  2.5118
  491MOL0     H67736  12.585   8.001  13.403  0.3210 -0.5860 -0.1137
  491MOL0     H67737  12.517   8.133  13.293  0.3297  0.5880 -1.8406
  491MOL0     H67738  11.758   7.827  12.674  2.9309  1.9103 -3.2057
  491MOL0     H67739  11.778   7.705  12.457 -0.8892 -1.1181  0.5902
  491MOL0     H67740  12.042   7.375  12.263  0.3877  0.2575  2.4425
  491MOL0     H67741  12.142   7.202  12.114  2.2835 -1.3750  4.0257
  491MOL0     H67742  11.239   6.189  10.609  0.2168  2.4946  2.5354
  491MOL0     H67743  11.137   5.971  10.690 -0.0767  0.4320 -0.3506
  491MOL0     H67744  11.333   5.610  11.033  0.9162 -0.6142  0.5575
  491MOL0     H67745  11.354   5.390  11.129 -1.3141  2.9061 -0.1990
  491MOL0     H67746  11.294   5.031  10.843 -1.0972  2.7344 -0.0670
  491MOL0     H67747  11.475   5.070  10.841  1.9245 -1.9368  1.9140
  491MOL0     H67748  11.314   4.889  11.014 -0.5187  2.8684  1.1492
  491MOL0     H67749  11.467   4.965  11.075  0.4365  4.2060 -0.1367
  491MOL0     H67750  11.433   4.787  10.816  2.1530 -0.2566 -0.2477
  491MOL0     H67751  11.579   4.848  10.874  0.8621 -1.6936  0.3909
  491MOL0     H67752  11.419   4.631  10.970  0.5871  0.0719 -3.6528
  491MOL0     H67753  11.497   4.719  11.099 -0.9274  0.0125 -0.1742
  491MOL0     H67754  11.833   4.543  10.918  0.9516 -1.1501  1.9401
  491MOL0     H67755  11.289   5.224  10.734  2.1323 -1.6970 -0.1337
  491MOL0     H67756  11.173   5.501  10.572 -0.6453 -1.3807 -0.3020
  491MOL0     H67757  11.326   5.427  10.534  0.3451  1.6403  0.5275
  491MOL0     H67758  11.200   5.321  10.595  1.0599 -1.1615  4.0173
  492MOL0     O67759   1.236   9.821   2.861 -0.0424  0.9225  0.1418
  492MOL0     C67760   1.334   9.748   2.892  0.6908  0.2681 -0.0394
  492MOL0     O67761   1.340   9.627   2.957 -0.0665  0.3840  0.3829
  492MOL0     C67762   1.244   9.618   3.051  0.3254  0.5793 -0.2093
  492MOL0     C67763   1.281   9.642   3.181 -0.6290 -0.2300  0.6961
  492MOL0     C67764   1.191   9.609   3.287  0.0499 -0.8767 -0.0123
  492MOL0     C67765   1.065   9.567   3.269  0.4485 -0.3585 -0.0460
  492MOL0     O67766   0.976   9.547   3.370  0.0108  1.6505  0.0055
  492MOL0     C67767   0.874   9.440   3.356 -0.0093 -0.5734 -0.0386
  492MOL0     C67768   0.826   9.391   3.495  0.4996 -0.3644  0.1530
  492MOL0     C67769   0.767   9.511   3.565 -0.4440 -0.0454  1.1478
  492MOL0     C67770   0.664   9.478   3.672 -0.1724  0.3224 -0.1885
  492MOL0     C67771   0.618   9.599   3.762  0.2899  0.5206  0.2075
  492MOL0     C67772   0.532   9.562   3.875  0.5888  0.4056  0.0341
  492MOL0     C67773   0.505   9.678   3.967 -1.0753 -0.2509  0.6085
  492MOL0     C67774   0.483   9.646   4.112 -0.6583 -0.6309  0.2421
  492MOL0     N67775   0.383   9.545   4.130 -0.4048  0.2407  0.7495
  492MOL0     C67776   0.265   9.518   4.053  0.1724 -0.7521  0.6105
  492MOL0     C67777   0.217   9.404   4.107 -0.3412  0.3962 -0.9767
  492MOL0     C67778   0.100   9.320   4.071  0.4338 -0.6490 -0.3754
  492MOL0     C67779   0.027   9.355   3.932  0.2147 -0.9522  0.2859
  492MOL0     C67780  -0.006   9.227   3.848 -0.7135 -0.1712  0.9062
  492MOL0     C67781   0.113   9.149   3.802 -0.5802  0.9231  0.0015
  492MOL0     O67782   0.187   9.243   3.725 -0.4259 -0.5233  0.1968
  492MOL0     C67783   0.283   9.190   3.646  0.1058 -0.2003 -0.2806
  492MOL0     C67784   0.354   9.070   3.669 -0.4681 -0.1036 -0.3456
  492MOL0     C67785   0.452   9.025   3.579  0.2689  0.4968  0.0840
  492MOL0     C67786   0.532   8.895   3.621 -0.0315  1.4704 -0.8204
  492MOL0     C67787   0.490   9.099   3.467 -0.2378 -0.4186 -0.2892
  492MOL0     C67788   0.614   9.076   3.383 -0.0721 -0.0975 -0.4725
  492MOL0     O67789   0.622   9.160   3.273  0.3741 -0.2369 -0.2939
  492MOL0     C67790   0.723   9.175   3.185  0.5778  1.0275  0.3747
  492MOL0     C67791   0.715   9.268   3.092  0.8174 -0.4191  0.3336
  492MOL0     C67792   0.814   9.303   3.002  0.3960  0.2843  0.5193
  492MOL0     C67793   0.941   9.243   3.017 -0.5348 -0.7156 -0.2453
  492MOL0     O67794   1.035   9.277   2.913  0.3690  0.2667 -0.3683
  492MOL0     C67795   1.170   9.236   2.899 -1.1746  0.1847 -0.6162
  492MOL0     C67796   1.181   9.108   2.823  0.0502 -0.4426 -0.8940
  492MOL0     C67797   1.328   9.071   2.779 -0.0841 -0.1131  0.2366
  492MOL0     C67798   1.397   9.001   2.901 -0.6147 -0.3148 -0.8003
  492MOL0     C67799   1.537   8.961   2.877  0.1466 -0.1059  0.3269
  492MOL0     C67800   1.608   8.922   2.997 -0.4815 -0.0155 -0.9301
  492MOL0     C67801   1.672   9.038   3.074 -0.2777 -1.5824 -0.0738
  492MOL0     C67802   1.780   9.112   2.984  0.3583 -0.0779  0.4184
  492MOL0    Cl67803   1.883   9.218   3.074 -0.4439  0.4643  0.3676
  492MOL0     C67804   0.956   9.145   3.118 -0.3082  0.4166  0.4772
  492MOL0     C67805   0.851   9.111   3.198  0.9150  0.8822 -0.0169
  492MOL0     O67806   0.686   8.983   3.413 -0.3695  0.5347  0.3507
  492MOL0     C67807   0.408   9.205   3.438 -0.5677 -0.6879 -0.2431
  492MOL0     C67808   0.314   9.255   3.534  0.0510  0.1014  0.1501
  492MOL0     N67809   0.298   9.368   4.207 -0.5214  0.1260  0.4036
  492MOL0     N67810   0.412   9.441   4.205  0.4643  0.4162  0.0643
  492MOL0     C67811   1.026   9.549   3.130  0.0180 -0.0851 -0.2547
  492MOL0     C67812   1.114   9.576   3.029 -0.6083 -0.6818  0.2486
  492MOL0     C67813   1.456   9.781   2.811  0.1348 -0.5679 -0.4982
  492MOL0     C67814   1.478   9.752   2.681  0.4045  1.2399  0.2451
  492MOL0     C67815   1.601   9.786   2.625 -0.4518 -0.3746 -0.8781
  492MOL0     C67816   1.700   9.837   2.705 -0.5059  0.9275 -1.4062
  492MOL0     O67817   1.822   9.887   2.647  0.3189  0.0508 -0.1665
  492MOL0     C67818   1.951   9.860   2.724  0.8440  0.0676 -0.1992
  492MOL0     C67819   2.024   9.732   2.675  0.1457 -0.1368 -0.4106
  492MOL0     C67820   2.042   9.714   2.518 -0.4188  0.6756 -0.6229
  492MOL0     C67821   2.153   9.804   2.464  0.4848  0.0939 -0.5062
  492MOL0     C67822   2.132   9.827   2.316 -0.9562  0.9783 -0.5662
  492MOL0     C67823   2.129   9.866   2.203  0.2107  0.3706  0.0171
  492MOL0     C67824   1.666   9.888   2.829 -0.4237 -0.5350 -0.1291
  492MOL0     C67825   1.548   9.852   2.891  0.1507 -0.5228 -0.2574
  492MOL0     C67826   1.526   9.900   3.036 -0.3491  0.4856  0.5932
  492MOL0     H67827   1.376   9.680   3.217 -2.2276  1.5752  3.3958
  492MOL0     H67828   1.225   9.644   3.384  1.6807  0.8982 -1.1428
  492MOL0     H67829   0.919   9.357   3.300  0.4134 -0.9841  0.8807
  492MOL0     H67830   0.797   9.490   3.297  0.3714 -0.4356 -0.4241
  492MOL0     H67831   0.745   9.319   3.480 -0.4591  0.8620 -0.7254
  492MOL0     H67832   0.902   9.346   3.561 -0.0509  1.0794  1.8604
  492MOL0     H67833   0.841   9.571   3.619 -1.1254  1.8883  0.0216
  492MOL0     H67834   0.717   9.590   3.509 -2.3218 -1.3284  0.9270
  492MOL0     H67835   0.575   9.425   3.636  0.8154  0.1269 -2.5170
  492MOL0     H67836   0.732   9.417   3.732  0.4378  1.2078  0.0529
  492MOL0     H67837   0.572   9.678   3.701  2.5820  2.9701  1.4200
  492MOL0     H67838   0.704   9.647   3.810 -0.8866  0.5955  2.3828
  492MOL0     H67839   0.435   9.526   3.840  0.0288 -1.4812  3.1380
  492MOL0     H67840   0.593   9.491   3.933 -0.0919  0.3606  0.7119
  492MOL0     H67841   0.417   9.735   3.935 -1.3633 -0.8646  0.2912
  492MOL0     H67842   0.584   9.754   3.968  1.6680 -2.8912 -0.1454
  492MOL0     H67843   0.581   9.612   4.148 -0.5566 -3.0336 -2.0004
  492MOL0     H67844   0.455   9.739   4.164  1.7943  1.2870 -1.6054
  492MOL0     H67845   0.226   9.588   3.980 -1.8359 -0.6351  1.7205
  492MOL0     H67846   0.027   9.337   4.151 -1.8032 -2.2432 -1.9497
  492MOL0     H67847   0.123   9.213   4.076 -3.7047 -1.7700 -1.2012
  492MOL0     H67848  -0.063   9.417   3.937 -0.7099 -2.0462 -1.6472
  492MOL0     H67849   0.094   9.418   3.873 -1.1248  0.3371  0.0764
  492MOL0     H67850  -0.073   9.168   3.911 -3.0183  1.7397  0.4040
  492MOL0     H67851  -0.077   9.253   3.768  0.6562  3.4980  0.6917
  492MOL0     H67852   0.171   9.119   3.889 -1.1743 -1.7141 -0.4251
  492MOL0     H67853   0.082   9.061   3.745  0.7442  0.0787  0.5498
  492MOL0     H67854   0.344   9.030   3.770 -1.5393  0.9730  0.0025
  492MOL0     H67855   0.638   8.905   3.645 -0.2771 -0.7405  1.6303
  492MOL0     H67856   0.527   8.827   3.535 -3.4218 -0.8134  0.9428
  492MOL0     H67857   0.484   8.833   3.697  0.7828  1.3962 -0.3581
  492MOL0     H67858   0.617   9.314   3.100  0.6103  0.1844 -3.5022
  492MOL0     H67859   0.788   9.360   2.914 -1.7134 -0.4489  0.6116
  492MOL0     H67860   1.236   9.309   2.852  0.8233 -2.4148 -2.0887
  492MOL0     H67861   1.217   9.212   2.995  1.9933 -0.3381 -2.1792
  492MOL0     H67862   1.153   9.018   2.878  1.6422 -1.2163 -1.2895
  492MOL0     H67863   1.107   9.111   2.742  0.2407 -0.1282 -1.0593
  492MOL0     H67864   1.388   9.159   2.755  0.0777 -0.3922 -0.3931
  492MOL0     H67865   1.329   9.011   2.688 -3.7931  1.8255 -1.3247
  492MOL0     H67866   1.340   8.913   2.932  1.5025 -1.4264  0.1117
  492MOL0     H67867   1.406   9.070   2.985  2.3491  0.2465 -1.4878
  492MOL0     H67868   1.552   8.876   2.809  0.9744  1.1141 -1.0764
  492MOL0     H67869   1.589   9.042   2.824 -1.8043  1.3028  0.4677
  492MOL0     H67870   1.679   8.842   2.972 -1.4586 -1.4499  0.6572
  492MOL0     H67871   1.535   8.881   3.068  2.8860 -0.9538  2.3222
  492MOL0     H67872   1.735   8.998   3.154 -0.6380 -1.3620  0.3267
  492MOL0     H67873   1.595   9.108   3.107  0.7351 -0.4416 -0.0334
  492MOL0     H67874   1.746   9.163   2.894 -1.2877  0.5169  1.3445
  492MOL0     H67875   1.853   9.051   2.930  0.9328  2.5734 -2.0643
  492MOL0     H67876   1.053   9.096   3.115 -1.6388 -2.4610 -3.0887
  492MOL0     H67877   0.867   9.044   3.281 -3.3594 -0.4197 -0.0118
  492MOL0     H67878   0.419   9.259   3.344  0.7179 -2.2715 -1.0420
  492MOL0     H67879   0.258   9.346   3.513 -0.4745 -0.2141  0.1790
  492MOL0     H67880   0.925   9.515   3.112  0.8467 -1.5510 -2.4744
  492MOL0     H67881   1.096   9.560   2.923  0.1685  1.4130 -0.2478
  492MOL0     H67882   1.398   9.702   2.627  1.4174 -0.8823  0.6396
  492MOL0     H67883   1.627   9.759   2.523 -0.5945  0.8272 -1.2430
  492MOL0     H67884   2.014   9.946   2.701 -2.0412  2.8619  1.4048
  492MOL0     H67885   1.929   9.846   2.831 -0.7815  1.0103 -0.3862
  492MOL0     H67886   1.980   9.641   2.718 -0.1354 -0.2731 -0.9707
  492MOL0     H67887   2.129   9.709   2.695  0.3322 -1.5803 -2.6607
  492MOL0     H67888   2.072   9.612   2.493 -3.0867 -0.9982  2.3570
  492MOL0     H67889   1.947   9.724   2.465 -1.2547 -1.6877  0.3138
  492MOL0     H67890   2.253   9.767   2.487  0.1060 -0.9802 -0.5443
  492MOL0     H67891   2.145   9.901   2.514  2.8862  0.7120 -1.1955
  492MOL0     H67892   2.118   9.907   2.105 -2.0267 -0.4716 -0.1593
  492MOL0     H67893   1.735   9.944   2.892  1.3308 -3.6408  0.9104
  492MOL0     H67894   1.518  10.009   3.035 -0.0656  0.5114 -0.6369
  492MOL0     H67895   1.439   9.858   3.086 -2.4971  1.8021 -1.8014
  492MOL0     H67896   1.614   9.877   3.098 -0.2323  0.7067  0.5091
  493MOL0     O67897   0.953   3.083   1.860 -0.1912  0.0453  0.6802
  493MOL0     C67898   1.063   3.073   1.817 -0.2003 -0.4102  0.4819
  493MOL0     O67899   1.115   3.167   1.732 -0.2392 -0.4274  0.6178
  493MOL0     C67900   1.037   3.253   1.657  0.0125 -0.2678  0.2911
  493MOL0     C67901   0.912   3.223   1.605  0.7191 -0.3688 -0.0701
  493MOL0     C67902   0.847   3.322   1.531 -0.1837  0.1210 -0.5530
  493MOL0     C67903   0.893   3.453   1.525 -0.9158 -0.4834 -1.0855
  493MOL0     O67904   0.830   3.534   1.433 -0.6936 -0.0235 -0.1496
  493MOL0     C67905   0.837   3.674   1.457  0.5154 -0.3489 -0.1000
  493MOL0     C67906   0.929   3.738   1.356 -1.2408  0.0930  0.7141
  493MOL0     C67907   0.868   3.753   1.218  0.1696  0.1860 -1.5401
  493MOL0     C67908   0.967   3.766   1.100  0.1364  0.8671  0.4893
  493MOL0     C67909   0.894   3.754   0.957  0.3743 -0.0063 -0.7825
  493MOL0     C67910   0.799   3.884   0.934 -1.2272  0.2351  0.7209
  493MOL0     C67911   0.685   3.882   0.819  0.0913  0.8917 -0.1940
  493MOL0     C67912   0.755   3.830   0.692 -0.0746  0.0509  0.2064
  493MOL0     N67913   0.685   3.860   0.571 -0.5705 -1.0381  0.5129
  493MOL0     C67914   0.634   3.983   0.540 -0.0317  0.9407  0.0894
  493MOL0     C67915   0.645   3.999   0.407 -0.2098  0.7341 -0.2516
  493MOL0     C67916   0.618   4.118   0.327 -0.9880  0.2501 -1.1791
  493MOL0     C67917   0.659   4.245   0.390 -0.9830 -0.2518 -0.8034
  493MOL0     C67918   0.618   4.373   0.301  0.3120  0.7742  0.0557
  493MOL0     C67919   0.705   4.494   0.326 -0.8687 -0.7567  1.3279
  493MOL0     O67920   0.651   4.622   0.290  0.8367  0.2269 -0.4418
  493MOL0     C67921   0.533   4.659   0.351  0.4362 -0.0912 -0.2805
  493MOL0     C67922   0.494   4.621   0.481  1.1741 -0.1983  0.6447
  493MOL0     C67923   0.393   4.689   0.551  0.2529 -0.0152 -0.7560
  493MOL0     C67924   0.353   4.639   0.689  0.1873 -1.5225 -0.0733
  493MOL0     C67925   0.324   4.795   0.500 -0.0559 -0.0354 -0.0553
  493MOL0     C67926   0.224   4.875   0.572  0.8836  0.1255 -0.3356
  493MOL0     O67927   0.212   5.007   0.548 -0.0763 -0.3257  0.3862
  493MOL0     C67928   0.115   5.079   0.611 -0.1082 -0.3872 -0.1866
  493MOL0     C67929   0.008   5.124   0.535 -0.4851  0.1830 -0.2217
  493MOL0     C67930  -0.085   5.210   0.593 -0.3280  0.5016 -0.4695
  493MOL0     C67931  -0.083   5.236   0.728 -0.2104  0.1324 -0.3744
  493MOL0     O67932  -0.184   5.315   0.783 -0.4938 -0.0187  0.4624
  493MOL0     C67933  -0.295   5.239   0.832  0.6291 -0.2615 -0.0654
  493MOL0     C67934  -0.421   5.274   0.764 -0.6886 -0.3367 -1.0877
  493MOL0     C67935  -0.535   5.238   0.861  0.1143  0.3336  0.7085
  493MOL0     C67936  -0.676   5.226   0.789 -0.6222  0.1694  0.0267
  493MOL0     C67937  -0.792   5.163   0.884 -1.2210  0.3949 -0.4592
  493MOL0     C67938  -0.929   5.125   0.819  0.0863 -0.4800  0.6141
  493MOL0     C67939  -0.926   5.028   0.702 -0.2978 -0.2513 -0.2337
  493MOL0     C67940  -1.056   4.988   0.640  0.1602 -0.0661  0.3522
  493MOL0    Cl67941  -1.046   4.894   0.480 -0.0846  0.1975 -0.3648
  493MOL0     C67942   0.023   5.199   0.805  1.0237 -0.7985  0.7908
  493MOL0     C67943   0.121   5.119   0.746 -0.2667 -0.0447 -0.1603
  493MOL0     O67944   0.149   4.809   0.641  0.2643  1.0676 -0.2967
  493MOL0     C67945   0.374   4.838   0.373 -0.8412 -0.8984 -0.1694
  493MOL0     C67946   0.476   4.775   0.301  0.7827 -0.1064 -0.5878
  493MOL0     N67947   0.685   3.876   0.352  0.0499 -0.2859  0.4299
  493MOL0     N67948   0.702   3.792   0.450  0.4811  0.1454 -0.3593
  493MOL0     C67949   1.011   3.484   1.597 -0.8173  0.0148  0.4145
  493MOL0     C67950   1.085   3.381   1.652 -1.5441 -0.6421  0.1366
  493MOL0     C67951   1.166   3.003   1.899 -0.2444 -0.2242  0.3096
  493MOL0     C67952   1.278   3.077   1.930 -0.3388 -0.9414  1.2593
  493MOL0     C67953   1.396   3.018   1.978 -1.0980 -0.5724 -0.9677
  493MOL0     C67954   1.388   2.881   2.029  0.9929 -0.2366  0.1138
  493MOL0     O67955   1.487   2.834   2.107 -0.4275  0.0044  0.1341
  493MOL0     C67956   1.577   2.741   2.043 -0.3317  0.5005  0.1202
  493MOL0     C67957   1.708   2.722   2.119  0.3748 -0.3896  0.0230
  493MOL0     C67958   1.809   2.630   2.036 -0.4216 -0.3610  0.4739
  493MOL0     C67959   1.887   2.704   1.918 -0.0103  0.6133 -0.1186
  493MOL0     C67960   1.927   2.587   1.831  0.5301 -0.1386  0.0385
  493MOL0     C67961   1.939   2.506   1.743  0.2060 -0.4495  0.3750
  493MOL0     C67962   1.271   2.812   1.998  0.0324  0.7864 -0.1512
  493MOL0     C67963   1.160   2.875   1.941  0.6593  0.0054 -0.0256
  493MOL0     C67964   1.048   2.792   1.911 -0.0111  0.3369 -0.0771
  493MOL0     H67965   0.880   3.120   1.613  0.1897 -0.1122  1.6231
  493MOL0     H67966   0.751   3.308   1.483 -1.1235  2.1171  0.6049
  493MOL0     H67967   0.874   3.687   1.559  0.6644 -0.2242 -0.1697
  493MOL0     H67968   0.740   3.722   1.442  1.3889  1.6638  0.4426
  493MOL0     H67969   0.949   3.840   1.393  1.7153 -0.1963  0.1605
  493MOL0     H67970   1.033   3.706   1.349 -0.4538  1.7873  3.1778
  493MOL0     H67971   0.800   3.667   1.214  0.4863 -0.5582  3.0259
  493MOL0     H67972   0.813   3.847   1.222  0.1129  0.1147  0.2370
  493MOL0     H67973   1.025   3.859   1.110 -1.9696  2.4186 -0.9462
  493MOL0     H67974   1.037   3.681   1.099  1.0119  1.5595 -0.3973
  493MOL0     H67975   0.835   3.665   0.932 -0.4618  0.0245  0.9288
  493MOL0     H67976   0.971   3.744   0.880  0.9774 -4.4585  0.1207
  493MOL0     H67977   0.740   3.897   1.025  1.6878  1.9770  2.5091
  493MOL0     H67978   0.866   3.969   0.921  0.7313 -1.1404  1.3280
  493MOL0     H67979   0.634   3.979   0.810 -1.0888  0.4501  1.3136
  493MOL0     H67980   0.611   3.802   0.826  1.5475 -0.7151 -2.0605
  493MOL0     H67981   0.852   3.882   0.694  0.0936 -0.2675  0.4023
  493MOL0     H67982   0.783   3.724   0.701  1.5790  0.4050 -0.3591
  493MOL0     H67983   0.608   4.059   0.612  3.0392  1.8729  0.3472
  493MOL0     H67984   0.512   4.109   0.301 -1.3537 -0.3470  0.4140
  493MOL0     H67985   0.679   4.116   0.236  1.2181 -3.7210  0.1555
  493MOL0     H67986   0.610   4.256   0.487 -1.4257  1.6615 -1.2099
  493MOL0     H67987   0.764   4.248   0.423 -0.7406 -2.5223 -1.1982
  493MOL0     H67988   0.617   4.357   0.193 -0.8430  0.5839  0.0868
  493MOL0     H67989   0.516   4.394   0.332  1.4761  3.2916  2.5832
  493MOL0     H67990   0.743   4.493   0.428 -0.5651  2.7262  1.3495
  493MOL0     H67991   0.797   4.494   0.267 -0.9893 -1.9199  1.1092
  493MOL0     H67992   0.544   4.553   0.550 -0.3017  0.0585  2.0523
  493MOL0     H67993   0.427   4.568   0.725  0.5669 -0.2095  1.8618
  493MOL0     H67994   0.253   4.596   0.704 -0.5530 -0.5405 -1.8254
  493MOL0     H67995   0.350   4.723   0.759  1.8159 -1.5329  0.0478
  493MOL0     H67996   0.026   5.100   0.430 -0.9353  2.3480 -0.8261
  493MOL0     H67997  -0.170   5.255   0.542  0.5577  1.2557 -1.3001
  493MOL0     H67998  -0.277   5.131   0.827 -1.5416 -0.6190 -1.5916
  493MOL0     H67999  -0.305   5.268   0.937 -1.5526  0.8104 -0.5078
  493MOL0     H68000  -0.426   5.382   0.746 -0.5392 -0.2050 -0.3741
  493MOL0     H68001  -0.430   5.199   0.685 -2.3806 -0.4762 -0.8117
  493MOL0     H68002  -0.540   5.328   0.924  1.6512  0.9682 -0.0192
  493MOL0     H68003  -0.517   5.143   0.911 -1.9294 -0.8668 -0.6763
  493MOL0     H68004  -0.666   5.154   0.707 -1.8377 -1.1192  0.9486
  493MOL0     H68005  -0.698   5.329   0.762  1.4263  1.3292  2.4385
  493MOL0     H68006  -0.746   5.071   0.920 -1.5275 -0.7085 -2.6803
  493MOL0     H68007  -0.804   5.234   0.966 -0.2729 -2.0495  1.9262
  493MOL0     H68008  -0.971   5.220   0.785  1.3040  0.4403  1.6087
  493MOL0     H68009  -0.998   5.089   0.896  0.8630 -5.0819 -0.5683
  493MOL0     H68010  -0.889   4.930   0.736  0.2817 -0.4161 -1.3025
  493MOL0     H68011  -0.861   5.063   0.622 -1.3540  3.6142  0.3946
  493MOL0     H68012  -1.111   5.079   0.614 -2.2377 -2.2689 -3.0552
  493MOL0     H68013  -1.120   4.935   0.711 -1.0188  0.2463 -0.4400
  493MOL0     H68014   0.032   5.231   0.908  2.8864 -1.1372  0.7639
  493MOL0     H68015   0.203   5.074   0.800 -0.6997 -2.6638 -1.5402
  493MOL0     H68016   0.334   4.927   0.324  0.9814 -1.7962 -3.5912
  493MOL0     H68017   0.514   4.818   0.209  1.3791 -0.5567 -0.5605
  493MOL0     H68018   1.068   3.571   1.566  0.7344 -0.8624  0.7242
  493MOL0     H68019   1.176   3.413   1.700 -1.3274 -0.2561 -0.5221
  493MOL0     H68020   1.302   3.181   1.914 -1.2674 -0.4840  2.6685
  493MOL0     H68021   1.475   3.087   2.006 -3.1759  0.3033  3.7145
  493MOL0     H68022   1.538   2.640   2.031 -1.8725  1.3408 -2.9607
  493MOL0     H68023   1.597   2.781   1.943 -0.8331  3.1376  1.0072
  493MOL0     H68024   1.690   2.669   2.213  1.8114 -1.9325 -0.5135
  493MOL0     H68025   1.758   2.817   2.138 -0.0436  0.5607 -3.0533
  493MOL0     H68026   1.872   2.582   2.112  0.2462 -3.3816 -1.7892
  493MOL0     H68027   1.747   2.548   1.998 -0.0916  0.3237 -1.6728
  493MOL0     H68028   1.970   2.756   1.965 -0.4477 -0.3271  1.8399
  493MOL0     H68029   1.823   2.777   1.868  0.8451  1.3078 -0.2116
  493MOL0     H68030   1.936   2.422   1.677  0.7597  0.3312 -0.6734
  493MOL0     H68031   1.261   2.707   2.022 -0.3830  0.1764 -2.6505
  493MOL0     H68032   0.959   2.838   1.955  0.3718 -0.1709  1.2943
  493MOL0     H68033   1.034   2.797   1.803 -3.8771  2.7541  0.3214
  493MOL0     H68034   1.062   2.688   1.942 -0.1159  1.0300  2.5641
  494MOL0     O68035   2.985   9.230   8.005  1.1457 -0.0806 -0.2357
  494MOL0     C68036   2.944   9.118   7.972 -0.4896 -0.1897  0.4051
  494MOL0     O68037   3.025   9.009   7.937 -1.0737  0.2266 -0.2072
  494MOL0     C68038   3.146   9.018   7.874  0.1435 -0.3933  0.1453
  494MOL0     C68039   3.263   8.967   7.934  0.1080  0.6811  0.8243
  494MOL0     C68040   3.379   8.961   7.858 -0.1644 -0.7971 -0.0216
  494MOL0     C68041   3.374   8.990   7.717  0.0903 -0.9705 -0.0409
  494MOL0     O68042   3.482   8.990   7.631  0.0873  0.4318  0.4068
  494MOL0     C68043   3.612   8.977   7.697  1.3434 -0.3661  0.2547
  494MOL0     C68044   3.737   8.981   7.608 -0.1319  0.8489  0.6991
  494MOL0     C68045   3.805   9.123   7.620  0.4293 -0.1940 -0.8374
  494MOL0     C68046   3.954   9.113   7.593 -1.0208 -0.0693  0.2873
  494MOL0     C68047   4.020   9.248   7.590 -0.0585  0.9317 -0.1467
  494MOL0     C68048   4.153   9.261   7.521 -0.0293  0.9158  0.4767
  494MOL0     C68049   4.169   9.213   7.380  0.4872  0.2981  0.4457
  494MOL0     C68050   4.314   9.241   7.338 -0.3461  0.3197 -0.6312
  494MOL0     N68051   4.345   9.220   7.196  0.5555  0.1177 -0.7361
  494MOL0     C68052   4.354   9.097   7.140  0.9495  0.8228 -0.0204
  494MOL0     C68053   4.407   9.120   7.016  0.0614  0.8255 -0.6756
  494MOL0     C68054   4.436   9.014   6.916 -0.1439 -0.1429  0.0318
  494MOL0     C68055   4.337   9.010   6.812  0.7606 -0.5684  0.5859
  494MOL0     C68056   4.333   8.869   6.745 -0.0469 -0.5184  0.0540
  494MOL0     C68057   4.467   8.821   6.697  0.4896  0.2126 -0.6465
  494MOL0     O68058   4.440   8.732   6.588 -0.2612 -0.3432  0.4926
  494MOL0     C68059   4.539   8.646   6.555  0.9826  0.2383  0.3192
  494MOL0     C68060   4.509   8.555   6.453 -0.0573  0.2232 -0.3068
  494MOL0     C68061   4.607   8.476   6.396  0.7939  0.8550  0.8747
  494MOL0     C68062   4.576   8.390   6.281 -0.6319  0.1129  0.3036
  494MOL0     C68063   4.742   8.487   6.442 -0.2580 -0.0485  0.2957
  494MOL0     C68064   4.869   8.426   6.383 -0.0527 -0.6120  0.0493
  494MOL0     O68065   4.871   8.422   6.250  1.2533 -0.1878 -0.0244
  494MOL0     C68066   4.970   8.362   6.183 -0.5253 -0.0434 -0.1932
  494MOL0     C68067   4.944   8.245   6.113  0.0207  0.6165  0.4533
  494MOL0     C68068   5.052   8.200   6.026 -0.2928 -0.4724  0.8165
  494MOL0     C68069   5.179   8.260   6.021 -0.1489 -0.6892 -0.5858
  494MOL0     O68070   5.275   8.195   5.952 -0.2853 -0.1130  0.5879
  494MOL0     C68071   5.400   8.172   6.017 -0.1137 -0.6651 -0.7458
  494MOL0     C68072   5.477   8.085   5.924 -0.9267 -0.3279 -0.0641
  494MOL0     C68073   5.584   8.160   5.844  0.9012  1.1114  0.3082
  494MOL0     C68074   5.668   8.080   5.745  0.7880 -0.4850 -0.2251
  494MOL0     C68075   5.808   8.143   5.761 -0.7336  0.0321  0.6801
  494MOL0     C68076   5.911   8.116   5.652 -0.0512  0.8096  0.9389
  494MOL0     C68077   5.939   7.969   5.619 -0.0878  0.5576  0.2536
  494MOL0     C68078   5.873   7.936   5.488 -0.2539 -0.7862 -0.8020
  494MOL0    Cl68079   5.917   7.776   5.438 -0.8059  0.0438  0.0426
  494MOL0     C68080   5.200   8.359   6.106 -0.1345  0.4137 -0.1440
  494MOL0     C68081   5.100   8.411   6.181 -0.8958  0.2801 -0.8178
  494MOL0     O68082   4.959   8.400   6.461 -0.2695  0.3991  0.5610
  494MOL0     C68083   4.769   8.560   6.560 -0.4940 -0.9386  0.3290
  494MOL0     C68084   4.671   8.640   6.619  0.3845  0.4861  0.8924
  494MOL0     N68085   4.417   9.253   7.006 -0.5389  0.2707 -0.0056
  494MOL0     N68086   4.392   9.314   7.120  0.0917  0.5799  0.6440
  494MOL0     C68087   3.256   9.037   7.658 -0.5142 -0.1249  0.2174
  494MOL0     C68088   3.145   9.052   7.739 -0.7374  0.2421 -0.6111
  494MOL0     C68089   2.801   9.105   7.930  0.1021  0.3174  0.0414
  494MOL0     C68090   2.759   8.985   7.870 -1.4806 -0.5471  1.2196
  494MOL0     C68091   2.620   8.966   7.836  0.7292  0.3815 -0.0085
  494MOL0     C68092   2.524   9.066   7.839 -0.2612  0.6137 -0.0977
  494MOL0     O68093   2.401   9.022   7.797  0.3715 -0.2131 -0.4657
  494MOL0     C68094   2.296   8.990   7.902  0.1231 -0.6809 -0.4761
  494MOL0     C68095   2.232   9.131   7.923  1.2943  0.3007 -0.4248
  494MOL0     C68096   2.094   9.130   7.985 -0.1407  1.0029 -0.7118
  494MOL0     C68097   2.099   9.095   8.136 -0.8101  0.0908 -0.6669
  494MOL0     C68098   1.974   9.146   8.214 -0.0981 -1.5498 -0.4865
  494MOL0     C68099   1.876   9.198   8.264  0.4926  0.1850  0.2337
  494MOL0     C68100   2.560   9.190   7.877  0.5393  0.2952  0.1863
  494MOL0     C68101   2.701   9.216   7.916  1.2613  0.0124  1.0232
  494MOL0     C68102   2.737   9.365   7.955  0.7748  0.5346  0.9364
  494MOL0     H68103   3.272   8.934   8.038  1.2012  1.7441  1.0784
  494MOL0     H68104   3.472   8.922   7.896 -1.2472 -3.0570  0.4672
  494MOL0     H68105   3.601   8.873   7.727 -1.4736  0.0410  0.9856
  494MOL0     H68106   3.619   9.043   7.784 -4.4545 -1.6118  2.1271
  494MOL0     H68107   3.810   8.906   7.641 -1.3783 -0.7651 -0.0171
  494MOL0     H68108   3.716   8.967   7.501  2.8766 -2.5595  0.3503
  494MOL0     H68109   3.759   9.195   7.552  0.0029 -1.0496 -1.4836
  494MOL0     H68110   3.795   9.165   7.720  2.3549 -0.5980 -0.4269
  494MOL0     H68111   4.005   9.056   7.671  3.9143  3.1183 -0.1650
  494MOL0     H68112   3.952   9.060   7.498 -0.4632  1.0976 -0.3998
  494MOL0     H68113   4.028   9.283   7.693 -0.8542 -1.3555  0.7345
  494MOL0     H68114   3.943   9.311   7.545  0.1920  0.7314 -0.8657
  494MOL0     H68115   4.189   9.363   7.535  0.5989  0.3755  3.5077
  494MOL0     H68116   4.230   9.210   7.579  0.7854  0.7025 -0.7561
  494MOL0     H68117   4.097   9.260   7.312  0.6115 -0.5302 -0.2723
  494MOL0     H68118   4.133   9.110   7.379 -1.2102  0.5014 -6.0442
  494MOL0     H68119   4.333   9.348   7.346  1.7757 -0.0269 -0.5734
  494MOL0     H68120   4.384   9.178   7.393 -1.4821  1.1231  1.8405
  494MOL0     H68121   4.327   9.007   7.195 -2.2060  0.0420 -2.5163
  494MOL0     H68122   4.458   8.917   6.962  0.5850 -0.2670 -0.5446
  494MOL0     H68123   4.532   9.044   6.871  0.6482 -1.8871  0.4873
  494MOL0     H68124   4.242   9.044   6.855  0.7446 -0.8632  0.7917
  494MOL0     H68125   4.359   9.085   6.736  2.0684 -2.3936 -0.9344
  494MOL0     H68126   4.288   8.806   6.822  2.4066  0.1550  2.1538
  494MOL0     H68127   4.259   8.870   6.664  0.4672 -1.7390 -0.4604
  494MOL0     H68128   4.518   8.912   6.665  3.8580 -1.0131  0.7070
  494MOL0     H68129   4.520   8.766   6.776 -0.4754 -0.9865 -0.7949
  494MOL0     H68130   4.407   8.554   6.415  0.1549 -0.3721 -0.8723
  494MOL0     H68131   4.470   8.398   6.256 -1.0547 -1.9997  1.2205
  494MOL0     H68132   4.607   8.286   6.294  0.5281  0.3177 -0.5937
  494MOL0     H68133   4.633   8.433   6.198 -2.6095 -1.5811 -2.0695
  494MOL0     H68134   4.845   8.202   6.123 -0.5139  1.8194  0.5522
  494MOL0     H68135   5.026   8.118   5.960 -1.1757  1.3464 -1.2100
  494MOL0     H68136   5.446   8.268   6.041  0.8405 -1.3489  0.2688
  494MOL0     H68137   5.390   8.111   6.107  2.9522  1.5366  1.2783
  494MOL0     H68138   5.525   8.010   5.987 -0.6787 -1.6080 -1.7451
  494MOL0     H68139   5.415   8.032   5.852 -1.4272 -0.9931  0.8422
  494MOL0     H68140   5.653   8.205   5.916 -0.0458  1.3125  1.1201
  494MOL0     H68141   5.530   8.233   5.783 -0.1414 -0.9598 -1.3393
  494MOL0     H68142   5.638   8.098   5.642  0.0915 -1.4681 -0.2199
  494MOL0     H68143   5.664   7.973   5.768  1.6595  0.0492  2.9332
  494MOL0     H68144   5.795   8.252   5.759  3.2529  0.6945 -1.2490
  494MOL0     H68145   5.854   8.120   5.857  1.5329 -1.4505 -0.6462
  494MOL0     H68146   6.009   8.157   5.677 -0.1577  1.0776  0.9130
  494MOL0     H68147   5.885   8.165   5.557  2.1938  0.6990  0.2112
  494MOL0     H68148   5.879   7.912   5.691 -2.7273  2.1612 -0.5451
  494MOL0     H68149   6.047   7.951   5.614  1.0439  5.1480  2.4649
  494MOL0     H68150   5.925   8.004   5.420  2.1474 -2.3432 -0.6407
  494MOL0     H68151   5.764   7.943   5.487 -0.2399 -0.6247 -1.2843
  494MOL0     H68152   5.295   8.412   6.113 -0.0873  0.1665  1.3420
  494MOL0     H68153   5.129   8.487   6.253  0.4555 -0.8480 -0.1247
  494MOL0     H68154   4.869   8.563   6.603 -0.5803 -1.2919  0.5636
  494MOL0     H68155   4.710   8.695   6.704  0.0758 -0.7226  1.8476
  494MOL0     H68156   3.252   9.056   7.551  2.7087 -2.1292 -0.4226
  494MOL0     H68157   3.050   9.088   7.700  0.0124  0.0572 -2.7578
  494MOL0     H68158   2.834   8.913   7.838 -0.0186  1.1457  0.6802
  494MOL0     H68159   2.590   8.872   7.792  1.2150  1.6646 -3.4014
  494MOL0     H68160   2.218   8.920   7.872 -2.2916 -0.1985  3.8372
  494MOL0     H68161   2.334   8.948   7.996 -1.1232 -2.4927 -0.7460
  494MOL0     H68162   2.225   9.190   7.830  2.3666  1.7693  0.3836
  494MOL0     H68163   2.300   9.196   7.977 -0.5910  2.1315 -0.0949
  494MOL0     H68164   2.060   9.234   7.985  0.7983  1.3550  1.2556
  494MOL0     H68165   2.029   9.056   7.937  3.3514 -3.1292  0.3026
  494MOL0     H68166   2.182   9.149   8.182  0.0678  0.2671 -2.3701
  494MOL0     H68167   2.117   8.988   8.150 -3.5531 -0.3160  0.3631
  494MOL0     H68168   1.792   9.249   8.309  0.8093  2.2643 -1.3755
  494MOL0     H68169   2.482   9.262   7.856 -1.9523 -1.4348  2.8265
  494MOL0     H68170   2.782   9.370   8.054  0.7801 -0.7554  1.0152
  494MOL0     H68171   2.812   9.398   7.883  0.9975  0.2870  1.0507
  494MOL0     H68172   2.649   9.429   7.948  0.7548  0.5199  1.0529
  495MOL0     O68173   5.277   1.729   4.162 -0.1934 -0.7693 -1.2463
  495MOL0     C68174   5.378   1.714   4.232 -0.5239 -0.3266 -0.8271
  495MOL0     O68175   5.390   1.695   4.370 -0.0379  0.2651  0.3100
  495MOL0     C68176   5.286   1.727   4.451  0.0254 -0.2006 -0.0033
  495MOL0     C68177   5.166   1.652   4.459  0.4076  0.9763  1.2017
  495MOL0     C68178   5.070   1.680   4.560  0.0401  0.6016  0.6463
  495MOL0     C68179   5.088   1.775   4.652  0.7392 -1.5505 -0.0859
  495MOL0     O68180   4.993   1.800   4.747 -0.0176  0.3637  0.5987
  495MOL0     C68181   4.972   1.936   4.802  0.0575 -0.4898 -0.0134
  495MOL0     C68182   4.832   1.920   4.865 -0.3957  0.3691  0.1992
  495MOL0     C68183   4.714   1.903   4.775 -0.5716 -0.0617  0.4791
  495MOL0     C68184   4.591   1.925   4.860 -0.2212 -0.5528  0.5521
  495MOL0     C68185   4.494   2.018   4.790  0.0084 -0.2133 -0.3861
  495MOL0     C68186   4.371   2.056   4.865 -0.1167  0.3533  0.0273
  495MOL0     C68187   4.409   2.174   4.956 -0.6009 -0.4251  0.5095
  495MOL0     C68188   4.288   2.252   5.010  0.8024 -0.0009  0.3366
  495MOL0     N68189   4.194   2.162   5.073  0.0135 -0.0790 -0.2496
  495MOL0     C68190   4.069   2.133   5.029 -0.5377 -0.0280  0.2119
  495MOL0     C68191   4.009   2.067   5.133 -1.0762  0.2602  0.2034
  495MOL0     C68192   3.868   2.035   5.145  0.3013 -0.2473 -0.1182
  495MOL0     C68193   3.787   2.166   5.126 -0.5221 -0.1895 -0.6027
  495MOL0     C68194   3.634   2.149   5.138  0.2995  1.0217 -0.4578
  495MOL0     C68195   3.582   2.057   5.026  0.4005 -0.0831  0.8127
  495MOL0     O68196   3.611   2.108   4.898 -0.1743  0.3502  0.5533
  495MOL0     C68197   3.556   2.225   4.851 -0.5660  0.4876  0.7823
  495MOL0     C68198   3.431   2.275   4.903  0.1345 -0.8210  0.5052
  495MOL0     C68199   3.383   2.406   4.870 -0.2607  0.3448 -0.4602
  495MOL0     C68200   3.251   2.441   4.923 -0.2666 -0.0854 -0.3799
  495MOL0     C68201   3.454   2.484   4.777 -0.6506  0.3191  0.0770
  495MOL0     C68202   3.408   2.621   4.736 -1.4424  0.5770  0.6309
  495MOL0     O68203   3.454   2.663   4.608 -0.6630  0.1756  0.1893
  495MOL0     C68204   3.424   2.783   4.559 -0.5447  0.0152 -0.2426
  495MOL0     C68205   3.360   2.776   4.442 -0.9306  0.3333 -0.1262
  495MOL0     C68206   3.337   2.883   4.359  0.7447 -0.7631 -0.2275
  495MOL0     C68207   3.352   3.011   4.418 -0.3482  0.4497  0.0598
  495MOL0     O68208   3.347   3.130   4.343 -0.0668 -0.3663  0.7585
  495MOL0     C68209   3.219   3.187   4.356  0.7216  0.3957 -1.1277
  495MOL0     C68210   3.223   3.302   4.448 -0.3393 -0.8936  0.8688
  495MOL0     C68211   3.283   3.424   4.362  0.0045 -0.4677 -0.3069
  495MOL0     C68212   3.294   3.544   4.459 -0.4134  1.3883 -0.1530
  495MOL0     C68213   3.262   3.676   4.388 -1.0458  0.4413  0.8530
  495MOL0     C68214   3.351   3.713   4.268 -0.1098  0.0712 -0.0289
  495MOL0     C68215   3.496   3.709   4.325 -0.0513  0.6109  1.0456
  495MOL0     C68216   3.579   3.787   4.232  0.5213  0.7304 -0.4028
  495MOL0    Cl68217   3.545   3.960   4.221  0.1116  0.0909  0.1038
  495MOL0     C68218   3.402   3.023   4.550 -1.2107 -0.7990 -0.5779
  495MOL0     C68219   3.441   2.906   4.619  0.0983 -0.1859  0.2512
  495MOL0     O68220   3.340   2.680   4.807 -0.0060 -0.0292  0.0589
  495MOL0     C68221   3.562   2.417   4.716 -0.7786  0.2792  0.4331
  495MOL0     C68222   3.625   2.299   4.765 -1.0968 -0.3072  0.5683
  495MOL0     N68223   4.114   2.054   5.231 -0.1927 -0.7605 -0.2975
  495MOL0     N68224   4.226   2.097   5.190  0.4165  0.4380  0.3285
  495MOL0     C68225   5.200   1.852   4.649  0.0612 -0.7494  0.3502
  495MOL0     C68226   5.291   1.826   4.547 -0.2089  0.6118 -0.1217
  495MOL0     C68227   5.517   1.705   4.170 -1.1098  0.1511  0.6627
  495MOL0     C68228   5.626   1.705   4.257 -0.4699 -0.3458 -0.6215
  495MOL0     C68229   5.759   1.693   4.214  0.1879 -0.2191  1.1695
  495MOL0     C68230   5.790   1.687   4.078  0.2403 -0.8223 -0.3114
  495MOL0     O68231   5.922   1.710   4.031  0.8756 -0.9263  0.0220
  495MOL0     C68232   6.025   1.748   4.131 -0.1713  0.2718 -0.4809
  495MOL0     C68233   6.150   1.762   4.045 -0.5766  0.1362  0.0663
  495MOL0     C68234   6.120   1.856   3.926 -0.5348 -0.6375 -0.0752
  495MOL0     C68235   6.244   1.888   3.845 -0.2291  0.5625  0.9340
  495MOL0     C68236   6.237   1.991   3.741  0.4691  0.6812  0.5520
  495MOL0     C68237   6.244   2.068   3.643  0.8735 -0.4013 -0.2378
  495MOL0     C68238   5.681   1.697   3.987 -0.0517  0.9292  0.0651
  495MOL0     C68239   5.544   1.711   4.024 -0.7295 -0.0106  0.1130
  495MOL0     C68240   5.442   1.721   3.920  0.9188  1.0721 -0.7427
  495MOL0     H68241   5.133   1.567   4.400 -4.0968  0.6755  3.7245
  495MOL0     H68242   4.972   1.634   4.565  0.0716  0.4645  0.1209
  495MOL0     H68243   4.967   2.011   4.723 -1.5357 -0.8738 -0.3179
  495MOL0     H68244   5.054   1.959   4.870  2.0826 -0.8574 -2.2412
  495MOL0     H68245   4.837   1.831   4.929 -0.7144  0.4893  0.3925
  495MOL0     H68246   4.806   2.010   4.922  1.0962  0.7485  0.3186
  495MOL0     H68247   4.735   1.971   4.691  2.2231 -0.5409  0.6819
  495MOL0     H68248   4.712   1.801   4.737  0.4915 -0.6568  1.9567
  495MOL0     H68249   4.557   1.840   4.920  2.4380 -1.7298  0.5347
  495MOL0     H68250   4.606   1.992   4.946  0.0395  3.1359 -2.1002
  495MOL0     H68251   4.450   1.962   4.708 -3.8154  4.3727 -1.9383
  495MOL0     H68252   4.550   2.103   4.749  1.1463  0.8004  2.9078
  495MOL0     H68253   4.286   2.090   4.805 -0.7185 -1.0066  0.0859
  495MOL0     H68254   4.333   1.972   4.923 -0.4624 -0.3801 -1.2318
  495MOL0     H68255   4.476   2.246   4.909 -2.3415  0.2549 -1.0534
  495MOL0     H68256   4.464   2.126   5.037 -0.7434 -2.7321 -0.6826
  495MOL0     H68257   4.327   2.329   5.077  2.6562 -0.2480 -0.3831
  495MOL0     H68258   4.237   2.307   4.930  1.2848  0.9073  0.6362
  495MOL0     H68259   4.031   2.169   4.934  1.8141 -1.4591 -1.3852
  495MOL0     H68260   3.850   1.988   5.243  1.4571  2.0434  1.2617
  495MOL0     H68261   3.840   1.971   5.061 -0.9561  2.3212 -1.7771
  495MOL0     H68262   3.820   2.228   5.209  3.9452 -2.8816 -0.0084
  495MOL0     H68263   3.809   2.212   5.029 -4.3078 -0.4641 -1.7644
  495MOL0     H68264   3.622   2.096   5.233  0.5928  1.1759 -0.3332
  495MOL0     H68265   3.574   2.240   5.140 -0.8449  0.2916 -1.0260
  495MOL0     H68266   3.620   1.956   5.044 -0.0197 -0.0332  2.0806
  495MOL0     H68267   3.475   2.036   5.041  0.4960  0.5034  2.4456
  495MOL0     H68268   3.382   2.213   4.977 -0.1886 -0.4157  0.6323
  495MOL0     H68269   3.217   2.355   4.983  1.3092 -0.2555  0.3181
  495MOL0     H68270   3.171   2.460   4.851  0.5311 -2.3750 -2.0113
  495MOL0     H68271   3.270   2.527   4.988 -2.4226 -0.0671  0.2996
  495MOL0     H68272   3.359   2.678   4.397 -2.4491  0.1542  0.2426
  495MOL0     H68273   3.303   2.890   4.256  0.0750  2.4378  0.1197
  495MOL0     H68274   3.192   3.212   4.253 -3.0740 -0.5565 -0.5026
  495MOL0     H68275   3.152   3.111   4.397  2.0857 -0.3960 -0.3013
  495MOL0     H68276   3.123   3.324   4.485  0.2532 -0.1404  2.0844
  495MOL0     H68277   3.288   3.272   4.531  0.4354  0.4379  0.7815
  495MOL0     H68278   3.215   3.450   4.280 -1.0436 -2.3653 -0.1052
  495MOL0     H68279   3.384   3.409   4.325  0.3906  0.3065  0.4137
  495MOL0     H68280   3.393   3.537   4.505 -2.0634 -2.0016  3.4537
  495MOL0     H68281   3.228   3.517   4.541  1.7733  0.8300  1.5155
  495MOL0     H68282   3.162   3.662   4.346 -0.8065  0.0842  0.3873
  495MOL0     H68283   3.251   3.757   4.460 -2.9235 -2.9270  4.7070
  495MOL0     H68284   3.313   3.806   4.224 -4.8710 -1.9022 -0.7117
  495MOL0     H68285   3.326   3.635   4.197 -1.4288 -0.7185  1.2546
  495MOL0     H68286   3.531   3.608   4.348  0.0680  0.4623  0.2432
  495MOL0     H68287   3.510   3.763   4.419  1.1314  2.3704 -0.0773
  495MOL0     H68288   3.564   3.735   4.138 -0.7315 -0.8305  0.6025
  495MOL0     H68289   3.680   3.779   4.273  0.2630 -0.7466 -0.0078
  495MOL0     H68290   3.408   3.109   4.616 -1.6853  0.1224 -1.7011
  495MOL0     H68291   3.474   2.909   4.723  0.1940 -2.8591  0.3788
  495MOL0     H68292   3.601   2.458   4.623 -3.2760 -2.4853 -2.0585
  495MOL0     H68293   3.709   2.265   4.706 -1.0654  3.1687 -1.7406
  495MOL0     H68294   5.211   1.941   4.711  1.0950 -0.9762  0.5153
  495MOL0     H68295   5.375   1.894   4.536  1.3280 -1.3437 -1.0788
  495MOL0     H68296   5.611   1.688   4.363 -2.4036 -0.3723 -0.8547
  495MOL0     H68297   5.831   1.669   4.292  1.5630 -2.0520 -0.5448
  495MOL0     H68298   5.999   1.841   4.182  1.3254  0.7054 -0.4708
  495MOL0     H68299   6.034   1.670   4.206 -3.3707 -0.6160 -0.8791
  495MOL0     H68300   6.176   1.665   4.002  1.1484  0.0258  1.2270
  495MOL0     H68301   6.232   1.810   4.101  0.3476  0.7892 -1.7482
  495MOL0     H68302   6.035   1.821   3.866  0.1191 -1.7297 -0.3901
  495MOL0     H68303   6.083   1.953   3.963  0.1634  0.0319 -1.0866
  495MOL0     H68304   6.287   1.795   3.804  1.5870 -0.1071  4.0216
  495MOL0     H68305   6.320   1.913   3.920  2.2568 -0.6645 -1.0089
  495MOL0     H68306   6.246   2.147   3.571  0.9136 -1.1428 -1.0637
  495MOL0     H68307   5.716   1.711   3.885 -0.2052  2.9597  0.2599
  495MOL0     H68308   5.494   1.713   3.824  1.3864  0.9877 -0.4851
  495MOL0     H68309   5.375   1.637   3.938 -0.9856  2.9722  1.9363
  495MOL0     H68310   5.383   1.813   3.925 -2.5751 -1.0613  0.9561
  496MOL0     O68311   6.852   9.549   3.989  0.3266  0.0427  0.3491
  496MOL0     C68312   6.833   9.666   4.019 -0.2334 -0.8376  0.0798
  496MOL0     O68313   6.736   9.710   4.110  0.0431  0.0699 -0.2925
  496MOL0     C68314   6.629   9.624   4.130  0.2452 -1.2691 -0.0757
  496MOL0     C68315   6.596   9.612   4.264  0.6308 -0.2981  0.2113
  496MOL0     C68316   6.502   9.515   4.307 -0.2713 -0.9619 -0.3452
  496MOL0     C68317   6.431   9.435   4.208 -0.6003  0.1743 -0.2422
  496MOL0     O68318   6.319   9.353   4.232 -0.3595 -0.7763 -1.1355
  496MOL0     C68319   6.263   9.351   4.364 -0.3657 -0.0281  1.0278
  496MOL0     C68320   6.161   9.235   4.375 -0.9615 -0.1523 -1.0226
  496MOL0     C68321   6.088   9.221   4.511 -0.0035 -0.3928 -0.5045
  496MOL0     C68322   5.963   9.135   4.496  0.2216  0.1665 -0.1584
  496MOL0     C68323   5.926   9.032   4.609  0.9491  0.0277  0.0933
  496MOL0     C68324   5.923   9.093   4.752 -0.0207  0.1437  0.4592
  496MOL0     C68325   5.862   8.998   4.853 -0.2310 -0.0848  0.3445
  496MOL0     C68326   5.887   9.042   5.000 -0.5290  0.6093 -0.1307
  496MOL0     N68327   5.839   8.947   5.102 -0.3919 -0.3851 -0.4999
  496MOL0     C68328   5.727   8.867   5.079  0.2182 -0.4942 -0.2066
  496MOL0     C68329   5.729   8.787   5.197 -0.9974  0.1438  0.5694
  496MOL0     C68330   5.632   8.672   5.230 -0.2751 -0.2608  0.2565
  496MOL0     C68331   5.644   8.551   5.133 -0.2567  0.3687  1.3250
  496MOL0     C68332   5.562   8.432   5.189 -0.0725  0.1845  0.3563
  496MOL0     C68333   5.635   8.369   5.308  0.5665  0.6301 -0.0672
  496MOL0     O68334   5.559   8.249   5.345  0.0547 -0.1312  0.3250
  496MOL0     C68335   5.430   8.242   5.389  0.2815  0.6419  0.0134
  496MOL0     C68336   5.324   8.193   5.301 -0.0667 -0.5729  0.3532
  496MOL0     C68337   5.192   8.195   5.337  0.8925  0.0181 -0.5088
  496MOL0     C68338   5.090   8.141   5.236 -0.4710  0.2404 -0.3784
  496MOL0     C68339   5.150   8.249   5.457  0.5409 -0.1439 -0.1040
  496MOL0     C68340   5.012   8.255   5.505  0.0827 -0.0227 -0.1101
  496MOL0     O68341   4.930   8.148   5.492 -1.1750 -0.3807 -0.0525
  496MOL0     C68342   4.813   8.151   5.559 -0.3585 -0.2978  0.3146
  496MOL0     C68343   4.712   8.230   5.498 -0.1759 -0.6078  0.8069
  496MOL0     C68344   4.589   8.214   5.541  0.8497 -0.7797 -0.5253
  496MOL0     C68345   4.556   8.129   5.643 -0.4954  0.1161  0.4754
  496MOL0     O68346   4.428   8.115   5.679  0.1892 -0.7381 -0.2907
  496MOL0     C68347   4.348   8.043   5.581 -0.5748  0.1321  0.2334
  496MOL0     C68348   4.196   8.094   5.596 -0.2178  0.4695  0.2422
  496MOL0     C68349   4.167   8.238   5.554  0.2817  0.1470  0.2001
  496MOL0     C68350   4.030   8.253   5.512  0.4199  0.3842  0.7075
  496MOL0     C68351   3.992   8.402   5.515 -0.2640 -0.1753 -0.3342
  496MOL0     C68352   3.836   8.414   5.520 -0.5162 -0.3393  0.5933
  496MOL0     C68353   3.781   8.356   5.388  0.2504  0.5717 -0.8049
  496MOL0     C68354   3.826   8.433   5.264  0.6149  0.2448  0.6475
  496MOL0    Cl68355   3.804   8.613   5.292 -0.1401 -0.1689  0.2454
  496MOL0     C68356   4.662   8.069   5.719  0.4868  0.7954 -0.1964
  496MOL0     C68357   4.789   8.064   5.660 -0.0090  1.1009  0.4536
  496MOL0     O68358   4.977   8.359   5.566  0.2860  0.3697  1.1447
  496MOL0     C68359   5.249   8.308   5.547  0.3121 -0.8573  0.2089
  496MOL0     C68360   5.386   8.295   5.510 -0.1718 -0.3149  0.6133
  496MOL0     N68361   5.834   8.834   5.285  0.1779 -0.2996  0.7361
  496MOL0     N68362   5.896   8.927   5.231  0.1192 -0.8689  0.7503
  496MOL0     C68363   6.471   9.458   4.072 -0.1558 -0.2756  0.9919
  496MOL0     C68364   6.556   9.561   4.036 -0.5923  0.7488  0.5600
  496MOL0     C68365   6.909   9.770   3.952 -0.0930  0.1675  0.2660
  496MOL0     C68366   6.890   9.905   3.996  0.9048  0.0954 -0.5768
  496MOL0     C68367   6.971  10.007   3.945 -0.0467  0.4811  0.4218
  496MOL0     C68368   7.081   9.978   3.855 -0.1006 -0.6526 -0.3517
  496MOL0     O68369   7.154  10.089   3.809 -0.2114 -0.3819 -0.5620
  496MOL0     C68370   7.264  10.053   3.726 -0.6357 -0.1346  0.4232
  496MOL0     C68371   7.332  10.190   3.690  0.3347 -1.0519  0.5379
  496MOL0     C68372   7.443  10.163   3.589 -0.8254  0.6560 -0.6738
  496MOL0     C68373   7.529  10.283   3.565 -0.0694 -0.3569  0.4151
  496MOL0     C68374   7.636  10.287   3.662 -0.9768  0.6234  0.3711
  496MOL0     C68375   7.723  10.293   3.743 -0.8413 -0.3405  0.1499
  496MOL0     C68376   7.100   9.848   3.818  0.2252 -0.6887 -0.0158
  496MOL0     C68377   7.022   9.746   3.860  0.5771  0.2338  0.1808
  496MOL0     C68378   7.052   9.607   3.813  0.2172 -0.5953  0.2629
  496MOL0     H68379   6.661   9.652   4.340  0.0398 -1.0938  1.1596
  496MOL0     H68380   6.479   9.505   4.412 -0.2171  0.3398 -0.1974
  496MOL0     H68381   6.211   9.447   4.368 -2.1687 -0.7724 -1.5140
  496MOL0     H68382   6.335   9.328   4.443  0.0806 -0.1819  0.5839
  496MOL0     H68383   6.086   9.240   4.296  0.8679  1.1916 -2.7695
  496MOL0     H68384   6.211   9.142   4.349  0.7246  0.1273  0.9462
  496MOL0     H68385   6.161   9.175   4.579 -1.6358 -1.9410  0.2749
  496MOL0     H68386   6.067   9.316   4.561  0.3974  0.5534 -2.0710
  496MOL0     H68387   5.885   9.211   4.478  0.5870  0.0937 -2.3708
  496MOL0     H68388   5.956   9.080   4.402 -1.7703  2.2646 -1.3526
  496MOL0     H68389   5.995   8.947   4.604  3.3701  1.6831  2.7973
  496MOL0     H68390   5.831   8.981   4.585  0.6146  1.4354 -1.8615
  496MOL0     H68391   6.019   9.133   4.786 -0.7488  4.2175 -1.7121
  496MOL0     H68392   5.868   9.187   4.746 -2.1028 -0.8479  2.5189
  496MOL0     H68393   5.899   8.896   4.838  1.4551  0.4597  0.5583
  496MOL0     H68394   5.754   9.003   4.838 -0.5813 -0.5566  2.3738
  496MOL0     H68395   5.995   9.032   5.011 -0.8414 -0.4404  2.8219
  496MOL0     H68396   5.866   9.148   5.018  0.2206  0.7361  0.0140
  496MOL0     H68397   5.659   8.865   4.995  0.0914 -0.7456 -0.1012
  496MOL0     H68398   5.531   8.712   5.236 -1.0685 -2.0484 -0.5961
  496MOL0     H68399   5.660   8.652   5.334  1.8058  0.9956 -0.0094
  496MOL0     H68400   5.608   8.593   5.039 -2.8826  0.5581  2.3262
  496MOL0     H68401   5.750   8.530   5.116  0.0953  1.3490  2.1826
  496MOL0     H68402   5.459   8.461   5.213 -0.0861  0.1170  0.3786
  496MOL0     H68403   5.548   8.353   5.114  0.4453  0.5210 -0.1027
  496MOL0     H68404   5.738   8.343   5.281  0.0478  0.2121 -1.7644
  496MOL0     H68405   5.630   8.435   5.395  0.2803  3.1450 -1.8592
  496MOL0     H68406   5.344   8.143   5.207  0.6433 -2.0701  1.2639
  496MOL0     H68407   5.063   8.223   5.169  2.4998  1.3994 -0.2959
  496MOL0     H68408   4.996   8.099   5.274  0.0131 -1.1231 -0.6604
  496MOL0     H68409   5.138   8.070   5.169  0.9115  3.1102 -2.6536
  496MOL0     H68410   4.736   8.285   5.407  1.5206 -1.5900  0.6111
  496MOL0     H68411   4.507   8.266   5.492 -0.0170 -3.1659 -1.7611
  496MOL0     H68412   4.379   8.045   5.476 -0.0711 -2.1370  0.2930
  496MOL0     H68413   4.365   7.939   5.609 -1.6103 -0.5055 -1.3784
  496MOL0     H68414   4.135   8.032   5.529  0.8030 -0.9100  0.5293
  496MOL0     H68415   4.150   8.085   5.695  1.1450 -1.2170  0.7889
  496MOL0     H68416   4.247   8.257   5.483  0.2683 -4.5150 -1.4010
  496MOL0     H68417   4.198   8.303   5.637 -0.9285 -2.4205  2.8470
  496MOL0     H68418   3.964   8.191   5.573  1.0498 -3.2125 -1.9428
  496MOL0     H68419   4.014   8.207   5.414 -3.8966  0.5152  1.1547
  496MOL0     H68420   4.030   8.445   5.608 -3.6781 -0.8267  1.5087
  496MOL0     H68421   4.041   8.442   5.425 -0.4550 -0.0728 -0.3920
  496MOL0     H68422   3.817   8.522   5.520  0.7866 -0.0521 -1.6889
  496MOL0     H68423   3.811   8.362   5.613  0.6801  0.0636  1.1679
  496MOL0     H68424   3.673   8.349   5.405 -0.0671 -5.8145 -2.8123
  496MOL0     H68425   3.806   8.251   5.375 -0.2799  0.2694  0.4978
  496MOL0     H68426   3.761   8.402   5.182  0.9409  1.9094 -0.2685
  496MOL0     H68427   3.930   8.418   5.231  0.2873 -2.9343  0.7580
  496MOL0     H68428   4.640   8.007   5.806 -1.4245  2.5610  0.6549
  496MOL0     H68429   4.865   7.990   5.684 -2.6930 -1.6500  0.9681
  496MOL0     H68430   5.217   8.349   5.642  0.0701 -1.3887  0.3607
  496MOL0     H68431   5.470   8.336   5.565 -0.6524  0.6624  0.6415
  496MOL0     H68432   6.421   9.398   3.996 -0.3006 -0.4936  1.2560
  496MOL0     H68433   6.571   9.580   3.930  2.1631 -0.1973  0.7267
  496MOL0     H68434   6.811   9.931   4.065  0.5894 -2.9515  0.3464
  496MOL0     H68435   6.934  10.101   3.986 -3.4106 -1.2957  1.8599
  496MOL0     H68436   7.337   9.993   3.781 -1.1053 -0.9048  0.2120
  496MOL0     H68437   7.239  10.012   3.628 -0.5776  1.1105 -0.1345
  496MOL0     H68438   7.369  10.245   3.778 -0.4080  1.6134 -0.7189
  496MOL0     H68439   7.248  10.244   3.647  1.2603  0.0147  0.0125
  496MOL0     H68440   7.501  10.074   3.612  1.8946  1.9738 -2.0036
  496MOL0     H68441   7.389  10.143   3.497  0.6582  1.3859 -1.7468
  496MOL0     H68442   7.473  10.377   3.558 -0.3407 -0.6188 -1.7299
  496MOL0     H68443   7.572  10.262   3.466  0.5103 -2.9708  1.1471
  496MOL0     H68444   7.814  10.288   3.800  0.1307 -1.6030 -1.4149
  496MOL0     H68445   7.176   9.811   3.751  0.7123 -0.0121  0.1447
  496MOL0     H68446   7.136   9.612   3.742 -0.4871  0.9803 -0.5013
  496MOL0     H68447   7.074   9.547   3.901 -3.1955 -1.4321  0.6534
  496MOL0     H68448   6.969   9.557   3.762  2.4071 -1.9460 -2.2532
  497MOL0     O68449   4.727   5.764   8.154  0.2451  0.1221  0.8980
  497MOL0     C68450   4.696   5.675   8.073  0.7705 -0.9850  0.1623
  497MOL0     O68451   4.560   5.654   8.035 -0.7440  0.6766 -0.3258
  497MOL0     C68452   4.448   5.696   8.107  0.0572 -0.4128 -0.1031
  497MOL0     C68453   4.326   5.620   8.087 -0.3173 -0.1461 -0.0490
  497MOL0     C68454   4.206   5.641   8.150 -0.4760  0.3119 -0.3292
  497MOL0     C68455   4.198   5.753   8.232  0.6140 -0.2162  0.5855
  497MOL0     O68456   4.085   5.789   8.298 -0.2205 -0.1814  0.0256
  497MOL0     C68457   3.960   5.736   8.267  0.0444 -0.7973 -0.3287
  497MOL0     C68458   3.883   5.774   8.395 -0.2823 -0.4793  0.9182
  497MOL0     C68459   3.743   5.710   8.388 -0.0487 -0.2970 -0.0466
  497MOL0     C68460   3.652   5.755   8.265  0.1389  0.3629  0.4063
  497MOL0     C68461   3.509   5.698   8.272 -0.5040 -0.9758  0.0167
  497MOL0     C68462   3.512   5.543   8.249 -0.8031 -0.1761 -0.3052
  497MOL0     C68463   3.506   5.479   8.388 -0.5804  0.6250  0.1419
  497MOL0     C68464   3.531   5.327   8.378  0.6307 -0.0285 -0.7130
  497MOL0     N68465   3.525   5.257   8.510  0.2125 -0.6608 -0.5335
  497MOL0     C68466   3.438   5.286   8.616 -0.5835  0.1315 -0.7037
  497MOL0     C68467   3.444   5.175   8.687 -0.4552 -0.1890 -0.0967
  497MOL0     C68468   3.371   5.140   8.819  0.1081  0.3135 -0.7831
  497MOL0     C68469   3.372   5.230   8.940 -0.6052 -0.0224  0.2974
  497MOL0     C68470   3.505   5.226   9.017  0.2950 -0.1095  0.1550
  497MOL0     C68471   3.545   5.095   9.090 -0.2859  0.2682  0.3409
  497MOL0     O68472   3.455   5.038   9.185  0.0809 -0.5615  0.3368
  497MOL0     C68473   3.465   5.086   9.313  0.5161 -0.1339 -0.1500
  497MOL0     C68474   3.509   5.000   9.411  0.3054  0.9715 -0.1891
  497MOL0     C68475   3.520   5.024   9.556 -0.0152 -0.1393 -0.5932
  497MOL0     C68476   3.568   4.910   9.640  1.9179 -0.4478  0.0123
  497MOL0     C68477   3.479   5.155   9.600  0.8283 -0.8731 -0.1604
  497MOL0     C68478   3.474   5.190   9.750 -0.7339 -0.4181  0.6319
  497MOL0     O68479   3.398   5.303   9.778  0.0542  0.5968  0.1486
  497MOL0     C68480   3.344   5.332   9.897  0.2596  1.0400  0.2666
  497MOL0     C68481   3.352   5.259  10.020 -0.8897 -0.5348 -0.2256
  497MOL0     C68482   3.277   5.308  10.135 -0.2336  0.7856 -0.1682
  497MOL0     C68483   3.181   5.405  10.127 -1.0454 -0.0623 -0.0122
  497MOL0     O68484   3.133   5.466  10.235 -0.5160 -0.1364 -0.2308
  497MOL0     C68485   3.213   5.569  10.296  0.2994 -0.5913  1.0060
  497MOL0     C68486   3.189   5.573  10.434 -0.3446 -0.1235 -0.3595
  497MOL0     C68487   3.044   5.610  10.472 -0.0380  0.6997  0.1642
  497MOL0     C68488   3.035   5.655  10.616  0.2807  0.3097 -0.6025
  497MOL0     C68489   2.895   5.695  10.662 -0.5053  0.5078 -0.3839
  497MOL0     C68490   2.849   5.813  10.573  0.3043  0.0506  0.4744
  497MOL0     C68491   2.715   5.848  10.633 -0.8887  0.7629  0.7419
  497MOL0     C68492   2.630   5.897  10.518 -0.0562 -0.0719 -0.4814
  497MOL0    Cl68493   2.459   5.918  10.558 -0.1533  0.1373 -0.0769
  497MOL0     C68494   3.153   5.463   9.997 -0.5038 -0.2130 -0.0575
  497MOL0     C68495   3.243   5.441   9.894 -0.2376 -0.5884  0.4515
  497MOL0     O68496   3.548   5.136   9.824 -0.9663  0.0362 -0.6350
  497MOL0     C68497   3.442   5.246   9.505  0.7776  0.1258  0.0301
  497MOL0     C68498   3.439   5.211   9.370 -0.3765 -0.1714  0.6129
  497MOL0     N68499   3.531   5.090   8.634 -0.1411  1.5266  0.4748
  497MOL0     N68500   3.569   5.137   8.521 -0.6759 -0.0701  0.8153
  497MOL0     C68501   4.302   5.839   8.251  0.4362 -0.7998 -1.1583
  497MOL0     C68502   4.430   5.810   8.194  0.0511 -0.3588 -0.1179
  497MOL0     C68503   4.805   5.581   8.032 -0.8396 -0.4661 -0.3255
  497MOL0     C68504   4.945   5.611   8.064 -0.6613 -0.2063 -0.3565
  497MOL0     C68505   5.052   5.524   8.032 -0.4338  0.3870 -0.1282
  497MOL0     C68506   5.017   5.396   7.979 -0.5043 -0.3463  0.9229
  497MOL0     O68507   5.098   5.299   7.947 -0.4398 -0.5111 -0.0203
  497MOL0     C68508   5.233   5.305   7.974  0.5445  0.1057  0.2833
  497MOL0     C68509   5.310   5.398   7.879 -0.1473 -0.0935  1.0353
  497MOL0     C68510   5.278   5.380   7.732 -0.0534  0.2640 -0.3402
  497MOL0     C68511   5.373   5.433   7.630 -0.2325 -0.7132  0.8287
  497MOL0     C68512   5.511   5.378   7.625  0.5318 -0.7253  0.1200
  497MOL0     C68513   5.612   5.316   7.623  0.6034  0.9306  0.1954
  497MOL0     C68514   4.888   5.367   7.950  0.5155 -0.8514  0.8957
  497MOL0     C68515   4.783   5.453   7.968 -0.5195 -0.3587 -0.1221
  497MOL0     C68516   4.645   5.409   7.925 -0.7563  1.0303  0.0397
  497MOL0     H68517   4.344   5.539   8.017  0.1730 -0.6769  0.6678
  497MOL0     H68518   4.130   5.565   8.133 -0.9677  0.3381  1.5551
  497MOL0     H68519   3.946   5.630   8.248 -3.5498 -0.0831 -2.5468
  497MOL0     H68520   3.913   5.792   8.186 -2.6662 -1.9944  0.3056
  497MOL0     H68521   3.939   5.744   8.483 -0.5609 -2.6426  0.4252
  497MOL0     H68522   3.863   5.882   8.393 -2.5514 -0.8355 -0.1694
  497MOL0     H68523   3.756   5.603   8.371  0.3758 -0.4074  0.9043
  497MOL0     H68524   3.692   5.734   8.482  1.1129 -1.7887  1.0121
  497MOL0     H68525   3.651   5.864   8.279  1.1431  0.5986 -1.1061
  497MOL0     H68526   3.700   5.738   8.168 -0.3867  0.3387  0.1453
  497MOL0     H68527   3.451   5.761   8.204 -1.3780  0.4502  1.9956
  497MOL0     H68528   3.462   5.713   8.369 -1.1319 -0.1638 -0.4063
  497MOL0     H68529   3.415   5.535   8.198 -1.1164  0.6668  0.1283
  497MOL0     H68530   3.600   5.510   8.193  0.4729  0.9781  0.9433
  497MOL0     H68531   3.401   5.493   8.417 -0.9421  4.5988 -2.3523
  497MOL0     H68532   3.565   5.531   8.464 -0.9315  0.7072  0.3645
  497MOL0     H68533   3.448   5.292   8.316 -1.0346  0.4718  1.1593
  497MOL0     H68534   3.632   5.300   8.345  1.0028 -4.4684  3.0761
  497MOL0     H68535   3.387   5.377   8.643  1.2185  1.7384 -2.3428
  497MOL0     H68536   3.397   5.039   8.849 -2.9544  0.9283  5.6341
  497MOL0     H68537   3.264   5.131   8.796  0.1311  1.4079 -1.4105
  497MOL0     H68538   3.344   5.332   8.913  1.6476  0.1226 -1.8551
  497MOL0     H68539   3.300   5.181   9.006 -0.2407  0.3937  1.0222
  497MOL0     H68540   3.592   5.256   8.957  3.2735 -2.4202  2.9666
  497MOL0     H68541   3.488   5.305   9.091  0.6574  2.1962 -2.0584
  497MOL0     H68542   3.560   5.021   9.011  0.0052 -0.6048  1.1902
  497MOL0     H68543   3.642   5.108   9.138  1.8918 -1.4637 -3.1745
  497MOL0     H68544   3.533   4.895   9.401 -1.3339  0.3540  1.8206
  497MOL0     H68545   3.490   4.891   9.714  2.2962 -1.2860  0.2062
  497MOL0     H68546   3.660   4.935   9.695  1.7986  3.9332 -1.3725
  497MOL0     H68547   3.582   4.824   9.575 -2.3580 -0.4255 -1.2183
  497MOL0     H68548   3.397   5.160  10.028  2.2911  0.7576 -0.9810
  497MOL0     H68549   3.309   5.273  10.233  0.1963 -0.5075 -0.7411
  497MOL0     H68550   3.319   5.565  10.267 -0.0459  1.6373 -0.9132
  497MOL0     H68551   3.183   5.666  10.254  0.2827  0.2580  2.9137
  497MOL0     H68552   3.205   5.476  10.482 -4.2800 -0.0713  1.4946
  497MOL0     H68553   3.263   5.641  10.479 -0.7316  1.0705 -1.4642
  497MOL0     H68554   2.988   5.517  10.466  1.4063 -0.1377 -0.8603
  497MOL0     H68555   2.992   5.677  10.402  0.4680  0.7789 -0.1390
  497MOL0     H68556   3.106   5.734  10.640  0.9023  0.2551 -2.1146
  497MOL0     H68557   3.074   5.572  10.676  0.7828  0.2132 -1.0516
  497MOL0     H68558   2.823   5.613  10.650  0.2114 -0.3403  0.9023
  497MOL0     H68559   2.897   5.726  10.766 -0.8658  1.1342 -0.5574
  497MOL0     H68560   2.834   5.784  10.469 -0.4306 -2.1221  1.1227
  497MOL0     H68561   2.905   5.906  10.569  0.0126  0.3750  2.7208
  497MOL0     H68562   2.723   5.927  10.708 -3.1630 -0.1933  2.0775
  497MOL0     H68563   2.681   5.753  10.675 -0.2693 -0.5033 -1.4436
  497MOL0     H68564   2.626   5.827  10.433 -0.5279 -0.1822 -0.3727
  497MOL0     H68565   2.683   5.981  10.473 -1.4136  0.5076 -1.0410
  497MOL0     H68566   3.072   5.535   9.998 -1.8924 -1.6920 -0.6876
  497MOL0     H68567   3.241   5.515   9.814  2.2929  0.5554  1.3283
  497MOL0     H68568   3.397   5.344   9.521  0.6621  0.0617  0.0909
  497MOL0     H68569   3.390   5.278   9.299 -1.8342 -2.1327 -0.3622
  497MOL0     H68570   4.287   5.919   8.323 -0.2185 -2.9983  1.3341
  497MOL0     H68571   4.516   5.874   8.215  1.2059 -1.8452 -0.1036
  497MOL0     H68572   4.967   5.710   8.101  1.1750 -0.9061  0.5380
  497MOL0     H68573   5.152   5.560   8.052 -1.4759  2.8643  0.9748
  497MOL0     H68574   5.245   5.339   8.078 -2.3599  2.0394  0.1127
  497MOL0     H68575   5.270   5.204   7.952  1.0328  0.2718  0.3280
  497MOL0     H68576   5.415   5.375   7.899  0.1672  1.0856  0.7970
  497MOL0     H68577   5.287   5.504   7.896  1.6067  0.6538 -0.8284
  497MOL0     H68578   5.269   5.273   7.710 -3.7544  0.2534  0.4748
  497MOL0     H68579   5.186   5.438   7.713  0.5316  0.5735 -2.5841
  497MOL0     H68580   5.379   5.540   7.653  2.9959 -0.9485  1.6310
  497MOL0     H68581   5.323   5.416   7.535 -0.6344  0.0865  0.8852
  497MOL0     H68582   5.690   5.244   7.610 -0.4772  0.0449 -1.7678
  497MOL0     H68583   4.878   5.266   7.912 -0.5668 -1.1871  2.0112
  497MOL0     H68584   4.592   5.484   7.866 -3.0085 -2.0482 -2.1625
  497MOL0     H68585   4.653   5.322   7.858  1.2662  0.8479  0.4363
  497MOL0     H68586   4.577   5.380   8.005  0.1475 -3.0731 -0.4464
  498MOL0     O68587   6.359   1.303   2.413  0.6602  0.1364 -0.5297
  498MOL0     C68588   6.283   1.337   2.510  0.5640 -0.1501  0.3505
  498MOL0     O68589   6.173   1.265   2.557  0.0987  0.1964 -0.1631
  498MOL0     C68590   6.137   1.156   2.486 -0.1928 -0.2684  0.0257
  498MOL0     C68591   6.074   1.183   2.364 -0.2292  0.6597 -0.0653
  498MOL0     C68592   6.030   1.077   2.290 -0.0194  0.8721  0.3806
  498MOL0     C68593   6.042   0.950   2.339  0.9167  0.1678 -0.0344
  498MOL0     O68594   5.994   0.849   2.269  0.3298  0.3586 -0.1385
  498MOL0     C68595   5.852   0.841   2.268  0.1251 -0.1561  1.5526
  498MOL0     C68596   5.819   0.758   2.142  0.5339  0.2108 -0.0721
  498MOL0     C68597   5.890   0.812   2.011 -1.1255 -0.4983 -0.4738
  498MOL0     C68598   5.820   0.756   1.871 -0.6724 -0.3014  0.3690
  498MOL0     C68599   5.911   0.789   1.748  0.1935  0.6925 -0.4336
  498MOL0     C68600   5.882   0.694   1.621 -0.1749  0.0760 -0.8907
  498MOL0     C68601   5.762   0.744   1.535  0.0542  0.3693 -0.3285
  498MOL0     C68602   5.742   0.649   1.417 -0.6945 -0.4089 -0.3163
  498MOL0     N68603   5.750   0.723   1.295  0.5076 -0.2540 -0.1763
  498MOL0     C68604   5.861   0.800   1.259  0.7008  0.8277  0.4965
  498MOL0     C68605   5.839   0.822   1.127 -0.0134  0.9911  0.1257
  498MOL0     C68606   5.934   0.881   1.036 -0.4243  0.0865  0.7399
  498MOL0     C68607   5.967   1.029   1.085  0.0044 -0.2253 -0.1778
  498MOL0     C68608   5.851   1.129   1.063 -0.0602  0.3380  0.5157
  498MOL0     C68609   5.881   1.277   1.102  0.4166  0.0744 -0.4475
  498MOL0     O68610   5.921   1.287   1.236 -0.3671  0.3113 -0.2249
  498MOL0     C68611   5.912   1.414   1.278  1.0572  0.0688  0.2028
  498MOL0     C68612   5.830   1.443   1.382 -0.1869 -0.7074 -0.6147
  498MOL0     C68613   5.806   1.572   1.438  0.1577 -0.8532 -0.3077
  498MOL0     C68614   5.722   1.591   1.560  0.4040  0.1073  0.1728
  498MOL0     C68615   5.884   1.678   1.387 -0.1060  0.7423  0.7874
  498MOL0     C68616   5.875   1.820   1.431  0.7604 -1.0133 -1.2766
  498MOL0     O68617   5.874   1.912   1.335 -0.0409 -0.7627 -0.3012
  498MOL0     C68618   5.900   2.045   1.373  0.1528  0.4286 -0.3546
  498MOL0     C68619   5.844   2.139   1.291 -0.1098  0.1380  0.4983
  498MOL0     C68620   5.862   2.278   1.308  0.5183  0.9559  0.2904
  498MOL0     C68621   5.962   2.326   1.390 -0.0686 -0.4247 -0.9770
  498MOL0     O68622   5.993   2.455   1.413 -0.3068 -0.3078  0.1253
  498MOL0     C68623   5.973   2.535   1.296 -0.2337 -0.3052 -0.3245
  498MOL0     C68624   6.009   2.678   1.330 -0.0279  1.0090  0.2790
  498MOL0     C68625   5.997   2.768   1.207 -0.0679  0.5827  0.6616
  498MOL0     C68626   5.861   2.818   1.188 -0.1835 -0.1671 -0.9946
  498MOL0     C68627   5.866   2.971   1.156 -0.5927 -0.4564  0.2156
  498MOL0     C68628   5.722   3.042   1.138  0.1968  0.9332  0.3377
  498MOL0     C68629   5.687   3.057   0.988 -0.0074 -0.7000  0.5179
  498MOL0     C68630   5.589   3.183   0.972  0.7342 -0.6045 -0.8610
  498MOL0    Cl68631   5.438   3.177   1.079  0.4339 -0.0655 -0.0277
  498MOL0     C68632   6.026   2.232   1.475 -0.9169 -0.5919 -0.3509
  498MOL0     C68633   5.992   2.090   1.473 -0.2129  0.7947  0.5795
  498MOL0     O68634   5.861   1.846   1.557 -0.4458  0.5432  0.5166
  498MOL0     C68635   5.966   1.661   1.272  0.5042  0.1683 -0.5436
  498MOL0     C68636   5.988   1.527   1.220  0.8613  0.3582 -0.3887
  498MOL0     N68637   5.709   0.782   1.092  0.0251  0.1457  0.8388
  498MOL0     N68638   5.652   0.729   1.195  0.7720  1.0256 -0.5217
  498MOL0     C68639   6.099   0.919   2.470  0.4476  0.2419 -0.0269
  498MOL0     C68640   6.151   1.030   2.540  0.0286 -0.5276 -0.1650
  498MOL0     C68641   6.353   1.438   2.588  0.4160 -0.0695  0.1998
  498MOL0     C68642   6.431   1.537   2.523  0.2052  0.2729 -1.1114
  498MOL0     C68643   6.479   1.636   2.600  0.0616  0.3753 -0.1090
  498MOL0     C68644   6.446   1.641   2.740 -0.6805 -0.9467  0.0092
  498MOL0     O68645   6.479   1.747   2.819 -0.1735 -0.2921 -1.2767
  498MOL0     C68646   6.608   1.827   2.824  0.9418 -0.7409  1.0812
  498MOL0     C68647   6.728   1.746   2.826  0.3663  0.1677  0.1409
  498MOL0     C68648   6.736   1.659   2.962 -0.5923  0.4534  0.2108
  498MOL0     C68649   6.823   1.729   3.072  1.7375  0.6154 -0.0348
  498MOL0     C68650   6.963   1.733   3.041  0.5604  1.0536  0.5969
  498MOL0     C68651   7.080   1.752   3.037 -0.5155  0.3264 -0.0129
  498MOL0     C68652   6.370   1.561   2.799  0.4090 -0.2076 -0.8420
  498MOL0     C68653   6.325   1.457   2.723  0.1907 -0.0862  0.4726
  498MOL0     C68654   6.253   1.347   2.805 -0.2661 -0.5206  0.6003
  498MOL0     H68655   6.068   1.287   2.334  2.9401  1.2498  0.9787
  498MOL0     H68656   5.978   1.096   2.197  0.2096  3.5186  0.7126
  498MOL0     H68657   5.801   0.938   2.272  0.0197 -0.2470  3.6872
  498MOL0     H68658   5.820   0.778   2.352  1.5798 -0.5584  1.8372
  498MOL0     H68659   5.835   0.651   2.162 -1.5054 -0.0711  0.2445
  498MOL0     H68660   5.713   0.763   2.117  0.1163  0.6067  1.6197
  498MOL0     H68661   5.885   0.921   2.009 -0.1962 -0.4643 -1.9762
  498MOL0     H68662   5.992   0.773   2.021 -0.1526  1.3292 -2.4879
  498MOL0     H68663   5.810   0.647   1.876 -0.9460 -0.3733 -1.1662
  498MOL0     H68664   5.722   0.801   1.857 -1.4055 -2.2290 -1.1473
  498MOL0     H68665   6.018   0.778   1.764  0.5250  1.3800 -2.0072
  498MOL0     H68666   5.892   0.892   1.716  0.5998  1.1108  0.6450
  498MOL0     H68667   5.973   0.690   1.561 -1.4239 -2.6350 -2.8016
  498MOL0     H68668   5.872   0.590   1.654  3.0300  0.2493  1.1442
  498MOL0     H68669   5.793   0.841   1.495  2.1610 -0.7238 -1.5075
  498MOL0     H68670   5.675   0.757   1.600  0.8282  1.6632  0.4799
  498MOL0     H68671   5.821   0.574   1.418  0.2597  0.5606  1.7624
  498MOL0     H68672   5.648   0.596   1.434 -0.6930  0.0033  1.1198
  498MOL0     H68673   5.956   0.809   1.310  1.9061 -3.3464 -0.6233
  498MOL0     H68674   5.873   0.898   0.947 -5.2593  2.7028  4.1066
  498MOL0     H68675   6.015   0.809   1.023 -1.1491 -0.3506 -1.9129
  498MOL0     H68676   6.004   1.039   1.188 -2.4426  0.3749  0.7158
  498MOL0     H68677   6.055   1.067   1.033 -0.7585  1.8694 -0.0460
  498MOL0     H68678   5.810   1.123   0.962 -1.9281 -1.6319  1.3005
  498MOL0     H68679   5.762   1.096   1.117 -1.8425  0.2321 -2.2800
  498MOL0     H68680   5.963   1.320   1.043  0.5070  0.6107  0.0612
  498MOL0     H68681   5.793   1.339   1.083  2.1318  3.2115  1.0598
  498MOL0     H68682   5.768   1.373   1.438 -2.1229  1.4193  0.0541
  498MOL0     H68683   5.641   1.664   1.553  0.0642 -0.2668  0.2165
  498MOL0     H68684   5.787   1.619   1.644  1.5334  0.6746 -0.8562
  498MOL0     H68685   5.672   1.497   1.585  1.6147 -0.6035  0.0171
  498MOL0     H68686   5.774   2.107   1.215 -1.6618  0.7096  1.6254
  498MOL0     H68687   5.799   2.347   1.254 -0.8350  1.1089  1.9880
  498MOL0     H68688   6.023   2.498   1.207 -2.4730  1.7953 -2.6047
  498MOL0     H68689   5.866   2.546   1.277 -0.3208 -1.3734 -0.5140
  498MOL0     H68690   5.941   2.717   1.406 -0.1241  2.3946 -0.4801
  498MOL0     H68691   6.116   2.667   1.347 -0.2378  2.6682  3.4099
  498MOL0     H68692   6.035   2.722   1.115  0.6988  0.3318  1.1011
  498MOL0     H68693   6.069   2.849   1.221  1.2050 -0.2929 -0.5704
  498MOL0     H68694   5.785   2.802   1.266 -1.8375 -0.0889 -2.5244
  498MOL0     H68695   5.821   2.766   1.101 -0.1417 -1.6243 -0.1741
  498MOL0     H68696   5.913   3.029   1.237 -0.6792  0.4574 -0.3788
  498MOL0     H68697   5.916   2.971   1.059 -1.2500 -2.9446 -0.1922
  498MOL0     H68698   5.726   3.140   1.186  1.5206  1.1689 -0.2105
  498MOL0     H68699   5.638   2.987   1.182  0.9317 -0.8671 -0.4094
  498MOL0     H68700   5.636   2.965   0.956  0.1915 -0.0540 -1.8491
  498MOL0     H68701   5.782   3.058   0.933  0.3235 -2.8014  0.9555
  498MOL0     H68702   5.555   3.209   0.871  0.1588  0.9321 -0.3096
  498MOL0     H68703   5.645   3.274   0.993  0.8796  0.0011 -3.5874
  498MOL0     H68704   6.090   2.265   1.556 -0.0806 -0.0110 -1.2212
  498MOL0     H68705   6.024   2.022   1.552 -0.5248 -0.9906 -0.7822
  498MOL0     H68706   6.025   1.743   1.231 -0.1536  1.4350  0.9395
  498MOL0     H68707   6.053   1.516   1.134  0.4612 -0.1901 -0.6272
  498MOL0     H68708   6.089   0.823   2.519 -0.0383 -0.1201 -0.8069
  498MOL0     H68709   6.189   1.031   2.641  2.0951 -1.2229 -0.8683
  498MOL0     H68710   6.435   1.543   2.415 -0.9094 -2.7482 -1.4246
  498MOL0     H68711   6.527   1.724   2.558 -0.0075 -0.0121 -1.0267
  498MOL0     H68712   6.605   1.886   2.732 -1.3891 -1.4624  0.6150
  498MOL0     H68713   6.613   1.893   2.910 -3.5153  0.6155  0.5779
  498MOL0     H68714   6.818   1.807   2.816  0.5126  0.0349  0.5983
  498MOL0     H68715   6.722   1.674   2.744  0.2419 -0.2780  0.5337
  498MOL0     H68716   6.634   1.633   2.993 -0.7742 -3.5011 -2.8657
  498MOL0     H68717   6.788   1.566   2.938 -0.1604  0.6264  0.4650
  498MOL0     H68718   6.814   1.694   3.176  0.2988  2.1486  0.3901
  498MOL0     H68719   6.784   1.830   3.085 -0.5512  0.1373 -2.3223
  498MOL0     H68720   7.187   1.755   3.030 -0.4595 -1.4700 -0.2328
  498MOL0     H68721   6.343   1.566   2.904 -2.3139 -1.8228 -1.3479
  498MOL0     H68722   6.286   1.247   2.775  0.5148 -0.1390  0.1568
  498MOL0     H68723   6.261   1.352   2.914 -2.5669  0.4647  0.7981
  498MOL0     H68724   6.146   1.341   2.780 -0.5346  1.5990  1.0571
  499MOL0     O68725   7.548   3.983   8.043 -0.4276 -0.2379 -0.2901
  499MOL0     C68726   7.635   3.923   7.986  0.1023  0.3564  0.2261
  499MOL0     O68727   7.671   3.936   7.853  0.6093 -0.4555  0.1899
  499MOL0     C68728   7.571   3.960   7.758 -0.2698 -0.4860 -0.5422
  499MOL0     C68729   7.437   3.939   7.771  0.2292 -1.3377 -0.0773
  499MOL0     C68730   7.345   3.984   7.671 -0.8375 -0.5569 -0.2023
  499MOL0     C68731   7.391   4.047   7.558  0.6819 -0.9593 -0.1299
  499MOL0     O68732   7.310   4.098   7.456 -0.5825  0.3186  0.1447
  499MOL0     C68733   7.177   4.114   7.480  0.3294  0.6131 -0.9301
  499MOL0     C68734   7.137   4.224   7.384  0.4778 -0.4349 -0.1281
  499MOL0     C68735   7.184   4.362   7.440  0.0372  0.8219  0.0673
  499MOL0     C68736   7.199   4.459   7.333 -1.0306 -0.2309  0.2276
  499MOL0     C68737   7.276   4.581   7.380 -0.2030 -0.3301 -0.0636
  499MOL0     C68738   7.254   4.691   7.278 -0.2791  0.6038  0.1960
  499MOL0     C68739   7.228   4.828   7.345 -0.8926 -0.3413  0.0227
  499MOL0     C68740   7.346   4.903   7.397 -0.4500  0.3995  0.4618
  499MOL0     N68741   7.451   4.905   7.292 -0.6870  0.7461 -0.1511
  499MOL0     C68742   7.460   4.996   7.192 -0.7481 -0.6449 -0.3302
  499MOL0     C68743   7.577   4.965   7.137  0.5058  0.7413 -0.1626
  499MOL0     C68744   7.624   5.052   7.025 -0.0091 -0.2490  0.2375
  499MOL0     C68745   7.705   5.178   7.068  0.7522  0.3854 -0.7787
  499MOL0     C68746   7.855   5.137   7.076 -0.1256 -0.5929  0.5670
  499MOL0     C68747   7.935   5.248   7.129  1.0882  0.3489  0.0223
  499MOL0     O68748   7.982   5.323   7.015  0.6568  0.6620 -0.0889
  499MOL0     C68749   8.007   5.453   7.024  0.6056 -0.3010 -0.2191
  499MOL0     C68750   8.030   5.520   7.143  0.0206 -0.1955  0.1771
  499MOL0     C68751   8.041   5.663   7.138  0.5414 -1.1071  0.8102
  499MOL0     C68752   8.057   5.739   7.272  0.6313  0.1561 -0.9123
  499MOL0     C68753   8.025   5.733   7.013  0.3931  1.1964  0.1726
  499MOL0     C68754   8.024   5.884   6.995  0.2048  0.4107 -0.2592
  499MOL0     O68755   8.119   5.933   6.907  0.0460  0.8411  0.3952
  499MOL0     C68756   8.135   6.067   6.876 -0.5084 -0.5824 -0.5093
  499MOL0     C68757   8.260   6.110   6.833  0.7397 -0.5836 -0.0901
  499MOL0     C68758   8.283   6.240   6.789  0.8751  0.7039 -0.4671
  499MOL0     C68759   8.181   6.330   6.794  0.1557 -0.9262  0.9228
  499MOL0     O68760   8.203   6.465   6.764  0.6766  0.3084 -0.4095
  499MOL0     C68761   8.244   6.507   6.633  0.3331 -0.0082 -0.1885
  499MOL0     C68762   8.190   6.642   6.603  0.0477  0.5002 -0.0803
  499MOL0     C68763   8.057   6.645   6.546  0.2983  0.1888 -1.7632
  499MOL0     C68764   7.946   6.602   6.650  0.6166 -0.1805 -0.0800
  499MOL0     C68765   7.802   6.607   6.602 -0.3179  0.0648 -0.5456
  499MOL0     C68766   7.697   6.569   6.715 -0.0437 -0.4036  0.7719
  499MOL0     C68767   7.557   6.578   6.659 -0.4379  0.4330  0.2564
  499MOL0     C68768   7.505   6.453   6.585  0.2193  0.3098  0.1010
  499MOL0    Cl68769   7.471   6.327   6.710  0.1598 -0.3382  0.2449
  499MOL0     C68770   8.052   6.281   6.823  0.6141  0.4476 -0.0749
  499MOL0     C68771   8.025   6.156   6.877  0.3178  0.0151  0.2152
  499MOL0     O68772   7.930   5.941   7.052 -0.1547  0.6412 -0.4935
  499MOL0     C68773   8.014   5.649   6.892 -0.0248  0.5011 -0.6560
  499MOL0     C68774   8.000   5.513   6.902 -0.6157  0.5990 -0.1129
  499MOL0     N68775   7.644   4.871   7.212 -0.3482 -0.0940  0.2475
  499MOL0     N68776   7.561   4.824   7.296  0.7617  0.2634  0.1048
  499MOL0     C68777   7.530   4.058   7.532 -0.4946 -0.4880  0.5937
  499MOL0     C68778   7.613   4.014   7.638 -0.1295 -1.5606  0.5563
  499MOL0     C68779   7.728   3.849   8.075  0.0293 -0.4407 -0.4343
  499MOL0     C68780   7.860   3.844   8.035 -0.7707  0.7180  0.4239
  499MOL0     C68781   7.955   3.780   8.112 -0.3130  0.3532 -0.1335
  499MOL0     C68782   7.922   3.713   8.227 -0.3424  0.4254 -0.1009
  499MOL0     O68783   8.022   3.639   8.291  0.1843  0.6881 -0.1961
  499MOL0     C68784   7.984   3.548   8.397  0.2679  0.0255  0.8240
  499MOL0     C68785   8.114   3.476   8.442 -0.1609 -0.0312 -0.1025
  499MOL0     C68786   8.089   3.366   8.544 -0.0763 -0.5790  0.4194
  499MOL0     C68787   8.224   3.333   8.614 -0.4418  0.5831 -0.6341
  499MOL0     C68788   8.269   3.434   8.709 -0.2348  0.8862 -0.2016
  499MOL0     C68789   8.307   3.524   8.773 -0.1532  0.0323 -0.3122
  499MOL0     C68790   7.783   3.710   8.271  0.0364 -0.6833 -0.4665
  499MOL0     C68791   7.690   3.779   8.193  0.7661 -0.4088  0.6795
  499MOL0     C68792   7.548   3.782   8.235  0.5373  0.1402 -0.3012
  499MOL0     H68793   7.386   3.910   7.862 -2.9630  3.0869 -0.1695
  499MOL0     H68794   7.238   3.973   7.687 -1.2921 -0.3919 -2.7234
  499MOL0     H68795   7.153   4.149   7.581  0.3976  1.1236 -1.0907
  499MOL0     H68796   7.124   4.021   7.454  2.3096 -1.3342  1.4925
  499MOL0     H68797   7.184   4.208   7.287  2.4180  4.0311 -0.1558
  499MOL0     H68798   7.028   4.219   7.378  0.4268  0.1715  0.2498
  499MOL0     H68799   7.118   4.397   7.520  0.7897  1.0328  0.6118
  499MOL0     H68800   7.280   4.371   7.492  0.3860  0.4049 -0.4885
  499MOL0     H68801   7.255   4.413   7.251 -1.1845  1.8821 -1.1371
  499MOL0     H68802   7.104   4.466   7.278 -0.7967 -4.7605 -1.1871
  499MOL0     H68803   7.379   4.549   7.394 -0.8353 -1.7886  1.6403
  499MOL0     H68804   7.231   4.619   7.472  0.3473  0.0061  0.0717
  499MOL0     H68805   7.330   4.677   7.201 -1.7396  1.3590 -1.4564
  499MOL0     H68806   7.155   4.674   7.235 -0.0848  0.1830 -0.0764
  499MOL0     H68807   7.157   4.818   7.428  0.1884  0.9701  1.1577
  499MOL0     H68808   7.194   4.905   7.275 -1.4805  0.5738  1.2896
  499MOL0     H68809   7.327   5.007   7.427 -2.8889 -0.9991  4.5708
  499MOL0     H68810   7.385   4.858   7.489 -2.5816 -4.9948 -0.9189
  499MOL0     H68811   7.382   5.066   7.164  0.1170  0.1853 -0.7490
  499MOL0     H68812   7.532   5.084   6.975 -0.3023  2.1514  2.1336
  499MOL0     H68813   7.682   4.989   6.956  0.1081 -0.6124  0.6574
  499MOL0     H68814   7.695   5.250   6.986 -3.9810  2.0048  0.8527
  499MOL0     H68815   7.674   5.225   7.162 -0.9237  0.7692 -1.4809
  499MOL0     H68816   7.851   5.047   7.139 -1.9953 -0.1669  1.1288
  499MOL0     H68817   7.894   5.103   6.980 -2.0043 -1.7730  0.1477
  499MOL0     H68818   7.899   5.312   7.210  4.3430  4.1004 -1.1419
  499MOL0     H68819   8.026   5.205   7.174  4.0372  2.6998 -3.1457
  499MOL0     H68820   8.023   5.470   7.240 -2.2393 -1.3692 -0.5014
  499MOL0     H68821   8.122   5.827   7.264  1.1827 -0.2335 -0.8014
  499MOL0     H68822   8.086   5.664   7.347 -4.2013 -0.4529  0.6690
  499MOL0     H68823   7.955   5.769   7.298  0.9092 -2.1677  3.9440
  499MOL0     H68824   8.339   6.039   6.855 -0.2684 -1.5433  0.5242
  499MOL0     H68825   8.386   6.276   6.788  1.1899 -0.1608 -0.9121
  499MOL0     H68826   8.353   6.508   6.642  0.2337 -1.5238  2.0467
  499MOL0     H68827   8.216   6.428   6.563 -1.7036 -0.0759  0.6173
  499MOL0     H68828   8.201   6.715   6.684  0.3659  0.7509 -0.3509
  499MOL0     H68829   8.248   6.693   6.526  0.7680  1.9196  1.3351
  499MOL0     H68830   8.061   6.560   6.477 -0.4095 -2.7917  1.5912
  499MOL0     H68831   8.033   6.734   6.487  0.3483  1.3630 -0.1027
  499MOL0     H68832   7.962   6.677   6.729  0.2902  0.7345 -0.8561
  499MOL0     H68833   7.962   6.503   6.694 -0.2555  0.3777  1.5873
  499MOL0     H68834   7.802   6.712   6.574  2.5750  0.3859  0.3789
  499MOL0     H68835   7.787   6.546   6.512 -1.7594  0.2418 -0.4482
  499MOL0     H68836   7.709   6.623   6.809  2.5002 -1.9363  1.4303
  499MOL0     H68837   7.719   6.467   6.747 -0.2777 -0.7995 -0.2845
  499MOL0     H68838   7.552   6.668   6.596 -1.0085  0.3605  0.1982
  499MOL0     H68839   7.480   6.602   6.733  0.0036  2.6624  0.0888
  499MOL0     H68840   7.582   6.423   6.513 -2.1695 -1.6266 -1.8418
  499MOL0     H68841   7.419   6.470   6.521  1.4633 -1.3912 -2.1424
  499MOL0     H68842   7.972   6.355   6.829  0.2956  0.0168  2.5461
  499MOL0     H68843   7.920   6.133   6.889  0.1121  1.2733  0.8758
  499MOL0     H68844   8.021   5.698   6.795 -2.0832  1.6681 -0.2703
  499MOL0     H68845   7.992   5.452   6.813 -5.3136  1.2045 -0.3102
  499MOL0     H68846   7.581   4.093   7.443 -1.1790 -1.0883 -0.0498
  499MOL0     H68847   7.721   4.014   7.630 -0.2450 -2.4496 -1.8327
  499MOL0     H68848   7.889   3.885   7.939 -0.1964 -2.6887 -1.0058
  499MOL0     H68849   8.059   3.781   8.080 -0.3368  0.6228 -0.2056
  499MOL0     H68850   7.946   3.604   8.483  0.2283 -1.2220  1.6485
  499MOL0     H68851   7.898   3.492   8.357 -0.5781  0.2222  2.2792
  499MOL0     H68852   8.195   3.542   8.476  1.3898 -2.0181  0.2692
  499MOL0     H68853   8.162   3.433   8.353 -0.3078 -0.5521  0.0658
  499MOL0     H68854   8.022   3.415   8.616  0.6569  0.3267  0.5136
  499MOL0     H68855   8.035   3.279   8.506 -0.2650  0.5019 -1.9696
  499MOL0     H68856   8.309   3.338   8.545 -1.4763  3.1035 -1.8511
  499MOL0     H68857   8.213   3.233   8.657  0.0491  0.5977 -0.4712
  499MOL0     H68858   8.330   3.614   8.826 -1.8691  1.8138 -2.3629
  499MOL0     H68859   7.756   3.649   8.357 -0.2904 -3.0486 -2.1492
  499MOL0     H68860   7.530   3.866   8.303 -0.9496 -2.4803  2.7707
  499MOL0     H68861   7.475   3.779   8.153 -2.4483  1.6700  2.1064
  499MOL0     H68862   7.539   3.693   8.297  1.2300  1.2869  1.5326
  500MOL0     O68863  10.529   7.832   6.451 -0.0606 -0.4050  0.3051
  500MOL0     C68864  10.437   7.820   6.365  0.5489 -0.4866  0.5145
  500MOL0     O68865  10.349   7.711   6.356  0.3108  0.6871  0.5153
  500MOL0     C68866  10.313   7.652   6.473  0.2509 -0.2769 -0.2857
  500MOL0     C68867  10.361   7.526   6.502  1.1652 -0.2505 -0.0139
  500MOL0     C68868  10.318   7.452   6.613 -0.1290  0.3458 -0.1838
  500MOL0     C68869  10.230   7.511   6.704  0.3400 -0.4575  0.2944
  500MOL0     O68870  10.202   7.440   6.811 -0.0590 -0.7768 -0.0395
  500MOL0     C68871  10.158   7.515   6.925 -0.2086  0.6419 -1.1977
  500MOL0     C68872  10.158   7.427   7.049 -0.2610 -0.7119 -0.1004
  500MOL0     C68873  10.034   7.350   7.072 -0.5762  0.5387  0.3143
  500MOL0     C68874  10.051   7.245   7.191 -0.7468 -0.2985  0.4277
  500MOL0     C68875   9.918   7.176   7.223  0.2120  0.0106 -0.4408
  500MOL0     C68876   9.885   7.056   7.134  0.8923  0.0510  0.3454
  500MOL0     C68877   9.982   6.947   7.151 -0.4546 -0.1332  0.2499
  500MOL0     C68878   9.930   6.818   7.081  0.2807  0.0043  0.0345
  500MOL0     N68879   9.898   6.828   6.940  0.4165  0.4051  0.3557
  500MOL0     C68880   9.936   6.739   6.844 -0.0265 -0.4096 -0.0718
  500MOL0     C68881   9.843   6.748   6.742 -0.2016  0.4822 -0.1697
  500MOL0     C68882   9.846   6.678   6.615  0.1439 -0.2488  0.2993
  500MOL0     C68883   9.770   6.748   6.495 -0.2140 -1.1227 -0.7196
  500MOL0     C68884   9.768   6.652   6.377 -0.1978 -0.0895  0.2035
  500MOL0     C68885   9.646   6.566   6.405  0.4815 -0.3900 -0.6504
  500MOL0     O68886   9.611   6.498   6.284  0.5524 -0.4075  0.7770
  500MOL0     C68887   9.624   6.360   6.262 -0.2558  0.0327  0.4830
  500MOL0     C68888   9.705   6.285   6.344  0.3242  0.4158 -0.2726
  500MOL0     C68889   9.711   6.148   6.331  1.7660  0.1683 -0.1175
  500MOL0     C68890   9.814   6.063   6.396 -1.0441 -0.6517 -0.5701
  500MOL0     C68891   9.628   6.083   6.235 -0.0724 -0.2091  1.2771
  500MOL0     C68892   9.629   5.930   6.198  0.3511 -0.1853  0.6560
  500MOL0     O68893   9.542   5.903   6.092  0.0932  1.0394  0.8351
  500MOL0     C68894   9.536   5.769   6.049 -0.2022 -0.5845  0.0586
  500MOL0     C68895   9.633   5.716   5.969 -0.7587 -0.6030  0.8478
  500MOL0     C68896   9.611   5.584   5.926 -0.5390  1.0221  0.0701
  500MOL0     C68897   9.508   5.507   5.959 -0.2115 -0.7527 -0.4555
  500MOL0     O68898   9.501   5.383   5.905 -0.6653 -0.7046 -1.0062
  500MOL0     C68899   9.377   5.328   5.861  0.0375  0.9569 -0.1355
  500MOL0     C68900   9.360   5.191   5.932  0.6706  0.3374 -0.2448
  500MOL0     C68901   9.266   5.083   5.863 -0.0962 -0.2342  0.5091
  500MOL0     C68902   9.203   4.987   5.968 -0.4745 -0.6437  0.3027
  500MOL0     C68903   9.160   4.857   5.915  1.3644  0.3410  1.1670
  500MOL0     C68904   9.045   4.786   5.986  0.2770  0.8849 -0.2478
  500MOL0     C68905   9.052   4.633   5.936 -0.6867 -0.1778  0.6195
  500MOL0     C68906   9.102   4.532   6.035  0.7210 -0.4088  0.1956
  500MOL0    Cl68907   9.100   4.367   5.954 -0.2257 -0.2427 -0.0089
  500MOL0     C68908   9.416   5.552   6.058 -0.1592 -0.7189 -0.0658
  500MOL0     C68909   9.429   5.690   6.095 -0.6097 -0.7163  0.0434
  500MOL0     O68910   9.705   5.850   6.249 -0.0960  0.2867  0.0375
  500MOL0     C68911   9.539   6.170   6.154 -0.5304  0.1133 -0.6004
  500MOL0     C68912   9.544   6.307   6.167  0.0933  0.3063 -0.2001
  500MOL0     N68913   9.756   6.844   6.784 -0.5644 -1.2379  0.8542
  500MOL0     N68914   9.782   6.891   6.901 -0.1497 -0.2448 -0.6292
  500MOL0     C68915  10.172   7.637   6.676  0.3383  1.2250 -0.5216
  500MOL0     C68916  10.214   7.706   6.560  0.4001 -0.5859  0.2352
  500MOL0     C68917  10.419   7.927   6.262  0.1942 -0.2343 -0.8393
  500MOL0     C68918  10.291   7.960   6.210 -0.0321  0.3707 -0.2349
  500MOL0     C68919  10.280   8.038   6.096  0.5472 -0.1431  0.8560
  500MOL0     C68920  10.390   8.105   6.046  0.0668  0.8387  0.1619
  500MOL0     O68921  10.378   8.191   5.938 -0.2370 -0.4675 -0.0320
  500MOL0     C68922  10.456   8.174   5.818  0.2240 -0.2189  0.6402
  500MOL0     C68923  10.360   8.163   5.691  0.1194  0.5587  0.2361
  500MOL0     C68924  10.326   8.015   5.669 -0.0875 -0.5214  1.1617
  500MOL0     C68925  10.213   8.008   5.564 -0.4159  0.8639 -0.7573
  500MOL0     C68926  10.073   8.038   5.622  0.1993 -0.7666  0.0338
  500MOL0     C68927   9.967   8.067   5.666 -0.1326  0.0439  0.5759
  500MOL0     C68928  10.512   8.087   6.106 -0.3139  0.0641 -0.0370
  500MOL0     C68929  10.531   7.993   6.210 -0.4064  0.8196 -0.1402
  500MOL0     C68930  10.674   7.969   6.262 -0.0504  1.0401  0.0052
  500MOL0     H68931  10.422   7.482   6.423 -0.7305 -0.0237 -1.6702
  500MOL0     H68932  10.351   7.349   6.628  1.1194  0.7713  0.0850
  500MOL0     H68933  10.056   7.554   6.914 -1.8583 -2.6354  0.8654
  500MOL0     H68934  10.234   7.592   6.944  1.9012 -2.0177  2.3386
  500MOL0     H68935  10.240   7.355   7.043 -0.0516 -0.3495 -2.8335
  500MOL0     H68936  10.169   7.492   7.136 -1.6034  3.6932 -2.8581
  500MOL0     H68937   9.947   7.412   7.096 -1.8973 -0.9145 -0.5172
  500MOL0     H68938  10.017   7.296   6.978 -0.7542  1.1575 -0.0112
  500MOL0     H68939  10.134   7.180   7.160  0.6005  0.5285  2.1067
  500MOL0     H68940  10.085   7.292   7.284  1.7294  1.6660 -1.3272
  500MOL0     H68941   9.826   7.235   7.214 -0.5945 -1.1340  0.0584
  500MOL0     H68942   9.924   7.157   7.330 -1.0970 -0.9769 -0.5172
  500MOL0     H68943   9.788   7.012   7.159  0.8758  0.8431  1.8155
  500MOL0     H68944   9.877   7.088   7.030  0.0765 -2.0625 -0.3055
  500MOL0     H68945   9.975   6.931   7.259 -1.7243  0.1789  0.2221
  500MOL0     H68946  10.075   6.986   7.110 -0.7217 -0.7165 -0.9452
  500MOL0     H68947  10.005   6.738   7.085 -0.3155 -0.5944 -0.5482
  500MOL0     H68948   9.837   6.781   7.126 -3.3962  0.7938 -5.8138
  500MOL0     H68949  10.017   6.667   6.849 -1.6644 -2.3855 -0.5888
  500MOL0     H68950   9.786   6.590   6.640 -3.3265  1.9030  0.3717
  500MOL0     H68951   9.950   6.658   6.587  0.8159  1.1582  1.6780
  500MOL0     H68952   9.671   6.777   6.534  0.0584  0.1673 -0.9419
  500MOL0     H68953   9.827   6.838   6.470  0.5962 -0.2687  3.4758
  500MOL0     H68954   9.761   6.712   6.285 -1.2597  0.1406  0.4238
  500MOL0     H68955   9.857   6.588   6.373 -0.6754 -0.7905  0.6400
  500MOL0     H68956   9.662   6.499   6.490 -1.8981 -1.3088 -0.8339
  500MOL0     H68957   9.559   6.626   6.436  2.5309  3.1670 -1.2441
  500MOL0     H68958   9.758   6.333   6.426  0.2445 -0.7284  0.4837
  500MOL0     H68959   9.768   5.984   6.456 -1.2525 -1.7255 -2.0911
  500MOL0     H68960   9.887   6.113   6.461 -0.5155 -1.1966 -0.7311
  500MOL0     H68961   9.873   6.013   6.318 -0.7367  0.6643 -1.2049
  500MOL0     H68962   9.721   5.766   5.932 -1.6445 -1.2082 -2.4354
  500MOL0     H68963   9.683   5.536   5.861 -1.3265  0.8139 -0.6712
  500MOL0     H68964   9.296   5.395   5.891  0.5890  0.3382  3.0339
  500MOL0     H68965   9.375   5.321   5.751  0.9367  2.3891 -0.2588
  500MOL0     H68966   9.454   5.137   5.948 -0.5360 -1.3522  1.7268
  500MOL0     H68967   9.326   5.217   6.032  1.7827 -0.6062  0.4078
  500MOL0     H68968   9.329   5.018   5.801 -0.5709  0.1232 -0.3710
  500MOL0     H68969   9.182   5.125   5.807 -0.6787 -0.0367  1.5032
  500MOL0     H68970   9.115   5.031   6.016  1.6997  0.1946  3.9129
  500MOL0     H68971   9.262   4.974   6.059 -1.3382 -0.0193  0.9765
  500MOL0     H68972   9.129   4.862   5.811  0.7304  0.3489  1.3512
  500MOL0     H68973   9.251   4.798   5.922  1.9944  1.1569  0.0666
  500MOL0     H68974   8.944   4.821   5.963  0.3269  1.9874  1.1306
  500MOL0     H68975   9.057   4.801   6.093 -1.6991  5.0710 -0.3986
  500MOL0     H68976   9.115   4.625   5.848  0.6855  2.1478  1.3084
  500MOL0     H68977   8.951   4.604   5.906 -0.9319 -0.5471  1.7341
  500MOL0     H68978   9.045   4.525   6.128  0.0762  0.3823 -0.1323
  500MOL0     H68979   9.203   4.556   6.071  0.6101 -0.4599  0.5408
  500MOL0     H68980   9.331   5.497   6.096  0.3239 -0.3547  1.6230
  500MOL0     H68981   9.369   5.720   6.180  2.1523 -2.1101  2.6839
  500MOL0     H68982   9.472   6.120   6.084 -1.7421  1.3136 -0.3432
  500MOL0     H68983   9.471   6.369   6.117  0.1698  0.2704 -0.3580
  500MOL0     H68984  10.097   7.689   6.734  1.4247  3.3065 -0.8944
  500MOL0     H68985  10.161   7.796   6.529 -0.4939 -0.1771  2.7121
  500MOL0     H68986  10.212   7.902   6.257  0.2489  0.4556  0.3575
  500MOL0     H68987  10.180   8.039   6.052  0.1925  0.0599  1.6634
  500MOL0     H68988  10.527   8.255   5.800  0.8916 -0.9202  0.1047
  500MOL0     H68989  10.510   8.079   5.825  0.0534 -0.4255 -0.6400
  500MOL0     H68990  10.415   8.191   5.601  3.6433 -2.5303  1.1499
  500MOL0     H68991  10.273   8.227   5.709 -0.9104 -1.4198  2.9084
  500MOL0     H68992  10.412   7.959   5.632 -0.3777 -2.0433  2.6708
  500MOL0     H68993  10.301   7.978   5.769  1.1122 -1.5556  1.1118
  500MOL0     H68994  10.215   7.907   5.522  1.0301  1.1463 -1.4634
  500MOL0     H68995  10.240   8.082   5.488  1.0593 -0.9801 -2.1469
  500MOL0     H68996   9.891   8.086   5.739  1.3292  0.8906  1.9444
  500MOL0     H68997  10.594   8.146   6.067  1.9118 -1.6514  1.7642
  500MOL0     H68998  10.691   8.031   6.351 -1.8171 -1.1097  2.0028
  500MOL0     H68999  10.704   7.866   6.285 -2.8016  0.0879 -0.2015
  500MOL0     H69000  10.742   8.006   6.185  1.8794  0.4542  1.3528
  501MOL0     O69001  10.054   1.761   5.362 -0.3352 -0.3690  0.2829
  501MOL0     C69002  10.016   1.782   5.244 -0.4276 -0.2599 -0.6352
  501MOL0     O69003   9.940   1.882   5.214  0.0904 -0.2483  0.3384
  501MOL0     C69004   9.868   1.964   5.299 -0.5470  0.0915 -0.1530
  501MOL0     C69005   9.920   2.092   5.320  0.1500 -0.4222 -0.1362
  501MOL0     C69006   9.867   2.181   5.417 -0.4012 -0.2347  0.8249
  501MOL0     C69007   9.758   2.143   5.492 -0.0811  0.3971  0.4149
  501MOL0     O69008   9.709   2.226   5.587  0.2643  0.2691 -0.2481
  501MOL0     C69009   9.750   2.206   5.727  0.4823  0.4689  0.6051
  501MOL0     C69010   9.629   2.158   5.806  0.8469 -0.6487  0.3975
  501MOL0     C69011   9.658   2.166   5.957 -0.2603 -0.5315 -0.0192
  501MOL0     C69012   9.673   2.308   6.004 -0.2361  0.3679 -0.4935
  501MOL0     C69013   9.701   2.313   6.154 -0.4925  0.0202 -0.1164
  501MOL0     C69014   9.658   2.441   6.233  0.2666 -0.1842 -0.6699
  501MOL0     C69015   9.728   2.570   6.169  0.0803 -0.2649 -0.2039
  501MOL0     C69016   9.677   2.698   6.225  0.1923  0.3258 -0.4490
  501MOL0     N69017   9.782   2.797   6.243 -0.3622  0.2197  0.1495
  501MOL0     C69018   9.896   2.790   6.333  0.2656 -0.6556  0.3121
  501MOL0     C69019   9.955   2.911   6.312 -0.3105  0.6236  0.0739
  501MOL0     C69020  10.076   2.966   6.376  0.1445  0.1222  0.0175
  501MOL0     C69021  10.193   2.906   6.300  0.0744  0.7450 -0.7488
  501MOL0     C69022  10.318   2.896   6.386 -0.1101  0.0206 -0.0287
  501MOL0     C69023  10.431   2.870   6.300  0.4748  0.0079  0.0300
  501MOL0     O69024  10.470   2.971   6.203  0.2784  0.7032  0.1829
  501MOL0     C69025  10.538   3.082   6.256 -0.0115  1.1995  0.1303
  501MOL0     C69026  10.668   3.071   6.299  0.3104 -0.9935 -0.3837
  501MOL0     C69027  10.731   3.185   6.365 -0.6410  0.5749  0.0279
  501MOL0     C69028  10.875   3.172   6.401  0.6492  0.2435 -0.0372
  501MOL0     C69029  10.662   3.301   6.382 -0.8229 -0.8234 -0.0585
  501MOL0     C69030  10.711   3.421   6.445 -0.0009  1.1734 -0.7383
  501MOL0     O69031  10.706   3.533   6.377  0.0190  0.4802 -0.8881
  501MOL0     C69032  10.787   3.633   6.426  0.7521 -0.4779  0.6553
  501MOL0     C69033  10.932   3.606   6.439 -0.1275 -0.0195 -0.2348
  501MOL0     C69034  10.999   3.708   6.505  1.1326 -0.1830 -0.2241
  501MOL0     C69035  10.942   3.829   6.543  1.1009 -0.2107 -0.1121
  501MOL0     O69036  11.036   3.924   6.578  0.1063  1.2931 -0.5146
  501MOL0     C69037  11.006   4.061   6.578  0.5507 -0.9680  1.3225
  501MOL0     C69038  10.993   4.125   6.434 -0.0091  0.6882 -1.0552
  501MOL0     C69039  11.101   4.092   6.334 -0.0159 -0.9070 -0.3200
  501MOL0     C69040  11.240   4.156   6.373  0.3375 -0.4685 -0.5603
  501MOL0     C69041  11.339   4.153   6.243 -0.5704  0.8177  0.0168
  501MOL0     C69042  11.475   4.225   6.263  0.3565 -0.0425 -1.0075
  501MOL0     C69043  11.553   4.185   6.394  0.0249  0.3740 -0.5266
  501MOL0     C69044  11.571   4.029   6.397  1.0998  0.0556 -0.0603
  501MOL0    Cl69045  11.644   3.982   6.245  0.0884 -0.1940  0.0870
  501MOL0     C69046  10.804   3.846   6.520 -0.4804  0.5009  0.3106
  501MOL0     C69047  10.726   3.753   6.457  0.0367 -0.2363 -1.0032
  501MOL0     O69048  10.765   3.408   6.556 -0.0408  0.6524  0.3611
  501MOL0     C69049  10.537   3.310   6.332  0.5672 -0.1308  0.8817
  501MOL0     C69050  10.476   3.201   6.261  0.0411 -0.5681 -0.6508
  501MOL0     N69051   9.889   2.985   6.213  0.4147  0.1747 -0.5784
  501MOL0     N69052   9.785   2.918   6.178  0.0517  0.8269 -0.2120
  501MOL0     C69053   9.722   2.010   5.485  1.1028 -0.0615 -0.2683
  501MOL0     C69054   9.776   1.915   5.391  0.2038  0.6052  0.9667
  501MOL0     C69055  10.054   1.681   5.141 -0.3804  1.1184  0.6743
  501MOL0     C69056   9.964   1.666   5.041  0.4580 -1.0991  0.1289
  501MOL0     C69057   9.986   1.580   4.941 -0.5208  0.4104  0.7158
  501MOL0     C69058  10.100   1.501   4.929 -0.2338 -0.5224 -0.2694
  501MOL0     O69059  10.107   1.431   4.808 -0.0368  0.5972 -0.1176
  501MOL0     C69060  10.155   1.295   4.818  0.3666  0.0289  0.5437
  501MOL0     C69061  10.124   1.217   4.680  0.3260 -0.0263 -0.8633
  501MOL0     C69062  10.248   1.145   4.619 -0.0238  0.4730 -0.4703
  501MOL0     C69063  10.261   1.008   4.668  0.0617  0.9871 -0.3632
  501MOL0     C69064  10.291   0.997   4.810  0.2005 -0.2577 -0.3715
  501MOL0     C69065  10.302   0.987   4.931 -0.2447 -0.5304 -1.6744
  501MOL0     C69066  10.197   1.527   5.022  0.1045 -0.3715 -0.1019
  501MOL0     C69067  10.175   1.616   5.133 -0.5678  0.7294 -0.2011
  501MOL0     C69068  10.277   1.629   5.241  0.2380 -0.9692 -0.1529
  501MOL0     H69069  10.000   2.113   5.250 -0.5479 -1.4881 -1.2779
  501MOL0     H69070   9.913   2.279   5.413 -3.2326  1.1577 -1.6517
  501MOL0     H69071   9.792   2.300   5.765 -0.3636  1.0179  0.2150
  501MOL0     H69072   9.835   2.138   5.723 -0.8425 -1.3722  1.7415
  501MOL0     H69073   9.543   2.222   5.785  0.2029 -1.7672 -0.5175
  501MOL0     H69074   9.599   2.058   5.772  0.1263 -0.3582  0.1605
  501MOL0     H69075   9.577   2.123   6.016 -2.4263  2.5909 -0.4838
  501MOL0     H69076   9.740   2.095   5.975  1.1938  1.2955  0.8597
  501MOL0     H69077   9.744   2.370   5.948  0.1854  0.1261 -0.2265
  501MOL0     H69078   9.580   2.356   5.972  0.9298  1.5962 -2.2011
  501MOL0     H69079   9.806   2.292   6.178 -1.0537 -1.2754  1.3819
  501MOL0     H69080   9.658   2.222   6.198 -1.7366  0.1141 -1.1074
  501MOL0     H69081   9.549   2.454   6.239  0.0208 -2.6263  1.8869
  501MOL0     H69082   9.703   2.420   6.330 -1.7595 -0.6564  0.2181
  501MOL0     H69083   9.708   2.567   6.061 -2.4516  3.3414 -0.0467
  501MOL0     H69084   9.836   2.560   6.176  0.3971  0.3836 -2.9304
  501MOL0     H69085   9.600   2.743   6.161  0.7885  1.5242 -0.3482
  501MOL0     H69086   9.638   2.679   6.326  0.8738  0.4121 -0.1664
  501MOL0     H69087   9.919   2.710   6.402 -3.4023 -1.0462  1.2997
  501MOL0     H69088  10.081   2.940   6.483  0.1130  1.0799  0.2612
  501MOL0     H69089  10.077   3.075   6.367 -3.1151  0.1602 -0.8242
  501MOL0     H69090  10.156   2.805   6.281 -0.3134  0.8221 -0.4116
  501MOL0     H69091  10.210   2.956   6.204 -2.2117  1.8407 -0.6450
  501MOL0     H69092  10.326   2.989   6.445  0.4402  0.7916 -1.2822
  501MOL0     H69093  10.310   2.824   6.468  2.0202  0.8587  1.0045
  501MOL0     H69094  10.520   2.850   6.361  1.5732  3.0911 -0.3815
  501MOL0     H69095  10.405   2.782   6.241 -1.7040  0.2850  0.5036
  501MOL0     H69096  10.699   2.969   6.281 -3.9588 -2.9600  1.8935
  501MOL0     H69097  10.904   3.222   6.494 -1.2341 -1.8507  1.7844
  501MOL0     H69098  10.954   3.183   6.327 -0.8334 -0.1314 -1.7452
  501MOL0     H69099  10.889   3.068   6.433 -3.8854 -1.0473 -1.4092
  501MOL0     H69100  10.982   3.511   6.421 -0.8611 -0.8409  1.7642
  501MOL0     H69101  11.101   3.674   6.515  0.5902 -1.3043  2.0690
  501MOL0     H69102  10.915   4.076   6.636  1.6099  0.9594  2.5723
  501MOL0     H69103  11.081   4.120   6.630 -0.0369 -0.1092  1.2156
  501MOL0     H69104  10.900   4.077   6.400 -0.0950 -0.4359  0.6332
  501MOL0     H69105  10.984   4.234   6.435  2.3901  0.9640  1.5380
  501MOL0     H69106  11.081   4.137   6.236  0.1852  0.9435  0.4433
  501MOL0     H69107  11.114   3.984   6.324 -0.3921 -1.1319  1.3428
  501MOL0     H69108  11.290   4.108   6.457  0.8098 -2.3530 -1.8529
  501MOL0     H69109  11.211   4.258   6.400  0.0933 -0.0453 -2.2500
  501MOL0     H69110  11.359   4.047   6.225 -3.4200  0.3959 -1.2782
  501MOL0     H69111  11.291   4.202   6.158  1.4118  2.4174 -0.2388
  501MOL0     H69112  11.447   4.331   6.262  1.4235  0.2639 -0.2226
  501MOL0     H69113  11.537   4.215   6.174  1.6120  1.1112 -0.3079
  501MOL0     H69114  11.496   4.208   6.485 -1.9575 -4.1344 -0.3563
  501MOL0     H69115  11.652   4.232   6.390  0.9356 -1.2922  1.0754
  501MOL0     H69116  11.474   3.983   6.416  1.7269 -0.3125  2.7122
  501MOL0     H69117  11.640   3.997   6.476 -1.1079  1.2797  2.5588
  501MOL0     H69118  10.752   3.940   6.539  0.2959  1.1647 -0.7354
  501MOL0     H69119  10.617   3.762   6.456 -0.0365  0.1776  1.7897
  501MOL0     H69120  10.476   3.400   6.345  0.0079 -0.5755  1.4007
  501MOL0     H69121  10.374   3.212   6.224 -0.7681 -1.9770  1.0013
  501MOL0     H69122   9.667   1.961   5.565 -0.0696  1.3494 -0.1659
  501MOL0     H69123   9.758   1.810   5.413  4.5040 -0.5218  0.0702
  501MOL0     H69124   9.872   1.723   5.039 -0.8192 -3.0812 -1.4600
  501MOL0     H69125   9.905   1.578   4.869 -0.2457 -1.3109  0.4152
  501MOL0     H69126  10.263   1.292   4.836  1.1905  0.3168 -3.4759
  501MOL0     H69127  10.106   1.246   4.902  0.0212  3.7024  2.7255
  501MOL0     H69128  10.072   1.285   4.612 -1.2376  0.0897  0.3793
  501MOL0     H69129  10.044   1.145   4.702  1.4796 -0.7710  1.0745
  501MOL0     H69130  10.211   1.147   4.516 -1.2750  0.7247 -0.0340
  501MOL0     H69131  10.335   1.211   4.627 -0.7655  1.7653 -2.2112
  501MOL0     H69132  10.341   0.952   4.619 -1.9630 -1.0758 -1.4839
  501MOL0     H69133  10.174   0.945   4.649  1.2060 -0.8801  0.2507
  501MOL0     H69134  10.317   0.984   5.037 -1.0650 -0.9021 -1.5710
  501MOL0     H69135  10.297   1.483   5.020  0.3729  0.1786  0.7218
  501MOL0     H69136  10.316   1.732   5.241  0.6978 -1.1324 -1.1829
  501MOL0     H69137  10.237   1.605   5.340 -1.5460 -2.0926 -1.1134
  501MOL0     H69138  10.363   1.566   5.218  1.7050  0.8075  0.1884
  502MOL0     O69139   5.133   3.511   5.690 -0.0075 -0.8666  0.3259
  502MOL0     C69140   5.024   3.468   5.667  1.0950  0.1534  0.3323
  502MOL0     O69141   4.979   3.348   5.692 -0.1428  0.4051  0.6257
  502MOL0     C69142   5.057   3.236   5.727 -0.0344  1.5944  0.2052
  502MOL0     C69143   5.010   3.148   5.820  0.1930  1.2522  0.4789
  502MOL0     C69144   5.083   3.034   5.861 -0.5416  0.6353  0.3410
  502MOL0     C69145   5.211   3.007   5.804 -0.8884  0.2268 -0.6134
  502MOL0     O69146   5.290   2.898   5.824  0.7469  0.6450  0.8705
  502MOL0     C69147   5.301   2.837   5.952  0.0217  0.4091  1.3681
  502MOL0     C69148   5.397   2.902   6.050  0.1459 -0.8844 -1.1719
  502MOL0     C69149   5.341   2.881   6.200  0.1298  0.6699 -0.5080
  502MOL0     C69150   5.448   2.912   6.302 -0.6403 -0.6450 -0.5337
  502MOL0     C69151   5.365   2.905   6.433 -0.3040  0.5787 -0.1905
  502MOL0     C69152   5.444   2.939   6.563  0.0097  0.0546  0.4304
  502MOL0     C69153   5.364   2.898   6.684  0.2026 -0.8171  0.2175
  502MOL0     C69154   5.239   2.990   6.712 -0.3307  0.0188 -0.0038
  502MOL0     N69155   5.149   2.935   6.812 -1.0179  0.5980  0.2720
  502MOL0     C69156   5.081   2.824   6.821  0.4117  0.7083 -0.6469
  502MOL0     C69157   5.004   2.835   6.935 -0.8616  0.5591 -0.6325
  502MOL0     C69158   4.897   2.740   6.991  0.1992  1.0194  0.4840
  502MOL0     C69159   4.825   2.668   6.879  0.5985 -0.5872 -0.0815
  502MOL0     C69160   4.737   2.547   6.920  0.0519 -0.0096 -0.8066
  502MOL0     C69161   4.822   2.423   6.956 -0.2396 -0.6879 -0.2141
  502MOL0     O69162   4.848   2.350   6.843 -0.5366 -0.3079  0.7645
  502MOL0     C69163   4.767   2.248   6.793 -0.3617  0.1268  0.7328
  502MOL0     C69164   4.661   2.191   6.851  0.2067  0.3082  0.7690
  502MOL0     C69165   4.578   2.103   6.781  0.1773  0.2296 -0.3059
  502MOL0     C69166   4.461   2.057   6.857 -0.0017  0.5323 -0.2325
  502MOL0     C69167   4.612   2.058   6.655  0.6948  0.6469  0.1176
  502MOL0     C69168   4.528   1.959   6.588 -0.9877  0.7706  0.3724
  502MOL0     O69169   4.402   1.954   6.604  0.6949 -0.1814  0.6344
  502MOL0     C69170   4.325   1.852   6.545  0.2053  0.7701 -0.2340
  502MOL0     C69171   4.253   1.769   6.636 -0.1506 -0.5901  0.0210
  502MOL0     C69172   4.173   1.673   6.578  0.2172  0.8154  0.1310
  502MOL0     C69173   4.172   1.636   6.444  0.3009 -0.5774  0.2420
  502MOL0     O69174   4.092   1.532   6.399 -0.4921  0.6227  0.2537
  502MOL0     C69175   4.050   1.519   6.264  0.1803 -0.2671  0.8803
  502MOL0     C69176   4.019   1.373   6.236  0.0576 -1.0011 -0.2280
  502MOL0     C69177   3.918   1.342   6.128 -0.1830  0.5727 -1.0482
  502MOL0     C69178   3.948   1.414   5.994 -0.0595 -0.7912  0.4971
  502MOL0     C69179   3.881   1.340   5.890 -0.3207 -0.4343 -0.8140
  502MOL0     C69180   3.898   1.424   5.762  0.6110  0.0294 -0.7577
  502MOL0     C69181   3.854   1.346   5.638  0.2409  0.0525  0.5548
  502MOL0     C69182   3.720   1.265   5.643  1.2544 -0.4606  0.2058
  502MOL0    Cl69183   3.665   1.211   5.478  0.0705  0.0721 -0.0712
  502MOL0     C69184   4.256   1.706   6.358 -0.2366 -0.3560 -0.5948
  502MOL0     C69185   4.312   1.821   6.410 -0.7706  0.0399 -0.7324
  502MOL0     O69186   4.585   1.881   6.507 -0.0971  0.0410 -0.7186
  502MOL0     C69187   4.726   2.108   6.602 -0.1369  0.2192 -0.1333
  502MOL0     C69188   4.809   2.198   6.668  0.0667  0.2371  0.8372
  502MOL0     N69189   5.048   2.949   7.004  0.9768 -0.9951 -0.3726
  502MOL0     N69190   5.136   3.005   6.927 -0.2326 -0.5162  0.9624
  502MOL0     C69191   5.263   3.095   5.708 -1.1966 -0.1662 -0.1962
  502MOL0     C69192   5.186   3.211   5.667 -0.3813 -0.2998 -0.6875
  502MOL0     C69193   4.925   3.567   5.606 -0.5845  0.7398  0.2322
  502MOL0     C69194   4.964   3.705   5.594  1.1506  0.0848 -0.7049
  502MOL0     C69195   4.875   3.800   5.550  0.8811 -0.1335 -0.1448
  502MOL0     C69196   4.753   3.765   5.502  1.2390 -0.7619  0.2698
  502MOL0     O69197   4.671   3.853   5.435 -0.9275  0.1700 -0.3110
  502MOL0     C69198   4.690   3.997   5.449  1.1019  0.5502 -0.0985
  502MOL0     C69199   4.632   4.035   5.576  0.0501  0.5103  0.4986
  502MOL0     C69200   4.486   4.009   5.591  0.9517  0.5260  0.2796
  502MOL0     C69201   4.438   4.091   5.713  0.3596 -0.4820 -0.0642
  502MOL0     C69202   4.451   4.236   5.688  0.3235 -0.0616 -0.2330
  502MOL0     C69203   4.448   4.349   5.659 -0.2559 -0.3997  0.4259
  502MOL0     C69204   4.707   3.632   5.509 -1.1388 -0.5249 -0.3154
  502MOL0     C69205   4.793   3.534   5.559 -0.2414 -1.0709 -0.6602
  502MOL0     C69206   4.729   3.399   5.565 -0.1032  0.8721 -0.0254
  502MOL0     H69207   4.906   3.162   5.847 -0.6962 -3.0221  0.0557
  502MOL0     H69208   5.064   2.966   5.943 -0.8832  1.2491  0.7845
  502MOL0     H69209   5.328   2.731   5.940 -1.8819  0.1936 -2.9363
  502MOL0     H69210   5.201   2.842   5.996 -1.2652  1.3814 -1.5120
  502MOL0     H69211   5.496   2.855   6.046  0.0435 -1.4394  1.2748
  502MOL0     H69212   5.410   3.010   6.039  0.8852 -0.9222 -0.7963
  502MOL0     H69213   5.264   2.954   6.228  0.7696  0.8160  0.9828
  502MOL0     H69214   5.313   2.776   6.217 -0.8441  1.0604  0.4598
  502MOL0     H69215   5.533   2.843   6.290  1.0658  1.1856  0.4347
  502MOL0     H69216   5.488   3.013   6.293  1.4806 -1.3138  0.6393
  502MOL0     H69217   5.328   2.802   6.444 -1.5095  0.8280 -1.6583
  502MOL0     H69218   5.279   2.971   6.439 -3.1493 -2.9339  4.2813
  502MOL0     H69219   5.541   2.890   6.565 -0.1090 -0.1547  1.4055
  502MOL0     H69220   5.459   3.048   6.564 -0.2714  0.1218 -0.8083
  502MOL0     H69221   5.418   2.918   6.776  0.9069  0.2797 -0.4158
  502MOL0     H69222   5.342   2.791   6.672  1.4253 -0.8989 -1.8216
  502MOL0     H69223   5.278   3.084   6.752  0.4822 -0.7295  1.0167
  502MOL0     H69224   5.190   3.008   6.616  1.1123 -3.0358 -1.4655
  502MOL0     H69225   5.087   2.744   6.748  1.8356  0.5343 -0.3742
  502MOL0     H69226   4.826   2.776   7.066 -0.6292 -1.3672  0.9268
  502MOL0     H69227   4.952   2.662   7.045 -0.4696 -0.1186 -0.4449
  502MOL0     H69228   4.755   2.737   6.831 -0.6355 -2.6370 -1.3828
  502MOL0     H69229   4.900   2.648   6.802  2.3049  1.4818  0.9525
  502MOL0     H69230   4.677   2.582   7.004 -1.1531  1.2715 -2.1420
  502MOL0     H69231   4.666   2.527   6.839 -0.2244  0.4722 -0.6847
  502MOL0     H69232   4.914   2.446   7.010 -0.4985 -2.4776  1.1136
  502MOL0     H69233   4.765   2.360   7.025  0.2021 -1.7719 -0.7979
  502MOL0     H69234   4.618   2.224   6.945  0.7275 -0.8410  1.4358
  502MOL0     H69235   4.447   1.949   6.852  1.0834  0.4111 -1.2506
  502MOL0     H69236   4.369   2.101   6.816 -0.5038  0.1851  0.5049
  502MOL0     H69237   4.462   2.089   6.961  1.3348 -0.3090  0.0436
  502MOL0     H69238   4.265   1.774   6.744  0.2299 -1.9302  0.0686
  502MOL0     H69239   4.109   1.606   6.636 -0.3474 -0.4514 -1.8165
  502MOL0     H69240   3.976   1.595   6.236  1.4555  1.1526  1.1923
  502MOL0     H69241   4.136   1.544   6.201 -0.6514  3.1024  0.8883
  502MOL0     H69242   4.115   1.333   6.202 -0.6163 -1.3607 -1.7916
  502MOL0     H69243   4.003   1.318   6.329 -0.8776  1.8340  1.4160
  502MOL0     H69244   3.814   1.364   6.155 -0.0970 -0.8844  0.6699
  502MOL0     H69245   3.926   1.234   6.109  1.3137  0.2962  0.8703
  502MOL0     H69246   4.056   1.401   5.981 -0.1118 -2.2244  1.2173
  502MOL0     H69247   3.915   1.518   5.989 -1.0057 -1.0470  1.1106
  502MOL0     H69248   3.938   1.246   5.887  3.1711  1.0484  4.7288
  502MOL0     H69249   3.781   1.309   5.923  1.4094 -3.0087  2.6855
  502MOL0     H69250   4.000   1.449   5.732  0.9334 -0.8730 -0.4573
  502MOL0     H69251   3.840   1.516   5.763 -0.5632 -0.6622 -1.7587
  502MOL0     H69252   3.942   1.283   5.623 -0.2808 -0.4495 -0.4763
  502MOL0     H69253   3.856   1.420   5.557  1.0249  0.6936  1.1483
  502MOL0     H69254   3.640   1.319   5.696  0.1607 -0.4637 -1.3512
  502MOL0     H69255   3.737   1.176   5.704 -1.8744 -0.6939  0.9180
  502MOL0     H69256   4.244   1.684   6.253 -1.3559 -0.7401 -0.4014
  502MOL0     H69257   4.365   1.891   6.346  1.6667 -0.3107  0.7806
  502MOL0     H69258   4.767   2.092   6.502  0.9453 -0.2077  0.3563
  502MOL0     H69259   4.900   2.235   6.622 -0.8468  0.8502 -0.5495
  502MOL0     H69260   5.362   3.085   5.664 -1.0226 -2.9595  0.6458
  502MOL0     H69261   5.230   3.290   5.607 -1.1250  1.0539  0.4858
  502MOL0     H69262   5.068   3.728   5.618  1.0569 -1.2266  1.1705
  502MOL0     H69263   4.911   3.903   5.547 -2.2785  1.2773  2.6415
  502MOL0     H69264   4.791   4.039   5.439  1.0859  0.1824 -2.2075
  502MOL0     H69265   4.633   4.043   5.368  2.0973  1.6236 -0.2202
  502MOL0     H69266   4.671   4.136   5.589  1.0637  0.1240  0.4870
  502MOL0     H69267   4.689   3.980   5.652 -2.3309 -1.8998  0.7395
  502MOL0     H69268   4.439   4.055   5.503 -0.7367 -0.2473  0.7524
  502MOL0     H69269   4.457   3.904   5.596  0.5415  0.6533  0.5965
  502MOL0     H69270   4.501   4.058   5.796  1.0855  0.0732 -0.3835
  502MOL0     H69271   4.336   4.070   5.748  0.3877  1.1498  1.1395
  502MOL0     H69272   4.448   4.452   5.630  1.6039 -0.6408 -0.5315
  502MOL0     H69273   4.603   3.614   5.482 -1.8059  3.0136 -0.6193
  502MOL0     H69274   4.798   3.329   5.518 -1.4828  0.5606 -1.7032
  502MOL0     H69275   4.709   3.364   5.667 -1.9615 -2.5966 -1.4250
  502MOL0     H69276   4.635   3.393   5.508 -1.0628 -1.5169  1.6229
  503MOL0     O69277   3.473   1.837   5.313  0.2551 -0.0496 -0.2251
  503MOL0     C69278   3.488   1.932   5.398  1.1869 -0.0751  0.4503
  503MOL0     O69279   3.395   2.029   5.413 -0.8259 -0.7585  0.0245
  503MOL0     C69280   3.283   2.023   5.335  0.1607  0.2158 -0.1451
  503MOL0     C69281   3.228   2.130   5.264 -0.1405 -0.8019 -0.0694
  503MOL0     C69282   3.108   2.113   5.190 -0.0641 -0.6199  0.2915
  503MOL0     C69283   3.026   1.997   5.193 -0.3917 -0.4488  0.4585
  503MOL0     O69284   2.908   1.969   5.129 -0.3632 -0.6139 -0.4370
  503MOL0     C69285   2.855   2.070   5.046  0.5719 -0.3066  0.0155
  503MOL0     C69286   2.702   2.066   5.063  0.5453  0.3724  0.8195
  503MOL0     C69287   2.629   2.181   4.999 -0.1028  0.6060  0.6397
  503MOL0     C69288   2.674   2.197   4.842  0.2147 -0.5332  0.0310
  503MOL0     C69289   2.572   2.276   4.758  0.4645 -0.8297  0.2203
  503MOL0     C69290   2.474   2.176   4.691  0.1239  0.8867  0.1998
  503MOL0     C69291   2.480   2.168   4.541 -0.0045 -1.0177  0.0122
  503MOL0     C69292   2.462   2.306   4.473  0.2125 -0.6856  0.0689
  503MOL0     N69293   2.323   2.351   4.475 -0.1601 -0.4944 -0.3916
  503MOL0     C69294   2.266   2.461   4.546 -1.0861 -0.2475 -0.7851
  503MOL0     C69295   2.131   2.464   4.521  0.6539  0.0672 -0.7447
  503MOL0     C69296   2.023   2.556   4.584 -0.1780 -0.0179  0.1825
  503MOL0     C69297   1.932   2.463   4.669  0.9217 -0.2395 -0.1316
  503MOL0     C69298   1.811   2.529   4.733 -0.7361 -0.9509  0.1497
  503MOL0     C69299   1.745   2.451   4.847 -0.1079  0.4683  0.7638
  503MOL0     O69300   1.600   2.458   4.839 -1.3011  0.1315  0.3813
  503MOL0     C69301   1.510   2.390   4.923  0.4163 -0.1135  0.7348
  503MOL0     C69302   1.369   2.413   4.909 -0.7516 -0.1663  1.1623
  503MOL0     C69303   1.272   2.327   4.981  1.5137 -0.5483 -0.7470
  503MOL0     C69304   1.123   2.357   4.948  0.9899  0.0692  0.2806
  503MOL0     C69305   1.311   2.226   5.074  0.2763  0.1808 -0.1456
  503MOL0     C69306   1.221   2.130   5.142  0.4131 -0.1341  0.5616
  503MOL0     O69307   1.283   2.012   5.164 -0.0461 -0.9900  0.8540
  503MOL0     C69308   1.204   1.914   5.211 -0.4495  0.9887  0.5013
  503MOL0     C69309   1.125   1.829   5.134  0.8402  0.6545 -0.5430
  503MOL0     C69310   1.055   1.720   5.194 -0.0044 -0.0937 -0.5292
  503MOL0     C69311   1.082   1.681   5.317 -0.4736 -0.2613 -0.2648
  503MOL0     O69312   1.018   1.566   5.370 -0.8269  0.5304  1.0577
  503MOL0     C69313   1.092   1.449   5.319 -0.0448  0.2186  0.6023
  503MOL0     C69314   1.105   1.335   5.418  0.9633  0.1643 -0.5354
  503MOL0     C69315   1.190   1.359   5.542  0.8186  0.0020 -0.8783
  503MOL0     C69316   1.169   1.251   5.651 -0.1312 -1.1772  0.0572
  503MOL0     C69317   1.230   1.290   5.785 -0.3894 -0.3330  0.0061
  503MOL0     C69318   1.217   1.172   5.887  0.2606  0.0431  0.5535
  503MOL0     C69319   1.285   1.045   5.849 -0.1724 -0.3492  0.6730
  503MOL0     C69320   1.427   1.067   5.799  0.3592  0.3200 -0.1505
  503MOL0    Cl69321   1.497   0.905   5.770  0.7977  0.0211  0.1927
  503MOL0     C69322   1.159   1.766   5.403  0.5591  1.1071 -0.3188
  503MOL0     C69323   1.216   1.881   5.347 -0.1215 -0.1168  0.9595
  503MOL0     O69324   1.104   2.156   5.174 -0.2395 -0.4349 -0.3218
  503MOL0     C69325   1.450   2.226   5.100 -0.3855 -0.5467  0.7661
  503MOL0     C69326   1.546   2.307   5.035 -0.5257  0.0445  0.4518
  503MOL0     N69327   2.102   2.363   4.429 -0.1369 -0.0412  0.7949
  503MOL0     N69328   2.217   2.294   4.414 -0.2763  0.3242 -0.5255
  503MOL0     C69329   3.079   1.894   5.261 -0.6157 -0.5340 -0.6693
  503MOL0     C69330   3.200   1.906   5.345 -0.3567 -0.8477  0.9550
  503MOL0     C69331   3.608   1.936   5.476  0.2618  0.0494 -0.0013
  503MOL0     C69332   3.654   2.064   5.509 -0.2834 -0.2507 -0.5152
  503MOL0     C69333   3.771   2.078   5.579 -0.7416 -0.1631 -0.1917
  503MOL0     C69334   3.851   1.974   5.613  0.2347 -0.2251 -1.3378
  503MOL0     O69335   3.968   2.016   5.669 -0.6394 -0.0857 -0.7340
  503MOL0     C69336   4.075   1.978   5.586  0.3046  0.2292  0.1855
  503MOL0     C69337   4.213   2.004   5.651  0.5519 -0.6961 -0.2103
  503MOL0     C69338   4.252   1.933   5.780 -0.3129  1.0985  0.1947
  503MOL0     C69339   4.306   1.791   5.752  1.1385  0.5713 -0.6308
  503MOL0     C69340   4.327   1.713   5.873  0.8666  0.1212  0.5147
  503MOL0     C69341   4.330   1.633   5.965  0.2028 -0.0469  0.0708
  503MOL0     C69342   3.811   1.841   5.581 -0.0596  0.3351  0.3812
  503MOL0     C69343   3.685   1.822   5.522 -0.1018 -0.7007  0.6613
  503MOL0     C69344   3.647   1.678   5.493  0.0361  0.6322  0.3210
  503MOL0     H69345   3.271   2.229   5.252  0.2126 -0.5727  2.5105
  503MOL0     H69346   3.079   2.202   5.134  3.1824 -1.0444 -2.4235
  503MOL0     H69347   2.879   2.061   4.939  1.9056 -0.7671  0.3411
  503MOL0     H69348   2.898   2.167   5.072  0.2757 -0.0449 -0.4487
  503MOL0     H69349   2.671   1.971   5.019 -0.8516  0.2838  1.9267
  503MOL0     H69350   2.690   2.058   5.172  0.8681 -1.2236  0.7540
  503MOL0     H69351   2.522   2.175   5.020 -0.4796  2.5438 -0.4658
  503MOL0     H69352   2.658   2.271   5.054  0.2848 -1.0841  3.3779
  503MOL0     H69353   2.767   2.252   4.825 -0.8006  1.7190  1.3148
  503MOL0     H69354   2.696   2.104   4.788  0.0336  0.2006 -1.3405
  503MOL0     H69355   2.614   2.351   4.690  2.4274 -0.0663  2.1827
  503MOL0     H69356   2.506   2.337   4.820  0.0865 -3.0159  2.0914
  503MOL0     H69357   2.468   2.082   4.745 -2.1989 -0.6344 -2.4220
  503MOL0     H69358   2.374   2.217   4.709 -1.2895 -1.9873 -0.5471
  503MOL0     H69359   2.399   2.105   4.504 -1.8506  0.6769  0.9657
  503MOL0     H69360   2.576   2.124   4.511  0.6538  2.0519 -3.0373
  503MOL0     H69361   2.526   2.387   4.509  0.1289  0.5475 -2.3747
  503MOL0     H69362   2.489   2.291   4.368  3.4300 -2.2027  0.9948
  503MOL0     H69363   2.310   2.528   4.620  2.2555 -1.2863 -1.6617
  503MOL0     H69364   1.971   2.605   4.501  0.3717  4.7903  2.3471
  503MOL0     H69365   2.060   2.641   4.642 -2.2226 -0.5555  2.4364
  503MOL0     H69366   1.902   2.376   4.610  3.1951 -1.3323  0.2426
  503MOL0     H69367   1.998   2.427   4.748  1.1235  0.9217  0.2443
  503MOL0     H69368   1.844   2.628   4.766  2.6419 -1.0905 -2.2761
  503MOL0     H69369   1.738   2.528   4.651 -2.5223 -2.3540  1.6761
  503MOL0     H69370   1.759   2.342   4.841 -2.6758  0.1657 -1.3877
  503MOL0     H69371   1.781   2.482   4.945  2.4375  0.3506 -0.0601
  503MOL0     H69372   1.343   2.499   4.847  0.4673  1.4921  2.8309
  503MOL0     H69373   1.059   2.384   5.033 -1.2659  1.1370 -1.6236
  503MOL0     H69374   1.081   2.271   4.895 -0.3755  2.4548 -2.8434
  503MOL0     H69375   1.114   2.437   4.874 -0.4209 -0.1296  0.2021
  503MOL0     H69376   1.114   1.851   5.028  0.8909  1.9195 -0.3016
  503MOL0     H69377   0.980   1.670   5.134  1.0604 -1.6246 -0.6531
  503MOL0     H69378   1.034   1.412   5.233  0.2767 -0.2297  0.5767
  503MOL0     H69379   1.197   1.470   5.297  0.9733 -1.6774  3.2238
  503MOL0     H69380   1.001   1.317   5.444  0.8601 -0.0932 -1.1033
  503MOL0     H69381   1.147   1.248   5.366  0.2475 -0.2028 -0.5036
  503MOL0     H69382   1.169   1.459   5.583 -3.1848 -1.3152  0.7847
  503MOL0     H69383   1.295   1.354   5.512  0.2517  0.5703 -3.1676
  503MOL0     H69384   1.201   1.156   5.607  1.1695 -0.1962 -1.1951
  503MOL0     H69385   1.060   1.245   5.657 -0.1555  0.0721  1.1242
  503MOL0     H69386   1.336   1.314   5.781 -0.4235  0.0255  0.9923
  503MOL0     H69387   1.174   1.382   5.807 -0.8943 -0.5465 -0.3643
  503MOL0     H69388   1.111   1.148   5.903  0.0109  0.8289  0.1055
  503MOL0     H69389   1.272   1.211   5.973  3.6468 -1.3964 -0.7885
  503MOL0     H69390   1.227   0.981   5.781 -0.5925  0.7606 -0.0385
  503MOL0     H69391   1.291   0.983   5.938 -1.8777  0.0705  1.1270
  503MOL0     H69392   1.485   1.103   5.885  3.4370 -0.9835 -1.5386
  503MOL0     H69393   1.429   1.143   5.721 -1.3328  3.5562  2.6905
  503MOL0     H69394   1.200   1.734   5.498  1.4893  0.8935 -0.7840
  503MOL0     H69395   1.272   1.950   5.409 -1.3585  0.8656  1.0290
  503MOL0     H69396   1.498   2.163   5.173  2.8414 -0.0792 -0.7545
  503MOL0     H69397   1.648   2.284   5.064 -0.6817  0.0957  1.0419
  503MOL0     H69398   3.036   1.795   5.270  0.5200 -0.8862  1.8293
  503MOL0     H69399   3.224   1.825   5.414  3.5353 -1.8499 -1.2517
  503MOL0     H69400   3.604   2.155   5.479 -2.2569 -0.8596  0.7942
  503MOL0     H69401   3.802   2.182   5.590 -1.1979  0.0016 -0.4244
  503MOL0     H69402   4.083   1.869   5.590 -0.1267  0.1630 -0.5656
  503MOL0     H69403   4.064   2.021   5.486  1.7267  2.7588  1.0363
  503MOL0     H69404   4.230   2.112   5.659 -3.2057  0.0610 -0.4913
  503MOL0     H69405   4.285   1.973   5.574  1.2297  0.5502 -0.1166
  503MOL0     H69406   4.316   1.994   5.845  0.7183 -0.3701  0.6273
  503MOL0     H69407   4.159   1.917   5.836  0.3918  2.2883  1.7975
  503MOL0     H69408   4.405   1.810   5.710  0.6628 -1.4418 -2.8723
  503MOL0     H69409   4.238   1.731   5.692 -0.0367  1.9584 -0.7294
  503MOL0     H69410   4.361   1.556   6.033 -1.1935 -1.1704 -0.5132
  503MOL0     H69411   3.885   1.763   5.596 -0.1995  0.3307  1.0985
  503MOL0     H69412   3.543   1.653   5.517  0.2160  0.6048  1.0804
  503MOL0     H69413   3.656   1.668   5.384 -2.5262 -0.6733  0.1529
  503MOL0     H69414   3.710   1.603   5.540  0.2014  0.3458 -0.3436
  504MOL0     O69415   4.914   4.025   3.662  0.3559  0.4734  0.5002
  504MOL0     C69416   4.864   3.947   3.580  1.2030  0.3097  0.3060
  504MOL0     O69417   4.748   3.962   3.516 -0.0144  0.4614 -0.4237
  504MOL0     C69418   4.663   4.061   3.553 -0.4388  0.0376 -0.1428
  504MOL0     C69419   4.704   4.198   3.564 -0.0284  0.2004 -0.5515
  504MOL0     C69420   4.611   4.301   3.594  0.3074  0.3567 -0.6289
  504MOL0     C69421   4.483   4.261   3.637  1.0663  0.3005  0.2688
  504MOL0     O69422   4.409   4.370   3.678  0.1512  0.2790 -0.5102
  504MOL0     C69423   4.334   4.350   3.802  0.3853 -0.8466 -0.2711
  504MOL0     C69424   4.290   4.489   3.840 -0.4194 -0.8063  0.3960
  504MOL0     C69425   4.384   4.549   3.947 -0.7869  0.9675 -0.2869
  504MOL0     C69426   4.532   4.535   3.923  0.1472 -0.2426  0.9051
  504MOL0     C69427   4.625   4.612   4.016  0.7566  0.2181 -0.9518
  504MOL0     C69428   4.601   4.764   4.011 -0.2462  0.2585 -0.3349
  504MOL0     C69429   4.707   4.830   4.110  0.3111  0.3769  0.1673
  504MOL0     C69430   4.683   4.980   4.100 -0.4034 -0.1573 -0.0670
  504MOL0     N69431   4.737   5.045   4.216 -0.7175  0.5106  0.1213
  504MOL0     C69432   4.872   5.078   4.235  0.0675  0.0505 -0.7217
  504MOL0     C69433   4.870   5.143   4.357 -0.7734 -1.0921  0.8118
  504MOL0     C69434   5.004   5.168   4.435 -0.0557  0.1572  0.0918
  504MOL0     C69435   4.973   5.109   4.576 -0.2503 -1.0920 -0.2704
  504MOL0     C69436   5.073   5.143   4.679 -0.1997  0.8448 -0.0196
  504MOL0     C69437   5.156   5.265   4.663  0.3848 -0.6541 -0.1051
  504MOL0     O69438   5.245   5.282   4.780  0.2649 -0.1176 -1.1576
  504MOL0     C69439   5.368   5.346   4.771  0.0143  0.4011 -0.2234
  504MOL0     C69440   5.453   5.330   4.883  0.7969  0.2572 -0.5091
  504MOL0     C69441   5.581   5.372   4.892 -0.3024  0.9051  0.5029
  504MOL0     C69442   5.644   5.341   5.023 -0.5981 -0.4438  0.6265
  504MOL0     C69443   5.637   5.443   4.789 -0.5185 -0.4505 -0.7868
  504MOL0     C69444   5.771   5.503   4.781 -0.3860 -0.6399 -0.0406
  504MOL0     O69445   5.840   5.509   4.901  0.2382 -0.1763  0.0366
  504MOL0     C69446   5.981   5.518   4.887 -0.2043  0.1266  0.0012
  504MOL0     C69447   6.067   5.485   4.777 -0.9024  0.1311 -0.3565
  504MOL0     C69448   6.201   5.478   4.797 -0.0976  0.4241  0.0838
  504MOL0     C69449   6.259   5.548   4.901  0.1307  0.9925 -0.3072
  504MOL0     O69450   6.400   5.541   4.908 -0.2639 -0.6046 -0.3037
  504MOL0     C69451   6.458   5.664   4.869 -1.2430  0.2804 -0.5142
  504MOL0     C69452   6.610   5.637   4.876 -0.3853 -0.1219  1.1620
  504MOL0     C69453   6.698   5.769   4.850  0.0394  0.3807  0.0009
  504MOL0     C69454   6.651   5.896   4.772  0.4225  0.8800 -0.0783
  504MOL0     C69455   6.694   6.022   4.846  0.3182 -0.0120 -0.8604
  504MOL0     C69456   6.671   6.145   4.764 -0.2032  0.4920  0.3432
  504MOL0     C69457   6.736   6.273   4.826 -0.4255  0.5092 -0.3583
  504MOL0     C69458   6.643   6.345   4.929 -0.9077 -0.3669 -1.2855
  504MOL0    Cl69459   6.571   6.492   4.847 -0.1630 -0.1287 -0.0610
  504MOL0     C69460   6.177   5.585   5.003  0.1318 -0.0195 -0.8126
  504MOL0     C69461   6.037   5.578   4.998 -0.3587  0.7334  0.6932
  504MOL0     O69462   5.811   5.543   4.668 -0.6197 -0.5787  0.0615
  504MOL0     C69463   5.555   5.456   4.674 -0.4575  0.0258 -0.1480
  504MOL0     C69464   5.421   5.415   4.665  0.2523 -0.5050 -0.0443
  504MOL0     N69465   4.737   5.150   4.401  0.0368  0.5065  0.2819
  504MOL0     N69466   4.673   5.090   4.314  0.3724 -0.0966 -0.2575
  504MOL0     C69467   4.440   4.124   3.644 -0.8230 -0.0430 -0.2811
  504MOL0     C69468   4.532   4.025   3.593 -0.3418 -0.5235 -1.0100
  504MOL0     C69469   4.937   3.822   3.531 -0.0819 -0.6535  0.1393
  504MOL0     C69470   4.871   3.730   3.446  0.4015  0.2960 -0.9484
  504MOL0     C69471   4.934   3.608   3.410  0.7265 -0.4970 -0.1924
  504MOL0     C69472   5.064   3.577   3.454 -0.1372 -0.4951  0.0600
  504MOL0     O69473   5.131   3.473   3.400  0.1425 -0.5693 -0.5879
  504MOL0     C69474   5.079   3.344   3.442 -0.8345 -0.9663 -0.0823
  504MOL0     C69475   5.186   3.234   3.462  0.1664 -0.1579  0.4342
  504MOL0     C69476   5.121   3.098   3.418  0.4997  0.3310  0.0217
  504MOL0     C69477   5.190   2.969   3.452  0.5473 -0.4708 -0.4653
  504MOL0     C69478   5.127   2.848   3.401 -0.6803  0.5783  0.6104
  504MOL0     C69479   5.060   2.760   3.346  0.0536 -0.6951  0.3586
  504MOL0     C69480   5.129   3.672   3.520  0.0302 -0.6738 -0.0599
  504MOL0     C69481   5.067   3.791   3.571  0.7975 -1.3648 -0.3114
  504MOL0     C69482   5.161   3.886   3.646  0.0060 -0.3690 -0.4144
  504MOL0     H69483   4.808   4.221   3.543 -0.2319  0.2798 -1.5224
  504MOL0     H69484   4.629   4.408   3.606 -0.7001  0.2132  3.6326
  504MOL0     H69485   4.394   4.305   3.882  1.8317  1.5581  0.0781
  504MOL0     H69486   4.248   4.282   3.792  0.9100 -1.5829  0.1296
  504MOL0     H69487   4.259   4.553   3.756  1.2327  1.6937  1.5650
  504MOL0     H69488   4.193   4.480   3.890 -1.6780 -1.4161 -2.0396
  504MOL0     H69489   4.366   4.656   3.961  2.0806  1.3431  1.4247
  504MOL0     H69490   4.349   4.498   4.037 -2.3252 -0.4945 -1.6653
  504MOL0     H69491   4.556   4.429   3.939 -2.1154 -0.6708  1.9161
  504MOL0     H69492   4.553   4.564   3.820 -1.5106 -0.9173  0.3500
  504MOL0     H69493   4.732   4.596   3.999  0.2825 -1.5638 -2.4664
  504MOL0     H69494   4.614   4.585   4.121 -1.9457  1.2123 -0.9015
  504MOL0     H69495   4.610   4.791   3.905 -0.5098 -0.9362 -0.6721
  504MOL0     H69496   4.502   4.786   4.053 -0.1171  0.7909 -0.2985
  504MOL0     H69497   4.812   4.810   4.087  0.8929  1.1640  1.9125
  504MOL0     H69498   4.691   4.804   4.215  2.0221 -1.8460 -0.0677
  504MOL0     H69499   4.734   5.032   4.019  0.5362  0.8046  1.0880
  504MOL0     H69500   4.576   5.000   4.102 -0.4150  0.0908  3.5274
  504MOL0     H69501   4.966   5.062   4.183  1.2273  3.3646  0.1317
  504MOL0     H69502   5.010   5.277   4.441 -0.2413  0.1798 -0.1252
  504MOL0     H69503   5.095   5.128   4.389 -0.7404 -2.1720  0.5777
  504MOL0     H69504   4.876   5.139   4.618  0.4277 -0.0209  0.5656
  504MOL0     H69505   4.986   5.001   4.572 -1.1695 -1.2428  0.2845
  504MOL0     H69506   5.016   5.143   4.773 -0.9491 -0.5509 -0.4463
  504MOL0     H69507   5.139   5.056   4.686 -0.5054  0.3150 -2.5853
  504MOL0     H69508   5.214   5.257   4.571 -0.3284  1.9056 -0.8647
  504MOL0     H69509   5.088   5.350   4.656 -0.0383 -1.1075 -2.6857
  504MOL0     H69510   5.398   5.282   4.963  0.1641  1.4488 -0.2018
  504MOL0     H69511   5.701   5.423   5.067  0.4163  0.3722 -2.0006
  504MOL0     H69512   5.721   5.266   5.005  0.3818  1.0616 -2.1043
  504MOL0     H69513   5.564   5.313   5.092  0.5148 -0.9738  1.7199
  504MOL0     H69514   6.038   5.427   4.690  0.2341 -0.2794 -0.4667
  504MOL0     H69515   6.250   5.428   4.715 -3.8247 -1.4959 -1.2194
  504MOL0     H69516   6.445   5.694   4.764  2.1590 -1.5594 -1.6365
  504MOL0     H69517   6.427   5.748   4.931 -1.9985  0.5456 -1.2218
  504MOL0     H69518   6.645   5.602   4.973  2.5533 -1.4615 -0.2480
  504MOL0     H69519   6.633   5.555   4.807  1.9832  2.4618 -1.3724
  504MOL0     H69520   6.792   5.732   4.807 -0.0316 -1.4422  1.2953
  504MOL0     H69521   6.726   5.803   4.950  0.6202  1.9100 -0.6491
  504MOL0     H69522   6.542   5.902   4.759  0.5475  0.9709 -1.1732
  504MOL0     H69523   6.691   5.896   4.670  1.5101  1.7652  0.3262
  504MOL0     H69524   6.645   6.032   4.943  0.2597  1.3877 -1.0143
  504MOL0     H69525   6.801   6.009   4.867  0.3331  0.2721 -0.7523
  504MOL0     H69526   6.564   6.169   4.757 -0.1538  0.2747 -1.5658
  504MOL0     H69527   6.714   6.123   4.666 -1.4337  0.7636 -0.2753
  504MOL0     H69528   6.761   6.353   4.755 -0.0704 -0.7649 -1.7120
  504MOL0     H69529   6.831   6.248   4.874 -0.8663  0.6033  0.5951
  504MOL0     H69530   6.698   6.376   5.018 -0.0452  0.7412 -2.1701
  504MOL0     H69531   6.567   6.279   4.971 -4.1863  1.9678 -3.0639
  504MOL0     H69532   6.213   5.624   5.098  1.1628 -1.5159 -0.5441
  504MOL0     H69533   5.993   5.629   5.082 -0.2154  1.3616  0.3927
  504MOL0     H69534   5.599   5.517   4.597 -0.9935  1.0216  0.3164
  504MOL0     H69535   5.368   5.437   4.572  1.5757 -2.8253 -1.4339
  504MOL0     H69536   4.343   4.092   3.681 -1.4799  1.9353 -0.1518
  504MOL0     H69537   4.507   3.920   3.605  0.8311 -0.6666  0.5352
  504MOL0     H69538   4.767   3.736   3.415 -0.6753 -4.8661  0.6920
  504MOL0     H69539   4.890   3.538   3.340 -0.8478  0.4482 -0.2004
  504MOL0     H69540   5.012   3.352   3.529 -0.8766 -0.3752 -0.1626
  504MOL0     H69541   5.005   3.311   3.368 -0.7301 -1.1403 -0.1097
  504MOL0     H69542   5.222   3.235   3.565 -2.7666  1.6539  1.5908
  504MOL0     H69543   5.261   3.265   3.388 -2.2329  0.5518 -1.8742
  504MOL0     H69544   5.028   3.095   3.475  2.3427 -2.4430  3.2254
  504MOL0     H69545   5.092   3.104   3.312 -5.4685 -2.3353  1.1109
  504MOL0     H69546   5.208   2.964   3.560  2.4112 -2.3955 -0.7999
  504MOL0     H69547   5.293   2.963   3.416  1.1351  1.2401  0.7702
  504MOL0     H69548   5.014   2.674   3.301  3.5118 -2.0495 -0.9817
  504MOL0     H69549   5.236   3.658   3.531  0.0822  0.7306  1.8562
  504MOL0     H69550   5.112   3.937   3.730  1.3035  0.2804 -0.0156
  504MOL0     H69551   5.239   3.830   3.699 -0.8210 -0.7087  0.4793
  504MOL0     H69552   5.217   3.953   3.580 -1.1252 -0.7336 -1.7649
  505MOL0     O69553   6.450   4.759   7.585  0.3514 -0.2177 -0.5799
  505MOL0     C69554   6.434   4.857   7.660 -0.2380 -0.9519 -0.2813
  505MOL0     O69555   6.389   4.856   7.793 -0.1470 -0.3321  0.1935
  505MOL0     C69556   6.362   4.729   7.851 -0.0798 -0.0094 -0.6601
  505MOL0     C69557   6.444   4.676   7.955  0.8245 -0.3363 -1.0466
  505MOL0     C69558   6.404   4.544   8.025 -0.8919 -0.1079  0.3820
  505MOL0     C69559   6.294   4.477   7.979  0.5046 -0.8271  0.8691
  505MOL0     O69560   6.265   4.366   8.040 -1.0192 -0.1884 -0.3186
  505MOL0     C69561   6.173   4.270   7.985 -0.0860  0.3700 -0.1341
  505MOL0     C69562   6.180   4.137   8.059 -0.2543  0.0088 -0.1656
  505MOL0     C69563   6.164   4.158   8.211 -0.1467 -0.0112 -0.9209
  505MOL0     C69564   6.241   4.035   8.262  0.1272 -0.5619 -0.1807
  505MOL0     C69565   6.226   4.021   8.421  0.0305 -0.6842 -0.1241
  505MOL0     C69566   6.278   3.883   8.470  0.4590  0.8575 -0.9218
  505MOL0     C69567   6.423   3.840   8.437 -1.3636  0.1428  0.9297
  505MOL0     C69568   6.456   3.694   8.503 -0.1726 -0.5110  0.0247
  505MOL0     N69569   6.589   3.666   8.474 -0.6213  0.1585  0.1330
  505MOL0     C69570   6.649   3.603   8.369  0.3009 -0.3650  0.2021
  505MOL0     C69571   6.777   3.620   8.403 -1.1273  0.0469 -0.3470
  505MOL0     C69572   6.900   3.560   8.329  0.1442 -0.6883  0.5960
  505MOL0     C69573   6.989   3.682   8.282  0.8859 -0.5745 -0.8834
  505MOL0     C69574   7.103   3.637   8.201  0.0507 -0.3265 -0.0645
  505MOL0     C69575   7.202   3.737   8.153 -0.1476 -0.9279  0.0363
  505MOL0     O69576   7.139   3.837   8.072  0.1144 -0.2688  0.5725
  505MOL0     C69577   7.160   3.974   8.095 -0.3909 -0.5696 -0.0256
  505MOL0     C69578   7.142   4.054   7.981  0.3165  0.7472  0.0110
  505MOL0     C69579   7.150   4.191   7.980  0.5148  0.1909 -0.4265
  505MOL0     C69580   7.101   4.246   7.849 -0.2078 -0.0462  1.2097
  505MOL0     C69581   7.175   4.260   8.104 -0.3353  0.3926 -0.6144
  505MOL0     C69582   7.173   4.406   8.136  0.4309  0.6254  0.0048
  505MOL0     O69583   7.175   4.443   8.265 -0.1493  0.2021 -0.2277
  505MOL0     C69584   7.181   4.578   8.305 -0.3910 -0.3503  0.4608
  505MOL0     C69585   7.263   4.667   8.234 -1.3692  0.5376  0.5273
  505MOL0     C69586   7.270   4.796   8.261  0.0341 -0.5395 -0.1530
  505MOL0     C69587   7.184   4.853   8.354  0.4299  0.6398 -0.4958
  505MOL0     O69588   7.178   4.983   8.389 -0.3309  0.4086 -0.2530
  505MOL0     C69589   7.290   5.067   8.346  0.9733 -0.2633 -0.5661
  505MOL0     C69590   7.408   5.062   8.451 -0.0872 -0.1374  0.2126
  505MOL0     C69591   7.530   5.126   8.384  0.7677  0.5919 -0.5890
  505MOL0     C69592   7.639   5.099   8.472 -1.0275  0.0628  0.5051
  505MOL0     C69593   7.778   5.122   8.405  0.1824 -0.0604 -0.7264
  505MOL0     C69594   7.888   5.098   8.510 -0.0576 -0.7990 -0.1323
  505MOL0     C69595   8.036   5.095   8.450  0.3093 -0.4889  0.8039
  505MOL0     C69596   8.130   5.013   8.539 -0.0859 -0.2731  0.1897
  505MOL0    Cl69597   8.269   4.950   8.434 -0.1307 -0.1691 -0.0298
  505MOL0     C69598   7.112   4.764   8.430  0.3686 -0.2996 -0.2316
  505MOL0     C69599   7.105   4.629   8.404  0.2435 -0.8767  0.7789
  505MOL0     O69600   7.167   4.482   8.040 -0.1591 -0.3053 -1.2899
  505MOL0     C69601   7.212   4.181   8.218  1.2674 -0.5340 -0.5968
  505MOL0     C69602   7.201   4.039   8.214 -0.5057  0.7629  1.2362
  505MOL0     N69603   6.795   3.683   8.523 -0.2371 -0.7680  0.6052
  505MOL0     N69604   6.675   3.709   8.562 -0.6297 -0.0962 -1.1740
  505MOL0     C69605   6.216   4.543   7.867 -0.1177  1.0046  0.0675
  505MOL0     C69606   6.247   4.667   7.820  0.2624  0.2991 -0.1678
  505MOL0     C69607   6.474   4.997   7.609 -0.2362  0.0068  0.7472
  505MOL0     C69608   6.506   5.104   7.695  0.3197  0.1046  0.2536
  505MOL0     C69609   6.553   5.229   7.640  0.3454  0.0755  0.1129
  505MOL0     C69610   6.545   5.259   7.509 -0.2753 -0.1485 -0.6614
  505MOL0     O69611   6.579   5.381   7.443 -0.1001  0.7784  0.7934
  505MOL0     C69612   6.623   5.485   7.521 -0.6516  0.3257 -0.3328
  505MOL0     C69613   6.769   5.503   7.563  0.4473 -0.2632 -0.1330
  505MOL0     C69614   6.860   5.482   7.443  0.0935 -0.5324  0.1561
  505MOL0     C69615   7.012   5.491   7.475 -0.0262  0.0919 -0.3095
  505MOL0     C69616   7.038   5.626   7.531 -0.1410  0.1605  0.3614
  505MOL0     C69617   7.065   5.742   7.570 -0.7577  0.0510 -0.3763
  505MOL0     C69618   6.495   5.164   7.425 -0.7980  0.2524 -0.4715
  505MOL0     C69619   6.482   5.030   7.467  0.0139 -0.5876  0.0409
  505MOL0     C69620   6.447   4.935   7.361 -0.6004  0.4181 -0.2621
  505MOL0     H69621   6.522   4.742   7.992 -0.0283  0.9021 -1.4225
  505MOL0     H69622   6.464   4.510   8.109 -0.4282 -0.9286 -0.2624
  505MOL0     H69623   6.185   4.249   7.878 -3.4566 -2.7423 -0.1470
  505MOL0     H69624   6.076   4.315   8.010  1.3302  2.5720  1.7068
  505MOL0     H69625   6.101   4.073   8.018  1.2675 -2.4160  0.4771
  505MOL0     H69626   6.273   4.084   8.039  1.2030  1.9221  1.1776
  505MOL0     H69627   6.232   4.238   8.242  1.4468 -1.5112 -0.3588
  505MOL0     H69628   6.062   4.163   8.249 -0.0738 -0.9183 -0.5801
  505MOL0     H69629   6.202   3.946   8.213  1.8600 -0.8432 -1.0940
  505MOL0     H69630   6.343   4.048   8.226 -0.3551  4.2659 -0.4532
  505MOL0     H69631   6.120   4.023   8.445  0.4664  0.3939  1.8589
  505MOL0     H69632   6.267   4.102   8.481 -0.4003  0.1679 -0.9578
  505MOL0     H69633   6.267   3.874   8.579 -0.2893 -1.7475 -1.1536
  505MOL0     H69634   6.221   3.807   8.417  3.3333 -1.6155 -0.7040
  505MOL0     H69635   6.487   3.917   8.481 -1.0155 -0.3503  1.2926
  505MOL0     H69636   6.449   3.836   8.331  2.8344 -0.3181  1.7957
  505MOL0     H69637   6.441   3.694   8.611 -2.8364  0.2301 -0.2948
  505MOL0     H69638   6.384   3.621   8.465 -0.5585 -0.5957  0.9203
  505MOL0     H69639   6.599   3.559   8.283 -1.3010  0.3908  0.6867
  505MOL0     H69640   6.874   3.510   8.235  2.6465  1.5870 -1.4806
  505MOL0     H69641   6.957   3.491   8.393 -0.4328 -1.2310  0.5359
  505MOL0     H69642   6.918   3.748   8.231 -0.9454 -0.1567  1.9790
  505MOL0     H69643   7.024   3.742   8.366 -0.5124  3.3357 -2.8482
  505MOL0     H69644   7.146   3.553   8.256  2.0151 -1.4696 -3.0584
  505MOL0     H69645   7.058   3.588   8.114 -2.5845  0.1796  0.9218
  505MOL0     H69646   7.244   3.789   8.240 -0.5422  3.5437 -2.1505
  505MOL0     H69647   7.280   3.687   8.095  0.6063  0.7141 -0.4339
  505MOL0     H69648   7.101   3.998   7.898 -4.3055  2.6444  0.6891
  505MOL0     H69649   7.024   4.182   7.806  1.1819 -2.0699  1.6135
  505MOL0     H69650   7.183   4.240   7.777 -1.2823 -0.7413  0.0025
  505MOL0     H69651   7.056   4.344   7.869 -2.4161 -0.4212 -1.3627
  505MOL0     H69652   7.323   4.627   8.153 -2.5229  0.7811 -0.4890
  505MOL0     H69653   7.330   4.868   8.206  2.1322  1.2318  3.9752
  505MOL0     H69654   7.321   5.054   8.242  0.3422 -2.9680 -0.5014
  505MOL0     H69655   7.248   5.168   8.339 -0.8689 -1.0172 -1.0083
  505MOL0     H69656   7.375   5.123   8.536 -0.7963  4.2687 -2.8706
  505MOL0     H69657   7.430   4.958   8.475 -0.4043 -0.6856 -1.6645
  505MOL0     H69658   7.533   5.234   8.370  3.2604  0.3771 -2.5296
  505MOL0     H69659   7.541   5.081   8.285  2.0865  1.7281 -0.9882
  505MOL0     H69660   7.640   5.002   8.523 -2.7767  1.3163  3.1229
  505MOL0     H69661   7.644   5.166   8.558 -2.0799 -0.3852  0.9334
  505MOL0     H69662   7.797   5.032   8.346 -0.5019 -0.6576 -0.0558
  505MOL0     H69663   7.779   5.226   8.370 -3.4390  0.8438  1.2652
  505MOL0     H69664   7.862   5.005   8.561 -1.5142  0.0060  0.6401
  505MOL0     H69665   7.891   5.183   8.579  0.7772 -1.7523  1.0525
  505MOL0     H69666   8.064   5.198   8.424 -0.2090 -0.9680 -1.9375
  505MOL0     H69667   8.034   5.054   8.348 -0.6691  2.3550 -0.4195
  505MOL0     H69668   8.064   4.927   8.552  0.6039 -1.5471 -3.6441
  505MOL0     H69669   8.171   5.057   8.631  2.6754 -0.4837 -0.8419
  505MOL0     H69670   7.052   4.797   8.515 -0.6690  0.7512 -1.3405
  505MOL0     H69671   7.026   4.570   8.450 -2.1385 -0.5759 -2.5950
  505MOL0     H69672   7.243   4.214   8.317 -0.9918  1.3166 -0.4200
  505MOL0     H69673   7.222   3.980   8.302 -1.6759 -0.0355  0.9999
  505MOL0     H69674   6.124   4.501   7.828 -3.5308  4.4540  3.5230
  505MOL0     H69675   6.182   4.716   7.748  1.8301  0.8593 -1.2501
  505MOL0     H69676   6.487   5.102   7.802  0.1413  0.2861  0.2275
  505MOL0     H69677   6.580   5.304   7.714 -2.3259  0.5035  0.7721
  505MOL0     H69678   6.610   5.570   7.453  3.1896 -0.4067 -2.2555
  505MOL0     H69679   6.555   5.508   7.604 -0.4092 -0.0860 -0.0180
  505MOL0     H69680   6.801   5.433   7.641 -0.0060 -0.7517 -0.3862
  505MOL0     H69681   6.787   5.601   7.608  0.0201 -0.7432  1.1322
  505MOL0     H69682   6.831   5.383   7.407  0.2170 -0.9652  1.2025
  505MOL0     H69683   6.837   5.554   7.364  0.3194 -2.0531 -1.3625
  505MOL0     H69684   7.077   5.472   7.389  0.5453 -1.2640  0.3801
  505MOL0     H69685   7.038   5.414   7.549  3.0769  1.6813  0.4120
  505MOL0     H69686   7.106   5.829   7.619 -4.4663  1.6167  0.3076
  505MOL0     H69687   6.482   5.192   7.321  1.9784  1.3129 -0.5887
  505MOL0     H69688   6.519   4.854   7.376 -0.1944  0.5777 -1.2407
  505MOL0     H69689   6.344   4.907   7.382  0.5430 -1.6495  3.4200
  505MOL0     H69690   6.461   4.963   7.256 -1.6007  1.6764 -0.0834
  506MOL0     O69691   2.549   1.660   7.617  0.3920 -0.0871  0.9733
  506MOL0     C69692   2.616   1.679   7.520  0.4034  0.1052  0.9474
  506MOL0     O69693   2.628   1.592   7.412  1.0118  0.1752  0.3589
  506MOL0     C69694   2.535   1.492   7.388  1.0334 -0.2261  0.2081
  506MOL0     C69695   2.391   1.504   7.406 -0.1335  0.7718  0.6580
  506MOL0     C69696   2.313   1.391   7.365 -0.4860  0.6489  1.2122
  506MOL0     C69697   2.377   1.274   7.318  0.3383 -0.9227  0.8845
  506MOL0     O69698   2.292   1.176   7.291  0.0814  0.5182 -0.7323
  506MOL0     C69699   2.339   1.042   7.356 -0.3050 -0.5492  0.4179
  506MOL0     C69700   2.235   0.937   7.320  0.6822  1.0754  0.8462
  506MOL0     C69701   2.090   0.983   7.336  0.8702  0.9465  0.4993
  506MOL0     C69702   1.995   0.872   7.330 -0.7381 -0.0582 -0.1013
  506MOL0     C69703   1.855   0.916   7.312  0.9635 -0.0458  0.9488
  506MOL0     C69704   1.754   0.799   7.297 -0.8695  0.1779 -0.3269
  506MOL0     C69705   1.633   0.843   7.215  0.8355  0.4279  0.5291
  506MOL0     C69706   1.519   0.735   7.234 -1.2418 -0.8954 -0.6986
  506MOL0     N69707   1.442   0.738   7.359 -0.1858  0.7967  0.0317
  506MOL0     C69708   1.349   0.648   7.410  0.5159 -1.7500  0.5168
  506MOL0     C69709   1.288   0.712   7.519 -0.1280 -0.3167 -0.4149
  506MOL0     C69710   1.183   0.641   7.608 -0.4322  0.5853 -0.4587
  506MOL0     C69711   1.053   0.716   7.567 -0.0951 -0.4912 -0.1978
  506MOL0     C69712   1.016   0.691   7.423 -0.6491  0.0017  0.6653
  506MOL0     C69713   0.885   0.760   7.381 -0.7839  0.3832 -0.3631
  506MOL0     O69714   0.773   0.731   7.462 -0.0688 -0.3785  0.5257
  506MOL0     C69715   0.653   0.762   7.402  0.1779 -0.5348  0.1472
  506MOL0     C69716   0.573   0.660   7.349 -1.1003 -2.2434 -0.2726
  506MOL0     C69717   0.456   0.681   7.282 -0.1051 -0.2045  0.4841
  506MOL0     C69718   0.407   0.565   7.201  0.2033 -0.8699  1.0947
  506MOL0     C69719   0.400   0.812   7.281 -0.5184 -0.2323 -0.3192
  506MOL0     C69720   0.269   0.859   7.226 -0.2033 -0.4923  0.2061
  506MOL0     O69721   0.191   0.770   7.155 -0.4473 -0.3443 -0.3928
  506MOL0     C69722   0.065   0.800   7.113 -0.1381 -0.0948  0.8105
  506MOL0     C69723  -0.044   0.810   7.200  0.1356 -0.4630  0.4235
  506MOL0     C69724  -0.173   0.835   7.144 -0.0445  0.3838 -1.1217
  506MOL0     C69725  -0.195   0.847   7.008  0.4601  0.6776  0.5588
  506MOL0     O69726  -0.315   0.872   6.947  0.5463 -0.1296 -0.5399
  506MOL0     C69727  -0.430   0.812   7.014  0.1972 -0.3205 -0.4701
  506MOL0     C69728  -0.540   0.784   6.925  0.9386  1.8775  0.6985
  506MOL0     C69729  -0.682   0.837   6.952  0.7153  0.5100  0.4839
  506MOL0     C69730  -0.770   0.836   6.824  0.4227 -0.5314 -0.2756
  506MOL0     C69731  -0.925   0.857   6.859 -0.8781  0.1112 -0.5403
  506MOL0     C69732  -0.966   1.008   6.874 -0.0201  0.3708  0.3968
  506MOL0     C69733  -1.120   1.020   6.903  0.1503 -0.7339 -0.1400
  506MOL0     C69734  -1.173   1.161   6.914  0.3317  0.1040 -0.6549
  506MOL0    Cl69735  -1.346   1.161   6.928 -0.0252  0.0037 -0.0707
  506MOL0     C69736  -0.077   0.862   6.920 -0.5338 -0.8984 -0.2554
  506MOL0     C69737   0.051   0.845   6.979  0.8353  0.0729  0.3273
  506MOL0     O69738   0.241   0.986   7.238 -0.1757 -0.2756  0.1134
  506MOL0     C69739   0.487   0.918   7.328 -0.6662 -0.7318  1.2135
  506MOL0     C69740   0.606   0.897   7.390 -0.3268 -0.7796 -0.6990
  506MOL0     N69741   1.367   0.823   7.546 -0.4891 -0.1184  0.3273
  506MOL0     N69742   1.445   0.849   7.438 -0.0520 -0.0880 -0.8944
  506MOL0     C69743   2.516   1.274   7.303 -0.2234 -0.3958 -0.2763
  506MOL0     C69744   2.600   1.380   7.331 -0.6694 -0.2055 -0.3584
  506MOL0     C69745   2.698   1.807   7.514 -0.4561 -0.4232 -0.5391
  506MOL0     C69746   2.749   1.870   7.633 -0.7873 -0.0418 -0.5620
  506MOL0     C69747   2.825   1.985   7.636 -0.2300 -0.3626  0.4498
  506MOL0     C69748   2.869   2.043   7.518 -0.3149  0.3768 -0.6525
  506MOL0     O69749   2.947   2.147   7.529  0.6168 -0.2814  0.4485
  506MOL0     C69750   2.978   2.213   7.402  0.3684 -0.0151 -0.0748
  506MOL0     C69751   3.018   2.366   7.425 -0.5056 -0.0969 -1.0850
  506MOL0     C69752   3.028   2.459   7.305 -0.4545 -0.7757  1.2681
  506MOL0     C69753   2.892   2.535   7.276 -0.9229 -0.2520  0.5688
  506MOL0     C69754   2.910   2.631   7.170 -0.0304  0.2753  0.8491
  506MOL0     C69755   2.917   2.721   7.090  0.2060  0.1212 -0.5039
  506MOL0     C69756   2.823   1.973   7.404  0.7311  0.4296  0.8276
  506MOL0     C69757   2.743   1.862   7.393 -0.4076  0.0415  0.3340
  506MOL0     C69758   2.691   1.814   7.269 -0.2573  0.5143  0.1449
  506MOL0     H69759   2.338   1.593   7.438 -0.0390  1.2738 -0.5558
  506MOL0     H69760   2.205   1.389   7.378 -0.5705  1.5125  0.6810
  506MOL0     H69761   2.335   1.056   7.465  2.4263  0.0740  0.5155
  506MOL0     H69762   2.437   1.015   7.317 -0.9536 -2.4572  0.0214
  506MOL0     H69763   2.253   0.910   7.216  1.0948  1.7596  0.7271
  506MOL0     H69764   2.265   0.848   7.375 -3.3835 -1.3069 -0.3479
  506MOL0     H69765   2.085   1.036   7.431  3.7405 -1.4732  2.1455
  506MOL0     H69766   2.066   1.042   7.247  1.0496  0.6862  0.2787
  506MOL0     H69767   2.034   0.808   7.250  0.9952  0.0837  0.5809
  506MOL0     H69768   2.005   0.815   7.423  1.1034 -1.3946 -1.0451
  506MOL0     H69769   1.842   0.973   7.220  0.8371  0.1595  1.0937
  506MOL0     H69770   1.826   0.985   7.391  0.2939  0.9561 -0.1386
  506MOL0     H69771   1.796   0.713   7.244 -1.7928  1.6225 -3.6532
  506MOL0     H69772   1.731   0.773   7.401  1.3691  3.9368  1.3152
  506MOL0     H69773   1.657   0.847   7.108 -2.2749  0.2241 -0.3038
  506MOL0     H69774   1.586   0.935   7.251 -0.8010 -0.6402  1.2331
  506MOL0     H69775   1.446   0.752   7.154 -2.8875  0.2149  0.9272
  506MOL0     H69776   1.562   0.635   7.225 -0.7075 -1.2073  3.3012
  506MOL0     H69777   1.315   0.551   7.373 -0.3497 -1.0378 -0.6232
  506MOL0     H69778   1.205   0.652   7.714 -1.8422  2.8080 -0.3524
  506MOL0     H69779   1.183   0.533   7.590  1.1455  0.2544  1.2124
  506MOL0     H69780   0.967   0.683   7.626  1.0167  0.3990  2.0255
  506MOL0     H69781   1.068   0.824   7.580  1.4684 -0.8231  0.9121
  506MOL0     H69782   1.100   0.728   7.362  0.8632 -0.5978  2.2827
  506MOL0     H69783   1.002   0.584   7.409  0.4547 -0.1410  0.5236
  506MOL0     H69784   0.898   0.869   7.383  2.4835  0.0884 -0.7661
  506MOL0     H69785   0.860   0.728   7.279 -4.3283 -2.1454  1.0760
  506MOL0     H69786   0.615   0.560   7.356  1.2225 -1.2520  0.7522
  506MOL0     H69787   0.372   0.614   7.109 -1.5499  1.6128  2.9732
  506MOL0     H69788   0.327   0.521   7.261  0.9015  1.3629  3.8437
  506MOL0     H69789   0.476   0.486   7.170 -1.6787 -1.4123 -2.3355
  506MOL0     H69790  -0.014   0.786   7.302 -2.6345 -1.3978  1.1004
  506MOL0     H69791  -0.263   0.844   7.204 -1.6415 -1.9528 -2.9934
  506MOL0     H69792  -0.416   0.717   7.067 -2.0448  0.1662  1.1384
  506MOL0     H69793  -0.470   0.883   7.087 -1.0171 -1.8687  0.4413
  506MOL0     H69794  -0.510   0.812   6.824 -0.1502 -1.7152 -0.8124
  506MOL0     H69795  -0.549   0.675   6.923 -2.8995  2.0453  0.8466
  506MOL0     H69796  -0.677   0.940   6.987 -1.4029  1.1574 -0.9327
  506MOL0     H69797  -0.717   0.778   7.037 -0.3259 -2.3173 -1.7146
  506MOL0     H69798  -0.755   0.740   6.775 -1.2199 -2.6814  3.0908
  506MOL0     H69799  -0.738   0.903   6.744 -0.6367  1.7159  1.0704
  506MOL0     H69800  -0.979   0.811   6.776 -2.5060 -0.1470  0.6275
  506MOL0     H69801  -0.953   0.799   6.947  0.8191  0.0732  0.0083
  506MOL0     H69802  -0.943   1.076   6.791 -3.0816  1.8201  0.5865
  506MOL0     H69803  -0.924   1.038   6.970  2.5075 -1.7245  0.0726
  506MOL0     H69804  -1.151   0.967   6.993 -2.0948  0.3089 -0.2323
  506MOL0     H69805  -1.160   0.977   6.811  0.2994  2.6008 -1.9151
  506MOL0     H69806  -1.152   1.221   6.825  1.1545  2.1798  0.8504
  506MOL0     H69807  -1.147   1.217   7.004 -0.1355 -1.7056  0.6440
  506MOL0     H69808  -0.088   0.885   6.815  1.8301 -0.2082 -0.4144
  506MOL0     H69809   0.144   0.852   6.922  0.8924 -1.3328  0.2168
  506MOL0     H69810   0.452   1.021   7.324  1.7581  0.1695 -2.7341
  506MOL0     H69811   0.661   0.976   7.440 -2.5781 -1.0616  2.5265
  506MOL0     H69812   2.566   1.185   7.266 -0.3388 -0.5942  0.0423
  506MOL0     H69813   2.707   1.375   7.310 -1.0703  0.1386 -2.7233
  506MOL0     H69814   2.728   1.820   7.727  0.0648  0.5491 -0.0468
  506MOL0     H69815   2.861   2.026   7.730 -2.1969  2.1886  0.2057
  506MOL0     H69816   3.056   2.157   7.348  0.5785  0.8059 -0.6536
  506MOL0     H69817   2.889   2.210   7.339 -0.8999 -0.3287  1.6766
  506MOL0     H69818   3.116   2.363   7.475 -1.0450 -4.3116  0.1204
  506MOL0     H69819   2.946   2.411   7.494  0.0535  0.2385 -0.7064
  506MOL0     H69820   3.097   2.542   7.321 -0.5367  0.0323 -1.8238
  506MOL0     H69821   3.066   2.407   7.216  1.8892  0.4353  1.4957
  506MOL0     H69822   2.865   2.606   7.355 -2.3701  0.0272 -0.1437
  506MOL0     H69823   2.805   2.475   7.244 -1.7707  1.1634  0.1167
  506MOL0     H69824   2.915   2.809   7.029  3.2493  1.5456  1.2105
  506MOL0     H69825   2.846   2.011   7.305 -1.7101  0.0872  0.0562
  506MOL0     H69826   2.741   1.722   7.239 -1.8756  0.5399 -3.0287
  506MOL0     H69827   2.585   1.789   7.259  0.3512 -2.4059  0.2451
  506MOL0     H69828   2.718   1.881   7.187  2.5887 -0.2515  0.3364
  507MOL0     O69829   3.763   7.995   0.058  0.7501 -0.2379 -0.1935
  507MOL0     C69830   3.782   8.089   0.135 -0.2340  0.9027  0.0773
  507MOL0     O69831   3.860   8.079   0.242 -0.5180 -1.2128 -0.3471
  507MOL0     C69832   3.904   7.956   0.278  1.5690  0.6239 -0.5475
  507MOL0     C69833   4.029   7.907   0.253  0.3170  0.2374  0.1110
  507MOL0     C69834   4.071   7.785   0.315 -0.5409 -0.8522  0.3537
  507MOL0     C69835   3.995   7.725   0.405  0.3605  0.3923 -0.1410
  507MOL0     O69836   4.034   7.611   0.465  0.3944 -0.1796  0.4895
  507MOL0     C69837   4.070   7.630   0.601 -0.7039 -0.8241 -0.5109
  507MOL0     C69838   3.991   7.527   0.686  0.3154  0.1104  0.7772
  507MOL0     C69839   4.043   7.386   0.699 -0.5855 -0.6072  0.8456
  507MOL0     C69840   4.064   7.327   0.560 -0.3166  1.2016  0.0886
  507MOL0     C69841   4.081   7.172   0.564  0.2159  0.2011 -0.4842
  507MOL0     C69842   4.226   7.127   0.613  0.0363  0.6620 -0.2015
  507MOL0     C69843   4.250   6.982   0.574 -0.8777 -0.2108 -0.0725
  507MOL0     C69844   4.143   6.878   0.617  0.5101 -0.8871 -0.2193
  507MOL0     N69845   4.104   6.889   0.761  0.3759 -0.2989 -0.7611
  507MOL0     C69846   3.976   6.909   0.801  0.5898 -0.2770 -0.6197
  507MOL0     C69847   3.982   6.919   0.931  0.9200 -0.2701 -0.1053
  507MOL0     C69848   3.853   6.922   1.021 -0.8629  0.9648  0.7809
  507MOL0     C69849   3.729   7.000   0.980  0.5680  0.0801  0.3595
  507MOL0     C69850   3.764   7.118   0.897  0.7570  0.1512 -0.1637
  507MOL0     C69851   3.623   7.186   0.865 -0.6436  0.9194 -0.9381
  507MOL0     O69852   3.584   7.269   0.971  0.6887 -0.1940 -0.4816
  507MOL0     C69853   3.452   7.298   0.976 -0.1188 -1.0569 -0.3786
  507MOL0     C69854   3.416   7.385   1.080  0.0254 -0.3546  1.3845
  507MOL0     C69855   3.286   7.432   1.091  0.1724  0.1527  0.3672
  507MOL0     C69856   3.263   7.540   1.199 -0.4209  0.2512 -0.3859
  507MOL0     C69857   3.193   7.395   0.999 -0.9733  0.5673  0.5303
  507MOL0     C69858   3.051   7.443   1.006 -0.1437  0.4212  0.0112
  507MOL0     O69859   2.997   7.462   1.127  0.0867 -0.1549 -0.5128
  507MOL0     C69860   2.884   7.538   1.130  0.0742  1.0407  0.0760
  507MOL0     C69861   2.767   7.465   1.157 -0.6992 -0.2001  1.2360
  507MOL0     C69862   2.645   7.516   1.151 -0.2753 -0.2207 -0.1930
  507MOL0     C69863   2.626   7.652   1.136 -0.3763  0.1223  0.0693
  507MOL0     O69864   2.497   7.693   1.145 -0.3604  0.0778  0.3579
  507MOL0     C69865   2.469   7.829   1.097 -0.4379  0.7691 -0.0767
  507MOL0     C69866   2.311   7.858   1.108 -0.0053 -0.0843  0.0979
  507MOL0     C69867   2.238   7.776   0.998  1.2922 -1.0197  0.9299
  507MOL0     C69868   2.196   7.626   1.027 -0.5968 -0.8186 -0.4650
  507MOL0     C69869   2.069   7.599   0.958  0.2466 -0.7297 -0.4157
  507MOL0     C69870   2.074   7.627   0.808  0.3443  0.4370 -1.0037
  507MOL0     C69871   1.955   7.575   0.744  0.7480  0.8596  0.2471
  507MOL0     C69872   1.952   7.598   0.590 -0.8270 -0.2491 -0.1362
  507MOL0    Cl69873   2.034   7.490   0.479 -0.3210 -0.2181  0.4041
  507MOL0     C69874   2.741   7.728   1.103 -0.1762 -1.4173  0.0969
  507MOL0     C69875   2.874   7.670   1.113  0.7906  1.0996  0.4242
  507MOL0     O69876   2.992   7.455   0.901 -0.5412 -0.1734  1.5322
  507MOL0     C69877   3.218   7.297   0.901 -0.9315  0.4051  0.1206
  507MOL0     C69878   3.346   7.251   0.888  0.8284  0.2023 -0.5493
  507MOL0     N69879   4.116   6.924   0.968  0.2644  0.5093 -0.1244
  507MOL0     N69880   4.188   6.902   0.865 -1.3484  0.8109  0.7846
  507MOL0     C69881   3.862   7.765   0.428 -0.7349 -0.7485  0.2822
  507MOL0     C69882   3.815   7.886   0.367 -0.8197  0.2165  0.3000
  507MOL0     C69883   3.708   8.207   0.125  0.1744  0.1566  0.1189
  507MOL0     C69884   3.699   8.305   0.228  0.1676  0.4309 -0.1394
  507MOL0     C69885   3.612   8.405   0.226 -0.5087 -0.3696  0.6913
  507MOL0     C69886   3.523   8.423   0.119 -0.2661  0.1301 -0.1544
  507MOL0     O69887   3.428   8.518   0.110  0.1495 -0.7092 -1.0164
  507MOL0     C69888   3.414   8.604   0.231  0.2942 -0.3465  0.6766
  507MOL0     C69889   3.304   8.709   0.213 -0.3815  0.6393 -0.3525
  507MOL0     C69890   3.320   8.805   0.088 -1.0070 -0.3622 -0.3359
  507MOL0     C69891   3.303   8.948   0.120  0.2196 -0.1949 -0.6507
  507MOL0     C69892   3.185   8.971   0.206  0.1693  0.3239 -0.1901
  507MOL0     C69893   3.074   8.996   0.243  0.2398 -0.0346 -0.3946
  507MOL0     C69894   3.535   8.333   0.012 -1.6828  0.1888 -0.0215
  507MOL0     C69895   3.624   8.226   0.008  0.2730 -0.5110 -0.6132
  507MOL0     C69896   3.609   8.129  -0.112 -0.1351 -0.3294  0.0200
  507MOL0     H69897   4.098   7.968   0.195 -1.2323  0.1266 -1.9678
  507MOL0     H69898   4.170   7.752   0.285 -0.6113 -2.0239  1.3295
  507MOL0     H69899   4.054   7.736   0.622  1.3978  0.1590 -3.2011
  507MOL0     H69900   4.176   7.617   0.623 -0.7114  0.3348  0.2773
  507MOL0     H69901   3.967   7.568   0.784  1.0584 -3.3900  2.5970
  507MOL0     H69902   3.892   7.509   0.643  0.9428  0.3050 -0.8125
  507MOL0     H69903   4.135   7.391   0.758  0.0385 -1.5815 -0.0037
  507MOL0     H69904   3.975   7.321   0.755 -1.5479  1.8493  2.7099
  507MOL0     H69905   3.978   7.349   0.496 -0.3747 -0.0216 -0.2747
  507MOL0     H69906   4.148   7.382   0.517  1.0535 -1.6855 -1.2248
  507MOL0     H69907   4.072   7.138   0.461  0.3005  1.7292 -1.0171
  507MOL0     H69908   4.014   7.131   0.640 -1.1259  1.4638 -0.9427
  507MOL0     H69909   4.299   7.195   0.567  0.0608  0.3517 -0.6313
  507MOL0     H69910   4.238   7.141   0.721 -0.7765  2.0437 -0.2626
  507MOL0     H69911   4.341   6.942   0.619 -0.1009 -0.4153 -1.7466
  507MOL0     H69912   4.266   6.988   0.466 -0.1924 -1.2325 -0.0387
  507MOL0     H69913   4.065   6.905   0.545  1.6984 -1.8259 -1.9487
  507MOL0     H69914   4.171   6.772   0.607  2.2879 -1.0173  3.9923
  507MOL0     H69915   3.889   6.905   0.735  0.5829  1.4207 -0.7583
  507MOL0     H69916   3.882   6.976   1.112 -1.3313  3.1527 -0.3022
  507MOL0     H69917   3.810   6.822   1.035 -0.5742  0.2251 -2.6832
  507MOL0     H69918   3.669   6.933   0.917  1.7301 -0.6702  0.0156
  507MOL0     H69919   3.678   7.027   1.072 -2.5331 -1.0358 -0.9113
  507MOL0     H69920   3.836   7.188   0.939  0.2291  0.9154 -0.5099
  507MOL0     H69921   3.799   7.082   0.800 -0.3736  1.1052 -0.9544
  507MOL0     H69922   3.632   7.240   0.770 -1.5241 -0.4170 -1.8101
  507MOL0     H69923   3.553   7.105   0.845 -0.9275  0.9539 -0.1270
  507MOL0     H69924   3.500   7.431   1.132 -1.0114  3.3202  0.0900
  507MOL0     H69925   3.209   7.627   1.161  1.0406  1.2395 -0.2771
  507MOL0     H69926   3.361   7.587   1.211  0.5753 -1.0959 -2.6590
  507MOL0     H69927   3.219   7.506   1.294  1.3140 -0.4112  0.2226
  507MOL0     H69928   2.787   7.359   1.172  2.6240  0.6573  4.4497
  507MOL0     H69929   2.559   7.458   1.184 -1.3114  2.3400  1.9191
  507MOL0     H69930   2.516   7.904   1.161  1.0212 -0.7766  0.7288
  507MOL0     H69931   2.504   7.848   0.995  2.1014  0.7887  0.7235
  507MOL0     H69932   2.274   7.818   1.202  1.7184  0.5868  1.0971
  507MOL0     H69933   2.295   7.965   1.092  2.1017  0.0378 -1.7221
  507MOL0     H69934   2.283   7.773   0.898 -3.7226 -0.9383 -1.6302
  507MOL0     H69935   2.145   7.829   0.977  0.6931 -2.5952 -0.6472
  507MOL0     H69936   2.194   7.606   1.135 -0.9040 -1.8219 -0.6474
  507MOL0     H69937   2.279   7.566   0.989 -0.7995 -1.4165  0.0103
  507MOL0     H69938   2.048   7.496   0.991  1.0699 -0.6522  0.3958
  507MOL0     H69939   1.995   7.660   1.011  3.2803  0.4934  2.7580
  507MOL0     H69940   2.156   7.579   0.753  0.6383  1.9114 -1.8893
  507MOL0     H69941   2.076   7.734   0.789  2.3821  0.4206 -1.1132
  507MOL0     H69942   1.869   7.628   0.784  1.3631  0.4268  2.2519
  507MOL0     H69943   1.950   7.467   0.760  0.9403  0.4621 -2.0387
  507MOL0     H69944   1.998   7.696   0.578 -0.9166 -0.0294  1.2307
  507MOL0     H69945   1.847   7.620   0.566 -0.2088  5.5195  0.9806
  507MOL0     H69946   2.736   7.834   1.081  0.4496 -1.4292 -0.1340
  507MOL0     H69947   2.956   7.732   1.078  1.2266 -1.0328 -2.7593
  507MOL0     H69948   3.140   7.258   0.836 -0.5369 -1.2047  0.5799
  507MOL0     H69949   3.353   7.164   0.824  1.7155 -0.2819  0.1782
  507MOL0     H69950   3.799   7.711   0.498 -2.8879  0.2672 -0.7698
  507MOL0     H69951   3.716   7.929   0.376  0.5461  4.7266 -2.7405
  507MOL0     H69952   3.750   8.284   0.321  2.9159 -0.0615 -1.6674
  507MOL0     H69953   3.604   8.465   0.316  0.2450  0.0887  0.4553
  507MOL0     H69954   3.406   8.530   0.311  0.1544 -2.8509 -1.5214
  507MOL0     H69955   3.505   8.663   0.244  0.4662 -0.7960  1.5736
  507MOL0     H69956   3.302   8.767   0.305 -0.8182  2.4905 -1.4843
  507MOL0     H69957   3.207   8.663   0.192 -0.4063  1.3847 -2.0045
  507MOL0     H69958   3.422   8.785   0.056 -1.9286 -2.2377 -2.3166
  507MOL0     H69959   3.251   8.782   0.006  1.0698 -2.3712 -1.6161
  507MOL0     H69960   3.304   9.004   0.026  2.3249 -0.4140 -0.8170
  507MOL0     H69961   3.397   8.981   0.166  0.9028  0.6166 -2.5041
  507MOL0     H69962   2.979   9.011   0.291 -0.2255  1.2343 -1.6580
  507MOL0     H69963   3.453   8.342  -0.059 -3.7290 -3.7693  1.5128
  507MOL0     H69964   3.704   8.106  -0.160  0.2274  0.9982  0.0526
  507MOL0     H69965   3.552   8.039  -0.087  0.4095 -0.8479 -0.5912
  507MOL0     H69966   3.548   8.180  -0.186  2.2524  0.8445 -1.2533
  508MOL0     O69967   1.015   2.340  10.863 -0.1854  0.2490  0.7505
  508MOL0     C69968   0.977   2.400  10.963  0.0271 -0.4813 -0.0001
  508MOL0     O69969   1.058   2.466  11.045  0.0603 -0.7839  0.4287
  508MOL0     C69970   1.190   2.440  11.041 -0.4143 -0.4615  1.5212
  508MOL0     C69971   1.248   2.355  11.131 -0.0548  0.4393 -1.0433
  508MOL0     C69972   1.390   2.344  11.138  0.3392  0.5956  0.1700
  508MOL0     C69973   1.478   2.416  11.056  0.5280 -0.0905  0.0085
  508MOL0     O69974   1.612   2.397  11.057  0.3904 -0.8746  1.1035
  508MOL0     C69975   1.675   2.455  11.183  0.1811  0.5430  0.4411
  508MOL0     C69976   1.826   2.464  11.162 -0.4450  0.7524 -0.4755
  508MOL0     C69977   1.901   2.333  11.144 -0.7936  0.9243 -0.3054
  508MOL0     C69978   1.870   2.205  11.222 -0.2536 -0.8396 -0.4770
  508MOL0     C69979   1.970   2.098  11.192 -0.2933  0.5135 -0.7024
  508MOL0     C69980   1.988   2.003  11.315 -0.2309  0.0907 -0.4044
  508MOL0     C69981   2.092   1.898  11.287  0.0721  0.0368  0.0467
  508MOL0     C69982   2.106   1.781  11.389  0.1401 -0.2091 -0.4752
  508MOL0     N69983   2.237   1.717  11.392  0.3956 -0.2002  0.1291
  508MOL0     C69984   2.310   1.698  11.278 -0.5185  0.3285 -0.2954
  508MOL0     C69985   2.430   1.648  11.309 -0.8094  0.9827 -0.8711
  508MOL0     C69986   2.542   1.583  11.223 -0.3168  0.0081 -1.5083
  508MOL0     C69987   2.512   1.430  11.201  0.0125  0.3119 -0.1395
  508MOL0     C69988   2.381   1.416  11.127  0.0464 -0.9589 -0.6399
  508MOL0     C69989   2.357   1.271  11.080 -0.7218  0.5643  0.8797
  508MOL0     O69990   2.468   1.221  11.011 -0.2592 -0.4919  0.1285
  508MOL0     C69991   2.450   1.103  10.935  0.4409 -0.1000  0.4280
  508MOL0     C69992   2.333   1.034  10.919 -0.9309 -1.0765 -0.4416
  508MOL0     C69993   2.333   0.912  10.843 -0.6117  0.1232 -0.6657
  508MOL0     C69994   2.198   0.846  10.838  0.4899  0.0308  0.8289
  508MOL0     C69995   2.447   0.868  10.790 -0.9563  0.4869 -0.5538
  508MOL0     C69996   2.435   0.745  10.701  0.2089 -0.3877 -0.0412
  508MOL0     O69997   2.492   0.628  10.748 -0.6262 -0.6236  0.6836
  508MOL0     C69998   2.473   0.516  10.677 -0.1563 -0.0497  0.3372
  508MOL0     C69999   2.402   0.414  10.740 -0.2925 -0.0892  0.4854
  508MOL0     C70000   2.387   0.294  10.667  0.6187 -0.4076 -0.3025
  508MOL0     C70001   2.439   0.274  10.531 -0.3791 -0.6403  1.0451
  508MOL0     O70002   2.445   0.148  10.473  0.0612  0.1527  0.6702
  508MOL0     C70003   2.531   0.108  10.368  0.4266  0.4394 -0.4991
  508MOL0     C70004   2.490   0.175  10.238 -0.7463 -0.9259 -0.1636
  508MOL0     C70005   2.387   0.087  10.169  0.2658 -0.0853 -0.7636
  508MOL0     C70006   2.329   0.146  10.042 -1.0011  0.5254 -0.0256
  508MOL0     C70007   2.203   0.073   9.993  0.2267 -0.2177  0.3231
  508MOL0     C70008   2.197  -0.076   9.979 -0.1235  1.2058  0.5024
  508MOL0     C70009   2.137  -0.141   9.854  0.3418 -0.7628 -0.4911
  508MOL0     C70010   2.148  -0.294   9.861 -0.3469 -0.5456 -0.7352
  508MOL0    Cl70011   2.313  -0.357   9.864 -0.5078  0.3554  0.0858
  508MOL0     C70012   2.517   0.375  10.480  0.2040 -0.3619 -0.1578
  508MOL0     C70013   2.537   0.490  10.555 -0.4490  0.2623  0.4323
  508MOL0     O70014   2.381   0.763  10.589 -0.5230 -0.3143 -0.1936
  508MOL0     C70015   2.568   0.936  10.797 -0.6565  0.6838 -1.0535
  508MOL0     C70016   2.566   1.058  10.870  0.8122 -0.8161 -0.1247
  508MOL0     N70017   2.427   1.624  11.457  0.8630  0.4508 -0.1475
  508MOL0     N70018   2.309   1.676  11.496  0.0198  0.0196  1.0674
  508MOL0     C70019   1.416   2.509  10.973 -0.7081  0.0096 -0.2041
  508MOL0     C70020   1.275   2.523  10.956 -0.1754  1.1459  0.2550
  508MOL0     C70021   0.826   2.421  10.998  0.1477  1.5610  0.8487
  508MOL0     C70022   0.793   2.493  11.118 -0.6006  0.0089  1.2034
  508MOL0     C70023   0.668   2.497  11.171  0.6186 -0.4723  0.2599
  508MOL0     C70024   0.557   2.448  11.098  0.4056  0.4920 -0.3826
  508MOL0     O70025   0.427   2.455  11.143  0.0025  0.5441 -0.2483
  508MOL0     C70026   0.396   2.574  11.222 -0.3165 -0.3864 -0.7822
  508MOL0     C70027   0.246   2.616  11.206 -0.0352 -0.4745  0.6952
  508MOL0     C70028   0.162   2.483  11.232  0.2322 -0.2187  0.5159
  508MOL0     C70029   0.015   2.492  11.184  0.0624 -0.2866  0.2223
  508MOL0     C70030  -0.055   2.604  11.257 -0.2601 -0.0275 -0.3481
  508MOL0     C70031  -0.122   2.689  11.316 -0.6502 -0.8487  0.1745
  508MOL0     C70032   0.589   2.364  10.988 -0.2881  0.2695 -0.0314
  508MOL0     C70033   0.718   2.352  10.937 -1.0021  0.1920  0.6747
  508MOL0     C70034   0.731   2.258  10.811 -0.1580  0.0991 -0.2815
  508MOL0     H70035   1.174   2.301  11.190  1.0819  0.1928  0.2136
  508MOL0     H70036   1.447   2.271  11.194 -0.2186  1.8955  2.5805
  508MOL0     H70037   1.643   2.386  11.263 -0.3859 -1.5583 -1.4705
  508MOL0     H70038   1.652   2.559  11.209  0.8419  0.3800  1.8004
  508MOL0     H70039   1.854   2.512  11.068  4.9250  1.5874  1.1860
  508MOL0     H70040   1.881   2.519  11.239 -1.0389 -2.8524  2.8576
  508MOL0     H70041   1.885   2.312  11.038 -0.0511  2.5785 -0.7806
  508MOL0     H70042   2.008   2.349  11.159 -1.0450  0.2169  2.9852
  508MOL0     H70043   1.874   2.216  11.330 -2.8421  1.4235 -0.5157
  508MOL0     H70044   1.774   2.166  11.185  0.6123 -1.7428 -1.8993
  508MOL0     H70045   2.068   2.129  11.156  1.0898 -1.5083  1.1305
  508MOL0     H70046   1.919   2.027  11.126 -0.8304  0.2834 -0.0493
  508MOL0     H70047   2.017   2.049  11.410 -0.1406 -2.4530  0.8863
  508MOL0     H70048   1.893   1.952  11.337 -1.2450  2.4307  1.0472
  508MOL0     H70049   2.180   1.964  11.292 -1.5086  2.2994 -0.4123
  508MOL0     H70050   2.077   1.867  11.183  0.1512  0.2143 -0.0191
  508MOL0     H70051   2.081   1.827  11.485  0.5871  2.3636 -1.5045
  508MOL0     H70052   2.030   1.703  11.380  0.4092 -0.7031  1.0762
  508MOL0     H70053   2.261   1.717  11.183 -0.0890 -0.0234 -0.5905
  508MOL0     H70054   2.636   1.587  11.278 -1.1810 -1.5782  0.1945
  508MOL0     H70055   2.544   1.636  11.127  1.8205  1.8647 -0.5168
  508MOL0     H70056   2.598   1.389  11.148  0.2967 -1.9221  1.8475
  508MOL0     H70057   2.511   1.376  11.297  1.5573 -1.2100 -0.9306
  508MOL0     H70058   2.295   1.430  11.193 -0.7850 -0.2621 -1.8432
  508MOL0     H70059   2.375   1.487  11.044 -2.1050 -1.8169 -1.2709
  508MOL0     H70060   2.331   1.206  11.163  0.9360 -0.1459  0.8762
  508MOL0     H70061   2.268   1.269  11.016 -0.0284 -0.8945 -0.0837
  508MOL0     H70062   2.239   1.066  10.963  0.4490  1.7785  0.6763
  508MOL0     H70063   2.164   0.855  10.735 -2.6372  1.5683  1.8680
  508MOL0     H70064   2.121   0.885  10.905 -0.1167  1.1896 -0.4809
  508MOL0     H70065   2.211   0.740  10.858 -2.5828 -0.4311  0.7621
  508MOL0     H70066   2.375   0.415  10.845 -1.4659  0.5821  0.1998
  508MOL0     H70067   2.349   0.211  10.725  0.7746 -0.7073 -0.6220
  508MOL0     H70068   2.635   0.130  10.394  0.4279 -1.9990  2.0116
  508MOL0     H70069   2.527  -0.001  10.363  3.4785  0.2579 -1.3761
  508MOL0     H70070   2.453   0.276  10.252 -2.1184 -1.4910  0.5088
  508MOL0     H70071   2.578   0.195  10.176 -0.1342  1.7442  1.4424
  508MOL0     H70072   2.306   0.071  10.240  0.2022  0.1349 -0.7882
  508MOL0     H70073   2.425  -0.012  10.141  1.0277  0.0865 -0.3702
  508MOL0     H70074   2.408   0.148   9.967 -2.2692 -0.5026 -1.4490
  508MOL0     H70075   2.301   0.245  10.079  0.5144  0.8296  0.3622
  508MOL0     H70076   2.126   0.113  10.060  2.6199  1.6331  2.1676
  508MOL0     H70077   2.182   0.115   9.894  2.3005 -0.9074 -0.4572
  508MOL0     H70078   2.146  -0.113  10.068 -0.0445  2.3215  1.0321
  508MOL0     H70079   2.300  -0.112   9.987 -0.1222  0.9810 -0.3999
  508MOL0     H70080   2.189  -0.092   9.771  0.7716 -0.3542  0.0143
  508MOL0     H70081   2.033  -0.112   9.841  1.0694  0.8134 -3.8924
  508MOL0     H70082   2.097  -0.337   9.774 -0.9006 -0.2130 -0.5738
  508MOL0     H70083   2.104  -0.343   9.948 -2.4899 -0.3572 -1.6504
  508MOL0     H70084   2.579   0.362  10.392 -0.7011  1.6463 -1.1574
  508MOL0     H70085   2.603   0.572  10.530  2.0456 -0.6953  3.2262
  508MOL0     H70086   2.657   0.903  10.746 -0.9333 -2.4681  0.2474
  508MOL0     H70087   2.657   1.115  10.887 -1.0023  2.1898  0.2888
  508MOL0     H70088   1.480   2.575  10.915 -0.6231  1.7417  1.7535
  508MOL0     H70089   1.227   2.595  10.890  2.6030  1.2035 -1.8775
  508MOL0     H70090   0.873   2.533  11.179 -0.2621 -0.5136  1.1040
  508MOL0     H70091   0.654   2.545  11.267  0.3186 -2.6891  1.3920
  508MOL0     H70092   0.411   2.553  11.328 -2.8113  1.3852  0.0144
  508MOL0     H70093   0.456   2.665  11.207 -0.6294 -0.0379  0.0480
  508MOL0     H70094   0.236   2.639  11.099 -0.4352 -3.7602 -0.0630
  508MOL0     H70095   0.214   2.701  11.267 -1.4414  0.5791 -1.3717
  508MOL0     H70096   0.199   2.392  11.184  0.7872 -0.3329  1.1574
  508MOL0     H70097   0.155   2.457  11.338  0.2875  2.4758  1.2558
  508MOL0     H70098  -0.042   2.405  11.217 -0.2952 -0.2138 -0.1851
  508MOL0     H70099   0.009   2.502  11.075  0.3517 -0.3728  0.1996
  508MOL0     H70100  -0.193   2.756  11.360 -2.0691 -1.3761 -1.2214
  508MOL0     H70101   0.509   2.308  10.941 -0.3978  0.7839 -0.4694
  508MOL0     H70102   0.793   2.171  10.833 -0.9602  0.1168  2.3617
  508MOL0     H70103   0.639   2.215  10.771 -3.2686  2.0685  3.9908
  508MOL0     H70104   0.772   2.321  10.731 -4.4650  3.3854 -0.2897
  509MOL0     O70105   9.743   8.454  11.546  0.2337 -0.8825 -0.6561
  509MOL0     C70106   9.688   8.538  11.622 -0.3264  0.0697  0.0059
  509MOL0     O70107   9.620   8.655  11.583  0.2852  0.6330  0.2384
  509MOL0     C70108   9.588   8.676  11.456  0.6098 -1.1181 -0.3575
  509MOL0     C70109   9.647   8.793  11.394 -1.3320 -0.0925 -0.3390
  509MOL0     C70110   9.645   8.816  11.257 -0.1719  1.3968 -0.3172
  509MOL0     C70111   9.572   8.730  11.172 -0.1197  0.1041  0.8197
  509MOL0     O70112   9.570   8.748  11.036  0.6223 -0.0868 -0.1910
  509MOL0     C70113   9.497   8.653  10.953  0.2333 -0.0779  0.9649
  509MOL0     C70114   9.338   8.673  10.942 -0.4007 -1.0672  0.0441
  509MOL0     C70115   9.296   8.803  10.850  0.0550  0.1793 -0.5365
  509MOL0     C70116   9.285   8.751  10.695 -0.6904 -0.0299 -0.7857
  509MOL0     C70117   9.253   8.866  10.594 -0.6203  0.0703 -0.5322
  509MOL0     C70118   9.236   8.817  10.452  0.5855  0.2044  0.4458
  509MOL0     C70119   9.164   8.923  10.371  0.0524 -0.0127  0.5314
  509MOL0     C70120   9.147   8.887  10.221 -0.1538  0.3299  0.1523
  509MOL0     N70121   9.053   8.985  10.161  0.2597  0.1562 -0.4228
  509MOL0     C70122   8.936   8.951  10.092 -0.4382 -1.0389  0.0143
  509MOL0     C70123   8.883   9.073  10.057  0.4582  0.2816 -0.0750
  509MOL0     C70124   8.768   9.111   9.967  0.9631 -0.3328 -0.0722
  509MOL0     C70125   8.802   9.062   9.821 -0.7520 -0.3901  0.6306
  509MOL0     C70126   8.681   9.089   9.739 -0.6591 -0.0884 -0.2219
  509MOL0     C70127   8.681   9.043   9.590  0.0211 -0.8267  0.2823
  509MOL0     O70128   8.571   9.100   9.517 -0.4278  0.4954  0.7079
  509MOL0     C70129   8.448   9.054   9.557  0.1195 -0.7432 -0.8605
  509MOL0     C70130   8.341   9.149   9.580  0.2207 -0.0165 -1.0441
  509MOL0     C70131   8.210   9.115   9.626 -0.1739  0.4249  0.4586
  509MOL0     C70132   8.107   9.221   9.651  0.4226 -1.2920  0.3581
  509MOL0     C70133   8.183   8.979   9.637  0.6955  0.5660  0.8598
  509MOL0     C70134   8.053   8.917   9.683  0.2186 -0.0741  0.6232
  509MOL0     O70135   8.038   8.789   9.651  0.3690  0.2125 -0.7474
  509MOL0     C70136   7.917   8.740   9.664  0.3019 -0.6618  0.0965
  509MOL0     C70137   7.804   8.814   9.623  0.4216 -0.9647  0.5839
  509MOL0     C70138   7.677   8.760   9.636  0.6727 -0.7079 -0.3714
  509MOL0     C70139   7.661   8.628   9.677 -0.3425  0.6674  0.0681
  509MOL0     O70140   7.544   8.583   9.705  0.4049 -0.0478  0.1094
  509MOL0     C70141   7.520   8.450   9.663 -0.7110 -0.3403 -0.2489
  509MOL0     C70142   7.441   8.440   9.536  0.3877 -0.3569 -0.2025
  509MOL0     C70143   7.437   8.298   9.474  0.0079  0.4986  0.2052
  509MOL0     C70144   7.381   8.187   9.562 -1.2052 -0.2252 -1.2387
  509MOL0     C70145   7.478   8.075   9.563 -0.2070 -1.4344 -0.4131
  509MOL0     C70146   7.412   7.944   9.618  0.5146  0.6130  0.5143
  509MOL0     C70147   7.343   7.885   9.497  0.6212 -0.6914 -1.0050
  509MOL0     C70148   7.294   7.742   9.539 -0.0109 -0.3920  0.4137
  509MOL0    Cl70149   7.145   7.736   9.640 -0.0512  0.1682  0.2999
  509MOL0     C70150   7.777   8.555   9.716 -0.0326  0.7298 -0.2681
  509MOL0     C70151   7.898   8.616   9.707 -0.6685  0.4200 -0.5617
  509MOL0     O70152   7.988   8.981   9.765  0.2889 -0.9018 -0.5642
  509MOL0     C70153   8.286   8.887   9.594  0.9787 -0.3585 -0.1183
  509MOL0     C70154   8.416   8.925   9.562  0.1270 -0.8578 -0.2550
  509MOL0     N70155   8.962   9.168  10.119  0.0137 -0.4396  0.0401
  509MOL0     N70156   9.067   9.118  10.171  0.0589 -0.2735 -1.1180
  509MOL0     C70157   9.505   8.626  11.231 -0.8613  0.7900 -0.0438
  509MOL0     C70158   9.520   8.588  11.376  0.0046  0.6277 -1.2885
  509MOL0     C70159   9.692   8.525  11.767 -0.8094 -0.0973  1.1992
  509MOL0     C70160   9.579   8.556  11.839  0.2011 -0.2180 -1.5597
  509MOL0     C70161   9.575   8.555  11.978  0.5035  0.6384 -1.3918
  509MOL0     C70162   9.683   8.501  12.047 -0.1269  0.3555 -0.7220
  509MOL0     O70163   9.690   8.493  12.172 -0.0041 -0.1072 -0.2335
  509MOL0     C70164   9.592   8.551  12.271 -0.4820  1.5721 -0.0320
  509MOL0     C70165   9.645   8.500  12.406  0.1075 -0.2711 -0.6162
  509MOL0     C70166   9.585   8.578  12.525 -0.7363  0.2702  0.4777
  509MOL0     C70167   9.444   8.529  12.556 -0.0267 -0.5354  0.2204
  509MOL0     C70168   9.445   8.393  12.625 -0.0460 -0.8594 -0.1982
  509MOL0     C70169   9.467   8.280  12.656 -0.0386  0.6755  0.6768
  509MOL0     C70170   9.795   8.461  11.969 -1.0534 -0.5987  0.0384
  509MOL0     C70171   9.806   8.490  11.833  0.1121 -0.2600 -1.0600
  509MOL0     C70172   9.946   8.473  11.767 -0.9885  0.8091  0.5501
  509MOL0     H70173   9.715   8.850  11.456  0.8892 -0.6636 -2.1033
  509MOL0     H70174   9.699   8.908  11.232 -2.6242  2.9365 -0.2948
  509MOL0     H70175   9.513   8.553  10.995 -1.3336  0.2397  2.4593
  509MOL0     H70176   9.543   8.648  10.854  0.6681 -1.6332  1.2281
  509MOL0     H70177   9.287   8.585  10.903 -1.8536 -0.2620  0.0789
  509MOL0     H70178   9.319   8.687  11.049 -3.1508 -4.0963  0.0998
  509MOL0     H70179   9.203   8.844  10.889  0.7164  1.5581 -0.3603
  509MOL0     H70180   9.372   8.881  10.855  0.5818 -0.1872 -2.1005
  509MOL0     H70181   9.374   8.695  10.665 -0.6884 -0.9619  0.8440
  509MOL0     H70182   9.190   8.697  10.690 -1.4907  1.0546  1.4813
  509MOL0     H70183   9.336   8.937  10.599  0.2756 -0.9347 -0.6367
  509MOL0     H70184   9.155   8.902  10.626  0.1428  0.5762  1.3974
  509MOL0     H70185   9.332   8.787  10.410  0.8685  0.0105  1.2149
  509MOL0     H70186   9.180   8.724  10.466  0.2823  0.3629  0.3021
  509MOL0     H70187   9.223   9.014  10.387  0.8521 -0.1237 -1.5341
  509MOL0     H70188   9.066   8.933  10.419  1.0623 -2.1630  3.3789
  509MOL0     H70189   9.247   8.889  10.177 -2.0667 -0.4030 -4.8746
  509MOL0     H70190   9.116   8.783  10.205 -0.5367  0.5011 -0.2415
  509MOL0     H70191   8.897   8.854  10.063 -0.9054 -0.6822 -0.5729
  509MOL0     H70192   8.734   9.214   9.959 -1.4848 -1.1675 -1.5598
  509MOL0     H70193   8.677   9.059  10.000 -0.6442  1.9233 -0.6741
  509MOL0     H70194   8.888   9.111   9.774 -1.2723  0.5225  0.6150
  509MOL0     H70195   8.827   8.956   9.814 -0.6697 -0.3600  0.4471
  509MOL0     H70196   8.605   9.026   9.786  1.9439 -2.3263  1.2181
  509MOL0     H70197   8.646   9.193   9.732 -2.3126 -0.5748  0.3141
  509MOL0     H70198   8.768   9.089   9.544 -0.9257  0.5631 -0.1893
  509MOL0     H70199   8.706   8.937   9.590  0.3150 -1.0401  5.8644
  509MOL0     H70200   8.369   9.252   9.558  0.7963 -0.3631 -1.9462
  509MOL0     H70201   8.073   9.228   9.755 -2.3703 -4.0722 -0.2206
  509MOL0     H70202   8.031   9.228   9.573  0.1583  1.8792  0.7824
  509MOL0     H70203   8.160   9.315   9.634  0.2153 -1.1174  0.6678
  509MOL0     H70204   7.810   8.912   9.576 -0.0478 -1.5917 -0.8480
  509MOL0     H70205   7.590   8.820   9.613 -1.6033 -2.1418  3.4869
  509MOL0     H70206   7.608   8.387   9.651 -1.1587 -0.7660 -1.3797
  509MOL0     H70207   7.456   8.397   9.735  0.1796  0.4880  1.2057
  509MOL0     H70208   7.337   8.470   9.554 -0.3072  1.0028 -5.0732
  509MOL0     H70209   7.481   8.515   9.467 -0.4755 -0.0926 -0.4269
  509MOL0     H70210   7.541   8.272   9.457  0.2483 -0.1709  2.3763
  509MOL0     H70211   7.379   8.308   9.382 -0.2110  1.4562  0.4356
  509MOL0     H70212   7.285   8.150   9.526 -1.3369  1.0049 -2.2237
  509MOL0     H70213   7.376   8.212   9.668  2.4311 -2.6505 -0.2743
  509MOL0     H70214   7.524   8.056   9.466  1.2492 -3.1288  0.5471
  509MOL0     H70215   7.564   8.096   9.626  0.1547 -1.0480 -1.0309
  509MOL0     H70216   7.333   7.974   9.688 -1.8168 -0.7710 -1.3705
  509MOL0     H70217   7.491   7.888   9.669 -0.9578 -1.0055  1.1312
  509MOL0     H70218   7.412   7.887   9.412  1.8966 -1.2632 -0.0115
  509MOL0     H70219   7.259   7.949   9.468 -0.4004  0.0074  2.9385
  509MOL0     H70220   7.374   7.689   9.592 -0.6840  0.2225  2.1134
  509MOL0     H70221   7.275   7.691   9.444 -1.2814  1.7647 -0.5572
  509MOL0     H70222   7.775   8.453   9.754  0.7790  1.7047  2.6783
  509MOL0     H70223   7.987   8.564   9.740 -0.1751  0.8340 -1.2195
  509MOL0     H70224   8.273   8.781   9.613  0.5311 -0.4890 -1.0923
  509MOL0     H70225   8.484   8.842   9.550  1.2696  0.3632 -3.2079
  509MOL0     H70226   9.458   8.549  11.171  0.6499 -0.6538  0.5539
  509MOL0     H70227   9.480   8.497  11.420  3.0529 -1.5604 -2.5875
  509MOL0     H70228   9.495   8.596  11.784 -0.6856 -1.0744 -0.8675
  509MOL0     H70229   9.495   8.585  12.044  1.3885 -1.2803  0.6907
  509MOL0     H70230   9.586   8.660  12.263  0.5372  1.6146 -0.4604
  509MOL0     H70231   9.493   8.509  12.250 -0.1243  1.4790 -1.6991
  509MOL0     H70232   9.754   8.509  12.407  0.0412  1.7004  2.6192
  509MOL0     H70233   9.628   8.393  12.421 -3.3864  0.3601  1.0519
  509MOL0     H70234   9.646   8.563  12.615 -0.0057 -0.8917 -0.1798
  509MOL0     H70235   9.592   8.686  12.508  0.1257  0.5687  2.4355
  509MOL0     H70236   9.388   8.532  12.463 -1.3539  3.2844  0.9639
  509MOL0     H70237   9.400   8.613  12.611  2.3177 -0.4595  2.1412
  509MOL0     H70238   9.496   8.180  12.679 -1.7986 -0.5161 -1.8080
  509MOL0     H70239   9.877   8.412  12.021  0.1928  1.4171  0.0492
  509MOL0     H70240  10.019   8.484  11.848 -0.3959  0.2783  0.0978
  509MOL0     H70241   9.952   8.377  11.714  1.7002  1.5771 -0.6922
  509MOL0     H70242   9.971   8.557  11.702  2.3883 -0.2395  0.2914
  510MOL0     O70243   0.352   7.801   2.360 -0.2143  0.0420  0.1335
  510MOL0     C70244   0.282   7.861   2.280  0.7367  0.3525  0.5599
  510MOL0     O70245   0.199   7.799   2.189  0.1259  0.2911  0.0204
  510MOL0     C70246   0.226   7.668   2.139 -0.0331 -0.5598  0.5585
  510MOL0     C70247   0.356   7.621   2.110 -0.4932 -1.2010  0.5682
  510MOL0     C70248   0.369   7.493   2.056  0.2333  0.2563  0.6611
  510MOL0     C70249   0.262   7.419   2.002 -0.4930  0.5019 -1.2070
  510MOL0     O70250   0.279   7.308   1.925 -0.4418 -0.1823  0.3583
  510MOL0     C70251   0.312   7.192   2.008 -0.1335  0.6236 -0.5779
  510MOL0     C70252   0.342   7.072   1.919 -0.2434  0.2220 -0.1305
  510MOL0     C70253   0.242   7.070   1.801 -0.2585 -0.0440 -0.9008
  510MOL0     C70254   0.241   6.928   1.736 -1.1008 -0.3660 -0.7056
  510MOL0     C70255   0.166   6.930   1.609  0.8896  0.1243  0.7055
  510MOL0     C70256   0.146   6.784   1.560 -0.0505  1.1499  0.3387
  510MOL0     C70257   0.104   6.778   1.415 -0.7378 -0.9344 -0.2832
  510MOL0     C70258   0.212   6.846   1.321 -0.0958 -0.0653 -0.5156
  510MOL0     N70259   0.155   6.958   1.251  0.0194  0.2992 -0.5908
  510MOL0     C70260   0.206   7.086   1.285  0.6125  0.6384 -0.8590
  510MOL0     C70261   0.122   7.167   1.226  0.6763 -0.2865  0.1891
  510MOL0     C70262   0.121   7.318   1.226 -0.2084  0.4532  0.4273
  510MOL0     C70263   0.033   7.373   1.327  0.2103 -0.2472 -0.2315
  510MOL0     C70264   0.058   7.337   1.471 -0.5901  0.0297 -0.2126
  510MOL0     C70265   0.192   7.404   1.526 -0.2132  0.7981  0.3879
  510MOL0     O70266   0.305   7.322   1.480 -0.2908  0.6811 -0.2676
  510MOL0     C70267   0.429   7.370   1.504  0.3552 -0.0433 -0.0669
  510MOL0     C70268   0.466   7.440   1.626 -0.6276  0.0124  0.5875
  510MOL0     C70269   0.591   7.505   1.637  1.0137 -0.2033  1.3819
  510MOL0     C70270   0.593   7.594   1.753  0.0619 -0.4011 -1.0075
  510MOL0     C70271   0.688   7.480   1.545 -0.5201  0.2920  0.4826
  510MOL0     C70272   0.826   7.538   1.540  0.0671 -1.1112 -0.0369
  510MOL0     O70273   0.907   7.507   1.438  0.0768 -0.0423  0.7341
  510MOL0     C70274   1.036   7.545   1.439  0.0044 -0.4145  0.4386
  510MOL0     C70275   1.140   7.473   1.499 -0.1566  0.0435  0.3052
  510MOL0     C70276   1.271   7.514   1.502 -0.2023 -1.0141 -1.0481
  510MOL0     C70277   1.298   7.639   1.434 -0.4574 -0.5812 -1.0638
  510MOL0     O70278   1.423   7.692   1.451 -0.0790 -0.0959  0.2288
  510MOL0     C70279   1.437   7.768   1.572 -0.1644  0.6907  0.3101
  510MOL0     C70280   1.572   7.851   1.547  0.5513 -0.1885 -0.2498
  510MOL0     C70281   1.549   7.953   1.436  0.1534  1.2963 -0.2263
  510MOL0     C70282   1.423   8.040   1.448 -0.1128 -0.1264  0.1423
  510MOL0     C70283   1.462   8.187   1.445 -0.8191  0.4058  0.8032
  510MOL0     C70284   1.525   8.223   1.312 -0.1261 -1.2656 -0.1077
  510MOL0     C70285   1.470   8.157   1.181 -0.4738 -0.1094 -0.1687
  510MOL0     C70286   1.478   8.242   1.058  0.5100 -0.4391  0.2934
  510MOL0    Cl70287   1.650   8.293   1.027 -0.1821 -0.0197 -0.0275
  510MOL0     C70288   1.198   7.709   1.370 -0.1355  1.1447 -0.5148
  510MOL0     C70289   1.066   7.666   1.380 -0.0250  0.3974  0.2449
  510MOL0     O70290   0.864   7.601   1.637 -0.0374  0.2570  0.5796
  510MOL0     C70291   0.657   7.394   1.431 -0.3137  0.8245  0.7352
  510MOL0     C70292   0.531   7.342   1.419  0.1193  0.0445 -0.2785
  510MOL0     N70293   0.029   7.095   1.159 -0.0762  0.9854  1.0935
  510MOL0     N70294   0.041   6.965   1.178 -0.0463 -0.6948  0.8172
  510MOL0     C70295   0.136   7.475   2.018  0.3142 -0.2737  0.3241
  510MOL0     C70296   0.116   7.593   2.085  0.5585  0.1214 -0.7421
  510MOL0     C70297   0.269   8.010   2.288 -0.2169 -0.1486  0.0195
  510MOL0     C70298   0.159   8.077   2.216  0.2437  0.0619 -0.0411
  510MOL0     C70299   0.127   8.209   2.242  0.8183 -0.1440 -0.2726
  510MOL0     C70300   0.206   8.292   2.323  0.2454 -0.2401  0.1212
  510MOL0     O70301   0.172   8.422   2.339  0.2421 -0.4359  0.2225
  510MOL0     C70302   0.094   8.460   2.455  0.1038 -0.9265  1.1784
  510MOL0     C70303   0.195   8.459   2.562 -0.1334 -0.0943 -0.5776
  510MOL0     C70304   0.157   8.512   2.698  0.3826  0.3500  0.6204
  510MOL0     C70305   0.026   8.445   2.742  0.1956  0.2929  0.2154
  510MOL0     C70306   0.013   8.457   2.885  0.9623  0.7012 -0.2574
  510MOL0     C70307   0.019   8.453   3.005  0.6969 -1.0110 -0.2561
  510MOL0     C70308   0.317   8.236   2.382 -0.6358  0.0020  0.1596
  510MOL0     C70309   0.348   8.098   2.377 -0.0260  1.4027  0.1275
  510MOL0     C70310   0.464   8.049   2.457 -0.6800  0.5321  0.5286
  510MOL0     H70311   0.434   7.686   2.147 -2.1692  0.6332  1.0075
  510MOL0     H70312   0.467   7.448   2.048  0.5945  1.3447 -2.1029
  510MOL0     H70313   0.224   7.168   2.067  0.5875  0.1496  0.3424
  510MOL0     H70314   0.404   7.204   2.067  1.4879 -2.8025 -2.1324
  510MOL0     H70315   0.450   7.065   1.901 -0.0212  0.1073  1.1567
  510MOL0     H70316   0.321   6.988   1.987  0.4530  0.0805 -0.0817
  510MOL0     H70317   0.144   7.112   1.821  0.4567  1.9195 -1.2742
  510MOL0     H70318   0.288   7.148   1.739  0.1498  0.3068 -0.1755
  510MOL0     H70319   0.343   6.892   1.719 -0.7281  1.2636 -2.1611
  510MOL0     H70320   0.199   6.851   1.801  0.2208 -2.2779 -1.9959
  510MOL0     H70321   0.210   7.000   1.539  0.5218 -2.7579 -2.6902
  510MOL0     H70322   0.070   6.975   1.635  0.6959  0.4470 -0.5394
  510MOL0     H70323   0.241   6.732   1.571 -1.7709 -2.8420 -1.7470
  510MOL0     H70324   0.068   6.731   1.615 -1.6514  4.2693  1.3052
  510MOL0     H70325   0.002   6.818   1.410 -0.8835 -0.7312  2.7055
  510MOL0     H70326   0.093   6.671   1.394  0.0710 -1.4789  1.8100
  510MOL0     H70327   0.313   6.875   1.352  0.0891  2.2830 -2.9467
  510MOL0     H70328   0.245   6.769   1.250  3.8318  0.1553  0.8052
  510MOL0     H70329   0.283   7.102   1.360 -0.5367  0.5699  0.3771
  510MOL0     H70330   0.101   7.364   1.129  1.4899 -0.4179 -0.3548
  510MOL0     H70331   0.228   7.339   1.231  0.3961 -1.9595 -0.8247
  510MOL0     H70332   0.040   7.480   1.306 -0.9843 -0.3527 -1.3276
  510MOL0     H70333  -0.064   7.334   1.294  0.5164 -0.4548 -0.8920
  510MOL0     H70334  -0.029   7.367   1.531 -2.2692  1.3756 -3.1135
  510MOL0     H70335   0.077   7.231   1.485  1.1466  0.5062  1.5509
  510MOL0     H70336   0.199   7.507   1.490 -2.8035  1.4302  1.5106
  510MOL0     H70337   0.187   7.419   1.634 -0.7575  1.9033  0.2120
  510MOL0     H70338   0.394   7.437   1.707 -2.0491 -1.0381 -0.6654
  510MOL0     H70339   0.672   7.670   1.754 -0.3864  0.0688 -1.2769
  510MOL0     H70340   0.606   7.528   1.840 -0.8308 -1.8528 -1.9368
  510MOL0     H70341   0.496   7.645   1.754 -1.0540 -2.3678 -2.1834
  510MOL0     H70342   1.110   7.390   1.563 -3.5706  0.1794 -0.9451
  510MOL0     H70343   1.342   7.454   1.558 -1.4016 -3.0788 -1.6278
  510MOL0     H70344   1.354   7.829   1.610  0.8038  1.8352  0.6612
  510MOL0     H70345   1.461   7.704   1.658  2.9852  2.4581  0.8843
  510MOL0     H70346   1.611   7.897   1.638 -1.1119 -0.5679  0.6989
  510MOL0     H70347   1.646   7.775   1.520 -1.3754 -2.4905  0.6034
  510MOL0     H70348   1.548   7.891   1.346  2.6750 -2.7312  2.1565
  510MOL0     H70349   1.640   8.013   1.422  1.9466 -1.0945  0.4574
  510MOL0     H70350   1.381   8.010   1.545 -0.6546 -0.4109 -0.1765
  510MOL0     H70351   1.348   8.015   1.373 -0.0392 -2.9012  0.8885
  510MOL0     H70352   1.367   8.239   1.460 -1.2889 -0.5018  1.0397
  510MOL0     H70353   1.530   8.213   1.527  1.0730 -0.7313 -0.3488
  510MOL0     H70354   1.630   8.195   1.315  0.0522 -0.8646 -1.9038
  510MOL0     H70355   1.515   8.331   1.297  0.8432 -1.2455 -0.6695
  510MOL0     H70356   1.366   8.135   1.205 -0.5422  1.5348  1.2011
  510MOL0     H70357   1.528   8.065   1.172 -0.7373 -0.3750  0.7231
  510MOL0     H70358   1.422   8.332   1.086  1.2283  0.3142 -0.6495
  510MOL0     H70359   1.442   8.188   0.970  1.9160 -0.0309 -0.5522
  510MOL0     H70360   1.227   7.801   1.319 -0.1528  1.1978 -0.4287
  510MOL0     H70361   0.990   7.728   1.334  2.5493  3.4982 -0.2557
  510MOL0     H70362   0.721   7.376   1.346 -1.6630  0.4354 -0.2317
  510MOL0     H70363   0.505   7.284   1.331 -1.6858 -3.0110  2.0677
  510MOL0     H70364   0.052   7.434   1.962  0.7398  0.5881 -1.0006
  510MOL0     H70365   0.020   7.640   2.105  1.0328  1.3949 -1.4007
  510MOL0     H70366   0.104   8.015   2.146 -2.7157 -0.1024  2.2345
  510MOL0     H70367   0.045   8.253   2.186 -0.3736 -1.9999 -0.0505
  510MOL0     H70368   0.056   8.562   2.443  1.0724 -0.5459  1.2278
  510MOL0     H70369  -0.001   8.407   2.466 -0.2117 -0.1974  2.0676
  510MOL0     H70370   0.279   8.525   2.539  0.3951 -0.4417  0.3653
  510MOL0     H70371   0.232   8.358   2.579  2.0209  0.7604  0.0668
  510MOL0     H70372   0.249   8.480   2.748  1.1515 -0.0189 -0.9825
  510MOL0     H70373   0.138   8.619   2.683  0.8207  0.0974 -2.2543
  510MOL0     H70374   0.031   8.341   2.711  0.3310 -0.5327  2.7843
  510MOL0     H70375  -0.059   8.496   2.697 -0.7746 -2.4187 -1.2370
  510MOL0     H70376   0.014   8.445   3.112  1.8574 -0.6946 -0.1587
  510MOL0     H70377   0.376   8.306   2.438 -1.9380  1.7954 -0.5977
  510MOL0     H70378   0.532   7.994   2.391 -1.5060 -0.6844  0.6731
  510MOL0     H70379   0.525   8.130   2.498 -0.3658  0.2006  0.7150
  510MOL0     H70380   0.415   7.999   2.540 -5.1043  0.3456 -1.8631
  511MOL0     O70381   5.090   7.150   5.161 -0.3870 -0.1476  0.2369
  511MOL0     C70382   4.965   7.155   5.172 -0.1133 -0.2294  1.2135
  511MOL0     O70383   4.885   7.269   5.153  0.7558  1.3853  0.3000
  511MOL0     C70384   4.942   7.383   5.119  0.0234 -0.3084  0.0766
  511MOL0     C70385   5.015   7.409   4.999  0.0776 -0.1299  0.4118
  511MOL0     C70386   5.117   7.505   5.001  0.6621  0.1665  1.0001
  511MOL0     C70387   5.149   7.577   5.116 -0.3318 -1.0751 -0.4088
  511MOL0     O70388   5.241   7.681   5.120  0.2113 -0.5037  0.0441
  511MOL0     C70389   5.373   7.639   5.084  1.0239 -0.3335 -0.2195
  511MOL0     C70390   5.480   7.741   5.143  0.3493  0.8519  0.5031
  511MOL0     C70391   5.493   7.741   5.296  0.1904 -1.1139  0.4999
  511MOL0     C70392   5.477   7.882   5.352  0.1537  0.0872  0.6453
  511MOL0     C70393   5.488   7.893   5.503  0.0341  0.6757  0.0835
  511MOL0     C70394   5.367   7.845   5.586 -0.0864  1.2062  0.3336
  511MOL0     C70395   5.282   7.960   5.621 -0.0140  0.2674 -0.1833
  511MOL0     C70396   5.154   7.932   5.715  0.3431  0.4201 -0.1710
  511MOL0     N70397   5.182   7.840   5.831 -0.0914 -0.4877  0.2415
  511MOL0     C70398   5.175   7.700   5.819 -1.2636  0.2772 -0.0493
  511MOL0     C70399   5.154   7.652   5.950  0.0097 -0.2938 -1.0122
  511MOL0     C70400   5.138   7.509   5.981 -0.7966 -0.1701 -1.2616
  511MOL0     C70401   5.099   7.414   5.859  0.3027  1.0153 -0.0856
  511MOL0     C70402   5.111   7.262   5.892  0.0549 -0.6520 -0.8058
  511MOL0     C70403   5.169   7.179   5.775 -0.4550 -0.3480  0.4444
  511MOL0     O70404   5.093   7.194   5.655  0.5882  0.7654 -0.3852
  511MOL0     C70405   4.969   7.140   5.642  0.6790 -0.0884  0.0340
  511MOL0     C70406   4.925   7.030   5.706  0.3351  0.2936  0.0288
  511MOL0     C70407   4.801   6.976   5.691  0.3171 -1.4816  0.5778
  511MOL0     C70408   4.781   6.845   5.760  0.4088 -0.5026 -0.4662
  511MOL0     C70409   4.707   7.039   5.602 -0.1874  0.0959  0.2048
  511MOL0     C70410   4.577   6.983   5.568  1.0607 -0.5210  0.5659
  511MOL0     O70411   4.494   7.070   5.496  0.0915  0.5379 -0.1679
  511MOL0     C70412   4.370   7.033   5.448 -0.4558 -0.0534 -1.1210
  511MOL0     C70413   4.253   7.107   5.480  0.5836  0.7584 -0.6259
  511MOL0     C70414   4.131   7.064   5.431  0.3078  0.8078 -0.9745
  511MOL0     C70415   4.126   6.962   5.329  0.5785  0.5486 -0.3908
  511MOL0     O70416   4.012   6.903   5.271 -0.0051  0.0640 -0.5534
  511MOL0     C70417   3.887   6.947   5.311  1.0145 -0.0058  0.8737
  511MOL0     C70418   3.816   6.825   5.375 -0.0529 -0.6220 -0.6572
  511MOL0     C70419   3.801   6.705   5.286  0.0668  0.8690  0.6725
  511MOL0     C70420   3.667   6.727   5.212  0.4951 -0.1976 -0.5580
  511MOL0     C70421   3.627   6.602   5.132 -0.2368  0.6034 -0.0999
  511MOL0     C70422   3.564   6.487   5.220  0.6637  0.1036  0.7062
  511MOL0     C70423   3.468   6.390   5.140 -0.7980 -0.5000  0.4613
  511MOL0     C70424   3.531   6.323   5.015 -1.1608  0.0305  0.0220
  511MOL0    Cl70425   3.665   6.223   5.082  0.3423 -0.7925 -0.0263
  511MOL0     C70426   4.239   6.893   5.295 -0.8548  0.5971 -1.2918
  511MOL0     C70427   4.364   6.932   5.351  0.0665 -0.4179  0.2000
  511MOL0     O70428   4.545   6.868   5.596  0.3749  0.0781  1.1103
  511MOL0     C70429   4.753   7.154   5.538  0.6411  0.8034  0.3036
  511MOL0     C70430   4.884   7.196   5.547 -0.3215  0.2157  0.8826
  511MOL0     N70431   5.125   7.759   6.034 -0.8598 -0.8496  0.5554
  511MOL0     N70432   5.137   7.876   5.956 -0.2789 -0.0322  0.0682
  511MOL0     C70433   5.067   7.561   5.226 -0.5849  0.5113  0.7320
  511MOL0     C70434   4.965   7.469   5.222  0.4317  1.0129 -0.3912
  511MOL0     C70435   4.890   7.027   5.178  0.5036 -0.9142 -0.8681
  511MOL0     C70436   4.914   6.943   5.292  0.6998  0.3546 -0.1839
  511MOL0     C70437   4.824   6.837   5.316 -1.1737 -0.7183 -0.1659
  511MOL0     C70438   4.727   6.802   5.219  0.2010 -0.4715  0.3920
  511MOL0     O70439   4.644   6.698   5.218  0.0518  0.1870  0.5518
  511MOL0     C70440   4.657   6.614   5.335  0.1783 -0.0740  0.5300
  511MOL0     C70441   4.516   6.545   5.350 -0.7133  0.4102 -0.7740
  511MOL0     C70442   4.472   6.481   5.220  0.2903  0.0411  0.9531
  511MOL0     C70443   4.329   6.398   5.234 -0.8499  0.0391  0.4888
  511MOL0     C70444   4.343   6.284   5.145 -0.4639 -0.1345 -0.5993
  511MOL0     C70445   4.372   6.189   5.071 -0.5466  0.5668  0.0130
  511MOL0     C70446   4.703   6.882   5.106 -1.0483  0.3046 -0.0063
  511MOL0     C70447   4.775   7.003   5.094  0.6030  0.0252 -0.3520
  511MOL0     C70448   4.749   7.081   4.975  0.8160 -0.2998 -0.8392
  511MOL0     H70449   5.008   7.324   4.931  1.3960 -1.4027  1.7819
  511MOL0     H70450   5.170   7.514   4.907  1.4040 -1.3306  1.2525
  511MOL0     H70451   5.390   7.628   4.977  0.6457 -1.8639 -0.1416
  511MOL0     H70452   5.407   7.544   5.126 -1.1933  0.0924  2.9419
  511MOL0     H70453   5.577   7.709   5.104  1.0277  1.3466  1.7176
  511MOL0     H70454   5.456   7.839   5.101  0.0489 -0.2186 -2.0135
  511MOL0     H70455   5.422   7.671   5.339 -1.2968 -1.2429 -1.9722
  511MOL0     H70456   5.596   7.706   5.311  1.2141 -1.4980 -5.0783
  511MOL0     H70457   5.539   7.949   5.291  1.9316 -2.5462 -0.6602
  511MOL0     H70458   5.377   7.921   5.332  0.2195 -0.1983 -0.3261
  511MOL0     H70459   5.489   8.001   5.519 -2.9443  0.8941 -0.5687
  511MOL0     H70460   5.578   7.834   5.521 -1.1716 -1.0425  0.7911
  511MOL0     H70461   5.312   7.771   5.527  1.9234  2.3195 -3.2546
  511MOL0     H70462   5.402   7.799   5.679  0.3810 -3.8957 -2.0567
  511MOL0     H70463   5.259   8.018   5.530  0.7083  1.2882  0.2626
  511MOL0     H70464   5.345   8.030   5.677 -1.6704  1.2161  0.5780
  511MOL0     H70465   5.107   8.025   5.747  1.5682  1.6626 -1.7501
  511MOL0     H70466   5.086   7.883   5.645  1.6269 -3.3370  1.0126
  511MOL0     H70467   5.189   7.644   5.727  1.8355  0.9245 -0.0959
  511MOL0     H70468   5.067   7.504   6.064  0.7251  0.4153  0.1463
  511MOL0     H70469   5.241   7.483   6.008  0.1654  2.3459 -2.1128
  511MOL0     H70470   4.998   7.426   5.819  0.2960 -2.2991 -1.3736
  511MOL0     H70471   5.159   7.432   5.769 -1.2401  0.3641 -1.3021
  511MOL0     H70472   5.171   7.247   5.982 -1.3547 -0.1107  0.2577
  511MOL0     H70473   5.005   7.242   5.911  0.0744  0.9167  1.2829
  511MOL0     H70474   5.273   7.209   5.761 -0.8405  0.1117 -1.9236
  511MOL0     H70475   5.186   7.076   5.809  0.5528  0.0131  1.0520
  511MOL0     H70476   4.997   6.984   5.774 -0.5249  0.1236  0.8426
  511MOL0     H70477   4.736   6.764   5.702  2.4425 -1.3328 -0.9623
  511MOL0     H70478   4.712   6.882   5.836  1.7600  1.7142 -0.2238
  511MOL0     H70479   4.874   6.800   5.794 -0.0810  0.4173  2.3567
  511MOL0     H70480   4.267   7.187   5.552  1.6418 -1.7524  2.1410
  511MOL0     H70481   4.036   7.106   5.463 -0.3555 -1.8549  0.8809
  511MOL0     H70482   3.880   7.035   5.375 -2.1890  0.6329 -0.1559
  511MOL0     H70483   3.819   6.978   5.231 -0.0543 -1.5095  1.1313
  511MOL0     H70484   3.864   6.801   5.470  1.7914 -3.4268 -2.1879
  511MOL0     H70485   3.723   6.870   5.412 -2.0556 -4.4053 -0.6165
  511MOL0     H70486   3.797   6.610   5.341  0.2984 -1.9003 -3.6079
  511MOL0     H70487   3.885   6.692   5.217  1.1876  2.1641  1.7366
  511MOL0     H70488   3.669   6.820   5.155  0.3991 -1.4616 -2.7273
  511MOL0     H70489   3.595   6.730   5.295 -2.0907  2.5943 -2.6871
  511MOL0     H70490   3.557   6.625   5.051  0.6439  1.5514 -0.6173
  511MOL0     H70491   3.716   6.578   5.072  1.1932  1.4174  1.5966
  511MOL0     H70492   3.502   6.527   5.301 -0.4414  1.8054 -0.8833
  511MOL0     H70493   3.641   6.431   5.273  1.3965 -0.1510 -0.5822
  511MOL0     H70494   3.376   6.441   5.113 -0.9435 -1.7245 -1.5543
  511MOL0     H70495   3.441   6.315   5.215 -0.4729 -1.6977 -0.5610
  511MOL0     H70496   3.575   6.402   4.953  0.5369  1.0175  2.3345
  511MOL0     H70497   3.453   6.261   4.970 -1.4874  0.0614  0.5356
  511MOL0     H70498   4.235   6.812   5.223 -1.6336  1.7131 -2.5574
  511MOL0     H70499   4.461   6.885   5.334  1.1336  0.9801  2.0275
  511MOL0     H70500   4.693   7.192   5.456  0.8602 -3.0490 -1.8362
  511MOL0     H70501   4.916   7.278   5.483  0.0388 -0.9244 -0.4363
  511MOL0     H70502   5.097   7.608   5.320  2.2015  0.1905  0.0638
  511MOL0     H70503   4.922   7.449   5.320 -0.6869 -0.4180 -1.1231
  511MOL0     H70504   4.985   6.982   5.363  0.9317  3.2415 -1.8182
  511MOL0     H70505   4.841   6.771   5.401 -1.1717 -0.4935  0.0084
  511MOL0     H70506   4.737   6.540   5.334 -1.7876 -2.4988  3.3466
  511MOL0     H70507   4.678   6.677   5.422  0.0436  0.4746  0.1744
  511MOL0     H70508   4.445   6.620   5.385  0.3649  2.1397 -2.0752
  511MOL0     H70509   4.539   6.470   5.426  2.1972 -1.1577 -2.9970
  511MOL0     H70510   4.439   6.557   5.148 -0.4887 -1.4405 -0.2986
  511MOL0     H70511   4.553   6.413   5.196 -0.7437 -1.2941  1.1415
  511MOL0     H70512   4.244   6.464   5.213  0.6375  1.5330 -1.0948
  511MOL0     H70513   4.313   6.364   5.337  0.6388 -1.8150  0.1590
  511MOL0     H70514   4.405   6.102   5.018 -0.4763 -1.1718  2.7172
  511MOL0     H70515   4.628   6.848   5.035 -1.9170 -0.6720  1.3303
  511MOL0     H70516   4.672   7.034   4.913 -2.3937  2.8287  0.4635
  511MOL0     H70517   4.698   7.166   5.019 -0.4820 -2.3331  1.9186
  511MOL0     H70518   4.832   7.119   4.915  1.3208  1.3491  0.7987
  512MOL0     O70519   4.455  10.916   2.230  0.1437  0.3611  0.7726
  512MOL0     C70520   4.411  10.812   2.167  1.0631 -0.8317  0.1382
  512MOL0     O70521   4.472  10.687   2.169  0.4011 -0.2470  0.6900
  512MOL0     C70522   4.608  10.681   2.178  0.4809 -0.9426  0.4690
  512MOL0     C70523   4.681  10.599   2.094  0.1016  0.1703 -0.6828
  512MOL0     C70524   4.818  10.582   2.109  1.1504 -0.2407 -0.4293
  512MOL0     C70525   4.880  10.652   2.215  0.0158  0.3848 -0.4663
  512MOL0     O70526   5.014  10.621   2.247 -0.0680  0.2136 -0.2186
  512MOL0     C70527   5.059  10.616   2.384  0.4246 -0.1575 -0.7239
  512MOL0     C70528   5.179  10.531   2.404  0.0074 -0.9139  0.4540
  512MOL0     C70529   5.223  10.473   2.272 -0.2757 -0.2413 -0.2996
  512MOL0     C70530   5.368  10.422   2.312 -0.2865  0.0844  0.5742
  512MOL0     C70531   5.446  10.422   2.186 -0.2405  0.3521  0.0015
  512MOL0     C70532   5.579  10.349   2.196  0.0309  0.7063  1.1411
  512MOL0     C70533   5.653  10.370   2.054  0.1805 -0.1194  0.2480
  512MOL0     C70534   5.649  10.232   1.978  1.3314  0.0570  0.8170
  512MOL0     N70535   5.696  10.230   1.834  0.2652 -0.1453 -0.0667
  512MOL0     C70536   5.801  10.295   1.775  0.6075 -0.1619 -0.4102
  512MOL0     C70537   5.798  10.241   1.648 -0.2955 -0.2537 -0.8600
  512MOL0     C70538   5.907  10.257   1.554 -0.3092  0.3727  0.0581
  512MOL0     C70539   6.008  10.139   1.552  0.8642 -0.5605  0.2349
  512MOL0     C70540   6.096  10.149   1.677 -0.0643  0.8208 -0.0222
  512MOL0     C70541   6.208  10.038   1.681 -0.7205  0.5465 -0.2520
  512MOL0     O70542   6.280  10.017   1.559  0.3628  0.6904  0.0472
  512MOL0     C70543   6.287   9.889   1.514 -0.3669 -0.3310 -0.2782
  512MOL0     C70544   6.306   9.856   1.384  0.5194 -0.3377  0.4243
  512MOL0     C70545   6.308   9.729   1.327  0.4037  0.0080 -1.2537
  512MOL0     C70546   6.300   9.714   1.181  1.0993 -0.2787  0.2579
  512MOL0     C70547   6.296   9.619   1.417  0.1007 -0.5309 -0.0648
  512MOL0     C70548   6.303   9.487   1.381 -0.6115  1.2810  0.5083
  512MOL0     O70549   6.231   9.394   1.464  0.0634 -0.0317 -1.1840
  512MOL0     C70550   6.186   9.274   1.411 -0.9947  0.0549  0.1279
  512MOL0     C70551   6.105   9.265   1.298 -0.4510 -0.0255  0.6027
  512MOL0     C70552   6.074   9.144   1.242 -0.3583  0.0656  0.3994
  512MOL0     C70553   6.138   9.024   1.294  0.2031 -0.0071 -0.1023
  512MOL0     O70554   6.105   8.896   1.260  1.3293 -0.4757 -0.0593
  512MOL0     C70555   6.024   8.876   1.135 -0.3755 -0.7037 -0.0846
  512MOL0     C70556   5.882   8.897   1.182  0.4414  0.3455  0.5343
  512MOL0     C70557   5.772   8.831   1.087 -0.3337 -1.5073  0.6437
  512MOL0     C70558   5.793   8.682   1.085  0.1899  0.7700  1.1073
  512MOL0     C70559   5.662   8.613   1.051 -0.2796 -1.4673  0.2300
  512MOL0     C70560   5.546   8.636   1.141  0.6178 -0.3016 -0.6678
  512MOL0     C70561   5.454   8.506   1.142 -0.1353 -1.2640 -0.5000
  512MOL0     C70562   5.398   8.476   1.000 -0.3851  0.7808 -0.4766
  512MOL0    Cl70563   5.291   8.338   0.997  0.1705 -0.2845 -0.4156
  512MOL0     C70564   6.228   9.039   1.402  0.0707 -1.1823 -0.0954
  512MOL0     C70565   6.243   9.157   1.469  0.1995 -0.5111  0.0295
  512MOL0     O70566   6.373   9.455   1.283 -0.6828  0.1231 -0.3648
  512MOL0     C70567   6.272   9.651   1.555  0.6629  0.7921  0.6115
  512MOL0     C70568   6.272   9.775   1.598 -0.0215 -0.8110  0.8946
  512MOL0     N70569   5.698  10.148   1.638 -0.0741  0.1870  0.9009
  512MOL0     N70570   5.639  10.142   1.740  1.0280 -0.9989 -0.1791
  512MOL0     C70571   4.804  10.728   2.304 -0.1608  0.2040 -0.0658
  512MOL0     C70572   4.673  10.743   2.278  0.8783  0.0035 -0.4122
  512MOL0     C70573   4.276  10.836   2.106 -0.2660  0.3320 -0.0148
  512MOL0     C70574   4.190  10.730   2.124 -0.4893  0.5858  0.1150
  512MOL0     C70575   4.068  10.740   2.053 -0.9689 -0.6230 -0.0601
  512MOL0     C70576   4.027  10.852   1.973 -0.3027 -1.3156 -0.4480
  512MOL0     O70577   3.910  10.859   1.911  0.6936 -1.1037  0.2465
  512MOL0     C70578   3.794  10.816   1.986 -0.3431 -0.2395 -0.1282
  512MOL0     C70579   3.663  10.903   1.944  0.7274 -0.5610 -0.2043
  512MOL0     C70580   3.658  11.059   1.935  0.7718  0.0320  0.8826
  512MOL0     C70581   3.729  11.122   2.046 -0.1115 -0.7676 -1.2465
  512MOL0     C70582   3.658  11.118   2.171  0.0515  1.1380 -0.8102
  512MOL0     C70583   3.587  11.108   2.278  0.4576  0.6175 -1.2729
  512MOL0     C70584   4.109  10.967   1.969 -0.5579  1.2086  0.3137
  512MOL0     C70585   4.233  10.957   2.028  0.4539  0.2178 -1.0900
  512MOL0     C70586   4.333  11.066   2.008 -0.0530 -0.1596  0.1001
  512MOL0     H70587   4.626  10.544   2.017  1.9397 -1.6507 -0.7867
  512MOL0     H70588   4.871  10.514   2.043 -0.7175 -0.0379 -2.2329
  512MOL0     H70589   4.989  10.576   2.459  0.4832  1.5292  0.2718
  512MOL0     H70590   5.082  10.719   2.411 -4.2012  1.0880 -0.6048
  512MOL0     H70591   5.250  10.597   2.456  1.0961 -3.2043  2.0237
  512MOL0     H70592   5.165  10.441   2.465 -1.2747 -0.9620  0.1057
  512MOL0     H70593   5.150  10.401   2.233 -0.0705  0.9697 -3.2242
  512MOL0     H70594   5.235  10.558   2.205  0.3026  0.1797  0.3296
  512MOL0     H70595   5.413  10.492   2.383  0.8779 -1.6324  1.6061
  512MOL0     H70596   5.357  10.322   2.355  0.7005 -1.1935 -1.9386
  512MOL0     H70597   5.476  10.527   2.173  2.1062  0.0260  1.9333
  512MOL0     H70598   5.390  10.382   2.102  1.6973  0.1373 -1.2302
  512MOL0     H70599   5.635  10.394   2.279 -0.9601  2.3290  0.9574
  512MOL0     H70600   5.554  10.245   2.221  2.3499 -1.4612 -3.9394
  512MOL0     H70601   5.757  10.405   2.065  0.5439 -1.1036  0.0525
  512MOL0     H70602   5.597  10.439   1.991 -1.5335  0.8120  2.6433
  512MOL0     H70603   5.714  10.173   2.043  2.1485  1.1428  1.0046
  512MOL0     H70604   5.548  10.190   1.970  0.8534  1.1959  0.6934
  512MOL0     H70605   5.873  10.358   1.825  0.4512 -0.5101  0.2741
  512MOL0     H70606   5.961  10.348   1.582  0.6176 -0.0856 -0.1809
  512MOL0     H70607   5.866  10.266   1.453 -0.4420  1.9516  0.2227
  512MOL0     H70608   5.957  10.043   1.538  2.8212 -1.2033 -4.2707
  512MOL0     H70609   6.070  10.154   1.464 -3.4682 -0.1952 -3.1194
  512MOL0     H70610   6.146  10.246   1.678  1.7424  0.0066  3.3580
  512MOL0     H70611   6.036  10.145   1.768 -0.4701 -1.3591 -0.3209
  512MOL0     H70612   6.283  10.050   1.760  0.8974 -3.2971 -0.9745
  512MOL0     H70613   6.156   9.946   1.711  1.1189 -0.2226  0.7539
  512MOL0     H70614   6.290   9.940   1.318 -0.3975 -2.3718 -2.1364
  512MOL0     H70615   6.324   9.807   1.129  2.9096 -2.2523 -2.7812
  512MOL0     H70616   6.197   9.680   1.168  1.5576 -1.7344  0.2327
  512MOL0     H70617   6.361   9.636   1.133  1.7234  0.9256 -0.9549
  512MOL0     H70618   6.054   9.353   1.260  0.3545  1.2559  2.3641
  512MOL0     H70619   6.014   9.146   1.151  0.1477 -1.2723  0.0057
  512MOL0     H70620   6.034   8.944   1.051 -1.9505 -0.4494 -0.0815
  512MOL0     H70621   6.049   8.773   1.106  1.8509 -0.5588  1.1087
  512MOL0     H70622   5.871   8.858   1.283  3.5091 -1.2779  0.3725
  512MOL0     H70623   5.856   9.003   1.188 -1.1509  0.0019  0.2595
  512MOL0     H70624   5.774   8.868   0.984 -1.3833  0.7795  1.3782
  512MOL0     H70625   5.679   8.876   1.124  0.1923 -0.2060  0.4333
  512MOL0     H70626   5.820   8.644   1.183  1.7013  0.6022  0.6605
  512MOL0     H70627   5.867   8.668   1.005 -2.8525 -0.1070 -1.7960
  512MOL0     H70628   5.634   8.642   0.949  4.3378  1.0719 -0.5925
  512MOL0     H70629   5.689   8.507   1.040 -2.1578 -1.8905 -0.7276
  512MOL0     H70630   5.492   8.727   1.111 -1.6502 -1.2505  0.2803
  512MOL0     H70631   5.577   8.659   1.243  1.0266  1.6956 -1.1915
  512MOL0     H70632   5.374   8.510   1.217 -0.3369  2.0488 -0.7459
  512MOL0     H70633   5.529   8.433   1.173  0.9673 -1.0221 -2.4535
  512MOL0     H70634   5.469   8.462   0.917  0.2476  2.5611 -0.2885
  512MOL0     H70635   5.342   8.567   0.978 -1.0355  1.1360  2.3031
  512MOL0     H70636   6.278   8.945   1.423 -2.5133 -2.2042  2.0602
  512MOL0     H70637   6.312   9.178   1.550 -0.8867  0.4108  0.7485
  512MOL0     H70638   6.248   9.577   1.631 -4.2941 -1.9596 -3.0284
  512MOL0     H70639   6.266   9.797   1.704 -3.8352  1.8338  0.3263
  512MOL0     H70640   4.843  10.777   2.393  2.0861  3.4663 -2.6306
  512MOL0     H70641   4.617  10.794   2.356  0.3903  1.3988 -1.6301
  512MOL0     H70642   4.213  10.638   2.178  0.4116  1.1551  0.7225
  512MOL0     H70643   4.003  10.653   2.045 -1.3816 -0.1829 -2.0587
  512MOL0     H70644   3.778  10.709   1.973  0.9491 -0.5640  0.7304
  512MOL0     H70645   3.801  10.838   2.093 -1.4757 -1.3854  0.2093
  512MOL0     H70646   3.578  10.862   1.998  1.5318  1.3712  2.7652
  512MOL0     H70647   3.655  10.866   1.841  1.8469 -2.3730  0.3132
  512MOL0     H70648   3.696  11.079   1.834 -1.9440 -3.4353 -1.0745
  512MOL0     H70649   3.552  11.086   1.932  0.3412 -1.4087  1.8805
  512MOL0     H70650   3.743  11.226   2.016  2.4391 -0.3886  0.9011
  512MOL0     H70651   3.828  11.078   2.058 -1.2769 -3.7365 -1.5607
  512MOL0     H70652   3.524  11.104   2.365 -0.5405  1.2906 -1.9391
  512MOL0     H70653   4.080  11.049   1.903  1.2228  0.7938 -1.0862
  512MOL0     H70654   4.350  11.118   2.103 -0.1077 -2.6622  1.5780
  512MOL0     H70655   4.432  11.019   2.004 -0.2937 -1.1724  3.2536
  512MOL0     H70656   4.307  11.128   1.922 -0.8447  0.3252  0.6791
  513MOL0     O70657   1.444   6.236   8.103  0.0419 -0.3746  0.1666
  513MOL0     C70658   1.369   6.143   8.092  0.1412 -0.2159  0.2207
  513MOL0     O70659   1.386   6.016   8.053 -0.2148 -0.4935 -0.4151
  513MOL0     C70660   1.509   5.978   8.020  0.7265 -0.7246  0.2861
  513MOL0     C70661   1.539   5.981   7.884  1.2547  0.2049 -0.3092
  513MOL0     C70662   1.662   5.930   7.840 -0.3824  0.1742  1.1013
  513MOL0     C70663   1.754   5.865   7.930 -0.0244  0.2681  0.5190
  513MOL0     O70664   1.869   5.790   7.884  0.3877 -0.1125 -0.3417
  513MOL0     C70665   1.949   5.705   7.966  0.0291  0.1853 -0.1519
  513MOL0     C70666   2.033   5.804   8.058 -0.8011  0.1136 -0.5563
  513MOL0     C70667   2.181   5.804   8.006  0.2693 -0.8799 -0.4689
  513MOL0     C70668   2.189   5.891   7.873  0.3642 -0.0709 -0.6457
  513MOL0     C70669   2.313   5.971   7.846 -0.2571  0.0207  0.3214
  513MOL0     C70670   2.434   5.874   7.817 -0.4053  0.3054 -0.1907
  513MOL0     C70671   2.433   5.809   7.679 -0.2399 -0.1023  0.0166
  513MOL0     C70672   2.566   5.811   7.604 -0.2940  0.9417 -0.4978
  513MOL0     N70673   2.601   5.947   7.556  0.2179  0.9015 -0.4186
  513MOL0     C70674   2.636   6.068   7.622 -0.8838  0.1289 -0.2686
  513MOL0     C70675   2.639   6.161   7.527  0.9023 -0.8782  0.6675
  513MOL0     C70676   2.663   6.318   7.545 -0.0718 -0.2668 -0.6552
  513MOL0     C70677   2.530   6.413   7.531  0.3857  0.6540  0.6892
  513MOL0     C70678   2.448   6.413   7.659  0.4404 -0.1632  1.6183
  513MOL0     C70679   2.517   6.419   7.795  0.6490 -0.7492  0.2668
  513MOL0     O70680   2.574   6.293   7.842 -0.6354  0.2802  0.5090
  513MOL0     C70681   2.597   6.272   7.978  0.4432  0.1752  0.3371
  513MOL0     C70682   2.667   6.159   8.014  0.4869 -1.0441 -0.0530
  513MOL0     C70683   2.696   6.126   8.145 -0.0224 -0.8277  0.3994
  513MOL0     C70684   2.759   5.999   8.166  0.2935  0.3577  0.1932
  513MOL0     C70685   2.658   6.217   8.249  0.2590 -0.7418 -0.4057
  513MOL0     C70686   2.692   6.195   8.395  0.0122  1.2648  0.1692
  513MOL0     O70687   2.679   6.073   8.457 -0.6785 -0.3593 -0.6804
  513MOL0     C70688   2.738   6.043   8.583  0.0392  0.1739  0.3930
  513MOL0     C70689   2.856   5.968   8.585 -0.0649  0.2103 -0.3081
  513MOL0     C70690   2.921   5.953   8.708 -0.8892  0.3813 -0.3323
  513MOL0     C70691   2.864   5.997   8.835  1.1619  0.9593 -0.6598
  513MOL0     O70692   2.921   5.959   8.954 -0.1477 -0.5289 -0.2476
  513MOL0     C70693   2.868   6.007   9.084  0.6642 -0.2502 -0.0305
  513MOL0     C70694   2.975   5.994   9.196 -0.1379 -1.0403 -0.7106
  513MOL0     C70695   2.951   6.060   9.324 -0.1681  0.3236 -0.3052
  513MOL0     C70696   2.907   5.952   9.434  0.3857 -0.4494 -0.2877
  513MOL0     C70697   3.031   5.905   9.520 -0.4427 -0.6272  0.5006
  513MOL0     C70698   2.973   5.810   9.630 -0.2524  0.6198 -0.0670
  513MOL0     C70699   3.091   5.762   9.719 -0.6858 -0.2854  0.4170
  513MOL0     C70700   3.071   5.815   9.859  0.5280 -0.1657  0.6246
  513MOL0    Cl70701   3.198   5.770   9.978  0.2879 -0.2080  0.5022
  513MOL0     C70702   2.743   6.058   8.829  0.1065 -0.4204 -1.8415
  513MOL0     C70703   2.679   6.073   8.707 -0.8817 -0.4528  0.9569
  513MOL0     O70704   2.728   6.298   8.452  0.3782  0.6867  0.5676
  513MOL0     C70705   2.587   6.332   8.206 -0.5481  0.3133 -0.3504
  513MOL0     C70706   2.562   6.359   8.073  0.4274 -0.1495  0.1135
  513MOL0     N70707   2.606   6.103   7.405  0.0373 -0.0810 -0.8478
  513MOL0     N70708   2.588   5.975   7.429 -0.6888 -0.5008  0.6308
  513MOL0     C70709   1.722   5.867   8.066  0.1525  0.7383 -0.4928
  513MOL0     C70710   1.597   5.925   8.115  0.5333 -0.1024  0.5503
  513MOL0     C70711   1.234   6.184   8.117  1.0107  1.0433  0.9389
  513MOL0     C70712   1.132   6.120   8.050 -0.4755 -0.2714 -0.2564
  513MOL0     C70713   0.991   6.162   8.064  0.2494  0.4409  0.1617
  513MOL0     C70714   0.955   6.247   8.163 -0.3950 -0.2625 -0.0213
  513MOL0     O70715   0.824   6.272   8.175  0.2657 -0.1107  0.0906
  513MOL0     C70716   0.768   6.314   8.290  0.1870 -0.7371 -0.2623
  513MOL0     C70717   0.632   6.245   8.289  0.4549  0.2552  0.9392
  513MOL0     C70718   0.546   6.242   8.416  0.3167 -0.7360  0.1510
  513MOL0     C70719   0.483   6.106   8.430  0.7983  0.4404 -0.4172
  513MOL0     C70720   0.384   6.086   8.319 -0.3541 -0.2912  0.9347
  513MOL0     C70721   0.306   6.079   8.224 -0.5703  0.0326  0.6434
  513MOL0     C70722   1.059   6.302   8.249 -0.5763  0.3306  0.0042
  513MOL0     C70723   1.194   6.277   8.218  0.0295  0.8501  0.1324
  513MOL0     C70724   1.291   6.353   8.288  0.0589 -1.2441 -0.0550
  513MOL0     H70725   1.470   6.005   7.803  0.5949 -0.2204  0.1169
  513MOL0     H70726   1.689   5.903   7.739 -0.3927 -1.3912  1.4837
  513MOL0     H70727   2.015   5.650   7.898  0.8543 -0.0432  0.8066
  513MOL0     H70728   1.889   5.634   8.024  2.3659 -0.5142  1.5640
  513MOL0     H70729   1.983   5.900   8.041 -1.2777  0.5641  2.7679
  513MOL0     H70730   2.031   5.783   8.165 -2.7506 -1.6979 -0.8680
  513MOL0     H70731   2.236   5.848   8.090  0.5792 -0.0355 -1.0908
  513MOL0     H70732   2.217   5.705   7.977  4.2988  0.1321  0.3563
  513MOL0     H70733   2.182   5.829   7.783 -1.1974  2.1897 -2.1711
  513MOL0     H70734   2.108   5.964   7.880  1.8590  1.4940  1.5854
  513MOL0     H70735   2.335   6.029   7.936 -0.9488 -0.5397  0.8738
  513MOL0     H70736   2.300   6.042   7.764  3.4858  1.9459  1.1945
  513MOL0     H70737   2.519   5.943   7.824 -0.6903  0.4920  2.6609
  513MOL0     H70738   2.454   5.793   7.887  1.6493  1.3437  0.5044
  513MOL0     H70739   2.352   5.856   7.623 -1.4557 -0.3915  1.4904
  513MOL0     H70740   2.414   5.702   7.686 -0.2538 -0.3416 -2.5457
  513MOL0     H70741   2.651   5.783   7.667  0.4863  0.5375 -1.6910
  513MOL0     H70742   2.564   5.736   7.525 -2.0557 -0.9372  1.2362
  513MOL0     H70743   2.660   6.080   7.727 -2.7002 -2.8840  0.6251
  513MOL0     H70744   2.733   6.345   7.465  3.6438  0.0148  2.3806
  513MOL0     H70745   2.710   6.347   7.639 -0.7295 -0.8102 -0.1558
  513MOL0     H70746   2.589   6.503   7.511 -1.0521  1.5397  0.2623
  513MOL0     H70747   2.485   6.387   7.435  2.8740 -3.3843  0.4184
  513MOL0     H70748   2.388   6.504   7.665 -1.0174 -1.1466  2.4311
  513MOL0     H70749   2.388   6.323   7.650  2.3478 -1.3667  0.1894
  513MOL0     H70750   2.581   6.507   7.794 -3.2648  2.3496  0.0216
  513MOL0     H70751   2.436   6.442   7.865  0.9655 -0.5537  0.5745
  513MOL0     H70752   2.706   6.088   7.941  0.5009 -0.5673 -0.5158
  513MOL0     H70753   2.762   5.931   8.080  1.5080  0.8461 -0.1680
  513MOL0     H70754   2.710   5.931   8.237  0.8042 -0.5915 -0.3394
  513MOL0     H70755   2.863   6.007   8.198  0.2481 -1.4754  0.9381
  513MOL0     H70756   2.893   5.931   8.489 -2.4393 -2.0746 -0.4634
  513MOL0     H70757   3.013   5.896   8.709 -1.7167 -0.9700  1.2862
  513MOL0     H70758   2.836   6.111   9.083  3.7534  0.7916  0.0350
  513MOL0     H70759   2.786   5.943   9.118  0.5034 -0.0947 -0.1258
  513MOL0     H70760   3.007   5.890   9.205  2.8262 -0.2638 -1.3184
  513MOL0     H70761   3.069   6.037   9.161  0.1730 -2.1360 -1.2838
  513MOL0     H70762   2.875   6.139   9.328 -0.6467 -0.1333 -0.2719
  513MOL0     H70763   3.047   6.102   9.353 -0.3527 -0.4281  1.5003
  513MOL0     H70764   2.852   5.873   9.382 -2.0339  1.4062 -0.7742
  513MOL0     H70765   2.842   6.008   9.503 -1.1465 -1.5493 -0.7848
  513MOL0     H70766   3.085   5.844   9.447 -1.5372  1.1334 -1.9291
  513MOL0     H70767   3.089   5.995   9.544  2.1925 -2.1767  0.2685
  513MOL0     H70768   2.932   5.719   9.587  0.0696  0.1827  0.5421
  513MOL0     H70769   2.894   5.870   9.676  0.0947  1.5721 -0.6729
  513MOL0     H70770   3.182   5.803   9.674 -3.4543  1.4582 -4.2793
  513MOL0     H70771   3.109   5.655   9.726  0.8125  0.0371  2.5435
  513MOL0     H70772   2.976   5.776   9.898  0.4268  0.7898  1.3826
  513MOL0     H70773   3.046   5.921   9.866  0.1942 -0.3653  3.6372
  513MOL0     H70774   2.686   6.087   8.917  3.1520 -1.1465  0.5234
  513MOL0     H70775   2.577   6.110   8.704 -0.9387 -0.6497 -0.2383
  513MOL0     H70776   2.568   6.412   8.276  3.2886  0.9254  0.2277
  513MOL0     H70777   2.525   6.461   8.070  3.2806  1.1106  2.5808
  513MOL0     H70778   1.788   5.817   8.137  1.1430  0.2762 -1.7137
  513MOL0     H70779   1.582   5.924   8.222 -0.9995 -1.7373  0.3569
  513MOL0     H70780   1.161   6.043   7.979 -2.1114 -1.3364  0.1772
  513MOL0     H70781   0.916   6.115   8.001 -1.2002  0.8362  1.5371
  513MOL0     H70782   0.822   6.289   8.382 -1.9456 -0.0901  1.2553
  513MOL0     H70783   0.767   6.424   8.295  0.0645 -0.7502  0.0698
  513MOL0     H70784   0.645   6.147   8.241  3.8202  0.2997  1.4969
  513MOL0     H70785   0.570   6.296   8.214  0.5965 -1.5030 -0.4360
  513MOL0     H70786   0.615   6.248   8.500  2.0717 -0.3864 -1.2640
  513MOL0     H70787   0.469   6.320   8.415 -0.2735 -1.1018  4.0079
  513MOL0     H70788   0.411   6.103   8.512 -0.1821  3.8284 -1.0137
  513MOL0     H70789   0.557   6.025   8.421  0.1977  0.1034 -3.3172
  513MOL0     H70790   0.229   6.066   8.150 -1.1589 -1.9457  1.5311
  513MOL0     H70791   1.036   6.376   8.325  2.6676  2.1511 -0.5854
  513MOL0     H70792   1.341   6.421   8.219 -2.7161 -0.1189 -1.1010
  513MOL0     H70793   1.245   6.418   8.364  0.0424 -2.9268  1.4453
  513MOL0     H70794   1.364   6.284   8.331  1.8960  0.0113 -1.0616
  514MOL0     O70795   3.310   6.170   7.435  0.2974 -1.3897  0.4913
  514MOL0     C70796   3.299   6.263   7.359  1.3209 -0.9197 -1.1339
  514MOL0     O70797   3.391   6.352   7.327 -0.0597  1.0039 -0.0905
  514MOL0     C70798   3.513   6.354   7.396 -0.5584  0.3488  0.2326
  514MOL0     C70799   3.541   6.311   7.530  0.3446 -0.1749  0.6012
  514MOL0     C70800   3.668   6.320   7.581 -1.1438  0.0003 -0.9496
  514MOL0     C70801   3.778   6.352   7.500  0.9526  0.2527 -0.3361
  514MOL0     O70802   3.907   6.336   7.551  0.2287  0.0490 -0.1583
  514MOL0     C70803   3.984   6.454   7.527  0.7207  0.6330  0.4467
  514MOL0     C70804   4.124   6.441   7.591 -0.5788  0.4634 -0.3387
  514MOL0     C70805   4.215   6.347   7.498 -0.0801  0.2152  0.3847
  514MOL0     C70806   4.356   6.366   7.535 -0.9511 -0.8281 -0.1170
  514MOL0     C70807   4.453   6.324   7.424 -0.1112  0.9428 -0.6285
  514MOL0     C70808   4.436   6.177   7.402  0.0223 -0.0368  0.5073
  514MOL0     C70809   4.518   6.125   7.271 -0.1792 -0.1736 -1.4801
  514MOL0     C70810   4.547   5.978   7.252 -0.1412 -0.8112  0.6020
  514MOL0     N70811   4.443   5.904   7.180  0.3163  0.0227  0.6891
  514MOL0     C70812   4.321   5.859   7.226  0.4801  0.6232  0.4397
  514MOL0     C70813   4.257   5.814   7.112  0.6157 -0.5264  0.3958
  514MOL0     C70814   4.115   5.760   7.107 -0.0807  0.2716  0.2275
  514MOL0     C70815   4.091   5.619   7.051 -0.6099 -1.1467  0.0898
  514MOL0     C70816   4.115   5.508   7.148  0.3407  0.0202 -0.0358
  514MOL0     C70817   4.145   5.369   7.093 -0.3883 -0.2471  0.6301
  514MOL0     O70818   4.046   5.342   7.002 -0.5581 -0.1841  0.4558
  514MOL0     C70819   4.042   5.214   6.939 -0.0934  0.2749 -0.5358
  514MOL0     C70820   4.096   5.098   6.988 -0.6053 -0.6095  0.4412
  514MOL0     C70821   4.097   4.976   6.922  0.0368 -0.6833  0.5842
  514MOL0     C70822   4.197   4.870   6.970 -0.3027 -0.9198 -0.5025
  514MOL0     C70823   4.019   4.966   6.803  0.5994  0.6203  0.7824
  514MOL0     C70824   4.005   4.834   6.736 -0.9808 -0.4950 -0.7255
  514MOL0     O70825   4.027   4.711   6.811 -0.5101  0.0555  0.2665
  514MOL0     C70826   3.989   4.591   6.757 -0.1328  0.6681 -0.4034
  514MOL0     C70827   4.070   4.477   6.786  0.3398 -0.2104 -0.2570
  514MOL0     C70828   4.049   4.360   6.713 -0.2390 -0.2349  0.0105
  514MOL0     C70829   3.950   4.339   6.622  0.0386  0.1677 -0.1469
  514MOL0     O70830   3.933   4.221   6.543 -1.2503 -0.3395 -0.6527
  514MOL0     C70831   3.984   4.095   6.602  0.6428 -0.6885 -0.4481
  514MOL0     C70832   4.103   4.043   6.534 -0.1986 -0.1171 -0.0635
  514MOL0     C70833   4.079   4.026   6.379 -0.2912  0.8970  0.1166
  514MOL0     C70834   4.069   3.865   6.362  0.0004  0.1695  0.4215
  514MOL0     C70835   4.125   3.809   6.231  0.2421 -0.1715 -0.5036
  514MOL0     C70836   4.165   3.919   6.126 -0.2956  0.0754  0.0403
  514MOL0     C70837   4.224   3.849   6.004 -0.1964 -0.9819 -0.1850
  514MOL0     C70838   4.124   3.776   5.922 -0.3458 -0.4502 -0.0123
  514MOL0    Cl70839   4.207   3.689   5.797  0.1670  0.0960  0.1402
  514MOL0     C70840   3.860   4.445   6.597  1.1075 -0.6350  0.4195
  514MOL0     C70841   3.882   4.571   6.663 -0.0843  0.5933 -0.5780
  514MOL0     O70842   3.977   4.842   6.620 -0.4185 -0.6594  0.2923
  514MOL0     C70843   3.943   5.080   6.747 -0.4167  0.1666 -0.9744
  514MOL0     C70844   3.969   5.205   6.816 -0.0753 -0.8143 -0.0326
  514MOL0     N70845   4.357   5.828   7.009  0.3709  0.2587  0.6313
  514MOL0     N70846   4.461   5.873   7.051  0.4853 -0.3434  0.2745
  514MOL0     C70847   3.744   6.413   7.378  0.1740  0.1522 -0.6116
  514MOL0     C70848   3.616   6.394   7.321 -0.6391 -0.4148 -0.0190
  514MOL0     C70849   3.160   6.309   7.316 -0.3719  0.3536  0.5965
  514MOL0     C70850   3.143   6.444   7.269 -0.0022  0.0690 -0.4577
  514MOL0     C70851   3.016   6.495   7.227  0.1605  1.3133  0.4448
  514MOL0     C70852   2.909   6.405   7.231  0.6633 -0.1896 -0.2918
  514MOL0     O70853   2.777   6.453   7.207  0.1626  0.1604  0.4392
  514MOL0     C70854   2.739   6.465   7.068 -0.7047 -0.0368 -0.8272
  514MOL0     C70855   2.648   6.343   7.042 -0.2118 -0.9569  0.5306
  514MOL0     C70856   2.535   6.351   7.143 -1.4853  0.3734  0.6471
  514MOL0     C70857   2.423   6.258   7.102 -0.8270  0.6633 -0.1580
  514MOL0     C70858   2.390   6.238   6.964  0.5279  0.3642  1.1861
  514MOL0     C70859   2.360   6.253   6.848  0.5786  0.7291  1.1956
  514MOL0     C70860   2.926   6.274   7.265  0.5724  1.2500 -0.4508
  514MOL0     C70861   3.051   6.221   7.305 -0.4424  1.3358 -0.4083
  514MOL0     C70862   3.054   6.067   7.342 -0.3113  0.9560 -0.1610
  514MOL0     H70863   3.458   6.284   7.595 -1.7617  2.2909 -0.8696
  514MOL0     H70864   3.686   6.282   7.681  1.8901  1.8726 -0.6474
  514MOL0     H70865   3.926   6.541   7.561 -2.0346 -1.9045  2.7780
  514MOL0     H70866   3.994   6.468   7.419  0.1679  2.5559  0.6017
  514MOL0     H70867   4.163   6.543   7.594  0.2269  0.1352  0.4278
  514MOL0     H70868   4.119   6.399   7.692  2.0934 -2.9453 -1.4384
  514MOL0     H70869   4.185   6.245   7.521  0.8833 -0.5737 -1.5853
  514MOL0     H70870   4.209   6.369   7.391  5.7692  1.7544  0.0352
  514MOL0     H70871   4.376   6.470   7.563  0.6716 -1.2818  0.4992
  514MOL0     H70872   4.367   6.305   7.625 -1.2804  0.3867  0.7834
  514MOL0     H70873   4.557   6.327   7.457  0.1503 -1.2301 -1.1085
  514MOL0     H70874   4.437   6.390   7.338  1.4137  0.9891 -0.9085
  514MOL0     H70875   4.475   6.124   7.490  0.9550  1.9780  1.3623
  514MOL0     H70876   4.333   6.151   7.374  0.2215  1.0484 -1.3746
  514MOL0     H70877   4.615   6.175   7.282 -1.8150  2.9687  0.2434
  514MOL0     H70878   4.478   6.169   7.180  2.4587  0.5151 -2.4120
  514MOL0     H70879   4.638   5.979   7.193 -0.8819 -2.2897 -0.6486
  514MOL0     H70880   4.560   5.928   7.349  0.0782 -2.4948 -0.2547
  514MOL0     H70881   4.284   5.878   7.326 -3.3496 -1.6206 -0.3771
  514MOL0     H70882   4.044   5.821   7.050 -0.9619 -0.6295  0.3461
  514MOL0     H70883   4.084   5.766   7.211  1.0695  0.6680  0.5582
  514MOL0     H70884   3.993   5.613   7.002  0.5627 -1.4853 -2.3576
  514MOL0     H70885   4.167   5.598   6.975 -0.5591 -3.8655  0.7882
  514MOL0     H70886   4.193   5.541   7.218  3.8543  0.7432 -3.9272
  514MOL0     H70887   4.021   5.499   7.203  0.0448 -2.2322 -0.8247
  514MOL0     H70888   4.247   5.367   7.053  0.1129  1.2315  1.7029
  514MOL0     H70889   4.132   5.292   7.170 -1.1704 -1.1288 -0.3516
  514MOL0     H70890   4.147   5.097   7.084 -1.5269  0.1841  0.9571
  514MOL0     H70891   4.259   4.922   7.043 -1.7871  0.9951 -0.5072
  514MOL0     H70892   4.266   4.847   6.889  0.8530 -2.6274  0.9036
  514MOL0     H70893   4.141   4.782   7.002  1.1664 -0.5583  3.6910
  514MOL0     H70894   4.159   4.487   6.847  0.9330 -2.3519 -0.6979
  514MOL0     H70895   4.127   4.285   6.724  0.3184  0.4793  1.1731
  514MOL0     H70896   4.002   4.111   6.709  2.9383 -0.2074 -0.8525
  514MOL0     H70897   3.903   4.022   6.594 -2.1870  2.3705 -2.3938
  514MOL0     H70898   4.175   4.126   6.538 -0.6217  0.2342  2.3179
  514MOL0     H70899   4.144   3.956   6.587  1.8606 -0.1537 -1.5922
  514MOL0     H70900   4.173   4.064   6.337  0.5443  0.5095  1.5686
  514MOL0     H70901   3.994   4.076   6.332 -0.6114 -2.0254 -2.8079
  514MOL0     H70902   3.965   3.829   6.365  0.3856 -1.0843 -0.3752
  514MOL0     H70903   4.133   3.821   6.440  2.6781  2.6315 -0.2600
  514MOL0     H70904   4.191   3.723   6.246 -0.3699 -0.6369 -0.4057
  514MOL0     H70905   4.044   3.753   6.183  0.2899  0.0429 -0.8444
  514MOL0     H70906   4.247   3.976   6.171 -1.8980  2.3022  0.3015
  514MOL0     H70907   4.074   3.975   6.102 -1.1040 -0.9141  0.6593
  514MOL0     H70908   4.304   3.781   6.034 -0.0296 -1.0831 -0.8429
  514MOL0     H70909   4.268   3.923   5.936  0.9478 -3.0101 -1.7706
  514MOL0     H70910   4.054   3.847   5.875  1.5673  1.2801 -0.3991
  514MOL0     H70911   4.071   3.705   5.987  0.1263 -1.3628 -0.6029
  514MOL0     H70912   3.788   4.438   6.517  0.0755  0.1577  1.2511
  514MOL0     H70913   3.829   4.661   6.634 -3.0831  0.0745  2.6407
  514MOL0     H70914   3.894   5.068   6.651  1.1461 -0.1531 -1.7517
  514MOL0     H70915   3.930   5.298   6.776  2.6944  0.0950 -0.8673
  514MOL0     H70916   3.824   6.448   7.314 -0.1184 -0.4730 -1.3335
  514MOL0     H70917   3.603   6.420   7.217 -3.7023 -0.6197  0.2251
  514MOL0     H70918   3.226   6.511   7.288  0.0889  0.4089 -1.9435
  514MOL0     H70919   2.991   6.599   7.207 -3.3619  0.8639  1.8648
  514MOL0     H70920   2.696   6.563   7.049  3.3624  1.8283 -1.5405
  514MOL0     H70921   2.830   6.453   7.009  1.6589  0.1693  2.4640
  514MOL0     H70922   2.692   6.244   7.056 -0.3943 -1.1207 -0.0277
  514MOL0     H70923   2.622   6.356   6.937  1.3363  2.1955  0.4137
  514MOL0     H70924   2.568   6.334   7.246  0.0375  2.9049  0.6570
  514MOL0     H70925   2.501   6.455   7.141 -0.0983  0.8413 -0.6321
  514MOL0     H70926   2.331   6.281   7.157 -1.3866 -0.6984 -0.4797
  514MOL0     H70927   2.448   6.159   7.143  1.4460  0.7587 -1.1287
  514MOL0     H70928   2.339   6.256   6.743  3.1206 -2.0219  0.4568
  514MOL0     H70929   2.844   6.210   7.297  3.2272 -1.2757  2.0685
  514MOL0     H70930   3.017   6.034   7.439 -3.5964  0.9894 -1.2795
  514MOL0     H70931   2.983   6.023   7.271  1.6756 -4.0163  0.5368
  514MOL0     H70932   3.150   6.019   7.320 -0.6885 -0.8373  1.7507
  515MOL0     O70933   8.728   0.884  10.366  0.2079  0.1722 -0.8837
  515MOL0     C70934   8.727   0.759  10.366  0.8252  0.3563  0.1699
  515MOL0     O70935   8.705   0.673  10.263  0.7812  0.5965 -0.1059
  515MOL0     C70936   8.689   0.735  10.148  0.2746 -0.0725  0.1798
  515MOL0     C70937   8.559   0.716  10.087 -0.7274 -0.1238  0.5708
  515MOL0     C70938   8.541   0.762   9.954  0.0985  0.3686 -1.0851
  515MOL0     C70939   8.648   0.827   9.883  0.3767 -0.2354 -0.1816
  515MOL0     O70940   8.625   0.888   9.759 -0.0750 -0.8197  0.2910
  515MOL0     C70941   8.724   0.857   9.649 -0.1400 -0.4059 -0.4825
  515MOL0     C70942   8.688   0.955   9.541  0.2671  0.1534 -1.1499
  515MOL0     C70943   8.533   0.963   9.505  0.3519 -0.1211  0.2018
  515MOL0     C70944   8.520   1.035   9.372  0.5209  0.0408  0.4691
  515MOL0     C70945   8.550   1.185   9.386  0.6904 -0.3538  0.8161
  515MOL0     C70946   8.418   1.268   9.428 -0.2745  0.1746 -0.6301
  515MOL0     C70947   8.429   1.419   9.420  0.4552  0.1225  0.6251
  515MOL0     C70948   8.545   1.466   9.508 -0.6172 -0.3227 -0.5182
  515MOL0     N70949   8.569   1.617   9.496 -0.0347 -0.1538  0.0319
  515MOL0     C70950   8.488   1.706   9.557 -0.4348  0.7976  0.7810
  515MOL0     C70951   8.524   1.824   9.491 -0.6666 -0.8998 -0.0423
  515MOL0     C70952   8.477   1.963   9.528  0.7098 -0.0801  0.3240
  515MOL0     C70953   8.358   2.003   9.431 -0.0350 -0.1631 -0.4007
  515MOL0     C70954   8.224   1.977   9.504 -0.2180 -0.3022  0.8501
  515MOL0     C70955   8.109   2.005   9.407  0.3062  0.4730 -0.1116
  515MOL0     O70956   7.988   1.959   9.462 -0.5714  0.6859  0.9988
  515MOL0     C70957   7.882   1.952   9.382  0.2803 -0.4797  0.3755
  515MOL0     C70958   7.886   1.972   9.245 -0.2779 -0.1587 -0.6959
  515MOL0     C70959   7.774   1.991   9.171  1.0147 -0.0263 -0.1465
  515MOL0     C70960   7.802   2.021   9.029 -0.5182  0.1971  0.0995
  515MOL0     C70961   7.647   1.965   9.221 -0.1823  0.4838 -0.2463
  515MOL0     C70962   7.523   1.984   9.145  0.2941 -0.3499  0.0835
  515MOL0     O70963   7.414   1.909   9.184  0.4247  0.0053  0.1564
  515MOL0     C70964   7.298   1.917   9.114  1.4830  0.7837  0.0298
  515MOL0     C70965   7.222   1.792   9.095  0.7986  0.2099 -0.3613
  515MOL0     C70966   7.098   1.782   9.035  0.5915  0.4585 -0.1822
  515MOL0     C70967   7.041   1.900   8.994 -0.5904  0.4293  0.3904
  515MOL0     O70968   6.919   1.888   8.946  0.2520  0.0240 -0.5578
  515MOL0     C70969   6.822   1.917   9.045 -0.1209  0.1225 -0.5436
  515MOL0     C70970   6.682   1.927   8.982  0.1878 -0.5264  0.1574
  515MOL0     C70971   6.569   1.972   9.073  0.2128 -0.2865  0.0717
  515MOL0     C70972   6.504   1.872   9.160 -0.4173 -0.4711 -0.4091
  515MOL0     C70973   6.373   1.922   9.216  0.0163  0.2284 -0.2815
  515MOL0     C70974   6.308   1.832   9.324 -0.3270 -0.1794  0.0149
  515MOL0     C70975   6.279   1.700   9.262 -0.4849  1.1518  0.1351
  515MOL0     C70976   6.182   1.633   9.360 -0.1970  0.2216 -0.1004
  515MOL0    Cl70977   6.142   1.470   9.285  0.0760  0.2487 -0.1823
  515MOL0     C70978   7.121   2.017   9.008 -0.2456 -0.0891 -0.3118
  515MOL0     C70979   7.238   2.028   9.074  0.6049  0.0325  0.2877
  515MOL0     O70980   7.532   2.055   9.050 -0.0288 -0.0195  0.0262
  515MOL0     C70981   7.646   1.922   9.353  0.2520 -0.6676 -0.3103
  515MOL0     C70982   7.766   1.925   9.435  0.1010 -0.0381 -0.4912
  515MOL0     N70983   8.621   1.805   9.399 -0.4692  0.4629  1.1329
  515MOL0     N70984   8.657   1.682   9.401 -1.0789 -0.6974 -0.7488
  515MOL0     C70985   8.769   0.847   9.947 -0.1413 -0.1318  0.7190
  515MOL0     C70986   8.789   0.797  10.077 -0.1820 -1.1023  1.1143
  515MOL0     C70987   8.738   0.694  10.498  0.5410  0.7068 -1.2534
  515MOL0     C70988   8.824   0.593  10.523  0.0135  0.6199 -0.6182
  515MOL0     C70989   8.813   0.508  10.638  0.3806 -0.8183  0.4763
  515MOL0     C70990   8.725   0.553  10.743  0.5810 -0.1209 -0.4651
  515MOL0     O70991   8.711   0.498  10.867  0.0222  0.8849 -0.8525
  515MOL0     C70992   8.814   0.419  10.928  0.0634  0.6295  0.0213
  515MOL0     C70993   8.866   0.466  11.067 -0.0582 -0.0315  0.1102
  515MOL0     C70994   8.763   0.435  11.182  0.3633 -0.7985 -0.3133
  515MOL0     C70995   8.800   0.502  11.310 -0.7309  0.0335  0.2283
  515MOL0     C70996   8.701   0.486  11.415  0.0849  0.2956  1.1107
  515MOL0     C70997   8.633   0.477  11.513 -0.3331  0.0257 -0.0177
  515MOL0     C70998   8.628   0.651  10.720 -0.5977 -0.8288 -0.0676
  515MOL0     C70999   8.635   0.724  10.598  0.2344 -0.2480 -0.1393
  515MOL0     C71000   8.539   0.843  10.585 -1.2131 -0.4374 -0.4343
  515MOL0     H71001   8.477   0.658  10.129 -0.9209 -0.0318  0.3168
  515MOL0     H71002   8.445   0.766   9.904 -1.3566  1.0424  1.5641
  515MOL0     H71003   8.709   0.759   9.605 -0.8024  0.5865 -2.5832
  515MOL0     H71004   8.828   0.868   9.681 -0.6404  3.7242  0.4025
  515MOL0     H71005   8.712   1.055   9.580 -1.3350 -0.8861  3.1000
  515MOL0     H71006   8.752   0.924   9.458  1.2718 -0.7507 -0.0825
  515MOL0     H71007   8.489   0.865   9.485  3.0792 -0.9609 -2.4233
  515MOL0     H71008   8.473   1.018   9.578 -0.5618 -1.8581  0.8202
  515MOL0     H71009   8.591   0.989   9.303  2.1139  2.5054  0.3678
  515MOL0     H71010   8.421   1.020   9.327  1.1592 -1.3967 -0.5461
  515MOL0     H71011   8.582   1.212   9.285 -0.1553 -0.3555  0.5402
  515MOL0     H71012   8.639   1.202   9.447  1.3917 -0.1905 -0.2213
  515MOL0     H71013   8.338   1.225   9.366  1.4506 -1.1506 -2.0594
  515MOL0     H71014   8.391   1.240   9.530  2.1038  0.2143  0.0710
  515MOL0     H71015   8.340   1.469   9.461 -0.3000 -2.2532  2.0671
  515MOL0     H71016   8.456   1.435   9.315  1.5005 -2.0318  0.5178
  515MOL0     H71017   8.535   1.435   9.613  4.5531  0.3618  0.4631
  515MOL0     H71018   8.644   1.424   9.487 -0.8188 -1.9199  1.3424
  515MOL0     H71019   8.421   1.704   9.642 -1.1166 -0.1863  0.2482
  515MOL0     H71020   8.568   2.020   9.507  0.8124 -0.2463  0.3164
  515MOL0     H71021   8.446   1.976   9.632 -0.5654  1.4977 -0.2184
  515MOL0     H71022   8.353   2.111   9.420  0.3943 -0.0498  0.4418
  515MOL0     H71023   8.363   1.957   9.332 -1.1291 -1.6029  0.1759
  515MOL0     H71024   8.233   1.873   9.539  4.8571 -0.8577 -1.1949
  515MOL0     H71025   8.212   2.035   9.596 -3.9658 -1.4494  1.2803
  515MOL0     H71026   8.098   2.111   9.382 -1.6078  0.3748  0.0988
  515MOL0     H71027   8.135   1.941   9.322  2.0855  1.4748 -0.3537
  515MOL0     H71028   7.977   1.986   9.187 -0.5892 -1.7765 -1.6318
  515MOL0     H71029   7.904   2.057   9.012 -0.7500  0.8521  0.0646
  515MOL0     H71030   7.746   2.109   8.997 -0.4491  0.3728  0.4603
  515MOL0     H71031   7.782   1.929   8.973 -0.7183  0.2816  0.0343
  515MOL0     H71032   7.274   1.710   9.143  1.2305  2.1227  2.7003
  515MOL0     H71033   7.042   1.689   9.027  3.7028 -1.7038  1.4960
  515MOL0     H71034   6.811   1.829   9.110  0.8677 -1.4144 -2.3448
  515MOL0     H71035   6.858   2.008   9.092  4.5584 -0.6118 -2.1971
  515MOL0     H71036   6.701   1.996   8.899  3.9526  0.8159  1.9267
  515MOL0     H71037   6.654   1.829   8.941 -3.0621  0.9515 -1.5592
  515MOL0     H71038   6.494   2.022   9.011 -3.6800 -3.5373  1.7282
  515MOL0     H71039   6.603   2.048   9.144  2.3788 -0.2748 -0.8756
  515MOL0     H71040   6.568   1.833   9.240  1.2178  0.0618 -1.4025
  515MOL0     H71041   6.472   1.792   9.093 -0.7128  0.8224 -1.8686
  515MOL0     H71042   6.399   2.016   9.265 -0.9900  1.2347 -1.6067
  515MOL0     H71043   6.304   1.949   9.135  1.8254 -0.3741 -2.0989
  515MOL0     H71044   6.210   1.867   9.357  0.3101  0.5379  1.2318
  515MOL0     H71045   6.366   1.825   9.417 -1.8086 -0.0011  0.9904
  515MOL0     H71046   6.366   1.634   9.261 -1.7625 -0.6963 -3.0517
  515MOL0     H71047   6.241   1.709   9.160  2.8602  1.5089 -1.2054
  515MOL0     H71048   6.089   1.691   9.366 -0.6428 -0.5863  1.1670
  515MOL0     H71049   6.216   1.623   9.463 -1.6818  0.7294  0.4607
  515MOL0     H71050   7.071   2.109   8.980  0.2363  0.0547 -0.6986
  515MOL0     H71051   7.288   2.122   9.090  0.9414  0.1203 -1.1281
  515MOL0     H71052   7.558   1.897   9.412 -2.3305 -0.6724 -3.8762
  515MOL0     H71053   7.761   1.900   9.540  0.1535 -1.7971 -0.8754
  515MOL0     H71054   8.853   0.883   9.888 -1.9563  1.9368 -0.7834
  515MOL0     H71055   8.889   0.812  10.117  0.4244 -2.2725  0.1170
  515MOL0     H71056   8.898   0.562  10.450 -2.2699  0.2341 -2.8948
  515MOL0     H71057   8.895   0.440  10.651  1.0422 -0.4679 -1.5314
  515MOL0     H71058   8.789   0.313  10.931 -0.5131  0.6538 -2.2168
  515MOL0     H71059   8.899   0.430  10.861  1.3856  1.4807  1.7642
  515MOL0     H71060   8.887   0.573  11.071 -3.2693  0.7304 -0.2919
  515MOL0     H71061   8.953   0.407  11.095 -1.4129 -1.8573  0.6909
  515MOL0     H71062   8.665   0.464  11.143  1.2230 -2.6926 -4.4507
  515MOL0     H71063   8.748   0.326  11.185 -1.1432 -0.6185 -0.0332
  515MOL0     H71064   8.803   0.605  11.272 -1.7653  0.0547  0.1783
  515MOL0     H71065   8.901   0.468  11.333  0.7873  2.3490 -2.3596
  515MOL0     H71066   8.566   0.466  11.595  1.0670  0.3819  1.2118
  515MOL0     H71067   8.556   0.671  10.798 -0.1780  1.1708 -0.1461
  515MOL0     H71068   8.599   0.933  10.570 -0.6246 -0.6613  0.4577
  515MOL0     H71069   8.453   0.830  10.519  0.0945 -1.1686 -2.0644
  515MOL0     H71070   8.495   0.881  10.677  2.1926  0.6716  0.9159
  516MOL0     O71071   7.429   4.880   2.024 -0.3311  0.3577 -1.1891
  516MOL0     C71072   7.375   4.775   2.056  0.2813 -0.2387  0.6378
  516MOL0     O71073   7.243   4.747   2.033  0.4241  0.8067  0.2833
  516MOL0     C71074   7.158   4.856   2.029  0.8911 -0.0720  0.2158
  516MOL0     C71075   7.083   4.880   2.138 -0.6750 -0.0141 -1.0255
  516MOL0     C71076   6.988   4.983   2.142 -0.1655 -0.0678 -0.0270
  516MOL0     C71077   6.965   5.059   2.025 -0.1947 -0.2368 -0.2670
  516MOL0     O71078   6.887   5.172   2.034 -0.0283  0.1207 -0.7501
  516MOL0     C71079   6.961   5.289   1.990 -0.1605 -0.4320  0.2002
  516MOL0     C71080   6.870   5.379   1.913 -0.6242 -1.3519 -0.3842
  516MOL0     C71081   6.930   5.524   1.896  0.0611  0.7018  0.4298
  516MOL0     C71082   6.925   5.599   2.033  0.1517 -0.2884 -0.2823
  516MOL0     C71083   6.856   5.735   2.050  0.7731 -0.0123 -0.1597
  516MOL0     C71084   6.859   5.788   2.194 -0.4198 -0.5175  0.5165
  516MOL0     C71085   6.753   5.890   2.222  0.5246  0.3626  0.7740
  516MOL0     C71086   6.780   6.019   2.153  0.4238  0.3010 -0.4912
  516MOL0     N71087   6.681   6.113   2.216 -0.1529 -0.2858  0.0490
  516MOL0     C71088   6.700   6.193   2.328  1.7250  0.6030 -0.0950
  516MOL0     C71089   6.587   6.277   2.328 -0.0908  1.0481 -0.7352
  516MOL0     C71090   6.532   6.377   2.436 -0.4170 -0.4526 -0.4244
  516MOL0     C71091   6.487   6.281   2.554 -0.0926 -0.2260  0.0527
  516MOL0     C71092   6.394   6.341   2.666  0.0268  0.3550  0.6509
  516MOL0     C71093   6.462   6.460   2.720 -0.0269 -0.1648 -0.2578
  516MOL0     O71094   6.374   6.502   2.832 -0.1382  0.3955  0.0671
  516MOL0     C71095   6.411   6.606   2.913 -0.2801 -0.4680 -0.2700
  516MOL0     C71096   6.323   6.634   3.012 -0.1025 -0.6472  0.5484
  516MOL0     C71097   6.337   6.736   3.104 -0.4413  0.2378  0.1456
  516MOL0     C71098   6.212   6.746   3.191 -0.1900  0.6058 -0.9547
  516MOL0     C71099   6.459   6.814   3.100 -0.1586  0.1716  0.3491
  516MOL0     C71100   6.501   6.917   3.204 -0.2788 -0.0707  0.3285
  516MOL0     O71101   6.606   6.984   3.158  0.3356 -0.1457 -0.0872
  516MOL0     C71102   6.648   7.092   3.230 -0.4300 -0.7888 -0.8043
  516MOL0     C71103   6.690   7.090   3.366 -0.3065 -0.1357  1.2018
  516MOL0     C71104   6.707   7.211   3.434 -1.1783  0.4125 -0.0138
  516MOL0     C71105   6.712   7.330   3.364 -0.5024 -0.2923 -0.7910
  516MOL0     O71106   6.728   7.445   3.444 -0.4500 -0.5684  1.0555
  516MOL0     C71107   6.605   7.516   3.457 -0.3624  0.3902  0.9042
  516MOL0     C71108   6.614   7.579   3.589  0.6863  0.6950  0.7303
  516MOL0     C71109   6.631   7.485   3.711 -0.3610 -0.3008 -0.0258
  516MOL0     C71110   6.654   7.559   3.848 -0.1822  0.2242  0.4731
  516MOL0     C71111   6.772   7.654   3.846 -0.2759  0.8720 -0.1387
  516MOL0     C71112   6.821   7.683   3.988  0.1550  0.3310  0.3627
  516MOL0     C71113   6.960   7.733   3.996  0.1110  0.1327  0.3415
  516MOL0     C71114   6.988   7.776   4.136  0.4336 -0.3275  0.7241
  516MOL0    Cl71115   7.016   7.623   4.235 -0.0066 -0.3590 -0.4732
  516MOL0     C71116   6.699   7.327   3.231 -0.4223  0.0310  0.6181
  516MOL0     C71117   6.673   7.206   3.161  0.4904 -0.1631  0.3378
  516MOL0     O71118   6.424   6.950   3.294  0.2367  0.1350  0.3004
  516MOL0     C71119   6.556   6.781   3.000  0.4663  0.3193 -0.3043
  516MOL0     C71120   6.522   6.692   2.901  0.2884 -1.5430 -0.3528
  516MOL0     N71121   6.509   6.241   2.217  0.1458 -0.4763  0.1094
  516MOL0     N71122   6.573   6.158   2.149  0.2893  0.0464  0.5601
  516MOL0     C71123   7.018   5.019   1.914 -0.3218  0.3561 -0.1581
  516MOL0     C71124   7.115   4.920   1.910 -0.0499  0.6405 -0.6614
  516MOL0     C71125   7.454   4.651   2.082 -0.3220 -0.1559 -0.0069
  516MOL0     C71126   7.395   4.524   2.082  0.3818  0.2235  0.3865
  516MOL0     C71127   7.479   4.416   2.110  0.1843 -0.1070 -0.2775
  516MOL0     C71128   7.613   4.421   2.142  0.3805 -0.8040  0.1441
  516MOL0     O71129   7.676   4.309   2.173  0.1197  0.2604 -0.5002
  516MOL0     C71130   7.816   4.298   2.152 -0.1548 -0.2878 -0.0519
  516MOL0     C71131   7.859   4.161   2.200  0.5301 -0.7630  0.1365
  516MOL0     C71132   8.004   4.146   2.162  0.2394  0.7305  0.1252
  516MOL0     C71133   8.098   4.251   2.235 -0.6758  1.0566 -0.3118
  516MOL0     C71134   8.234   4.258   2.186  0.9949 -0.3966 -0.0110
  516MOL0     C71135   8.335   4.262   2.116  0.9197 -0.0370  0.5857
  516MOL0     C71136   7.666   4.547   2.130 -0.6881  0.2802 -0.5832
  516MOL0     C71137   7.598   4.661   2.105 -0.0946 -0.1800 -0.8178
  516MOL0     C71138   7.678   4.792   2.114 -0.7144 -0.0015  1.2101
  516MOL0     H71139   7.111   4.812   2.218  2.7483  1.0838 -1.1097
  516MOL0     H71140   6.933   5.023   2.226  1.2932 -1.7170  1.8288
  516MOL0     H71141   7.052   5.262   1.937  0.9491 -0.3379  1.9740
  516MOL0     H71142   6.992   5.346   2.079 -2.5370  2.2944 -0.5701
  516MOL0     H71143   6.852   5.339   1.813  1.4002  0.1599 -1.4304
  516MOL0     H71144   6.779   5.396   1.971 -0.1379  0.5088 -0.0914
  516MOL0     H71145   7.034   5.521   1.863 -0.0395  0.7452  0.1060
  516MOL0     H71146   6.869   5.570   1.818  2.7988  3.2648 -0.3508
  516MOL0     H71147   6.883   5.535   2.111  0.7510  1.1564  1.2876
  516MOL0     H71148   7.026   5.617   2.070 -0.7995  2.2436  1.3811
  516MOL0     H71149   6.750   5.725   2.022  0.5817  1.3340  0.0000
  516MOL0     H71150   6.919   5.795   1.985  0.5900 -0.3423 -0.6425
  516MOL0     H71151   6.831   5.716   2.271 -0.4670  1.2658  2.2485
  516MOL0     H71152   6.963   5.814   2.219  0.6008 -1.7271 -2.1313
  516MOL0     H71153   6.750   5.892   2.332  4.7565 -1.0505  1.0917
  516MOL0     H71154   6.663   5.842   2.182  1.4873 -2.1521  1.4472
  516MOL0     H71155   6.883   6.049   2.175 -0.2416  1.5870  1.1398
  516MOL0     H71156   6.762   6.007   2.046  1.3343 -0.4262 -0.5710
  516MOL0     H71157   6.779   6.183   2.402 -0.3360 -1.4325  1.9819
  516MOL0     H71158   6.455   6.440   2.392 -1.4791 -1.6230 -0.2885
  516MOL0     H71159   6.615   6.445   2.461  0.5806 -1.4802 -0.8246
  516MOL0     H71160   6.441   6.193   2.508 -0.7862  0.8918 -1.4818
  516MOL0     H71161   6.573   6.240   2.608  2.6804  4.6243 -0.1232
  516MOL0     H71162   6.291   6.363   2.636  0.1217 -1.1760 -0.9835
  516MOL0     H71163   6.384   6.271   2.750 -1.0817  1.9919  1.9401
  516MOL0     H71164   6.565   6.435   2.748  0.2202  0.8113 -0.2700
  516MOL0     H71165   6.467   6.538   2.643  1.4684  0.5645  0.5267
  516MOL0     H71166   6.236   6.572   3.033 -0.8053 -0.1873 -0.8763
  516MOL0     H71167   6.233   6.739   3.298  1.6776  0.3758 -1.3020
  516MOL0     H71168   6.141   6.663   3.185 -1.0776  0.7017  3.9142
  516MOL0     H71169   6.157   6.838   3.168 -0.4239  1.5177  2.7397
  516MOL0     H71170   6.695   6.995   3.418  2.9851  0.3883  2.0894
  516MOL0     H71171   6.741   7.213   3.537  2.4351 -0.2042 -1.0401
  516MOL0     H71172   6.583   7.593   3.383  0.8016  0.7546  0.9286
  516MOL0     H71173   6.515   7.453   3.454 -1.8702  2.3304 -4.2074
  516MOL0     H71174   6.693   7.655   3.596 -0.9732  2.3430  2.6231
  516MOL0     H71175   6.520   7.632   3.605 -1.8422 -3.0599 -0.4843
  516MOL0     H71176   6.726   7.432   3.700  1.7907  2.9549  1.3865
  516MOL0     H71177   6.542   7.422   3.707 -1.2548  0.9238  0.1643
  516MOL0     H71178   6.662   7.495   3.937 -0.8130  1.1278  1.1907
  516MOL0     H71179   6.562   7.611   3.874  0.0296  0.7905  0.1105
  516MOL0     H71180   6.850   7.604   3.786 -0.3663  0.1173  0.3555
  516MOL0     H71181   6.747   7.748   3.797  0.0256 -0.1581 -2.3801
  516MOL0     H71182   6.812   7.593   4.050 -2.2965  2.0419  2.6981
  516MOL0     H71183   6.753   7.754   4.035  0.1973  0.0226  0.9000
  516MOL0     H71184   6.978   7.822   3.935  2.1044  0.5518  1.4287
  516MOL0     H71185   7.020   7.645   3.970  2.8467  1.7520  0.7322
  516MOL0     H71186   6.906   7.837   4.175  2.5316  3.1958  0.0030
  516MOL0     H71187   7.072   7.845   4.140 -1.3809  1.9983  1.2838
  516MOL0     H71188   6.709   7.416   3.170 -2.9086  0.2117  0.3675
  516MOL0     H71189   6.666   7.204   3.052  0.1945 -0.7188  0.3666
  516MOL0     H71190   6.637   6.850   2.977  0.3357  0.8546  0.7509
  516MOL0     H71191   6.585   6.690   2.813  1.5763  0.9315  0.3917
  516MOL0     H71192   6.986   5.073   1.825 -0.2366  3.7717  1.6996
  516MOL0     H71193   7.172   4.905   1.818 -0.8262 -0.1571 -1.0226
  516MOL0     H71194   7.294   4.502   2.048  0.2397 -0.2663  1.1100
  516MOL0     H71195   7.425   4.323   2.095  0.2030  0.0257 -1.2069
  516MOL0     H71196   7.840   4.311   2.046  0.9524 -1.5555  0.0216
  516MOL0     H71197   7.868   4.373   2.211  0.3498 -2.0694  1.8654
  516MOL0     H71198   7.798   4.081   2.157  0.2424 -0.3595 -0.2159
  516MOL0     H71199   7.844   4.158   2.308 -0.7270  1.5207  0.0882
  516MOL0     H71200   8.029   4.042   2.188  0.0248  0.9829  1.4328
  516MOL0     H71201   8.021   4.164   2.056  1.9374  1.6369  0.5157
  516MOL0     H71202   8.100   4.209   2.336 -0.4262  2.8332  0.4630
  516MOL0     H71203   8.069   4.356   2.242 -1.7976  0.6646  1.8098
  516MOL0     H71204   8.415   4.258   2.044 -0.3955  2.7308 -1.2240
  516MOL0     H71205   7.772   4.553   2.154 -1.1303  0.0575  1.7124
  516MOL0     H71206   7.786   4.785   2.129 -0.3519  0.8962 -0.7420
  516MOL0     H71207   7.674   4.826   2.010 -1.0177 -1.2515  0.8048
  516MOL0     H71208   7.631   4.872   2.172 -0.7441  3.1073 -2.6728
  517MOL0     O71209   7.489   0.379   0.545  0.8778  0.6873 -0.6012
  517MOL0     C71210   7.482   0.326   0.438 -0.2236  0.2833  0.7522
  517MOL0     O71211   7.570   0.231   0.388 -0.0100  0.1254 -0.6540
  517MOL0     C71212   7.663   0.187   0.482 -0.3500  0.0630  0.3627
  517MOL0     C71213   7.651   0.052   0.525 -0.3962  0.3509 -0.0467
  517MOL0     C71214   7.742   0.014   0.627  0.6730 -0.1536  0.4279
  517MOL0     C71215   7.853   0.094   0.667  0.3623 -0.2914  0.1985
  517MOL0     O71216   7.941   0.049   0.758  0.5556  0.0925 -0.3530
  517MOL0     C71217   8.019  -0.074   0.721  0.0700 -0.8280 -0.2274
  517MOL0     C71218   8.081  -0.116   0.847  0.3371 -0.1232  0.7479
  517MOL0     C71219   8.180  -0.228   0.826 -0.1005 -0.2380 -0.2759
  517MOL0     C71220   8.217  -0.285   0.960  0.8875 -0.3983  0.1665
  517MOL0     C71221   8.332  -0.379   0.951 -0.1161 -1.2500  0.5448
  517MOL0     C71222   8.329  -0.456   0.813  0.2727  0.1348  0.0248
  517MOL0     C71223   8.430  -0.566   0.826  0.5795  1.0079 -0.1316
  517MOL0     C71224   8.407  -0.685   0.729  0.5639 -0.0954 -0.4227
  517MOL0     N71225   8.445  -0.807   0.799  0.5883  0.5566 -0.1036
  517MOL0     C71226   8.348  -0.904   0.815 -0.3549 -0.1305 -0.3995
  517MOL0     C71227   8.415  -1.014   0.860  0.4536 -0.9761  0.2064
  517MOL0     C71228   8.351  -1.142   0.896 -0.3589 -0.7142  0.1525
  517MOL0     C71229   8.413  -1.262   0.833 -0.7718  0.8335  0.0996
  517MOL0     C71230   8.350  -1.396   0.884 -0.1141  0.0206  0.1763
  517MOL0     C71231   8.447  -1.507   0.934 -0.7114  0.0919  0.1323
  517MOL0     O71232   8.497  -1.477   1.060  0.5229 -0.4457  0.1225
  517MOL0     C71233   8.626  -1.434   1.054 -0.5668  1.1837 -1.6241
  517MOL0     C71234   8.673  -1.307   1.078  0.3167  0.6965  0.7520
  517MOL0     C71235   8.812  -1.281   1.062  0.1795  0.3793 -0.3605
  517MOL0     C71236   8.857  -1.142   1.063  0.4943  0.1201  0.0140
  517MOL0     C71237   8.900  -1.386   1.033  0.0040  0.3112 -1.0559
  517MOL0     C71238   9.039  -1.376   0.991 -0.7839  0.1305  0.0004
  517MOL0     O71239   9.108  -1.497   0.973 -0.4697  0.0513 -0.7379
  517MOL0     C71240   9.235  -1.500   0.921  0.2008  0.1754 -0.3499
  517MOL0     C71241   9.271  -1.598   0.832 -0.8896 -0.1978  1.2142
  517MOL0     C71242   9.397  -1.601   0.777 -1.1214 -0.1233  0.0815
  517MOL0     C71243   9.504  -1.516   0.841 -0.1732 -0.1831  0.6983
  517MOL0     O71244   9.630  -1.523   0.776  0.3717 -0.0456 -0.2218
  517MOL0     C71245   9.744  -1.515   0.862 -0.3993 -0.3372 -0.0528
  517MOL0     C71246   9.877  -1.473   0.789 -0.3763 -0.6006  0.5783
  517MOL0     C71247   9.880  -1.333   0.714 -0.3049  0.5463 -0.2332
  517MOL0     C71248  10.017  -1.323   0.634 -0.4562  0.0081 -0.7328
  517MOL0     C71249  10.066  -1.181   0.606  0.3013 -0.3073  0.3079
  517MOL0     C71250   9.961  -1.100   0.522 -0.3145  0.0768 -0.7670
  517MOL0     C71251   9.949  -1.167   0.390 -0.5898  0.2235  0.7894
  517MOL0     C71252   9.825  -1.104   0.322 -0.2746  0.7574 -1.3131
  517MOL0    Cl71253   9.815  -1.109   0.154  0.2861  0.0852 -0.1290
  517MOL0     C71254   9.473  -1.435   0.947  0.0169 -0.1117 -0.8763
  517MOL0     C71255   9.341  -1.419   0.978 -1.5342  0.2034 -0.2606
  517MOL0     O71256   9.088  -1.267   0.961  0.3241  0.3159  0.6106
  517MOL0     C71257   8.848  -1.510   1.018  0.1957 -0.6693  0.4528
  517MOL0     C71258   8.721  -1.531   1.031  0.0763  1.0604 -0.0100
  517MOL0     N71259   8.549  -0.988   0.860 -0.6908  0.2445  0.6435
  517MOL0     N71260   8.569  -0.869   0.814 -0.1611  0.3435 -0.5378
  517MOL0     C71261   7.859   0.225   0.619 -0.3867 -0.5861 -0.7173
  517MOL0     C71262   7.774   0.274   0.523  0.0358  0.3076  1.0833
  517MOL0     C71263   7.390   0.404   0.347  0.2793 -0.6631 -0.7361
  517MOL0     C71264   7.278   0.470   0.407  0.3439 -0.2873 -0.2416
  517MOL0     C71265   7.192   0.552   0.333 -0.8204  0.0322  0.3934
  517MOL0     C71266   7.209   0.567   0.200 -0.4626  1.0736  0.4932
  517MOL0     O71267   7.124   0.622   0.107  0.2571  0.3335  0.2208
  517MOL0     C71268   7.009   0.688   0.169 -0.4818 -0.1206 -0.0778
  517MOL0     C71269   6.914   0.750   0.065 -0.2814  0.2625 -0.4241
  517MOL0     C71270   6.831   0.866   0.132 -0.3638  0.2227 -0.8309
  517MOL0     C71271   6.684   0.815   0.138 -0.2685  0.3867 -0.5689
  517MOL0     C71272   6.670   0.749   0.265  0.7475  0.5399  0.2261
  517MOL0     C71273   6.646   0.692   0.373  0.6183  0.7036  0.2577
  517MOL0     C71274   7.310   0.501   0.135  0.2509 -0.3850  0.1891
  517MOL0     C71275   7.403   0.411   0.203 -0.2458 -1.3489  0.7071
  517MOL0     C71276   7.525   0.368   0.135  0.1431 -0.1397  0.1013
  517MOL0     H71277   7.567  -0.013   0.503  0.9106 -0.6230 -2.4892
  517MOL0     H71278   7.730  -0.087   0.665 -0.1379 -0.7280 -1.2974
  517MOL0     H71279   8.100  -0.047   0.652 -0.2267 -0.2745 -0.3619
  517MOL0     H71280   7.962  -0.157   0.679 -1.2719  0.0676 -0.2147
  517MOL0     H71281   8.130  -0.036   0.904  0.5632  0.2372  0.0607
  517MOL0     H71282   7.993  -0.151   0.901  1.2533 -2.8706  0.5809
  517MOL0     H71283   8.149  -0.299   0.749  2.6554 -1.7442 -0.1436
  517MOL0     H71284   8.275  -0.191   0.787 -0.6886 -0.3406 -1.8959
  517MOL0     H71285   8.243  -0.202   1.026  1.4641  0.4836 -1.1339
  517MOL0     H71286   8.121  -0.328   0.993  2.2483 -4.4689 -0.5802
  517MOL0     H71287   8.317  -0.439   1.041 -3.0053 -1.2517  0.1320
  517MOL0     H71288   8.416  -0.310   0.966 -2.8161  2.3513  0.5270
  517MOL0     H71289   8.229  -0.491   0.784 -0.5419  0.9081  1.7505
  517MOL0     H71290   8.363  -0.392   0.731  1.2914 -1.4682 -0.8548
  517MOL0     H71291   8.409  -0.602   0.927  3.1183  3.3494  1.3546
  517MOL0     H71292   8.527  -0.516   0.815 -0.4476  3.4174  1.0356
  517MOL0     H71293   8.304  -0.697   0.694  0.9347  0.9745 -2.0473
  517MOL0     H71294   8.467  -0.685   0.637 -1.4517 -2.5277 -1.8483
  517MOL0     H71295   8.244  -0.902   0.785 -0.1341  2.1441 -1.2313
  517MOL0     H71296   8.242  -1.148   0.897 -0.4072 -2.3219 -2.7631
  517MOL0     H71297   8.378  -1.152   1.002  2.1220  3.8190  0.2021
  517MOL0     H71298   8.403  -1.264   0.724  1.6143 -0.8043 -0.1810
  517MOL0     H71299   8.521  -1.256   0.849 -0.4276  0.6042 -1.8736
  517MOL0     H71300   8.273  -1.389   0.962 -0.1108 -2.5660  0.4990
  517MOL0     H71301   8.289  -1.438   0.803  1.0297 -1.0080 -0.1768
  517MOL0     H71302   8.394  -1.602   0.945 -1.3769  0.5694  1.2383
  517MOL0     H71303   8.528  -1.516   0.861  1.2603  0.3317  2.1967
  517MOL0     H71304   8.592  -1.234   1.081 -0.4751 -0.1502  0.5894
  517MOL0     H71305   8.950  -1.123   1.118  0.5424  1.9724 -0.6226
  517MOL0     H71306   8.776  -1.082   1.105  0.6546 -1.1363  2.2271
  517MOL0     H71307   8.865  -1.104   0.960 -0.4844  0.5215  0.0826
  517MOL0     H71308   9.202  -1.671   0.793  1.6472 -0.1583 -4.1788
  517MOL0     H71309   9.421  -1.671   0.698  1.4022 -1.4306  1.8401
  517MOL0     H71310   9.738  -1.436   0.939 -1.6521  1.0745 -1.5139
  517MOL0     H71311   9.750  -1.609   0.917 -2.7042 -0.2429  0.4843
  517MOL0     H71312   9.943  -1.452   0.874 -0.0301  2.1163 -0.2564
  517MOL0     H71313   9.906  -1.555   0.723  1.2311 -0.5820  1.2134
  517MOL0     H71314   9.881  -1.252   0.788 -1.7804  2.7867 -2.4762
  517MOL0     H71315   9.797  -1.305   0.647 -0.6081  1.9881  0.6866
  517MOL0     H71316  10.010  -1.394   0.551 -0.9026 -2.3207  1.1710
  517MOL0     H71317  10.093  -1.356   0.706 -0.2569  1.7496 -0.1089
  517MOL0     H71318  10.083  -1.132   0.703  2.0002  0.0593 -0.1546
  517MOL0     H71319  10.170  -1.188   0.573  1.1051  1.3305  2.2777
  517MOL0     H71320   9.993  -0.998   0.499  1.1573 -0.6212 -2.0527
  517MOL0     H71321   9.875  -1.097   0.588 -0.8184 -0.2793 -1.3954
  517MOL0     H71322   9.924  -1.274   0.387 -1.3700  0.4158 -0.1427
  517MOL0     H71323  10.036  -1.152   0.325  0.6099 -2.8755  1.4715
  517MOL0     H71324   9.816  -0.999   0.351 -3.4856  0.2693 -0.1117
  517MOL0     H71325   9.737  -1.145   0.371 -0.7125 -0.3994 -2.9566
  517MOL0     H71326   9.546  -1.363   0.983 -0.0379 -0.6277  0.3133
  517MOL0     H71327   9.313  -1.342   1.049  0.6193  2.2224 -1.4433
  517MOL0     H71328   8.900  -1.599   0.983 -2.3784 -1.2714 -2.2021
  517MOL0     H71329   8.702  -1.637   1.017  3.3158 -0.0421  2.5549
  517MOL0     H71330   7.926   0.302   0.657  1.7100  0.1440 -5.1790
  517MOL0     H71331   7.783   0.378   0.493 -0.0953 -0.1419 -0.6181
  517MOL0     H71332   7.260   0.457   0.513 -2.4707  0.6326 -0.5247
  517MOL0     H71333   7.116   0.600   0.393  2.2758  3.0612  2.2363
  517MOL0     H71334   6.959   0.611   0.230 -2.0343  1.7561  1.1367
  517MOL0     H71335   7.060   0.761   0.232 -0.2484 -0.0858 -0.3067
  517MOL0     H71336   6.848   0.680   0.012 -0.7819  1.5200 -1.5230
  517MOL0     H71337   6.979   0.786  -0.015  3.1632 -1.8578  1.1736
  517MOL0     H71338   6.870   0.883   0.233 -1.2246  2.6506 -0.8422
  517MOL0     H71339   6.841   0.958   0.073  0.0969  0.4360 -0.4272
  517MOL0     H71340   6.651   0.755   0.053  0.1758  0.1714 -0.5931
  517MOL0     H71341   6.627   0.908   0.135  2.4131  2.1357 -1.5690
  517MOL0     H71342   6.642   0.640   0.466  1.0316  2.1874  1.1293
  517MOL0     H71343   7.325   0.516   0.029 -0.2969 -1.6240 -0.0828
  517MOL0     H71344   7.616   0.384   0.193 -0.9921  1.4688  1.5234
  517MOL0     H71345   7.522   0.260   0.116 -1.4650 -0.2798  0.9224
  517MOL0     H71346   7.552   0.429   0.048  0.0327  1.0149  0.8556
  518MOL0     O71347   2.152   6.271   4.472 -0.2875  0.0070  1.0688
  518MOL0     C71348   2.203   6.314   4.371 -0.7032  0.3756 -0.1175
  518MOL0     O71349   2.171   6.434   4.317 -0.1414 -0.1391  0.1365
  518MOL0     C71350   2.120   6.530   4.394 -0.0385 -0.2653  0.1927
  518MOL0     C71351   1.975   6.536   4.417 -0.5838 -0.3985 -0.1414
  518MOL0     C71352   1.920   6.639   4.502  0.5073 -0.1870  0.0790
  518MOL0     C71353   2.010   6.721   4.575 -0.0170 -0.9302  0.5560
  518MOL0     O71354   1.975   6.814   4.668  0.4722 -0.0060  0.5552
  518MOL0     C71355   1.835   6.854   4.687 -0.1130 -0.5556  0.1352
  518MOL0     C71356   1.814   6.929   4.821 -0.4480  0.6134  0.5944
  518MOL0     C71357   1.874   6.858   4.944 -0.7021 -0.8877  1.1024
  518MOL0     C71358   1.797   6.740   4.979 -0.2977  0.2227  0.7463
  518MOL0     C71359   1.880   6.641   5.061  0.3791  0.3328 -0.1907
  518MOL0     C71360   1.789   6.532   5.122 -0.1662  0.0401  0.8299
  518MOL0     C71361   1.859   6.413   5.188  0.7228  0.1269 -0.1291
  518MOL0     C71362   1.969   6.358   5.109  0.2821 -0.2081  0.1329
  518MOL0     N71363   2.023   6.243   5.186 -0.4753 -0.0183  0.5622
  518MOL0     C71364   1.948   6.131   5.204 -0.5706 -0.1181  0.3781
  518MOL0     C71365   2.024   6.041   5.279 -0.4211 -0.3031 -0.3776
  518MOL0     C71366   1.983   5.914   5.355  0.1719 -0.0545 -0.3351
  518MOL0     C71367   2.089   5.864   5.465  0.8828  0.4518  0.3472
  518MOL0     C71368   2.077   5.924   5.603 -0.6515 -0.0747 -0.2565
  518MOL0     C71369   2.143   6.059   5.623 -0.2563 -0.7694  1.0819
  518MOL0     O71370   2.148   6.070   5.763  0.0568  0.1253 -0.0296
  518MOL0     C71371   2.037   6.109   5.828 -0.3369  0.2464  0.8091
  518MOL0     C71372   1.929   6.185   5.777  0.3428 -0.7389 -0.4495
  518MOL0     C71373   1.815   6.198   5.864 -0.2011 -0.7035  0.2766
  518MOL0     C71374   1.690   6.265   5.806 -0.8246  0.1365 -0.0150
  518MOL0     C71375   1.829   6.167   6.002 -0.3335  0.1728 -0.5588
  518MOL0     C71376   1.714   6.173   6.092 -0.8718 -1.0508 -0.7934
  518MOL0     O71377   1.611   6.095   6.055  0.0975 -0.3654 -0.5805
  518MOL0     C71378   1.511   6.069   6.150 -0.2363 -0.0625  0.1477
  518MOL0     C71379   1.460   5.939   6.169 -0.3429  0.1064  0.1666
  518MOL0     C71380   1.341   5.913   6.237  0.0694  0.2545  0.3557
  518MOL0     C71381   1.274   6.012   6.307 -0.6278  0.6223  0.3710
  518MOL0     O71382   1.169   5.980   6.380  0.2181  0.0351  0.5490
  518MOL0     C71383   1.058   6.074   6.381 -0.4997 -0.5511  0.6011
  518MOL0     C71384   0.940   5.972   6.397  1.5169  0.5528 -0.1474
  518MOL0     C71385   0.911   5.911   6.534 -0.2365  0.0425 -0.7193
  518MOL0     C71386   0.817   5.787   6.533  0.1293 -0.4602  0.7837
  518MOL0     C71387   0.810   5.697   6.656  0.0620 -0.2180  1.5166
  518MOL0     C71388   0.759   5.752   6.790  0.3140 -0.0654 -0.0883
  518MOL0     C71389   0.805   5.655   6.895  0.9576  0.3598 -0.5868
  518MOL0     C71390   0.726   5.666   7.029 -0.4483  0.9417 -0.1800
  518MOL0    Cl71391   0.731   5.824   7.116  0.2211 -0.0800  0.4477
  518MOL0     C71392   1.338   6.147   6.296  0.4699  0.4438 -0.1484
  518MOL0     C71393   1.445   6.175   6.215 -0.1536  0.0279  0.4216
  518MOL0     O71394   1.730   6.246   6.195  0.4350 -0.3047  0.6929
  518MOL0     C71395   1.945   6.110   6.052 -0.1724  0.1574  1.2268
  518MOL0     C71396   2.044   6.080   5.963 -0.3176  0.3573  0.3706
  518MOL0     N71397   2.145   6.112   5.302  0.6554 -0.0958  0.1902
  518MOL0     N71398   2.147   6.230   5.246 -0.3450 -0.4493 -0.5813
  518MOL0     C71399   2.147   6.703   4.560  0.0880  0.4820  0.2758
  518MOL0     C71400   2.204   6.610   4.473 -0.9887  0.2270  0.3740
  518MOL0     C71401   2.283   6.221   4.289 -0.3304  0.3807  0.4986
  518MOL0     C71402   2.277   6.222   4.154  0.2375  0.9555  0.7788
  518MOL0     C71403   2.328   6.123   4.072 -0.6898 -0.9015 -0.1383
  518MOL0     C71404   2.405   6.016   4.129  0.9977 -0.6093  0.2092
  518MOL0     O71405   2.474   5.927   4.054 -0.0556 -0.5810 -0.0886
  518MOL0     C71406   2.447   5.913   3.916  0.5808  0.4192 -0.3303
  518MOL0     C71407   2.555   5.821   3.849  0.5658  0.3192  0.3014
  518MOL0     C71408   2.574   5.692   3.928  0.0693  0.4118 -0.3300
  518MOL0     C71409   2.669   5.592   3.859 -0.3684 -0.1779  0.5646
  518MOL0     C71410   2.813   5.625   3.884  0.1074 -0.2980  0.1936
  518MOL0     C71411   2.931   5.661   3.917  0.4264  0.9366  0.8225
  518MOL0     C71412   2.431   6.022   4.270  0.6422  0.1091 -0.1123
  518MOL0     C71413   2.370   6.120   4.350 -0.5453  0.4315  0.0584
  518MOL0     C71414   2.399   6.123   4.499  0.6279 -0.1939 -0.2726
  518MOL0     H71415   1.917   6.476   4.348 -3.5143  1.6209  0.4016
  518MOL0     H71416   1.816   6.663   4.521  1.5895  5.2178  1.0313
  518MOL0     H71417   1.766   6.769   4.687  1.2126 -1.6667 -0.3473
  518MOL0     H71418   1.783   6.914   4.612 -2.1510 -0.5758  1.4406
  518MOL0     H71419   1.877   7.019   4.820 -1.9976  1.7322 -0.0462
  518MOL0     H71420   1.711   6.965   4.818 -0.4807  0.4970  0.2800
  518MOL0     H71421   1.978   6.831   4.922 -0.2499  2.3348 -1.3491
  518MOL0     H71422   1.873   6.928   5.027  4.5547  1.2010 -0.1430
  518MOL0     H71423   1.707   6.775   5.031  0.3466  2.1493  0.6586
  518MOL0     H71424   1.763   6.701   4.883 -0.4687  4.1065 -0.9266
  518MOL0     H71425   1.935   6.703   5.133  0.8187 -1.3916  1.0074
  518MOL0     H71426   1.945   6.582   4.996 -0.0185 -1.7102  1.1771
  518MOL0     H71427   1.731   6.574   5.205  2.3624  0.8141  2.3242
  518MOL0     H71428   1.724   6.503   5.039 -0.5912  2.6318  0.1874
  518MOL0     H71429   1.785   6.333   5.198 -0.3735  0.9579 -1.3555
  518MOL0     H71430   1.882   6.430   5.294 -1.4206  0.9366  0.2694
  518MOL0     H71431   1.918   6.331   5.016 -2.6284  0.0801  1.5272
  518MOL0     H71432   2.055   6.421   5.082  0.2187 -1.0403 -2.2738
  518MOL0     H71433   1.849   6.125   5.160 -0.6173  2.6000 -0.0681
  518MOL0     H71434   1.974   5.837   5.278 -0.3005 -0.0873 -0.2511
  518MOL0     H71435   1.883   5.934   5.395  1.1013  3.1131  0.7260
  518MOL0     H71436   2.088   5.756   5.486  4.7743  0.5106  1.7727
  518MOL0     H71437   2.188   5.885   5.425  0.4747 -0.9288 -1.5259
  518MOL0     H71438   1.971   5.930   5.628 -0.6255  0.5606 -0.2923
  518MOL0     H71439   2.114   5.844   5.669 -0.4649 -0.0322 -0.3089
  518MOL0     H71440   2.245   6.068   5.585 -1.0229 -2.5161 -1.6737
  518MOL0     H71441   2.105   6.147   5.569 -0.9992 -2.9870 -2.3056
  518MOL0     H71442   1.934   6.223   5.676  2.8539 -1.1441 -0.5364
  518MOL0     H71443   1.729   6.352   5.753 -0.6712 -1.0073 -1.8385
  518MOL0     H71444   1.630   6.308   5.887 -3.1603 -1.1391 -0.9583
  518MOL0     H71445   1.625   6.203   5.744 -1.4191 -1.5822  2.1756
  518MOL0     H71446   1.497   5.857   6.109 -2.1042  0.6546 -1.7981
  518MOL0     H71447   1.302   5.812   6.236  3.4881 -1.2196  1.0427
  518MOL0     H71448   1.062   6.144   6.464 -1.4037  1.4182 -0.9380
  518MOL0     H71449   1.049   6.129   6.287  1.6548 -0.9382  0.1029
  518MOL0     H71450   0.847   6.019   6.364  2.6048  1.9700 -1.3577
  518MOL0     H71451   0.966   5.890   6.329 -1.3947 -0.2975 -0.3820
  518MOL0     H71452   0.852   5.982   6.595  1.0029  0.0065  0.5738
  518MOL0     H71453   0.998   5.870   6.585  0.5027 -1.0454 -2.7613
  518MOL0     H71454   0.861   5.733   6.449 -1.9584 -0.1940 -0.5648
  518MOL0     H71455   0.714   5.812   6.505  0.5703  0.1916 -0.3199
  518MOL0     H71456   0.749   5.611   6.627  3.0918 -2.0077 -0.0100
  518MOL0     H71457   0.909   5.656   6.674  1.2695  1.2336 -1.1808
  518MOL0     H71458   0.651   5.764   6.782  0.5320  1.1696 -1.7234
  518MOL0     H71459   0.811   5.848   6.796 -1.4531  0.8774  0.8473
  518MOL0     H71460   0.908   5.685   6.918 -0.0288  3.0557  0.8239
  518MOL0     H71461   0.819   5.553   6.859  0.7879  0.9471 -2.4367
  518MOL0     H71462   0.767   5.597   7.104 -1.7191  0.5623  0.1916
  518MOL0     H71463   0.625   5.638   6.995 -0.9888  1.3053  1.0693
  518MOL0     H71464   1.286   6.228   6.347  1.3590 -0.2604  1.9972
  518MOL0     H71465   1.467   6.281   6.203 -1.3823  0.3781  1.0775
  518MOL0     H71466   1.954   6.066   6.151  0.1861  1.0458  1.5982
  518MOL0     H71467   2.125   6.020   6.004 -1.0171 -1.5981 -0.9712
  518MOL0     H71468   2.214   6.761   4.622  0.7871  0.6853 -0.6436
  518MOL0     H71469   2.312   6.599   4.473 -0.8392  1.5570  0.9944
  518MOL0     H71470   2.219   6.292   4.094  0.1685 -0.3560 -0.7381
  518MOL0     H71471   2.318   6.147   3.966  0.4857 -3.6043 -0.9587
  518MOL0     H71472   2.348   5.865   3.912  0.6216 -0.0392  2.4184
  518MOL0     H71473   2.452   6.016   3.880  2.2058  0.8928  1.1401
  518MOL0     H71474   2.661   5.850   3.848  1.3174 -2.1815 -0.2686
  518MOL0     H71475   2.538   5.793   3.745 -3.5750  0.6324  0.7226
  518MOL0     H71476   2.606   5.709   4.031  0.9650  0.9966 -0.6921
  518MOL0     H71477   2.473   5.653   3.942 -0.8365  1.7721 -2.7222
  518MOL0     H71478   2.672   5.594   3.750  1.0663 -3.8045  0.3942
  518MOL0     H71479   2.632   5.493   3.886 -1.9107  0.6173  1.4889
  518MOL0     H71480   3.027   5.698   3.945  0.9861 -1.4721  2.4404
  518MOL0     H71481   2.499   5.955   4.322  1.5236  2.1727  1.5519
  518MOL0     H71482   2.449   6.031   4.531 -3.3535 -2.2559  0.7005
  518MOL0     H71483   2.455   6.210   4.533 -1.0334  1.2790 -1.1714
  518MOL0     H71484   2.309   6.116   4.559  3.0398 -0.5146  3.6646
  519MOL0     O71485   5.911   9.095   7.088 -0.5916  0.4494 -0.1000
  519MOL0     C71486   5.952   8.986   7.054 -0.4350  0.3039  0.0539
  519MOL0     O71487   5.922   8.921   6.935 -1.0918 -0.0134  0.0147
  519MOL0     C71488   5.875   8.999   6.829  0.1936  0.2808  0.6498
  519MOL0     C71489   5.768   8.945   6.760  0.9171  0.3646  0.3045
  519MOL0     C71490   5.722   9.004   6.646  0.3475 -1.2277  0.2164
  519MOL0     C71491   5.767   9.127   6.598 -1.2714 -0.0330 -0.2681
  519MOL0     O71492   5.727   9.196   6.487  0.2464 -0.0279  0.7692
  519MOL0     C71493   5.635   9.306   6.507 -0.9346 -0.3554  0.1560
  519MOL0     C71494   5.557   9.327   6.377  0.1896  1.0648  0.0602
  519MOL0     C71495   5.446   9.430   6.378 -0.2170  1.0371 -0.0013
  519MOL0     C71496   5.492   9.573   6.415  0.7880  0.3205 -0.3439
  519MOL0     C71497   5.374   9.661   6.452  0.7009  0.1851  0.1689
  519MOL0     C71498   5.412   9.812   6.474 -0.7772 -0.5731  0.2735
  519MOL0     C71499   5.290   9.899   6.501 -0.3105  0.5621 -1.2082
  519MOL0     C71500   5.342  10.034   6.544  0.4497 -0.1432  0.1730
  519MOL0     N71501   5.245  10.125   6.608  0.0891 -0.8222 -0.3471
  519MOL0     C71502   5.239  10.170   6.745 -1.6448 -0.6889 -0.5068
  519MOL0     C71503   5.165  10.278   6.744  0.1386 -0.7675  0.2331
  519MOL0     C71504   5.131  10.352   6.871 -0.4839  0.4985 -0.4114
  519MOL0     C71505   4.984  10.324   6.900  0.1620  0.0058  0.0219
  519MOL0     C71506   4.950  10.428   7.005 -0.3875 -0.3881  0.5287
  519MOL0     C71507   4.812  10.391   7.062 -0.7755 -0.2945 -0.3837
  519MOL0     O71508   4.781  10.470   7.180 -0.3132 -0.1596 -0.0941
  519MOL0     C71509   4.730  10.596   7.177 -0.4887  1.4698  0.7395
  519MOL0     C71510   4.725  10.681   7.062  0.2865  0.2558 -0.7373
  519MOL0     C71511   4.655  10.804   7.072  0.5491  0.7700  0.2166
  519MOL0     C71512   4.664  10.904   6.945  0.3035  1.3512 -0.4082
  519MOL0     C71513   4.601  10.845   7.197  0.3397  0.6992  0.2553
  519MOL0     C71514   4.541  10.984   7.220 -0.0968 -0.2323  0.1815
  519MOL0     O71515   4.456  10.998   7.327  0.5617  0.3671  0.0463
  519MOL0     C71516   4.421  11.126   7.363 -0.6912  1.3475 -0.3776
  519MOL0     C71517   4.307  11.168   7.300  0.5901 -0.4463  0.1407
  519MOL0     C71518   4.255  11.301   7.317 -0.8316  0.0728  0.3024
  519MOL0     C71519   4.321  11.384   7.412  0.1606  0.2086  0.0905
  519MOL0     O71520   4.278  11.506   7.467 -0.8346 -1.0683  0.1797
  519MOL0     C71521   4.161  11.564   7.413  0.1070  0.4207 -0.2878
  519MOL0     C71522   4.043  11.580   7.507  0.5663  0.8075 -0.1116
  519MOL0     C71523   4.084  11.633   7.648  0.5448 -0.4560  0.3623
  519MOL0     C71524   3.946  11.671   7.722  0.5843 -0.0356  0.6311
  519MOL0     C71525   3.956  11.732   7.867  0.2607 -0.9041 -0.1002
  519MOL0     C71526   3.815  11.753   7.926 -0.5405  0.3785  0.1161
  519MOL0     C71527   3.844  11.808   8.065 -0.5291 -0.3596  0.4283
  519MOL0     C71528   3.720  11.839   8.146 -0.4940 -0.2282 -0.7582
  519MOL0    Cl71529   3.585  11.733   8.116 -0.0999  0.3530 -0.0686
  519MOL0     C71530   4.449  11.334   7.464  0.3151 -1.5053 -0.4681
  519MOL0     C71531   4.486  11.205   7.445 -0.9784  0.4486  0.3267
  519MOL0     O71532   4.585  11.081   7.148 -0.8614  0.2669  0.8756
  519MOL0     C71533   4.617  10.755   7.305 -0.0964 -0.1897 -0.3783
  519MOL0     C71534   4.673  10.634   7.293 -0.0493 -0.0694  0.1235
  519MOL0     N71535   5.108  10.300   6.614 -0.0109  0.3579 -0.2003
  519MOL0     N71536   5.153  10.201   6.533  0.0431 -0.3836  0.0361
  519MOL0     C71537   5.865   9.189   6.671  0.0705 -0.4134  0.3689
  519MOL0     C71538   5.920   9.124   6.785 -0.2082  0.4419  0.7036
  519MOL0     C71539   6.053   8.911   7.135  0.2821  0.8251  0.6742
  519MOL0     C71540   6.131   8.804   7.084  0.4177 -0.3242  0.6347
  519MOL0     C71541   6.226   8.737   7.168  0.7482  0.0397  0.0763
  519MOL0     C71542   6.258   8.773   7.301  0.8776  0.8283 -0.3225
  519MOL0     O71543   6.378   8.711   7.353  0.2180  0.2093  0.7130
  519MOL0     C71544   6.399   8.731   7.493  0.0620 -0.3730  0.2349
  519MOL0     C71545   6.547   8.699   7.525 -1.1712 -0.3832 -0.2859
  519MOL0     C71546   6.620   8.759   7.649  0.7798  0.0489 -0.8157
  519MOL0     C71547   6.527   8.793   7.765 -0.3444 -0.0902 -0.1088
  519MOL0     C71548   6.466   8.666   7.812  0.9684 -0.1928 -0.3979
  519MOL0     C71549   6.416   8.568   7.862 -0.0486  0.0517  0.8479
  519MOL0     C71550   6.162   8.868   7.355  0.2336 -0.4353 -0.3470
  519MOL0     C71551   6.060   8.936   7.275 -0.3178  0.5309 -0.3073
  519MOL0     C71552   5.965   9.015   7.367 -0.1619  0.3390  0.6268
  519MOL0     H71553   5.730   8.845   6.782 -1.1472  1.0626  0.1117
  519MOL0     H71554   5.635   8.963   6.594  0.4307 -1.5672  0.3424
  519MOL0     H71555   5.701   9.391   6.527  1.2708 -2.4698  2.5864
  519MOL0     H71556   5.576   9.287   6.597 -1.4371  1.4205  0.2393
  519MOL0     H71557   5.630   9.350   6.298  0.6851  0.7086  0.4032
  519MOL0     H71558   5.516   9.228   6.355 -1.4178  2.0115 -1.4621
  519MOL0     H71559   5.404   9.438   6.277  1.3617 -1.2260 -0.9139
  519MOL0     H71560   5.362   9.403   6.442 -2.2825  4.6847 -0.8571
  519MOL0     H71561   5.556   9.557   6.503 -0.3087 -5.5263 -0.2014
  519MOL0     H71562   5.543   9.620   6.331 -0.3969 -2.3892 -2.7192
  519MOL0     H71563   5.305   9.610   6.520 -1.0316  0.4831 -1.2649
  519MOL0     H71564   5.319   9.666   6.357  0.5680  0.2286  0.2490
  519MOL0     H71565   5.484   9.808   6.557 -3.4081  0.5957  2.7874
  519MOL0     H71566   5.462   9.850   6.385 -0.4645 -2.1092 -0.2233
  519MOL0     H71567   5.228   9.857   6.580 -0.1248 -0.2896 -1.4978
  519MOL0     H71568   5.220   9.898   6.417 -3.0478 -0.0145  0.9436
  519MOL0     H71569   5.433  10.023   6.603 -2.2980 -1.9096  4.6005
  519MOL0     H71570   5.377  10.082   6.453  0.7007 -2.8157 -1.2280
  519MOL0     H71571   5.279  10.130   6.838  0.2899  3.2281  0.5823
  519MOL0     H71572   5.146  10.459   6.851  2.5795  0.3723  0.7667
  519MOL0     H71573   5.196  10.331   6.956  0.2290 -1.3550 -1.3626
  519MOL0     H71574   4.938  10.342   6.803  2.1332  0.0206 -0.9756
  519MOL0     H71575   4.976  10.220   6.933  2.7967 -0.6332 -1.0726
  519MOL0     H71576   5.022  10.420   7.087 -0.2088  0.8915  0.5154
  519MOL0     H71577   4.957  10.527   6.958  1.4172 -1.2080 -1.0738
  519MOL0     H71578   4.734  10.414   6.989 -3.2852 -0.0913  2.1878
  519MOL0     H71579   4.816  10.285   7.091 -2.8579 -0.1287  0.6868
  519MOL0     H71580   4.777  10.651   6.972  1.3930  1.3406 -0.4919
  519MOL0     H71581   4.745  10.970   6.978 -0.7754  1.8020  1.5114
  519MOL0     H71582   4.569  10.956   6.929 -0.5709  0.7479  2.3654
  519MOL0     H71583   4.692  10.853   6.852  2.1961 -2.1434  1.8417
  519MOL0     H71584   4.256  11.110   7.224 -0.5497  1.5322 -0.6866
  519MOL0     H71585   4.158  11.315   7.271 -1.8157  0.5555  2.4366
  519MOL0     H71586   4.196  11.663   7.381 -1.2708  1.4745  1.2739
  519MOL0     H71587   4.123  11.500   7.333  0.8414 -1.6843  0.9867
  519MOL0     H71588   3.972  11.647   7.457 -2.1342 -2.5945 -1.3082
  519MOL0     H71589   3.996  11.481   7.515  0.5143  0.8682  0.4413
  519MOL0     H71590   4.152  11.718   7.654 -1.2339  0.9610  5.3138
  519MOL0     H71591   4.108  11.548   7.712  3.0871  1.9082  2.8087
  519MOL0     H71592   3.887  11.579   7.726  0.9942 -0.4004 -0.9077
  519MOL0     H71593   3.881  11.735   7.662 -0.6166  0.6345  2.5479
  519MOL0     H71594   3.998  11.648   7.924  3.5004  0.2712 -0.5618
  519MOL0     H71595   4.025  11.817   7.867 -0.8482  0.0144 -0.2932
  519MOL0     H71596   3.761  11.658   7.923 -0.5092  0.3817 -0.7314
  519MOL0     H71597   3.741  11.816   7.875 -2.4988 -2.0872 -0.2866
  519MOL0     H71598   3.920  11.886   8.062 -0.9118  0.0554  1.2271
  519MOL0     H71599   3.894  11.726   8.118 -1.0151 -1.5720 -0.9372
  519MOL0     H71600   3.689  11.942   8.129 -0.3075  0.0149  0.2981
  519MOL0     H71601   3.747  11.820   8.250  0.4923  0.3872 -0.8847
  519MOL0     H71602   4.513  11.402   7.519  0.1729 -2.0220  0.3625
  519MOL0     H71603   4.571  11.166   7.500 -2.9758 -3.1394  1.1288
  519MOL0     H71604   4.591  10.789   7.405 -0.2004  0.5082 -0.6343
  519MOL0     H71605   4.673  10.561   7.374 -1.2157 -2.2028 -1.6830
  519MOL0     H71606   5.904   9.280   6.626  0.9388 -3.2750 -5.6722
  519MOL0     H71607   6.002   9.167   6.841  0.7577  1.7721 -1.5976
  519MOL0     H71608   6.129   8.769   6.981 -0.7442 -0.2906  0.6318
  519MOL0     H71609   6.294   8.666   7.123 -1.4708 -2.1130 -0.1343
  519MOL0     H71610   6.387   8.834   7.526  0.5430  0.2704 -1.4983
  519MOL0     H71611   6.347   8.669   7.567 -1.3654  0.0971 -0.3425
  519MOL0     H71612   6.607   8.728   7.439 -2.3003  0.7353 -0.7362
  519MOL0     H71613   6.568   8.592   7.535  0.9797 -0.1078 -1.3474
  519MOL0     H71614   6.709   8.706   7.684 -0.4138 -0.9316  0.8652
  519MOL0     H71615   6.652   8.853   7.603  1.3129 -1.4379 -3.7221
  519MOL0     H71616   6.459   8.874   7.739 -1.9188 -0.3497  2.7397
  519MOL0     H71617   6.576   8.846   7.847 -0.6906  2.1618 -1.2890
  519MOL0     H71618   6.379   8.479   7.910  3.3063 -2.4876 -0.7961
  519MOL0     H71619   6.163   8.893   7.460  1.4099 -0.1138 -0.4166
  519MOL0     H71620   5.861   9.005   7.335 -0.6061  2.6531  1.1795
  519MOL0     H71621   5.974   9.001   7.476  1.6063  2.6440  0.8462
  519MOL0     H71622   5.991   9.120   7.353 -1.4394  0.4122 -1.6842
  520MOL0     O71623   3.394  11.497   5.847 -0.5718  0.3576  0.4680
  520MOL0     C71624   3.391  11.580   5.938 -0.5064  0.0641  0.0740
  520MOL0     O71625   3.287  11.635   5.989  0.6366  0.2627  0.1771
  520MOL0     C71626   3.160  11.582   5.969  0.0497  0.0044 -1.0289
  520MOL0     C71627   3.071  11.669   5.910  0.8299 -0.0118 -0.8258
  520MOL0     C71628   2.955  11.619   5.872  0.9253 -0.2971  0.1201
  520MOL0     C71629   2.910  11.494   5.892  0.3693 -0.3785  0.2818
  520MOL0     O71630   2.785  11.461   5.849  0.6528  0.2955 -1.3652
  520MOL0     C71631   2.677  11.533   5.922 -0.0672  1.0508  0.3027
  520MOL0     C71632   2.562  11.528   5.825  0.3777  0.8517 -0.2053
  520MOL0     C71633   2.596  11.610   5.701  0.5466 -0.7254 -0.8781
  520MOL0     C71634   2.479  11.621   5.599 -0.3012 -1.3804 -0.9248
  520MOL0     C71635   2.374  11.719   5.656  0.0191 -0.0261 -0.0654
  520MOL0     C71636   2.246  11.711   5.567 -0.3976 -0.0805  0.2168
  520MOL0     C71637   2.125  11.804   5.617 -0.1450 -0.3676  0.0787
  520MOL0     C71638   1.999  11.778   5.525  0.5406 -0.5087 -0.0084
  520MOL0     N71639   1.935  11.646   5.530  0.5926 -0.5542  0.5173
  520MOL0     C71640   1.938  11.561   5.641  0.4621 -1.2755 -0.6936
  520MOL0     C71641   1.841  11.472   5.620 -1.7309 -0.0360 -0.0197
  520MOL0     C71642   1.805  11.349   5.700  0.5932  0.5273  0.0420
  520MOL0     C71643   1.900  11.312   5.827 -0.6995 -0.6786  0.4923
  520MOL0     C71644   1.849  11.175   5.878  0.9120 -0.9925  0.4433
  520MOL0     C71645   1.969  11.118   5.942  0.0075 -0.4903 -0.6381
  520MOL0     O71646   2.058  11.063   5.852  0.7963  0.0481 -0.5637
  520MOL0     C71647   2.137  10.953   5.881  0.3461 -0.1508  0.7228
  520MOL0     C71648   2.202  10.945   6.002 -0.9300  0.3298 -0.4287
  520MOL0     C71649   2.289  10.847   6.034 -0.2564 -0.0122  1.0444
  520MOL0     C71650   2.334  10.851   6.182 -0.2382  0.4337 -0.5864
  520MOL0     C71651   2.308  10.745   5.933 -0.5115 -0.9521 -1.2457
  520MOL0     C71652   2.400  10.626   5.943 -0.9893 -0.7046 -0.0797
  520MOL0     O71653   2.419  10.535   5.830 -0.3096 -0.3420 -0.5656
  520MOL0     C71654   2.530  10.445   5.829  0.2953  0.0323 -0.2756
  520MOL0     C71655   2.645  10.452   5.899  0.7292  0.6928 -0.3424
  520MOL0     C71656   2.750  10.355   5.889 -0.7733 -0.5236 -0.8797
  520MOL0     C71657   2.745  10.257   5.793 -0.7357 -0.1811 -0.6303
  520MOL0     O71658   2.861  10.191   5.774  0.0855  0.3805  0.4254
  520MOL0     C71659   2.887  10.098   5.678  0.0907  0.8896  0.4541
  520MOL0     C71660   3.002  10.004   5.724  0.0842  0.4406  0.0999
  520MOL0     C71661   3.092   9.961   5.605 -0.6741  0.6141 -1.3751
  520MOL0     C71662   3.021   9.888   5.489 -0.6742  1.2985 -0.6442
  520MOL0     C71663   3.077   9.901   5.350 -0.6283  0.3521 -0.1098
  520MOL0     C71664   3.227   9.853   5.342 -0.8032  0.8647 -0.2226
  520MOL0     C71665   3.296   9.902   5.218  0.2026 -0.4546  0.1932
  520MOL0     C71666   3.448   9.857   5.208  0.7391  0.7357 -0.5215
  520MOL0    Cl71667   3.464   9.679   5.199 -0.6450 -0.0444 -0.0892
  520MOL0     C71668   2.626  10.254   5.720  0.7077  0.5938 -0.2114
  520MOL0     C71669   2.521  10.348   5.732  0.8019 -0.7651  0.1165
  520MOL0     O71670   2.458  10.614   6.046 -0.0290 -0.1910  0.8262
  520MOL0     C71671   2.240  10.751   5.813 -0.4179 -0.1386  0.3813
  520MOL0     C71672   2.149  10.858   5.779  0.4787  0.7442  0.4533
  520MOL0     N71673   1.779  11.501   5.495 -0.3385 -0.7417 -0.6971
  520MOL0     N71674   1.840  11.597   5.444  0.2524 -0.2327  0.0704
  520MOL0     C71675   3.002  11.396   5.943 -0.0551  0.0552 -0.0731
  520MOL0     C71676   3.130  11.446   5.978 -0.2281  0.2223 -0.4810
  520MOL0     C71677   3.524  11.631   5.973 -0.2659  0.0940 -0.4367
  520MOL0     C71678   3.524  11.752   6.047 -0.1164 -0.0329  0.6032
  520MOL0     C71679   3.646  11.824   6.062 -0.4090  0.0724 -0.7096
  520MOL0     C71680   3.768  11.762   6.027  1.0681  0.1183  0.0469
  520MOL0     O71681   3.882  11.828   6.051  0.4785 -0.2181  0.2156
  520MOL0     C71682   3.993  11.805   5.967  0.1400 -0.1009 -0.0915
  520MOL0     C71683   4.049  11.938   5.933 -0.2041 -0.0857 -0.8795
  520MOL0     C71684   4.199  11.938   5.915 -0.4104  0.0667 -0.9399
  520MOL0     C71685   4.255  12.081   5.920  0.4169 -0.8060 -0.1346
  520MOL0     C71686   4.390  12.075   5.872 -0.5678 -0.1390 -0.8190
  520MOL0     C71687   4.510  12.082   5.851 -1.5471 -0.1289  0.1020
  520MOL0     C71688   3.763  11.632   5.975  0.3164  0.2955 -0.2181
  520MOL0     C71689   3.644  11.556   5.955  0.8592  0.0288 -0.1933
  520MOL0     C71690   3.663  11.422   5.898 -1.4126  0.2283  0.2397
  520MOL0     H71691   3.104  11.772   5.899 -0.8456  0.7485  0.8187
  520MOL0     H71692   2.878  11.678   5.824  0.4538 -1.4310 -0.5651
  520MOL0     H71693   2.698  11.638   5.945 -1.6324  2.0303 -2.3043
  520MOL0     H71694   2.647  11.489   6.018 -2.8392  2.9942  0.4531
  520MOL0     H71695   2.535  11.427   5.794  0.3043  0.9817 -0.5717
  520MOL0     H71696   2.478  11.571   5.882 -0.5119  3.6329 -3.2997
  520MOL0     H71697   2.625  11.710   5.735  0.4627 -1.3811  1.3025
  520MOL0     H71698   2.684  11.563   5.656 -0.1671 -3.2591  0.2151
  520MOL0     H71699   2.519  11.672   5.511 -2.6188  2.5597  0.0812
  520MOL0     H71700   2.426  11.526   5.587 -3.8245 -0.2582  3.0204
  520MOL0     H71701   2.408  11.822   5.643  1.7154 -0.5707 -0.2175
  520MOL0     H71702   2.340  11.711   5.759 -1.5520  0.3266 -0.5281
  520MOL0     H71703   2.276  11.745   5.467  4.4404 -2.1397  0.6980
  520MOL0     H71704   2.217  11.606   5.559 -0.6955  0.1037 -1.4949
  520MOL0     H71705   2.157  11.906   5.594 -3.2089  0.5503 -0.4958
  520MOL0     H71706   2.100  11.787   5.722  0.4341 -0.2927  0.2318
  520MOL0     H71707   1.926  11.853   5.559  0.9430  0.0812 -0.4211
  520MOL0     H71708   2.025  11.790   5.419  1.1159 -0.4739  0.1349
  520MOL0     H71709   2.003  11.585   5.725 -2.3823  0.5848  1.1349
  520MOL0     H71710   1.798  11.259   5.639 -0.2407 -1.4214  2.8367
  520MOL0     H71711   1.708  11.373   5.745 -0.0040  0.6515 -1.2729
  520MOL0     H71712   2.007  11.318   5.805 -0.6656  1.4117  1.0482
  520MOL0     H71713   1.878  11.398   5.891 -2.8832  1.7979 -3.2380
  520MOL0     H71714   1.765  11.185   5.947  0.8117  0.3015  0.1673
  520MOL0     H71715   1.810  11.107   5.803  1.7163 -1.9347  0.8525
  520MOL0     H71716   2.010  11.195   6.009 -0.8788  1.2883 -2.0350
  520MOL0     H71717   1.937  11.034   6.004  2.4893  0.7139  2.5141
  520MOL0     H71718   2.188  11.020   6.080  0.6514 -0.2138  0.4387
  520MOL0     H71719   2.441  10.825   6.181  0.0377  1.5073 -2.3627
  520MOL0     H71720   2.270  10.783   6.240 -1.8070 -0.8026 -3.5478
  520MOL0     H71721   2.327  10.951   6.224  2.0858 -0.1893  1.5640
  520MOL0     H71722   2.664  10.537   5.963 -0.8544  0.4168  0.5298
  520MOL0     H71723   2.839  10.365   5.951 -1.9274 -1.5464  1.0314
  520MOL0     H71724   2.806  10.033   5.646 -0.5402  2.2435 -0.8139
  520MOL0     H71725   2.909  10.157   5.589 -2.1859  1.9628  0.5318
  520MOL0     H71726   3.060  10.059   5.799  0.7146 -0.5306  0.3446
  520MOL0     H71727   2.956   9.916   5.771 -0.2518 -0.4392 -1.7538
  520MOL0     H71728   3.162   9.885   5.640 -1.5163  0.1270 -0.7173
  520MOL0     H71729   3.146  10.048   5.567  0.0153  1.6194  1.6366
  520MOL0     H71730   2.915   9.912   5.475 -0.8870  0.0990 -1.2790
  520MOL0     H71731   3.012   9.782   5.516  0.8018  0.8932 -1.6120
  520MOL0     H71732   3.013   9.850   5.277 -1.4240  2.3637 -0.9083
  520MOL0     H71733   3.077  10.008   5.328  0.0427  0.3660 -0.0530
  520MOL0     H71734   3.221   9.745   5.360 -1.0422  0.6092 -1.7637
  520MOL0     H71735   3.278   9.898   5.428  0.3207 -2.4645  1.0441
  520MOL0     H71736   3.282  10.010   5.212 -1.4524 -0.7358 -2.4071
  520MOL0     H71737   3.243   9.858   5.134 -0.1212  0.1194  0.0943
  520MOL0     H71738   3.507   9.891   5.294  0.6520 -1.3680  0.4423
  520MOL0     H71739   3.498   9.895   5.119 -0.9730  1.5261 -1.2066
  520MOL0     H71740   2.598  10.169   5.659 -0.4133  1.5357 -1.0442
  520MOL0     H71741   2.429  10.345   5.675  0.0205  2.9869  0.9201
  520MOL0     H71742   2.261  10.675   5.739  2.7412 -1.3005  2.2749
  520MOL0     H71743   2.108  10.867   5.678  2.6704 -1.9593 -0.7873
  520MOL0     H71744   2.968  11.293   5.939  1.8081 -0.5833 -0.1911
  520MOL0     H71745   3.204  11.382   6.024  0.3976  1.1835 -0.1249
  520MOL0     H71746   3.438  11.811   6.076  0.2283 -0.8934  3.7131
  520MOL0     H71747   3.632  11.918   6.114 -0.0136  0.2640 -0.9482
  520MOL0     H71748   4.072  11.742   6.008  3.6355  3.8164 -0.0811
  520MOL0     H71749   3.955  11.768   5.871 -0.9412  2.7937 -0.9086
  520MOL0     H71750   4.025  12.002   6.019 -2.0466  0.3426 -1.6604
  520MOL0     H71751   4.003  11.981   5.844  0.2475  1.3034 -0.4621
  520MOL0     H71752   4.240  11.870   5.990 -3.1430 -3.5853 -2.4605
  520MOL0     H71753   4.215  11.890   5.818  0.5287 -2.4870  0.3818
  520MOL0     H71754   4.231  12.145   6.006  0.8715  0.3011 -0.8042
  520MOL0     H71755   4.212  12.133   5.834  0.1631  0.5942  0.7976
  520MOL0     H71756   4.616  12.090   5.839 -1.5745  1.5805  0.6121
  520MOL0     H71757   3.858  11.585   5.950  2.4434  3.6519  0.7755
  520MOL0     H71758   3.663  11.441   5.790 -0.3370 -1.4913 -0.0939
  520MOL0     H71759   3.755  11.374   5.933 -2.2152  0.1070  2.3490
  520MOL0     H71760   3.592  11.346   5.932 -0.5286 -0.1366  1.3409
  521MOL0     O71761   1.665  11.389   0.879  0.0167 -0.0512 -0.1701
  521MOL0     C71762   1.679  11.454   0.980  1.0486  0.4549  0.0655
  521MOL0     O71763   1.803  11.493   1.029  1.1431  0.9687  0.2034
  521MOL0     C71764   1.912  11.456   0.953 -0.6613  0.5995  0.6548
  521MOL0     C71765   1.964  11.552   0.863 -0.1667 -0.2940 -0.6707
  521MOL0     C71766   2.025  11.527   0.740  0.3071  0.7245  0.5524
  521MOL0     C71767   2.065  11.388   0.712  0.3043 -0.4034 -0.3961
  521MOL0     O71768   2.128  11.357   0.603 -0.5009  0.3099  0.4072
  521MOL0     C71769   2.145  11.218   0.562  0.2442 -0.0230  0.3426
  521MOL0     C71770   2.168  11.229   0.411  0.4164  0.8457 -0.1961
  521MOL0     C71771   2.201  11.093   0.357 -0.1960  0.0589  0.2362
  521MOL0     C71772   2.344  11.058   0.362 -0.9065  0.0769 -0.6993
  521MOL0     C71773   2.358  10.921   0.279  1.0477 -0.3457 -0.0072
  521MOL0     C71774   2.500  10.858   0.271 -0.2915  0.1266  0.3919
  521MOL0     C71775   2.474  10.713   0.251 -0.0277 -0.2896  0.3836
  521MOL0     C71776   2.587  10.608   0.254 -0.0088 -0.4096 -0.2226
  521MOL0     N71777   2.535  10.473   0.276  0.7581 -0.1273  0.5022
  521MOL0     C71778   2.605  10.389   0.364 -0.0654  0.4051  0.2506
  521MOL0     C71779   2.544  10.274   0.350 -0.1792 -0.0906  0.1049
  521MOL0     C71780   2.593  10.140   0.405  0.3159 -0.4173 -0.1731
  521MOL0     C71781   2.471  10.057   0.466  0.0485 -0.3814  0.1103
  521MOL0     C71782   2.408  10.114   0.592  0.2896 -1.2294 -0.2804
  521MOL0     C71783   2.301  10.018   0.656 -0.4282  0.8315  0.2841
  521MOL0     O71784   2.188  10.036   0.578  0.8716  1.1548 -1.0182
  521MOL0     C71785   2.134   9.933   0.503 -0.9479  1.1156  0.2174
  521MOL0     C71786   2.180   9.798   0.507  0.0057 -0.9483  0.2470
  521MOL0     C71787   2.103   9.699   0.443 -1.1464 -0.2326 -0.1780
  521MOL0     C71788   2.153   9.568   0.473  0.5044  0.3897  0.2833
  521MOL0     C71789   1.994   9.733   0.355  0.3655  0.7748  0.4150
  521MOL0     C71790   1.903   9.634   0.292 -0.5739 -0.7445 -0.4596
  521MOL0     O71791   1.883   9.662   0.155 -0.5966 -0.2248 -0.4282
  521MOL0     C71792   1.840   9.555   0.075 -0.5057  0.2060 -0.1978
  521MOL0     C71793   1.884   9.417   0.093 -0.3669  0.9695  0.3034
  521MOL0     C71794   1.828   9.312   0.022 -0.1835 -0.1452 -0.0552
  521MOL0     C71795   1.743   9.351  -0.088 -0.7293  0.2685 -0.0017
  521MOL0     O71796   1.685   9.267  -0.179  0.5902  0.7130 -0.1458
  521MOL0     C71797   1.702   9.125  -0.147 -0.1535 -0.0147  0.3708
  521MOL0     C71798   1.848   9.076  -0.181 -0.1342  0.1431 -0.1723
  521MOL0     C71799   1.853   9.003  -0.316 -0.0804 -0.6741  0.1929
  521MOL0     C71800   1.968   8.893  -0.318  0.6392  0.0791  0.4599
  521MOL0     C71801   1.934   8.802  -0.426  0.1180  0.0119 -0.8402
  521MOL0     C71802   2.036   8.685  -0.432  1.6564 -0.0043 -0.5270
  521MOL0     C71803   2.044   8.608  -0.560 -0.2400 -0.7712 -0.6278
  521MOL0     C71804   1.908   8.543  -0.593 -0.4230 -0.6640 -0.9521
  521MOL0    Cl71805   1.932   8.501  -0.764 -0.2571  0.0775  0.0959
  521MOL0     C71806   1.709   9.477  -0.112 -0.2501  0.1527  0.1348
  521MOL0     C71807   1.763   9.581  -0.034  0.3581  0.8162 -0.3298
  521MOL0     O71808   1.863   9.543   0.352  0.9191 -0.1926 -0.2176
  521MOL0     C71809   1.973   9.868   0.339 -0.0430 -0.0620  0.1095
  521MOL0     C71810   2.032   9.966   0.409  0.2443  0.0936 -0.5401
  521MOL0     N71811   2.444  10.280   0.258  0.2168 -0.7154  0.4789
  521MOL0     N71812   2.442  10.399   0.206  0.3088  0.1491  0.2596
  521MOL0     C71813   2.029  11.291   0.815 -0.8309  1.1209 -0.1369
  521MOL0     C71814   1.967  11.324   0.935  0.0603  0.7803 -0.0898
  521MOL0     C71815   1.554  11.485   1.052  0.5344  0.5522  0.3921
  521MOL0     C71816   1.426  11.473   0.976 -0.2691  0.5869 -0.6766
  521MOL0     C71817   1.306  11.518   1.029  0.2066  0.8486 -1.0244
  521MOL0     C71818   1.301  11.566   1.153  0.5879  0.8849 -0.2860
  521MOL0     O71819   1.181  11.588   1.220  0.2198  0.7634  0.6619
  521MOL0     C71820   1.187  11.591   1.368 -0.0371  0.5713  0.3864
  521MOL0     C71821   1.195  11.738   1.413 -0.5758  0.0611  0.4543
  521MOL0     C71822   1.102  11.840   1.340 -0.1925 -0.4590  0.2844
  521MOL0     C71823   1.102  11.979   1.400 -0.0048 -0.0490  0.1170
  521MOL0     C71824   1.041  12.065   1.297 -0.7950 -0.1345  0.7012
  521MOL0     C71825   0.995  12.134   1.210 -0.5473  0.1254  0.2517
  521MOL0     C71826   1.424  11.596   1.214 -0.2222 -0.1403 -0.9899
  521MOL0     C71827   1.546  11.551   1.169 -0.5225 -0.3462 -0.3871
  521MOL0     C71828   1.670  11.582   1.252  1.0235 -0.5500 -0.3492
  521MOL0     H71829   1.957  11.658   0.886 -2.8186  0.0358 -2.5074
  521MOL0     H71830   2.047  11.602   0.665 -3.2673  0.2220 -1.1826
  521MOL0     H71831   2.054  11.158   0.570  0.3546 -0.3450 -0.5700
  521MOL0     H71832   2.227  11.167   0.613  0.6355 -0.5365 -0.7559
  521MOL0     H71833   2.068  11.257   0.377 -0.4627  3.2059  3.6554
  521MOL0     H71834   2.246  11.298   0.379  1.4466 -1.6567 -3.5374
  521MOL0     H71835   2.147  11.013   0.409  2.0868  0.3576  3.3033
  521MOL0     H71836   2.167  11.085   0.254  0.7067  5.1655 -0.6874
  521MOL0     H71837   2.403  11.135   0.312 -3.4626  2.0341 -0.8795
  521MOL0     H71838   2.364  11.035   0.467 -1.2872 -4.5045 -1.3867
  521MOL0     H71839   2.319  10.921   0.177  1.6111 -4.1986 -0.3786
  521MOL0     H71840   2.279  10.855   0.315 -1.7048  1.0803 -2.9622
  521MOL0     H71841   2.570  10.893   0.195  1.6956 -1.8564  1.1872
  521MOL0     H71842   2.547  10.887   0.366  2.7491  0.5818 -1.1285
  521MOL0     H71843   2.408  10.703   0.164  0.3620 -0.8309  0.1372
  521MOL0     H71844   2.398  10.683   0.323 -1.4112  1.8018 -0.1303
  521MOL0     H71845   2.640  10.622   0.159 -1.4031  3.7054 -0.6321
  521MOL0     H71846   2.662  10.630   0.330 -0.3771  2.0242 -0.4824
  521MOL0     H71847   2.679  10.399   0.442 -0.4215  2.1211  0.4239
  521MOL0     H71848   2.680  10.159   0.469  1.1920  1.2590 -1.7482
  521MOL0     H71849   2.632  10.095   0.314  1.2614  1.2979 -0.6578
  521MOL0     H71850   2.383  10.059   0.400 -0.9709 -0.4666  1.4114
  521MOL0     H71851   2.498   9.953   0.481 -0.2732 -0.8868 -2.4384
  521MOL0     H71852   2.482  10.147   0.666  0.6366 -0.5500 -0.9195
  521MOL0     H71853   2.354  10.205   0.563  1.8406 -0.2253 -0.1600
  521MOL0     H71854   2.348   9.920   0.664  0.3656  1.1612 -0.1547
  521MOL0     H71855   2.272  10.039   0.759  0.9682 -1.3033  1.1806
  521MOL0     H71856   2.258   9.774   0.578 -1.3448  2.9634  3.4854
  521MOL0     H71857   2.108   9.525   0.563  1.5032 -1.5435 -0.0945
  521MOL0     H71858   2.262   9.559   0.473  0.3294 -2.9322  0.8551
  521MOL0     H71859   2.125   9.507   0.387  2.5438 -0.3696  0.0884
  521MOL0     H71860   1.961   9.397   0.168 -0.6355 -3.6315 -0.3412
  521MOL0     H71861   1.856   9.212   0.056 -0.7683 -1.4233 -2.9698
  521MOL0     H71862   1.679   9.113  -0.041 -0.3168  1.6743  0.5507
  521MOL0     H71863   1.630   9.059  -0.196 -0.6744 -0.1927  1.3498
  521MOL0     H71864   1.913   9.164  -0.187 -0.0963  0.2065  0.9766
  521MOL0     H71865   1.886   9.009  -0.104 -2.3040 -1.4760 -0.4211
  521MOL0     H71866   1.881   9.073  -0.395 -2.5702  1.7879  1.3253
  521MOL0     H71867   1.755   8.958  -0.331 -1.7881  2.5948  0.5677
  521MOL0     H71868   1.973   8.840  -0.223 -1.6434 -1.7281 -0.3391
  521MOL0     H71869   2.071   8.929  -0.332  0.7201  0.1375  1.1932
  521MOL0     H71870   1.834   8.761  -0.408  1.0220 -1.4378  1.2617
  521MOL0     H71871   1.940   8.858  -0.520  1.9346 -1.2745 -1.5714
  521MOL0     H71872   2.026   8.627  -0.340  2.1374 -0.0337 -0.4913
  521MOL0     H71873   2.138   8.724  -0.424  1.3769  1.1145 -1.9809
  521MOL0     H71874   2.125   8.536  -0.543  1.4366  1.4400  1.6434
  521MOL0     H71875   2.074   8.679  -0.638 -2.8726 -0.0229 -1.0387
  521MOL0     H71876   1.824   8.612  -0.584 -0.9957 -1.5403  0.6549
  521MOL0     H71877   1.899   8.468  -0.514  1.7424 -0.6145 -0.5929
  521MOL0     H71878   1.637   9.492  -0.191 -0.7683 -1.6671  0.2120
  521MOL0     H71879   1.746   9.682  -0.071 -0.1791  1.1683  0.8209
  521MOL0     H71880   1.894   9.893   0.269 -1.0680 -0.8944  0.9266
  521MOL0     H71881   2.002  10.067   0.383  0.0152 -0.4549 -2.5789
  521MOL0     H71882   2.051  11.185   0.806 -2.9739  0.5542  0.6606
  521MOL0     H71883   1.932  11.246   1.002 -4.1699  1.2009 -1.5169
  521MOL0     H71884   1.410  11.432   0.877 -2.7656 -0.1914 -0.0248
  521MOL0     H71885   1.223  11.486   0.966 -0.6664 -1.7354  1.2233
  521MOL0     H71886   1.089  11.550   1.395  0.2862 -1.6196 -1.4211
  521MOL0     H71887   1.266  11.530   1.412  0.5735  1.3693  0.4061
  521MOL0     H71888   1.293  11.783   1.431  0.0090 -0.5542 -1.0674
  521MOL0     H71889   1.150  11.736   1.512 -3.3887  2.7685 -0.5968
  521MOL0     H71890   1.156  11.850   1.245  2.4068  1.0105  1.8063
  521MOL0     H71891   0.999  11.806   1.328 -0.8484  1.8403 -1.2911
  521MOL0     H71892   1.204  12.012   1.423  0.1250 -0.8147  0.6708
  521MOL0     H71893   1.053  11.975   1.498  2.4028  0.4842  1.4500
  521MOL0     H71894   0.959  12.205   1.138  1.7368  0.2550 -0.8491
  521MOL0     H71895   1.424  11.647   1.310 -1.1649 -1.6783 -0.1381
  521MOL0     H71896   1.732  11.651   1.196  1.2815  0.1103  0.7240
  521MOL0     H71897   1.656  11.631   1.349  1.1957 -2.8365  0.9233
  521MOL0     H71898   1.724  11.489   1.273  2.5133  0.4661  0.4959
  522MOL0     O71899   8.126   7.438   7.156 -0.6026 -0.0684  0.5996
  522MOL0     C71900   8.094   7.451   7.044 -0.8073  0.1256 -0.8669
  522MOL0     O71901   7.999   7.379   6.984 -0.0963 -0.6104  0.2176
  522MOL0     C71902   7.899   7.341   7.070 -0.9048 -0.5703 -0.0216
  522MOL0     C71903   7.896   7.213   7.135 -0.1484  0.7703 -0.8850
  522MOL0     C71904   7.762   7.173   7.183 -0.9013  0.4104 -1.2115
  522MOL0     C71905   7.651   7.262   7.192  0.3896  0.2140 -0.1165
  522MOL0     O71906   7.534   7.238   7.268  1.0600  0.0282  0.3756
  522MOL0     C71907   7.495   7.102   7.266  0.5783  0.8445  1.3353
  522MOL0     C71908   7.340   7.103   7.274  0.0948  0.1506 -0.8266
  522MOL0     C71909   7.281   6.986   7.334 -0.8144 -0.4144  0.4710
  522MOL0     C71910   7.131   6.991   7.320  0.7560 -0.5258 -0.3425
  522MOL0     C71911   7.060   6.869   7.373 -0.2675 -0.4472 -0.4712
  522MOL0     C71912   7.048   6.861   7.521 -0.0102 -0.5364  0.7813
  522MOL0     C71913   6.954   6.754   7.569 -0.1995 -0.0630 -0.7834
  522MOL0     C71914   6.967   6.723   7.713  0.1186  0.5218  0.3315
  522MOL0     N71915   6.850   6.649   7.761  0.2673  0.1117  0.6094
  522MOL0     C71916   6.737   6.715   7.811 -0.9555  0.0145 -0.7857
  522MOL0     C71917   6.634   6.626   7.814 -0.7989 -0.6040 -0.1456
  522MOL0     C71918   6.491   6.654   7.846 -0.5909 -1.0591 -0.9025
  522MOL0     C71919   6.443   6.549   7.941  0.1724 -0.0092  0.5032
  522MOL0     C71920   6.335   6.593   8.047  0.0479  0.2795 -0.3638
  522MOL0     C71921   6.255   6.476   8.111  0.2667  0.0460  0.0321
  522MOL0     O71922   6.147   6.531   8.193 -0.1220 -1.1670 -0.0319
  522MOL0     C71923   6.022   6.549   8.141  0.8423 -0.4518 -0.0730
  522MOL0     C71924   5.992   6.535   8.002  0.2173  0.2100  0.3524
  522MOL0     C71925   5.865   6.544   7.960 -0.9775  0.4059 -0.4194
  522MOL0     C71926   5.825   6.521   7.820  0.4921  1.4946 -0.4802
  522MOL0     C71927   5.760   6.577   8.054 -0.7883 -0.0098  0.4455
  522MOL0     C71928   5.620   6.606   8.017  0.1851 -0.4867 -1.3820
  522MOL0     O71929   5.522   6.568   8.105 -0.6815  0.2470 -0.1599
  522MOL0     C71930   5.401   6.634   8.081  0.1789 -0.0449 -0.9240
  522MOL0     C71931   5.329   6.636   7.968  0.8529  0.3773  0.0133
  522MOL0     C71932   5.196   6.694   7.954 -0.6285 -0.2245  0.0299
  522MOL0     C71933   5.131   6.744   8.067 -0.4263  0.0692  0.0788
  522MOL0     O71934   5.004   6.791   8.041  0.4345 -0.3949  0.0940
  522MOL0     C71935   4.900   6.774   8.145 -0.0987 -0.6158  1.6453
  522MOL0     C71936   4.791   6.859   8.104 -0.3718 -0.4983  0.6749
  522MOL0     C71937   4.669   6.852   8.207  0.7781 -0.7310  0.3886
  522MOL0     C71938   4.573   6.973   8.196 -0.5767  0.6376  0.1662
  522MOL0     C71939   4.445   6.977   8.269  0.2955  0.5247  0.2397
  522MOL0     C71940   4.459   6.956   8.423  0.1917 -0.1925 -0.3166
  522MOL0     C71941   4.328   6.982   8.483  0.0694  0.2672 -0.2754
  522MOL0     C71942   4.225   6.876   8.449  1.0131  0.3589  0.8142
  522MOL0    Cl71943   4.140   6.909   8.299  0.1633  0.3213  0.0073
  522MOL0     C71944   5.208   6.753   8.181  0.0007  0.3625  0.3531
  522MOL0     C71945   5.344   6.700   8.189 -0.1799  0.4206  0.1235
  522MOL0     O71946   5.599   6.672   7.916 -0.2806  1.2756 -0.3984
  522MOL0     C71947   5.781   6.585   8.190  0.7464 -0.9481  0.1366
  522MOL0     C71948   5.912   6.560   8.233  0.5358  0.3466 -0.3377
  522MOL0     N71949   6.681   6.506   7.759 -0.3111  0.4575 -0.3560
  522MOL0     N71950   6.805   6.521   7.731  0.1786  0.5700 -0.2420
  522MOL0     C71951   7.663   7.394   7.138  0.8309  0.8633 -0.3926
  522MOL0     C71952   7.784   7.430   7.078 -0.8447 -0.5768 -0.0256
  522MOL0     C71953   8.173   7.555   6.979  0.7331 -0.3586 -0.3078
  522MOL0     C71954   8.279   7.623   7.048 -0.8304 -0.5800  0.8966
  522MOL0     C71955   8.345   7.737   6.996  0.6967 -0.4243 -0.1296
  522MOL0     C71956   8.313   7.782   6.862 -0.3906 -0.6252  0.1840
  522MOL0     O71957   8.371   7.884   6.797 -0.3263 -0.1207 -0.8400
  522MOL0     C71958   8.505   7.907   6.836  0.1723  0.9465  0.2105
  522MOL0     C71959   8.573   7.993   6.733  0.3090  0.0108  0.4472
  522MOL0     C71960   8.499   8.120   6.701  0.5076 -0.4304  1.8049
  522MOL0     C71961   8.483   8.212   6.820  0.0050 -0.4617 -0.6415
  522MOL0     C71962   8.611   8.277   6.868  0.3399  0.3178 -0.1497
  522MOL0     C71963   8.718   8.316   6.904 -0.6452  0.5422  0.3033
  522MOL0     C71964   8.210   7.709   6.793 -0.4006  0.3476 -0.0679
  522MOL0     C71965   8.145   7.600   6.845 -0.0412  0.0373  0.1159
  522MOL0     C71966   8.039   7.523   6.756 -0.3423 -0.1755  0.1440
  522MOL0     H71967   7.980   7.145   7.136  0.6290  1.6852  1.1771
  522MOL0     H71968   7.754   7.074   7.225 -1.6388  0.6081 -0.8709
  522MOL0     H71969   7.527   7.044   7.353  2.5711 -2.3116 -1.2855
  522MOL0     H71970   7.533   7.049   7.178 -0.3631  3.2545 -0.6253
  522MOL0     H71971   7.310   7.188   7.336  0.1119 -1.1353  1.0183
  522MOL0     H71972   7.297   7.103   7.173 -1.9208 -0.9621 -0.0348
  522MOL0     H71973   7.326   6.901   7.281  1.0334  1.0790 -0.4552
  522MOL0     H71974   7.298   6.985   7.442  1.5792  3.0237  0.2649
  522MOL0     H71975   7.103   7.078   7.379  2.1577  1.3201 -2.2299
  522MOL0     H71976   7.104   7.003   7.214 -1.8011 -1.1435  0.1798
  522MOL0     H71977   7.108   6.777   7.339 -2.5704 -1.0811 -2.3004
  522MOL0     H71978   6.962   6.872   7.323 -0.4312 -1.5027 -0.2384
  522MOL0     H71979   7.148   6.838   7.560  1.7214 -1.7046 -3.6905
  522MOL0     H71980   7.013   6.956   7.563 -0.9601 -2.0661  3.7177
  522MOL0     H71981   6.975   6.659   7.518 -1.1247  0.4738 -2.2289
  522MOL0     H71982   6.852   6.791   7.557 -0.2662  1.3633  3.0173
  522MOL0     H71983   7.064   6.678   7.739  0.6077  0.4971 -1.4270
  522MOL0     H71984   6.953   6.818   7.766  0.9789  0.6078  0.4153
  522MOL0     H71985   6.726   6.820   7.833 -1.9570 -0.3219  0.4741
  522MOL0     H71986   6.427   6.650   7.757 -1.2331  3.0094 -0.8179
  522MOL0     H71987   6.488   6.752   7.895 -3.3951 -0.2910 -2.3920
  522MOL0     H71988   6.395   6.469   7.884 -1.1499  1.0906  0.0249
  522MOL0     H71989   6.522   6.505   8.002 -0.6798  2.9772  4.1509
  522MOL0     H71990   6.392   6.633   8.132 -0.6802 -0.7421  0.6340
  522MOL0     H71991   6.262   6.665   8.011  0.9257  3.4248  3.4955
  522MOL0     H71992   6.229   6.395   8.042 -0.8387  2.7054 -2.9035
  522MOL0     H71993   6.325   6.417   8.170 -1.5756  0.2105  2.5638
  522MOL0     H71994   6.061   6.508   7.923  0.2174 -2.6171  1.2073
  522MOL0     H71995   5.894   6.457   7.765  1.0310 -0.2253  1.9752
  522MOL0     H71996   5.818   6.626   7.790 -1.8300  1.1884 -1.2188
  522MOL0     H71997   5.720   6.492   7.807  0.1797  3.0128 -1.6315
  522MOL0     H71998   5.376   6.591   7.881  0.2964  0.6255 -0.4212
  522MOL0     H71999   5.136   6.699   7.864 -3.3432  1.3309  1.7668
  522MOL0     H72000   4.860   6.672   8.140 -0.8749 -0.2710  0.3689
  522MOL0     H72001   4.934   6.795   8.247 -0.9886  1.3238  1.5842
  522MOL0     H72002   4.828   6.962   8.096  0.1074 -0.8295 -3.8102
  522MOL0     H72003   4.744   6.831   8.009  0.4201  1.2385 -0.2864
  522MOL0     H72004   4.717   6.864   8.304  3.7540  2.6323 -1.2884
  522MOL0     H72005   4.613   6.758   8.197  1.0598 -0.7114 -1.9126
  522MOL0     H72006   4.539   6.976   8.092  2.0980 -4.1643 -1.1258
  522MOL0     H72007   4.632   7.061   8.220  0.7830  0.4298 -2.1232
  522MOL0     H72008   4.380   7.063   8.253  0.2303  0.1909 -1.5507
  522MOL0     H72009   4.398   6.885   8.233  1.9318 -0.5983  0.8378
  522MOL0     H72010   4.534   7.026   8.461  0.8602  0.4575 -2.6480
  522MOL0     H72011   4.494   6.858   8.456 -1.2431 -0.6153  0.0141
  522MOL0     H72012   4.295   7.083   8.455 -1.1319 -0.4013 -1.3586
  522MOL0     H72013   4.352   6.973   8.589 -0.1959 -1.6112 -0.3337
  522MOL0     H72014   4.151   6.876   8.530 -0.7507 -0.8426 -0.7288
  522MOL0     H72015   4.278   6.781   8.439  0.0202 -0.3035  1.5975
  522MOL0     H72016   5.173   6.804   8.270 -0.0709  0.2587  0.3856
  522MOL0     H72017   5.395   6.715   8.283  0.6300  0.3827 -0.3015
  522MOL0     H72018   5.701   6.595   8.263 -0.0449  0.9061 -0.8931
  522MOL0     H72019   5.925   6.549   8.341  0.2246  5.4147  0.4464
  522MOL0     H72020   7.575   7.458   7.134 -1.4213 -2.0798 -2.6604
  522MOL0     H72021   7.792   7.522   7.021 -1.5480 -0.1079  0.6041
  522MOL0     H72022   8.309   7.588   7.146  1.0918 -1.5754 -0.0034
  522MOL0     H72023   8.414   7.789   7.061 -2.0660 -0.5487  3.1949
  522MOL0     H72024   8.522   7.946   6.937  0.6309  1.0577  0.0965
  522MOL0     H72025   8.554   7.809   6.834 -0.2609  0.6331  2.5769
  522MOL0     H72026   8.588   7.939   6.639  2.6605  0.4790  0.4868
  522MOL0     H72027   8.669   8.029   6.774 -0.5574 -0.0757  2.7142
  522MOL0     H72028   8.545   8.180   6.622 -0.0892 -0.0441  1.7483
  522MOL0     H72029   8.400   8.096   6.662  0.0404 -0.1133  2.7749
  522MOL0     H72030   8.425   8.162   6.898 -0.6468  0.7244 -0.3457
  522MOL0     H72031   8.421   8.292   6.778 -2.9738 -1.7496  0.9702
  522MOL0     H72032   8.817   8.336   6.940  0.0088  0.0876 -1.1515
  522MOL0     H72033   8.199   7.730   6.687  0.5460 -1.1906 -0.4940
  522MOL0     H72034   7.943   7.539   6.807 -0.3433  1.4602 -0.3259
  522MOL0     H72035   8.034   7.571   6.658 -2.7446  1.7768  1.1175
  522MOL0     H72036   8.051   7.415   6.751 -3.0600 -0.4807 -1.8456
  523MOL0     O72037   5.850   1.439   7.443  0.2053  0.5880 -0.4618
  523MOL0     C72038   5.797   1.357   7.514 -0.4703  0.2168 -0.6430
  523MOL0     O72039   5.668   1.316   7.495  0.4293  0.0375 -0.6449
  523MOL0     C72040   5.623   1.345   7.372 -0.4623 -0.4279 -0.0207
  523MOL0     C72041   5.527   1.447   7.356 -0.0954 -1.0517 -0.4112
  523MOL0     C72042   5.479   1.471   7.229  0.6366  0.1019 -0.4470
  523MOL0     C72043   5.507   1.384   7.118 -0.4220  0.7017 -0.5234
  523MOL0     O72044   5.439   1.408   7.005 -0.5213 -0.0348 -0.1497
  523MOL0     C72045   5.515   1.416   6.888 -0.2535  0.2126  0.0743
  523MOL0     C72046   5.430   1.463   6.764 -0.9683 -0.0392 -0.3635
  523MOL0     C72047   5.362   1.599   6.797  0.0593  0.2392  0.8499
  523MOL0     C72048   5.216   1.570   6.823 -1.0747 -0.5150  0.4543
  523MOL0     C72049   5.159   1.698   6.882  0.1342  0.7363 -0.8130
  523MOL0     C72050   5.208   1.834   6.821 -0.9058  0.1973  0.4702
  523MOL0     C72051   5.142   1.960   6.886  0.1085  0.1294 -0.8572
  523MOL0     C72052   5.180   1.979   7.035  0.7847  0.6366  0.4129
  523MOL0     N72053   5.110   2.087   7.098 -0.7695 -0.1990 -0.6941
  523MOL0     C72054   4.972   2.108   7.120  0.4269  0.8605  0.7157
  523MOL0     C72055   4.966   2.212   7.204 -0.2448 -1.3530  0.4726
  523MOL0     C72056   4.838   2.266   7.260 -0.0083  0.1469 -0.9781
  523MOL0     C72057   4.815   2.228   7.409 -0.3766 -0.4022 -0.3959
  523MOL0     C72058   4.774   2.083   7.425  0.2723  0.0080  0.5476
  523MOL0     C72059   4.728   2.041   7.561 -0.7103  0.0160 -0.1816
  523MOL0     O72060   4.859   2.029   7.635  0.5023  1.0816  0.5377
  523MOL0     C72061   4.853   1.963   7.751  0.4385  1.4118 -0.2894
  523MOL0     C72062   4.920   1.846   7.770 -1.0639 -0.0989 -0.5470
  523MOL0     C72063   4.941   1.789   7.900  0.0444 -0.2425 -0.3244
  523MOL0     C72064   5.007   1.651   7.906 -1.1499  0.0299 -0.0827
  523MOL0     C72065   4.867   1.847   8.012 -0.0553  0.2098 -0.0405
  523MOL0     C72066   4.881   1.807   8.154 -0.7126 -0.1362  0.3617
  523MOL0     O72067   4.788   1.870   8.234  0.4448 -0.0039  0.0778
  523MOL0     C72068   4.825   1.861   8.366  0.6445 -0.7687  1.3174
  523MOL0     C72069   4.751   1.774   8.442  0.6622  0.1151 -0.7121
  523MOL0     C72070   4.780   1.776   8.583 -0.3053  0.1791 -0.3208
  523MOL0     C72071   4.884   1.851   8.642 -0.2117 -0.3260 -0.8607
  523MOL0     O72072   4.924   1.816   8.767  0.3874 -1.3488  0.2940
  523MOL0     C72073   5.024   1.893   8.844 -0.0674  0.5052 -0.5594
  523MOL0     C72074   4.994   2.039   8.851 -0.0534 -0.6563 -0.2191
  523MOL0     C72075   4.836   2.061   8.861  0.2458  0.1069  0.3217
  523MOL0     C72076   4.796   2.199   8.909  0.6982 -0.1212  0.8053
  523MOL0     C72077   4.793   2.292   8.793 -0.4581  0.0756  0.5683
  523MOL0     C72078   4.708   2.254   8.674 -0.5246 -0.0542  0.2388
  523MOL0     C72079   4.667   2.374   8.597 -0.9653  0.1264  0.9818
  523MOL0     C72080   4.626   2.352   8.452 -0.1744 -0.6677 -1.2687
  523MOL0    Cl72081   4.752   2.255   8.355  0.2279 -0.0474 -0.1721
  523MOL0     C72082   4.961   1.922   8.551 -0.4770  0.3337 -0.6726
  523MOL0     C72083   4.933   1.935   8.417  0.4094 -0.6424 -0.3410
  523MOL0     O72084   4.947   1.707   8.184  0.0315  0.8448  0.2816
  523MOL0     C72085   4.789   1.960   7.977  0.0010  0.7219  0.0216
  523MOL0     C72086   4.788   2.026   7.854 -0.2958  0.1097  0.0517
  523MOL0     N72087   5.091   2.274   7.223  0.5841  0.3206 -0.4839
  523MOL0     N72088   5.176   2.187   7.160 -0.2703  0.5317  0.1233
  523MOL0     C72089   5.605   1.289   7.137 -0.1402 -0.6058  0.8890
  523MOL0     C72090   5.667   1.266   7.260  0.5507 -0.3800 -0.4335
  523MOL0     C72091   5.888   1.285   7.606 -0.0592  0.7101 -0.2154
  523MOL0     C72092   6.014   1.345   7.622  0.5862 -0.8756 -0.2825
  523MOL0     C72093   6.105   1.292   7.710 -0.1966  0.7215 -0.5129
  523MOL0     C72094   6.075   1.173   7.776  0.0973 -0.9356  0.4560
  523MOL0     O72095   6.179   1.121   7.850 -0.0908  0.3292  0.2580
  523MOL0     C72096   6.153   1.054   7.970  0.1103 -0.3584  0.6735
  523MOL0     C72097   6.060   1.131   8.072 -0.1310 -0.4900 -0.2737
  523MOL0     C72098   6.091   1.105   8.223  0.3393  0.5568  1.3942
  523MOL0     C72099   6.050   0.966   8.260  0.1304  0.3566 -0.6517
  523MOL0     C72100   5.924   0.919   8.189  0.4232  0.0262  0.2040
  523MOL0     C72101   5.818   0.892   8.132  0.6069  0.1209 -0.8467
  523MOL0     C72102   5.947   1.118   7.764 -1.1168  0.8347 -0.6555
  523MOL0     C72103   5.853   1.172   7.681  0.3117  0.5134 -1.6974
  523MOL0     C72104   5.709   1.116   7.683 -0.3251  0.2331  0.6781
  523MOL0     H72105   5.496   1.496   7.447  0.2829 -0.5041 -0.5744
  523MOL0     H72106   5.403   1.549   7.234  1.6610  1.0385  2.4394
  523MOL0     H72107   5.562   1.319   6.867 -0.8950 -0.8936  3.1520
  523MOL0     H72108   5.597   1.487   6.896 -0.8432  1.2715 -2.4276
  523MOL0     H72109   5.491   1.472   6.674 -0.9635 -0.6555 -0.4291
  523MOL0     H72110   5.346   1.395   6.744 -0.9729 -0.0459 -0.3219
  523MOL0     H72111   5.396   1.639   6.892  1.3279 -0.7571  0.8443
  523MOL0     H72112   5.390   1.662   6.712  3.4828 -0.6004  1.1880
  523MOL0     H72113   5.167   1.542   6.729  1.0481 -1.4049 -0.4549
  523MOL0     H72114   5.190   1.489   6.892 -1.5267 -0.3275  0.5100
  523MOL0     H72115   5.184   1.685   6.987  6.0508 -0.2937 -1.9490
  523MOL0     H72116   5.050   1.698   6.874 -0.0049  3.1397  0.2529
  523MOL0     H72117   5.316   1.850   6.819 -1.0804  1.6148  1.1185
  523MOL0     H72118   5.195   1.841   6.712  1.1807  3.7220  0.2888
  523MOL0     H72119   5.033   1.966   6.877  0.2284  1.9963 -1.6569
  523MOL0     H72120   5.178   2.046   6.828 -1.4078  1.6725  0.4045
  523MOL0     H72121   5.154   1.888   7.091 -2.5444 -0.2720 -2.2595
  523MOL0     H72122   5.288   1.989   7.047  1.1730  0.2824 -2.2705
  523MOL0     H72123   4.898   2.037   7.083  1.6360  0.9380 -2.1558
  523MOL0     H72124   4.749   2.228   7.208 -1.4779  2.8495 -0.6348
  523MOL0     H72125   4.835   2.375   7.260  1.5690  0.4786  4.5195
  523MOL0     H72126   4.890   2.259   7.482 -1.8311  2.9670 -0.1534
  523MOL0     H72127   4.731   2.294   7.433  0.9629  2.2543 -2.4599
  523MOL0     H72128   4.708   2.040   7.349  1.7106 -0.9638 -0.2006
  523MOL0     H72129   4.868   2.031   7.403  1.3935  2.1384  0.0324
  523MOL0     H72130   4.654   2.110   7.602 -2.5609 -1.1844 -1.3531
  523MOL0     H72131   4.670   1.948   7.557 -1.9993  0.8258 -1.4578
  523MOL0     H72132   4.969   1.795   7.688 -1.0843 -0.0718 -0.5764
  523MOL0     H72133   5.092   1.665   7.973 -3.2324 -0.0401  2.7685
  523MOL0     H72134   5.042   1.613   7.810  0.8769 -1.1596  1.0616
  523MOL0     H72135   4.943   1.571   7.944 -0.4181 -1.8100 -2.5025
  523MOL0     H72136   4.670   1.718   8.398 -0.3441  2.5808 -2.2158
  523MOL0     H72137   4.721   1.705   8.639 -1.1732 -0.5686 -2.0867
  523MOL0     H72138   5.026   1.855   8.947 -0.8563  2.5504  0.2473
  523MOL0     H72139   5.123   1.869   8.803 -0.1932 -0.3725 -0.3766
  523MOL0     H72140   5.051   2.089   8.930  0.2609  1.8784 -1.9305
  523MOL0     H72141   5.038   2.095   8.768 -0.3508 -0.5356 -0.3003
  523MOL0     H72142   4.789   1.983   8.922 -2.0578 -0.7078 -2.2620
  523MOL0     H72143   4.796   2.044   8.760 -3.7043 -1.1833  1.8921
  523MOL0     H72144   4.866   2.237   8.984  1.0731  1.0999 -0.1310
  523MOL0     H72145   4.694   2.200   8.949  1.2564 -1.7042  2.4095
  523MOL0     H72146   4.771   2.392   8.831  2.7597  1.3978 -0.7095
  523MOL0     H72147   4.895   2.295   8.756 -0.8087 -1.8797 -0.6826
  523MOL0     H72148   4.618   2.200   8.704 -2.5266  2.3530 -1.0033
  523MOL0     H72149   4.771   2.190   8.611  0.5223  1.3126 -0.1487
  523MOL0     H72150   4.748   2.447   8.592  0.0336 -1.0511 -1.9166
  523MOL0     H72151   4.589   2.428   8.652 -0.0893  0.2368  2.1734
  523MOL0     H72152   4.626   2.451   8.405  7.1698  0.5222 -0.0212
  523MOL0     H72153   4.530   2.300   8.443 -0.0241 -1.0417 -0.7926
  523MOL0     H72154   5.054   1.964   8.587  0.1972 -0.3111 -1.6094
  523MOL0     H72155   5.004   1.991   8.357  3.3325 -1.8413  1.7677
  523MOL0     H72156   4.723   2.005   8.050 -1.5963  1.0410 -1.5565
  523MOL0     H72157   4.742   2.124   7.844 -0.0848  0.3092  0.9410
  523MOL0     H72158   5.635   1.226   7.053  2.6789  2.6893 -0.8436
  523MOL0     H72159   5.747   1.194   7.272 -0.3378 -0.9153  4.3858
  523MOL0     H72160   6.051   1.431   7.569  0.8380 -1.8096 -1.6664
  523MOL0     H72161   6.204   1.337   7.713  0.0512  0.1535 -0.1761
  523MOL0     H72162   6.127   0.950   7.948  0.1058 -0.2100 -0.0461
  523MOL0     H72163   6.252   1.056   8.017  0.0906 -1.7146  0.8198
  523MOL0     H72164   5.957   1.116   8.039  0.6500 -1.4686 -2.4925
  523MOL0     H72165   6.085   1.237   8.066 -1.4758  0.0153  2.0009
  523MOL0     H72166   6.197   1.124   8.244  0.0352  2.7186  1.1529
  523MOL0     H72167   6.030   1.166   8.290 -1.9134  0.1166 -0.1662
  523MOL0     H72168   6.040   0.968   8.369  2.7485  0.1665 -0.3381
  523MOL0     H72169   6.125   0.887   8.248  1.2140  0.9910  1.3706
  523MOL0     H72170   5.725   0.879   8.081 -1.8871 -0.1145  3.2916
  523MOL0     H72171   5.932   1.028   7.823 -0.5054  1.1559  0.0121
  523MOL0     H72172   5.706   1.034   7.755 -2.4836  0.5082  0.9684
  523MOL0     H72173   5.639   1.196   7.710 -0.0836  0.0055  2.0019
  523MOL0     H72174   5.691   1.079   7.581  0.6264 -0.5413  0.7863
  524MOL0     O72175   5.997   7.611   2.059  0.1499  0.5327 -0.1023
  524MOL0     C72176   5.903   7.664   1.999 -0.0899  0.1666  0.0956
  524MOL0     O72177   5.899   7.707   1.871  0.2532  0.4220  0.7948
  524MOL0     C72178   6.005   7.681   1.774 -0.7974 -0.7850 -0.0924
  524MOL0     C72179   6.120   7.601   1.778 -0.0245 -0.6901  0.2466
  524MOL0     C72180   6.208   7.592   1.668 -1.5594 -0.1413 -0.3149
  524MOL0     C72181   6.174   7.654   1.542 -0.7723  0.1312 -0.1165
  524MOL0     O72182   6.228   7.643   1.417  0.3769 -0.2647 -0.1082
  524MOL0     C72183   6.365   7.616   1.405  0.3300 -0.4129  0.2882
  524MOL0     C72184   6.397   7.658   1.268 -0.6380 -0.6261  0.4021
  524MOL0     C72185   6.540   7.609   1.224  0.3131 -0.5364 -0.7882
  524MOL0     C72186   6.554   7.652   1.076  0.4136 -0.4629 -0.5988
  524MOL0     C72187   6.696   7.626   1.019 -0.0042 -1.1893  1.4356
  524MOL0     C72188   6.689   7.657   0.875 -0.5359  0.7834 -0.4678
  524MOL0     C72189   6.825   7.619   0.815 -0.9812 -0.0251 -0.2385
  524MOL0     C72190   6.841   7.689   0.677 -0.1541  0.1086 -0.5919
  524MOL0     N72191   6.878   7.833   0.694 -0.3953 -0.3179 -0.2271
  524MOL0     C72192   6.864   7.924   0.595  1.0672  0.2725 -0.6983
  524MOL0     C72193   6.912   8.040   0.646  0.5542  0.5049 -0.2657
  524MOL0     C72194   6.936   8.170   0.558 -0.5581  0.3743 -0.4244
  524MOL0     C72195   6.819   8.255   0.536 -0.6029 -0.1573 -0.1715
  524MOL0     C72196   6.780   8.315   0.666  0.0965  0.2332 -0.1670
  524MOL0     C72197   6.686   8.438   0.663 -0.0237 -0.6265 -0.2708
  524MOL0     O72198   6.567   8.392   0.599 -0.5961 -0.5803  0.4763
  524MOL0     C72199   6.470   8.471   0.544  0.8446 -0.2598 -0.2768
  524MOL0     C72200   6.366   8.406   0.473 -0.1938  0.9008 -0.3620
  524MOL0     C72201   6.257   8.463   0.401  0.2028  0.0068  0.1578
  524MOL0     C72202   6.148   8.360   0.343  0.4291 -0.2268  0.4669
  524MOL0     C72203   6.258   8.611   0.403 -0.5008  0.4585  0.8926
  524MOL0     C72204   6.150   8.691   0.334  0.3997  0.6650 -0.0253
  524MOL0     O72205   6.171   8.828   0.325  0.0506  0.3926  0.4339
  524MOL0     C72206   6.070   8.924   0.296 -1.4533 -0.3362 -0.3995
  524MOL0     C72207   5.931   8.901   0.285 -0.7512  0.2926  0.1018
  524MOL0     C72208   5.844   9.015   0.287  0.4385 -0.0860  0.2838
  524MOL0     C72209   5.901   9.143   0.264 -0.1421  0.5377 -0.5622
  524MOL0     O72210   5.834   9.256   0.221  0.0334 -0.3767 -0.1718
  524MOL0     C72211   5.692   9.247   0.189  0.6161  0.1847 -0.0165
  524MOL0     C72212   5.655   9.378   0.121 -0.2335  0.2910 -0.2023
  524MOL0     C72213   5.714   9.410  -0.019 -0.5329 -0.0625  0.0258
  524MOL0     C72214   5.682   9.311  -0.134  0.2334 -0.7911 -0.2151
  524MOL0     C72215   5.705   9.371  -0.272 -0.1180 -0.4410 -0.3660
  524MOL0     C72216   5.842   9.440  -0.279  0.3853 -0.4279  0.3672
  524MOL0     C72217   5.877   9.489  -0.414  0.3653 -0.2584  0.3819
  524MOL0     C72218   6.011   9.570  -0.397 -0.7478  0.5077  0.1192
  524MOL0    Cl72219   6.035   9.671  -0.545  0.5360  0.4614 -0.2867
  524MOL0     C72220   6.046   9.159   0.259 -0.5429  0.0682  0.2446
  524MOL0     C72221   6.122   9.048   0.276 -0.8229 -0.3677 -0.8477
  524MOL0     O72222   6.053   8.628   0.285  0.0070 -0.4987  0.5184
  524MOL0     C72223   6.366   8.680   0.465 -0.6229 -0.2099  0.9736
  524MOL0     C72224   6.465   8.611   0.545 -0.3635 -0.9077 -0.1456
  524MOL0     N72225   6.961   8.016   0.773 -0.4268 -1.2448  0.4709
  524MOL0     N72226   6.924   7.896   0.803 -0.6987 -0.3334  0.7051
  524MOL0     C72227   6.071   7.758   1.546  0.2133 -0.4763  0.6965
  524MOL0     C72228   5.983   7.761   1.659  1.1304  0.3138  0.2907
  524MOL0     C72229   5.771   7.698   2.081 -1.1287  0.4695 -0.1131
  524MOL0     C72230   5.749   7.627   2.202 -0.0662 -0.4308  0.3542
  524MOL0     C72231   5.652   7.659   2.293 -0.0397 -0.6360 -0.3394
  524MOL0     C72232   5.586   7.774   2.277  0.0774 -0.8171 -0.4313
  524MOL0     O72233   5.507   7.828   2.376 -0.1633 -0.5965 -0.5732
  524MOL0     C72234   5.506   7.769   2.506 -0.5812  0.0378 -0.2424
  524MOL0     C72235   5.408   7.828   2.602  0.6233  0.0534 -0.6240
  524MOL0     C72236   5.425   7.772   2.754 -0.2933 -0.2770 -0.5221
  524MOL0     C72237   5.339   7.648   2.775 -0.1781  0.3019  0.6077
  524MOL0     C72238   5.425   7.527   2.787  0.5210 -0.2518  0.2366
  524MOL0     C72239   5.484   7.425   2.783  1.2340 -0.4665  0.0123
  524MOL0     C72240   5.593   7.846   2.153  0.7230 -0.4029 -0.4649
  524MOL0     C72241   5.683   7.813   2.057  0.2909  0.6162 -0.8606
  524MOL0     C72242   5.669   7.892   1.933  0.7293  0.1515  0.8251
  524MOL0     H72243   6.130   7.550   1.873  1.6694  0.6295  0.8392
  524MOL0     H72244   6.301   7.537   1.674 -0.2592  2.0519  1.5297
  524MOL0     H72245   6.379   7.508   1.412 -0.9995 -0.6085  0.2373
  524MOL0     H72246   6.413   7.668   1.488  0.0108 -1.3334  1.0759
  524MOL0     H72247   6.324   7.621   1.196 -0.1088  0.9562 -1.0047
  524MOL0     H72248   6.398   7.767   1.265  1.3606 -0.5131  2.3273
  524MOL0     H72249   6.619   7.647   1.290 -0.8728 -0.6310  0.7303
  524MOL0     H72250   6.549   7.501   1.237  7.5407 -0.3275  0.3936
  524MOL0     H72251   6.476   7.590   1.029  1.0993 -0.5197 -1.7036
  524MOL0     H72252   6.527   7.757   1.061  0.6494 -0.6281 -2.4012
  524MOL0     H72253   6.722   7.521   1.038 -3.1838 -2.5056 -0.5614
  524MOL0     H72254   6.771   7.691   1.065  0.8541  0.9717 -2.5688
  524MOL0     H72255   6.622   7.588   0.823 -1.4316  0.1745  1.4378
  524MOL0     H72256   6.657   7.761   0.857 -0.1137  1.4238  2.0963
  524MOL0     H72257   6.831   7.513   0.790  3.3333 -0.3320  1.2108
  524MOL0     H72258   6.911   7.642   0.879  0.1538  0.7231 -1.9491
  524MOL0     H72259   6.918   7.643   0.614  2.0217  1.1776  1.1273
  524MOL0     H72260   6.746   7.683   0.624  1.0986 -3.0565 -2.8066
  524MOL0     H72261   6.832   7.902   0.494  2.0266  1.6685 -1.3188
  524MOL0     H72262   6.972   8.140   0.459 -2.1923 -0.9322 -0.6570
  524MOL0     H72263   7.016   8.225   0.609  0.9277 -4.7726  3.7531
  524MOL0     H72264   6.847   8.339   0.471  1.2826 -0.8737 -0.3529
  524MOL0     H72265   6.745   8.187   0.492  0.3896 -0.1509 -1.9734
  524MOL0     H72266   6.750   8.242   0.742 -2.1327  0.6963 -0.5501
  524MOL0     H72267   6.870   8.359   0.712  0.8877 -2.2480  0.7956
  524MOL0     H72268   6.668   8.465   0.767  2.0407 -1.6843  0.4308
  524MOL0     H72269   6.734   8.530   0.627  2.2516  0.4995  4.7862
  524MOL0     H72270   6.368   8.297   0.473  2.1270  0.8985  0.3416
  524MOL0     H72271   6.047   8.404   0.349  0.7540  0.4390  1.3287
  524MOL0     H72272   6.163   8.263   0.390 -0.1009 -1.2072 -1.3327
  524MOL0     H72273   6.162   8.349   0.236 -1.1614  1.4648  0.0173
  524MOL0     H72274   5.890   8.800   0.285  1.7120 -0.7711  0.1780
  524MOL0     H72275   5.736   9.003   0.284  0.0865  2.5912 -1.4798
  524MOL0     H72276   5.674   9.173   0.110 -0.1499 -0.5065  0.7904
  524MOL0     H72277   5.635   9.225   0.280 -2.7076  0.3685 -1.8797
  524MOL0     H72278   5.547   9.383   0.107 -0.5191  2.6556  2.1167
  524MOL0     H72279   5.680   9.462   0.187 -2.8919 -1.1872  2.9694
  524MOL0     H72280   5.821   9.432  -0.015 -0.8267  1.3408  3.4066
  524MOL0     H72281   5.679   9.508  -0.054 -2.4719 -0.4082  0.8768
  524MOL0     H72282   5.576   9.284  -0.122 -0.6455  2.9262  1.9490
  524MOL0     H72283   5.742   9.223  -0.110 -0.9496 -2.0189 -1.5279
  524MOL0     H72284   5.693   9.288  -0.343 -1.3175  0.7939 -1.6577
  524MOL0     H72285   5.636   9.453  -0.291  0.0701 -0.4293 -1.0511
  524MOL0     H72286   5.924   9.372  -0.252 -0.2501 -2.5374 -2.4466
  524MOL0     H72287   5.840   9.522  -0.208 -0.0344 -1.7990  1.9934
  524MOL0     H72288   5.797   9.551  -0.455  2.0636  0.9669 -1.2211
  524MOL0     H72289   5.897   9.407  -0.483  1.5823 -1.3794  1.9771
  524MOL0     H72290   6.099   9.508  -0.380 -0.9840  0.4110  1.0362
  524MOL0     H72291   6.003   9.645  -0.318 -1.1563  2.3980 -1.6268
  524MOL0     H72292   6.094   9.256   0.261 -3.4888  1.7485 -2.4304
  524MOL0     H72293   6.228   9.060   0.260 -1.0010 -0.4120 -2.0977
  524MOL0     H72294   6.370   8.788   0.459  0.6235 -0.2923 -0.3567
  524MOL0     H72295   6.543   8.664   0.599 -2.1787 -0.9375  2.7082
  524MOL0     H72296   6.060   7.815   1.454  1.8616 -2.4513 -0.8569
  524MOL0     H72297   5.900   7.831   1.662 -0.4653 -1.5189  0.4056
  524MOL0     H72298   5.780   7.524   2.216 -0.1644 -0.8260 -1.8793
  524MOL0     H72299   5.648   7.588   2.374  3.7352 -2.2247 -1.3548
  524MOL0     H72300   5.486   7.663   2.490  0.0847  0.3572 -4.2349
  524MOL0     H72301   5.606   7.777   2.552  1.2166  0.7431 -3.9140
  524MOL0     H72302   5.303   7.824   2.570  0.5423  1.6786 -0.6219
  524MOL0     H72303   5.432   7.934   2.610 -0.5835  0.2095  2.2007
  524MOL0     H72304   5.528   7.758   2.787  0.0874 -5.3851 -2.9631
  524MOL0     H72305   5.381   7.854   2.812  0.8832 -0.2209  0.3203
  524MOL0     H72306   5.264   7.639   2.696 -0.4762 -0.3950  0.9562
  524MOL0     H72307   5.295   7.668   2.873  2.4217  0.2664  1.8716
  524MOL0     H72308   5.527   7.332   2.751 -3.0911 -1.5925 -3.5205
  524MOL0     H72309   5.543   7.942   2.146 -0.1272 -0.5911  1.8682
  524MOL0     H72310   5.763   7.940   1.904  0.8380 -0.6421 -0.1984
  524MOL0     H72311   5.644   7.825   1.850  0.2601  2.5969 -1.1231
  524MOL0     H72312   5.591   7.968   1.938  0.5605 -0.0972  2.5577
  525MOL0     O72313   8.196  10.210  10.390 -0.7916  0.2364  0.3294
  525MOL0     C72314   8.181  10.144  10.287 -0.8442  0.6242  0.0389
  525MOL0     O72315   8.207  10.006  10.281 -0.0194  0.0921  1.1087
  525MOL0     C72316   8.209   9.921  10.386  0.8461 -0.4598 -0.3179
  525MOL0     C72317   8.261   9.789  10.366 -0.7249  0.1074  1.3469
  525MOL0     C72318   8.275   9.698  10.468 -0.5285 -0.0287 -0.0160
  525MOL0     C72319   8.237   9.725  10.596  0.2565 -0.4389  0.0420
  525MOL0     O72320   8.238   9.637  10.703 -0.0306  0.0432 -0.0961
  525MOL0     C72321   8.330   9.519  10.679 -0.3916  0.2764 -0.1056
  525MOL0     C72322   8.410   9.485  10.808  0.0201 -0.1308 -0.8460
  525MOL0     C72323   8.315   9.406  10.902 -0.2504 -0.7167  0.7192
  525MOL0     C72324   8.383   9.373  11.037  0.0801  0.4649  0.5993
  525MOL0     C72325   8.423   9.495  11.111 -0.4557  0.5720  0.4691
  525MOL0     C72326   8.328   9.617  11.103  0.3323  0.3220 -0.2923
  525MOL0     C72327   8.217   9.608  11.206 -1.0713 -0.3766  0.7591
  525MOL0     C72328   8.140   9.739  11.228  0.1078  0.1808 -0.6255
  525MOL0     N72329   8.027   9.744  11.322 -0.4573 -0.3215 -0.3926
  525MOL0     C72330   7.989   9.648  11.416 -0.1532 -0.5375  0.1164
  525MOL0     C72331   7.906   9.707  11.503 -0.0538 -0.5207 -0.2312
  525MOL0     C72332   7.858   9.632  11.623  0.2488  0.6091  0.7034
  525MOL0     C72333   7.724   9.669  11.687 -0.4899  0.0150  0.9512
  525MOL0     C72334   7.744   9.801  11.762 -0.5638 -0.0693 -0.1524
  525MOL0     C72335   7.621   9.851  11.833 -0.1640  0.6646 -0.2509
  525MOL0     O72336   7.642   9.959  11.925  0.3437 -0.5796 -0.0076
  525MOL0     C72337   7.532  10.040  11.971  1.0760  0.0348 -0.2765
  525MOL0     C72338   7.396   9.996  11.973 -0.1585  0.1503 -0.1936
  525MOL0     C72339   7.289  10.080  12.013  0.5099  0.3868  0.8841
  525MOL0     C72340   7.148  10.030  11.989  1.1039  0.2514  1.0086
  525MOL0     C72341   7.325  10.207  12.073 -0.0126  0.0139 -0.3695
  525MOL0     C72342   7.227  10.304  12.134 -1.5059 -0.3301 -0.0384
  525MOL0     O72343   7.094  10.276  12.141  0.1749  0.1959  0.6378
  525MOL0     C72344   7.028  10.366  12.220  0.5884  0.5703 -1.1138
  525MOL0     C72345   7.042  10.362  12.364  0.0236  0.8425 -0.2257
  525MOL0     C72346   6.974  10.448  12.453 -0.1773  0.1890 -0.5168
  525MOL0     C72347   6.872  10.527  12.396 -0.2733 -1.2384 -1.1785
  525MOL0     O72348   6.799  10.591  12.492  0.5210  0.2747 -0.4687
  525MOL0     C72349   6.654  10.563  12.482 -0.2709 -0.0940 -0.4430
  525MOL0     C72350   6.582  10.644  12.584  0.1225 -0.7852 -0.5557
  525MOL0     C72351   6.458  10.585  12.646 -1.1072  0.6362  0.1924
  525MOL0     C72352   6.359  10.678  12.689  0.1104  0.1731  0.6125
  525MOL0     C72353   6.218  10.639  12.648 -0.3855 -0.2238 -1.1666
  525MOL0     C72354   6.129  10.659  12.772  0.1192  0.1121  0.1523
  525MOL0     C72355   5.977  10.698  12.735 -0.2622  0.3122  0.0635
  525MOL0     C72356   5.913  10.763  12.862 -0.1277  0.0475 -0.1299
  525MOL0    Cl72357   5.851  10.636  12.957  0.5369 -0.2482  0.3219
  525MOL0     C72358   6.863  10.540  12.253  0.8361 -0.7461 -0.5945
  525MOL0     C72359   6.930  10.454  12.174 -0.8860 -0.3643  0.1092
  525MOL0     O72360   7.279  10.408  12.188 -0.3165 -0.3692  0.4246
  525MOL0     C72361   7.465  10.243  12.081  0.3761  0.6129 -0.6181
  525MOL0     C72362   7.568  10.162  12.036  1.0709 -0.1041 -0.5391
  525MOL0     N72363   7.878   9.834  11.456 -1.0594 -0.6421 -0.1469
  525MOL0     N72364   7.937   9.848  11.347  0.8683  0.6800 -0.0377
  525MOL0     C72365   8.175   9.851  10.615  1.3769  0.3526 -0.5861
  525MOL0     C72366   8.163   9.946  10.517  0.8584 -0.0306  0.8176
  525MOL0     C72367   8.149  10.199  10.153  0.4527  0.1109  0.5230
  525MOL0     C72368   8.038  10.286  10.136 -0.7107  1.0302 -0.6503
  525MOL0     C72369   8.018  10.332  10.013 -0.1049 -0.0856 -0.3894
  525MOL0     C72370   8.099  10.300   9.904  1.0419 -0.1798  1.1299
  525MOL0     O72371   8.048  10.359   9.789 -0.1693 -0.4807  0.4727
  525MOL0     C72372   8.115  10.337   9.667 -0.5890  0.0517 -0.3001
  525MOL0     C72373   8.056  10.433   9.563 -1.0291  0.5003  1.2178
  525MOL0     C72374   7.945  10.369   9.487 -0.4236  0.1623 -0.3292
  525MOL0     C72375   7.927  10.410   9.346  0.1871 -0.9028  0.3246
  525MOL0     C72376   7.882  10.550   9.327 -0.4297 -0.0578 -0.6900
  525MOL0     C72377   7.856  10.663   9.311 -0.3900  0.5539  0.5082
  525MOL0     C72378   8.206  10.219   9.918  0.4254  0.0289 -1.0145
  525MOL0     C72379   8.237  10.165  10.040  1.0829  0.2207 -0.2437
  525MOL0     C72380   8.366  10.077  10.061 -0.1065  0.2190 -0.5921
  525MOL0     H72381   8.300   9.765  10.267  0.7828 -0.9213  2.1508
  525MOL0     H72382   8.326   9.606  10.438 -1.9179 -1.0211  0.5428
  525MOL0     H72383   8.405   9.522  10.600  0.9966  1.0062  1.1959
  525MOL0     H72384   8.273   9.431  10.649  0.2377  1.6323 -6.5537
  525MOL0     H72385   8.499   9.426  10.786 -0.3243 -0.1068 -2.4180
  525MOL0     H72386   8.445   9.579  10.852  1.6623 -1.2659  0.3753
  525MOL0     H72387   8.215   9.448  10.916  0.8314  2.4696 -0.2243
  525MOL0     H72388   8.314   9.315  10.841 -0.3318  0.2874 -0.8270
  525MOL0     H72389   8.307   9.318  11.093 -0.6324  1.2750  0.4473
  525MOL0     H72390   8.472   9.310  11.024 -0.4396  0.2262 -2.9897
  525MOL0     H72391   8.516   9.515  11.055  0.3125 -0.7559  1.2319
  525MOL0     H72392   8.443   9.468  11.215 -1.0197 -3.6028 -0.3432
  525MOL0     H72393   8.382   9.708  11.130 -0.5203  0.2974  1.6578
  525MOL0     H72394   8.293   9.638  11.002 -1.5861  1.4898  0.5830
  525MOL0     H72395   8.258   9.575  11.302  2.3355  0.0897 -0.4075
  525MOL0     H72396   8.140   9.535  11.178  0.1514 -2.1918  1.9377
  525MOL0     H72397   8.210   9.817  11.263 -0.4277  0.2714  0.2578
  525MOL0     H72398   8.093   9.768  11.134 -1.8998 -1.7151 -0.2687
  525MOL0     H72399   8.017   9.543  11.414 -2.8196 -1.3228 -0.7712
  525MOL0     H72400   7.938   9.644  11.697  1.7941 -0.2648 -0.7369
  525MOL0     H72401   7.862   9.525  11.603 -1.8278  0.7117 -0.4746
  525MOL0     H72402   7.651   9.679  11.606 -1.0247  0.1508  1.4456
  525MOL0     H72403   7.684   9.590  11.752  1.1151  0.6089  2.7756
  525MOL0     H72404   7.816   9.799  11.844 -1.2416  1.4002  0.5082
  525MOL0     H72405   7.772   9.890  11.705  0.5992 -1.3850 -1.7669
  525MOL0     H72406   7.553   9.877  11.752 -0.7327  0.6833  0.2241
  525MOL0     H72407   7.578   9.770  11.894 -0.6376  1.4568  0.4975
  525MOL0     H72408   7.375   9.894  11.943  1.5425  0.1254 -1.4403
  525MOL0     H72409   7.120  10.070  11.891 -2.1146 -0.5373  1.4849
  525MOL0     H72410   7.076  10.039  12.071 -0.7934  0.9431 -0.6461
  525MOL0     H72411   7.138   9.923  11.965 -2.1147  0.2986  1.6725
  525MOL0     H72412   7.112  10.293  12.409 -2.2682 -2.5060 -1.4452
  525MOL0     H72413   6.992  10.471  12.557  2.3682  3.2508 -1.4866
  525MOL0     H72414   6.620  10.598  12.384  0.1973  3.2006  0.4384
  525MOL0     H72415   6.621  10.461  12.502 -2.4842  1.1643  3.5718
  525MOL0     H72416   6.650  10.660  12.668  2.3863  1.2626 -2.6353
  525MOL0     H72417   6.564  10.741  12.537  2.3880  0.8224  1.5908
  525MOL0     H72418   6.489  10.531  12.737  0.3406  3.3351  1.4315
  525MOL0     H72419   6.417  10.508  12.580 -2.7240 -1.7338  3.5870
  525MOL0     H72420   6.386  10.779  12.657 -1.8255  0.3799 -0.4741
  525MOL0     H72421   6.359  10.695  12.797 -1.5089 -0.4093  0.7213
  525MOL0     H72422   6.179  10.692  12.561 -1.3291 -1.5721 -1.5958
  525MOL0     H72423   6.211  10.532  12.626 -0.8200 -0.2715 -0.8171
  525MOL0     H72424   6.154  10.744  12.836 -2.1879  0.8934  0.1235
  525MOL0     H72425   6.125  10.562  12.823 -0.4187  0.3045  0.4819
  525MOL0     H72426   5.916  10.614  12.702  1.3732 -2.8288  4.2493
  525MOL0     H72427   5.969  10.774  12.656 -2.8433 -1.5613 -1.6324
  525MOL0     H72428   5.828  10.819  12.822  1.6928  1.2169 -2.5605
  525MOL0     H72429   5.979  10.833  12.914  0.9781 -0.6498 -0.5745
  525MOL0     H72430   6.801  10.621  12.215  3.0601  1.7727  0.8699
  525MOL0     H72431   6.916  10.470  12.067  0.7748  4.6812  0.3995
  525MOL0     H72432   7.493  10.341  12.120  2.3941 -0.3712  0.5691
  525MOL0     H72433   7.670  10.198  12.035  0.9815  0.1454 -0.8416
  525MOL0     H72434   8.126   9.866  10.711  2.0795  0.6231 -0.2672
  525MOL0     H72435   8.114  10.042  10.529  1.7169  0.5170  0.0427
  525MOL0     H72436   7.977  10.308  10.223  1.6358  0.6125  1.2376
  525MOL0     H72437   7.923  10.382   9.999  1.5487  2.5702 -3.7425
  525MOL0     H72438   8.221  10.362   9.676 -0.8729  1.5442 -0.8387
  525MOL0     H72439   8.097  10.236   9.630 -2.0885  1.5627 -4.1916
  525MOL0     H72440   8.141  10.445   9.495 -1.3761 -0.6539  0.5454
  525MOL0     H72441   8.036  10.535   9.598 -1.0544  0.6773  0.7005
  525MOL0     H72442   7.959  10.260   9.494  3.3448  0.5915  1.0431
  525MOL0     H72443   7.857  10.380   9.550 -0.5149 -0.2107 -0.3857
  525MOL0     H72444   7.848  10.351   9.298  1.3733 -4.7677  2.6523
  525MOL0     H72445   8.017  10.375   9.293  1.2099  0.9623  0.7623
  525MOL0     H72446   7.837  10.766   9.289  1.2443  1.1352  1.6224
  525MOL0     H72447   8.264  10.206   9.827  2.1109 -0.5757  0.0987
  525MOL0     H72448   8.445  10.088   9.986  1.5091  0.0890  1.0023
  525MOL0     H72449   8.414  10.106  10.155 -0.5524 -1.1241  0.0683
  525MOL0     H72450   8.346   9.970  10.059  1.9884 -0.2174 -2.8259
  526MOL0     O72451   9.718  10.364   1.864  0.6447 -0.1315  0.8259
  526MOL0     C72452   9.749  10.279   1.954  1.1712 -1.0769 -0.0926
  526MOL0     O72453   9.659  10.191   2.008 -0.5053  0.4295 -0.0404
  526MOL0     C72454   9.531  10.200   1.969  0.3443  0.2285 -0.1783
  526MOL0     C72455   9.493  10.161   1.837 -0.3896  0.6509 -0.2355
  526MOL0     C72456   9.371  10.193   1.790 -0.1054 -0.3447  0.3081
  526MOL0     C72457   9.273  10.238   1.876  0.2985 -0.2172 -0.3721
  526MOL0     O72458   9.151  10.238   1.818 -0.5483 -0.4916  0.4952
  526MOL0     C72459   9.023  10.247   1.886  0.2057  0.3098 -0.4736
  526MOL0     C72460   8.979  10.385   1.843 -0.5771 -1.0597 -0.5061
  526MOL0     C72461   8.860  10.415   1.929  0.3318  0.3601  0.0094
  526MOL0     C72462   8.810  10.564   1.908 -0.7331 -0.0432 -0.3114
  526MOL0     C72463   8.707  10.618   1.996 -0.2786  0.0396 -0.1719
  526MOL0     C72464   8.638  10.744   1.955 -0.6671  0.3520  0.7487
  526MOL0     C72465   8.714  10.874   1.960 -1.1149 -0.5615  0.0505
  526MOL0     C72466   8.772  10.909   2.093  0.0959 -0.5232 -0.1009
  526MOL0     N72467   8.860  11.031   2.082 -0.1549 -0.5308 -0.0851
  526MOL0     C72468   8.997  11.040   2.068  0.0975 -0.4082  0.4263
  526MOL0     C72469   9.023  11.159   2.006  1.1019 -0.4544  0.6541
  526MOL0     C72470   9.162  11.219   1.992  0.6307  0.2379 -0.2111
  526MOL0     C72471   9.215  11.286   2.123 -1.1412  0.6271 -0.0492
  526MOL0     C72472   9.190  11.439   2.133 -0.1957  0.6814 -0.3710
  526MOL0     C72473   9.284  11.505   2.222  0.1952 -0.3123  0.4708
  526MOL0     O72474   9.414  11.528   2.165 -0.7982  0.6492  0.1388
  526MOL0     C72475   9.455  11.627   2.080  0.1539  0.3780 -0.0774
  526MOL0     C72476   9.376  11.723   2.023 -0.6672  0.1221  0.3862
  526MOL0     C72477   9.434  11.810   1.928  0.0532  1.6287  0.5055
  526MOL0     C72478   9.348  11.903   1.848  0.4763 -0.0283 -0.3805
  526MOL0     C72479   9.570  11.816   1.893  0.0477 -0.2253  0.1106
  526MOL0     C72480   9.633  11.909   1.795  0.5646  0.7282  0.0420
  526MOL0     O72481   9.673  12.036   1.834  0.0933 -1.2021 -0.4407
  526MOL0     C72482   9.778  12.100   1.773 -0.4691  0.0730 -0.7192
  526MOL0     C72483   9.773  12.241   1.742  0.5691 -0.2280  0.7122
  526MOL0     C72484   9.878  12.302   1.675  0.4970 -0.0484 -0.4268
  526MOL0     C72485   9.996  12.234   1.647  0.5137 -0.3181 -0.0808
  526MOL0     O72486  10.092  12.301   1.577  0.1342  0.3680 -0.5965
  526MOL0     C72487  10.214  12.238   1.566 -0.1429 -0.2600  1.3192
  526MOL0     C72488  10.309  12.346   1.524 -0.6386 -0.2442  0.4041
  526MOL0     C72489  10.339  12.447   1.639  0.6443  0.2781 -0.6961
  526MOL0     C72490  10.483  12.491   1.631 -0.1228 -0.1096 -1.0999
  526MOL0     C72491  10.533  12.536   1.764 -1.4064 -1.2025 -0.0218
  526MOL0     C72492  10.675  12.606   1.744 -0.0624 -0.2668  0.7256
  526MOL0     C72493  10.793  12.500   1.718  0.6496  0.1596  0.4983
  526MOL0     C72494  10.930  12.549   1.713 -0.4896  0.1462  0.2281
  526MOL0    Cl72495  10.937  12.681   1.601 -0.2139  0.4281 -0.0724
  526MOL0     C72496  10.004  12.098   1.683 -0.5702 -1.4158 -0.1515
  526MOL0     C72497   9.901  12.036   1.749  0.5320  0.5535 -0.6485
  526MOL0     O72498   9.642  11.869   1.683 -1.0553  0.8756  0.6510
  526MOL0     C72499   9.645  11.716   1.963 -0.2314  0.5957 -0.6249
  526MOL0     C72500   9.593  11.621   2.054  1.4118  0.2834  0.0590
  526MOL0     N72501   8.903  11.232   2.001 -0.2172  0.9120  0.1564
  526MOL0     N72502   8.804  11.151   2.043 -0.6691 -0.0250  1.1664
  526MOL0     C72503   9.304  10.271   2.009 -0.5670  0.6254 -0.0039
  526MOL0     C72504   9.439  10.262   2.056  0.3825  0.3159  0.0846
  526MOL0     C72505   9.884  10.264   2.012  0.0846  0.4266 -0.0822
  526MOL0     C72506   9.917  10.141   2.078  0.9141  0.3512  0.8659
  526MOL0     C72507  10.038  10.133   2.142  0.1997  0.6872 -0.1166
  526MOL0     C72508  10.126  10.236   2.136  0.3854  0.0105  0.2400
  526MOL0     O72509  10.250  10.208   2.201 -0.2113 -0.5085 -0.0825
  526MOL0     C72510  10.371  10.277   2.173 -0.2066 -0.2529 -0.0406
  526MOL0     C72511  10.477  10.174   2.217 -0.1594  0.4167 -0.9690
  526MOL0     C72512  10.470  10.031   2.134 -0.5311 -0.3336  0.5206
  526MOL0     C72513  10.585   9.938   2.163  0.2591 -0.9730 -0.6029
  526MOL0     C72514  10.558   9.815   2.102 -0.4098  0.1444 -0.7718
  526MOL0     C72515  10.552   9.702   2.052 -0.1101 -0.2227  0.1320
  526MOL0     C72516  10.094  10.349   2.061 -0.3817  0.1761  0.2658
  526MOL0     C72517   9.975  10.362   2.000  0.2899 -0.6567  0.2055
  526MOL0     C72518   9.949  10.488   1.937  0.1156 -0.1733 -0.0836
  526MOL0     H72519   9.570  10.124   1.770  0.1247  0.3992  0.4692
  526MOL0     H72520   9.347  10.159   1.690  1.2727 -0.0152 -0.1608
  526MOL0     H72521   9.020  10.231   1.994 -3.4771 -1.0468 -0.6321
  526MOL0     H72522   8.958  10.166   1.851  1.3852 -0.8524 -0.0355
  526MOL0     H72523   9.048  10.461   1.882 -3.9238  0.8977  2.0597
  526MOL0     H72524   8.967  10.392   1.734  0.9182 -1.1918 -0.7111
  526MOL0     H72525   8.775  10.349   1.909 -1.9695  1.4998  4.6942
  526MOL0     H72526   8.875  10.396   2.036  1.8005 -1.5006 -0.4818
  526MOL0     H72527   8.892  10.629   1.941 -1.1810 -0.9204  2.7631
  526MOL0     H72528   8.783  10.579   1.803  1.0092  2.1485 -0.5149
  526MOL0     H72529   8.743  10.618   2.099  1.9706 -3.6422 -0.7725
  526MOL0     H72530   8.631  10.539   1.998 -0.3997 -0.0510  5.1780
  526MOL0     H72531   8.612  10.727   1.850  0.0812 -1.5132  0.8320
  526MOL0     H72532   8.539  10.730   2.001 -0.4580 -2.2550  0.5263
  526MOL0     H72533   8.657  10.953   1.911 -0.8210 -1.3830 -1.7051
  526MOL0     H72534   8.803  10.859   1.897  1.7375  1.5531  3.2125
  526MOL0     H72535   8.693  10.932   2.165 -1.5422 -1.6094 -1.4785
  526MOL0     H72536   8.832  10.828   2.136  1.7254  1.0469  0.7301
  526MOL0     H72537   9.055  10.950   2.089 -1.7454 -1.3275  1.7727
  526MOL0     H72538   9.186  11.273   1.899  0.5043 -3.5272 -2.6437
  526MOL0     H72539   9.218  11.125   1.992 -0.4866 -0.4459  0.5720
  526MOL0     H72540   9.192  11.225   2.211  0.9592 -1.4167 -0.8073
  526MOL0     H72541   9.321  11.263   2.114 -1.3198  0.3541 -1.9463
  526MOL0     H72542   9.191  11.479   2.032  1.7136 -0.2517 -0.7716
  526MOL0     H72543   9.095  11.453   2.185  0.5067 -1.6101  1.7637
  526MOL0     H72544   9.245  11.599   2.262 -0.5223 -0.8114  0.9695
  526MOL0     H72545   9.292  11.448   2.315  0.8594 -1.4060 -0.2523
  526MOL0     H72546   9.271  11.723   2.047 -1.3934 -1.6980 -2.3098
  526MOL0     H72547   9.245  11.897   1.883  0.9944  0.0299  1.2384
  526MOL0     H72548   9.358  11.897   1.739  3.9306  3.3922 -0.4754
  526MOL0     H72549   9.371  12.007   1.870 -2.2996  0.6539 -0.3942
  526MOL0     H72550   9.683  12.300   1.756  0.1473  0.2246 -3.0171
  526MOL0     H72551   9.867  12.405   1.643 -0.5739 -0.5848 -1.8250
  526MOL0     H72552  10.244  12.190   1.660 -0.2572 -4.5200 -0.5959
  526MOL0     H72553  10.196  12.163   1.488 -0.3097  1.5232 -0.4187
  526MOL0     H72554  10.396  12.286   1.496 -2.4143 -1.9461 -1.8551
  526MOL0     H72555  10.282  12.404   1.436  0.5124  0.9005  0.7707
  526MOL0     H72556  10.313  12.393   1.730 -0.5056  0.9494 -0.6076
  526MOL0     H72557  10.271  12.532   1.628  0.8017  0.2419 -2.3257
  526MOL0     H72558  10.492  12.581   1.568  2.8135 -0.4476 -1.3174
  526MOL0     H72559  10.544  12.414   1.584 -1.9650 -2.0794 -0.4533
  526MOL0     H72560  10.456  12.608   1.792 -1.2379 -1.6470  1.7160
  526MOL0     H72561  10.539  12.457   1.840 -1.4500  0.8508  2.2063
  526MOL0     H72562  10.707  12.661   1.833  1.9090  1.5273 -0.9730
  526MOL0     H72563  10.665  12.683   1.666  0.0267 -1.2105 -0.2363
  526MOL0     H72564  10.768  12.462   1.619 -3.6268  0.9677  1.1116
  526MOL0     H72565  10.796  12.420   1.793  0.1433 -0.9412 -0.6141
  526MOL0     H72566  11.004  12.475   1.681 -2.2600 -0.7198 -2.1621
  526MOL0     H72567  10.966  12.585   1.810 -1.3708  1.7332 -0.0117
  526MOL0     H72568  10.096  12.042   1.664  0.3937 -0.6333  1.9466
  526MOL0     H72569   9.920  11.941   1.796  1.5296  1.6760  1.3360
  526MOL0     H72570   9.753  11.722   1.955 -0.3582  1.2941 -2.2495
  526MOL0     H72571   9.655  11.540   2.093  0.4000  0.3345  1.8855
  526MOL0     H72572   9.229  10.300   2.082 -1.0293 -0.3093 -0.0958
  526MOL0     H72573   9.482  10.314   2.141  2.0308 -0.6270 -0.1181
  526MOL0     H72574   9.849  10.057   2.078 -0.8841  1.7341  1.2636
  526MOL0     H72575  10.056  10.037   2.189  3.2830  2.2346  2.2648
  526MOL0     H72576  10.379  10.297   2.066  3.3836 -0.6523  0.0309
  526MOL0     H72577  10.372  10.370   2.230 -0.2490 -2.1704  3.3424
  526MOL0     H72578  10.452  10.138   2.317 -1.3923 -1.7022 -1.9692
  526MOL0     H72579  10.569  10.232   2.212  0.2526  0.1266  1.7790
  526MOL0     H72580  10.380   9.979   2.170 -0.9379  1.0897  1.6493
  526MOL0     H72581  10.462  10.049   2.027  1.6957 -1.5469  0.0849
  526MOL0     H72582  10.601   9.928   2.270  2.5578 -1.2364 -0.9153
  526MOL0     H72583  10.680   9.974   2.123  0.2830  5.0669  3.6196
  526MOL0     H72584  10.570   9.609   2.000 -1.6209  0.0548 -0.9674
  526MOL0     H72585  10.167  10.430   2.061  0.7346 -0.8145  0.4546
  526MOL0     H72586   9.855  10.529   1.975 -0.3886 -1.5115  0.1516
  526MOL0     H72587  10.033  10.558   1.942 -0.3902  0.4243  0.1977
  526MOL0     H72588   9.933  10.471   1.830 -0.5700 -0.4163  0.0516
  527MOL0     O72589   0.411   2.286   2.430 -0.1690  1.2333 -0.1231
  527MOL0     C72590   0.520   2.230   2.435 -0.3303 -0.4543 -0.0752
  527MOL0     O72591   0.634   2.269   2.373 -0.4293  1.1704  0.4362
  527MOL0     C72592   0.654   2.397   2.332 -0.1204 -0.2208  0.9577
  527MOL0     C72593   0.789   2.439   2.340 -0.8068 -0.2808  0.2646
  527MOL0     C72594   0.828   2.564   2.285  0.0945 -0.6184  0.6051
  527MOL0     C72595   0.741   2.635   2.212  0.8126 -0.8467 -0.2999
  527MOL0     O72596   0.779   2.756   2.154  0.4989  0.5085 -0.9929
  527MOL0     C72597   0.736   2.879   2.211 -0.4192 -0.5785 -0.3356
  527MOL0     C72598   0.840   2.986   2.187  0.3036  1.5739 -0.2256
  527MOL0     C72599   0.972   2.941   2.260 -0.7021  0.3951 -0.1331
  527MOL0     C72600   1.077   3.046   2.260 -0.1363 -0.3007  1.0161
  527MOL0     C72601   1.217   3.023   2.315  0.7803 -0.7010 -0.1987
  527MOL0     C72602   1.314   3.143   2.303 -0.2181  0.1819 -0.3919
  527MOL0     C72603   1.434   3.126   2.396  0.1083  0.3304  0.4011
  527MOL0     C72604   1.534   3.241   2.388 -0.6530  1.0094 -0.1558
  527MOL0     N72605   1.583   3.262   2.256 -0.0875  0.2586  0.1783
  527MOL0     C72606   1.640   3.169   2.167  0.1916 -0.0141 -0.2418
  527MOL0     C72607   1.704   3.251   2.074  0.2198 -0.3385  0.1641
  527MOL0     C72608   1.787   3.220   1.950  0.2668 -0.5322 -0.1049
  527MOL0     C72609   1.722   3.104   1.864  0.4247  0.1727  0.2304
  527MOL0     C72610   1.819   3.069   1.742 -0.4675  0.4660 -0.2973
  527MOL0     C72611   1.832   3.186   1.652 -0.2079  0.1093 -0.7176
  527MOL0     O72612   1.931   3.290   1.687 -0.4968  0.0255  0.3206
  527MOL0     C72613   1.973   3.381   1.595  0.3670 -0.8880  0.6845
  527MOL0     C72614   2.074   3.469   1.638 -0.2461  0.0272 -0.3141
  527MOL0     C72615   2.123   3.573   1.555 -0.0581  0.6336 -0.2890
  527MOL0     C72616   2.221   3.666   1.622 -0.5790 -0.9801 -0.2579
  527MOL0     C72617   2.061   3.601   1.437 -0.5654  0.5954  0.0428
  527MOL0     C72618   2.120   3.710   1.347 -0.4862  0.5449 -0.2481
  527MOL0     O72619   2.017   3.790   1.309 -0.1491  0.0842  0.2168
  527MOL0     C72620   2.035   3.915   1.248 -0.0484  0.5947 -0.2189
  527MOL0     C72621   1.963   3.939   1.134 -0.3097 -0.1937 -0.2272
  527MOL0     C72622   1.975   4.051   1.055 -0.7754  0.7102 -0.5435
  527MOL0     C72623   2.056   4.161   1.101  0.7795  0.4562 -0.1254
  527MOL0     O72624   2.061   4.291   1.051 -0.1899 -0.0032 -0.3623
  527MOL0     C72625   1.960   4.317   0.951 -0.5778 -0.3062  0.1316
  527MOL0     C72626   1.951   4.471   0.943 -0.6269 -0.2887  0.1945
  527MOL0     C72627   1.881   4.519   0.811  0.2650  0.2519 -1.1806
  527MOL0     C72628   1.980   4.512   0.695 -0.9063  0.6559 -1.3569
  527MOL0     C72629   1.922   4.579   0.573 -0.4378  0.8519  0.2023
  527MOL0     C72630   2.003   4.549   0.449  0.1686 -0.1022  0.0920
  527MOL0     C72631   2.006   4.654   0.341  0.0772  0.8192 -0.2339
  527MOL0     C72632   2.046   4.586   0.208  0.8723  1.1916  0.1868
  527MOL0    Cl72633   1.929   4.466   0.158  0.3857  0.1433 -0.5999
  527MOL0     C72634   2.120   4.147   1.231 -0.0277 -0.2245 -0.7928
  527MOL0     C72635   2.115   4.024   1.297 -0.8420  0.3823  0.4561
  527MOL0     O72636   2.234   3.715   1.305 -0.2549 -0.2609  0.3186
  527MOL0     C72637   1.959   3.519   1.394 -0.3772 -0.3872 -0.3884
  527MOL0     C72638   1.932   3.400   1.469 -0.4062  0.5893  0.3372
  527MOL0     N72639   1.679   3.380   2.102 -0.0003 -0.8076  0.4185
  527MOL0     N72640   1.622   3.385   2.211 -0.1249  0.0503  0.5217
  527MOL0     C72641   0.607   2.588   2.199 -0.2513  0.9655  0.2686
  527MOL0     C72642   0.566   2.470   2.258  1.2857  0.5814  0.6575
  527MOL0     C72643   0.524   2.121   2.532 -0.3310 -1.0096  0.0197
  527MOL0     C72644   0.450   2.002   2.496 -0.6985 -0.2454 -0.3977
  527MOL0     C72645   0.432   1.903   2.601  0.2671 -0.3531 -0.4918
  527MOL0     C72646   0.484   1.912   2.733 -0.2133 -0.6406 -0.4533
  527MOL0     O72647   0.473   1.808   2.820  0.0037  0.0827 -0.0687
  527MOL0     C72648   0.428   1.834   2.955  0.0092  0.4372 -0.1080
  527MOL0     C72649   0.488   1.732   3.038  0.4790  0.3597 -0.3913
  527MOL0     C72650   0.645   1.736   3.030 -0.2143  0.8283 -0.1193
  527MOL0     C72651   0.714   1.650   3.132  0.2798  0.5880 -0.3206
  527MOL0     C72652   0.691   1.503   3.105 -0.7012  0.2533  0.4055
  527MOL0     C72653   0.651   1.392   3.073  0.1218  0.6108 -0.6411
  527MOL0     C72654   0.572   2.027   2.751  0.4905  0.1770 -0.2755
  527MOL0     C72655   0.579   2.136   2.663 -0.5787 -0.1191  0.7998
  527MOL0     C72656   0.653   2.260   2.695 -0.3405  0.5329  0.4126
  527MOL0     H72657   0.862   2.375   2.387 -0.3454 -1.2243 -1.6318
  527MOL0     H72658   0.927   2.607   2.301 -1.6074  3.2119  2.2840
  527MOL0     H72659   0.709   2.869   2.316  2.5157  0.9920  0.6906
  527MOL0     H72660   0.645   2.898   2.154 -0.5751  1.9887  0.6396
  527MOL0     H72661   0.863   2.997   2.081  0.9858  1.0543 -0.1342
  527MOL0     H72662   0.804   3.079   2.232 -1.3688  1.1991 -0.7092
  527MOL0     H72663   0.965   2.922   2.367  0.3484  2.4199  0.3319
  527MOL0     H72664   1.008   2.848   2.216  1.4068  1.4901 -0.8582
  527MOL0     H72665   1.098   3.077   2.157  1.3061  1.4497  1.7804
  527MOL0     H72666   1.036   3.133   2.313  4.8533  0.7227  3.8304
  527MOL0     H72667   1.264   2.938   2.265  2.7821  0.9845 -1.3784
  527MOL0     H72668   1.207   2.996   2.421 -0.1736 -2.0791 -0.6131
  527MOL0     H72669   1.326   3.179   2.201 -0.8755  0.9004 -0.2237
  527MOL0     H72670   1.264   3.224   2.356  2.2089  1.4292  0.1133
  527MOL0     H72671   1.490   3.033   2.377  1.2300  0.4882  2.5876
  527MOL0     H72672   1.398   3.115   2.498 -0.8707 -3.9201 -0.2110
  527MOL0     H72673   1.479   3.334   2.406  1.2025  2.2159 -0.3931
  527MOL0     H72674   1.616   3.217   2.456  0.2244 -0.0683 -1.5396
  527MOL0     H72675   1.647   3.064   2.192 -0.1334 -0.4695 -1.9806
  527MOL0     H72676   1.887   3.196   1.986 -0.4772 -2.3600  0.8965
  527MOL0     H72677   1.794   3.312   1.892 -2.9767 -1.1008 -1.6380
  527MOL0     H72678   1.700   3.015   1.923 -1.2806 -0.9272 -1.9275
  527MOL0     H72679   1.625   3.134   1.825  0.5731 -1.1464 -1.2428
  527MOL0     H72680   1.918   3.037   1.776 -1.7651 -3.3770  0.3906
  527MOL0     H72681   1.780   2.978   1.696  0.4004 -0.6171  0.9957
  527MOL0     H72682   1.849   3.146   1.552 -0.8571 -1.7238 -0.1194
  527MOL0     H72683   1.733   3.232   1.654  1.4340  4.1854  2.1206
  527MOL0     H72684   2.107   3.467   1.742 -1.1520  0.2071 -0.0170
  527MOL0     H72685   2.318   3.627   1.593  0.8009  0.6009  1.9031
  527MOL0     H72686   2.204   3.661   1.730  3.4858  2.2128  0.7880
  527MOL0     H72687   2.218   3.772   1.594  1.0950 -0.6196  0.7987
  527MOL0     H72688   1.899   3.862   1.093 -0.6767  0.6217 -1.2532
  527MOL0     H72689   1.918   4.058   0.963 -0.3035  2.0313 -0.7557
  527MOL0     H72690   1.979   4.269   0.855  0.0642  0.5449 -0.1715
  527MOL0     H72691   1.863   4.271   0.974 -1.0170 -0.5988 -2.1183
  527MOL0     H72692   1.919   4.515   1.037  1.9746 -0.1208  1.0859
  527MOL0     H72693   2.051   4.514   0.937 -0.1984 -1.3496 -0.8895
  527MOL0     H72694   1.837   4.616   0.837 -3.9988 -1.2767 -2.0191
  527MOL0     H72695   1.802   4.451   0.779 -0.6850  0.2419  1.0503
  527MOL0     H72696   2.023   4.414   0.671  0.1713  1.1751 -1.5949
  527MOL0     H72697   2.060   4.575   0.734 -0.9252 -0.3112  0.3220
  527MOL0     H72698   1.816   4.553   0.567 -0.8175  1.1828  3.5274
  527MOL0     H72699   1.922   4.686   0.596 -1.6659  0.8255  0.3782
  527MOL0     H72700   1.967   4.455   0.405  0.6922 -1.1078  1.7278
  527MOL0     H72701   2.108   4.538   0.478  0.3383 -0.4106 -0.5992
  527MOL0     H72702   2.078   4.735   0.356  1.1962  0.5131 -3.3069
  527MOL0     H72703   1.901   4.684   0.333 -0.1326  0.0634 -0.3124
  527MOL0     H72704   2.152   4.563   0.190  0.0733 -2.7070 -0.5421
  527MOL0     H72705   2.020   4.666   0.139 -2.0474  0.5324  0.3880
  527MOL0     H72706   2.169   4.237   1.267  0.7353 -1.4012  1.2669
  527MOL0     H72707   2.164   4.011   1.393 -1.6992 -0.7899  0.7603
  527MOL0     H72708   1.918   3.553   1.299 -2.1072  0.2834  0.5428
  527MOL0     H72709   1.865   3.327   1.425 -0.8488 -0.0861  2.0169
  527MOL0     H72710   0.540   2.645   2.137 -0.8688 -1.1525 -1.1338
  527MOL0     H72711   0.464   2.433   2.250  0.8862  2.0573 -3.5692
  527MOL0     H72712   0.426   1.986   2.392  0.2245 -2.0026 -0.3910
  527MOL0     H72713   0.389   1.806   2.575  0.0480 -1.6964  4.0660
  527MOL0     H72714   0.464   1.933   2.985  2.1268 -0.2710 -0.1136
  527MOL0     H72715   0.319   1.826   2.956  0.1722 -3.2919  1.5511
  527MOL0     H72716   0.449   1.636   3.004 -0.2124  1.2690 -2.3089
  527MOL0     H72717   0.456   1.756   3.140 -0.8821  4.8290 -1.6663
  527MOL0     H72718   0.670   1.704   2.928 -2.4163 -0.0359 -0.4500
  527MOL0     H72719   0.685   1.837   3.043 -1.1705  1.0821  1.0044
  527MOL0     H72720   0.684   1.685   3.231  2.8423 -0.7611  1.0285
  527MOL0     H72721   0.823   1.661   3.136  0.5739 -1.2835 -1.6283
  527MOL0     H72722   0.599   1.302   3.046 -0.7740  0.9595 -0.1490
  527MOL0     H72723   0.627   2.025   2.844 -0.3089 -1.0054  0.1944
  527MOL0     H72724   0.603   2.357   2.681  1.1055  1.2469 -0.0445
  527MOL0     H72725   0.695   2.258   2.797 -0.7012 -0.7336  0.5511
  527MOL0     H72726   0.734   2.262   2.622 -0.6576  0.3022  0.0533
  528MOL0     O72727   0.903   8.383  11.100 -0.2435  0.5173  0.0276
  528MOL0     C72728   0.851   8.483  11.143  0.0466 -0.1753 -0.6661
  528MOL0     O72729   0.724   8.481  11.180 -1.1071 -0.2713  0.5358
  528MOL0     C72730   0.660   8.367  11.216 -0.3708  0.5788 -0.4532
  528MOL0     C72731   0.714   8.268  11.292  0.5652 -0.4504  0.3052
  528MOL0     C72732   0.642   8.148  11.325  1.0333 -0.4150 -1.0003
  528MOL0     C72733   0.509   8.139  11.289 -0.6489  0.4885  0.4153
  528MOL0     O72734   0.413   8.041  11.330 -0.0312 -0.4520 -0.1942
  528MOL0     C72735   0.468   7.901  11.333 -0.0280 -1.0005  0.5796
  528MOL0     C72736   0.420   7.847  11.461  0.2422  0.1677  0.4152
  528MOL0     C72737   0.461   7.706  11.495  0.4549 -0.5730 -0.0041
  528MOL0     C72738   0.439   7.693  11.646  0.4347  0.0632  0.3111
  528MOL0     C72739   0.499   7.554  11.688  0.2513  0.0770  0.8383
  528MOL0     C72740   0.491   7.530  11.843  0.3158 -0.0825 -1.2288
  528MOL0     C72741   0.353   7.515  11.898  0.1783  0.2230 -0.0195
  528MOL0     C72742   0.295   7.386  11.834  0.2920  0.4042 -0.1319
  528MOL0     N72743   0.163   7.356  11.896 -0.2181  0.2297  0.7697
  528MOL0     C72744   0.052   7.435  11.918 -0.4927 -1.1340 -0.6048
  528MOL0     C72745  -0.039   7.363  11.982 -0.5265 -0.9855  0.4722
  528MOL0     C72746  -0.173   7.417  12.022 -0.5173  0.2442  0.0467
  528MOL0     C72747  -0.174   7.449  12.175  0.0988 -0.9743 -0.2482
  528MOL0     C72748  -0.092   7.574  12.214 -0.9451  0.3719 -0.2366
  528MOL0     C72749  -0.133   7.615  12.355 -0.3016  0.5809  0.4809
  528MOL0     O72750  -0.099   7.754  12.357 -0.3337  0.1438 -0.7813
  528MOL0     C72751  -0.100   7.828  12.468  1.6917  0.5910  0.8255
  528MOL0     C72752  -0.138   7.770  12.603 -0.5924  0.5141  0.9605
  528MOL0     C72753  -0.148   7.853  12.723  0.5489  0.5015 -1.1242
  528MOL0     C72754  -0.191   7.790  12.856  0.2851  1.6912 -0.1747
  528MOL0     C72755  -0.118   7.992  12.711 -0.4972 -0.6400  0.8802
  528MOL0     C72756  -0.129   8.096  12.818 -0.8701 -0.5306  0.3738
  528MOL0     O72757  -0.051   8.200  12.803  0.5072  0.8465  0.5927
  528MOL0     C72758  -0.049   8.270  12.920 -0.1875 -0.9878  0.4929
  528MOL0     C72759  -0.151   8.363  12.951 -0.0266 -0.3052 -0.8946
  528MOL0     C72760  -0.131   8.439  13.071  0.9054  0.2717 -0.2721
  528MOL0     C72761  -0.018   8.420  13.156  0.8479 -0.1560 -0.5244
  528MOL0     O72762  -0.015   8.493  13.277 -0.0332  0.0239 -0.9600
  528MOL0     C72763   0.083   8.462  13.380 -0.5285  0.4253  0.2474
  528MOL0     C72764   0.083   8.550  13.495 -0.0881 -0.2601  1.3859
  528MOL0     C72765   0.176   8.489  13.597 -0.3422 -0.0157 -1.4659
  528MOL0     C72766   0.312   8.563  13.586  0.4217 -0.0870  0.8332
  528MOL0     C72767   0.423   8.501  13.669 -1.1369 -0.0390  0.3271
  528MOL0     C72768   0.508   8.597  13.742 -0.4683 -0.7245 -0.0763
  528MOL0     C72769   0.428   8.679  13.835 -1.0339 -0.4946 -0.0967
  528MOL0     C72770   0.521   8.710  13.959 -0.4445 -0.9190  0.1009
  528MOL0    Cl72771   0.539   8.551  14.046  0.1564 -0.3211  0.1738
  528MOL0     C72772   0.078   8.324  13.120 -0.4231 -0.2576  0.0997
  528MOL0     C72773   0.063   8.242  13.011  1.3189 -1.0967  0.5728
  528MOL0     O72774  -0.212   8.070  12.906  0.1906  0.2532  0.6750
  528MOL0     C72775  -0.087   8.041  12.581  0.4125  0.4020  0.1863
  528MOL0     C72776  -0.081   7.963  12.461 -0.0254  0.1115  0.7118
  528MOL0     N72777   0.006   7.238  12.004 -0.0034  0.5861  0.6422
  528MOL0     N72778   0.128   7.233  11.937  0.3228  0.2661  0.4030
  528MOL0     C72779   0.463   8.243  11.199 -0.4960 -0.3463  0.8370
  528MOL0     C72780   0.534   8.361  11.167  0.9157  0.3794  0.5953
  528MOL0     C72781   0.909   8.617  11.129  0.1648 -0.0064  0.2231
  528MOL0     C72782   0.883   8.711  11.236 -0.2952  0.0570 -0.0023
  528MOL0     C72783   0.910   8.848  11.223  0.0581 -0.5610 -0.3935
  528MOL0     C72784   0.978   8.900  11.115  0.4044  0.1451  0.3800
  528MOL0     O72785   1.022   9.025  11.094  0.6904  0.3766 -0.4770
  528MOL0     C72786   1.012   9.128  11.202 -0.1863  0.3519 -0.3970
  528MOL0     C72787   1.103   9.254  11.182 -0.1889  0.3342 -0.2422
  528MOL0     C72788   1.256   9.217  11.197  1.0219  0.9525 -0.4122
  528MOL0     C72789   1.353   9.306  11.121 -1.3531 -0.2269  0.0652
  528MOL0     C72790   1.360   9.440  11.175 -0.0032 -0.1477  0.3201
  528MOL0     C72791   1.362   9.552  11.223  0.2908  0.0491 -0.8081
  528MOL0     C72792   1.023   8.807  11.022  0.1647  0.1115  0.9103
  528MOL0     C72793   0.980   8.670  11.016  1.1829  0.1028  0.1181
  528MOL0     C72794   1.012   8.596  10.887 -0.2872 -1.0015 -0.9898
  528MOL0     H72795   0.819   8.273  11.319  0.5049  0.8269  0.3962
  528MOL0     H72796   0.696   8.069  11.376  1.5619  1.4753  1.5993
  528MOL0     H72797   0.576   7.912  11.325  0.0521  0.3103  2.7354
  528MOL0     H72798   0.436   7.843  11.246 -2.2678 -1.9213  1.9227
  528MOL0     H72799   0.468   7.921  11.526  0.8182  0.3064 -0.1561
  528MOL0     H72800   0.311   7.855  11.458 -0.0109 -1.7052 -4.0702
  528MOL0     H72801   0.408   7.629  11.438  2.8959 -1.8486 -0.6821
  528MOL0     H72802   0.567   7.686  11.473  0.1340 -4.8139  1.4989
  528MOL0     H72803   0.483   7.774  11.705  1.8435  0.1451 -0.8291
  528MOL0     H72804   0.331   7.697  11.665  0.0704 -3.5891 -0.1787
  528MOL0     H72805   0.603   7.542  11.655 -0.0732  0.0787 -0.2280
  528MOL0     H72806   0.458   7.475  11.624  2.7161  0.8036 -1.8948
  528MOL0     H72807   0.555   7.446  11.872  1.2080  0.5566 -1.2875
  528MOL0     H72808   0.528   7.623  11.887 -2.2116  1.0544 -1.3734
  528MOL0     H72809   0.287   7.599  11.874  1.2385  0.5296 -2.0679
  528MOL0     H72810   0.355   7.500  12.007 -2.3871 -0.5744 -0.0059
  528MOL0     H72811   0.291   7.401  11.726 -0.8295  2.2917  0.1356
  528MOL0     H72812   0.351   7.296  11.863 -0.8674 -0.0261  0.8526
  528MOL0     H72813   0.032   7.541  11.903  1.2507 -1.1712 -3.9482
  528MOL0     H72814  -0.254   7.348  11.998  0.4074  0.1073 -3.2397
  528MOL0     H72815  -0.186   7.513  11.970 -2.1174 -0.1294 -0.2968
  528MOL0     H72816  -0.277   7.455  12.211  0.9915  0.7340  2.3399
  528MOL0     H72817  -0.115   7.373  12.228  1.5745  0.3370  0.0921
  528MOL0     H72818   0.015   7.551  12.219 -0.6107  2.0708  2.7954
  528MOL0     H72819  -0.112   7.653  12.141 -2.9670 -0.3402 -0.4884
  528MOL0     H72820  -0.241   7.602  12.363 -0.4868  1.7361  0.0109
  528MOL0     H72821  -0.087   7.556  12.434  0.0053 -0.3557 -0.3685
  528MOL0     H72822  -0.167   7.667  12.624  4.1548 -0.8737  1.7335
  528MOL0     H72823  -0.299   7.794  12.870  0.5783  1.3253  2.9547
  528MOL0     H72824  -0.148   7.843  12.941 -1.3632 -0.3833  2.0941
  528MOL0     H72825  -0.159   7.685  12.860 -1.8709  0.9686 -0.7263
  528MOL0     H72826  -0.242   8.358  12.892 -0.8900  0.9952  0.2671
  528MOL0     H72827  -0.208   8.509  13.103 -1.0000 -1.1176 -1.5730
  528MOL0     H72828   0.068   8.363  13.423 -0.1807  1.1391  2.1018
  528MOL0     H72829   0.182   8.464  13.333  0.0164  0.2089  1.3586
  528MOL0     H72830   0.116   8.651  13.468  1.4614 -1.5558 -2.2078
  528MOL0     H72831  -0.022   8.546  13.524 -0.8029 -0.0811 -0.9515
  528MOL0     H72832   0.184   8.382  13.573 -2.8467 -0.6211  0.0382
  528MOL0     H72833   0.141   8.513  13.697  2.6894  1.6475 -0.7066
  528MOL0     H72834   0.304   8.669  13.609  0.6859  1.1673 -3.8111
  528MOL0     H72835   0.345   8.550  13.483  2.0859 -1.0390  1.4541
  528MOL0     H72836   0.378   8.435  13.743 -2.1321 -0.3497 -0.5192
  528MOL0     H72837   0.478   8.438  13.599 -2.3922 -0.6105 -0.1832
  528MOL0     H72838   0.562   8.661  13.671 -1.0422 -1.5523 -1.2959
  528MOL0     H72839   0.586   8.542  13.797 -0.7913 -0.2743  0.8553
  528MOL0     H72840   0.338   8.625  13.864 -1.9551 -0.2650 -2.3310
  528MOL0     H72841   0.393   8.771  13.787 -0.7792  0.9932  2.3325
  528MOL0     H72842   0.471   8.791  14.013 -2.9898  2.2977 -6.0856
  528MOL0     H72843   0.620   8.740  13.924 -0.2786 -1.5440  0.0245
  528MOL0     H72844   0.159   8.306  13.191 -1.5759 -2.1778  0.9971
  528MOL0     H72845   0.146   8.174  12.993  0.8214 -1.8004  0.9073
  528MOL0     H72846  -0.057   8.142  12.553 -2.6250  1.5973  0.8385
  528MOL0     H72847  -0.063   8.007  12.364  4.2503  0.4501  1.4532
  528MOL0     H72848   0.358   8.241  11.171 -0.7197  1.6245  1.4083
  528MOL0     H72849   0.484   8.441  11.113 -1.5285  0.3957  2.6499
  528MOL0     H72850   0.836   8.678  11.328  0.4293 -2.4512 -0.4542
  528MOL0     H72851   0.880   8.908  11.308 -1.7459 -0.2337 -1.2111
  528MOL0     H72852   0.907   9.155  11.209 -0.9550 -2.3028 -0.5494
  528MOL0     H72853   1.043   9.093  11.301 -4.3781  1.6881  1.6081
  528MOL0     H72854   1.086   9.316  11.270  3.2998 -0.7991  1.4175
  528MOL0     H72855   1.086   9.295  11.082 -1.7261  0.3265 -0.0167
  528MOL0     H72856   1.285   9.218  11.303  0.3547  0.3084 -0.2202
  528MOL0     H72857   1.268   9.113  11.168  3.3331  1.4408 -1.3883
  528MOL0     H72858   1.337   9.302  11.012 -2.2356 -1.4456  0.2141
  528MOL0     H72859   1.452   9.260  11.129 -1.0141  0.6566  1.1398
  528MOL0     H72860   1.364   9.657  11.244 -0.9400  0.8923 -4.2353
  528MOL0     H72861   1.080   8.852  10.941  3.5778  0.3573  3.2531
  528MOL0     H72862   1.027   8.490  10.909 -3.5075 -1.6561 -1.4015
  528MOL0     H72863   0.924   8.598  10.822 -1.0350 -2.2012 -0.0525
  528MOL0     H72864   1.105   8.640  10.850  0.3474 -1.3275  0.1789
  529MOL0     O72865   2.756   0.036   9.375  0.0570  0.3304  0.3070
  529MOL0     C72866   2.651  -0.005   9.332  0.8557 -0.2058 -0.5171
  529MOL0     O72867   2.630  -0.100   9.239  0.4820  0.6568  0.9281
  529MOL0     C72868   2.739  -0.175   9.182  1.2357 -0.9285  0.4679
  529MOL0     C72869   2.706  -0.231   9.062  0.6231  0.4656 -0.1162
  529MOL0     C72870   2.807  -0.297   8.989  0.3695 -0.5290 -0.4607
  529MOL0     C72871   2.943  -0.303   9.035  0.7294  0.4359 -0.6688
  529MOL0     O72872   3.038  -0.381   8.983 -0.3291 -1.3129 -0.1640
  529MOL0     C72873   3.056  -0.348   8.841 -0.5658 -0.2724  0.1659
  529MOL0     C72874   3.107  -0.477   8.778 -0.0490 -0.4579  0.2810
  529MOL0     C72875   3.052  -0.494   8.626 -0.5850 -0.3441 -0.3525
  529MOL0     C72876   2.897  -0.490   8.611 -0.3862  0.0293  0.2585
  529MOL0     C72877   2.858  -0.557   8.478  0.5541 -0.1688 -0.1425
  529MOL0     C72878   2.875  -0.714   8.473  1.4168  0.6475  0.8980
  529MOL0     C72879   2.817  -0.761   8.334 -0.5681  0.1882  0.1040
  529MOL0     C72880   2.845  -0.906   8.291 -0.7261  0.4446  0.9266
  529MOL0     N72881   2.723  -0.983   8.278  0.2939  0.0140 -0.1297
  529MOL0     C72882   2.634  -1.007   8.384 -0.8355 -0.2059  0.1811
  529MOL0     C72883   2.530  -1.079   8.320 -0.4086 -0.2510  0.1372
  529MOL0     C72884   2.388  -1.109   8.360  0.8465  0.2296 -1.0487
  529MOL0     C72885   2.323  -0.991   8.419 -0.1146 -0.2749  0.2103
  529MOL0     C72886   2.319  -0.868   8.327  0.6000  0.2807 -0.7948
  529MOL0     C72887   2.245  -0.758   8.407 -0.5189  0.1548  0.4146
  529MOL0     O72888   2.234  -0.650   8.318  0.0231 -0.3147 -0.5738
  529MOL0     C72889   2.173  -0.523   8.365  0.5225  0.5220 -0.4893
  529MOL0     C72890   2.159  -0.493   8.502 -0.3880  0.0668  0.0016
  529MOL0     C72891   2.106  -0.376   8.552  0.7836 -0.3454 -0.2890
  529MOL0     C72892   2.107  -0.363   8.702  0.4012  0.2427  0.4253
  529MOL0     C72893   2.062  -0.275   8.467 -0.4226  0.0712 -0.5060
  529MOL0     C72894   1.993  -0.145   8.511 -0.5854  0.3696  1.0318
  529MOL0     O72895   1.907  -0.143   8.619  0.4503  0.7263 -0.1458
  529MOL0     C72896   1.845  -0.030   8.663  0.2001 -0.6838  0.4849
  529MOL0     C72897   1.742  -0.056   8.744  0.0676 -0.5603 -0.4206
  529MOL0     C72898   1.663   0.051   8.792  0.4941 -0.8150 -0.1950
  529MOL0     C72899   1.680   0.184   8.758  0.5484 -0.8414 -0.0389
  529MOL0     O72900   1.607   0.288   8.807 -0.2378 -0.1000 -0.8718
  529MOL0     C72901   1.603   0.303   8.948  0.3870  0.4291 -0.4789
  529MOL0     C72902   1.455   0.291   9.008 -1.0905  0.3087  0.1282
  529MOL0     C72903   1.370   0.419   8.979 -0.4742  0.5649  0.3363
  529MOL0     C72904   1.305   0.400   8.845 -0.3258 -0.3666  0.1208
  529MOL0     C72905   1.165   0.373   8.852  0.0737  0.4518  0.0820
  529MOL0     C72906   1.105   0.354   8.714 -0.0789  0.2166 -1.1013
  529MOL0     C72907   0.948   0.376   8.708  0.3990  0.2448  0.3436
  529MOL0     C72908   0.906   0.350   8.571  0.3866 -0.4932  0.6451
  529MOL0    Cl72909   0.730   0.390   8.548 -0.4901 -0.3795 -0.0150
  529MOL0     C72910   1.799   0.210   8.674  0.8454  1.0081  0.3141
  529MOL0     C72911   1.878   0.104   8.635 -0.3323  0.1339  0.1148
  529MOL0     O72912   2.006  -0.056   8.425 -0.4738  0.0682 -1.0163
  529MOL0     C72913   2.082  -0.297   8.330  0.7546 -0.7224 -0.3982
  529MOL0     C72914   2.137  -0.414   8.280  0.2545  0.5724 -0.0004
  529MOL0     N72915   2.565  -1.095   8.188 -0.3234  0.5997 -0.0826
  529MOL0     N72916   2.671  -1.032   8.164  0.3399 -0.5663 -1.2103
  529MOL0     C72917   2.964  -0.262   9.165  0.2399  0.8955 -0.3808
  529MOL0     C72918   2.868  -0.187   9.237  0.1600  0.4277  1.3502
  529MOL0     C72919   2.521   0.047   9.380 -0.4775 -0.0945 -1.0138
  529MOL0     C72920   2.409   0.029   9.307 -0.6823 -0.8309  0.3828
  529MOL0     C72921   2.283   0.070   9.350  0.5710 -0.1880  0.8223
  529MOL0     C72922   2.268   0.123   9.479 -0.6466  0.0151  0.2892
  529MOL0     O72923   2.143   0.145   9.520  0.3187  0.6087 -0.0497
  529MOL0     C72924   2.083   0.266   9.475  0.6889  0.2938  0.5338
  529MOL0     C72925   2.063   0.355   9.594 -0.5476 -0.5418  0.1531
  529MOL0     C72926   1.970   0.303   9.700  1.2493 -0.3764  0.4146
  529MOL0     C72927   1.820   0.326   9.677 -0.0888  0.1294 -0.3707
  529MOL0     C72928   1.752   0.219   9.757  0.3083  0.2433  1.1123
  529MOL0     C72929   1.708   0.131   9.821  0.3795  0.7770 -0.8089
  529MOL0     C72930   2.384   0.154   9.550 -0.1305 -0.0905  0.1061
  529MOL0     C72931   2.512   0.116   9.506  0.0879 -0.1418  0.0409
  529MOL0     C72932   2.616   0.122   9.615 -0.0317 -0.2263  1.1895
  529MOL0     H72933   2.609  -0.220   9.014  1.4470  3.6147 -1.3147
  529MOL0     H72934   2.788  -0.333   8.889 -0.4155 -4.3843  0.8929
  529MOL0     H72935   3.127  -0.265   8.838 -2.6125  1.5429  0.3109
  529MOL0     H72936   2.967  -0.322   8.783  0.1589 -0.8348 -1.2502
  529MOL0     H72937   3.216  -0.478   8.778  0.0041 -0.7609  2.5956
  529MOL0     H72938   3.065  -0.560   8.837  1.2272 -0.8212  0.7100
  529MOL0     H72939   3.095  -0.413   8.565  2.2717  2.3186  4.5488
  529MOL0     H72940   3.102  -0.585   8.594 -0.4173 -0.2177 -0.4512
  529MOL0     H72941   2.843  -0.532   8.697  2.4417  0.4230  2.3794
  529MOL0     H72942   2.871  -0.385   8.597  1.1606  0.0106 -4.0357
  529MOL0     H72943   2.924  -0.504   8.409  0.9697  0.9680  1.0704
  529MOL0     H72944   2.752  -0.535   8.462  0.0729  0.6271  3.2151
  529MOL0     H72945   2.980  -0.743   8.483  2.3157  2.5782 -1.8026
  529MOL0     H72946   2.806  -0.755   8.547  3.5016 -1.1965  1.9278
  529MOL0     H72947   2.856  -0.706   8.248  0.3984 -0.1106  0.3473
  529MOL0     H72948   2.709  -0.744   8.340 -0.6783 -0.7388  1.0451
  529MOL0     H72949   2.908  -0.910   8.202 -1.9374  0.9145  0.0249
  529MOL0     H72950   2.907  -0.937   8.376  1.2382  1.8021  0.0684
  529MOL0     H72951   2.632  -0.956   8.480  2.7252  0.8346 -0.1408
  529MOL0     H72952   2.397  -1.192   8.431  4.3368  0.4502 -1.0349
  529MOL0     H72953   2.337  -1.151   8.273 -0.0600  0.7816 -0.7976
  529MOL0     H72954   2.222  -1.027   8.444  0.1775 -1.0763  0.2627
  529MOL0     H72955   2.363  -0.956   8.514 -2.1876 -0.3387  1.1507
  529MOL0     H72956   2.420  -0.832   8.308  1.1361 -0.6358  0.2031
  529MOL0     H72957   2.273  -0.892   8.231 -0.0063 -1.1392 -0.1892
  529MOL0     H72958   2.151  -0.793   8.452  0.2462 -1.6610  0.6451
  529MOL0     H72959   2.321  -0.739   8.483  1.2835  1.4418 -1.6127
  529MOL0     H72960   2.189  -0.568   8.574 -0.2148  0.8909  0.8072
  529MOL0     H72961   2.176  -0.441   8.737 -1.9607 -1.7217  1.0480
  529MOL0     H72962   2.008  -0.384   8.746 -0.1238  1.1861 -0.2699
  529MOL0     H72963   2.155  -0.271   8.737  3.3399 -0.5963 -1.0941
  529MOL0     H72964   1.730  -0.161   8.767 -0.7565 -0.2990  0.3972
  529MOL0     H72965   1.576   0.020   8.850  0.0319 -1.3266 -1.1435
  529MOL0     H72966   1.663   0.229   9.003  0.4310  0.8964  0.1068
  529MOL0     H72967   1.637   0.405   8.969 -0.5528  0.7003 -0.2681
  529MOL0     H72968   1.400   0.202   8.977 -0.3643 -0.8095  1.8715
  529MOL0     H72969   1.472   0.274   9.115  2.0778  0.1000 -0.3140
  529MOL0     H72970   1.430   0.511   8.977  0.9771 -0.2414  2.8403
  529MOL0     H72971   1.297   0.434   9.059  0.1785  0.6423  0.9220
  529MOL0     H72972   1.364   0.321   8.796  0.5836  0.4472 -0.1361
  529MOL0     H72973   1.313   0.489   8.782 -2.8833  1.4428  2.1853
  529MOL0     H72974   1.140   0.290   8.919 -2.5903  1.8492  0.9595
  529MOL0     H72975   1.120   0.461   8.898  0.0669  1.2595 -1.4035
  529MOL0     H72976   1.134   0.257   8.673  0.8834  0.2044 -0.4177
  529MOL0     H72977   1.146   0.428   8.644 -0.4390  0.3203 -1.2066
  529MOL0     H72978   0.920   0.478   8.735  1.6043  0.2543  1.7001
  529MOL0     H72979   0.897   0.300   8.769 -1.5724 -0.3515 -1.8830
  529MOL0     H72980   0.907   0.241   8.560 -0.6772 -0.4276 -0.2728
  529MOL0     H72981   0.971   0.407   8.504  0.5410 -1.7531 -0.3234
  529MOL0     H72982   1.822   0.313   8.649  0.3070  0.9668 -0.3961
  529MOL0     H72983   1.969   0.132   8.584  1.7601 -1.8725  2.4683
  529MOL0     H72984   2.050  -0.215   8.266  1.1373  1.0618  1.5630
  529MOL0     H72985   2.134  -0.436   8.174  3.1852 -1.0982  0.1536
  529MOL0     H72986   3.052  -0.283   9.224  1.5729 -0.3699 -2.7098
  529MOL0     H72987   2.893  -0.159   9.339  0.2718  0.4147  1.3265
  529MOL0     H72988   2.419  -0.020   9.210 -0.5030 -1.4230  0.6966
  529MOL0     H72989   2.197   0.052   9.285  1.1670 -1.0434  0.2483
  529MOL0     H72990   2.138   0.326   9.402 -0.3882  1.6657  0.8051
  529MOL0     H72991   1.984   0.237   9.438  1.3154 -0.8000 -0.3485
  529MOL0     H72992   2.029   0.455   9.564  2.2045 -0.0834 -1.7783
  529MOL0     H72993   2.159   0.367   9.644 -0.8339  2.9628  0.1122
  529MOL0     H72994   1.977   0.196   9.719 -4.3239 -0.7392  2.3237
  529MOL0     H72995   1.986   0.353   9.796  1.1780 -1.3859  0.9683
  529MOL0     H72996   1.807   0.322   9.569 -0.9864  2.7234 -0.4262
  529MOL0     H72997   1.784   0.422   9.715 -1.9279 -1.3302  1.8930
  529MOL0     H72998   1.650   0.065   9.883 -0.1141  2.7311  0.9065
  529MOL0     H72999   2.377   0.200   9.648 -0.2913 -0.0662  0.0851
  529MOL0     H73000   2.695   0.191   9.584  1.3233 -1.6181  1.3910
  529MOL0     H73001   2.581   0.151   9.714  0.9907 -1.4385  1.9456
  529MOL0     H73002   2.667   0.025   9.618  1.7242  0.4554 -1.7260
  530MOL0     O73003   0.205   3.240   3.311 -0.3422 -0.5219 -0.1692
  530MOL0     C73004   0.086   3.199   3.310 -0.5984  0.4739  0.8690
  530MOL0     O73005  -0.017   3.279   3.320  0.5502  0.9906 -0.1377
  530MOL0     C73006   0.011   3.411   3.307  0.9793  0.3734 -0.2860
  530MOL0     C73007   0.025   3.493   3.417  0.2579  0.1899  0.0275
  530MOL0     C73008   0.030   3.630   3.396 -0.6458  0.8153 -0.0566
  530MOL0     C73009   0.026   3.681   3.263 -0.4158  0.3283 -0.2494
  530MOL0     O73010   0.021   3.812   3.244 -0.4123 -0.6117  1.3029
  530MOL0     C73011  -0.092   3.859   3.177  0.1741  0.6802 -0.3865
  530MOL0     C73012  -0.094   4.007   3.165 -0.2523 -0.5132 -0.8254
  530MOL0     C73013  -0.093   4.087   3.299  1.1183  0.1704 -0.8324
  530MOL0     C73014  -0.235   4.116   3.350 -0.7123  0.1204  0.7499
  530MOL0     C73015  -0.223   4.150   3.507  0.1643  0.6300 -0.3851
  530MOL0     C73016  -0.179   4.295   3.526  0.1055 -0.1118 -0.5539
  530MOL0     C73017  -0.112   4.301   3.669 -0.5420 -0.2335  0.2217
  530MOL0     C73018  -0.202   4.296   3.791  0.4553  0.3486 -0.3634
  530MOL0     N73019  -0.115   4.313   3.908 -0.5455  0.2953 -0.5349
  530MOL0     C73020  -0.089   4.210   3.995  0.7036  0.0197  0.1563
  530MOL0     C73021  -0.027   4.271   4.099 -0.1241 -0.5632  0.8382
  530MOL0     C73022   0.040   4.206   4.211 -0.8785  0.3095  0.5261
  530MOL0     C73023   0.193   4.206   4.196 -0.0509 -0.7059 -0.0766
  530MOL0     C73024   0.270   4.134   4.328  0.5623 -0.1689  0.0978
  530MOL0     C73025   0.307   3.991   4.312 -0.1608 -0.8867  0.1102
  530MOL0     O73026   0.425   3.973   4.220  0.9338 -0.3499 -0.4471
  530MOL0     C73027   0.487   3.850   4.239 -0.4096  0.2051 -1.0272
  530MOL0     C73028   0.423   3.726   4.212 -1.1792 -0.7158  0.3074
  530MOL0     C73029   0.480   3.604   4.205  0.2330 -0.1197 -0.4198
  530MOL0     C73030   0.395   3.495   4.148  0.2700  0.1334  0.3128
  530MOL0     C73031   0.613   3.596   4.235 -0.7359  0.3515  0.3175
  530MOL0     C73032   0.690   3.479   4.250 -0.2633  0.5065 -1.1901
  530MOL0     O73033   0.820   3.490   4.224  0.4423 -0.4847  0.0351
  530MOL0     C73034   0.899   3.399   4.277  0.1552  0.2134 -0.8174
  530MOL0     C73035   0.943   3.416   4.413 -1.5696 -0.4183 -0.2042
  530MOL0     C73036   1.025   3.313   4.464  0.4796  0.5062 -1.1843
  530MOL0     C73037   1.052   3.190   4.396 -0.0276 -0.7549 -0.1020
  530MOL0     O73038   1.154   3.113   4.445 -0.6043 -0.1622 -0.3576
  530MOL0     C73039   1.241   3.175   4.535  0.0252 -0.3417 -0.0377
  530MOL0     C73040   1.365   3.088   4.556  0.3160  0.0511 -1.0655
  530MOL0     C73041   1.496   3.167   4.583 -1.1198 -0.9566 -0.2254
  530MOL0     C73042   1.621   3.076   4.554  0.2454  1.3119 -0.2518
  530MOL0     C73043   1.746   3.156   4.616 -0.6004 -0.3953 -0.4278
  530MOL0     C73044   1.883   3.090   4.579 -0.1910 -0.4473  0.0899
  530MOL0     C73045   1.914   3.071   4.419 -0.1355 -0.9146 -0.2287
  530MOL0     C73046   2.010   2.949   4.398 -0.3693  0.7620  1.1472
  530MOL0    Cl73047   2.147   2.971   4.506 -0.2256 -0.2267  0.5176
  530MOL0     C73048   1.019   3.190   4.270 -0.1674  0.9868  0.6060
  530MOL0     C73049   0.937   3.283   4.205  0.2627 -0.4694  0.0874
  530MOL0     O73050   0.635   3.375   4.285  0.6102  1.7279 -0.0674
  530MOL0     C73051   0.684   3.720   4.275 -0.2900 -0.3120 -0.0866
  530MOL0     C73052   0.621   3.845   4.272  0.3130  0.4777 -0.0957
  530MOL0     N73053  -0.032   4.413   4.088  0.1523  0.1462 -0.0641
  530MOL0     N73054  -0.087   4.429   3.974  0.5742 -0.2019 -0.5346
  530MOL0     C73055   0.024   3.589   3.160 -0.3434 -0.8236 -0.6305
  530MOL0     C73056   0.010   3.456   3.173  0.9268  0.0946  0.7675
  530MOL0     C73057   0.054   3.055   3.277 -0.3110 -0.2370  0.4075
  530MOL0     C73058   0.169   2.980   3.290 -0.3052  0.9257 -0.7031
  530MOL0     C73059   0.158   2.848   3.296  0.0751  0.2488  0.1345
  530MOL0     C73060   0.042   2.786   3.253 -0.0550 -0.4117 -0.4209
  530MOL0     O73061   0.048   2.651   3.241 -1.1677 -0.0586  0.2177
  530MOL0     C73062  -0.069   2.573   3.219  1.1364 -0.2170  0.8798
  530MOL0     C73063  -0.084   2.566   3.067  0.1672 -0.0202 -0.3545
  530MOL0     C73064  -0.040   2.426   3.026 -0.1831  0.7756  0.3550
  530MOL0     C73065  -0.162   2.341   3.025 -0.0992 -0.4371 -0.8122
  530MOL0     C73066  -0.181   2.282   3.156 -0.4972 -0.0325 -0.0697
  530MOL0     C73067  -0.183   2.227   3.266  0.7879  0.1443  0.0320
  530MOL0     C73068  -0.085   2.853   3.252 -0.6039 -0.5352  0.6428
  530MOL0     C73069  -0.078   2.998   3.257  0.0322  0.1516  0.1694
  530MOL0     C73070  -0.206   3.075   3.249  0.9788  0.8745 -0.7623
  530MOL0     H73071   0.026   3.450   3.517 -4.0668  0.3784  0.3314
  530MOL0     H73072   0.059   3.702   3.471 -0.6331 -1.3790  2.1877
  530MOL0     H73073  -0.182   3.826   3.230 -0.6214  3.0331 -0.1286
  530MOL0     H73074  -0.096   3.820   3.075  0.6576 -0.2832 -0.0517
  530MOL0     H73075  -0.010   4.044   3.106 -1.2219  1.7258 -0.8838
  530MOL0     H73076  -0.187   4.019   3.107  0.3414  1.1713 -1.4664
  530MOL0     H73077  -0.029   4.033   3.370  0.3169 -4.6389 -3.3746
  530MOL0     H73078  -0.039   4.181   3.286  0.6822  0.6839  0.8016
  530MOL0     H73079  -0.272   4.202   3.294 -1.0247 -0.9702 -0.7661
  530MOL0     H73080  -0.299   4.029   3.329  0.6044 -0.8589  0.6256
  530MOL0     H73081  -0.161   4.078   3.560 -2.1845  0.0650  1.8297
  530MOL0     H73082  -0.325   4.124   3.538 -0.0245 -0.6950 -1.9807
  530MOL0     H73083  -0.098   4.320   3.456 -0.7759 -0.1570 -1.6200
  530MOL0     H73084  -0.260   4.369   3.517 -0.1052 -0.4286 -1.2988
  530MOL0     H73085  -0.046   4.388   3.685  0.4251 -0.7096 -1.0413
  530MOL0     H73086  -0.035   4.223   3.676 -2.7055 -2.5805 -0.8479
  530MOL0     H73087  -0.282   4.370   3.786  0.0026  0.1807  2.4233
  530MOL0     H73088  -0.251   4.199   3.773  0.9917 -0.0273  0.1620
  530MOL0     H73089  -0.122   4.106   3.996 -0.3669  0.2601 -2.1880
  530MOL0     H73090   0.010   4.101   4.211 -1.0981  0.3484 -1.0596
  530MOL0     H73091   0.018   4.246   4.310 -0.4155 -2.1673  1.7071
  530MOL0     H73092   0.218   4.170   4.096 -3.0924 -0.7838 -0.9070
  530MOL0     H73093   0.236   4.306   4.204  1.8379 -1.4722 -0.1326
  530MOL0     H73094   0.367   4.184   4.341  0.2712  0.0410  1.6924
  530MOL0     H73095   0.213   4.148   4.420  2.4757 -0.1594  1.3561
  530MOL0     H73096   0.338   3.950   4.408 -1.5228 -0.4893  0.7439
  530MOL0     H73097   0.219   3.933   4.284 -1.1230  1.3618 -1.9803
  530MOL0     H73098   0.321   3.738   4.180 -0.3917  6.3735 -1.1522
  530MOL0     H73099   0.445   3.427   4.077  1.4573  0.5209  0.7584
  530MOL0     H73100   0.302   3.522   4.097 -1.0728 -2.8370  0.9785
  530MOL0     H73101   0.370   3.437   4.237  2.4560  0.0632  0.9375
  530MOL0     H73102   0.930   3.504   4.475  0.3625  0.1315 -0.5152
  530MOL0     H73103   1.060   3.333   4.565 -0.1974 -1.7607 -0.4424
  530MOL0     H73104   1.286   3.265   4.492  0.0540 -0.8982 -1.2142
  530MOL0     H73105   1.181   3.205   4.621 -0.1228  0.6354 -0.4638
  530MOL0     H73106   1.354   3.025   4.645  0.2456  1.1449 -0.2832
  530MOL0     H73107   1.382   3.015   4.476  2.1242 -1.5149  0.5983
  530MOL0     H73108   1.496   3.205   4.685  0.5194  1.4253 -1.0323
  530MOL0     H73109   1.498   3.255   4.518 -0.8630 -1.3196 -0.7142
  530MOL0     H73110   1.642   3.055   4.449 -0.6165  1.6898 -0.5066
  530MOL0     H73111   1.608   2.982   4.609 -0.0784  0.1950 -2.1474
  530MOL0     H73112   1.743   3.252   4.563 -0.6871  0.0747  0.4067
  530MOL0     H73113   1.733   3.161   4.725 -0.5199  1.4182 -0.4638
  530MOL0     H73114   1.879   2.987   4.616  1.8315 -0.6451 -0.1285
  530MOL0     H73115   1.964   3.137   4.635  0.9117  0.0428 -1.8207
  530MOL0     H73116   1.958   3.167   4.390 -2.7029  1.1471  2.0869
  530MOL0     H73117   1.827   3.050   4.356 -1.0478 -1.9418  1.2968
  530MOL0     H73118   2.041   2.949   4.293  1.4825 -2.4236  1.5794
  530MOL0     H73119   1.958   2.860   4.434 -0.9779  1.5688  2.3421
  530MOL0     H73120   1.054   3.107   4.209  1.8500  2.6040 -0.5744
  530MOL0     H73121   0.903   3.262   4.104  3.3401 -3.4032 -0.5351
  530MOL0     H73122   0.787   3.713   4.307 -0.3660  0.0939  0.2482
  530MOL0     H73123   0.667   3.942   4.282 -0.0697  0.9024 -1.9740
  530MOL0     H73124   0.024   3.620   3.056 -0.7858 -2.5438 -1.1824
  530MOL0     H73125   0.002   3.387   3.089  1.7265  1.1025 -0.1632
  530MOL0     H73126   0.264   3.022   3.319 -0.1571  0.4315 -0.4588
  530MOL0     H73127   0.250   2.794   3.315 -0.1676  0.4101  1.9397
  530MOL0     H73128  -0.044   2.478   3.269 -0.1811 -0.6312  0.7933
  530MOL0     H73129  -0.157   2.610   3.272  0.4753 -1.9263  1.0508
  530MOL0     H73130  -0.028   2.645   3.016 -1.8135  1.0867 -0.9405
  530MOL0     H73131  -0.186   2.593   3.037 -0.2527 -2.2578 -1.1440
  530MOL0     H73132  -0.005   2.419   2.923  1.8439  0.4885  1.0278
  530MOL0     H73133   0.035   2.384   3.093  2.1849 -0.0819 -2.5986
  530MOL0     H73134  -0.157   2.265   2.946 -1.4695  0.7828 -2.1333
  530MOL0     H73135  -0.249   2.403   3.001  3.1219  4.6120 -0.6894
  530MOL0     H73136  -0.199   2.192   3.366 -0.6660 -0.1169 -0.2665
  530MOL0     H73137  -0.175   2.806   3.216 -0.1012 -3.6384  3.0271
  530MOL0     H73138  -0.291   3.010   3.230 -0.4399  1.8967  1.6390
  530MOL0     H73139  -0.236   3.114   3.347 -2.3936 -3.3159  0.1578
  530MOL0     H73140  -0.195   3.146   3.165  0.6920  2.4918  0.5176
  531MOL0     O73141   3.299   2.709   2.954  0.0895 -0.1770  0.5193
  531MOL0     C73142   3.335   2.635   3.043  0.0818  1.2429  0.0099
  531MOL0     O73143   3.387   2.677   3.160 -0.1441 -0.6784 -0.6158
  531MOL0     C73144   3.373   2.810   3.201  0.3608 -0.4864  0.7749
  531MOL0     C73145   3.490   2.877   3.235 -0.7745 -1.0712  0.1338
  531MOL0     C73146   3.474   3.009   3.293 -0.0692  0.4016  0.5974
  531MOL0     C73147   3.351   3.069   3.302  0.5371 -0.0047  0.1409
  531MOL0     O73148   3.335   3.200   3.341  0.4513  0.1214 -0.4296
  531MOL0     C73149   3.433   3.238   3.447  0.1517 -0.6111  0.2834
  531MOL0     C73150   3.519   3.364   3.414 -0.1275  0.2444 -0.0822
  531MOL0     C73151   3.661   3.354   3.475 -0.3676  0.4063 -0.5807
  531MOL0     C73152   3.713   3.493   3.497  0.0068  0.5432 -0.0780
  531MOL0     C73153   3.854   3.506   3.564  0.2435 -0.0679 -0.6388
  531MOL0     C73154   3.963   3.517   3.452 -0.5511 -0.5875  0.5985
  531MOL0     C73155   4.093   3.515   3.527 -1.3564  0.4741 -0.2771
  531MOL0     C73156   4.122   3.641   3.605 -0.4147 -0.4214  0.0667
  531MOL0     N73157   4.141   3.765   3.524 -0.2943  0.2070  0.3479
  531MOL0     C73158   4.099   3.884   3.581 -0.5941 -1.1184  0.3241
  531MOL0     C73159   4.133   3.989   3.502  0.6983 -0.2589 -0.8568
  531MOL0     C73160   4.111   4.134   3.532  0.1155 -0.0071 -0.7176
  531MOL0     C73161   3.986   4.180   3.454  0.5630 -0.2213 -0.2762
  531MOL0     C73162   3.872   4.088   3.466  0.8891 -0.4253 -1.1564
  531MOL0     C73163   3.745   4.145   3.402  0.0418 -0.4058  0.5330
  531MOL0     O73164   3.708   4.082   3.274  0.0144  0.4502  0.6674
  531MOL0     C73165   3.786   4.120   3.169  0.3932  0.7274 -0.9161
  531MOL0     C73166   3.778   4.235   3.102 -0.8737 -0.8214 -0.1040
  531MOL0     C73167   3.866   4.279   2.996 -0.1961 -0.0734 -0.0879
  531MOL0     C73168   3.846   4.423   2.937  0.0516  0.1619  0.0276
  531MOL0     C73169   3.969   4.189   2.955  0.8281  1.0401 -0.8280
  531MOL0     C73170   4.061   4.220   2.843  0.1810  0.8037 -0.5602
  531MOL0     O73171   4.133   4.110   2.805  0.4879  0.0418 -0.6391
  531MOL0     C73172   4.218   4.142   2.698 -0.0043  0.0448  0.5861
  531MOL0     C73173   4.180   4.135   2.556 -0.4406  0.3227  0.1497
  531MOL0     C73174   4.277   4.155   2.461  0.1181 -0.7715 -0.5950
  531MOL0     C73175   4.406   4.186   2.492  0.4512  1.1585 -0.2821
  531MOL0     O73176   4.514   4.197   2.403 -0.2889 -0.4958 -0.6490
  531MOL0     C73177   4.477   4.191   2.274 -1.2338  0.4699  0.4904
  531MOL0     C73178   4.602   4.191   2.185  0.2207 -0.1169  0.4771
  531MOL0     C73179   4.660   4.326   2.167  1.1607 -0.2658 -0.8605
  531MOL0     C73180   4.703   4.339   2.022  0.2201 -0.0826 -0.3651
  531MOL0     C73181   4.802   4.454   1.999  0.3636 -0.2091  0.3066
  531MOL0     C73182   4.768   4.603   2.038 -0.1482  0.6313 -0.2561
  531MOL0     C73183   4.648   4.665   1.974  0.4357  0.4819 -0.2802
  531MOL0     C73184   4.661   4.810   1.958  0.1307 -0.7820  0.2008
  531MOL0    Cl73185   4.726   4.894   2.106  0.0456  0.0455 -0.7256
  531MOL0     C73186   4.441   4.202   2.626 -0.6855  0.1378  0.8699
  531MOL0     C73187   4.353   4.169   2.730 -0.1505  0.6163 -0.0679
  531MOL0     O73188   4.076   4.335   2.814 -0.0755 -0.1462  0.1998
  531MOL0     C73189   3.966   4.062   3.020 -0.1439 -0.3019 -0.7058
  531MOL0     C73190   3.882   4.027   3.128  1.0036  0.0345  1.2217
  531MOL0     N73191   4.190   3.934   3.389 -0.4825 -0.4687 -0.0695
  531MOL0     N73192   4.184   3.804   3.398 -0.0783 -0.4052 -0.8546
  531MOL0     C73193   3.238   3.004   3.251 -0.2433 -0.2610  0.1866
  531MOL0     C73194   3.248   2.871   3.205  0.3703  1.4432  0.0971
  531MOL0     C73195   3.323   2.492   3.012  0.0429 -0.6160 -0.7556
  531MOL0     C73196   3.289   2.411   3.125  0.5871  0.9268 -0.5302
  531MOL0     C73197   3.237   2.286   3.094  0.8733  0.9838 -0.6556
  531MOL0     C73198   3.234   2.223   2.969 -0.2123  0.2304 -0.1354
  531MOL0     O73199   3.201   2.091   2.948 -0.2950  0.2960 -0.1411
  531MOL0     C73200   3.148   2.008   3.052  0.4116 -1.1865 -0.6529
  531MOL0     C73201   3.113   1.872   3.005 -0.6275  0.2675  1.3292
  531MOL0     C73202   2.992   1.861   2.905  0.1541 -0.6415 -0.1516
  531MOL0     C73203   2.962   1.718   2.857  0.1695  0.6598  0.6917
  531MOL0     C73204   2.957   1.610   2.954 -0.5249 -0.0143 -0.7476
  531MOL0     C73205   2.957   1.529   3.054 -0.6936 -0.6001 -0.7894
  531MOL0     C73206   3.274   2.297   2.860 -0.0287  0.6568  0.7085
  531MOL0     C73207   3.314   2.434   2.882  0.4884 -0.0092 -0.2812
  531MOL0     C73208   3.371   2.494   2.763 -0.0337 -0.3042 -0.3688
  531MOL0     H73209   3.591   2.838   3.225  1.6492  4.2199  0.3019
  531MOL0     H73210   3.568   3.063   3.299 -0.1890  0.4383  3.8456
  531MOL0     H73211   3.485   3.153   3.492  1.5439  0.0461 -0.0391
  531MOL0     H73212   3.370   3.275   3.528  1.6982  0.0195  1.2384
  531MOL0     H73213   3.537   3.375   3.307  0.5503  1.7928  0.1657
  531MOL0     H73214   3.470   3.456   3.448  1.6471  0.2415  2.8525
  531MOL0     H73215   3.652   3.298   3.568  0.9564 -0.7333 -1.0942
  531MOL0     H73216   3.737   3.299   3.418  2.0176  3.1313 -0.2765
  531MOL0     H73217   3.716   3.526   3.393 -0.7206 -1.5769 -0.8252
  531MOL0     H73218   3.639   3.547   3.556 -0.7124  0.5787 -0.9976
  531MOL0     H73219   3.870   3.424   3.635 -2.2112 -0.0960 -0.0055
  531MOL0     H73220   3.845   3.600   3.618  0.4605 -0.6453  0.4240
  531MOL0     H73221   3.940   3.441   3.377 -0.2898  2.7363 -3.1655
  531MOL0     H73222   3.942   3.608   3.395 -0.1478  0.5075  2.1233
  531MOL0     H73223   4.172   3.492   3.456 -1.5702 -0.3196 -0.2704
  531MOL0     H73224   4.101   3.437   3.604 -0.3610 -0.5100 -1.3554
  531MOL0     H73225   4.051   3.655   3.687 -0.7084 -0.5928 -0.1593
  531MOL0     H73226   4.214   3.623   3.662 -0.6189  3.7100  2.0835
  531MOL0     H73227   4.079   3.893   3.688  2.0473 -2.3178  1.0049
  531MOL0     H73228   4.195   4.198   3.501  1.0721 -0.0748  1.5149
  531MOL0     H73229   4.097   4.153   3.639 -3.2534 -1.0504 -0.8908
  531MOL0     H73230   3.972   4.282   3.492 -1.5522 -0.0084 -1.4888
  531MOL0     H73231   4.020   4.173   3.350  1.6602 -4.7726  0.1799
  531MOL0     H73232   3.875   3.991   3.416 -1.1087 -2.5551  2.3825
  531MOL0     H73233   3.853   4.067   3.572  1.4900 -0.0699 -0.9695
  531MOL0     H73234   3.666   4.123   3.475  0.1909 -1.3514  0.4121
  531MOL0     H73235   3.756   4.251   3.378 -3.0735 -0.2684 -0.6690
  531MOL0     H73236   3.702   4.306   3.132 -0.4581 -0.7592  0.8534
  531MOL0     H73237   3.753   4.468   2.975 -0.0123 -1.6237  2.2200
  531MOL0     H73238   3.835   4.418   2.829 -1.5671  1.1938  0.1038
  531MOL0     H73239   3.928   4.487   2.972  3.6194 -4.5561  1.2546
  531MOL0     H73240   4.076   4.112   2.533 -0.2310 -0.3680 -0.1325
  531MOL0     H73241   4.254   4.142   2.355  0.1453 -0.3869 -0.6504
  531MOL0     H73242   4.425   4.096   2.253  1.3334 -0.7564 -0.8661
  531MOL0     H73243   4.406   4.261   2.230  0.2206 -0.4392 -3.8203
  531MOL0     H73244   4.689   4.136   2.222  1.3081  0.2435 -1.3785
  531MOL0     H73245   4.588   4.139   2.090  2.8433  0.8272 -0.5290
  531MOL0     H73246   4.752   4.334   2.225  0.8967  0.7372 -0.5415
  531MOL0     H73247   4.589   4.406   2.193  0.8065 -0.7103 -0.4448
  531MOL0     H73248   4.613   4.341   1.959  0.3051 -0.9284 -0.5260
  531MOL0     H73249   4.760   4.250   1.995  0.6896 -0.7094  2.4399
  531MOL0     H73250   4.893   4.446   2.059  1.4287  0.2196 -1.1900
  531MOL0     H73251   4.820   4.472   1.893  0.7793  2.1804  0.7259
  531MOL0     H73252   4.855   4.666   2.016 -1.2025  2.0447 -0.5019
  531MOL0     H73253   4.757   4.596   2.147 -3.9893 -1.3036 -0.6062
  531MOL0     H73254   4.564   4.636   2.038  2.9969 -2.5070  2.0135
  531MOL0     H73255   4.635   4.629   1.871 -0.9004  0.3484 -0.0846
  531MOL0     H73256   4.570   4.853   1.917  0.6574 -1.0743 -1.3523
  531MOL0     H73257   4.725   4.841   1.875 -1.0352  1.1746 -0.0111
  531MOL0     H73258   4.540   4.231   2.660  0.1635 -1.1043 -0.4696
  531MOL0     H73259   4.377   4.177   2.835 -0.4781 -1.2568  0.1922
  531MOL0     H73260   4.054   4.002   3.000 -0.6107 -0.7978 -1.2923
  531MOL0     H73261   3.905   3.937   3.183  1.4149  1.1873  3.0286
  531MOL0     H73262   3.155   3.071   3.270  2.3272  2.4532  2.8661
  531MOL0     H73263   3.150   2.835   3.177  0.7435 -1.6523  2.3049
  531MOL0     H73264   3.289   2.447   3.228 -1.7913 -0.5043  0.0415
  531MOL0     H73265   3.205   2.228   3.180  1.2778  3.2537  1.1167
  531MOL0     H73266   3.215   2.005   3.138  2.5837  0.6608 -2.1399
  531MOL0     H73267   3.054   2.045   3.094  1.8033 -0.8380  2.3954
  531MOL0     H73268   3.096   1.796   3.082  1.5349  0.0408  1.6357
  531MOL0     H73269   3.208   1.851   2.955  0.9977  3.4848  2.7519
  531MOL0     H73270   2.902   1.907   2.946  0.8129  1.3991 -0.8852
  531MOL0     H73271   3.014   1.935   2.827 -1.8203  1.5963  1.2682
  531MOL0     H73272   3.047   1.696   2.791  0.5218 -1.3944  1.7565
  531MOL0     H73273   2.866   1.719   2.805  0.7249 -1.3898 -0.5211
  531MOL0     H73274   2.972   1.482   3.149 -0.4262  0.3386 -0.3484
  531MOL0     H73275   3.273   2.259   2.758  0.2119  1.0918  0.5411
  531MOL0     H73276   3.295   2.548   2.706 -1.2589  1.1782  2.4856
  531MOL0     H73277   3.446   2.569   2.790 -1.1643  0.0274  2.1511
  531MOL0     H73278   3.407   2.422   2.689  2.9973 -0.9445  1.5460
  532MOL0     O73279   7.452   6.521   0.780  0.0731 -0.7115  0.5845
  532MOL0     C73280   7.486   6.627   0.845 -0.2633 -0.2866  0.2435
  532MOL0     O73281   7.576   6.630   0.951  0.0028  0.5194 -0.1380
  532MOL0     C73282   7.632   6.519   1.009  0.5653 -1.3521 -0.0782
  532MOL0     C73283   7.761   6.544   1.060  0.7203 -0.1461 -1.4525
  532MOL0     C73284   7.828   6.458   1.140  0.3338 -1.1989 -0.5644
  532MOL0     C73285   7.781   6.328   1.151  0.0847 -0.3277 -1.3842
  532MOL0     O73286   7.849   6.220   1.216 -0.2243 -1.0274  0.3173
  532MOL0     C73287   7.984   6.231   1.244 -0.5747 -0.2336 -0.1471
  532MOL0     C73288   8.075   6.219   1.132  0.5038  0.2275  0.1863
  532MOL0     C73289   8.225   6.184   1.177 -0.7581 -0.0733  0.6215
  532MOL0     C73290   8.306   6.154   1.056  0.1676  0.7257 -0.3816
  532MOL0     C73291   8.451   6.121   1.074 -1.0559  0.6698  1.0283
  532MOL0     C73292   8.533   6.111   0.932  0.9258 -0.9019 -0.7775
  532MOL0     C73293   8.634   5.999   0.905 -0.4245  0.6393 -0.5471
  532MOL0     C73294   8.711   6.016   0.775 -0.3123 -1.2979 -0.3039
  532MOL0     N73295   8.812   5.908   0.739  0.0037 -0.2150  0.1666
  532MOL0     C73296   8.807   5.826   0.622 -0.0095  0.8909 -1.1093
  532MOL0     C73297   8.935   5.777   0.607 -0.0351 -0.3448 -0.0419
  532MOL0     C73298   8.986   5.689   0.510 -0.5247  0.5262  0.5800
  532MOL0     C73299   8.925   5.688   0.366  0.3926 -0.1056  0.0042
  532MOL0     C73300   8.978   5.800   0.288 -0.4907 -0.1598  0.1556
  532MOL0     C73301   8.933   5.948   0.325  0.0184 -0.0090 -0.8284
  532MOL0     O73302   8.793   5.968   0.305  0.8331  0.5510  0.4317
  532MOL0     C73303   8.728   6.083   0.352 -0.4694  0.1775  0.4245
  532MOL0     C73304   8.617   6.129   0.282  0.5540  0.5063  0.6724
  532MOL0     C73305   8.544   6.247   0.323 -0.0917  0.1365 -0.2129
  532MOL0     C73306   8.422   6.288   0.251  1.1404  1.0996  0.2902
  532MOL0     C73307   8.586   6.318   0.440 -0.4983  0.7018  0.1511
  532MOL0     C73308   8.512   6.423   0.509 -0.8960 -0.1716  0.5813
  532MOL0     O73309   8.454   6.527   0.422  0.7600 -0.3805 -0.0185
  532MOL0     C73310   8.422   6.644   0.481  0.1638 -0.5679  0.7184
  532MOL0     C73311   8.300   6.706   0.458 -0.8091  0.0068  0.0309
  532MOL0     C73312   8.269   6.836   0.490  0.3462  0.4458 -0.4122
  532MOL0     C73313   8.373   6.918   0.548 -0.8135  0.3522 -0.1303
  532MOL0     O73314   8.347   7.054   0.569  0.4690 -0.5130  0.0895
  532MOL0     C73315   8.386   7.111   0.693  0.0188 -0.2892  0.6452
  532MOL0     C73316   8.499   7.205   0.680 -0.1613 -0.7799 -1.2022
  532MOL0     C73317   8.460   7.344   0.616 -0.1439  0.5758 -0.0582
  532MOL0     C73318   8.556   7.464   0.615  0.4494 -0.0004 -0.2388
  532MOL0     C73319   8.483   7.579   0.538  0.4584 -0.2615  0.7693
  532MOL0     C73320   8.547   7.707   0.562 -0.0675 -1.0946 -0.3650
  532MOL0     C73321   8.470   7.819   0.478 -1.1842 -0.8231 -0.5440
  532MOL0     C73322   8.557   7.946   0.465  0.3308  0.1841 -0.2910
  532MOL0    Cl73323   8.444   8.080   0.433 -0.2513  0.6253 -0.1686
  532MOL0     C73324   8.496   6.857   0.581  0.2296 -1.1185 -0.8035
  532MOL0     C73325   8.516   6.725   0.546 -0.4097 -0.3854  0.9138
  532MOL0     O73326   8.503   6.429   0.632 -0.5802  0.3464 -0.1192
  532MOL0     C73327   8.693   6.255   0.508 -0.9215 -0.6150  0.1495
  532MOL0     C73328   8.761   6.151   0.467 -0.3374  1.0223 -1.0880
  532MOL0     N73329   9.007   5.805   0.733  1.0363 -0.0377 -0.4373
  532MOL0     N73330   8.929   5.881   0.809 -1.1944 -0.9038 -0.6690
  532MOL0     C73331   7.656   6.294   1.105 -0.2616  0.2963 -0.5279
  532MOL0     C73332   7.585   6.390   1.030 -0.1418  1.0841 -0.1953
  532MOL0     C73333   7.442   6.760   0.798 -0.5654  0.2217  0.4347
  532MOL0     C73334   7.530   6.865   0.821 -0.2733  0.1420 -0.2912
  532MOL0     C73335   7.510   6.992   0.750  0.1682  0.3889  1.0750
  532MOL0     C73336   7.395   7.015   0.680  0.6925  0.4357 -0.5026
  532MOL0     O73337   7.383   7.147   0.637 -0.4370 -0.5827 -0.0204
  532MOL0     C73338   7.346   7.169   0.493  0.3052 -0.6915 -0.1667
  532MOL0     C73339   7.473   7.155   0.408  1.3888 -0.0276 -0.0811
  532MOL0     C73340   7.445   7.155   0.258  0.4766 -0.4366 -0.2649
  532MOL0     C73341   7.403   7.296   0.199 -1.0595  0.5749 -0.5582
  532MOL0     C73342   7.487   7.408   0.250  0.4880 -0.2903  0.4246
  532MOL0     C73343   7.544   7.508   0.299 -0.3939 -0.2934  0.1138
  532MOL0     C73344   7.305   6.909   0.672 -0.4207  0.1460  0.3792
  532MOL0     C73345   7.321   6.784   0.726 -0.2610 -1.0015 -1.0934
  532MOL0     C73346   7.208   6.680   0.718  0.0286 -0.8699  0.0354
  532MOL0     H73347   7.796   6.646   1.052  2.0927 -0.2867  1.4529
  532MOL0     H73348   7.928   6.475   1.179 -0.5473 -3.3994  3.1154
  532MOL0     H73349   7.986   6.152   1.320 -2.8443  1.8459  2.2648
  532MOL0     H73350   8.007   6.318   1.306  0.5735 -1.1855  0.8143
  532MOL0     H73351   8.040   6.153   1.053 -1.1402  3.4575 -2.0081
  532MOL0     H73352   8.089   6.315   1.082  0.6119 -0.2269 -0.6750
  532MOL0     H73353   8.273   6.272   1.220  0.4306 -1.4926  2.3651
  532MOL0     H73354   8.227   6.104   1.252 -3.3436 -1.8145 -1.0144
  532MOL0     H73355   8.264   6.063   1.011  4.4617 -1.2211 -0.9670
  532MOL0     H73356   8.286   6.232   0.982 -1.9243 -0.9706 -1.7486
  532MOL0     H73357   8.462   6.028   1.131  0.7820 -0.0252 -0.3541
  532MOL0     H73358   8.494   6.202   1.134 -0.6846  1.3594 -0.1290
  532MOL0     H73359   8.462   6.096   0.850  0.3720 -0.7460 -0.3291
  532MOL0     H73360   8.573   6.212   0.922 -2.0046  0.3550 -1.0161
  532MOL0     H73361   8.583   5.902   0.913 -0.6968  0.7919 -0.4138
  532MOL0     H73362   8.708   5.998   0.986 -0.1500  1.6869 -0.7729
  532MOL0     H73363   8.639   6.017   0.693 -0.5450  0.5675 -0.1001
  532MOL0     H73364   8.756   6.115   0.779  0.8713 -1.7516 -1.5114
  532MOL0     H73365   8.731   5.820   0.544 -0.5786  0.8377 -0.5645
  532MOL0     H73366   8.975   5.592   0.560  0.9199  1.9354  3.8531
  532MOL0     H73367   9.095   5.691   0.501 -0.4338 -0.4527  1.2310
  532MOL0     H73368   8.949   5.591   0.321 -1.6849 -0.9382  0.5886
  532MOL0     H73369   8.817   5.696   0.375  0.7033  2.5002  3.4934
  532MOL0     H73370   9.086   5.792   0.303 -0.5040 -1.8677 -0.4469
  532MOL0     H73371   8.958   5.787   0.181 -3.1660  2.5211  0.1721
  532MOL0     H73372   8.963   5.961   0.429  3.2204 -2.4123 -1.2827
  532MOL0     H73373   8.985   6.027   0.270  0.4517  0.7211  0.5792
  532MOL0     H73374   8.584   6.072   0.195  0.3547 -0.4855  1.3765
  532MOL0     H73375   8.444   6.368   0.180  1.0028  0.1602 -0.8483
  532MOL0     H73376   8.334   6.319   0.307  0.3657  2.8026 -1.7671
  532MOL0     H73377   8.385   6.210   0.184 -0.9560  0.7070  1.8197
  532MOL0     H73378   8.220   6.657   0.404 -1.2558 -0.6476  1.2557
  532MOL0     H73379   8.177   6.877   0.451  0.7559  2.4614  0.6112
  532MOL0     H73380   8.297   7.161   0.734  1.0215 -0.6890  3.5415
  532MOL0     H73381   8.421   7.024   0.749 -0.1120 -1.7989 -1.4912
  532MOL0     H73382   8.535   7.234   0.779 -2.2009 -0.9013 -0.3782
  532MOL0     H73383   8.582   7.156   0.628  1.5973  0.6488  0.1245
  532MOL0     H73384   8.377   7.387   0.672  1.4252  3.6655  0.1299
  532MOL0     H73385   8.414   7.328   0.518  0.7785  3.4168 -1.0666
  532MOL0     H73386   8.643   7.438   0.555 -0.4304  0.8750 -1.9577
  532MOL0     H73387   8.586   7.492   0.717  2.7188 -4.6611  0.6548
  532MOL0     H73388   8.472   7.562   0.430  0.0438  3.4929  0.1021
  532MOL0     H73389   8.378   7.590   0.568  0.3344 -0.0982  0.2775
  532MOL0     H73390   8.656   7.705   0.551  0.5833  0.6638  3.9509
  532MOL0     H73391   8.533   7.733   0.667 -0.4654 -4.4654  0.5268
  532MOL0     H73392   8.374   7.849   0.520 -1.1789 -1.9171  0.3107
  532MOL0     H73393   8.455   7.791   0.373  0.6492  4.0577 -2.3582
  532MOL0     H73394   8.635   7.943   0.388  2.2265 -2.9186  1.5541
  532MOL0     H73395   8.602   7.966   0.563  0.8408 -0.5953 -0.3626
  532MOL0     H73396   8.578   6.907   0.632 -1.7024 -2.4992  4.2595
  532MOL0     H73397   8.614   6.689   0.575  1.5735  1.3474 -2.8127
  532MOL0     H73398   8.708   6.286   0.611  1.2276  1.6258 -0.7223
  532MOL0     H73399   8.837   6.121   0.538 -0.3119  3.4148 -0.0066
  532MOL0     H73400   7.636   6.188   1.107  3.3743 -0.5241 -1.1697
  532MOL0     H73401   7.485   6.353   1.007  0.8287 -2.2015  0.3019
  532MOL0     H73402   7.620   6.850   0.879 -1.0275 -1.6300  0.4980
  532MOL0     H73403   7.586   7.066   0.771 -0.4176  1.4360 -0.3431
  532MOL0     H73404   7.271   7.094   0.468  0.7189 -2.2708  2.8145
  532MOL0     H73405   7.307   7.271   0.483  2.2292 -0.0022 -1.2610
  532MOL0     H73406   7.520   7.059   0.435  1.9478  0.5392  1.0288
  532MOL0     H73407   7.540   7.236   0.438 -0.8387  1.6993  0.4891
  532MOL0     H73408   7.545   7.147   0.214  0.6342 -2.8574  0.4089
  532MOL0     H73409   7.373   7.083   0.218 -2.2282  1.6887  0.4534
  532MOL0     H73410   7.306   7.311   0.247 -0.3453 -1.7376  1.8068
  532MOL0     H73411   7.401   7.294   0.090  3.1505  0.5502 -0.8056
  532MOL0     H73412   7.599   7.584   0.352 -4.6037  2.0334  1.5994
  532MOL0     H73413   7.212   6.914   0.615  0.7940 -2.9731 -2.2007
  532MOL0     H73414   7.172   6.649   0.817  2.6692  1.0721  1.7445
  532MOL0     H73415   7.120   6.720   0.666 -1.3829 -4.6935 -0.9507
  532MOL0     H73416   7.237   6.594   0.656  0.7078  0.9340 -2.3061
  533MOL0     O73417   1.944   2.579   6.619  0.7224  0.7598  0.4777
  533MOL0     C73418   2.065   2.589   6.584  0.1055 -0.1333  0.6839
  533MOL0     O73419   2.173   2.546   6.655 -0.3277  0.0277  0.3264
  533MOL0     C73420   2.136   2.497   6.774  0.1955  0.4402 -0.1243
  533MOL0     C73421   2.111   2.575   6.885  0.1763  0.6928  1.7198
  533MOL0     C73422   2.064   2.514   7.003 -0.1892  0.9157  0.8824
  533MOL0     C73423   2.061   2.370   7.027  0.4625  0.9117  0.2135
  533MOL0     O73424   2.021   2.309   7.141  0.2809  0.1858  0.5644
  533MOL0     C73425   2.120   2.242   7.216 -0.1852 -0.1553 -0.8991
  533MOL0     C73426   2.189   2.350   7.302 -0.2927 -0.2957  0.0044
  533MOL0     C73427   2.314   2.289   7.371 -0.0496 -0.0006  0.9015
  533MOL0     C73428   2.380   2.379   7.466  0.1326  0.2389 -0.8584
  533MOL0     C73429   2.462   2.297   7.566 -1.7229  0.1306  0.4687
  533MOL0     C73430   2.390   2.225   7.682 -0.1682 -0.2456  0.6959
  533MOL0     C73431   2.484   2.138   7.763 -0.5410  0.3462  0.2680
  533MOL0     C73432   2.405   2.070   7.882  0.1096 -0.8448  0.6894
  533MOL0     N73433   2.496   1.974   7.956  0.5065 -0.9604 -0.1548
  533MOL0     C73434   2.532   1.850   7.915  0.3553  0.3435 -0.2134
  533MOL0     C73435   2.630   1.808   7.997 -0.5635  1.1709 -0.8040
  533MOL0     C73436   2.711   1.689   7.972 -0.3776 -0.8005  0.6921
  533MOL0     C73437   2.687   1.590   8.079  0.5035  0.4515 -0.0646
  533MOL0     C73438   2.788   1.470   8.065 -0.2044  0.0122  0.3988
  533MOL0     C73439   2.746   1.351   8.153  0.8267  0.2116 -0.0994
  533MOL0     O73440   2.624   1.293   8.106  0.1945  0.6263 -0.0789
  533MOL0     C73441   2.571   1.180   8.166 -0.6194 -0.0572 -0.5565
  533MOL0     C73442   2.440   1.145   8.136  0.2388 -0.0693 -0.8870
  533MOL0     C73443   2.370   1.045   8.187  0.6764 -0.4869 -0.2262
  533MOL0     C73444   2.227   1.046   8.153  0.7392  0.0907 -0.0516
  533MOL0     C73445   2.436   0.957   8.273  0.1900  0.2793  0.0200
  533MOL0     C73446   2.367   0.832   8.339  0.5120 -0.2816 -0.5463
  533MOL0     O73447   2.227   0.816   8.331 -0.4354  0.4256  0.3851
  533MOL0     C73448   2.172   0.690   8.332  0.1662 -0.0881  0.0402
  533MOL0     C73449   2.174   0.608   8.444 -0.3351 -0.1804 -0.5099
  533MOL0     C73450   2.123   0.478   8.431 -0.0168  0.7474 -0.5544
  533MOL0     C73451   2.050   0.431   8.322 -0.2218  0.6775  0.3919
  533MOL0     O73452   2.004   0.302   8.322  1.1689  0.7046 -0.2196
  533MOL0     C73453   1.896   0.264   8.238  0.0058 -0.3688 -0.6390
  533MOL0     C73454   1.943   0.140   8.136  0.8570 -0.3343 -0.1918
  533MOL0     C73455   2.086   0.168   8.066 -0.1566 -0.5278 -0.3148
  533MOL0     C73456   2.209   0.095   8.128 -0.3202  0.5242 -0.4288
  533MOL0     C73457   2.333   0.125   8.030  0.8400 -0.0305 -0.9529
  533MOL0     C73458   2.460   0.048   8.069  0.2016 -0.0210  0.4215
  533MOL0     C73459   2.592   0.122   8.054 -0.0022 -0.9243 -1.0224
  533MOL0     C73460   2.711   0.028   8.057  0.3488  0.4798  0.8903
  533MOL0    Cl73461   2.730  -0.081   7.919  0.0498  0.5811 -0.4478
  533MOL0     C73462   2.040   0.522   8.213  0.5690  0.8693  0.0023
  533MOL0     C73463   2.108   0.640   8.218 -0.2117  0.0090 -0.4463
  533MOL0     O73464   2.439   0.774   8.414  0.1457  0.3320  0.1901
  533MOL0     C73465   2.577   0.991   8.309 -0.0354 -0.2129 -0.0328
  533MOL0     C73466   2.640   1.101   8.256 -0.2149  0.0501  0.1991
  533MOL0     N73467   2.643   1.900   8.101  0.2229  0.3420 -0.7389
  533MOL0     N73468   2.582   2.007   8.059  0.0471 -0.0058  0.4985
  533MOL0     C73469   2.085   2.300   6.913  0.1249  0.1985  0.0760
  533MOL0     C73470   2.123   2.353   6.790 -0.4660 -0.9130  1.2164
  533MOL0     C73471   2.093   2.653   6.457 -1.3287 -0.1475  0.8741
  533MOL0     C73472   2.234   2.670   6.423  1.0755 -0.2811 -0.4221
  533MOL0     C73473   2.265   2.723   6.299  0.1990  0.6447 -0.1338
  533MOL0     C73474   2.178   2.764   6.201  0.6097 -0.7384  0.9177
  533MOL0     O73475   2.196   2.816   6.074  0.5856  0.3435  0.0735
  533MOL0     C73476   2.321   2.887   6.049  0.9034 -0.3163 -0.0877
  533MOL0     C73477   2.369   2.906   5.909 -0.2256 -0.3095  0.0469
  533MOL0     C73478   2.319   3.036   5.850  0.1620 -0.1929 -0.5936
  533MOL0     C73479   2.338   3.053   5.701 -0.3184  1.1006 -0.3196
  533MOL0     C73480   2.474   3.071   5.659 -0.3097 -0.4559  0.6160
  533MOL0     C73481   2.579   3.090   5.598  0.8723 -0.5174 -1.3672
  533MOL0     C73482   2.046   2.740   6.243  0.0172  0.3189  0.1111
  533MOL0     C73483   1.999   2.693   6.359  0.4642  0.3350 -0.5092
  533MOL0     C73484   1.844   2.704   6.380  0.0039 -0.5113  0.1498
  533MOL0     H73485   2.124   2.682   6.882  0.6303  0.6256  0.4754
  533MOL0     H73486   2.039   2.572   7.091 -0.7956  1.3650  0.4331
  533MOL0     H73487   2.196   2.182   7.165  1.8451  1.9376 -0.4647
  533MOL0     H73488   2.066   2.182   7.290  1.9811 -1.8574 -0.5980
  533MOL0     H73489   2.227   2.426   7.234  0.2321 -1.5791 -1.1894
  533MOL0     H73490   2.136   2.404   7.382  0.5637  0.0307  0.3674
  533MOL0     H73491   2.274   2.210   7.436 -4.7394 -0.8711 -2.5407
  533MOL0     H73492   2.380   2.244   7.297 -2.4869 -1.9731 -0.2307
  533MOL0     H73493   2.429   2.464   7.416  0.6000  0.6752  0.2846
  533MOL0     H73494   2.309   2.426   7.534  0.8730  0.7240 -0.3948
  533MOL0     H73495   2.539   2.364   7.605 -0.0863 -0.2417 -1.8698
  533MOL0     H73496   2.510   2.219   7.506  0.3774  0.2007  1.9538
  533MOL0     H73497   2.367   2.307   7.751  0.5611  2.3854 -1.9614
  533MOL0     H73498   2.309   2.157   7.655  1.1684 -1.4788 -0.3800
  533MOL0     H73499   2.563   2.197   7.811 -1.8726  1.2313  1.4321
  533MOL0     H73500   2.527   2.064   7.694  2.1173 -0.6484  2.7604
  533MOL0     H73501   2.371   2.148   7.951 -0.3869  0.9174 -1.4436
  533MOL0     H73502   2.322   2.013   7.840  3.2498 -3.3855 -2.6651
  533MOL0     H73503   2.514   1.801   7.820  0.3799 -0.5221  0.2126
  533MOL0     H73504   2.816   1.721   7.977 -0.3877 -0.8642  4.4553
  533MOL0     H73505   2.700   1.656   7.868  0.1205  1.9950 -0.3214
  533MOL0     H73506   2.715   1.631   8.176 -1.5792 -0.6683  1.0844
  533MOL0     H73507   2.580   1.566   8.081  0.6882 -0.3855  0.7787
  533MOL0     H73508   2.796   1.436   7.961 -1.2308 -0.3904  0.4421
  533MOL0     H73509   2.889   1.499   8.095  0.4679 -2.4555  0.7535
  533MOL0     H73510   2.826   1.279   8.133  0.2124  0.2460 -3.2753
  533MOL0     H73511   2.727   1.366   8.260 -3.8011 -0.7290 -0.5445
  533MOL0     H73512   2.405   1.210   8.056  1.7250  1.4391 -0.3945
  533MOL0     H73513   2.212   1.130   8.085  0.0809  0.7655  0.9052
  533MOL0     H73514   2.168   1.053   8.244  0.5512 -1.2689 -0.0414
  533MOL0     H73515   2.202   0.948   8.110 -0.3263 -0.7420  2.2770
  533MOL0     H73516   2.215   0.642   8.539 -2.9469 -0.9603  0.9930
  533MOL0     H73517   2.143   0.408   8.512  1.8396  1.2379 -0.5484
  533MOL0     H73518   1.819   0.233   8.309 -0.1501  2.3219  0.4883
  533MOL0     H73519   1.860   0.355   8.190  2.6102  2.2121  1.8543
  533MOL0     H73520   1.939   0.040   8.180 -0.8780 -0.0866  0.2535
  533MOL0     H73521   1.872   0.151   8.053 -0.7970  3.8461  1.5266
  533MOL0     H73522   2.111   0.273   8.081  1.0303 -1.1003  2.1004
  533MOL0     H73523   2.086   0.152   7.958  1.7032  0.0118 -0.4356
  533MOL0     H73524   2.196  -0.014   8.138  0.3085  0.4170 -0.7149
  533MOL0     H73525   2.220   0.133   8.230  0.0204 -1.4333  0.3201
  533MOL0     H73526   2.305   0.097   7.928  1.2469 -0.6301 -0.9063
  533MOL0     H73527   2.358   0.231   8.028  2.9260 -0.4789 -2.5624
  533MOL0     H73528   2.461  -0.037   8.000  0.7548  0.0691  0.3172
  533MOL0     H73529   2.446   0.015   8.172  1.0362 -0.9273  0.2592
  533MOL0     H73530   2.604   0.193   8.136  0.3562 -0.4496 -1.4780
  533MOL0     H73531   2.593   0.188   7.967 -0.9082 -2.2902 -2.1136
  533MOL0     H73532   2.700  -0.034   8.146  2.0373 -0.6278  0.3917
  533MOL0     H73533   2.810   0.076   8.063  1.0874 -1.1099  1.9058
  533MOL0     H73534   1.990   0.495   8.120  3.6648 -3.4867 -0.7264
  533MOL0     H73535   2.095   0.701   8.129 -3.8978  0.0308 -0.0617
  533MOL0     H73536   2.637   0.923   8.368  2.7199  1.9646 -0.1321
  533MOL0     H73537   2.741   1.126   8.286 -0.8550  1.0576  1.6064
  533MOL0     H73538   2.061   2.194   6.912 -2.1410  0.6593 -0.3173
  533MOL0     H73539   2.123   2.280   6.710 -4.1014  1.6341 -1.4431
  533MOL0     H73540   2.316   2.642   6.489  3.4915  2.6584 -1.9845
  533MOL0     H73541   2.371   2.730   6.277  0.0587  2.6573 -0.4091
  533MOL0     H73542   2.309   2.986   6.095 -0.3452  0.1740 -1.4157
  533MOL0     H73543   2.401   2.827   6.093  1.1706 -0.0297 -0.1793
  533MOL0     H73544   2.344   2.810   5.862  0.1015 -1.0594  1.3653
  533MOL0     H73545   2.478   2.906   5.912 -0.2262  0.9677  2.1284
  533MOL0     H73546   2.210   3.027   5.859 -0.5925 -0.1706 -6.0321
  533MOL0     H73547   2.365   3.119   5.904 -1.2278  0.3146 -0.1297
  533MOL0     H73548   2.277   3.137   5.665  0.0656  1.6803  0.3453
  533MOL0     H73549   2.296   2.963   5.657  2.6764 -0.1466 -0.8974
  533MOL0     H73550   2.673   3.106   5.549  2.2856 -1.3450  0.9241
  533MOL0     H73551   1.968   2.771   6.175  1.5824 -2.2938 -3.1542
  533MOL0     H73552   1.806   2.602   6.386 -0.4688 -0.6160 -3.1357
  533MOL0     H73553   1.811   2.758   6.470  1.9852 -0.8151  1.1145
  533MOL0     H73554   1.801   2.754   6.293 -4.1537 -2.9119  0.5435
  534MOL0     O73555   6.483   3.867  10.496  0.3481 -0.4817 -0.0422
  534MOL0     C73556   6.555   3.900  10.590  0.1190  0.0730  0.6286
  534MOL0     O73557   6.644   4.000  10.606  0.5541  0.3770  0.4175
  534MOL0     C73558   6.673   4.077  10.500 -0.5262 -0.0564 -0.6906
  534MOL0     C73559   6.706   4.026  10.373 -0.0682  0.3857 -0.6100
  534MOL0     C73560   6.747   4.114  10.279  1.3859  0.5747  0.4343
  534MOL0     C73561   6.759   4.253  10.294 -0.6283  0.2467  0.3110
  534MOL0     O73562   6.796   4.327  10.185 -0.5874  0.0668  0.5472
  534MOL0     C73563   6.792   4.474  10.195 -0.1630 -1.0947  0.1477
  534MOL0     C73564   6.820   4.534  10.053 -0.0461  0.3570  0.7035
  534MOL0     C73565   6.833   4.685  10.058 -0.6073  0.1856 -0.0715
  534MOL0     C73566   6.741   4.768   9.973 -0.5724  0.0303  0.4618
  534MOL0     C73567   6.764   4.923  10.004  0.8612 -0.7478  0.1434
  534MOL0     C73568   6.897   4.979   9.970 -0.6213  0.0481  0.4215
  534MOL0     C73569   6.947   4.943   9.824  0.1064 -0.8723 -0.1176
  534MOL0     C73570   7.069   5.033   9.776 -0.1684  0.3084 -0.6195
  534MOL0     N73571   7.021   5.172   9.774 -0.4510 -0.3515  0.4247
  534MOL0     C73572   7.081   5.279   9.829 -0.6813 -0.5447  0.2289
  534MOL0     C73573   6.987   5.376   9.822  0.5649  0.1353  0.3306
  534MOL0     C73574   6.998   5.519   9.861  0.5095 -0.2468  1.0130
  534MOL0     C73575   7.064   5.552   9.999  0.5931  1.0359  0.3228
  534MOL0     C73576   6.988   5.497  10.118 -0.4217  0.3029 -0.2597
  534MOL0     C73577   6.868   5.583  10.153  0.5748  0.0713  0.8095
  534MOL0     O73578   6.809   5.524  10.262 -0.7561 -0.5345 -0.2506
  534MOL0     C73579   6.701   5.444  10.254 -0.4420  0.2696  0.2702
  534MOL0     C73580   6.635   5.416  10.370 -0.3583 -0.0260 -0.6770
  534MOL0     C73581   6.523   5.336  10.383 -0.7224 -0.6045 -2.1574
  534MOL0     C73582   6.471   5.312  10.526 -0.1733 -0.0823  0.4308
  534MOL0     C73583   6.475   5.273  10.265  1.7907 -0.0676 -0.7364
  534MOL0     C73584   6.353   5.187  10.257  0.4452  0.1044  1.0346
  534MOL0     O73585   6.306   5.176  10.131  0.2901  0.6359 -0.3463
  534MOL0     C73586   6.204   5.080  10.100  0.2087  0.2097  0.8889
  534MOL0     C73587   6.181   4.949  10.158 -0.0507 -0.5304  0.0097
  534MOL0     C73588   6.086   4.864  10.099 -0.7654  0.5306  0.6283
  534MOL0     C73589   6.012   4.903   9.990 -0.2127  0.0021 -0.4502
  534MOL0     O73590   5.925   4.813   9.935 -1.5185 -0.6232 -0.4096
  534MOL0     C73591   5.813   4.840   9.847 -0.5363 -0.3047 -0.4298
  534MOL0     C73592   5.842   4.802   9.707  0.2910  1.3884  0.2460
  534MOL0     C73593   5.739   4.864   9.614  0.1893 -0.8760 -0.3788
  534MOL0     C73594   5.658   4.754   9.555  0.0531 -0.8054  0.6746
  534MOL0     C73595   5.552   4.804   9.462 -0.3789  0.1994  0.7744
  534MOL0     C73596   5.433   4.851   9.548 -0.3170 -0.4167 -1.2352
  534MOL0     C73597   5.326   4.743   9.573  0.9920 -0.1513  0.4615
  534MOL0     C73598   5.179   4.786   9.515  0.2549  0.0647  0.3152
  534MOL0    Cl73599   5.204   4.751   9.348 -0.0696 -0.0896 -0.5409
  534MOL0     C73600   6.041   5.022   9.925  1.5590  0.0761  0.2305
  534MOL0     C73601   6.133   5.105   9.981  1.0194 -0.2303 -0.3615
  534MOL0     O73602   6.298   5.148  10.355  0.0770  0.2562  0.2230
  534MOL0     C73603   6.542   5.302  10.141  0.4773 -0.3049  0.3307
  534MOL0     C73604   6.653   5.390  10.139 -0.4879 -0.4848  0.0792
  534MOL0     N73605   6.883   5.335   9.740  0.1209  1.3244 -0.2857
  534MOL0     N73606   6.906   5.208   9.710  0.0888  0.3840  0.1447
  534MOL0     C73607   6.732   4.303  10.417 -0.4257  0.3735  0.4852
  534MOL0     C73608   6.690   4.215  10.523  0.6752 -1.0894  0.0759
  534MOL0     C73609   6.572   3.785  10.680  0.1330  0.2434 -0.4108
  534MOL0     C73610   6.700   3.771  10.743  0.3804 -0.6645  0.8092
  534MOL0     C73611   6.732   3.676  10.839 -0.7180  0.6654  0.2247
  534MOL0     C73612   6.631   3.578  10.878 -1.0051  0.3137  0.1501
  534MOL0     O73613   6.662   3.475  10.964  0.1610  0.3168 -0.0086
  534MOL0     C73614   6.777   3.484  11.051  0.0780  0.3202  0.2606
  534MOL0     C73615   6.743   3.405  11.179  0.0091  0.3360 -0.0953
  534MOL0     C73616   6.617   3.447  11.251 -0.6904  0.0950  0.5856
  534MOL0     C73617   6.634   3.587  11.313 -0.7658  0.2920  0.6976
  534MOL0     C73618   6.500   3.638  11.345 -0.0653  0.5140 -0.0586
  534MOL0     C73619   6.384   3.669  11.379 -0.5720  0.1903  0.8000
  534MOL0     C73620   6.513   3.588  10.806  0.0850 -0.8125 -0.2307
  534MOL0     C73621   6.473   3.689  10.713  0.1940 -0.6891 -0.1988
  534MOL0     C73622   6.329   3.687  10.672 -0.7855  1.1449  0.0477
  534MOL0     H73623   6.722   3.920  10.359 -0.8793 -0.1224  1.8529
  534MOL0     H73624   6.786   4.058  10.195 -2.3514  0.1964 -1.2495
  534MOL0     H73625   6.860   4.514  10.271 -0.0421 -0.9261 -0.0452
  534MOL0     H73626   6.689   4.504  10.214 -0.3010 -0.6013 -1.2267
  534MOL0     H73627   6.915   4.496  10.015 -0.2479  0.6095 -0.0665
  534MOL0     H73628   6.747   4.514   9.974 -1.4299  3.7212  0.9414
  534MOL0     H73629   6.840   4.712  10.164 -0.7888 -0.3865  0.0936
  534MOL0     H73630   6.936   4.704  10.029  0.5764 -0.8196  3.0333
  534MOL0     H73631   6.754   4.748   9.866 -1.3360 -1.6050  0.6399
  534MOL0     H73632   6.643   4.730  10.003  1.4384 -2.5306  4.6669
  534MOL0     H73633   6.736   4.944  10.107  5.0351 -0.7972  1.4528
  534MOL0     H73634   6.697   4.988   9.946  0.0893  0.5737  2.3868
  534MOL0     H73635   6.908   5.086   9.987 -0.9963  0.1941 -0.2640
  534MOL0     H73636   6.970   4.930  10.036  1.1966 -1.2830 -2.3852
  534MOL0     H73637   6.868   4.973   9.755  1.4223  4.4411  0.2713
  534MOL0     H73638   6.953   4.834   9.812 -1.5212 -0.9538 -0.4015
  534MOL0     H73639   7.149   5.020   9.850 -2.7120 -0.2490  2.2157
  534MOL0     H73640   7.108   5.009   9.677  0.1248  3.2628 -1.3065
  534MOL0     H73641   7.173   5.284   9.885 -1.2954  1.1008  1.1728
  534MOL0     H73642   6.897   5.558   9.848  0.7864  0.8662  2.0842
  534MOL0     H73643   7.052   5.563   9.777 -1.6465 -0.7778 -0.7460
  534MOL0     H73644   7.159   5.497  10.003 -0.7677 -1.5856 -0.9192
  534MOL0     H73645   7.087   5.657  10.019 -2.7267  1.6508  1.4826
  534MOL0     H73646   6.955   5.396  10.093 -0.1339  0.8816 -3.3451
  534MOL0     H73647   7.060   5.488  10.199  0.3591  1.3542 -0.8135
  534MOL0     H73648   6.913   5.679  10.182 -2.0183  1.2230  1.3501
  534MOL0     H73649   6.793   5.590  10.073  0.7153 -3.6187  0.1940
  534MOL0     H73650   6.692   5.446  10.457  2.8231 -2.8423 -1.5883
  534MOL0     H73651   6.373   5.357  10.544 -0.4578 -1.6417  3.3657
  534MOL0     H73652   6.534   5.376  10.589 -0.6174  2.2360 -1.3521
  534MOL0     H73653   6.472   5.208  10.558 -0.5379  0.0974  1.0443
  534MOL0     H73654   6.244   4.926  10.244  1.3702 -1.3726 -1.2100
  534MOL0     H73655   6.070   4.770  10.152  2.8520  0.8896  2.7603
  534MOL0     H73656   5.728   4.776   9.873 -1.9876  2.0067  0.9061
  534MOL0     H73657   5.769   4.939   9.864  1.7710  0.5438  1.1568
  534MOL0     H73658   5.941   4.840   9.681  1.1726 -0.7719  0.1911
  534MOL0     H73659   5.840   4.692   9.707 -2.6165  1.3697  0.4215
  534MOL0     H73660   5.791   4.932   9.545  0.9455 -1.5259 -0.4749
  534MOL0     H73661   5.671   4.936   9.659 -0.1526  0.8843 -3.4619
  534MOL0     H73662   5.621   4.673   9.618  0.4257 -1.1547  0.4530
  534MOL0     H73663   5.723   4.697   9.488 -0.4606 -1.6013  0.8483
  534MOL0     H73664   5.591   4.886   9.401  3.4782 -1.1318  1.1556
  534MOL0     H73665   5.524   4.726   9.390 -0.3747 -1.2983  2.3309
  534MOL0     H73666   5.395   4.935   9.490  3.1594  2.9156  0.8666
  534MOL0     H73667   5.470   4.890   9.643  1.8221 -3.3383 -0.7516
  534MOL0     H73668   5.305   4.754   9.679  1.1685  3.8082  0.2343
  534MOL0     H73669   5.356   4.646   9.531 -1.1412 -0.4167 -0.5539
  534MOL0     H73670   5.162   4.893   9.530 -2.8677 -0.2813 -0.1310
  534MOL0     H73671   5.094   4.733   9.560 -0.5513 -0.5272 -1.7609
  534MOL0     H73672   5.972   5.072   9.857 -1.4791  0.1806  3.1037
  534MOL0     H73673   6.146   5.206   9.944  0.3511  0.0149  0.0514
  534MOL0     H73674   6.518   5.246  10.052 -0.9682 -1.2004  1.2387
  534MOL0     H73675   6.706   5.409  10.046  0.0307  3.6138  1.0366
  534MOL0     H73676   6.748   4.409  10.432 -0.1070  0.3030  0.6419
  534MOL0     H73677   6.678   4.254  10.624 -0.2461 -0.7469 -0.1547
  534MOL0     H73678   6.774   3.846  10.718  0.9832 -1.4856  0.0728
  534MOL0     H73679   6.831   3.667  10.882 -0.3640  1.0666 -0.4865
  534MOL0     H73680   6.863   3.446  10.994 -1.1141  0.6060 -1.8472
  534MOL0     H73681   6.805   3.585  11.083 -1.3828  0.8507 -0.0687
  534MOL0     H73682   6.833   3.405  11.242 -0.1883  1.8115  0.2195
  534MOL0     H73683   6.736   3.296  11.166  1.2155 -0.2791  3.1805
  534MOL0     H73684   6.538   3.442  11.176  0.5541  1.8800 -0.9450
  534MOL0     H73685   6.588   3.369  11.321  2.1048 -4.6241 -2.9076
  534MOL0     H73686   6.678   3.648  11.234  1.7178 -2.6532 -0.3905
  534MOL0     H73687   6.697   3.585  11.402  0.9316  0.3901 -0.4568
  534MOL0     H73688   6.292   3.715  11.408 -0.7956  0.0105  0.3773
  534MOL0     H73689   6.446   3.506  10.830 -0.8783  0.6641  2.5550
  534MOL0     H73690   6.266   3.651  10.754 -2.9700  1.5086 -1.4033
  534MOL0     H73691   6.296   3.790  10.660 -0.0521  1.4637  0.6395
  534MOL0     H73692   6.318   3.632  10.579 -1.3464 -1.0653  1.3519
  535MOL0     O73693  10.395   7.487  11.008  0.1365 -0.7536 -0.0435
  535MOL0     C73694  10.358   7.389  10.950  0.9767  0.0916 -0.4684
  535MOL0     O73695  10.405   7.264  10.964 -0.9340  0.7272  0.3112
  535MOL0     C73696  10.469   7.236  11.082  0.2398  0.1264 -0.8832
  535MOL0     C73697  10.438   7.276  11.209  0.2083  0.2679 -0.1957
  535MOL0     C73698  10.510   7.225  11.324  0.0665 -0.8093  0.6363
  535MOL0     C73699  10.609   7.134  11.309 -0.2629 -0.8419 -0.8578
  535MOL0     O73700  10.671   7.095  11.425  0.9128  0.0693 -0.3046
  535MOL0     C73701  10.785   7.006  11.425 -0.4517  0.3387 -1.2847
  535MOL0     C73702  10.854   6.998  11.557 -0.4610  0.0635 -0.5605
  535MOL0     C73703  10.901   7.141  11.597  0.0288 -0.0171 -0.1231
  535MOL0     C73704  11.006   7.142  11.715  1.0042 -0.2511 -0.4258
  535MOL0     C73705  11.070   7.276  11.753 -1.3539 -0.3764 -0.8243
  535MOL0     C73706  11.142   7.328  11.631  0.5669 -0.2767  0.3332
  535MOL0     C73707  11.229   7.445  11.651 -0.1164 -0.9142  0.2594
  535MOL0     C73708  11.296   7.474  11.513 -0.4157 -0.3559  0.0485
  535MOL0     N73709  11.387   7.584  11.548 -0.7074  1.0035 -0.6568
  535MOL0     C73710  11.363   7.716  11.582  0.3704 -0.2969  0.7693
  535MOL0     C73711  11.488   7.766  11.610  0.2558  0.2735  0.9159
  535MOL0     C73712  11.527   7.913  11.640 -0.2777 -0.5133 -0.5438
  535MOL0     C73713  11.663   7.956  11.600  0.7818  0.3629  1.4426
  535MOL0     C73714  11.697   8.099  11.652 -0.0789 -0.5528  1.1177
  535MOL0     C73715  11.839   8.138  11.666  0.1091  0.4389  0.5758
  535MOL0     O73716  11.845   8.268  11.714  0.0343 -0.4093 -0.6156
  535MOL0     C73717  11.952   8.343  11.698 -1.0042  1.0579  0.0868
  535MOL0     C73718  11.938   8.484  11.692  0.7537  0.4721  0.2380
  535MOL0     C73719  12.039   8.566  11.650 -0.6896  0.2688 -0.1138
  535MOL0     C73720  12.005   8.718  11.633 -0.2667 -0.6021  0.6919
  535MOL0     C73721  12.174   8.514  11.639  0.6968 -0.9262  0.0255
  535MOL0     C73722  12.291   8.591  11.594  0.4256  0.7759 -0.0860
  535MOL0     O73723  12.273   8.727  11.590  0.2792 -0.2699  0.3015
  535MOL0     C73724  12.384   8.814  11.572 -0.5394 -0.1949  1.4536
  535MOL0     C73725  12.515   8.801  11.600 -0.3732 -0.5876 -0.4028
  535MOL0     C73726  12.594   8.916  11.608  0.8609 -0.7825  0.2677
  535MOL0     C73727  12.549   9.045  11.567  0.3829  0.0989  0.2534
  535MOL0     O73728  12.607   9.166  11.596 -0.1298  0.1349  0.3417
  535MOL0     C73729  12.742   9.173  11.645 -0.1133  0.0161 -0.2015
  535MOL0     C73730  12.768   9.321  11.600 -0.0672 -0.6144  0.0780
  535MOL0     C73731  12.912   9.352  11.645 -0.0745 -0.1555  0.6717
  535MOL0     C73732  12.960   9.484  11.579 -0.3876  0.3359  0.0471
  535MOL0     C73733  12.896   9.616  11.612 -0.0109  0.2229 -0.1232
  535MOL0     C73734  12.943   9.667  11.757  0.1485 -0.4750  0.1013
  535MOL0     C73735  13.098   9.680  11.776  0.5711 -0.5964  0.4291
  535MOL0     C73736  13.148   9.781  11.886 -0.2121  0.1941 -0.1039
  535MOL0    Cl73737  13.043   9.936  11.878 -0.1450 -0.0044  0.0319
  535MOL0     C73738  12.417   9.052  11.535  1.4033  0.6527 -0.4246
  535MOL0     C73739  12.331   8.935  11.531 -0.1085 -0.3511  0.2427
  535MOL0     O73740  12.390   8.530  11.564 -0.2327  0.1382 -0.3261
  535MOL0     C73741  12.193   8.377  11.649  0.2246  0.8508 -0.8947
  535MOL0     C73742  12.086   8.294  11.680  0.4679 -0.0120  0.7076
  535MOL0     N73743  11.575   7.656  11.614  0.0962 -0.2883  0.5958
  535MOL0     N73744  11.520   7.551  11.579 -0.1018  0.0137 -0.1536
  535MOL0     C73745  10.652   7.103  11.182 -0.2521  0.1446  0.3014
  535MOL0     C73746  10.576   7.144  11.075  1.1482 -0.1339  0.9572
  535MOL0     C73747  10.246   7.415  10.866 -0.8106 -0.3947 -0.4932
  535MOL0     C73748  10.253   7.533  10.787 -0.1659 -0.3281 -0.0910
  535MOL0     C73749  10.149   7.562  10.700  0.1592 -0.8224 -0.4320
  535MOL0     C73750  10.059   7.463  10.671  0.6821  0.3936  0.8802
  535MOL0     O73751   9.958   7.486  10.573 -1.0464 -0.6059  0.2444
  535MOL0     C73752   9.823   7.439  10.594 -0.1527  0.3871 -0.0374
  535MOL0     C73753   9.731   7.490  10.491  0.5824  0.4002 -0.1390
  535MOL0     C73754   9.698   7.639  10.518 -0.1222 -0.3304  0.0521
  535MOL0     C73755   9.656   7.703  10.384  0.4037 -0.1702 -0.7037
  535MOL0     C73756   9.615   7.839  10.425 -0.0661  0.5160  0.5915
  535MOL0     C73757   9.562   7.944  10.457 -0.4526  0.1098  0.4485
  535MOL0     C73758  10.061   7.348  10.746 -1.0047 -0.0644  0.6192
  535MOL0     C73759  10.149   7.320  10.850  0.0161  0.1465 -0.8571
  535MOL0     C73760  10.135   7.183  10.920  0.2651  0.3486  0.7544
  535MOL0     H73761  10.359   7.350  11.206  1.9862  2.2638 -2.0259
  535MOL0     H73762  10.479   7.237  11.427 -0.7162 -2.8567  0.6727
  535MOL0     H73763  10.864   7.039  11.356  1.8688 -2.7810 -0.3896
  535MOL0     H73764  10.754   6.913  11.377 -1.5720  0.4994 -0.8904
  535MOL0     H73765  10.782   6.961  11.632  0.5970 -0.8937  0.0085
  535MOL0     H73766  10.943   6.935  11.553  0.6358  1.3820  1.2938
  535MOL0     H73767  10.965   7.171  11.513  0.2383  1.6075  0.5825
  535MOL0     H73768  10.821   7.215  11.611  0.5377  0.4119  0.5822
  535MOL0     H73769  10.956   7.103  11.805 -2.4288  1.0533 -1.5805
  535MOL0     H73770  11.084   7.071  11.689  0.3558 -0.2543 -2.5282
  535MOL0     H73771  11.148   7.255  11.826  0.2897  3.1237 -1.3874
  535MOL0     H73772  10.995   7.342  11.798  0.2116 -0.1538  1.6203
  535MOL0     H73773  11.196   7.250  11.578 -1.7966 -0.4648 -2.0106
  535MOL0     H73774  11.066   7.357  11.558 -0.0212 -0.4309  0.8653
  535MOL0     H73775  11.296   7.422  11.735 -1.3609  1.2486  1.9352
  535MOL0     H73776  11.163   7.527  11.680 -0.9531 -2.3017  2.5577
  535MOL0     H73777  11.339   7.386  11.465 -0.5227 -0.7653  0.6817
  535MOL0     H73778  11.215   7.510  11.449 -2.0193 -0.7105  1.7823
  535MOL0     H73779  11.280   7.784  11.563  1.3248  0.2688 -1.7119
  535MOL0     H73780  11.506   7.935  11.745  1.7782 -2.7079  0.4206
  535MOL0     H73781  11.456   7.980  11.590 -3.7580  0.1646  4.5528
  535MOL0     H73782  11.738   7.895  11.651 -0.0555 -1.4112  0.6190
  535MOL0     H73783  11.667   7.964  11.491 -1.7542  0.3940  1.2949
  535MOL0     H73784  11.665   8.168  11.574  1.2604 -0.7970  0.3207
  535MOL0     H73785  11.653   8.108  11.752 -0.6926  1.8420  0.6857
  535MOL0     H73786  11.887   8.075  11.742  0.2822  1.1336  1.0504
  535MOL0     H73787  11.889   8.128  11.570  1.8999 -0.4574  1.5538
  535MOL0     H73788  11.844   8.528  11.723  0.4143  0.3395 -0.5905
  535MOL0     H73789  12.051   8.751  11.539  1.2867 -0.9784  1.2919
  535MOL0     H73790  12.045   8.764  11.724 -2.7529  0.5909  1.2699
  535MOL0     H73791  11.899   8.743  11.634  0.5481  3.8349 -0.1675
  535MOL0     H73792  12.549   8.710  11.650 -0.4089 -0.8230 -0.8058
  535MOL0     H73793  12.694   8.904  11.650  1.0638 -0.7327 -0.1930
  535MOL0     H73794  12.739   9.157  11.753  1.4318 -1.6465 -0.3564
  535MOL0     H73795  12.808   9.104  11.591  0.6774  1.6526 -1.4120
  535MOL0     H73796  12.763   9.351  11.495 -2.5293 -3.1815 -0.6546
  535MOL0     H73797  12.691   9.381  11.651 -1.6713 -1.9841 -0.6125
  535MOL0     H73798  12.977   9.270  11.615  0.1047  0.1224  0.2948
  535MOL0     H73799  12.934   9.362  11.752  2.0592 -1.6463  0.4341
  535MOL0     H73800  12.951   9.460  11.473  3.2917  0.9527 -0.5605
  535MOL0     H73801  13.068   9.503  11.583 -0.3137  0.2724 -1.2362
  535MOL0     H73802  12.926   9.686  11.533 -3.7063 -1.1443 -3.0594
  535MOL0     H73803  12.787   9.619  11.617 -0.0439 -1.4868  1.3427
  535MOL0     H73804  12.885   9.611  11.831 -2.2206  1.1384 -0.3935
  535MOL0     H73805  12.888   9.762  11.760  0.6295 -0.1094 -1.4269
  535MOL0     H73806  13.148   9.713  11.685  0.5655  0.3780  0.7654
  535MOL0     H73807  13.140   9.581  11.795  1.5746 -0.5437 -1.3055
  535MOL0     H73808  13.256   9.797  11.880  0.0620 -0.1908  2.5636
  535MOL0     H73809  13.139   9.736  11.985 -2.8712 -0.6878 -0.6843
  535MOL0     H73810  12.372   9.146  11.505 -1.1209 -1.0775 -2.4712
  535MOL0     H73811  12.225   8.937  11.510 -0.1702  0.1381  0.5769
  535MOL0     H73812  12.285   8.320  11.650 -0.8344 -1.0236  1.9403
  535MOL0     H73813  12.120   8.191  11.685  2.7624  0.7122  1.6484
  535MOL0     H73814  10.741   7.043  11.164  0.3705  0.5617  1.7855
  535MOL0     H73815  10.601   7.103  10.977  1.4480  1.2975  0.4068
  535MOL0     H73816  10.334   7.604  10.798 -1.7054  1.5562 -0.4221
  535MOL0     H73817  10.143   7.655  10.645 -1.9187 -1.4424 -1.3394
  535MOL0     H73818   9.840   7.331  10.597  1.9202  0.6675  0.4949
  535MOL0     H73819   9.788   7.466  10.694 -3.0280  1.2344 -1.1865
  535MOL0     H73820   9.635   7.444  10.517 -0.5445  3.2603  1.2473
  535MOL0     H73821   9.792   7.456  10.407  3.7867 -1.7055  2.7286
  535MOL0     H73822   9.626   7.639  10.600  1.8119  0.1307  1.8167
  535MOL0     H73823   9.784   7.694  10.558 -0.1654  0.3390 -0.7538
  535MOL0     H73824   9.571   7.654  10.336  1.7451  0.1511 -3.5901
  535MOL0     H73825   9.745   7.710  10.322 -0.6667  0.4463 -2.2186
  535MOL0     H73826   9.543   8.044  10.490  0.3779  0.7736 -0.9663
  535MOL0     H73827   9.979   7.282  10.723 -0.3885 -2.1309  3.8138
  535MOL0     H73828  10.147   7.195  11.028  1.6897  3.7890  0.3468
  535MOL0     H73829  10.045   7.128  10.894  0.3493  1.1240 -1.2977
  535MOL0     H73830  10.218   7.122  10.883  0.0586  0.1405  0.6324
  536MOL0     O73831   2.171   5.225   6.380 -0.0365 -0.3913  0.0972
  536MOL0     C73832   2.248   5.326   6.354 -0.6962  1.1665  1.1186
  536MOL0     O73833   2.206   5.460   6.356 -1.0105  0.1443  0.5785
  536MOL0     C73834   2.084   5.475   6.412 -0.1714 -0.6782  0.1615
  536MOL0     C73835   2.050   5.512   6.548 -0.6478 -0.6581  0.6133
  536MOL0     C73836   1.919   5.516   6.587 -1.1063  0.5653 -0.0723
  536MOL0     C73837   1.814   5.490   6.495  0.7757 -0.6175  0.7604
  536MOL0     O73838   1.683   5.520   6.537 -0.0342 -1.0325 -0.0059
  536MOL0     C73839   1.575   5.506   6.450  0.0806 -0.1694  0.3758
  536MOL0     C73840   1.440   5.544   6.515 -0.9836 -1.6844 -0.3950
  536MOL0     C73841   1.379   5.437   6.613  0.0625  0.6306 -0.5996
  536MOL0     C73842   1.233   5.472   6.642 -0.2544  0.1170  0.5540
  536MOL0     C73843   1.168   5.451   6.778 -0.3204  0.6674  0.4188
  536MOL0     C73844   1.215   5.556   6.870  0.6378  0.5223 -0.4767
  536MOL0     C73845   1.163   5.522   7.008  0.5394 -0.1003  0.9937
  536MOL0     C73846   1.205   5.621   7.117 -0.2176 -0.5335  0.0020
  536MOL0     N73847   1.140   5.598   7.250 -0.0844  0.0868 -0.3315
  536MOL0     C73848   1.018   5.641   7.284 -0.6605 -0.1264 -0.6648
  536MOL0     C73849   0.996   5.581   7.403  0.0171  0.1651 -0.4461
  536MOL0     C73850   0.877   5.616   7.491 -1.0188  0.2827 -0.4938
  536MOL0     C73851   0.778   5.500   7.478  0.3775  0.2904  0.3657
  536MOL0     C73852   0.628   5.545   7.476  0.0617  0.4431  0.2853
  536MOL0     C73853   0.580   5.628   7.354  0.6180 -0.3909  0.4576
  536MOL0     O73854   0.443   5.611   7.342 -0.0603  0.2049 -0.2305
  536MOL0     C73855   0.363   5.721   7.295 -0.3720  0.7271 -0.5091
  536MOL0     C73856   0.229   5.685   7.283  1.3850 -0.1498  0.0891
  536MOL0     C73857   0.153   5.782   7.220  0.6726  0.4290  1.1138
  536MOL0     C73858   0.009   5.738   7.218 -0.5261 -0.4349  0.2926
  536MOL0     C73859   0.201   5.899   7.164  0.4457  0.2766  1.2176
  536MOL0     C73860   0.109   6.001   7.095 -0.3379 -0.4188 -0.4016
  536MOL0     O73861   0.157   6.134   7.096  0.2304  0.4889 -0.4594
  536MOL0     C73862   0.070   6.239   7.098  1.4170  0.5600  0.1021
  536MOL0     C73863  -0.044   6.240   7.179  0.6382 -0.2153  0.3166
  536MOL0     C73864  -0.143   6.340   7.152  0.4932  0.1410  0.4009
  536MOL0     C73865  -0.127   6.439   7.057 -0.2436 -0.8414  0.1756
  536MOL0     O73866  -0.231   6.528   7.055 -0.3097  0.5057 -0.3471
  536MOL0     C73867  -0.243   6.610   6.945 -0.4216 -0.4437  0.4608
  536MOL0     C73868  -0.303   6.530   6.824 -0.1932  0.0693 -0.2930
  536MOL0     C73869  -0.314   6.608   6.689 -0.0133  0.1486 -0.0126
  536MOL0     C73870  -0.359   6.505   6.578  0.4666 -0.1826 -0.5485
  536MOL0     C73871  -0.324   6.557   6.437 -0.2020 -0.3410  0.3956
  536MOL0     C73872  -0.422   6.668   6.375 -0.4388  0.2796 -0.1676
  536MOL0     C73873  -0.362   6.712   6.241 -0.1958 -0.1884  0.3812
  536MOL0     C73874  -0.435   6.668   6.119  0.5133 -0.3272 -0.9597
  536MOL0    Cl73875  -0.384   6.761   5.978 -0.4319  0.2999 -0.1426
  536MOL0     C73876  -0.001   6.442   6.991  0.2019 -0.0417  0.0799
  536MOL0     C73877   0.093   6.351   7.013  0.2832  0.3814 -0.1681
  536MOL0     O73878   0.009   5.966   7.039 -0.1722 -0.8194  0.4052
  536MOL0     C73879   0.335   5.934   7.196 -0.3466 -0.5321 -0.3465
  536MOL0     C73880   0.414   5.850   7.271  0.5095  0.1074  0.5877
  536MOL0     N73881   1.117   5.530   7.452  0.3072 -0.6060 -0.7461
  536MOL0     N73882   1.196   5.529   7.349  0.2786  0.0623  0.7621
  536MOL0     C73883   1.843   5.451   6.358  0.9296 -0.5794  0.6643
  536MOL0     C73884   1.978   5.445   6.322  0.2238 -0.5738  0.2992
  536MOL0     C73885   2.369   5.284   6.290 -0.8712 -0.3431  0.1146
  536MOL0     C73886   2.378   5.183   6.191  1.8405 -0.5824  1.4804
  536MOL0     C73887   2.496   5.160   6.123  0.5720 -0.3941 -0.0918
  536MOL0     C73888   2.624   5.206   6.165  0.2384  1.2630 -0.1288
  536MOL0     O73889   2.742   5.169   6.112 -1.1447 -0.2247  0.1592
  536MOL0     C73890   2.779   5.237   5.995 -0.1812  0.0158 -0.3479
  536MOL0     C73891   2.930   5.237   5.980  0.1563  0.2084 -0.0168
  536MOL0     C73892   2.999   5.298   6.103  0.0279  0.9834  0.3753
  536MOL0     C73893   3.149   5.307   6.073  0.1847 -0.4938 -0.7192
  536MOL0     C73894   3.199   5.172   6.066 -0.9641  0.4170  0.3991
  536MOL0     C73895   3.244   5.064   6.091 -0.3010 -0.0438 -1.1868
  536MOL0     C73896   2.620   5.301   6.273 -0.0922 -0.2887  1.0105
  536MOL0     C73897   2.493   5.335   6.334 -0.4002  0.1242  0.4858
  536MOL0     C73898   2.504   5.420   6.450 -0.1134 -1.3089 -1.0950
  536MOL0     H73899   2.128   5.542   6.617  1.1750 -1.9650 -0.7772
  536MOL0     H73900   1.891   5.545   6.688  2.3250  0.1109  1.1396
  536MOL0     H73901   1.570   5.403   6.415 -2.5986  0.8416 -2.7990
  536MOL0     H73902   1.591   5.569   6.362 -1.3817  1.3070  1.0949
  536MOL0     H73903   1.450   5.645   6.556  0.5478 -1.9697  0.0005
  536MOL0     H73904   1.369   5.554   6.432 -1.6673 -2.4060  0.0820
  536MOL0     H73905   1.394   5.337   6.573  0.7568  0.6279 -0.3528
  536MOL0     H73906   1.431   5.421   6.708  2.0207  0.3431 -1.6600
  536MOL0     H73907   1.210   5.575   6.614  1.6734 -0.0733 -2.0354
  536MOL0     H73908   1.172   5.411   6.574  0.2435  0.7737 -0.5054
  536MOL0     H73909   1.204   5.356   6.820 -1.4044 -0.3458 -0.8853
  536MOL0     H73910   1.059   5.453   6.772 -0.6460 -0.0197  4.0362
  536MOL0     H73911   1.324   5.556   6.867  0.6445 -1.2635 -2.0467
  536MOL0     H73912   1.184   5.657   6.840  2.4744  1.4532  0.6145
  536MOL0     H73913   1.193   5.420   7.036 -2.3842 -1.6747 -1.0608
  536MOL0     H73914   1.054   5.522   7.000  0.5651  1.7634  0.1580
  536MOL0     H73915   1.314   5.619   7.118 -0.2099 -0.8328 -0.8789
  536MOL0     H73916   1.185   5.719   7.071 -2.2030 -1.7305 -1.8641
  536MOL0     H73917   0.954   5.709   7.228 -1.3443 -1.0493 -1.0287
  536MOL0     H73918   0.835   5.711   7.459  1.6094  1.5646 -0.4044
  536MOL0     H73919   0.909   5.627   7.596  1.8387 -1.7670 -1.0356
  536MOL0     H73920   0.791   5.453   7.381 -3.4704 -2.5180  0.9790
  536MOL0     H73921   0.790   5.430   7.561 -0.0344  0.3955  0.5198
  536MOL0     H73922   0.575   5.450   7.465 -0.0825  0.6950 -1.4042
  536MOL0     H73923   0.596   5.583   7.573 -0.2775 -0.4693  0.5436
  536MOL0     H73924   0.606   5.732   7.375 -0.6708  0.6872 -2.6426
  536MOL0     H73925   0.637   5.594   7.267  1.9705  0.8927  0.7973
  536MOL0     H73926   0.189   5.586   7.302  1.7254  0.0361  1.9754
  536MOL0     H73927  -0.017   5.677   7.130 -0.3579  2.5159 -1.9555
  536MOL0     H73928  -0.071   5.812   7.210 -0.8930 -0.7197  1.1954
  536MOL0     H73929  -0.008   5.691   7.315  0.8850  1.0074  1.2711
  536MOL0     H73930  -0.058   6.162   7.252  3.9761 -1.9879 -0.7215
  536MOL0     H73931  -0.234   6.334   7.211  1.4813 -1.2117  1.8844
  536MOL0     H73932  -0.316   6.686   6.972  0.3564  0.6514 -0.4448
  536MOL0     H73933  -0.157   6.662   6.903 -0.1946  1.6974  3.3003
  536MOL0     H73934  -0.248   6.438   6.803  0.4441  0.7392 -1.6826
  536MOL0     H73935  -0.402   6.503   6.862  0.1877  1.2508  1.7107
  536MOL0     H73936  -0.213   6.637   6.659  0.0768  1.6763  1.6003
  536MOL0     H73937  -0.389   6.681   6.720 -1.2168 -0.9464 -0.2554
  536MOL0     H73938  -0.465   6.478   6.571  0.3397  0.6002 -1.8746
  536MOL0     H73939  -0.292   6.421   6.600  2.5227  1.7901  1.2651
  536MOL0     H73940  -0.223   6.598   6.443 -1.2144  2.2623  1.1383
  536MOL0     H73941  -0.326   6.474   6.366  2.5571 -0.0208 -0.1877
  536MOL0     H73942  -0.434   6.747   6.449 -1.3206 -1.2860  1.4549
  536MOL0     H73943  -0.515   6.613   6.356  0.4586 -1.7301  0.8885
  536MOL0     H73944  -0.253   6.703   6.242 -0.2409 -0.9881 -0.5135
  536MOL0     H73945  -0.380   6.819   6.251 -1.3405 -0.5803  4.2750
  536MOL0     H73946  -0.538   6.701   6.136  0.5439 -0.5999 -0.1741
  536MOL0     H73947  -0.422   6.560   6.109 -0.7583 -1.1862  3.8241
  536MOL0     H73948   0.013   6.525   6.922 -1.1976  0.2454  0.1118
  536MOL0     H73949   0.191   6.353   6.966 -0.2970  0.8197 -1.4162
  536MOL0     H73950   0.368   6.037   7.179  0.2695 -0.6428  0.1449
  536MOL0     H73951   0.514   5.884   7.296  0.8885 -0.1128 -0.5489
  536MOL0     H73952   1.763   5.451   6.285  0.8808  1.5328  0.6508
  536MOL0     H73953   1.998   5.401   6.225  2.2383 -0.3621  0.5782
  536MOL0     H73954   2.286   5.140   6.151  4.2569 -2.9093 -2.1375
  536MOL0     H73955   2.500   5.095   6.036  1.9078 -0.2455 -0.1654
  536MOL0     H73956   2.734   5.176   5.916  0.0442 -1.7367  0.8272
  536MOL0     H73957   2.734   5.336   5.993  2.0300  1.0979 -0.0444
  536MOL0     H73958   2.940   5.300   5.892 -4.2702  0.1797 -0.8041
  536MOL0     H73959   2.970   5.135   5.975  2.3323  0.7249  3.4996
  536MOL0     H73960   2.969   5.402   6.116 -0.2626  1.0282 -0.5806
  536MOL0     H73961   2.985   5.245   6.198  2.9875  1.9541  1.4907
  536MOL0     H73962   3.204   5.369   6.144  2.0623 -0.3891 -2.1704
  536MOL0     H73963   3.153   5.364   5.980 -3.2345  0.4781 -0.4035
  536MOL0     H73964   3.282   4.966   6.114 -1.2406  0.1386  1.5519
  536MOL0     H73965   2.709   5.342   6.320  2.1136  1.0220 -3.7303
  536MOL0     H73966   2.425   5.494   6.454 -0.4693 -1.5621 -2.8530
  536MOL0     H73967   2.488   5.361   6.541 -0.4232  1.8100  1.0304
  536MOL0     H73968   2.608   5.447   6.471  0.2996 -4.5994  2.1173
  537MOL0     O73969   6.049   3.759   2.496 -0.0077  0.0852  0.4468
  537MOL0     C73970   5.935   3.806   2.480 -0.3876 -0.3404 -0.1954
  537MOL0     O73971   5.832   3.724   2.440 -0.3054  0.2746 -0.1989
  537MOL0     C73972   5.836   3.588   2.464  0.8513  0.3892 -0.6827
  537MOL0     C73973   5.786   3.525   2.586 -0.6185 -1.0645  0.1786
  537MOL0     C73974   5.810   3.390   2.603 -0.6821  0.3429  0.2994
  537MOL0     C73975   5.856   3.315   2.500 -0.3433 -0.3283 -0.4282
  537MOL0     O73976   5.844   3.187   2.536 -0.0049  0.1787  0.1030
  537MOL0     C73977   5.941   3.101   2.481  0.4377 -0.6088  0.0608
  537MOL0     C73978   5.975   2.990   2.573  0.0579  0.1750  0.8049
  537MOL0     C73979   6.111   2.925   2.533  0.4901  0.3721 -0.9025
  537MOL0     C73980   6.223   3.032   2.534  0.6151  0.5845 -0.1326
  537MOL0     C73981   6.359   2.956   2.530 -0.1123 -0.3721 -0.5341
  537MOL0     C73982   6.382   2.866   2.414 -0.6933  0.5870  0.5163
  537MOL0     C73983   6.415   2.935   2.279  0.1996 -0.1177  0.7014
  537MOL0     C73984   6.568   2.950   2.270 -0.4618 -0.3800  0.1457
  537MOL0     N73985   6.614   3.031   2.156  0.4566 -0.8612  0.0302
  537MOL0     C73986   6.628   2.990   2.022  0.6631  0.2604 -0.7058
  537MOL0     C73987   6.671   3.105   1.957  0.2219  0.1815 -0.6401
  537MOL0     C73988   6.704   3.119   1.813  0.1066  0.1985  0.5795
  537MOL0     C73989   6.853   3.131   1.794  0.3692  0.0528 -0.3693
  537MOL0     C73990   6.927   3.009   1.750 -0.2894  0.3754 -0.1028
  537MOL0     C73991   6.899   2.883   1.831 -0.0475 -0.8234 -0.4618
  537MOL0     O73992   6.908   2.900   1.973 -0.3036  0.0732  0.0796
  537MOL0     C73993   7.020   2.963   2.021  0.4853 -0.0014 -0.3568
  537MOL0     C73994   7.151   2.917   1.992  0.6865 -0.0364  0.2139
  537MOL0     C73995   7.268   2.981   2.047 -0.7556  0.6719 -0.0550
  537MOL0     C73996   7.408   2.948   2.001 -0.0297  0.8446  0.4406
  537MOL0     C73997   7.239   3.083   2.148  0.0174  1.0009  0.1873
  537MOL0     C73998   7.345   3.166   2.215 -0.0185 -0.5634 -0.1982
  537MOL0     O73999   7.299   3.231   2.324 -1.1110  0.2429 -0.0437
  537MOL0     C74000   7.379   3.311   2.404 -0.3793  0.5843  0.3315
  537MOL0     C74001   7.316   3.354   2.521 -0.3157 -0.3129  0.3036
  537MOL0     C74002   7.395   3.422   2.617 -0.5529 -0.2658  0.4999
  537MOL0     C74003   7.532   3.459   2.595 -0.1616  0.3074  0.1402
  537MOL0     O74004   7.589   3.525   2.698  0.2042 -0.0402  0.3581
  537MOL0     C74005   7.613   3.656   2.654  0.0108 -0.2607 -0.6802
  537MOL0     C74006   7.536   3.759   2.742 -0.6678 -0.8298 -0.3050
  537MOL0     C74007   7.614   3.801   2.871  0.8710  0.5300  0.1180
  537MOL0     C74008   7.641   3.686   2.973  1.0047 -0.8331 -0.2047
  537MOL0     C74009   7.721   3.732   3.094 -0.2484 -0.0916  0.0779
  537MOL0     C74010   7.654   3.828   3.189 -0.5287 -0.5658  0.0882
  537MOL0     C74011   7.742   3.883   3.301 -0.7850 -0.5611 -0.0423
  537MOL0     C74012   7.677   3.868   3.435 -0.8320  1.0210 -0.5656
  537MOL0    Cl74013   7.659   3.688   3.488  0.1281 -0.5212 -0.5392
  537MOL0     C74014   7.586   3.420   2.471  0.1563 -1.1358  0.8818
  537MOL0     C74015   7.512   3.359   2.377 -0.1361  0.3025  0.3895
  537MOL0     O74016   7.459   3.175   2.163  0.1408  0.0893 -0.6531
  537MOL0     C74017   7.101   3.118   2.188 -0.2184  0.2176  0.3015
  537MOL0     C74018   6.990   3.052   2.126 -0.7576  0.0392 -0.9074
  537MOL0     N74019   6.692   3.202   2.050  0.2248 -0.0875 -1.1254
  537MOL0     N74020   6.656   3.163   2.166  0.4092 -0.0361  0.4109
  537MOL0     C74021   5.897   3.369   2.381 -0.4075 -0.1749 -0.4313
  537MOL0     C74022   5.900   3.508   2.364  0.6711 -0.0380 -1.0709
  537MOL0     C74023   5.920   3.960   2.495  0.6053 -0.1660 -0.6028
  537MOL0     C74024   6.032   4.041   2.517 -0.2121  0.1757 -0.7917
  537MOL0     C74025   6.032   4.178   2.519  0.1465 -0.2179  0.8374
  537MOL0     C74026   5.911   4.248   2.479  0.7053  0.6470  1.0634
  537MOL0     O74027   5.924   4.387   2.461 -0.3029 -0.9934 -0.1058
  537MOL0     C74028   5.809   4.469   2.499 -0.5466  0.0427 -0.2496
  537MOL0     C74029   5.855   4.567   2.606  0.8867 -0.3222  0.4275
  537MOL0     C74030   5.848   4.525   2.754  0.2700  0.2643 -0.1403
  537MOL0     C74031   5.928   4.621   2.836 -0.2061 -0.2246 -0.6965
  537MOL0     C74032   6.073   4.607   2.824  0.7871 -1.2580  0.2648
  537MOL0     C74033   6.196   4.589   2.817  0.5329  0.0094  0.2548
  537MOL0     C74034   5.797   4.174   2.453 -0.1986  0.5666 -0.2202
  537MOL0     C74035   5.800   4.033   2.463 -0.5398  0.3736 -0.1683
  537MOL0     C74036   5.667   3.967   2.433 -1.1475  0.7115  0.1934
  537MOL0     H74037   5.760   3.594   2.666 -1.8071  1.2317 -2.0738
  537MOL0     H74038   5.784   3.336   2.693 -1.3409 -0.8859 -0.5960
  537MOL0     H74039   6.030   3.162   2.463 -0.5221  0.7084 -0.3493
  537MOL0     H74040   5.904   3.072   2.382 -3.2896  1.0910  0.7724
  537MOL0     H74041   5.985   3.025   2.676 -2.8683  0.4199  1.1098
  537MOL0     H74042   5.894   2.916   2.573 -0.0018  0.2389  1.4069
  537MOL0     H74043   6.130   2.835   2.592 -0.8928 -0.0005 -0.9726
  537MOL0     H74044   6.112   2.888   2.430  0.7455  1.1185 -1.1716
  537MOL0     H74045   6.214   3.094   2.444 -1.4960 -1.0411 -1.1339
  537MOL0     H74046   6.216   3.097   2.621  1.8288  1.0158 -0.3232
  537MOL0     H74047   6.369   2.893   2.619 -3.9498  2.0179  1.8665
  537MOL0     H74048   6.438   3.033   2.531 -1.3172  1.0071  2.3203
  537MOL0     H74049   6.452   2.788   2.445 -4.7725 -1.9818  4.5858
  537MOL0     H74050   6.292   2.805   2.406 -0.3321  0.0007  0.8115
  537MOL0     H74051   6.367   3.033   2.272 -1.6438 -1.0345 -0.3114
  537MOL0     H74052   6.369   2.872   2.202  0.3860 -0.2391  0.6889
  537MOL0     H74053   6.597   3.004   2.361 -0.1118  0.8113 -0.6560
  537MOL0     H74054   6.614   2.851   2.268 -0.0180 -0.1865 -2.1032
  537MOL0     H74055   6.609   2.887   1.997  3.4637 -0.7275  0.7934
  537MOL0     H74056   6.664   3.217   1.784 -2.6719 -1.6651 -2.6535
  537MOL0     H74057   6.660   3.058   1.733  0.8646  0.4543 -0.0429
  537MOL0     H74058   6.873   3.206   1.717 -1.2356  0.4539 -0.4311
  537MOL0     H74059   6.908   3.175   1.877  0.5476  0.1758 -0.5512
  537MOL0     H74060   6.901   2.988   1.645 -1.1058  1.9287 -0.2299
  537MOL0     H74061   7.033   3.037   1.757  0.1327 -1.4853  1.8788
  537MOL0     H74062   6.795   2.884   1.798 -0.4819  3.2356  0.4491
  537MOL0     H74063   6.959   2.793   1.816  0.8791 -0.5572  1.3571
  537MOL0     H74064   7.170   2.839   1.920 -1.4311 -1.1786  0.8287
  537MOL0     H74065   7.414   2.857   1.941 -0.3703  1.1309 -0.0352
  537MOL0     H74066   7.477   2.929   2.084 -2.2191  0.9860  2.4131
  537MOL0     H74067   7.457   3.020   1.935  3.1228 -2.0450 -0.6414
  537MOL0     H74068   7.211   3.341   2.544 -0.0513 -1.7977  0.8081
  537MOL0     H74069   7.359   3.449   2.716  0.2392  1.6150  0.3161
  537MOL0     H74070   7.720   3.674   2.666  0.0551 -0.3095 -1.0099
  537MOL0     H74071   7.598   3.675   2.548 -1.7722  3.4557  0.0868
  537MOL0     H74072   7.521   3.853   2.688  1.4038  0.3329  1.0521
  537MOL0     H74073   7.441   3.714   2.773 -2.0904  1.2962 -1.3236
  537MOL0     H74074   7.553   3.875   2.924  0.5322 -0.9754  1.9541
  537MOL0     H74075   7.712   3.850   2.864  1.9926 -1.4232  1.3092
  537MOL0     H74076   7.704   3.611   2.926 -1.2854 -1.2084 -2.9916
  537MOL0     H74077   7.545   3.638   2.997 -1.0780  2.0126 -2.0813
  537MOL0     H74078   7.757   3.651   3.158  4.9202  1.7558 -0.0651
  537MOL0     H74079   7.821   3.767   3.068 -1.0009  1.5804 -0.7363
  537MOL0     H74080   7.558   3.783   3.214 -1.6300  0.8900 -1.2946
  537MOL0     H74081   7.613   3.907   3.125 -5.7721 -1.4618  1.8591
  537MOL0     H74082   7.772   3.987   3.284 -2.1438 -0.4815 -2.4879
  537MOL0     H74083   7.834   3.825   3.309  0.6956  1.5650 -0.5261
  537MOL0     H74084   7.578   3.915   3.443 -1.9283 -0.8689 -2.2868
  537MOL0     H74085   7.743   3.922   3.504  0.2100 -2.3593  1.3349
  537MOL0     H74086   7.690   3.447   2.463  0.8847 -1.4347  5.8724
  537MOL0     H74087   7.553   3.348   2.278  0.4172  2.0518  0.3948
  537MOL0     H74088   7.064   3.189   2.262  1.8088 -0.5450  2.1366
  537MOL0     H74089   6.889   3.082   2.153 -0.8210  0.2504 -1.3625
  537MOL0     H74090   5.934   3.299   2.306 -0.6506 -3.0654  1.9640
  537MOL0     H74091   5.927   3.549   2.267 -0.4298  0.7225 -1.0771
  537MOL0     H74092   6.130   3.996   2.529 -0.0567  0.4966 -0.8364
  537MOL0     H74093   6.115   4.243   2.542  0.6679 -0.4397 -0.3164
  537MOL0     H74094   5.773   4.523   2.411 -2.6076  0.1712  0.6218
  537MOL0     H74095   5.725   4.410   2.535 -1.6258  0.6647 -1.6545
  537MOL0     H74096   5.800   4.661   2.596  2.0865  0.3324 -0.2900
  537MOL0     H74097   5.960   4.591   2.586 -0.1471  2.3607 -2.7015
  537MOL0     H74098   5.747   4.507   2.792  0.4462  0.5892  0.4815
  537MOL0     H74099   5.893   4.425   2.759  4.4656  2.0382  2.1638
  537MOL0     H74100   5.895   4.605   2.939  2.6921  2.1883  0.7480
  537MOL0     H74101   5.903   4.723   2.806  0.6599  0.0935 -0.3625
  537MOL0     H74102   6.302   4.575   2.814  0.9242  2.3722  0.7806
  537MOL0     H74103   5.697   4.212   2.432 -1.4539 -3.1438 -1.6958
  537MOL0     H74104   5.671   3.899   2.347 -1.0626 -2.0551  2.2620
  537MOL0     H74105   5.651   3.887   2.505 -1.1772  0.5166 -0.0256
  537MOL0     H74106   5.582   4.035   2.426 -1.1723  0.5370 -2.2434
  538MOL0     O74107   8.410  10.111   8.441 -0.0316  0.0723 -0.4941
  538MOL0     C74108   8.503  10.197   8.436  0.6836 -0.3575  1.0529
  538MOL0     O74109   8.595  10.202   8.335  0.0466  0.0900 -0.3666
  538MOL0     C74110   8.578  10.151   8.209  0.1732 -0.4737 -0.1509
  538MOL0     C74111   8.680  10.088   8.142  0.8272  0.5385  0.0884
  538MOL0     C74112   8.672  10.067   8.005 -1.0564  0.6544 -0.3295
  538MOL0     C74113   8.560  10.098   7.934  0.1992  0.9464 -0.5231
  538MOL0     O74114   8.562  10.052   7.801  0.1609  0.1480  0.5944
  538MOL0     C74115   8.467   9.953   7.765 -0.6000  0.3523 -0.2647
  538MOL0     C74116   8.442   9.941   7.616 -0.2695 -1.4478  0.4511
  538MOL0     C74117   8.561   9.896   7.526  0.0240 -0.0960  0.4846
  538MOL0     C74118   8.571   9.745   7.519  0.2035  0.8037  0.4465
  538MOL0     C74119   8.676   9.707   7.417 -0.7033 -1.1547  0.5281
  538MOL0     C74120   8.733   9.570   7.421 -0.2826  1.1718  0.5347
  538MOL0     C74121   8.631   9.462   7.371  0.2329 -0.8518  1.1400
  538MOL0     C74122   8.697   9.322   7.351 -0.5645  0.4890 -0.1397
  538MOL0     N74123   8.580   9.228   7.346 -0.8220 -0.6868 -0.2511
  538MOL0     C74124   8.505   9.174   7.452  0.0131 -0.4120 -0.6342
  538MOL0     C74125   8.417   9.090   7.394  0.1904 -0.0121 -0.1586
  538MOL0     C74126   8.301   9.019   7.451  0.0943  0.2130 -0.3807
  538MOL0     C74127   8.164   9.073   7.415 -0.2765  0.4194  0.3087
  538MOL0     C74128   8.047   8.980   7.469 -0.6284 -0.3553  0.7906
  538MOL0     C74129   7.912   8.993   7.391 -0.2947 -0.5973  0.4794
  538MOL0     O74130   7.805   9.024   7.483  0.5163 -0.4353 -0.3485
  538MOL0     C74131   7.744   8.939   7.573  0.3195 -0.5779  0.1449
  538MOL0     C74132   7.616   8.963   7.637 -0.0541  0.8225  0.6926
  538MOL0     C74133   7.550   8.872   7.715 -0.4332 -0.1168 -0.0682
  538MOL0     C74134   7.410   8.913   7.769  0.6430 -0.1199 -0.2704
  538MOL0     C74135   7.617   8.751   7.739  0.1496  1.0165 -1.1453
  538MOL0     C74136   7.568   8.655   7.848 -0.0005 -0.0249 -0.4757
  538MOL0     O74137   7.638   8.535   7.863 -0.3338 -0.9438  0.5182
  538MOL0     C74138   7.620   8.462   7.985 -0.1245  0.1111  0.1684
  538MOL0     C74139   7.500   8.387   7.996 -0.1235  0.7114  0.0845
  538MOL0     C74140   7.491   8.305   8.109  0.9425 -0.7020 -0.4955
  538MOL0     C74141   7.592   8.292   8.202 -0.6633 -0.5476 -0.4934
  538MOL0     O74142   7.563   8.204   8.308 -1.1560  0.3145 -0.2024
  538MOL0     C74143   7.678   8.152   8.392  0.3542  1.1148 -0.0720
  538MOL0     C74144   7.791   8.077   8.320  0.0065  0.1794  0.2848
  538MOL0     C74145   7.895   8.012   8.410  0.2378  0.6397 -0.2282
  538MOL0     C74146   8.006   7.938   8.333  0.4698 -0.5844 -0.0020
  538MOL0     C74147   8.093   7.851   8.413  0.4018 -0.0852  0.3430
  538MOL0     C74148   8.018   7.725   8.454  0.5150  0.4218 -0.1857
  538MOL0     C74149   7.964   7.638   8.333 -0.1577 -0.4569 -0.6256
  538MOL0     C74150   7.918   7.498   8.384 -0.3729 -0.3540 -1.0955
  538MOL0    Cl74151   7.861   7.397   8.254 -0.0939  0.3627 -0.1706
  538MOL0     C74152   7.704   8.373   8.193  0.1866  0.0051 -0.2096
  538MOL0     C74153   7.718   8.468   8.090  1.3419  0.8896 -0.5297
  538MOL0     O74154   7.477   8.687   7.917 -0.0636 -0.7050  0.0109
  538MOL0     C74155   7.731   8.722   7.660 -0.0603  0.3855 -0.2167
  538MOL0     C74156   7.788   8.815   7.575 -0.8960 -0.2306 -0.3291
  538MOL0     N74157   8.431   9.097   7.258 -1.2641 -0.2518 -0.4998
  538MOL0     N74158   8.530   9.177   7.233  0.6188 -0.6907  0.2209
  538MOL0     C74159   8.445  10.146   7.995 -0.9937 -0.0663 -0.0045
  538MOL0     C74160   8.463  10.197   8.135 -0.2965  0.4336  1.1556
  538MOL0     C74161   8.533  10.281   8.557 -1.0198 -0.5669 -0.2206
  538MOL0     C74162   8.666  10.332   8.567 -0.6710 -0.6787  0.3135
  538MOL0     C74163   8.713  10.402   8.682  0.3397  0.4617 -0.0383
  538MOL0     C74164   8.613  10.450   8.773  0.4259 -0.0203 -0.7056
  538MOL0     O74165   8.634  10.544   8.872 -0.2572  0.1701 -1.0900
  538MOL0     C74166   8.772  10.563   8.908  0.6202 -0.4338  0.2774
  538MOL0     C74167   8.791  10.625   9.048  1.0014  0.2996  0.1905
  538MOL0     C74168   8.717  10.533   9.153  0.4214  0.2631  0.0924
  538MOL0     C74169   8.749  10.554   9.300  0.0269  0.1308 -0.7008
  538MOL0     C74170   8.732  10.696   9.340  0.7346  0.2326 -0.1520
  538MOL0     C74171   8.734  10.810   9.385 -0.1663 -0.4267 -0.1795
  538MOL0     C74172   8.482  10.409   8.762  0.5507  1.4609 -0.3630
  538MOL0     C74173   8.443  10.328   8.655 -0.0550  0.1775 -0.0959
  538MOL0     C74174   8.294  10.287   8.664  0.0682  0.4584  1.0910
  538MOL0     H74175   8.777  10.072   8.188  1.6535  0.3158 -1.6517
  538MOL0     H74176   8.762  10.031   7.955 -0.4787  1.0697  0.3863
  538MOL0     H74177   8.377   9.962   7.827  1.0335  2.0104  2.0192
  538MOL0     H74178   8.515   9.862   7.799 -0.5655  1.3145  2.5134
  538MOL0     H74179   8.355   9.877   7.598 -2.4509  1.8997 -2.3340
  538MOL0     H74180   8.407  10.039   7.584 -1.2825 -1.7550  0.5752
  538MOL0     H74181   8.544   9.946   7.430 -1.3601 -1.7268 -0.1738
  538MOL0     H74182   8.650   9.938   7.573 -1.4448  1.6023  1.8891
  538MOL0     H74183   8.594   9.703   7.617  0.0788 -0.6084 -0.1081
  538MOL0     H74184   8.473   9.707   7.485  0.5049  2.5028 -2.7120
  538MOL0     H74185   8.761   9.775   7.425 -1.5622  0.2944 -1.8193
  538MOL0     H74186   8.635   9.720   7.317 -2.3620  1.3146  1.4336
  538MOL0     H74187   8.819   9.563   7.354  0.8029 -1.3399  2.0144
  538MOL0     H74188   8.769   9.537   7.519  3.3123 -3.6853 -1.9287
  538MOL0     H74189   8.578   9.482   7.278  3.0185  0.5500 -0.2611
  538MOL0     H74190   8.546   9.459   7.440 -1.4195  0.2995 -0.7513
  538MOL0     H74191   8.739   9.315   7.250 -1.0705 -2.5717 -0.2540
  538MOL0     H74192   8.775   9.306   7.426 -1.3008 -0.9606  0.3570
  538MOL0     H74193   8.517   9.187   7.559 -0.4634 -1.4195 -0.4500
  538MOL0     H74194   8.325   9.007   7.557  0.9221 -0.8964 -0.6719
  538MOL0     H74195   8.297   8.916   7.414 -1.9292  0.3515 -0.6154
  538MOL0     H74196   8.144   9.176   7.445  1.1334  0.2716  1.8530
  538MOL0     H74197   8.136   9.069   7.309 -2.0791 -4.2113  0.7005
  538MOL0     H74198   8.073   8.875   7.453  0.5608  0.2208 -1.5832
  538MOL0     H74199   8.040   9.009   7.574 -1.2292 -1.1466  0.9814
  538MOL0     H74200   7.903   9.062   7.307 -1.6164 -0.1064  1.0093
  538MOL0     H74201   7.894   8.897   7.341 -0.0591 -1.1342  1.4030
  538MOL0     H74202   7.573   9.061   7.622 -1.1690  0.3469  0.6949
  538MOL0     H74203   7.405   8.953   7.871  1.0359 -1.8914  0.4853
  538MOL0     H74204   7.354   8.819   7.764  0.8107 -0.1592 -2.2611
  538MOL0     H74205   7.353   8.982   7.706  1.0908  0.5956  0.0956
  538MOL0     H74206   7.413   8.385   7.930 -1.2352  0.8566  1.4991
  538MOL0     H74207   7.407   8.239   8.130  0.5612 -1.3761 -3.6437
  538MOL0     H74208   7.719   8.241   8.441  0.7171  2.1378 -2.1080
  538MOL0     H74209   7.631   8.083   8.462 -1.7375  0.2606 -2.1482
  538MOL0     H74210   7.746   7.992   8.267  4.2240 -3.1397  1.4501
  538MOL0     H74211   7.844   8.147   8.254  4.5331 -1.1429  2.1295
  538MOL0     H74212   7.844   7.930   8.461  1.5904 -0.5148 -0.6479
  538MOL0     H74213   7.939   8.079   8.484  1.9471  2.3775 -2.6489
  538MOL0     H74214   8.075   8.015   8.297  1.2098 -2.3520 -2.6322
  538MOL0     H74215   7.971   7.884   8.245 -3.1280 -0.3709  1.1125
  538MOL0     H74216   8.188   7.833   8.361 -0.7071  0.6399 -2.0990
  538MOL0     H74217   8.127   7.906   8.502  1.9830  2.0492 -1.4452
  538MOL0     H74218   7.936   7.757   8.520 -1.0180 -0.0320 -1.7899
  538MOL0     H74219   8.086   7.664   8.514  2.1449  1.7886 -0.5984
  538MOL0     H74220   8.048   7.641   8.262 -0.7335 -0.2577 -1.3061
  538MOL0     H74221   7.880   7.691   8.287 -1.1787 -2.2973 -0.9724
  538MOL0     H74222   7.840   7.505   8.460 -0.4745 -0.3124 -1.2026
  538MOL0     H74223   8.005   7.451   8.432 -0.1679  0.4439 -0.6496
  538MOL0     H74224   7.785   8.380   8.266 -0.9084  3.5307  0.8890
  538MOL0     H74225   7.799   8.539   8.075  2.2948 -0.1037 -0.1272
  538MOL0     H74226   7.777   8.624   7.663  2.0480  1.3379  1.4346
  538MOL0     H74227   7.880   8.786   7.527  0.3497 -1.6354  2.6142
  538MOL0     H74228   8.356  10.166   7.937 -0.8240 -1.6278 -0.8549
  538MOL0     H74229   8.389  10.256   8.189 -2.5152 -0.0439 -1.1941
  538MOL0     H74230   8.743  10.311   8.493  0.6502 -1.5392  1.8834
  538MOL0     H74231   8.818  10.423   8.696  0.2415  1.1823 -0.3382
  538MOL0     H74232   8.833  10.472   8.904  2.4724  0.7488  0.3657
  538MOL0     H74233   8.814  10.624   8.828 -1.7279  1.6008  0.4819
  538MOL0     H74234   8.749  10.725   9.056 -4.5523 -1.7247  0.9687
  538MOL0     H74235   8.895  10.632   9.081  0.3682  1.1818  2.0891
  538MOL0     H74236   8.613  10.563   9.141  0.5318 -0.1473 -2.1954
  538MOL0     H74237   8.720  10.426   9.128 -0.0881 -0.0932  1.4198
  538MOL0     H74238   8.847  10.515   9.325 -1.3705 -2.1131  1.7130
  538MOL0     H74239   8.681  10.494   9.360  2.9720 -1.9705  0.7538
  538MOL0     H74240   8.719  10.906   9.429  3.9252 -0.4365  1.6672
  538MOL0     H74241   8.418  10.451   8.839  0.1010 -2.1233  1.4172
  538MOL0     H74242   8.271  10.193   8.612 -0.4469  1.0855  0.1524
  538MOL0     H74243   8.253  10.268   8.763  0.8531  1.7527  1.7002
  538MOL0     H74244   8.241  10.366   8.610  0.6401 -0.2131 -0.5445
  539MOL0     O74245   2.594   7.321   0.412  0.7467 -0.2311 -0.1613
  539MOL0     C74246   2.511   7.323   0.507  1.4036  0.5021  1.1113
  539MOL0     O74247   2.400   7.236   0.522 -0.4346 -0.6766 -1.4021
  539MOL0     C74248   2.398   7.125   0.453  0.8434  0.6372  0.3099
  539MOL0     C74249   2.431   6.993   0.497 -0.0808 -0.3983 -0.1277
  539MOL0     C74250   2.433   6.887   0.415  0.1875 -0.1366 -0.8769
  539MOL0     C74251   2.395   6.900   0.273  0.1142  0.4126  0.6103
  539MOL0     O74252   2.387   6.782   0.197 -0.6463 -0.0742 -0.4983
  539MOL0     C74253   2.388   6.785   0.055  0.3283  0.2074 -1.5449
  539MOL0     C74254   2.244   6.800  -0.001  0.9510 -0.5083  1.2765
  539MOL0     C74255   2.187   6.664  -0.025  0.6086 -0.4629  0.8044
  539MOL0     C74256   2.233   6.607  -0.157 -0.7413  0.2726 -0.2143
  539MOL0     C74257   2.162   6.466  -0.190 -0.1525 -0.5259 -0.3838
  539MOL0     C74258   2.158   6.432  -0.333 -0.2640  0.6220  1.4527
  539MOL0     C74259   2.289   6.424  -0.398 -0.9739  0.7649 -1.0905
  539MOL0     C74260   2.275   6.340  -0.525  0.2345 -0.6309  0.3053
  539MOL0     N74261   2.405   6.315  -0.575  0.3364  0.2142 -0.1701
  539MOL0     C74262   2.520   6.249  -0.531 -0.3104  0.6799 -1.3773
  539MOL0     C74263   2.603   6.273  -0.631 -0.8083  0.4406  0.7460
  539MOL0     C74264   2.749   6.242  -0.625 -0.5019 -0.6944 -0.5376
  539MOL0     C74265   2.758   6.104  -0.690 -0.8072 -0.3055 -0.2701
  539MOL0     C74266   2.871   6.012  -0.630  0.0052 -0.3647  0.0763
  539MOL0     C74267   3.013   6.061  -0.659 -0.2872  0.1432 -0.2350
  539MOL0     O74268   3.044   6.043  -0.802 -0.7868  0.6500  0.6991
  539MOL0     C74269   3.084   6.152  -0.886 -0.1863 -0.2230  0.1028
  539MOL0     C74270   3.114   6.125  -1.018 -0.5839  0.5767  0.0083
  539MOL0     C74271   3.154   6.222  -1.111  0.1775 -0.1532 -0.1513
  539MOL0     C74272   3.188   6.185  -1.258  0.0203 -0.8739  0.4084
  539MOL0     C74273   3.161   6.361  -1.072  0.2247 -0.3157 -0.1089
  539MOL0     C74274   3.201   6.471  -1.163  1.0170  1.1885  0.3009
  539MOL0     O74275   3.231   6.586  -1.103 -0.8986  0.6035 -0.4056
  539MOL0     C74276   3.300   6.672  -1.176 -0.5678  0.3257 -0.2490
  539MOL0     C74277   3.436   6.701  -1.148 -0.1461 -0.2756  0.5679
  539MOL0     C74278   3.507   6.783  -1.229  0.2930  0.8401 -0.2238
  539MOL0     C74279   3.438   6.857  -1.328 -0.7427 -0.0248 -0.5049
  539MOL0     O74280   3.517   6.938  -1.403 -0.7658 -0.0887 -0.6173
  539MOL0     C74281   3.481   6.996  -1.524  0.5581 -0.4874 -0.6096
  539MOL0     C74282   3.486   6.899  -1.636 -0.4577 -0.3628  1.4927
  539MOL0     C74283   3.416   6.964  -1.765  0.2759  0.9115 -0.2438
  539MOL0     C74284   3.480   6.911  -1.903  0.8507  0.1347 -0.3502
  539MOL0     C74285   3.437   6.987  -2.030  0.8806  0.8541 -0.6997
  539MOL0     C74286   3.505   7.122  -2.059 -0.0946  1.1264  0.6613
  539MOL0     C74287   3.658   7.109  -2.074 -0.1509 -1.2483  0.4115
  539MOL0     C74288   3.712   7.246  -2.106 -0.4056  0.5613  1.5652
  539MOL0    Cl74289   3.890   7.261  -2.115 -0.2392 -0.1258 -0.0637
  539MOL0     C74290   3.296   6.855  -1.334 -1.0215 -0.2516  0.9714
  539MOL0     C74291   3.230   6.763  -1.255  0.3999 -0.2839 -0.3040
  539MOL0     O74292   3.194   6.457  -1.279 -0.3599 -0.7465  0.9254
  539MOL0     C74293   3.138   6.387  -0.935  0.4897  0.1518  0.5405
  539MOL0     C74294   3.098   6.286  -0.851  0.1491  0.0937  0.5048
  539MOL0     N74295   2.545   6.332  -0.737  0.5008  0.3449 -0.4593
  539MOL0     N74296   2.424   6.364  -0.696 -0.1994 -0.0075  0.4236
  539MOL0     C74297   2.378   7.032   0.225  0.6211  0.3739  0.6828
  539MOL0     C74298   2.377   7.137   0.312  0.8006  0.7966  0.8419
  539MOL0     C74299   2.518   7.431   0.601  0.7013 -0.4412  0.6404
  539MOL0     C74300   2.416   7.526   0.613 -0.3760  0.7216  0.4735
  539MOL0     C74301   2.450   7.648   0.684  0.0418  0.0720  1.2331
  539MOL0     C74302   2.574   7.676   0.727  0.1210  0.3718  0.0702
  539MOL0     O74303   2.600   7.807   0.772 -0.0990  0.7679  0.2892
  539MOL0     C74304   2.588   7.918   0.690  0.1174  0.3637 -0.7178
  539MOL0     C74305   2.712   8.004   0.695  0.3667  0.6190 -0.2479
  539MOL0     C74306   2.686   8.138   0.632  0.2804 -0.3352 -0.0854
  539MOL0     C74307   2.572   8.229   0.703  0.6248 -0.4656  0.0642
  539MOL0     C74308   2.588   8.244   0.855 -0.2554  0.2896  1.2667
  539MOL0     C74309   2.583   8.257   0.982 -1.2810  0.8298 -0.2984
  539MOL0     C74310   2.670   7.571   0.737  1.0275 -0.2774  0.4086
  539MOL0     C74311   2.639   7.444   0.670 -0.5156 -0.1944  0.6934
  539MOL0     C74312   2.753   7.344   0.675  0.4053  0.4916 -1.2493
  539MOL0     H74313   2.459   6.990   0.602 -0.5876  0.1845  0.0310
  539MOL0     H74314   2.456   6.797   0.471  0.1539 -0.6963 -1.7459
  539MOL0     H74315   2.437   6.691   0.028 -0.8328 -0.3975 -1.6085
  539MOL0     H74316   2.458   6.859   0.016 -1.6436  2.1527 -1.6152
  539MOL0     H74317   2.172   6.861   0.054  0.4913  3.6759 -3.2676
  539MOL0     H74318   2.251   6.856  -0.095  1.9421 -2.5255  0.0630
  539MOL0     H74319   2.218   6.602   0.060  0.7864  0.4925  1.4666
  539MOL0     H74320   2.080   6.680  -0.040  0.2255 -2.9476  0.5937
  539MOL0     H74321   2.200   6.675  -0.236  0.9939  3.1214  1.3675
  539MOL0     H74322   2.341   6.603  -0.172 -0.7576  1.6005 -0.7465
  539MOL0     H74323   2.062   6.466  -0.144  0.3224 -0.5508  0.6660
  539MOL0     H74324   2.214   6.380  -0.147  0.6370  0.0954 -0.0959
  539MOL0     H74325   2.098   6.340  -0.331  0.4054  0.1829  2.1749
  539MOL0     H74326   2.106   6.497  -0.403 -0.6088  0.3131  1.4182
  539MOL0     H74327   2.356   6.367  -0.334 -0.4053  1.0866 -1.3899
  539MOL0     H74328   2.332   6.524  -0.413  0.3470  0.0325 -2.4432
  539MOL0     H74329   2.231   6.244  -0.495  1.4615 -1.2242  0.2585
  539MOL0     H74330   2.208   6.381  -0.601 -0.3654  0.7055  1.4974
  539MOL0     H74331   2.539   6.207  -0.433 -4.5221  0.1842 -0.6252
  539MOL0     H74332   2.797   6.246  -0.527 -0.9341  1.0562 -0.3559
  539MOL0     H74333   2.803   6.306  -0.695  1.5395 -1.3149  0.4008
  539MOL0     H74334   2.672   6.047  -0.653 -0.9183  0.6410  0.9880
  539MOL0     H74335   2.764   6.110  -0.799  3.3703 -3.1408 -0.4458
  539MOL0     H74336   2.859   6.010  -0.522 -0.6617 -1.9886 -0.0116
  539MOL0     H74337   2.846   5.918  -0.680 -2.1087  0.8327 -1.2593
  539MOL0     H74338   3.024   6.163  -0.620 -1.4555  0.0276  0.4332
  539MOL0     H74339   3.079   6.000  -0.597 -0.1054 -2.1114 -2.4660
  539MOL0     H74340   3.105   6.022  -1.051  0.0751  0.1967  0.9476
  539MOL0     H74341   3.291   6.210  -1.285  0.5316 -1.3869  1.8182
  539MOL0     H74342   3.122   6.239  -1.326  1.3313 -0.6677 -0.7512
  539MOL0     H74343   3.166   6.078  -1.263  0.3847 -0.9386  0.1230
  539MOL0     H74344   3.495   6.653  -1.070  2.9703  0.7178 -0.9858
  539MOL0     H74345   3.616   6.782  -1.228  0.3787  3.1718  1.6289
  539MOL0     H74346   3.377   7.030  -1.515  0.1096 -1.9205 -0.2024
  539MOL0     H74347   3.540   7.081  -1.559 -2.0845  0.8741 -2.1592
  539MOL0     H74348   3.591   6.890  -1.665 -0.6086 -3.0626  1.5958
  539MOL0     H74349   3.429   6.808  -1.613  0.0617 -0.4208  2.6138
  539MOL0     H74350   3.434   7.072  -1.767 -2.8596  1.5061 -1.3928
  539MOL0     H74351   3.309   6.946  -1.768 -0.0298  2.0999  1.8594
  539MOL0     H74352   3.443   6.808  -1.912 -0.6319  0.4840  1.2906
  539MOL0     H74353   3.589   6.908  -1.892  0.6177 -2.6606  2.3306
  539MOL0     H74354   3.440   6.917  -2.114 -3.5379  1.9862 -2.0744
  539MOL0     H74355   3.330   7.006  -2.022  0.6340 -0.5413 -0.5016
  539MOL0     H74356   3.478   7.189  -1.977 -1.6808  0.2901  0.8741
  539MOL0     H74357   3.463   7.144  -2.158 -1.3285  1.1041  1.1626
  539MOL0     H74358   3.681   7.038  -2.154  0.7392  1.6580 -2.1119
  539MOL0     H74359   3.700   7.073  -1.980  0.3723 -0.9675  0.2893
  539MOL0     H74360   3.676   7.319  -2.033  1.4852  1.9692  1.1645
  539MOL0     H74361   3.682   7.267  -2.209  1.9651  1.4652  0.9904
  539MOL0     H74362   3.239   6.898  -1.416 -1.0031 -2.3330 -0.2093
  539MOL0     H74363   3.124   6.739  -1.260  0.3535 -0.4141  1.0537
  539MOL0     H74364   3.140   6.489  -0.899 -0.4835 -0.3754  2.1740
  539MOL0     H74365   3.074   6.324  -0.752 -1.6679  1.5874 -0.4544
  539MOL0     H74366   2.368   7.051   0.119  1.9220  0.8412  0.6303
  539MOL0     H74367   2.378   7.234   0.265 -2.5763 -0.5476 -2.5088
  539MOL0     H74368   2.323   7.520   0.559 -1.0668 -2.8977  1.7451
  539MOL0     H74369   2.378   7.729   0.687 -0.0324  0.0091  1.1584
  539MOL0     H74370   2.572   7.883   0.587  2.1536  1.8543 -1.6184
  539MOL0     H74371   2.506   7.977   0.731 -0.2036 -1.8625  2.1548
  539MOL0     H74372   2.791   7.945   0.647 -1.4753 -1.0759 -1.3543
  539MOL0     H74373   2.738   8.021   0.800 -0.0009  1.7501 -0.3247
  539MOL0     H74374   2.773   8.203   0.620 -1.5990  1.8141 -3.6585
  539MOL0     H74375   2.660   8.113   0.528 -1.1211 -0.3531  0.2462
  539MOL0     H74376   2.469   8.193   0.693  0.1623  0.7946  0.0626
  539MOL0     H74377   2.573   8.327   0.654  1.5106 -1.1712 -1.3925
  539MOL0     H74378   2.579   8.267   1.089 -1.8550 -0.9217 -0.1327
  539MOL0     H74379   2.760   7.597   0.791 -0.0178 -0.0844  2.1330
  539MOL0     H74380   2.756   7.298   0.774 -0.1860  0.3126 -1.3152
  539MOL0     H74381   2.762   7.270   0.595  2.3116  0.3555 -0.9526
  539MOL0     H74382   2.848   7.398   0.667  1.0813 -0.3322  0.5654
  540MOL0     O74383   1.904   9.270   9.288 -0.1432 -0.8584  0.2997
  540MOL0     C74384   1.841   9.261   9.393  0.5359 -0.4953 -0.4638
  540MOL0     O74385   1.713   9.212   9.408 -0.2150  0.4587 -0.2722
  540MOL0     C74386   1.658   9.134   9.316 -0.5387  0.0981 -0.2291
  540MOL0     C74387   1.557   9.046   9.369  0.5041 -0.8124  0.0734
  540MOL0     C74388   1.486   8.952   9.287 -0.3013  0.3395  0.3942
  540MOL0     C74389   1.513   8.943   9.153  1.0934 -0.2143  0.1286
  540MOL0     O74390   1.449   8.855   9.076 -0.0214 -0.1651  0.1436
  540MOL0     C74391   1.544   8.769   9.006  0.3664  0.4589 -0.3168
  540MOL0     C74392   1.472   8.684   8.904  0.9903  0.2440 -0.4692
  540MOL0     C74393   1.422   8.782   8.793  0.7208  0.5876 -0.1755
  540MOL0     C74394   1.363   8.707   8.662 -0.1879  0.2151 -1.0998
  540MOL0     C74395   1.237   8.632   8.702 -0.1588 -0.1322 -1.0572
  540MOL0     C74396   1.155   8.570   8.593  1.6315  0.5807 -0.4448
  540MOL0     C74397   1.008   8.554   8.642 -0.6283 -0.3965 -0.7594
  540MOL0     C74398   0.984   8.460   8.766 -0.1112 -0.0369 -0.9503
  540MOL0     N74399   0.841   8.446   8.812 -0.2925 -0.2903 -0.0086
  540MOL0     C74400   0.811   8.360   8.917 -0.2516 -0.2197 -0.4173
  540MOL0     C74401   0.679   8.353   8.907  0.8471 -0.2583 -0.2605
  540MOL0     C74402   0.596   8.252   8.986  0.4832 -0.1030 -0.5204
  540MOL0     C74403   0.601   8.113   8.927  0.6789  0.1906  0.2172
  540MOL0     C74404   0.487   8.097   8.823  0.4758 -0.2816 -0.7915
  540MOL0     C74405   0.470   7.954   8.788 -0.9007  0.8429  0.4829
  540MOL0     O74406   0.589   7.897   8.729  0.5222  0.0091  0.1689
  540MOL0     C74407   0.588   7.793   8.642  0.0860  0.4357 -0.7365
  540MOL0     C74408   0.707   7.741   8.591  0.2916  0.9951  0.2991
  540MOL0     C74409   0.710   7.626   8.504 -0.1988 -0.6127  0.3966
  540MOL0     C74410   0.849   7.566   8.476  0.0644  0.6629 -0.6220
  540MOL0     C74411   0.592   7.565   8.464  0.1488  0.0503 -0.5481
  540MOL0     C74412   0.589   7.443   8.381 -0.0981  0.3828 -0.0875
  540MOL0     O74413   0.688   7.432   8.285 -0.9709 -0.4515  0.4377
  540MOL0     C74414   0.715   7.308   8.238 -0.2831 -0.0970 -0.4860
  540MOL0     C74415   0.641   7.238   8.147 -0.3608  0.0193  0.4244
  540MOL0     C74416   0.694   7.119   8.093 -0.1133 -0.8141 -0.8809
  540MOL0     C74417   0.812   7.066   8.139  0.5631  0.1162 -0.5044
  540MOL0     O74418   0.867   6.951   8.096 -0.0911  0.2043 -1.1154
  540MOL0     C74419   0.778   6.839   8.068  0.7192  0.0081  0.4739
  540MOL0     C74420   0.858   6.709   8.053 -0.0399 -0.6019 -0.2886
  540MOL0     C74421   0.932   6.685   7.920  0.1818 -0.1631  0.2284
  540MOL0     C74422   1.018   6.558   7.933  0.2401  1.0086  1.1683
  540MOL0     C74423   1.096   6.545   7.795  1.1258 -0.7516 -0.1763
  540MOL0     C74424   1.202   6.439   7.802  0.1675 -0.0893 -0.3532
  540MOL0     C74425   1.256   6.403   7.665 -0.3826 -0.0559  0.3522
  540MOL0     C74426   1.184   6.277   7.617  0.8976 -0.2386  0.0826
  540MOL0    Cl74427   1.235   6.139   7.702 -0.8761  0.2322 -0.6828
  540MOL0     C74428   0.888   7.134   8.233 -0.1726 -0.4023  0.4972
  540MOL0     C74429   0.838   7.251   8.288  0.9382  1.0189  0.1139
  540MOL0     O74430   0.491   7.368   8.399 -0.7631  0.6691  1.5845
  540MOL0     C74431   0.471   7.619   8.513 -0.4786  0.2370  0.5046
  540MOL0     C74432   0.474   7.731   8.593 -0.6567  0.0996 -0.9089
  540MOL0     N74433   0.620   8.442   8.820 -0.7398 -0.9360 -0.2679
  540MOL0     N74434   0.728   8.495   8.762 -0.0291  0.1746  0.0249
  540MOL0     C74435   1.612   9.026   9.105 -0.5623  0.5620  0.1743
  540MOL0     C74436   1.686   9.118   9.179  0.8702  0.2474  0.0965
  540MOL0     C74437   1.909   9.318   9.524  0.0850  0.3647 -0.5402
  540MOL0     C74438   2.044   9.366   9.512 -0.5043  0.5044 -0.4906
  540MOL0     C74439   2.120   9.415   9.624  0.3390 -0.8262 -0.3294
  540MOL0     C74440   2.052   9.405   9.752  0.7571 -0.2275  0.3095
  540MOL0     O74441   2.115   9.425   9.875  0.9455  0.3849 -0.1162
  540MOL0     C74442   2.256   9.460   9.881  0.2937 -0.6673 -0.2829
  540MOL0     C74443   2.299   9.475  10.026 -0.1858  0.2944 -0.9840
  540MOL0     C74444   2.240   9.595  10.090  0.0979  0.3043  0.4667
  540MOL0     C74445   2.290   9.616  10.225  0.1110 -0.2503 -0.4743
  540MOL0     C74446   2.272   9.503  10.320 -0.2476  0.7464 -0.9876
  540MOL0     C74447   2.238   9.412  10.397 -0.5839 -0.1493  0.1720
  540MOL0     C74448   1.918   9.378   9.754 -0.7167 -0.4863 -0.0672
  540MOL0     C74449   1.847   9.331   9.650  0.8024 -0.4622  0.4224
  540MOL0     C74450   1.709   9.298   9.673 -0.3777  0.0614  0.1406
  540MOL0     H74451   1.533   9.048   9.474 -1.5695 -3.0207 -0.2957
  540MOL0     H74452   1.415   8.883   9.329 -0.6713  0.0849 -0.6191
  540MOL0     H74453   1.586   8.704   9.083  0.4464  2.5133  1.4627
  540MOL0     H74454   1.627   8.819   8.956  0.0681  1.7741  0.4502
  540MOL0     H74455   1.540   8.607   8.866  0.7669 -1.3563  2.1420
  540MOL0     H74456   1.392   8.622   8.945  0.4355  1.2841  0.0656
  540MOL0     H74457   1.339   8.845   8.827 -1.1731 -0.7894 -2.0097
  540MOL0     H74458   1.502   8.853   8.767 -1.3430  2.6598 -1.2530
  540MOL0     H74459   1.350   8.782   8.582  2.7513  0.4954 -1.4080
  540MOL0     H74460   1.446   8.646   8.626  2.9098  2.8771  0.9900
  540MOL0     H74461   1.179   8.696   8.770 -0.0195  0.4915 -1.5206
  540MOL0     H74462   1.257   8.546   8.767 -2.1339 -0.1226 -0.3756
  540MOL0     H74463   1.148   8.649   8.517  3.2207  1.5041  0.3105
  540MOL0     H74464   1.195   8.479   8.546  1.6613 -0.0957  0.8513
  540MOL0     H74465   0.944   8.510   8.566 -3.5510  1.0229  0.7093
  540MOL0     H74466   0.966   8.652   8.670 -3.0915 -1.9238  1.3818
  540MOL0     H74467   1.020   8.361   8.737 -2.3114 -0.3663 -2.8533
  540MOL0     H74468   1.040   8.505   8.848 -2.3762  3.6032 -1.1806
  540MOL0     H74469   0.887   8.315   8.981 -1.2125 -2.4295 -0.7410
  540MOL0     H74470   0.490   8.278   8.986 -0.3582 -3.1271 -0.4222
  540MOL0     H74471   0.618   8.250   9.093 -0.2812 -2.5399 -0.3478
  540MOL0     H74472   0.697   8.098   8.876  0.4517 -1.1910  0.1431
  540MOL0     H74473   0.596   8.039   9.007 -5.3285  1.3921  1.4242
  540MOL0     H74474   0.394   8.140   8.862  0.5889 -0.8333  0.1205
  540MOL0     H74475   0.506   8.149   8.729  1.8697  1.9221  0.6037
  540MOL0     H74476   0.429   7.899   8.874 -0.6788 -0.8247 -0.4392
  540MOL0     H74477   0.392   7.965   8.712  0.0868  0.9585 -0.5240
  540MOL0     H74478   0.802   7.790   8.609  0.7914  0.2651 -0.3377
  540MOL0     H74479   0.928   7.624   8.523 -1.8975  1.7251  1.5612
  540MOL0     H74480   0.876   7.548   8.371 -3.1305  1.1076 -1.6489
  540MOL0     H74481   0.837   7.470   8.526 -0.7061  0.4013 -1.2707
  540MOL0     H74482   0.549   7.284   8.113 -0.9919 -0.9459  0.7924
  540MOL0     H74483   0.625   7.076   8.022 -0.7526 -2.5061  0.6979
  540MOL0     H74484   0.700   6.810   8.140 -1.6338 -0.8421 -2.2459
  540MOL0     H74485   0.711   6.869   7.987  0.9206 -2.4323 -0.6590
  540MOL0     H74486   0.929   6.717   8.136 -0.8690  0.1086  0.3919
  540MOL0     H74487   0.791   6.624   8.073 -1.4684  0.3339 -0.8881
  540MOL0     H74488   1.008   6.763   7.908  1.9476 -2.1669 -3.0400
  540MOL0     H74489   0.861   6.672   7.838  0.7573 -0.7959 -0.1848
  540MOL0     H74490   0.948   6.475   7.950 -0.0845  0.9387 -0.3697
  540MOL0     H74491   1.095   6.554   8.011  1.1632 -0.8114  0.2403
  540MOL0     H74492   1.031   6.526   7.710 -0.0546  0.1093  0.4998
  540MOL0     H74493   1.140   6.640   7.763  0.8384 -0.0859  1.3191
  540MOL0     H74494   1.159   6.351   7.851 -0.7050 -1.7883 -3.8665
  540MOL0     H74495   1.276   6.485   7.868  0.1491  1.4857 -1.3717
  540MOL0     H74496   1.363   6.381   7.658 -0.6664 -0.9675 -1.5966
  540MOL0     H74497   1.240   6.486   7.595  0.6454 -0.6287 -0.5916
  540MOL0     H74498   1.204   6.264   7.510 -1.7329 -3.1272 -0.2040
  540MOL0     H74499   1.076   6.287   7.630  0.9277 -0.8953  0.9055
  540MOL0     H74500   0.988   7.100   8.258  0.8336  1.9100 -0.1106
  540MOL0     H74501   0.886   7.310   8.365  1.6784  2.8056 -1.6470
  540MOL0     H74502   0.374   7.588   8.478 -0.9952  3.5139 -1.3807
  540MOL0     H74503   0.377   7.770   8.624 -0.0623  3.5032 -2.8501
  540MOL0     H74504   1.640   9.020   9.000  0.7769  3.5188  0.2748
  540MOL0     H74505   1.753   9.179   9.119  1.3172 -1.2562 -0.9844
  540MOL0     H74506   2.095   9.373   9.416  1.1602  0.4304  0.3676
  540MOL0     H74507   2.223   9.448   9.612  1.0868 -2.3029  1.5563
  540MOL0     H74508   2.316   9.380   9.836 -1.6907 -1.1671 -2.2344
  540MOL0     H74509   2.275   9.545   9.815  0.9855 -0.8076 -0.2725
  540MOL0     H74510   2.408   9.480  10.037 -0.2226 -0.1071 -0.3767
  540MOL0     H74511   2.273   9.381  10.077  0.4036  1.1034  0.9027
  540MOL0     H74512   2.263   9.682  10.029 -1.3839 -0.7670 -1.7369
  540MOL0     H74513   2.131   9.591  10.097  0.0439  1.6355  0.5853
  540MOL0     H74514   2.223   9.689  10.271 -1.5834 -2.4137  0.7248
  540MOL0     H74515   2.397   9.638  10.233  0.5447 -2.5521  0.8945
  540MOL0     H74516   2.219   9.326  10.457  0.9078  1.5291  3.2964
  540MOL0     H74517   1.874   9.382   9.853 -2.1023 -0.5202 -0.6606
  540MOL0     H74518   1.701   9.189   9.674  1.9342 -0.1530 -0.1397
  540MOL0     H74519   1.674   9.345   9.766 -3.1310  0.7903 -1.1720
  540MOL0     H74520   1.645   9.335   9.593 -1.3889  1.3440  1.4735
  541MOL0     O74521   1.986   1.688   8.522  0.5823 -0.0137 -0.5114
  541MOL0     C74522   1.910   1.729   8.435 -1.1618 -0.3707  0.1389
  541MOL0     O74523   1.788   1.789   8.443  1.2163  0.5688  0.1785
  541MOL0     C74524   1.718   1.805   8.561 -0.6907  0.1464  0.1392
  541MOL0     C74525   1.639   1.918   8.579 -0.2063 -0.3628 -0.7524
  541MOL0     C74526   1.565   1.928   8.701 -0.7488  0.1375 -0.3184
  541MOL0     C74527   1.555   1.827   8.803 -0.5719 -1.3749 -0.1535
  541MOL0     O74528   1.489   1.854   8.924  0.5073 -0.3383 -0.5338
  541MOL0     C74529   1.506   1.765   9.032 -0.3664 -0.2336 -0.0708
  541MOL0     C74530   1.455   1.840   9.160  0.6559  0.3236 -0.4889
  541MOL0     C74531   1.488   1.750   9.279  0.1108 -0.2866  0.4620
  541MOL0     C74532   1.392   1.635   9.285 -0.5644  0.0017  0.3682
  541MOL0     C74533   1.413   1.549   9.400  0.5414  0.5035  0.1704
  541MOL0     C74534   1.552   1.487   9.435  0.9641  0.3784  0.2373
  541MOL0     C74535   1.533   1.393   9.557  0.0138 -0.8772 -0.7059
  541MOL0     C74536   1.621   1.266   9.549  0.3079 -0.3438  0.0820
  541MOL0     N74537   1.759   1.272   9.591  0.4074  0.0485 -0.0770
  541MOL0     C74538   1.799   1.328   9.699  0.4221  1.2303 -0.0079
  541MOL0     C74539   1.931   1.312   9.707  0.1874  0.2584 -0.3812
  541MOL0     C74540   2.016   1.352   9.816  0.4945  0.1925  0.2441
  541MOL0     C74541   1.954   1.329   9.959 -0.0252 -0.3166  0.7947
  541MOL0     C74542   2.052   1.382  10.060 -0.6591  0.4566 -0.6178
  541MOL0     C74543   1.993   1.466  10.166 -0.2156 -0.6823  1.0828
  541MOL0     O74544   1.975   1.597  10.107  0.6335  0.2366  0.9599
  541MOL0     C74545   1.994   1.715  10.184  0.2149  0.0204  0.8729
  541MOL0     C74546   1.914   1.738  10.294  0.8008  1.0513  1.1203
  541MOL0     C74547   1.913   1.858  10.360  0.6348  0.3103 -0.6900
  541MOL0     C74548   1.818   1.874  10.481  0.0460  0.4520 -0.1318
  541MOL0     C74549   1.998   1.957  10.318  0.2919  0.1645 -0.2579
  541MOL0     C74550   2.026   2.085  10.389 -0.4638  0.8100  0.8413
  541MOL0     O74551   1.933   2.127  10.476  0.6878 -0.1732 -0.3223
  541MOL0     C74552   1.933   2.249  10.539 -0.0542 -0.4470 -0.4139
  541MOL0     C74553   1.823   2.264  10.626  0.2921 -1.0278 -1.0156
  541MOL0     C74554   1.793   2.382  10.690 -1.2069  0.2356 -0.0717
  541MOL0     C74555   1.871   2.489  10.672 -0.6897  0.6111  0.2261
  541MOL0     O74556   1.858   2.602  10.741 -0.2093 -0.9399 -0.3957
  541MOL0     C74557   1.734   2.637  10.808 -0.6956 -0.5006 -0.0881
  541MOL0     C74558   1.736   2.791  10.842 -0.4137 -0.4015 -1.1423
  541MOL0     C74559   1.691   2.832  10.987  0.0501 -0.2016  0.3391
  541MOL0     C74560   1.542   2.863  11.006  1.0811  0.5071  0.0115
  541MOL0     C74561   1.509   2.888  11.154  1.1499  0.0604 -0.3988
  541MOL0     C74562   1.395   3.006  11.168 -0.1560 -0.4594  0.1488
  541MOL0     C74563   1.308   2.984  11.301  0.4735 -0.4413  0.1454
  541MOL0     C74564   1.226   2.859  11.304  0.5179 -0.7813  0.7846
  541MOL0    Cl74565   1.103   2.868  11.172 -0.0521 -0.1921  0.0896
  541MOL0     C74566   1.994   2.483  10.593 -0.3275  0.5203 -0.4824
  541MOL0     C74567   2.018   2.367  10.521 -0.2900  1.0161 -0.2702
  541MOL0     O74568   2.112   2.158  10.341 -0.0470 -0.2815  0.4263
  541MOL0     C74569   2.066   1.934  10.197 -0.7522  0.5641  0.3349
  541MOL0     C74570   2.075   1.818  10.130  0.0458 -0.7733 -0.0187
  541MOL0     N74571   1.979   1.244   9.599 -0.6962  0.2988 -0.4619
  541MOL0     N74572   1.869   1.225   9.527  0.4126  0.4524  0.5146
  541MOL0     C74573   1.636   1.714   8.782  1.4227  0.2179 -0.2941
  541MOL0     C74574   1.712   1.707   8.659 -0.5511  0.3197 -0.4813
  541MOL0     C74575   1.970   1.695   8.299  0.2010 -0.7544  1.1466
  541MOL0     C74576   2.111   1.697   8.281  0.1627  0.3372  0.6924
  541MOL0     C74577   2.164   1.646   8.160  0.3600 -0.1016  0.4448
  541MOL0     C74578   2.085   1.591   8.055  0.6097 -0.4378  0.2734
  541MOL0     O74579   2.140   1.539   7.936  0.2377 -0.2005  0.3915
  541MOL0     C74580   2.282   1.545   7.901  0.9991 -0.0764 -0.5731
  541MOL0     C74581   2.301   1.475   7.764  1.1156  0.4431  0.3087
  541MOL0     C74582   2.222   1.343   7.762  0.6028 -0.3509  0.0941
  541MOL0     C74583   2.081   1.363   7.697  0.2072 -0.2175  0.2602
  541MOL0     C74584   2.014   1.236   7.691  0.2889 -0.0688  0.5673
  541MOL0     C74585   1.963   1.131   7.702  0.3639  0.4248  0.4392
  541MOL0     C74586   1.943   1.607   8.069 -0.0468  0.6205 -0.2719
  541MOL0     C74587   1.888   1.656   8.184  0.2334  0.0996 -0.4707
  541MOL0     C74588   1.744   1.680   8.185  0.5882  1.1369 -0.5673
  541MOL0     H74589   1.629   1.998   8.506  3.0806  0.1308 -0.8371
  541MOL0     H74590   1.507   2.020   8.711 -0.3253  0.1507  3.4670
  541MOL0     H74591   1.609   1.732   9.049 -0.1450  1.4917  2.5927
  541MOL0     H74592   1.445   1.676   9.017  0.2836 -1.5002  3.7321
  541MOL0     H74593   1.513   1.927   9.191  1.9094 -0.9917  1.0607
  541MOL0     H74594   1.347   1.853   9.146  0.0281 -1.5021  1.9761
  541MOL0     H74595   1.590   1.713   9.273  1.8342  4.0611 -1.3913
  541MOL0     H74596   1.477   1.796   9.377 -1.0265 -0.4781  0.4413
  541MOL0     H74597   1.293   1.682   9.291  0.1086  1.4572  0.2081
  541MOL0     H74598   1.379   1.573   9.195 -1.6093 -1.4841  1.4806
  541MOL0     H74599   1.337   1.470   9.395  1.4417 -0.3805 -4.9979
  541MOL0     H74600   1.376   1.611   9.482 -1.1905 -1.1139  0.7049
  541MOL0     H74601   1.594   1.437   9.347 -1.2389 -1.4547  0.1187
  541MOL0     H74602   1.615   1.570   9.468  3.0667 -0.7980 -0.6581
  541MOL0     H74603   1.429   1.382   9.590  0.3741  2.3232  2.0301
  541MOL0     H74604   1.570   1.457   9.637 -2.7835 -0.4474  0.3509
  541MOL0     H74605   1.573   1.186   9.606 -0.9173  0.3183  0.0241
  541MOL0     H74606   1.618   1.244   9.442 -0.0085 -1.4976  0.3149
  541MOL0     H74607   1.734   1.377   9.771  1.5458  3.4828 -0.4293
  541MOL0     H74608   2.036   1.457   9.795 -0.6642  0.2623 -0.6308
  541MOL0     H74609   2.106   1.290   9.817 -1.0726 -2.2099  0.7489
  541MOL0     H74610   1.863   1.389   9.966  0.6077  0.7281  0.3269
  541MOL0     H74611   1.927   1.223   9.965  3.1631 -1.2347  1.0371
  541MOL0     H74612   2.085   1.294  10.116 -1.5242  1.0074  0.7940
  541MOL0     H74613   2.139   1.432  10.016 -0.1709  0.8465  0.7553
  541MOL0     H74614   1.906   1.418  10.212 -2.1735  1.1735 -0.4371
  541MOL0     H74615   2.068   1.466  10.245  0.4208 -2.0649  0.5116
  541MOL0     H74616   1.851   1.658  10.332  1.5822 -0.3124 -0.3615
  541MOL0     H74617   1.757   1.965  10.479  1.6909  1.6597  1.3225
  541MOL0     H74618   1.881   1.876  10.571  0.3191 -1.1693 -0.2531
  541MOL0     H74619   1.751   1.788  10.484 -1.9132  1.8978 -0.2546
  541MOL0     H74620   1.745   2.192  10.647 -0.9988 -0.3335 -3.2043
  541MOL0     H74621   1.705   2.373  10.752 -1.1352  3.5254  0.6799
  541MOL0     H74622   1.660   2.606  10.734 -0.6636 -5.6121  1.6079
  541MOL0     H74623   1.726   2.579  10.901 -0.8182 -1.9005 -0.9501
  541MOL0     H74624   1.839   2.827  10.826  1.8096 -4.3632  2.2454
  541MOL0     H74625   1.677   2.831  10.759 -1.9882  0.2360  0.2553
  541MOL0     H74626   1.745   2.923  11.015  1.8467 -0.9128 -0.6248
  541MOL0     H74627   1.714   2.752  11.058 -0.8180 -0.5433  0.2402
  541MOL0     H74628   1.487   2.780  10.962  0.1118  2.6175 -3.0932
  541MOL0     H74629   1.517   2.950  10.945 -3.6624  0.2134  1.1997
  541MOL0     H74630   1.476   2.795  11.202 -1.1888  0.9060 -0.2283
  541MOL0     H74631   1.602   2.914  11.206  1.6391 -0.2208 -1.1196
  541MOL0     H74632   1.326   3.010  11.084 -0.4795 -1.0821  0.3836
  541MOL0     H74633   1.441   3.106  11.164 -1.9039  0.4024  0.6925
  541MOL0     H74634   1.238   3.066  11.320 -1.3834 -2.1553  1.0342
  541MOL0     H74635   1.388   2.990  11.375  1.0504 -1.4613 -0.3776
  541MOL0     H74636   1.168   2.852  11.396  0.1851 -0.3220  0.6161
  541MOL0     H74637   1.277   2.764  11.286 -2.0702 -2.0997 -0.1940
  541MOL0     H74638   2.066   2.564  10.599  1.5929 -1.0382 -1.2889
  541MOL0     H74639   2.109   2.364  10.463 -0.7240 -2.9969 -1.0997
  541MOL0     H74640   2.127   2.016  10.163 -2.0099  0.2850 -2.9596
  541MOL0     H74641   2.135   1.799  10.042  0.3465  0.3674 -0.0711
  541MOL0     H74642   1.643   1.633   8.855  0.0050  0.1776 -0.1600
  541MOL0     H74643   1.773   1.619   8.648 -1.1339 -0.0872 -0.5166
  541MOL0     H74644   2.164   1.738   8.366  1.5596  2.2503 -1.0051
  541MOL0     H74645   2.272   1.646   8.148  0.2476 -1.1815 -0.7981
  541MOL0     H74646   2.328   1.644   7.895  0.3949  0.1529 -1.8145
  541MOL0     H74647   2.330   1.479   7.973  2.4409  1.6021  0.0671
  541MOL0     H74648   2.408   1.460   7.748  0.6407 -2.3855 -0.7979
  541MOL0     H74649   2.260   1.536   7.683 -1.0630 -0.9185  0.3283
  541MOL0     H74650   2.272   1.282   7.686  2.8745  1.0085  0.4294
  541MOL0     H74651   2.218   1.298   7.861  1.0701 -1.3531 -0.3307
  541MOL0     H74652   2.086   1.415   7.601 -3.2227  3.0606  1.6188
  541MOL0     H74653   2.011   1.417   7.761 -0.8434 -2.5632  1.2104
  541MOL0     H74654   1.931   1.031   7.722  2.5722 -0.2484  0.9607
  541MOL0     H74655   1.880   1.571   7.988 -2.8275  1.2390  1.4849
  541MOL0     H74656   1.709   1.664   8.083  3.0316 -4.9910 -0.8615
  541MOL0     H74657   1.692   1.605   8.245  0.3755  0.2714 -1.7895
  541MOL0     H74658   1.711   1.779   8.218 -2.1428  0.4550 -1.0748
  542MOL0     O74659   2.025   1.998   5.611 -0.1802 -0.2388  0.0287
  542MOL0     C74660   2.148   2.027   5.616  0.4419  0.4343  0.0412
  542MOL0     O74661   2.203   2.146   5.622 -0.7593 -0.7871 -0.3547
  542MOL0     C74662   2.125   2.255   5.622  0.4281  0.9438 -0.2110
  542MOL0     C74663   2.048   2.278   5.739  0.2782  0.5978  0.2445
  542MOL0     C74664   1.965   2.388   5.764 -0.4687 -0.7885  0.7924
  542MOL0     C74665   1.976   2.486   5.664 -1.0151 -0.0557  0.7745
  542MOL0     O74666   1.926   2.607   5.675 -0.2090 -0.0058 -0.0612
  542MOL0     C74667   2.020   2.696   5.737  0.7006  0.6190  0.2528
  542MOL0     C74668   1.987   2.842   5.701  0.2310  0.7929  0.4237
  542MOL0     C74669   1.989   2.847   5.550 -0.5670 -0.1452 -0.8372
  542MOL0     C74670   1.967   2.994   5.507  0.6345 -0.2013  0.0391
  542MOL0     C74671   1.913   3.011   5.364  0.6131  0.4365  1.2989
  542MOL0     C74672   1.945   3.148   5.303 -0.3708 -0.5989 -0.7980
  542MOL0     C74673   1.880   3.177   5.169  0.9366  0.2282  0.3027
  542MOL0     C74674   1.933   3.309   5.112  0.2624  0.0436  0.5098
  542MOL0     N74675   1.835   3.341   5.002 -0.7809 -0.4252 -0.4270
  542MOL0     C74676   1.694   3.359   5.018 -0.8637  0.5392 -0.8534
  542MOL0     C74677   1.663   3.410   4.898  0.0923 -0.6034  0.3246
  542MOL0     C74678   1.524   3.443   4.856  0.5289 -0.6910 -1.2317
  542MOL0     C74679   1.490   3.564   4.933 -0.5427 -0.2482  0.3732
  542MOL0     C74680   1.345   3.608   4.914 -0.1139  0.4673 -0.5915
  542MOL0     C74681   1.249   3.498   4.884  1.1657 -0.2693  0.7751
  542MOL0     O74682   1.257   3.456   4.748 -0.1149  0.4727 -0.0796
  542MOL0     C74683   1.236   3.535   4.643 -0.2071  0.7957  0.3111
  542MOL0     C74684   1.120   3.621   4.634 -0.2686 -0.4719  0.2404
  542MOL0     C74685   1.107   3.711   4.534  0.5967 -0.8875 -1.1808
  542MOL0     C74686   0.985   3.810   4.537  0.1984 -0.0248 -0.9923
  542MOL0     C74687   1.213   3.723   4.433  1.0091  1.5685 -0.0805
  542MOL0     C74688   1.214   3.831   4.332 -0.1879  0.2294 -0.6259
  542MOL0     O74689   1.335   3.856   4.277 -0.5357 -0.4538  0.2611
  542MOL0     C74690   1.371   3.977   4.215 -0.4759 -0.2141 -0.2410
  542MOL0     C74691   1.465   3.979   4.115  0.4338 -0.1149 -0.1518
  542MOL0     C74692   1.526   4.094   4.068  0.3096  0.0716  0.2443
  542MOL0     C74693   1.488   4.212   4.131 -0.1866 -0.0024  0.5859
  542MOL0     O74694   1.552   4.317   4.072  0.2918 -0.1609  0.7905
  542MOL0     C74695   1.525   4.450   4.123  0.1362 -0.5283 -0.1791
  542MOL0     C74696   1.631   4.535   4.053  0.0013  0.0640  0.3100
  542MOL0     C74697   1.770   4.471   4.063  0.0844 -0.7109 -0.2431
  542MOL0     C74698   1.880   4.572   4.020 -1.0184  0.8240 -1.0156
  542MOL0     C74699   2.013   4.512   4.058  0.0573 -1.0421 -0.7356
  542MOL0     C74700   2.124   4.609   4.017  1.1363  0.4914  0.0978
  542MOL0     C74701   2.256   4.536   4.054  0.2028 -0.8362  0.0213
  542MOL0     C74702   2.379   4.622   4.033  0.3479 -1.0389  0.1124
  542MOL0    Cl74703   2.515   4.551   4.126 -0.1631 -0.2708 -0.8443
  542MOL0     C74704   1.400   4.211   4.236 -0.1352 -0.1785 -0.0034
  542MOL0     C74705   1.344   4.098   4.291  0.5031  0.7295  0.9042
  542MOL0     O74706   1.106   3.891   4.301  0.0404  0.3900 -0.4485
  542MOL0     C74707   1.306   3.620   4.423  0.0578 -0.2986  0.2732
  542MOL0     C74708   1.318   3.530   4.533  0.0037 -0.0649  0.0736
  542MOL0     N74709   1.768   3.412   4.815 -0.0497 -0.4804 -0.5037
  542MOL0     N74710   1.877   3.382   4.884 -0.1006 -0.3217 -0.2105
  542MOL0     C74711   2.055   2.462   5.544  0.0274 -0.0565  0.1313
  542MOL0     C74712   2.128   2.347   5.523  0.7049  0.1770  0.7650
  542MOL0     C74713   2.252   1.924   5.627  0.2450 -0.2092 -0.8482
  542MOL0     C74714   2.379   1.964   5.566 -0.1709  0.5277  0.7105
  542MOL0     C74715   2.476   1.867   5.545 -0.4093  0.2825  0.3300
  542MOL0     C74716   2.478   1.741   5.606  0.7620  0.5457  0.4145
  542MOL0     O74717   2.597   1.675   5.626  0.0202  0.0618  0.4904
  542MOL0     C74718   2.597   1.550   5.566 -0.2469  0.1484 -0.0744
  542MOL0     C74719   2.746   1.524   5.520 -0.4274 -0.1733 -0.0471
  542MOL0     C74720   2.811   1.643   5.439 -0.1974  0.3861  0.3433
  542MOL0     C74721   2.725   1.677   5.315  0.0442  0.4056 -0.2695
  542MOL0     C74722   2.681   1.559   5.230  0.6582 -0.0011  0.6353
  542MOL0     C74723   2.634   1.476   5.157  0.5185 -0.1284  0.1503
  542MOL0     C74724   2.359   1.709   5.672 -0.4919  0.0292 -0.1463
  542MOL0     C74725   2.252   1.799   5.695 -0.0187  0.1236 -0.0086
  542MOL0     C74726   2.135   1.749   5.776 -0.4373  0.1741 -0.2350
  542MOL0     H74727   2.065   2.216   5.826 -1.1168 -0.1494  0.0018
  542MOL0     H74728   1.909   2.408   5.855 -1.0777 -0.3925  0.3483
  542MOL0     H74729   2.119   2.662   5.705 -0.2494 -3.2114  0.9187
  542MOL0     H74730   2.025   2.681   5.845 -1.9967  1.3612  0.5343
  542MOL0     H74731   1.884   2.856   5.734 -1.1368 -4.7588 -0.5039
  542MOL0     H74732   2.067   2.904   5.743  1.3667 -0.2838 -0.0800
  542MOL0     H74733   2.089   2.820   5.516  3.4378  3.1247  6.0825
  542MOL0     H74734   1.910   2.787   5.504 -1.5633 -1.3128  2.1650
  542MOL0     H74735   1.902   3.054   5.572 -1.4623  0.7116 -2.7116
  542MOL0     H74736   2.065   3.042   5.499 -0.4737  1.8540 -2.6068
  542MOL0     H74737   1.806   3.008   5.386  1.0423 -0.5937  3.6326
  542MOL0     H74738   1.949   2.928   5.302 -2.7187  0.1766 -0.5412
  542MOL0     H74739   1.912   3.227   5.370 -0.7719 -0.2987 -1.3429
  542MOL0     H74740   2.050   3.147   5.272 -0.5911  0.9393 -1.7310
  542MOL0     H74741   1.772   3.187   5.187  1.2223  3.6487  0.6683
  542MOL0     H74742   1.905   3.096   5.101  4.1185  0.4930  0.9999
  542MOL0     H74743   1.934   3.393   5.182 -2.2692  3.6285 -3.2220
  542MOL0     H74744   2.034   3.304   5.071  0.3130  1.4508  0.3969
  542MOL0     H74745   1.629   3.349   5.103  1.4128  1.1537  1.0700
  542MOL0     H74746   1.460   3.355   4.868 -1.9550  1.1170 -0.5213
  542MOL0     H74747   1.510   3.469   4.750 -0.5908  1.8225 -0.5545
  542MOL0     H74748   1.493   3.543   5.040 -1.9782  2.7278  1.0951
  542MOL0     H74749   1.566   3.637   4.905 -1.7534  0.3824 -1.4133
  542MOL0     H74750   1.316   3.656   5.009  0.0271 -1.3351  0.4196
  542MOL0     H74751   1.337   3.692   4.845  0.1277  0.1591 -0.9946
  542MOL0     H74752   1.269   3.415   4.953  0.5976 -0.1196  1.1208
  542MOL0     H74753   1.153   3.536   4.918  2.1756  0.6156  2.8324
  542MOL0     H74754   1.050   3.608   4.716  0.8329  0.8342  1.4459
  542MOL0     H74755   0.930   3.815   4.443 -2.6713 -0.8489  0.5475
  542MOL0     H74756   1.020   3.910   4.564 -0.7408  1.7436 -5.4481
  542MOL0     H74757   0.920   3.776   4.618 -0.9138  1.7945 -1.0809
  542MOL0     H74758   1.485   3.877   4.082  1.3712 -0.2547  0.7726
  542MOL0     H74759   1.595   4.087   3.985  1.2343  0.9900  0.9065
  542MOL0     H74760   1.429   4.490   4.091  1.3013 -0.3110 -3.8868
  542MOL0     H74761   1.545   4.458   4.230  2.1712  1.4894 -0.6320
  542MOL0     H74762   1.604   4.539   3.947  1.1157  0.6871  0.0261
  542MOL0     H74763   1.635   4.633   4.101  0.7660 -1.6556  4.1265
  542MOL0     H74764   1.783   4.384   3.998 -2.1604 -0.0571 -1.6899
  542MOL0     H74765   1.786   4.459   4.170 -0.0751  1.6652  0.1027
  542MOL0     H74766   1.870   4.662   4.082  0.6987  1.8369 -2.1298
  542MOL0     H74767   1.885   4.603   3.916 -0.8600 -0.5469 -1.4332
  542MOL0     H74768   2.024   4.487   4.164  0.5299  2.5940  0.2097
  542MOL0     H74769   2.033   4.418   4.005  0.0641 -0.1242 -2.4527
  542MOL0     H74770   2.105   4.703   4.070  1.1608  1.9228 -2.2898
  542MOL0     H74771   2.124   4.632   3.910  0.5225 -2.3098 -0.5848
  542MOL0     H74772   2.282   4.436   4.019  3.6524 -0.1806  0.3901
  542MOL0     H74773   2.244   4.531   4.163  0.8870 -1.7353  0.0689
  542MOL0     H74774   2.356   4.725   4.062 -0.7570 -1.3311  0.3260
  542MOL0     H74775   2.416   4.642   3.932 -0.0302 -0.0522  0.1651
  542MOL0     H74776   1.379   4.305   4.286 -0.4947 -0.2019 -0.1129
  542MOL0     H74777   1.278   4.094   4.377  0.1957  0.9686  0.6831
  542MOL0     H74778   1.363   3.610   4.331 -2.4131  0.1196 -1.3916
  542MOL0     H74779   1.400   3.460   4.546  0.7530  0.9849  1.2030
  542MOL0     H74780   2.071   2.537   5.466  2.3002 -3.4084 -2.9293
  542MOL0     H74781   2.194   2.324   5.440 -0.3142  1.0275 -0.3133
  542MOL0     H74782   2.383   2.057   5.509 -0.9009 -1.3306 -2.6438
  542MOL0     H74783   2.571   1.898   5.501 -2.1413 -0.7893 -4.9478
  542MOL0     H74784   2.560   1.478   5.639 -3.3190 -2.9871 -4.2567
  542MOL0     H74785   2.533   1.558   5.478 -2.2688  1.8919  1.4411
  542MOL0     H74786   2.744   1.434   5.457  0.6961 -0.1294 -0.1648
  542MOL0     H74787   2.802   1.507   5.613  0.1638  2.4759  0.1619
  542MOL0     H74788   2.808   1.735   5.499 -2.9113  1.0968 -0.7547
  542MOL0     H74789   2.914   1.615   5.414 -0.6855 -0.5175 -0.7118
  542MOL0     H74790   2.775   1.747   5.247 -1.6643  1.5411 -0.4320
  542MOL0     H74791   2.638   1.736   5.346  0.9770  1.0239  1.3281
  542MOL0     H74792   2.596   1.396   5.096 -0.5090  0.1914  0.3543
  542MOL0     H74793   2.353   1.608   5.713 -2.5529  1.8364  4.8077
  542MOL0     H74794   2.166   1.665   5.839 -1.9333 -1.8836 -2.0725
  542MOL0     H74795   2.090   1.830   5.835 -4.7207 -0.4345 -2.2586
  542MOL0     H74796   2.056   1.705   5.715  2.0143 -3.5801 -1.0450
  543MOL0     O74797  10.741   3.056  10.414 -0.0038 -0.6150 -1.2025
  543MOL0     C74798  10.777   3.081  10.530 -1.1165  0.1745  0.2054
  543MOL0     O74799  10.731   3.191  10.596  0.3881 -0.6335 -0.3012
  543MOL0     C74800  10.677   3.297  10.533 -1.1367 -0.2100  0.2723
  543MOL0     C74801  10.730   3.350  10.409  0.2362  0.0987  0.7563
  543MOL0     C74802  10.671   3.461  10.346  0.5636 -1.0911 -0.0841
  543MOL0     C74803  10.558   3.518  10.406  0.4000  0.6887  0.3530
  543MOL0     O74804  10.487   3.607  10.337 -0.1466  0.8582 -0.6157
  543MOL0     C74805  10.566   3.718  10.286 -0.1446 -0.4455 -0.4912
  543MOL0     C74806  10.471   3.843  10.293  0.1219 -0.0287 -1.3985
  543MOL0     C74807  10.540   3.972  10.266 -0.6663 -0.3311 -0.6020
  543MOL0     C74808  10.636   4.022  10.381 -0.4703 -0.2353 -0.2559
  543MOL0     C74809  10.735   4.134  10.353 -0.3176  0.6948 -0.6856
  543MOL0     C74810  10.687   4.233  10.249 -0.5336 -0.5116 -0.4627
  543MOL0     C74811  10.558   4.302  10.302 -0.2603 -0.8881  0.0421
  543MOL0     C74812  10.576   4.452  10.274  0.5281  0.5270 -0.5084
  543MOL0     N74813  10.465   4.541  10.311  0.6352  0.1756 -0.8442
  543MOL0     C74814  10.339   4.496  10.354 -0.0275  0.0951  0.6691
  543MOL0     C74815  10.285   4.606  10.413  0.6205  0.7951 -0.2728
  543MOL0     C74816  10.145   4.611  10.463  0.4375 -1.0867  0.9891
  543MOL0     C74817  10.146   4.594  10.614  0.0234  0.3349 -0.4324
  543MOL0     C74818  10.041   4.679  10.687 -0.1665  0.0278  0.4116
  543MOL0     C74819   9.901   4.620  10.655 -0.2646 -0.7057  0.3013
  543MOL0     O74820   9.801   4.680  10.735  0.2700  0.1628 -0.6635
  543MOL0     C74821   9.677   4.639  10.714 -0.3011 -0.1248 -0.2024
  543MOL0     C74822   9.595   4.642  10.825  0.3772 -0.4071  0.6897
  543MOL0     C74823   9.461   4.605  10.812 -0.2731  0.4090  0.2189
  543MOL0     C74824   9.383   4.610  10.941  0.7136 -0.5091  0.1718
  543MOL0     C74825   9.408   4.584  10.685  0.4182  0.1161 -0.6698
  543MOL0     C74826   9.261   4.568  10.662 -0.2118  0.2292 -0.7143
  543MOL0     O74827   9.237   4.501  10.549  0.1089 -0.1868 -0.1196
  543MOL0     C74828   9.109   4.512  10.497 -1.5199  0.4449 -0.8334
  543MOL0     C74829   9.063   4.394  10.431  0.5560 -0.1507  0.0324
  543MOL0     C74830   8.940   4.393  10.363  0.0071  0.7579 -0.1915
  543MOL0     C74831   8.854   4.507  10.358 -0.9826 -0.6060  0.2689
  543MOL0     O74832   8.750   4.484  10.266 -0.5449 -0.1165  1.2172
  543MOL0     C74833   8.753   4.563  10.142  0.0810 -0.4515 -0.6737
  543MOL0     C74834   8.867   4.531  10.040 -0.3277 -0.1375  0.5625
  543MOL0     C74835   8.877   4.633   9.922 -0.2744 -0.3496 -0.7866
  543MOL0     C74836   8.947   4.756   9.974 -0.4828  0.1748 -0.4111
  543MOL0     C74837   8.954   4.858   9.862 -0.7615  0.1535  0.5143
  543MOL0     C74838   9.019   4.986   9.910 -1.2005  0.7090 -0.9981
  543MOL0     C74839   9.021   5.092   9.804 -0.4448 -0.4792  0.1390
  543MOL0     C74840   9.086   5.221   9.861 -0.7238 -0.5155 -1.2052
  543MOL0    Cl74841   9.079   5.352   9.739 -0.5892  0.3410 -0.4035
  543MOL0     C74842   8.908   4.625  10.419  0.0093 -0.5439  0.1987
  543MOL0     C74843   9.033   4.630  10.486  0.7909  0.1349  0.8489
  543MOL0     O74844   9.176   4.625  10.733  0.5418 -0.5585  1.1615
  543MOL0     C74845   9.496   4.580  10.581  0.4186 -0.6935 -0.2954
  543MOL0     C74846   9.627   4.614  10.593 -0.6727  0.3791 -0.4995
  543MOL0     N74847  10.366   4.715  10.391  0.6535  0.7170 -0.4481
  543MOL0     N74848  10.477   4.680  10.332 -0.1449  0.2097 -0.3473
  543MOL0     C74849  10.506   3.464  10.531 -0.0854 -0.2650 -0.3658
  543MOL0     C74850  10.569   3.357  10.588 -0.3743  0.5430 -1.2821
  543MOL0     C74851  10.882   2.989  10.588  0.2591 -0.1415 -1.0267
  543MOL0     C74852  10.958   3.052  10.695 -0.0145 -0.6977 -0.1982
  543MOL0     C74853  11.037   2.973  10.781  1.0176 -0.0584  0.3535
  543MOL0     C74854  11.065   2.840  10.753  0.3157  0.2216  0.4907
  543MOL0     O74855  11.147   2.759  10.822  0.3764  0.3638  0.4261
  543MOL0     C74856  11.119   2.762  10.959  0.6594  0.0864 -0.6216
  543MOL0     C74857  11.150   2.624  11.026 -0.5023 -0.9353 -0.0695
  543MOL0     C74858  11.051   2.604  11.136  0.2377  0.1588 -0.2039
  543MOL0     C74859  11.091   2.679  11.253 -1.1318 -0.2088 -0.0020
  543MOL0     C74860  10.984   2.682  11.353  0.5270  0.3679 -0.5823
  543MOL0     C74861  10.910   2.691  11.453 -0.2277 -0.0547  0.1386
  543MOL0     C74862  11.006   2.788  10.644  0.2078 -0.8033  0.7818
  543MOL0     C74863  10.915   2.852  10.567 -0.4965  0.4074  0.6635
  543MOL0     C74864  10.867   2.767  10.442  0.5843  0.3874 -0.4621
  543MOL0     H74865  10.808   3.297  10.356  1.1628 -1.5849  3.5976
  543MOL0     H74866  10.699   3.492  10.246 -0.1310  1.2197  0.3748
  543MOL0     H74867  10.605   3.707  10.185  0.4970  2.5567 -0.6659
  543MOL0     H74868  10.650   3.733  10.354 -0.6585 -0.5582  0.1843
  543MOL0     H74869  10.388   3.820  10.225  0.1111 -0.9629 -1.0759
  543MOL0     H74870  10.439   3.848  10.398  0.2076 -0.2708 -1.3590
  543MOL0     H74871  10.596   3.966  10.172 -0.1111  1.6615 -0.4276
  543MOL0     H74872  10.466   4.051  10.249  2.6475  3.5783  1.3191
  543MOL0     H74873  10.585   4.062  10.469  3.1785  0.7837  1.6105
  543MOL0     H74874  10.699   3.940  10.416 -1.9030 -1.6509 -0.9050
  543MOL0     H74875  10.829   4.084  10.330 -0.0828  1.2524 -0.9487
  543MOL0     H74876  10.751   4.199  10.439  0.4078  0.7750 -0.8717
  543MOL0     H74877  10.760   4.311  10.227  0.4084 -0.6974  1.7143
  543MOL0     H74878  10.654   4.178  10.161 -4.1206 -5.2761  3.2962
  543MOL0     H74879  10.552   4.293  10.411  0.4922 -1.3054  0.0594
  543MOL0     H74880  10.464   4.279  10.251  0.2321  1.1907 -2.0063
  543MOL0     H74881  10.672   4.490  10.312 -0.1434  1.2332  0.5276
  543MOL0     H74882  10.588   4.460  10.166  1.3745 -2.0632 -0.6832
  543MOL0     H74883  10.279   4.407  10.342 -1.7110  1.2419  0.1322
  543MOL0     H74884  10.089   4.533  10.412  0.6645 -0.4950 -0.2029
  543MOL0     H74885  10.096   4.707  10.443  1.3855  0.1628  4.0674
  543MOL0     H74886  10.130   4.490  10.644  2.5096 -0.4305 -1.5071
  543MOL0     H74887  10.245   4.615  10.656  0.1888 -2.8147  1.0453
  543MOL0     H74888  10.069   4.670  10.792  3.2741 -1.1126 -0.4936
  543MOL0     H74889  10.034   4.782  10.651  1.8087  0.5542  1.3933
  543MOL0     H74890   9.883   4.628  10.547 -0.6189 -1.3295  0.3070
  543MOL0     H74891   9.888   4.515  10.681  0.6895 -0.6427  1.1073
  543MOL0     H74892   9.658   4.668  10.909  2.3237  1.3652 -1.1757
  543MOL0     H74893   9.311   4.528  10.930  0.5220 -0.1787 -1.3439
  543MOL0     H74894   9.332   4.706  10.953  3.0888  1.3879 -3.2433
  543MOL0     H74895   9.443   4.590  11.030  1.9401  1.3541 -0.1756
  543MOL0     H74896   9.119   4.300  10.433  2.0157  0.6764 -0.4732
  543MOL0     H74897   8.916   4.303  10.308  3.2137 -0.1661 -0.2239
  543MOL0     H74898   8.654   4.566  10.096 -0.2888  1.6446  0.1606
  543MOL0     H74899   8.768   4.665  10.178 -0.7105 -0.9093  1.0690
  543MOL0     H74900   8.963   4.522  10.092  0.2487  0.5313 -0.3622
  543MOL0     H74901   8.853   4.433   9.995 -2.5214 -0.0719  1.0211
  543MOL0     H74902   8.779   4.656   9.881 -1.2056 -1.7179  0.5612
  543MOL0     H74903   8.946   4.585   9.851 -0.8835 -0.0830 -1.5731
  543MOL0     H74904   9.041   4.723  10.020 -0.0992 -1.2316 -2.0865
  543MOL0     H74905   8.907   4.807  10.062  3.6847  1.3529  1.0416
  543MOL0     H74906   9.023   4.826   9.784  2.5043  1.9736  2.4007
  543MOL0     H74907   8.861   4.884   9.812 -0.2491  1.1133  0.0228
  543MOL0     H74908   9.122   4.956   9.933 -2.4296 -2.3272  1.2379
  543MOL0     H74909   8.972   5.022  10.002  1.3474 -0.8968  1.0864
  543MOL0     H74910   8.915   5.115   9.789  0.0401  2.6386  0.8481
  543MOL0     H74911   9.066   5.065   9.708 -3.1859  2.3344 -2.1474
  543MOL0     H74912   9.186   5.197   9.900 -0.3563 -0.1589 -1.9104
  543MOL0     H74913   9.027   5.258   9.945 -0.5068 -1.0137 -0.8276
  543MOL0     H74914   8.857   4.718  10.400 -1.0632 -0.9984  0.7670
  543MOL0     H74915   9.074   4.722  10.526  0.8851  0.5422 -0.1449
  543MOL0     H74916   9.458   4.557  10.482  1.0205 -1.0302 -0.4514
  543MOL0     H74917   9.683   4.609  10.500  2.1365  1.4793  1.0270
  543MOL0     H74918  10.423   3.515  10.581  2.4327  2.7575  1.0880
  543MOL0     H74919  10.543   3.330  10.690  2.3968 -0.9999 -0.8798
  543MOL0     H74920  10.948   3.157  10.718 -2.4277 -0.8468 -0.2986
  543MOL0     H74921  11.075   3.025  10.868  2.2121  0.8005 -0.6485
  543MOL0     H74922  11.184   2.840  10.999  0.2039  0.4081 -0.5037
  543MOL0     H74923  11.023   2.802  10.993  0.9458 -0.4640  0.9104
  543MOL0     H74924  11.250   2.616  11.069 -0.8929  0.1612  1.0978
  543MOL0     H74925  11.137   2.538  10.959  1.2386 -0.6609 -0.8336
  543MOL0     H74926  10.947   2.623  11.108  0.2141 -0.8846 -0.8904
  543MOL0     H74927  11.045   2.495  11.150 -2.1004  0.0280 -1.6073
  543MOL0     H74928  11.113   2.784  11.233 -2.8081  0.4251  1.1649
  543MOL0     H74929  11.176   2.626  11.296 -2.0036 -2.2043 -0.6216
  543MOL0     H74930  10.867   2.699  11.550  0.5912 -1.3560  0.6297
  543MOL0     H74931  11.023   2.683  10.621 -0.8494 -1.1403  1.4624
  543MOL0     H74932  10.812   2.675  10.467  0.7590  0.0173 -1.4075
  543MOL0     H74933  10.790   2.819  10.384 -1.8055  2.0572  3.7604
  543MOL0     H74934  10.946   2.729  10.378 -1.3122  0.0593 -2.7566
  544MOL0     O74935   3.673   6.356   2.561  0.4540  0.3573  0.1981
  544MOL0     C74936   3.574   6.406   2.611  0.4883  0.5478  0.3679
  544MOL0     O74937   3.455   6.432   2.547 -0.0868 -0.0399 -1.4066
  544MOL0     C74938   3.451   6.421   2.406  0.5627  0.0565  0.0300
  544MOL0     C74939   3.463   6.534   2.321  0.2585  0.5005 -0.1539
  544MOL0     C74940   3.469   6.511   2.184 -0.3572 -0.6144 -0.1171
  544MOL0     C74941   3.453   6.377   2.141  0.0237 -0.1508 -0.5159
  544MOL0     O74942   3.472   6.346   2.011 -0.0452 -0.0606 -0.2230
  544MOL0     C74943   3.604   6.401   1.972 -0.7565  0.1045 -0.5958
  544MOL0     C74944   3.646   6.354   1.832 -0.4433  0.4946 -0.9197
  544MOL0     C74945   3.620   6.199   1.810 -0.9034 -1.4441  0.0823
  544MOL0     C74946   3.697   6.154   1.690  0.7683 -0.4387 -0.3152
  544MOL0     C74947   3.679   5.999   1.661  0.4169  0.3846  0.0996
  544MOL0     C74948   3.537   5.968   1.603  0.3003 -0.3730  0.7441
  544MOL0     C74949   3.527   5.823   1.565 -0.6195 -0.2758  0.2340
  544MOL0     C74950   3.391   5.788   1.524  0.7538 -0.2569  0.0636
  544MOL0     N74951   3.382   5.644   1.474 -0.2117 -0.4234  0.2279
  544MOL0     C74952   3.451   5.590   1.369 -0.0826  0.0494  0.2240
  544MOL0     C74953   3.424   5.452   1.383  0.4569  0.4060  0.0137
  544MOL0     C74954   3.492   5.341   1.309 -1.0957  0.7032 -0.1976
  544MOL0     C74955   3.563   5.388   1.182 -0.4476 -0.2839 -0.6059
  544MOL0     C74956   3.668   5.295   1.131  0.6565  1.0077  0.9668
  544MOL0     C74957   3.610   5.149   1.072  0.4554  0.3958 -0.7377
  544MOL0     O74958   3.702   5.052   1.033 -0.4339 -0.0316  0.4295
  544MOL0     C74959   3.759   5.048   0.906 -0.5087 -0.2888  0.0227
  544MOL0     C74960   3.729   5.135   0.795  0.8415 -0.0826 -0.4254
  544MOL0     C74961   3.794   5.133   0.678 -0.2445  0.4593  0.2074
  544MOL0     C74962   3.738   5.216   0.566  0.0813  0.4204 -0.7445
  544MOL0     C74963   3.907   5.047   0.668  0.3419 -0.1654  0.3320
  544MOL0     C74964   3.978   5.031   0.544  0.8246  0.5213 -0.4121
  544MOL0     O74965   4.096   5.103   0.537  0.1805  0.4623  0.2140
  544MOL0     C74966   4.188   5.102   0.432 -0.7661  0.4150  0.3482
  544MOL0     C74967   4.309   5.157   0.456 -0.2862 -0.1207  0.8970
  544MOL0     C74968   4.412   5.159   0.357 -0.4975 -0.1295  0.3184
  544MOL0     C74969   4.383   5.113   0.230  0.8322  0.2505 -0.6491
  544MOL0     O74970   4.471   5.124   0.125 -0.0154  0.5391 -0.0309
  544MOL0     C74971   4.603   5.199   0.130  0.7530 -0.8723  0.7507
  544MOL0     C74972   4.578   5.347   0.129 -0.2839  0.1915  0.7020
  544MOL0     C74973   4.649   5.426   0.238  0.3329  0.6743  0.3349
  544MOL0     C74974   4.610   5.571   0.240  0.8427 -0.7028 -0.4905
  544MOL0     C74975   4.476   5.584   0.315 -0.2074 -0.2471 -0.0306
  544MOL0     C74976   4.440   5.722   0.363 -0.1368 -0.1781 -0.1634
  544MOL0     C74977   4.379   5.804   0.247 -0.1379 -1.0139 -0.7253
  544MOL0     C74978   4.351   5.951   0.276  0.5455  0.4940 -0.5051
  544MOL0    Cl74979   4.209   5.944   0.398 -0.5319 -0.6032 -0.1877
  544MOL0     C74980   4.251   5.068   0.194 -0.8817 -0.4826  0.2083
  544MOL0     C74981   4.156   5.062   0.298 -0.8670 -0.8761  0.5441
  544MOL0     O74982   3.937   4.948   0.462 -0.0078 -0.7461  0.3868
  544MOL0     C74983   3.959   4.975   0.780  0.2179  0.0907 -0.7595
  544MOL0     C74984   3.875   4.965   0.895 -0.0698  0.8283  0.3321
  544MOL0     N74985   3.346   5.420   1.497 -0.7141  0.6569  0.5499
  544MOL0     N74986   3.315   5.538   1.545  0.1067 -0.2693  0.5870
  544MOL0     C74987   3.444   6.270   2.227  0.4133 -1.0431  0.1899
  544MOL0     C74988   3.437   6.297   2.358 -0.1731  0.1401  0.5722
  544MOL0     C74989   3.586   6.454   2.752  0.5398  0.6629  0.1107
  544MOL0     C74990   3.477   6.531   2.801 -0.8433 -0.2495  0.0487
  544MOL0     C74991   3.470   6.559   2.944 -0.0825 -0.0638 -0.5051
  544MOL0     C74992   3.560   6.493   3.034  0.9240  0.1121 -0.0947
  544MOL0     O74993   3.553   6.495   3.170  0.8280 -0.1448  0.8214
  544MOL0     C74994   3.561   6.624   3.245 -0.2859 -0.1157  0.1017
  544MOL0     C74995   3.717   6.651   3.266  1.0528  0.0171  0.0862
  544MOL0     C74996   3.763   6.595   3.406 -0.6074  0.3036  0.5650
  544MOL0     C74997   3.909   6.634   3.434 -0.1551 -0.6377 -0.0664
  544MOL0     C74998   3.935   6.601   3.573  0.5675  0.3074  0.2231
  544MOL0     C74999   3.968   6.542   3.677  0.0062 -0.7095 -0.4630
  544MOL0     C75000   3.655   6.408   2.982 -0.3651  0.6646 -0.4015
  544MOL0     C75001   3.672   6.391   2.847 -0.8562 -0.7005  0.6276
  544MOL0     C75002   3.800   6.298   2.813 -0.1790 -0.5995  0.9343
  544MOL0     H75003   3.480   6.625   2.378  1.1092 -0.2443  0.8131
  544MOL0     H75004   3.486   6.600   2.125  1.4377 -1.1631 -0.5100
  544MOL0     H75005   3.679   6.359   2.040 -0.7177  1.4308  0.2171
  544MOL0     H75006   3.623   6.509   1.974  1.6478 -0.0965 -4.2374
  544MOL0     H75007   3.584   6.405   1.758  1.1890  0.0623 -2.6412
  544MOL0     H75008   3.750   6.380   1.810  0.1604 -0.0466  1.0786
  544MOL0     H75009   3.658   6.149   1.900  0.9709 -4.4910 -2.2066
  544MOL0     H75010   3.512   6.188   1.796 -1.4410  1.1309  1.5661
  544MOL0     H75011   3.662   6.210   1.603 -0.1235  0.5518  0.6434
  544MOL0     H75012   3.800   6.191   1.689  0.0612  1.8269 -3.0880
  544MOL0     H75013   3.702   5.943   1.752  0.4187 -1.7281 -1.1228
  544MOL0     H75014   3.750   5.966   1.584 -1.8694  3.1304 -3.5610
  544MOL0     H75015   3.450   5.995   1.664 -0.9466 -1.8309 -0.3321
  544MOL0     H75016   3.519   6.030   1.514  0.8130 -0.9629  0.2239
  544MOL0     H75017   3.559   5.752   1.642  2.7214  1.2726  0.4577
  544MOL0     H75018   3.598   5.816   1.482 -2.6295  0.3656 -1.6281
  544MOL0     H75019   3.318   5.802   1.604 -0.0133 -2.2306 -0.2221
  544MOL0     H75020   3.350   5.857   1.449  2.7237  1.4884  0.5339
  544MOL0     H75021   3.512   5.633   1.290  1.2003 -1.8579  0.1025
  544MOL0     H75022   3.425   5.258   1.284  1.8625 -2.9926  2.6862
  544MOL0     H75023   3.564   5.290   1.374 -1.7737  0.2838  0.2422
  544MOL0     H75024   3.494   5.420   1.104 -0.5294  0.7142 -0.1415
  544MOL0     H75025   3.618   5.481   1.204 -1.1307  0.4672 -1.9570
  544MOL0     H75026   3.735   5.339   1.057 -0.7690  0.1492 -0.9462
  544MOL0     H75027   3.727   5.281   1.222 -1.0922 -1.4333  1.8335
  544MOL0     H75028   3.537   5.098   1.136  1.8109 -0.0981  0.4504
  544MOL0     H75029   3.546   5.186   0.991  0.5848  2.5643  0.0740
  544MOL0     H75030   3.641   5.197   0.811 -0.1453 -1.1764 -1.3817
  544MOL0     H75031   3.721   5.320   0.597  0.8099  0.4116 -0.2877
  544MOL0     H75032   3.641   5.170   0.545  0.9237 -1.6708 -0.3180
  544MOL0     H75033   3.797   5.216   0.474  1.9341  1.1901  0.3720
  544MOL0     H75034   4.341   5.178   0.557  0.0708  3.0371  0.2284
  544MOL0     H75035   4.502   5.202   0.398  0.2603 -1.9740  0.7029
  544MOL0     H75036   4.654   5.166   0.221  2.5388  3.0208  1.3687
  544MOL0     H75037   4.659   5.174   0.040 -2.9633  2.0964 -2.7698
  544MOL0     H75038   4.593   5.378   0.025 -1.1845 -2.7051 -0.3795
  544MOL0     H75039   4.474   5.359   0.160  0.1952 -1.4478  3.2837
  544MOL0     H75040   4.756   5.421   0.216  0.2031 -1.2951  0.0138
  544MOL0     H75041   4.626   5.384   0.337 -1.0659  2.5058  0.8485
  544MOL0     H75042   4.602   5.606   0.137 -1.4099  0.5005  0.0418
  544MOL0     H75043   4.690   5.627   0.289  0.7314 -0.6206 -0.4011
  544MOL0     H75044   4.403   5.542   0.246 -0.1448 -2.0502  0.9392
  544MOL0     H75045   4.477   5.510   0.396 -0.1596 -0.4382 -0.2069
  544MOL0     H75046   4.527   5.774   0.406 -0.6436  1.8370 -1.4715
  544MOL0     H75047   4.382   5.713   0.455  0.5331 -2.1103  0.1258
  544MOL0     H75048   4.285   5.760   0.211 -1.3760  0.5817  0.3598
  544MOL0     H75049   4.445   5.813   0.160  2.9989  0.4505  1.6137
  544MOL0     H75050   4.324   6.002   0.183 -1.0906  2.5035  0.9739
  544MOL0     H75051   4.437   5.998   0.325  1.2737  0.5905 -1.8419
  544MOL0     H75052   4.237   5.038   0.090 -0.8023  2.0351 -0.5970
  544MOL0     H75053   4.058   5.030   0.264 -0.9150 -0.1933  0.0236
  544MOL0     H75054   4.057   4.928   0.773  1.2039  1.2600  2.9472
  544MOL0     H75055   3.910   4.915   0.985  1.0820  0.1196 -0.4757
  544MOL0     H75056   3.440   6.171   2.183 -1.3998  0.8930 -4.7248
  544MOL0     H75057   3.427   6.220   2.433  1.0130  0.6169  1.2447
  544MOL0     H75058   3.398   6.578   2.744 -0.5367  0.6152  0.3298
  544MOL0     H75059   3.400   6.631   2.986  1.5195  1.9532 -1.1224
  544MOL0     H75060   3.519   6.711   3.194  0.7887  2.1917  2.9289
  544MOL0     H75061   3.500   6.616   3.335 -0.9840  1.9197 -0.1519
  544MOL0     H75062   3.741   6.757   3.257 -0.5132  0.2285 -2.6000
  544MOL0     H75063   3.780   6.604   3.190 -1.6482 -3.0139 -0.4711
  544MOL0     H75064   3.694   6.634   3.481 -0.7915  2.2277 -0.5178
  544MOL0     H75065   3.755   6.487   3.395 -0.6218  0.4568 -1.4133
  544MOL0     H75066   3.908   6.743   3.424  0.9470 -0.6569 -0.5343
  544MOL0     H75067   3.979   6.587   3.365 -0.6430 -0.0303 -0.9988
  544MOL0     H75068   4.000   6.489   3.764  2.9890 -2.9108 -2.6651
  544MOL0     H75069   3.714   6.349   3.051 -1.0122 -1.5816 -1.6470
  544MOL0     H75070   3.877   6.330   2.742  1.1145 -1.8696  1.6921
  544MOL0     H75071   3.861   6.281   2.902  2.4108  0.6966 -0.4685
  544MOL0     H75072   3.764   6.204   2.769 -1.3349  1.1690 -2.1935
  545MOL0     O75073   5.866  10.410   7.841  0.2332  0.5542  0.8574
  545MOL0     C75074   5.949  10.490   7.809  0.1718 -0.4833 -0.3101
  545MOL0     O75075   6.075  10.490   7.834 -0.7252  0.0980  0.2991
  545MOL0     C75076   6.135  10.417   7.932 -0.5340 -0.5506  1.0928
  545MOL0     C75077   6.271  10.422   7.930  0.0067  0.4508  0.1939
  545MOL0     C75078   6.347  10.337   8.015  0.1260  0.4846  0.2590
  545MOL0     C75079   6.289  10.269   8.115 -0.2667 -0.6842  0.8543
  545MOL0     O75080   6.359  10.166   8.181  0.3075  0.4500 -0.7407
  545MOL0     C75081   6.474  10.202   8.247 -0.3516  0.0003 -0.2060
  545MOL0     C75082   6.522  10.069   8.314 -0.5138  0.0449  0.4127
  545MOL0     C75083   6.427  10.034   8.427 -0.5423  0.0707 -0.1916
  545MOL0     C75084   6.484   9.957   8.548  0.0559 -0.5895 -0.9446
  545MOL0     C75085   6.375   9.938   8.642 -0.5630 -0.0371  0.0014
  545MOL0     C75086   6.436   9.885   8.763  0.7443  0.9087 -0.3639
  545MOL0     C75087   6.337   9.864   8.872  0.1294 -0.0702 -1.0443
  545MOL0     C75088   6.405   9.822   9.002 -1.0140  0.3020 -1.1747
  545MOL0     N75089   6.492   9.706   8.983 -0.5037  0.6262  0.6749
  545MOL0     C75090   6.470   9.586   8.905 -0.6212 -0.3735 -0.2889
  545MOL0     C75091   6.582   9.517   8.929  0.4089  0.0607  0.6316
  545MOL0     C75092   6.605   9.378   8.888  0.6336  0.0280 -0.0836
  545MOL0     C75093   6.489   9.295   8.954 -0.7239  0.4697 -0.0466
  545MOL0     C75094   6.533   9.158   8.922  0.6396  1.1102  0.0096
  545MOL0     C75095   6.433   9.055   8.987  0.1049 -0.0400  0.1666
  545MOL0     O75096   6.297   9.072   8.944 -0.6842 -0.1069  0.2637
  545MOL0     C75097   6.201   9.068   9.035 -0.1068  0.1084 -0.2445
  545MOL0     C75098   6.213   9.107   9.170  0.9593  0.2853 -0.1638
  545MOL0     C75099   6.101   9.102   9.258 -0.5545 -0.3485 -0.8559
  545MOL0     C75100   6.118   9.139   9.409 -0.7718 -0.8196  0.2523
  545MOL0     C75101   5.976   9.044   9.215  0.1095 -0.4182  0.0363
  545MOL0     C75102   5.860   9.016   9.304  0.3468  0.0494  0.4324
  545MOL0     O75103   5.893   8.975   9.427 -0.3759  0.1584 -0.7752
  545MOL0     C75104   5.788   8.955   9.517 -0.2961  0.7901 -0.0817
  545MOL0     C75105   5.676   9.038   9.526  1.2012  0.0979  0.2751
  545MOL0     C75106   5.578   9.011   9.619 -0.6637 -0.2890 -0.5657
  545MOL0     C75107   5.586   8.898   9.693  0.7139  0.4477 -1.2152
  545MOL0     O75108   5.485   8.853   9.772  0.3802 -0.0680 -0.2280
  545MOL0     C75109   5.484   8.909   9.904 -0.2440 -0.3648 -0.5493
  545MOL0     C75110   5.362   8.992   9.924  0.5095 -0.3703  0.4722
  545MOL0     C75111   5.227   8.916   9.926  0.3264  0.5557  0.5689
  545MOL0     C75112   5.211   8.813  10.042  0.5835  0.2970  0.6609
  545MOL0     C75113   5.067   8.757  10.029 -0.1686 -0.2062 -0.3855
  545MOL0     C75114   5.014   8.701  10.156  0.9848  0.0085  0.6518
  545MOL0     C75115   4.862   8.703  10.160  0.8058 -1.7595 -0.2251
  545MOL0     C75116   4.789   8.653  10.039 -0.5342  0.3355 -0.1534
  545MOL0    Cl75117   4.615   8.670  10.066  0.2903  0.7090  0.1712
  545MOL0     C75118   5.699   8.810   9.682 -0.5065 -0.0042 -0.2003
  545MOL0     C75119   5.798   8.839   9.591  0.2888 -0.4523 -0.5870
  545MOL0     O75120   5.750   9.058   9.263  0.6803 -0.8524  0.5142
  545MOL0     C75121   5.968   9.001   9.080 -0.0788  0.1899 -0.2780
  545MOL0     C75122   6.073   9.024   8.993  0.7148 -0.0034 -0.4073
  545MOL0     N75123   6.668   9.588   9.007  0.4709 -0.3238 -0.0337
  545MOL0     N75124   6.614   9.706   9.030  0.9638 -0.5263 -0.2973
  545MOL0     C75125   6.152  10.275   8.123  0.0812 -0.1369 -1.0548
  545MOL0     C75126   6.070  10.347   8.035 -0.3874  0.1618 -0.5474
  545MOL0     C75127   5.915  10.612   7.734  0.0599 -0.0833 -1.0951
  545MOL0     C75128   5.963  10.619   7.606  0.3956  0.2688  0.3215
  545MOL0     C75129   5.933  10.728   7.520  0.3069  0.0514 -1.1689
  545MOL0     C75130   5.864  10.840   7.581  0.4086  0.0764  0.4113
  545MOL0     O75131   5.827  10.957   7.508 -0.0001  0.1409 -0.1453
  545MOL0     C75132   5.842  10.955   7.369 -0.7113 -0.1560 -0.4759
  545MOL0     C75133   5.815  11.079   7.298  0.0872 -0.6774 -0.4745
  545MOL0     C75134   5.813  11.057   7.149 -0.2277  0.3368 -0.6302
  545MOL0     C75135   5.678  11.020   7.088  0.1415  0.0682  0.9234
  545MOL0     C75136   5.710  10.982   6.945  0.0344  0.1805  0.8276
  545MOL0     C75137   5.739  10.951   6.830 -0.5661 -0.2430  0.1971
  545MOL0     C75138   5.815  10.829   7.712  0.1464  0.4709 -0.2468
  545MOL0     C75139   5.851  10.723   7.796  0.3809  0.6343  0.2015
  545MOL0     C75140   5.830  10.737   7.940 -0.1979 -0.1567 -0.5583
  545MOL0     H75141   6.327  10.472   7.852  3.0857 -0.0446  1.9354
  545MOL0     H75142   6.456  10.330   8.010 -0.0122 -1.3418 -1.6928
  545MOL0     H75143   6.461  10.268   8.334  2.4505  0.1602  0.2068
  545MOL0     H75144   6.561  10.225   8.184 -1.3517  0.7947 -1.3230
  545MOL0     H75145   6.524   9.983   8.247 -2.5590  1.7198 -1.9570
  545MOL0     H75146   6.624  10.090   8.348  0.8494  0.6008 -3.4985
  545MOL0     H75147   6.386  10.124   8.473  0.6485  0.2536  0.5520
  545MOL0     H75148   6.351   9.976   8.375  1.5409 -0.8693 -2.4040
  545MOL0     H75149   6.530   9.867   8.506 -1.6371 -0.9572 -2.1187
  545MOL0     H75150   6.565  10.016   8.592  0.0447  1.7008 -3.6602
  545MOL0     H75151   6.302   9.869   8.599  0.5969 -1.4035  0.1617
  545MOL0     H75152   6.333  10.037   8.664  0.7759  0.3220  1.0549
  545MOL0     H75153   6.488   9.791   8.739 -1.9402 -0.3498 -1.8320
  545MOL0     H75154   6.514   9.953   8.798  2.3588 -0.2885 -1.5033
  545MOL0     H75155   6.273   9.782   8.838  0.3738 -1.0512  0.7461
  545MOL0     H75156   6.273   9.950   8.894 -2.3132 -1.5918 -1.7941
  545MOL0     H75157   6.453   9.910   9.045 -1.7356 -0.2345  0.8882
  545MOL0     H75158   6.340   9.807   9.089 -1.1479  2.0961 -0.9341
  545MOL0     H75159   6.380   9.558   8.851  0.2578  1.3584 -2.8354
  545MOL0     H75160   6.697   9.348   8.938  1.7749  2.8711 -0.2902
  545MOL0     H75161   6.605   9.374   8.779 -0.7797 -0.4394 -0.0856
  545MOL0     H75162   6.488   9.310   9.062  3.7620 -3.2051  0.8207
  545MOL0     H75163   6.401   9.321   8.895 -0.2079 -0.0157 -1.0618
  545MOL0     H75164   6.542   9.148   8.813 -0.1033  1.8349 -0.1319
  545MOL0     H75165   6.631   9.140   8.967 -0.1093 -0.1950  1.2122
  545MOL0     H75166   6.452   8.952   8.955  1.6093  0.1600  0.3535
  545MOL0     H75167   6.462   9.053   9.092  3.3567  2.0030 -0.5523
  545MOL0     H75168   6.306   9.156   9.199  0.1234  0.4964  2.3994
  545MOL0     H75169   6.117   9.046   9.465  0.6264 -0.6025  0.6719
  545MOL0     H75170   6.048   9.219   9.438  0.2258 -0.1995  1.0245
  545MOL0     H75171   6.216   9.185   9.424 -0.9474 -1.0198  2.1540
  545MOL0     H75172   5.665   9.127   9.465  2.3668 -0.5001 -0.8326
  545MOL0     H75173   5.499   9.083   9.639  1.8342  2.4280  0.0656
  545MOL0     H75174   5.477   8.828   9.977 -0.1354 -0.4147 -0.5939
  545MOL0     H75175   5.572   8.972   9.922 -0.8675  0.9223 -1.8633
  545MOL0     H75176   5.358   9.029  10.027 -0.6063 -1.7535  0.9550
  545MOL0     H75177   5.358   9.070   9.846  0.4842 -2.2593 -1.5023
  545MOL0     H75178   5.210   8.867   9.830  1.9570  1.8519 -0.4303
  545MOL0     H75179   5.159   9.001   9.944  1.6193  1.5320  0.9685
  545MOL0     H75180   5.209   8.866  10.138 -0.7427 -0.4398  1.0610
  545MOL0     H75181   5.288   8.735  10.035  2.0336  1.4563  2.4832
  545MOL0     H75182   5.001   8.840  10.002 -0.3622  0.6850  2.4337
  545MOL0     H75183   5.067   8.676   9.957 -1.2013  0.1039 -0.7461
  545MOL0     H75184   5.050   8.764  10.239 -1.3461  2.2226  0.1037
  545MOL0     H75185   5.044   8.596  10.161 -1.7540 -0.8099  1.4251
  545MOL0     H75186   4.827   8.805  10.182 -0.4225 -2.0782 -0.6725
  545MOL0     H75187   4.825   8.634  10.236  1.6297  0.2336  2.1717
  545MOL0     H75188   4.823   8.552  10.011  2.6103  1.6697 -1.7446
  545MOL0     H75189   4.828   8.712   9.955 -1.3693 -0.2047 -0.9438
  545MOL0     H75190   5.710   8.726   9.749  4.1524  1.7283  1.6802
  545MOL0     H75191   5.888   8.779   9.595  1.7217  1.4309 -2.6168
  545MOL0     H75192   5.879   8.947   9.049  0.3561 -0.0166 -1.2137
  545MOL0     H75193   6.054   9.007   8.888 -0.9862  2.9659 -0.6754
  545MOL0     H75194   6.106  10.255   8.219 -0.1467 -0.9907 -1.3374
  545MOL0     H75195   5.963  10.333   8.050  0.1783 -1.9253  2.3383
  545MOL0     H75196   6.004  10.525   7.571 -1.7819  0.4779 -3.2533
  545MOL0     H75197   5.965  10.725   7.416 -2.3937 -1.1261 -2.0541
  545MOL0     H75198   5.940  10.919   7.335  0.0068  1.1859  0.0968
  545MOL0     H75199   5.787  10.866   7.337  0.9110 -3.0408  3.8150
  545MOL0     H75200   5.892  11.148   7.334 -1.7777  1.5570 -0.5063
  545MOL0     H75201   5.715  11.113   7.327  0.4543 -0.8113  1.0370
  545MOL0     H75202   5.838  11.153   7.102 -3.1135  0.9337 -1.0941
  545MOL0     H75203   5.880  10.976   7.118 -0.8345 -0.0101 -1.0516
  545MOL0     H75204   5.616  11.110   7.095  1.7911  1.3127  0.3797
  545MOL0     H75205   5.630  10.935   7.138  1.4231 -1.9847 -1.1496
  545MOL0     H75206   5.760  10.942   6.725 -0.3439  1.6283  0.0373
  545MOL0     H75207   5.757  10.915   7.744 -1.6419 -1.4982  2.2691
  545MOL0     H75208   5.924  10.731   7.995 -0.7163 -4.3766  0.1825
  545MOL0     H75209   5.791  10.832   7.980  2.7534 -0.7642  4.5506
  545MOL0     H75210   5.762  10.656   7.965 -0.0359 -1.3499 -3.5358
  546MOL0     O75211   6.237   4.981  10.690 -0.5510  0.0180  0.5244
  546MOL0     C75212   6.206   4.873  10.645 -1.5520  0.9833  0.3545
  546MOL0     O75213   6.272   4.755  10.663 -0.2240 -0.7107 -0.3315
  546MOL0     C75214   6.369   4.743  10.756 -0.9625  0.2323  0.6666
  546MOL0     C75215   6.445   4.840  10.826 -0.4181 -0.2875  0.6168
  546MOL0     C75216   6.549   4.803  10.913  0.3402  0.0729 -0.0084
  546MOL0     C75217   6.582   4.666  10.925  0.4659 -0.5154  0.4595
  546MOL0     O75218   6.704   4.647  10.981 -0.1111  0.1842  0.3927
  546MOL0     C75219   6.820   4.689  10.906 -0.2201 -0.2494 -1.0253
  546MOL0     C75220   6.859   4.575  10.803  0.7553  0.1246  0.1651
  546MOL0     C75221   6.996   4.589  10.740  0.4721 -0.7675 -0.5657
  546MOL0     C75222   7.018   4.504  10.612  0.4127 -1.3820 -0.6558
  546MOL0     C75223   7.164   4.506  10.554  0.5449 -0.4745  0.0808
  546MOL0     C75224   7.170   4.438  10.428 -0.2345 -0.2749  0.2153
  546MOL0     C75225   7.113   4.293  10.427 -0.1408  0.3447  0.1734
  546MOL0     C75226   7.157   4.201  10.309  0.9532 -0.0509 -0.6251
  546MOL0     N75227   7.090   4.065  10.299  0.0852 -0.2343 -0.5589
  546MOL0     C75228   7.091   3.984  10.195  0.2792 -0.3560 -0.2286
  546MOL0     C75229   7.036   3.868  10.238  0.4327  0.3918  0.7234
  546MOL0     C75230   7.009   3.732  10.169 -0.9065 -0.0481  0.0018
  546MOL0     C75231   7.047   3.614  10.262 -0.0401 -0.4150 -0.2824
  546MOL0     C75232   7.043   3.483  10.185  0.1566 -0.1872 -1.3010
  546MOL0     C75233   7.162   3.464  10.096 -0.3842 -1.1359  0.0428
  546MOL0     O75234   7.286   3.496  10.158 -0.1924 -0.1123  0.0102
  546MOL0     C75235   7.396   3.499  10.076  0.2922 -0.0089 -1.3529
  546MOL0     C75236   7.515   3.536  10.127  0.5608 -0.4126 -0.2500
  546MOL0     C75237   7.633   3.560  10.048  0.4326 -0.0144  0.0674
  546MOL0     C75238   7.759   3.591  10.135  0.4281 -0.4490 -0.0478
  546MOL0     C75239   7.626   3.555   9.909  0.2442 -0.3685 -0.2578
  546MOL0     C75240   7.744   3.589   9.817  0.2684  0.2162 -0.3397
  546MOL0     O75241   7.732   3.539   9.693  0.2758  0.4138 -0.1531
  546MOL0     C75242   7.841   3.498   9.630 -0.3053 -0.3473 -0.2993
  546MOL0     C75243   7.938   3.411   9.692 -0.3695  0.2449  0.6189
  546MOL0     C75244   8.056   3.377   9.622  0.1434 -0.0146  0.3838
  546MOL0     C75245   8.075   3.427   9.493 -0.2535  0.4144 -0.4355
  546MOL0     O75246   8.194   3.387   9.438  0.5951  0.6803  0.8148
  546MOL0     C75247   8.160   3.294   9.334  0.2694  0.0836  0.3149
  546MOL0     C75248   8.291   3.244   9.267  0.8080 -0.7261  0.8523
  546MOL0     C75249   8.381   3.359   9.208  0.3471  0.2995  0.7494
  546MOL0     C75250   8.495   3.300   9.140  0.7718  0.3502  0.8929
  546MOL0     C75251   8.571   3.408   9.045 -0.3245  0.5567 -0.8849
  546MOL0     C75252   8.703   3.369   8.977 -0.2127  0.2615  0.2429
  546MOL0     C75253   8.760   3.479   8.890  0.6565 -0.6304  0.8622
  546MOL0     C75254   8.886   3.456   8.830 -0.7745  0.0143  0.8878
  546MOL0    Cl75255   8.910   3.583   8.718 -0.5992 -0.3303 -0.0731
  546MOL0     C75256   7.979   3.502   9.431  0.0941  0.1472  0.0217
  546MOL0     C75257   7.860   3.537   9.496 -0.9480  0.3287 -0.4414
  546MOL0     O75258   7.834   3.666   9.856  0.5574 -0.0604 -0.5123
  546MOL0     C75259   7.505   3.508   9.859  0.1439 -0.6426 -0.1252
  546MOL0     C75260   7.400   3.481   9.934  0.5845 -0.0786 -0.9149
  546MOL0     N75261   7.007   3.884  10.376 -0.2842  0.5904 -0.3731
  546MOL0     N75262   7.033   4.005  10.413  0.1125 -0.1566  0.4200
  546MOL0     C75263   6.496   4.566  10.868  0.1700  0.3246 -0.7594
  546MOL0     C75264   6.385   4.606  10.789 -0.6060 -0.2160 -1.0071
  546MOL0     C75265   6.093   4.859  10.557  0.5574 -0.3885 -0.4146
  546MOL0     C75266   6.051   4.968  10.482 -0.0897  0.3805  0.6230
  546MOL0     C75267   5.934   4.964  10.405  0.6906 -0.0271 -0.7747
  546MOL0     C75268   5.849   4.852  10.401 -0.0242 -0.4018 -1.1117
  546MOL0     O75269   5.734   4.832  10.328 -0.0254 -0.2406 -1.3311
  546MOL0     C75270   5.717   4.908  10.208  0.2805  0.5758 -0.4652
  546MOL0     C75271   5.596   4.850  10.132 -0.0013 -0.9662  0.7046
  546MOL0     C75272   5.463   4.887  10.194 -0.5106 -0.0142 -0.7251
  546MOL0     C75273   5.344   4.880  10.109  0.1085  0.7464 -1.0579
  546MOL0     C75274   5.244   4.981  10.151 -0.5650 -0.2439 -0.1833
  546MOL0     C75275   5.161   5.077  10.172  0.0020  0.3448  0.7077
  546MOL0     C75276   5.892   4.746  10.477  0.0563  1.1781 -0.0373
  546MOL0     C75277   6.017   4.743  10.548  1.0284  0.8017 -0.9283
  546MOL0     C75278   6.032   4.613  10.624 -0.2983  0.3896 -0.8821
  546MOL0     H75279   6.434   4.944  10.797  0.7858 -0.5261 -0.8547
  546MOL0     H75280   6.618   4.871  10.961 -0.6543  0.1514  1.3630
  546MOL0     H75281   6.905   4.701  10.973 -2.6882  0.8661  2.2037
  546MOL0     H75282   6.803   4.787  10.861  0.4739 -0.5505 -1.9676
  546MOL0     H75283   6.863   4.476  10.848 -0.0456 -0.1041 -0.2494
  546MOL0     H75284   6.778   4.570  10.730 -1.9687  2.5386  2.7863
  546MOL0     H75285   7.008   4.694  10.712  0.2273 -0.4295  0.5431
  546MOL0     H75286   7.072   4.564  10.815 -1.4098 -2.3840  0.9115
  546MOL0     H75287   6.984   4.400  10.618  0.4233 -1.5856 -3.1044
  546MOL0     H75288   6.951   4.548  10.538 -1.1956 -0.6759  1.1200
  546MOL0     H75289   7.239   4.475  10.627  1.9219  0.2626 -0.9814
  546MOL0     H75290   7.196   4.610  10.538  0.1517 -0.4447 -0.5438
  546MOL0     H75291   7.121   4.504  10.356 -0.8655 -0.5887  0.3465
  546MOL0     H75292   7.277   4.425  10.408  1.1675  0.1116  5.8874
  546MOL0     H75293   7.004   4.297  10.422 -0.4410 -4.4432 -1.6354
  546MOL0     H75294   7.154   4.248  10.519 -0.0205 -0.5479 -0.3075
  546MOL0     H75295   7.130   4.245  10.212 -2.4607  0.2580  0.3338
  546MOL0     H75296   7.265   4.191  10.317  1.1459  1.5274 -0.9142
  546MOL0     H75297   7.112   3.999  10.090 -3.2848  1.2804 -0.8472
  546MOL0     H75298   7.076   3.731  10.082  0.9276  2.7079  1.2411
  546MOL0     H75299   6.905   3.720  10.137 -1.2775  1.6006  0.5237
  546MOL0     H75300   7.139   3.625  10.322 -0.3661  0.2467  0.1089
  546MOL0     H75301   6.972   3.602  10.341  0.8092  1.4220  0.8639
  546MOL0     H75302   7.037   3.398  10.253  3.0797 -0.8212 -1.6889
  546MOL0     H75303   6.953   3.486  10.122  1.5997  0.1069 -3.4706
  546MOL0     H75304   7.157   3.363  10.056 -0.0527 -2.5151  3.1905
  546MOL0     H75305   7.151   3.540  10.018  3.6831 -0.4849 -0.1103
  546MOL0     H75306   7.513   3.566  10.231 -3.3166 -2.0544  0.3420
  546MOL0     H75307   7.793   3.694  10.119  3.9443 -1.2241  1.5135
  546MOL0     H75308   7.848   3.530  10.118  0.6343 -0.6270  1.5356
  546MOL0     H75309   7.735   3.584  10.241  0.1818  4.6566  0.4959
  546MOL0     H75310   7.936   3.388   9.797 -0.7135  4.6158  1.7701
  546MOL0     H75311   8.118   3.303   9.672 -2.0784 -0.1954  3.1148
  546MOL0     H75312   8.115   3.207   9.382 -0.9674  1.2399  1.3553
  546MOL0     H75313   8.093   3.346   9.264 -0.1797  2.5087  2.3752
  546MOL0     H75314   8.345   3.194   9.347 -2.0007  0.3914  3.7160
  546MOL0     H75315   8.253   3.177   9.190 -0.5115  1.9070 -0.9473
  546MOL0     H75316   8.416   3.425   9.288 -0.9899  1.8581  0.1144
  546MOL0     H75317   8.316   3.417   9.141  0.4214 -1.6900 -1.1721
  546MOL0     H75318   8.461   3.221   9.072  0.4641 -0.5010  2.0126
  546MOL0     H75319   8.560   3.249   9.212  0.6932 -1.2422 -0.1208
  546MOL0     H75320   8.505   3.433   8.962  1.3228  1.6945 -1.9235
  546MOL0     H75321   8.599   3.499   9.101  5.1503 -0.3608 -1.5332
  546MOL0     H75322   8.671   3.286   8.914 -3.3252  0.1425  1.7806
  546MOL0     H75323   8.767   3.316   9.048 -0.4370 -1.3432 -0.7141
  546MOL0     H75324   8.766   3.573   8.945 -0.5539 -0.2081  0.3049
  546MOL0     H75325   8.692   3.491   8.805  1.5126  1.6468  0.4066
  546MOL0     H75326   8.894   3.360   8.779 -1.6445  1.7168 -2.8009
  546MOL0     H75327   8.959   3.453   8.912 -0.3702 -1.2729  0.4979
  546MOL0     H75328   8.000   3.535   9.330  2.4435 -1.2207 -0.0180
  546MOL0     H75329   7.790   3.606   9.451  1.5689  2.5383 -1.2526
  546MOL0     H75330   7.489   3.511   9.752 -1.9879 -0.2927  0.1611
  546MOL0     H75331   7.312   3.443   9.883  0.9076  0.1703 -1.6700
  546MOL0     H75332   6.509   4.463  10.899 -2.2958  0.2120  0.0837
  546MOL0     H75333   6.313   4.534  10.752 -0.8519 -0.1336 -0.6961
  546MOL0     H75334   6.107   5.061  10.478 -1.6661  1.4324 -4.7088
  546MOL0     H75335   5.915   5.054  10.348 -2.3275 -0.1335 -0.1001
  546MOL0     H75336   5.704   5.016  10.225  0.7230  0.5588  0.0095
  546MOL0     H75337   5.812   4.897  10.155  1.4912  2.6426  1.0905
  546MOL0     H75338   5.607   4.741  10.130  0.7007 -0.9090 -1.5874
  546MOL0     H75339   5.593   4.892  10.031 -0.2658  2.7267  2.1095
  546MOL0     H75340   5.440   4.811  10.270 -2.7910  0.6555 -0.6595
  546MOL0     H75341   5.480   4.983  10.243 -0.0261 -1.0760  1.3099
  546MOL0     H75342   5.291   4.784  10.110  2.8966 -0.9034  0.5737
  546MOL0     H75343   5.371   4.905  10.006  1.5268 -1.5532 -1.3144
  546MOL0     H75344   5.083   5.150  10.180  2.0769  2.9847 -1.3206
  546MOL0     H75345   5.838   4.654  10.455  1.7351  0.6827 -2.5116
  546MOL0     H75346   6.024   4.621  10.732  1.1160  1.6036 -0.8321
  546MOL0     H75347   5.945   4.555  10.590 -0.9651 -0.3420  1.8415
  546MOL0     H75348   6.128   4.562  10.614 -1.0452 -0.9025 -1.8284
  547MOL0     O75349  10.208   9.430   6.462 -0.1779 -0.3145  0.1977
  547MOL0     C75350  10.197   9.453   6.342 -0.0953  0.5120  0.5202
  547MOL0     O75351  10.293   9.518   6.257  0.1568  0.4465 -0.2653
  547MOL0     C75352  10.420   9.552   6.291 -0.2174  0.5342  0.4272
  547MOL0     C75353  10.496   9.474   6.378 -0.0933 -0.1610 -0.4208
  547MOL0     C75354  10.634   9.510   6.412 -0.6282 -0.2913 -0.0282
  547MOL0     C75355  10.682   9.635   6.357 -0.6252  0.5894 -0.1516
  547MOL0     O75356  10.815   9.671   6.378  0.0768 -0.7663 -0.1716
  547MOL0     C75357  10.832   9.729   6.505 -0.6031  0.5049 -0.4534
  547MOL0     C75358  10.806   9.882   6.503  1.0227  0.5443  0.0734
  547MOL0     C75359  10.883   9.972   6.396 -0.2898  0.0828 -0.3264
  547MOL0     C75360  11.036   9.972   6.411 -0.0744  0.3913 -0.6277
  547MOL0     C75361  11.120  10.041   6.301  0.3458  1.0398  0.9188
  547MOL0     C75362  11.106   9.993   6.156 -0.1521 -0.1830  0.7242
  547MOL0     C75363  11.176  10.074   6.054 -1.1560 -0.1052  1.1232
  547MOL0     C75364  11.188  10.020   5.911 -0.3939  0.9870  0.7846
  547MOL0     N75365  11.057  10.028   5.843 -0.0137 -0.7536 -0.2850
  547MOL0     C75366  10.961   9.937   5.862 -0.9397  0.2829 -0.2782
  547MOL0     C75367  10.861   9.966   5.776  0.8427 -0.5563  0.1336
  547MOL0     C75368  10.731   9.906   5.735 -0.2721  0.6885 -0.0547
  547MOL0     C75369  10.647   9.874   5.863 -0.3721 -0.1657 -0.9074
  547MOL0     C75370  10.612  10.004   5.934  0.9263  0.4461 -0.5715
  547MOL0     C75371  10.460  10.040   5.930  0.0291 -0.1075 -0.7233
  547MOL0     O75372  10.389   9.952   6.015 -0.1017 -0.0770 -0.2697
  547MOL0     C75373  10.265  10.001   6.061 -0.3762 -0.2099 -0.2491
  547MOL0     C75374  10.186   9.920   6.140 -0.2087  0.6321 -0.7560
  547MOL0     C75375  10.070   9.957   6.202  0.4109  0.6149  0.1538
  547MOL0     C75376  10.003   9.853   6.301 -1.0234 -0.3159  0.0535
  547MOL0     C75377  10.035  10.093   6.196  0.3673 -0.6186 -0.1008
  547MOL0     C75378   9.930  10.155   6.280  1.0802  0.0991 -0.4805
  547MOL0     O75379   9.878  10.261   6.221  0.8061  0.0205  0.5656
  547MOL0     C75380   9.753  10.301   6.251 -0.6902 -0.3921  0.4378
  547MOL0     C75381   9.645  10.215   6.287  0.3567  0.4596  0.4168
  547MOL0     C75382   9.515  10.261   6.300  0.1160  0.2353 -0.1424
  547MOL0     C75383   9.488  10.393   6.299  0.7423  0.4065  1.4143
  547MOL0     O75384   9.357  10.432   6.304  0.0084 -0.0449 -0.0521
  547MOL0     C75385   9.330  10.493   6.434 -0.8436  0.4930 -0.2918
  547MOL0     C75386   9.346  10.396   6.551  0.5983 -0.9263  0.2691
  547MOL0     C75387   9.329  10.457   6.683  0.6646  0.3826 -0.1588
  547MOL0     C75388   9.413  10.379   6.783 -0.9549 -0.1197  0.4347
  547MOL0     C75389   9.393  10.419   6.926  0.1754 -0.4615 -0.0985
  547MOL0     C75390   9.513  10.411   7.011  0.6248  0.3162 -0.8970
  547MOL0     C75391   9.483  10.495   7.143  0.3629  0.1037 -0.2002
  547MOL0     C75392   9.551  10.638   7.147  1.0976 -0.2748  0.7177
  547MOL0    Cl75393   9.542  10.699   7.310 -0.0302  0.4994  0.1454
  547MOL0     C75394   9.591  10.481   6.262  0.1400 -0.3020  0.4236
  547MOL0     C75395   9.726  10.446   6.232 -0.0483  0.4082 -0.1085
  547MOL0     O75396   9.908  10.117   6.402  0.6114 -0.4752  0.5537
  547MOL0     C75397  10.098  10.170   6.093 -0.6544  0.0846  0.7001
  547MOL0     C75398  10.212  10.121   6.030 -0.8064  0.2590  0.0760
  547MOL0     N75399  10.887  10.096   5.732 -0.9628 -0.1153  0.6005
  547MOL0     N75400  11.010  10.130   5.774  0.4228 -0.5815  0.2591
  547MOL0     C75401  10.601   9.702   6.268 -0.4666 -1.4751 -0.7137
  547MOL0     C75402  10.479   9.659   6.222  0.5225 -1.7195  0.5241
  547MOL0     C75403  10.070   9.424   6.266 -0.2462  0.3571  0.1514
  547MOL0     C75404  10.046   9.507   6.156  0.8417  0.2540  0.6613
  547MOL0     C75405   9.923   9.486   6.075 -0.6965 -0.1015  0.4472
  547MOL0     C75406   9.845   9.378   6.103  0.8048  0.6298 -0.5973
  547MOL0     O75407   9.730   9.355   6.043  0.2958 -0.3306 -0.3496
  547MOL0     C75408   9.684   9.453   5.953  0.6002  0.6691 -0.0822
  547MOL0     C75409   9.550   9.429   5.882  0.3426  0.5739  1.1917
  547MOL0     C75410   9.425   9.449   5.975  0.1076 -0.6534  0.6046
  547MOL0     C75411   9.298   9.394   5.907  0.0333 -0.1944 -0.2740
  547MOL0     C75412   9.173   9.413   5.988 -0.6382 -0.2804 -0.7924
  547MOL0     C75413   9.071   9.435   6.053  0.3353  0.4868  0.4591
  547MOL0     C75414   9.868   9.297   6.215 -0.3309 -0.0519  1.2726
  547MOL0     C75415   9.992   9.306   6.287 -0.6998  0.4430 -0.3060
  547MOL0     C75416  10.048   9.200   6.382 -0.9683  0.1987 -1.3237
  547MOL0     H75417  10.469   9.379   6.424  3.1472 -1.1052 -0.1495
  547MOL0     H75418  10.693   9.450   6.480 -0.1425 -0.3284 -0.4724
  547MOL0     H75419  10.933   9.715   6.545 -0.2795 -3.0728 -2.1102
  547MOL0     H75420  10.764   9.693   6.583  1.8155 -0.0052  1.5390
  547MOL0     H75421  10.700   9.888   6.477  1.0545  1.0751  0.0583
  547MOL0     H75422  10.825   9.929   6.601  1.5993 -0.4490  0.4574
  547MOL0     H75423  10.863   9.920   6.302  1.0630 -3.7922  1.3051
  547MOL0     H75424  10.843  10.072   6.416 -2.2374 -0.6600 -0.3089
  547MOL0     H75425  11.059  10.036   6.497  1.5772 -0.9870  0.0254
  547MOL0     H75426  11.077   9.872   6.425  3.4171  1.1757 -3.5607
  547MOL0     H75427  11.225  10.025   6.328  0.6323  0.7629 -0.3216
  547MOL0     H75428  11.101  10.149   6.308  2.9498  1.6532 -0.3910
  547MOL0     H75429  11.146   9.892   6.148 -3.3976 -1.5330  0.1247
  547MOL0     H75430  11.000   9.990   6.131 -0.5750  0.2393  2.3131
  547MOL0     H75431  11.282  10.078   6.081 -1.4674  1.2817  2.2531
  547MOL0     H75432  11.134  10.174   6.055 -2.5222 -0.5577 -1.5395
  547MOL0     H75433  11.254  10.078   5.846 -0.5955 -0.4359 -0.7510
  547MOL0     H75434  11.231   9.920   5.913 -1.3715  0.5594  2.4540
  547MOL0     H75435  10.982   9.844   5.915  0.0921 -0.3792 -1.7915
  547MOL0     H75436  10.750   9.809   5.688 -0.1268  0.8236 -0.2787
  547MOL0     H75437  10.676   9.976   5.671  2.6409  0.7417 -2.7941
  547MOL0     H75438  10.564   9.820   5.816  0.0769 -0.7412 -1.0570
  547MOL0     H75439  10.702   9.811   5.933 -0.2733  0.1542 -0.6989
  547MOL0     H75440  10.652  10.010   6.036 -1.0926  2.1407  0.2018
  547MOL0     H75441  10.677  10.084   5.898  2.5604 -0.6511 -0.1348
  547MOL0     H75442  10.452  10.137   5.982 -1.7015 -0.6261  0.0372
  547MOL0     H75443  10.413  10.043   5.832 -0.6309  0.6658 -0.3993
  547MOL0     H75444  10.237   9.826   6.157  1.2678  1.3695 -0.9522
  547MOL0     H75445  10.027   9.887   6.402 -0.5480  4.5884 -1.4694
  547MOL0     H75446  10.040   9.750   6.303  0.2430  0.1353  0.4612
  547MOL0     H75447   9.895   9.841   6.289 -0.8582 -0.6847 -1.2090
  547MOL0     H75448   9.661  10.108   6.290  0.9260  0.4770 -1.2497
  547MOL0     H75449   9.436  10.192   6.327  2.6767 -2.9775 -0.2181
  547MOL0     H75450   9.395  10.581   6.431 -0.0841  0.1603  3.0051
  547MOL0     H75451   9.229  10.533   6.443 -1.5403 -1.0641 -0.7525
  547MOL0     H75452   9.265  10.325   6.532 -1.2504  0.5013  2.3689
  547MOL0     H75453   9.440  10.339   6.550  1.7395  0.7378  3.1935
  547MOL0     H75454   9.222  10.441   6.700  0.5616 -1.5767 -2.2322
  547MOL0     H75455   9.361  10.561   6.690  0.5094  0.3111  2.7087
  547MOL0     H75456   9.515  10.391   6.746  0.0536 -0.7375  2.7859
  547MOL0     H75457   9.390  10.272   6.776 -2.0285 -0.0678  2.3726
  547MOL0     H75458   9.360  10.523   6.934  1.7118  0.1134 -0.8296
  547MOL0     H75459   9.317  10.356   6.973  1.3336 -0.3359  2.0796
  547MOL0     H75460   9.597  10.450   6.952 -0.7792  1.8237 -1.9625
  547MOL0     H75461   9.542  10.311   7.045  1.9467  0.3174 -1.9230
  547MOL0     H75462   9.537  10.441   7.222  0.6338  2.1889  1.1309
  547MOL0     H75463   9.376  10.499   7.166 -0.2395  2.6947 -2.7615
  547MOL0     H75464   9.501  10.703   7.075  0.5822 -2.2673 -0.8125
  547MOL0     H75465   9.658  10.642   7.124  1.6912 -2.3432  2.7776
  547MOL0     H75466   9.569  10.587   6.253 -0.0404 -0.1227  2.5089
  547MOL0     H75467   9.798  10.518   6.194  1.1026 -2.1341 -3.2579
  547MOL0     H75468  10.073  10.276   6.087  1.8053  0.7556  1.2827
  547MOL0     H75469  10.262  10.181   5.955  0.4751 -0.4048  0.3568
  547MOL0     H75470  10.645   9.793   6.229 -1.3677 -0.4502  0.5701
  547MOL0     H75471  10.433   9.712   6.139  1.8506 -2.1925 -0.5595
  547MOL0     H75472  10.103   9.597   6.134  0.6626 -0.1791 -1.9592
  547MOL0     H75473   9.900   9.550   5.991 -0.8701  1.6913  1.7966
  547MOL0     H75474   9.659   9.552   5.992  2.3462  1.6516 -1.3563
  547MOL0     H75475   9.752   9.466   5.869  3.0375 -0.6063  1.5542
  547MOL0     H75476   9.549   9.329   5.838 -1.5328  1.0665  0.0171
  547MOL0     H75477   9.545   9.499   5.798 -3.0400  1.4163  1.9690
  547MOL0     H75478   9.450   9.378   6.055 -2.4953 -0.5624  1.6235
  547MOL0     H75479   9.407   9.549   6.015 -0.6886 -1.0408  1.2581
  547MOL0     H75480   9.306   9.284   5.908 -1.7497 -0.5395  4.5234
  547MOL0     H75481   9.292   9.431   5.804  1.0898 -0.2298 -0.3627
  547MOL0     H75482   8.977   9.451   6.103  0.6460  1.9082  0.6292
  547MOL0     H75483   9.799   9.213   6.222  1.2334 -1.6758 -1.0897
  547MOL0     H75484  10.020   9.221   6.485  1.5073 -0.3139 -0.4864
  547MOL0     H75485  10.007   9.101   6.360 -3.4364  0.8614 -0.0960
  547MOL0     H75486  10.157   9.205   6.377 -0.6861  1.5154  2.6173
  548MOL0     O75487  11.362   3.291   0.203 -0.0554 -0.1105  0.6311
  548MOL0     C75488  11.421   3.245   0.295 -0.8724 -0.1664 -0.6722
  548MOL0     O75489  11.391   3.281   0.415  0.2868  0.4458  0.7766
  548MOL0     C75490  11.291   3.366   0.452  1.0270 -0.0430 -0.0831
  548MOL0     C75491  11.166   3.313   0.506  0.4874 -0.0686 -0.3178
  548MOL0     C75492  11.066   3.409   0.528 -0.9252 -0.2139 -0.4657
  548MOL0     C75493  11.080   3.547   0.535 -0.1011  0.3106  0.2948
  548MOL0     O75494  10.986   3.629   0.585 -0.0044 -0.9287  0.0290
  548MOL0     C75495  10.862   3.581   0.623 -0.3993 -0.1783 -0.3589
  548MOL0     C75496  10.789   3.701   0.679  0.3554 -0.6076 -0.0452
  548MOL0     C75497  10.876   3.799   0.768  0.6413 -0.1340  0.0986
  548MOL0     C75498  10.812   3.899   0.856  0.7008 -0.4966 -0.4411
  548MOL0     C75499  10.887   4.030   0.894 -0.3574  0.3209  0.2355
  548MOL0     C75500  10.984   4.008   1.010 -0.5315 -0.3677 -0.2611
  548MOL0     C75501  11.051   4.139   1.058 -0.2978 -0.1248  0.9342
  548MOL0     C75502  11.179   4.180   0.982 -0.2305 -0.2466 -0.3524
  548MOL0     N75503  11.225   4.311   1.029  1.0560 -0.4178 -0.5260
  548MOL0     C75504  11.296   4.403   0.953  0.0323  0.3297 -0.4762
  548MOL0     C75505  11.322   4.500   1.040 -0.9273  0.3199 -0.4756
  548MOL0     C75506  11.416   4.626   1.012 -0.4381 -0.1092 -0.4143
  548MOL0     C75507  11.342   4.730   0.930  0.3017 -0.7159  0.6663
  548MOL0     C75508  11.322   4.681   0.786 -0.0734 -0.4508 -0.1220
  548MOL0     C75509  11.353   4.784   0.676 -0.3000  0.5495 -0.1555
  548MOL0     O75510  11.241   4.863   0.654  0.6285 -0.8168  1.4123
  548MOL0     C75511  11.218   4.939   0.537 -0.0256 -1.0571 -0.1574
  548MOL0     C75512  11.092   4.989   0.517  0.6181 -0.0414 -1.2163
  548MOL0     C75513  11.069   5.082   0.417  0.0637  0.6190 -0.3293
  548MOL0     C75514  10.927   5.143   0.418  0.6636 -0.3701  0.6288
  548MOL0     C75515  11.166   5.120   0.323  0.2012  0.5515 -0.3070
  548MOL0     C75516  11.147   5.225   0.213  0.3541 -0.2172 -0.2720
  548MOL0     O75517  11.250   5.248   0.135  0.3550 -0.0529 -0.1569
  548MOL0     C75518  11.250   5.364   0.062  0.5473  0.5761  0.1101
  548MOL0     C75519  11.195   5.350  -0.069  0.2463 -0.0049 -0.9018
  548MOL0     C75520  11.217   5.453  -0.164  0.4182  0.4318  0.6678
  548MOL0     C75521  11.304   5.568  -0.131  0.0135  0.7809 -0.3087
  548MOL0     O75522  11.340   5.658  -0.234  0.5480  0.1224 -0.4635
  548MOL0     C75523  11.415   5.774  -0.197  0.1014  0.5603 -0.2679
  548MOL0     C75524  11.416   5.876  -0.308  0.2380  0.0855  0.1709
  548MOL0     C75525  11.484   6.004  -0.259 -0.0537  0.5790 -0.0091
  548MOL0     C75526  11.442   6.124  -0.353 -0.4517 -0.2693 -0.4059
  548MOL0     C75527  11.518   6.253  -0.317  0.6960  0.1751  0.0527
  548MOL0     C75528  11.479   6.292  -0.171  0.3089  0.5942  0.1179
  548MOL0     C75529  11.500   6.434  -0.123 -0.2936  0.9658  0.0910
  548MOL0     C75530  11.657   6.463  -0.129  0.0711 -0.4705 -0.0317
  548MOL0    Cl75531  11.700   6.600  -0.020  0.4059  0.1133 -0.0516
  548MOL0     C75532  11.348   5.579   0.002 -0.3923 -0.3041 -1.0611
  548MOL0     C75533  11.320   5.480   0.098  0.7616 -0.6813 -0.0831
  548MOL0     O75534  11.049   5.298   0.219 -1.3935 -0.0995 -0.4023
  548MOL0     C75535  11.291   5.052   0.339 -0.4211  0.9887 -0.0711
  548MOL0     C75536  11.319   4.959   0.439  0.0808 -0.3675 -0.5010
  548MOL0     N75537  11.280   4.468   1.168 -0.0607 -0.0287  0.2376
  548MOL0     N75538  11.219   4.357   1.159 -0.1541  0.2055 -0.3100
  548MOL0     C75539  11.204   3.594   0.470  0.4769 -0.1069 -0.0551
  548MOL0     C75540  11.305   3.499   0.435  0.0622  0.9710 -0.7888
  548MOL0     C75541  11.530   3.154   0.256 -0.5463  0.3429 -0.6869
  548MOL0     C75542  11.535   3.095   0.131 -0.9330  0.8037 -0.7408
  548MOL0     C75543  11.631   3.002   0.096  0.0890 -0.0951 -0.1088
  548MOL0     C75544  11.724   2.955   0.193  0.1792 -0.4599 -0.6509
  548MOL0     O75545  11.820   2.862   0.159  1.1437  0.7307  0.3357
  548MOL0     C75546  11.932   2.826   0.237 -0.6372  0.3363 -0.4334
  548MOL0     C75547  12.027   2.749   0.150 -0.3231 -0.7997 -0.0515
  548MOL0     C75548  12.087   2.629   0.228 -0.5429  0.0660 -0.5067
  548MOL0     C75549  12.201   2.564   0.151 -0.9219  0.6744  1.1575
  548MOL0     C75550  12.240   2.427   0.194 -0.6003  0.4297  0.1518
  548MOL0     C75551  12.257   2.315   0.231  0.4447 -0.2692 -0.2468
  548MOL0     C75552  11.719   3.010   0.321 -0.4769  0.5828 -0.1920
  548MOL0     C75553  11.621   3.106   0.356  0.1000 -0.2310  0.5800
  548MOL0     C75554  11.631   3.156   0.499  0.3593  0.0274  0.0776
  548MOL0     H75555  11.147   3.207   0.518  3.2689 -0.8630 -1.9964
  548MOL0     H75556  10.978   3.358   0.566  0.6212 -0.7646  2.6862
  548MOL0     H75557  10.881   3.504   0.697  2.5542  0.0223 -0.7827
  548MOL0     H75558  10.800   3.538   0.544  0.8787 -2.9557  0.0354
  548MOL0     H75559  10.739   3.769   0.609 -0.1313 -0.7139  0.1955
  548MOL0     H75560  10.699   3.665   0.731 -2.1744  2.1890 -2.1465
  548MOL0     H75561  10.945   3.737   0.826 -0.0964 -1.8888 -0.8164
  548MOL0     H75562  10.932   3.852   0.691  0.5571  0.1849  0.2556
  548MOL0     H75563  10.714   3.927   0.815 -0.8512 -0.6578  2.8394
  548MOL0     H75564  10.791   3.857   0.955 -3.3873 -1.0727 -1.3508
  548MOL0     H75565  10.806   4.100   0.918 -0.6383 -0.4969  1.7490
  548MOL0     H75566  10.940   4.076   0.810  3.3837  0.0041  2.2462
  548MOL0     H75567  10.947   3.949   1.094  2.7501 -2.5943 -0.1907
  548MOL0     H75568  11.065   3.945   0.970  0.1815  0.3983 -0.0507
  548MOL0     H75569  11.071   4.121   1.164  0.4857  1.0992  1.0047
  548MOL0     H75570  10.982   4.219   1.031 -3.9380 -3.2201  0.2671
  548MOL0     H75571  11.264   4.116   1.007 -0.8545 -2.5695 -3.5467
  548MOL0     H75572  11.170   4.194   0.874  2.3595  1.8437 -0.3994
  548MOL0     H75573  11.340   4.380   0.857  0.0077 -2.7984  0.1519
  548MOL0     H75574  11.497   4.591   0.948  1.7555  2.1271  0.9464
  548MOL0     H75575  11.453   4.667   1.107 -0.7736 -0.5025 -0.1091
  548MOL0     H75576  11.243   4.745   0.974  0.2651 -2.0683  1.1041
  548MOL0     H75577  11.389   4.828   0.931  0.5160 -0.7680 -1.1516
  548MOL0     H75578  11.397   4.606   0.759  1.8010  2.0840 -2.5166
  548MOL0     H75579  11.217   4.663   0.763 -0.6089  1.7201  0.4214
  548MOL0     H75580  11.444   4.841   0.692  0.6952 -0.8838 -0.5418
  548MOL0     H75581  11.364   4.738   0.577  0.9870  1.4125 -0.4399
  548MOL0     H75582  11.004   4.973   0.579 -1.2666  0.5745 -3.5556
  548MOL0     H75583  10.893   5.166   0.317 -1.2266  0.6430  1.4396
  548MOL0     H75584  10.913   5.236   0.475 -1.7547  0.3141 -0.9078
  548MOL0     H75585  10.851   5.072   0.455  1.3653 -0.6932  1.4927
  548MOL0     H75586  11.136   5.262  -0.091  0.0343 -0.2482  0.5698
  548MOL0     H75587  11.171   5.450  -0.262  5.0906  2.8932 -1.9417
  548MOL0     H75588  11.356   5.826  -0.121  2.2832 -1.1129  2.7670
  548MOL0     H75589  11.520   5.750  -0.178  0.4935 -0.7330 -3.3899
  548MOL0     H75590  11.480   5.845  -0.391  1.7726  2.3451  0.4383
  548MOL0     H75591  11.322   5.899  -0.359 -0.7355  1.6559  2.5174
  548MOL0     H75592  11.591   5.983  -0.251 -0.1570 -0.1624 -0.4709
  548MOL0     H75593  11.452   6.025  -0.157 -1.9282  2.6747 -0.9309
  548MOL0     H75594  11.333   6.137  -0.346 -0.3292  1.7941 -1.5712
  548MOL0     H75595  11.466   6.093  -0.455 -0.0271 -0.8866 -0.1253
  548MOL0     H75596  11.626   6.242  -0.326  0.8472  0.5991  1.1783
  548MOL0     H75597  11.487   6.333  -0.386 -0.1569  0.4971  0.7876
  548MOL0     H75598  11.527   6.219  -0.105 -0.1354  0.3065  0.1200
  548MOL0     H75599  11.372   6.274  -0.159  0.3456  1.2115  1.7534
  548MOL0     H75600  11.458   6.449  -0.024 -0.7393 -1.1797  0.2707
  548MOL0     H75601  11.450   6.504  -0.190  0.7801  1.7525  0.0832
  548MOL0     H75602  11.686   6.480  -0.233  1.7781 -3.1813 -0.1058
  548MOL0     H75603  11.714   6.375  -0.095  3.9256  1.8484  0.0807
  548MOL0     H75604  11.406   5.661   0.040  2.1948 -2.7774  0.7298
  548MOL0     H75605  11.354   5.498   0.200  1.7371  2.1790 -0.8434
  548MOL0     H75606  11.355   5.058   0.252 -2.5038  1.8467 -1.6202
  548MOL0     H75607  11.413   4.905   0.441  1.0826  1.2502  2.3765
  548MOL0     H75608  11.209   3.703   0.466  1.3258 -0.1796 -3.2592
  548MOL0     H75609  11.393   3.526   0.377  0.5579 -4.6950 -3.3763
  548MOL0     H75610  11.475   3.126   0.046 -2.5546  0.4532  0.2432
  548MOL0     H75611  11.646   2.969  -0.007 -2.0339  0.2240 -0.5596
  548MOL0     H75612  11.979   2.914   0.282  0.6222 -0.3092 -0.4559
  548MOL0     H75613  11.898   2.754   0.313  0.8481 -0.5761 -0.5887
  548MOL0     H75614  12.105   2.816   0.112  0.3940 -0.8505  1.2924
  548MOL0     H75615  11.975   2.705   0.064 -1.4023 -1.0123  0.6949
  548MOL0     H75616  12.122   2.661   0.326 -0.5319 -0.9284 -0.1781
  548MOL0     H75617  12.012   2.549   0.231  0.6400 -1.1848 -2.3149
  548MOL0     H75618  12.290   2.627   0.153 -1.8330  2.0546  0.3496
  548MOL0     H75619  12.175   2.555   0.045 -3.0187  2.2448  1.4636
  548MOL0     H75620  12.265   2.217   0.271  2.6434  1.4244  4.1121
  548MOL0     H75621  11.787   2.994   0.404 -1.0279  2.7742  0.7361
  548MOL0     H75622  11.546   3.117   0.556  2.3500 -2.0150  1.8720
  548MOL0     H75623  11.719   3.104   0.539  0.1367  0.0206  0.5619
  548MOL0     H75624  11.631   3.264   0.517  2.5659 -0.0661  1.0810
  549MOL0     O75625   5.465  11.459   2.113 -0.1161 -0.1267  0.5294
  549MOL0     C75626   5.390  11.501   2.206  0.4469  1.0614 -0.0855
  549MOL0     O75627   5.411  11.474   2.340  0.2331 -0.1142  0.2718
  549MOL0     C75628   5.537  11.488   2.390  0.1750 -0.0925 -0.3782
  549MOL0     C75629   5.539  11.482   2.525 -0.1947 -0.6100  0.4259
  549MOL0     C75630   5.664  11.485   2.587  0.1879  1.1462 -0.8683
  549MOL0     C75631   5.785  11.488   2.519 -1.1064 -0.1774 -0.7404
  549MOL0     O75632   5.894  11.494   2.599  0.5628  0.1359  1.0100
  549MOL0     C75633   6.005  11.583   2.579 -0.3930 -0.1704 -0.1750
  549MOL0     C75634   6.085  11.602   2.718 -0.4865 -0.2453  0.1182
  549MOL0     C75635   6.143  11.748   2.720 -0.4151 -0.3540  0.2868
  549MOL0     C75636   6.199  11.789   2.855 -0.8204  0.2867 -0.8056
  549MOL0     C75637   6.286  11.925   2.863  0.8010  0.8479  1.1893
  549MOL0     C75638   6.237  12.048   2.804 -0.0002  0.3541 -0.1344
  549MOL0     C75639   6.095  12.101   2.859  0.5132 -0.0354  0.3021
  549MOL0     C75640   6.082  12.253   2.824  0.7451  0.3757  1.0871
  549MOL0     N75641   5.971  12.322   2.890  0.2384  0.0334 -0.0246
  549MOL0     C75642   5.949  12.324   3.028  0.8201 -0.5142 -0.4802
  549MOL0     C75643   5.830  12.392   3.042  0.1271  0.2216  0.3174
  549MOL0     C75644   5.756  12.406   3.177  0.6737 -0.4595  0.1975
  549MOL0     C75645   5.641  12.312   3.203 -0.5875  0.4465 -0.0598
  549MOL0     C75646   5.598  12.327   3.346  0.8955  0.0455  0.0811
  549MOL0     C75647   5.479  12.234   3.382 -0.8577 -0.6884  0.1622
  549MOL0     O75648   5.514  12.100   3.365 -0.2061  0.7427  0.3333
  549MOL0     C75649   5.422  12.001   3.379  0.7017 -0.1353 -0.5816
  549MOL0     C75650   5.287  12.024   3.410 -0.0187 -0.1169  0.1415
  549MOL0     C75651   5.199  11.914   3.420 -0.1254 -0.2054  0.7891
  549MOL0     C75652   5.054  11.932   3.432 -0.9174 -0.7649  0.3301
  549MOL0     C75653   5.250  11.778   3.408 -0.8660  0.3551 -0.2553
  549MOL0     C75654   5.179  11.647   3.425  0.5987 -0.2728  0.0593
  549MOL0     O75655   5.237  11.528   3.372  0.1140 -0.8043 -0.4375
  549MOL0     C75656   5.162  11.416   3.392 -0.2510  0.5240  0.0767
  549MOL0     C75657   5.119  11.350   3.276 -0.3920  0.2133 -0.3727
  549MOL0     C75658   5.041  11.234   3.284 -0.1964 -0.7148 -0.4865
  549MOL0     C75659   5.022  11.168   3.408 -0.7324  0.5979  1.0191
  549MOL0     O75660   4.966  11.040   3.396  0.1850  0.2261  0.7415
  549MOL0     C75661   4.957  10.953   3.508 -0.1335 -0.5679  0.0173
  549MOL0     C75662   5.101  10.898   3.541  1.0576 -0.4205  0.6722
  549MOL0     C75663   5.155  10.821   3.418  0.4355  0.6339 -0.2531
  549MOL0     C75664   5.274  10.726   3.448  1.2001 -1.1426 -0.0782
  549MOL0     C75665   5.207  10.598   3.507  0.4807  0.2103  0.5302
  549MOL0     C75666   5.106  10.524   3.410 -0.5389  1.1037  0.1632
  549MOL0     C75667   5.174  10.504   3.277  0.0433 -0.2285  0.1668
  549MOL0     C75668   5.105  10.397   3.203  0.2611 -1.2502  0.6171
  549MOL0    Cl75669   4.937  10.441   3.139 -0.1176  0.2257 -0.4776
  549MOL0     C75670   5.067  11.230   3.527 -1.1641 -0.4645 -0.4332
  549MOL0     C75671   5.143  11.353   3.514 -0.5709 -0.0290 -0.1830
  549MOL0     O75672   5.075  11.651   3.482  0.7291 -0.8605  0.3025
  549MOL0     C75673   5.393  11.765   3.384  0.3565  0.0397 -0.8670
  549MOL0     C75674   5.462  11.871   3.360  0.2984 -0.2745  0.2615
  549MOL0     N75675   5.788  12.436   2.919  0.8450 -0.6821  0.0778
  549MOL0     N75676   5.873  12.391   2.830  0.5554  0.0919  0.5229
  549MOL0     C75677   5.789  11.484   2.373 -0.3940  0.2482 -1.0767
  549MOL0     C75678   5.664  11.487   2.319  0.1923 -0.1455  1.7310
  549MOL0     C75679   5.259  11.560   2.176  0.7723 -0.2091  0.2882
  549MOL0     C75680   5.133  11.493   2.196  0.1953 -0.9238 -0.5903
  549MOL0     C75681   5.010  11.556   2.152  0.0948  0.1544 -0.7526
  549MOL0     C75682   5.008  11.676   2.094 -0.4326 -0.8203 -0.0349
  549MOL0     O75683   4.884  11.740   2.067 -0.4652  0.3517 -0.2962
  549MOL0     C75684   4.824  11.799   2.175  0.4831  0.6704  0.1857
  549MOL0     C75685   4.689  11.856   2.141  0.6788 -0.1092 -0.6383
  549MOL0     C75686   4.591  11.743   2.114  0.1594  0.6731  0.1694
  549MOL0     C75687   4.447  11.789   2.078  0.2669  0.2395  0.3189
  549MOL0     C75688   4.342  11.690   2.088 -0.1063 -0.6706 -0.2512
  549MOL0     C75689   4.278  11.600   2.108  0.5780  0.6139 -0.1355
  549MOL0     C75690   5.130  11.746   2.091  1.1103  1.0694 -1.4202
  549MOL0     C75691   5.257  11.690   2.131 -0.0520  1.2350  0.3367
  549MOL0     C75692   5.383  11.768   2.104  0.0819  0.7404  0.2473
  549MOL0     H75693   5.452  11.461   2.585  0.3822 -0.1878  1.4382
  549MOL0     H75694   5.675  11.483   2.694  1.0764  0.3369 -0.9559
  549MOL0     H75695   5.971  11.680   2.543  1.0320  0.2971 -0.3315
  549MOL0     H75696   6.078  11.545   2.507 -0.6587 -3.1916  1.0009
  549MOL0     H75697   6.011  11.600   2.798  0.6743 -0.0171  1.2210
  549MOL0     H75698   6.166  11.530   2.731  0.2707  0.5389 -0.1757
  549MOL0     H75699   6.220  11.757   2.643 -1.4474  2.8995 -0.5119
  549MOL0     H75700   6.069  11.825   2.696  0.4317  0.5088  0.3734
  549MOL0     H75701   6.111  11.792   2.920 -0.2039  0.2554  0.0317
  549MOL0     H75702   6.258  11.704   2.890 -1.9750  0.7194  2.5910
  549MOL0     H75703   6.382  11.900   2.818 -0.5892 -0.9211 -1.0054
  549MOL0     H75704   6.304  11.943   2.969  2.3661  2.1902  0.7350
  549MOL0     H75705   6.312  12.123   2.832 -0.8622 -0.3413  5.0360
  549MOL0     H75706   6.222  12.051   2.696  0.1891  4.2567 -0.2177
  549MOL0     H75707   6.092  12.084   2.967  0.0987  2.4190  0.7338
  549MOL0     H75708   6.019  12.041   2.808  1.6105 -0.1543 -1.2672
  549MOL0     H75709   6.173  12.311   2.843  1.4089 -0.5203  0.7196
  549MOL0     H75710   6.068  12.257   2.715  3.2821 -0.8464  0.6355
  549MOL0     H75711   6.009  12.278   3.106 -0.6087 -2.9783 -0.7274
  549MOL0     H75712   5.726  12.511   3.186 -2.0716 -1.1891  0.3928
  549MOL0     H75713   5.835  12.391   3.251 -0.9783  0.4110  2.2301
  549MOL0     H75714   5.567  12.344   3.130  0.6537 -0.8117 -1.9790
  549MOL0     H75715   5.663  12.207   3.182 -1.4313 -0.2012  2.1004
  549MOL0     H75716   5.674  12.297   3.419 -0.3412 -0.3589  1.2608
  549MOL0     H75717   5.589  12.434   3.367  1.9438  0.0135  0.7863
  549MOL0     H75718   5.437  12.254   3.480 -1.2793  0.1380 -0.1819
  549MOL0     H75719   5.414  12.265   3.300 -0.9805 -0.7350  0.2421
  549MOL0     H75720   5.237  12.119   3.431  1.2266  0.3212  1.3338
  549MOL0     H75721   5.032  11.906   3.537 -0.5451 -2.2123  0.0757
  549MOL0     H75722   4.992  11.863   3.374  0.2046 -2.5782  1.2072
  549MOL0     H75723   5.033  12.032   3.393  3.2719 -0.8763 -2.8397
  549MOL0     H75724   5.131  11.396   3.179  2.0059  3.9934  1.4754
  549MOL0     H75725   4.999  11.187   3.195  2.2016 -2.5726 -0.7365
  549MOL0     H75726   4.918  11.009   3.593  0.5898  0.7296 -0.4789
  549MOL0     H75727   4.888  10.873   3.477 -0.6275 -0.2193  0.2111
  549MOL0     H75728   5.172  10.973   3.578  0.9685 -0.4991  1.0126
  549MOL0     H75729   5.095  10.824   3.622 -0.5523  0.4918  1.4282
  549MOL0     H75730   5.184  10.891   3.339  1.8858 -1.4527 -1.6921
  549MOL0     H75731   5.063  10.777   3.379 -0.3245  1.9905 -0.0525
  549MOL0     H75732   5.351  10.766   3.515  0.6243  0.9584 -0.5854
  549MOL0     H75733   5.331  10.711   3.356 -0.5684 -0.2075 -1.3783
  549MOL0     H75734   5.291  10.533   3.533 -1.2513 -1.7224  1.5587
  549MOL0     H75735   5.142  10.619   3.593 -1.3276 -0.1958 -0.6899
  549MOL0     H75736   5.006  10.568   3.404 -0.5251  1.2300  0.7619
  549MOL0     H75737   5.108  10.426   3.459 -2.1153  0.6963 -0.5384
  549MOL0     H75738   5.283  10.495   3.280 -0.0167 -1.4561 -0.8638
  549MOL0     H75739   5.167  10.598   3.221  1.8236 -0.2565 -0.1807
  549MOL0     H75740   5.107  10.301   3.255 -0.2791 -0.8496  1.3858
  549MOL0     H75741   5.160  10.374   3.111 -2.1108 -1.7370 -0.7547
  549MOL0     H75742   5.070  11.181   3.623 -3.1353  0.8704  0.3663
  549MOL0     H75743   5.189  11.399   3.602  2.3094 -0.1460 -1.5258
  549MOL0     H75744   5.427  11.665   3.356  0.6091 -0.2198  0.3029
  549MOL0     H75745   5.560  11.882   3.314 -1.1742  2.0798 -2.7115
  549MOL0     H75746   5.887  11.485   2.325 -0.2696  2.8085 -0.8951
  549MOL0     H75747   5.658  11.479   2.211 -0.5728  0.1819  1.7427
  549MOL0     H75748   5.124  11.398   2.248 -0.8532 -0.9170 -0.7287
  549MOL0     H75749   4.917  11.502   2.170  1.0843 -1.4726 -0.3346
  549MOL0     H75750   4.824  11.721   2.252  0.7530 -1.6293 -2.0008
  549MOL0     H75751   4.881  11.882   2.217  2.5950 -0.1599 -0.8865
  549MOL0     H75752   4.697  11.928   2.060  1.3114  1.1200  0.4667
  549MOL0     H75753   4.644  11.909   2.226 -2.6419  0.3078 -2.4778
  549MOL0     H75754   4.628  11.675   2.037  1.7551  1.0674  0.5448
  549MOL0     H75755   4.581  11.681   2.204  1.5169  0.8639  0.4811
  549MOL0     H75756   4.452  11.813   1.972  1.1149 -1.6693 -0.1255
  549MOL0     H75757   4.413  11.874   2.139 -4.0493 -1.2921  0.4209
  549MOL0     H75758   4.223  11.514   2.140  0.4730  0.3209 -1.0644
  549MOL0     H75759   5.123  11.845   2.047 -1.4793  2.1777  1.1105
  549MOL0     H75760   5.410  11.724   2.008 -0.8929 -1.5409  0.9432
  549MOL0     H75761   5.373  11.877   2.097 -0.9231  0.5577 -1.5510
  549MOL0     H75762   5.459  11.755   2.182 -1.0967  0.9340  1.4727
  550MOL0     O75763   2.463   0.134   6.246 -0.1835  0.1701 -0.0319
  550MOL0     C75764   2.430   0.111   6.357  0.9573 -0.1004  0.4072
  550MOL0     O75765   2.334   0.176   6.422 -1.2820  0.2320 -0.3433
  550MOL0     C75766   2.244   0.263   6.376 -0.2613 -0.6391 -0.1167
  550MOL0     C75767   2.120   0.263   6.435  1.0164 -1.0716  0.1161
  550MOL0     C75768   2.017   0.351   6.379 -0.2972 -0.8817 -1.3192
  550MOL0     C75769   2.049   0.439   6.271 -0.8087  0.6253 -0.2898
  550MOL0     O75770   1.943   0.510   6.226  1.7449 -0.3675 -0.1726
  550MOL0     C75771   1.979   0.630   6.151  0.3902  1.0342 -0.0857
  550MOL0     C75772   1.857   0.712   6.116  0.4869 -1.1636  0.7966
  550MOL0     C75773   1.723   0.629   6.131  0.6087 -0.1019  0.2955
  550MOL0     C75774   1.604   0.734   6.129  0.2885 -0.4451 -0.3348
  550MOL0     C75775   1.471   0.668   6.156  0.0967 -0.1367  0.1954
  550MOL0     C75776   1.354   0.755   6.095  0.0530  1.3048  0.5882
  550MOL0     C75777   1.215   0.678   6.126 -0.4429  0.2757  0.1603
  550MOL0     C75778   1.172   0.652   6.267  0.1605  0.8046 -0.3859
  550MOL0     N75779   1.072   0.545   6.295  0.2960 -0.5507 -0.3270
  550MOL0     C75780   0.936   0.545   6.259 -0.1033  0.3194  0.4357
  550MOL0     C75781   0.886   0.442   6.333 -0.5931  0.3527  0.6341
  550MOL0     C75782   0.750   0.392   6.328 -0.8921 -0.1298  0.4671
  550MOL0     C75783   0.692   0.387   6.467 -0.9856 -0.8581 -0.3826
  550MOL0     C75784   0.547   0.335   6.484  0.7525  0.6789  0.1056
  550MOL0     C75785   0.509   0.295   6.622  0.3987 -0.0539  0.5920
  550MOL0     O75786   0.468   0.401   6.704  0.2111 -0.7695  0.6334
  550MOL0     C75787   0.409   0.360   6.823 -0.4267 -0.3107  0.3061
  550MOL0     C75788   0.290   0.423   6.868 -0.8722 -0.6035 -1.0086
  550MOL0     C75789   0.220   0.375   6.980  0.3963 -0.4184 -0.0464
  550MOL0     C75790   0.107   0.472   7.020  0.2954  0.5137 -0.7532
  550MOL0     C75791   0.271   0.268   7.051 -0.8402 -1.1415 -0.3612
  550MOL0     C75792   0.205   0.221   7.181  0.9362  0.4347  1.3579
  550MOL0     O75793   0.279   0.139   7.262 -0.1190 -0.1683  0.2742
  550MOL0     C75794   0.233   0.052   7.353 -0.1575 -0.2153 -1.3419
  550MOL0     C75795   0.320   0.029   7.461 -0.0641 -0.4043 -0.9783
  550MOL0     C75796   0.288  -0.056   7.571  0.6544  0.2054 -0.7460
  550MOL0     C75797   0.158  -0.110   7.567 -0.3869  0.6464  1.0346
  550MOL0     O75798   0.119  -0.207   7.650  0.3560 -0.1538  0.0210
  550MOL0     C75799   0.151  -0.202   7.794 -0.2016  0.0053  0.0238
  550MOL0     C75800   0.035  -0.270   7.873  0.4379 -1.6314  0.7171
  550MOL0     C75801  -0.019  -0.156   7.958 -1.0861  0.7567  0.1680
  550MOL0     C75802  -0.130  -0.217   8.051  0.5312  0.8098  0.3369
  550MOL0     C75803  -0.055  -0.275   8.179 -0.0029 -0.5033  0.5089
  550MOL0     C75804  -0.137  -0.394   8.239 -0.4049  0.2999  0.0073
  550MOL0     C75805  -0.098  -0.426   8.388  0.4920 -0.0321  0.3074
  550MOL0     C75806  -0.185  -0.555   8.432  0.6384  0.0572  0.9795
  550MOL0    Cl75807  -0.342  -0.556   8.365 -0.1601 -0.4151 -0.1552
  550MOL0     C75808   0.074  -0.092   7.460  0.6035  0.2837 -0.1040
  550MOL0     C75809   0.100  -0.007   7.355 -0.1411 -1.4542 -0.5645
  550MOL0     O75810   0.083   0.239   7.190  1.0832 -0.3311 -0.0690
  550MOL0     C75811   0.393   0.208   7.020 -0.5686 -0.8350  0.6738
  550MOL0     C75812   0.455   0.255   6.893 -0.0390 -0.4847 -0.5817
  550MOL0     N75813   0.996   0.375   6.393  0.1811 -0.2009 -0.0672
  550MOL0     N75814   1.103   0.442   6.371 -0.3778  0.0745  1.0807
  550MOL0     C75815   2.181   0.444   6.216 -0.7119 -1.3770  0.0875
  550MOL0     C75816   2.273   0.356   6.273 -0.0513 -0.6322  0.6320
  550MOL0     C75817   2.500   0.016   6.448  1.1961  0.2832 -1.4240
  550MOL0     C75818   2.447  -0.007   6.576 -0.6767 -0.2172 -0.1580
  550MOL0     C75819   2.512  -0.094   6.676  0.7192  0.7211 -0.2068
  550MOL0     C75820   2.636  -0.136   6.647  0.4133  0.0577  0.8655
  550MOL0     O75821   2.711  -0.209   6.727 -0.4148  0.8081 -0.8811
  550MOL0     C75822   2.708  -0.168   6.867  1.6526 -0.0486  0.4570
  550MOL0     C75823   2.760  -0.270   6.955 -1.4975  0.4888  0.8368
  550MOL0     C75824   2.708  -0.414   6.924 -0.0650 -0.0445  0.7849
  550MOL0     C75825   2.577  -0.445   6.992 -0.2392  0.9192 -0.1477
  550MOL0     C75826   2.461  -0.378   6.934 -0.8378 -0.3592  0.1740
  550MOL0     C75827   2.361  -0.335   6.877 -1.2246  0.4622 -0.8275
  550MOL0     C75828   2.691  -0.118   6.516 -0.1350  0.3681  0.2509
  550MOL0     C75829   2.630  -0.041   6.419  0.3168  0.9516  0.4595
  550MOL0     C75830   2.700  -0.021   6.285  0.6055  0.3217  0.1987
  550MOL0     H75831   2.110   0.188   6.513 -0.4290  0.4310  1.4414
  550MOL0     H75832   1.925   0.353   6.436  0.5286  0.9390  0.0403
  550MOL0     H75833   2.033   0.611   6.058  1.8350 -0.0010  0.9148
  550MOL0     H75834   2.037   0.701   6.210  0.3048  3.4781 -2.7591
  550MOL0     H75835   1.864   0.806   6.172 -0.9944 -2.1221  2.7117
  550MOL0     H75836   1.860   0.739   6.010 -2.7985 -1.8410  0.4010
  550MOL0     H75837   1.717   0.548   6.058  0.4042  0.0562  0.1345
  550MOL0     H75838   1.724   0.576   6.226  2.8111  0.4415  0.6206
  550MOL0     H75839   1.615   0.791   6.222  0.2014 -1.3749  0.2573
  550MOL0     H75840   1.599   0.796   6.039  2.8225  0.8384  0.3198
  550MOL0     H75841   1.468   0.647   6.263 -1.4973 -5.2963 -0.5630
  550MOL0     H75842   1.470   0.572   6.102 -0.3077 -0.1020  0.1404
  550MOL0     H75843   1.345   0.860   6.123  1.0841  1.5252  0.1506
  550MOL0     H75844   1.372   0.755   5.987  0.9105 -0.9726  0.6584
  550MOL0     H75845   1.208   0.582   6.074 -3.2771  0.3416  0.2899
  550MOL0     H75846   1.148   0.754   6.084  0.9954  0.7144 -1.4863
  550MOL0     H75847   1.256   0.613   6.325 -1.8698  0.6677  2.6931
  550MOL0     H75848   1.144   0.743   6.321  1.4932  1.7145 -1.1759
  550MOL0     H75849   0.868   0.605   6.201 -1.0489  1.2118  2.3761
  550MOL0     H75850   0.732   0.287   6.302 -0.0086 -0.9299  2.8758
  550MOL0     H75851   0.688   0.461   6.269 -0.5819 -1.1806 -1.1369
  550MOL0     H75852   0.763   0.326   6.524 -1.0157  0.9764  1.7306
  550MOL0     H75853   0.694   0.488   6.508 -1.3332 -2.2430  3.3773
  550MOL0     H75854   0.477   0.411   6.449 -0.2805  0.4687  1.6470
  550MOL0     H75855   0.523   0.249   6.421 -0.7288  1.9604 -1.1584
  550MOL0     H75856   0.431   0.219   6.616  1.7351 -1.6448  2.0378
  550MOL0     H75857   0.607   0.262   6.659  1.8870  0.3429 -2.5839
  550MOL0     H75858   0.253   0.497   6.798  0.4686 -2.1538 -3.4892
  550MOL0     H75859   0.091   0.555   6.952 -2.5311 -1.5380 -2.8659
  550MOL0     H75860   0.121   0.510   7.122  0.8827 -0.1156 -0.5901
  550MOL0     H75861   0.015   0.412   7.025 -0.6727  2.0166  0.0908
  550MOL0     H75862   0.420   0.071   7.472  0.9764 -3.0538  0.8554
  550MOL0     H75863   0.344  -0.081   7.661 -2.7591  1.8839  2.1029
  550MOL0     H75864   0.238  -0.254   7.834 -0.5453  1.2525  2.6234
  550MOL0     H75865   0.150  -0.095   7.820 -1.5867 -0.1729  0.8440
  550MOL0     H75866  -0.043  -0.292   7.800  0.8131 -1.1770  0.1764
  550MOL0     H75867   0.071  -0.351   7.938 -1.0647 -0.3584  3.3411
  550MOL0     H75868  -0.056  -0.070   7.901 -0.4593  2.6074  2.3928
  550MOL0     H75869   0.061  -0.115   8.020 -1.0389  1.2272 -0.1967
  550MOL0     H75870  -0.197  -0.292   8.008 -0.0139  1.9082 -0.7933
  550MOL0     H75871  -0.191  -0.139   8.099 -0.6827  0.1715 -0.1323
  550MOL0     H75872   0.045  -0.304   8.143 -0.0921  2.0209 -2.1175
  550MOL0     H75873  -0.039  -0.197   8.254  1.0670 -0.3784  0.1776
  550MOL0     H75874  -0.118  -0.481   8.176 -2.0714  0.3522 -0.6255
  550MOL0     H75875  -0.241  -0.361   8.226 -0.7601 -1.4734 -2.2028
  550MOL0     H75876  -0.133  -0.342   8.447 -5.7513  1.6048 -4.6808
  550MOL0     H75877   0.010  -0.440   8.404  0.0897 -2.6680  1.3024
  550MOL0     H75878  -0.191  -0.557   8.541 -0.5731 -0.8654  0.9126
  550MOL0     H75879  -0.142  -0.651   8.401 -0.0022  0.2367 -0.5809
  550MOL0     H75880  -0.019  -0.148   7.456 -0.3547  1.4153  3.4775
  550MOL0     H75881   0.041   0.013   7.266  3.1610  2.0385 -2.2736
  550MOL0     H75882   0.448   0.138   7.082  0.1169 -0.8603  0.0490
  550MOL0     H75883   0.549   0.210   6.863  0.2845  1.6788 -3.3040
  550MOL0     H75884   2.202   0.502   6.127 -0.4182  0.4054  1.2866
  550MOL0     H75885   2.371   0.367   6.228 -1.1808  2.2400 -1.3892
  550MOL0     H75886   2.349   0.028   6.605 -0.2049  0.0241  1.2580
  550MOL0     H75887   2.454  -0.131   6.759  0.2674 -0.1921 -0.9078
  550MOL0     H75888   2.761  -0.075   6.888  0.1934  0.7978  0.4795
  550MOL0     H75889   2.606  -0.159   6.905  2.3021 -0.2223  2.3992
  550MOL0     H75890   2.737  -0.242   7.058  1.6557  1.0450  1.4680
  550MOL0     H75891   2.867  -0.256   6.935 -1.2624 -1.5948  0.4001
  550MOL0     H75892   2.712  -0.424   6.815  4.3833 -0.6871  0.7986
  550MOL0     H75893   2.790  -0.481   6.952  2.6817  2.7089 -0.0096
  550MOL0     H75894   2.584  -0.420   7.099 -0.2876  1.1004 -0.1868
  550MOL0     H75895   2.565  -0.553   6.981  4.4455  0.4345 -3.6154
  550MOL0     H75896   2.270  -0.298   6.835 -1.2527  0.2916 -0.9195
  550MOL0     H75897   2.787  -0.168   6.504  1.4000  3.0722  0.5603
  550MOL0     H75898   2.798  -0.071   6.290  0.0360 -1.0850 -1.7362
  550MOL0     H75899   2.635  -0.079   6.219  0.0808 -0.6111  1.4966
  550MOL0     H75900   2.707   0.081   6.247 -0.7365 -0.1702 -1.4741
  551MOL0     O75901   4.938   0.022   2.928  0.5744  0.7308 -0.1954
  551MOL0     C75902   4.861  -0.074   2.911  0.6520 -0.2027  1.2188
  551MOL0     O75903   4.768  -0.114   3.001  0.4300  0.3060  0.4339
  551MOL0     C75904   4.740  -0.031   3.112 -0.1149  0.6660 -0.4284
  551MOL0     C75905   4.780  -0.072   3.239  0.5877  0.6994 -0.6962
  551MOL0     C75906   4.778   0.010   3.350  0.9291  1.4381 -0.2245
  551MOL0     C75907   4.747   0.148   3.335 -0.2814  0.4126  0.6044
  551MOL0     O75908   4.736   0.238   3.441  0.3976 -0.0478 -0.4408
  551MOL0     C75909   4.757   0.183   3.565 -0.4892  0.7234  0.0825
  551MOL0     C75910   4.756   0.299   3.665  0.6273  0.5443  0.6686
  551MOL0     C75911   4.617   0.335   3.696  0.6868  0.6696  0.4807
  551MOL0     C75912   4.614   0.455   3.789 -0.8597  0.2313 -0.2274
  551MOL0     C75913   4.491   0.548   3.765  0.0790  0.1652 -0.9407
  551MOL0     C75914   4.429   0.600   3.897 -0.2736 -0.4039 -1.8402
  551MOL0     C75915   4.280   0.637   3.885  0.7012 -0.3438  0.0334
  551MOL0     C75916   4.231   0.711   4.007 -0.1261  0.5375 -0.3031
  551MOL0     N75917   4.192   0.614   4.110  0.2842  0.6972 -0.7876
  551MOL0     C75918   4.282   0.540   4.195 -0.4389  0.3787 -0.2623
  551MOL0     C75919   4.205   0.458   4.273  0.9129  0.2735 -0.2050
  551MOL0     C75920   4.254   0.363   4.372  0.4431 -0.6397  1.3000
  551MOL0     C75921   4.342   0.249   4.318  0.8660 -0.9008  0.1590
  551MOL0     C75922   4.377   0.137   4.428  0.6566 -0.2557  0.4390
  551MOL0     C75923   4.426   0.195   4.560  0.2324 -0.0089 -0.2733
  551MOL0     O75924   4.554   0.264   4.554 -0.0896 -0.2272  0.2491
  551MOL0     C75925   4.668   0.193   4.557 -0.7014 -0.8311 -0.4032
  551MOL0     C75926   4.783   0.265   4.550 -0.1792  0.5385  0.9368
  551MOL0     C75927   4.898   0.208   4.523  0.8215  0.1528 -0.3132
  551MOL0     C75928   5.018   0.303   4.550  0.3665 -0.1309 -0.0426
  551MOL0     C75929   4.910   0.076   4.502 -0.6218  0.0208  0.0097
  551MOL0     C75930   5.037   0.022   4.461  0.9767  0.0926  0.4207
  551MOL0     O75931   5.065  -0.091   4.528 -0.2663 -0.3923 -0.3566
  551MOL0     C75932   5.137  -0.195   4.471  0.2745 -0.4922  1.3586
  551MOL0     C75933   5.202  -0.287   4.556 -0.2893 -0.0317 -1.0241
  551MOL0     C75934   5.266  -0.406   4.502 -0.2260  0.0783  0.7005
  551MOL0     C75935   5.277  -0.425   4.365  0.6034 -0.2579  0.4873
  551MOL0     O75936   5.348  -0.530   4.314  0.4234 -0.0896  0.2089
  551MOL0     C75937   5.277  -0.615   4.218  0.5032  0.3388  0.4504
  551MOL0     C75938   5.268  -0.749   4.288  0.0031  0.6397 -1.3646
  551MOL0     C75939   5.249  -0.871   4.185  0.3439  0.4712 -0.5717
  551MOL0     C75940   5.288  -1.008   4.259  0.5602  0.3137  0.6043
  551MOL0     C75941   5.276  -1.136   4.166 -0.4949  0.0151  0.0213
  551MOL0     C75942   5.298  -1.262   4.251  1.3216 -0.3651  0.1061
  551MOL0     C75943   5.292  -1.396   4.185 -0.2276  0.1618  0.3066
  551MOL0     C75944   5.298  -1.512   4.291  0.3289  0.9327 -0.0251
  551MOL0    Cl75945   5.380  -1.661   4.233  0.3706 -0.2613  0.0343
  551MOL0     C75946   5.217  -0.324   4.280 -1.3184  0.5680  1.1209
  551MOL0     C75947   5.157  -0.214   4.331  1.2068  0.2281 -0.0412
  551MOL0     O75948   5.106   0.068   4.371 -0.0759 -0.1500  0.2844
  551MOL0     C75949   4.799  -0.008   4.510 -0.0766 -0.9160 -0.2487
  551MOL0     C75950   4.681   0.055   4.543  0.2735  0.1179  0.9286
  551MOL0     N75951   4.070   0.491   4.243 -0.7361  0.3726  1.0614
  551MOL0     N75952   4.066   0.577   4.147  0.1291 -0.0761  0.3796
  551MOL0     C75953   4.708   0.189   3.203 -0.4025  0.7427  0.0133
  551MOL0     C75954   4.705   0.104   3.096  0.2347  0.1459 -0.3416
  551MOL0     C75955   4.889  -0.149   2.781 -0.1674 -0.1429  0.1730
  551MOL0     C75956   4.920  -0.071   2.665  0.2800  0.1538 -0.2914
  551MOL0     C75957   4.937  -0.134   2.536 -0.7215  0.0176 -0.1397
  551MOL0     C75958   4.945  -0.273   2.530  0.3797  0.3286 -0.5321
  551MOL0     O75959   4.972  -0.313   2.399 -0.5691  0.2334  0.3123
  551MOL0     C75960   4.994  -0.457   2.383  0.3138 -0.1805 -0.4092
  551MOL0     C75961   4.979  -0.514   2.243 -0.3984 -0.6285 -0.4539
  551MOL0     C75962   4.869  -0.444   2.163  0.3270  1.0729 -0.2034
  551MOL0     C75963   4.725  -0.450   2.229 -0.5292  0.4608 -0.9281
  551MOL0     C75964   4.632  -0.361   2.164 -0.2805 -0.6729 -0.6336
  551MOL0     C75965   4.566  -0.271   2.117 -0.9694  0.4967 -0.0966
  551MOL0     C75966   4.926  -0.356   2.649 -0.9881  0.1336 -0.6214
  551MOL0     C75967   4.894  -0.290   2.773 -0.4597  0.7946 -0.1508
  551MOL0     C75968   4.870  -0.372   2.897  0.8261  0.2265 -0.4699
  551MOL0     H75969   4.823  -0.171   3.252 -2.0901 -0.7920 -2.0668
  551MOL0     H75970   4.798  -0.035   3.447 -2.8360  1.8540  0.9119
  551MOL0     H75971   4.859   0.145   3.566 -0.2546  1.3143 -0.3434
  551MOL0     H75972   4.683   0.111   3.601  0.9266 -0.0411  1.5989
  551MOL0     H75973   4.796   0.264   3.761  3.4691  1.7344  0.0147
  551MOL0     H75974   4.825   0.379   3.639  2.7568 -0.8662  1.6633
  551MOL0     H75975   4.573   0.367   3.601 -1.1630 -0.4254  0.9197
  551MOL0     H75976   4.550   0.253   3.724 -2.3767  3.3048  1.5807
  551MOL0     H75977   4.608   0.413   3.890 -1.4527 -2.6380 -1.3359
  551MOL0     H75978   4.706   0.512   3.780  0.5313 -1.9743 -0.6782
  551MOL0     H75979   4.415   0.498   3.704 -1.1418  3.5626 -2.4713
  551MOL0     H75980   4.521   0.628   3.697  1.2112  0.6053  0.0457
  551MOL0     H75981   4.430   0.520   3.972  4.4547 -0.4525 -1.6751
  551MOL0     H75982   4.489   0.678   3.944  0.2148  0.2751 -3.4948
  551MOL0     H75983   4.213   0.555   3.857  0.8955 -0.7781  0.8313
  551MOL0     H75984   4.281   0.712   3.805  1.8186 -1.7679 -1.3823
  551MOL0     H75985   4.312   0.776   4.040 -0.6668  0.0018  2.3579
  551MOL0     H75986   4.149   0.774   3.972  0.1970  2.1988  1.7643
  551MOL0     H75987   4.390   0.535   4.180 -0.3419  1.0715  0.1660
  551MOL0     H75988   4.163   0.321   4.417  0.4763  0.4367  2.4181
  551MOL0     H75989   4.316   0.423   4.439 -0.0332 -0.4528  1.5749
  551MOL0     H75990   4.298   0.201   4.230 -4.5221  1.5950  1.0630
  551MOL0     H75991   4.432   0.306   4.294  0.1035  0.5235  0.5484
  551MOL0     H75992   4.278   0.096   4.452 -0.8646  1.6212 -2.0821
  551MOL0     H75993   4.438   0.054   4.390 -0.0415  0.3278 -2.1834
  551MOL0     H75994   4.350   0.260   4.604 -0.1267  1.8430 -3.3129
  551MOL0     H75995   4.436   0.110   4.628  1.5001  3.0818  3.7683
  551MOL0     H75996   4.784   0.374   4.550  0.7640  0.5995 -1.9309
  551MOL0     H75997   5.097   0.246   4.600 -0.2907 -0.1350  1.0136
  551MOL0     H75998   4.991   0.374   4.629  0.5149 -0.2075  0.0783
  551MOL0     H75999   5.058   0.362   4.467  1.7683  1.3315  1.5662
  551MOL0     H76000   5.187  -0.293   4.663 -5.1093 -1.8716 -1.5207
  551MOL0     H76001   5.299  -0.489   4.563 -0.8417 -0.1988  0.6667
  551MOL0     H76002   5.171  -0.595   4.196 -0.2796 -1.6980  2.0647
  551MOL0     H76003   5.331  -0.642   4.127 -0.8521 -3.0779  0.5278
  551MOL0     H76004   5.369  -0.762   4.329  1.2189  0.9773 -4.0271
  551MOL0     H76005   5.189  -0.752   4.363  2.6669 -0.6243  1.6430
  551MOL0     H76006   5.303  -0.850   4.093  2.4188  0.7199  0.6463
  551MOL0     H76007   5.144  -0.879   4.155  0.2671 -0.5505 -0.0926
  551MOL0     H76008   5.228  -1.035   4.346  2.1621 -3.4701  0.7075
  551MOL0     H76009   5.395  -0.991   4.272  0.4417  3.8573 -1.7143
  551MOL0     H76010   5.175  -1.139   4.124  0.6208  0.3977 -2.8841
  551MOL0     H76011   5.350  -1.123   4.087  0.1131  1.1958  0.7504
  551MOL0     H76012   5.216  -1.260   4.323  3.7222  3.1079  3.0949
  551MOL0     H76013   5.390  -1.250   4.309  0.9533  0.7939  0.4691
  551MOL0     H76014   5.387  -1.410   4.133  0.2184  3.1830  0.1625
  551MOL0     H76015   5.218  -1.378   4.107 -0.9236  1.7784  1.2873
  551MOL0     H76016   5.193  -1.532   4.313 -0.3195  3.4047 -0.5344
  551MOL0     H76017   5.347  -1.473   4.381 -1.3721 -0.9495  1.8055
  551MOL0     H76018   5.231  -0.341   4.174  1.2571  0.5550  1.3877
  551MOL0     H76019   5.114  -0.149   4.255  1.7915 -0.9528 -1.4239
  551MOL0     H76020   4.800  -0.115   4.487  1.4532 -0.5087 -2.3964
  551MOL0     H76021   4.593  -0.008   4.538 -0.8607  1.7524 -2.0383
  551MOL0     H76022   4.675   0.291   3.191 -3.1678 -0.2773 -1.8853
  551MOL0     H76023   4.672   0.139   2.999  2.0771  1.2505 -0.6145
  551MOL0     H76024   4.929   0.037   2.669 -1.7609  0.3309  1.0435
  551MOL0     H76025   4.974  -0.065   2.460 -0.2984  1.7173  1.5215
  551MOL0     H76026   5.090  -0.500   2.413 -0.2972 -0.8547  0.6266
  551MOL0     H76027   4.914  -0.505   2.440 -1.2536  1.1939 -1.3555
  551MOL0     H76028   4.958  -0.621   2.250 -2.5924 -0.1126  2.5898
  551MOL0     H76029   5.077  -0.491   2.200  0.2383 -0.6539  0.9549
  551MOL0     H76030   4.905  -0.342   2.147  2.3954  0.6656  1.3575
  551MOL0     H76031   4.858  -0.490   2.065 -0.7753  3.0008 -1.0494
  551MOL0     H76032   4.740  -0.421   2.334  0.2562 -0.8084 -0.6617
  551MOL0     H76033   4.685  -0.551   2.241  0.4432  0.1981  0.3458
  551MOL0     H76034   4.517  -0.179   2.095  1.4565  2.3113  1.5052
  551MOL0     H76035   4.958  -0.460   2.647  2.4831  0.9534  2.0399
  551MOL0     H76036   4.863  -0.478   2.874 -0.2080 -0.7315  3.5350
  551MOL0     H76037   4.947  -0.340   2.967  1.3828  2.2707 -1.9067
  551MOL0     H76038   4.775  -0.355   2.949 -0.3324  0.9928 -2.6784
  552MOL0     O76039   4.579   2.275   7.798  0.4620 -0.5108  1.1344
  552MOL0     C76040   4.544   2.366   7.874  0.6318 -1.6276 -0.7403
  552MOL0     O76041   4.607   2.492   7.873 -0.2126 -0.2705  0.2666
  552MOL0     C76042   4.709   2.508   7.781 -0.3297 -0.6579  0.0293
  552MOL0     C76043   4.690   2.590   7.668 -0.8082  1.1619 -0.0148
  552MOL0     C76044   4.799   2.609   7.587 -0.4744  0.5717 -0.3675
  552MOL0     C76045   4.918   2.540   7.608 -1.8131 -0.2088 -0.7766
  552MOL0     O76046   5.025   2.558   7.518 -0.4611  1.1134  0.1047
  552MOL0     C76047   5.053   2.672   7.438 -0.1072  0.3487  0.9105
  552MOL0     C76048   5.196   2.681   7.386  1.5913  0.0735 -0.2742
  552MOL0     C76049   5.288   2.680   7.513  0.2641  0.1231 -0.4364
  552MOL0     C76050   5.314   2.824   7.575 -0.8589 -0.0608  0.6132
  552MOL0     C76051   5.408   2.823   7.700 -0.0724 -0.3559  0.3508
  552MOL0     C76052   5.557   2.781   7.672 -0.5290 -0.4223 -0.2861
  552MOL0     C76053   5.640   2.835   7.788  0.3689 -0.2475 -0.2757
  552MOL0     C76054   5.781   2.789   7.788  0.7454 -0.0425 -0.2787
  552MOL0     N76055   5.853   2.810   7.909  0.8819 -0.0688 -0.6303
  552MOL0     C76056   5.961   2.733   7.952  0.0454  0.4052  0.4470
  552MOL0     C76057   5.969   2.762   8.080  0.5198  0.1436 -0.3452
  552MOL0     C76058   6.061   2.708   8.187 -0.8099  0.2711 -0.2213
  552MOL0     C76059   6.065   2.760   8.323 -0.9802 -0.2494  0.4637
  552MOL0     C76060   6.134   2.680   8.437 -0.3375  0.0470  0.0158
  552MOL0     C76061   6.031   2.583   8.490  1.0721 -0.4023 -0.7677
  552MOL0     O76062   6.077   2.512   8.604 -0.9630 -0.8274  0.5079
  552MOL0     C76063   5.999   2.431   8.675 -0.5148 -0.2640  0.3970
  552MOL0     C76064   6.055   2.376   8.787  0.4644 -0.6175  0.2322
  552MOL0     C76065   5.988   2.276   8.867 -0.8838  0.4013  0.7775
  552MOL0     C76066   6.074   2.220   8.975 -0.3301 -0.1376 -0.0644
  552MOL0     C76067   5.849   2.243   8.835 -0.9658 -0.0883  0.2500
  552MOL0     C76068   5.764   2.150   8.913  0.1528 -0.6214  0.5023
  552MOL0     O76069   5.636   2.132   8.859 -0.6708  0.9058  0.0916
  552MOL0     C76070   5.544   2.066   8.943 -0.2185  0.1175 -0.4969
  552MOL0     C76071   5.531   1.930   8.932 -0.4225 -0.2740  0.5842
  552MOL0     C76072   5.434   1.861   9.000 -0.1070 -0.0266 -0.1333
  552MOL0     C76073   5.339   1.925   9.075  0.7792  0.2725 -0.9586
  552MOL0     O76074   5.250   1.838   9.130  0.7057  0.9002  0.6111
  552MOL0     C76075   5.171   1.900   9.233 -0.5194  0.9273  0.7852
  552MOL0     C76076   5.122   1.776   9.315  0.0753 -0.3933  0.9411
  552MOL0     C76077   5.229   1.734   9.414 -0.4390  0.5060  0.4262
  552MOL0     C76078   5.180   1.626   9.509  0.7166 -0.2044 -0.7028
  552MOL0     C76079   5.221   1.493   9.468 -0.0309  0.7674 -0.0631
  552MOL0     C76080   5.156   1.377   9.540 -0.4233 -0.0011  0.0966
  552MOL0     C76081   5.245   1.251   9.536  0.3398  0.6658  0.1163
  552MOL0     C76082   5.232   1.155   9.655 -0.9477 -0.4390  0.3770
  552MOL0    Cl76083   5.064   1.132   9.692 -0.1686  0.1786  0.3929
  552MOL0     C76084   5.352   2.059   9.081 -1.0947  0.3620  0.1371
  552MOL0     C76085   5.455   2.135   9.022 -0.4493  0.1663 -0.4269
  552MOL0     O76086   5.819   2.077   9.000  0.1773 -0.1874  0.0342
  552MOL0     C76087   5.789   2.321   8.733 -1.5670  0.7389 -0.5987
  552MOL0     C76088   5.866   2.409   8.651  0.1626  0.2332 -0.4335
  552MOL0     N76089   5.874   2.863   8.113 -1.0870 -0.3246 -0.6815
  552MOL0     N76090   5.816   2.903   8.010 -0.1922  0.3157  1.3268
  552MOL0     C76091   4.940   2.459   7.712 -0.3233 -0.3319 -0.0698
  552MOL0     C76092   4.839   2.450   7.807  0.4517  0.8617  0.2824
  552MOL0     C76093   4.433   2.356   7.974 -0.4314 -1.1237  0.0548
  552MOL0     C76094   4.429   2.452   8.084  0.1477 -0.4321 -0.8785
  552MOL0     C76095   4.322   2.456   8.178 -0.2640 -0.7668 -0.2178
  552MOL0     C76096   4.219   2.345   8.173 -0.2099 -0.0376  0.5918
  552MOL0     O76097   4.118   2.348   8.260  0.0590 -0.0708 -0.8310
  552MOL0     C76098   4.021   2.242   8.253  0.3561  0.4774 -0.1426
  552MOL0     C76099   3.902   2.262   8.352  0.0868  1.5987  0.7609
  552MOL0     C76100   3.862   2.409   8.349 -0.5361 -0.2611  0.0509
  552MOL0     C76101   3.728   2.422   8.430 -0.0088 -0.3182 -0.7667
  552MOL0     C76102   3.654   2.550   8.401 -0.5955 -0.3050 -0.1074
  552MOL0     C76103   3.594   2.647   8.371  0.6962 -0.2237  1.1403
  552MOL0     C76104   4.241   2.246   8.074 -0.3580 -0.6126 -0.5755
  552MOL0     C76105   4.343   2.251   7.972  1.1603  0.1539  0.8319
  552MOL0     C76106   4.334   2.146   7.869  0.8483 -0.0744  0.0362
  552MOL0     H76107   4.605   2.655   7.647  0.6858  3.5930  0.9375
  552MOL0     H76108   4.777   2.682   7.511 -4.3708  0.6388  0.6268
  552MOL0     H76109   5.046   2.763   7.497  0.3568  0.0812  1.3817
  552MOL0     H76110   4.974   2.672   7.361  1.6935 -1.2097 -1.0722
  552MOL0     H76111   5.225   2.582   7.350  1.3369 -0.3216  0.5895
  552MOL0     H76112   5.223   2.756   7.311  0.3967 -3.0531 -4.1522
  552MOL0     H76113   5.256   2.601   7.582 -0.4967 -1.6232 -2.6658
  552MOL0     H76114   5.386   2.643   7.482 -1.5043 -1.9754 -4.0879
  552MOL0     H76115   5.356   2.883   7.493 -0.4587 -0.1784  0.7300
  552MOL0     H76116   5.217   2.863   7.605  0.4734  1.6216  3.1651
  552MOL0     H76117   5.372   2.756   7.780 -1.4367 -1.2700 -0.9648
  552MOL0     H76118   5.399   2.925   7.738  3.9947  0.1126  0.4999
  552MOL0     H76119   5.563   2.672   7.675  1.7837 -0.3281 -0.1536
  552MOL0     H76120   5.596   2.829   7.582  4.5016  1.3873  2.5173
  552MOL0     H76121   5.594   2.826   7.887  3.3751  0.5164  1.3059
  552MOL0     H76122   5.653   2.943   7.771  1.8895 -0.3412  0.1844
  552MOL0     H76123   5.776   2.680   7.774  4.2808  0.0831 -5.1695
  552MOL0     H76124   5.835   2.808   7.695  2.2006  2.2373  0.9567
  552MOL0     H76125   6.022   2.661   7.899  0.6377 -1.1068  3.0210
  552MOL0     H76126   6.161   2.698   8.144 -0.3301 -1.7624  1.2230
  552MOL0     H76127   6.045   2.601   8.195  0.9491  0.1192  3.2946
  552MOL0     H76128   6.118   2.853   8.305 -0.5772 -0.2394  1.6528
  552MOL0     H76129   5.966   2.785   8.361  0.2545  1.7896  2.5642
  552MOL0     H76130   6.228   2.634   8.404 -1.7986 -2.6662 -0.7134
  552MOL0     H76131   6.156   2.748   8.520 -1.1864  1.7464 -1.1161
  552MOL0     H76132   5.944   2.636   8.530  0.5941 -0.6707 -1.4332
  552MOL0     H76133   5.994   2.511   8.417  1.8897 -1.3855 -0.2345
  552MOL0     H76134   6.161   2.391   8.801  0.4764 -2.0772  2.0710
  552MOL0     H76135   6.100   2.120   8.939 -0.4853 -1.6193  3.5324
  552MOL0     H76136   6.024   2.201   9.070 -2.9377 -1.7440 -1.6093
  552MOL0     H76137   6.173   2.265   8.985 -0.6490  0.8185 -1.0575
  552MOL0     H76138   5.605   1.872   8.878 -0.9202  0.1258 -0.5678
  552MOL0     H76139   5.434   1.753   8.994  2.3408 -0.0623 -0.5275
  552MOL0     H76140   5.221   1.980   9.290  1.5622  1.1496 -1.1966
  552MOL0     H76141   5.085   1.945   9.182 -2.9566 -0.4273  3.4177
  552MOL0     H76142   5.026   1.800   9.362 -0.2462  2.2864 -0.8973
  552MOL0     H76143   5.092   1.694   9.249 -0.3546  1.0535 -0.7392
  552MOL0     H76144   5.264   1.813   9.481  2.8546 -0.4156 -0.0319
  552MOL0     H76145   5.326   1.716   9.367 -0.4137  2.8153 -0.5719
  552MOL0     H76146   5.072   1.639   9.522  0.6889  0.7913 -1.7171
  552MOL0     H76147   5.212   1.635   9.613  1.2919 -0.9126 -0.8065
  552MOL0     H76148   5.207   1.490   9.360 -0.9514  1.1702  0.0398
  552MOL0     H76149   5.328   1.483   9.489 -0.2195 -1.0004  0.2261
  552MOL0     H76150   5.060   1.358   9.491 -0.8778  1.1051  0.5322
  552MOL0     H76151   5.138   1.404   9.645  0.1293  1.9755 -0.2803
  552MOL0     H76152   5.351   1.277   9.538  0.4639  0.8807 -3.4613
  552MOL0     H76153   5.211   1.205   9.442 -1.0631  2.8544 -0.5212
  552MOL0     H76154   5.274   1.205   9.742 -1.7828 -1.3450  1.3424
  552MOL0     H76155   5.286   1.060   9.648  2.8842  1.5847 -0.1662
  552MOL0     H76156   5.291   2.120   9.146 -3.5823 -0.5503 -1.2304
  552MOL0     H76157   5.439   2.242   9.028  0.3240  0.3617 -1.4938
  552MOL0     H76158   5.685   2.297   8.712 -1.9808  0.8249  1.1391
  552MOL0     H76159   5.814   2.460   8.571  1.4004  0.3982 -1.1576
  552MOL0     H76160   5.033   2.406   7.733 -1.7489 -2.0944  2.3098
  552MOL0     H76161   4.863   2.406   7.903  0.5779  1.4463  0.5245
  552MOL0     H76162   4.492   2.541   8.093  1.1741 -1.2267  0.0696
  552MOL0     H76163   4.310   2.541   8.243 -2.0023  1.3061 -3.0028
  552MOL0     H76164   3.979   2.240   8.152 -2.3028 -2.4055  0.8799
  552MOL0     H76165   4.063   2.144   8.276 -1.2913 -0.7592 -2.0222
  552MOL0     H76166   3.929   2.222   8.450 -2.3071  0.4058  1.0079
  552MOL0     H76167   3.826   2.193   8.314  3.1120 -1.3909 -0.2537
  552MOL0     H76168   3.925   2.473   8.411  0.1675 -2.1855  1.3927
  552MOL0     H76169   3.851   2.447   8.247 -0.3639  2.4833  0.9565
  552MOL0     H76170   3.750   2.402   8.535  1.1708  0.1553 -0.9158
  552MOL0     H76171   3.668   2.342   8.385  0.4721 -0.7386 -0.6575
  552MOL0     H76172   3.560   2.747   8.355  0.5434 -0.5900 -1.2720
  552MOL0     H76173   4.164   2.169   8.069 -2.5850  1.5880 -3.2349
  552MOL0     H76174   4.408   2.067   7.886 -0.1629 -1.7645 -2.6758
  552MOL0     H76175   4.238   2.093   7.867  2.4214 -3.2451 -3.0047
  552MOL0     H76176   4.336   2.186   7.767  1.1318 -0.9672 -0.3243
  553MOL0     O76177   0.947  10.660   0.765 -1.3719  0.4979  0.3655
  553MOL0     C76178   0.890  10.691   0.872 -0.0277 -0.9656 -0.5561
  553MOL0     O76179   0.959  10.702   0.992 -0.5398  0.1396 -0.9865
  553MOL0     C76180   1.083  10.654   1.008 -0.9048 -0.3439  0.8953
  553MOL0     C76181   1.187  10.710   0.926 -0.0382  0.1666  0.1979
  553MOL0     C76182   1.312  10.674   0.952 -0.2812 -0.3926  1.5399
  553MOL0     C76183   1.347  10.578   1.041 -0.2248  0.8916  0.0824
  553MOL0     O76184   1.483  10.547   1.063 -0.0034  0.3136 -0.6609
  553MOL0     C76185   1.535  10.608   1.183  0.1408 -0.1205  0.4384
  553MOL0     C76186   1.687  10.558   1.214  0.9167  0.0518  0.9569
  553MOL0     C76187   1.793  10.664   1.182  0.4520 -0.3273  0.3855
  553MOL0     C76188   1.927  10.607   1.223 -0.0966  0.0701  1.0111
  553MOL0     C76189   2.026  10.715   1.274  0.1645  0.8730 -0.3129
  553MOL0     C76190   2.150  10.653   1.338  0.3189  0.2417 -0.8470
  553MOL0     C76191   2.264  10.756   1.335 -0.0805  0.1632 -0.7971
  553MOL0     C76192   2.397  10.698   1.385  0.2655 -1.4346  0.3532
  553MOL0     N76193   2.381  10.618   1.500 -0.0357  0.6570  0.3619
  553MOL0     C76194   2.369  10.665   1.625 -0.0736  0.6497 -1.1806
  553MOL0     C76195   2.365  10.552   1.704  0.2335 -0.4646 -0.4899
  553MOL0     C76196   2.353  10.540   1.858 -0.0158 -0.2288  0.7275
  553MOL0     C76197   2.229  10.447   1.886 -0.7406  0.8087  0.9280
  553MOL0     C76198   2.176  10.469   2.029 -0.1386  0.1354  0.2348
  553MOL0     C76199   2.075  10.345   2.046  0.7759 -0.1797 -0.0375
  553MOL0     O76200   2.011  10.367   2.175 -0.2492  0.2161 -0.1198
  553MOL0     C76201   2.076  10.356   2.293 -0.1021  0.4800  0.2067
  553MOL0     C76202   2.186  10.274   2.313  0.7859 -0.7180  0.1534
  553MOL0     C76203   2.245  10.242   2.430  0.7225 -0.2057  0.0017
  553MOL0     C76204   2.358  10.141   2.428  0.2562 -0.6380 -0.3011
  553MOL0     C76205   2.192  10.301   2.551 -0.5727 -1.1231 -0.0502
  553MOL0     C76206   2.258  10.277   2.678 -0.0815 -0.1301 -0.8259
  553MOL0     O76207   2.215  10.367   2.769 -0.5329 -0.9420 -0.0154
  553MOL0     C76208   2.251  10.373   2.897  0.7630 -0.5297 -0.4486
  553MOL0     C76209   2.197  10.482   2.969 -0.1232  0.2520  1.3620
  553MOL0     C76210   2.200  10.493   3.110  0.2622 -0.3964 -0.1631
  553MOL0     C76211   2.268  10.408   3.184  0.3294  0.5601 -0.8100
  553MOL0     O76212   2.249  10.415   3.321 -0.0011  0.6319  0.4374
  553MOL0     C76213   2.121  10.460   3.375 -0.5174  0.7972  0.2155
  553MOL0     C76214   2.092  10.395   3.510  0.5161 -0.5986 -0.4980
  553MOL0     C76215   2.101  10.238   3.520 -0.5951 -0.4853  0.2196
  553MOL0     C76216   2.031  10.196   3.656 -0.1846 -0.0348 -0.2374
  553MOL0     C76217   1.997  10.047   3.660  0.8559  0.0711 -0.6093
  553MOL0     C76218   2.112   9.952   3.664 -0.5222 -0.9123  0.0164
  553MOL0     C76219   2.167   9.912   3.523 -0.0657  0.3583  0.1851
  553MOL0     C76220   2.272   9.794   3.538  1.1180  0.5837 -0.5470
  553MOL0    Cl76221   2.201   9.656   3.628  0.1225 -0.0311 -0.2323
  553MOL0     C76222   2.334  10.302   3.118  0.5216 -0.4420  1.1003
  553MOL0     C76223   2.322  10.280   2.983  1.0220 -1.1087  0.9535
  553MOL0     O76224   2.310  10.171   2.704 -0.1260 -0.1629  0.5118
  553MOL0     C76225   2.065  10.368   2.539 -0.1870  0.8726 -0.5167
  553MOL0     C76226   2.017  10.404   2.409 -0.3290  0.1516 -0.8488
  553MOL0     N76227   2.371  10.447   1.628 -0.5443  0.6071  0.0759
  553MOL0     N76228   2.395  10.482   1.500  0.2798 -0.7023 -0.2815
  553MOL0     C76229   1.249  10.516   1.120 -0.6784 -0.3046 -1.0143
  553MOL0     C76230   1.116  10.555   1.102  0.1749 -1.2053 -0.0439
  553MOL0     C76231   0.751  10.742   0.873 -0.0656 -0.8897  0.3382
  553MOL0     C76232   0.702  10.808   0.988 -0.8356  1.7747  0.3661
  553MOL0     C76233   0.583  10.870   0.989 -0.7466 -0.8111 -0.0275
  553MOL0     C76234   0.496  10.882   0.874 -0.6632 -0.1228 -0.3877
  553MOL0     O76235   0.373  10.944   0.873  0.0249 -0.9368  0.5270
  553MOL0     C76236   0.310  11.014   0.984 -0.5992  1.2561  0.1106
  553MOL0     C76237   0.355  11.154   0.979  0.2506 -0.4827  0.5034
  553MOL0     C76238   0.307  11.223   0.848  0.5639  0.5441 -0.4552
  553MOL0     C76239   0.324  11.374   0.827 -0.3737 -0.0414  0.6588
  553MOL0     C76240   0.288  11.421   0.693  0.0298 -0.6003  1.1473
  553MOL0     C76241   0.255  11.438   0.582  0.6389 -0.6643 -0.4499
  553MOL0     C76242   0.537  10.810   0.766 -0.1180  0.6559  0.2793
  553MOL0     C76243   0.665  10.742   0.759  0.4163  0.0004 -0.0469
  553MOL0     C76244   0.692  10.665   0.635 -0.8245  0.5422 -0.3687
  553MOL0     H76245   1.172  10.779   0.843 -0.0929  0.8501  0.7740
  553MOL0     H76246   1.394  10.711   0.891  0.0223 -1.6850  1.1381
  553MOL0     H76247   1.475  10.578   1.269  1.1738 -2.5805  0.3914
  553MOL0     H76248   1.529  10.717   1.174 -0.7746 -0.2125 -0.1842
  553MOL0     H76249   1.694  10.533   1.320  1.5668  1.6422  1.3136
  553MOL0     H76250   1.708  10.470   1.153 -1.6113  0.9371 -1.3869
  553MOL0     H76251   1.786  10.691   1.077  0.0546  2.5268  1.0411
  553MOL0     H76252   1.776  10.752   1.245  3.2005  3.5711 -3.7294
  553MOL0     H76253   1.918  10.517   1.285  0.2062  0.8340  2.1912
  553MOL0     H76254   1.980  10.571   1.135 -1.0212  0.6426  0.1968
  553MOL0     H76255   1.982  10.773   1.356 -0.6472 -0.5074  0.2659
  553MOL0     H76256   2.051  10.774   1.185  1.9741 -0.8524 -1.0215
  553MOL0     H76257   2.127  10.623   1.441 -0.5633 -0.5932 -1.2722
  553MOL0     H76258   2.190  10.568   1.282 -1.0987 -0.4239 -0.9058
  553MOL0     H76259   2.249  10.841   1.403 -1.6346 -1.8381  1.5023
  553MOL0     H76260   2.281  10.788   1.231 -1.7742 -2.8417 -2.1077
  553MOL0     H76261   2.433  10.636   1.303  3.6314 -0.3793  0.8689
  553MOL0     H76262   2.470  10.779   1.398 -1.2902  0.4403 -1.9049
  553MOL0     H76263   2.368  10.765   1.668  0.6466 -0.0088  0.4661
  553MOL0     H76264   2.322  10.641   1.884  0.1819  0.4627 -1.5292
  553MOL0     H76265   2.449  10.516   1.905  2.0307  0.4488 -2.7803
  553MOL0     H76266   2.150  10.456   1.811  0.1122 -1.6819 -0.4052
  553MOL0     H76267   2.262  10.344   1.868  0.4838  1.3749 -0.2333
  553MOL0     H76268   2.265  10.458   2.092  0.6484  1.3718 -0.6177
  553MOL0     H76269   2.121  10.559   2.055 -0.2166 -0.1119  0.9477
  553MOL0     H76270   2.001  10.341   1.966  0.1528 -2.0251  0.5798
  553MOL0     H76271   2.122  10.246   2.047  0.3431 -0.4341  2.5982
  553MOL0     H76272   2.226  10.225   2.225 -0.9948 -1.3805 -0.3452
  553MOL0     H76273   2.455  10.179   2.462  0.6772  0.1855 -2.3301
  553MOL0     H76274   2.382  10.114   2.325  0.4520  0.5814 -0.5869
  553MOL0     H76275   2.319  10.062   2.493 -0.9405  2.1572  2.7027
  553MOL0     H76276   2.150  10.556   2.903  2.0929 -1.2144 -2.1736
  553MOL0     H76277   2.144  10.575   3.153 -1.1096  0.4017 -3.1888
  553MOL0     H76278   2.121  10.569   3.384  0.6035  0.8079  0.2225
  553MOL0     H76279   2.041  10.424   3.310  1.9445 -3.2225 -0.9895
  553MOL0     H76280   2.146  10.433   3.598 -0.2025  3.2762 -1.5380
  553MOL0     H76281   1.988  10.412   3.539  0.6613 -2.4981  1.3871
  553MOL0     H76282   2.206  10.208   3.511 -0.2908  0.5037  0.3011
  553MOL0     H76283   2.046  10.202   3.432  2.2543 -0.2233 -1.8143
  553MOL0     H76284   1.935  10.248   3.667 -0.9272 -1.0133 -1.7985
  553MOL0     H76285   2.079  10.222   3.751  2.0436 -0.7032 -1.1328
  553MOL0     H76286   1.940  10.039   3.753  2.2288  0.4509  0.3077
  553MOL0     H76287   1.935  10.017   3.575 -2.8153  0.9713  1.5315
  553MOL0     H76288   2.074   9.865   3.718 -2.4736  0.1478  0.4492
  553MOL0     H76289   2.198   9.990   3.721 -0.3621 -3.2137  1.4525
  553MOL0     H76290   2.215   9.995   3.470 -2.1288  0.6032 -1.4413
  553MOL0     H76291   2.084   9.886   3.457 -2.4849  2.7835  2.0393
  553MOL0     H76292   2.344   9.846   3.602 -1.3712 -0.6369  3.6730
  553MOL0     H76293   2.326   9.764   3.448  1.7939 -0.8575  0.3069
  553MOL0     H76294   2.388  10.226   3.173  2.1070 -0.3152 -0.2003
  553MOL0     H76295   2.351  10.178   2.959  3.3254 -0.5461  1.1048
  553MOL0     H76296   2.022  10.429   2.619 -0.4769  2.6750 -1.9620
  553MOL0     H76297   1.926  10.462   2.400 -0.9223 -0.9028 -2.0247
  553MOL0     H76298   1.292  10.457   1.200 -2.4345 -0.2507  0.0146
  553MOL0     H76299   1.033  10.520   1.163 -0.3426 -0.4402 -0.2971
  553MOL0     H76300   0.760  10.802   1.079 -0.3328  0.1904 -0.0303
  553MOL0     H76301   0.550  10.909   1.085  0.1943  0.4084 -0.1699
  553MOL0     H76302   0.202  11.000   0.972 -0.1623 -2.8039 -0.6107
  553MOL0     H76303   0.341  10.970   1.079 -1.2200 -0.2340 -0.3418
  553MOL0     H76304   0.461  11.177   0.991  0.1618  0.7216 -0.8498
  553MOL0     H76305   0.300  11.204   1.059  0.9406  0.4721  0.4000
  553MOL0     H76306   0.350  11.159   0.771 -0.5072 -2.6853  1.4243
  553MOL0     H76307   0.198  11.214   0.848  0.6182 -0.2058 -0.8547
  553MOL0     H76308   0.429  11.401   0.841 -0.3253  4.4256 -4.7560
  553MOL0     H76309   0.260  11.426   0.899 -3.6463  0.0508 -2.0735
  553MOL0     H76310   0.233  11.467   0.481  2.0008 -0.8763 -0.8192
  553MOL0     H76311   0.477  10.805   0.676  2.1627  2.0866 -1.3940
  553MOL0     H76312   0.737  10.567   0.657  0.0903  0.5075 -2.2464
  553MOL0     H76313   0.602  10.640   0.579 -1.3478 -3.4286  1.8047
  553MOL0     H76314   0.759  10.722   0.571  2.5389 -4.0529 -1.5487
  554MOL0     O76315   0.086   6.200   0.316  0.0805  0.4652  0.4866
  554MOL0     C76316   0.206   6.210   0.335 -0.1070  0.9303  0.4363
  554MOL0     O76317   0.250   6.320   0.399  0.6726 -0.1416 -0.4971
  554MOL0     C76318   0.172   6.441   0.412  0.2961  0.5925 -0.2895
  554MOL0     C76319   0.112   6.478   0.533 -1.2164  0.9046  0.8294
  554MOL0     C76320   0.026   6.582   0.543  0.2102  0.1026 -0.3170
  554MOL0     C76321  -0.015   6.649   0.443 -0.7158 -0.6629 -0.1828
  554MOL0     O76322  -0.108   6.750   0.478 -0.4196 -0.2942  0.0765
  554MOL0     C76323  -0.097   6.871   0.403  0.2385 -0.6558 -0.1650
  554MOL0     C76324  -0.180   6.867   0.267 -0.2166  0.3316  0.0638
  554MOL0     C76325  -0.167   6.987   0.186  0.0192 -0.3987 -0.0000
  554MOL0     C76326  -0.058   6.988   0.077 -0.0430 -1.0894  0.3219
  554MOL0     C76327  -0.059   7.117   0.004 -0.5183  0.2754 -0.5974
  554MOL0     C76328   0.071   7.138  -0.083 -0.4606 -0.4610 -0.0150
  554MOL0     C76329   0.079   7.275  -0.152  0.1145 -0.5319 -0.2388
  554MOL0     C76330   0.205   7.285  -0.247 -0.1738 -0.9254  0.2275
  554MOL0     N76331   0.197   7.414  -0.318 -0.3021  0.1756  0.3530
  554MOL0     C76332   0.181   7.541  -0.259  0.2512 -0.0792  0.5935
  554MOL0     C76333   0.168   7.627  -0.361  0.2882  0.1236 -0.7042
  554MOL0     C76334   0.113   7.762  -0.342 -0.2723  0.3729  0.4046
  554MOL0     C76335  -0.012   7.803  -0.426  0.1637  0.1730  0.6743
  554MOL0     C76336  -0.130   7.719  -0.378 -0.8834 -0.5113  0.1245
  554MOL0     C76337  -0.131   7.576  -0.456 -0.2274 -1.1138  0.4598
  554MOL0     O76338  -0.258   7.533  -0.421  0.5008 -0.6083  0.2806
  554MOL0     C76339  -0.309   7.428  -0.493  0.2463  0.2416 -0.5383
  554MOL0     C76340  -0.432   7.395  -0.444  0.2374 -0.7557  0.9615
  554MOL0     C76341  -0.508   7.301  -0.510  0.3644 -0.7859  0.4393
  554MOL0     C76342  -0.631   7.258  -0.440 -0.1379  0.1058 -0.1310
  554MOL0     C76343  -0.451   7.233  -0.621  1.0157 -0.3319  0.1424
  554MOL0     C76344  -0.529   7.146  -0.712  0.2242 -0.2183 -0.4361
  554MOL0     O76345  -0.457   7.080  -0.808  0.3768 -0.4501  0.1112
  554MOL0     C76346  -0.527   6.984  -0.868  0.3544 -0.8084  0.1767
  554MOL0     C76347  -0.502   6.847  -0.850  0.0337 -0.6680  0.3110
  554MOL0     C76348  -0.562   6.754  -0.933 -0.7471  0.7367 -0.7898
  554MOL0     C76349  -0.647   6.781  -1.030  1.5363 -0.3327  0.9456
  554MOL0     O76350  -0.713   6.670  -1.089  0.7974  0.2826  0.8136
  554MOL0     C76351  -0.822   6.691  -1.177 -0.1663 -0.5330 -0.2514
  554MOL0     C76352  -0.865   6.556  -1.238 -0.0280 -0.9666 -0.5148
  554MOL0     C76353  -1.009   6.569  -1.281  0.9267  0.4821 -0.0839
  554MOL0     C76354  -1.029   6.449  -1.370 -0.1561  0.6783 -0.8254
  554MOL0     C76355  -1.183   6.433  -1.383  0.0007  0.0466 -1.0963
  554MOL0     C76356  -1.216   6.333  -1.503 -0.1735 -0.2654  0.2045
  554MOL0     C76357  -1.345   6.253  -1.474 -0.7101 -0.6688 -0.2246
  554MOL0     C76358  -1.351   6.107  -1.523  0.4112 -0.2747 -1.3005
  554MOL0    Cl76359  -1.504   6.060  -1.454  0.2735  0.6786  0.2680
  554MOL0     C76360  -0.676   6.920  -1.054  0.4870 -0.9512 -0.8575
  554MOL0     C76361  -0.613   7.021  -0.971 -0.9576 -0.4433  0.7383
  554MOL0     O76362  -0.653   7.126  -0.695  0.1670  0.0436  0.0727
  554MOL0     C76363  -0.323   7.261  -0.666  0.2325  0.7913  0.3071
  554MOL0     C76364  -0.252   7.358  -0.598 -0.9616 -0.8940 -0.9576
  554MOL0     N76365   0.190   7.560  -0.481 -0.1763  0.6449  0.5203
  554MOL0     N76366   0.209   7.435  -0.451  0.1524  0.7799  0.4777
  554MOL0     C76367   0.049   6.624   0.312 -0.4980 -0.6425  0.3009
  554MOL0     C76368   0.138   6.516   0.300  0.2482  0.0888  0.2627
  554MOL0     C76369   0.300   6.114   0.286 -0.2019  0.4653  0.2309
  554MOL0     C76370   0.405   6.079   0.367 -0.0883  0.4437 -0.2548
  554MOL0     C76371   0.502   5.985   0.316  0.6692 -0.2491 -0.6752
  554MOL0     C76372   0.480   5.907   0.197  0.6649 -0.5438  0.4591
  554MOL0     O76373   0.560   5.827   0.123  0.1144  0.2871 -0.1799
  554MOL0     C76374   0.666   5.771   0.191 -0.1806  0.5173 -0.0533
  554MOL0     C76375   0.721   5.655   0.116 -0.0890 -0.3722  0.6378
  554MOL0     C76376   0.812   5.711  -0.006 -0.1448 -1.0086 -0.0639
  554MOL0     C76377   0.807   5.602  -0.121 -1.4592  0.5252  0.8701
  554MOL0     C76378   0.904   5.499  -0.080  0.7153 -0.1992 -0.0974
  554MOL0     C76379   0.977   5.403  -0.069  0.5344  0.0143 -0.2741
  554MOL0     C76380   0.372   5.942   0.119 -0.2037 -0.5310 -0.6009
  554MOL0     C76381   0.283   6.047   0.157 -0.4523 -0.1616 -0.6845
  554MOL0     C76382   0.180   6.089   0.063  1.1323 -0.1363  0.3247
  554MOL0     H76383   0.141   6.415   0.617  2.6439  0.0516 -0.9493
  554MOL0     H76384  -0.021   6.596   0.640 -2.5000 -0.3960 -1.4788
  554MOL0     H76385   0.007   6.905   0.396 -0.4040  2.0417  1.6210
  554MOL0     H76386  -0.141   6.952   0.461  2.2266 -0.7013  1.5375
  554MOL0     H76387  -0.161   6.778   0.206  0.4780  1.1826 -0.9699
  554MOL0     H76388  -0.280   6.863   0.311  0.5962  0.8722  2.0558
  554MOL0     H76389  -0.259   6.988   0.128 -2.1133  2.4685  3.0011
  554MOL0     H76390  -0.148   7.074   0.250  1.3086 -2.2777  2.3589
  554MOL0     H76391   0.040   6.988   0.125 -0.8288 -3.0838  2.0838
  554MOL0     H76392  -0.085   6.901   0.017 -1.2567  1.3532 -2.9907
  554MOL0     H76393  -0.063   7.195   0.081  1.1501  0.3645 -0.5568
  554MOL0     H76394  -0.149   7.116  -0.058 -0.5667  1.1988 -0.5616
  554MOL0     H76395   0.161   7.131  -0.022 -0.3463  1.0977  0.0462
  554MOL0     H76396   0.070   7.057  -0.157 -1.3167 -0.8234  0.3766
  554MOL0     H76397   0.076   7.357  -0.079 -1.4505 -0.9271  0.1818
  554MOL0     H76398  -0.007   7.293  -0.216  0.6341 -0.2742 -0.8737
  554MOL0     H76399   0.292   7.274  -0.182 -0.0196 -0.3835  0.1204
  554MOL0     H76400   0.222   7.199  -0.311  1.9857 -0.3871 -0.0075
  554MOL0     H76401   0.144   7.563  -0.159 -2.6485  0.4197 -0.4927
  554MOL0     H76402   0.194   7.831  -0.368 -2.0277  3.9003  3.3385
  554MOL0     H76403   0.092   7.790  -0.238  0.6125  4.0638 -0.2563
  554MOL0     H76404  -0.032   7.907  -0.402 -0.7344  0.4090 -0.9911
  554MOL0     H76405   0.011   7.810  -0.533 -0.5448  0.6166  0.5446
  554MOL0     H76406  -0.123   7.702  -0.271  0.6023 -2.8338 -0.2748
  554MOL0     H76407  -0.223   7.774  -0.395  1.4927  4.5560  1.5366
  554MOL0     H76408  -0.115   7.594  -0.563  0.2011  0.2948  0.7382
  554MOL0     H76409  -0.057   7.501  -0.426 -1.6940 -1.8906  2.3633
  554MOL0     H76410  -0.468   7.458  -0.364  0.8496  0.3770  0.3636
  554MOL0     H76411  -0.714   7.283  -0.507  0.3272 -0.4793 -0.9440
  554MOL0     H76412  -0.636   7.314  -0.346  1.3689 -0.7387  0.4798
  554MOL0     H76413  -0.631   7.151  -0.420 -1.8192 -0.0800 -0.8904
  554MOL0     H76414  -0.420   6.815  -0.787 -0.5819 -2.9060  0.0597
  554MOL0     H76415  -0.531   6.650  -0.922  1.2902  1.3681  0.0054
  554MOL0     H76416  -0.898   6.732  -1.109 -0.7591 -1.9067 -0.0498
  554MOL0     H76417  -0.798   6.767  -1.252  1.7099 -0.2701  0.5756
  554MOL0     H76418  -0.815   6.545  -1.334 -1.5313 -0.7048 -1.3716
  554MOL0     H76419  -0.846   6.478  -1.164  1.4745  0.3280  0.5318
  554MOL0     H76420  -1.043   6.655  -1.340 -1.3442  0.1615  0.6704
  554MOL0     H76421  -1.064   6.561  -1.187  4.0683  1.5499  2.0061
  554MOL0     H76422  -0.986   6.354  -1.335 -1.3505  0.9460  1.6058
  554MOL0     H76423  -0.990   6.473  -1.469  0.9544 -1.8484 -1.0946
  554MOL0     H76424  -1.224   6.418  -1.283  0.8384 -1.6865 -0.9873
  554MOL0     H76425  -1.225   6.524  -1.426 -2.1568 -0.9954 -1.2840
  554MOL0     H76426  -1.127   6.269  -1.513  0.1400  0.3840 -1.4702
  554MOL0     H76427  -1.236   6.385  -1.597 -0.9117  2.5294  1.7778
  554MOL0     H76428  -1.432   6.304  -1.515 -0.7585 -0.0783  0.5897
  554MOL0     H76429  -1.352   6.251  -1.364 -0.8785 -1.1382 -0.2408
  554MOL0     H76430  -1.277   6.039  -1.479 -1.7752 -1.1058  1.3393
  554MOL0     H76431  -1.340   6.101  -1.632  0.8624  0.3876 -1.3003
  554MOL0     H76432  -0.742   6.955  -1.134 -0.1075  0.5234  0.2394
  554MOL0     H76433  -0.621   7.125  -1.001 -2.8324  0.5220  4.0473
  554MOL0     H76434  -0.270   7.202  -0.739  0.8423  2.6924 -0.8495
  554MOL0     H76435  -0.153   7.385  -0.634 -0.9724  1.9057  0.8226
  554MOL0     H76436   0.040   6.689   0.225  0.6466 -2.4601 -1.2541
  554MOL0     H76437   0.189   6.483   0.210 -1.0068 -0.3462 -0.3089
  554MOL0     H76438   0.427   6.121   0.465 -0.1249 -0.3754  0.1114
  554MOL0     H76439   0.583   5.972   0.387 -1.7510  0.8884  2.5213
  554MOL0     H76440   0.745   5.845   0.206  1.4991 -1.4881  1.9589
  554MOL0     H76441   0.634   5.742   0.292  2.2995  1.8032  1.2022
  554MOL0     H76442   0.631   5.604   0.080 -2.1326  2.5224  1.3095
  554MOL0     H76443   0.783   5.591   0.180  0.9776 -1.3272 -1.2733
  554MOL0     H76444   0.772   5.804  -0.045  0.1468 -0.4810  0.8772
  554MOL0     H76445   0.915   5.736   0.020 -0.9295  0.8946  1.4136
  554MOL0     H76446   0.834   5.659  -0.210 -1.1286 -0.1076  0.5617
  554MOL0     H76447   0.707   5.558  -0.134 -1.1218 -0.0153  0.0126
  554MOL0     H76448   1.018   5.305  -0.053 -1.1697 -1.1270 -2.2674
  554MOL0     H76449   0.363   5.918   0.013 -0.1000 -0.1847 -0.6899
  554MOL0     H76450   0.194   6.197   0.052  1.2237 -0.2507 -0.7793
  554MOL0     H76451   0.172   6.040  -0.034  0.5890 -2.9928  1.7084
  554MOL0     H76452   0.081   6.059   0.099 -0.3214  0.2980 -2.9544
  555MOL0     O76453  11.469   5.946   9.074  0.4574  0.0973  0.3934
  555MOL0     C76454  11.587   5.959   9.105  1.0704 -0.1109  0.9130
  555MOL0     O76455  11.644   6.069   9.146 -0.4495 -0.3321  0.6098
  555MOL0     C76456  11.568   6.181   9.134 -0.1268 -0.4011 -0.0371
  555MOL0     C76457  11.531   6.240   9.012 -0.4148 -0.6167  0.6079
  555MOL0     C76458  11.441   6.343   9.005  0.1342  0.3863 -0.8327
  555MOL0     C76459  11.376   6.397   9.115  0.7988  0.6556  0.1382
  555MOL0     O76460  11.296   6.507   9.086 -0.4927  0.5315 -0.3237
  555MOL0     C76461  11.193   6.549   9.180 -0.2290 -0.5022 -0.3435
  555MOL0     C76462  11.257   6.664   9.270  0.2124 -0.6706  0.2190
  555MOL0     C76463  11.331   6.783   9.198  0.1827 -0.5263  0.5980
  555MOL0     C76464  11.338   6.898   9.293  0.6765  0.1842  0.2201
  555MOL0     C76465  11.422   7.019   9.214  1.2648  0.7860  0.3506
  555MOL0     C76466  11.424   7.150   9.297  0.4340  0.2887  1.1388
  555MOL0     C76467  11.286   7.215   9.311 -0.0305 -0.5022  0.5364
  555MOL0     C76468  11.234   7.304   9.192 -0.0570  0.0983 -0.0462
  555MOL0     N76469  11.323   7.413   9.166  0.0896 -0.1254 -0.1014
  555MOL0     C76470  11.315   7.541   9.220  0.1734 -0.5034  0.9463
  555MOL0     C76471  11.431   7.610   9.186 -0.8582  0.0119 -0.3353
  555MOL0     C76472  11.461   7.747   9.226 -0.7074 -0.1945 -0.7251
  555MOL0     C76473  11.429   7.863   9.129 -0.1683  0.7747 -0.2997
  555MOL0     C76474  11.408   7.993   9.203 -0.0747  0.3697 -0.6412
  555MOL0     C76475  11.354   8.098   9.108  0.5646  0.4238  0.6957
  555MOL0     O76476  11.331   8.220   9.189  0.1585 -0.7185 -0.6489
  555MOL0     C76477  11.309   8.339   9.135 -0.2215  0.4887  0.0974
  555MOL0     C76478  11.293   8.448   9.223  0.8725  0.2660  1.2522
  555MOL0     C76479  11.263   8.576   9.172  0.6210  0.6592 -0.2211
  555MOL0     C76480  11.234   8.684   9.279  0.1040  0.7444 -0.6649
  555MOL0     C76481  11.239   8.594   9.037 -1.1080 -0.2449 -0.3777
  555MOL0     C76482  11.180   8.713   8.978  0.3523  0.1399  0.3123
  555MOL0     O76483  11.210   8.736   8.846  0.3440  0.2085 -0.4516
  555MOL0     C76484  11.187   8.855   8.773 -0.2892 -0.0089 -0.3375
  555MOL0     C76485  11.185   8.834   8.631 -0.4785 -0.8932 -1.2446
  555MOL0     C76486  11.154   8.951   8.555 -0.3298  0.0702  0.5337
  555MOL0     C76487  11.133   9.070   8.610 -0.3670  0.8836 -0.2827
  555MOL0     O76488  11.103   9.178   8.533 -0.3128  0.0228  0.1549
  555MOL0     C76489  11.217   9.243   8.491  0.2462  0.5750 -0.6865
  555MOL0     C76490  11.182   9.333   8.375 -0.4261 -0.4105 -0.2371
  555MOL0     C76491  11.110   9.463   8.413 -0.3225 -0.0103  0.3815
  555MOL0     C76492  11.201   9.556   8.491  0.3743 -0.0726  0.3522
  555MOL0     C76493  11.130   9.687   8.522  0.7256 -0.8829  0.4281
  555MOL0     C76494  11.022   9.664   8.639  0.0743  0.5526 -0.1921
  555MOL0     C76495  10.914   9.775   8.629 -0.0678  0.1402  0.0242
  555MOL0     C76496  10.972   9.918   8.650  0.4663  0.0656 -1.3781
  555MOL0    Cl76497  11.027   9.964   8.491  0.1229  0.4795  0.0569
  555MOL0     C76498  11.148   9.087   8.752  0.3860 -0.7856 -0.1803
  555MOL0     C76499  11.165   8.976   8.832 -0.0260  0.6856 -0.0744
  555MOL0     O76500  11.117   8.786   9.051  0.3978  0.1875  0.3948
  555MOL0     C76501  11.271   8.488   8.948  0.0485  0.0640  0.7995
  555MOL0     C76502  11.306   8.364   8.997 -0.8250 -0.4031 -0.7379
  555MOL0     N76503  11.512   7.523   9.111 -1.2293 -0.1955 -0.5028
  555MOL0     N76504  11.438   7.413   9.090 -0.4498 -0.9114 -0.0494
  555MOL0     C76505  11.396   6.331   9.239 -1.3848  0.1868  0.7973
  555MOL0     C76506  11.494   6.220   9.243  0.2776  0.1381  0.2079
  555MOL0     C76507  11.655   5.825   9.111  0.8450 -0.0340 -0.2868
  555MOL0     C76508  11.579   5.717   9.166 -0.4974 -0.4994 -0.4107
  555MOL0     C76509  11.641   5.591   9.160  0.1562 -0.5198  0.6659
  555MOL0     C76510  11.774   5.573   9.126 -0.6768  0.7836 -0.9335
  555MOL0     O76511  11.829   5.443   9.133  0.1812  0.2327 -0.1289
  555MOL0     C76512  11.971   5.424   9.141  0.7111  1.0018 -0.1536
  555MOL0     C76513  11.990   5.275   9.143 -0.7099 -0.0526  0.3539
  555MOL0     C76514  11.979   5.179   9.016 -0.1709  0.5395 -0.9292
  555MOL0     C76515  12.044   5.242   8.892  0.2927  0.3875  0.6480
  555MOL0     C76516  12.190   5.264   8.914  0.6625  0.9173  0.2192
  555MOL0     C76517  12.313   5.266   8.934 -0.2995  0.2605 -0.1086
  555MOL0     C76518  11.852   5.672   9.086 -0.6652  0.1102  0.0925
  555MOL0     C76519  11.801   5.809   9.085  0.4942  0.0738  1.1467
  555MOL0     C76520  11.887   5.920   9.031  0.0884  1.1289  0.0765
  555MOL0     H76521  11.550   6.191   8.918 -0.1942  2.0684 -0.8497
  555MOL0     H76522  11.402   6.388   8.915  1.0376  1.2171 -0.8335
  555MOL0     H76523  11.155   6.465   9.240  0.9368 -0.7633  0.0572
  555MOL0     H76524  11.106   6.589   9.127  0.7055  3.0963  0.5745
  555MOL0     H76525  11.169   6.701   9.324  1.0952 -0.4193  1.5100
  555MOL0     H76526  11.324   6.620   9.343 -0.9771 -1.7402  0.6935
  555MOL0     H76527  11.430   6.754   9.162  0.0539 -0.2996  0.0628
  555MOL0     H76528  11.268   6.811   9.114 -2.4838 -0.2037  2.5572
  555MOL0     H76529  11.239   6.936   9.318 -0.0700 -1.3230 -0.3184
  555MOL0     H76530  11.386   6.866   9.386  2.7097 -0.3310 -0.9437
  555MOL0     H76531  11.389   7.035   9.111  1.5004 -2.2019 -0.2742
  555MOL0     H76532  11.528   6.991   9.205  0.9238 -0.6532  0.4944
  555MOL0     H76533  11.483   7.128   9.386  4.0687 -0.7009 -1.2642
  555MOL0     H76534  11.488   7.223   9.247 -0.7908 -1.9590 -4.5275
  555MOL0     H76535  11.293   7.284   9.396  4.3880 -2.0815  1.7555
  555MOL0     H76536  11.216   7.141   9.349  1.5842 -1.2520  2.2165
  555MOL0     H76537  11.236   7.227   9.114 -2.6128 -3.5936  3.1767
  555MOL0     H76538  11.129   7.322   9.216  0.2824  0.3160  1.3446
  555MOL0     H76539  11.234   7.578   9.283 -0.0719  0.3854  0.1206
  555MOL0     H76540  11.569   7.740   9.247 -1.0242 -0.7132  0.8782
  555MOL0     H76541  11.415   7.768   9.323  0.3218 -2.6190  0.3935
  555MOL0     H76542  11.515   7.882   9.064 -0.1102  1.1904 -0.1021
  555MOL0     H76543  11.353   7.823   9.062  1.9614 -1.3179 -1.6312
  555MOL0     H76544  11.335   7.974   9.282  1.2597  2.0842  1.1119
  555MOL0     H76545  11.500   8.020   9.255  0.4936 -1.7242 -0.4673
  555MOL0     H76546  11.426   8.110   9.027 -0.8682  1.4059 -0.4859
  555MOL0     H76547  11.259   8.067   9.063  2.2394 -0.7836 -2.2884
  555MOL0     H76548  11.308   8.450   9.331  2.4807 -0.3606  1.0626
  555MOL0     H76549  11.312   8.682   9.355  1.4309  2.3410 -1.9139
  555MOL0     H76550  11.136   8.674   9.328 -0.4936 -1.1917 -2.1141
  555MOL0     H76551  11.239   8.784   9.236 -1.0147  2.0291  1.9656
  555MOL0     H76552  11.205   8.741   8.579  0.7265  0.7596 -3.9141
  555MOL0     H76553  11.139   8.955   8.448 -2.4242  1.5714  0.8161
  555MOL0     H76554  11.268   9.299   8.570 -0.9621 -0.5146  0.9304
  555MOL0     H76555  11.286   9.162   8.464 -0.5722 -0.6979  0.8787
  555MOL0     H76556  11.280   9.361   8.336 -1.5616  1.7771 -1.6983
  555MOL0     H76557  11.122   9.281   8.299 -1.0640  0.2796 -0.2202
  555MOL0     H76558  11.039   9.424   8.486  2.0816  0.8574  3.4379
  555MOL0     H76559  11.060   9.502   8.324  0.1971  0.3799  0.2528
  555MOL0     H76560  11.287   9.585   8.429 -1.7836 -0.4977 -3.1544
  555MOL0     H76561  11.245   9.504   8.576 -2.2562 -0.0892  1.8266
  555MOL0     H76562  11.204   9.758   8.562 -0.1536  0.6909 -0.6276
  555MOL0     H76563  11.081   9.733   8.436  0.9067  1.8567  1.6855
  555MOL0     H76564  11.075   9.668   8.734 -1.5957 -0.0689  0.8011
  555MOL0     H76565  10.978   9.564   8.629  2.2511 -0.5593  0.6688
  555MOL0     H76566  10.843   9.755   8.710 -3.0390  0.6539 -2.2830
  555MOL0     H76567  10.863   9.762   8.534  0.6755  2.1739 -0.7068
  555MOL0     H76568  11.060   9.921   8.716 -1.2929  0.3251  1.0852
  555MOL0     H76569  10.903   9.995   8.684  0.6442  0.5675 -2.1306
  555MOL0     H76570  11.137   9.184   8.800  1.8731 -0.3179 -0.7311
  555MOL0     H76571  11.157   8.969   8.940  1.7127 -1.2246 -0.0185
  555MOL0     H76572  11.247   8.503   8.843 -2.7144 -0.2980  1.3092
  555MOL0     H76573  11.324   8.294   8.916  1.6503  0.2287 -0.8128
  555MOL0     H76574  11.350   6.376   9.326 -0.1771 -0.8094  1.9947
  555MOL0     H76575  11.503   6.164   9.336 -1.2459 -0.8699 -0.2181
  555MOL0     H76576  11.475   5.721   9.195 -0.2793  0.4748  0.2732
  555MOL0     H76577  11.586   5.498   9.172 -1.7023 -0.6804 -5.4676
  555MOL0     H76578  12.015   5.472   9.053 -1.9568  1.1966 -1.4687
  555MOL0     H76579  12.016   5.463   9.233  1.8257 -0.8671  0.1607
  555MOL0     H76580  11.928   5.236   9.224 -1.3669  0.4646  0.1103
  555MOL0     H76581  12.094   5.253   9.169 -0.9512 -1.3672  0.2398
  555MOL0     H76582  12.024   5.081   9.035 -2.1762  0.1763  3.0735
  555MOL0     H76583  11.871   5.165   9.005  0.0688 -0.9773 -1.6060
  555MOL0     H76584  11.999   5.341   8.878  0.3288  0.7795  2.9171
  555MOL0     H76585  12.025   5.187   8.800 -2.2821 -0.7515  1.7866
  555MOL0     H76586  12.416   5.236   8.939 -0.3666  0.0276 -0.1365
  555MOL0     H76587  11.954   5.643   9.062  0.1449 -1.1904  4.3184
  555MOL0     H76588  11.828   5.985   8.966 -1.7548  0.9310  1.4787
  555MOL0     H76589  11.922   5.985   9.112 -2.9169  2.2571  0.5924
  555MOL0     H76590  11.974   5.876   8.981 -0.4126  0.4003 -0.1652
  556MOL0     O76591  10.916   9.575   9.330 -0.3399 -0.0713 -0.0869
  556MOL0     C76592  10.928   9.650   9.429 -1.1470 -0.0411 -0.4203
  556MOL0     O76593  10.856   9.762   9.447  0.4475  0.3922 -0.4104
  556MOL0     C76594  10.799   9.810   9.332  0.3004 -0.8354  0.5396
  556MOL0     C76595  10.672   9.775   9.291 -0.0171 -0.0574 -0.9720
  556MOL0     C76596  10.600   9.828   9.183 -1.0194  0.1687 -0.2259
  556MOL0     C76597  10.671   9.927   9.107 -0.6915  0.4913  0.9145
  556MOL0     O76598  10.608   9.975   8.991  0.8021 -0.2638 -0.0576
  556MOL0     C76599  10.685  10.053   8.892  0.1466 -0.2066  0.7792
  556MOL0     C76600  10.611  10.028   8.756 -0.6176 -0.3488 -0.8520
  556MOL0     C76601  10.488  10.124   8.751 -0.2820  0.1560 -0.0410
  556MOL0     C76602  10.527  10.269   8.722  0.3200 -0.1665  0.6578
  556MOL0     C76603  10.402  10.358   8.742  0.7357  0.4605  0.0231
  556MOL0     C76604  10.390  10.478   8.645 -0.1964 -0.8203 -0.4495
  556MOL0     C76605  10.382  10.448   8.495 -0.6498 -0.4434 -0.2608
  556MOL0     C76606  10.260  10.368   8.451 -0.4720  0.5325 -0.5863
  556MOL0     N76607  10.132  10.424   8.512  0.5435 -1.1119  0.4559
  556MOL0     C76608  10.087  10.557   8.511 -0.6020 -0.1049 -0.2139
  556MOL0     C76609   9.973  10.564   8.581  1.3623 -0.1559 -0.1550
  556MOL0     C76610   9.883  10.683   8.607  0.4949 -0.1256 -0.0452
  556MOL0     C76611   9.960  10.783   8.697 -0.2960  0.3517  0.7853
  556MOL0     C76612   9.948  10.749   8.847 -0.0979 -0.7748  0.6342
  556MOL0     C76613  10.009  10.860   8.942  0.1592  0.0216 -0.5847
  556MOL0     O76614  10.151  10.864   8.914 -0.3619  0.2625 -0.2090
  556MOL0     C76615  10.227  10.978   8.913 -0.2674  0.2868  0.3255
  556MOL0     C76616  10.188  11.109   8.954  0.1833  0.3867  0.2585
  556MOL0     C76617  10.270  11.221   8.962 -0.1688  0.5839  0.6978
  556MOL0     C76618  10.215  11.349   9.016 -0.4599 -0.5348 -0.5969
  556MOL0     C76619  10.406  11.191   8.927  0.4098  0.4157  0.3921
  556MOL0     C76620  10.503  11.299   8.942  0.0622  0.2809 -1.1667
  556MOL0     O76621  10.550  11.372   8.840  0.0299  0.4572 -0.0293
  556MOL0     C76622  10.636  11.471   8.870  0.7341  0.0636 -0.6511
  556MOL0     C76623  10.779  11.447   8.895  0.6025 -0.0182  0.6193
  556MOL0     C76624  10.857  11.559   8.916 -0.0169 -0.5213 -0.7984
  556MOL0     C76625  10.799  11.695   8.910 -0.7607 -0.0822 -0.2105
  556MOL0     O76626  10.872  11.817   8.924 -0.0623  0.1596  0.4737
  556MOL0     C76627  11.012  11.804   8.951 -0.4553 -0.2326  0.4779
  556MOL0     C76628  11.078  11.905   8.857  0.3774 -0.0662  0.2079
  556MOL0     C76629  11.073  11.849   8.713  0.0430  0.5962  0.5808
  556MOL0     C76630  11.179  11.897   8.635 -0.0140 -0.0875  1.1055
  556MOL0     C76631  11.189  12.057   8.641  0.0943 -0.2386 -0.6153
  556MOL0     C76632  11.240  12.117   8.512  0.1268  0.3265 -1.4308
  556MOL0     C76633  11.384  12.099   8.478  0.5663 -0.6026  0.7560
  556MOL0     C76634  11.438  12.188   8.357 -0.4934 -0.2782 -0.1458
  556MOL0    Cl76635  11.397  12.354   8.405 -0.0937  0.1205 -0.1778
  556MOL0     C76636  10.657  11.709   8.895 -0.5912  0.2271 -0.1585
  556MOL0     C76637  10.576  11.597   8.867  0.3445 -1.3449  0.2957
  556MOL0     O76638  10.528  11.326   9.057 -0.5342 -0.1081 -0.4761
  556MOL0     C76639  10.454  11.068   8.888 -0.3623  1.1097 -1.0711
  556MOL0     C76640  10.366  10.961   8.875  1.6050 -0.0110  0.0704
  556MOL0     N76641   9.942  10.435   8.624 -0.1015 -0.0337 -0.6481
  556MOL0     N76642  10.037  10.352   8.580  0.3458 -1.0997  1.2010
  556MOL0     C76643  10.795   9.971   9.151  0.6666 -0.7788  0.1024
  556MOL0     C76644  10.863   9.911   9.259 -0.6891  1.0027  0.2538
  556MOL0     C76645  11.032   9.624   9.540 -0.8166  1.1172 -0.4685
  556MOL0     C76646  11.024   9.702   9.654 -0.5422  0.7148  0.6835
  556MOL0     C76647  11.109   9.677   9.761  0.2684  0.3607 -0.2823
  556MOL0     C76648  11.209   9.577   9.756  0.3816  0.6038 -0.3747
  556MOL0     O76649  11.308   9.552   9.845 -0.1815  1.2242 -0.4063
  556MOL0     C76650  11.277   9.446   9.936  0.3046  0.1539  0.0524
  556MOL0     C76651  11.407   9.368   9.984  0.8193 -1.0253 -0.2016
  556MOL0     C76652  11.445   9.246   9.906  0.6225 -0.4260  0.6450
  556MOL0     C76653  11.574   9.179   9.951  0.1297 -0.1829 -0.6045
  556MOL0     C76654  11.608   9.093   9.843 -0.2670  0.1647  0.7931
  556MOL0     C76655  11.645   9.023   9.747  1.0603  0.4085 -0.3429
  556MOL0     C76656  11.209   9.497   9.652  0.0580  0.7574  0.6228
  556MOL0     C76657  11.129   9.516   9.536  0.1062 -0.1525 -0.6204
  556MOL0     C76658  11.150   9.428   9.426  0.3057  0.1611  0.3162
  556MOL0     H76659  10.645   9.677   9.329 -1.3297  1.0181  1.0876
  556MOL0     H76660  10.503   9.794   9.147 -1.4850  0.4432  0.7501
  556MOL0     H76661  10.789  10.021   8.881  0.4727  1.3861 -1.5103
  556MOL0     H76662  10.695  10.159   8.915  3.3989 -0.6689  2.0266
  556MOL0     H76663  10.666  10.046   8.663  0.6496  1.0967  0.1216
  556MOL0     H76664  10.570   9.927   8.751 -1.1107 -0.0768 -2.9416
  556MOL0     H76665  10.417  10.083   8.677  0.2576 -0.9393  0.0214
  556MOL0     H76666  10.428  10.113   8.842  1.6078  1.3568  1.4175
  556MOL0     H76667  10.604  10.305   8.790 -1.5847  1.2078  2.2019
  556MOL0     H76668  10.568  10.279   8.620 -0.0724  1.9763  0.6729
  556MOL0     H76669  10.407  10.398   8.844  0.6002  1.5327 -0.3867
  556MOL0     H76670  10.308  10.302   8.739  0.3907  1.0059  0.5425
  556MOL0     H76671  10.307  10.535   8.688  0.8664 -2.1852  3.8630
  556MOL0     H76672  10.472  10.548   8.661 -0.5619 -0.1428 -1.3888
  556MOL0     H76673  10.467  10.385   8.467  0.0848 -0.3842  1.6746
  556MOL0     H76674  10.389  10.537   8.431 -1.2796  0.1307  0.4484
  556MOL0     H76675  10.247  10.380   8.343 -2.4509  2.1840 -0.2070
  556MOL0     H76676  10.268  10.260   8.467 -0.3024  0.6619  0.2203
  556MOL0     H76677  10.147  10.639   8.475  1.9818 -0.6871  2.4118
  556MOL0     H76678   9.781  10.661   8.640  0.0252  0.8828 -0.7997
  556MOL0     H76679   9.882  10.730   8.508  0.2525 -2.0033 -0.9795
  556MOL0     H76680  10.067  10.800   8.682  0.0762 -1.0262  1.8269
  556MOL0     H76681   9.928  10.886   8.678  0.5278  0.5285  0.3142
  556MOL0     H76682   9.844  10.745   8.882 -0.5355  1.7401 -0.2065
  556MOL0     H76683  10.003  10.655   8.856 -1.4647 -1.5791  0.9754
  556MOL0     H76684   9.975  10.962   8.924  3.0381  1.2406  0.2884
  556MOL0     H76685   9.997  10.832   9.047  1.7667  1.7090  0.1053
  556MOL0     H76686  10.087  11.120   8.992 -0.9616 -0.4737 -2.3449
  556MOL0     H76687  10.279  11.402   9.087  2.2850 -0.9548 -2.5944
  556MOL0     H76688  10.115  11.341   9.058 -1.0209  1.0591 -1.5378
  556MOL0     H76689  10.213  11.427   8.939  3.2764 -2.0583 -2.5427
  556MOL0     H76690  10.804  11.342   8.882 -2.1720 -0.3974 -3.1719
  556MOL0     H76691  10.961  11.539   8.940  0.3530  1.4068 -0.6563
  556MOL0     H76692  11.039  11.829   9.054  0.1360 -1.3056  0.5980
  556MOL0     H76693  11.057  11.705   8.943 -1.0931 -0.4231 -1.1717
  556MOL0     H76694  11.017  11.995   8.850  1.4376  0.5667 -1.7293
  556MOL0     H76695  11.179  11.925   8.895  1.2435  1.1230 -2.4748
  556MOL0     H76696  10.989  11.887   8.654 -0.2341 -1.3551 -0.3739
  556MOL0     H76697  11.073  11.740   8.720 -3.3032  0.5423  1.8466
  556MOL0     H76698  11.149  11.867   8.534 -0.2381  0.2453  1.0726
  556MOL0     H76699  11.272  11.849   8.665  1.0964  1.0364 -0.4281
  556MOL0     H76700  11.089  12.098   8.661  0.7622  0.6098  1.2186
  556MOL0     H76701  11.263  12.089   8.714  0.8465  3.1312 -2.6088
  556MOL0     H76702  11.231  12.223   8.537  1.5172  0.0225  0.5647
  556MOL0     H76703  11.170  12.098   8.430  0.1787  1.7902 -1.8321
  556MOL0     H76704  11.390  11.993   8.453 -1.9714 -0.5084 -0.4996
  556MOL0     H76705  11.444  12.107   8.570  2.1278 -1.1048 -0.1734
  556MOL0     H76706  11.411  12.149   8.258 -0.1005 -0.6573 -0.1024
  556MOL0     H76707  11.547  12.181   8.350 -0.4756 -1.9083  1.2888
  556MOL0     H76708  10.597  11.799   8.904  0.6848  0.9633  2.0139
  556MOL0     H76709  10.472  11.609   8.839  0.4030 -0.7615  0.3306
  556MOL0     H76710  10.558  11.040   8.870 -0.3973 -2.9171  3.0141
  556MOL0     H76711  10.405  10.864   8.846 -1.8266 -1.6387  0.4828
  556MOL0     H76712  10.841  10.063   9.116 -0.4595 -1.1501 -2.5821
  556MOL0     H76713  10.965   9.941   9.279  0.6256 -3.3467  1.0504
  556MOL0     H76714  10.950   9.779   9.674 -1.1536  0.4071 -0.3029
  556MOL0     H76715  11.115   9.740   9.849 -2.6677  1.3555 -0.6761
  556MOL0     H76716  11.214   9.485  10.016  0.0779  0.7401 -0.4046
  556MOL0     H76717  11.211   9.372   9.890 -1.1846  2.7479 -2.2902
  556MOL0     H76718  11.384   9.333  10.085  0.1396  1.2899  0.5210
  556MOL0     H76719  11.500   9.424   9.994 -0.2370  0.4996  2.0295
  556MOL0     H76720  11.366   9.171   9.913 -0.2810  0.2687 -1.4661
  556MOL0     H76721  11.466   9.271   9.802  2.3079 -1.2995  0.7382
  556MOL0     H76722  11.562   9.132  10.048 -0.0504 -0.5336 -0.7945
  556MOL0     H76723  11.653   9.255   9.955 -0.4699  0.4063  3.3075
  556MOL0     H76724  11.679   8.956   9.671 -3.3483  0.2437 -2.5068
  556MOL0     H76725  11.275   9.411   9.644  0.3199  0.7893  2.2788
  556MOL0     H76726  11.062   9.364   9.411  0.8432 -0.2744 -1.2764
  556MOL0     H76727  11.164   9.473   9.327 -2.1242 -1.2162 -0.7530
  556MOL0     H76728  11.239   9.365   9.439  1.2075  1.5634  1.1982
  557MOL0     O76729   5.726   3.294   4.796 -0.1378  0.2790  0.8145
  557MOL0     C76730   5.816   3.322   4.718  0.0679  1.4370 -0.9958
  557MOL0     O76731   5.895   3.433   4.727  0.0754 -0.1078 -0.0640
  557MOL0     C76732   5.894   3.507   4.843 -0.5254 -1.0253 -0.4811
  557MOL0     C76733   6.004   3.550   4.915 -0.0636 -0.2763  0.0818
  557MOL0     C76734   5.998   3.629   5.028  1.2321  0.2450 -0.0136
  557MOL0     C76735   5.868   3.672   5.070  0.1717 -0.5056 -0.2062
  557MOL0     O76736   5.861   3.759   5.173  0.3803  0.0878 -0.2091
  557MOL0     C76737   5.752   3.849   5.187 -0.3164  1.7055 -0.0498
  557MOL0     C76738   5.748   3.954   5.080  0.9700 -0.8231  0.4503
  557MOL0     C76739   5.646   4.072   5.112 -0.4792 -0.7171  0.2498
  557MOL0     C76740   5.620   4.165   4.995 -0.2331 -0.2626 -0.1290
  557MOL0     C76741   5.551   4.114   4.866 -0.8586 -0.1900  0.4268
  557MOL0     C76742   5.439   4.016   4.914  0.2358 -0.3401 -0.2731
  557MOL0     C76743   5.360   3.953   4.795  0.4242 -0.1711 -0.4618
  557MOL0     C76744   5.220   3.887   4.817  0.4595 -0.7469  0.9165
  557MOL0     N76745   5.108   3.984   4.839  0.3481  0.0213  0.2195
  557MOL0     C76746   5.022   4.054   4.750  0.0696 -0.0032 -0.5705
  557MOL0     C76747   4.962   4.155   4.825 -0.2996 -0.0946 -0.9500
  557MOL0     C76748   4.853   4.253   4.805 -0.0128 -0.5431  0.6961
  557MOL0     C76749   4.733   4.190   4.758  0.3816 -0.6924  0.5701
  557MOL0     C76750   4.621   4.298   4.748 -0.7402  0.4404  0.1983
  557MOL0     C76751   4.551   4.299   4.882  0.7767 -0.5117  0.4030
  557MOL0     O76752   4.487   4.427   4.915  0.6735  0.0551  0.5009
  557MOL0     C76753   4.362   4.430   4.856 -0.0171 -0.2749  0.1528
  557MOL0     C76754   4.263   4.374   4.931  0.9793 -1.0321 -0.0499
  557MOL0     C76755   4.137   4.378   4.882  0.9344  0.5732 -0.3356
  557MOL0     C76756   4.011   4.337   4.967  0.2454 -0.9207 -0.0576
  557MOL0     C76757   4.119   4.416   4.744  0.8665 -0.7897 -0.1121
  557MOL0     C76758   3.996   4.385   4.670 -0.4157 -0.5185 -0.6273
  557MOL0     O76759   3.936   4.270   4.668  0.9815 -0.3577 -0.0137
  557MOL0     C76760   3.814   4.258   4.606 -0.4166 -0.5577  0.6435
  557MOL0     C76761   3.697   4.217   4.669  0.7190  0.9987 -0.3525
  557MOL0     C76762   3.568   4.224   4.597 -0.1448  1.3723 -0.1822
  557MOL0     C76763   3.560   4.271   4.465  0.8012 -0.3599  0.7106
  557MOL0     O76764   3.431   4.285   4.415  0.0304 -0.7824  0.0002
  557MOL0     C76765   3.413   4.335   4.270  0.5264  0.0839 -0.3879
  557MOL0     C76766   3.262   4.352   4.232  0.4314 -0.2424 -0.3202
  557MOL0     C76767   3.201   4.213   4.213 -0.1545  1.2885 -0.2878
  557MOL0     C76768   3.202   4.180   4.067  0.1025  0.2168 -0.5203
  557MOL0     C76769   3.177   4.032   4.051 -0.1413  0.0170 -1.1024
  557MOL0     C76770   3.035   3.987   4.074  0.9297 -0.8909  0.2506
  557MOL0     C76771   3.011   3.839   4.050 -1.3430 -0.2854  0.3274
  557MOL0     C76772   2.877   3.787   4.112  0.9041  0.4472 -0.4310
  557MOL0    Cl76773   2.855   3.835   4.287 -0.5990 -0.0519  0.1597
  557MOL0     C76774   3.680   4.303   4.405 -0.7059 -0.1173  1.5810
  557MOL0     C76775   3.800   4.297   4.469 -0.3700  0.3396 -0.4283
  557MOL0     O76776   3.952   4.486   4.627  0.1540 -0.1163  0.1566
  557MOL0     C76777   4.222   4.473   4.659 -0.0617 -0.5055 -1.0501
  557MOL0     C76778   4.341   4.484   4.727 -0.3666  0.1423  0.0272
  557MOL0     N76779   5.010   4.139   4.957  0.7323 -0.1262 -0.0338
  557MOL0     N76780   5.106   4.050   4.960  0.1289  0.3704  0.2015
  557MOL0     C76781   5.756   3.635   4.991  0.2862 -0.1079 -0.1456
  557MOL0     C76782   5.766   3.548   4.885 -0.1962 -0.2032  0.0966
  557MOL0     C76783   5.823   3.242   4.596 -0.6531  0.2475  0.7884
  557MOL0     C76784   5.907   3.280   4.494 -0.8213  0.0522 -0.1309
  557MOL0     C76785   5.902   3.226   4.370 -0.9420 -0.1264 -0.3221
  557MOL0     C76786   5.802   3.143   4.325  0.0075  0.4603  0.9712
  557MOL0     O76787   5.806   3.113   4.187 -0.1105 -0.3009  0.3465
  557MOL0     C76788   5.781   3.210   4.084 -0.1521  0.9590 -0.7796
  557MOL0     C76789   5.768   3.148   3.942 -1.2546 -0.4324  0.1399
  557MOL0     C76790   5.655   3.200   3.869  0.0627 -0.2078 -0.1635
  557MOL0     C76791   5.632   3.357   3.838  0.5494  0.6233  0.2407
  557MOL0     C76792   5.536   3.367   3.727  0.3096 -0.0036 -0.8466
  557MOL0     C76793   5.475   3.370   3.625 -0.4604 -0.9432 -0.4614
  557MOL0     C76794   5.716   3.095   4.424 -0.1650 -1.3265  0.4690
  557MOL0     C76795   5.724   3.140   4.559  0.1674 -0.4516 -0.5055
  557MOL0     C76796   5.622   3.079   4.658  0.4809 -0.0468 -0.5685
  557MOL0     H76797   6.104   3.525   4.880 -0.1472 -0.7813  0.2060
  557MOL0     H76798   6.092   3.671   5.062  0.5938  2.0393 -0.3669
  557MOL0     H76799   5.768   3.897   5.284 -1.9305  0.8455  0.6860
  557MOL0     H76800   5.661   3.790   5.198  0.9285 -0.8525 -2.2146
  557MOL0     H76801   5.848   3.996   5.068  0.0353  2.5752  3.0259
  557MOL0     H76802   5.724   3.911   4.982  0.8652 -0.4625  0.3164
  557MOL0     H76803   5.555   4.034   5.158 -2.7876  1.0540 -2.4479
  557MOL0     H76804   5.704   4.131   5.183  0.3400  0.6266 -1.4331
  557MOL0     H76805   5.557   4.241   5.041  3.1052  3.1012 -0.6001
  557MOL0     H76806   5.713   4.216   4.965  0.1432 -0.1930  1.1124
  557MOL0     H76807   5.617   4.050   4.806 -0.2352 -1.5981  2.4856
  557MOL0     H76808   5.509   4.193   4.804 -1.6551 -1.0429 -0.1362
  557MOL0     H76809   5.475   3.927   4.967 -0.9253 -0.1190  0.9294
  557MOL0     H76810   5.371   4.075   4.975  0.8727  1.4780 -1.2434
  557MOL0     H76811   5.434   3.888   4.746  0.9417  1.2409 -1.6071
  557MOL0     H76812   5.350   4.028   4.716  0.0798 -2.6876 -2.9913
  557MOL0     H76813   5.190   3.823   4.733 -0.5344 -1.0481  1.4965
  557MOL0     H76814   5.233   3.823   4.904 -0.9900  0.3305  1.9604
  557MOL0     H76815   5.008   4.027   4.645  0.2082  0.7063 -0.7749
  557MOL0     H76816   4.892   4.327   4.734  1.8941 -3.1311 -1.1357
  557MOL0     H76817   4.843   4.302   4.902 -0.6089  2.8619 -0.9196
  557MOL0     H76818   4.749   4.153   4.657  2.9626  0.0339  0.6355
  557MOL0     H76819   4.699   4.107   4.820 -0.9506  0.5305  1.5439
  557MOL0     H76820   4.661   4.394   4.713 -0.7886  1.3311  2.4211
  557MOL0     H76821   4.553   4.262   4.671  0.5983  0.1036 -0.8564
  557MOL0     H76822   4.482   4.214   4.890  1.6266 -1.0286  2.8132
  557MOL0     H76823   4.623   4.284   4.962 -1.9092 -1.2085  2.8659
  557MOL0     H76824   4.290   4.329   5.026  0.7568 -0.3388  0.3449
  557MOL0     H76825   3.947   4.425   4.958  1.6169  0.1098 -0.0224
  557MOL0     H76826   4.032   4.323   5.073  4.1426  3.7331  0.1637
  557MOL0     H76827   3.969   4.247   4.920 -3.0554  2.2250 -3.8325
  557MOL0     H76828   3.707   4.176   4.769  1.7518  3.2524  0.5407
  557MOL0     H76829   3.484   4.185   4.653  1.0654 -2.0957 -0.5497
  557MOL0     H76830   3.468   4.425   4.241 -0.1856  0.2336 -1.3538
  557MOL0     H76831   3.446   4.259   4.198 -4.2823 -0.8230 -2.0053
  557MOL0     H76832   3.203   4.395   4.313 -1.5821 -5.6824  1.5618
  557MOL0     H76833   3.253   4.416   4.144  1.1021  0.6576  0.2589
  557MOL0     H76834   3.096   4.207   4.242 -0.1287  2.0658 -0.0071
  557MOL0     H76835   3.252   4.138   4.275 -1.5403  1.5688  1.2467
  557MOL0     H76836   3.296   4.203   4.016  0.6917  0.4793  0.6478
  557MOL0     H76837   3.126   4.244   4.021  0.4595  1.6695  0.8224
  557MOL0     H76838   3.221   3.999   3.956  1.1037 -3.2496  0.4368
  557MOL0     H76839   3.244   3.986   4.125 -1.2618  1.9059  1.1892
  557MOL0     H76840   2.955   4.049   4.033  0.8443 -2.1538 -1.6199
  557MOL0     H76841   3.020   3.998   4.182 -2.6494 -0.4145 -0.1821
  557MOL0     H76842   3.102   3.786   4.079 -0.7052  0.1969 -0.7587
  557MOL0     H76843   3.000   3.814   3.944  1.7843  0.7370 -0.3347
  557MOL0     H76844   2.867   3.678   4.108 -1.3537  0.5297  0.8984
  557MOL0     H76845   2.803   3.839   4.050 -0.5867  1.4854  2.0932
  557MOL0     H76846   3.680   4.331   4.300  0.2566 -3.1356  0.6812
  557MOL0     H76847   3.893   4.332   4.425  0.4989  0.4596  1.4344
  557MOL0     H76848   4.205   4.510   4.559  1.3409  0.3464 -1.0074
  557MOL0     H76849   4.427   4.528   4.677 -0.7515  1.3099  0.3537
  557MOL0     H76850   5.660   3.663   5.035  1.5079 -1.2926  3.6994
  557MOL0     H76851   5.677   3.520   4.830  1.1179 -5.6457  0.1433
  557MOL0     H76852   5.972   3.361   4.526 -2.3449 -0.0810  3.9050
  557MOL0     H76853   5.974   3.270   4.302  0.7189 -0.7402  0.9782
  557MOL0     H76854   5.685   3.258   4.106 -0.1910  0.2809  0.6694
  557MOL0     H76855   5.863   3.281   4.094  1.1998 -0.8082  1.9187
  557MOL0     H76856   5.769   3.040   3.957  1.3728 -0.5436 -0.4220
  557MOL0     H76857   5.857   3.169   3.882 -1.0014 -0.4043  0.5254
  557MOL0     H76858   5.641   3.150   3.773 -2.1127 -0.0170  0.0176
  557MOL0     H76859   5.568   3.148   3.911  0.1827 -0.3899 -0.1342
  557MOL0     H76860   5.727   3.410   3.823  1.7864 -1.2583  0.9300
  557MOL0     H76861   5.599   3.403   3.932  0.7765 -3.2248  2.4355
  557MOL0     H76862   5.433   3.377   3.527  1.2184  0.9318 -1.1227
  557MOL0     H76863   5.645   3.015   4.406 -1.4625 -0.5041  1.7085
  557MOL0     H76864   5.545   3.014   4.616 -2.0669  1.2780  1.7614
  557MOL0     H76865   5.665   3.042   4.752 -0.4281 -1.0776 -0.5358
  557MOL0     H76866   5.548   3.154   4.686 -1.0755 -1.5589 -0.4778
  558MOL0     O76867   4.276   9.998   1.345 -1.1745 -0.0528  0.0196
  558MOL0     C76868   4.188   9.992   1.426 -0.4960  0.3083 -0.0397
  558MOL0     O76869   4.204   9.977   1.563  0.5538  0.3661 -0.1677
  558MOL0     C76870   4.331   9.946   1.609  0.3122 -0.7015  0.1353
  558MOL0     C76871   4.446  10.028   1.588 -0.4897  0.4800  0.2783
  558MOL0     C76872   4.571   9.991   1.634  0.6402  0.6850 -0.1536
  558MOL0     C76873   4.586   9.881   1.721  0.0637  0.6242  0.4053
  558MOL0     O76874   4.712   9.855   1.762  0.2754 -0.4476  0.9666
  558MOL0     C76875   4.751   9.737   1.823  0.5523  0.2906 -0.3061
  558MOL0     C76876   4.899   9.752   1.835  0.5374 -0.5237  0.2336
  558MOL0     C76877   4.952   9.669   1.952 -0.8576 -0.8844  0.1868
  558MOL0     C76878   5.105   9.666   1.953  0.2105  0.4662 -0.9687
  558MOL0     C76879   5.155   9.627   2.096 -0.4760  0.4799  0.5957
  558MOL0     C76880   5.317   9.630   2.102  0.1092  0.8358 -0.3115
  558MOL0     C76881   5.372   9.625   2.249  0.0133  0.6502  0.5137
  558MOL0     C76882   5.523   9.610   2.265  0.4690  0.9304  0.0478
  558MOL0     N76883   5.601   9.710   2.191 -0.3969 -0.2092 -0.3252
  558MOL0     C76884   5.684   9.674   2.087 -0.8067  0.6072  0.3623
  558MOL0     C76885   5.722   9.786   2.024 -0.1442  0.2087  0.3962
  558MOL0     C76886   5.826   9.803   1.903  0.0393 -0.6865 -0.2481
  558MOL0     C76887   5.800   9.713   1.774  0.2757 -0.3357 -0.7646
  558MOL0     C76888   5.849   9.770   1.639 -0.2937  0.2539 -0.6422
  558MOL0     C76889   5.768   9.705   1.518  0.2746 -0.4867 -1.7001
  558MOL0     O76890   5.852   9.596   1.473 -1.3270 -0.1511  0.1851
  558MOL0     C76891   5.800   9.532   1.365  0.3515 -0.2107 -0.5284
  558MOL0     C76892   5.711   9.443   1.375  0.1246  0.2857 -0.7542
  558MOL0     C76893   5.645   9.387   1.257 -0.3192  0.1812  0.8417
  558MOL0     C76894   5.530   9.305   1.291 -0.4405 -0.3437  0.3575
  558MOL0     C76895   5.694   9.427   1.124 -0.3113 -0.8527  1.0222
  558MOL0     C76896   5.647   9.363   0.997 -0.8487 -0.5680 -1.5865
  558MOL0     O76897   5.570   9.250   1.007  0.2769 -0.6485 -0.2104
  558MOL0     C76898   5.505   9.216   0.888 -0.9035 -0.1474  0.9345
  558MOL0     C76899   5.564   9.153   0.777  0.5135 -0.2137  0.0792
  558MOL0     C76900   5.504   9.155   0.650 -0.6442  0.0681  0.1767
  558MOL0     C76901   5.379   9.223   0.633 -1.2811 -1.5915  0.8318
  558MOL0     O76902   5.302   9.219   0.521 -0.2326  1.0683 -0.8005
  558MOL0     C76903   5.355   9.142   0.412 -0.0433  0.8247  0.5344
  558MOL0     C76904   5.255   9.137   0.293 -0.0381 -0.2218 -1.4353
  558MOL0     C76905   5.228   9.270   0.229 -0.0256 -0.6371 -0.1418
  558MOL0     C76906   5.235   9.269   0.073 -0.5575  0.2503  0.6922
  558MOL0     C76907   5.210   9.399   0.001  0.6350  0.1921 -1.1168
  558MOL0     C76908   5.055   9.446   0.024  0.2828  0.3280 -0.7550
  558MOL0     C76909   5.018   9.575  -0.042 -0.2968  0.6387 -0.9558
  558MOL0     C76910   4.951   9.554  -0.174  0.3495 -0.2238  0.3055
  558MOL0    Cl76911   5.058   9.482  -0.301 -0.7350 -0.1731  0.0661
  558MOL0     C76912   5.320   9.292   0.738 -0.4390 -0.5689  0.0670
  558MOL0     C76913   5.385   9.285   0.862  0.4439  0.1191  0.7705
  558MOL0     O76914   5.671   9.427   0.897 -0.3332  0.2905  0.4830
  558MOL0     C76915   5.803   9.515   1.118  0.0011  0.1025  1.3718
  558MOL0     C76916   5.850   9.570   1.237  0.2384  0.1875 -0.5459
  558MOL0     N76917   5.676   9.890   2.102  0.5811  1.0097  0.8397
  558MOL0     N76918   5.613   9.844   2.204 -0.2747  0.0998 -0.3375
  558MOL0     C76919   4.475   9.800   1.751 -0.4379  0.7964 -0.4890
  558MOL0     C76920   4.354   9.834   1.699 -0.2937 -0.2753  0.1159
  558MOL0     C76921   4.051   9.997   1.368  0.5301  0.4689 -0.0295
  558MOL0     C76922   3.957   9.963   1.469 -0.3254  0.2735 -1.1421
  558MOL0     C76923   3.817   9.954   1.420 -1.0378 -1.1921 -0.5683
  558MOL0     C76924   3.784   9.978   1.288 -0.2972  0.7883 -0.7791
  558MOL0     O76925   3.656   9.955   1.257  0.5083 -0.2868  0.2864
  558MOL0     C76926   3.608   9.860   1.155  0.0337  0.2083 -0.4740
  558MOL0     C76927   3.691   9.723   1.159  0.6787 -0.2064  0.2644
  558MOL0     C76928   3.653   9.627   1.277 -0.8639 -0.6885  0.4394
  558MOL0     C76929   3.753   9.505   1.270  0.5495  0.0272  0.7889
  558MOL0     C76930   3.719   9.408   1.166  0.4598 -0.0751 -0.3300
  558MOL0     C76931   3.704   9.331   1.066  0.5007  0.5477 -0.2855
  558MOL0     C76932   3.879  10.008   1.197 -0.0760 -0.4855 -0.3063
  558MOL0     C76933   4.013  10.025   1.232  1.8019  0.3696  0.3805
  558MOL0     C76934   4.116  10.068   1.130 -1.1894  0.0656  0.9031
  558MOL0     H76935   4.445  10.121   1.533  0.6211  0.0038 -0.5824
  558MOL0     H76936   4.658  10.052   1.614  0.6800  0.6266 -0.1591
  558MOL0     H76937   4.729   9.646   1.766  0.9631 -1.3454  1.9993
  558MOL0     H76938   4.711   9.733   1.925  0.7999 -1.5139 -0.2374
  558MOL0     H76939   4.948   9.736   1.739  0.9375  1.2991  0.0887
  558MOL0     H76940   4.906   9.860   1.851 -1.8102 -0.2845 -0.1058
  558MOL0     H76941   4.922   9.713   2.047  0.9007  4.4153 -1.3767
  558MOL0     H76942   4.903   9.573   1.934 -1.8494 -0.1553 -1.1606
  558MOL0     H76943   5.140   9.601   1.872 -1.8906 -0.1320 -1.4431
  558MOL0     H76944   5.139   9.768   1.932  0.9244 -0.0505 -2.4938
  558MOL0     H76945   5.121   9.526   2.122  3.4642 -1.3724 -0.6378
  558MOL0     H76946   5.112   9.699   2.166  2.0149  0.7601  1.9402
  558MOL0     H76947   5.346   9.536   2.054 -1.6766 -0.1743  0.4705
  558MOL0     H76948   5.345   9.714   2.038 -3.7076  2.4280 -0.1809
  558MOL0     H76949   5.328   9.555   2.320  5.3468  0.4260  4.2622
  558MOL0     H76950   5.336   9.725   2.277  0.7317  1.4696 -1.2968
  558MOL0     H76951   5.549   9.616   2.371 -0.8158 -0.1309  0.4446
  558MOL0     H76952   5.552   9.509   2.235  0.0337 -0.0399  2.6660
  558MOL0     H76953   5.713   9.573   2.058 -3.1621 -0.0078 -0.0219
  558MOL0     H76954   5.923   9.785   1.949  0.6431 -1.9891 -1.9264
  558MOL0     H76955   5.829   9.910   1.880 -0.1655 -0.8885 -1.2775
  558MOL0     H76956   5.832   9.611   1.797 -0.5860 -0.4849 -0.1897
  558MOL0     H76957   5.691   9.711   1.770  0.1726  1.8719 -0.3645
  558MOL0     H76958   5.826   9.876   1.628 -1.2361  0.0920 -0.3138
  558MOL0     H76959   5.958   9.763   1.627 -0.4977 -2.2510 -1.7361
  558MOL0     H76960   5.670   9.668   1.552 -0.8898  2.6411 -1.3160
  558MOL0     H76961   5.750   9.787   1.448 -0.8901 -0.1258 -1.0003
  558MOL0     H76962   5.673   9.428   1.475 -0.0579 -0.3164 -0.9124
  558MOL0     H76963   5.567   9.203   1.282 -0.1400 -0.2686  0.7479
  558MOL0     H76964   5.442   9.333   1.231 -0.3359 -1.9976 -0.6310
  558MOL0     H76965   5.512   9.309   1.399 -0.1259 -4.2256  0.7077
  558MOL0     H76966   5.660   9.103   0.790 -0.2473 -2.0541 -0.9054
  558MOL0     H76967   5.562   9.112   0.569  2.2915  2.8217  0.5895
  558MOL0     H76968   5.442   9.199   0.376  0.2402  1.1184  1.6346
  558MOL0     H76969   5.388   9.040   0.434 -1.7981  0.7308  3.1690
  558MOL0     H76970   5.303   9.082   0.211  0.3753 -0.4375 -1.0497
  558MOL0     H76971   5.161   9.091   0.325  0.9474  0.0347  2.1619
  558MOL0     H76972   5.292   9.343   0.278  1.5322 -2.2237  0.2990
  558MOL0     H76973   5.128   9.293   0.264 -0.4493 -2.6600  0.1147
  558MOL0     H76974   5.148   9.204   0.057 -2.1359  2.4704 -0.2929
  558MOL0     H76975   5.327   9.221   0.039  0.3493  1.2756  1.6125
  558MOL0     H76976   5.280   9.467   0.051  0.6925 -1.0527  0.5680
  558MOL0     H76977   5.230   9.393  -0.106  0.9758  1.6184 -1.1517
  558MOL0     H76978   5.046   9.465   0.131 -1.0453  0.4670 -0.8641
  558MOL0     H76979   4.989   9.359   0.019 -1.4842  1.6345 -1.5434
  558MOL0     H76980   5.105   9.641  -0.056  0.3386 -0.2065 -1.0963
  558MOL0     H76981   4.972   9.643   0.031 -0.0402 -0.4494  0.2633
  558MOL0     H76982   4.903   9.648  -0.204  2.2124  0.1449 -1.8164
  558MOL0     H76983   4.868   9.486  -0.153  0.6616 -0.3206  1.2767
  558MOL0     H76984   5.227   9.343   0.715 -0.9644 -1.1673  0.8071
  558MOL0     H76985   5.360   9.334   0.956  1.3604 -2.8639  2.7291
  558MOL0     H76986   5.853   9.558   1.031 -1.3830 -0.4945  0.2301
  558MOL0     H76987   5.932   9.641   1.227 -0.2450  0.4989 -2.7633
  558MOL0     H76988   4.481   9.704   1.803  0.2443  1.6614  1.0976
  558MOL0     H76989   4.270   9.766   1.711 -0.4679  0.3158  2.7070
  558MOL0     H76990   3.971   9.929   1.571 -0.4653  0.8749 -0.9178
  558MOL0     H76991   3.740   9.932   1.492  1.0556 -1.5075  1.7252
  558MOL0     H76992   3.505   9.838   1.186  0.8703 -2.1622  0.9245
  558MOL0     H76993   3.613   9.907   1.057  2.8604  0.5011 -0.2605
  558MOL0     H76994   3.798   9.743   1.153  0.5790  0.1712 -0.3600
  558MOL0     H76995   3.664   9.665   1.070  0.8386 -2.4045  1.5688
  558MOL0     H76996   3.667   9.688   1.367 -3.0266 -0.1688  0.4578
  558MOL0     H76997   3.549   9.594   1.277 -1.1783  0.2881  0.1347
  558MOL0     H76998   3.737   9.451   1.364  1.0947 -0.2343  0.7318
  558MOL0     H76999   3.851   9.551   1.261  1.7161 -2.4072  0.2015
  558MOL0     H77000   3.687   9.265   0.984 -0.5418 -1.0190  1.1106
  558MOL0     H77001   3.860  10.010   1.090 -0.3346  1.0006 -0.2637
  558MOL0     H77002   4.070  10.117   1.044  1.8393  2.8852  0.7069
  558MOL0     H77003   4.182  10.143   1.175  1.8589 -0.5974 -2.0272
  558MOL0     H77004   4.186   9.986   1.113 -0.6473  0.5476  0.7731
  559MOL0     O77005   8.555   1.411   3.156  0.3485 -0.2625  0.2458
  559MOL0     C77006   8.560   1.433   3.276  0.3688 -0.5357  0.2518
  559MOL0     O77007   8.541   1.554   3.332  1.0709  0.7464  0.0344
  559MOL0     C77008   8.452   1.633   3.275 -0.8823 -0.1966  0.9260
  559MOL0     C77009   8.490   1.719   3.167 -0.1822  0.2962  0.4182
  559MOL0     C77010   8.387   1.800   3.112 -0.3735 -0.3997  0.3192
  559MOL0     C77011   8.254   1.792   3.156  0.1483 -0.6549  0.3111
  559MOL0     O77012   8.166   1.883   3.111 -0.7105  0.5999  0.7175
  559MOL0     C77013   8.120   1.977   3.203 -0.3924 -0.4793  0.5206
  559MOL0     C77014   8.107   2.109   3.137  1.1827  0.1342  0.4509
  559MOL0     C77015   7.995   2.195   3.200  0.3596  0.6163  0.3691
  559MOL0     C77016   7.997   2.221   3.349 -0.0727 -0.4671 -0.3440
  559MOL0     C77017   7.868   2.302   3.401  0.9566  0.6511 -0.4653
  559MOL0     C77018   7.876   2.459   3.362  0.8305  0.8261 -0.0936
  559MOL0     C77019   8.000   2.540   3.390  0.6272 -0.8533  0.8717
  559MOL0     C77020   8.069   2.530   3.521 -0.9598  0.8527  0.5549
  559MOL0     N77021   8.001   2.592   3.629  0.1143 -1.0023 -0.3504
  559MOL0     C77022   7.964   2.532   3.747 -0.5294  0.4475 -0.5489
  559MOL0     C77023   7.926   2.641   3.829  0.4682  0.0719  0.5410
  559MOL0     C77024   7.902   2.635   3.978 -0.8138  0.8891  0.4170
  559MOL0     C77025   7.754   2.651   4.020  0.4688 -0.5344  0.1592
  559MOL0     C77026   7.721   2.639   4.171 -0.3200  0.2603  1.1113
  559MOL0     C77027   7.731   2.491   4.222 -0.7937 -0.1203  0.4517
  559MOL0     O77028   7.674   2.496   4.358  0.3089 -0.2413  0.1545
  559MOL0     C77029   7.664   2.390   4.439  0.7632 -0.0239  1.0335
  559MOL0     C77030   7.756   2.276   4.418  0.1175  0.0260  0.4170
  559MOL0     C77031   7.760   2.163   4.508 -0.3183 -0.6297  0.3018
  559MOL0     C77032   7.825   2.048   4.446 -0.5021  0.2065  0.1928
  559MOL0     C77033   7.688   2.174   4.620  0.3211  0.5410 -0.0033
  559MOL0     C77034   7.669   2.054   4.716  0.3812  0.3159  0.2064
  559MOL0     O77035   7.551   2.046   4.779 -0.4590 -0.0486 -0.3792
  559MOL0     C77036   7.542   1.993   4.903 -0.4703  0.4911 -0.7534
  559MOL0     C77037   7.426   1.912   4.932 -1.1374 -0.0106  0.1510
  559MOL0     C77038   7.400   1.864   5.061 -0.3468 -0.7735  0.0288
  559MOL0     C77039   7.492   1.902   5.164 -0.8872  0.2290 -0.7023
  559MOL0     O77040   7.446   1.876   5.291  0.3895  0.1472  0.4079
  559MOL0     C77041   7.551   1.894   5.384  0.0215  0.1131 -0.5032
  559MOL0     C77042   7.512   1.821   5.510 -0.3328  0.0334 -0.4152
  559MOL0     C77043   7.630   1.763   5.591 -0.3564  0.2354  0.3918
  559MOL0     C77044   7.572   1.703   5.724  0.1091  1.3669 -1.4062
  559MOL0     C77045   7.657   1.709   5.853  0.1587 -0.3330 -0.0917
  559MOL0     C77046   7.583   1.640   5.969 -0.8415 -0.3161 -0.0731
  559MOL0     C77047   7.440   1.704   6.001 -0.6192  0.0695  1.4430
  559MOL0     C77048   7.401   1.664   6.137  0.8748  0.0810 -0.4973
  559MOL0    Cl77049   7.227   1.640   6.166  0.2931 -0.0380  1.0546
  559MOL0     C77050   7.602   1.985   5.132  0.6354  0.2259 -0.3139
  559MOL0     C77051   7.623   2.033   5.007  0.2501  0.4124 -0.1688
  559MOL0     O77052   7.775   2.008   4.750 -0.0378 -0.1531 -0.2142
  559MOL0     C77053   7.613   2.285   4.656  0.4961 -0.6364  0.3980
  559MOL0     C77054   7.597   2.391   4.562  1.1163  0.3039 -0.6851
  559MOL0     N77055   7.931   2.754   3.749  0.0761 -0.3027 -0.0463
  559MOL0     N77056   7.973   2.723   3.635 -0.2091  0.2377  0.8856
  559MOL0     C77057   8.220   1.702   3.259 -0.0532 -0.4611  0.0002
  559MOL0     C77058   8.321   1.626   3.320 -0.4336  0.2284  0.4427
  559MOL0     C77059   8.612   1.316   3.359  0.1483  0.5501 -1.0167
  559MOL0     C77060   8.641   1.346   3.494 -0.1184 -0.1446  0.6318
  559MOL0     C77061   8.687   1.247   3.583  0.3938 -0.4073 -0.0810
  559MOL0     C77062   8.719   1.118   3.535 -0.9571  0.0043  0.1067
  559MOL0     O77063   8.770   1.030   3.626  0.4635  0.3664 -0.2776
  559MOL0     C77064   8.771   0.893   3.585 -0.2435  0.0670  0.1829
  559MOL0     C77065   8.808   0.795   3.697 -0.1705  0.7672 -0.4625
  559MOL0     C77066   8.961   0.764   3.683  0.6151  0.0815  0.2160
  559MOL0     C77067   8.978   0.615   3.746  0.4480  1.4665 -0.2144
  559MOL0     C77068   9.119   0.589   3.768 -0.4312  1.4086  0.3092
  559MOL0     C77069   9.235   0.557   3.762 -0.3423 -0.9031 -0.3317
  559MOL0     C77070   8.696   1.088   3.402 -0.5228  0.4873 -0.1547
  559MOL0     C77071   8.650   1.180   3.308  0.3451  0.4256 -0.8101
  559MOL0     C77072   8.625   1.145   3.168  0.2794  0.7529 -1.5229
  559MOL0     H77073   8.592   1.724   3.130 -0.5138  1.4562 -0.4376
  559MOL0     H77074   8.408   1.872   3.033 -2.8855 -0.2590 -0.3065
  559MOL0     H77075   8.187   1.990   3.288  0.5435  0.9587 -0.3783
  559MOL0     H77076   8.025   1.941   3.242  0.1775 -1.1483  1.3108
  559MOL0     H77077   8.199   2.166   3.151 -0.2148  3.0336 -1.2175
  559MOL0     H77078   8.093   2.099   3.029 -0.9128 -0.7370  0.7430
  559MOL0     H77079   8.007   2.294   3.156 -0.7523 -0.1231 -1.7161
  559MOL0     H77080   7.893   2.162   3.180 -0.3128  1.3429  2.3136
  559MOL0     H77081   8.003   2.120   3.390  3.4704 -1.5078 -2.8685
  559MOL0     H77082   8.090   2.272   3.376  0.5810 -0.3409 -2.5954
  559MOL0     H77083   7.874   2.307   3.510 -0.6524  2.6382 -0.3851
  559MOL0     H77084   7.775   2.254   3.367  1.8926 -1.0607 -0.7059
  559MOL0     H77085   7.854   2.475   3.256 -1.7747  1.1653  0.4217
  559MOL0     H77086   7.813   2.523   3.424  1.7422 -0.1976  1.9963
  559MOL0     H77087   7.989   2.643   3.357  1.9244 -1.7544 -2.9831
  559MOL0     H77088   8.062   2.501   3.308  0.0648 -0.4539  0.2493
  559MOL0     H77089   8.088   2.426   3.549 -0.3059  0.0402 -2.5571
  559MOL0     H77090   8.156   2.596   3.512 -0.5609  0.4545  1.3421
  559MOL0     H77091   7.975   2.430   3.782 -4.7856  0.3022  0.8239
  559MOL0     H77092   7.962   2.711   4.030 -3.2061  2.1060  1.5539
  559MOL0     H77093   7.931   2.533   4.006  1.9054  0.8154 -2.1344
  559MOL0     H77094   7.710   2.747   3.990  1.2885 -0.3079 -0.3363
  559MOL0     H77095   7.698   2.577   3.963 -2.3715  1.6969 -0.2235
  559MOL0     H77096   7.790   2.706   4.223  0.0909  3.2036 -2.7540
  559MOL0     H77097   7.631   2.694   4.200  0.7177  2.2743  0.7123
  559MOL0     H77098   7.672   2.420   4.163  0.5446 -1.0231  0.1525
  559MOL0     H77099   7.837   2.466   4.215 -0.2376  1.8811  0.9537
  559MOL0     H77100   7.810   2.268   4.325  1.1927  0.9536  0.9373
  559MOL0     H77101   7.933   2.059   4.461 -0.8404  4.1682  0.6998
  559MOL0     H77102   7.789   2.047   4.342 -0.4725 -4.0886  0.0409
  559MOL0     H77103   7.796   1.944   4.468  0.5749 -0.4442 -1.2619
  559MOL0     H77104   7.357   1.877   4.855 -0.1683 -1.7033 -0.0111
  559MOL0     H77105   7.312   1.805   5.085 -2.8749  3.0194  1.0410
  559MOL0     H77106   7.643   1.849   5.347  0.5824  1.1134 -0.3435
  559MOL0     H77107   7.579   1.996   5.409 -3.8369  1.4060 -0.7695
  559MOL0     H77108   7.460   1.897   5.569 -0.1583  1.6086 -2.2016
  559MOL0     H77109   7.456   1.728   5.492 -0.4372 -0.1949  0.9533
  559MOL0     H77110   7.699   1.843   5.619  1.7073 -1.9445  1.8146
  559MOL0     H77111   7.673   1.692   5.520 -1.0898  0.7455 -0.6023
  559MOL0     H77112   7.554   1.597   5.703  0.7448  0.8272  0.6454
  559MOL0     H77113   7.467   1.734   5.733 -0.8740 -2.2270  1.8721
  559MOL0     H77114   7.756   1.671   5.823 -0.9189 -0.5654 -3.8654
  559MOL0     H77115   7.681   1.812   5.880  2.9361 -1.1133  0.8218
  559MOL0     H77116   7.653   1.642   6.053 -1.0509  1.1438  0.0871
  559MOL0     H77117   7.565   1.536   5.940 -2.0332 -0.4383  1.0196
  559MOL0     H77118   7.369   1.665   5.927 -0.6217 -0.1759  1.5730
  559MOL0     H77119   7.438   1.812   5.981 -0.2603 -0.0120  0.9607
  559MOL0     H77120   7.436   1.734   6.214  3.2951 -3.3074  1.7385
  559MOL0     H77121   7.439   1.564   6.158 -1.2996 -0.6612  0.2285
  559MOL0     H77122   7.666   2.037   5.203 -1.5922  1.8910  0.5926
  559MOL0     H77123   7.706   2.102   4.994 -2.1971  3.7688  0.3853
  559MOL0     H77124   7.556   2.286   4.749 -1.1378 -0.6444 -0.5563
  559MOL0     H77125   7.536   2.474   4.595 -3.0475 -2.0246 -1.6943
  559MOL0     H77126   8.116   1.698   3.289 -0.2743  2.1682 -0.2053
  559MOL0     H77127   8.308   1.566   3.409 -1.0356  0.8061  0.7537
  559MOL0     H77128   8.606   1.444   3.526 -1.3956  0.1159 -1.3731
  559MOL0     H77129   8.706   1.266   3.688  0.2795  0.5196 -0.2163
  559MOL0     H77130   8.670   0.861   3.556 -0.1877 -1.6737  1.6677
  559MOL0     H77131   8.844   0.889   3.504  2.9991 -2.0345  2.9228
  559MOL0     H77132   8.744   0.707   3.693  0.3934  0.3257 -0.0103
  559MOL0     H77133   8.782   0.843   3.792  1.2969 -0.0880  0.4167
  559MOL0     H77134   8.996   0.750   3.580 -0.4284 -0.6975 -0.0630
  559MOL0     H77135   9.020   0.846   3.724  0.2084  0.7805 -0.5687
  559MOL0     H77136   8.951   0.535   3.676 -3.5055  1.5650  0.9307
  559MOL0     H77137   8.912   0.599   3.831 -0.6050  3.3185 -0.6244
  559MOL0     H77138   9.336   0.525   3.748 -1.1826 -3.2992 -1.4551
  559MOL0     H77139   8.727   0.992   3.362 -2.9059 -0.7192  0.7349
  559MOL0     H77140   8.524   1.184   3.153 -0.5903 -0.7066  0.1030
  559MOL0     H77141   8.707   1.192   3.114  3.1857  0.4462  2.2341
  559MOL0     H77142   8.625   1.036   3.154  1.3405  0.0228  2.7024
  560MOL0     O77143   5.670   1.319  10.830 -0.7804  0.0416  0.4881
  560MOL0     C77144   5.695   1.292  10.944  0.0757  0.2121  0.2437
  560MOL0     O77145   5.639   1.335  11.052  0.3705 -0.0735 -0.4117
  560MOL0     C77146   5.518   1.392  11.034 -0.7938 -0.6518 -0.2909
  560MOL0     C77147   5.506   1.516  10.970 -0.7610  0.1144 -0.1244
  560MOL0     C77148   5.378   1.576  10.942  0.0169  0.7463  0.3694
  560MOL0     C77149   5.269   1.498  10.990  0.1940  0.2503  0.2774
  560MOL0     O77150   5.150   1.550  10.960  0.0186  0.4910  0.6714
  560MOL0     C77151   5.086   1.632  11.060 -0.7090 -1.0683 -0.9667
  560MOL0     C77152   5.102   1.784  11.036  0.2086 -1.0711  0.1090
  560MOL0     C77153   4.998   1.826  10.926  0.0373 -0.5397 -0.3328
  560MOL0     C77154   5.019   1.976  10.882 -0.2304  0.2852 -0.0773
  560MOL0     C77155   4.886   2.035  10.861  1.2427 -0.7202 -0.6330
  560MOL0     C77156   4.903   2.185  10.816  0.2438  0.2609  0.0549
  560MOL0     C77157   4.764   2.251  10.816 -0.2493  0.2197 -0.1691
  560MOL0     C77158   4.728   2.363  10.915 -0.1167 -0.4592 -0.2450
  560MOL0     N77159   4.605   2.448  10.890 -0.4540  0.8582  0.1411
  560MOL0     C77160   4.577   2.518  10.779 -0.1272  0.3056 -0.3384
  560MOL0     C77161   4.462   2.586  10.811 -0.2406  0.4256  0.4689
  560MOL0     C77162   4.380   2.671  10.705  0.6648 -0.2030  0.5376
  560MOL0     C77163   4.443   2.795  10.648  0.4853 -0.0355  0.8916
  560MOL0     C77164   4.349   2.891  10.571 -0.0564 -0.2519  0.8769
  560MOL0     C77165   4.416   3.030  10.551  0.1991 -0.3334 -0.6692
  560MOL0     O77166   4.412   3.105  10.676 -0.3442 -0.0001  0.2826
  560MOL0     C77167   4.437   3.241  10.660  0.0937 -0.4294  0.5591
  560MOL0     C77168   4.438   3.326  10.769  0.6332 -0.4502 -1.1238
  560MOL0     C77169   4.436   3.464  10.761  0.8057  0.1545 -0.5712
  560MOL0     C77170   4.421   3.538  10.899  0.7168 -0.2984  0.7202
  560MOL0     C77171   4.441   3.522  10.629 -0.7253 -0.0274  0.2184
  560MOL0     C77172   4.435   3.671  10.585  0.3929 -0.3568  0.0220
  560MOL0     O77173   4.447   3.707  10.454  0.2379 -0.0007 -0.4144
  560MOL0     C77174   4.451   3.832  10.401 -0.4102  0.0672 -0.1569
  560MOL0     C77175   4.431   3.833  10.255  0.0278  0.3681 -0.1530
  560MOL0     C77176   4.463   3.951  10.177  0.4442  1.0804 -0.3466
  560MOL0     C77177   4.494   4.066  10.248  0.3912  0.0506  0.2295
  560MOL0     O77178   4.530   4.188  10.187  0.0011  0.3804  0.6508
  560MOL0     C77179   4.453   4.219  10.073 -0.5551  0.5311 -0.6211
  560MOL0     C77180   4.505   4.344  10.009 -0.1631  1.0271 -0.7157
  560MOL0     C77181   4.508   4.471  10.090  1.2936  1.1402  0.5012
  560MOL0     C77182   4.375   4.502  10.165  0.4689  1.3567  0.4985
  560MOL0     C77183   4.378   4.462  10.312  0.1727  1.3105  0.1330
  560MOL0     C77184   4.474   4.539  10.400  0.0060  1.0413  0.1795
  560MOL0     C77185   4.620   4.478  10.403  0.1583 -0.1895 -0.0604
  560MOL0     C77186   4.690   4.469  10.541 -0.6715  0.4144  0.1258
  560MOL0    Cl77187   4.601   4.370  10.664 -0.0542  0.1143  0.1508
  560MOL0     C77188   4.495   4.076  10.386 -0.1186  0.1662 -0.6233
  560MOL0     C77189   4.478   3.955  10.467  0.0033 -0.7779  0.7043
  560MOL0     O77190   4.391   3.745  10.673  0.3302 -0.1297  0.4236
  560MOL0     C77191   4.488   3.437  10.527  0.0969  0.9978  0.6001
  560MOL0     C77192   4.492   3.300  10.542  0.7979  0.1166  0.8986
  560MOL0     N77193   4.424   2.554  10.935  0.5069 -0.0950  0.3815
  560MOL0     N77194   4.502   2.464  10.976  0.0692 -0.3645  0.2802
  560MOL0     C77195   5.276   1.385  11.062  0.1724  0.5758  0.5609
  560MOL0     C77196   5.405   1.333  11.086  0.2494 -0.3059 -0.2352
  560MOL0     C77197   5.786   1.179  10.972 -0.3422 -0.9418 -0.6754
  560MOL0     C77198   5.868   1.187  11.084 -1.1184  0.5516 -1.1343
  560MOL0     C77199   5.947   1.076  11.129  0.3782 -0.5931  0.4626
  560MOL0     C77200   5.952   0.956  11.049  0.5301 -0.7343  0.2781
  560MOL0     O77201   6.039   0.853  11.083  0.3397 -0.1032  0.1490
  560MOL0     C77202   6.096   0.773  10.978  0.1981 -0.2852  0.1285
  560MOL0     C77203   6.247   0.746  10.999 -0.4886 -0.3587 -0.6293
  560MOL0     C77204   6.340   0.874  11.018  0.8036  0.3270 -0.0776
  560MOL0     C77205   6.357   0.902  11.168  0.1823 -0.5135  0.6169
  560MOL0     C77206   6.403   0.786  11.252  0.6176  0.2770  1.1428
  560MOL0     C77207   6.442   0.691  11.319 -1.2291 -0.6813 -0.3868
  560MOL0     C77208   5.853   0.946  10.949 -0.0587  0.0469  0.3787
  560MOL0     C77209   5.776   1.056  10.911 -0.4897 -0.5049  0.9063
  560MOL0     C77210   5.681   1.040  10.795  0.1228  0.0848 -0.2183
  560MOL0     H77211   5.597   1.562  10.931 -0.6076 -0.2424 -0.1871
  560MOL0     H77212   5.344   1.664  10.887 -2.8867  0.0954  0.9583
  560MOL0     H77213   5.137   1.609  11.154 -0.4913 -1.6475 -1.2152
  560MOL0     H77214   4.979   1.608  11.065 -1.0870 -0.1595 -3.1447
  560MOL0     H77215   5.078   1.840  11.127  1.2478 -0.2640 -0.0992
  560MOL0     H77216   5.202   1.810  11.000 -0.4895  2.3279  0.3278
  560MOL0     H77217   5.010   1.765  10.836  0.4162 -0.0723 -0.6076
  560MOL0     H77218   4.896   1.805  10.958 -1.1178  0.5769 -2.9435
  560MOL0     H77219   5.067   2.039  10.958 -5.4726  2.4918  1.8831
  560MOL0     H77220   5.067   1.979  10.784 -1.6466 -3.3617 -1.0437
  560MOL0     H77221   4.831   2.027  10.955 -2.9999  1.4604 -2.6593
  560MOL0     H77222   4.830   1.978  10.786 -1.4184  0.1672  0.5646
  560MOL0     H77223   4.972   2.226  10.891  2.1848  1.1656 -2.0963
  560MOL0     H77224   4.956   2.193  10.720  2.0384 -0.5372  0.9420
  560MOL0     H77225   4.696   2.169  10.842 -0.4868  0.8620  1.3491
  560MOL0     H77226   4.764   2.275  10.710 -0.3680 -0.8033 -0.4147
  560MOL0     H77227   4.734   2.322  11.017 -0.7527  1.8154  0.7690
  560MOL0     H77228   4.811   2.434  10.917 -0.2613 -0.2750 -0.6790
  560MOL0     H77229   4.632   2.525  10.686  0.9885  0.3040  0.2983
  560MOL0     H77230   4.293   2.708  10.761  1.4691 -0.4837  2.0405
  560MOL0     H77231   4.343   2.595  10.637 -1.5781 -3.4402  4.8340
  560MOL0     H77232   4.486   2.856  10.728 -1.5756  0.8394  1.4047
  560MOL0     H77233   4.521   2.773  10.575 -0.1487  1.7428 -0.3875
  560MOL0     H77234   4.324   2.843  10.476  1.5335  1.5251 -0.5137
  560MOL0     H77235   4.252   2.907  10.618 -1.5896  1.3972 -2.5581
  560MOL0     H77236   4.515   3.008  10.511  0.0120 -2.9973  0.1705
  560MOL0     H77237   4.357   3.085  10.476  1.7568 -0.0318 -1.7273
  560MOL0     H77238   4.423   3.294  10.872 -1.8675  2.3756 -0.4728
  560MOL0     H77239   4.320   3.578  10.912  1.0682  1.9657 -2.3347
  560MOL0     H77240   4.494   3.618  10.893  1.7642 -1.3245 -2.0639
  560MOL0     H77241   4.450   3.482  10.988  0.9115  0.8249  1.3790
  560MOL0     H77242   4.400   3.741  10.206 -0.6495 -0.6293  2.0461
  560MOL0     H77243   4.465   3.942  10.069 -0.5636  1.0018 -0.3634
  560MOL0     H77244   4.446   4.141   9.996  0.1087  0.0612 -0.2156
  560MOL0     H77245   4.353   4.238  10.113 -0.3454  0.9158 -0.2783
  560MOL0     H77246   4.611   4.324   9.992 -0.2882 -0.9945  0.5311
  560MOL0     H77247   4.446   4.374   9.922  0.4560  0.0840 -1.4855
  560MOL0     H77248   4.531   4.556  10.025  1.4840 -0.5207 -1.7331
  560MOL0     H77249   4.599   4.466  10.151  0.7826  3.5140  1.5805
  560MOL0     H77250   4.293   4.448  10.117  1.8548 -0.3135 -0.1083
  560MOL0     H77251   4.351   4.608  10.154  0.8116  1.5875  1.7446
  560MOL0     H77252   4.282   4.495  10.353  0.0507 -1.7525  2.6440
  560MOL0     H77253   4.377   4.356  10.337 -1.3634  1.5289  1.1283
  560MOL0     H77254   4.431   4.542  10.501  2.8451 -0.8203  1.6110
  560MOL0     H77255   4.480   4.645  10.374 -0.5254  0.5123 -2.3525
  560MOL0     H77256   4.679   4.532  10.328 -2.2999 -1.5235 -3.1870
  560MOL0     H77257   4.610   4.376  10.366 -1.9120 -0.9682  2.3530
  560MOL0     H77258   4.700   4.571  10.578 -0.6936 -0.4497  2.7602
  560MOL0     H77259   4.793   4.434  10.527 -1.7690 -2.0018 -3.3345
  560MOL0     H77260   4.513   4.169  10.439  0.2147  0.5182 -1.3452
  560MOL0     H77261   4.468   3.979  10.572 -0.5816  1.9987  0.0911
  560MOL0     H77262   4.510   3.477  10.428  0.2410  0.8603  0.5750
  560MOL0     H77263   4.519   3.241  10.455  1.6247  0.9928  0.5399
  560MOL0     H77264   5.180   1.356  11.105  0.3383  0.6855  1.0096
  560MOL0     H77265   5.404   1.241  11.144 -0.0017  0.9104  1.7768
  560MOL0     H77266   5.876   1.276  11.145 -0.2772  1.4227 -2.4521
  560MOL0     H77267   6.007   1.080  11.219 -0.0453 -0.3735  0.7344
  560MOL0     H77268   6.040   0.679  10.971 -0.1068  0.0221 -2.8006
  560MOL0     H77269   6.086   0.827  10.883 -3.4994 -1.3944 -0.2838
  560MOL0     H77270   6.282   0.697  10.907 -1.2859 -4.3383  0.9631
  560MOL0     H77271   6.253   0.664  11.071 -3.4467  0.0622  0.2201
  560MOL0     H77272   6.442   0.861  10.980  0.6676  2.2962 -1.2726
  560MOL0     H77273   6.298   0.962  10.968  0.8891  0.9818  0.9755
  560MOL0     H77274   6.266   0.947  11.210  1.3651  1.5694  1.1011
  560MOL0     H77275   6.436   0.978  11.175  1.6058 -1.3387 -3.6252
  560MOL0     H77276   6.494   0.620  11.380  0.5117 -1.4314 -2.6265
  560MOL0     H77277   5.845   0.851  10.896 -3.2817  1.0229 -1.1641
  560MOL0     H77278   5.585   1.087  10.822  0.0872 -0.7731  1.2568
  560MOL0     H77279   5.726   1.090  10.709 -0.9567 -1.6683 -1.8962
  560MOL0     H77280   5.675   0.935  10.767  2.5146  0.0867 -0.8967
  561MOL0     O77281   0.012   2.201   0.470 -0.0974  0.3913  0.0967
  561MOL0     C77282   0.030   2.075   0.468  0.2072  0.6227 -0.1054
  561MOL0     O77283  -0.037   1.983   0.543 -0.3312 -0.3783 -0.3891
  561MOL0     C77284  -0.125   2.035   0.636  1.0115  0.1915  1.2712
  561MOL0     C77285  -0.125   1.997   0.766  0.2455 -0.0143  0.5941
  561MOL0     C77286  -0.231   2.021   0.853 -0.4145 -0.2847 -0.6926
  561MOL0     C77287  -0.333   2.097   0.810 -0.1410  1.0300  0.8728
  561MOL0     O77288  -0.440   2.134   0.882  0.2095 -0.3159  0.2816
  561MOL0     C77289  -0.500   2.043   0.969 -0.0349 -0.1047  0.2681
  561MOL0     C77290  -0.605   1.948   0.899  0.2628  0.7088 -0.7169
  561MOL0     C77291  -0.666   1.854   1.008  0.2587  0.3651  0.8257
  561MOL0     C77292  -0.814   1.830   0.988 -0.5073 -0.4040 -0.3067
  561MOL0     C77293  -0.901   1.815   1.111 -0.3517  0.7343  0.8882
  561MOL0     C77294  -1.048   1.818   1.067 -1.2824 -0.7892 -0.8182
  561MOL0     C77295  -1.139   1.800   1.182 -0.0959  0.1748  0.2873
  561MOL0     C77296  -1.096   1.686   1.269  0.1296 -0.4576 -0.0709
  561MOL0     N77297  -1.207   1.660   1.357  0.4496 -0.1553 -0.6885
  561MOL0     C77298  -1.241   1.722   1.475 -0.5999 -0.2777  0.1033
  561MOL0     C77299  -1.346   1.653   1.521  1.1227 -1.3977 -0.5047
  561MOL0     C77300  -1.413   1.673   1.658 -0.4435 -0.2081  0.1965
  561MOL0     C77301  -1.541   1.763   1.668  0.3389  0.1868  0.2472
  561MOL0     C77302  -1.606   1.753   1.813  0.0604  0.0890 -0.3972
  561MOL0     C77303  -1.641   1.613   1.847  1.0196 -0.0311 -0.6362
  561MOL0     O77304  -1.750   1.619   1.944  0.6215  0.3942  0.3544
  561MOL0     C77305  -1.746   1.508   2.030  0.3994  0.2165  0.1460
  561MOL0     C77306  -1.832   1.517   2.136 -0.5544 -0.2280  0.2741
  561MOL0     C77307  -1.860   1.412   2.222  0.3531  0.1012 -0.5704
  561MOL0     C77308  -1.938   1.436   2.348 -0.0558  0.8336 -0.3561
  561MOL0     C77309  -1.799   1.287   2.191  0.5314 -0.8967  0.3341
  561MOL0     C77310  -1.810   1.172   2.280  0.5440 -0.4231 -0.4480
  561MOL0     O77311  -1.692   1.112   2.323 -0.1828 -0.3207  0.4804
  561MOL0     C77312  -1.668   1.108   2.451  0.9966 -0.1551  0.1705
  561MOL0     C77313  -1.739   1.176   2.558 -0.4072  0.4421 -0.7922
  561MOL0     C77314  -1.686   1.160   2.691 -0.0335 -0.3789  0.0288
  561MOL0     C77315  -1.573   1.081   2.725  0.4887 -0.0472  0.7875
  561MOL0     O77316  -1.511   1.069   2.849  0.1733 -0.2644  0.4534
  561MOL0     C77317  -1.568   1.139   2.958 -0.3933 -0.9026  0.2926
  561MOL0     C77318  -1.484   1.147   3.085 -0.2700  0.2289  0.6286
  561MOL0     C77319  -1.551   1.215   3.212 -0.7733  0.3625  0.4318
  561MOL0     C77320  -1.456   1.179   3.335  0.4187 -0.6336 -0.2780
  561MOL0     C77321  -1.531   1.233   3.460  0.6256 -1.1273  0.0029
  561MOL0     C77322  -1.510   1.387   3.479  0.4168  0.7381 -0.2717
  561MOL0     C77323  -1.387   1.418   3.576 -0.5382  0.6063  0.2827
  561MOL0     C77324  -1.340   1.562   3.549 -0.0533  0.6662 -0.1332
  561MOL0    Cl77325  -1.263   1.639   3.696  0.3598  0.2447  0.2712
  561MOL0     C77326  -1.521   1.009   2.614  0.4308  0.2532  0.3456
  561MOL0     C77327  -1.558   1.032   2.479 -0.3214  0.3634  0.2818
  561MOL0     O77328  -1.920   1.151   2.336 -0.2397  0.5270  0.7116
  561MOL0     C77329  -1.719   1.279   2.076 -0.0562  1.1295 -0.6851
  561MOL0     C77330  -1.688   1.387   2.004  0.4647  0.1705  1.1242
  561MOL0     N77331  -1.391   1.571   1.424 -1.0714 -0.0020 -0.5273
  561MOL0     N77332  -1.298   1.570   1.332  0.4306 -0.1885 -0.5229
  561MOL0     C77333  -0.325   2.151   0.677 -0.9070 -1.3660 -0.4663
  561MOL0     C77334  -0.219   2.115   0.599  0.6249  0.1574 -0.1199
  561MOL0     C77335   0.143   2.021   0.383  0.1943 -0.8487 -0.4668
  561MOL0     C77336   0.104   1.962   0.262  0.3342 -0.0230 -0.2926
  561MOL0     C77337   0.203   1.908   0.169  0.5396  0.0719  0.2784
  561MOL0     C77338   0.337   1.927   0.200  0.4901 -0.2987 -0.4943
  561MOL0     O77339   0.441   1.892   0.128 -0.4216  0.2189  0.5066
  561MOL0     C77340   0.421   1.763   0.060  0.8017  0.4001 -0.3169
  561MOL0     C77341   0.545   1.703   0.018  0.2995  0.1078  1.2530
  561MOL0     C77342   0.654   1.796  -0.033 -0.4569  0.9113  0.0243
  561MOL0     C77343   0.772   1.726  -0.101  0.3697 -0.5593  0.9170
  561MOL0     C77344   0.750   1.671  -0.230  0.6422  0.5027 -0.4055
  561MOL0     C77345   0.714   1.631  -0.343  1.0838  0.5047 -0.0355
  561MOL0     C77346   0.374   1.982   0.330  0.3483 -0.2411  0.2669
  561MOL0     C77347   0.280   2.032   0.418  0.2614  0.1885 -0.7094
  561MOL0     C77348   0.323   2.070   0.559 -0.3531  0.0415 -0.3633
  561MOL0     H77349  -0.041   1.945   0.809 -2.2827 -1.1553  4.7248
  561MOL0     H77350  -0.233   1.974   0.951 -0.2310 -1.4892 -1.2485
  561MOL0     H77351  -0.555   2.099   1.046  0.5207  1.4403 -0.4121
  561MOL0     H77352  -0.423   1.985   1.021 -0.9106 -1.0248  0.5537
  561MOL0     H77353  -0.677   2.005   0.840 -1.3820  0.0658  0.5565
  561MOL0     H77354  -0.536   1.888   0.839  2.1316  1.2073  0.8483
  561MOL0     H77355  -0.614   1.758   1.016 -1.6199 -0.7876 -0.1469
  561MOL0     H77356  -0.652   1.896   1.108 -0.1399 -0.8306  1.3954
  561MOL0     H77357  -0.844   1.915   0.925 -0.7868 -1.0943 -1.1222
  561MOL0     H77358  -0.830   1.735   0.936  1.3412 -1.4954  0.9993
  561MOL0     H77359  -0.879   1.886   1.191  1.0468  2.7794 -1.1776
  561MOL0     H77360  -0.861   1.721   1.148 -0.8311  0.8999  1.8604
  561MOL0     H77361  -1.072   1.911   1.013 -2.2618 -0.8872 -0.5767
  561MOL0     H77362  -1.078   1.737   1.000 -5.0578  0.1915 -0.5221
  561MOL0     H77363  -1.243   1.790   1.153 -0.4075 -0.6394  1.6147
  561MOL0     H77364  -1.131   1.900   1.226 -2.4398  2.3910 -3.7630
  561MOL0     H77365  -1.086   1.593   1.211  3.9244  0.5848 -1.3544
  561MOL0     H77366  -1.006   1.711   1.324 -0.2471 -0.6175  0.6261
  561MOL0     H77367  -1.191   1.804   1.525 -0.6678  0.2239 -0.6273
  561MOL0     H77368  -1.335   1.714   1.722 -1.6539 -0.3079  1.7987
  561MOL0     H77369  -1.441   1.571   1.688 -2.2636  0.1000 -0.3101
  561MOL0     H77370  -1.511   1.857   1.622 -2.3580  0.9280 -0.1736
  561MOL0     H77371  -1.616   1.720   1.601  1.7386  2.8359 -3.3607
  561MOL0     H77372  -1.523   1.789   1.874  0.5816 -1.7073  0.0253
  561MOL0     H77373  -1.691   1.821   1.825 -0.7441 -0.6295 -1.7139
  561MOL0     H77374  -1.673   1.557   1.758  1.3699  0.5159 -1.1080
  561MOL0     H77375  -1.559   1.556   1.892  0.9539 -1.2097 -1.9452
  561MOL0     H77376  -1.877   1.614   2.157  1.9620  1.0430  0.1437
  561MOL0     H77377  -1.883   1.417   2.440  0.7709  1.2973 -0.7423
  561MOL0     H77378  -2.025   1.370   2.351  1.5076 -1.3650 -1.2101
  561MOL0     H77379  -1.969   1.541   2.354 -1.4770  0.3479  2.7213
  561MOL0     H77380  -1.816   1.251   2.539 -0.5995  0.9017  1.5564
  561MOL0     H77381  -1.743   1.225   2.757 -1.1859  0.9673 -2.1507
  561MOL0     H77382  -1.577   1.246   2.935  1.5182  0.4251  4.7749
  561MOL0     H77383  -1.661   1.086   2.980  0.4627 -2.8726 -0.6123
  561MOL0     H77384  -1.475   1.040   3.109 -1.4312 -0.0495 -0.0938
  561MOL0     H77385  -1.383   1.183   3.066 -0.4403  0.3472 -0.1040
  561MOL0     H77386  -1.652   1.175   3.225  0.0926 -1.9056  0.6388
  561MOL0     H77387  -1.554   1.324   3.202  1.2232  0.3220 -0.9679
  561MOL0     H77388  -1.354   1.218   3.328 -0.2264  2.2914  3.4322
  561MOL0     H77389  -1.458   1.070   3.340 -3.3313 -0.7728 -1.5943
  561MOL0     H77390  -1.638   1.225   3.437  0.8294 -1.7860 -0.7625
  561MOL0     H77391  -1.519   1.173   3.551 -1.8061 -0.4827  0.8319
  561MOL0     H77392  -1.601   1.425   3.526  0.1006  1.2207 -1.2508
  561MOL0     H77393  -1.504   1.436   3.382 -0.8291  4.9298  1.5352
  561MOL0     H77394  -1.305   1.354   3.539  0.6527  2.7588 -1.0209
  561MOL0     H77395  -1.408   1.394   3.680 -1.1022  0.1520  0.0710
  561MOL0     H77396  -1.434   1.617   3.540  0.8287  2.2009 -0.3101
  561MOL0     H77397  -1.278   1.584   3.461  2.0933  0.4668  1.2417
  561MOL0     H77398  -1.454   0.926   2.635 -0.5424 -1.0383 -1.4165
  561MOL0     H77399  -1.516   0.974   2.398  1.4215 -0.1177  1.4762
  561MOL0     H77400  -1.677   1.180   2.060 -0.7875  0.5459  0.7694
  561MOL0     H77401  -1.648   1.374   1.904 -4.1557 -2.4310 -0.7134
  561MOL0     H77402  -0.405   2.212   0.637  2.7855  2.3630 -2.9474
  561MOL0     H77403  -0.219   2.140   0.493  0.1467  0.1070 -0.1340
  561MOL0     H77404   0.002   1.967   0.225 -0.1063  1.9456  1.0520
  561MOL0     H77405   0.161   1.874   0.075 -3.6215 -3.1818  2.9361
  561MOL0     H77406   0.373   1.703   0.137  1.7553  3.1108  2.6503
  561MOL0     H77407   0.353   1.794  -0.019  0.2368 -3.0765 -1.3378
  561MOL0     H77408   0.511   1.640  -0.065  1.8538  0.0158  0.6468
  561MOL0     H77409   0.585   1.637   0.096  2.0915  1.4851  1.5773
  561MOL0     H77410   0.619   1.881  -0.093 -0.5971 -0.1769 -1.4822
  561MOL0     H77411   0.692   1.847   0.056  0.8265 -2.6456  1.7198
  561MOL0     H77412   0.803   1.650  -0.028 -1.7815 -0.2126  2.2838
  561MOL0     H77413   0.851   1.801  -0.103 -3.2720  3.6374  0.7209
  561MOL0     H77414   0.692   1.615  -0.447 -2.0132 -0.0500  0.6175
  561MOL0     H77415   0.478   1.984   0.361  0.5225 -0.4741 -0.2997
  561MOL0     H77416   0.422   2.035   0.591 -0.5642 -4.0847 -3.2973
  561MOL0     H77417   0.335   2.178   0.548  1.5873 -0.3288 -3.0884
  561MOL0     H77418   0.250   2.035   0.632  0.4456 -0.7786  0.0682
  562MOL0     O77419   6.988   5.074   9.170  0.4520  0.5036 -0.6453
  562MOL0     C77420   7.039   5.126   9.066  0.0208 -0.0242 -0.0471
  562MOL0     O77421   7.177   5.135   9.029  0.2581 -0.4104 -1.0800
  562MOL0     C77422   7.263   5.057   9.104  0.2301 -0.3056  0.1052
  562MOL0     C77423   7.295   4.930   9.056  0.6186  0.3387  0.8531
  562MOL0     C77424   7.403   4.862   9.116 -0.5535  0.0874 -0.1229
  562MOL0     C77425   7.462   4.905   9.227 -0.4311 -0.1803 -0.7971
  562MOL0     O77426   7.544   4.833   9.305  0.7598 -0.6667  0.6013
  562MOL0     C77427   7.620   4.733   9.256 -0.4069 -0.1217 -0.2372
  562MOL0     C77428   7.734   4.709   9.360  0.1617 -0.3671  0.0398
  562MOL0     C77429   7.850   4.805   9.334  0.2659  0.7098  0.2084
  562MOL0     C77430   7.823   4.939   9.402 -0.1128  0.6235  0.4633
  562MOL0     C77431   7.953   5.014   9.410  0.4565 -0.1943  0.3856
  562MOL0     C77432   8.040   4.971   9.531 -1.0934 -0.2721  1.1248
  562MOL0     C77433   8.172   5.040   9.529  1.4480  1.1588  0.2434
  562MOL0     C77434   8.249   5.015   9.650  0.4613 -0.3337  0.1092
  562MOL0     N77435   8.253   5.142   9.728  0.2005  0.2766 -0.0763
  562MOL0     C77436   8.310   5.263   9.705  0.1515 -0.3634  0.5115
  562MOL0     C77437   8.271   5.343   9.802 -0.1540  0.3601  0.4646
  562MOL0     C77438   8.318   5.481   9.814 -0.6116  0.0231 -0.1474
  562MOL0     C77439   8.218   5.587   9.870  0.1443 -0.1702  0.3568
  562MOL0     C77440   8.125   5.641   9.769  0.0777  0.7509 -0.7320
  562MOL0     C77441   8.014   5.548   9.743 -0.2159 -0.5171  0.1645
  562MOL0     O77442   7.924   5.544   9.860  0.0155 -0.2539  0.1590
  562MOL0     C77443   7.838   5.442   9.873  0.4720 -0.4623 -0.4205
  562MOL0     C77444   7.711   5.469   9.929 -0.2202 -0.0653  0.3302
  562MOL0     C77445   7.609   5.372   9.953  0.0933  0.1174  0.1646
  562MOL0     C77446   7.481   5.416  10.018 -0.8469 -0.4304  0.1734
  562MOL0     C77447   7.643   5.234   9.922 -0.5356  0.1891  0.9290
  562MOL0     C77448   7.547   5.119   9.936  0.3018  0.0322  0.1208
  562MOL0     O77449   7.574   5.012   9.859  0.3003  0.7865 -0.3219
  562MOL0     C77450   7.482   4.904   9.858 -0.8121 -0.1054 -0.5773
  562MOL0     C77451   7.405   4.883   9.744 -0.4743 -0.2722  0.3270
  562MOL0     C77452   7.305   4.788   9.737 -0.8536  0.2783  0.0440
  562MOL0     C77453   7.255   4.727   9.858 -0.3059 -0.1112  1.0235
  562MOL0     O77454   7.146   4.641   9.869 -0.3159 -0.5546 -0.5999
  562MOL0     C77455   7.088   4.581   9.761 -0.4157 -0.7664  0.0915
  562MOL0     C77456   7.161   4.459   9.701 -0.4694  0.1760  1.0071
  562MOL0     C77457   7.156   4.327   9.793 -0.1313  0.1228  0.2807
  562MOL0     C77458   7.013   4.253   9.782 -0.0785  0.3444  0.3156
  562MOL0     C77459   6.982   4.139   9.882 -0.9437  0.7399  0.0300
  562MOL0     C77460   6.828   4.118   9.897 -0.2088  0.2905 -0.4970
  562MOL0     C77461   6.782   3.987   9.945 -0.3676  1.4577 -0.1757
  562MOL0     C77462   6.638   3.984   9.980  0.0206  0.0848 -0.1883
  562MOL0    Cl77463   6.602   3.818  10.047  0.2408  0.0241  0.6064
  562MOL0     C77464   7.343   4.739   9.974  0.2711 -0.0019  1.5904
  562MOL0     C77465   7.449   4.825   9.973  0.8955  0.5011  0.5611
  562MOL0     O77466   7.435   5.134   9.990  0.2747 -0.5159  0.0081
  562MOL0     C77467   7.766   5.211   9.857 -0.2173 -0.6374 -0.6929
  562MOL0     C77468   7.858   5.310   9.841  0.0916 -0.8887  0.2239
  562MOL0     N77469   8.193   5.267   9.886  0.0387 -0.1767 -0.0300
  562MOL0     N77470   8.187   5.150   9.846  0.5956 -0.1729  0.2798
  562MOL0     C77471   7.414   5.025   9.289 -0.4600  0.3075 -0.1250
  562MOL0     C77472   7.315   5.102   9.219 -1.2992 -1.1382 -1.0893
  562MOL0     C77473   6.948   5.173   8.965  0.7389 -0.8586  0.5468
  562MOL0     C77474   6.826   5.226   9.005 -0.4977 -0.1110 -0.2206
  562MOL0     C77475   6.740   5.296   8.918  0.3990  1.1944  0.2066
  562MOL0     C77476   6.767   5.275   8.780 -0.5140 -0.8440  0.0266
  562MOL0     O77477   6.673   5.315   8.685 -0.1767  0.4720 -0.0250
  562MOL0     C77478   6.649   5.450   8.657 -0.1824  0.0948  0.2841
  562MOL0     C77479   6.500   5.461   8.608  0.2822  0.7905 -1.5198
  562MOL0     C77480   6.400   5.381   8.695  0.5409 -0.8535 -0.1552
  562MOL0     C77481   6.350   5.452   8.821  0.2808  0.5989  0.2063
  562MOL0     C77482   6.232   5.376   8.883  0.0212 -0.4676  0.0634
  562MOL0     C77483   6.143   5.342   8.961 -0.2597 -0.4541  0.3331
  562MOL0     C77484   6.877   5.216   8.734 -0.8790 -0.2059 -0.3607
  562MOL0     C77485   6.972   5.158   8.820 -0.6936 -0.4470  0.8601
  562MOL0     C77486   7.101   5.115   8.750 -0.0250 -0.0432 -0.5390
  562MOL0     H77487   7.253   4.905   8.959  3.2117  2.0930 -0.8324
  562MOL0     H77488   7.440   4.768   9.077 -1.0807 -0.4924  0.7236
  562MOL0     H77489   7.658   4.765   9.159  0.4121  0.1546  0.1588
  562MOL0     H77490   7.562   4.640   9.250 -1.7165  0.7013 -0.7575
  562MOL0     H77491   7.695   4.717   9.462  3.7016 -1.7573  1.6738
  562MOL0     H77492   7.759   4.607   9.329 -5.1410 -1.8435 -0.2849
  562MOL0     H77493   7.939   4.757   9.377  0.9332  1.9169  0.2304
  562MOL0     H77494   7.876   4.821   9.229 -0.0091 -1.8890 -0.3087
  562MOL0     H77495   7.745   4.998   9.353 -0.1839  0.4246  0.3323
  562MOL0     H77496   7.791   4.932   9.506 -1.8245  1.9732  0.0634
  562MOL0     H77497   7.940   5.122   9.414  0.3498 -0.2223  0.8565
  562MOL0     H77498   8.011   4.998   9.319  1.2613 -0.7648  0.9864
  562MOL0     H77499   7.989   4.996   9.625  0.0432  0.9116  1.4612
  562MOL0     H77500   8.062   4.865   9.520 -2.3680 -0.5492  1.1423
  562MOL0     H77501   8.154   5.148   9.524 -1.1620  0.7940  0.2451
  562MOL0     H77502   8.227   4.996   9.446  1.6481 -3.1977  2.3668
  562MOL0     H77503   8.205   4.939   9.715 -2.9787  2.0880  0.8912
  562MOL0     H77504   8.352   4.990   9.622  0.9439  1.5205  0.1016
  562MOL0     H77505   8.360   5.302   9.617  1.8788 -3.6195 -0.0776
  562MOL0     H77506   8.335   5.512   9.710  1.4517 -1.6312 -0.3822
  562MOL0     H77507   8.411   5.477   9.871 -0.7384 -1.1368 -0.0021
  562MOL0     H77508   8.168   5.550   9.960 -2.9281 -0.5586 -1.3820
  562MOL0     H77509   8.288   5.665   9.900 -0.1407  0.0147  0.5405
  562MOL0     H77510   8.083   5.725   9.826  1.7271  0.8393  0.4247
  562MOL0     H77511   8.165   5.678   9.674  0.1735 -1.1814 -1.4795
  562MOL0     H77512   7.956   5.588   9.658 -3.1333  0.5926  2.5008
  562MOL0     H77513   8.046   5.448   9.715 -1.8520 -1.3033  0.9630
  562MOL0     H77514   7.702   5.577   9.942  2.0566  0.2485 -0.2945
  562MOL0     H77515   7.403   5.384   9.948 -1.1236  1.8378 -0.6379
  562MOL0     H77516   7.466   5.525  10.020 -2.6399 -0.6335 -0.3420
  562MOL0     H77517   7.466   5.385  10.121  0.5985 -1.8558 -0.0043
  562MOL0     H77518   7.439   4.951   9.666 -1.5452  1.8486  1.6050
  562MOL0     H77519   7.248   4.783   9.645  0.2009  1.4799 -0.7057
  562MOL0     H77520   6.991   4.535   9.782  0.4060 -2.6104  0.0627
  562MOL0     H77521   7.083   4.659   9.685 -1.4460 -2.2649 -1.4342
  562MOL0     H77522   7.126   4.423   9.603  0.0144  1.6465  0.2566
  562MOL0     H77523   7.263   4.490   9.677 -0.9958 -0.2590 -2.3612
  562MOL0     H77524   7.169   4.367   9.894 -0.3056  0.1839  0.2804
  562MOL0     H77525   7.240   4.258   9.783 -1.4868 -1.8920  1.9403
  562MOL0     H77526   6.998   4.191   9.693  0.0700 -1.2418  1.3597
  562MOL0     H77527   6.932   4.326   9.788 -2.9333 -2.5161 -0.5209
  562MOL0     H77528   7.041   4.053   9.848  0.2645  1.6402 -0.2437
  562MOL0     H77529   7.019   4.151   9.985 -2.1543  3.1823  0.2520
  562MOL0     H77530   6.772   4.146   9.807 -1.1637  1.2365  0.3649
  562MOL0     H77531   6.795   4.191   9.971 -0.7151 -1.1255  0.7149
  562MOL0     H77532   6.844   3.950  10.027  0.2871  2.0540 -0.3920
  562MOL0     H77533   6.804   3.916   9.866 -2.2705 -1.5000  1.7295
  562MOL0     H77534   6.574   4.002   9.893  0.0894 -4.9923 -1.6057
  562MOL0     H77535   6.609   4.057  10.056 -0.2794 -1.2685  1.0155
  562MOL0     H77536   7.329   4.666  10.053  0.7900  1.3878  2.9999
  562MOL0     H77537   7.477   4.850  10.075 -0.5658  0.0990  1.0844
  562MOL0     H77538   7.798   5.115   9.818 -0.3786 -0.9612 -0.0392
  562MOL0     H77539   7.946   5.282   9.783  1.1919  0.4268  1.1965
  562MOL0     H77540   7.455   5.061   9.383 -0.3573  1.8303 -0.7263
  562MOL0     H77541   7.287   5.192   9.272 -0.3691 -0.3652 -1.8888
  562MOL0     H77542   6.807   5.246   9.110 -1.7414  4.2185 -1.0731
  562MOL0     H77543   6.645   5.323   8.961 -1.9790 -1.4917 -2.8139
  562MOL0     H77544   6.666   5.497   8.754  2.3169 -1.9053  0.9418
  562MOL0     H77545   6.709   5.490   8.574 -0.2424  1.0978  0.7152
  562MOL0     H77546   6.498   5.404   8.514 -0.8168 -0.9963 -0.4673
  562MOL0     H77547   6.459   5.562   8.602 -0.5108  0.7712  1.8566
  562MOL0     H77548   6.303   5.369   8.647 -1.4490 -1.2317  3.5919
  562MOL0     H77549   6.445   5.283   8.718  0.8595 -1.1625 -1.9829
  562MOL0     H77550   6.306   5.551   8.807 -1.0902  0.1373  0.9632
  562MOL0     H77551   6.420   5.460   8.905 -0.7293  0.3016  1.1002
  562MOL0     H77552   6.079   5.313   9.043  0.5001 -1.5802  0.5366
  562MOL0     H77553   6.890   5.235   8.628  2.4165 -2.9739 -0.6189
  562MOL0     H77554   7.183   5.187   8.760  0.1260 -0.3199  0.2471
  562MOL0     H77555   7.141   5.019   8.785  1.5402  1.5853  2.4897
  562MOL0     H77556   7.077   5.099   8.644 -1.9705 -1.0497  0.0085
  563MOL0     O77557   5.052  11.179   6.073 -0.1068  0.4751 -0.5944
  563MOL0     C77558   5.041  11.069   6.019 -0.2774  0.4875 -0.4342
  563MOL0     O77559   4.936  10.987   6.037  0.5744  0.1098  0.4352
  563MOL0     C77560   4.817  11.039   6.084  0.3237  0.0888  0.0476
  563MOL0     C77561   4.795  11.077   6.218  0.9443 -0.5885 -0.4519
  563MOL0     C77562   4.672  11.128   6.252  0.4015 -0.1444  0.5071
  563MOL0     C77563   4.563  11.134   6.162  0.3435  0.2857 -0.6281
  563MOL0     O77564   4.436  11.178   6.216  0.8934 -0.3161 -0.2834
  563MOL0     C77565   4.394  11.134   6.345  0.0000 -0.7643 -0.4651
  563MOL0     C77566   4.242  11.139   6.347  0.4124  0.4143  0.3922
  563MOL0     C77567   4.178  11.041   6.246 -0.0035 -0.3634 -0.1299
  563MOL0     C77568   4.178  10.900   6.302  0.9265 -1.0915  0.4209
  563MOL0     C77569   4.113  10.792   6.219 -0.5573 -0.5741  0.6301
  563MOL0     C77570   4.153  10.792   6.070 -0.5295  0.5547  0.8247
  563MOL0     C77571   4.072  10.681   5.999 -1.1645 -0.3675  0.0220
  563MOL0     C77572   4.150  10.623   5.870 -0.5957  0.0413  0.2917
  563MOL0     N77573   4.218  10.709   5.769  0.5463 -0.8965 -0.1852
  563MOL0     C77574   4.156  10.784   5.679 -0.5308 -0.3444  0.4378
  563MOL0     C77575   4.257  10.862   5.624  0.3907  0.8574 -0.0642
  563MOL0     C77576   4.235  10.948   5.524 -0.2409 -0.6496  0.7298
  563MOL0     C77577   4.294  10.886   5.393  0.3338 -1.1896  1.1542
  563MOL0     C77578   4.201  10.775   5.344  0.0211 -0.5788  0.7549
  563MOL0     C77579   4.261  10.711   5.210  0.3677  0.1317 -0.2783
  563MOL0     O77580   4.222  10.786   5.091  0.4437 -0.9412 -0.0796
  563MOL0     C77581   4.279  10.738   4.972 -0.4212  0.7408  0.5078
  563MOL0     C77582   4.342  10.614   4.963  0.8540  0.8861  0.3933
  563MOL0     C77583   4.390  10.560   4.842 -0.2967 -0.5066 -1.2410
  563MOL0     C77584   4.445  10.421   4.854 -0.0424 -0.2670  0.2619
  563MOL0     C77585   4.383  10.643   4.725 -0.3159  1.3360  0.5490
  563MOL0     C77586   4.447  10.611   4.589  0.2420 -0.0817 -0.2297
  563MOL0     O77587   4.433  10.698   4.490  0.0356 -0.0866 -0.4478
  563MOL0     C77588   4.434  10.659   4.355  0.3866 -0.4190 -0.3169
  563MOL0     C77589   4.441  10.771   4.268 -0.6116  0.5658  1.0457
  563MOL0     C77590   4.423  10.746   4.133 -0.4168 -0.4152  0.0872
  563MOL0     C77591   4.413  10.617   4.081 -0.4642 -0.3299 -0.0097
  563MOL0     O77592   4.393  10.582   3.940  0.2015  0.1167 -0.6122
  563MOL0     C77593   4.333  10.672   3.847 -1.0916 -0.2027  0.4502
  563MOL0     C77594   4.326  10.602   3.710 -1.0539 -0.5923 -0.2163
  563MOL0     C77595   4.289  10.719   3.606 -0.5044  0.1947  0.0551
  563MOL0     C77596   4.313  10.671   3.457 -0.6060 -0.3044  1.0526
  563MOL0     C77597   4.232  10.761   3.360  0.2849 -0.3420 -0.1444
  563MOL0     C77598   4.191  10.701   3.229  0.1054 -0.0352  0.1577
  563MOL0     C77599   4.330  10.698   3.163  0.6165  0.8688  0.2749
  563MOL0     C77600   4.314  10.655   3.014 -0.8682 -0.7399  0.2008
  563MOL0    Cl77601   4.253  10.484   3.004 -0.2105 -0.4054  0.0800
  563MOL0     C77602   4.418  10.508   4.170  0.2609 -0.5135 -0.2713
  563MOL0     C77603   4.424  10.529   4.307  0.2311 -0.4721  0.8589
  563MOL0     O77604   4.509  10.502   4.587  0.0004  0.5237 -0.0190
  563MOL0     C77605   4.324  10.772   4.738  0.3011  0.3419 -0.5605
  563MOL0     C77606   4.262  10.810   4.854 -0.1999  1.4099  0.1979
  563MOL0     N77607   4.374  10.845   5.697 -0.5914  0.0680 -0.0278
  563MOL0     N77608   4.346  10.758   5.787  0.4159  0.0671  0.7389
  563MOL0     C77609   4.584  11.101   6.033  0.1531  0.6312 -0.7458
  563MOL0     C77610   4.710  11.056   5.996  0.7225 -0.3451 -0.1917
  563MOL0     C77611   5.156  11.019   5.951  0.2488  0.2758  0.1404
  563MOL0     C77612   5.210  11.100   5.852 -0.4925  0.0903 -0.3505
  563MOL0     C77613   5.333  11.071   5.794  0.1114  0.3606  0.1950
  563MOL0     C77614   5.392  10.953   5.818 -0.1123  0.0199  0.2540
  563MOL0     O77615   5.516  10.914   5.757  0.1397 -0.3872  0.4778
  563MOL0     C77616   5.563  10.973   5.634 -0.1918  0.8737 -0.6088
  563MOL0     C77617   5.683  10.893   5.589 -0.6521 -0.3383 -0.0501
  563MOL0     C77618   5.643  10.744   5.566  0.3175 -0.7140  0.7798
  563MOL0     C77619   5.761  10.673   5.495 -0.0225 -0.7362  0.7158
  563MOL0     C77620   5.866  10.651   5.602  1.2277  0.2186  1.1109
  563MOL0     C77621   5.951  10.651   5.683 -0.5254  0.2321  0.3687
  563MOL0     C77622   5.337  10.861   5.903 -0.4683 -0.3916  0.2736
  563MOL0     C77623   5.223  10.890   5.977 -0.0960 -0.6487 -0.2075
  563MOL0     C77624   5.171  10.793   6.077 -0.4576  0.4788  0.3503
  563MOL0     H77625   4.869  11.074   6.297 -1.1946 -0.4097  1.6639
  563MOL0     H77626   4.648  11.174   6.348 -1.0390  2.3944 -0.9758
  563MOL0     H77627   4.433  11.200   6.424 -0.4640  0.2980 -1.0923
  563MOL0     H77628   4.420  11.032   6.371  0.3953 -0.2877  1.0988
  563MOL0     H77629   4.219  11.116   6.451 -0.4487  0.4355  0.2180
  563MOL0     H77630   4.203  11.238   6.321 -4.9435 -1.2033  0.9090
  563MOL0     H77631   4.075  11.068   6.221  0.3014  0.2700 -0.7359
  563MOL0     H77632   4.234  11.041   6.152  0.1851 -1.4358 -0.0276
  563MOL0     H77633   4.286  10.887   6.313  0.9624 -0.2657  1.1332
  563MOL0     H77634   4.142  10.883   6.404 -3.4849 -3.1437 -1.2244
  563MOL0     H77635   4.004  10.798   6.227 -0.7722  4.6700 -1.8488
  563MOL0     H77636   4.146  10.699   6.267  0.1560 -0.5332  0.2307
  563MOL0     H77637   4.131  10.890   6.026  0.1231 -0.3869 -1.7659
  563MOL0     H77638   4.261  10.779   6.082 -0.5758  0.5182  1.1935
  563MOL0     H77639   3.971  10.712   5.969 -1.8714 -1.6575  0.9865
  563MOL0     H77640   4.063  10.589   6.057 -4.3725 -1.1691 -1.4852
  563MOL0     H77641   4.227  10.550   5.898 -1.0851 -1.1535 -1.2736
  563MOL0     H77642   4.071  10.574   5.813 -1.9410  0.1960  1.9719
  563MOL0     H77643   4.057  10.765   5.640 -0.7316  0.9400  0.2840
  563MOL0     H77644   4.289  11.036   5.562  3.0043 -3.4148  3.1386
  563MOL0     H77645   4.129  10.968   5.506 -0.1537 -1.5643 -0.9933
  563MOL0     H77646   4.319  10.961   5.318 -1.9036 -1.4068  0.1216
  563MOL0     H77647   4.393  10.843   5.412 -0.2179 -2.5367  1.0909
  563MOL0     H77648   4.195  10.709   5.430 -0.6014 -3.4543 -1.3569
  563MOL0     H77649   4.110  10.829   5.315 -0.0682 -1.6038 -1.0248
  563MOL0     H77650   4.370  10.718   5.209  0.3291  1.6070  1.4206
  563MOL0     H77651   4.226  10.611   5.185  1.4307  0.1210 -1.8405
  563MOL0     H77652   4.360  10.551   5.050 -0.7624 -1.0922 -0.6300
  563MOL0     H77653   4.423  10.378   4.952 -0.4592  0.1733  0.3621
  563MOL0     H77654   4.552  10.415   4.831  0.0243 -1.1775  0.7769
  563MOL0     H77655   4.394  10.358   4.781  1.7688 -2.0359  0.4202
  563MOL0     H77656   4.456  10.872   4.306  4.0665  0.0122  1.2056
  563MOL0     H77657   4.408  10.838   4.078 -1.8582 -1.5700 -1.5670
  563MOL0     H77658   4.233  10.699   3.883 -1.4750  1.1519 -1.4854
  563MOL0     H77659   4.402  10.757   3.850 -0.7583 -0.4989  1.7674
  563MOL0     H77660   4.426  10.564   3.685  0.5415  4.2023 -2.1421
  563MOL0     H77661   4.255  10.519   3.718 -1.0841 -0.4073  2.8419
  563MOL0     H77662   4.340  10.812   3.633 -0.4000 -0.1702  1.1490
  563MOL0     H77663   4.187  10.754   3.624  0.3174  1.1572  3.4959
  563MOL0     H77664   4.271  10.570   3.451 -3.8198  0.9699 -0.1002
  563MOL0     H77665   4.419  10.683   3.433 -0.6918 -0.9920  0.2809
  563MOL0     H77666   4.132  10.786   3.397 -0.3067 -1.3781 -0.9764
  563MOL0     H77667   4.281  10.857   3.342  0.0324 -0.4011 -1.2182
  563MOL0     H77668   4.136  10.771   3.166  2.7993  3.1075  0.9886
  563MOL0     H77669   4.146  10.602   3.239  0.7726 -0.7399 -2.8827
  563MOL0     H77670   4.391  10.624   3.216 -2.5384 -1.6742  0.6703
  563MOL0     H77671   4.370  10.800   3.163 -0.0278  1.1889  2.8951
  563MOL0     H77672   4.405  10.675   2.957 -1.0715 -1.1700 -0.2899
  563MOL0     H77673   4.236  10.718   2.970 -0.5591 -0.2784  0.3101
  563MOL0     H77674   4.403  10.411   4.123  0.3993  0.0711 -1.5323
  563MOL0     H77675   4.409  10.450   4.380 -0.1912  0.0150  1.3118
  563MOL0     H77676   4.312  10.831   4.648 -1.7793  0.9386  0.0481
  563MOL0     H77677   4.194  10.895   4.856 -3.2898 -0.7569 -2.4571
  563MOL0     H77678   4.500  11.117   5.967 -0.6421  2.7284  0.6672
  563MOL0     H77679   4.723  11.013   5.897 -2.2261 -2.0655  0.0645
  563MOL0     H77680   5.157  11.194   5.846  0.2703  0.5767  0.2957
  563MOL0     H77681   5.377  11.136   5.719 -1.7263  0.8555 -0.4806
  563MOL0     H77682   5.480  10.968   5.563 -1.6823  2.2343  0.9395
  563MOL0     H77683   5.585  11.080   5.649  0.7419  0.3676  2.2252
  563MOL0     H77684   5.769  10.904   5.656  0.0135 -1.6714 -0.6652
  563MOL0     H77685   5.713  10.942   5.496 -0.3222  1.9741  1.2034
  563MOL0     H77686   5.620  10.690   5.659  0.4429  2.9228  3.1267
  563MOL0     H77687   5.564  10.739   5.491  0.1920  2.9693  0.4772
  563MOL0     H77688   5.798  10.735   5.413  2.7669 -2.4204  0.5878
  563MOL0     H77689   5.727  10.576   5.457 -1.8562  0.0218  0.2867
  563MOL0     H77690   6.015  10.650   5.769  0.2106 -1.5734 -0.1362
  563MOL0     H77691   5.382  10.764   5.920 -2.4340 -1.0410  2.1921
  563MOL0     H77692   5.077  10.755   6.036 -1.2363  2.3895  0.2627
  563MOL0     H77693   5.244  10.712   6.083  3.6632  3.7084 -1.6661
  563MOL0     H77694   5.162  10.838   6.177  0.7575  2.2836 -0.3048
  564MOL0     O77695   3.770   5.733   6.205  0.2695 -0.0411  0.1963
  564MOL0     C77696   3.751   5.725   6.327  0.1350  0.6859  0.8256
  564MOL0     O77697   3.630   5.752   6.385 -0.2561  0.1199 -0.6185
  564MOL0     C77698   3.522   5.771   6.297 -0.0602 -0.1878  0.0641
  564MOL0     C77699   3.472   5.906   6.276 -0.9299 -0.1066 -1.6224
  564MOL0     C77700   3.340   5.930   6.219 -0.2290  1.1434 -0.4284
  564MOL0     C77701   3.268   5.821   6.163  0.4276 -0.2552  0.2693
  564MOL0     O77702   3.159   5.857   6.084  0.0522  0.3963  0.1104
  564MOL0     C77703   3.062   5.751   6.046  0.3780  0.0412 -0.1908
  564MOL0     C77704   2.938   5.819   5.987  0.4301  0.9873  0.9212
  564MOL0     C77705   2.967   5.960   5.920 -0.1737  1.0534  0.2952
  564MOL0     C77706   3.068   5.943   5.806 -0.9204 -0.6278  0.7943
  564MOL0     C77707   3.098   6.084   5.751 -0.2002 -0.2095  0.1809
  564MOL0     C77708   3.181   6.060   5.631 -0.5685 -0.7730  0.1186
  564MOL0     C77709   3.246   6.190   5.577  0.1195  1.4440  0.5910
  564MOL0     C77710   3.133   6.268   5.508  0.3696 -0.4523  0.5229
  564MOL0     N77711   3.162   6.412   5.481 -0.7152  0.4859  0.0315
  564MOL0     C77712   3.176   6.508   5.582 -0.5979  0.3151  0.0105
  564MOL0     C77713   3.232   6.611   5.513 -0.2327 -0.5568  0.3162
  564MOL0     C77714   3.289   6.727   5.580  1.1450  0.5817  0.1670
  564MOL0     C77715   3.391   6.693   5.689 -0.6614  0.1102 -1.1289
  564MOL0     C77716   3.514   6.617   5.624 -0.3000  0.4651 -0.0509
  564MOL0     C77717   3.605   6.549   5.733  0.1909 -0.6193  0.3358
  564MOL0     O77718   3.539   6.422   5.768 -0.2423 -0.0853  0.4000
  564MOL0     C77719   3.565   6.308   5.695  0.6956  1.1309  0.1949
  564MOL0     C77720   3.535   6.191   5.764  0.2437  0.6059 -0.1696
  564MOL0     C77721   3.560   6.062   5.711 -0.3234  0.1118 -0.0564
  564MOL0     C77722   3.508   5.952   5.797  0.2618  0.6275 -1.0057
  564MOL0     C77723   3.612   6.054   5.577 -0.8982 -0.0375  0.6992
  564MOL0     C77724   3.613   5.932   5.492  0.1551  0.6562  0.2489
  564MOL0     O77725   3.551   5.943   5.370 -0.1408 -0.0599  0.0938
  564MOL0     C77726   3.478   5.839   5.317 -0.2030  0.1941 -0.1813
  564MOL0     C77727   3.456   5.841   5.185  0.9539 -0.1829  0.4206
  564MOL0     C77728   3.385   5.749   5.114 -0.1454 -0.9148 -0.2369
  564MOL0     C77729   3.335   5.636   5.170 -0.1945  0.7611 -0.6758
  564MOL0     O77730   3.259   5.544   5.122 -0.0146 -0.7296  0.7700
  564MOL0     C77731   3.218   5.562   4.984 -0.0344 -0.6906  0.2874
  564MOL0     C77732   3.327   5.518   4.888 -0.2019 -0.2126 -0.0038
  564MOL0     C77733   3.260   5.526   4.747  0.5009  1.1697 -0.1213
  564MOL0     C77734   3.363   5.480   4.641  0.2896  0.2076  0.2644
  564MOL0     C77735   3.381   5.328   4.623  0.0890 -0.8137  0.6367
  564MOL0     C77736   3.515   5.295   4.532  0.1268  0.3169 -0.2099
  564MOL0     C77737   3.517   5.149   4.466 -0.0625 -0.8088  0.1178
  564MOL0     C77738   3.645   5.103   4.417  0.3385  0.0532 -0.1181
  564MOL0    Cl77739   3.682   5.213   4.268  0.3712 -0.3309  0.3335
  564MOL0     C77740   3.368   5.617   5.307  0.3226 -1.5493  0.2069
  564MOL0     C77741   3.427   5.723   5.388  0.2476 -0.9213  0.7326
  564MOL0     O77742   3.654   5.824   5.545  0.3255 -0.5462  0.3258
  564MOL0     C77743   3.649   6.174   5.510  0.4758  0.0226 -0.3576
  564MOL0     C77744   3.630   6.300   5.569 -0.8460  0.0424  0.1759
  564MOL0     N77745   3.249   6.576   5.375  0.1349  0.5854  0.2756
  564MOL0     N77746   3.205   6.455   5.359 -0.0079 -1.2804  0.5337
  564MOL0     C77747   3.319   5.693   6.190 -0.0971  0.5141  0.7288
  564MOL0     C77748   3.443   5.670   6.253 -0.9028  0.3653  0.3488
  564MOL0     C77749   3.861   5.697   6.413  0.0043 -0.5676 -0.8649
  564MOL0     C77750   3.850   5.598   6.510  0.2981  1.3210 -0.7612
  564MOL0     C77751   3.971   5.566   6.578 -0.4578 -0.2503 -0.1499
  564MOL0     C77752   4.085   5.630   6.561 -0.4448 -0.1885 -0.1715
  564MOL0     O77753   4.202   5.594   6.631  0.3462  0.0543 -0.0640
  564MOL0     C77754   4.239   5.453   6.659  0.1544 -0.4432  0.2053
  564MOL0     C77755   4.382   5.426   6.633  0.2474  0.0768  0.2142
  564MOL0     C77756   4.420   5.276   6.646 -0.5878 -0.4981  0.7856
  564MOL0     C77757   4.356   5.203   6.763 -0.0342 -0.6932 -0.3310
  564MOL0     C77758   4.423   5.076   6.767  0.7378  0.9621  0.0179
  564MOL0     C77759   4.494   4.980   6.771  0.7313  0.3813  0.0211
  564MOL0     C77760   4.091   5.745   6.484  0.4526  0.2590  0.1933
  564MOL0     C77761   3.981   5.768   6.403 -1.1804  0.2718 -0.2937
  564MOL0     C77762   3.984   5.889   6.307 -0.2485  0.5897 -0.5643
  564MOL0     H77763   3.535   5.988   6.309 -1.4986 -1.1142  2.5524
  564MOL0     H77764   3.305   6.031   6.197  0.9551  1.3210 -1.6056
  564MOL0     H77765   3.033   5.684   6.128 -2.3683  1.9526  0.5532
  564MOL0     H77766   3.112   5.694   5.968 -0.2994 -0.2798 -0.3945
  564MOL0     H77767   2.912   5.749   5.907 -0.7160  1.5243  0.8063
  564MOL0     H77768   2.848   5.818   6.049 -0.9347 -2.1315 -0.8840
  564MOL0     H77769   2.867   5.985   5.883 -3.2141 -1.8981  5.3112
  564MOL0     H77770   2.996   6.027   6.002 -2.6844  1.7904  0.6751
  564MOL0     H77771   3.158   5.894   5.844 -0.5248 -0.5198  0.0295
  564MOL0     H77772   3.031   5.885   5.721 -0.4281  3.0009 -2.1574
  564MOL0     H77773   3.145   6.149   5.825 -3.7512  1.8589  0.8472
  564MOL0     H77774   3.006   6.140   5.729 -0.1172 -0.0192  0.3147
  564MOL0     H77775   3.262   5.992   5.661 -1.2838 -1.6925  0.0083
  564MOL0     H77776   3.116   6.011   5.558 -1.7975  1.2239 -0.1828
  564MOL0     H77777   3.326   6.152   5.513  0.8385 -0.2256  2.3926
  564MOL0     H77778   3.286   6.245   5.663 -0.5756  0.3557  1.6459
  564MOL0     H77779   3.124   6.216   5.412 -1.7042  1.9438 -0.6825
  564MOL0     H77780   3.033   6.255   5.549 -0.3059 -1.4388 -1.3186
  564MOL0     H77781   3.152   6.501   5.687 -1.5079  1.6277 -0.0829
  564MOL0     H77782   3.201   6.783   5.616 -1.6568 -1.4677 -2.8617
  564MOL0     H77783   3.334   6.787   5.500  1.7582 -0.8193 -0.5609
  564MOL0     H77784   3.439   6.786   5.723  0.7917 -0.5354 -1.3225
  564MOL0     H77785   3.342   6.650   5.776  0.6000  0.2617 -0.3175
  564MOL0     H77786   3.481   6.539   5.554 -1.6418  1.4677 -0.5813
  564MOL0     H77787   3.581   6.681   5.565  1.5295  2.6106  3.9270
  564MOL0     H77788   3.699   6.526   5.682  0.5286 -2.1566  1.5608
  564MOL0     H77789   3.629   6.615   5.816  0.7276 -0.7156  0.2622
  564MOL0     H77790   3.486   6.201   5.860  0.4626  0.1061  0.0011
  564MOL0     H77791   3.424   5.898   5.752 -1.1086  0.9592  0.9999
  564MOL0     H77792   3.478   5.989   5.896  0.2726  0.6474 -1.0100
  564MOL0     H77793   3.582   5.874   5.819  0.5151  0.4348 -2.4624
  564MOL0     H77794   3.487   5.935   5.141 -0.2171  0.6124  1.2552
  564MOL0     H77795   3.373   5.774   5.009 -1.0242 -0.8499 -0.1291
  564MOL0     H77796   3.124   5.507   4.968  1.1658 -2.7390 -0.0954
  564MOL0     H77797   3.181   5.662   4.959  0.4511 -0.5534  0.1183
  564MOL0     H77798   3.419   5.576   4.886 -0.9965  1.0960 -2.3195
  564MOL0     H77799   3.335   5.412   4.912 -1.2369 -0.2039  0.4810
  564MOL0     H77800   3.236   5.628   4.716 -0.8217  0.4451 -1.6015
  564MOL0     H77801   3.169   5.467   4.736  0.9878 -0.0231  1.7564
  564MOL0     H77802   3.458   5.533   4.654  0.8795 -0.0583 -2.4202
  564MOL0     H77803   3.321   5.506   4.543  3.1699  0.5282 -0.9884
  564MOL0     H77804   3.397   5.276   4.718 -1.7069  2.2574  2.7984
  564MOL0     H77805   3.296   5.287   4.567  0.3463  0.8471 -1.0660
  564MOL0     H77806   3.604   5.305   4.595  1.0296 -1.3179 -1.1820
  564MOL0     H77807   3.501   5.370   4.453 -3.2527  0.2851  0.2068
  564MOL0     H77808   3.447   5.134   4.383  0.4561  0.4793 -0.5932
  564MOL0     H77809   3.493   5.095   4.558 -1.8257  5.3586  3.8753
  564MOL0     H77810   3.641   4.995   4.398  3.7286 -0.0759 -0.7892
  564MOL0     H77811   3.716   5.127   4.497 -0.7295  0.5192  0.7146
  564MOL0     H77812   3.352   5.524   5.359 -1.1282 -1.9268 -0.8554
  564MOL0     H77813   3.413   5.717   5.495 -2.0907  3.0044  0.8330
  564MOL0     H77814   3.679   6.175   5.405 -0.5052  0.5904 -0.6415
  564MOL0     H77815   3.651   6.389   5.512  1.9192 -1.3408 -1.1712
  564MOL0     H77816   3.269   5.608   6.143  1.5822  1.2862 -2.7986
  564MOL0     H77817   3.470   5.566   6.265 -2.6814 -0.1028  0.5574
  564MOL0     H77818   3.772   5.526   6.531  3.1877 -1.1826  2.5443
  564MOL0     H77819   3.969   5.474   6.636 -0.4972  0.1704  0.5205
  564MOL0     H77820   4.207   5.418   6.757  0.0875 -1.8944 -0.3084
  564MOL0     H77821   4.181   5.386   6.594 -2.0160 -1.5075  3.0615
  564MOL0     H77822   4.457   5.479   6.693  0.4408  1.4053 -1.1350
  564MOL0     H77823   4.402   5.460   6.531  2.8051  0.1142  0.6478
  564MOL0     H77824   4.393   5.222   6.555 -0.6553 -3.4619  2.4547
  564MOL0     H77825   4.529   5.271   6.642 -0.1297  4.6728 -1.2091
  564MOL0     H77826   4.249   5.199   6.742  0.0020  0.7589 -0.8477
  564MOL0     H77827   4.369   5.260   6.856  3.5803 -0.8848 -0.5610
  564MOL0     H77828   4.555   4.892   6.779  0.5106  0.3141  1.0856
  564MOL0     H77829   4.173   5.816   6.482 -0.8155  1.8316 -2.7712
  564MOL0     H77830   3.886   5.938   6.303 -1.5860 -1.9440 -3.5098
  564MOL0     H77831   4.058   5.961   6.342 -0.9672  1.5465 -0.9573
  564MOL0     H77832   4.010   5.852   6.207  1.3633 -1.1445  0.4273
  565MOL0     O77833   4.649   2.992   5.193  0.0763  0.1033 -0.0318
  565MOL0     C77834   4.636   2.871   5.213 -0.5825 -0.1985  0.1467
  565MOL0     O77835   4.544   2.790   5.152 -0.0937  0.0487  0.8674
  565MOL0     C77836   4.443   2.849   5.094 -0.3521  0.3774  0.6862
  565MOL0     C77837   4.466   2.886   4.967  0.3098 -0.4293 -0.6348
  565MOL0     C77838   4.375   2.969   4.901 -0.5769  0.2843 -0.6727
  565MOL0     C77839   4.255   3.012   4.966  0.4960 -0.5836  0.4435
  565MOL0     O77840   4.147   3.079   4.912 -0.0237 -0.3021 -1.0540
  565MOL0     C77841   4.173   3.213   4.851  0.2717  0.3838 -0.4717
  565MOL0     C77842   4.045   3.299   4.882  0.4753 -0.1089  0.3053
  565MOL0     C77843   4.037   3.347   5.022 -0.1465 -0.1540 -0.8599
  565MOL0     C77844   3.926   3.447   5.044  0.3992 -0.3556  0.4666
  565MOL0     C77845   3.913   3.469   5.200  0.5265 -0.6470  0.2755
  565MOL0     C77846   4.005   3.579   5.273 -0.2883  0.5860 -0.3442
  565MOL0     C77847   3.930   3.611   5.415 -0.4410  0.6265 -0.9134
  565MOL0     C77848   4.002   3.698   5.519 -0.7192 -0.0152  0.1630
  565MOL0     N77849   3.900   3.735   5.620 -0.0295 -0.0489 -0.2626
  565MOL0     C77850   3.849   3.661   5.724 -0.1394  0.2102  0.0841
  565MOL0     C77851   3.736   3.726   5.769 -0.5058 -0.0551 -0.0563
  565MOL0     C77852   3.646   3.685   5.874  0.2193 -0.5559 -1.4342
  565MOL0     C77853   3.705   3.597   5.995  0.2146 -0.0158  0.9396
  565MOL0     C77854   3.591   3.568   6.092  0.5528  0.4142 -0.6538
  565MOL0     C77855   3.486   3.475   6.023  0.4109 -0.6939  0.6404
  565MOL0     O77856   3.413   3.407   6.124 -0.5324 -0.1451 -0.2565
  565MOL0     C77857   3.307   3.339   6.072  0.1740 -0.1711  0.3340
  565MOL0     C77858   3.256   3.353   5.936 -0.1226 -0.8192  0.7420
  565MOL0     C77859   3.165   3.268   5.874  0.3656  0.0477 -0.0157
  565MOL0     C77860   3.137   3.304   5.729  0.3823  0.1940 -0.1013
  565MOL0     C77861   3.097   3.172   5.960  0.0226 -0.5601  0.6909
  565MOL0     C77862   2.973   3.093   5.920  0.4059  0.3213 -0.4991
  565MOL0     O77863   2.944   2.974   5.993  0.3458 -0.2144 -0.4563
  565MOL0     C77864   2.856   2.881   5.964  0.2525 -0.3309 -0.0492
  565MOL0     C77865   2.821   2.785   6.061 -1.1651  0.1998  0.8731
  565MOL0     C77866   2.723   2.690   6.029  0.9596 -0.8054 -0.8416
  565MOL0     C77867   2.648   2.698   5.908  0.1266  0.4976 -0.8792
  565MOL0     O77868   2.556   2.599   5.882  1.2303 -0.4227  0.4049
  565MOL0     C77869   2.485   2.540   5.994  0.3359  0.0359 -0.0701
  565MOL0     C77870   2.333   2.507   5.942 -0.4515 -0.2185  0.2910
  565MOL0     C77871   2.254   2.396   6.029  0.2870  0.3127  0.2263
  565MOL0     C77872   2.313   2.260   5.979 -0.3072  0.7005  0.2196
  565MOL0     C77873   2.228   2.156   6.053 -0.4241  1.0619 -0.8596
  565MOL0     C77874   2.299   2.085   6.170 -0.9432 -0.1864  0.4175
  565MOL0     C77875   2.318   2.178   6.299 -0.4094 -0.6054  1.0131
  565MOL0     C77876   2.306   2.095   6.427 -0.0805 -0.6792  0.1146
  565MOL0    Cl77877   2.449   2.076   6.523 -0.0614  0.2238  0.3550
  565MOL0     C77878   2.683   2.786   5.809 -0.6543  0.9088 -0.2876
  565MOL0     C77879   2.785   2.881   5.835 -0.5631  0.5881  0.1805
  565MOL0     O77880   2.906   3.134   5.828  0.7584 -0.9473 -0.5240
  565MOL0     C77881   3.165   3.139   6.078  0.5666 -0.0376  0.2738
  565MOL0     C77882   3.261   3.223   6.135  0.8184  0.7524 -0.1667
  565MOL0     N77883   3.732   3.847   5.713 -0.2867  0.1577  0.4635
  565MOL0     N77884   3.825   3.854   5.623 -0.1561 -0.4013  0.3773
  565MOL0     C77885   4.227   2.962   5.096 -0.5055 -0.2716  0.6022
  565MOL0     C77886   4.327   2.896   5.161  0.0702  0.2611 -0.9190
  565MOL0     C77887   4.712   2.807   5.317  0.0469 -0.1072 -0.2949
  565MOL0     C77888   4.736   2.664   5.301  0.4444 -0.5024 -0.1956
  565MOL0     C77889   4.809   2.595   5.391  1.1145  0.4847 -1.0558
  565MOL0     C77890   4.869   2.665   5.499  1.4477 -0.9986  0.0893
  565MOL0     O77891   4.958   2.609   5.591 -0.5630  0.5418  0.2695
  565MOL0     C77892   5.004   2.479   5.572 -0.3360  0.0872 -0.8399
  565MOL0     C77893   5.146   2.460   5.636  0.9751  0.0576  0.3781
  565MOL0     C77894   5.153   2.499   5.788 -1.1129  0.2635  0.2328
  565MOL0     C77895   5.278   2.444   5.861  0.7828  0.3117  0.1320
  565MOL0     C77896   5.412   2.505   5.836  1.2666  0.5406  0.9237
  565MOL0     C77897   5.510   2.573   5.826 -0.0825  0.6576  0.2005
  565MOL0     C77898   4.847   2.805   5.515  0.2501 -1.1851  0.0071
  565MOL0     C77899   4.763   2.873   5.428 -0.1162  0.0790 -0.3157
  565MOL0     C77900   4.720   3.016   5.468 -0.6576  0.2747 -0.1964
  565MOL0     H77901   4.549   2.845   4.910  0.6672  0.6533 -0.9115
  565MOL0     H77902   4.396   3.006   4.801 -1.4936  3.8066  0.2774
  565MOL0     H77903   4.193   3.207   4.744 -0.7962 -0.0035 -0.6591
  565MOL0     H77904   4.256   3.262   4.904  0.5079 -2.6761  2.3470
  565MOL0     H77905   4.046   3.388   4.819  2.6539 -1.5875 -1.9454
  565MOL0     H77906   3.956   3.237   4.863 -1.6674  2.6383  0.7347
  565MOL0     H77907   4.019   3.260   5.086  2.6673  0.0983  0.4397
  565MOL0     H77908   4.128   3.389   5.067  1.6996 -4.6962  0.1799
  565MOL0     H77909   3.962   3.543   5.005 -1.9739 -0.3998 -2.2147
  565MOL0     H77910   3.826   3.427   5.004 -0.8818  0.6340  2.9833
  565MOL0     H77911   3.910   3.383   5.266 -2.7900  0.6927  2.0758
  565MOL0     H77912   3.809   3.503   5.205  0.8185  0.0778  3.2932
  565MOL0     H77913   4.100   3.528   5.290 -2.5589 -3.0630  3.1089
  565MOL0     H77914   4.017   3.673   5.217 -0.0782  1.8389  1.6860
  565MOL0     H77915   3.909   3.521   5.474 -2.9388  1.2985 -0.6840
  565MOL0     H77916   3.829   3.652   5.404 -1.4654 -1.8440 -1.3958
  565MOL0     H77917   4.082   3.643   5.570  1.0702  1.2988 -1.1130
  565MOL0     H77918   4.045   3.784   5.468 -1.9545  0.1658 -0.6136
  565MOL0     H77919   3.893   3.568   5.759  0.0043  0.3190  0.1911
  565MOL0     H77920   3.566   3.629   5.825 -0.1119 -0.7822 -0.6448
  565MOL0     H77921   3.604   3.776   5.917  1.4267 -1.9640  3.2676
  565MOL0     H77922   3.752   3.504   5.961 -3.2213 -1.4671 -0.2303
  565MOL0     H77923   3.785   3.657   6.040  0.8681  2.6274 -3.2464
  565MOL0     H77924   3.635   3.521   6.180 -3.6433  0.6447  1.8510
  565MOL0     H77925   3.545   3.660   6.129  1.7996  1.4122 -1.5122
  565MOL0     H77926   3.423   3.548   5.971  3.2154  1.5270  0.0711
  565MOL0     H77927   3.539   3.400   5.963 -2.4636 -1.1571 -1.5558
  565MOL0     H77928   3.305   3.426   5.873  0.6400  0.5182  2.7883
  565MOL0     H77929   3.182   3.400   5.702  0.0896  0.5810  0.7587
  565MOL0     H77930   3.029   3.301   5.715  0.4605 -2.8494 -0.7674
  565MOL0     H77931   3.174   3.225   5.663  0.8401  0.5542 -0.2768
  565MOL0     H77932   2.863   2.789   6.161 -0.4568  3.1315  0.5438
  565MOL0     H77933   2.719   2.615   6.108  0.9924 -0.2521 -0.3033
  565MOL0     H77934   2.524   2.444   6.028 -3.0131 -0.4128  3.1437
  565MOL0     H77935   2.482   2.609   6.079  1.2212  2.5294 -1.9569
  565MOL0     H77936   2.283   2.602   5.967  1.6331  0.6894  1.2456
  565MOL0     H77937   2.328   2.485   5.835  2.7315 -2.6970  0.5003
  565MOL0     H77938   2.148   2.410   6.005  0.2101 -0.5108  0.0551
  565MOL0     H77939   2.260   2.410   6.137 -0.3445  1.6138  0.1189
  565MOL0     H77940   2.420   2.252   6.002 -1.0420 -0.4748  3.9011
  565MOL0     H77941   2.305   2.256   5.870  0.0415  1.4200  0.1626
  565MOL0     H77942   2.143   2.202   6.104  0.0308 -0.1782  1.1668
  565MOL0     H77943   2.197   2.081   5.979  0.6107  1.1983 -1.4500
  565MOL0     H77944   2.393   2.046   6.130 -1.4710 -0.3964 -0.6582
  565MOL0     H77945   2.231   2.005   6.202 -1.6474  0.5626  0.8489
  565MOL0     H77946   2.261   2.271   6.308  0.5146 -0.0929  1.8218
  565MOL0     H77947   2.419   2.218   6.286 -1.0419  1.1584  1.2261
  565MOL0     H77948   2.262   1.998   6.404  1.0593 -0.7992 -1.7677
  565MOL0     H77949   2.237   2.146   6.496  1.3384  2.2179 -0.4257
  565MOL0     H77950   2.620   2.778   5.721  0.4511 -1.6913 -0.9240
  565MOL0     H77951   2.786   2.950   5.752 -1.2489 -0.6991 -0.9326
  565MOL0     H77952   3.155   3.045   6.132  1.0742 -0.2098  0.0826
  565MOL0     H77953   3.298   3.188   6.231 -2.1939 -1.9357  0.1687
  565MOL0     H77954   4.128   2.980   5.135 -1.1078 -2.1267  0.0377
  565MOL0     H77955   4.303   2.867   5.263 -1.7815  1.8920 -0.8432
  565MOL0     H77956   4.695   2.596   5.228  2.5033 -1.1364 -0.8113
  565MOL0     H77957   4.826   2.492   5.361 -0.1825 -0.5077  1.3461
  565MOL0     H77958   4.944   2.399   5.616  1.3161 -2.9768 -3.7293
  565MOL0     H77959   4.995   2.460   5.465 -0.6471 -0.8200 -0.6591
  565MOL0     H77960   5.211   2.538   5.595 -0.1692  1.8572  1.7965
  565MOL0     H77961   5.181   2.357   5.627  0.9940  0.0520  0.5082
  565MOL0     H77962   5.146   2.609   5.785 -1.7903  0.2142 -0.2273
  565MOL0     H77963   5.062   2.460   5.834  0.7785 -2.4357  1.9240
  565MOL0     H77964   5.275   2.335   5.854 -0.3683  0.0693  3.0193
  565MOL0     H77965   5.247   2.467   5.964 -0.5124 -2.0161  0.3361
  565MOL0     H77966   5.598   2.634   5.824  2.8325 -3.2146 -0.1340
  565MOL0     H77967   4.886   2.854   5.603  0.0183  1.5627 -1.2973
  565MOL0     H77968   4.800   3.084   5.439 -2.2891  0.9489 -3.5969
  565MOL0     H77969   4.618   3.038   5.436 -1.2994 -0.2489  1.3572
  565MOL0     H77970   4.711   3.014   5.577 -1.2246 -2.8539 -0.2192
  566MOL0     O77971  11.002   3.407   6.190 -0.1407 -0.5551  0.6579
  566MOL0     C77972  10.982   3.451   6.071 -0.7275 -1.4538 -0.3205
  566MOL0     O77973  10.956   3.374   5.961 -0.9000 -0.9569 -0.6733
  566MOL0     C77974  10.933   3.240   5.981 -0.6716 -0.9266 -0.6135
  566MOL0     C77975  10.814   3.181   5.929  0.8547 -1.1813  0.2884
  566MOL0     C77976  10.806   3.040   5.936  0.4664 -0.3934 -0.1641
  566MOL0     C77977  10.910   2.960   5.999  0.0331 -0.0119 -0.1198
  566MOL0     O77978  10.873   2.826   6.013 -0.8218 -0.7045  0.0152
  566MOL0     C77979  10.936   2.755   6.121 -0.0344  0.4272 -0.7866
  566MOL0     C77980  10.849   2.634   6.168  0.0561 -0.4010  0.1161
  566MOL0     C77981  10.711   2.680   6.226 -0.0867  0.1583  0.0289
  566MOL0     C77982  10.700   2.660   6.378  0.4659  0.2995 -0.0640
  566MOL0     C77983  10.799   2.741   6.471 -0.4895  0.1947  0.0787
  566MOL0     C77984  10.737   2.771   6.606  1.2363 -0.2445 -1.0200
  566MOL0     C77985  10.799   2.894   6.672  0.3763  0.1695 -0.0157
  566MOL0     C77986  10.937   2.872   6.729 -0.2941 -0.2810 -0.3005
  566MOL0     N77987  10.948   2.755   6.816 -0.6826  0.1157  0.5537
  566MOL0     C77988  10.946   2.761   6.959  0.4093 -0.0312  0.6240
  566MOL0     C77989  10.972   2.627   6.984 -0.2247  1.1891 -0.3419
  566MOL0     C77990  10.989   2.557   7.120 -0.2237 -0.4235  0.4327
  566MOL0     C77991  10.890   2.448   7.151  0.4456  0.8369  0.7698
  566MOL0     C77992  10.753   2.511   7.193 -0.5393  0.3599 -0.7087
  566MOL0     C77993  10.676   2.551   7.065 -0.0774  0.0369 -0.1851
  566MOL0     O77994  10.548   2.602   7.098  0.3650  0.2803  0.4842
  566MOL0     C77995  10.460   2.625   6.996 -0.5810 -0.8187 -0.9362
  566MOL0     C77996  10.462   2.577   6.861 -0.3012 -0.0111  0.2618
  566MOL0     C77997  10.359   2.588   6.774  0.3556 -0.2804  0.0595
  566MOL0     C77998  10.381   2.524   6.639  0.5833 -0.8890  0.0943
  566MOL0     C77999  10.241   2.662   6.804 -0.6289  0.5779  1.1568
  566MOL0     C78000  10.129   2.677   6.711 -0.5502 -0.4314  0.5369
  566MOL0     O78001  10.017   2.711   6.773 -0.5454  0.6574  0.1991
  566MOL0     C78002   9.898   2.706   6.708  0.3738  0.1070  0.7125
  566MOL0     C78003   9.797   2.799   6.710 -0.3026 -0.7610  0.0246
  566MOL0     C78004   9.667   2.763   6.678  0.3313 -0.0906  0.2478
  566MOL0     C78005   9.633   2.638   6.625 -0.4043 -0.3508  0.1381
  566MOL0     O78006   9.508   2.607   6.581  0.0339  0.4660 -0.2362
  566MOL0     C78007   9.428   2.555   6.688  0.4402 -0.7362 -0.8442
  566MOL0     C78008   9.304   2.489   6.633  1.4745  0.0807 -0.3183
  566MOL0     C78009   9.208   2.588   6.569  0.4545 -0.7786 -0.6659
  566MOL0     C78010   9.096   2.631   6.676 -0.4481 -0.0807  0.5214
  566MOL0     C78011   8.998   2.733   6.626  0.0556 -0.1445 -0.0077
  566MOL0     C78012   8.887   2.775   6.712 -0.2414  0.0511  0.0556
  566MOL0     C78013   8.802   2.658   6.752 -1.0569  0.8756  0.0753
  566MOL0     C78014   8.686   2.690   6.828  0.0143 -0.9136 -0.0942
  566MOL0    Cl78015   8.728   2.779   6.977  0.0429 -0.4863  0.4623
  566MOL0     C78016   9.735   2.551   6.622  0.0951  0.2026 -0.9143
  566MOL0     C78017   9.861   2.576   6.674 -0.0688 -0.3012  0.7342
  566MOL0     O78018  10.143   2.663   6.590  0.2183  0.7576  0.2867
  566MOL0     C78019  10.245   2.728   6.928  0.5254  1.2607 -1.0250
  566MOL0     C78020  10.345   2.693   7.024  0.3927 -0.5317 -0.0014
  566MOL0     N78021  10.994   2.556   6.866 -0.3052  0.4640  0.2675
  566MOL0     N78022  10.994   2.637   6.762  0.6859  0.7019 -0.2457
  566MOL0     C78023  11.023   3.030   6.041  0.5987 -0.5761  0.7141
  566MOL0     C78024  11.031   3.168   6.030  0.1545 -0.2400 -0.1934
  566MOL0     C78025  11.015   3.593   6.037 -0.7188  0.5368  0.5586
  566MOL0     C78026  10.915   3.680   5.977 -0.9546  0.2574  0.1512
  566MOL0     C78027  10.936   3.811   5.964 -0.2691 -1.5783 -0.1578
  566MOL0     C78028  11.070   3.863   5.980  0.3657 -0.5823 -0.7947
  566MOL0     O78029  11.115   3.985   5.948  0.3809 -0.1666 -0.1798
  566MOL0     C78030  11.164   3.996   5.814 -0.2351  0.4622 -0.1921
  566MOL0     C78031  11.297   4.074   5.822  0.0770 -0.4953 -0.2679
  566MOL0     C78032  11.418   4.004   5.880 -0.5327  0.4273  0.5728
  566MOL0     C78033  11.537   4.103   5.879  0.1701 -0.7284  0.3465
  566MOL0     C78034  11.582   4.124   5.745 -0.5214 -0.1346  0.4213
  566MOL0     C78035  11.634   4.142   5.636  0.4628 -1.1310 -0.0341
  566MOL0     C78036  11.166   3.783   6.037  0.0897  0.6720 -0.5519
  566MOL0     C78037  11.143   3.645   6.061  0.5554  0.5561 -0.6854
  566MOL0     C78038  11.256   3.573   6.125 -0.0620  0.7444  0.1875
  566MOL0     H78039  10.727   3.221   5.879  1.4336 -0.6360 -0.2966
  566MOL0     H78040  10.711   3.005   5.897  0.4470  2.1344 -2.7428
  566MOL0     H78041  10.952   2.806   6.216  0.2127 -0.9823 -0.0549
  566MOL0     H78042  11.036   2.720   6.093  0.3317  0.1706  0.7373
  566MOL0     H78043  10.830   2.564   6.086 -1.7040 -0.9305  0.9250
  566MOL0     H78044  10.892   2.573   6.248 -1.7743  0.5331  1.9128
  566MOL0     H78045  10.701   2.784   6.195  1.6248  0.9994  2.1139
  566MOL0     H78046  10.641   2.614   6.173 -0.9704 -0.7829  2.2726
  566MOL0     H78047  10.602   2.684   6.422  0.6319  0.9925 -0.0667
  566MOL0     H78048  10.718   2.553   6.395  2.2913  0.8886  2.3956
  566MOL0     H78049  10.842   2.829   6.422  1.5995  0.9127  2.9629
  566MOL0     H78050  10.883   2.675   6.492 -0.7355  0.7631  3.3288
  566MOL0     H78051  10.630   2.793   6.604  0.7899 -1.8614  1.1775
  566MOL0     H78052  10.752   2.690   6.678  1.8841  2.3351  1.9849
  566MOL0     H78053  10.733   2.935   6.750 -0.7106  0.5551 -1.1041
  566MOL0     H78054  10.811   2.972   6.596 -2.0790 -0.5607 -1.2602
  566MOL0     H78055  11.000   2.860   6.640 -1.8237  3.2340 -2.0627
  566MOL0     H78056  10.970   2.955   6.792 -0.0449  1.2359 -2.3211
  566MOL0     H78057  10.926   2.845   7.025  1.1330  0.6350  0.0155
  566MOL0     H78058  10.991   2.627   7.204 -1.6669 -0.1359  0.2465
  566MOL0     H78059  11.089   2.515   7.104  0.1691  1.8195 -6.1318
  566MOL0     H78060  10.891   2.387   7.059 -1.3953 -0.2885  1.4319
  566MOL0     H78061  10.935   2.385   7.228  0.5567 -0.8947 -0.6154
  566MOL0     H78062  10.688   2.444   7.250 -0.3435  2.3197  1.9938
  566MOL0     H78063  10.778   2.599   7.253  0.0876  0.3219 -0.9040
  566MOL0     H78064  10.726   2.639   7.024  0.8128  0.6190  1.9994
  566MOL0     H78065  10.662   2.473   6.990 -1.8428  0.8218 -0.7347
  566MOL0     H78066  10.548   2.517   6.831 -0.2994  1.7597 -4.0124
  566MOL0     H78067  10.385   2.590   6.551 -0.3435 -2.0549 -0.8623
  566MOL0     H78068  10.293   2.460   6.624  1.5547 -2.1858 -0.2200
  566MOL0     H78069  10.476   2.472   6.626  1.5955  0.7181  0.8163
  566MOL0     H78070   9.809   2.901   6.746 -0.6623 -0.9734  0.7686
  566MOL0     H78071   9.590   2.840   6.671 -0.0045 -0.5804 -2.4107
  566MOL0     H78072   9.479   2.470   6.734 -2.0815 -1.5332  0.6855
  566MOL0     H78073   9.402   2.630   6.763 -2.0259 -1.3778 -0.9529
  566MOL0     H78074   9.342   2.424   6.553  1.7641 -2.0323  1.4193
  566MOL0     H78075   9.260   2.427   6.712  0.6066 -0.3497 -1.1224
  566MOL0     H78076   9.162   2.553   6.476  0.9592 -2.2693 -0.3777
  566MOL0     H78077   9.262   2.681   6.550 -0.4584  0.0622  0.6973
  566MOL0     H78078   9.148   2.674   6.762  0.4315 -2.6835  1.3952
  566MOL0     H78079   9.046   2.537   6.701  0.5285 -1.1065 -1.1579
  566MOL0     H78080   9.047   2.827   6.600 -0.0253  0.6766  2.5197
  566MOL0     H78081   8.955   2.690   6.535  0.7537 -1.0340  0.0605
  566MOL0     H78082   8.828   2.844   6.650  1.4053  1.2136 -0.2717
  566MOL0     H78083   8.933   2.839   6.788 -0.1321 -0.6538  0.5931
  566MOL0     H78084   8.859   2.584   6.807 -1.8328  0.3189  0.1518
  566MOL0     H78085   8.784   2.599   6.661  1.2041 -0.0916  0.1880
  566MOL0     H78086   8.640   2.596   6.858  0.5137 -0.7759  1.1580
  566MOL0     H78087   8.628   2.750   6.757  2.9134  1.7719 -0.4236
  566MOL0     H78088   9.711   2.446   6.603  0.1636 -0.1669  0.8440
  566MOL0     H78089   9.936   2.498   6.682  1.4394  0.6385 -2.4259
  566MOL0     H78090  10.157   2.791   6.940 -2.1077 -1.4525 -4.1105
  566MOL0     H78091  10.328   2.731   7.125 -0.7292 -0.6005 -0.1495
  566MOL0     H78092  11.110   2.973   6.072  1.2376  0.1559  0.2781
  566MOL0     H78093  11.116   3.218   6.075 -1.5776  1.1910  1.7067
  566MOL0     H78094  10.825   3.629   5.946 -0.4140 -0.6227 -0.0130
  566MOL0     H78095  10.864   3.877   5.917  1.3370  0.4815  0.1545
  566MOL0     H78096  11.165   3.901   5.760 -0.6987  1.0520 -1.2632
  566MOL0     H78097  11.084   4.055   5.767 -0.8033 -0.0987  0.0622
  566MOL0     H78098  11.269   4.158   5.887 -1.9975 -1.6204  0.3939
  566MOL0     H78099  11.299   4.112   5.720 -1.5391  1.6614  0.4090
  566MOL0     H78100  11.395   3.977   5.983 -0.9119 -0.7284  0.1950
  566MOL0     H78101  11.444   3.910   5.831 -1.9931  1.0441 -1.5515
  566MOL0     H78102  11.614   4.065   5.948 -1.0916 -1.3101  1.4781
  566MOL0     H78103  11.502   4.194   5.929  0.3721 -0.1494 -0.5473
  566MOL0     H78104  11.666   4.166   5.536 -0.0646  2.3655  0.5214
  566MOL0     H78105  11.261   3.828   6.065 -0.1022  0.6835  0.1129
  566MOL0     H78106  11.241   3.466   6.109  2.6412  0.5096 -1.4342
  566MOL0     H78107  11.354   3.602   6.085  1.7148 -1.6636  2.4082
  566MOL0     H78108  11.250   3.595   6.232  0.2015 -1.7212  0.7788
  567MOL0     O78109   6.338   5.080   5.388 -0.6312  0.5163  0.2357
  567MOL0     C78110   6.439   5.020   5.366 -0.7449 -0.0421 -0.7619
  567MOL0     O78111   6.478   4.908   5.436  0.3524  0.1692  0.3517
  567MOL0     C78112   6.405   4.869   5.547  0.4143  1.1831 -0.2208
  567MOL0     C78113   6.364   4.735   5.543 -0.4972 -0.2115  0.2447
  567MOL0     C78114   6.303   4.688   5.657  1.2125  0.6549  1.5508
  567MOL0     C78115   6.280   4.762   5.765 -0.4013  0.3183 -0.7031
  567MOL0     O78116   6.216   4.699   5.870 -0.3689 -0.3928  0.2923
  567MOL0     C78117   6.290   4.590   5.922  0.0143 -1.1193  0.6510
  567MOL0     C78118   6.248   4.571   6.074 -1.0363  0.1634  0.1379
  567MOL0     C78119   6.111   4.621   6.118 -0.4218  0.7023 -0.0286
  567MOL0     C78120   6.081   4.590   6.265  0.1030 -0.0987  1.1861
  567MOL0     C78121   5.963   4.668   6.304  1.1454  0.1470 -0.5756
  567MOL0     C78122   5.879   4.618   6.417  0.6847  0.2079  0.5638
  567MOL0     C78123   5.940   4.647   6.546 -0.3232 -0.1972 -0.7903
  567MOL0     C78124   5.864   4.610   6.675 -0.2269  0.8944 -0.3794
  567MOL0     N78125   5.847   4.467   6.696 -0.6065  0.5556  0.1973
  567MOL0     C78126   5.945   4.372   6.722  0.9021  0.2096  0.5033
  567MOL0     C78127   5.877   4.262   6.775 -0.9218 -0.8791  0.4094
  567MOL0     C78128   5.947   4.147   6.830  0.1330 -1.0815 -0.9053
  567MOL0     C78129   5.865   4.017   6.816  0.6962  0.0519  0.2819
  567MOL0     C78130   5.776   3.984   6.941 -0.5616 -0.0038  0.0278
  567MOL0     C78131   5.679   3.882   6.886  0.3449 -0.7513 -0.4996
  567MOL0     O78132   5.769   3.770   6.856  1.1082 -0.4390 -0.3758
  567MOL0     C78133   5.698   3.675   6.803  0.0012 -0.1728  0.1809
  567MOL0     C78134   5.652   3.578   6.884 -0.1170  0.4446 -0.8186
  567MOL0     C78135   5.563   3.474   6.840  0.1968  0.8056  0.2491
  567MOL0     C78136   5.525   3.365   6.947 -0.3462  0.1545  0.3096
  567MOL0     C78137   5.519   3.471   6.707 -0.5290 -0.8421 -0.5294
  567MOL0     C78138   5.432   3.380   6.640 -0.0590  0.6050 -0.2481
  567MOL0     O78139   5.395   3.409   6.508 -0.0043 -0.0627 -0.3618
  567MOL0     C78140   5.303   3.342   6.438 -0.6025 -0.0036  0.2926
  567MOL0     C78141   5.192   3.284   6.498 -0.2965 -0.1412  0.4089
  567MOL0     C78142   5.103   3.212   6.418 -0.2401 -0.1894 -0.0974
  567MOL0     C78143   5.126   3.200   6.278  0.0001  0.0585  0.4297
  567MOL0     O78144   5.054   3.135   6.181 -0.0745  0.1517 -0.4360
  567MOL0     C78145   4.910   3.137   6.195  0.1854  0.0247 -0.0701
  567MOL0     C78146   4.856   2.999   6.133  0.0114  0.7150 -0.2887
  567MOL0     C78147   4.898   2.871   6.192  0.7864  0.1900 -1.0763
  567MOL0     C78148   4.862   2.865   6.342  0.3856  0.1700 -0.1146
  567MOL0     C78149   4.904   2.713   6.399  1.0913 -0.9460 -0.5794
  567MOL0     C78150   4.829   2.691   6.528 -0.4515 -0.0811 -1.1642
  567MOL0     C78151   4.681   2.647   6.512 -0.6507  0.6785 -0.1793
  567MOL0     C78152   4.663   2.488   6.481  0.1248  0.0784  0.0027
  567MOL0    Cl78153   4.486   2.447   6.491 -0.3963  0.4045  0.0507
  567MOL0     C78154   5.229   3.263   6.223  0.2494 -0.6307 -0.6736
  567MOL0     C78155   5.315   3.337   6.300  0.4389  0.6339 -0.4367
  567MOL0     O78156   5.388   3.289   6.710  0.3896 -0.0296 -0.8410
  567MOL0     C78157   5.587   3.570   6.623 -0.1423 -0.4375 -0.2991
  567MOL0     C78158   5.669   3.670   6.663  0.8596 -0.1391 -0.6272
  567MOL0     N78159   5.743   4.292   6.780  0.6446 -0.4181 -0.3478
  567MOL0     N78160   5.732   4.407   6.730  0.1630 -0.6862  0.7572
  567MOL0     C78161   6.315   4.897   5.768 -0.3945 -0.3412  0.1127
  567MOL0     C78162   6.373   4.953   5.663 -0.1648 -0.4773 -0.1068
  567MOL0     C78163   6.522   5.065   5.257 -0.9614 -0.0089 -0.0975
  567MOL0     C78164   6.655   5.001   5.237 -0.2239 -0.3472  1.2110
  567MOL0     C78165   6.758   5.063   5.163 -0.4917  0.0929 -1.1346
  567MOL0     C78166   6.732   5.183   5.099  0.8831 -0.2187 -0.1756
  567MOL0     O78167   6.817   5.247   5.012  0.1510  0.9121 -0.2695
  567MOL0     C78168   6.938   5.190   4.967 -0.4187 -0.4062 -0.9530
  567MOL0     C78169   6.981   5.238   4.832 -0.0822  0.2089 -0.3588
  567MOL0     C78170   7.094   5.149   4.778  0.8494  0.7122 -0.5373
  567MOL0     C78171   7.147   5.210   4.643 -0.1436  0.1955 -0.1947
  567MOL0     C78172   7.042   5.265   4.552  0.1815 -0.8383 -0.4341
  567MOL0     C78173   6.950   5.314   4.481  0.5260  0.2133  0.0484
  567MOL0     C78174   6.605   5.248   5.110  0.2051  0.4189  0.0531
  567MOL0     C78175   6.499   5.192   5.184 -0.4621 -0.1950  0.7785
  567MOL0     C78176   6.378   5.277   5.202 -0.0532  0.7867  0.1652
  567MOL0     H78177   6.373   4.675   5.453 -0.3912  0.6612 -0.3391
  567MOL0     H78178   6.284   4.581   5.654 -0.7030  0.9585  1.7668
  567MOL0     H78179   6.398   4.607   5.920 -0.1163 -0.2813 -1.3911
  567MOL0     H78180   6.276   4.492   5.874  0.0947 -1.0085  0.4011
  567MOL0     H78181   6.264   4.463   6.084 -0.7179  0.1323 -0.6643
  567MOL0     H78182   6.316   4.619   6.145 -0.2608 -0.8708  0.1238
  567MOL0     H78183   6.113   4.729   6.101  1.5167  0.5598 -1.0249
  567MOL0     H78184   6.029   4.585   6.055 -1.2819  3.6244 -0.7515
  567MOL0     H78185   6.049   4.486   6.276 -0.1188 -0.2808 -0.8610
  567MOL0     H78186   6.173   4.621   6.316  0.2187  0.2438  0.7839
  567MOL0     H78187   5.889   4.654   6.225  1.9905  1.0199 -1.5442
  567MOL0     H78188   5.984   4.775   6.297 -2.0501  0.7927 -2.3171
  567MOL0     H78189   5.780   4.664   6.418  1.4024  1.8239  0.0001
  567MOL0     H78190   5.869   4.510   6.403  0.3477  0.2418  0.5329
  567MOL0     H78191   5.956   4.755   6.560 -4.1745  0.4664 -0.4883
  567MOL0     H78192   6.036   4.595   6.534  0.2509  1.1171 -2.4956
  567MOL0     H78193   5.923   4.652   6.757 -0.3107 -1.2885  0.8745
  567MOL0     H78194   5.767   4.662   6.678 -1.9130 -2.0633  0.0945
  567MOL0     H78195   6.051   4.391   6.706  0.7081  1.9031  0.9600
  567MOL0     H78196   5.966   4.170   6.935  0.1670  1.9914 -1.5100
  567MOL0     H78197   6.044   4.151   6.780 -1.7419 -1.1110 -4.9200
  567MOL0     H78198   5.811   4.035   6.723  3.5758 -0.2374 -1.5857
  567MOL0     H78199   5.939   3.937   6.811  2.7050  1.7627  0.9928
  567MOL0     H78200   5.851   3.948   7.013 -1.9035  0.9434  1.9781
  567MOL0     H78201   5.734   4.076   6.981  0.6847  0.9263 -0.7146
  567MOL0     H78202   5.605   3.847   6.959 -1.0785  0.0944 -1.4858
  567MOL0     H78203   5.623   3.922   6.801 -0.1018  2.0946  1.0064
  567MOL0     H78204   5.688   3.570   6.986  0.6562 -0.0340 -1.1220
  567MOL0     H78205   5.416   3.365   6.954 -0.2979 -2.3171  3.4523
  567MOL0     H78206   5.555   3.389   7.050 -0.6344 -0.6215  0.5830
  567MOL0     H78207   5.548   3.266   6.907 -3.5489 -0.4025 -0.4310
  567MOL0     H78208   5.177   3.299   6.605 -0.1207  0.3173  0.3720
  567MOL0     H78209   5.019   3.159   6.462  0.1752  0.6871  1.8558
  567MOL0     H78210   4.880   3.148   6.299 -3.3919 -0.3613 -0.9027
  567MOL0     H78211   4.861   3.217   6.138 -0.6468  0.1482  0.7989
  567MOL0     H78212   4.748   3.007   6.143 -0.3875  1.8680 -3.9043
  567MOL0     H78213   4.864   3.008   6.024  3.8719 -1.4757 -0.3764
  567MOL0     H78214   5.003   2.843   6.185  0.4165 -1.8947  0.6285
  567MOL0     H78215   4.838   2.798   6.137  2.2355 -2.1519  0.2980
  567MOL0     H78216   4.756   2.886   6.362  0.3558  1.1760 -1.2263
  567MOL0     H78217   4.916   2.944   6.394  2.2067 -0.6803 -0.6344
  567MOL0     H78218   4.881   2.636   6.325  2.8548 -1.3271 -0.7937
  567MOL0     H78219   5.014   2.718   6.397  1.0694  0.2620 -2.9372
  567MOL0     H78220   4.840   2.783   6.585  1.1833 -1.0465  0.1851
  567MOL0     H78221   4.865   2.602   6.581 -2.5020 -0.2541  0.0286
  567MOL0     H78222   4.627   2.701   6.433 -1.1120 -1.8454 -1.7265
  567MOL0     H78223   4.627   2.673   6.604 -0.6821  1.9973 -0.5559
  567MOL0     H78224   4.716   2.429   6.556  1.3063 -1.9724 -2.2885
  567MOL0     H78225   4.711   2.465   6.385  2.9003  0.3809  1.2249
  567MOL0     H78226   5.239   3.271   6.115  1.0340  1.8488 -0.4860
  567MOL0     H78227   5.389   3.400   6.251  0.1740  3.7262  2.7781
  567MOL0     H78228   5.562   3.569   6.517 -4.3522 -3.2424  0.4716
  567MOL0     H78229   5.714   3.747   6.601  1.7218  1.4835  1.8551
  567MOL0     H78230   6.289   4.966   5.848  0.5922  1.4019 -1.0194
  567MOL0     H78231   6.401   5.058   5.663 -0.3375 -0.3353  2.9408
  567MOL0     H78232   6.678   4.911   5.293  0.8713 -1.3138 -0.6816
  567MOL0     H78233   6.854   5.016   5.180 -0.3261  1.6268  3.8925
  567MOL0     H78234   7.015   5.233   5.032  0.4912 -0.9073 -1.6782
  567MOL0     H78235   6.943   5.081   4.982  0.6059 -0.2391  0.0835
  567MOL0     H78236   7.017   5.340   4.845 -2.0357  0.8659  0.3216
  567MOL0     H78237   6.892   5.246   4.769 -1.6251  1.5416  1.8811
  567MOL0     H78238   7.177   5.140   4.850 -0.3664  0.9959  0.9398
  567MOL0     H78239   7.044   5.052   4.765 -3.1780  1.7505  4.2486
  567MOL0     H78240   7.215   5.137   4.598 -1.2499 -0.8937 -0.1252
  567MOL0     H78241   7.211   5.297   4.665 -0.2940  2.0362 -5.5046
  567MOL0     H78242   6.880   5.369   4.421  0.1631  0.6094  0.8127
  567MOL0     H78243   6.593   5.337   5.050 -0.6850 -0.4080 -1.0410
  567MOL0     H78244   6.397   5.344   5.286  1.4085 -0.3851  0.8092
  567MOL0     H78245   6.362   5.338   5.113 -0.2735  0.0627 -0.3013
  567MOL0     H78246   6.290   5.216   5.222  1.5328 -1.2961  1.1928
  568MOL0     O78247   1.255   7.627   2.167  0.8304 -0.0017 -0.3925
  568MOL0     C78248   1.326   7.527   2.146  0.5633  0.6998  0.9444
  568MOL0     O78249   1.326   7.416   2.217 -0.2543 -0.7580 -0.2897
  568MOL0     C78250   1.246   7.420   2.336 -0.0153  0.5369  1.0844
  568MOL0     C78251   1.303   7.483   2.447  0.8234  0.0097 -0.3679
  568MOL0     C78252   1.224   7.485   2.561 -0.3241  0.3121  0.1947
  568MOL0     C78253   1.093   7.417   2.571 -0.8119 -0.3043  0.0386
  568MOL0     O78254   1.021   7.413   2.686 -0.1961  0.4606 -0.3808
  568MOL0     C78255   1.040   7.524   2.766 -0.1675  1.1254 -0.1347
  568MOL0     C78256   0.917   7.509   2.873 -0.0633  0.1582  0.6915
  568MOL0     C78257   0.945   7.596   2.988  0.8714  0.2778  0.4033
  568MOL0     C78258   0.950   7.746   2.935 -0.7599  0.2829 -0.2645
  568MOL0     C78259   0.964   7.843   3.055 -0.6996  0.8896 -0.2474
  568MOL0     C78260   0.835   7.873   3.127 -0.6176  0.1586  0.2571
  568MOL0     C78261   0.848   7.932   3.271 -0.7571  0.0588  0.3397
  568MOL0     C78262   0.716   7.950   3.328 -0.3859 -0.1421  0.7273
  568MOL0     N78263   0.646   7.828   3.380 -0.4354 -0.1022 -0.2388
  568MOL0     C78264   0.698   7.745   3.474  0.7416 -0.3802  0.3589
  568MOL0     C78265   0.615   7.641   3.480  0.9058  0.6879 -0.0448
  568MOL0     C78266   0.628   7.516   3.564 -0.2570 -0.3213  0.4182
  568MOL0     C78267   0.755   7.442   3.547 -0.2337 -0.7267  0.6271
  568MOL0     C78268   0.747   7.305   3.615 -0.6866 -1.1386 -0.4940
  568MOL0     C78269   0.875   7.248   3.667 -0.8320  0.3290  1.0512
  568MOL0     O78270   0.931   7.342   3.763 -0.7310 -0.8788 -0.6202
  568MOL0     C78271   1.049   7.319   3.826  0.1262  0.2792 -0.1627
  568MOL0     C78272   1.092   7.419   3.920 -1.4499  0.5138  0.1728
  568MOL0     C78273   1.200   7.399   4.004  1.5075  0.2180 -0.0482
  568MOL0     C78274   1.225   7.515   4.096 -0.1401 -0.5764  0.1297
  568MOL0     C78275   1.270   7.280   3.991  0.3128 -0.0577  0.3086
  568MOL0     C78276   1.399   7.250   4.059  1.1394 -0.4604  0.0327
  568MOL0     O78277   1.416   7.120   4.105  1.0583  0.0821  0.9634
  568MOL0     C78278   1.542   7.082   4.112 -0.7282  0.8833 -0.7169
  568MOL0     C78279   1.628   7.072   3.997  0.5844 -0.0148  0.3556
  568MOL0     C78280   1.763   7.032   4.004 -0.6744 -0.3850  0.0362
  568MOL0     C78281   1.824   7.012   4.129  1.0287 -1.0613 -0.1980
  568MOL0     O78282   1.957   6.986   4.144  0.6965 -0.3688 -0.4702
  568MOL0     C78283   1.987   6.847   4.152  0.0596  0.1525  0.7810
  568MOL0     C78284   2.132   6.814   4.135 -0.7974  0.7091 -0.6757
  568MOL0     C78285   2.212   6.933   4.175 -0.6135  0.2555  0.1696
  568MOL0     C78286   2.363   6.902   4.156  0.8021  0.0279 -0.2433
  568MOL0     C78287   2.439   7.019   4.225 -1.2490 -1.0795  0.5455
  568MOL0     C78288   2.589   7.015   4.195 -0.1086  0.3252  0.1640
  568MOL0     C78289   2.674   6.918   4.288  0.3545 -0.3918  0.3078
  568MOL0     C78290   2.809   6.880   4.238 -0.2886  0.4889  0.0353
  568MOL0    Cl78291   2.917   7.018   4.242  0.2492  0.0093 -0.3316
  568MOL0     C78292   1.740   7.022   4.237 -0.1374 -0.9344 -0.4389
  568MOL0     C78293   1.608   7.060   4.235  0.6094  0.1364 -0.4572
  568MOL0     O78294   1.482   7.338   4.053  0.5018  0.3655  0.0668
  568MOL0     C78295   1.225   7.182   3.905 -0.0464  0.6447  0.0988
  568MOL0     C78296   1.114   7.193   3.818  0.7042 -0.2511  0.0519
  568MOL0     N78297   0.513   7.660   3.384 -0.6175  0.7806  0.8371
  568MOL0     N78298   0.539   7.769   3.324 -0.1275 -0.0063  0.5501
  568MOL0     C78299   1.044   7.358   2.453 -0.7100  0.2880 -0.9144
  568MOL0     C78300   1.116   7.359   2.334 -0.1705  1.3555  0.0482
  568MOL0     C78301   1.420   7.528   2.034  0.3660 -0.9775 -0.7284
  568MOL0     C78302   1.489   7.412   2.007  0.0736  0.2378  0.6675
  568MOL0     C78303   1.604   7.416   1.930 -0.4946 -0.6072  0.6609
  568MOL0     C78304   1.655   7.539   1.878  0.8038  0.0975  0.1484
  568MOL0     O78305   1.760   7.530   1.796  0.2984  0.1011  0.3735
  568MOL0     C78306   1.720   7.511   1.656 -1.0041 -0.7202 -0.4671
  568MOL0     C78307   1.827   7.552   1.549 -0.4406 -0.0277 -0.1897
  568MOL0     C78308   1.931   7.446   1.508  0.0191  0.2188  0.1568
  568MOL0     C78309   2.039   7.433   1.621 -1.2398  0.6823  0.8476
  568MOL0     C78310   2.129   7.320   1.600  0.1258  0.4097  0.0895
  568MOL0     C78311   2.198   7.218   1.590  0.3303  0.5581 -0.4445
  568MOL0     C78312   1.588   7.653   1.903  0.0727 -0.5033 -0.4386
  568MOL0     C78313   1.468   7.655   1.984 -0.0263  0.3786  0.1907
  568MOL0     C78314   1.409   7.793   2.003 -0.3111  0.2879 -0.3000
  568MOL0     H78315   1.396   7.539   2.448 -0.1447  1.7379 -1.5868
  568MOL0     H78316   1.263   7.544   2.643  1.7162  0.5157 -0.8511
  568MOL0     H78317   1.034   7.609   2.698  0.7832  1.5282  0.2663
  568MOL0     H78318   1.133   7.525   2.825 -1.7444 -0.2612  2.5903
  568MOL0     H78319   0.825   7.535   2.821 -0.0049  2.8472  1.7957
  568MOL0     H78320   0.904   7.406   2.908 -0.7944 -0.2001 -0.5825
  568MOL0     H78321   0.851   7.586   3.042  0.4369  1.0026 -0.1907
  568MOL0     H78322   1.030   7.561   3.048  0.9891 -1.1232 -0.5310
  568MOL0     H78323   1.040   7.760   2.875 -1.2418  2.1554 -0.6224
  568MOL0     H78324   0.860   7.768   2.877 -1.3732  1.9106  1.1977
  568MOL0     H78325   1.013   7.931   3.013 -0.9802  1.1370 -0.0615
  568MOL0     H78326   1.044   7.815   3.123 -1.0918  1.0110  0.2694
  568MOL0     H78327   0.786   7.949   3.064  2.1167  0.8666 -1.1552
  568MOL0     H78328   0.767   7.788   3.137  2.9131 -3.5581 -3.6206
  568MOL0     H78329   0.903   8.026   3.278  1.5520 -1.1238 -0.7274
  568MOL0     H78330   0.895   7.862   3.340  1.2210 -0.9666 -1.8904
  568MOL0     H78331   0.730   8.029   3.402  2.6746 -1.7730  2.0763
  568MOL0     H78332   0.653   7.992   3.248 -0.5815 -1.4129  0.1828
  568MOL0     H78333   0.784   7.764   3.537 -0.2919 -0.0309  1.7315
  568MOL0     H78334   0.545   7.450   3.537  0.4137  0.3386 -3.9735
  568MOL0     H78335   0.619   7.533   3.672  0.2413 -1.8888  0.7413
  568MOL0     H78336   0.769   7.440   3.439 -1.5434 -3.4917  0.4041
  568MOL0     H78337   0.825   7.510   3.596 -1.6805  1.9078 -0.7235
  568MOL0     H78338   0.680   7.307   3.701 -0.8573  5.1194 -0.2833
  568MOL0     H78339   0.703   7.238   3.540 -0.6989 -1.5480 -0.1234
  568MOL0     H78340   0.848   7.150   3.707 -1.9187  2.2295  5.4841
  568MOL0     H78341   0.942   7.240   3.580  1.0179  2.1977  2.2245
  568MOL0     H78342   1.043   7.515   3.926  1.2525  1.8853  2.3376
  568MOL0     H78343   1.286   7.490   4.183  0.8750  1.5453  0.0744
  568MOL0     H78344   1.138   7.571   4.129  1.6239  2.4723 -0.0407
  568MOL0     H78345   1.290   7.579   4.036  0.9082 -0.6166  1.1951
  568MOL0     H78346   1.580   7.096   3.903  1.8042  1.2715  0.0322
  568MOL0     H78347   1.812   7.032   3.907  0.7620  0.0230  0.7334
  568MOL0     H78348   1.954   6.808   4.249  1.0858 -3.2709 -0.1091
  568MOL0     H78349   1.923   6.791   4.085 -0.2174 -0.4082  1.4967
  568MOL0     H78350   2.154   6.734   4.207  4.8158  0.6827 -1.9345
  568MOL0     H78351   2.157   6.784   4.033  1.6979 -1.7687  0.5133
  568MOL0     H78352   2.191   6.949   4.282  1.0497 -0.1147  0.5793
  568MOL0     H78353   2.197   7.019   4.109  0.1748 -0.1946 -0.6120
  568MOL0     H78354   2.378   6.904   4.048 -1.1733 -1.4184 -0.5900
  568MOL0     H78355   2.378   6.800   4.191 -2.9443 -1.2795 -1.9634
  568MOL0     H78356   2.412   7.104   4.162 -1.7229 -1.1733  0.6149
  568MOL0     H78357   2.433   7.026   4.334  0.2620 -1.5233  0.6802
  568MOL0     H78358   2.636   7.113   4.205  0.5025  0.1119 -0.5955
  568MOL0     H78359   2.606   6.990   4.090 -0.6162  1.7400 -0.2755
  568MOL0     H78360   2.606   6.833   4.274 -0.8006  0.7247 -1.2235
  568MOL0     H78361   2.678   6.957   4.390  1.5952  2.4123 -0.7087
  568MOL0     H78362   2.802   6.832   4.140 -2.3349  1.5203 -0.3711
  568MOL0     H78363   2.839   6.796   4.301  1.0996 -1.2984 -2.8127
  568MOL0     H78364   1.786   7.004   4.334 -0.6985 -0.1586 -0.0144
  568MOL0     H78365   1.539   7.052   4.318 -2.8973  1.0408 -3.0277
  568MOL0     H78366   1.285   7.095   3.877 -1.1262 -0.4595  1.1211
  568MOL0     H78367   1.096   7.103   3.759 -3.0832 -0.7949  1.7463
  568MOL0     H78368   0.951   7.301   2.451  0.4737 -1.7575 -1.3421
  568MOL0     H78369   1.081   7.312   2.243  0.4531  3.3097 -1.2747
  568MOL0     H78370   1.456   7.313   2.039 -0.5000 -0.9997 -3.2480
  568MOL0     H78371   1.675   7.338   1.902  0.9974  1.2806 -1.1835
  568MOL0     H78372   1.690   7.407   1.640 -0.3491 -1.3066  1.7774
  568MOL0     H78373   1.634   7.575   1.636  0.7437  2.8822  2.3992
  568MOL0     H78374   1.860   7.649   1.587  0.0688  1.0758 -3.1444
  568MOL0     H78375   1.765   7.572   1.460  0.7835 -0.9050 -1.2662
  568MOL0     H78376   1.875   7.352   1.503 -3.9171  2.4155 -1.6382
  568MOL0     H78377   1.971   7.475   1.411  1.4422  0.6061  0.8323
  568MOL0     H78378   1.988   7.410   1.715 -1.3043 -1.2223  0.3879
  568MOL0     H78379   2.092   7.528   1.627  1.2855 -0.6105  0.5939
  568MOL0     H78380   2.250   7.126   1.603  0.4307  0.6633 -0.0855
  568MOL0     H78381   1.616   7.749   1.860 -0.6774 -1.2583 -2.7487
  568MOL0     H78382   1.463   7.871   1.949  0.2783  0.0493 -0.0562
  568MOL0     H78383   1.305   7.796   1.967  0.5547 -0.1976 -3.0852
  568MOL0     H78384   1.417   7.817   2.110  1.9469 -0.4679 -0.2550
  569MOL0     O78385   1.905   2.225   6.052 -0.3895  0.0168  0.4953
  569MOL0     C78386   1.848   2.253   6.157 -0.5448  0.8603  0.2523
  569MOL0     O78387   1.749   2.340   6.172 -0.2632  0.0386  0.4596
  569MOL0     C78388   1.726   2.423   6.068 -0.0523 -0.0707  0.6950
  569MOL0     C78389   1.607   2.414   5.992  0.0727 -0.2874  0.4405
  569MOL0     C78390   1.575   2.520   5.903  0.7833 -0.1013  0.5428
  569MOL0     C78391   1.656   2.628   5.884 -0.2649  0.5888 -0.2956
  569MOL0     O78392   1.629   2.731   5.805  0.5392  0.7984  0.1213
  569MOL0     C78393   1.524   2.727   5.703  0.0884  0.3479 -0.3121
  569MOL0     C78394   1.580   2.806   5.592  0.8826 -0.1347  0.1165
  569MOL0     C78395   1.564   2.959   5.631 -0.0024  0.0174 -0.2634
  569MOL0     C78396   1.509   3.035   5.509 -0.2071  0.7134 -0.2750
  569MOL0     C78397   1.505   3.186   5.533  0.1637  0.2869 -0.3573
  569MOL0     C78398   1.470   3.255   5.397 -0.3324  0.1971 -0.4120
  569MOL0     C78399   1.409   3.399   5.422  0.3182  1.1988 -0.5740
  569MOL0     C78400   1.513   3.500   5.456 -0.2415  0.3962 -0.3591
  569MOL0     N78401   1.568   3.595   5.355  1.0341 -0.6785  0.6119
  569MOL0     C78402   1.689   3.598   5.298  0.8324 -0.7850 -0.1021
  569MOL0     C78403   1.692   3.723   5.230 -0.4343 -0.1172 -0.1103
  569MOL0     C78404   1.813   3.764   5.144 -0.5581  0.6481 -0.2925
  569MOL0     C78405   1.777   3.872   5.033 -0.3025 -0.8385 -1.8005
  569MOL0     C78406   1.891   3.918   4.940 -0.0419 -0.5918 -0.0316
  569MOL0     C78407   1.921   3.801   4.833  0.5523  0.0903 -0.3892
  569MOL0     O78408   2.001   3.844   4.721 -0.7229  0.0280  0.2339
  569MOL0     C78409   2.060   3.759   4.625  0.4127 -0.6534  0.1519
  569MOL0     C78410   2.065   3.629   4.638 -1.0964 -0.2176 -0.5441
  569MOL0     C78411   2.135   3.543   4.550  0.9452  0.7774 -0.5268
  569MOL0     C78412   2.127   3.396   4.595  0.2558  0.7361  0.0180
  569MOL0     C78413   2.206   3.592   4.444  0.5950  0.2467  0.2210
  569MOL0     C78414   2.292   3.506   4.362 -0.3722  0.2119 -0.3489
  569MOL0     O78415   2.306   3.559   4.238 -0.3523 -0.2959  0.9054
  569MOL0     C78416   2.383   3.491   4.145  0.4759  0.2037  0.0600
  569MOL0     C78417   2.339   3.423   4.037  0.0847  0.2747 -0.1882
  569MOL0     C78418   2.426   3.376   3.934 -0.6540  0.5910 -0.4518
  569MOL0     C78419   2.573   3.395   3.950 -0.5802  1.3021  0.4881
  569MOL0     O78420   2.656   3.356   3.851  0.3304 -0.2323  0.0213
  569MOL0     C78421   2.603   3.320   3.721 -1.1906 -0.0813  0.3982
  569MOL0     C78422   2.724   3.292   3.634  0.2139 -0.2295  0.0741
  569MOL0     C78423   2.795   3.423   3.619  0.3618  1.0264  1.1463
  569MOL0     C78424   2.916   3.417   3.528  0.4700  0.2340 -0.3332
  569MOL0     C78425   2.941   3.562   3.488  0.1067  0.1786  0.2105
  569MOL0     C78426   3.063   3.569   3.384 -0.1827 -0.5518  0.0040
  569MOL0     C78427   3.038   3.515   3.244  0.2558 -0.2764 -0.4275
  569MOL0     C78428   3.172   3.496   3.167 -0.8058  0.9803 -0.6985
  569MOL0    Cl78429   3.123   3.415   3.024 -0.0512  0.0703 -0.5559
  569MOL0     C78430   2.617   3.477   4.060  0.8320  1.4410  0.2595
  569MOL0     C78431   2.526   3.520   4.152 -0.1027 -0.4764 -0.1128
  569MOL0     O78432   2.346   3.403   4.403  0.0050 -0.4201  0.4920
  569MOL0     C78433   2.212   3.736   4.429 -0.2007 -0.1469  0.4021
  569MOL0     C78434   2.131   3.818   4.518 -0.1573 -0.4313  0.8847
  569MOL0     N78435   1.569   3.783   5.243 -0.8235  0.3474  0.2451
  569MOL0     N78436   1.499   3.707   5.320 -0.8610  0.8584 -0.8875
  569MOL0     C78437   1.772   2.626   5.950 -0.2089  0.5581  0.2315
  569MOL0     C78438   1.814   2.523   6.037  0.3024 -0.1958  0.7501
  569MOL0     C78439   1.874   2.182   6.279  0.4081  0.7689 -1.2958
  569MOL0     C78440   1.866   2.262   6.402  0.3909 -0.4795  0.5265
  569MOL0     C78441   1.898   2.203   6.520 -1.0701 -0.6617 -0.2837
  569MOL0     C78442   1.942   2.069   6.536  0.3749 -0.2122  0.2117
  569MOL0     O78443   1.985   2.044   6.660  0.1638  0.4100 -0.5736
  569MOL0     C78444   1.979   1.904   6.698  0.0061 -0.5521 -0.8209
  569MOL0     C78445   2.115   1.838   6.700 -0.9433  0.7873 -0.3336
  569MOL0     C78446   2.127   1.684   6.700 -0.5977 -0.2616  0.6168
  569MOL0     C78447   2.271   1.633   6.724  0.3369  0.8505 -0.9354
  569MOL0     C78448   2.301   1.496   6.664 -0.5978  0.0472 -0.1894
  569MOL0     C78449   2.330   1.386   6.611  0.2494 -0.8061  0.3174
  569MOL0     C78450   1.963   1.997   6.409  0.1673 -0.2439  0.0465
  569MOL0     C78451   1.920   2.047   6.289 -0.1033 -0.5529  0.8915
  569MOL0     C78452   1.929   1.956   6.164  0.1604 -0.1561  0.0624
  569MOL0     H78453   1.546   2.325   5.999 -1.9582  0.8958 -0.9639
  569MOL0     H78454   1.485   2.524   5.843  0.3190 -0.1845  1.2203
  569MOL0     H78455   1.435   2.767   5.753  1.2958  1.5842  0.9219
  569MOL0     H78456   1.515   2.626   5.662 -1.1214  0.3639 -0.1221
  569MOL0     H78457   1.687   2.783   5.583  1.1837  0.5956  1.4501
  569MOL0     H78458   1.523   2.780   5.503 -0.7528  1.8591  0.5159
  569MOL0     H78459   1.506   2.980   5.722  1.6025  0.8485  0.6229
  569MOL0     H78460   1.665   3.002   5.639 -0.2915  0.7605 -0.4514
  569MOL0     H78461   1.574   3.009   5.425 -1.5802  3.5057 -2.3958
  569MOL0     H78462   1.414   2.985   5.489  1.6044 -2.4127 -1.7881
  569MOL0     H78463   1.599   3.224   5.574  0.3355 -1.2747  0.7852
  569MOL0     H78464   1.416   3.210   5.591  1.2447  0.8406  1.1287
  569MOL0     H78465   1.557   3.274   5.333 -0.8535 -0.9369 -1.5255
  569MOL0     H78466   1.399   3.189   5.345  1.0772 -1.0121 -0.8778
  569MOL0     H78467   1.328   3.388   5.494  0.2400  0.5604 -0.7505
  569MOL0     H78468   1.366   3.437   5.328 -0.3228 -0.2461 -0.8873
  569MOL0     H78469   1.472   3.561   5.537 -0.4444  2.1384 -1.7215
  569MOL0     H78470   1.601   3.454   5.503 -0.7538 -0.3208 -0.0760
  569MOL0     H78471   1.771   3.529   5.311 -0.0031 -1.7912  0.0343
  569MOL0     H78472   1.851   3.676   5.091 -0.9993  0.2190  0.0956
  569MOL0     H78473   1.890   3.802   5.212  0.5639 -4.6339  1.8690
  569MOL0     H78474   1.700   3.830   4.968 -0.8003  1.5252 -2.8504
  569MOL0     H78475   1.751   3.970   5.074 -0.1386 -1.1376 -0.9568
  569MOL0     H78476   1.864   4.009   4.885  2.2416  0.2458  0.1094
  569MOL0     H78477   1.983   3.940   4.995  0.2236  0.8312 -0.9657
  569MOL0     H78478   1.975   3.719   4.880 -1.6365  0.3303  2.8980
  569MOL0     H78479   1.824   3.764   4.796  1.8306 -0.6041 -3.4031
  569MOL0     H78480   2.007   3.573   4.710 -1.7685 -2.9513 -2.9932
  569MOL0     H78481   2.077   3.324   4.530  0.2226 -0.3127  1.1510
  569MOL0     H78482   2.069   3.382   4.688 -0.7966 -0.8959 -0.8284
  569MOL0     H78483   2.228   3.362   4.618  0.3904  0.7803 -0.5175
  569MOL0     H78484   2.238   3.384   4.039  0.3083 -0.3151 -0.1422
  569MOL0     H78485   2.379   3.325   3.850  3.7815 -3.5756 -0.8526
  569MOL0     H78486   2.556   3.223   3.742 -2.3855 -0.1102 -2.0329
  569MOL0     H78487   2.537   3.390   3.669 -0.3064 -1.2557 -2.5658
  569MOL0     H78488   2.786   3.223   3.693  1.2244  1.4505  1.0301
  569MOL0     H78489   2.697   3.239   3.542  1.4799 -0.5648 -0.1175
  569MOL0     H78490   2.820   3.461   3.719  0.1551  2.3764  0.6952
  569MOL0     H78491   2.729   3.501   3.581  0.9191 -0.2318 -2.7956
  569MOL0     H78492   2.895   3.348   3.446 -2.9718 -0.1521  0.6951
  569MOL0     H78493   3.006   3.384   3.579  0.8881  0.4937 -0.8948
  569MOL0     H78494   2.853   3.589   3.428 -1.2397 -0.3268  1.8848
  569MOL0     H78495   2.946   3.646   3.558 -2.5794  1.0279 -0.4959
  569MOL0     H78496   3.152   3.522   3.428  1.5975  2.2081 -0.4111
  569MOL0     H78497   3.096   3.670   3.359  1.6586 -1.1805 -0.2429
  569MOL0     H78498   2.984   3.591   3.187  2.7620  1.1571 -0.9892
  569MOL0     H78499   2.975   3.426   3.255 -0.1330  0.2201  1.9826
  569MOL0     H78500   3.241   3.435   3.226 -1.3959  0.3413 -0.6643
  569MOL0     H78501   3.212   3.596   3.146 -1.1068  1.3872  0.5701
  569MOL0     H78502   2.723   3.498   4.071  1.8811 -0.3998 -4.3353
  569MOL0     H78503   2.544   3.583   4.238 -0.1344 -1.2021  0.4381
  569MOL0     H78504   2.256   3.776   4.339 -2.0673  0.2628 -0.3787
  569MOL0     H78505   2.141   3.926   4.519  0.1803 -0.4112 -1.0645
  569MOL0     H78506   1.854   2.697   5.951  2.2183 -2.0548  0.4301
  569MOL0     H78507   1.908   2.530   6.091  0.2766  0.5783  0.6993
  569MOL0     H78508   1.864   2.371   6.404  4.6257 -0.2647  1.2743
  569MOL0     H78509   1.881   2.278   6.597 -0.8830 -1.4655  0.5485
  569MOL0     H78510   1.936   1.890   6.798 -1.1981  2.0965 -0.8773
  569MOL0     H78511   1.907   1.849   6.637  0.6956 -1.7603 -0.5809
  569MOL0     H78512   2.159   1.877   6.792 -1.9619  1.5335 -0.1346
  569MOL0     H78513   2.165   1.880   6.612  0.7392 -0.2115  0.1184
  569MOL0     H78514   2.060   1.660   6.783 -3.1139  2.6292 -0.3802
  569MOL0     H78515   2.081   1.655   6.606 -0.1665  4.7456 -1.4557
  569MOL0     H78516   2.299   1.643   6.829 -0.5492  2.4893 -0.8194
  569MOL0     H78517   2.330   1.704   6.664  1.2827 -0.0192 -1.0527
  569MOL0     H78518   2.360   1.302   6.552  1.9739 -1.2121  1.6703
  569MOL0     H78519   2.001   1.895   6.406  3.1533  0.7422  1.3791
  569MOL0     H78520   2.024   1.984   6.117 -1.5744 -1.4810 -4.9086
  569MOL0     H78521   1.929   1.849   6.188 -0.0789 -0.0956  0.3307
  569MOL0     H78522   1.856   1.969   6.084 -1.8685 -2.0445  1.4956
  570MOL0     O78523   6.873   8.837   5.471  0.6080 -0.1633 -0.1113
  570MOL0     C78524   6.836   8.952   5.440  0.0955 -1.4054 -0.3892
  570MOL0     O78525   6.770   8.991   5.323 -0.0365  0.4637  0.3992
  570MOL0     C78526   6.792   8.902   5.216 -0.0867 -1.0160 -0.3319
  570MOL0     C78527   6.914   8.858   5.179 -0.4732 -0.5302 -0.2904
  570MOL0     C78528   6.938   8.797   5.058 -0.0965  0.1365 -0.2798
  570MOL0     C78529   6.834   8.767   4.968 -0.3400  0.4033  0.9331
  570MOL0     O78530   6.841   8.703   4.848 -0.1787  0.1457  0.1291
  570MOL0     C78531   6.846   8.797   4.735  0.1727 -0.5637 -0.0676
  570MOL0     C78532   6.873   8.740   4.596  0.4077 -0.1770  0.5002
  570MOL0     C78533   6.771   8.640   4.540  0.3952 -0.4090 -0.7911
  570MOL0     C78534   6.618   8.691   4.518 -0.2488 -0.2888 -0.3062
  570MOL0     C78535   6.537   8.568   4.465  0.1529  0.4694 -0.1092
  570MOL0     C78536   6.500   8.477   4.582  0.2757  0.7492 -0.1242
  570MOL0     C78537   6.387   8.376   4.550 -0.6499 -0.7710 -0.4130
  570MOL0     C78538   6.413   8.297   4.418 -0.1620 -0.8268  0.2030
  570MOL0     N78539   6.310   8.203   4.382  0.3659 -0.5680 -0.0480
  570MOL0     C78540   6.286   8.140   4.261  0.7582 -0.4594  0.2520
  570MOL0     C78541   6.187   8.046   4.291 -0.5924  0.2508  0.7259
  570MOL0     C78542   6.123   7.939   4.206  0.6228  0.8308  0.2781
  570MOL0     C78543   5.971   7.970   4.164  0.2648  0.2782 -0.5401
  570MOL0     C78544   5.925   7.851   4.080  0.9482 -1.1808  0.9097
  570MOL0     C78545   5.775   7.870   4.032  0.5627 -1.2394 -0.9800
  570MOL0     O78546   5.713   7.747   4.005 -0.0713 -0.3241 -0.2989
  570MOL0     C78547   5.573   7.748   3.997  0.4944  0.1412 -0.1124
  570MOL0     C78548   5.497   7.865   3.976  0.4410  0.8998 -0.3242
  570MOL0     C78549   5.362   7.865   3.982 -1.1371  1.0672 -0.1848
  570MOL0     C78550   5.292   8.004   3.961 -0.9018  0.6969  0.7512
  570MOL0     C78551   5.299   7.738   3.993  0.7387  0.0220  0.3166
  570MOL0     C78552   5.155   7.725   4.000  0.6145 -1.1546 -0.2924
  570MOL0     O78553   5.107   7.629   4.078 -0.5621 -0.4091 -0.2600
  570MOL0     C78554   4.990   7.576   4.054  0.7977  0.2771 -0.2427
  570MOL0     C78555   4.910   7.559   4.170  0.0587 -0.0097  0.3255
  570MOL0     C78556   4.782   7.508   4.165  0.3217  0.0647  1.0409
  570MOL0     C78557   4.742   7.454   4.043  0.0126 -0.0185  0.2117
  570MOL0     O78558   4.616   7.398   4.037 -0.2534  0.5183 -0.3825
  570MOL0     C78559   4.631   7.268   3.989  0.4893  0.7578 -0.5879
  570MOL0     C78560   4.497   7.193   4.026  0.1826 -0.0784 -0.3722
  570MOL0     C78561   4.467   7.198   4.185  0.0574 -0.8979  0.6336
  570MOL0     C78562   4.325   7.259   4.223  0.3192 -0.2862 -0.3905
  570MOL0     C78563   4.292   7.251   4.372 -0.0056  0.4025 -0.1602
  570MOL0     C78564   4.150   7.291   4.401  1.7059 -0.4518  0.7911
  570MOL0     C78565   4.135   7.347   4.543 -0.6535  0.2929 -0.6517
  570MOL0     C78566   3.985   7.343   4.582  0.0066 -0.0699 -0.0435
  570MOL0    Cl78567   3.896   7.434   4.461  0.3239 -0.3814  0.2242
  570MOL0     C78568   4.818   7.476   3.928 -0.3985 -0.0169  0.4185
  570MOL0     C78569   4.942   7.543   3.930 -0.1346  0.2990 -0.0368
  570MOL0     O78570   5.093   7.792   3.924  0.5449 -0.0732 -0.4573
  570MOL0     C78571   5.373   7.621   3.991  0.0254  0.6842  0.2275
  570MOL0     C78572   5.514   7.620   3.988 -0.2589 -0.5540 -0.5288
  570MOL0     N78573   6.150   8.052   4.427 -0.4102  0.0055 -0.4485
  570MOL0     N78574   6.232   8.141   4.475 -0.3169 -0.1083  0.5611
  570MOL0     C78575   6.711   8.801   5.010 -0.5389  0.6860 -0.1241
  570MOL0     C78576   6.692   8.876   5.123  0.5866 -0.2181 -0.4175
  570MOL0     C78577   6.850   9.057   5.540 -0.5109 -0.4038 -0.1029
  570MOL0     C78578   6.960   9.048   5.631  0.0171 -0.5728 -0.3170
  570MOL0     C78579   6.965   9.117   5.749  0.5453 -0.3651 -0.2538
  570MOL0     C78580   6.865   9.211   5.777  0.1420  0.2070 -0.7648
  570MOL0     O78581   6.871   9.300   5.883 -0.3600  0.4479  0.2188
  570MOL0     C78582   6.770   9.295   5.983  0.2038  0.1588  0.5343
  570MOL0     C78583   6.800   9.172   6.081 -0.2513 -0.3376 -0.0278
  570MOL0     C78584   6.930   9.181   6.161 -0.5387 -0.0145 -0.4399
  570MOL0     C78585   6.934   9.290   6.266 -0.2905 -0.6925  0.5731
  570MOL0     C78586   7.043   9.265   6.351 -0.3302 -0.3288 -0.7911
  570MOL0     C78587   7.131   9.233   6.429  1.4756 -0.4677 -0.5436
  570MOL0     C78588   6.761   9.221   5.692  0.3655  0.5541  0.5429
  570MOL0     C78589   6.742   9.139   5.573  0.1773 -0.2825 -0.2160
  570MOL0     C78590   6.613   9.149   5.507  0.2264 -0.2475 -0.3632
  570MOL0     H78591   7.009   8.878   5.226  0.3814 -1.3031 -1.6250
  570MOL0     H78592   7.037   8.774   5.020 -0.1898  0.0585 -0.4760
  570MOL0     H78593   6.929   8.867   4.751  1.9562 -2.3993 -0.7182
  570MOL0     H78594   6.750   8.849   4.733  1.2575  1.4894 -0.8726
  570MOL0     H78595   6.876   8.826   4.528  0.3654 -0.2642  0.3869
  570MOL0     H78596   6.969   8.688   4.600 -0.0155 -0.9082  1.4295
  570MOL0     H78597   6.814   8.598   4.449  2.9370  1.7216 -0.6971
  570MOL0     H78598   6.766   8.552   4.604 -0.9940  0.1291 -0.1302
  570MOL0     H78599   6.584   8.728   4.614  2.2384 -1.3088  1.0672
  570MOL0     H78600   6.620   8.769   4.441  0.6069 -1.1497 -1.1860
  570MOL0     H78601   6.598   8.503   4.402  0.3946 -0.5838  1.1688
  570MOL0     H78602   6.452   8.607   4.409 -0.7065 -4.2348 -2.5955
  570MOL0     H78603   6.583   8.413   4.612  1.1330  2.1795  0.6572
  570MOL0     H78604   6.455   8.533   4.664 -3.9644 -2.5645  0.1622
  570MOL0     H78605   6.288   8.419   4.533 -0.6589 -0.6218  0.0062
  570MOL0     H78606   6.380   8.297   4.626  2.4116 -1.5109 -0.7529
  570MOL0     H78607   6.445   8.359   4.334 -0.6631  0.2903  0.8002
  570MOL0     H78608   6.500   8.234   4.438  4.4753  4.7521  0.2587
  570MOL0     H78609   6.342   8.155   4.169  2.0367 -1.1001  0.8915
  570MOL0     H78610   6.110   7.840   4.250 -1.8776  0.0342 -2.0119
  570MOL0     H78611   6.188   7.931   4.118 -0.9003 -2.7896 -0.6920
  570MOL0     H78612   5.911   7.980   4.255  0.8711  2.0361 -0.2793
  570MOL0     H78613   5.950   8.070   4.123 -0.0634  0.9339  1.1598
  570MOL0     H78614   5.992   7.851   3.994 -1.0661  1.5132 -0.8137
  570MOL0     H78615   5.932   7.760   4.139  0.2644 -0.9550  1.3553
  570MOL0     H78616   5.714   7.917   4.109 -2.5911 -2.9828 -2.2091
  570MOL0     H78617   5.779   7.940   3.948 -0.7149  1.5034  1.1036
  570MOL0     H78618   5.541   7.965   3.977 -0.0138  1.1709 -2.3880
  570MOL0     H78619   5.192   8.003   4.006 -3.1588 -2.1121 -3.6088
  570MOL0     H78620   5.292   8.027   3.854  2.4645 -0.0827  0.4688
  570MOL0     H78621   5.347   8.092   3.994 -0.3803  0.2542  1.0733
  570MOL0     H78622   4.953   7.578   4.268 -0.0741 -1.7435  0.7445
  570MOL0     H78623   4.709   7.510   4.245 -0.6344 -1.1847  0.2316
  570MOL0     H78624   4.624   7.271   3.879 -0.7493  1.3322 -0.5104
  570MOL0     H78625   4.717   7.217   4.033 -1.6281 -0.3608  2.5978
  570MOL0     H78626   4.413   7.231   3.967 -2.0407  0.9595  3.1378
  570MOL0     H78627   4.515   7.089   4.000 -1.6148 -0.6953  0.6399
  570MOL0     H78628   4.539   7.268   4.229 -1.9758  1.4566  0.4640
  570MOL0     H78629   4.480   7.096   4.220  2.1545 -0.3660  1.5907
  570MOL0     H78630   4.243   7.212   4.168 -1.9879  1.7606  1.0890
  570MOL0     H78631   4.318   7.363   4.190  4.1042 -0.0182 -0.8302
  570MOL0     H78632   4.302   7.153   4.420  0.5255  0.8975  0.7621
  570MOL0     H78633   4.361   7.319   4.423 -0.8389  2.1363 -1.2331
  570MOL0     H78634   4.091   7.199   4.392  1.8485 -0.6686  1.8829
  570MOL0     H78635   4.122   7.356   4.318 -3.0948 -1.0605  1.6214
  570MOL0     H78636   4.170   7.450   4.537 -1.9413  0.7029 -2.1036
  570MOL0     H78637   4.187   7.274   4.605 -1.1014 -0.1990 -0.8478
  570MOL0     H78638   3.991   7.388   4.682  0.3902 -0.6308  0.1936
  570MOL0     H78639   3.946   7.243   4.599 -3.5088  0.8473 -1.8224
  570MOL0     H78640   4.786   7.431   3.835 -0.3905 -0.7458  0.7594
  570MOL0     H78641   5.002   7.547   3.840 -0.3158 -2.5784 -0.3846
  570MOL0     H78642   5.325   7.524   4.002 -0.0809  0.4678 -1.7795
  570MOL0     H78643   5.581   7.536   3.974 -0.3977 -0.1977 -4.1298
  570MOL0     H78644   6.617   8.789   4.956 -3.3405  1.3898  4.1311
  570MOL0     H78645   6.588   8.908   5.134  0.4913  1.1511 -3.8947
  570MOL0     H78646   7.047   8.986   5.613 -0.7808 -1.2363 -2.1819
  570MOL0     H78647   7.050   9.106   5.815  1.3712 -0.8922 -1.3703
  570MOL0     H78648   6.775   9.390   6.037  0.4153  1.0105 -0.9229
  570MOL0     H78649   6.675   9.300   5.929  0.5802 -0.1980 -0.1606
  570MOL0     H78650   6.800   9.069   6.044  0.3888  0.4025 -2.2415
  570MOL0     H78651   6.717   9.172   6.152 -1.5805  1.5005 -1.4623
  570MOL0     H78652   6.929   9.082   6.209 -1.5057  0.4084  0.4463
  570MOL0     H78653   7.012   9.180   6.088 -0.6474  0.4658 -0.5710
  570MOL0     H78654   6.837   9.276   6.316 -1.2005 -2.7594 -1.6048
  570MOL0     H78655   6.941   9.387   6.216  0.7979 -0.2401  1.5447
  570MOL0     H78656   7.197   9.213   6.511 -0.2895  1.2855  1.4216
  570MOL0     H78657   6.689   9.300   5.713 -1.4701 -0.1474 -2.3493
  570MOL0     H78658   6.539   9.224   5.536 -2.5700 -3.5136  1.7697
  570MOL0     H78659   6.623   9.183   5.404 -0.4469  0.2145 -0.2812
  570MOL0     H78660   6.566   9.050   5.509 -0.4730  0.0939  0.3109
  571MOL0     O78661  10.604   5.435   7.899 -0.0383 -0.4889  0.0800
  571MOL0     C78662  10.502   5.432   7.961 -0.1468 -0.1140 -0.0846
  571MOL0     O78663  10.489   5.475   8.096 -0.1028  0.6524  0.2289
  571MOL0     C78664  10.590   5.543   8.168 -0.7658 -0.1512  0.3818
  571MOL0     C78665  10.708   5.598   8.119 -0.6519 -0.9063 -0.1532
  571MOL0     C78666  10.801   5.666   8.202  0.2103  0.3116  0.1330
  571MOL0     C78667  10.773   5.675   8.338 -0.2504  0.4016 -0.4378
  571MOL0     O78668  10.850   5.722   8.437 -0.6762 -0.1984 -0.0172
  571MOL0     C78669  10.987   5.702   8.410  0.2150  0.4244 -0.1334
  571MOL0     C78670  11.070   5.729   8.541  0.7363 -0.0087  0.0989
  571MOL0     C78671  11.209   5.686   8.532 -0.6458  0.3158 -0.5578
  571MOL0     C78672  11.277   5.645   8.663  1.7517 -0.1581  0.0565
  571MOL0     C78673  11.352   5.515   8.654 -0.2892  0.3354  0.2130
  571MOL0     C78674  11.463   5.509   8.756 -0.0474  0.1957 -0.2283
  571MOL0     C78675  11.548   5.372   8.745 -0.4069 -0.6191 -1.2022
  571MOL0     C78676  11.465   5.244   8.770 -0.1946  0.4355 -0.0315
  571MOL0     N78677  11.547   5.140   8.842  0.5176 -0.7591 -0.7398
  571MOL0     C78678  11.474   5.028   8.883 -0.7029 -0.2456 -0.2937
  571MOL0     C78679  11.563   4.923   8.879 -0.7568 -0.5256 -0.0903
  571MOL0     C78680  11.542   4.787   8.930  0.2383 -0.1729  0.1239
  571MOL0     C78681  11.603   4.746   9.060  1.0092  0.0018 -0.8987
  571MOL0     C78682  11.755   4.748   9.064  1.0924  0.1977  0.1349
  571MOL0     C78683  11.819   4.666   9.177 -0.1016 -0.1563  0.4879
  571MOL0     O78684  11.794   4.727   9.298  0.1476 -0.1002 -0.3063
  571MOL0     C78685  11.844   4.657   9.409  0.0242 -0.3085 -0.3479
  571MOL0     C78686  11.794   4.705   9.538  0.2047  0.8660 -0.3267
  571MOL0     C78687  11.816   4.625   9.657 -0.2725 -0.7899 -0.8141
  571MOL0     C78688  11.767   4.691   9.783  0.4703  0.1415 -0.2051
  571MOL0     C78689  11.901   4.519   9.652 -0.2815 -0.8219  0.2426
  571MOL0     C78690  11.941   4.446   9.771 -0.6600 -0.3784 -0.3097
  571MOL0     O78691  12.067   4.381   9.759  0.8390 -0.3448 -0.6186
  571MOL0     C78692  12.093   4.292   9.859  1.2461  0.4037 -0.6592
  571MOL0     C78693  12.033   4.168   9.854  0.2276 -0.0479  1.5558
  571MOL0     C78694  12.042   4.088   9.967 -0.2939 -0.9726 -0.1213
  571MOL0     C78695  12.127   4.132  10.078  0.5215 -0.1899 -0.2596
  571MOL0     O78696  12.148   4.069  10.198 -0.1487  0.9012  0.0946
  571MOL0     C78697  12.118   3.922  10.217  0.2007  0.0002  0.2463
  571MOL0     C78698  12.244   3.861  10.274 -1.0402  1.6043 -0.6103
  571MOL0     C78699  12.243   3.704  10.293 -0.4745 -0.1762  0.8295
  571MOL0     C78700  12.107   3.639  10.319  0.2233 -0.1599  1.1940
  571MOL0     C78701  12.136   3.510  10.390 -0.7937  0.1837  0.5510
  571MOL0     C78702  12.013   3.438  10.429 -0.1783  0.3488 -0.4437
  571MOL0     C78703  11.910   3.387  10.338  1.0171  0.0093 -0.1842
  571MOL0     C78704  11.978   3.303  10.236 -0.0208  0.7527  0.4887
  571MOL0    Cl78705  11.872   3.189  10.158  0.1066 -0.1066 -0.7335
  571MOL0     C78706  12.204   4.252  10.066  0.6196  1.3581 -0.3973
  571MOL0     C78707  12.171   4.331   9.970 -0.5428 -0.2233  0.9385
  571MOL0     O78708  11.870   4.439   9.867 -0.0951 -0.3125  0.3987
  571MOL0     C78709  11.954   4.472   9.527 -0.1200  0.0216 -0.3164
  571MOL0     C78710  11.924   4.545   9.411 -0.0607 -0.1302  0.9746
  571MOL0     N78711  11.692   4.984   8.850  0.0857  0.0038 -0.2551
  571MOL0     N78712  11.672   5.111   8.822 -0.1540  1.0532 -0.0888
  571MOL0     C78713  10.657   5.600   8.387 -0.0232  0.2488 -0.1221
  571MOL0     C78714  10.575   5.538   8.305  1.4658  0.3330 -0.2697
  571MOL0     C78715  10.379   5.389   7.903  0.2877 -0.3643 -0.2579
  571MOL0     C78716  10.259   5.400   7.980 -0.1520 -0.2311 -0.0796
  571MOL0     C78717  10.137   5.356   7.926  0.7412  0.3775  0.3705
  571MOL0     C78718  10.131   5.317   7.797 -0.1616 -0.3669 -0.1611
  571MOL0     O78719  10.013   5.288   7.742  0.4428  0.1437  0.4554
  571MOL0     C78720   9.985   5.162   7.682  0.7109  0.3157 -0.6430
  571MOL0     C78721   9.849   5.090   7.726 -0.8359  0.5218  0.6254
  571MOL0     C78722   9.837   4.936   7.710 -0.4925  0.1782  1.1986
  571MOL0     C78723   9.916   4.863   7.818 -0.0842 -0.0496 -0.3707
  571MOL0     C78724   9.925   4.728   7.780 -0.3854  0.5571  0.1339
  571MOL0     C78725   9.915   4.609   7.743  0.2544  0.1277 -0.7016
  571MOL0     C78726  10.247   5.316   7.717 -0.3746 -0.7131  0.2575
  571MOL0     C78727  10.369   5.338   7.773  0.6477 -0.1127  0.9699
  571MOL0     C78728  10.475   5.308   7.665  0.0288 -0.5820 -0.5931
  571MOL0     H78729  10.732   5.596   8.013  1.3921 -4.0849  0.2180
  571MOL0     H78730  10.892   5.697   8.153 -1.2039  1.4995 -1.9042
  571MOL0     H78731  11.036   5.748   8.324 -0.3129  1.5100  0.1217
  571MOL0     H78732  11.005   5.597   8.389  1.2543 -0.2080  3.2612
  571MOL0     H78733  11.072   5.834   8.570  1.8479  0.1535 -0.5330
  571MOL0     H78734  11.029   5.668   8.622 -0.7343 -2.3405 -2.1859
  571MOL0     H78735  11.197   5.591   8.479  1.8345 -0.5524  0.3218
  571MOL0     H78736  11.272   5.757   8.478 -1.3631  0.6289 -1.0023
  571MOL0     H78737  11.338   5.732   8.686  0.7348  1.5146 -2.9011
  571MOL0     H78738  11.194   5.632   8.733  0.8648  1.2146 -0.6869
  571MOL0     H78739  11.389   5.511   8.551  4.5527  0.7022  1.6778
  571MOL0     H78740  11.277   5.437   8.667  0.9113 -0.5262  2.5183
  571MOL0     H78741  11.533   5.592   8.742  0.6227 -0.2563  0.4256
  571MOL0     H78742  11.419   5.514   8.856  2.3321  0.2420  0.8838
  571MOL0     H78743  11.640   5.373   8.804 -1.1413  0.6493 -0.0060
  571MOL0     H78744  11.581   5.366   8.641  4.0332  0.1162 -0.0544
  571MOL0     H78745  11.376   5.269   8.829  0.1768  2.7278 -0.3573
  571MOL0     H78746  11.437   5.208   8.671  2.8044  1.1741 -1.2640
  571MOL0     H78747  11.370   5.013   8.908 -0.3752 -0.9083  0.7447
  571MOL0     H78748  11.584   4.712   8.862  1.4722  0.8813 -0.3230
  571MOL0     H78749  11.433   4.778   8.927  0.4120 -3.5352 -0.7670
  571MOL0     H78750  11.575   4.816   9.139 -2.5740  1.6231 -3.2833
  571MOL0     H78751  11.563   4.651   9.096  2.6085 -0.1315  0.6272
  571MOL0     H78752  11.793   4.719   8.966 -3.5588 -0.7145 -1.6870
  571MOL0     H78753  11.769   4.855   9.085 -1.3321  1.2721 -2.9611
  571MOL0     H78754  11.784   4.563   9.169  1.8806 -0.8790  0.5529
  571MOL0     H78755  11.926   4.652   9.155 -0.7679 -2.2353 -1.9057
  571MOL0     H78756  11.720   4.784   9.533  0.2899  0.8543 -2.6521
  571MOL0     H78757  11.668   4.666   9.821 -1.7289  2.3534 -3.8509
  571MOL0     H78758  11.757   4.800   9.772 -0.7311  0.1470  0.7658
  571MOL0     H78759  11.842   4.669   9.860  1.6141 -2.5965 -1.9538
  571MOL0     H78760  11.970   4.132   9.773  1.2975  0.4441  0.4748
  571MOL0     H78761  11.994   3.991   9.979 -3.2771  0.3891 -0.1014
  571MOL0     H78762  12.028   3.916  10.279 -2.3977 -2.0828 -3.3719
  571MOL0     H78763  12.097   3.862  10.128  1.6999 -0.6936  0.3286
  571MOL0     H78764  12.332   3.889  10.216 -0.0613 -0.1741 -0.0746
  571MOL0     H78765  12.260   3.912  10.370  1.8941  2.0476 -1.2410
  571MOL0     H78766  12.319   3.673  10.364  1.5362  2.1780 -0.1353
  571MOL0     H78767  12.281   3.658  10.201  0.2801  2.1326 -0.1151
  571MOL0     H78768  12.060   3.611  10.225  1.7819 -4.2029  1.4036
  571MOL0     H78769  12.041   3.701  10.382 -2.0390 -1.3628  0.1118
  571MOL0     H78770  12.199   3.454  10.319 -1.2717  2.2895 -1.6594
  571MOL0     H78771  12.200   3.512  10.479  0.2058  1.8507 -0.1530
  571MOL0     H78772  11.967   3.509  10.499 -1.2620 -1.6446  0.9869
  571MOL0     H78773  12.037   3.354  10.496 -1.1459  0.5316  0.1558
  571MOL0     H78774  11.852   3.469  10.294 -0.1997 -0.4896  0.4606
  571MOL0     H78775  11.836   3.332  10.397  2.7819 -0.0074  2.1541
  571MOL0     H78776  12.062   3.251  10.283  0.3089  1.1130  0.3038
  571MOL0     H78777  12.019   3.356  10.149  1.4385 -1.4056 -0.2030
  571MOL0     H78778  12.271   4.277  10.148 -1.6004  0.6184  1.7520
  571MOL0     H78779  12.220   4.423   9.940 -0.6484 -0.0952  1.1529
  571MOL0     H78780  12.024   4.390   9.528  2.4719  2.0566  1.4749
  571MOL0     H78781  11.953   4.507   9.314  1.9795 -1.5932  2.0740
  571MOL0     H78782  10.664   5.584   8.494  2.6146  3.4111  0.3423
  571MOL0     H78783  10.496   5.476   8.346  0.3320  1.3743 -0.8127
  571MOL0     H78784  10.263   5.452   8.075  2.5153 -1.4096  0.5367
  571MOL0     H78785  10.042   5.346   7.977 -0.4370 -0.1765 -1.8088
  571MOL0     H78786   9.988   5.169   7.573  1.7168  1.6211 -0.5499
  571MOL0     H78787  10.064   5.095   7.717  1.6036  0.9027 -1.5062
  571MOL0     H78788   9.774   5.134   7.660 -0.4792  2.1450  1.2536
  571MOL0     H78789   9.823   5.114   7.830  0.5593  2.7965  0.5396
  571MOL0     H78790   9.729   4.915   7.711 -1.3732  3.3955 -2.5947
  571MOL0     H78791   9.864   4.914   7.606  0.7984  0.6910  1.4081
  571MOL0     H78792   9.850   4.889   7.901 -1.4650  4.2507 -2.4864
  571MOL0     H78793  10.018   4.902   7.828 -1.1130  3.3734 -1.6506
  571MOL0     H78794   9.900   4.505   7.724 -2.6135  0.4877 -0.9392
  571MOL0     H78795  10.241   5.286   7.613  1.6539  3.0206 -1.1375
  571MOL0     H78796  10.491   5.402   7.610 -1.0227  0.8665  1.4558
  571MOL0     H78797  10.571   5.280   7.710  1.1654  0.7467 -2.0399
  571MOL0     H78798  10.439   5.230   7.598 -2.0286 -0.6128  0.4678
  572MOL0     O78799   9.554   9.552   3.050 -0.3311 -0.8933  0.2333
  572MOL0     C78800   9.521   9.636   2.958 -0.3995  0.3651  0.2398
  572MOL0     O78801   9.600   9.681   2.861 -0.2120 -0.6315 -0.2769
  572MOL0     C78802   9.735   9.655   2.867 -0.0032  0.3603 -0.2551
  572MOL0     C78803   9.816   9.631   2.985 -0.3015 -0.1530  0.0382
  572MOL0     C78804   9.947   9.587   2.965 -0.9186  0.1017  0.7201
  572MOL0     C78805  10.008   9.571   2.840 -0.2009 -0.2805 -0.5136
  572MOL0     O78806  10.135   9.502   2.828 -0.2216  0.1495 -0.1073
  572MOL0     C78807  10.221   9.581   2.748  0.0781  0.0996  0.4401
  572MOL0     C78808  10.343   9.502   2.696 -1.0117 -0.4591 -0.4724
  572MOL0     C78809  10.473   9.539   2.774 -0.7636 -0.0901  0.1604
  572MOL0     C78810  10.587   9.439   2.744 -0.3661  0.0197  0.1203
  572MOL0     C78811  10.657   9.435   2.607 -0.4194  0.5511  0.0155
  572MOL0     C78812  10.705   9.578   2.585 -0.0900  0.2719  0.0084
  572MOL0     C78813  10.807   9.575   2.474  0.3514  0.2645  1.0380
  572MOL0     C78814  10.736   9.547   2.343 -1.1110 -0.5959  0.4068
  572MOL0     N78815  10.849   9.570   2.241 -0.9861 -0.6307 -0.2370
  572MOL0     C78816  10.867   9.693   2.171 -0.1894  0.6342 -0.2090
  572MOL0     C78817  10.970   9.672   2.091 -0.1269 -0.0166  0.0687
  572MOL0     C78818  11.037   9.768   1.998  0.6351  0.5764  0.2390
  572MOL0     C78819  11.043   9.718   1.848 -0.3408 -0.4037  0.9815
  572MOL0     C78820  11.124   9.824   1.775  0.6570  0.1767  0.1843
  572MOL0     C78821  11.122   9.829   1.620  0.0819  0.1853 -0.1381
  572MOL0     O78822  11.110   9.972   1.587  0.0448  0.7857 -0.0865
  572MOL0     C78823  11.092  10.000   1.454 -0.4474 -0.1754  0.0522
  572MOL0     C78824  11.098   9.902   1.353  0.2662  0.1219 -0.5847
  572MOL0     C78825  11.072   9.937   1.217 -0.7373 -0.1643 -0.9556
  572MOL0     C78826  11.059   9.823   1.122  0.2815 -0.2973  0.2832
  572MOL0     C78827  11.050  10.077   1.175 -0.0537  0.7739 -0.8762
  572MOL0     C78828  11.015  10.123   1.028  0.1398 -0.1241  0.0066
  572MOL0     O78829  11.064  10.243   0.986  0.5549 -0.0453  0.0753
  572MOL0     C78830  11.036  10.299   0.864  0.0775 -0.4181 -0.1461
  572MOL0     C78831  10.920  10.259   0.784  0.9328 -0.1500  0.0509
  572MOL0     C78832  10.904  10.324   0.662 -0.5605  0.3621  0.5780
  572MOL0     C78833  10.989  10.421   0.615 -0.2961 -0.3178  1.0643
  572MOL0     O78834  10.990  10.464   0.486  0.1719 -0.1227  0.0760
  572MOL0     C78835  11.016  10.600   0.453  0.7904  0.8266 -0.5209
  572MOL0     C78836  11.012  10.607   0.302  0.3139  0.3804 -0.8313
  572MOL0     C78837  11.019  10.754   0.257 -0.3499  0.0585  0.0935
  572MOL0     C78838  11.140  10.836   0.302 -0.2056 -0.4320 -0.0101
  572MOL0     C78839  11.174  10.951   0.216  0.1411 -0.5112  0.0105
  572MOL0     C78840  11.234  10.907   0.082 -0.4269 -0.1517 -0.8691
  572MOL0     C78841  11.299  11.025   0.009  0.0332 -0.1781 -0.0380
  572MOL0     C78842  11.325  10.977  -0.131 -1.0338  1.0099 -0.9369
  572MOL0    Cl78843  11.164  10.950  -0.205 -0.0292  0.1674 -0.0113
  572MOL0     C78844  11.106  10.451   0.692 -0.1491  0.3269 -0.3767
  572MOL0     C78845  11.118  10.396   0.823 -1.1906  0.9817  0.2272
  572MOL0     O78846  10.957  10.044   0.957 -0.4425 -0.4440 -0.2784
  572MOL0     C78847  11.036  10.164   1.280 -0.6394  0.0492 -0.3517
  572MOL0     C78848  11.056  10.135   1.418 -0.5949  0.1477  0.0401
  572MOL0     N78849  11.009   9.537   2.107 -0.2650  0.6064 -0.7767
  572MOL0     N78850  10.942   9.483   2.198 -0.2729  0.2052 -0.9403
  572MOL0     C78851   9.924   9.597   2.727 -0.6344  0.1497  0.2145
  572MOL0     C78852   9.790   9.640   2.739 -0.2917  0.7191 -0.0164
  572MOL0     C78853   9.381   9.678   2.937 -0.1348  0.6287 -0.5006
  572MOL0     C78854   9.324   9.662   2.813  0.0914  0.6746  0.3378
  572MOL0     C78855   9.193   9.677   2.797 -0.4585 -0.4552 -0.8526
  572MOL0     C78856   9.108   9.722   2.903 -0.2004  1.7273 -0.1245
  572MOL0     O78857   8.976   9.714   2.877 -1.0299 -0.1498 -0.1863
  572MOL0     C78858   8.896   9.830   2.895 -0.5764  0.1271 -0.6721
  572MOL0     C78859   8.843   9.888   2.757 -0.6694 -0.0038 -0.6753
  572MOL0     C78860   8.694   9.906   2.742  0.1111 -0.2279 -0.3377
  572MOL0     C78861   8.663   9.982   2.612  0.0971 -0.1715  0.3619
  572MOL0     C78862   8.715   9.909   2.488  0.9254  0.4713 -0.7672
  572MOL0     C78863   8.736   9.836   2.391  0.1906 -0.0959  0.7820
  572MOL0     C78864   9.165   9.750   3.026 -0.4326  0.6630 -0.4355
  572MOL0     C78865   9.300   9.726   3.052 -0.7676  1.0082 -0.0739
  572MOL0     C78866   9.353   9.733   3.193  0.6799 -0.4818  0.2808
  572MOL0     H78867   9.771   9.636   3.083  2.2117 -0.5478  1.2993
  572MOL0     H78868  10.010   9.582   3.053  0.5651 -1.7429 -0.3478
  572MOL0     H78869  10.263   9.671   2.793 -2.8046  3.4797 -2.9749
  572MOL0     H78870  10.171   9.613   2.656  2.0717 -2.3381 -1.6516
  572MOL0     H78871  10.323   9.395   2.708  0.2479 -0.4572  2.6906
  572MOL0     H78872  10.360   9.537   2.594 -0.6028  0.0916 -0.2221
  572MOL0     H78873  10.516   9.634   2.742 -0.8588  0.2320  0.9648
  572MOL0     H78874  10.453   9.546   2.881 -2.6353  0.8994 -0.2158
  572MOL0     H78875  10.660   9.458   2.823 -1.0989 -0.3157  0.9051
  572MOL0     H78876  10.568   9.334   2.766  1.7003 -0.3739  0.2602
  572MOL0     H78877  10.591   9.401   2.527  3.1320 -2.5382 -1.8993
  572MOL0     H78878  10.733   9.357   2.613 -1.2219 -0.1572  3.6757
  572MOL0     H78879  10.619   9.633   2.546 -1.7822 -1.2760  1.3317
  572MOL0     H78880  10.748   9.637   2.667 -0.6714  0.4500  0.1931
  572MOL0     H78881  10.883   9.498   2.489  1.0417  1.0585  1.7298
  572MOL0     H78882  10.856   9.673   2.464 -1.6975  1.5761  2.9721
  572MOL0     H78883  10.700   9.444   2.344 -1.1462 -0.5932 -0.1955
  572MOL0     H78884  10.652   9.612   2.316 -2.6260 -2.7508 -0.3587
  572MOL0     H78885  10.814   9.787   2.184  0.3775  0.7023  2.0429
  572MOL0     H78886  11.141   9.763   2.033  0.9601 -4.4796 -0.7386
  572MOL0     H78887  10.984   9.864   1.998 -3.3206 -1.1181 -5.0227
  572MOL0     H78888  11.101   9.625   1.846  1.0933  0.4581 -1.4915
  572MOL0     H78889  10.948   9.695   1.801 -0.5043 -2.7773  2.3276
  572MOL0     H78890  11.079   9.919   1.807 -0.4231 -0.7711  1.5884
  572MOL0     H78891  11.229   9.831   1.803  1.1765  1.4117 -1.8523
  572MOL0     H78892  11.207   9.784   1.569 -1.9507 -1.9548 -1.9091
  572MOL0     H78893  11.034   9.773   1.585 -0.6194  0.2677  1.3983
  572MOL0     H78894  11.119   9.796   1.363  0.0600  0.0897 -0.4954
  572MOL0     H78895  11.020   9.725   1.151  0.9318 -1.2656 -1.8549
  572MOL0     H78896  11.152   9.794   1.072 -0.8850 -0.6724 -1.7917
  572MOL0     H78897  10.995   9.836   1.034  0.8742  2.3141  0.1759
  572MOL0     H78898  10.845  10.185   0.812 -3.1258  3.4869 -0.0514
  572MOL0     H78899  10.821  10.278   0.609 -1.0321 -0.4671  1.9947
  572MOL0     H78900  10.931  10.652   0.500  0.8435  1.0145 -0.6320
  572MOL0     H78901  11.108  10.641   0.495  0.2916  1.7267 -0.2659
  572MOL0     H78902  11.091  10.540   0.266  1.3219  1.2620 -0.3039
  572MOL0     H78903  10.918  10.568   0.260  0.5368 -2.4817  1.0609
  572MOL0     H78904  10.937  10.801   0.312 -0.2913 -1.5751  1.6392
  572MOL0     H78905  11.006  10.765   0.149 -2.7214  0.8175  0.4038
  572MOL0     H78906  11.228  10.771   0.291 -0.6106 -0.7992 -1.1913
  572MOL0     H78907  11.127  10.873   0.404 -0.7440  0.0800 -0.2612
  572MOL0     H78908  11.080  11.000   0.191 -0.2618 -1.8757 -1.2939
  572MOL0     H78909  11.233  11.018   0.278 -3.3448  2.9576 -0.0746
  572MOL0     H78910  11.150  10.866   0.025 -1.2823  2.0174 -1.2624
  572MOL0     H78911  11.317  10.837   0.093  0.8453  1.1545 -1.7411
  572MOL0     H78912  11.388  11.055   0.065 -0.2625  2.1300 -0.7061
  572MOL0     H78913  11.224  11.104   0.012 -0.8559 -0.9071 -1.5471
  572MOL0     H78914  11.384  10.884  -0.135 -1.0435  0.9605 -0.1708
  572MOL0     H78915  11.384  11.049  -0.188 -0.3212  3.1166  2.2080
  572MOL0     H78916  11.186  10.511   0.649 -0.2236  0.4243 -0.3801
  572MOL0     H78917  11.201  10.425   0.886  0.6638 -2.7990 -0.2252
  572MOL0     H78918  11.023  10.268   1.252  0.9837 -0.1515 -2.0099
  572MOL0     H78919  11.058  10.215   1.491  2.2353  1.2683 -1.1009
  572MOL0     H78920   9.960   9.579   2.626  0.4315 -0.3744  0.6794
  572MOL0     H78921   9.721   9.657   2.656  1.3187 -0.6436 -1.7273
  572MOL0     H78922   9.386   9.630   2.729 -0.2344  0.9369 -0.0054
  572MOL0     H78923   9.141   9.650   2.705 -0.8404 -0.4206 -0.6509
  572MOL0     H78924   8.808   9.800   2.952 -0.0527  0.7987  0.5221
  572MOL0     H78925   8.961   9.902   2.947 -0.0050 -0.5095 -0.4982
  572MOL0     H78926   8.892   9.837   2.674  0.8196  1.2168 -0.5843
  572MOL0     H78927   8.878   9.992   2.761  1.4818 -0.7141  1.3594
  572MOL0     H78928   8.646   9.808   2.744  2.8651 -1.7211  2.9211
  572MOL0     H78929   8.645   9.957   2.825 -0.6456 -0.6765 -0.4993
  572MOL0     H78930   8.697  10.085   2.617 -1.0359  0.2552 -0.1518
  572MOL0     H78931   8.554   9.983   2.598  0.0942 -1.4906  0.1197
  572MOL0     H78932   8.749   9.772   2.306 -2.6471 -2.3006  1.8396
  572MOL0     H78933   9.090   9.778   3.099 -0.5864  0.6691 -0.5953
  572MOL0     H78934   9.455   9.769   3.179  0.9227 -1.6602 -1.1934
  572MOL0     H78935   9.301   9.809   3.252  2.3477  1.8100 -1.0497
  572MOL0     H78936   9.355   9.632   3.235 -3.4238 -1.0712 -0.4965
  573MOL0     O78937   5.896   5.071   0.593  0.1771  0.6920  0.0039
  573MOL0     C78938   6.011   5.084   0.608 -0.2285 -0.6972  0.1106
  573MOL0     O78939   6.092   5.165   0.519  0.6253 -0.7771  0.3197
  573MOL0     C78940   6.040   5.220   0.403 -0.0879 -0.1974  1.0070
  573MOL0     C78941   6.079   5.351   0.376 -0.6421  0.1233  0.6130
  573MOL0     C78942   6.041   5.417   0.263 -0.6494  0.4410  1.0827
  573MOL0     C78943   5.959   5.349   0.167 -0.4884 -0.4324 -0.6973
  573MOL0     O78944   5.915   5.430   0.061  0.1431 -0.3625 -0.3241
  573MOL0     C78945   5.937   5.375  -0.068  0.0681 -0.1910  0.2586
  573MOL0     C78946   6.089   5.395  -0.098 -0.0657  0.4915 -0.8225
  573MOL0     C78947   6.171   5.263  -0.092 -0.3528 -0.4552 -0.5295
  573MOL0     C78948   6.319   5.299  -0.096  0.4648  0.7403  0.0841
  573MOL0     C78949   6.405   5.177  -0.088  0.0017 -0.5695  0.2060
  573MOL0     C78950   6.553   5.216  -0.055  0.8326 -1.3318  0.3320
  573MOL0     C78951   6.650   5.107  -0.081 -0.4294 -0.6049 -0.0701
  573MOL0     C78952   6.642   5.007   0.033 -0.5290  0.8038 -0.1623
  573MOL0     N78953   6.697   4.878   0.003 -0.0526  0.0241  0.3385
  573MOL0     C78954   6.726   4.784   0.104  0.9291 -0.1846  0.1702
  573MOL0     C78955   6.809   4.697   0.033  0.6968  0.2397  0.1013
  573MOL0     C78956   6.870   4.567   0.075 -0.3832 -0.2831  0.2766
  573MOL0     C78957   7.008   4.583   0.137  0.4459  0.1840  0.0868
  573MOL0     C78958   7.091   4.454   0.120 -0.1861 -0.8925  1.2342
  573MOL0     C78959   7.168   4.454  -0.016  1.4037  0.0931 -0.2074
  573MOL0     O78960   7.266   4.567  -0.020 -0.5012 -0.1503  0.3062
  573MOL0     C78961   7.312   4.600  -0.142 -1.3291  0.1719  0.5470
  573MOL0     C78962   7.243   4.598  -0.266 -0.2386  0.2954 -0.0446
  573MOL0     C78963   7.313   4.636  -0.393 -0.1940  0.0489 -0.9287
  573MOL0     C78964   7.232   4.606  -0.516  0.0669 -1.2470 -0.3132
  573MOL0     C78965   7.449   4.666  -0.394  0.2939 -0.1377 -0.5239
  573MOL0     C78966   7.534   4.696  -0.513 -0.3603 -0.4358 -0.3956
  573MOL0     O78967   7.662   4.731  -0.495  0.2465 -0.6231 -0.7271
  573MOL0     C78968   7.737   4.777  -0.603 -0.2120 -0.0586 -0.2226
  573MOL0     C78969   7.828   4.694  -0.667  0.7652  0.3824 -1.0890
  573MOL0     C78970   7.908   4.745  -0.768 -0.4280  0.8374 -0.2795
  573MOL0     C78971   7.911   4.875  -0.799  0.3786 -0.1814 -0.0691
  573MOL0     O78972   7.990   4.919  -0.905  0.2084 -0.4290 -0.6225
  573MOL0     C78973   8.061   5.043  -0.922  0.1249 -0.4211 -1.1877
  573MOL0     C78974   8.207   5.024  -0.882  0.5462 -0.1323  0.7941
  573MOL0     C78975   8.280   5.156  -0.891 -0.6638  0.0585 -0.0498
  573MOL0     C78976   8.416   5.126  -0.941 -0.9477 -0.5674 -0.2556
  573MOL0     C78977   8.506   5.249  -0.963 -0.4957 -0.0103  0.0841
  573MOL0     C78978   8.635   5.223  -1.034  0.0032 -0.9456 -0.3699
  573MOL0     C78979   8.739   5.339  -1.026  0.4708  0.0378 -0.5007
  573MOL0     C78980   8.799   5.321  -0.881  0.0173  0.3933 -0.1252
  573MOL0    Cl78981   8.936   5.434  -0.852  0.3423 -0.1619 -0.3582
  573MOL0     C78982   7.837   4.964  -0.737  0.0747  0.1062  0.0014
  573MOL0     C78983   7.745   4.920  -0.641  1.6362  0.5297  0.4438
  573MOL0     O78984   7.480   4.689  -0.626 -0.3800  0.0043 -0.1561
  573MOL0     C78985   7.513   4.661  -0.270 -0.1519  1.0279  0.1313
  573MOL0     C78986   7.449   4.618  -0.152 -0.2070  0.6914  0.4110
  573MOL0     N78987   6.840   4.738  -0.091  0.0850  0.2197  0.1912
  573MOL0     N78988   6.767   4.840  -0.110  0.8275  0.7233  0.7765
  573MOL0     C78989   5.917   5.223   0.190  0.8573  0.0112  0.0171
  573MOL0     C78990   5.961   5.156   0.306  0.3636 -0.1577 -0.5226
  573MOL0     C78991   6.076   5.012   0.717 -0.3911  0.0744 -0.1134
  573MOL0     C78992   6.214   4.995   0.709  0.1568  0.2870  0.9873
  573MOL0     C78993   6.280   4.910   0.796 -0.2542  0.6948  0.2035
  573MOL0     C78994   6.215   4.855   0.907 -0.5838  0.1425 -0.3476
  573MOL0     O78995   6.297   4.780   0.993  0.5271 -0.5210  1.1566
  573MOL0     C78996   6.259   4.749   1.122 -0.3779 -0.2874 -0.1925
  573MOL0     C78997   6.197   4.609   1.120  0.1396  0.4549  0.4443
  573MOL0     C78998   6.149   4.556   1.260 -0.3962 -0.2221 -0.2583
  573MOL0     C78999   6.149   4.405   1.271  0.4751  0.5126 -0.2702
  573MOL0     C79000   6.093   4.371   1.415  0.5643 -0.1171  0.0637
  573MOL0     C79001   6.046   4.354   1.527 -1.2383 -0.0724 -0.6985
  573MOL0     C79002   6.081   4.878   0.919 -0.5220 -0.7636 -0.7870
  573MOL0     C79003   6.010   4.951   0.824  0.5942 -0.7410 -0.1719
  573MOL0     C79004   5.862   4.950   0.838  0.6130 -0.2815  0.1071
  573MOL0     H79005   6.134   5.412   0.447 -1.2759  0.7570  0.5662
  573MOL0     H79006   6.058   5.518   0.227 -2.2793 -0.5427 -3.1028
  573MOL0     H79007   5.886   5.432  -0.145  1.8521  2.4027  0.8711
  573MOL0     H79008   5.898   5.273  -0.075 -1.4394  0.2365  1.7701
  573MOL0     H79009   6.081   5.410  -0.206 -4.2442 -0.5622 -0.8379
  573MOL0     H79010   6.137   5.477  -0.043  0.3117  1.3857 -2.4180
  573MOL0     H79011   6.144   5.211   0.000 -0.6368  0.4850 -0.0703
  573MOL0     H79012   6.148   5.190  -0.170  1.5430 -0.3183 -1.2687
  573MOL0     H79013   6.343   5.346  -0.192  0.0624 -2.2100 -1.5749
  573MOL0     H79014   6.337   5.367  -0.012  0.8844 -1.2698  1.6951
  573MOL0     H79015   6.380   5.120  -0.178 -2.0715  1.7466 -0.8051
  573MOL0     H79016   6.372   5.115  -0.004 -1.6700  1.9133  1.5150
  573MOL0     H79017   6.580   5.300  -0.119 -1.0559 -1.0871 -0.2114
  573MOL0     H79018   6.548   5.244   0.051 -5.4683  0.1121  0.0362
  573MOL0     H79019   6.751   5.141  -0.101 -0.3243 -1.6243 -1.4865
  573MOL0     H79020   6.629   5.056  -0.176  0.7691  0.6658 -1.0489
  573MOL0     H79021   6.701   5.042   0.118  1.1350 -3.1888  0.5413
  573MOL0     H79022   6.546   4.996   0.083  1.3459  0.3618  3.7249
  573MOL0     H79023   6.668   4.762   0.194 -2.7512  2.1842 -1.3776
  573MOL0     H79024   6.890   4.500  -0.010 -0.9688  1.9603 -1.7462
  573MOL0     H79025   6.807   4.499   0.133  1.4553 -0.2609  2.4559
  573MOL0     H79026   7.063   4.672   0.106  0.9643  1.2886  3.6956
  573MOL0     H79027   6.993   4.602   0.244  2.1888  2.5275 -0.0265
  573MOL0     H79028   7.165   4.438   0.198  2.4389 -0.1897 -0.9288
  573MOL0     H79029   7.031   4.363   0.129 -2.6944  0.8637  4.1331
  573MOL0     H79030   7.207   4.356  -0.046 -2.0669 -0.8247 -2.3019
  573MOL0     H79031   7.089   4.458  -0.091  2.0395 -3.0074 -1.1953
  573MOL0     H79032   7.143   4.557  -0.265  1.3835 -4.1406 -0.7355
  573MOL0     H79033   7.129   4.582  -0.486  1.5146 -2.7248  4.2413
  573MOL0     H79034   7.277   4.527  -0.577  1.4729  0.3073 -1.3684
  573MOL0     H79035   7.230   4.693  -0.582  0.4424 -1.0381 -0.0549
  573MOL0     H79036   7.822   4.591  -0.636  0.7532  1.1214  1.5865
  573MOL0     H79037   7.975   4.686  -0.830 -2.3274 -1.0584 -0.6557
  573MOL0     H79038   8.047   5.074  -1.026 -3.2424  0.1394 -0.6986
  573MOL0     H79039   8.009   5.111  -0.854 -2.1204 -0.7787 -2.4381
  573MOL0     H79040   8.208   4.981  -0.782 -1.4255 -3.3022 -0.4004
  573MOL0     H79041   8.249   4.948  -0.950  0.5439  0.3576  0.2322
  573MOL0     H79042   8.277   5.196  -0.789 -2.1458 -1.7908  0.6702
  573MOL0     H79043   8.222   5.216  -0.962 -1.1581  0.7196  0.8938
  573MOL0     H79044   8.400   5.061  -1.027  0.7426 -3.4074  1.4318
  573MOL0     H79045   8.459   5.063  -0.863 -0.5841  0.6985  0.5983
  573MOL0     H79046   8.440   5.325  -1.006 -1.0258 -0.4446  0.1295
  573MOL0     H79047   8.528   5.281  -0.861  0.3386  2.7728 -0.8496
  573MOL0     H79048   8.591   5.230  -1.134  2.9691  2.9085 -1.6834
  573MOL0     H79049   8.678   5.124  -1.019 -0.3268 -0.9611  0.5312
  573MOL0     H79050   8.689   5.434  -1.050 -0.6063  0.3629  2.6310
  573MOL0     H79051   8.828   5.333  -1.090  2.1488 -1.5312  1.8276
  573MOL0     H79052   8.837   5.221  -0.862  0.8462  0.5533 -0.8918
  573MOL0     H79053   8.719   5.336  -0.807  0.8805  0.0254  0.8952
  573MOL0     H79054   7.829   5.067  -0.771 -0.4770  0.2691  0.5944
  573MOL0     H79055   7.685   4.996  -0.591  0.0299  0.4271 -1.2227
  573MOL0     H79056   7.620   4.675  -0.263  0.3886 -1.3296 -1.9625
  573MOL0     H79057   7.509   4.631  -0.062 -0.1488 -0.6925  0.6095
  573MOL0     H79058   5.850   5.171   0.122  0.1884 -0.5913  1.1117
  573MOL0     H79059   5.947   5.053   0.337 -0.4713  0.8286  2.7481
  573MOL0     H79060   6.275   5.042   0.633  1.1119 -2.1116  0.1774
  573MOL0     H79061   6.388   4.899   0.798 -0.3240 -0.0038  0.3183
  573MOL0     H79062   6.344   4.748   1.191 -1.8751  1.5216  1.8020
  573MOL0     H79063   6.192   4.827   1.160 -0.5963 -0.6323  0.1500
  573MOL0     H79064   6.260   4.533   1.072 -0.1298  1.9298 -2.4604
  573MOL0     H79065   6.123   4.602   1.040 -0.2271 -2.3822  0.9104
  573MOL0     H79066   6.223   4.589   1.333 -0.0195 -0.5688 -0.4801
  573MOL0     H79067   6.050   4.594   1.287 -0.3773 -1.3801  1.6100
  573MOL0     H79068   6.251   4.368   1.262  0.3984 -0.0210  0.9278
  573MOL0     H79069   6.089   4.368   1.187 -0.8426  2.2491 -0.1612
  573MOL0     H79070   5.992   4.325   1.615 -1.3089 -0.6663 -0.9339
  573MOL0     H79071   6.017   4.843   0.999 -1.3114  1.2609 -0.4694
  573MOL0     H79072   5.830   4.924   0.940  1.1241 -3.4914 -0.4452
  573MOL0     H79073   5.810   5.045   0.826  0.1180 -0.3708  1.3348
  573MOL0     H79074   5.818   4.875   0.771  1.9716 -0.4533 -0.6166
  574MOL0     O79075  10.829   8.325   7.249  0.2073  0.4874 -0.3867
  574MOL0     C79076  10.889   8.255   7.169  0.1144  0.1594  0.6274
  574MOL0     O79077  10.936   8.125   7.185  0.0702  0.3449 -0.1793
  574MOL0     C79078  10.903   8.059   7.299 -0.1591  0.1313  0.5289
  574MOL0     C79079  10.825   7.939   7.296 -0.2813  0.0031  0.8702
  574MOL0     C79080  10.799   7.872   7.406 -0.8825 -0.0368 -0.2949
  574MOL0     C79081  10.858   7.899   7.527 -0.4689  0.4454 -0.3403
  574MOL0     O79082  10.814   7.806   7.613  0.1677  0.9451 -0.8271
  574MOL0     C79083  10.902   7.694   7.652 -0.1138  0.0292  0.3436
  574MOL0     C79084  10.948   7.598   7.541 -0.5433  0.1532  0.3666
  574MOL0     C79085  11.070   7.509   7.567  0.1588  0.1787  0.4711
  574MOL0     C79086  11.021   7.412   7.684  0.3113 -0.0641 -1.3505
  574MOL0     C79087  11.127   7.309   7.727 -0.0600 -0.2544  1.1991
  574MOL0     C79088  11.232   7.360   7.814 -0.1042  0.0027  0.3251
  574MOL0     C79089  11.355   7.257   7.826  0.2552  0.3020 -0.9135
  574MOL0     C79090  11.298   7.126   7.895 -1.6807  0.4302  0.9069
  574MOL0     N79091  11.389   7.073   8.000 -0.1496 -0.1094  0.3553
  574MOL0     C79092  11.523   7.070   7.993  0.9836  0.6591 -0.2073
  574MOL0     C79093  11.555   7.002   8.104 -0.1297 -0.3968 -0.1087
  574MOL0     C79094  11.701   6.966   8.141  0.4483 -0.6500 -0.9720
  574MOL0     C79095  11.746   7.068   8.252 -0.6650  0.2776 -1.0523
  574MOL0     C79096  11.821   6.996   8.365  0.0352 -0.2635  0.2393
  574MOL0     C79097  11.836   7.072   8.498  0.3263  0.8104  0.0032
  574MOL0     O79098  11.923   7.019   8.598  0.8411  0.8121  0.2031
  574MOL0     C79099  12.032   6.957   8.553  0.1699  0.5620 -0.0335
  574MOL0     C79100  12.052   6.820   8.584 -0.2050 -0.1048 -0.2733
  574MOL0     C79101  12.170   6.745   8.555 -0.0261  1.2117 -0.3297
  574MOL0     C79102  12.192   6.597   8.594 -0.3288  0.9092  0.2123
  574MOL0     C79103  12.277   6.815   8.494 -0.4110 -0.1245  0.4580
  574MOL0     C79104  12.411   6.774   8.458 -0.5948  0.3799  0.1891
  574MOL0     O79105  12.517   6.861   8.486  0.4985  0.8467  1.2286
  574MOL0     C79106  12.650   6.821   8.463 -0.0252 -0.4489 -0.1616
  574MOL0     C79107  12.715   6.832   8.340 -0.0710  0.3736 -0.8856
  574MOL0     C79108  12.844   6.785   8.326 -0.0423 -0.6680  0.0296
  574MOL0     C79109  12.914   6.734   8.430 -1.0145  0.4106 -0.5676
  574MOL0     O79110  13.036   6.669   8.390  0.6593 -0.3869  0.2487
  574MOL0     C79111  13.161   6.681   8.462 -0.2861  0.2643  0.5048
  574MOL0     C79112  13.268   6.591   8.403  1.2934  0.0787  0.2672
  574MOL0     C79113  13.220   6.446   8.381 -1.0005  0.1579 -1.0066
  574MOL0     C79114  13.335   6.347   8.382 -1.0287  0.4423 -0.2864
  574MOL0     C79115  13.311   6.196   8.379  0.1367 -0.5368  0.7716
  574MOL0     C79116  13.431   6.098   8.356  0.2318 -0.1817 -0.0596
  574MOL0     C79117  13.413   5.969   8.440 -0.3965  0.1077  0.3699
  574MOL0     C79118  13.434   5.996   8.593 -1.0989  0.0381  0.0431
  574MOL0    Cl79119  13.391   5.858   8.684 -0.1529  0.0052 -0.3580
  574MOL0     C79120  12.851   6.722   8.555  0.3876  0.3718 -1.2407
  574MOL0     C79121  12.724   6.776   8.571  0.3428  0.0896 -0.8302
  574MOL0     O79122  12.428   6.662   8.410  0.1040  0.0066 -0.0369
  574MOL0     C79123  12.254   6.948   8.461 -0.2569 -0.5034 -0.1677
  574MOL0     C79124  12.132   7.011   8.481  0.1123 -0.2900  0.3334
  574MOL0     N79125  11.439   6.962   8.170 -0.0148 -1.0571 -0.1445
  574MOL0     N79126  11.336   7.005   8.106 -0.2003  0.6325  0.1455
  574MOL0     C79127  10.936   8.010   7.548 -0.0525 -0.4271  0.3995
  574MOL0     C79128  10.960   8.082   7.428 -0.7941 -0.4794 -0.3542
  574MOL0     C79129  10.942   8.332   7.045 -0.4276  0.5111 -1.3297
  574MOL0     C79130  10.856   8.340   6.943 -0.5654 -0.0503  0.8484
  574MOL0     C79131  10.898   8.400   6.825  0.7806 -0.0601 -0.3332
  574MOL0     C79132  11.022   8.451   6.805 -0.3018 -0.6734  0.6667
  574MOL0     O79133  11.064   8.499   6.681 -0.0541 -0.6123  0.9242
  574MOL0     C79134  11.019   8.415   6.561 -0.4011 -0.5471 -0.2996
  574MOL0     C79135  11.089   8.277   6.555 -1.1313  0.6434  0.0286
  574MOL0     C79136  11.230   8.309   6.504 -0.2280 -0.2376  0.1825
  574MOL0     C79137  11.321   8.183   6.488 -0.5220  0.5881  1.0687
  574MOL0     C79138  11.348   8.100   6.608 -0.1106  0.5398 -0.4143
  574MOL0     C79139  11.382   8.027   6.692  0.4153  0.1749 -0.0493
  574MOL0     C79140  11.113   8.429   6.907 -0.0379  0.6435  0.1430
  574MOL0     C79141  11.079   8.367   7.030  0.2405 -0.4478  0.0671
  574MOL0     C79142  11.182   8.338   7.141  0.4318  1.1032  0.1970
  574MOL0     H79143  10.779   7.911   7.202 -0.8386  1.9258  0.5079
  574MOL0     H79144  10.728   7.790   7.401 -1.7170  0.6174  0.4190
  574MOL0     H79145  10.853   7.640   7.734 -2.3677  2.5813  0.8288
  574MOL0     H79146  10.997   7.739   7.680  0.5330 -1.5499  0.8201
  574MOL0     H79147  10.861   7.538   7.512 -0.3956 -0.0317  0.2981
  574MOL0     H79148  10.952   7.656   7.448 -3.8887  1.3390  0.8186
  574MOL0     H79149  11.103   7.444   7.486  0.5310 -0.3702  1.0602
  574MOL0     H79150  11.153   7.571   7.602  0.5587 -1.9646  3.6894
  574MOL0     H79151  10.992   7.461   7.778 -0.0402 -3.6123  0.5523
  574MOL0     H79152  10.927   7.360   7.661  0.8711 -1.2292 -1.0483
  574MOL0     H79153  11.180   7.252   7.650  1.3840  0.8168  1.3511
  574MOL0     H79154  11.074   7.233   7.784  0.7187 -2.5699 -0.9778
  574MOL0     H79155  11.264   7.451   7.763 -0.6005 -0.8619 -1.5914
  574MOL0     H79156  11.187   7.374   7.913 -2.2075 -0.4619 -0.5248
  574MOL0     H79157  11.425   7.300   7.899  0.4475 -0.9115 -0.3566
  574MOL0     H79158  11.411   7.247   7.733 -0.6251  0.6334 -1.4902
  574MOL0     H79159  11.197   7.137   7.935 -0.9861  0.8446  2.6205
  574MOL0     H79160  11.292   7.046   7.821  0.5338  0.8334  0.2280
  574MOL0     H79161  11.582   7.113   7.913 -0.2164 -2.2978 -2.8993
  574MOL0     H79162  11.769   6.967   8.055  2.4535 -2.8316  0.4384
  574MOL0     H79163  11.704   6.863   8.177  1.1118 -0.3850 -0.2330
  574MOL0     H79164  11.812   7.138   8.201 -1.5892  0.7527 -1.6280
  574MOL0     H79165  11.671   7.132   8.300 -1.6387  0.4592 -2.7487
  574MOL0     H79166  11.788   6.896   8.397  1.1079  0.3545  3.7060
  574MOL0     H79167  11.928   6.990   8.343  0.3906  0.1843  1.7144
  574MOL0     H79168  11.878   7.169   8.473  0.6779  0.8795  0.8278
  574MOL0     H79169  11.731   7.082   8.529  0.0607 -1.2276 -0.0754
  574MOL0     H79170  11.982   6.779   8.656  1.2468  0.1964  1.3863
  574MOL0     H79171  12.153   6.564   8.691 -0.1795 -0.4013 -0.1609
  574MOL0     H79172  12.298   6.572   8.592 -0.1913 -1.1249  6.8399
  574MOL0     H79173  12.158   6.524   8.520 -1.0197 -0.4703  1.8087
  574MOL0     H79174  12.657   6.871   8.257  1.2032 -0.1523 -2.0523
  574MOL0     H79175  12.883   6.796   8.225 -0.6357  2.0329  0.0261
  574MOL0     H79176  13.198   6.779   8.429  1.8425 -1.0500 -1.3642
  574MOL0     H79177  13.157   6.663   8.569  1.8393 -1.9826  0.2911
  574MOL0     H79178  13.282   6.631   8.302 -1.3606 -0.8451 -0.5746
  574MOL0     H79179  13.362   6.606   8.457  1.1582  2.9300 -0.1481
  574MOL0     H79180  13.177   6.430   8.282 -0.4175  0.1603 -1.2648
  574MOL0     H79181  13.138   6.415   8.446  0.7237 -0.9874  0.7293
  574MOL0     H79182  13.401   6.356   8.468  1.5463 -3.8202 -1.5115
  574MOL0     H79183  13.395   6.373   8.294 -0.2730 -2.2247 -0.6744
  574MOL0     H79184  13.271   6.171   8.477  1.0981  0.6057  1.4975
  574MOL0     H79185  13.237   6.169   8.304 -1.7618 -1.6284  2.9437
  574MOL0     H79186  13.525   6.145   8.389  1.0915 -1.6421 -0.3152
  574MOL0     H79187  13.447   6.064   8.253 -2.5095  0.0054 -0.6124
  574MOL0     H79188  13.497   5.901   8.421  0.5704  0.3902  3.1972
  574MOL0     H79189  13.313   5.932   8.415 -0.8761 -0.2803  2.6722
  574MOL0     H79190  13.379   6.088   8.619  0.7130  1.8678 -2.2261
  574MOL0     H79191  13.540   6.014   8.611 -1.0682  1.6878 -1.4985
  574MOL0     H79192  12.898   6.674   8.641 -0.5579  1.4114 -0.1052
  574MOL0     H79193  12.684   6.773   8.672  0.7879 -2.0730 -0.6633
  574MOL0     H79194  12.327   7.004   8.403 -2.5459  2.4702 -0.4026
  574MOL0     H79195  12.123   7.114   8.447 -0.9958 -0.3308  0.4604
  574MOL0     H79196  10.984   8.040   7.640  0.3156 -1.0618  0.4213
  574MOL0     H79197  11.024   8.169   7.418 -3.5174  1.6634 -0.3581
  574MOL0     H79198  10.749   8.321   6.943 -0.8357  1.0080  3.8380
  574MOL0     H79199  10.821   8.394   6.749  0.7992 -0.5708 -0.3161
  574MOL0     H79200  10.911   8.404   6.572 -0.3920  0.6464  1.3435
  574MOL0     H79201  11.030   8.465   6.465 -3.5890  0.9143 -0.0148
  574MOL0     H79202  11.041   8.208   6.485 -0.1975  1.0293 -1.0135
  574MOL0     H79203  11.088   8.232   6.655 -0.2498  0.9944  0.2035
  574MOL0     H79204  11.228   8.348   6.402 -0.4993 -2.1615 -0.6012
  574MOL0     H79205  11.271   8.389   6.566  0.4394 -0.8218  0.5088
  574MOL0     H79206  11.416   8.213   6.443 -1.3408 -0.1379 -1.3090
  574MOL0     H79207  11.277   8.117   6.412  0.4860  2.4116 -1.2245
  574MOL0     H79208  11.408   7.961   6.772  1.0755  1.0329  0.4611
  574MOL0     H79209  11.215   8.447   6.875 -0.3800  0.7418 -0.9152
  574MOL0     H79210  11.157   8.398   7.229  2.5969  1.8896  0.3439
  574MOL0     H79211  11.177   8.234   7.175 -1.5660  0.9092 -0.5786
  574MOL0     H79212  11.285   8.357   7.110  0.7716  0.7542  1.0849
  575MOL0     O79213   1.671   5.576   8.993 -0.0790  0.1718 -0.6646
  575MOL0     C79214   1.772   5.578   8.919  0.2157  0.1865  0.4184
  575MOL0     O79215   1.797   5.473   8.836 -0.3432 -0.3185 -0.7525
  575MOL0     C79216   1.684   5.414   8.787  0.0681  0.4139  0.7660
  575MOL0     C79217   1.581   5.484   8.718  0.0774 -0.1124 -0.1891
  575MOL0     C79218   1.462   5.409   8.693 -0.0123 -0.6708 -1.0607
  575MOL0     C79219   1.447   5.273   8.734 -1.6189 -0.6716  0.4547
  575MOL0     O79220   1.328   5.211   8.736 -1.2589  0.8146  0.0488
  575MOL0     C79221   1.229   5.263   8.822  0.0815 -0.0006  0.0102
  575MOL0     C79222   1.100   5.189   8.794 -0.2745 -0.9196 -0.9858
  575MOL0     C79223   1.114   5.041   8.821  0.1537  0.2724  0.0587
  575MOL0     C79224   0.982   4.971   8.824  0.1542 -0.1271 -0.4360
  575MOL0     C79225   0.985   4.835   8.890 -0.1530  0.5517  0.6663
  575MOL0     C79226   0.983   4.709   8.796  0.7531  0.2332 -0.3157
  575MOL0     C79227   1.102   4.705   8.707 -0.5730  0.3669 -0.2194
  575MOL0     C79228   1.230   4.648   8.772 -0.8003 -0.6012 -0.0192
  575MOL0     N79229   1.295   4.554   8.681  0.2563  1.0204 -0.0839
  575MOL0     C79230   1.426   4.565   8.634  0.1209 -0.4596  0.0074
  575MOL0     C79231   1.450   4.439   8.585 -0.9141 -0.7545 -0.1199
  575MOL0     C79232   1.572   4.402   8.507 -0.6263  0.9192 -0.7816
  575MOL0     C79233   1.662   4.320   8.604 -0.4516  0.2198  0.4449
  575MOL0     C79234   1.790   4.259   8.526  0.4205  0.7752 -0.9088
  575MOL0     C79235   1.882   4.202   8.621  0.2757  0.3419  0.1613
  575MOL0     O79236   1.941   4.302   8.704  0.4106  0.0275  0.3237
  575MOL0     C79237   2.016   4.271   8.814  0.0616  0.6971 -0.0182
  575MOL0     C79238   2.066   4.379   8.886  0.4966 -0.0342  0.6315
  575MOL0     C79239   2.140   4.375   9.007 -0.2937 -0.0096 -0.2046
  575MOL0     C79240   2.191   4.502   9.072  0.8011  0.1008 -0.1564
  575MOL0     C79241   2.151   4.242   9.065 -0.0749 -0.1455 -0.5253
  575MOL0     C79242   2.231   4.212   9.189 -0.0181 -0.3621  0.1346
  575MOL0     O79243   2.192   4.108   9.263  0.1376 -0.1389  0.4804
  575MOL0     C79244   2.260   4.070   9.373  0.2481 -0.7028  0.0459
  575MOL0     C79245   2.189   4.032   9.484 -0.5419  0.0236  0.0696
  575MOL0     C79246   2.252   3.986   9.595  0.8120  1.0220 -0.3883
  575MOL0     C79247   2.386   3.967   9.604 -0.1524 -0.8612 -0.3932
  575MOL0     O79248   2.442   3.920   9.718 -0.2074  0.0229  0.3216
  575MOL0     C79249   2.428   4.012   9.836 -0.1646  0.6010  0.9469
  575MOL0     C79250   2.556   4.066   9.883  0.0972  0.2717  0.7989
  575MOL0     C79251   2.645   4.150   9.781  0.0913 -0.0059  0.3059
  575MOL0     C79252   2.755   4.227   9.841 -0.1904  0.4434 -0.0891
  575MOL0     C79253   2.830   4.316   9.741  0.8161  0.0124 -0.1215
  575MOL0     C79254   2.743   4.440   9.711  0.3768 -0.0100  0.0387
  575MOL0     C79255   2.815   4.529   9.615 -0.3993  0.1242 -0.0836
  575MOL0     C79256   2.751   4.675   9.612 -0.7493  0.8327  0.0622
  575MOL0    Cl79257   2.834   4.752   9.476 -0.4697  0.3544 -0.1631
  575MOL0     C79258   2.462   3.996   9.489  0.2103  0.1057 -1.0138
  575MOL0     C79259   2.398   4.042   9.374 -0.8948  0.5960  0.1083
  575MOL0     O79260   2.328   4.284   9.212 -0.2457  0.0679  0.2265
  575MOL0     C79261   2.096   4.133   8.992 -0.0881  0.3375  0.7429
  575MOL0     C79262   2.039   4.143   8.867  0.5591 -0.3000  0.4201
  575MOL0     N79263   1.340   4.357   8.602 -0.2193  0.4126 -0.4308
  575MOL0     N79264   1.248   4.426   8.654 -0.6514 -0.2050 -0.3904
  575MOL0     C79265   1.559   5.210   8.798 -0.1818 -0.8651 -0.9989
  575MOL0     C79266   1.675   5.280   8.825  0.9686  0.0868 -0.1988
  575MOL0     C79267   1.890   5.665   8.941 -0.5966 -1.0446 -0.1777
  575MOL0     C79268   1.989   5.659   8.840 -0.3278  0.5032 -0.1548
  575MOL0     C79269   2.113   5.723   8.854  0.7623  0.8925 -0.5173
  575MOL0     C79270   2.140   5.788   8.966  1.1695 -0.1339  0.3965
  575MOL0     O79271   2.271   5.831   8.964  0.6177  0.5048  0.3521
  575MOL0     C79272   2.324   5.859   9.090 -0.0788 -0.2765 -0.8906
  575MOL0     C79273   2.474   5.828   9.084  0.5373 -0.1701  0.4820
  575MOL0     C79274   2.494   5.679   9.062  0.2665 -0.9981  0.0966
  575MOL0     C79275   2.641   5.652   9.079  0.2703 -0.6370  1.1056
  575MOL0     C79276   2.645   5.497   9.075  0.9975 -0.7406 -0.0972
  575MOL0     C79277   2.652   5.380   9.101  0.4305 -0.7524 -1.5478
  575MOL0     C79278   2.049   5.790   9.067 -0.3921  0.5133  0.4640
  575MOL0     C79279   1.920   5.738   9.060 -0.2338  0.6556  0.8766
  575MOL0     C79280   1.825   5.771   9.170  0.6537  0.1109 -0.2622
  575MOL0     H79281   1.594   5.591   8.705  2.0388 -0.4116 -1.1335
  575MOL0     H79282   1.374   5.455   8.649 -1.1738  0.9457  2.5939
  575MOL0     H79283   1.220   5.371   8.813  1.8876  0.4333  2.2798
  575MOL0     H79284   1.254   5.247   8.928 -2.3391 -0.3381  0.5881
  575MOL0     H79285   1.026   5.234   8.861 -1.1808 -2.3075 -1.0159
  575MOL0     H79286   1.067   5.206   8.692  0.8639  5.0849 -0.6871
  575MOL0     H79287   1.166   4.999   8.734 -3.4346 -1.5510 -1.3924
  575MOL0     H79288   1.177   5.023   8.908  0.6424  0.9796 -0.1386
  575MOL0     H79289   0.906   5.032   8.874 -0.5772 -0.5149 -1.0570
  575MOL0     H79290   0.961   4.960   8.718  1.4993 -4.1801 -0.4238
  575MOL0     H79291   0.898   4.839   8.956 -0.9048  1.6815 -0.3580
  575MOL0     H79292   1.075   4.835   8.953  1.0180  3.1228 -0.8741
  575MOL0     H79293   0.962   4.614   8.846 -1.6753 -1.1970 -3.6473
  575MOL0     H79294   0.888   4.713   8.743 -1.2324  2.3013  2.9814
  575MOL0     H79295   1.119   4.802   8.660 -2.5335  0.6317 -0.4681
  575MOL0     H79296   1.069   4.643   8.623  0.0910 -1.4301  0.7983
  575MOL0     H79297   1.304   4.727   8.788  0.6326 -1.7659 -0.5273
  575MOL0     H79298   1.211   4.597   8.867 -5.2735  0.0237 -0.3978
  575MOL0     H79299   1.492   4.650   8.642  1.8943 -1.9779  3.1685
  575MOL0     H79300   1.632   4.486   8.473  2.5704 -0.2645  1.4666
  575MOL0     H79301   1.547   4.322   8.436 -3.1463 -1.1920  2.1958
  575MOL0     H79302   1.710   4.376   8.684  2.3623  0.2232 -1.0963
  575MOL0     H79303   1.600   4.240   8.645  4.0577 -3.8537  0.2151
  575MOL0     H79304   1.750   4.185   8.456  0.5646 -0.6645  0.4779
  575MOL0     H79305   1.837   4.344   8.476  1.9774  0.7932  0.5102
  575MOL0     H79306   1.809   4.147   8.682  2.9718 -2.9117  0.7503
  575MOL0     H79307   1.957   4.143   8.567 -0.0092  0.5410 -0.4641
  575MOL0     H79308   2.057   4.475   8.835  0.6060 -0.1879  0.3218
  575MOL0     H79309   2.154   4.590   9.019  0.8849 -0.1822 -0.6920
  575MOL0     H79310   2.301   4.507   9.072  0.8913 -0.7827  2.1185
  575MOL0     H79311   2.171   4.502   9.180  1.6076 -1.3515  0.0194
  575MOL0     H79312   2.081   4.024   9.482 -0.4788 -0.7319 -0.7052
  575MOL0     H79313   2.186   3.957   9.676  0.3639 -1.8154 -1.6627
  575MOL0     H79314   2.369   4.099   9.807  0.4325 -0.2593 -3.5629
  575MOL0     H79315   2.384   3.956   9.919 -0.9684 -0.7853 -0.3575
  575MOL0     H79316   2.550   4.121   9.977  3.6216 -0.2584  1.4766
  575MOL0     H79317   2.614   3.982   9.920 -1.7467 -1.6118 -0.3819
  575MOL0     H79318   2.571   4.214   9.731 -0.8832 -1.7940 -0.6276
  575MOL0     H79319   2.678   4.085   9.699  0.6610 -0.2612  0.7264
  575MOL0     H79320   2.823   4.155   9.887  0.3044  0.9563 -0.0088
  575MOL0     H79321   2.719   4.294   9.919  1.5300 -0.1942  1.3130
  575MOL0     H79322   2.922   4.349   9.789 -1.0816 -0.5366  4.3409
  575MOL0     H79323   2.864   4.268   9.648  3.8653 -3.5894  2.5428
  575MOL0     H79324   2.713   4.495   9.801 -0.4333  1.5582 -1.1607
  575MOL0     H79325   2.650   4.404   9.668 -0.4755 -1.3960  2.7737
  575MOL0     H79326   2.810   4.485   9.515 -1.4391  0.1501 -0.0506
  575MOL0     H79327   2.920   4.531   9.645  0.2948  0.8615 -2.3539
  575MOL0     H79328   2.773   4.723   9.708  2.7838  0.0140 -0.1912
  575MOL0     H79329   2.646   4.676   9.581 -0.8702 -1.2682  0.3180
  575MOL0     H79330   2.570   3.987   9.493  0.2155  0.5120  0.0599
  575MOL0     H79331   2.466   4.062   9.292 -0.8728 -0.9084 -0.2784
  575MOL0     H79332   2.103   4.035   9.037 -3.2686 -0.1062  0.5026
  575MOL0     H79333   2.008   4.051   8.819  1.7461 -0.1018 -0.7983
  575MOL0     H79334   1.554   5.106   8.828 -0.0655 -0.9519 -1.2750
  575MOL0     H79335   1.755   5.234   8.883  0.7299  0.3128  0.3160
  575MOL0     H79336   1.979   5.597   8.752 -4.0214 -0.7942  1.0097
  575MOL0     H79337   2.187   5.730   8.775 -3.1685  2.1972 -4.5343
  575MOL0     H79338   2.295   5.960   9.121  1.0314 -0.5591  1.1994
  575MOL0     H79339   2.286   5.796   9.171 -0.0348 -2.3839 -2.4078
  575MOL0     H79340   2.516   5.849   9.182  0.5230  1.1225  0.2308
  575MOL0     H79341   2.526   5.894   9.014 -0.3159 -0.0261 -0.0410
  575MOL0     H79342   2.436   5.611   9.125  2.2135 -0.9399  2.0851
  575MOL0     H79343   2.462   5.648   8.962  0.6976 -1.6672  0.1566
  575MOL0     H79344   2.685   5.684   9.174  1.0978  0.3310  0.4065
  575MOL0     H79345   2.715   5.691   9.009 -0.6249  3.6772  2.3039
  575MOL0     H79346   2.669   5.277   9.127  1.1750 -0.7170 -1.8575
  575MOL0     H79347   2.069   5.839   9.162  0.4364  0.7879  0.1636
  575MOL0     H79348   1.866   5.820   9.259  0.5724 -1.4765  0.6910
  575MOL0     H79349   1.756   5.836   9.115  2.3695  1.2678 -1.1299
  575MOL0     H79350   1.781   5.675   9.196  1.8323 -0.8428 -1.6607
  576MOL0     O79351  11.547  11.006   7.462 -0.7991 -0.3073  0.5188
  576MOL0     C79352  11.662  11.049   7.438  0.2747  0.6485  1.0391
  576MOL0     O79353  11.773  11.042   7.524 -1.0933 -0.1132  0.3409
  576MOL0     C79354  11.761  10.990   7.652  0.8700  1.0656  0.9506
  576MOL0     C79355  11.832  11.069   7.737 -0.0501  0.0129 -0.4214
  576MOL0     C79356  11.827  11.043   7.871 -0.0499  0.2621  0.1891
  576MOL0     C79357  11.749  10.942   7.920 -0.6327 -0.5465 -1.0820
  576MOL0     O79358  11.747  10.949   8.057 -0.4556  0.3067 -0.5807
  576MOL0     C79359  11.666  10.865   8.135 -0.0921  0.0054 -0.4100
  576MOL0     C79360  11.716  10.862   8.279 -0.1096 -1.0091 -0.7725
  576MOL0     C79361  11.858  10.824   8.277 -0.0198 -0.0063 -0.6407
  576MOL0     C79362  11.917  10.754   8.403 -0.6230  0.5901  0.9127
  576MOL0     C79363  12.068  10.749   8.394  1.2666 -0.0723 -0.6353
  576MOL0     C79364  12.136  10.674   8.503  0.2591  0.0357 -0.3846
  576MOL0     C79365  12.116  10.743   8.641  0.3043 -0.0010 -0.0365
  576MOL0     C79366  12.200  10.663   8.739 -0.2743 -0.4666 -0.1235
  576MOL0     N79367  12.162  10.688   8.882 -0.1726 -0.1766  0.3166
  576MOL0     C79368  12.162  10.601   8.981  0.4819 -0.3333 -0.1933
  576MOL0     C79369  12.121  10.676   9.086 -0.1088  0.1143  0.4467
  576MOL0     C79370  12.090  10.613   9.224 -0.4499 -0.1045 -0.1003
  576MOL0     C79371  12.218  10.565   9.310 -0.0077 -0.9968 -0.5886
  576MOL0     C79372  12.310  10.688   9.334  0.7269  1.0482 -0.3405
  576MOL0     C79373  12.455  10.675   9.353  0.9177  0.2019  0.7917
  576MOL0     O79374  12.509  10.796   9.419 -0.2024  0.3435 -0.2387
  576MOL0     C79375  12.645  10.776   9.436 -0.2006  0.7712  0.4450
  576MOL0     C79376  12.725  10.653   9.448  0.4491  0.4474 -0.2807
  576MOL0     C79377  12.865  10.661   9.454 -0.4827  0.6307  0.2746
  576MOL0     C79378  12.942  10.535   9.451  0.0582  0.7637  0.1724
  576MOL0     C79379  12.928  10.792   9.454 -0.0608  0.7055 -0.0470
  576MOL0     C79380  13.073  10.822   9.437 -0.2333  0.7404  0.1926
  576MOL0     O79381  13.116  10.949   9.440 -0.1008  0.0365  0.6251
  576MOL0     C79382  13.244  10.988   9.458  0.5550  0.4768  0.1061
  576MOL0     C79383  13.255  11.123   9.485 -0.6399 -0.8825  0.9241
  576MOL0     C79384  13.377  11.184   9.512  0.2851 -0.4456  0.2045
  576MOL0     C79385  13.490  11.114   9.532 -0.4914  0.4372  0.1544
  576MOL0     O79386  13.600  11.185   9.564  0.2110  0.7590 -0.0023
  576MOL0     C79387  13.672  11.257   9.458 -0.6171 -0.1789 -0.7240
  576MOL0     C79388  13.797  11.331   9.506 -0.1689  0.4693 -0.0751
  576MOL0     C79389  13.917  11.234   9.533 -0.0798 -0.3546  0.2158
  576MOL0     C79390  13.948  11.138   9.414 -0.0820 -0.0505 -0.3652
  576MOL0     C79391  14.090  11.080   9.432 -0.3135 -0.1518 -1.7072
  576MOL0     C79392  14.131  11.016   9.292  1.0964 -0.0506 -0.8616
  576MOL0     C79393  14.282  11.004   9.283  0.0845 -0.4002 -0.3051
  576MOL0     C79394  14.309  10.942   9.149  0.6657 -0.6659  0.7752
  576MOL0    Cl79395  14.479  10.880   9.148 -0.1874 -0.1131  0.6643
  576MOL0     C79396  13.476  10.969   9.518 -0.6690 -0.3032  0.2510
  576MOL0     C79397  13.361  10.901   9.483  0.0769 -1.3387 -0.1598
  576MOL0     O79398  13.146  10.723   9.442  0.5035 -0.2738 -0.0776
  576MOL0     C79399  12.853  10.906   9.452  0.2901 -0.1276 -0.2671
  576MOL0     C79400  12.715  10.899   9.436  0.4728  0.3796 -1.1606
  576MOL0     N79401  12.112  10.814   9.047  0.2425  0.7105 -0.6980
  576MOL0     N79402  12.129  10.809   8.919 -0.2786 -1.9247 -0.4579
  576MOL0     C79403  11.665  10.866   7.838 -0.1915 -0.3910  0.4297
  576MOL0     C79404  11.670  10.891   7.701 -0.6995  0.3439  0.3629
  576MOL0     C79405  11.688  11.122   7.311 -0.3879  0.6893 -0.0971
  576MOL0     C79406  11.802  11.204   7.307 -0.1397  0.0850 -0.5469
  576MOL0     C79407  11.827  11.286   7.198  0.2720  0.0226  0.1228
  576MOL0     C79408  11.760  11.266   7.078  0.1190  0.7822  0.1001
  576MOL0     O79409  11.801  11.330   6.961 -0.4751  0.1530 -0.6375
  576MOL0     C79410  11.757  11.460   6.931 -1.2321  0.0779 -0.5822
  576MOL0     C79411  11.728  11.460   6.787  0.4028 -0.8605  0.6820
  576MOL0     C79412  11.754  11.600   6.726  0.4683 -0.0409 -0.2128
  576MOL0     C79413  11.673  11.612   6.601  0.2650 -0.4892 -0.2261
  576MOL0     C79414  11.694  11.744   6.554 -0.2982  0.3075  0.5559
  576MOL0     C79415  11.696  11.858   6.508  1.3970  0.6666 -0.1895
  576MOL0     C79416  11.645  11.182   7.072  0.2329  0.5768  0.4473
  576MOL0     C79417  11.597  11.108   7.188  0.4108  0.3327  0.0478
  576MOL0     C79418  11.478  11.021   7.189 -0.0407  0.7865  0.6912
  576MOL0     H79419  11.911  11.136   7.704  0.1518  1.5353  2.7557
  576MOL0     H79420  11.896  11.104   7.928  1.5763 -0.8184 -0.5257
  576MOL0     H79421  11.673  10.763   8.096 -0.9536 -0.1473 -0.1956
  576MOL0     H79422  11.565  10.908   8.132  0.7257  1.9800 -1.5227
  576MOL0     H79423  11.708  10.954   8.338  3.8612 -0.7821 -0.3198
  576MOL0     H79424  11.661  10.784   8.332 -0.6729 -1.9221 -2.6042
  576MOL0     H79425  11.887  10.757   8.196 -1.4765  0.5686 -1.6719
  576MOL0     H79426  11.916  10.915   8.259 -0.7880  0.5733 -0.2228
  576MOL0     H79427  11.893  10.806   8.496 -2.5838  0.4637  0.5314
  576MOL0     H79428  11.883  10.651   8.416  0.0103 -0.2098 -2.7370
  576MOL0     H79429  12.089  10.856   8.402 -1.7947  0.4713  2.9941
  576MOL0     H79430  12.093  10.715   8.293 -4.1189 -0.7153 -2.0933
  576MOL0     H79431  12.095  10.572   8.505 -0.7031  0.4120  0.9678
  576MOL0     H79432  12.243  10.663   8.484 -0.3241 -0.9476 -3.6665
  576MOL0     H79433  12.016  10.739   8.683  0.7363  1.5757  1.2613
  576MOL0     H79434  12.151  10.846   8.651 -2.5898  1.0048  0.6509
  576MOL0     H79435  12.196  10.559   8.708 -0.5977 -0.1721 -1.0960
  576MOL0     H79436  12.300  10.707   8.730 -0.5865  0.4160  0.5574
  576MOL0     H79437  12.176  10.494   8.967  5.3241  0.2322 -1.4824
  576MOL0     H79438  12.025  10.527   9.207  1.7647 -1.6642 -1.3748
  576MOL0     H79439  12.040  10.696   9.274  0.8232  2.2545 -2.4560
  576MOL0     H79440  12.186  10.517   9.403 -1.2245  3.4447  1.5507
  576MOL0     H79441  12.282  10.496   9.255  0.7598  0.3125 -1.3982
  576MOL0     H79442  12.288  10.754   9.250  1.8762 -2.1815 -3.4516
  576MOL0     H79443  12.275  10.743   9.422 -0.0840  1.4878 -0.9163
  576MOL0     H79444  12.468  10.583   9.410  1.0938 -1.2229 -1.4246
  576MOL0     H79445  12.478  10.663   9.247 -0.4044 -3.5374  0.7667
  576MOL0     H79446  12.673  10.559   9.463 -2.2817  1.8310 -0.4170
  576MOL0     H79447  13.000  10.521   9.542 -0.0134 -1.2019 -0.0555
  576MOL0     H79448  13.010  10.532   9.365 -0.2188 -0.5711 -0.0117
  576MOL0     H79449  12.877  10.448   9.455 -0.5007  1.2188  1.5448
  576MOL0     H79450  13.167  11.184   9.474  1.3230  2.7712  3.3943
  576MOL0     H79451  13.375  11.288   9.543  3.4194 -0.6419  1.5174
  576MOL0     H79452  13.693  11.195   9.370 -0.7506  0.9371 -1.5593
  576MOL0     H79453  13.611  11.343   9.429  0.7031  0.3257 -2.1629
  576MOL0     H79454  13.830  11.404   9.432  3.1083 -2.2137 -1.5447
  576MOL0     H79455  13.765  11.385   9.596 -1.7927  1.4717 -1.1976
  576MOL0     H79456  13.889  11.173   9.620 -1.7965  3.2496  2.4175
  576MOL0     H79457  14.004  11.292   9.565 -1.0213  0.2884  1.7301
  576MOL0     H79458  13.938  11.194   9.321 -1.1586  0.6187  0.1256
  576MOL0     H79459  13.889  11.048   9.394  0.5997 -0.7560  0.7239
  576MOL0     H79460  14.164  11.154   9.465 -1.1287  0.2584 -0.7601
  576MOL0     H79461  14.079  11.012   9.516 -3.6374  0.4222 -1.5768
  576MOL0     H79462  14.102  11.082   9.209 -0.6159 -0.9381 -0.9964
  576MOL0     H79463  14.084  10.918   9.281  3.0803 -1.2596  0.7048
  576MOL0     H79464  14.332  10.955   9.366  1.3906  0.5615 -0.4936
  576MOL0     H79465  14.324  11.105   9.280  1.2301 -0.8558  0.2002
  576MOL0     H79466  14.289  11.011   9.067  4.8445 -0.8247 -0.6144
  576MOL0     H79467  14.234  10.863   9.139  1.6018 -1.8305  2.3242
  576MOL0     H79468  13.562  10.908   9.547 -0.0284  0.7310  0.5872
  576MOL0     H79469  13.365  10.793   9.489 -1.5995 -1.5391 -1.5701
  576MOL0     H79470  12.894  11.006   9.452  1.1323 -0.4156 -2.5675
  576MOL0     H79471  12.661  10.992   9.418  1.9706  2.1463  2.5835
  576MOL0     H79472  11.604  10.784   7.876  2.4326 -4.7109 -3.5734
  576MOL0     H79473  11.631  10.830   7.620 -0.9166 -1.4844  1.7825
  576MOL0     H79474  11.864  11.231   7.391 -3.0834  1.9153  1.2328
  576MOL0     H79475  11.918  11.345   7.205  1.9077 -2.3594  0.0978
  576MOL0     H79476  11.685  11.504   7.001 -2.3491 -1.7612 -0.5267
  576MOL0     H79477  11.851  11.516   6.930 -0.0851 -1.7904 -0.4234
  576MOL0     H79478  11.621  11.440   6.777 -0.1661  2.1409  0.0136
  576MOL0     H79479  11.785  11.381   6.736 -0.8914 -0.7900 -0.9787
  576MOL0     H79480  11.723  11.678   6.797 -0.6418 -0.0603 -0.6595
  576MOL0     H79481  11.858  11.625   6.707  0.0664  1.0623 -1.0647
  576MOL0     H79482  11.568  11.608   6.631  0.3788  0.5327  0.3549
  576MOL0     H79483  11.696  11.540   6.522  1.7621 -4.7540  3.5712
  576MOL0     H79484  11.676  11.957   6.472 -2.8680  0.5719  1.3529
  576MOL0     H79485  11.579  11.180   6.986 -4.4281 -0.5185  3.6986
  576MOL0     H79486  11.511  10.919   7.210 -2.1196 -0.2982 -0.9931
  576MOL0     H79487  11.402  11.047   7.264 -1.2449 -2.8965  0.9561
  576MOL0     H79488  11.423  11.024   7.095 -0.8302  0.2547  1.1234
  577MOL0     O79489   8.787   3.924   8.286 -0.3332 -0.6368 -0.7824
  577MOL0     C79490   8.874   4.017   8.268  1.0727 -0.0920 -0.1024
  577MOL0     O79491   8.849   4.140   8.201 -0.2173  0.7656 -0.4598
  577MOL0     C79492   8.743   4.205   8.262  1.0318 -0.4319  0.5551
  577MOL0     C79493   8.757   4.318   8.342 -0.1424 -0.5090  0.3667
  577MOL0     C79494   8.655   4.406   8.373  0.5289  0.5402  0.3526
  577MOL0     C79495   8.526   4.376   8.342  0.0786 -0.8078  0.0813
  577MOL0     O79496   8.437   4.476   8.379 -0.1106 -0.2169  0.2440
  577MOL0     C79497   8.297   4.463   8.350  0.0744 -0.7306 -0.3897
  577MOL0     C79498   8.213   4.540   8.467  0.5806 -0.0629  0.0337
  577MOL0     C79499   8.081   4.573   8.401 -0.2891 -0.5026 -0.4833
  577MOL0     C79500   7.991   4.635   8.507 -0.3144  0.2131 -0.4732
  577MOL0     C79501   7.875   4.720   8.453 -0.8501  0.3799  0.2732
  577MOL0     C79502   7.774   4.622   8.386 -0.8806 -0.0409 -0.2799
  577MOL0     C79503   7.652   4.692   8.348 -0.5041  0.9269  0.5383
  577MOL0     C79504   7.647   4.710   8.195  0.3399 -0.3113  0.3586
  577MOL0     N79505   7.742   4.815   8.139  0.5682  0.4089  0.3136
  577MOL0     C79506   7.879   4.785   8.116 -0.4322  1.3371 -0.8218
  577MOL0     C79507   7.935   4.898   8.062  0.3405  0.3260 -0.1802
  577MOL0     C79508   8.089   4.920   8.026  0.7796  0.8293  0.6284
  577MOL0     C79509   8.179   4.817   8.107  0.1494 -0.4655  0.5456
  577MOL0     C79510   8.323   4.856   8.086  0.1783 -0.3893 -0.3346
  577MOL0     C79511   8.408   4.764   8.182  0.2943 -0.0201 -0.6710
  577MOL0     O79512   8.551   4.813   8.183 -1.1005 -0.1222  0.0232
  577MOL0     C79513   8.639   4.740   8.120 -0.4040 -0.0979 -0.0841
  577MOL0     C79514   8.775   4.753   8.148  0.6949 -0.2750  0.0578
  577MOL0     C79515   8.875   4.677   8.089 -0.1042 -0.0962 -0.7303
  577MOL0     C79516   9.017   4.708   8.139  0.3549 -0.9106  1.2211
  577MOL0     C79517   8.842   4.578   7.997 -0.3300  0.5813 -0.2396
  577MOL0     C79518   8.943   4.497   7.929 -0.3220  0.1779  0.0576
  577MOL0     O79519   9.017   4.412   8.006  0.4060 -0.9016  0.1989
  577MOL0     C79520   9.103   4.334   7.951  0.1716  0.7525 -0.1598
  577MOL0     C79521   9.083   4.254   7.844  1.2214 -0.1716  0.7876
  577MOL0     C79522   9.189   4.175   7.790 -0.5107  0.2542 -0.3825
  577MOL0     C79523   9.309   4.164   7.857 -1.0602  0.5146 -0.3834
  577MOL0     O79524   9.410   4.075   7.831 -0.3348  1.0416 -0.2492
  577MOL0     C79525   9.430   4.026   7.697  0.1827  0.4227 -0.1663
  577MOL0     C79526   9.365   3.887   7.683 -0.6208  0.0150  0.3977
  577MOL0     C79527   9.402   3.787   7.791 -0.1993 -0.5548 -0.1390
  577MOL0     C79528   9.358   3.651   7.750 -0.5190  0.0067 -0.1945
  577MOL0     C79529   9.410   3.548   7.856 -1.5184  0.2441  0.8136
  577MOL0     C79530   9.371   3.401   7.786  0.2446  0.0206  0.3412
  577MOL0     C79531   9.432   3.276   7.842  1.0354  0.3946 -0.2745
  577MOL0     C79532   9.439   3.281   7.989  1.0621 -0.9805  0.5587
  577MOL0    Cl79533   9.543   3.148   8.047  0.6041  0.3693  0.2144
  577MOL0     C79534   9.318   4.240   7.979  0.2804  1.2810 -0.1353
  577MOL0     C79535   9.229   4.334   8.018 -0.1903  0.4843 -0.3116
  577MOL0     O79536   8.953   4.518   7.810 -0.4209  0.7730  0.3334
  577MOL0     C79537   8.702   4.558   7.959 -0.2550  1.0058  0.5038
  577MOL0     C79538   8.608   4.629   8.030 -0.0041 -0.4959 -0.4431
  577MOL0     N79539   7.825   4.990   8.052  0.8028  1.0019 -0.6617
  577MOL0     N79540   7.712   4.934   8.101 -0.4878 -0.1566  0.6535
  577MOL0     C79541   8.505   4.266   8.257 -0.4767 -0.5824  0.5474
  577MOL0     C79542   8.615   4.181   8.214  0.4121  0.3843 -0.1440
  577MOL0     C79543   9.009   3.976   8.291 -0.6104 -0.0110  0.6676
  577MOL0     C79544   9.100   4.032   8.201 -0.5056  0.4571 -0.1871
  577MOL0     C79545   9.238   3.991   8.196  1.2272 -0.7211 -0.9542
  577MOL0     C79546   9.273   3.888   8.277 -0.2483  0.1616  0.5002
  577MOL0     O79547   9.402   3.830   8.271  0.3682 -0.3119  0.3507
  577MOL0     C79548   9.504   3.933   8.264 -0.0719 -0.4202 -0.7728
  577MOL0     C79549   9.520   4.020   8.392 -0.1855  0.1679 -0.6059
  577MOL0     C79550   9.523   3.934   8.523  0.5335  1.2608  0.8248
  577MOL0     C79551   9.579   4.014   8.644  0.4370  0.8046 -0.1110
  577MOL0     C79552   9.520   4.139   8.643  0.7648  0.4292 -0.4497
  577MOL0     C79553   9.488   4.249   8.629  0.5072 -0.9683 -0.8253
  577MOL0     C79554   9.186   3.842   8.377  0.5708  0.0482 -0.7939
  577MOL0     C79555   9.060   3.890   8.388 -0.0695 -0.3996 -0.3695
  577MOL0     C79556   8.965   3.851   8.505 -0.2807 -0.2185 -0.6262
  577MOL0     H79557   8.856   4.343   8.378 -0.0983 -1.7393  1.1698
  577MOL0     H79558   8.676   4.502   8.418 -0.9583  1.1942 -0.2695
  577MOL0     H79559   8.272   4.357   8.355 -0.5428 -0.5656  3.4809
  577MOL0     H79560   8.268   4.496   8.250 -1.5034 -0.0782  0.2555
  577MOL0     H79561   8.195   4.481   8.557  0.3770  0.5476  0.4001
  577MOL0     H79562   8.259   4.635   8.496 -0.5233  1.6949 -3.4803
  577MOL0     H79563   8.102   4.647   8.323 -3.6925 -1.2922 -2.3394
  577MOL0     H79564   8.047   4.475   8.367  2.3217 -1.7937  0.3063
  577MOL0     H79565   7.950   4.564   8.581  0.8647  2.0992  2.1361
  577MOL0     H79566   8.056   4.704   8.562  2.9676 -0.5306 -3.0905
  577MOL0     H79567   7.916   4.785   8.375 -2.0186  0.4633 -0.2934
  577MOL0     H79568   7.831   4.779   8.535 -1.7784 -1.5897  1.2617
  577MOL0     H79569   7.820   4.561   8.308 -1.6805 -2.0805  0.7675
  577MOL0     H79570   7.747   4.554   8.467 -0.0278  1.2449  1.1435
  577MOL0     H79571   7.641   4.790   8.396 -1.0321  2.0278 -1.7028
  577MOL0     H79572   7.559   4.641   8.375  0.1986 -0.2180  0.8391
  577MOL0     H79573   7.663   4.617   8.140 -1.4713 -0.5478  0.1832
  577MOL0     H79574   7.548   4.745   8.165  1.0884  0.6167 -1.1769
  577MOL0     H79575   7.928   4.692   8.142 -3.4086  0.5082  2.6963
  577MOL0     H79576   8.123   5.019   8.056 -0.9520  1.8941 -0.7697
  577MOL0     H79577   8.098   4.901   7.918 -1.0912  0.1045  0.5609
  577MOL0     H79578   8.147   4.821   8.211 -2.0421 -2.6483  0.0430
  577MOL0     H79579   8.158   4.716   8.070  0.4059 -2.1683  4.5438
  577MOL0     H79580   8.351   4.851   7.980 -0.9505  2.6084 -0.8514
  577MOL0     H79581   8.348   4.959   8.112  0.7970 -0.8087  0.7991
  577MOL0     H79582   8.368   4.780   8.283 -1.1879  6.4481 -1.8779
  577MOL0     H79583   8.400   4.655   8.170  0.6559 -0.7421  3.8698
  577MOL0     H79584   8.802   4.817   8.232  1.7785 -2.9941  1.9359
  577MOL0     H79585   9.074   4.686   8.048 -0.0977  0.6753  0.5148
  577MOL0     H79586   9.043   4.634   8.215  2.0355 -1.4493  0.1798
  577MOL0     H79587   9.029   4.810   8.176  0.3195 -0.8172  0.9770
  577MOL0     H79588   8.987   4.252   7.794  2.2811 -0.7888 -1.3261
  577MOL0     H79589   9.169   4.119   7.699  0.7180 -3.3011  1.3774
  577MOL0     H79590   9.382   4.088   7.621  2.1338  1.9233 -0.2365
  577MOL0     H79591   9.536   4.011   7.678 -0.5410 -1.4993 -3.3771
  577MOL0     H79592   9.257   3.892   7.698 -0.4373  0.9258  1.5104
  577MOL0     H79593   9.383   3.852   7.581 -4.1600 -1.5070  0.1523
  577MOL0     H79594   9.339   3.807   7.879 -0.4165  1.5606 -0.7278
  577MOL0     H79595   9.507   3.788   7.818  0.2726  0.1414 -1.8442
  577MOL0     H79596   9.400   3.622   7.653  1.6773 -0.2351  0.7660
  577MOL0     H79597   9.249   3.654   7.753 -0.5599  0.6512 -1.5129
  577MOL0     H79598   9.518   3.562   7.864 -1.3326  0.2110 -1.2099
  577MOL0     H79599   9.352   3.567   7.947 -1.4504 -1.0698  1.1563
  577MOL0     H79600   9.387   3.401   7.678  3.5476  0.0527  0.7493
  577MOL0     H79601   9.262   3.392   7.797  0.0437 -0.7936 -1.9102
  577MOL0     H79602   9.530   3.274   7.793 -0.7535 -1.2337 -4.2208
  577MOL0     H79603   9.373   3.188   7.814  0.4659 -0.9597  4.2508
  577MOL0     H79604   9.336   3.272   8.024 -0.1633 -0.3339 -2.5936
  577MOL0     H79605   9.479   3.373   8.033 -1.9336  0.6277  0.1879
  577MOL0     H79606   9.407   4.220   8.037  0.3878  1.0898 -0.3637
  577MOL0     H79607   9.253   4.394   8.104  2.0144 -0.2723 -0.3419
  577MOL0     H79608   8.669   4.491   7.880  0.3541  0.0212  1.0583
  577MOL0     H79609   8.506   4.598   8.006 -1.0122  2.8806 -0.9638
  577MOL0     H79610   8.410   4.231   8.217  1.6303 -3.9966 -2.1612
  577MOL0     H79611   8.593   4.106   8.139  1.8289 -0.5552  0.3380
  577MOL0     H79612   9.066   4.108   8.131  1.3052  1.8414  0.3540
  577MOL0     H79613   9.302   4.040   8.123  0.9299 -3.1045 -2.9397
  577MOL0     H79614   9.605   3.895   8.245  1.0828  2.4552 -0.8699
  577MOL0     H79615   9.478   4.002   8.184  0.0617  0.1402 -0.3364
  577MOL0     H79616   9.441   4.094   8.374 -0.8929 -1.2622 -4.4427
  577MOL0     H79617   9.600   4.094   8.386 -0.1514  0.3848  1.7265
  577MOL0     H79618   9.425   3.895   8.554  1.2364 -0.4990  0.9478
  577MOL0     H79619   9.590   3.849   8.504  0.3038  0.8441  1.8320
  577MOL0     H79620   9.687   4.026   8.632  0.8237 -1.7588  0.2006
  577MOL0     H79621   9.566   3.954   8.735  1.3248 -0.1000 -0.5613
  577MOL0     H79622   9.469   4.354   8.620 -1.4157 -1.1932  0.0216
  577MOL0     H79623   9.229   3.775   8.450 -0.9248  0.5577  0.6430
  577MOL0     H79624   8.905   3.764   8.477 -0.7174  0.6455 -2.5134
  577MOL0     H79625   9.014   3.839   8.602  0.8935 -1.5686 -1.3576
  577MOL0     H79626   8.890   3.930   8.513 -1.1927 -1.2065  1.1302
  578MOL0     O79627   3.022   9.538   8.519  0.0310  0.6195 -0.1968
  578MOL0     C79628   3.132   9.494   8.491  1.3480 -0.8063 -0.8808
  578MOL0     O79629   3.216   9.445   8.588  0.7033  0.7526  0.0581
  578MOL0     C79630   3.178   9.414   8.717  1.0433  0.8347  0.4358
  578MOL0     C79631   3.179   9.515   8.814 -0.4033 -0.1333 -0.0975
  578MOL0     C79632   3.146   9.493   8.949  0.8667  0.3308 -0.2542
  578MOL0     C79633   3.094   9.370   8.993 -0.1269 -0.7517 -0.0009
  578MOL0     O79634   3.038   9.341   9.116 -0.1247 -0.6217  0.4074
  578MOL0     C79635   2.988   9.450   9.195 -0.5454 -0.6083  0.3136
  578MOL0     C79636   2.974   9.400   9.334  0.2319  0.2283  0.0774
  578MOL0     C79637   3.112   9.390   9.408 -0.0780  0.2465 -0.5671
  578MOL0     C79638   3.097   9.362   9.564  1.0113  0.0674 -0.8106
  578MOL0     C79639   3.231   9.350   9.641  0.1049  0.9316  0.6358
  578MOL0     C79640   3.219   9.321   9.785  0.8246  0.3539 -0.4678
  578MOL0     C79641   3.344   9.266   9.845  0.0029 -0.8615  0.7710
  578MOL0     C79642   3.334   9.218   9.981 -0.0735 -0.2150 -0.6558
  578MOL0     N79643   3.274   9.085   9.996  0.1287  1.2022 -0.3877
  578MOL0     C79644   3.343   8.968   9.984 -0.4580  0.4887  0.3138
  578MOL0     C79645   3.267   8.874  10.033 -0.3127  0.3226  0.0604
  578MOL0     C79646   3.319   8.730  10.032  0.1849  0.0018  0.1165
  578MOL0     C79647   3.217   8.629   9.992  1.4049  0.6954  0.0698
  578MOL0     C79648   3.263   8.490   9.957 -0.2992 -0.1030 -0.3978
  578MOL0     C79649   3.155   8.413   9.878 -0.1248  0.3502  0.9127
  578MOL0     O79650   3.154   8.279   9.923 -0.0192 -0.4168 -0.3773
  578MOL0     C79651   3.063   8.243  10.022 -0.1656 -0.5005 -0.3874
  578MOL0     C79652   3.074   8.124  10.090  0.5912  0.2827 -0.4617
  578MOL0     C79653   2.990   8.092  10.198  0.4247  0.0653 -1.1009
  578MOL0     C79654   3.012   7.959  10.260 -0.1868  0.0757  0.1373
  578MOL0     C79655   2.892   8.183  10.243 -1.2797 -0.1356 -0.4173
  578MOL0     C79656   2.827   8.163  10.370  0.4776 -0.3435 -0.4707
  578MOL0     O79657   2.860   8.247  10.470 -0.4172 -0.4600 -0.4810
  578MOL0     C79658   2.823   8.190  10.592  0.5059  0.3436  0.1498
  578MOL0     C79659   2.708   8.245  10.643  0.3161  0.3470 -0.5385
  578MOL0     C79660   2.643   8.171  10.742 -0.6996  0.1270 -0.9218
  578MOL0     C79661   2.693   8.046  10.792 -0.3801 -0.7435 -0.6466
  578MOL0     O79662   2.648   7.984  10.905  0.6312  0.1985 -0.2336
  578MOL0     C79663   2.503   7.986  10.941 -0.8172 -0.6046  0.5786
  578MOL0     C79664   2.417   7.889  10.860 -0.0466 -0.3541  0.9015
  578MOL0     C79665   2.389   7.746  10.907  0.4010 -0.3638 -0.1674
  578MOL0     C79666   2.503   7.655  10.932 -0.0283  0.1968 -0.1032
  578MOL0     C79667   2.475   7.526  11.024 -0.2387  0.3578 -0.6315
  578MOL0     C79668   2.414   7.555  11.163  0.9642  1.0914  0.2036
  578MOL0     C79669   2.506   7.629  11.247 -0.7937 -0.5077  0.8505
  578MOL0     C79670   2.437   7.714  11.355  0.1941 -0.4848 -0.5853
  578MOL0    Cl79671   2.374   7.868  11.292  0.0995  0.1565  0.0028
  578MOL0     C79672   2.815   8.015  10.746  0.0250  0.1181  0.0683
  578MOL0     C79673   2.880   8.084  10.651  0.1349 -0.1646 -0.0763
  578MOL0     O79674   2.732   8.084  10.367 -0.5944  0.3324 -0.1178
  578MOL0     C79675   2.877   8.305  10.181 -0.3006 -0.2485 -0.1164
  578MOL0     C79676   2.975   8.340  10.086 -0.2481  0.3131  0.2339
  578MOL0     N79677   3.152   8.933  10.088  0.3034 -0.4297 -0.0633
  578MOL0     N79678   3.163   9.061  10.076  0.0215  0.9956 -0.9849
  578MOL0     C79679   3.089   9.269   8.896  0.7767 -0.2718 -0.1144
  578MOL0     C79680   3.134   9.285   8.759 -0.2903 -0.8652 -1.1503
  578MOL0     C79681   3.197   9.496   8.351  0.1668 -0.1756 -0.3167
  578MOL0     C79682   3.326   9.449   8.339 -0.8429  0.3231 -0.2132
  578MOL0     C79683   3.385   9.444   8.216  0.3612  0.1812 -0.0447
  578MOL0     C79684   3.320   9.474   8.102  0.4132  0.1804  0.3975
  578MOL0     O79685   3.391   9.439   7.987 -0.2714 -0.1667 -0.9084
  578MOL0     C79686   3.327   9.422   7.857  0.5463 -0.2457 -0.1421
  578MOL0     C79687   3.421   9.430   7.738  0.0170 -1.4427 -0.2324
  578MOL0     C79688   3.498   9.566   7.731  0.1628 -0.2494 -0.0379
  578MOL0     C79689   3.500   9.626   7.580  0.0487  0.7687 -0.2772
  578MOL0     C79690   3.594   9.542   7.503 -0.2554  0.6159  0.6936
  578MOL0     C79691   3.659   9.455   7.445 -0.2245 -0.4706 -0.8444
  578MOL0     C79692   3.189   9.522   8.115 -0.0391  0.3508  0.0944
  578MOL0     C79693   3.128   9.548   8.237  0.6383 -0.6163  0.1612
  578MOL0     C79694   3.008   9.636   8.250 -1.1129 -0.8824  0.4792
  578MOL0     H79695   3.202   9.617   8.783  0.5690  0.5577  2.6149
  578MOL0     H79696   3.150   9.585   9.007  0.6500 -0.5125  1.1451
  578MOL0     H79697   2.889   9.482   9.159 -0.5293 -0.2131  0.6203
  578MOL0     H79698   3.050   9.541   9.191 -2.7218  1.1308  2.8845
  578MOL0     H79699   2.912   9.471   9.389  1.0950  1.5777 -0.6462
  578MOL0     H79700   2.928   9.300   9.332  2.7867 -1.0343  0.0092
  578MOL0     H79701   3.165   9.307   9.360  3.8985  1.8270  0.6870
  578MOL0     H79702   3.173   9.477   9.381 -0.8378  1.6240  1.8520
  578MOL0     H79703   3.042   9.434   9.624  4.3660  3.3554 -1.3247
  578MOL0     H79704   3.053   9.262   9.575 -0.1332  0.5097 -1.2869
  578MOL0     H79705   3.288   9.441   9.620  2.4755 -1.0150 -2.2846
  578MOL0     H79706   3.295   9.278   9.589 -2.9998 -0.0449 -2.2193
  578MOL0     H79707   3.197   9.412   9.841 -0.4879 -0.7070  0.8226
  578MOL0     H79708   3.134   9.254   9.802  0.4749  0.3247 -2.1374
  578MOL0     H79709   3.426   9.340   9.845 -0.0376 -0.7035 -1.9982
  578MOL0     H79710   3.393   9.197   9.776 -1.7106 -3.1280  1.6922
  578MOL0     H79711   3.432   9.225  10.029  2.4842  2.3462 -5.5263
  578MOL0     H79712   3.273   9.291  10.035  1.7686  1.1139 -0.3154
  578MOL0     H79713   3.440   8.957   9.936  0.1013  0.7442  1.3730
  578MOL0     H79714   3.366   8.707  10.128  0.3671 -0.6758 -0.1342
  578MOL0     H79715   3.397   8.721   9.957  0.8378 -0.2700  0.8163
  578MOL0     H79716   3.147   8.616  10.075  2.3036 -4.2784  0.3847
  578MOL0     H79717   3.163   8.681   9.913 -0.4246 -1.3290 -0.1263
  578MOL0     H79718   3.351   8.507   9.894  2.4093 -0.6100  2.9735
  578MOL0     H79719   3.300   8.424  10.036  0.6063 -0.3127 -0.9823
  578MOL0     H79720   3.063   8.472   9.880  0.3910  1.1481  1.4336
  578MOL0     H79721   3.188   8.409   9.774 -0.9063  0.7469  0.6430
  578MOL0     H79722   3.153   8.051  10.077  0.0018 -0.6561  0.9938
  578MOL0     H79723   3.114   7.921  10.254 -1.4165 -3.6586  0.3406
  578MOL0     H79724   2.953   7.888  10.202  0.4935  0.0687 -0.5641
  578MOL0     H79725   2.978   7.960  10.364  1.7587 -2.2343  0.9073
  578MOL0     H79726   2.655   8.332  10.605 -0.5864  0.6067  1.1922
  578MOL0     H79727   2.550   8.212  10.780 -0.7700 -1.2133  0.4291
  578MOL0     H79728   2.480   7.945  11.040 -0.4297  0.7409  1.2453
  578MOL0     H79729   2.481   8.093  10.941  0.9195 -0.2176  0.8523
  578MOL0     H79730   2.322   7.942  10.846  1.7992  2.6775 -1.7012
  578MOL0     H79731   2.454   7.885  10.757 -2.2985 -1.2369  0.0580
  578MOL0     H79732   2.313   7.686  10.855 -0.3152  1.7449 -1.7095
  578MOL0     H79733   2.334   7.768  10.999 -1.2565 -5.5153  0.3933
  578MOL0     H79734   2.589   7.715  10.962  2.1786 -2.2482 -1.1006
  578MOL0     H79735   2.541   7.610  10.839 -1.1850 -0.5632 -0.2291
  578MOL0     H79736   2.402   7.462  10.972  1.4604 -1.1725 -1.2438
  578MOL0     H79737   2.567   7.468  11.021 -2.4494 -3.5396 -0.3134
  578MOL0     H79738   2.395   7.457  11.206 -1.4978  1.0606 -0.7707
  578MOL0     H79739   2.321   7.610  11.144 -0.5689 -1.2645  0.4636
  578MOL0     H79740   2.558   7.700  11.182  1.1639 -1.5223  1.2130
  578MOL0     H79741   2.568   7.560  11.306 -1.9245  0.5132  3.3667
  578MOL0     H79742   2.516   7.753  11.420 -1.2466 -0.1141  1.0053
  578MOL0     H79743   2.364   7.651  11.408 -0.3478 -2.8031 -3.7716
  578MOL0     H79744   2.856   7.930  10.799 -1.0945 -0.7522 -0.4336
  578MOL0     H79745   2.981   8.050  10.629  1.5873  3.6042  0.0564
  578MOL0     H79746   2.811   8.375  10.230 -0.1104 -0.1466 -0.0042
  578MOL0     H79747   2.964   8.442  10.051 -3.5767  0.3572  1.0633
  578MOL0     H79748   3.059   9.173   8.939  1.5852 -0.6272 -0.3238
  578MOL0     H79749   3.142   9.200   8.692  0.3111 -1.4952 -0.3069
  578MOL0     H79750   3.382   9.391   8.411 -0.6862 -1.8940 -2.0108
  578MOL0     H79751   3.489   9.414   8.215  0.1939 -0.5189  1.1902
  578MOL0     H79752   3.272   9.328   7.867 -3.0762  1.8867  1.6980
  578MOL0     H79753   3.250   9.497   7.839  2.2179  2.6345  3.3495
  578MOL0     H79754   3.359   9.434   7.648 -1.8408  3.3763  0.9045
  578MOL0     H79755   3.497   9.352   7.744 -0.0639 -1.8025 -2.6997
  578MOL0     H79756   3.447   9.648   7.782  1.1451 -0.1826  0.8652
  578MOL0     H79757   3.596   9.573   7.778 -0.4096  2.7172  0.8979
  578MOL0     H79758   3.523   9.733   7.585 -0.8861  1.0077 -0.8878
  578MOL0     H79759   3.400   9.615   7.538 -0.7204  0.0029  1.6215
  578MOL0     H79760   3.712   9.376   7.396 -0.0184  0.5870 -2.3913
  578MOL0     H79761   3.125   9.544   8.031  1.1801  0.7988 -0.7445
  578MOL0     H79762   2.989   9.689   8.156 -0.0839 -3.2987 -1.1984
  578MOL0     H79763   2.918   9.576   8.268 -0.1943 -2.6126 -0.3773
  578MOL0     H79764   3.033   9.715   8.321 -1.9957  0.9780 -1.1740
  579MOL0     O79765   6.893   5.669   3.686 -0.0275  0.3444  0.0939
  579MOL0     C79766   6.781   5.683   3.644  0.7026 -0.8060  0.8093
  579MOL0     O79767   6.676   5.756   3.703  0.8705  0.3563 -0.4870
  579MOL0     C79768   6.693   5.804   3.827  0.4513  0.5868 -1.1635
  579MOL0     C79769   6.712   5.943   3.851  0.5290 -0.1475  0.2059
  579MOL0     C79770   6.725   5.994   3.977  0.5534 -0.4445 -0.1961
  579MOL0     C79771   6.718   5.916   4.090  0.6055  0.3805 -0.6133
  579MOL0     O79772   6.719   5.974   4.221 -0.0533 -0.8364 -0.1839
  579MOL0     C79773   6.655   5.902   4.331 -0.5207 -0.5101 -0.2621
  579MOL0     C79774   6.501   5.907   4.317 -0.8146  0.2564 -0.1370
  579MOL0     C79775   6.441   5.815   4.425 -0.6014 -0.4521 -0.0727
  579MOL0     C79776   6.289   5.793   4.389 -0.3478 -0.2549 -0.5390
  579MOL0     C79777   6.221   5.700   4.486  0.1376  1.0290  0.3211
  579MOL0     C79778   6.070   5.721   4.499 -0.0027  0.4397 -0.2456
  579MOL0     C79779   5.994   5.747   4.358 -0.0821  1.3099 -0.8745
  579MOL0     C79780   5.845   5.732   4.381  0.3103 -1.3093 -1.1427
  579MOL0     N79781   5.765   5.756   4.260  0.4539  0.3574  0.5574
  579MOL0     C79782   5.800   5.713   4.131 -0.6933  0.1831  0.0295
  579MOL0     C79783   5.705   5.772   4.051  0.8597  0.1963  0.1804
  579MOL0     C79784   5.667   5.741   3.904  0.3942  0.1501  0.2959
  579MOL0     C79785   5.545   5.653   3.889 -0.3921  1.0056  0.2005
  579MOL0     C79786   5.490   5.686   3.755  0.4491 -1.1913  0.1709
  579MOL0     C79787   5.365   5.608   3.715 -0.1854  0.3236 -0.1767
  579MOL0     O79788   5.359   5.636   3.577 -0.1515 -0.0857  0.0080
  579MOL0     C79789   5.265   5.568   3.501  0.4141 -0.5015 -0.2200
  579MOL0     C79790   5.283   5.583   3.359 -0.6328  0.1846 -0.1685
  579MOL0     C79791   5.192   5.526   3.262  0.0564  0.4488  0.0221
  579MOL0     C79792   5.224   5.547   3.115 -0.4372  0.3927 -0.1745
  579MOL0     C79793   5.078   5.451   3.317 -0.2569  0.2742 -0.0126
  579MOL0     C79794   4.992   5.369   3.227 -0.9132  1.0931  1.1508
  579MOL0     O79795   5.024   5.244   3.188 -0.1097  0.3559  0.1544
  579MOL0     C79796   5.087   5.171   3.284  0.2663 -0.2258 -0.1082
  579MOL0     C79797   5.012   5.093   3.376  0.3886 -1.3754  0.2576
  579MOL0     C79798   5.065   5.006   3.473  0.4916 -0.5112  0.6925
  579MOL0     C79799   5.210   5.016   3.483 -0.4230  0.5657 -0.9664
  579MOL0     O79800   5.269   4.945   3.589 -0.1170 -0.2520  0.3714
  579MOL0     C79801   5.238   4.805   3.583 -0.3499 -0.1042 -0.1322
  579MOL0     C79802   5.333   4.739   3.684 -0.3226 -0.1981 -1.0491
  579MOL0     C79803   5.288   4.601   3.731 -0.0614  0.2370 -0.1414
  579MOL0     C79804   5.275   4.488   3.630  0.2020  0.1552 -0.0271
  579MOL0     C79805   5.302   4.350   3.687  0.1307 -0.4752  0.4355
  579MOL0     C79806   5.217   4.308   3.802 -0.4755 -0.2985  0.0390
  579MOL0     C79807   5.068   4.315   3.777 -0.4806  0.8160  0.4191
  579MOL0     C79808   4.996   4.264   3.899 -0.4552  0.0865 -0.2730
  579MOL0    Cl79809   4.817   4.283   3.865 -0.1074  0.3111  0.2755
  579MOL0     C79810   5.292   5.103   3.403  0.5540  1.2697  0.3915
  579MOL0     C79811   5.226   5.175   3.301  0.1541  0.7485  1.3337
  579MOL0     O79812   4.898   5.424   3.183 -0.4174 -0.0770  0.2947
  579MOL0     C79813   5.065   5.442   3.457 -0.7569 -0.4316  0.0623
  579MOL0     C79814   5.153   5.509   3.549 -0.6904  0.0554 -0.9762
  579MOL0     N79815   5.625   5.849   4.131  0.1833  0.7901  0.2182
  579MOL0     N79816   5.660   5.837   4.251  1.2537 -0.0863 -0.5607
  579MOL0     C79817   6.687   5.775   4.079 -1.1825 -0.2515 -0.8511
  579MOL0     C79818   6.677   5.719   3.947 -0.8864 -1.0471  0.1579
  579MOL0     C79819   6.735   5.612   3.512 -0.2646  0.3311 -0.2132
  579MOL0     C79820   6.616   5.649   3.449 -0.9260 -0.4356 -0.2059
  579MOL0     C79821   6.573   5.574   3.341 -0.3450 -1.0054  0.1050
  579MOL0     C79822   6.656   5.481   3.269  0.0684  0.4186 -0.7262
  579MOL0     O79823   6.629   5.387   3.175  0.0284  0.6916 -0.0903
  579MOL0     C79824   6.485   5.371   3.139  0.7662 -0.3449 -0.2121
  579MOL0     C79825   6.464   5.295   3.014  0.2322 -0.8821  0.1833
  579MOL0     C79826   6.531   5.148   3.012  0.0528 -0.2163 -0.6682
  579MOL0     C79827   6.527   5.093   2.865 -1.0539  0.6697  0.2970
  579MOL0     C79828   6.389   5.040   2.832 -0.7375 -0.3954  0.8007
  579MOL0     C79829   6.282   4.989   2.785  0.1518 -0.4012  0.7947
  579MOL0     C79830   6.779   5.454   3.333 -0.0844  1.2154  0.5695
  579MOL0     C79831   6.816   5.516   3.450 -0.8876  0.0752  0.3434
  579MOL0     C79832   6.955   5.459   3.491  0.5058  0.9938 -0.1298
  579MOL0     H79833   6.710   6.011   3.767  1.5141 -0.0826  0.2235
  579MOL0     H79834   6.735   6.101   3.995 -0.9698 -0.5825  1.8348
  579MOL0     H79835   6.672   5.947   4.429 -1.9907 -3.1716  1.3180
  579MOL0     H79836   6.694   5.802   4.351  3.1229  1.5507  6.0297
  579MOL0     H79837   6.466   6.011   4.320 -2.3186 -0.2486  1.9413
  579MOL0     H79838   6.476   5.868   4.218 -0.2100  0.4493 -0.3701
  579MOL0     H79839   6.491   5.718   4.419 -0.7265 -0.6134  1.1618
  579MOL0     H79840   6.458   5.853   4.526 -0.1279 -2.1414  0.5166
  579MOL0     H79841   6.234   5.886   4.405  1.4182  0.9823 -1.2598
  579MOL0     H79842   6.282   5.771   4.282  0.6971  0.6687 -0.8222
  579MOL0     H79843   6.264   5.691   4.586  2.7748  1.2249 -0.7188
  579MOL0     H79844   6.242   5.599   4.449  0.7538  1.5964 -0.9247
  579MOL0     H79845   6.030   5.632   4.548  3.2595 -0.9942  0.0707
  579MOL0     H79846   6.053   5.806   4.567 -1.3903  1.3559 -1.6918
  579MOL0     H79847   6.024   5.681   4.276  0.0178  1.0334 -0.6170
  579MOL0     H79848   6.010   5.846   4.314 -1.4203  2.7290  1.6728
  579MOL0     H79849   5.809   5.639   4.426 -2.1005 -0.1088 -0.4533
  579MOL0     H79850   5.831   5.813   4.453 -0.1957 -1.8712 -0.5966
  579MOL0     H79851   5.889   5.653   4.112 -1.5711 -0.7184 -1.4115
  579MOL0     H79852   5.749   5.693   3.851  0.6909  0.2105  0.7002
  579MOL0     H79853   5.647   5.843   3.870  0.4438  0.6720  1.7312
  579MOL0     H79854   5.563   5.546   3.892 -4.5900  0.1401  3.3969
  579MOL0     H79855   5.475   5.671   3.971  0.6604  2.8652  0.7676
  579MOL0     H79856   5.470   5.793   3.749  1.0190 -0.8103  3.3948
  579MOL0     H79857   5.570   5.665   3.683  2.1560  0.7131  1.4001
  579MOL0     H79858   5.382   5.502   3.734  0.4645  0.6145  1.0230
  579MOL0     H79859   5.280   5.642   3.775  2.3977  2.8400  2.4080
  579MOL0     H79860   5.379   5.626   3.333  0.6267 -0.7050  2.5639
  579MOL0     H79861   5.252   5.454   3.064  1.3708  1.2418 -0.8287
  579MOL0     H79862   5.316   5.605   3.110  0.4671 -1.1046 -2.3844
  579MOL0     H79863   5.147   5.597   3.056  0.9766  0.2930 -2.2062
  579MOL0     H79864   4.903   5.093   3.377  0.3310 -1.7583 -2.0793
  579MOL0     H79865   5.019   4.939   3.545  2.1245 -2.8138 -0.2744
  579MOL0     H79866   5.132   4.786   3.602 -0.1474 -1.7204 -0.4254
  579MOL0     H79867   5.273   4.773   3.485 -1.1516  1.1469 -0.8385
  579MOL0     H79868   5.437   4.734   3.650  0.4651 -1.0900  1.2434
  579MOL0     H79869   5.332   4.815   3.763  0.4894  0.0062 -1.2292
  579MOL0     H79870   5.183   4.611   3.762 -1.3954 -2.5410 -3.2208
  579MOL0     H79871   5.354   4.572   3.813  0.7618  0.5419 -0.6914
  579MOL0     H79872   5.350   4.503   3.552  0.1696  1.7257  0.2252
  579MOL0     H79873   5.175   4.481   3.586 -0.6004 -0.3268  1.8089
  579MOL0     H79874   5.306   4.275   3.608  2.8280  0.0176  0.0244
  579MOL0     H79875   5.405   4.364   3.718  0.0627 -1.3095  1.0662
  579MOL0     H79876   5.255   4.375   3.880 -2.7476  1.7986 -0.5418
  579MOL0     H79877   5.250   4.208   3.833 -0.3930 -0.7146 -1.3257
  579MOL0     H79878   5.041   4.252   3.692  4.2298 -0.5254 -0.3618
  579MOL0     H79879   5.034   4.418   3.769 -0.7168  0.6238 -1.6080
  579MOL0     H79880   5.022   4.329   3.982 -0.0650 -2.0545  1.3803
  579MOL0     H79881   5.034   4.163   3.918 -1.0959 -0.2837 -0.8638
  579MOL0     H79882   5.394   5.127   3.429  0.3176  1.7941  0.8472
  579MOL0     H79883   5.289   5.244   3.246  1.5750  0.3754  2.4433
  579MOL0     H79884   4.982   5.387   3.500 -1.6952  1.9087  1.3879
  579MOL0     H79885   5.120   5.506   3.652 -4.5519 -0.7524 -2.0874
  579MOL0     H79886   6.669   5.709   4.163  0.3448 -0.5881 -0.7545
  579MOL0     H79887   6.652   5.614   3.947 -0.8760 -1.0811 -1.3495
  579MOL0     H79888   6.550   5.717   3.500  0.1923  1.7225 -1.4708
  579MOL0     H79889   6.470   5.584   3.307 -0.1986  4.1344  0.5050
  579MOL0     H79890   6.428   5.331   3.223 -1.4972  2.2638 -0.3403
  579MOL0     H79891   6.439   5.465   3.108 -0.6467 -1.4021 -1.4508
  579MOL0     H79892   6.501   5.348   2.926 -0.3797  2.6348  1.8785
  579MOL0     H79893   6.354   5.295   3.008  0.2842  0.4178 -2.2063
  579MOL0     H79894   6.637   5.159   3.037 -0.3444 -0.4993  1.2845
  579MOL0     H79895   6.488   5.080   3.086 -0.2701  0.2076 -0.4653
  579MOL0     H79896   6.602   5.015   2.847 -2.1386 -0.9435  2.3708
  579MOL0     H79897   6.555   5.180   2.805 -0.8794  0.0444 -0.5487
  579MOL0     H79898   6.191   4.942   2.754  1.6029 -3.0291  0.2094
  579MOL0     H79899   6.845   5.384   3.282 -3.1308 -1.2800 -0.2991
  579MOL0     H79900   6.976   5.473   3.597 -1.0606  0.3653  0.2940
  579MOL0     H79901   6.954   5.350   3.481  1.4116  1.1285 -2.3969
  579MOL0     H79902   7.035   5.501   3.429  1.0321 -0.7755 -0.7163
  580MOL0     O79903   8.615   8.264   7.432 -0.5676  0.1455  0.5042
  580MOL0     C79904   8.605   8.308   7.315 -0.2733  0.1014 -0.0870
  580MOL0     O79905   8.698   8.378   7.255  0.7684 -0.9057 -1.0137
  580MOL0     C79906   8.827   8.369   7.314  0.1556 -0.3652  0.3876
  580MOL0     C79907   8.898   8.250   7.294  0.1454  0.3765 -0.4157
  580MOL0     C79908   9.024   8.232   7.352 -0.7597 -0.7795  0.2877
  580MOL0     C79909   9.090   8.337   7.414 -0.0138 -0.3608  0.6869
  580MOL0     O79910   9.210   8.308   7.478  0.2643  0.0857 -0.0618
  580MOL0     C79911   9.246   8.404   7.570 -0.2599 -1.1454  0.2948
  580MOL0     C79912   9.387   8.362   7.625 -0.8461 -0.8676 -0.5974
  580MOL0     C79913   9.399   8.443   7.755  0.4720  0.1040  0.9790
  580MOL0     C79914   9.549   8.453   7.786  0.4610 -0.3498  0.4831
  580MOL0     C79915   9.564   8.589   7.884 -0.6739  0.9377  0.0256
  580MOL0     C79916   9.701   8.605   7.939  0.5479  0.5825  0.6440
  580MOL0     C79917   9.745   8.486   8.026 -0.3743 -0.1991 -0.4570
  580MOL0     C79918   9.847   8.535   8.135 -0.5920  0.4834 -0.8143
  580MOL0     N79919   9.978   8.591   8.100 -0.3530  0.0550  0.0300
  580MOL0     C79920   9.995   8.732   8.098  0.5448  0.7128 -0.4935
  580MOL0     C79921  10.109   8.742   8.033 -0.6883  0.5164 -0.0484
  580MOL0     C79922  10.189   8.866   7.993 -0.6218  0.0419 -0.6791
  580MOL0     C79923  10.301   8.904   8.099  0.5146  0.1408 -0.5595
  580MOL0     C79924  10.364   9.046   8.072  0.6199 -0.2063 -0.7261
  580MOL0     C79925  10.270   9.165   8.127  0.5737  0.0863  0.1010
  580MOL0     O79926  10.323   9.293   8.111 -0.1480 -0.4132 -0.0519
  580MOL0     C79927  10.380   9.328   7.990  0.1182 -0.8443 -0.2876
  580MOL0     C79928  10.299   9.367   7.878 -0.8786  0.9406  0.2373
  580MOL0     C79929  10.360   9.403   7.752 -0.4254 -1.2431 -0.0822
  580MOL0     C79930  10.267   9.427   7.633 -0.8294  0.2590 -0.4438
  580MOL0     C79931  10.504   9.424   7.749 -0.0317 -0.0112  0.5370
  580MOL0     C79932  10.577   9.484   7.638  0.2521 -0.2002 -0.2396
  580MOL0     O79933  10.708   9.444   7.632 -0.3933 -0.1756 -0.9763
  580MOL0     C79934  10.786   9.473   7.524  0.5071  0.8755 -0.4798
  580MOL0     C79935  10.777   9.405   7.397  0.0293 -0.1777  0.5370
  580MOL0     C79936  10.863   9.433   7.300  0.4884  1.5574 -0.3937
  580MOL0     C79937  10.962   9.527   7.308  0.1163  0.0371 -0.1678
  580MOL0     O79938  11.035   9.546   7.198 -0.3738 -0.3912  0.2414
  580MOL0     C79939  11.175   9.589   7.214 -0.7085 -0.3694 -0.0966
  580MOL0     C79940  11.258   9.568   7.084 -0.2338 -0.1013  0.3412
  580MOL0     C79941  11.396   9.642   7.085 -0.2730 -0.6157  0.6439
  580MOL0     C79942  11.416   9.698   6.937 -0.7330  0.1068 -0.5926
  580MOL0     C79943  11.564   9.705   6.904  0.4033  0.0151  0.3741
  580MOL0     C79944  11.583   9.826   6.804  0.5862 -0.2741 -0.1913
  580MOL0     C79945  11.725   9.823   6.750  0.5705 -0.5237  0.1937
  580MOL0     C79946  11.786   9.967   6.732  0.2869 -0.3672 -0.2473
  580MOL0    Cl79947  11.715  10.040   6.586 -0.0143  0.0407 -0.0026
  580MOL0     C79948  10.974   9.603   7.424 -0.3043  0.1368 -0.0408
  580MOL0     C79949  10.889   9.575   7.534  1.0809  0.1159  0.7105
  580MOL0     O79950  10.528   9.559   7.556  0.4187  0.1039 -0.2886
  580MOL0     C79951  10.574   9.398   7.868  0.0983 -0.2805 -0.3024
  580MOL0     C79952  10.520   9.334   7.982 -1.1256  0.5873  0.6677
  580MOL0     N79953  10.181   8.624   8.042  1.1667  0.0944  0.6400
  580MOL0     N79954  10.095   8.533   8.081  0.4037 -0.3559  0.0877
  580MOL0     C79955   9.025   8.463   7.418  0.6393 -1.0713  0.9453
  580MOL0     C79956   8.896   8.481   7.367  0.8289 -0.0646 -0.4440
  580MOL0     C79957   8.491   8.291   7.226 -0.4784  0.3063  1.5518
  580MOL0     C79958   8.429   8.404   7.179  0.7588  0.5436 -0.7889
  580MOL0     C79959   8.328   8.396   7.086  1.4397 -1.1140  0.8298
  580MOL0     C79960   8.251   8.278   7.078 -0.4109 -0.1736 -0.2041
  580MOL0     O79961   8.143   8.273   7.000  0.2806  0.4645  0.7522
  580MOL0     C79962   8.044   8.380   7.002 -0.1606  0.3342  0.1044
  580MOL0     C79963   7.949   8.371   6.872  0.2008 -1.0378 -0.6342
  580MOL0     C79964   7.878   8.237   6.847 -0.4844 -0.8563  0.9607
  580MOL0     C79965   7.778   8.195   6.962 -0.9647  0.1824  0.3082
  580MOL0     C79966   7.685   8.299   7.006 -0.3383 -0.5305  0.2465
  580MOL0     C79967   7.618   8.382   7.048 -0.3392 -0.3719 -0.1183
  580MOL0     C79968   8.310   8.167   7.128 -0.1410  0.3011 -0.8677
  580MOL0     C79969   8.432   8.163   7.209  0.1292  0.1372  0.0103
  580MOL0     C79970   8.487   8.027   7.265  0.5823  0.4911 -0.1104
  580MOL0     H79971   8.836   8.175   7.246 -0.6827  0.8125 -0.0550
  580MOL0     H79972   9.072   8.135   7.361 -0.6496 -0.5551  3.2151
  580MOL0     H79973   9.168   8.408   7.646 -1.6334 -0.9254 -1.0706
  580MOL0     H79974   9.264   8.500   7.522  1.6945 -1.4282  0.3957
  580MOL0     H79975   9.384   8.258   7.658 -1.7120 -0.1263  1.9671
  580MOL0     H79976   9.468   8.393   7.560 -0.3246  0.9792  0.8308
  580MOL0     H79977   9.361   8.545   7.740  2.6861  0.8772  0.2423
  580MOL0     H79978   9.352   8.406   7.846  1.8287  1.3854  2.2626
  580MOL0     H79979   9.585   8.361   7.832 -3.6896 -1.3426  2.1546
  580MOL0     H79980   9.624   8.469   7.708  1.7183  0.2936  1.7679
  580MOL0     H79981   9.495   8.573   7.967  0.2680 -2.1791  0.3349
  580MOL0     H79982   9.535   8.684   7.839 -2.7442  1.1880  1.7280
  580MOL0     H79983   9.766   8.628   7.853  0.5580 -1.9364 -0.1023
  580MOL0     H79984   9.681   8.692   8.002 -1.0371 -0.8362  2.2111
  580MOL0     H79985   9.789   8.404   7.969  2.3333  0.5253  0.4661
  580MOL0     H79986   9.650   8.463   8.076 -0.0420  1.9721  1.3525
  580MOL0     H79987   9.805   8.607   8.206  0.4155  0.9719 -0.6856
  580MOL0     H79988   9.869   8.444   8.193 -1.3695 -0.5413 -2.0806
  580MOL0     H79989   9.932   8.818   8.117  0.9218  1.2216 -1.5017
  580MOL0     H79990  10.125   8.955   7.994  0.6552  0.9859  0.5337
  580MOL0     H79991  10.226   8.854   7.891  1.4559  1.0318 -0.1026
  580MOL0     H79992  10.271   8.905   8.204 -1.9900  0.0710 -1.1903
  580MOL0     H79993  10.379   8.829   8.089 -0.6237 -1.0481 -0.7717
  580MOL0     H79994  10.456   9.063   8.130 -1.4335  2.3852  2.1116
  580MOL0     H79995  10.371   9.072   7.966 -0.9207  3.9817 -0.0167
  580MOL0     H79996  10.176   9.168   8.072  0.9734 -3.1626 -1.0188
  580MOL0     H79997  10.261   9.151   8.236  2.1205  3.4601  0.7984
  580MOL0     H79998  10.191   9.365   7.893 -0.4903  1.2273  4.2585
  580MOL0     H79999  10.167   9.382   7.641  0.7613 -3.4895  0.5856
  580MOL0     H80000  10.311   9.367   7.554 -0.6476 -1.2420  0.7503
  580MOL0     H80001  10.273   9.534   7.615 -0.4699  0.7707  2.2378
  580MOL0     H80002  10.702   9.331   7.367  0.3012 -0.7808  1.3075
  580MOL0     H80003  10.863   9.365   7.216  3.6103  0.8055  0.0778
  580MOL0     H80004  11.170   9.694   7.246  1.1816 -0.9368  2.3868
  580MOL0     H80005  11.218   9.531   7.295 -1.4773 -0.7018  0.0829
  580MOL0     H80006  11.277   9.461   7.086  0.4724  0.0315  1.3411
  580MOL0     H80007  11.194   9.591   6.998  0.1966 -0.7152 -0.1511
  580MOL0     H80008  11.475   9.569   7.107 -1.4207 -3.6002 -3.8744
  580MOL0     H80009  11.389   9.722   7.160 -2.3659  0.5941 -0.7669
  580MOL0     H80010  11.372   9.798   6.941  0.2744  0.5384  0.4134
  580MOL0     H80011  11.371   9.636   6.858  0.7270 -1.0451 -0.5710
  580MOL0     H80012  11.609   9.731   7.001 -0.1503  3.2015 -0.1150
  580MOL0     H80013  11.610   9.609   6.881  1.8722 -0.5695  4.7259
  580MOL0     H80014  11.572   9.925   6.849  5.4532  0.3457  0.1235
  580MOL0     H80015  11.518   9.808   6.719  2.6314 -3.8517 -1.1891
  580MOL0     H80016  11.734   9.759   6.661  1.9688 -2.2038  1.4649
  580MOL0     H80017  11.780   9.762   6.821 -5.0591 -1.2989  4.5956
  580MOL0     H80018  11.891   9.950   6.705  0.5942  0.5372  0.3418
  580MOL0     H80019  11.779  10.034   6.818 -0.8533 -0.6978 -0.0641
  580MOL0     H80020  11.043   9.686   7.423 -1.1468  0.9662  2.5540
  580MOL0     H80021  10.894   9.643   7.618 -0.5296  2.4031 -0.9140
  580MOL0     H80022  10.683   9.389   7.867 -0.0004 -2.5919  1.6591
  580MOL0     H80023  10.577   9.283   8.059  3.3609 -0.2025 -2.7712
  580MOL0     H80024   9.057   8.549   7.476 -0.9872 -0.3128  0.7871
  580MOL0     H80025   8.826   8.563   7.381 -0.4724 -1.1111 -0.5717
  580MOL0     H80026   8.482   8.492   7.215  3.4936 -1.7538  1.2841
  580MOL0     H80027   8.302   8.487   7.033 -0.6640 -1.7366  0.6977
  580MOL0     H80028   7.998   8.376   7.101 -0.1606  2.5117  0.2393
  580MOL0     H80029   8.101   8.473   6.998 -1.0385  0.8718 -0.0922
  580MOL0     H80030   7.999   8.385   6.776  0.0252  1.2558 -0.4409
  580MOL0     H80031   7.872   8.449   6.875  0.6527 -0.4745 -2.3240
  580MOL0     H80032   7.826   8.247   6.751  2.2343 -1.3610 -0.6914
  580MOL0     H80033   7.957   8.162   6.839 -1.8146 -2.1243 -2.8819
  580MOL0     H80034   7.845   8.175   7.046  2.1789  1.4031 -1.7041
  580MOL0     H80035   7.724   8.107   6.928 -1.3406  0.3821  0.3842
  580MOL0     H80036   7.562   8.469   7.074  0.5565  0.4299 -0.8076
  580MOL0     H80037   8.261   8.072   7.105  0.0867 -0.7132  2.3302
  580MOL0     H80038   8.595   8.025   7.285  1.1751  3.5950 -2.2721
  580MOL0     H80039   8.431   8.002   7.355 -0.2023 -0.5773 -0.8698
  580MOL0     H80040   8.467   7.939   7.203  0.9643  1.1343 -1.1733
  581MOL0     O80041   5.053  11.194   9.653  0.5899 -0.1707  0.1792
  581MOL0     C80042   5.034  11.315   9.676  0.0861 -0.1883 -0.0215
  581MOL0     O80043   5.120  11.411   9.649  0.0675  0.2860 -0.0610
  581MOL0     C80044   5.222  11.402   9.561 -0.9919  0.1535  0.6847
  581MOL0     C80045   5.308  11.289   9.563 -0.4959 -0.6424 -0.6974
  581MOL0     C80046   5.426  11.285   9.495 -0.6529  0.7698 -0.9290
  581MOL0     C80047   5.457  11.395   9.414  0.0458 -0.0556  0.2240
  581MOL0     O80048   5.574  11.387   9.351  0.7091 -0.3178 -0.0992
  581MOL0     C80049   5.667  11.499   9.353 -0.1507  1.5216 -0.2476
  581MOL0     C80050   5.769  11.455   9.249 -0.1584 -0.3358 -0.2395
  581MOL0     C80051   5.885  11.560   9.247 -0.0599  0.4882 -0.1758
  581MOL0     C80052   5.996  11.516   9.154 -0.2675 -0.2430 -0.1939
  581MOL0     C80053   6.012  11.613   9.042 -0.3293 -0.1127  0.0175
  581MOL0     C80054   6.146  11.600   8.959 -0.0507 -0.3989  0.3601
  581MOL0     C80055   6.155  11.708   8.847  0.7377 -0.4347  0.0888
  581MOL0     C80056   6.278  11.700   8.755  0.2560 -0.3999  0.0405
  581MOL0     N80057   6.276  11.822   8.674 -0.2222  0.0141 -0.0440
  581MOL0     C80058   6.241  11.831   8.547  0.3358 -0.0594 -1.0394
  581MOL0     C80059   6.264  11.952   8.504  0.5986  0.3950 -0.2287
  581MOL0     C80060   6.256  12.008   8.355  0.0219 -0.2492  0.0648
  581MOL0     C80061   6.117  12.066   8.330 -0.1162  0.8938  0.1917
  581MOL0     C80062   6.075  12.180   8.415 -0.4122 -0.8562  0.3591
  581MOL0     C80063   5.930  12.217   8.375  0.6774  0.9185  0.2167
  581MOL0     O80064   5.835  12.110   8.396  0.0666 -0.0176  0.0452
  581MOL0     C80065   5.702  12.131   8.393  0.1082 -1.5825  0.4797
  581MOL0     C80066   5.610  12.096   8.499 -0.1495  1.1008 -0.8237
  581MOL0     C80067   5.476  12.130   8.501  0.1279  0.1808 -0.2193
  581MOL0     C80068   5.392  12.103   8.624  0.5499 -1.0975 -0.6133
  581MOL0     C80069   5.419  12.189   8.381  0.6342  0.3805 -0.0998
  581MOL0     C80070   5.278  12.222   8.375  0.8764  0.4457  0.6697
  581MOL0     O80071   5.233  12.351   8.337 -0.4047 -0.0279  0.4115
  581MOL0     C80072   5.108  12.365   8.290 -0.0346 -0.2094  0.2780
  581MOL0     C80073   5.078  12.376   8.150  0.3553 -0.4302  0.6001
  581MOL0     C80074   4.946  12.407   8.100 -0.6935  0.5594 -0.9401
  581MOL0     C80075   4.843  12.409   8.194 -0.3683 -0.2693 -0.1576
  581MOL0     O80076   4.720  12.428   8.146  0.1216  0.9176  0.1378
  581MOL0     C80077   4.607  12.378   8.227  0.7501 -0.8776  0.2619
  581MOL0     C80078   4.475  12.397   8.151 -0.1392 -0.0259  0.0845
  581MOL0     C80079   4.447  12.551   8.148  0.3380 -0.1923  0.5212
  581MOL0     C80080   4.389  12.614   8.269 -0.1048 -0.2756 -0.1032
  581MOL0     C80081   4.372  12.770   8.264  0.4023  0.5697 -0.2050
  581MOL0     C80082   4.301  12.832   8.146 -0.0651  0.8092  0.1010
  581MOL0     C80083   4.273  12.984   8.168 -0.5244  0.6282 -0.4250
  581MOL0     C80084   4.240  13.050   8.032 -0.5952  0.1019  1.6480
  581MOL0    Cl80085   4.171  13.206   8.049  0.3822 -0.0623  0.0828
  581MOL0     C80086   4.873  12.374   8.325 -0.5654 -0.0484  0.5725
  581MOL0     C80087   5.003  12.369   8.370 -0.3861 -0.6534  0.0422
  581MOL0     O80088   5.205  12.119   8.386 -0.1982  0.5070  0.4344
  581MOL0     C80089   5.505  12.227   8.282 -0.4865 -0.9397 -0.2708
  581MOL0     C80090   5.644  12.214   8.292  0.8098 -0.9670 -1.8782
  581MOL0     N80091   6.295  12.022   8.621  0.4396  0.4339  0.0124
  581MOL0     N80092   6.297  11.944   8.725 -0.0368  0.7491 -0.1959
  581MOL0     C80093   5.384  11.514   9.416 -0.9914  0.4137  0.1897
  581MOL0     C80094   5.262  11.513   9.480 -0.2046 -0.4425 -0.6810
  581MOL0     C80095   4.951  11.338   9.795 -0.7182  0.6125 -1.1471
  581MOL0     C80096   4.967  11.249   9.915  0.0244  0.7041  0.9943
  581MOL0     C80097   4.885  11.262  10.021 -0.2956  0.2674 -0.4649
  581MOL0     C80098   4.785  11.356  10.028  0.2538 -0.7348  0.5823
  581MOL0     O80099   4.703  11.344  10.129 -1.3776 -0.6058  0.6817
  581MOL0     C80100   4.733  11.446  10.222  0.5002 -0.1481 -0.8816
  581MOL0     C80101   4.620  11.441  10.318 -0.4297 -0.2403  0.1793
  581MOL0     C80102   4.638  11.557  10.421 -0.6750  0.3504  0.6210
  581MOL0     C80103   4.526  11.542  10.523 -1.6878 -0.4828 -0.0154
  581MOL0     C80104   4.506  11.670  10.595  0.1266  0.2958  0.0740
  581MOL0     C80105   4.470  11.759  10.662 -0.0893  0.2423 -0.2636
  581MOL0     C80106   4.769  11.448   9.920 -0.2187  0.3173 -0.5727
  581MOL0     C80107   4.856  11.438   9.803  0.4138 -0.6113 -0.0371
  581MOL0     C80108   4.840  11.527   9.685  0.1818 -0.6081  1.2852
  581MOL0     H80109   5.290  11.197   9.618  0.0016 -0.3334  0.0019
  581MOL0     H80110   5.495  11.201   9.501  1.5465  2.4598 -1.1538
  581MOL0     H80111   5.706  11.495   9.455 -0.5705 -0.9270 -0.1232
  581MOL0     H80112   5.625  11.596   9.325 -0.4371  1.2237 -0.8540
  581MOL0     H80113   5.810  11.357   9.274 -1.3285 -0.2819  2.1190
  581MOL0     H80114   5.726  11.448   9.148  2.5795 -2.2241 -1.3915
  581MOL0     H80115   5.853  11.663   9.230  0.4266  0.2653 -2.9941
  581MOL0     H80116   5.917  11.567   9.351 -3.4198  1.4498  0.9234
  581MOL0     H80117   6.084  11.509   9.218 -1.7285 -1.3283  1.8167
  581MOL0     H80118   5.983  11.418   9.107  0.1201 -0.1257 -0.5507
  581MOL0     H80119   6.022  11.711   9.090 -2.4205  0.8252 -1.3269
  581MOL0     H80120   5.926  11.615   8.975  0.5083  1.0525 -1.0620
  581MOL0     H80121   6.230  11.617   9.027 -2.4351 -2.2801  4.0713
  581MOL0     H80122   6.142  11.499   8.919  0.4637 -0.6008  0.8101
  581MOL0     H80123   6.159  11.804   8.900 -0.4859 -0.8854  1.0294
  581MOL0     H80124   6.062  11.712   8.790  0.7129  2.9546  0.1370
  581MOL0     H80125   6.372  11.695   8.810  1.4791  1.0979 -1.7815
  581MOL0     H80126   6.272  11.609   8.695 -0.4009  0.9304 -2.0221
  581MOL0     H80127   6.211  11.757   8.474 -0.9653 -0.7243  0.1190
  581MOL0     H80128   6.291  11.929   8.289 -2.0909 -0.7527 -0.5500
  581MOL0     H80129   6.326  12.091   8.358 -0.9046  0.5358  0.9906
  581MOL0     H80130   6.122  12.104   8.227  0.8316 -0.6249 -0.3537
  581MOL0     H80131   6.050  11.980   8.336  1.2490 -0.5568 -3.0956
  581MOL0     H80132   6.083  12.156   8.521 -1.2350  0.3751  0.7248
  581MOL0     H80133   6.138  12.268   8.400 -1.5869 -0.3222 -1.9974
  581MOL0     H80134   5.892  12.286   8.451  0.2711  0.1147  0.7517
  581MOL0     H80135   5.932  12.269   8.278 -0.4839  1.6530  0.5651
  581MOL0     H80136   5.642  12.030   8.580  1.4554  3.6802  0.7713
  581MOL0     H80137   5.467  12.076   8.699  1.6889  2.8168 -0.1330
  581MOL0     H80138   5.309  12.032   8.611  0.5000 -1.0642 -0.4778
  581MOL0     H80139   5.336  12.192   8.655 -0.4124 -1.9845  0.2659
  581MOL0     H80140   5.157  12.361   8.078 -3.8884 -0.3772 -4.7215
  581MOL0     H80141   4.924  12.429   7.996  1.9695 -2.2992 -2.2374
  581MOL0     H80142   4.625  12.271   8.242  1.5802 -0.9533 -1.0405
  581MOL0     H80143   4.598  12.434   8.321 -0.5856 -0.9920  0.2130
  581MOL0     H80144   4.485  12.351   8.053 -3.4885 -1.8161  0.4413
  581MOL0     H80145   4.398  12.337   8.200  2.0830 -5.3478 -2.1893
  581MOL0     H80146   4.371  12.568   8.071 -0.6240 -0.2920  1.4239
  581MOL0     H80147   4.540  12.604   8.126  0.9001 -0.4377  2.1394
  581MOL0     H80148   4.457  12.586   8.350 -0.2511 -0.3040  0.0103
  581MOL0     H80149   4.296  12.560   8.291 -0.1579  0.5062  1.7478
  581MOL0     H80150   4.310  12.803   8.348  1.9468  1.8111  0.5101
  581MOL0     H80151   4.469  12.814   8.289  0.9008 -2.1725  3.6429
  581MOL0     H80152   4.201  12.788   8.139 -0.8813  2.3572  1.4627
  581MOL0     H80153   4.355  12.821   8.052 -2.5609 -2.4696 -1.1330
  581MOL0     H80154   4.360  13.040   8.204  0.3559 -0.0550 -1.3977
  581MOL0     H80155   4.190  12.997   8.237 -0.9521  1.8245 -1.1419
  581MOL0     H80156   4.185  12.979   7.969  0.1287  1.1271 -0.2195
  581MOL0     H80157   4.340  13.063   7.989 -0.9335  2.6402  1.4577
  581MOL0     H80158   4.801  12.365   8.406 -1.0279 -3.3740 -0.0680
  581MOL0     H80159   5.031  12.360   8.474  0.2213 -0.1646 -0.0744
  581MOL0     H80160   5.459  12.272   8.195  1.9292  1.2114 -0.5289
  581MOL0     H80161   5.702  12.250   8.207  2.8492 -0.1436 -0.2170
  581MOL0     H80162   5.407  11.599   9.352 -0.4222 -2.0320 -3.1719
  581MOL0     H80163   5.200  11.602   9.480 -0.4866 -0.6392 -0.3659
  581MOL0     H80164   5.037  11.167   9.910  1.5001  1.9472  0.5936
  581MOL0     H80165   4.891  11.193  10.104 -2.4128  0.3927 -0.1432
  581MOL0     H80166   4.828  11.432  10.274 -1.1118 -1.9834  1.8245
  581MOL0     H80167   4.729  11.546  10.178  1.8887  0.7055  0.8349
  581MOL0     H80168   4.624  11.351  10.380  2.9424  2.3072  4.2061
  581MOL0     H80169   4.527  11.464  10.267  0.6124  2.1457 -0.7817
  581MOL0     H80170   4.737  11.548  10.466 -1.7665 -1.0845  2.9661
  581MOL0     H80171   4.621  11.648  10.363 -0.5840  0.4514  0.7503
  581MOL0     H80172   4.553  11.454  10.581 -3.5737 -0.9437  0.2179
  581MOL0     H80173   4.431  11.523  10.474 -1.2157  3.2543 -2.8674
  581MOL0     H80174   4.430  11.840  10.720 -2.4729 -0.4487 -0.8423
  581MOL0     H80175   4.687  11.518   9.933 -4.3260 -4.1941  1.0009
  581MOL0     H80176   4.810  11.475   9.594  2.5471  2.0446 -1.1976
  581MOL0     H80177   4.767  11.608   9.693 -0.6213 -1.4058  2.4210
  581MOL0     H80178   4.935  11.575   9.660  0.4824 -1.0391  1.5758
  582MOL0     O80179  10.676  11.107  10.156  0.1549 -0.2712  0.4894
  582MOL0     C80180  10.586  11.185  10.143 -0.5371 -0.3552 -0.4704
  582MOL0     O80181  10.565  11.291  10.232 -0.0401  0.8840  0.0264
  582MOL0     C80182  10.639  11.344  10.334  0.2076 -0.2169 -0.2381
  582MOL0     C80183  10.755  11.291  10.390 -0.4115 -0.5006 -1.4842
  582MOL0     C80184  10.816  11.355  10.499 -0.1329  1.0710  0.2723
  582MOL0     C80185  10.761  11.469  10.558 -0.4442 -0.0760 -0.6952
  582MOL0     O80186  10.828  11.544  10.642  0.3009  0.0045  0.2431
  582MOL0     C80187  10.763  11.606  10.750 -0.4784  0.6037 -0.3715
  582MOL0     C80188  10.820  11.749  10.768  0.8369  0.0272 -0.3206
  582MOL0     C80189  10.795  11.826  10.634 -0.3310  0.3674  0.8284
  582MOL0     C80190  10.872  11.957  10.635 -0.2536 -0.3419  0.3456
  582MOL0     C80191  10.891  12.007  10.494 -0.4946 -0.7471  0.0813
  582MOL0     C80192  11.001  12.117  10.495 -0.5189 -0.4054 -0.0359
  582MOL0     C80193  11.069  12.145  10.361  0.6733 -0.3434 -0.7092
  582MOL0     C80194  11.128  12.280  10.329 -0.2443  0.0846 -0.7401
  582MOL0     N80195  11.032  12.384  10.324  0.5610  0.5699  0.5934
  582MOL0     C80196  11.043  12.488  10.223 -0.6670  0.6186 -0.0441
  582MOL0     C80197  10.988  12.599  10.274  0.0168  0.2190  0.9090
  582MOL0     C80198  10.965  12.723  10.210  0.4636 -0.5181  0.0393
  582MOL0     C80199  10.815  12.778  10.227  0.2107 -0.5898 -1.2051
  582MOL0     C80200  10.778  12.892  10.131  0.4337  1.3168  0.3777
  582MOL0     C80201  10.823  13.017  10.201 -0.1970 -1.6412  0.3544
  582MOL0     O80202  10.760  13.039  10.323  0.0933  0.4473  0.2895
  582MOL0     C80203  10.707  13.167  10.338 -0.0154  0.5761 -0.2090
  582MOL0     C80204  10.787  13.283  10.321  0.7948 -0.3292  1.0428
  582MOL0     C80205  10.726  13.410  10.322 -0.4832  0.4375  0.5583
  582MOL0     C80206  10.822  13.522  10.268  0.7568  0.9006  0.3217
  582MOL0     C80207  10.595  13.421  10.366  1.1342 -0.8494  0.3539
  582MOL0     C80208  10.523  13.551  10.385  0.1730 -0.2029  0.5692
  582MOL0     O80209  10.396  13.560  10.339 -0.5432 -0.3656  0.3416
  582MOL0     C80210  10.299  13.626  10.424 -0.1317 -0.6610 -1.1114
  582MOL0     C80211  10.299  13.620  10.567 -0.6467 -0.2585  0.1973
  582MOL0     C80212  10.185  13.676  10.631 -0.2877 -0.2845 -0.1053
  582MOL0     C80213  10.092  13.754  10.568  0.0273 -0.0791  0.4049
  582MOL0     O80214   9.978  13.813  10.629  0.5048  0.2235  0.3586
  582MOL0     C80215   9.934  13.738  10.742 -0.9055 -0.6971  0.4511
  582MOL0     C80216   9.797  13.788  10.800  1.0937 -0.5181 -0.0308
  582MOL0     C80217   9.725  13.693  10.901  0.2167  0.2356 -0.3109
  582MOL0     C80218   9.591  13.758  10.952 -0.4631 -0.2614  0.4518
  582MOL0     C80219   9.530  13.684  11.069 -0.1482 -0.2376 -0.4406
  582MOL0     C80220   9.433  13.776  11.160  0.4299 -0.6395 -0.1718
  582MOL0     C80221   9.444  13.736  11.299 -0.6657  0.2864  0.3199
  582MOL0     C80222   9.398  13.594  11.320  0.3574  0.2951 -0.0321
  582MOL0    Cl80223   9.283  13.513  11.202 -0.1607 -0.0240  0.0874
  582MOL0     C80224  10.089  13.747  10.428 -0.0491 -0.0216  0.4887
  582MOL0     C80225  10.195  13.687  10.355  0.6077  0.4427  0.8446
  582MOL0     O80226  10.582  13.638  10.453 -0.0052 -0.4969  0.5323
  582MOL0     C80227  10.522  13.304  10.402 -0.5448  0.4078  0.0403
  582MOL0     C80228  10.575  13.175  10.385 -0.1761 -0.3656  0.3793
  582MOL0     N80229  10.935  12.559  10.402  0.0480 -0.8519 -0.6016
  582MOL0     N80230  10.965  12.443  10.427  0.6501  0.6438 -0.0242
  582MOL0     C80231  10.639  11.516  10.501 -0.1663 -0.3660 -0.0731
  582MOL0     C80232  10.580  11.457  10.390  0.7228 -0.2109 -0.4052
  582MOL0     C80233  10.489  11.171  10.032 -1.1351 -0.7604  0.4852
  582MOL0     C80234  10.358  11.221  10.036 -0.2910  0.2376 -0.4812
  582MOL0     C80235  10.265  11.215   9.939 -0.0831  0.1708  0.1622
  582MOL0     C80236  10.295  11.146   9.815 -0.0254 -0.7074  0.5410
  582MOL0     O80237  10.209  11.132   9.705  0.7568 -0.3751 -0.4295
  582MOL0     C80238  10.071  11.131   9.729  0.3381 -0.0267  0.6390
  582MOL0     C80239  10.015  10.983   9.738 -0.0755 -0.0410  0.5357
  582MOL0     C80240  10.050  10.905   9.878 -0.1269  0.2138  0.3097
  582MOL0     C80241  10.040  10.751   9.862  0.4272 -0.5234 -0.5897
  582MOL0     C80242   9.924  10.691   9.793 -0.2063 -0.5882  0.5295
  582MOL0     C80243   9.835  10.648   9.720  0.4407  0.6768  0.0455
  582MOL0     C80244  10.428  11.098   9.805  0.3344  0.0256  0.2842
  582MOL0     C80245  10.523  11.116   9.909 -0.4252 -0.1997 -0.1258
  582MOL0     C80246  10.656  11.070   9.876  0.0492 -0.2596 -0.2657
  582MOL0     H80247  10.786  11.195  10.351  0.3401 -0.7879 -0.2403
  582MOL0     H80248  10.907  11.315  10.542 -0.4835  0.5577  0.5490
  582MOL0     H80249  10.785  11.548  10.840 -3.6901  1.6754  1.2617
  582MOL0     H80250  10.654  11.609  10.742 -0.4676  2.0999 -0.3353
  582MOL0     H80251  10.765  11.809  10.841  0.5246  0.3983 -0.8509
  582MOL0     H80252  10.923  11.736  10.803  1.0303  0.7740 -0.5777
  582MOL0     H80253  10.836  11.775  10.546 -1.8382  2.0768 -0.9868
  582MOL0     H80254  10.689  11.843  10.613  0.4318  1.8266 -2.4824
  582MOL0     H80255  10.831  12.032  10.703 -1.2243 -0.3820 -0.1881
  582MOL0     H80256  10.969  11.917  10.666 -1.1164 -2.5114  0.4430
  582MOL0     H80257  10.796  12.049  10.459 -1.8409 -2.3778  1.5885
  582MOL0     H80258  10.915  11.928  10.423 -2.7263  0.0037 -1.6187
  582MOL0     H80259  10.950  12.206  10.534  2.9081  1.2735  1.0851
  582MOL0     H80260  11.074  12.098  10.574 -0.8653  0.6627  0.5599
  582MOL0     H80261  10.999  12.122  10.280 -1.2123  0.8311  0.5190
  582MOL0     H80262  11.149  12.072  10.345  0.3796 -0.7963 -0.1346
  582MOL0     H80263  11.201  12.306  10.406  2.4919 -2.0048 -2.4399
  582MOL0     H80264  11.189  12.270  10.238  0.9591 -0.1719  0.0713
  582MOL0     H80265  11.081  12.480  10.121  1.9435  0.5855  0.8595
  582MOL0     H80266  10.992  12.710  10.104 -1.6194  2.2413 -0.9468
  582MOL0     H80267  11.017  12.809  10.254 -3.0165  1.0944  1.3233
  582MOL0     H80268  10.744  12.698  10.206  1.6574 -1.6230 -2.3663
  582MOL0     H80269  10.813  12.821  10.328  0.7603  4.4314 -3.0519
  582MOL0     H80270  10.838  12.878  10.041 -0.9357 -1.6627 -0.2174
  582MOL0     H80271  10.670  12.879  10.118  0.6998 -1.8531  0.6796
  582MOL0     H80272  10.929  13.002  10.223 -0.0903 -3.0570 -1.0099
  582MOL0     H80273  10.807  13.094  10.126  1.2670 -2.5842 -0.9671
  582MOL0     H80274  10.890  13.274  10.288  1.6158  2.1832  2.6414
  582MOL0     H80275  10.876  13.473  10.186  1.5914 -0.1287  1.4475
  582MOL0     H80276  10.896  13.543  10.346 -2.2687 -1.1677  4.1608
  582MOL0     H80277  10.768  13.612  10.240 -3.1442 -1.7168 -1.4282
  582MOL0     H80278  10.368  13.549  10.611  1.0836 -0.1334 -2.1372
  582MOL0     H80279  10.190  13.659  10.739 -0.3885 -0.6430 -0.1524
  582MOL0     H80280   9.913  13.639  10.699 -4.9194  0.1841  0.0007
  582MOL0     H80281  10.003  13.739  10.826  0.7802  0.9092 -0.8825
  582MOL0     H80282   9.809  13.889  10.840  1.8558 -1.5020  2.4356
  582MOL0     H80283   9.746  13.799  10.704  2.7223  0.3415 -0.8411
  582MOL0     H80284   9.778  13.703  10.996  0.0634 -0.0600 -0.1920
  582MOL0     H80285   9.711  13.588  10.871  0.9310  0.6485 -2.2191
  582MOL0     H80286   9.516  13.749  10.872 -1.2926 -2.7607  1.3920
  582MOL0     H80287   9.601  13.864  10.976 -4.8075 -0.0080  2.1306
  582MOL0     H80288   9.478  13.593  11.038  0.3398  0.1233 -2.4400
  582MOL0     H80289   9.613  13.643  11.128 -0.1886  2.1154  1.4137
  582MOL0     H80290   9.331  13.764  11.123  0.3085  0.8895 -0.4134
  582MOL0     H80291   9.455  13.883  11.147 -0.5520 -0.8033 -6.8288
  582MOL0     H80292   9.372  13.793  11.357  2.6132  1.6768  3.4124
  582MOL0     H80293   9.538  13.761  11.350 -2.2528  0.5570  3.2770
  582MOL0     H80294   9.355  13.580  11.419 -2.3611 -1.3260 -1.3299
  582MOL0     H80295   9.483  13.525  11.325 -1.5364 -2.0883  1.6505
  582MOL0     H80296  10.004  13.792  10.377  0.2735  0.5581  0.4562
  582MOL0     H80297  10.194  13.692  10.247 -0.5821  0.6911  0.8490
  582MOL0     H80298  10.421  13.309  10.443 -0.6008 -1.0768  0.1443
  582MOL0     H80299  10.514  13.087  10.401  0.4333 -1.0555 -0.9520
  582MOL0     H80300  10.595  11.613  10.524 -2.2705 -2.0457  4.0002
  582MOL0     H80301  10.487  11.489  10.344  0.6183 -1.1968 -0.9046
  582MOL0     H80302  10.336  11.263  10.133  0.4628  1.7353 -0.9282
  582MOL0     H80303  10.171  11.264   9.958 -0.8022 -1.9126  2.4974
  582MOL0     H80304  10.042  11.199   9.809 -1.6250 -1.4739  1.2216
  582MOL0     H80305  10.024  11.169   9.638  1.4144  2.3238  0.9882
  582MOL0     H80306  10.062  10.926   9.657 -0.6663  0.3066 -0.0607
  582MOL0     H80307   9.906  10.987   9.731 -0.2752 -0.8885  2.6075
  582MOL0     H80308  10.153  10.926   9.910 -0.1169  1.2056 -0.3107
  582MOL0     H80309   9.972  10.929   9.951 -0.8504 -0.9266 -0.0612
  582MOL0     H80310  10.044  10.700   9.959 -1.7678 -1.9214 -1.1566
  582MOL0     H80311  10.132  10.719   9.812 -0.2571 -0.6228 -1.8064
  582MOL0     H80312   9.759  10.614   9.652 -0.4824  0.6473  1.0701
  582MOL0     H80313  10.444  11.062   9.704 -2.7100  4.5433 -2.2013
  582MOL0     H80314  10.655  11.059   9.767 -0.7239 -1.4883 -0.1601
  582MOL0     H80315  10.728  11.146   9.908 -0.5293 -0.1526  0.8422
  582MOL0     H80316  10.679  10.975   9.925 -1.8987 -0.1477  0.9992
  583MOL0     O80317   2.405   4.546   2.406  0.2251  0.2607  0.0619
  583MOL0     C80318   2.469   4.440   2.394 -0.2079 -0.0553  0.0955
  583MOL0     O80319   2.440   4.337   2.316  0.1881 -0.0964  0.2885
  583MOL0     C80320   2.315   4.331   2.262 -1.3097  0.2482  0.3622
  583MOL0     C80321   2.227   4.223   2.287  1.1513  0.2743  0.3342
  583MOL0     C80322   2.091   4.210   2.232 -0.6125  0.3480  0.0836
  583MOL0     C80323   2.046   4.315   2.154  0.0165 -0.1211  0.6247
  583MOL0     O80324   1.927   4.299   2.094  0.1853  0.3425  0.5893
  583MOL0     C80325   1.854   4.416   2.079 -0.3708  0.5431  0.3320
  583MOL0     C80326   1.727   4.376   2.146 -1.4736 -0.1476  0.2867
  583MOL0     C80327   1.640   4.492   2.158  0.2641 -0.4056 -0.0127
  583MOL0     C80328   1.693   4.596   2.271 -0.0558  0.8286  0.1615
  583MOL0     C80329   1.600   4.729   2.260  0.0732 -0.0358  0.5222
  583MOL0     C80330   1.657   4.823   2.363 -0.3676  0.7042  0.3512
  583MOL0     C80331   1.590   4.960   2.376 -0.7079  0.4397  0.3571
  583MOL0     C80332   1.651   5.019   2.511  0.5496  0.4682 -0.4752
  583MOL0     N80333   1.612   5.171   2.519  0.1350  1.0375 -0.0576
  583MOL0     C80334   1.699   5.272   2.531  0.0569 -0.1258 -0.2074
  583MOL0     C80335   1.623   5.385   2.542 -0.0506  0.9262 -0.1775
  583MOL0     C80336   1.680   5.520   2.565  0.4496 -0.2706 -0.0802
  583MOL0     C80337   1.658   5.614   2.438 -1.0024 -1.3651 -0.1216
  583MOL0     C80338   1.721   5.561   2.312  0.5986  0.8665 -0.2996
  583MOL0     C80339   1.821   5.656   2.233  0.1271  1.0022 -0.8465
  583MOL0     O80340   1.738   5.757   2.181 -0.0979 -0.3648 -0.1766
  583MOL0     C80341   1.792   5.813   2.064  0.1354  0.3803 -0.3574
  583MOL0     C80342   1.697   5.900   1.997 -0.5254  0.8424  0.6839
  583MOL0     C80343   1.736   5.974   1.889  0.1702  0.5017 -0.2658
  583MOL0     C80344   1.641   6.087   1.852 -0.7184 -0.4136  0.0140
  583MOL0     C80345   1.870   5.975   1.849 -0.4158  0.5932 -0.3037
  583MOL0     C80346   1.916   6.056   1.742 -0.2397 -1.1113 -1.2138
  583MOL0     O80347   2.026   6.130   1.765  0.2508 -0.1968  0.3886
  583MOL0     C80348   2.087   6.177   1.648 -0.1844 -0.3316 -1.2868
  583MOL0     C80349   2.194   6.102   1.589  1.0416  0.7833  0.6470
  583MOL0     C80350   2.240   6.135   1.462 -0.2752 -0.3775 -0.0113
  583MOL0     C80351   2.192   6.253   1.399  0.1283  0.6931  0.3645
  583MOL0     O80352   2.238   6.297   1.278 -0.0019 -0.8684  0.1328
  583MOL0     C80353   2.209   6.200   1.176 -0.5753 -0.6510  0.8129
  583MOL0     C80354   2.208   6.292   1.049  0.2225  0.6131  0.0648
  583MOL0     C80355   2.177   6.209   0.922 -0.2920 -0.6414 -0.2751
  583MOL0     C80356   2.144   6.312   0.813 -0.4791 -0.1977  0.1196
  583MOL0     C80357   2.283   6.354   0.740 -0.3768  0.2444  0.7311
  583MOL0     C80358   2.240   6.422   0.604 -0.3525  0.0829  0.2703
  583MOL0     C80359   2.362   6.478   0.517 -0.1419  0.9446  0.4624
  583MOL0     C80360   2.319   6.534   0.376 -0.2691 -0.1672  0.0398
  583MOL0    Cl80361   2.294   6.395   0.263 -0.3422 -0.3363  0.3859
  583MOL0     C80362   2.102   6.336   1.465 -0.6098  0.2341 -0.1019
  583MOL0     C80363   2.046   6.292   1.582  0.8604  0.0430  0.2296
  583MOL0     O80364   1.873   6.039   1.628 -0.8632  0.0807  0.0862
  583MOL0     C80365   1.958   5.889   1.910 -0.3783 -0.1547  0.1309
  583MOL0     C80366   1.922   5.797   2.003  1.0207  1.0298 -0.3853
  583MOL0     N80367   1.482   5.344   2.539 -1.3771  0.3651  0.7893
  583MOL0     N80368   1.487   5.217   2.517  0.4095  0.2409  0.4835
  583MOL0     C80369   2.137   4.423   2.128  0.4085  0.9461  0.9741
  583MOL0     C80370   2.272   4.421   2.174 -0.5807  1.0887  0.7317
  583MOL0     C80371   2.596   4.446   2.477  0.1674  1.5242  0.2621
  583MOL0     C80372   2.680   4.558   2.475 -0.6527 -0.5574  0.1271
  583MOL0     C80373   2.793   4.564   2.552 -0.2176 -1.3999 -0.5126
  583MOL0     C80374   2.832   4.458   2.639 -0.0233 -0.9875  0.1374
  583MOL0     O80375   2.937   4.458   2.715 -0.4205 -0.0450  0.2874
  583MOL0     C80376   2.982   4.336   2.786  0.1610 -1.0216 -0.2053
  583MOL0     C80377   3.105   4.381   2.870  0.2311  0.0863 -0.4393
  583MOL0     C80378   3.245   4.366   2.797  0.6508  0.3888  0.4872
  583MOL0     C80379   3.364   4.427   2.873 -0.1940 -0.2482  0.3448
  583MOL0     C80380   3.406   4.377   3.004 -0.0923 -0.8119 -1.1151
  583MOL0     C80381   3.444   4.338   3.111  0.6799 -0.2395  0.0307
  583MOL0     C80382   2.759   4.341   2.626 -0.5889  0.3070  0.2833
  583MOL0     C80383   2.643   4.331   2.547  0.6661 -0.9019  0.3920
  583MOL0     C80384   2.566   4.205   2.553 -0.0213 -0.5334 -0.1236
  583MOL0     H80385   2.272   4.149   2.352 -1.7102  0.3229  2.5810
  583MOL0     H80386   2.039   4.115   2.243  2.2868 -1.2817  0.8701
  583MOL0     H80387   1.837   4.438   1.974 -1.8760  1.6467  0.7764
  583MOL0     H80388   1.908   4.495   2.131  4.6993 -2.4656  0.2780
  583MOL0     H80389   1.681   4.292   2.094 -2.3430  2.5464 -3.8224
  583MOL0     H80390   1.738   4.333   2.246 -3.5550  2.2487  1.6392
  583MOL0     H80391   1.634   4.538   2.059  2.1226 -0.8017 -0.3605
  583MOL0     H80392   1.540   4.465   2.192  0.4767 -1.0713  0.1007
  583MOL0     H80393   1.679   4.553   2.371  0.1272 -1.5431 -0.7784
  583MOL0     H80394   1.794   4.637   2.262 -1.4677  4.2858 -1.4696
  583MOL0     H80395   1.497   4.713   2.292 -1.0144  2.7688 -1.2324
  583MOL0     H80396   1.606   4.779   2.163 -3.0726  2.6672  1.5466
  583MOL0     H80397   1.654   4.768   2.457 -0.0642 -0.6972 -0.4152
  583MOL0     H80398   1.761   4.838   2.330  0.0689  0.3392  1.5106
  583MOL0     H80399   1.482   4.948   2.388 -0.6882  1.3359  1.6964
  583MOL0     H80400   1.594   5.021   2.285 -3.7783  2.7261  1.5912
  583MOL0     H80401   1.614   4.965   2.599  2.8085 -0.6700 -0.1665
  583MOL0     H80402   1.760   5.015   2.519  0.4972 -0.8508 -0.2088
  583MOL0     H80403   1.808   5.266   2.532  0.0954  0.3877 -0.7341
  583MOL0     H80404   1.787   5.498   2.576  0.2817 -0.9884  0.1422
  583MOL0     H80405   1.644   5.566   2.657 -1.5823 -0.5770 -0.6800
  583MOL0     H80406   1.548   5.620   2.433 -0.9660  0.4548  0.4585
  583MOL0     H80407   1.697   5.714   2.456  0.2659 -1.7390 -0.7363
  583MOL0     H80408   1.781   5.473   2.337 -1.8084 -0.1632  2.4003
  583MOL0     H80409   1.639   5.530   2.246 -1.0119  0.0879  1.9362
  583MOL0     H80410   1.889   5.680   2.315  0.2037 -4.3062  1.0619
  583MOL0     H80411   1.881   5.594   2.165  0.2251  1.9586 -1.6488
  583MOL0     H80412   1.594   5.913   2.026 -1.4922  2.5162 -2.8932
  583MOL0     H80413   1.666   6.132   1.756  0.0050  0.2222  0.4806
  583MOL0     H80414   1.638   6.169   1.926 -4.2707  1.1371 -1.6193
  583MOL0     H80415   1.545   6.036   1.847  0.2212 -2.8978  3.4361
  583MOL0     H80416   2.210   6.002   1.629 -1.3664 -0.8162 -2.0304
  583MOL0     H80417   2.302   6.060   1.413 -1.0839 -2.8055  2.4613
  583MOL0     H80418   2.282   6.119   1.175  1.0169  0.7352  1.4629
  583MOL0     H80419   2.108   6.161   1.191 -0.6358  0.0915  2.5462
  583MOL0     H80420   2.128   6.363   1.074 -1.2418 -2.1155  4.3675
  583MOL0     H80421   2.295   6.357   1.045 -0.4895  1.6885  1.1942
  583MOL0     H80422   2.093   6.142   0.941  0.0342 -0.8947  0.2855
  583MOL0     H80423   2.262   6.147   0.892  0.3632  1.3621 -2.9340
  583MOL0     H80424   2.084   6.399   0.839  0.1793  0.2247  0.2543
  583MOL0     H80425   2.090   6.254   0.737 -0.7787  1.9770 -1.4140
  583MOL0     H80426   2.348   6.414   0.805  3.3252 -3.1824  0.6370
  583MOL0     H80427   2.338   6.265   0.707 -1.5069 -0.6071  1.0647
  583MOL0     H80428   2.183   6.513   0.622  0.3576  0.4746  0.5805
  583MOL0     H80429   2.198   6.345   0.539  1.3285 -1.3123  0.7416
  583MOL0     H80430   2.437   6.404   0.487 -1.5760  1.0999 -4.4109
  583MOL0     H80431   2.411   6.544   0.589  0.9509  0.0605  0.5689
  583MOL0     H80432   2.407   6.588   0.342  1.1224 -1.5215  1.3336
  583MOL0     H80433   2.232   6.600   0.382 -1.9686 -2.1379 -1.4809
  583MOL0     H80434   2.081   6.437   1.434 -2.3738 -0.4508 -1.2550
  583MOL0     H80435   1.970   6.356   1.625  1.4726  2.1244 -1.5926
  583MOL0     H80436   2.057   5.891   1.865 -0.2971 -1.3317  0.2171
  583MOL0     H80437   1.989   5.724   2.048 -0.1836 -0.2758 -0.6411
  583MOL0     H80438   2.123   4.507   2.062  1.0907  2.0468  2.1762
  583MOL0     H80439   2.337   4.502   2.144 -1.0478  1.1681 -0.0948
  583MOL0     H80440   2.653   4.652   2.427 -1.3196  0.2487  1.9951
  583MOL0     H80441   2.852   4.655   2.543  0.9455 -1.9100  1.4520
  583MOL0     H80442   2.909   4.289   2.853 -2.0030  1.6679 -0.4974
  583MOL0     H80443   3.012   4.264   2.709 -0.9805 -0.8353 -0.8396
  583MOL0     H80444   3.106   4.321   2.961  2.4386 -0.8139 -0.9931
  583MOL0     H80445   3.094   4.483   2.907  2.9188 -0.0990  1.0903
  583MOL0     H80446   3.254   4.258   2.780  0.6036  0.3871  0.4725
  583MOL0     H80447   3.227   4.414   2.700 -0.3814 -3.2456 -1.3064
  583MOL0     H80448   3.351   4.535   2.888 -2.4100 -0.3730 -0.2671
  583MOL0     H80449   3.450   4.431   2.806  0.8724 -0.1501  1.6595
  583MOL0     H80450   3.485   4.305   3.204 -0.4079  1.6808  1.2447
  583MOL0     H80451   2.773   4.259   2.696 -4.3015 -1.1264 -0.3532
  583MOL0     H80452   2.585   4.155   2.649 -0.7758 -1.5590 -0.4881
  583MOL0     H80453   2.461   4.232   2.565  0.6106  1.8477  0.6482
  583MOL0     H80454   2.591   4.130   2.477  3.4978  1.8598 -1.5645
  584MOL0     O80455   3.014   4.881  10.196 -0.0336 -0.3902 -0.3383
  584MOL0     C80456   3.120   4.929  10.227 -0.0850  0.4250  0.0772
  584MOL0     O80457   3.204   4.980  10.133  0.0068  0.1619 -0.3468
  584MOL0     C80458   3.160   5.000  10.004  0.1982 -0.1748 -0.2156
  584MOL0     C80459   3.048   5.075   9.980 -0.4730  0.6201 -0.4912
  584MOL0     C80460   3.020   5.091   9.844  1.1621  0.4414 -0.5580
  584MOL0     C80461   3.101   5.048   9.740  0.2851  0.0055 -0.5852
  584MOL0     O80462   3.043   5.073   9.618 -0.7930  0.2058 -0.3117
  584MOL0     C80463   3.117   5.030   9.500  0.3916 -0.2406 -0.7096
  584MOL0     C80464   3.044   5.096   9.381  0.6577  0.3448  0.3615
  584MOL0     C80465   3.038   5.249   9.398  0.4460 -0.4231  0.0715
  584MOL0     C80466   3.004   5.328   9.260 -0.1120 -1.3485 -0.6748
  584MOL0     C80467   3.056   5.473   9.261 -0.8567  0.5782 -0.3175
  584MOL0     C80468   3.112   5.506   9.123 -0.6431  0.2374 -0.4774
  584MOL0     C80469   3.148   5.653   9.124  0.0221 -0.8283 -0.3575
  584MOL0     C80470   3.202   5.708   8.992 -0.2575  0.1096 -0.3787
  584MOL0     N80471   3.322   5.638   8.949 -0.2988  0.1730  0.0254
  584MOL0     C80472   3.445   5.678   8.993 -0.3790 -0.8479  0.3814
  584MOL0     C80473   3.532   5.614   8.910 -0.2057  0.5056  0.6177
  584MOL0     C80474   3.683   5.626   8.915 -1.7492  0.0332  0.1599
  584MOL0     C80475   3.753   5.576   8.786 -0.3485  0.3709  0.9298
  584MOL0     C80476   3.762   5.418   8.764  0.0575  0.2289  0.1744
  584MOL0     C80477   3.833   5.378   8.634  0.0557 -0.1577  0.3604
  584MOL0     O80478   3.935   5.468   8.587 -0.4515  0.1726 -0.3403
  584MOL0     C80479   4.061   5.452   8.635 -0.0398 -0.4575 -0.3804
  584MOL0     C80480   4.168   5.458   8.548 -0.6703 -0.1738  0.0274
  584MOL0     C80481   4.301   5.452   8.596 -0.2306 -0.0266  0.0583
  584MOL0     C80482   4.402   5.467   8.486 -0.3088  0.1743  0.1499
  584MOL0     C80483   4.327   5.430   8.731  0.9305 -0.9784  0.5477
  584MOL0     C80484   4.456   5.401   8.788  0.2554  0.0756 -0.2834
  584MOL0     O80485   4.459   5.297   8.890 -0.2318 -0.4102  0.2512
  584MOL0     C80486   4.573   5.298   8.967 -0.0402 -0.6086  0.5976
  584MOL0     C80487   4.645   5.180   8.949 -0.2603  0.0037  0.5333
  584MOL0     C80488   4.767   5.161   9.025 -0.1492  0.7380 -0.8427
  584MOL0     C80489   4.811   5.253   9.124 -0.3053 -0.0602  0.8108
  584MOL0     O80490   4.922   5.207   9.188 -0.2279  0.8153  1.0954
  584MOL0     C80491   4.925   5.215   9.329 -0.6352 -0.7378 -0.6541
  584MOL0     C80492   5.039   5.314   9.371 -0.4476  0.3019  0.1516
  584MOL0     C80493   5.004   5.469   9.351 -0.4236 -0.0754 -0.4442
  584MOL0     C80494   4.903   5.514   9.460 -0.3116 -0.2143  0.8785
  584MOL0     C80495   4.868   5.663   9.438  0.3420  0.2580  0.3824
  584MOL0     C80496   4.841   5.737   9.568 -0.7814 -0.6409  0.2010
  584MOL0     C80497   4.706   5.701   9.624  0.1517  0.0811  0.8414
  584MOL0     C80498   4.653   5.826   9.690  0.7357 -0.9097 -0.0334
  584MOL0    Cl80499   4.494   5.787   9.743  0.3006 -0.0762 -0.2364
  584MOL0     C80500   4.734   5.364   9.137 -0.0857  0.3186  0.1024
  584MOL0     C80501   4.614   5.387   9.064 -0.2213  0.7786  0.5967
  584MOL0     O80502   4.554   5.467   8.753  0.0071  0.2203  0.1797
  584MOL0     C80503   4.217   5.431   8.810 -0.3170  0.3171  0.4301
  584MOL0     C80504   4.089   5.432   8.765  0.5989 -0.8312 -0.2035
  584MOL0     N80505   3.465   5.539   8.806  0.6447 -0.6653  0.3261
  584MOL0     N80506   3.342   5.564   8.835  0.2670 -0.1462 -0.1127
  584MOL0     C80507   3.217   4.987   9.772 -0.2797  0.1508 -0.9499
  584MOL0     C80508   3.245   4.956   9.904  0.9371  0.5100  0.9788
  584MOL0     C80509   3.167   4.926  10.372  0.2661 -0.6638  0.0234
  584MOL0     C80510   3.303   4.953  10.400  2.1521 -0.3106  0.6755
  584MOL0     C80511   3.351   4.980  10.532  0.1338  0.0218  0.5296
  584MOL0     C80512   3.267   4.971  10.642 -1.5078  1.2551  1.4335
  584MOL0     O80513   3.322   4.986  10.766 -0.2538 -0.1067  0.3153
  584MOL0     C80514   3.237   5.017  10.882  0.2264  0.9275  0.6422
  584MOL0     C80515   3.317   5.086  10.991 -0.7038  0.4302 -0.8592
  584MOL0     C80516   3.241   5.199  11.061  0.1518 -0.0134  0.5998
  584MOL0     C80517   3.255   5.321  10.965 -0.2197  0.1003  0.1887
  584MOL0     C80518   3.367   5.400  11.029  0.0698 -0.3351  0.7094
  584MOL0     C80519   3.469   5.451  11.066  0.0741 -0.2192  0.4189
  584MOL0     C80520   3.128   4.951  10.620  0.7977  0.0729 -0.4773
  584MOL0     C80521   3.082   4.933  10.484 -0.2976 -0.3942 -0.4329
  584MOL0     C80522   2.930   4.935  10.486  0.1856 -0.2370 -0.3856
  584MOL0     H80523   2.986   5.114  10.060  1.2932 -1.0220  1.7903
  584MOL0     H80524   2.928   5.147   9.832  1.7225  1.4129 -0.4104
  584MOL0     H80525   3.111   4.921   9.501  0.2314 -0.2294  0.1597
  584MOL0     H80526   3.216   5.075   9.514  0.4321 -0.7680  0.8256
  584MOL0     H80527   3.095   5.066   9.289 -1.1196  1.5578 -1.1073
  584MOL0     H80528   2.943   5.055   9.376  0.1708  1.6510 -1.9643
  584MOL0     H80529   2.968   5.269   9.479  0.1688  0.0890 -0.2925
  584MOL0     H80530   3.140   5.281   9.422  0.4287  1.5084 -2.0441
  584MOL0     H80531   3.058   5.270   9.185  2.9516 -2.2016  1.9255
  584MOL0     H80532   2.897   5.335   9.243 -1.0004  3.4572  4.1264
  584MOL0     H80533   3.138   5.480   9.333  0.6428 -0.3283 -1.8599
  584MOL0     H80534   2.975   5.541   9.285  0.6758  2.0612  0.9252
  584MOL0     H80535   3.191   5.434   9.097 -0.1582  0.9019 -0.8945
  584MOL0     H80536   3.029   5.493   9.054 -1.1484 -0.6178  0.2846
  584MOL0     H80537   3.225   5.672   9.200 -0.3999  0.0359 -0.1392
  584MOL0     H80538   3.055   5.707   9.144 -0.3593 -0.6228 -2.4521
  584MOL0     H80539   3.132   5.686   8.911  0.3921 -0.2051 -0.8566
  584MOL0     H80540   3.222   5.815   8.995  1.6279 -0.2329  1.6684
  584MOL0     H80541   3.463   5.754   9.068  0.8168  1.2114 -1.8559
  584MOL0     H80542   3.715   5.583   9.010  0.1029 -2.7898 -1.5796
  584MOL0     H80543   3.708   5.731   8.932 -3.7296  0.0452  3.9531
  584MOL0     H80544   3.693   5.614   8.702 -3.6090 -3.1448  1.4044
  584MOL0     H80545   3.855   5.615   8.781 -0.7433  1.3435 -0.1306
  584MOL0     H80546   3.807   5.372   8.853 -0.5799 -2.1899 -0.6928
  584MOL0     H80547   3.659   5.382   8.759 -1.0143  3.2495 -2.3927
  584MOL0     H80548   3.883   5.281   8.643  2.7090  0.7245 -2.8743
  584MOL0     H80549   3.754   5.367   8.559 -0.3828  0.9680  0.6477
  584MOL0     H80550   4.146   5.472   8.442 -1.5701  1.0130  0.3604
  584MOL0     H80551   4.427   5.571   8.462  1.2874 -0.4575 -1.0674
  584MOL0     H80552   4.362   5.433   8.390  2.2778 -2.0744 -0.2432
  584MOL0     H80553   4.493   5.409   8.505  2.0497  3.4289 -0.3539
  584MOL0     H80554   4.603   5.099   8.889  0.4472  1.5012 -2.1306
  584MOL0     H80555   4.834   5.075   9.018 -1.1440 -0.3316  1.5744
  584MOL0     H80556   4.824   5.231   9.369 -0.3471 -1.3403  0.3659
  584MOL0     H80557   4.960   5.119   9.369  0.6273  0.9611  2.7029
  584MOL0     H80558   5.062   5.284   9.474 -0.5106  2.4635  0.8605
  584MOL0     H80559   5.124   5.281   9.311 -0.2011  0.4871  0.3933
  584MOL0     H80560   4.973   5.476   9.246 -0.1150 -1.7694 -0.6879
  584MOL0     H80561   5.092   5.533   9.360  0.4808 -1.4303  0.8549
  584MOL0     H80562   4.944   5.497   9.560 -2.0766  1.5485  1.9927
  584MOL0     H80563   4.809   5.459   9.452 -0.6583  0.6115 -1.5838
  584MOL0     H80564   4.958   5.711   9.398 -0.2040  3.1167  2.2836
  584MOL0     H80565   4.791   5.684   9.363  2.3026  0.9889 -1.5206
  584MOL0     H80566   4.865   5.839   9.538  3.6762 -1.9233 -1.4325
  584MOL0     H80567   4.912   5.723   9.650 -1.3862 -0.9642  0.6854
  584MOL0     H80568   4.711   5.626   9.704  0.3888  0.4819  1.2074
  584MOL0     H80569   4.637   5.660   9.550  1.7293 -0.7175 -0.2485
  584MOL0     H80570   4.639   5.902   9.613 -0.4606 -1.6386 -0.5531
  584MOL0     H80571   4.713   5.855   9.777  2.1496  0.8198 -1.5246
  584MOL0     H80572   4.768   5.446   9.200 -1.2346 -0.0522  1.2277
  584MOL0     H80573   4.563   5.481   9.081 -0.0473  1.2616 -1.2652
  584MOL0     H80574   4.223   5.416   8.917  1.8656  1.0524  0.4518
  584MOL0     H80575   4.005   5.429   8.833 -2.8095 -1.3739 -4.0265
  584MOL0     H80576   3.283   4.942   9.699  2.6216  0.7887  1.1081
  584MOL0     H80577   3.333   4.905   9.941  2.2917  2.2530  0.2764
  584MOL0     H80578   3.375   4.957  10.319  1.7192  3.1334  0.2823
  584MOL0     H80579   3.458   4.999  10.532  0.2655  0.1065 -3.4909
  584MOL0     H80580   3.153   5.080  10.853 -0.6604 -0.3391  0.3775
  584MOL0     H80581   3.193   4.926  10.925  1.7843 -1.0125 -1.6430
  584MOL0     H80582   3.407   5.126  10.943 -0.1864 -2.8636 -2.9479
  584MOL0     H80583   3.331   5.003  11.061 -2.1267 -1.6599 -2.9049
  584MOL0     H80584   3.140   5.158  11.062 -0.1604  0.4929 -2.0200
  584MOL0     H80585   3.275   5.229  11.160 -1.4054  0.4663  1.0184
  584MOL0     H80586   3.160   5.374  10.954  0.3457  0.5936 -3.4036
  584MOL0     H80587   3.286   5.287  10.866 -3.8736  1.0840 -1.4818
  584MOL0     H80588   3.554   5.508  11.098  0.1743 -0.8837  1.3995
  584MOL0     H80589   3.059   4.951  10.704 -1.3623  1.9360 -2.1114
  584MOL0     H80590   2.884   5.014  10.425 -0.4115  0.1742  0.5743
  584MOL0     H80591   2.874   4.849  10.448 -2.5192 -0.1097  2.8965
  584MOL0     H80592   2.896   4.953  10.588 -2.1895 -0.7621 -1.0158
  585MOL0     O80593   4.622   4.040   8.034 -0.4790  0.4198 -0.3197
  585MOL0     C80594   4.716   4.068   7.956 -0.0487 -0.5617  0.1833
  585MOL0     O80595   4.803   3.983   7.894  0.2684  0.3368 -0.0392
  585MOL0     C80596   4.789   3.846   7.902 -0.5208 -0.0537  0.8066
  585MOL0     C80597   4.769   3.782   8.016 -1.0276 -0.6100  0.3294
  585MOL0     C80598   4.759   3.644   8.019 -0.2061 -0.7984 -0.0281
  585MOL0     C80599   4.747   3.563   7.898 -0.6263 -0.1916 -0.2386
  585MOL0     O80600   4.729   3.424   7.903 -1.0294 -0.4616 -0.2713
  585MOL0     C80601   4.789   3.353   7.787  0.4450  0.3838  0.0913
  585MOL0     C80602   4.666   3.299   7.714  0.0967  0.4483  0.1175
  585MOL0     C80603   4.587   3.184   7.789 -0.1652 -0.3926  0.2801
  585MOL0     C80604   4.671   3.067   7.833 -0.3382 -1.0925  0.6263
  585MOL0     C80605   4.578   2.955   7.895  0.0051 -0.3535  0.0199
  585MOL0     C80606   4.550   2.979   8.050  0.0772  0.1215  0.0948
  585MOL0     C80607   4.419   2.918   8.089 -0.9595 -0.0257  0.7408
  585MOL0     C80608   4.379   2.922   8.236  0.1047  0.1407 -0.8334
  585MOL0     N80609   4.482   2.862   8.319  0.2500  0.4740  0.0973
  585MOL0     C80610   4.559   2.937   8.399 -0.4480  0.8991 -0.5394
  585MOL0     C80611   4.607   2.844   8.489 -0.0387  0.1968  0.2331
  585MOL0     C80612   4.678   2.860   8.616 -0.5147 -1.0116  0.6893
  585MOL0     C80613   4.623   2.782   8.724 -0.5306 -0.2792 -0.7995
  585MOL0     C80614   4.633   2.862   8.860  0.0216  0.2497  0.4230
  585MOL0     C80615   4.771   2.865   8.912  0.9989 -0.9205 -0.2166
  585MOL0     O80616   4.823   2.731   8.916  1.1455  0.2041  0.2120
  585MOL0     C80617   4.940   2.711   8.986  0.5477 -0.3528  0.0442
  585MOL0     C80618   4.988   2.583   8.995  1.3233 -0.4007  0.4100
  585MOL0     C80619   5.104   2.554   9.063 -0.2105  0.2215 -0.3676
  585MOL0     C80620   5.156   2.412   9.079 -0.3082  0.5436 -0.5912
  585MOL0     C80621   5.185   2.655   9.118  0.2573 -0.5383 -0.2406
  585MOL0     C80622   5.313   2.633   9.182  0.7882  0.5551 -0.0744
  585MOL0     O80623   5.331   2.682   9.306  0.2650  0.5868  0.0072
  585MOL0     C80624   5.223   2.714   9.387 -0.4425  0.3589 -0.0199
  585MOL0     C80625   5.118   2.621   9.432 -0.8637  0.4435 -1.0321
  585MOL0     C80626   5.016   2.659   9.520  0.3884  0.0775 -0.1417
  585MOL0     C80627   5.033   2.787   9.580  0.5291  1.3240 -0.0700
  585MOL0     O80628   4.956   2.830   9.685 -0.2876  0.1336 -0.7540
  585MOL0     C80629   4.812   2.807   9.683  0.1313 -0.3989  0.5612
  585MOL0     C80630   4.743   2.946   9.671  0.3446  0.7648 -0.3983
  585MOL0     C80631   4.583   2.920   9.660 -0.4219  0.1886  0.0393
  585MOL0     C80632   4.508   3.054   9.695 -0.0346 -0.1736 -0.2726
  585MOL0     C80633   4.355   3.043   9.663 -0.6256  0.4912  0.0929
  585MOL0     C80634   4.279   3.175   9.660 -0.2431  0.2166 -0.0758
  585MOL0     C80635   4.124   3.140   9.652 -0.1811 -0.3992 -1.2993
  585MOL0     C80636   4.045   3.262   9.643 -0.1462  1.0631 -0.0557
  585MOL0    Cl80637   3.879   3.198   9.630  0.1394 -0.3364  0.2162
  585MOL0     C80638   5.147   2.870   9.555  1.1389 -1.0371  0.7877
  585MOL0     C80639   5.242   2.829   9.465 -0.3334  0.4241  0.1788
  585MOL0     O80640   5.402   2.580   9.120  0.4744  0.2569 -0.4061
  585MOL0     C80641   5.130   2.787   9.122 -0.0075  0.0117 -0.1960
  585MOL0     C80642   5.012   2.812   9.057  0.5527 -0.3289  0.6608
  585MOL0     N80643   4.570   2.719   8.457  0.0632  0.1901  0.1438
  585MOL0     N80644   4.489   2.727   8.355 -0.2341 -0.0787 -0.6283
  585MOL0     C80645   4.761   3.634   7.781 -1.1455  1.1245  0.6983
  585MOL0     C80646   4.800   3.774   7.776 -0.0847 -0.3224  0.2383
  585MOL0     C80647   4.733   4.207   7.926  0.0045 -0.3598 -0.8553
  585MOL0     C80648   4.764   4.295   8.031  0.4066  0.1830  0.7453
  585MOL0     C80649   4.807   4.420   8.004  0.0808  0.5039 -0.1922
  585MOL0     C80650   4.799   4.475   7.876  0.5858  0.1871  0.4679
  585MOL0     O80651   4.829   4.601   7.856 -0.2728  0.3957 -0.2238
  585MOL0     C80652   4.733   4.669   7.778  0.3312  0.0560  0.6847
  585MOL0     C80653   4.700   4.788   7.862  0.6573  0.3803  0.7274
  585MOL0     C80654   4.601   4.897   7.799 -0.6899  0.8743  0.2198
  585MOL0     C80655   4.676   4.989   7.711  0.0470 -0.5670  0.3898
  585MOL0     C80656   4.583   5.086   7.656  0.5847 -0.1400 -0.6484
  585MOL0     C80657   4.509   5.180   7.634 -0.7401  1.2831  0.1369
  585MOL0     C80658   4.755   4.397   7.765 -0.3185 -0.4178  1.0802
  585MOL0     C80659   4.730   4.260   7.788 -0.6379 -1.3755 -0.3453
  585MOL0     C80660   4.700   4.173   7.668  1.0544 -0.7814  0.2199
  585MOL0     H80661   4.776   3.831   8.113 -2.3739 -1.6745  1.0001
  585MOL0     H80662   4.756   3.596   8.117 -3.5305  1.6246  1.2492
  585MOL0     H80663   4.848   3.266   7.819 -0.3541  0.1443  0.9507
  585MOL0     H80664   4.860   3.410   7.727  1.5873 -0.6662  0.3873
  585MOL0     H80665   4.588   3.376   7.714  0.0190  0.3796 -0.6025
  585MOL0     H80666   4.684   3.299   7.606 -1.0314  5.4620 -0.3239
  585MOL0     H80667   4.552   3.231   7.881  0.1864  0.4335  0.0081
  585MOL0     H80668   4.506   3.151   7.723  2.2269  0.1674 -3.2407
  585MOL0     H80669   4.730   3.040   7.745  0.0337 -0.7592  0.7736
  585MOL0     H80670   4.742   3.100   7.910  1.7578 -2.3942 -0.6364
  585MOL0     H80671   4.634   2.864   7.871 -0.3791 -0.1976 -1.6245
  585MOL0     H80672   4.488   2.948   7.834  1.3255  4.3044 -3.0111
  585MOL0     H80673   4.630   2.936   8.111  1.6292  1.0988 -1.1731
  585MOL0     H80674   4.556   3.087   8.066  4.1439  0.9122 -4.3930
  585MOL0     H80675   4.415   2.820   8.041 -3.7154  1.1327 -1.6930
  585MOL0     H80676   4.344   2.974   8.033 -0.1422 -1.8504 -2.4164
  585MOL0     H80677   4.351   3.023   8.268 -1.0175 -0.7756  1.3108
  585MOL0     H80678   4.283   2.872   8.253  0.3858  0.5414  2.7828
  585MOL0     H80679   4.563   3.045   8.392  0.4847  0.7846 -2.7507
  585MOL0     H80680   4.701   2.967   8.627  0.5219 -0.8602 -2.0391
  585MOL0     H80681   4.777   2.820   8.594 -0.5754  0.0619 -1.9318
  585MOL0     H80682   4.516   2.773   8.704 -0.3107 -0.8165 -1.8187
  585MOL0     H80683   4.664   2.682   8.737 -1.4186 -0.4258  1.1608
  585MOL0     H80684   4.616   2.970   8.847  2.2087  0.9989  3.0250
  585MOL0     H80685   4.565   2.806   8.924 -3.2474  0.2659 -2.7026
  585MOL0     H80686   4.835   2.922   8.844  0.0577 -2.5274 -2.5666
  585MOL0     H80687   4.762   2.913   9.010 -0.2410  0.7536 -1.0964
  585MOL0     H80688   4.920   2.512   8.948  0.3097  3.3843 -4.6789
  585MOL0     H80689   5.226   2.402   9.162  0.1677 -2.0709 -1.2330
  585MOL0     H80690   5.220   2.399   8.991  2.8176 -0.1221  1.6108
  585MOL0     H80691   5.075   2.340   9.096  1.3248 -0.7787  2.2492
  585MOL0     H80692   5.099   2.531   9.376 -1.3917  1.8418 -3.2253
  585MOL0     H80693   4.941   2.587   9.551 -0.9344  1.4441 -0.0400
  585MOL0     H80694   4.782   2.740   9.602 -3.4188  1.2185  0.3709
  585MOL0     H80695   4.774   2.768   9.779  1.5883  0.2475  1.4361
  585MOL0     H80696   4.760   2.992   9.769 -0.0070  0.0819 -0.0127
  585MOL0     H80697   4.789   3.012   9.596 -3.4244  3.5037 -0.6325
  585MOL0     H80698   4.537   2.842   9.722 -3.1322  1.9201  0.3721
  585MOL0     H80699   4.557   2.891   9.557 -0.1822 -5.3351  1.2370
  585MOL0     H80700   4.546   3.144   9.645 -0.1015 -0.0927 -0.1785
  585MOL0     H80701   4.523   3.075   9.801  0.4835  0.2223 -0.4224
  585MOL0     H80702   4.346   2.988   9.569  1.4039 -1.3934  0.8914
  585MOL0     H80703   4.313   2.975   9.738  1.3700 -0.5848  0.3271
  585MOL0     H80704   4.299   3.235   9.571  1.0827  0.1079  0.1210
  585MOL0     H80705   4.301   3.238   9.747 -1.3568  1.0015 -0.3457
  585MOL0     H80706   4.092   3.078   9.736  1.2794  1.1821  0.5281
  585MOL0     H80707   4.118   3.086   9.557 -2.1318 -0.5329 -1.1406
  585MOL0     H80708   4.069   3.310   9.548  1.5329  1.9421  0.7732
  585MOL0     H80709   4.059   3.340   9.719 -0.9718  3.3987 -2.1438
  585MOL0     H80710   5.145   2.966   9.606 -0.2625  0.2391 -1.4665
  585MOL0     H80711   5.326   2.890   9.435 -1.4267  1.3488 -1.1876
  585MOL0     H80712   5.189   2.863   9.173  2.8142 -2.1879  0.1018
  585MOL0     H80713   4.995   2.919   9.046  4.8255  0.9482  3.4945
  585MOL0     H80714   4.754   3.588   7.683 -1.9127  0.3113  1.1247
  585MOL0     H80715   4.814   3.834   7.686 -0.7532  2.0389  1.6278
  585MOL0     H80716   4.764   4.246   8.128  0.5377  1.0810  1.2108
  585MOL0     H80717   4.852   4.476   8.085  0.0500  0.2586 -0.0039
  585MOL0     H80718   4.789   4.705   7.691 -0.5752 -1.5153 -0.6079
  585MOL0     H80719   4.637   4.623   7.755  0.2323  0.8256 -0.5694
  585MOL0     H80720   4.798   4.833   7.882 -0.5514  2.5748  2.0002
  585MOL0     H80721   4.652   4.750   7.953  0.6620  2.8788  1.8346
  585MOL0     H80722   4.521   4.841   7.750  0.6967 -0.9334 -0.0899
  585MOL0     H80723   4.555   4.955   7.880 -1.5010  1.8888 -0.9462
  585MOL0     H80724   4.711   4.956   7.613  2.0961  2.6982 -0.1199
  585MOL0     H80725   4.759   5.032   7.767 -1.3908  1.9851  0.7079
  585MOL0     H80726   4.428   5.250   7.636 -1.2982  0.6644 -0.3998
  585MOL0     H80727   4.747   4.439   7.665  1.4615  2.6810  2.0986
  585MOL0     H80728   4.643   4.083   7.693 -2.8684  1.8661  1.7817
  585MOL0     H80729   4.649   4.234   7.592 -4.7820 -0.3700  3.8533
  585MOL0     H80730   4.792   4.144   7.617  2.2756  1.0537  1.2676
  586MOL0     O80731   1.326   5.842   2.019 -0.5502  0.0880  0.2546
  586MOL0     C80732   1.334   5.772   2.123 -0.4825  0.5165 -0.3951
  586MOL0     O80733   1.343   5.826   2.240  0.3684  0.6988  0.1492
  586MOL0     C80734   1.375   5.962   2.247 -0.1736 -0.2780 -0.6073
  586MOL0     C80735   1.281   6.057   2.213 -0.5052  0.0326  0.7912
  586MOL0     C80736   1.301   6.195   2.243 -0.0800 -0.1346 -0.1471
  586MOL0     C80737   1.427   6.241   2.298  0.9751  0.4458  0.4635
  586MOL0     O80738   1.463   6.372   2.306  1.1654  0.8807 -0.0758
  586MOL0     C80739   1.427   6.457   2.198  0.2153 -0.5273 -0.1747
  586MOL0     C80740   1.513   6.585   2.207 -0.3485 -0.5195  0.2631
  586MOL0     C80741   1.662   6.562   2.208  0.1502  0.3831 -0.5538
  586MOL0     C80742   1.719   6.564   2.066 -0.7278 -0.5007 -0.0510
  586MOL0     C80743   1.864   6.526   2.063  0.1626 -0.5645 -1.2107
  586MOL0     C80744   1.889   6.384   2.098  1.1614 -0.2452 -1.1782
  586MOL0     C80745   2.033   6.347   2.083  1.0122  0.0947  0.4615
  586MOL0     C80746   2.055   6.214   2.140 -0.5916  1.2882  0.1294
  586MOL0     N80747   2.011   6.188   2.274  1.0924  0.5622 -0.5834
  586MOL0     C80748   1.995   6.054   2.329 -0.2595  0.8441  1.0556
  586MOL0     C80749   1.939   6.074   2.456 -0.2359  0.0275  0.6928
  586MOL0     C80750   1.872   5.970   2.542  0.5007  0.4450 -0.3282
  586MOL0     C80751   1.766   6.026   2.624  1.6302 -0.2800 -1.4259
  586MOL0     C80752   1.696   5.917   2.719  0.4822 -0.6404 -0.0402
  586MOL0     C80753   1.552   5.961   2.751  0.5051 -0.0511 -0.0061
  586MOL0     O80754   1.554   6.081   2.834 -0.1277 -0.1293  0.1561
  586MOL0     C80755   1.438   6.144   2.838 -0.5701 -1.1681 -0.3832
  586MOL0     C80756   1.416   6.236   2.736  0.0867  1.5279 -0.1491
  586MOL0     C80757   1.291   6.301   2.738 -0.7297  0.4462  0.6282
  586MOL0     C80758   1.254   6.369   2.604 -0.2274  0.1546 -0.5230
  586MOL0     C80759   1.213   6.293   2.855 -0.1032  0.0641  0.9178
  586MOL0     C80760   1.089   6.380   2.876 -0.3283  0.3116 -0.7327
  586MOL0     O80761   1.014   6.344   2.987 -0.1459 -0.8058 -0.2862
  586MOL0     C80762   0.950   6.450   3.035  0.9226  0.7362 -0.2398
  586MOL0     C80763   0.821   6.476   2.985 -1.4068  0.3618 -0.0678
  586MOL0     C80764   0.757   6.590   3.026 -0.2316  0.0944 -0.2802
  586MOL0     C80765   0.803   6.665   3.126 -0.9313 -0.3014  0.7198
  586MOL0     O80766   0.714   6.756   3.163  0.0339  0.2942  0.6899
  586MOL0     C80767   0.645   6.718   3.285 -0.5159 -0.7542 -0.5188
  586MOL0     C80768   0.506   6.794   3.303 -1.4123 -1.3039 -0.0127
  586MOL0     C80769   0.411   6.715   3.207 -0.3101 -0.1488 -0.0397
  586MOL0     C80770   0.331   6.601   3.266  0.3152  0.0434  0.2137
  586MOL0     C80771   0.213   6.578   3.162  0.2631  0.4304 -0.3674
  586MOL0     C80772   0.103   6.482   3.215  0.1044  0.3658  0.1165
  586MOL0     C80773  -0.020   6.490   3.134  0.1949  0.4765 -0.3099
  586MOL0     C80774  -0.109   6.369   3.174 -0.2899  0.2725 -0.3672
  586MOL0    Cl80775  -0.256   6.387   3.071  0.2765 -0.3019  0.4689
  586MOL0     C80776   0.926   6.640   3.184 -0.7161  0.9337 -0.1431
  586MOL0     C80777   0.993   6.526   3.142 -1.0289  0.3769 -0.5264
  586MOL0     O80778   1.077   6.489   2.816  0.1144 -0.0194 -0.0885
  586MOL0     C80779   1.251   6.215   2.956 -0.0346  0.1062 -0.7857
  586MOL0     C80780   1.364   6.129   2.947  0.3727  0.0482 -0.0295
  586MOL0     N80781   1.948   6.211   2.479  0.4226  0.3926  0.3963
  586MOL0     N80782   2.002   6.276   2.377  0.9485 -0.0691  0.2263
  586MOL0     C80783   1.511   6.140   2.335 -0.6080 -0.0737 -0.6952
  586MOL0     C80784   1.490   6.002   2.313  0.3796 -0.6434 -0.9603
  586MOL0     C80785   1.353   5.626   2.117 -0.3831  0.4270  0.4265
  586MOL0     C80786   1.393   5.560   1.999  0.0313  0.0443  0.3143
  586MOL0     C80787   1.402   5.423   1.987 -0.5001  0.7565 -1.1517
  586MOL0     C80788   1.386   5.336   2.098 -0.4888 -0.3127 -0.9770
  586MOL0     O80789   1.381   5.202   2.070  0.5254  0.8170 -0.1740
  586MOL0     C80790   1.306   5.116   2.156 -0.2321 -0.1371 -0.0434
  586MOL0     C80791   1.314   4.970   2.111  0.4721  0.3152 -0.4888
  586MOL0     C80792   1.214   4.880   2.181 -0.3411  0.2003  0.1058
  586MOL0     C80793   1.246   4.731   2.138  0.4722 -0.3109  0.3399
  586MOL0     C80794   1.233   4.732   1.987  0.1422  0.6868 -0.9045
  586MOL0     C80795   1.246   4.735   1.868  1.0813 -0.7555  1.1380
  586MOL0     C80796   1.338   5.392   2.215  0.4189  0.6022 -0.1709
  586MOL0     C80797   1.317   5.541   2.226 -0.1173  0.6019 -0.1419
  586MOL0     C80798   1.249   5.581   2.357 -0.6625 -0.2670  0.9857
  586MOL0     H80799   1.192   6.020   2.164 -0.3093  2.9323 -2.0760
  586MOL0     H80800   1.236   6.279   2.218 -0.7678 -0.9757 -1.3260
  586MOL0     H80801   1.321   6.483   2.203 -0.1562 -0.9049 -3.7552
  586MOL0     H80802   1.451   6.408   2.103  0.5304  1.2616 -1.0782
  586MOL0     H80803   1.482   6.659   2.133  0.8356  1.6624  1.8305
  586MOL0     H80804   1.478   6.633   2.299  1.3014  2.3778 -0.4827
  586MOL0     H80805   1.697   6.635   2.281 -1.5185 -0.1133  0.8201
  586MOL0     H80806   1.681   6.466   2.258  0.3123  0.8580  0.3114
  586MOL0     H80807   1.668   6.494   1.999 -0.4663  1.7603 -2.8228
  586MOL0     H80808   1.712   6.664   2.022  0.9010 -0.8196 -1.1323
  586MOL0     H80809   1.916   6.602   2.121 -0.5432  0.8663 -2.3876
  586MOL0     H80810   1.894   6.538   1.958 -2.3630  0.4196 -1.9063
  586MOL0     H80811   1.857   6.364   2.201 -3.3859  0.5296 -2.2321
  586MOL0     H80812   1.833   6.326   2.023  1.8422  0.1297 -1.9992
  586MOL0     H80813   2.084   6.417   2.149 -2.7301  0.2251  3.6053
  586MOL0     H80814   2.062   6.365   1.979  1.2987 -1.4821  0.2527
  586MOL0     H80815   2.009   6.143   2.070 -0.0514  1.4365 -0.3789
  586MOL0     H80816   2.164   6.208   2.144 -0.6982 -2.1975  2.1233
  586MOL0     H80817   2.004   5.964   2.268  0.0086  3.3211 -2.9496
  586MOL0     H80818   1.937   5.919   2.614 -3.0468 -1.2782  1.9564
  586MOL0     H80819   1.831   5.893   2.477 -0.0616  0.0085  0.5264
  586MOL0     H80820   1.792   6.107   2.694 -1.9219  1.0787 -1.4894
  586MOL0     H80821   1.681   6.061   2.565 -1.2716 -0.2507  2.4215
  586MOL0     H80822   1.697   5.814   2.683 -2.5498 -0.4155 -1.1170
  586MOL0     H80823   1.749   5.929   2.814  2.8158  0.0324 -1.3539
  586MOL0     H80824   1.511   5.978   2.651  1.2441  3.4993  0.1390
  586MOL0     H80825   1.498   5.880   2.801 -0.8290  1.4788  1.1522
  586MOL0     H80826   1.493   6.243   2.660  0.0540  0.6933 -0.2668
  586MOL0     H80827   1.302   6.467   2.593  2.7278 -1.2353 -0.8619
  586MOL0     H80828   1.144   6.373   2.599 -0.5330 -4.0645 -0.8825
  586MOL0     H80829   1.275   6.316   2.511 -0.1604  2.5583 -1.9619
  586MOL0     H80830   0.787   6.415   2.901 -0.0418 -0.2443 -0.2080
  586MOL0     H80831   0.666   6.611   2.971 -0.4095  0.5562  0.1748
  586MOL0     H80832   0.621   6.612   3.280  0.1799 -0.9097 -0.6054
  586MOL0     H80833   0.715   6.759   3.358  0.2982 -2.1762 -0.4611
  586MOL0     H80834   0.473   6.795   3.407  0.5306 -0.3864  0.6441
  586MOL0     H80835   0.519   6.893   3.258  0.5998 -1.4529  0.1760
  586MOL0     H80836   0.458   6.667   3.121  1.0037 -2.5673  1.8999
  586MOL0     H80837   0.342   6.779   3.152  1.6678  2.5750  0.4346
  586MOL0     H80838   0.301   6.626   3.368  1.3255  2.9785 -0.0969
  586MOL0     H80839   0.393   6.511   3.261  2.7988  1.6658 -0.1136
  586MOL0     H80840   0.162   6.674   3.156 -0.6842  0.1915  2.4501
  586MOL0     H80841   0.251   6.545   3.065  2.4726 -0.3456  0.6758
  586MOL0     H80842   0.085   6.502   3.321 -0.5812 -1.4037  0.3703
  586MOL0     H80843   0.144   6.381   3.204 -4.2066 -1.5321 -0.3211
  586MOL0     H80844   0.007   6.496   3.029  1.3332 -1.0531 -0.1449
  586MOL0     H80845  -0.078   6.579   3.160  0.6808  0.0065  2.7857
  586MOL0     H80846  -0.124   6.362   3.282  1.7279 -2.2310 -0.1516
  586MOL0     H80847  -0.052   6.278   3.151 -0.0328  0.0651  0.9715
  586MOL0     H80848   0.955   6.702   3.268 -4.8275  2.4507  0.3342
  586MOL0     H80849   1.087   6.497   3.188 -1.3010  0.7082  0.2585
  586MOL0     H80850   1.191   6.215   3.047 -2.3359 -2.0024 -2.1521
  586MOL0     H80851   1.377   6.062   3.032 -2.0389 -0.2505  0.1870
  586MOL0     H80852   1.606   6.180   2.368 -0.5277 -0.7924 -0.0143
  586MOL0     H80853   1.575   5.936   2.330  3.9515  4.0156  1.7810
  586MOL0     H80854   1.411   5.613   1.906  1.3538 -0.1172  0.4608
  586MOL0     H80855   1.425   5.377   1.891  1.9288  0.5624 -0.5405
  586MOL0     H80856   1.358   5.133   2.251  1.6989  2.0100 -1.3654
  586MOL0     H80857   1.199   5.139   2.156  0.0248  1.2274 -0.9042
  586MOL0     H80858   1.418   4.938   2.122 -0.0176 -1.4286 -0.6924
  586MOL0     H80859   1.295   4.994   2.006 -3.2707 -0.3000 -0.0878
  586MOL0     H80860   1.232   4.890   2.289 -0.4696  0.8362  0.0712
  586MOL0     H80861   1.106   4.893   2.175 -0.6393 -2.0376 -0.3757
  586MOL0     H80862   1.191   4.648   2.184 -1.7112  1.6215  1.4075
  586MOL0     H80863   1.354   4.714   2.148  0.2733 -1.6120  0.4537
  586MOL0     H80864   1.268   4.746   1.763 -0.3596 -0.4263  0.8540
  586MOL0     H80865   1.320   5.327   2.300  0.5659  1.6685  0.7140
  586MOL0     H80866   1.152   5.631   2.341  0.4425  1.3046 -1.5212
  586MOL0     H80867   1.241   5.483   2.404  1.9272 -2.0510 -1.9508
  586MOL0     H80868   1.325   5.641   2.408  2.1779  0.6848 -3.6981
  587MOL0     O80869   3.609   1.923   4.512  0.0814 -0.1399  0.1487
  587MOL0     C80870   3.620   2.043   4.496 -0.1239 -1.2653  0.0350
  587MOL0     O80871   3.737   2.111   4.525  0.6904  0.4868  0.2466
  587MOL0     C80872   3.843   2.034   4.562  0.1809 -0.0514 -0.0573
  587MOL0     C80873   3.926   1.987   4.462  0.5845  0.4517 -0.0345
  587MOL0     C80874   4.036   1.912   4.491 -0.4832 -0.0289  0.4354
  587MOL0     C80875   4.058   1.876   4.625 -0.8302  0.0910  0.7812
  587MOL0     O80876   4.169   1.794   4.664  0.5650 -0.9565  0.5244
  587MOL0     C80877   4.173   1.711   4.778  0.1382  0.5787  0.3775
  587MOL0     C80878   4.315   1.651   4.803  0.4931 -0.3405 -0.3473
  587MOL0     C80879   4.391   1.592   4.681  0.1956  0.2629 -1.0473
  587MOL0     C80880   4.528   1.543   4.727 -0.9184  0.3321  0.0642
  587MOL0     C80881   4.588   1.448   4.640  0.2499 -0.0170  0.6942
  587MOL0     C80882   4.725   1.398   4.695  0.3281  0.7358 -1.1855
  587MOL0     C80883   4.810   1.315   4.598  0.8051 -0.5498  0.0224
  587MOL0     C80884   4.934   1.265   4.654  0.1940 -0.1483  0.3207
  587MOL0     N80885   5.034   1.227   4.555 -0.5002 -0.0334 -0.8788
  587MOL0     C80886   5.164   1.269   4.559 -0.1892 -0.1285  0.2246
  587MOL0     C80887   5.230   1.212   4.457 -0.4059  0.1573 -1.7122
  587MOL0     C80888   5.378   1.211   4.456 -0.2550 -0.4353  0.7143
  587MOL0     C80889   5.431   1.300   4.339 -0.5173  1.1736 -0.6378
  587MOL0     C80890   5.582   1.297   4.337 -0.7723  0.4555 -0.5613
  587MOL0     C80891   5.638   1.334   4.194 -0.3389 -0.4741  0.5743
  587MOL0     O80892   5.681   1.212   4.135 -0.4060  0.1444  0.3184
  587MOL0     C80893   5.792   1.219   4.057 -0.0796 -0.1622  0.4783
  587MOL0     C80894   5.814   1.335   3.971  0.1224  0.7061  0.2704
  587MOL0     C80895   5.927   1.343   3.890 -0.3739  0.3394  0.3491
  587MOL0     C80896   5.925   1.450   3.788  0.6481 -0.1932  0.5328
  587MOL0     C80897   6.027   1.245   3.900  0.7005  0.0873  0.2822
  587MOL0     C80898   6.160   1.249   3.827 -0.3437  0.8083 -0.8535
  587MOL0     O80899   6.207   1.372   3.783  0.3925  0.0301  0.1378
  587MOL0     C80900   6.293   1.381   3.676 -0.1839  0.1697  0.4549
  587MOL0     C80901   6.250   1.402   3.549  0.2561 -0.5176 -0.5837
  587MOL0     C80902   6.349   1.411   3.452 -0.0126  0.1583  1.0170
  587MOL0     C80903   6.484   1.382   3.474 -0.1296  0.1595  0.0497
  587MOL0     O80904   6.585   1.384   3.379  0.0731 -0.5190  0.4646
  587MOL0     C80905   6.534   1.382   3.245 -0.0464  0.5647 -0.3241
  587MOL0     C80906   6.642   1.339   3.147  0.2062  0.3238 -0.2379
  587MOL0     C80907   6.580   1.318   3.020 -1.1151 -0.3349  0.5305
  587MOL0     C80908   6.676   1.257   2.916 -0.0611 -0.0190  0.1820
  587MOL0     C80909   6.611   1.215   2.786  0.8311 -0.1046 -0.6893
  587MOL0     C80910   6.702   1.249   2.673  0.3349  0.3289  0.9996
  587MOL0     C80911   6.646   1.245   2.533 -0.7251 -0.7190  1.0618
  587MOL0     C80912   6.736   1.172   2.426  0.3077 -0.0375  0.3266
  587MOL0    Cl80913   6.882   1.261   2.387  0.4791 -0.3026 -0.1491
  587MOL0     C80914   6.524   1.356   3.607  0.6037 -0.1300 -0.8536
  587MOL0     C80915   6.431   1.366   3.712  0.3616 -0.3846 -0.5895
  587MOL0     O80916   6.218   1.143   3.806  0.5645  0.2086 -0.1030
  587MOL0     C80917   6.012   1.144   3.991 -0.5344  0.0908 -0.2897
  587MOL0     C80918   5.891   1.131   4.063  0.0687 -0.6360  0.2123
  587MOL0     N80919   5.131   1.139   4.386  0.8309 -0.4074  0.1841
  587MOL0     N80920   5.017   1.170   4.440 -0.0136  0.1048  0.2900
  587MOL0     C80921   3.979   1.932   4.729 -0.7867 -0.1852  0.3121
  587MOL0     C80922   3.867   2.003   4.701 -0.3814  0.0958  0.7400
  587MOL0     C80923   3.494   2.135   4.471 -0.8620  0.2483 -0.8515
  587MOL0     C80924   3.521   2.269   4.430  0.2542  0.6125  0.6715
  587MOL0     C80925   3.418   2.362   4.406  0.1100  0.5808 -0.5623
  587MOL0     C80926   3.285   2.328   4.415  0.5800 -0.0999 -0.3514
  587MOL0     O80927   3.193   2.421   4.380 -0.1631  0.3066 -0.0388
  587MOL0     C80928   3.109   2.389   4.275  0.3080  0.5159 -0.4420
  587MOL0     C80929   3.180   2.411   4.139  0.2405  0.3144 -0.2461
  587MOL0     C80930   3.230   2.553   4.119  0.1322  0.8800  0.2405
  587MOL0     C80931   3.337   2.564   4.014 -0.6890  0.6693  0.4808
  587MOL0     C80932   3.458   2.493   4.055 -0.1149  0.0904 -0.0410
  587MOL0     C80933   3.557   2.433   4.090 -0.0021  0.5603  0.4253
  587MOL0     C80934   3.252   2.195   4.458 -0.0155 -0.2481 -0.3875
  587MOL0     C80935   3.358   2.107   4.482 -0.2117 -0.2264  0.4190
  587MOL0     C80936   3.320   1.968   4.513 -0.7550 -0.2159 -0.3085
  587MOL0     H80937   3.901   2.011   4.359  2.0946  0.6759 -0.3722
  587MOL0     H80938   4.105   1.870   4.419 -1.0769  1.4871 -1.0734
  587MOL0     H80939   4.097   1.634   4.766 -0.6017  1.5575 -1.7193
  587MOL0     H80940   4.153   1.763   4.872  1.2241 -0.2172  1.0650
  587MOL0     H80941   4.372   1.726   4.858 -1.8259  0.9814  0.3565
  587MOL0     H80942   4.300   1.560   4.861  0.7368 -0.3555 -0.3052
  587MOL0     H80943   4.338   1.501   4.650 -0.9338 -0.3486  2.2968
  587MOL0     H80944   4.399   1.669   4.603  0.6040  1.8779  0.5200
  587MOL0     H80945   4.594   1.630   4.719 -0.3145 -0.1219  0.0206
  587MOL0     H80946   4.533   1.497   4.826  1.7170 -0.1466 -0.2247
  587MOL0     H80947   4.624   1.511   4.557  2.3419 -0.5155  1.1516
  587MOL0     H80948   4.534   1.357   4.615 -0.9549  0.7951  0.2642
  587MOL0     H80949   4.794   1.470   4.740  1.2434 -1.0412  0.3703
  587MOL0     H80950   4.705   1.335   4.782  4.2384  1.2999  0.3001
  587MOL0     H80951   4.833   1.392   4.523 -0.0071 -1.0870 -0.8017
  587MOL0     H80952   4.754   1.230   4.558 -1.4790  1.9377 -2.5480
  587MOL0     H80953   4.981   1.326   4.731  2.9372 -2.0897  0.3306
  587MOL0     H80954   4.902   1.178   4.712 -0.0353  1.3264  2.5473
  587MOL0     H80955   5.206   1.331   4.638 -2.7542  0.1292  1.4841
  587MOL0     H80956   5.412   1.109   4.439  3.4023  0.8365 -0.5946
  587MOL0     H80957   5.424   1.261   4.541 -0.5890  1.9217 -0.3913
  587MOL0     H80958   5.397   1.245   4.250  1.4537 -0.4928 -0.4594
  587MOL0     H80959   5.385   1.398   4.348 -2.0244  0.4573 -0.2694
  587MOL0     H80960   5.616   1.357   4.422 -2.0251 -0.8549  0.9480
  587MOL0     H80961   5.623   1.197   4.353  0.1856  1.1869  2.1114
  587MOL0     H80962   5.557   1.375   4.132  1.1240  1.6487 -0.0350
  587MOL0     H80963   5.720   1.405   4.206  2.2084 -3.3643  1.3293
  587MOL0     H80964   5.738   1.410   3.951 -0.1789  0.8374  1.7807
  587MOL0     H80965   6.012   1.516   3.787  3.0437 -3.0352 -2.7144
  587MOL0     H80966   5.829   1.500   3.796 -0.4251 -2.2643  1.4283
  587MOL0     H80967   5.920   1.406   3.688 -2.8607 -0.3077  0.6563
  587MOL0     H80968   6.144   1.403   3.525  0.2008 -0.0176 -0.3305
  587MOL0     H80969   6.310   1.432   3.354 -1.1672 -0.4628  1.3293
  587MOL0     H80970   6.453   1.308   3.243  0.3201  0.1270  0.4317
  587MOL0     H80971   6.482   1.474   3.215  1.3796  1.2885 -0.6466
  587MOL0     H80972   6.730   1.404   3.149  0.2845  0.2766 -1.5892
  587MOL0     H80973   6.678   1.242   3.182  1.0729  0.2356 -1.3422
  587MOL0     H80974   6.552   1.417   2.983  0.9737 -0.1734 -0.7992
  587MOL0     H80975   6.491   1.256   3.033 -1.9922  0.9153  0.6489
  587MOL0     H80976   6.730   1.169   2.952  1.1777  0.0520 -1.4138
  587MOL0     H80977   6.756   1.329   2.898  1.2208 -0.3616  3.7481
  587MOL0     H80978   6.577   1.112   2.796  1.0555 -0.4966 -3.3157
  587MOL0     H80979   6.527   1.283   2.771  1.0390  1.0198  2.4760
  587MOL0     H80980   6.789   1.183   2.687 -2.3464 -3.9539 -0.6041
  587MOL0     H80981   6.726   1.353   2.697  0.9008  1.0158 -2.1424
  587MOL0     H80982   6.627   1.342   2.486  1.7923 -0.2207  0.9466
  587MOL0     H80983   6.551   1.190   2.538  0.3088 -2.8093 -0.7217
  587MOL0     H80984   6.680   1.168   2.332  0.4756  0.6327  0.1872
  587MOL0     H80985   6.742   1.065   2.448 -2.8754 -1.1139 -2.9110
  587MOL0     H80986   6.624   1.326   3.639  0.9069  1.8252  0.1570
  587MOL0     H80987   6.454   1.350   3.817  2.5635  0.0730 -0.9555
  587MOL0     H80988   6.086   1.068   4.016  1.2134  1.3488 -1.4221
  587MOL0     H80989   5.873   1.059   4.143 -3.1202 -1.3939 -1.0302
  587MOL0     H80990   4.004   1.925   4.834 -1.7948  4.7937  1.1253
  587MOL0     H80991   3.801   2.050   4.773 -1.7884 -0.7902  0.0893
  587MOL0     H80992   3.619   2.308   4.405 -1.4616  4.4847 -0.8009
  587MOL0     H80993   3.441   2.467   4.394  0.3889  1.1794  3.6112
  587MOL0     H80994   3.077   2.284   4.284 -0.8628  0.8980  0.0004
  587MOL0     H80995   3.022   2.452   4.291 -1.8751 -2.7367  1.8902
  587MOL0     H80996   3.112   2.392   4.056 -0.5288  0.5096  0.3276
  587MOL0     H80997   3.254   2.330   4.135  0.4014  0.2517  2.3195
  587MOL0     H80998   3.142   2.611   4.090 -1.1347  0.1842  2.4467
  587MOL0     H80999   3.268   2.601   4.210 -0.2388 -1.1946  1.5483
  587MOL0     H81000   3.364   2.667   3.990 -0.8129  0.7369  0.6260
  587MOL0     H81001   3.310   2.515   3.920 -1.7389 -1.3772  1.7611
  587MOL0     H81002   3.645   2.376   4.112  0.1084 -0.4063 -2.2127
  587MOL0     H81003   3.154   2.158   4.483 -0.0431  0.4224  0.5482
  587MOL0     H81004   3.341   1.896   4.434 -2.1370 -2.4781  1.2816
  587MOL0     H81005   3.358   1.941   4.612  0.3140  1.1985 -0.2922
  587MOL0     H81006   3.213   1.948   4.522 -0.4650 -0.8396  3.0035
  588MOL0     O81007   3.814   4.393   8.705 -0.0534 -0.7930  0.0544
  588MOL0     C81008   3.787   4.309   8.628  0.4443 -1.4733 -0.4843
  588MOL0     O81009   3.663   4.241   8.633 -1.2133 -0.4918  0.5150
  588MOL0     C81010   3.589   4.270   8.740  0.1637  0.4495  0.4161
  588MOL0     C81011   3.453   4.313   8.731 -0.9723 -0.7739 -0.2272
  588MOL0     C81012   3.371   4.324   8.851 -0.1903 -0.7876  0.1915
  588MOL0     C81013   3.422   4.302   8.977 -0.9934 -0.1772  0.0137
  588MOL0     O81014   3.339   4.313   9.088 -0.0482 -0.3611 -0.0921
  588MOL0     C81015   3.304   4.190   9.166 -0.2754 -0.5774 -0.3914
  588MOL0     C81016   3.229   4.237   9.284 -0.0721 -0.9348  0.0952
  588MOL0     C81017   3.228   4.125   9.387 -0.3011  0.5296 -0.3413
  588MOL0     C81018   3.113   4.115   9.491  0.1397 -0.1555  1.0781
  588MOL0     C81019   3.078   3.964   9.512  0.8412 -0.5179 -0.9502
  588MOL0     C81020   2.964   3.945   9.602 -0.6940  0.4502  0.1084
  588MOL0     C81021   2.919   3.802   9.631  0.5820 -1.0633 -0.4346
  588MOL0     C81022   2.781   3.788   9.700  0.2368 -0.9947  0.4741
  588MOL0     N81023   2.738   3.652   9.727  0.4603  0.4250 -0.8893
  588MOL0     C81024   2.704   3.608   9.852 -0.4640  0.8265  0.1152
  588MOL0     C81025   2.681   3.477   9.834 -0.8080  0.0475 -0.6775
  588MOL0     C81026   2.650   3.383   9.944 -0.1423  0.4567  0.0295
  588MOL0     C81027   2.499   3.369   9.954  0.7409  0.4749 -0.6271
  588MOL0     C81028   2.465   3.315  10.098 -0.4603  0.1615 -0.2903
  588MOL0     C81029   2.327   3.265  10.109 -0.2559 -0.3814  0.5829
  588MOL0     O81030   2.306   3.206  10.236 -0.1032  0.4476 -0.2529
  588MOL0     C81031   2.168   3.177  10.254 -0.4481  0.5600 -0.8121
  588MOL0     C81032   2.140   3.128  10.380 -0.6713  0.5537 -0.2899
  588MOL0     C81033   2.008   3.084  10.414  0.2810  0.6730  0.4034
  588MOL0     C81034   1.987   3.014  10.552 -1.0438 -0.7662  0.1578
  588MOL0     C81035   1.898   3.101  10.330 -0.0522  0.4575  0.2347
  588MOL0     C81036   1.753   3.079  10.370 -0.0454 -0.0412  0.4412
  588MOL0     O81037   1.724   2.984  10.463  0.7557 -0.4323 -0.3651
  588MOL0     C81038   1.599   2.986  10.519  1.4331 -0.3691  0.4229
  588MOL0     C81039   1.544   3.091  10.596  0.7280  0.5232  0.5312
  588MOL0     C81040   1.423   3.064  10.663  0.4729  0.5954 -0.5486
  588MOL0     C81041   1.350   2.947  10.627  0.5337  0.3851  0.1634
  588MOL0     O81042   1.227   2.911  10.670  0.2308  0.3297  0.1739
  588MOL0     C81043   1.178   2.959  10.792  0.3363 -0.9168  0.4641
  588MOL0     C81044   1.068   2.873  10.850 -1.3766  0.5254 -0.0216
  588MOL0     C81045   0.958   2.834  10.743 -0.7717  0.1665  0.2978
  588MOL0     C81046   0.871   2.729  10.799 -0.3338 -0.4717 -0.2780
  588MOL0     C81047   0.757   2.699  10.708 -0.5279  1.4732  0.1271
  588MOL0     C81048   0.617   2.705  10.770  0.1838  0.8291 -0.6589
  588MOL0     C81049   0.524   2.665  10.649 -0.2241  0.3796 -0.1517
  588MOL0     C81050   0.380   2.617  10.680  0.0371 -0.4234  0.6321
  588MOL0    Cl81051   0.384   2.439  10.736  0.0829 -0.1879  0.0955
  588MOL0     C81052   1.395   2.857  10.532  0.3040  0.5355  0.3381
  588MOL0     C81053   1.524   2.870  10.493  0.2112  0.1794  1.9678
  588MOL0     O81054   1.669   3.146  10.310  0.0899 -0.1029  1.3165
  588MOL0     C81055   1.921   3.172  10.215 -0.5174  0.1553 -0.6733
  588MOL0     C81056   2.055   3.197  10.177  1.0528 -0.1310  0.5446
  588MOL0     N81057   2.713   3.446   9.705 -0.1836 -0.2389 -0.7093
  588MOL0     N81058   2.739   3.550   9.643 -0.3809 -0.1353  0.2960
  588MOL0     C81059   3.555   4.257   8.986  0.1862  0.1267 -0.4019
  588MOL0     C81060   3.627   4.223   8.870  0.4123 -0.1525 -0.7798
  588MOL0     C81061   3.887   4.280   8.524  0.2327 -0.2377 -0.5381
  588MOL0     C81062   3.880   4.156   8.463  0.1979  0.2500 -0.4940
  588MOL0     C81063   3.951   4.132   8.348 -0.2229 -0.3350  0.1582
  588MOL0     C81064   4.050   4.217   8.298 -0.6546  0.0582 -0.1856
  588MOL0     O81065   4.117   4.172   8.187 -1.1264  0.2930 -0.3976
  588MOL0     C81066   4.255   4.136   8.216 -0.1135  0.5368 -0.2125
  588MOL0     C81067   4.334   4.189   8.101  0.4678 -0.1996 -0.7147
  588MOL0     C81068   4.296   4.335   8.064 -0.1952 -0.2594  0.1205
  588MOL0     C81069   4.392   4.419   7.978 -0.3189  0.4849  0.0417
  588MOL0     C81070   4.401   4.378   7.838 -1.0088  0.3876 -0.3769
  588MOL0     C81071   4.419   4.353   7.720  0.5109 -0.0844 -0.2267
  588MOL0     C81072   4.060   4.337   8.360  0.1970 -0.2513 -0.9152
  588MOL0     C81073   3.980   4.370   8.476 -0.6812  0.9249 -0.8330
  588MOL0     C81074   4.010   4.513   8.529  0.1957  0.4369  1.0467
  588MOL0     H81075   3.424   4.350   8.633 -2.4677 -3.4526 -0.8879
  588MOL0     H81076   3.269   4.357   8.835  1.0312  3.7582  0.3894
  588MOL0     H81077   3.394   4.139   9.202  0.1866 -0.9976 -2.0659
  588MOL0     H81078   3.264   4.117   9.095  0.4131 -2.1492  0.7718
  588MOL0     H81079   3.281   4.312   9.343 -0.4245 -1.3379  0.9291
  588MOL0     H81080   3.129   4.270   9.254 -0.3344 -0.1899  1.7279
  588MOL0     H81081   3.231   4.028   9.335  0.4230  0.3832 -0.0412
  588MOL0     H81082   3.322   4.126   9.442 -0.3718  1.0123 -0.2284
  588MOL0     H81083   3.149   4.158   9.585  0.2433  3.1948 -0.3607
  588MOL0     H81084   3.029   4.177   9.459 -0.6509 -3.0480 -3.2958
  588MOL0     H81085   3.167   3.922   9.561  0.8674  1.6874  1.0249
  588MOL0     H81086   3.056   3.905   9.422  0.0132 -1.7638  0.0296
  588MOL0     H81087   2.981   3.994   9.698  0.1277 -1.8644  1.2418
  588MOL0     H81088   2.878   3.996   9.558 -2.4290 -0.2902  2.3833
  588MOL0     H81089   2.985   3.772   9.714 -0.8302  0.6052  1.3882
  588MOL0     H81090   2.924   3.744   9.539  1.6950  0.8026 -1.6147
  588MOL0     H81091   2.773   3.852   9.788 -1.2689 -1.7841  0.9429
  588MOL0     H81092   2.710   3.835   9.631  1.1089  1.9962  1.4606
  588MOL0     H81093   2.711   3.658   9.949 -2.3170 -1.2777  1.4173
  588MOL0     H81094   2.698   3.418  10.036  2.0321  0.2367 -0.9759
  588MOL0     H81095   2.692   3.285   9.917  1.2993  0.4132  2.1541
  588MOL0     H81096   2.461   3.469   9.932  0.0265  0.1655 -0.8093
  588MOL0     H81097   2.466   3.296   9.879 -1.1534  1.3638 -0.7196
  588MOL0     H81098   2.538   3.239  10.126 -1.8616 -1.5032 -1.0333
  588MOL0     H81099   2.472   3.397  10.170 -2.8469 -1.7413  2.3047
  588MOL0     H81100   2.262   3.350  10.090  0.9514  0.3953 -0.2512
  588MOL0     H81101   2.323   3.179  10.041  1.1652  0.9796 -1.3667
  588MOL0     H81102   2.219   3.102  10.450 -0.3996  0.3585 -0.6668
  588MOL0     H81103   1.945   2.914  10.542 -3.8507  0.4771 -2.3084
  588MOL0     H81104   1.922   3.081  10.609  2.8172  1.1882  2.6961
  588MOL0     H81105   2.075   3.015  10.617 -0.2629 -0.0984 -0.8715
  588MOL0     H81106   1.603   3.182  10.601  0.9675  0.3514  0.8506
  588MOL0     H81107   1.374   3.128  10.736 -1.9274  1.0494 -2.4446
  588MOL0     H81108   1.265   2.958  10.859 -0.3004 -0.3424  1.3304
  588MOL0     H81109   1.152   3.065  10.783 -2.3169 -1.5536 -0.0008
  588MOL0     H81110   1.114   2.782  10.888  1.4064  0.9750 -2.0132
  588MOL0     H81111   1.019   2.926  10.932 -0.9330  0.9998 -0.0623
  588MOL0     H81112   1.004   2.791  10.654 -0.2125 -0.0242  0.6719
  588MOL0     H81113   0.892   2.916  10.713 -0.3249 -0.0468 -1.3801
  588MOL0     H81114   0.825   2.763  10.892 -1.9143  0.0913 -1.2312
  588MOL0     H81115   0.941   2.647  10.819 -1.2757 -1.0730  0.6296
  588MOL0     H81116   0.764   2.762  10.618 -1.5720  0.9986 -0.2928
  588MOL0     H81117   0.772   2.596  10.675  1.2296  1.0999  1.9143
  588MOL0     H81118   0.592   2.801  10.817 -2.5187 -0.5065  0.8378
  588MOL0     H81119   0.608   2.622  10.840  2.7240  3.0872  2.7314
  588MOL0     H81120   0.574   2.593  10.584 -0.5332  1.3084 -1.4682
  588MOL0     H81121   0.512   2.758  10.592 -1.9535  1.2988  1.5871
  588MOL0     H81122   0.310   2.628  10.596 -1.6756  0.3502  2.0746
  588MOL0     H81123   0.330   2.669  10.762 -1.8584 -1.2873  0.0787
  588MOL0     H81124   1.322   2.780  10.512 -2.2175  2.5230  1.3184
  588MOL0     H81125   1.564   2.797  10.423 -1.2423 -0.6236  1.9372
  588MOL0     H81126   1.838   3.194  10.148 -1.0870 -1.7462 -0.6400
  588MOL0     H81127   2.063   3.235  10.076  1.5954 -0.8607  0.3023
  588MOL0     H81128   3.608   4.232   9.077  4.5415  0.0818 -2.6851
  588MOL0     H81129   3.724   4.179   8.889  0.1280 -1.8049 -2.7624
  588MOL0     H81130   3.809   4.084   8.501  1.7548 -0.7335  0.6647
  588MOL0     H81131   3.933   4.043   8.289 -2.0618 -0.8325  1.3673
  588MOL0     H81132   4.292   4.184   8.307 -0.1986  1.9035 -0.8679
  588MOL0     H81133   4.262   4.028   8.232  1.1152  0.5302 -0.6806
  588MOL0     H81134   4.317   4.128   8.011 -1.1003 -0.1840 -0.4494
  588MOL0     H81135   4.440   4.187   8.127  0.6191 -1.2968 -1.3068
  588MOL0     H81136   4.200   4.327   8.012  0.4362 -2.1819 -0.8454
  588MOL0     H81137   4.275   4.398   8.151 -2.6401  2.1198 -1.9965
  588MOL0     H81138   4.490   4.412   8.026  0.3734 -0.2984 -1.4316
  588MOL0     H81139   4.363   4.524   7.984  2.1187  1.2985 -1.2235
  588MOL0     H81140   4.428   4.314   7.620 -1.3979 -0.7015 -0.1996
  588MOL0     H81141   4.129   4.411   8.320  0.3716 -0.1230 -0.3844
  588MOL0     H81142   4.028   4.584   8.447  1.2516  0.2249  1.0881
  588MOL0     H81143   3.921   4.561   8.572  1.6913  1.3761  3.2696
  588MOL0     H81144   4.091   4.517   8.601 -1.6992 -2.1389  3.5520
  589MOL0     O81145   3.027   7.851   0.301 -0.1012  0.7256  0.8717
  589MOL0     C81146   3.086   7.796   0.208 -0.9249  0.4910  0.2511
  589MOL0     O81147   3.146   7.863   0.108  0.6576 -0.2068 -0.0734
  589MOL0     C81148   3.118   7.991   0.078  0.5653 -0.0375  0.2336
  589MOL0     C81149   3.230   8.075   0.047  0.5137 -0.4468 -1.3315
  589MOL0     C81150   3.195   8.209   0.016  0.2122  0.2611  0.0220
  589MOL0     C81151   3.063   8.259   0.046  0.4150 -0.0654  0.6092
  589MOL0     O81152   3.023   8.383   0.041  0.0479 -0.7741  0.2784
  589MOL0     C81153   3.086   8.457  -0.058  0.4600 -0.5954  0.7285
  589MOL0     C81154   3.031   8.601  -0.084  0.1431 -1.2557 -0.3103
  589MOL0     C81155   2.894   8.590  -0.155  0.9049  0.2564  0.0007
  589MOL0     C81156   2.820   8.717  -0.142 -0.3012 -0.2747  0.2047
  589MOL0     C81157   2.712   8.739  -0.239 -0.0141 -0.1463  0.3711
  589MOL0     C81158   2.622   8.852  -0.198  0.1182 -0.2754 -0.0384
  589MOL0     C81159   2.492   8.855  -0.278  0.2954 -0.0498 -0.4050
  589MOL0     C81160   2.404   8.972  -0.260  0.5840 -0.8155 -0.8008
  589MOL0     N81161   2.323   8.972  -0.134  0.3776  0.6386  0.1957
  589MOL0     C81162   2.345   9.031  -0.009 -0.5833 -1.0124 -0.5601
  589MOL0     C81163   2.263   8.969   0.075  0.0411 -0.7621 -0.6245
  589MOL0     C81164   2.264   9.005   0.222  0.5935  0.1495 -0.0870
  589MOL0     C81165   2.159   9.109   0.270 -0.5898  0.7313  1.0770
  589MOL0     C81166   2.162   9.140   0.425 -0.6153 -0.1494  0.8035
  589MOL0     C81167   2.095   9.026   0.505 -0.0480 -0.5008  0.1930
  589MOL0     O81168   1.956   9.065   0.510  0.0103 -0.3862 -0.1080
  589MOL0     C81169   1.865   9.014   0.417 -0.9925 -0.0723  0.4669
  589MOL0     C81170   1.768   9.107   0.374  0.7834  0.5330  0.1640
  589MOL0     C81171   1.655   9.065   0.293 -0.7761  0.3716 -0.5280
  589MOL0     C81172   1.563   9.175   0.256  0.3493 -0.5612 -0.5347
  589MOL0     C81173   1.662   8.934   0.241  0.1299 -0.4869  0.6953
  589MOL0     C81174   1.551   8.887   0.152  0.0017 -0.4181  0.4171
  589MOL0     O81175   1.591   8.849   0.024 -0.0449 -0.4639 -0.7683
  589MOL0     C81176   1.492   8.787  -0.049 -0.9148 -0.2668  0.0115
  589MOL0     C81177   1.482   8.648  -0.029  0.3018  0.2390 -0.2834
  589MOL0     C81178   1.387   8.579  -0.106  0.2753 -0.0842 -0.3708
  589MOL0     C81179   1.314   8.647  -0.209  0.4177 -0.6071 -0.7476
  589MOL0     O81180   1.219   8.596  -0.291 -0.8898 -0.1087 -0.8621
  589MOL0     C81181   1.225   8.461  -0.331 -0.1537 -0.6443 -0.6079
  589MOL0     C81182   1.332   8.431  -0.434 -0.8422 -0.4078 -0.2891
  589MOL0     C81183   1.332   8.513  -0.564  0.7509 -1.0012  0.1411
  589MOL0     C81184   1.435   8.455  -0.665  0.2649 -1.1351 -0.5433
  589MOL0     C81185   1.414   8.469  -0.809  0.1246 -0.4133  0.1190
  589MOL0     C81186   1.534   8.442  -0.902  0.6319  1.1477 -0.3271
  589MOL0     C81187   1.491   8.429  -1.048 -0.3285  0.8938  0.3176
  589MOL0     C81188   1.466   8.560  -1.112  0.7294  0.5396  0.3927
  589MOL0    Cl81189   1.305   8.615  -1.070 -0.2865 -0.1222  0.1694
  589MOL0     C81190   1.336   8.784  -0.233  0.6803 -0.2083  0.1470
  589MOL0     C81191   1.421   8.853  -0.150 -1.2230 -0.3436  0.5746
  589MOL0     O81192   1.441   8.881   0.200  0.0645 -0.4029  0.2224
  589MOL0     C81193   1.750   8.831   0.288  0.1030 -0.1230  0.5653
  589MOL0     C81194   1.847   8.878   0.386 -1.4382 -1.1425  0.0531
  589MOL0     N81195   2.193   8.872   0.008  0.8805 -0.1354 -0.0029
  589MOL0     N81196   2.231   8.870  -0.112 -0.5138 -0.1900  0.4954
  589MOL0     C81197   2.961   8.173   0.082  1.6821  0.6865  0.5016
  589MOL0     C81198   2.988   8.039   0.088 -1.3686  0.1076 -0.4255
  589MOL0     C81199   3.098   7.639   0.202  0.1108  0.6513 -0.3519
  589MOL0     C81200   3.185   7.578   0.106 -1.2723  0.4835 -0.5438
  589MOL0     C81201   3.198   7.437   0.096  0.3391 -0.0315  0.7968
  589MOL0     C81202   3.125   7.353   0.173 -0.0003  0.9467  0.7586
  589MOL0     O81203   3.137   7.214   0.172  0.5364  0.3454  0.2283
  589MOL0     C81204   3.226   7.154   0.080  0.9109 -0.3819 -0.3347
  589MOL0     C81205   3.230   7.002   0.104  0.4842 -0.3886  0.1560
  589MOL0     C81206   3.303   6.981   0.234  0.7254  0.8600  0.5746
  589MOL0     C81207   3.287   6.842   0.273  0.5406  0.1878  0.4091
  589MOL0     C81208   3.359   6.810   0.398  0.0804  0.3396 -0.9619
  589MOL0     C81209   3.418   6.763   0.502 -0.2015 -0.0875 -0.5829
  589MOL0     C81210   3.042   7.406   0.259  0.3986  0.0626  0.0824
  589MOL0     C81211   3.018   7.546   0.282  0.3997  0.5295  0.6173
  589MOL0     C81212   2.924   7.585   0.376  0.4363 -0.3961 -0.6877
  589MOL0     H81213   3.324   8.025   0.022  0.5582 -0.2878 -1.4796
  589MOL0     H81214   3.264   8.277  -0.033  0.3632 -1.2543 -2.0009
  589MOL0     H81215   3.090   8.402  -0.153  3.4768  0.6883  0.0074
  589MOL0     H81216   3.191   8.464  -0.029  1.0144 -0.5625 -1.1238
  589MOL0     H81217   3.021   8.672  -0.001  0.6544  2.6360 -3.2809
  589MOL0     H81218   3.104   8.636  -0.158 -0.0984 -1.7051 -0.7557
  589MOL0     H81219   2.902   8.564  -0.261  0.3676  4.1661 -1.1362
  589MOL0     H81220   2.825   8.522  -0.103 -1.3994  0.7885 -2.1712
  589MOL0     H81221   2.772   8.714  -0.044  0.7007 -1.4068  0.6839
  589MOL0     H81222   2.891   8.800  -0.144 -0.9687  0.3270  0.5935
  589MOL0     H81223   2.654   8.648  -0.259 -1.2909  1.3330 -3.4852
  589MOL0     H81224   2.759   8.748  -0.337 -3.2884 -0.5769 -1.3692
  589MOL0     H81225   2.596   8.867  -0.093 -0.1954  1.0562 -0.2931
  589MOL0     H81226   2.679   8.943  -0.217  0.6961 -0.2606  1.6214
  589MOL0     H81227   2.438   8.763  -0.252  1.4034 -0.2392  1.5029
  589MOL0     H81228   2.520   8.849  -0.383 -1.1571 -1.2412 -0.7688
  589MOL0     H81229   2.472   9.058  -0.260  0.8764 -0.8886  2.5826
  589MOL0     H81230   2.344   8.984  -0.350  0.4640  1.3939 -0.4919
  589MOL0     H81231   2.409   9.115   0.016 -2.0630  0.2300 -0.7959
  589MOL0     H81232   2.366   9.032   0.248  0.9870  0.2187 -1.6008
  589MOL0     H81233   2.245   8.907   0.267 -1.5242 -0.2894 -1.7487
  589MOL0     H81234   2.183   9.204   0.222  3.3448  0.0575  1.3868
  589MOL0     H81235   2.064   9.067   0.234  1.8443 -4.0273 -0.6612
  589MOL0     H81236   2.263   9.155   0.465 -1.4737 -1.0283  3.5369
  589MOL0     H81237   2.118   9.240   0.435 -0.0559  0.3924 -1.5709
  589MOL0     H81238   2.097   8.930   0.453  1.5344 -1.4607  1.8777
  589MOL0     H81239   2.129   9.017   0.609 -0.6759 -0.7836  0.3804
  589MOL0     H81240   1.761   9.209   0.412 -1.4386 -0.8887  4.1462
  589MOL0     H81241   1.461   9.138   0.267  0.2114 -0.8057 -2.2997
  589MOL0     H81242   1.570   9.203   0.150 -0.5935  0.9785 -0.2261
  589MOL0     H81243   1.590   9.261   0.319  3.4349 -1.1067 -0.9332
  589MOL0     H81244   1.542   8.591   0.041  0.3493  1.1364  0.4193
  589MOL0     H81245   1.372   8.472  -0.094 -0.1070 -0.1500 -1.3578
  589MOL0     H81246   1.237   8.402  -0.240  0.6182  1.8864  1.0306
  589MOL0     H81247   1.134   8.422  -0.377  1.1194 -2.3836 -1.7685
  589MOL0     H81248   1.421   8.448  -0.374 -1.0027  3.9164 -0.9447
  589MOL0     H81249   1.313   8.324  -0.450  0.8044 -0.9192  0.9947
  589MOL0     H81250   1.355   8.617  -0.541  0.9888 -1.1866  0.7564
  589MOL0     H81251   1.239   8.508  -0.623  1.0383  0.1690 -0.4534
  589MOL0     H81252   1.443   8.347  -0.646  0.8258 -1.1601 -0.8668
  589MOL0     H81253   1.531   8.502  -0.640 -0.6114 -0.4373  1.7022
  589MOL0     H81254   1.338   8.402  -0.851 -1.7408  1.2564  0.7255
  589MOL0     H81255   1.376   8.569  -0.830 -1.9835 -1.3263 -0.6524
  589MOL0     H81256   1.567   8.345  -0.862  0.8128  1.1059 -0.5752
  589MOL0     H81257   1.619   8.510  -0.891  4.1013 -2.2601 -3.0767
  589MOL0     H81258   1.401   8.368  -1.057 -0.4012  1.0323  0.0808
  589MOL0     H81259   1.570   8.384  -1.109 -1.9327  0.8268 -1.8102
  589MOL0     H81260   1.468   8.549  -1.221 -2.5730  0.0437  0.2794
  589MOL0     H81261   1.538   8.641  -1.097 -1.3003  3.2562 -2.9571
  589MOL0     H81262   1.284   8.838  -0.311  0.8021  2.1439  1.5989
  589MOL0     H81263   1.441   8.960  -0.157 -1.9337 -0.3135 -1.3028
  589MOL0     H81264   1.737   8.730   0.253  1.7802 -0.0041 -0.5036
  589MOL0     H81265   1.917   8.815   0.441  1.2470  1.2781 -0.3431
  589MOL0     H81266   2.860   8.212   0.085 -0.5630 -3.9440 -2.8057
  589MOL0     H81267   2.900   7.979   0.107 -0.4243 -2.5307 -3.4525
  589MOL0     H81268   3.241   7.642   0.040  0.7188 -0.8607 -0.2427
  589MOL0     H81269   3.265   7.403   0.017 -3.4728  2.0183 -3.8842
  589MOL0     H81270   3.203   7.172  -0.025  3.0711 -0.2225 -0.8244
  589MOL0     H81271   3.327   7.195   0.096  2.4908 -3.9287 -0.3077
  589MOL0     H81272   3.276   6.952   0.017 -0.8248  2.1130 -2.1168
  589MOL0     H81273   3.129   6.960   0.111  1.9584 -4.0631  2.6185
  589MOL0     H81274   3.411   6.995   0.219  1.0407  0.1151  1.9206
  589MOL0     H81275   3.254   7.032   0.318 -1.2128 -2.5470  1.6906
  589MOL0     H81276   3.316   6.768   0.199 -1.1648  0.8716 -1.0297
  589MOL0     H81277   3.179   6.825   0.281  0.5476  0.4005  1.1137
  589MOL0     H81278   3.470   6.752   0.595  0.2192  0.1124 -0.7919
  589MOL0     H81279   2.992   7.335   0.324 -1.2160  0.7012 -0.4151
  589MOL0     H81280   2.853   7.509   0.409 -0.9601  1.7176  1.5644
  589MOL0     H81281   2.981   7.623   0.461  0.2606  0.4500 -0.9382
  589MOL0     H81282   2.849   7.657   0.339  0.1462  0.3759  1.2848
  590MOL0     O81283   1.815   4.991   5.340  0.6872 -0.6458 -0.5482
  590MOL0     C81284   1.872   4.886   5.353 -1.4467  0.4054  0.6767
  590MOL0     O81285   1.807   4.765   5.321 -0.4581 -1.1732  0.3468
  590MOL0     C81286   1.689   4.767   5.252  0.8149  1.1455 -0.0556
  590MOL0     C81287   1.669   4.844   5.136 -0.4140  0.8155  0.2044
  590MOL0     C81288   1.550   4.830   5.064  1.0077  0.8235  0.2172
  590MOL0     C81289   1.449   4.743   5.097  0.6742 -0.8976  0.3277
  590MOL0     O81290   1.338   4.738   5.021  0.2171  1.0084  0.4491
  590MOL0     C81291   1.214   4.705   5.088  0.2115  0.4794  0.3390
  590MOL0     C81292   1.094   4.729   4.994  0.0747 -0.5254  0.2917
  590MOL0     C81293   0.962   4.677   5.054  0.5028  0.6303 -0.4626
  590MOL0     C81294   0.933   4.527   5.002  0.5119 -0.1708 -0.3270
  590MOL0     C81295   0.787   4.488   5.042 -0.1934  0.1172 -0.4642
  590MOL0     C81296   0.755   4.342   5.011  0.3503 -0.2790 -0.2625
  590MOL0     C81297   0.602   4.318   5.026 -0.1743  0.4969 -0.0638
  590MOL0     C81298   0.581   4.166   4.983 -0.1338 -0.4214 -0.8314
  590MOL0     N81299   0.456   4.112   5.035  0.6185  0.3511 -0.9451
  590MOL0     C81300   0.383   4.137   5.156 -0.3911  0.0453 -0.0959
  590MOL0     C81301   0.268   4.068   5.148 -0.2936  1.0435 -0.2256
  590MOL0     C81302   0.157   4.071   5.242 -0.2707  0.5297  0.2524
  590MOL0     C81303   0.078   4.205   5.245 -1.0593  0.0691 -0.1761
  590MOL0     C81304   0.034   4.239   5.098  0.0421  0.3373  0.1256
  590MOL0     C81305  -0.078   4.339   5.096 -0.2492 -0.0771  0.3827
  590MOL0     O81306  -0.141   4.358   4.961 -1.3549 -0.4268 -0.3494
  590MOL0     C81307  -0.267   4.403   4.963 -0.1400  0.1206 -0.3812
  590MOL0     C81308  -0.349   4.354   4.862  0.3586  0.6461 -0.0339
  590MOL0     C81309  -0.485   4.391   4.854  0.6882 -0.4328 -0.2955
  590MOL0     C81310  -0.565   4.343   4.736  0.0243  1.4088 -0.2820
  590MOL0     C81311  -0.538   4.478   4.956 -0.3228  0.1258 -0.1289
  590MOL0     C81312  -0.679   4.521   4.973 -0.1353  0.2584 -0.0255
  590MOL0     O81313  -0.722   4.627   5.059  0.4308 -0.0027 -0.1295
  590MOL0     C81314  -0.849   4.662   5.086 -0.4025  0.1316 -0.9244
  590MOL0     C81315  -0.940   4.695   4.988 -0.0944  0.5131 -0.7818
  590MOL0     C81316  -1.067   4.731   5.024 -0.4536  0.4874  0.1731
  590MOL0     C81317  -1.103   4.740   5.166 -0.9061  1.0837 -0.9459
  590MOL0     O81318  -1.232   4.749   5.197 -0.7740  1.2083  0.1867
  590MOL0     C81319  -1.311   4.629   5.167 -0.2598 -1.5122 -0.0775
  590MOL0     C81320  -1.452   4.661   5.216  1.0337  0.1113 -0.8820
  590MOL0     C81321  -1.516   4.805   5.189  0.5789  0.1536 -0.1713
  590MOL0     C81322  -1.546   4.827   5.037 -0.4990 -0.2479 -1.0820
  590MOL0     C81323  -1.524   4.970   5.011  0.1162  0.6099  0.4583
  590MOL0     C81324  -1.382   5.016   5.013 -0.8040  0.2369 -0.1448
  590MOL0     C81325  -1.368   5.165   4.989  0.1181  0.0798 -0.8751
  590MOL0     C81326  -1.229   5.216   5.011  0.4501 -0.1104 -0.2120
  590MOL0    Cl81327  -1.211   5.379   4.938 -0.1218 -0.2687 -0.3855
  590MOL0     C81328  -1.014   4.723   5.267  0.0221 -0.0015 -0.2055
  590MOL0     C81329  -0.887   4.674   5.221  0.1759  0.0487 -0.6826
  590MOL0     O81330  -0.758   4.448   4.913 -0.4841  0.0478  0.6352
  590MOL0     C81331  -0.452   4.519   5.058 -0.1242  0.4465 -0.1599
  590MOL0     C81332  -0.317   4.481   5.063 -0.4333 -0.8468  0.2669
  590MOL0     N81333   0.283   3.985   5.044 -0.1550 -0.5024 -0.0741
  590MOL0     N81334   0.385   4.011   4.973  0.2835  0.5523 -0.0519
  590MOL0     C81335   1.474   4.660   5.204 -0.2940  0.6356 -0.7303
  590MOL0     C81336   1.592   4.672   5.286  0.3665 -0.1501  0.0143
  590MOL0     C81337   2.019   4.868   5.402  0.0537 -1.4169  0.8004
  590MOL0     C81338   2.099   4.762   5.352 -0.1096 -0.2402  0.1333
  590MOL0     C81339   2.232   4.746   5.389 -0.5363  0.1736  0.6375
  590MOL0     C81340   2.287   4.829   5.479 -0.3114  0.4263 -0.3063
  590MOL0     O81341   2.422   4.799   5.514  0.3599 -0.2778  0.2620
  590MOL0     C81342   2.427   4.721   5.631  0.5963  0.8236  0.1700
  590MOL0     C81343   2.547   4.625   5.639  0.3509  0.2813  0.4707
  590MOL0     C81344   2.529   4.523   5.524 -0.5690  0.4443  0.1601
  590MOL0     C81345   2.649   4.427   5.525  0.8440 -0.1767  0.2461
  590MOL0     C81346   2.779   4.490   5.513  0.5947  0.2285  0.3704
  590MOL0     C81347   2.887   4.546   5.517  0.0846  0.2996 -0.9154
  590MOL0     C81348   2.224   4.942   5.530  0.6421  0.2451 -0.3593
  590MOL0     C81349   2.088   4.965   5.493  0.2512 -0.5946  0.3512
  590MOL0     C81350   2.016   5.086   5.547  0.3911  0.4745 -0.8589
  590MOL0     H81351   1.735   4.918   5.094  1.8012 -1.6777 -1.0056
  590MOL0     H81352   1.542   4.884   4.970  1.9131 -0.6995 -0.7754
  590MOL0     H81353   1.206   4.755   5.185  1.1233 -1.7040  1.6052
  590MOL0     H81354   1.225   4.598   5.107  0.5010  0.4956  0.2583
  590MOL0     H81355   1.100   4.836   4.974  0.7911 -0.3714  1.2755
  590MOL0     H81356   1.098   4.690   4.891 -0.2276  1.9194 -0.7186
  590MOL0     H81357   0.953   4.684   5.163 -2.8016  1.7120 -0.7030
  590MOL0     H81358   0.889   4.745   5.009  0.2337  0.4320 -0.3280
  590MOL0     H81359   0.942   4.533   4.893 -1.9027 -0.3622 -0.5969
  590MOL0     H81360   1.004   4.446   5.019 -0.0345 -1.5382 -3.7017
  590MOL0     H81361   0.710   4.553   5.000 -1.3330 -0.2950  0.9022
  590MOL0     H81362   0.782   4.489   5.152 -0.2372 -1.6020 -0.4237
  590MOL0     H81363   0.793   4.299   4.918  0.3370 -2.2553  0.6008
  590MOL0     H81364   0.799   4.281   5.091  0.2203 -0.2312 -0.1545
  590MOL0     H81365   0.557   4.378   4.946 -0.4100  1.0278  0.4589
  590MOL0     H81366   0.559   4.356   5.120  0.8884 -3.7011  2.3541
  590MOL0     H81367   0.592   4.151   4.875  2.3508  1.4922 -0.9350
  590MOL0     H81368   0.660   4.103   5.024 -0.2656  0.8727  1.6101
  590MOL0     H81369   0.400   4.208   5.236  3.0594 -3.1618  2.3299
  590MOL0     H81370   0.205   4.056   5.339  1.2301 -0.4382 -0.5888
  590MOL0     H81371   0.084   3.999   5.205  2.7794 -0.7801 -4.0171
  590MOL0     H81372  -0.006   4.197   5.314 -1.6780  3.1192 -0.4029
  590MOL0     H81373   0.142   4.283   5.287 -1.0781 -0.7086  1.3539
  590MOL0     H81374   0.118   4.272   5.036 -1.4377 -1.6638 -3.2151
  590MOL0     H81375  -0.010   4.144   5.066  0.6196  0.1246 -0.0659
  590MOL0     H81376  -0.159   4.303   5.159 -1.3526 -0.3653 -1.1536
  590MOL0     H81377  -0.039   4.436   5.130 -0.1164 -0.0416  0.1326
  590MOL0     H81378  -0.304   4.278   4.799  0.6795 -2.1905  3.3081
  590MOL0     H81379  -0.607   4.419   4.669  1.5154  0.7811 -2.0283
  590MOL0     H81380  -0.639   4.277   4.781  2.7223 -0.1401  2.2111
  590MOL0     H81381  -0.508   4.271   4.676 -1.4808 -1.0875  1.1551
  590MOL0     H81382  -0.911   4.685   4.883  0.6087 -3.6453 -0.3610
  590MOL0     H81383  -1.148   4.762   4.959 -2.3832 -0.3011  2.0777
  590MOL0     H81384  -1.313   4.623   5.057 -2.1570 -0.5808 -0.1355
  590MOL0     H81385  -1.272   4.535   5.206  0.3137 -1.6237 -0.8868
  590MOL0     H81386  -1.525   4.591   5.174 -0.0861  0.2576  0.7239
  590MOL0     H81387  -1.436   4.666   5.324 -0.5822 -2.1639 -0.4501
  590MOL0     H81388  -1.443   4.876   5.228 -0.6617  0.3769  1.8586
  590MOL0     H81389  -1.609   4.824   5.243  0.6870  0.2161 -0.0072
  590MOL0     H81390  -1.650   4.797   5.023 -0.8823  0.9618 -0.8943
  590MOL0     H81391  -1.486   4.760   4.975 -0.1487 -0.6927 -0.2773
  590MOL0     H81392  -1.561   4.985   4.909  1.6439 -0.2229 -0.2501
  590MOL0     H81393  -1.587   5.031   5.076  1.3302  2.9085 -0.3947
  590MOL0     H81394  -1.322   4.973   4.932 -0.4098  2.0601 -0.8750
  590MOL0     H81395  -1.333   4.990   5.107 -0.7241  2.3677  0.4599
  590MOL0     H81396  -1.442   5.209   5.057 -2.6898 -0.3162 -3.4486
  590MOL0     H81397  -1.395   5.186   4.885  0.0918 -0.1739 -0.9192
  590MOL0     H81398  -1.162   5.141   4.969  1.2358  1.3491 -1.6759
  590MOL0     H81399  -1.205   5.221   5.118  3.0546 -3.2336 -0.5235
  590MOL0     H81400  -1.038   4.750   5.369  1.1475  1.3924 -0.2710
  590MOL0     H81401  -0.813   4.645   5.295 -1.8887 -1.3807  0.9396
  590MOL0     H81402  -0.486   4.590   5.133 -2.0386  1.4293 -1.8754
  590MOL0     H81403  -0.257   4.528   5.141 -2.5957 -0.2685  1.6608
  590MOL0     H81404   1.398   4.594   5.242  0.5253  0.8066  1.3438
  590MOL0     H81405   1.606   4.609   5.373 -0.4963  0.7244  0.8061
  590MOL0     H81406   2.054   4.692   5.282  1.6628  0.8441 -2.2031
  590MOL0     H81407   2.290   4.667   5.342  3.2068  2.4514  1.0292
  590MOL0     H81408   2.440   4.773   5.727 -2.2014  0.4097  0.8540
  590MOL0     H81409   2.344   4.651   5.647  2.8350 -1.8390  1.1294
  590MOL0     H81410   2.549   4.570   5.734  0.3378  0.6801  0.7056
  590MOL0     H81411   2.642   4.679   5.638 -0.6487  2.2470 -2.8443
  590MOL0     H81412   2.442   4.462   5.550 -4.4452  4.4891 -1.8264
  590MOL0     H81413   2.502   4.568   5.428 -0.9751  0.4818  0.2876
  590MOL0     H81414   2.649   4.351   5.446  0.9102  0.3574 -0.2760
  590MOL0     H81415   2.662   4.378   5.622 -2.3871  1.3716  1.6256
  590MOL0     H81416   2.988   4.582   5.505  0.3301  0.9131  2.1554
  590MOL0     H81417   2.279   5.015   5.587 -0.5099  0.6239  0.2968
  590MOL0     H81418   2.006   5.161   5.468  2.8101  0.7074 -1.0103
  590MOL0     H81419   1.924   5.040   5.584  0.5922  2.0872  1.8793
  590MOL0     H81420   2.073   5.122   5.632 -3.1078  1.0902  1.4399
  591MOL0     O81421   8.088  11.395   7.804  0.0137 -0.0802  0.6974
  591MOL0     C81422   8.020  11.347   7.899  0.2160  0.6846 -0.2848
  591MOL0     O81423   7.921  11.257   7.889 -0.7656 -0.3976  0.1197
  591MOL0     C81424   7.899  11.204   7.765 -0.3555  0.1161 -0.6898
  591MOL0     C81425   7.985  11.111   7.710 -0.3943 -0.0946  0.1624
  591MOL0     C81426   7.966  11.069   7.576 -1.1503  0.3039 -0.0798
  591MOL0     C81427   7.844  11.087   7.510  0.6631  0.1663 -0.2877
  591MOL0     O81428   7.804  11.039   7.387  0.1147 -0.2906 -0.7790
  591MOL0     C81429   7.881  10.936   7.326 -0.2259  0.0047 -0.2247
  591MOL0     C81430   7.990  10.996   7.236 -0.3194 -1.1355  0.2579
  591MOL0     C81431   8.043  10.880   7.160  1.3678 -0.2505  1.0284
  591MOL0     C81432   7.989  10.871   7.011  0.1516 -1.1766 -0.8485
  591MOL0     C81433   8.069  10.779   6.923  0.0044 -0.0738 -0.6568
  591MOL0     C81434   8.206  10.845   6.872  0.4303  0.3632 -0.2334
  591MOL0     C81435   8.198  10.990   6.805  0.2802  0.3837 -0.0021
  591MOL0     C81436   8.340  11.031   6.766 -0.2701  0.8167  0.0356
  591MOL0     N81437   8.339  11.172   6.791  0.2716  0.3569 -0.1851
  591MOL0     C81438   8.341  11.228   6.915  0.3886  0.3682  0.1866
  591MOL0     C81439   8.336  11.361   6.890  0.3648  0.0811  0.6319
  591MOL0     C81440   8.348  11.471   6.997  0.0957 -0.3519 -0.4250
  591MOL0     C81441   8.485  11.533   6.988 -0.5914 -0.6312  0.4860
  591MOL0     C81442   8.513  11.598   7.126  0.0015  0.2347 -0.1905
  591MOL0     C81443   8.656  11.634   7.130  0.2502 -0.9278 -0.2638
  591MOL0     O81444   8.674  11.770   7.095 -0.6167  1.0794  0.6023
  591MOL0     C81445   8.807  11.812   7.103 -1.0094  0.1456  0.6206
  591MOL0     C81446   8.816  11.945   7.051 -0.0595  0.2742 -0.5865
  591MOL0     C81447   8.938  12.009   7.075  0.5643  0.0373 -0.1883
  591MOL0     C81448   8.942  12.157   7.027  0.0451  0.7038  0.8835
  591MOL0     C81449   9.051  11.937   7.115  1.1736 -0.0333 -1.1312
  591MOL0     C81450   9.184  11.996   7.140  1.4979  0.5628  0.4504
  591MOL0     O81451   9.205  12.122   7.096 -0.2052  0.1185 -0.5153
  591MOL0     C81452   9.323  12.183   7.136  0.3172  1.0624  0.0586
  591MOL0     C81453   9.399  12.243   7.042  0.3133  0.1519  0.5908
  591MOL0     C81454   9.501  12.323   7.074  0.1717  0.7590  1.2899
  591MOL0     C81455   9.560  12.311   7.200  0.5669  0.4450  0.4521
  591MOL0     O81456   9.671  12.374   7.251  0.3784 -0.2576  0.0387
  591MOL0     C81457   9.735  12.469   7.164  0.4456  0.1375 -0.2714
  591MOL0     C81458   9.660  12.604   7.153  0.0342 -0.2194  0.8251
  591MOL0     C81459   9.760  12.710   7.104 -0.8965  1.0581  0.0632
  591MOL0     C81460   9.827  12.665   6.971  0.5586 -0.4446 -0.9788
  591MOL0     C81461   9.890  12.773   6.880  0.2710 -1.3803 -1.0527
  591MOL0     C81462   9.903  12.719   6.734 -0.2159 -0.1574 -0.4902
  591MOL0     C81463   9.992  12.592   6.729  0.1509 -0.6298  0.5433
  591MOL0     C81464  10.013  12.562   6.574 -0.2199  0.0583 -0.2545
  591MOL0    Cl81465  10.081  12.700   6.493  0.1122 -0.4099  0.1676
  591MOL0     C81466   9.492  12.238   7.297 -0.1061 -0.1270  0.2467
  591MOL0     C81467   9.365  12.181   7.267 -0.4219 -1.0484 -0.1281
  591MOL0     O81468   9.269  11.924   7.196 -0.1075 -0.1459  0.3079
  591MOL0     C81469   9.041  11.796   7.120 -0.5691 -0.3715 -0.3433
  591MOL0     C81470   8.915  11.737   7.140 -0.5344  0.0753  0.1695
  591MOL0     N81471   8.323  11.375   6.751 -0.7780 -0.7474 -0.1608
  591MOL0     N81472   8.314  11.261   6.694 -1.0461  0.3124  0.1728
  591MOL0     C81473   7.754  11.161   7.574 -0.6730 -0.6221  0.1562
  591MOL0     C81474   7.780  11.235   7.698 -0.1669  0.0636  1.2412
  591MOL0     C81475   8.058  11.395   8.036  0.1195 -0.4881  0.3839
  591MOL0     C81476   8.082  11.527   8.055 -0.2302  0.3774  0.1306
  591MOL0     C81477   8.130  11.566   8.175  0.5960  0.2866  0.6370
  591MOL0     C81478   8.130  11.492   8.288  0.6601  0.8445 -0.2251
  591MOL0     O81479   8.173  11.533   8.407  0.7584  0.1623 -0.3350
  591MOL0     C81480   8.316  11.528   8.429  0.2076  0.1835 -1.3543
  591MOL0     C81481   8.358  11.401   8.507  0.6272 -0.5147 -0.1931
  591MOL0     C81482   8.510  11.389   8.539  0.2724  1.3838  0.6373
  591MOL0     C81483   8.545  11.259   8.605  0.4927  0.7030 -0.0188
  591MOL0     C81484   8.519  11.134   8.531 -0.0773 -0.2186 -0.4341
  591MOL0     C81485   8.499  11.030   8.473 -0.4295 -0.4081 -0.9404
  591MOL0     C81486   8.091  11.352   8.276  0.4985 -0.7287  0.0427
  591MOL0     C81487   8.068  11.310   8.142 -0.3067 -0.3856 -0.5466
  591MOL0     C81488   8.052  11.156   8.127 -0.0009 -0.6645 -0.6972
  591MOL0     H81489   8.073  11.088   7.769 -2.5950 -2.7221  2.6541
  591MOL0     H81490   8.035  10.999   7.530 -0.8660  0.9034 -0.5704
  591MOL0     H81491   7.809  10.876   7.270 -0.0291  0.6273 -1.1820
  591MOL0     H81492   7.924  10.879   7.409 -0.4716  3.2273  2.3290
  591MOL0     H81493   7.941  11.079   7.185  0.0291  1.8380  4.3160
  591MOL0     H81494   8.071  11.044   7.291  1.4513 -2.2612 -1.2742
  591MOL0     H81495   8.149  10.903   7.146  1.5734 -1.1199  1.1379
  591MOL0     H81496   8.029  10.785   7.211  0.0367  0.6868  2.5073
  591MOL0     H81497   7.885  10.837   7.006  0.4579 -3.4272  3.2198
  591MOL0     H81498   7.983  10.970   6.967  2.4006 -0.3743  0.5074
  591MOL0     H81499   8.001  10.759   6.839 -0.9972 -3.5155  0.7931
  591MOL0     H81500   8.080  10.679   6.966  0.1347  0.9625  1.8818
  591MOL0     H81501   8.274  10.841   6.958  1.2873  0.3350 -0.8883
  591MOL0     H81502   8.244  10.777   6.796 -1.3545 -3.9208  2.3508
  591MOL0     H81503   8.138  11.071   6.847  0.3557  0.7767 -0.6453
  591MOL0     H81504   8.143  10.975   6.711  1.8538  2.0271 -1.2547
  591MOL0     H81505   8.414  10.972   6.822 -1.3504  1.7702  2.6375
  591MOL0     H81506   8.360  11.027   6.659 -0.5695  2.9133 -0.1302
  591MOL0     H81507   8.336  11.187   7.015  3.4153  2.3909  1.3243
  591MOL0     H81508   8.320  11.434   7.096  2.5890  0.2099  0.5536
  591MOL0     H81509   8.283  11.557   6.978  1.5506  2.0163  3.9466
  591MOL0     H81510   8.557  11.456   6.958 -1.2565 -2.2746  2.7745
  591MOL0     H81511   8.485  11.615   6.916 -2.3974  0.0711  1.2180
  591MOL0     H81512   8.465  11.694   7.143  2.5048  1.2371  1.9854
  591MOL0     H81513   8.493  11.533   7.211 -1.8546 -0.3179 -1.0049
  591MOL0     H81514   8.682  11.614   7.234 -0.1060 -1.9314 -0.3478
  591MOL0     H81515   8.712  11.568   7.063  4.9998 -0.9769  3.2747
  591MOL0     H81516   8.730  11.995   7.008  0.5260  2.0013  0.2030
  591MOL0     H81517   8.840  12.194   7.018  0.9415  3.7085  1.8851
  591MOL0     H81518   9.007  12.163   6.939  1.8704 -1.9517  1.8931
  591MOL0     H81519   9.002  12.225   7.088 -0.5818  0.2031  2.0880
  591MOL0     H81520   9.376  12.241   6.936  2.9514  0.5403 -0.0390
  591MOL0     H81521   9.544  12.387   6.998 -2.0747 -2.2844 -2.9388
  591MOL0     H81522   9.836  12.498   7.195  0.7877  0.2742 -1.4873
  591MOL0     H81523   9.758  12.418   7.070 -2.9780  0.0549 -1.1782
  591MOL0     H81524   9.580  12.605   7.078  3.5076 -1.0716 -3.3084
  591MOL0     H81525   9.609  12.628   7.246  0.5728  0.5836  0.9229
  591MOL0     H81526   9.840  12.715   7.178  0.0097  0.6758 -0.8696
  591MOL0     H81527   9.703  12.802   7.088 -4.6228 -1.0637  0.0205
  591MOL0     H81528   9.743  12.617   6.918 -0.6964  1.1390 -0.5169
  591MOL0     H81529   9.898  12.585   6.993 -1.9407 -2.7923 -0.7709
  591MOL0     H81530   9.829  12.863   6.874  1.2493 -0.5617  0.4296
  591MOL0     H81531   9.985  12.803   6.927 -0.9142 -3.1265  2.9112
  591MOL0     H81532   9.943  12.800   6.672 -1.1581  0.9457  0.3066
  591MOL0     H81533   9.809  12.679   6.696 -0.0034 -1.0748 -0.0773
  591MOL0     H81534   9.933  12.515   6.779  0.2470 -1.3024 -0.3504
  591MOL0     H81535  10.086  12.610   6.782 -1.4174  2.0232  2.6580
  591MOL0     H81536   9.912  12.540   6.539 -0.7187  0.8283  0.6496
  591MOL0     H81537  10.069  12.470   6.558 -1.6005 -1.5855  3.3172
  591MOL0     H81538   9.529  12.230   7.398 -1.8916  0.8170  1.0274
  591MOL0     H81539   9.300  12.141   7.344  0.8583 -1.2811  0.8617
  591MOL0     H81540   9.130  11.740   7.147 -0.8037  0.2275  1.9411
  591MOL0     H81541   8.915  11.632   7.166 -2.6241 -0.7800 -2.7427
  591MOL0     H81542   7.662  11.183   7.521 -1.7015 -1.5460  1.5175
  591MOL0     H81543   7.727  11.318   7.743  1.0472  0.1306  2.6265
  591MOL0     H81544   8.061  11.597   7.975 -0.1017 -0.8177 -0.9661
  591MOL0     H81545   8.161  11.669   8.184  1.6388  0.1725 -1.2833
  591MOL0     H81546   8.369  11.516   8.333  1.7326 -2.0972 -0.3147
  591MOL0     H81547   8.353  11.617   8.481 -1.9369  0.1872  0.2730
  591MOL0     H81548   8.314  11.316   8.454  0.4617 -0.7178  0.2668
  591MOL0     H81549   8.308  11.404   8.604 -0.8913 -2.3426 -0.8573
  591MOL0     H81550   8.573  11.404   8.451 -1.4280 -0.4330 -1.0222
  591MOL0     H81551   8.545  11.463   8.611  0.8485 -1.2930  3.3266
  591MOL0     H81552   8.506  11.263   8.707 -1.6171  3.7746 -0.7961
  591MOL0     H81553   8.654  11.266   8.609  0.7393 -0.2183 -2.6630
  591MOL0     H81554   8.469  10.943   8.418 -0.7304  0.5157 -2.2981
  591MOL0     H81555   8.094  11.284   8.360 -0.1026  0.5109  1.1017
  591MOL0     H81556   7.944  11.140   8.118 -0.4594  0.7947  1.3720
  591MOL0     H81557   8.115  11.115   8.047  1.1987 -0.7674  0.2758
  591MOL0     H81558   8.075  11.095   8.214 -0.3039 -2.3178 -1.7357
  592MOL0     O81559   3.114   3.565   1.100 -0.1859  0.1192 -0.4764
  592MOL0     C81560   3.185   3.624   1.180  0.6668 -0.3088  0.8957
  592MOL0     O81561   3.144   3.675   1.303 -0.2101 -0.5007  0.7435
  592MOL0     C81562   3.029   3.627   1.363 -0.4706  0.6079 -0.0083
  592MOL0     C81563   3.017   3.490   1.391 -0.4503 -0.4240  0.1144
  592MOL0     C81564   2.903   3.444   1.452  0.4409 -0.6923  0.4601
  592MOL0     C81565   2.798   3.520   1.493 -0.1928  0.5609 -0.1954
  592MOL0     O81566   2.680   3.474   1.537 -0.0821 -0.3257 -0.6435
  592MOL0     C81567   2.677   3.330   1.562  0.7662  0.4974  0.5807
  592MOL0     C81568   2.551   3.286   1.629  0.0251  0.7641  1.2630
  592MOL0     C81569   2.528   3.357   1.767  0.2259  0.8893  0.7124
  592MOL0     C81570   2.393   3.341   1.825  0.6026 -0.0000 -0.0174
  592MOL0     C81571   2.406   3.308   1.977  0.1743 -0.0304  0.6888
  592MOL0     C81572   2.275   3.302   2.055  0.5991 -0.2722 -0.3122
  592MOL0     C81573   2.290   3.301   2.208 -1.3024 -0.3139 -0.8583
  592MOL0     C81574   2.336   3.166   2.280  1.0631 -0.0988 -0.0664
  592MOL0     N81575   2.479   3.141   2.261 -0.7762 -0.0904  0.4364
  592MOL0     C81576   2.579   3.198   2.329 -0.2761  0.2089 -0.3336
  592MOL0     C81577   2.691   3.156   2.279 -0.1746  0.2910  0.2465
  592MOL0     C81578   2.823   3.203   2.325 -0.1644 -0.4392  0.0659
  592MOL0     C81579   2.904   3.244   2.200 -0.2146 -0.6911 -0.0128
  592MOL0     C81580   3.053   3.272   2.243 -0.0012 -0.0435  1.0835
  592MOL0     C81581   3.129   3.357   2.125  0.0335  0.0319 -0.3741
  592MOL0     O81582   3.272   3.357   2.145  0.5680  0.1437  0.6017
  592MOL0     C81583   3.348   3.466   2.107  0.6731 -1.0212  0.3205
  592MOL0     C81584   3.488   3.447   2.127 -0.1674 -0.2339 -0.3819
  592MOL0     C81585   3.586   3.532   2.088  0.4070  0.5244  0.2750
  592MOL0     C81586   3.731   3.492   2.117 -0.5645  0.0910  0.5982
  592MOL0     C81587   3.544   3.658   2.021 -1.0200  1.5196 -0.8512
  592MOL0     C81588   3.630   3.767   1.964  0.5151  0.3632 -0.3050
  592MOL0     O81589   3.564   3.879   1.927 -0.4772 -0.3314  0.2136
  592MOL0     C81590   3.626   3.999   1.891 -0.1455  0.1783  0.4278
  592MOL0     C81591   3.766   4.039   1.902 -0.1686 -0.8995 -1.0651
  592MOL0     C81592   3.806   4.164   1.867 -0.8088 -0.4408 -0.3723
  592MOL0     C81593   3.718   4.246   1.802  0.4615  0.9049 -0.1222
  592MOL0     O81594   3.775   4.363   1.764 -0.6515 -0.7048  0.4031
  592MOL0     C81595   3.683   4.483   1.776  0.2131  1.7685 -0.2542
  592MOL0     C81596   3.755   4.611   1.739  0.5538 -0.0127  0.5092
  592MOL0     C81597   3.867   4.645   1.839  0.3376 -1.3055  0.4327
  592MOL0     C81598   3.908   4.795   1.826  0.8875 -0.2799 -0.3921
  592MOL0     C81599   4.006   4.807   1.701 -0.3541 -0.1885 -0.4801
  592MOL0     C81600   4.050   4.950   1.665 -0.4964 -0.1538  0.9450
  592MOL0     C81601   4.127   4.959   1.528 -0.4926 -1.0729 -0.6114
  592MOL0     C81602   4.262   4.861   1.527  0.5982 -0.8950 -0.0341
  592MOL0    Cl81603   4.365   4.882   1.683 -0.1288 -0.3075 -0.2464
  592MOL0     C81604   3.588   4.204   1.781 -0.6915 -1.1701 -0.4909
  592MOL0     C81605   3.545   4.088   1.827  0.7264  0.4032 -0.2668
  592MOL0     O81606   3.746   3.741   1.949 -0.5157 -0.1156 -0.5813
  592MOL0     C81607   3.411   3.662   1.994  0.4433 -0.2661  0.3327
  592MOL0     C81608   3.309   3.579   2.041 -0.0241 -0.5966  0.0128
  592MOL0     N81609   2.668   3.060   2.178  0.6512  0.2594  0.1707
  592MOL0     N81610   2.538   3.056   2.173  0.8971  0.2357 -0.4266
  592MOL0     C81611   2.824   3.662   1.478  0.4383  0.0539  0.2026
  592MOL0     C81612   2.934   3.713   1.408  0.0526  0.2310  0.0468
  592MOL0     C81613   3.314   3.665   1.129 -0.3813  0.3596  0.3626
  592MOL0     C81614   3.384   3.778   1.176 -1.0654  0.1631 -0.2668
  592MOL0     C81615   3.517   3.804   1.137 -0.3337 -0.7678  0.4107
  592MOL0     C81616   3.600   3.719   1.070  0.7075  0.4265 -0.0077
  592MOL0     O81617   3.732   3.753   1.045  0.2731 -0.6244  0.1387
  592MOL0     C81618   3.834   3.660   0.997 -0.3439 -0.2854  0.2702
  592MOL0     C81619   3.881   3.608   1.129 -0.6141  1.4563  0.0296
  592MOL0     C81620   3.987   3.700   1.189  0.3197 -0.6803 -0.1979
  592MOL0     C81621   4.120   3.631   1.221  0.4444 -0.4062 -1.0851
  592MOL0     C81622   4.196   3.588   1.092 -0.3651 -0.2516 -1.1410
  592MOL0     C81623   4.258   3.553   0.997 -1.2939  0.3713  0.7636
  592MOL0     C81624   3.529   3.600   1.039 -0.7186  0.3808 -0.0182
  592MOL0     C81625   3.394   3.571   1.057  0.7608  0.5640 -0.8389
  592MOL0     C81626   3.351   3.441   1.003  0.0308  0.1816  0.1223
  592MOL0     H81627   3.096   3.421   1.363 -0.8649 -0.6344 -0.5711
  592MOL0     H81628   2.897   3.336   1.460  1.5523 -0.7974  0.0912
  592MOL0     H81629   2.755   3.300   1.633 -0.2942  1.6452  2.3346
  592MOL0     H81630   2.686   3.282   1.465  0.1092  1.9234 -0.2284
  592MOL0     H81631   2.459   3.297   1.571  1.1141 -0.2556 -0.7550
  592MOL0     H81632   2.563   3.182   1.660 -3.0862 -0.2993 -0.6704
  592MOL0     H81633   2.602   3.328   1.841  0.6356  3.6217  1.5029
  592MOL0     H81634   2.545   3.465   1.761 -0.3144  1.1093  2.4832
  592MOL0     H81635   2.332   3.432   1.827 -1.4437 -1.3379  2.0174
  592MOL0     H81636   2.332   3.266   1.774  1.3247  0.6594 -1.9630
  592MOL0     H81637   2.470   3.388   2.014  1.2795 -0.4814 -0.1749
  592MOL0     H81638   2.436   3.205   1.999 -3.6729 -0.6776  3.9656
  592MOL0     H81639   2.207   3.382   2.027 -4.5857 -3.1310  2.6088
  592MOL0     H81640   2.222   3.211   2.026  2.4163 -1.0785 -1.3440
  592MOL0     H81641   2.201   3.349   2.250  0.8633  3.3758 -0.0070
  592MOL0     H81642   2.362   3.380   2.229 -1.5067 -0.2879 -0.2392
  592MOL0     H81643   2.320   3.196   2.384  0.8783  1.0946 -0.4227
  592MOL0     H81644   2.278   3.076   2.258  1.6209 -0.7328  0.9749
  592MOL0     H81645   2.565   3.251   2.422 -1.8305 -1.0667  0.2099
  592MOL0     H81646   2.878   3.127   2.380 -2.6310 -2.7339 -0.4151
  592MOL0     H81647   2.812   3.281   2.401  2.7548 -1.0489  1.2397
  592MOL0     H81648   2.903   3.176   2.114  0.0559 -1.0893  0.2959
  592MOL0     H81649   2.863   3.342   2.173  0.1286  0.0378  1.9420
  592MOL0     H81650   3.046   3.336   2.332  0.2892  1.0880  0.3265
  592MOL0     H81651   3.112   3.184   2.269 -1.1496 -0.6862  1.5583
  592MOL0     H81652   3.121   3.321   2.022  1.0969  4.3421 -2.1390
  592MOL0     H81653   3.070   3.449   2.125  2.3562  1.5858 -0.9651
  592MOL0     H81654   3.522   3.351   2.165 -0.7279  0.1234  1.1114
  592MOL0     H81655   3.771   3.451   2.024 -0.6793  2.0559 -0.3728
  592MOL0     H81656   3.729   3.425   2.203  0.2872 -0.8019 -0.0500
  592MOL0     H81657   3.789   3.580   2.147 -0.4635  0.1089  0.3589
  592MOL0     H81658   3.848   3.982   1.946 -0.4507  0.2531  1.0827
  592MOL0     H81659   3.900   4.210   1.896 -0.7195 -1.6685  1.4199
  592MOL0     H81660   3.603   4.457   1.706 -0.1576 -2.6148  1.4325
  592MOL0     H81661   3.642   4.499   1.877 -0.3821 -0.6487 -0.0525
  592MOL0     H81662   3.801   4.600   1.640 -1.2320  0.6287 -0.4493
  592MOL0     H81663   3.696   4.703   1.727  4.0447  2.1739 -1.4957
  592MOL0     H81664   3.961   4.590   1.829  2.6883  2.2641  0.9847
  592MOL0     H81665   3.832   4.623   1.940 -1.7694 -1.4346 -0.2736
  592MOL0     H81666   3.965   4.830   1.912 -2.0090  5.4658 -0.3572
  592MOL0     H81667   3.823   4.862   1.820  2.0142  2.0228  4.6427
  592MOL0     H81668   4.098   4.750   1.718  2.2243  3.5258 -0.8313
  592MOL0     H81669   3.946   4.775   1.616  0.2600 -0.7681 -0.6986
  592MOL0     H81670   4.110   4.995   1.745  4.0166 -0.0867 -2.0940
  592MOL0     H81671   3.953   5.000   1.657 -0.2117  0.6246  2.0387
  592MOL0     H81672   4.162   5.062   1.523  3.0982 -2.0767  1.0722
  592MOL0     H81673   4.066   4.936   1.440 -0.0373  3.3871 -2.3418
  592MOL0     H81674   4.326   4.878   1.441 -0.8675 -1.9202 -1.3897
  592MOL0     H81675   4.220   4.760   1.525  0.3342 -1.0920  4.6747
  592MOL0     H81676   3.509   4.265   1.740  1.1017  2.4172  0.8867
  592MOL0     H81677   3.441   4.062   1.813  1.2472 -1.5789 -0.7833
  592MOL0     H81678   3.395   3.736   1.916  1.2477 -0.1323  0.2940
  592MOL0     H81679   3.208   3.605   2.010  0.4511  1.8014  0.2148
  592MOL0     H81680   2.732   3.718   1.491  0.8735  0.9452 -0.4956
  592MOL0     H81681   2.957   3.812   1.370  2.1306 -1.2198 -2.9039
  592MOL0     H81682   3.347   3.853   1.246  0.6165  1.2414 -0.4683
  592MOL0     H81683   3.578   3.880   1.185  0.6746 -1.0879 -0.3084
  592MOL0     H81684   3.779   3.591   0.933  1.3127 -1.8428  0.4306
  592MOL0     H81685   3.913   3.706   0.937 -0.4495  2.0752  1.7992
  592MOL0     H81686   3.914   3.506   1.105 -0.9299  0.9606  1.5366
  592MOL0     H81687   3.806   3.598   1.208  2.1821 -1.3066  2.6288
  592MOL0     H81688   4.009   3.793   1.135 -0.2998 -0.8555 -0.7623
  592MOL0     H81689   3.951   3.736   1.286  2.0896  0.2227  0.1646
  592MOL0     H81690   4.103   3.544   1.283  1.9596  0.7949  1.1738
  592MOL0     H81691   4.182   3.704   1.274 -2.0178  0.7242  0.4110
  592MOL0     H81692   4.330   3.526   0.922  0.0928  2.5662  1.2064
  592MOL0     H81693   3.580   3.524   0.981  1.7552  2.5971 -0.9365
  592MOL0     H81694   3.414   3.354   1.022  0.9525  0.0279 -3.0363
  592MOL0     H81695   3.254   3.410   1.043 -0.5256  2.4146  0.5998
  592MOL0     H81696   3.346   3.440   0.894  1.8560  0.8328  0.0050
  593MOL0     O81697   3.884   3.629   9.131 -0.0437 -0.4902  0.4709
  593MOL0     C81698   3.808   3.729   9.144 -0.6622  0.4314  0.9130
  593MOL0     O81699   3.826   3.847   9.087 -0.2517  0.0498 -0.5411
  593MOL0     C81700   3.947   3.904   9.067  0.9151  0.8494  0.3884
  593MOL0     C81701   4.054   3.892   9.148  0.2129  0.5018  0.4216
  593MOL0     C81702   4.171   3.964   9.125 -0.0584  1.1436 -0.4513
  593MOL0     C81703   4.182   4.061   9.026 -0.6558  0.0454  0.5552
  593MOL0     O81704   4.288   4.142   8.991 -0.5259 -0.0617 -0.1947
  593MOL0     C81705   4.418   4.077   9.013  0.7750 -1.2048 -0.0820
  593MOL0     C81706   4.442   3.977   8.908 -0.1852  0.7486 -0.7147
  593MOL0     C81707   4.556   3.880   8.961  0.3138  0.2630 -0.8766
  593MOL0     C81708   4.624   3.803   8.842  0.2367  0.9031 -0.5428
  593MOL0     C81709   4.695   3.669   8.887  0.9506 -0.5187 -0.1082
  593MOL0     C81710   4.801   3.699   8.986 -0.5122 -0.7106 -0.4814
  593MOL0     C81711   4.936   3.741   8.918  1.0634 -0.7294 -1.6590
  593MOL0     C81712   5.026   3.632   8.885 -0.7914  0.2583 -0.4087
  593MOL0     N81713   4.968   3.503   8.857 -0.2236 -0.5336  0.9390
  593MOL0     C81714   4.898   3.471   8.740 -0.1963  0.2572 -0.3284
  593MOL0     C81715   4.858   3.342   8.774  1.2412  0.1536  0.6172
  593MOL0     C81716   4.769   3.255   8.689  0.0451 -0.4909 -0.1751
  593MOL0     C81717   4.627   3.326   8.670 -0.3830 -0.0680 -0.0617
  593MOL0     C81718   4.538   3.300   8.790  0.3105 -0.4196  0.5735
  593MOL0     C81719   4.395   3.333   8.774  0.2547 -0.9737  0.4039
  593MOL0     O81720   4.377   3.468   8.751  0.1579  0.8808  0.4521
  593MOL0     C81721   4.244   3.509   8.758  0.0613 -0.3987 -0.0952
  593MOL0     C81722   4.133   3.427   8.756 -0.2122 -0.6350 -0.5694
  593MOL0     C81723   4.008   3.484   8.757 -0.3673 -0.7755 -0.1559
  593MOL0     C81724   3.886   3.399   8.732  0.1488  0.3596 -0.1290
  593MOL0     C81725   3.994   3.629   8.767 -0.3396  0.3050  0.1923
  593MOL0     C81726   3.862   3.697   8.758  0.0577  0.1199 -0.0584
  593MOL0     O81727   3.769   3.669   8.858 -0.1116 -0.0420  0.7775
  593MOL0     C81728   3.650   3.733   8.847 -0.1581  0.4049  0.7865
  593MOL0     C81729   3.540   3.647   8.869 -0.2319 -0.6175 -0.3304
  593MOL0     C81730   3.411   3.700   8.886 -0.8690  1.1455 -0.5607
  593MOL0     C81731   3.385   3.836   8.863  0.0056  0.6453  1.6761
  593MOL0     O81732   3.264   3.895   8.882  0.2840  0.2411  0.0709
  593MOL0     C81733   3.162   3.898   8.776  0.6553  0.3514 -0.1063
  593MOL0     C81734   3.167   4.012   8.675 -0.5048 -0.2683 -0.0133
  593MOL0     C81735   3.062   4.006   8.564  0.4290  0.2573 -0.3147
  593MOL0     C81736   3.054   4.132   8.474 -0.6504  1.2762 -0.8011
  593MOL0     C81737   2.998   4.243   8.566  0.0028 -0.4027  0.1982
  593MOL0     C81738   2.973   4.369   8.483 -0.1161  0.0432  1.3876
  593MOL0     C81739   2.913   4.479   8.566 -0.1966 -0.1661 -0.2545
  593MOL0     C81740   2.873   4.611   8.494 -0.7514  0.7854  0.1132
  593MOL0    Cl81741   2.773   4.708   8.600 -0.1934 -0.5538 -0.0973
  593MOL0     C81742   3.491   3.918   8.835 -0.7890 -0.9563 -0.3282
  593MOL0     C81743   3.614   3.867   8.822 -0.3312  0.9428 -0.7692
  593MOL0     O81744   3.839   3.754   8.651 -0.7143  0.2711 -0.1613
  593MOL0     C81745   4.113   3.713   8.764  0.3746  0.2901 -0.1846
  593MOL0     C81746   4.229   3.650   8.762  0.3669  0.2849 -0.6870
  593MOL0     N81747   4.892   3.317   8.909  0.3512  0.8399 -0.1750
  593MOL0     N81748   4.961   3.414   8.955  0.0588 -0.3093  0.3559
  593MOL0     C81749   4.072   4.077   8.943 -0.3385 -0.7428 -0.4539
  593MOL0     C81750   3.956   3.999   8.964 -1.0409 -0.3890  0.7055
  593MOL0     C81751   3.691   3.698   9.227 -0.2092  0.1256  0.2812
  593MOL0     C81752   3.585   3.792   9.232 -0.2751 -0.2092 -0.0980
  593MOL0     C81753   3.483   3.774   9.323 -1.0834  0.0956 -0.0143
  593MOL0     C81754   3.475   3.658   9.399  1.4814  0.2931  0.3785
  593MOL0     O81755   3.366   3.650   9.478 -0.0434  0.5105 -0.6737
  593MOL0     C81756   3.244   3.610   9.419 -0.7847 -0.2724 -0.4551
  593MOL0     C81757   3.139   3.561   9.520 -0.1494  0.8113 -0.7100
  593MOL0     C81758   3.190   3.443   9.610 -0.0821 -0.0812  0.6932
  593MOL0     C81759   3.086   3.383   9.704  0.3052  0.7429  0.0078
  593MOL0     C81760   3.002   3.288   9.634  0.0696  0.8869 -0.4383
  593MOL0     C81761   2.923   3.216   9.583 -0.3510 -0.1001 -0.0750
  593MOL0     C81762   3.566   3.556   9.389 -0.6452  0.9681  1.1516
  593MOL0     C81763   3.676   3.571   9.298  0.5213  0.1333 -0.7387
  593MOL0     C81764   3.787   3.473   9.322 -0.3554 -0.6273 -0.7560
  593MOL0     H81765   4.041   3.813   9.221 -0.6406  1.8362  1.7839
  593MOL0     H81766   4.251   3.946   9.197 -2.4448 -3.3321  1.4620
  593MOL0     H81767   4.406   4.024   9.108 -1.0323  2.5719  2.0593
  593MOL0     H81768   4.493   4.156   9.029 -2.0070  1.0431  3.4373
  593MOL0     H81769   4.357   3.911   8.887  0.9176 -1.5359  1.5688
  593MOL0     H81770   4.471   4.032   8.818 -1.3011  3.1481  0.2958
  593MOL0     H81771   4.638   3.931   9.012 -0.4948  0.5004  0.2321
  593MOL0     H81772   4.521   3.810   9.037 -0.4818  2.9519  1.4128
  593MOL0     H81773   4.551   3.775   8.766  1.5168 -1.4837 -0.9824
  593MOL0     H81774   4.700   3.867   8.794  3.0873 -1.4722  0.4855
  593MOL0     H81775   4.728   3.623   8.794  0.2584  0.3535 -0.8112
  593MOL0     H81776   4.617   3.604   8.927 -1.3214  0.6397 -2.3832
  593MOL0     H81777   4.772   3.775   9.059  0.7104 -0.9638  0.2906
  593MOL0     H81778   4.809   3.614   9.054 -3.9962 -2.0069 -1.4870
  593MOL0     H81779   4.995   3.798   8.990 -0.5091 -1.3172  0.1641
  593MOL0     H81780   4.907   3.800   8.830 -0.8549 -0.6774 -1.0453
  593MOL0     H81781   5.088   3.663   8.801 -1.0067  0.1485 -0.6084
  593MOL0     H81782   5.087   3.620   8.975 -1.9876 -2.9405  0.1094
  593MOL0     H81783   4.884   3.527   8.649 -0.6254  0.4804 -0.1240
  593MOL0     H81784   4.749   3.155   8.731 -1.8459 -1.8760 -3.9254
  593MOL0     H81785   4.824   3.251   8.594  0.4381  2.3687 -0.1360
  593MOL0     H81786   4.641   3.434   8.659  1.7792 -0.4228 -1.3728
  593MOL0     H81787   4.587   3.296   8.573 -1.1416  1.1219 -0.1339
  593MOL0     H81788   4.548   3.192   8.804  0.3428 -0.1570  2.9047
  593MOL0     H81789   4.570   3.359   8.877 -0.6574  0.8857  0.0788
  593MOL0     H81790   4.352   3.266   8.699  0.4932 -0.7137  0.0321
  593MOL0     H81791   4.340   3.309   8.865  1.4684 -2.2805  0.8291
  593MOL0     H81792   4.141   3.320   8.745  3.2795 -0.6268  0.7274
  593MOL0     H81793   3.903   3.326   8.652  1.0977 -0.4065  0.7497
  593MOL0     H81794   3.789   3.449   8.719  0.0861  0.0573 -0.8974
  593MOL0     H81795   3.858   3.337   8.817 -0.8873  0.3217 -0.4825
  593MOL0     H81796   3.571   3.544   8.887  4.8451  0.2988 -2.2284
  593MOL0     H81797   3.322   3.643   8.907  0.6061 -0.4175  1.9859
  593MOL0     H81798   3.164   3.800   8.727  1.5874  0.5152 -0.4186
  593MOL0     H81799   3.062   3.904   8.820 -0.7076 -3.1099 -2.3470
  593MOL0     H81800   3.160   4.109   8.726 -1.9552 -0.5525  0.3851
  593MOL0     H81801   3.268   4.002   8.634 -0.3914 -0.4587  0.3089
  593MOL0     H81802   2.964   3.987   8.607 -1.2834  0.9697 -3.5465
  593MOL0     H81803   3.076   3.916   8.503  2.4640  1.9971 -2.6319
  593MOL0     H81804   3.002   4.100   8.383  2.7165  0.0947 -2.4918
  593MOL0     H81805   3.157   4.153   8.445 -0.3072  1.9819  0.8126
  593MOL0     H81806   2.903   4.228   8.618  0.6403  2.7790  2.6238
  593MOL0     H81807   3.069   4.274   8.643  0.3582 -1.2343  0.2192
  593MOL0     H81808   2.899   4.355   8.404  0.1129  2.0350  0.7485
  593MOL0     H81809   3.068   4.416   8.455  1.4524 -1.7001  3.4008
  593MOL0     H81810   2.985   4.506   8.644 -0.5496 -1.1777  0.4415
  593MOL0     H81811   2.828   4.427   8.614 -1.5920  0.6877 -1.7113
  593MOL0     H81812   2.811   4.601   8.404  1.3153 -1.3407 -1.1779
  593MOL0     H81813   2.966   4.663   8.469  0.8544 -1.9455 -0.0130
  593MOL0     H81814   3.465   4.023   8.825  0.5128 -0.6826 -1.1068
  593MOL0     H81815   3.692   3.938   8.797  0.4819  2.0129  3.8253
  593MOL0     H81816   4.102   3.821   8.752 -2.8206 -0.1411 -2.0560
  593MOL0     H81817   4.313   3.718   8.769 -0.5082  1.2950  0.3087
  593MOL0     H81818   4.077   4.150   8.862  2.1271 -1.8004 -1.3708
  593MOL0     H81819   3.874   4.011   8.893 -1.6017  2.1479  1.6638
  593MOL0     H81820   3.593   3.887   9.179 -1.9591  0.1741  0.2840
  593MOL0     H81821   3.406   3.851   9.324 -0.1003  1.0973  0.0387
  593MOL0     H81822   3.213   3.694   9.357 -0.0772  1.6448  1.6681
  593MOL0     H81823   3.256   3.517   9.362  1.3066  0.2279 -0.8941
  593MOL0     H81824   3.050   3.528   9.465  1.7368 -0.6027 -3.1182
  593MOL0     H81825   3.106   3.643   9.585  0.5971  0.8076 -0.3224
  593MOL0     H81826   3.234   3.365   9.548  3.6152  1.7744  0.7171
  593MOL0     H81827   3.268   3.484   9.675  1.9279 -0.1327 -1.5461
  593MOL0     H81828   3.016   3.457   9.746 -1.3621 -1.6978  1.8701
  593MOL0     H81829   3.129   3.354   9.800 -0.9076  1.2500  0.7321
  593MOL0     H81830   2.841   3.160   9.542 -0.4666 -0.3562  0.4987
  593MOL0     H81831   3.560   3.469   9.453 -1.6071  1.2605  1.4760
  593MOL0     H81832   3.876   3.517   9.368  0.0660 -2.4445  0.2443
  593MOL0     H81833   3.752   3.403   9.398  0.4183 -0.2205 -0.0195
  593MOL0     H81834   3.802   3.413   9.232  1.4279  0.3972 -1.1873
  594MOL0     O81835   2.585  11.584   7.318  0.2317 -0.5298  0.1302
  594MOL0     C81836   2.657  11.685   7.300  0.6511  0.1218 -0.7637
  594MOL0     O81837   2.616  11.818   7.328 -0.1103 -0.3435 -0.1098
  594MOL0     C81838   2.498  11.837   7.386  0.3485  0.2329 -0.6549
  594MOL0     C81839   2.492  11.818   7.520 -0.3414  0.0342 -0.5585
  594MOL0     C81840   2.376  11.843   7.594  0.3982  0.3663 -0.9141
  594MOL0     C81841   2.252  11.872   7.523  0.6612  0.0391  0.1373
  594MOL0     O81842   2.147  11.906   7.601 -0.5294  0.2409 -0.9336
  594MOL0     C81843   2.019  11.922   7.543 -1.0697  0.7451  0.7039
  594MOL0     C81844   1.928  11.953   7.658  0.2407  0.2036 -0.5414
  594MOL0     C81845   1.787  11.994   7.611  0.1786  0.0793  0.0431
  594MOL0     C81846   1.732  11.913   7.491 -0.6647  0.4070 -0.4755
  594MOL0     C81847   1.577  11.907   7.480  0.1337 -0.3591  0.6109
  594MOL0     C81848   1.532  11.853   7.339 -0.3139 -0.1225 -0.7904
  594MOL0     C81849   1.533  11.705   7.321 -0.8103  0.6264  0.2236
  594MOL0     C81850   1.581  11.665   7.179  0.7944  0.3624 -0.4269
  594MOL0     N81851   1.608  11.514   7.169  0.0840 -0.7388 -1.2985
  594MOL0     C81852   1.672  11.441   7.260  0.3931  0.9896 -0.0261
  594MOL0     C81853   1.699  11.317   7.198  0.1156  1.1338 -0.3473
  594MOL0     C81854   1.766  11.202   7.272 -0.6103 -0.4365  0.0557
  594MOL0     C81855   1.853  11.112   7.180  1.1922 -0.1267 -0.2156
  594MOL0     C81856   1.982  11.176   7.129 -0.2510 -0.0463  0.5166
  594MOL0     C81857   2.078  11.252   7.225 -0.1158 -0.4491 -0.4130
  594MOL0     O81858   2.030  11.388   7.255  0.6317 -0.4488  0.5302
  594MOL0     C81859   2.069  11.478   7.160  1.2397  0.7268  0.2723
  594MOL0     C81860   1.990  11.520   7.047 -0.2215  0.1972 -0.2848
  594MOL0     C81861   2.025  11.627   6.969  0.0210 -0.2107  0.0631
  594MOL0     C81862   1.922  11.665   6.862  0.0292 -0.4223 -0.2369
  594MOL0     C81863   2.163  11.665   6.971  0.1135 -0.2049  0.5370
  594MOL0     C81864   2.224  11.776   6.883 -0.1831  0.4355  0.0904
  594MOL0     O81865   2.350  11.826   6.923  0.0962  0.3321  0.3973
  594MOL0     C81866   2.431  11.888   6.830 -0.6831 -0.1651 -0.5787
  594MOL0     C81867   2.562  11.902   6.881 -0.2757 -0.3408 -0.5451
  594MOL0     C81868   2.659  11.972   6.814  0.2314  0.2286 -0.0324
  594MOL0     C81869   2.643  12.013   6.683 -0.5670 -0.4979 -0.1857
  594MOL0     O81870   2.748  12.065   6.599 -0.5151  0.2760 -0.0497
  594MOL0     C81871   2.889  12.052   6.640  0.6900 -0.0480  0.2874
  594MOL0     C81872   2.954  11.909   6.631 -0.3763  0.4791  0.3841
  594MOL0     C81873   3.099  11.916   6.672 -0.5009 -0.2004 -0.5358
  594MOL0     C81874   3.130  11.978   6.812  0.6708  1.3882 -0.2483
  594MOL0     C81875   3.276  11.995   6.833  0.4499 -0.1621 -0.3362
  594MOL0     C81876   3.306  12.077   6.956 -0.6982 -0.4488  0.0402
  594MOL0     C81877   3.445  12.140   6.971  0.6846 -0.2673  0.2286
  594MOL0     C81878   3.536  12.037   7.041 -0.0881  0.1933  0.1040
  594MOL0    Cl81879   3.712  12.078   7.042  0.2996  0.1083 -0.1155
  594MOL0     C81880   2.515  11.994   6.632  0.1967  0.3979 -0.0299
  594MOL0     C81881   2.407  11.933   6.697  0.1243 -0.5608 -0.7764
  594MOL0     O81882   2.165  11.808   6.784  0.0786  0.9513 -0.2308
  594MOL0     C81883   2.254  11.603   7.065  0.2792  0.0092 -0.3409
  594MOL0     C81884   2.206  11.528   7.166  0.9792  0.1540  0.3160
  594MOL0     N81885   1.654  11.324   7.067  0.7110 -0.3047 -0.6610
  594MOL0     N81886   1.586  11.434   7.061  0.3302  0.3593 -0.0166
  594MOL0     C81887   2.262  11.875   7.380  0.2569  0.3432 -0.2291
  594MOL0     C81888   2.381  11.854   7.317  0.8753 -1.2144  1.1908
  594MOL0     C81889   2.803  11.673   7.244  0.1254 -0.6559 -1.1833
  594MOL0     C81890   2.857  11.799   7.199  0.4349  0.3876 -0.2707
  594MOL0     C81891   2.986  11.797   7.142  1.3883 -1.1543  0.0542
  594MOL0     C81892   3.065  11.685   7.140 -0.3356  0.0075 -0.3116
  594MOL0     O81893   3.183  11.721   7.080 -0.1593 -0.4707  0.4604
  594MOL0     C81894   3.273  11.614   7.054  0.4188  0.2732  0.5523
  594MOL0     C81895   3.218  11.509   6.956 -0.6126  0.3773  0.8619
  594MOL0     C81896   3.172  11.576   6.820  0.1136 -0.1905 -0.4305
  594MOL0     C81897   3.110  11.465   6.726 -0.2168  0.3130  0.6563
  594MOL0     C81898   3.116  11.511   6.589  0.3777 -0.6541  0.5586
  594MOL0     C81899   3.098  11.564   6.482  1.3662 -0.3559 -0.9043
  594MOL0     C81900   3.006  11.563   7.188 -0.3946  0.5617  0.6631
  594MOL0     C81901   2.879  11.545   7.242 -0.1502 -0.4288 -0.2579
  594MOL0     C81902   2.835  11.427   7.323  1.4092 -0.3995  0.0610
  594MOL0     H81903   2.577  11.780   7.576 -0.9961  0.0312  0.4728
  594MOL0     H81904   2.364  11.837   7.702  2.3854 -1.6966 -0.7306
  594MOL0     H81905   1.989  11.822   7.511  0.6822 -0.9027  3.7240
  594MOL0     H81906   2.024  11.997   7.463  0.8870  0.3938  0.4517
  594MOL0     H81907   1.939  11.867   7.725  2.8304  1.0992  0.2864
  594MOL0     H81908   1.966  12.038   7.715 -1.6210 -0.1603  1.3677
  594MOL0     H81909   1.727  11.966   7.698  1.9454 -0.2289  1.2298
  594MOL0     H81910   1.770  12.100   7.590 -1.3718  0.2618  1.9092
  594MOL0     H81911   1.762  11.968   7.401 -0.6975  0.8219 -0.2361
  594MOL0     H81912   1.771  11.811   7.495  1.4243  1.1501  3.3855
  594MOL0     H81913   1.531  12.005   7.492 -0.1601 -0.5580  1.1358
  594MOL0     H81914   1.547  11.849   7.568  3.3858 -0.4009  1.8415
  594MOL0     H81915   1.428  11.887   7.327 -0.5047 -0.3877  0.0344
  594MOL0     H81916   1.578  11.900   7.252 -0.6648 -1.3040 -1.6321
  594MOL0     H81917   1.438  11.659   7.349 -0.7439  0.1617 -0.3173
  594MOL0     H81918   1.615  11.671   7.385  1.8300  3.4173 -1.3873
  594MOL0     H81919   1.508  11.678   7.098 -0.6212 -1.2200  0.5380
  594MOL0     H81920   1.676  11.716   7.158  0.3714 -0.1922 -4.7126
  594MOL0     H81921   1.723  11.478   7.348  2.0574  2.4064 -1.4989
  594MOL0     H81922   1.689  11.130   7.303  0.4471 -2.3764 -1.5858
  594MOL0     H81923   1.826  11.225   7.361 -1.0911 -1.5948  0.7056
  594MOL0     H81924   1.883  11.032   7.248 -1.0238  0.4270  1.5227
  594MOL0     H81925   1.799  11.075   7.092  0.4141 -1.5631  0.8388
  594MOL0     H81926   2.031  11.094   7.076 -3.5956 -1.4635 -0.6709
  594MOL0     H81927   1.968  11.250   7.049  3.0559 -1.2688 -1.3632
  594MOL0     H81928   2.090  11.203   7.322  0.4488  0.2898 -0.1003
  594MOL0     H81929   2.179  11.252   7.183  0.0676 -2.9004 -0.0939
  594MOL0     H81930   1.889  11.484   7.031 -0.1123  0.0131 -0.5470
  594MOL0     H81931   1.931  11.772   6.840  0.7963  0.1136  2.3265
  594MOL0     H81932   1.819  11.637   6.887 -0.0443 -0.8227 -0.9946
  594MOL0     H81933   1.928  11.609   6.769 -0.9778  1.0419 -1.2332
  594MOL0     H81934   2.586  11.863   6.979 -1.0604  0.7089  0.0834
  594MOL0     H81935   2.762  11.974   6.848  0.7940 -0.3631 -1.6260
  594MOL0     H81936   2.950  12.114   6.573  0.7489 -0.9031 -0.4745
  594MOL0     H81937   2.897  12.091   6.742  0.9890  1.3007 -0.2285
  594MOL0     H81938   2.908  11.853   6.713  2.0543  0.6614  1.9868
  594MOL0     H81939   2.935  11.857   6.537  1.1259 -0.6217  0.6545
  594MOL0     H81940   3.158  11.972   6.599 -1.8583 -1.1929 -2.5060
  594MOL0     H81941   3.140  11.815   6.681 -1.5842 -0.5898  0.3949
  594MOL0     H81942   3.078  11.914   6.885 -0.0208 -0.2161 -2.0466
  594MOL0     H81943   3.076  12.071   6.829 -0.9119 -0.0975  4.2665
  594MOL0     H81944   3.325  11.897   6.834 -0.4751 -0.7143 -2.3177
  594MOL0     H81945   3.311  12.048   6.744 -2.0370  3.7406  0.7649
  594MOL0     H81946   3.301  11.997   7.030  0.4212  0.8143  1.5634
  594MOL0     H81947   3.228  12.149   6.981  0.3621  0.5286  0.6619
  594MOL0     H81948   3.447  12.233   7.028 -0.2964  0.8638 -1.4722
  594MOL0     H81949   3.508  12.154   6.882  0.7821 -1.1898  0.1498
  594MOL0     H81950   3.528  11.935   7.001  0.3090  0.1661  0.0948
  594MOL0     H81951   3.505  12.038   7.146  0.6256 -1.3275  0.3627
  594MOL0     H81952   2.497  12.030   6.532 -0.5442  3.5137  1.1028
  594MOL0     H81953   2.317  11.930   6.637  1.0322  0.1397 -2.2400
  594MOL0     H81954   2.360  11.626   7.063  0.0683  0.9776 -2.2126
  594MOL0     H81955   2.277  11.490   7.239 -0.6881  2.0161  3.1539
  594MOL0     H81956   2.180  11.893   7.311  2.8392  1.3319 -3.2429
  594MOL0     H81957   2.382  11.852   7.208  1.7824 -0.8402  1.1780
  594MOL0     H81958   2.795  11.888   7.196 -1.8231 -1.0564  0.8622
  594MOL0     H81959   3.012  11.892   7.096  0.4482  0.3757  2.4599
  594MOL0     H81960   3.367  11.662   7.026 -0.7772  0.4319 -4.0802
  594MOL0     H81961   3.289  11.563   7.150 -1.1133  2.6225  2.1616
  594MOL0     H81962   3.140  11.441   6.991 -0.2304  0.5868  2.1532
  594MOL0     H81963   3.307  11.451   6.930  0.1783  1.1739  1.6951
  594MOL0     H81964   3.113  11.666   6.836  0.6671  0.1362 -0.1926
  594MOL0     H81965   3.258  11.609   6.761 -0.9101  0.3258 -1.6504
  594MOL0     H81966   3.007  11.436   6.745 -1.6127  3.6094 -1.0477
  594MOL0     H81967   3.180  11.381   6.733  1.4034  1.6786  1.7951
  594MOL0     H81968   3.089  11.596   6.380 -0.6548  3.7815  0.3450
  594MOL0     H81969   3.063  11.473   7.167 -3.6411 -1.5807  0.3344
  594MOL0     H81970   2.844  11.449   7.430 -2.3918 -0.4421  0.5418
  594MOL0     H81971   2.730  11.400   7.303  2.2384 -2.5294 -1.8505
  594MOL0     H81972   2.890  11.338   7.293 -0.0440 -0.6634 -2.0477
  595MOL0     O81973   2.135  10.818   7.381 -0.7650  0.1305 -0.6248
  595MOL0     C81974   2.159  10.699   7.389  0.5875 -0.8987 -0.6011
  595MOL0     O81975   2.254  10.637   7.325 -0.3787  0.2192 -0.4222
  595MOL0     C81976   2.302  10.683   7.210 -0.1076  1.1282 -0.7415
  595MOL0     C81977   2.222  10.699   7.104  0.2362  0.6011 -1.1985
  595MOL0     C81978   2.262  10.759   6.983  0.9749  1.0918 -0.8892
  595MOL0     C81979   2.392  10.803   6.978 -0.7363  0.5923 -0.7372
  595MOL0     O81980   2.464  10.849   6.871  0.6114 -0.0641  0.1111
  595MOL0     C81981   2.387  10.869   6.754 -0.3507  0.0297 -0.3942
  595MOL0     C81982   2.468  10.968   6.657 -0.2714 -0.2030  0.5875
  595MOL0     C81983   2.375  11.020   6.535 -0.3178  0.1580 -0.3987
  595MOL0     C81984   2.252  11.108   6.572 -0.4338 -0.2850  1.5677
  595MOL0     C81985   2.204  11.174   6.440  0.8315  0.3305  0.3593
  595MOL0     C81986   2.080  11.256   6.473 -0.0978  0.0077 -1.0965
  595MOL0     C81987   2.043  11.340   6.358  0.9025 -0.3888 -0.7495
  595MOL0     C81988   1.899  11.390   6.391 -0.5752  0.5744  0.4660
  595MOL0     N81989   1.843  11.471   6.280  0.5426  0.6812  0.5998
  595MOL0     C81990   1.895  11.597   6.244 -0.1592 -0.1145  0.1448
  595MOL0     C81991   1.858  11.618   6.119  0.1462  0.6888  1.1023
  595MOL0     C81992   1.908  11.744   6.050 -0.4395 -0.8944  0.0764
  595MOL0     C81993   1.821  11.865   6.074 -1.0196 -0.4945  0.3084
  595MOL0     C81994   1.670  11.863   6.019 -1.2669  0.9950  0.4541
  595MOL0     C81995   1.658  11.868   5.869 -0.1435 -0.8394  0.4977
  595MOL0     O81996   1.677  12.001   5.843 -0.5166  0.8747  0.1131
  595MOL0     C81997   1.691  12.051   5.710  0.4086  0.2292  0.0983
  595MOL0     C81998   1.685  11.971   5.602 -0.7091  0.8257 -0.4737
  595MOL0     C81999   1.662  12.024   5.473  0.4928  0.3887 -0.8977
  595MOL0     C82000   1.653  11.925   5.357 -1.0272  0.9238  0.7883
  595MOL0     C82001   1.658  12.164   5.455  0.3139  0.5848  0.2232
  595MOL0     C82002   1.646  12.233   5.319 -0.1589 -0.6318  0.2456
  595MOL0     O82003   1.572  12.181   5.216  0.0384  0.4009  0.6561
  595MOL0     C82004   1.598  12.229   5.087  0.6579  0.9139  0.6921
  595MOL0     C82005   1.672  12.137   5.009  0.2398 -0.0333 -0.9394
  595MOL0     C82006   1.703  12.173   4.874 -0.9860 -0.8489  0.3002
  595MOL0     C82007   1.672  12.298   4.821 -0.7471  0.5582  0.2215
  595MOL0     O82008   1.702  12.331   4.693  0.4250  0.2710  0.4744
  595MOL0     C82009   1.588  12.379   4.604  0.0723  0.3505  0.2306
  595MOL0     C82010   1.616  12.526   4.560  0.4302 -0.4879  0.0989
  595MOL0     C82011   1.528  12.579   4.447 -0.0401 -0.1722  0.3790
  595MOL0     C82012   1.594  12.587   4.305 -0.4457  0.1831  0.1918
  595MOL0     C82013   1.503  12.662   4.204  0.8534 -0.2731 -0.3499
  595MOL0     C82014   1.380  12.588   4.153  0.1449  0.5173  0.3867
  595MOL0     C82015   1.338  12.649   4.020  0.7113  0.2955  0.1704
  595MOL0     C82016   1.279  12.791   4.031 -0.5663  0.0798 -0.0328
  595MOL0    Cl82017   1.254  12.853   3.862  0.3157 -0.0143  0.8075
  595MOL0     C82018   1.603  12.391   4.902  0.0097  0.4362  0.2196
  595MOL0     C82019   1.564  12.351   5.033  0.6225 -0.5977  0.2582
  595MOL0     O82020   1.720  12.333   5.308 -0.5493 -0.5141  0.0575
  595MOL0     C82021   1.663  12.240   5.574 -0.2759 -0.4550  0.6611
  595MOL0     C82022   1.679  12.185   5.696 -0.6026 -0.8302 -0.4577
  595MOL0     N82023   1.775  11.513   6.080 -0.3517  0.5200  0.5934
  595MOL0     N82024   1.778  11.424   6.168 -0.7659 -0.1974 -0.2017
  595MOL0     C82025   2.482  10.781   7.094  0.6756  0.5681  0.4210
  595MOL0     C82026   2.439  10.723   7.208 -0.8166  0.1121 -0.3091
  595MOL0     C82027   2.066  10.633   7.489 -0.5399  0.0541  0.1561
  595MOL0     C82028   1.948  10.707   7.538  0.2939 -0.3633 -0.2725
  595MOL0     C82029   1.859  10.647   7.622  0.0355  0.6043  0.2028
  595MOL0     C82030   1.883  10.517   7.659  0.1048  0.5373  0.2708
  595MOL0     O82031   1.789  10.447   7.735  0.5248 -0.0183  0.1350
  595MOL0     C82032   1.734  10.499   7.852 -0.6480  0.7345  0.0664
  595MOL0     C82033   1.604  10.429   7.889  0.2320  0.1542 -0.1913
  595MOL0     C82034   1.486  10.450   7.792 -0.3351 -0.5964 -0.0490
  595MOL0     C82035   1.391  10.329   7.780  0.5168 -0.8519  0.3951
  595MOL0     C82036   1.349  10.285   7.912  0.2220  0.6460  0.2551
  595MOL0     C82037   1.338  10.254   8.028 -0.6113 -0.9559 -0.7246
  595MOL0     C82038   1.995  10.446   7.618  0.8574  1.3051  0.3595
  595MOL0     C82039   2.090  10.498   7.529  0.8827 -0.0546 -1.5536
  595MOL0     C82040   2.216  10.404   7.495  0.7237 -0.2435 -0.1014
  595MOL0     H82041   2.116  10.675   7.107  0.8135 -2.4274  1.9211
  595MOL0     H82042   2.198  10.756   6.894  3.5089  1.1995 -2.8318
  595MOL0     H82043   2.288  10.906   6.782 -0.8426  0.6133 -2.7203
  595MOL0     H82044   2.363  10.789   6.684  0.6900  1.8011 -2.9071
  595MOL0     H82045   2.511  11.050   6.717  1.0222 -2.1151  2.4221
  595MOL0     H82046   2.544  10.907   6.608  1.4699  0.6417  2.1218
  595MOL0     H82047   2.447  11.072   6.471  0.4828  1.3967  1.3937
  595MOL0     H82048   2.344  10.930   6.482 -1.7416  0.1978  0.3211
  595MOL0     H82049   2.170  11.047   6.610 -2.9368  1.6830 -0.3556
  595MOL0     H82050   2.267  11.176   6.656 -5.4813  3.0802  0.2164
  595MOL0     H82051   2.182  11.108   6.357  2.7032  1.0127 -0.7480
  595MOL0     H82052   2.287  11.225   6.390  0.8469 -1.8442 -2.0500
  595MOL0     H82053   1.997  11.192   6.501  2.2322 -2.9068 -0.3935
  595MOL0     H82054   2.100  11.318   6.561  1.0308  0.6204 -1.7597
  595MOL0     H82055   2.043  11.286   6.263 -0.5014 -2.9619  0.5966
  595MOL0     H82056   2.115  11.420   6.339 -0.5521  0.4865 -2.9900
  595MOL0     H82057   1.840  11.299   6.404  1.9973 -1.1342  0.8476
  595MOL0     H82058   1.884  11.450   6.482 -1.2145  0.4914  0.4174
  595MOL0     H82059   1.964  11.669   6.288 -1.4702 -0.3949  2.8921
  595MOL0     H82060   1.898  11.725   5.943 -3.8346  0.0374  0.1449
  595MOL0     H82061   2.012  11.771   6.073 -0.9887  3.5822 -1.8376
  595MOL0     H82062   1.814  11.874   6.183  2.1054  1.1132  0.4672
  595MOL0     H82063   1.866  11.952   6.026  0.2015 -1.9749 -1.3704
  595MOL0     H82064   1.633  11.768   6.058 -0.5710  0.9772  1.0910
  595MOL0     H82065   1.613  11.942   6.069  0.1497  1.4523  1.4307
  595MOL0     H82066   1.724  11.793   5.824  0.6051 -2.6378  4.2081
  595MOL0     H82067   1.559  11.841   5.831 -0.3000 -0.8487  0.9154
  595MOL0     H82068   1.671  11.863   5.612  1.2633  0.3838 -1.8229
  595MOL0     H82069   1.740  11.961   5.301  0.6312  0.8759  3.1666
  595MOL0     H82070   1.555  11.925   5.308 -1.2670  0.3990  1.2649
  595MOL0     H82071   1.678  11.820   5.375 -2.7818 -0.1934 -2.4584
  595MOL0     H82072   1.684  12.037   5.050  0.1935  0.1573 -0.4605
  595MOL0     H82073   1.735  12.092   4.809 -1.9862  0.3370 -1.7991
  595MOL0     H82074   1.590  12.335   4.504  1.5245  2.4226 -0.7105
  595MOL0     H82075   1.493  12.345   4.647  0.7560  2.5666  3.9246
  595MOL0     H82076   1.616  12.589   4.650  1.6047 -1.4019  0.7792
  595MOL0     H82077   1.723  12.524   4.534  0.0063 -2.5727 -1.7766
  595MOL0     H82078   1.477  12.673   4.469 -1.7464 -0.9929  0.1813
  595MOL0     H82079   1.447  12.505   4.442  0.4770 -0.8216  1.2261
  595MOL0     H82080   1.626  12.488   4.270  3.8946  1.0401  1.1992
  595MOL0     H82081   1.683  12.643   4.334 -0.2927 -1.0941  2.4117
  595MOL0     H82082   1.465  12.755   4.248  0.2315 -0.8647  0.3718
  595MOL0     H82083   1.570  12.689   4.122 -2.1218  1.4720 -2.4125
  595MOL0     H82084   1.299  12.599   4.225 -0.5361  5.6538 -0.7794
  595MOL0     H82085   1.408  12.483   4.144 -0.8223  0.4217 -2.8217
  595MOL0     H82086   1.265  12.576   3.982  1.9804  0.7916 -3.6675
  595MOL0     H82087   1.417  12.655   3.945 -1.9515  0.5848 -2.8533
  595MOL0     H82088   1.334  12.859   4.096 -4.1165  1.3123  1.9378
  595MOL0     H82089   1.179  12.777   4.073 -0.6752 -3.7052 -1.1319
  595MOL0     H82090   1.566  12.482   4.857 -0.9111 -1.4662 -3.2283
  595MOL0     H82091   1.506  12.431   5.078  0.6715 -1.3630  1.7573
  595MOL0     H82092   1.652  12.348   5.566  0.3250 -0.2577  2.0805
  595MOL0     H82093   1.678  12.254   5.780 -1.4405  1.5383 -2.3041
  595MOL0     H82094   2.588  10.800   7.082  0.8012  0.3246  1.0973
  595MOL0     H82095   2.507  10.702   7.290 -2.2689 -2.2605  0.3978
  595MOL0     H82096   1.930  10.808   7.503  1.2418 -0.6787 -1.7529
  595MOL0     H82097   1.772  10.706   7.650  1.2434  2.9290 -0.6613
  595MOL0     H82098   1.800  10.486   7.938 -0.7232  0.9332  0.1547
  595MOL0     H82099   1.712  10.606   7.845 -0.9485  0.6951  0.4224
  595MOL0     H82100   1.573  10.469   7.986 -1.5968 -0.6696 -0.3892
  595MOL0     H82101   1.615  10.321   7.898 -0.1502  0.2139  1.4157
  595MOL0     H82102   1.432  10.532   7.840 -3.5964 -2.2682 -0.5688
  595MOL0     H82103   1.519  10.478   7.692  2.3163  4.7358  1.9548
  595MOL0     H82104   1.441  10.258   7.714 -2.0231  0.2537 -2.9862
  595MOL0     H82105   1.299  10.362   7.731  0.0352 -3.5329 -0.6832
  595MOL0     H82106   1.324  10.209   8.124 -0.4008 -1.6131 -0.9928
  595MOL0     H82107   1.980  10.339   7.630  2.3490  0.7425 -2.1713
  595MOL0     H82108   2.197  10.350   7.402 -0.0688  2.9848 -1.9700
  595MOL0     H82109   2.305  10.466   7.476  1.4002 -1.5887 -1.5815
  595MOL0     H82110   2.246  10.338   7.577  4.1210  0.8895 -0.2517
  596MOL0     O82111   4.670   8.152   8.183 -0.7082  0.2376 -0.2663
  596MOL0     C82112   4.711   8.251   8.125  0.4853  0.2613 -0.4537
  596MOL0     O82113   4.682   8.377   8.172 -0.0962  0.1948 -0.3243
  596MOL0     C82114   4.735   8.437   8.284 -0.4446 -0.8263 -0.0443
  596MOL0     C82115   4.831   8.374   8.355 -0.4108  0.4075  0.4804
  596MOL0     C82116   4.881   8.414   8.476 -0.4296 -1.1275 -0.5217
  596MOL0     C82117   4.827   8.533   8.533 -0.6375 -0.6173 -0.7078
  596MOL0     O82118   4.876   8.562   8.659 -0.1509  0.2621 -0.1773
  596MOL0     C82119   4.822   8.650   8.757 -0.2098 -0.7159 -0.3490
  596MOL0     C82120   4.931   8.728   8.831 -0.5420 -0.4555 -0.7619
  596MOL0     C82121   5.048   8.771   8.748  1.3219  0.1815 -0.2503
  596MOL0     C82122   5.136   8.867   8.828  0.8915  0.1645 -0.6786
  596MOL0     C82123   5.265   8.913   8.760  0.2972 -0.8001 -0.5504
  596MOL0     C82124   5.376   8.809   8.748 -0.1921 -0.5777 -0.2174
  596MOL0     C82125   5.515   8.863   8.691  0.2600  0.7067 -0.4916
  596MOL0     C82126   5.620   8.920   8.800 -0.3905 -0.7953  0.3508
  596MOL0     N82127   5.638   8.821   8.901  0.6406 -0.1791 -0.9017
  596MOL0     C82128   5.594   8.840   9.031 -0.6528  0.0186  0.4088
  596MOL0     C82129   5.634   8.731   9.099  0.2560  1.1715 -0.2080
  596MOL0     C82130   5.617   8.700   9.243 -0.2494  0.8155  0.5341
  596MOL0     C82131   5.478   8.657   9.288  1.3640  0.3353  0.7177
  596MOL0     C82132   5.394   8.756   9.376  0.3231  0.2922  0.6562
  596MOL0     C82133   5.266   8.695   9.439  0.0147 -0.1197 -0.4902
  596MOL0     O82134   5.160   8.642   9.352 -0.1514 -0.9887  0.2955
  596MOL0     C82135   5.071   8.735   9.297  0.7567 -0.0113  0.1829
  596MOL0     C82136   4.977   8.669   9.222 -0.3301  0.2263 -0.5770
  596MOL0     C82137   4.853   8.728   9.189 -0.1468  0.3528 -0.2239
  596MOL0     C82138   4.744   8.654   9.109 -0.0912 -0.3631  0.4518
  596MOL0     C82139   4.840   8.872   9.217 -0.2447  0.4891 -0.9627
  596MOL0     C82140   4.726   8.951   9.176  0.0219 -0.8504  0.2266
  596MOL0     O82141   4.746   9.062   9.111  0.2333  0.2015 -0.6175
  596MOL0     C82142   4.644   9.118   9.039 -0.1504 -0.8127  0.0679
  596MOL0     C82143   4.624   9.258   9.038 -1.2519 -0.1356 -1.3317
  596MOL0     C82144   4.528   9.323   8.967  0.4099  0.1576 -0.0405
  596MOL0     C82145   4.439   9.249   8.894 -0.1657 -0.6337 -0.8605
  596MOL0     O82146   4.340   9.294   8.804 -0.1596  0.0087 -0.2055
  596MOL0     C82147   4.343   9.434   8.783  0.4034  0.0158  1.2816
  596MOL0     C82148   4.222   9.475   8.701  0.6141 -0.6109  1.0541
  596MOL0     C82149   4.088   9.473   8.781 -0.1282 -0.4976 -0.8722
  596MOL0     C82150   3.976   9.519   8.692  0.6850 -0.1509  0.4399
  596MOL0     C82151   3.838   9.513   8.762 -1.4393 -0.9062 -0.1337
  596MOL0     C82152   3.730   9.499   8.652  0.1474 -0.6254 -0.6489
  596MOL0     C82153   3.586   9.513   8.705  0.0980  0.4275 -0.9333
  596MOL0     C82154   3.552   9.407   8.813  0.8513  0.2707  0.7419
  596MOL0    Cl82155   3.523   9.250   8.718  0.1023 -0.0466  0.1027
  596MOL0     C82156   4.441   9.112   8.892 -1.0258  0.0717 -1.7125
  596MOL0     C82157   4.546   9.041   8.961  0.7924 -0.3967 -0.6721
  596MOL0     O82158   4.617   8.910   9.213  0.0357 -0.0412 -0.1851
  596MOL0     C82159   4.947   8.939   9.280  1.1560  0.3804 -0.8971
  596MOL0     C82160   5.054   8.865   9.327  0.7100 -0.4265 -0.5314
  596MOL0     N82161   5.694   8.644   9.006  0.0706  0.6120  0.1271
  596MOL0     N82162   5.696   8.699   8.884  0.3059 -0.2232  0.2059
  596MOL0     C82163   4.744   8.615   8.452 -0.2440 -0.3497  0.1800
  596MOL0     C82164   4.701   8.562   8.327  0.5497  0.5439  0.3476
  596MOL0     C82165   4.772   8.231   7.995  1.0844  0.1603 -0.7899
  596MOL0     C82166   4.792   8.360   7.930  0.0069 -0.1227  0.0276
  596MOL0     C82167   4.851   8.370   7.803 -0.3089 -0.1413 -0.2275
  596MOL0     C82168   4.870   8.250   7.728  1.2369  0.3736 -0.0181
  596MOL0     O82169   4.888   8.255   7.593 -0.0230 -0.8320 -0.8518
  596MOL0     C82170   4.894   8.142   7.511  0.8844  0.6427 -0.4488
  596MOL0     C82171   4.749   8.105   7.468 -0.3089 -0.3852 -0.8582
  596MOL0     C82172   4.747   7.956   7.416 -0.4831  0.1740  0.6555
  596MOL0     C82173   4.718   7.846   7.523  0.2679  0.3116 -0.3034
  596MOL0     C82174   4.729   7.715   7.467  0.3091  0.7153 -0.2438
  596MOL0     C82175   4.753   7.609   7.409  0.6231  0.1272 -0.0514
  596MOL0     C82176   4.832   8.126   7.793 -0.2628  0.2965 -0.5501
  596MOL0     C82177   4.786   8.110   7.926 -0.8651  0.7147 -0.2025
  596MOL0     C82178   4.767   7.972   7.982 -0.0004  0.1566 -0.0449
  596MOL0     H82179   4.878   8.280   8.327  0.6049  0.2952  2.3806
  596MOL0     H82180   4.953   8.363   8.540  1.7062  1.2005 -0.8945
  596MOL0     H82181   4.763   8.594   8.829 -2.0590  1.5311 -0.0099
  596MOL0     H82182   4.756   8.723   8.709  2.0244  3.3377  2.2017
  596MOL0     H82183   4.890   8.818   8.878  3.8264  0.7330  1.3118
  596MOL0     H82184   4.970   8.658   8.905 -0.4927  1.4460  1.1104
  596MOL0     H82185   5.105   8.682   8.721 -0.6967 -0.6969 -1.8690
  596MOL0     H82186   5.028   8.823   8.655 -1.7513  1.5456  1.0415
  596MOL0     H82187   5.076   8.956   8.846  1.0352  0.0488  0.4423
  596MOL0     H82188   5.165   8.824   8.924  1.7538  2.7142  0.3004
  596MOL0     H82189   5.302   9.003   8.809 -0.3944 -1.6765  1.7047
  596MOL0     H82190   5.234   8.951   8.662 -3.1556 -1.2240  0.2359
  596MOL0     H82191   5.393   8.759   8.844 -2.2468 -0.4929  0.2347
  596MOL0     H82192   5.331   8.736   8.680 -3.0256  2.4311 -1.8728
  596MOL0     H82193   5.497   8.943   8.618  3.3801  2.5052  0.5137
  596MOL0     H82194   5.572   8.782   8.644  0.5648  0.7527 -0.2033
  596MOL0     H82195   5.720   8.944   8.761 -1.5406  4.1276 -0.1790
  596MOL0     H82196   5.597   9.014   8.851  3.2580 -0.0106  0.8817
  596MOL0     H82197   5.547   8.928   9.072 -0.3053 -0.6124  2.2624
  596MOL0     H82198   5.657   8.789   9.291 -1.4396  1.3022  0.6594
  596MOL0     H82199   5.678   8.617   9.280 -0.5532  1.0788  1.6552
  596MOL0     H82200   5.420   8.650   9.196  0.2965  0.1012  1.3929
  596MOL0     H82201   5.464   8.561   9.338  0.3223  0.2678  0.3082
  596MOL0     H82202   5.453   8.792   9.461 -1.7503  0.2299  2.2221
  596MOL0     H82203   5.355   8.841   9.319 -1.3447 -1.2158 -0.5446
  596MOL0     H82204   5.291   8.610   9.502 -0.6737  1.3129  1.8303
  596MOL0     H82205   5.223   8.774   9.501  0.2702 -0.1620 -0.2585
  596MOL0     H82206   4.990   8.562   9.207  2.2446  0.6492 -1.9409
  596MOL0     H82207   4.785   8.580   9.040 -0.5847 -0.6765  0.4884
  596MOL0     H82208   4.682   8.716   9.042  0.7334 -1.6663 -1.6213
  596MOL0     H82209   4.673   8.611   9.180  0.0025  1.4330  1.6982
  596MOL0     H82210   4.686   9.314   9.107 -1.0001 -0.6614 -1.1186
  596MOL0     H82211   4.528   9.431   8.982  0.2507  0.1034  0.3716
  596MOL0     H82212   4.352   9.498   8.872 -0.4234  2.9728 -0.6008
  596MOL0     H82213   4.427   9.458   8.718 -0.1574  0.3989  0.6790
  596MOL0     H82214   4.240   9.577   8.668  2.8610 -1.5302 -0.8849
  596MOL0     H82215   4.232   9.419   8.607 -0.3112 -0.8655  1.0943
  596MOL0     H82216   4.104   9.531   8.873 -1.3879 -2.1465  0.4342
  596MOL0     H82217   4.064   9.369   8.803  3.8538 -1.2710  0.8499
  596MOL0     H82218   3.976   9.458   8.601  1.2205 -2.3113  1.8361
  596MOL0     H82219   3.988   9.621   8.654 -2.9881 -0.5302 -2.3217
  596MOL0     H82220   3.829   9.431   8.832 -1.1636 -1.9745 -1.3114
  596MOL0     H82221   3.824   9.612   8.808 -2.0184 -2.0708  2.3249
  596MOL0     H82222   3.740   9.399   8.609  1.9093 -0.2895 -1.0553
  596MOL0     H82223   3.752   9.580   8.582  3.0553  0.5592  1.4718
  596MOL0     H82224   3.517   9.501   8.620 -0.6938 -0.2369 -0.2154
  596MOL0     H82225   3.579   9.610   8.754  0.1471  0.1703 -0.4167
  596MOL0     H82226   3.462   9.441   8.864 -1.6587 -1.4976 -2.2178
  596MOL0     H82227   3.632   9.387   8.885  1.7318  2.1904  0.3697
  596MOL0     H82228   4.369   9.055   8.835  0.8451 -1.2953 -2.8349
  596MOL0     H82229   4.569   8.936   8.947  1.3761 -0.3538 -0.0846
  596MOL0     H82230   4.938   9.043   9.309 -1.9731  0.2422 -0.9884
  596MOL0     H82231   5.124   8.916   9.393 -0.2759  1.5298 -0.9313
  596MOL0     H82232   4.705   8.704   8.502  0.3127 -0.7061  1.2513
  596MOL0     H82233   4.626   8.623   8.277 -1.4608 -0.4558  1.9675
  596MOL0     H82234   4.770   8.455   7.976 -1.9739  0.6706 -2.3393
  596MOL0     H82235   4.859   8.471   7.763 -0.1680  0.2913  0.8676
  596MOL0     H82236   4.954   8.161   7.422  0.5889 -0.9278 -1.0216
  596MOL0     H82237   4.947   8.055   7.551  0.1824  1.0662  1.5413
  596MOL0     H82238   4.708   8.182   7.402  1.2686  2.1478  0.9457
  596MOL0     H82239   4.678   8.101   7.551  0.1394 -1.6386 -0.5071
  596MOL0     H82240   4.672   7.939   7.339 -0.1682 -0.4803  0.4801
  596MOL0     H82241   4.849   7.940   7.378 -1.3591 -1.2123 -1.2610
  596MOL0     H82242   4.621   7.868   7.569 -0.7694 -0.8778 -1.8080
  596MOL0     H82243   4.795   7.855   7.599 -1.7775  2.3898  1.6958
  596MOL0     H82244   4.768   7.523   7.347 -0.9934  1.8751 -3.1300
  596MOL0     H82245   4.849   8.040   7.729  2.8987 -0.7335  1.4618
  596MOL0     H82246   4.669   7.958   8.030 -1.0011 -1.4091 -2.3449
  596MOL0     H82247   4.776   7.900   7.900  0.3301 -1.3211  1.2487
  596MOL0     H82248   4.847   7.957   8.055 -0.2903 -1.9641 -0.0912
  597MOL0     O82249   3.390  11.068   7.126 -0.4478  0.0589  0.5543
  597MOL0     C82250   3.392  10.955   7.182  0.0289 -0.1984 -1.0873
  597MOL0     O82251   3.362  10.938   7.313 -0.7017  0.0121 -0.4535
  597MOL0     C82252   3.294  11.039   7.373 -0.3211 -0.3662  0.0363
  597MOL0     C82253   3.370  11.133   7.442 -0.6977 -0.7766 -0.1709
  597MOL0     C82254   3.309  11.236   7.513  0.9934  0.2068  0.2794
  597MOL0     C82255   3.162  11.248   7.504 -0.6072 -0.4722  1.2468
  597MOL0     O82256   3.080  11.334   7.560  0.0945  0.4891 -0.2078
  597MOL0     C82257   3.154  11.450   7.608  0.3537 -0.1066 -0.5077
  597MOL0     C82258   3.040  11.544   7.654 -0.4092  1.3720 -0.7463
  597MOL0     C82259   3.103  11.688   7.683 -0.1697  0.0697  0.3938
  597MOL0     C82260   2.990  11.783   7.733 -0.4285 -0.2561  0.0931
  597MOL0     C82261   2.889  11.833   7.624  0.3393 -0.8596 -0.2391
  597MOL0     C82262   2.835  11.978   7.667 -0.2213  0.5064 -0.3341
  597MOL0     C82263   2.779  11.986   7.819 -0.1139  0.2122  0.4588
  597MOL0     C82264   2.719  12.121   7.865 -0.6323  0.0501  0.2272
  597MOL0     N82265   2.591  12.130   7.787 -0.7848 -0.0270 -0.3663
  597MOL0     C82266   2.563  12.225   7.685 -0.7809  0.5842  0.3815
  597MOL0     C82267   2.429  12.214   7.678  0.8962 -0.3741 -0.2928
  597MOL0     C82268   2.333  12.282   7.584 -0.4076 -0.0141  0.1876
  597MOL0     C82269   2.223  12.346   7.664 -1.2360 -0.4543  0.0354
  597MOL0     C82270   2.251  12.452   7.778 -0.4723 -0.2370  0.3789
  597MOL0     C82271   2.320  12.582   7.737 -0.4994 -0.8907 -0.4898
  597MOL0     O82272   2.450  12.552   7.674 -0.7559  0.7672 -0.5230
  597MOL0     C82273   2.536  12.653   7.652  0.3983 -0.0128  0.9140
  597MOL0     C82274   2.626  12.624   7.549  0.8250 -0.8603 -0.1006
  597MOL0     C82275   2.745  12.700   7.530  1.0434 -0.8945  0.2647
  597MOL0     C82276   2.853  12.634   7.446 -0.5125  0.0773  0.4466
  597MOL0     C82277   2.758  12.812   7.610  0.4111 -0.4246 -1.4591
  597MOL0     C82278   2.865  12.916   7.580  0.0912  0.5937 -0.8906
  597MOL0     O82279   2.894  13.010   7.683  0.5105  0.5170 -0.4720
  597MOL0     C82280   2.979  13.117   7.666  0.2059  0.7803 -0.6911
  597MOL0     C82281   3.066  13.149   7.775 -0.3238 -0.8373 -0.0806
  597MOL0     C82282   3.158  13.259   7.745  0.1442  0.0008 -0.6133
  597MOL0     C82283   3.172  13.321   7.620 -0.0353  0.5662 -0.3088
  597MOL0     O82284   3.278  13.405   7.608  0.0062  0.9194 -0.3070
  597MOL0     C82285   3.249  13.516   7.534  0.1848 -0.2475  0.2290
  597MOL0     C82286   3.355  13.624   7.550  0.7996 -1.5163 -0.2224
  597MOL0     C82287   3.470  13.581   7.457  0.6287  0.7490 -0.1410
  597MOL0     C82288   3.581  13.684   7.458 -0.0891 -0.1715 -0.6178
  597MOL0     C82289   3.691  13.638   7.368 -1.0344  0.4439  0.6273
  597MOL0     C82290   3.808  13.740   7.361  0.3929  0.0147 -0.4488
  597MOL0     C82291   3.789  13.847   7.257 -0.3051 -0.2328  0.4767
  597MOL0     C82292   3.885  13.827   7.148 -0.5141  0.2999 -1.2735
  597MOL0    Cl82293   3.813  13.911   7.007 -0.8387  0.4397  0.5892
  597MOL0     C82294   3.081  13.283   7.519 -0.4283 -0.6786 -0.7328
  597MOL0     C82295   2.982  13.188   7.542 -1.1472  0.1295 -0.6122
  597MOL0     O82296   2.920  12.917   7.473  0.4787 -0.6438  0.5428
  597MOL0     C82297   2.665  12.844   7.710  0.4224 -0.0597 -0.4053
  597MOL0     C82298   2.548  12.769   7.733 -0.1875 -0.0406  0.8427
  597MOL0     N82299   2.382  12.144   7.782  0.2094 -0.2711  0.0177
  597MOL0     N82300   2.480  12.095   7.848 -0.2417  0.7937 -0.5850
  597MOL0     C82301   3.096  11.155   7.435 -0.4117  0.0466  0.3590
  597MOL0     C82302   3.157  11.049   7.374  0.3101  0.1284 -0.5148
  597MOL0     C82303   3.427  10.841   7.105 -0.0748  0.0804  0.7256
  597MOL0     C82304   3.318  10.755   7.061 -0.5089 -0.2247  0.5636
  597MOL0     C82305   3.344  10.642   6.988  0.2224  0.3727  0.1286
  597MOL0     C82306   3.473  10.589   6.977 -0.3927 -0.0425  0.0755
  597MOL0     O82307   3.489  10.474   6.915  0.1010  0.5477  0.0099
  597MOL0     C82308   3.550  10.473   6.787 -0.5189  0.6710 -0.3211
  597MOL0     C82309   3.703  10.417   6.790  0.4150 -1.1633  0.2471
  597MOL0     C82310   3.748  10.338   6.663 -0.3925  0.3351  0.0442
  597MOL0     C82311   3.689  10.391   6.530 -0.3694  0.0725 -0.3200
  597MOL0     C82312   3.739  10.520   6.484 -0.3339 -0.8572  0.4350
  597MOL0     C82313   3.782  10.626   6.442 -0.4978  0.1604 -0.7630
  597MOL0     C82314   3.582  10.675   7.007 -0.8975 -0.3908 -0.0808
  597MOL0     C82315   3.559  10.801   7.072  0.3743 -0.1937 -0.7478
  597MOL0     C82316   3.685  10.881   7.110 -0.3150 -0.6742  0.0808
  597MOL0     H82317   3.478  11.135   7.455 -0.8468  2.4290  1.7936
  597MOL0     H82318   3.365  11.311   7.567  1.6233 -2.0676  3.0521
  597MOL0     H82319   3.210  11.492   7.524  3.7680  0.4368  1.8504
  597MOL0     H82320   3.218  11.430   7.694 -0.4056  2.4035  0.7374
  597MOL0     H82321   2.968  11.533   7.573 -1.5997  0.0476  0.4446
  597MOL0     H82322   2.976  11.514   7.737  0.9163  2.6296  0.7963
  597MOL0     H82323   3.184  11.666   7.753  0.3161  1.1777  0.2077
  597MOL0     H82324   3.144  11.725   7.588 -0.4190  2.3063  1.1065
  597MOL0     H82325   2.939  11.748   7.823  2.2461  1.1120  2.3183
  597MOL0     H82326   3.042  11.875   7.763 -0.7763  0.9860 -2.7556
  597MOL0     H82327   2.810  11.758   7.616  2.3072 -3.0557 -0.2413
  597MOL0     H82328   2.924  11.841   7.521 -1.1353  1.4531 -0.6191
  597MOL0     H82329   2.912  12.053   7.644  0.1164 -0.1007 -1.2279
  597MOL0     H82330   2.746  12.004   7.609 -1.9452 -0.7871  1.5638
  597MOL0     H82331   2.858  11.957   7.889 -1.6801 -1.2478  1.7071
  597MOL0     H82332   2.702  11.909   7.824 -0.3006  0.3642 -0.0239
  597MOL0     H82333   2.691  12.112   7.971  1.0752 -1.7504  0.5966
  597MOL0     H82334   2.798  12.196   7.867 -0.2351 -0.3618  2.3896
  597MOL0     H82335   2.627  12.284   7.621 -2.0766 -0.6314 -2.1833
  597MOL0     H82336   2.297  12.214   7.506  4.3752 -0.0293 -2.4340
  597MOL0     H82337   2.390  12.362   7.534  2.3197 -1.1409  1.2641
  597MOL0     H82338   2.152  12.398   7.598 -1.3592  2.4815  2.2755
  597MOL0     H82339   2.168  12.264   7.711 -0.2780 -0.6823  0.7880
  597MOL0     H82340   2.156  12.465   7.829  0.0796 -0.1591  1.4078
  597MOL0     H82341   2.324  12.403   7.844  3.2338  1.4465 -2.1036
  597MOL0     H82342   2.255  12.646   7.677 -0.8998  0.5615  1.4194
  597MOL0     H82343   2.340  12.640   7.827  0.1463  1.7123 -2.2082
  597MOL0     H82344   2.597  12.540   7.486 -4.3458 -0.6808  1.6145
  597MOL0     H82345   2.826  12.532   7.418 -1.4756 -0.5985  3.5176
  597MOL0     H82346   2.945  12.640   7.505  0.9168  4.7829 -1.7849
  597MOL0     H82347   2.883  12.695   7.360  0.7712 -1.5561 -0.3248
  597MOL0     H82348   3.068  13.098   7.871 -2.3460 -0.4834  0.1871
  597MOL0     H82349   3.241  13.288   7.809 -0.5539  1.3928 -0.2976
  597MOL0     H82350   3.234  13.506   7.427 -0.0530 -3.1806  0.4584
  597MOL0     H82351   3.159  13.555   7.583  1.0120  0.3271  1.3371
  597MOL0     H82352   3.302  13.714   7.515  0.0134 -1.9546 -0.1732
  597MOL0     H82353   3.398  13.650   7.648  2.3474 -1.2811 -0.9314
  597MOL0     H82354   3.427  13.570   7.357 -3.4092 -0.5337  1.5400
  597MOL0     H82355   3.511  13.484   7.486 -1.4093 -0.5887 -1.5013
  597MOL0     H82356   3.614  13.686   7.562 -1.5582 -0.1689 -0.1302
  597MOL0     H82357   3.556  13.790   7.445  1.4732  0.2384 -0.5257
  597MOL0     H82358   3.741  13.546   7.398 -0.0309  0.6868 -0.2337
  597MOL0     H82359   3.662  13.614   7.265 -0.7352 -0.0910  0.6603
  597MOL0     H82360   3.888  13.673   7.328 -0.3608  0.3738 -3.2148
  597MOL0     H82361   3.818  13.779   7.463 -1.3166  0.0889 -0.2870
  597MOL0     H82362   3.780  13.951   7.290  0.6494  1.0010 -2.7924
  597MOL0     H82363   3.689  13.826   7.216 -0.6201  0.5973  0.7980
  597MOL0     H82364   3.887  13.720   7.126  0.3880 -0.0621  0.4257
  597MOL0     H82365   3.988  13.862   7.160 -1.1805  1.5709  1.7111
  597MOL0     H82366   3.092  13.332   7.422 -1.2459  0.6096 -0.2040
  597MOL0     H82367   2.914  13.149   7.467 -0.2772 -2.5840 -0.0858
  597MOL0     H82368   2.681  12.927   7.779  2.7895 -3.1006  3.1078
  597MOL0     H82369   2.481  12.800   7.813 -0.8094 -0.1096  0.3571
  597MOL0     H82370   2.988  11.155   7.429 -0.4189 -1.9745 -0.2793
  597MOL0     H82371   3.097  10.983   7.312  1.9145 -2.4499  0.5265
  597MOL0     H82372   3.216  10.776   7.091 -0.7839 -1.4806  0.5823
  597MOL0     H82373   3.264  10.579   6.951  0.2760  1.7394 -2.5664
  597MOL0     H82374   3.490  10.411   6.720 -0.1065  0.4760 -0.5145
  597MOL0     H82375   3.564  10.567   6.734  3.0575 -1.3244 -3.4952
  597MOL0     H82376   3.729  10.362   6.882  1.1307 -0.8573  0.2304
  597MOL0     H82377   3.773  10.501   6.788  1.4299 -1.9570 -2.3752
  597MOL0     H82378   3.857  10.341   6.654 -0.3968  0.5579  0.0653
  597MOL0     H82379   3.710  10.235   6.672  2.5859 -0.6842  2.8252
  597MOL0     H82380   3.580  10.391   6.543 -0.4541 -2.1542 -0.7065
  597MOL0     H82381   3.713  10.334   6.440  0.1925 -0.4588  0.1632
  597MOL0     H82382   3.812  10.723   6.407  1.8005 -0.4569 -0.6356
  597MOL0     H82383   3.682  10.645   6.980 -0.4863  2.1176 -1.7238
  597MOL0     H82384   3.770  10.874   7.041 -1.2053  0.2211 -1.1680
  597MOL0     H82385   3.659  10.986   7.128 -2.7750 -1.4982  1.8785
  597MOL0     H82386   3.717  10.837   7.204 -0.5012  1.0393  0.9788
  598MOL0     O82387   8.934   6.410   8.913 -0.1216 -0.2451 -0.4419
  598MOL0     C82388   8.922   6.372   9.033  0.4924 -0.2684  0.7168
  598MOL0     O82389   9.020   6.395   9.129 -0.5923 -0.0309 -0.1598
  598MOL0     C82390   9.154   6.378   9.115  0.0778  0.1722 -0.5754
  598MOL0     C82391   9.219   6.387   9.239 -0.1114 -0.7266  0.0813
  598MOL0     C82392   9.357   6.366   9.249  0.9482 -1.2728  0.1630
  598MOL0     C82393   9.430   6.313   9.144 -0.2796  0.0811 -0.0390
  598MOL0     O82394   9.563   6.297   9.142 -0.3221  0.2009  0.3536
  598MOL0     C82395   9.631   6.225   9.246 -1.3230  0.7285 -0.4359
  598MOL0     C82396   9.779   6.208   9.214 -0.0550  0.1432  0.4198
  598MOL0     C82397   9.801   6.105   9.098  0.8290 -0.6551  0.2130
  598MOL0     C82398   9.832   6.177   8.957  0.3274  0.3912 -0.6439
  598MOL0     C82399   9.973   6.238   8.945  0.4249 -0.0213  0.3628
  598MOL0     C82400  10.078   6.174   8.862  1.1188 -0.3196  0.1015
  598MOL0     C82401  10.032   6.134   8.722  0.0890 -0.8445 -0.1627
  598MOL0     C82402   9.989   6.247   8.631  1.4065  0.0415 -1.0121
  598MOL0     N82403  10.002   6.216   8.492  0.6648 -0.1627 -0.0650
  598MOL0     C82404   9.901   6.162   8.422  0.3793 -0.4100  0.3300
  598MOL0     C82405   9.956   6.142   8.302 -1.0763 -0.0849  0.1390
  598MOL0     C82406   9.882   6.095   8.182  0.5346  0.2738 -0.8811
  598MOL0     C82407   9.973   6.005   8.093  0.0080  0.3328 -0.0070
  598MOL0     C82408   9.909   5.957   7.969  0.5565 -0.6177  0.9370
  598MOL0     C82409   9.997   5.858   7.893 -0.2548 -0.1253 -0.4338
  598MOL0     O82410   9.912   5.811   7.781  1.4782 -0.4111  0.2853
  598MOL0     C82411   9.820   5.711   7.806  0.4754 -0.9206 -0.2294
  598MOL0     C82412   9.802   5.645   7.929  0.5480 -0.0726 -0.7877
  598MOL0     C82413   9.718   5.530   7.938  0.9439  0.3399 -0.0019
  598MOL0     C82414   9.691   5.473   8.079  0.0071 -0.0429  0.5515
  598MOL0     C82415   9.646   5.487   7.823  0.1340  0.8191  0.3215
  598MOL0     C82416   9.547   5.367   7.823  0.2755  0.1643 -0.0589
  598MOL0     O82417   9.508   5.305   7.937  0.3306  0.3723  0.9167
  598MOL0     C82418   9.461   5.171   7.928  0.0019 -0.3661  0.0734
  598MOL0     C82419   9.492   5.076   7.832  0.4249 -0.0316 -0.4721
  598MOL0     C82420   9.434   4.948   7.837 -0.2086 -0.0754  1.1145
  598MOL0     C82421   9.332   4.906   7.923  0.3989 -0.7741 -0.1510
  598MOL0     O82422   9.275   4.782   7.920  0.3147  0.1542  0.0822
  598MOL0     C82423   9.311   4.675   7.828 -0.0493 -0.2834  0.4172
  598MOL0     C82424   9.433   4.595   7.875 -0.2882 -0.3681  0.1524
  598MOL0     C82425   9.495   4.494   7.768 -0.7419  0.0371  0.1475
  598MOL0     C82426   9.623   4.436   7.843 -0.0855 -0.3690 -0.0371
  598MOL0     C82427   9.690   4.328   7.761  0.7920  0.3442 -1.0433
  598MOL0     C82428   9.792   4.253   7.835 -0.2537 -0.5881 -0.8022
  598MOL0     C82429   9.866   4.164   7.733 -0.3637 -0.7438  0.8380
  598MOL0     C82430   9.933   4.036   7.810 -0.0793  0.1856  0.4625
  598MOL0    Cl82431   9.982   3.916   7.699  0.0345 -0.4005  0.0942
  598MOL0     C82432   9.294   5.016   8.009  0.1085  1.1083  0.0132
  598MOL0     C82433   9.363   5.133   8.020 -0.9661  1.2963 -0.3887
  598MOL0     O82434   9.510   5.333   7.713  0.0136  0.2665 -0.0590
  598MOL0     C82435   9.673   5.557   7.706  0.8621 -0.8206 -0.6662
  598MOL0     C82436   9.752   5.662   7.692  0.1991 -0.3890 -0.5733
  598MOL0     N82437  10.081   6.175   8.309 -1.1920 -0.3400 -0.5637
  598MOL0     N82438  10.118   6.225   8.423  0.7482  0.1334 -0.6532
  598MOL0     C82439   9.365   6.303   9.018  0.8887 -0.8343  0.0243
  598MOL0     C82440   9.226   6.329   9.004  0.0485  0.2860  0.0293
  598MOL0     C82441   8.796   6.321   9.076  0.2539  0.5418 -0.4729
  598MOL0     C82442   8.747   6.348   9.211 -0.8884 -0.8324  1.0968
  598MOL0     C82443   8.635   6.295   9.259 -0.3436 -0.1061  0.5191
  598MOL0     C82444   8.556   6.216   9.179  0.0453  0.1448  0.0731
  598MOL0     O82445   8.439   6.180   9.238  0.0172  0.1247 -0.3928
  598MOL0     C82446   8.320   6.223   9.167  0.6713 -0.7518  0.5674
  598MOL0     C82447   8.284   6.369   9.188  0.0508  0.1018 -0.0573
  598MOL0     C82448   8.130   6.388   9.189 -0.2924  1.0446  0.7497
  598MOL0     C82449   8.056   6.390   9.057  0.1827 -0.7714  0.1326
  598MOL0     C82450   8.018   6.259   9.014 -0.3320 -0.3736  0.2340
  598MOL0     C82451   7.966   6.156   8.987  0.1723  0.5237 -0.4853
  598MOL0     C82452   8.592   6.190   9.041  0.8321  0.4990 -0.3439
  598MOL0     C82453   8.716   6.238   8.982 -0.5122 -0.7250 -0.9282
  598MOL0     C82454   8.749   6.222   8.834 -0.0871  0.2233 -0.7556
  598MOL0     H82455   9.173   6.428   9.328  1.3426 -2.8388  1.9031
  598MOL0     H82456   9.399   6.399   9.343 -0.1239  2.2702 -0.4497
  598MOL0     H82457   9.585   6.127   9.256  2.0996 -0.9850 -0.0564
  598MOL0     H82458   9.634   6.287   9.336 -0.5688 -0.5353  0.4523
  598MOL0     H82459   9.810   6.310   9.187  1.0333 -0.6962 -1.6616
  598MOL0     H82460   9.852   6.206   9.296 -0.1201  1.2905  0.5294
  598MOL0     H82461   9.895   6.056   9.124  0.6146  1.1437  5.5036
  598MOL0     H82462   9.720   6.032   9.087  2.1197 -2.0339 -0.4825
  598MOL0     H82463   9.822   6.104   8.877  1.7857 -3.7194  2.6001
  598MOL0     H82464   9.755   6.253   8.938 -0.0227  0.1481 -0.2200
  598MOL0     H82465  10.013   6.227   9.046  0.1161  1.0457  0.6164
  598MOL0     H82466   9.968   6.344   8.918  0.1510  0.1544  1.0986
  598MOL0     H82467  10.164   6.241   8.871  0.5527  0.1745  2.3685
  598MOL0     H82468  10.113   6.082   8.909  1.3826 -0.9576 -1.2877
  598MOL0     H82469   9.958   6.057   8.744  0.2736 -0.2827  2.9299
  598MOL0     H82470  10.117   6.081   8.679  4.1130  2.1218  3.3371
  598MOL0     H82471   9.885   6.280   8.637  1.3945 -0.0221 -0.8694
  598MOL0     H82472  10.052   6.332   8.658  1.4527 -1.0741  3.0182
  598MOL0     H82473   9.796   6.158   8.453  0.3277  2.5745  0.8441
  598MOL0     H82474   9.842   6.180   8.127 -2.4898  0.1627  0.9465
  598MOL0     H82475   9.801   6.029   8.214 -1.5893  3.8267  1.9235
  598MOL0     H82476  10.066   6.051   8.058  0.5945 -2.4412 -2.4494
  598MOL0     H82477  10.001   5.916   8.151 -1.1380  0.5787  0.9647
  598MOL0     H82478   9.809   5.923   7.998  0.6574  0.8538  3.3493
  598MOL0     H82479   9.899   6.044   7.904 -3.3871 -0.2990  1.7115
  598MOL0     H82480  10.086   5.911   7.857  2.1792 -2.7608  1.2360
  598MOL0     H82481  10.036   5.776   7.954  1.3927  0.4936 -0.6108
  598MOL0     H82482   9.859   5.670   8.018 -0.4685 -1.0577  0.1721
  598MOL0     H82483   9.691   5.364   8.069 -1.2082  0.1316 -3.9133
  598MOL0     H82484   9.598   5.518   8.117 -1.1925 -1.2172 -0.8548
  598MOL0     H82485   9.770   5.506   8.147  0.1411 -1.0124  0.8741
  598MOL0     H82486   9.566   5.098   7.756  0.5922  2.1055  0.2530
  598MOL0     H82487   9.473   4.895   7.750  1.3155  5.4384 -2.0632
  598MOL0     H82488   9.242   4.592   7.814  2.4620 -2.2426 -1.5444
  598MOL0     H82489   9.322   4.715   7.726 -6.6067  1.3418 -0.0806
  598MOL0     H82490   9.509   4.667   7.907 -1.3379  0.7331  0.1965
  598MOL0     H82491   9.402   4.522   7.951 -0.3608 -3.5695 -2.6857
  598MOL0     H82492   9.526   4.551   7.680 -0.0524 -0.2685  0.1915
  598MOL0     H82493   9.432   4.408   7.741 -0.5784 -1.3291  3.6439
  598MOL0     H82494   9.589   4.394   7.938  0.5655 -2.2687 -0.6020
  598MOL0     H82495   9.692   4.520   7.857  1.0686 -1.1132 -1.0209
  598MOL0     H82496   9.610   4.261   7.729 -1.1771  2.6651 -1.3214
  598MOL0     H82497   9.729   4.374   7.670 -0.6013 -0.5496 -2.1345
  598MOL0     H82498   9.737   4.184   7.900  1.5605  0.4990  2.0740
  598MOL0     H82499   9.872   4.300   7.892  2.5337 -0.8182 -4.1842
  598MOL0     H82500   9.932   4.217   7.664 -2.0096  0.5974  0.2538
  598MOL0     H82501   9.792   4.112   7.672 -1.9672  0.1979  1.9112
  598MOL0     H82502   9.851   3.995   7.870  0.8439  0.3971  1.9128
  598MOL0     H82503  10.019   4.069   7.869  0.2787 -1.4514  0.9066
  598MOL0     H82504   9.221   5.004   8.089  0.2785 -0.0739  0.0211
  598MOL0     H82505   9.344   5.201   8.103 -0.7781 -0.3194  1.0329
  598MOL0     H82506   9.632   5.529   7.609  4.5143  1.8128 -3.2534
  598MOL0     H82507   9.773   5.716   7.600 -0.7544 -1.0046 -1.1705
  598MOL0     H82508   9.416   6.255   8.935 -1.0449 -2.2558 -0.4349
  598MOL0     H82509   9.179   6.325   8.906 -2.1362 -0.1600  1.0237
  598MOL0     H82510   8.808   6.423   9.261  2.7531 -0.7035 -2.8825
  598MOL0     H82511   8.607   6.314   9.362 -2.6839  2.4710 -0.4682
  598MOL0     H82512   8.329   6.193   9.062 -3.4381 -2.0199  0.3818
  598MOL0     H82513   8.244   6.160   9.215  1.7100 -3.9367 -1.6761
  598MOL0     H82514   8.345   6.437   9.128  1.9853  0.7141  2.4237
  598MOL0     H82515   8.316   6.394   9.290 -2.0417 -0.0896  0.6941
  598MOL0     H82516   8.073   6.331   9.261 -0.0020 -0.9283 -0.5054
  598MOL0     H82517   8.126   6.488   9.233  1.0021 -0.2682  4.2221
  598MOL0     H82518   8.107   6.450   8.981 -3.7388 -0.4387 -2.4828
  598MOL0     H82519   7.963   6.438   9.086  1.5025  0.9681  1.7632
  598MOL0     H82520   7.934   6.060   8.953  0.9006 -0.2873  1.0222
  598MOL0     H82521   8.524   6.138   8.975 -1.1334 -0.8455  2.5329
  598MOL0     H82522   8.682   6.146   8.792  2.7873 -1.1139 -3.3981
  598MOL0     H82523   8.755   6.317   8.779 -0.0781  0.6606 -0.0052
  598MOL0     H82524   8.849   6.177   8.842 -0.3566 -0.1022  1.2746
  599MOL0     O82525   3.847   7.507   9.299 -0.4011 -0.8160 -0.0767
  599MOL0     C82526   3.906   7.616   9.310 -0.0704  0.0184  0.2428
  599MOL0     O82527   3.869   7.720   9.392 -0.3147 -0.2858 -0.1405
  599MOL0     C82528   3.743   7.723   9.439 -0.1565 -0.2434 -0.8901
  599MOL0     C82529   3.662   7.820   9.386  0.1446  0.0320 -0.2905
  599MOL0     C82530   3.531   7.831   9.439  0.7071 -0.2300  1.1436
  599MOL0     C82531   3.479   7.743   9.533  0.3167 -0.7878 -0.2374
  599MOL0     O82532   3.346   7.757   9.578  0.2479 -0.0646  0.3901
  599MOL0     C82533   3.287   7.656   9.660  0.5411 -0.6318 -0.4678
  599MOL0     C82534   3.144   7.681   9.690 -0.0749  0.4236 -0.3059
  599MOL0     C82535   3.063   7.638   9.561 -0.0725 -0.0056  0.3570
  599MOL0     C82536   3.058   7.479   9.556 -0.2573  0.5227 -0.4750
  599MOL0     C82537   2.926   7.430   9.500 -0.5071 -0.6748  0.4199
  599MOL0     C82538   2.915   7.280   9.477  0.5122 -0.2151 -0.4416
  599MOL0     C82539   2.986   7.175   9.569  0.1432  0.1730  0.3208
  599MOL0     C82540   2.927   7.177   9.719 -0.3094 -0.8030 -0.6558
  599MOL0     N82541   2.981   7.073   9.802 -0.4450 -0.3861  0.0679
  599MOL0     C82542   2.963   6.933   9.784  0.3060 -0.5677 -0.3529
  599MOL0     C82543   3.032   6.878   9.888  0.0610 -0.3337 -0.2589
  599MOL0     C82544   3.015   6.735   9.933  0.5019 -0.3690  0.0854
  599MOL0     C82545   2.932   6.715  10.064 -0.4167 -0.3577  1.3023
  599MOL0     C82546   2.915   6.568  10.098 -1.3621 -0.7039  0.1217
  599MOL0     C82547   2.825   6.487  10.010  0.0495 -0.0003  0.5346
  599MOL0     O82548   2.804   6.364  10.053  0.3382  0.3368 -0.7771
  599MOL0     C82549   2.749   6.264   9.974  0.6602 -0.8165  0.2418
  599MOL0     C82550   2.667   6.286   9.858 -0.1333 -0.8855  0.1399
  599MOL0     C82551   2.622   6.187   9.773 -0.0469 -0.2530 -0.0875
  599MOL0     C82552   2.547   6.241   9.656 -0.1764  0.2851 -0.2094
  599MOL0     C82553   2.652   6.048   9.800 -0.0045  0.4762  0.9293
  599MOL0     C82554   2.622   5.935   9.705  0.0723 -0.7709 -0.3236
  599MOL0     O82555   2.668   5.814   9.749  0.0491  0.0391 -0.1154
  599MOL0     C82556   2.624   5.692   9.705 -0.6738  0.1196  0.0509
  599MOL0     C82557   2.598   5.661   9.570 -0.1952  0.4940 -1.0965
  599MOL0     C82558   2.561   5.532   9.531  0.0295 -0.1359 -0.4497
  599MOL0     C82559   2.555   5.429   9.618  0.1301  0.2059 -0.2660
  599MOL0     O82560   2.536   5.307   9.565 -0.0314  0.3058 -0.5884
  599MOL0     C82561   2.509   5.182   9.645 -0.6236 -0.9948 -0.1313
  599MOL0     C82562   2.418   5.093   9.556 -0.1150  0.3393 -0.1528
  599MOL0     C82563   2.363   4.964   9.630 -0.6688  0.6863  0.0955
  599MOL0     C82564   2.363   4.824   9.557 -0.0289 -0.8102 -0.1227
  599MOL0     C82565   2.282   4.716   9.619  0.3447  0.0252  0.2476
  599MOL0     C82566   2.310   4.583   9.539 -0.0724 -0.8769  1.2988
  599MOL0     C82567   2.199   4.483   9.576 -0.2708 -0.3272  0.1291
  599MOL0     C82568   2.230   4.408   9.707  0.3883  1.0266  0.2335
  599MOL0    Cl82569   2.118   4.280   9.745 -0.0981 -0.0708 -0.0680
  599MOL0     C82570   2.598   5.438   9.747 -0.4854 -0.3045 -0.2163
  599MOL0     C82571   2.627   5.575   9.788 -0.3038 -0.1366  0.0995
  599MOL0     O82572   2.552   5.946   9.606 -0.6279 -0.5770 -0.4985
  599MOL0     C82573   2.737   6.034   9.913 -0.5157  0.7466  0.5646
  599MOL0     C82574   2.786   6.135  10.008 -0.2328  1.6972  0.7340
  599MOL0     N82575   3.100   6.979   9.959  0.3209  0.6262  0.5792
  599MOL0     N82576   3.072   7.091   9.901  0.3542 -0.2710 -0.0552
  599MOL0     C82577   3.559   7.635   9.568 -0.2137  0.1332  0.1173
  599MOL0     C82578   3.696   7.632   9.534  0.4264 -0.0754 -0.5466
  599MOL0     C82579   4.013   7.645   9.216 -0.2041  0.6454  0.8268
  599MOL0     C82580   4.040   7.776   9.177  0.5876 -0.3487 -0.3006
  599MOL0     C82581   4.139   7.815   9.095  1.6538  0.3579  0.3260
  599MOL0     C82582   4.222   7.721   9.029  0.5120 -1.3586 -0.1518
  599MOL0     O82583   4.337   7.773   8.957  0.6673 -0.1008  0.0501
  599MOL0     C82584   4.322   7.892   8.881 -0.2856  0.5052  0.0682
  599MOL0     C82585   4.453   7.914   8.812  0.7805  0.6894  0.7600
  599MOL0     C82586   4.493   7.816   8.701  0.0942 -0.7206  0.4713
  599MOL0     C82587   4.462   7.879   8.561  0.2954  0.5018  0.4526
  599MOL0     C82588   4.566   7.973   8.520  0.1745 -0.5095 -0.7926
  599MOL0     C82589   4.635   8.067   8.490 -0.0167  0.6929 -0.0040
  599MOL0     C82590   4.205   7.587   9.052  0.8835 -0.3357 -0.5371
  599MOL0     C82591   4.096   7.550   9.144  0.1454 -0.5286 -0.4022
  599MOL0     C82592   4.078   7.401   9.165  0.0108  0.1150 -0.6112
  599MOL0     H82593   3.709   7.881   9.309 -0.2948  1.2621  0.3963
  599MOL0     H82594   3.460   7.901   9.398  2.0493 -0.3217 -1.5121
  599MOL0     H82595   3.341   7.670   9.754  1.4151  0.3202 -1.0976
  599MOL0     H82596   3.283   7.554   9.618  0.7436 -1.5646  1.6681
  599MOL0     H82597   3.103   7.630   9.777 -0.8327  2.0566  0.3442
  599MOL0     H82598   3.126   7.789   9.694 -2.9889 -0.0125 -0.1064
  599MOL0     H82599   2.968   7.690   9.548  1.1329  3.1195  2.7303
  599MOL0     H82600   3.105   7.676   9.467 -0.4635 -2.5109 -0.8971
  599MOL0     H82601   3.137   7.437   9.494  3.1899  3.8339  1.2125
  599MOL0     H82602   3.066   7.444   9.660  0.7677  1.1759 -0.3130
  599MOL0     H82603   2.897   7.481   9.408  3.6191  1.5007  0.0967
  599MOL0     H82604   2.853   7.442   9.580 -1.6635 -0.0947 -0.6908
  599MOL0     H82605   2.814   7.247   9.502  1.7887 -2.0594  2.9123
  599MOL0     H82606   2.928   7.270   9.369  2.2570  3.3123 -0.7146
  599MOL0     H82607   3.087   7.217   9.575 -0.0683  0.4680  3.4581
  599MOL0     H82608   2.980   7.078   9.518  0.3596  0.2402  0.1670
  599MOL0     H82609   2.957   7.274   9.759  0.9908  0.4509 -4.2669
  599MOL0     H82610   2.818   7.179   9.715 -0.3530  2.8685 -1.4455
  599MOL0     H82611   2.907   6.895   9.699  1.7301 -0.4559 -1.3813
  599MOL0     H82612   3.109   6.685   9.959  0.5832 -0.3985 -0.2649
  599MOL0     H82613   2.969   6.673   9.856 -0.5172  1.2417 -0.6569
  599MOL0     H82614   2.983   6.771  10.144  0.6212 -1.7139  1.6292
  599MOL0     H82615   2.833   6.761  10.052 -0.8529 -1.7059 -0.7254
  599MOL0     H82616   3.014   6.521  10.103 -0.0860  1.8846  1.7636
  599MOL0     H82617   2.862   6.564  10.194  2.4044 -0.5482  2.4417
  599MOL0     H82618   2.734   6.546   9.996 -0.0634  0.0920  1.5903
  599MOL0     H82619   2.867   6.486   9.909 -3.0345 -0.0761 -0.8619
  599MOL0     H82620   2.653   6.391   9.835  1.2567 -0.7435 -0.1311
  599MOL0     H82621   2.598   6.203   9.567  0.1127 -0.0130  0.0788
  599MOL0     H82622   2.552   6.350   9.648 -1.9554  0.4274  0.1460
  599MOL0     H82623   2.442   6.211   9.658  0.0267 -0.5293 -0.9721
  599MOL0     H82624   2.613   5.731   9.488  0.9778 -1.0767 -2.2586
  599MOL0     H82625   2.553   5.498   9.428 -4.7825 -0.6517 -0.1199
  599MOL0     H82626   2.607   5.136   9.657 -0.3991 -0.3015  0.8842
  599MOL0     H82627   2.459   5.218   9.736  0.4718  1.8235 -0.5309
  599MOL0     H82628   2.328   5.145   9.523 -1.3557 -1.2379  0.6279
  599MOL0     H82629   2.478   5.064   9.469 -1.3139  1.4029 -1.3808
  599MOL0     H82630   2.258   4.979   9.656 -1.1865 -1.3522 -0.6362
  599MOL0     H82631   2.416   4.961   9.726 -1.4373 -0.6974  0.5035
  599MOL0     H82632   2.471   4.806   9.547  0.8958  2.6817  1.9738
  599MOL0     H82633   2.315   4.839   9.460 -1.4565  3.6333  1.0343
  599MOL0     H82634   2.303   4.696   9.724 -1.3474  1.7973  1.0085
  599MOL0     H82635   2.178   4.750   9.614  0.8764  1.7766  0.1376
  599MOL0     H82636   2.409   4.553   9.573  2.6000  3.3908 -1.7153
  599MOL0     H82637   2.301   4.593   9.430 -2.3382  0.9540  1.5648
  599MOL0     H82638   2.177   4.418   9.491  1.7446  1.1729 -1.6518
  599MOL0     H82639   2.105   4.538   9.588 -1.0994 -1.7888  0.6038
  599MOL0     H82640   2.194   4.474   9.787 -1.9990 -1.4714  1.3490
  599MOL0     H82641   2.338   4.390   9.712  0.4520  0.2342 -2.4478
  599MOL0     H82642   2.613   5.356   9.816  2.5300 -0.3779 -0.8181
  599MOL0     H82643   2.656   5.584   9.892 -1.4898 -2.1295  0.6550
  599MOL0     H82644   2.775   5.932   9.923  0.0338  0.7417 -1.1781
  599MOL0     H82645   2.848   6.110  10.093  3.3834  0.3728 -2.0165
  599MOL0     H82646   3.513   7.549   9.615 -2.9123  1.6591  0.4931
  599MOL0     H82647   3.766   7.554   9.562 -0.8855 -1.6377 -1.4179
  599MOL0     H82648   3.980   7.852   9.227  0.8011 -0.2079 -0.2563
  599MOL0     H82649   4.160   7.920   9.082  2.7121 -0.0535 -1.9184
  599MOL0     H82650   4.243   7.885   8.806 -0.5438  0.0516  0.3754
  599MOL0     H82651   4.315   7.978   8.948  0.3629  2.1528 -1.8670
  599MOL0     H82652   4.524   7.932   8.892  2.2808  2.2416 -0.8420
  599MOL0     H82653   4.442   8.007   8.755 -0.6072  0.7077  1.0254
  599MOL0     H82654   4.602   7.811   8.710  0.2048  1.4642  0.9389
  599MOL0     H82655   4.426   7.730   8.702 -3.4883  1.8579 -0.1231
  599MOL0     H82656   4.357   7.910   8.551  0.6927  1.2850 -2.1252
  599MOL0     H82657   4.472   7.791   8.497 -1.9059  0.3861  0.1957
  599MOL0     H82658   4.698   8.153   8.479  0.8622  0.1133  0.3730
  599MOL0     H82659   4.266   7.518   8.994 -1.6703  1.0593 -5.3588
  599MOL0     H82660   3.995   7.363   9.105 -0.4784  1.6621 -0.9615
  599MOL0     H82661   4.173   7.348   9.160 -0.0337 -0.0864  0.4505
  599MOL0     H82662   4.066   7.391   9.273  1.7741  0.1030 -0.3947
  600MOL0     O82663   8.866   1.100   8.982  0.6408 -0.0563  0.2941
  600MOL0     C82664   8.828   1.012   8.903 -0.5285 -0.1771 -0.1602
  600MOL0     O82665   8.701   0.969   8.888 -0.7473  0.3041  1.9942
  600MOL0     C82666   8.599   1.042   8.942 -0.0953 -0.1577  0.0778
  600MOL0     C82667   8.591   1.187   8.933  0.7817  0.3955 -0.4158
  600MOL0     C82668   8.484   1.252   8.996  1.2858 -0.5769  0.5624
  600MOL0     C82669   8.381   1.181   9.050  0.1011 -0.1179 -0.9672
  600MOL0     O82670   8.290   1.266   9.097  0.1476  0.8074  0.3119
  600MOL0     C82671   8.170   1.194   9.146  0.5238  0.2018 -1.1688
  600MOL0     C82672   8.062   1.294   9.200  1.0505  0.5403  0.3060
  600MOL0     C82673   7.922   1.210   9.220  0.1640 -0.9215 -0.4633
  600MOL0     C82674   7.921   1.133   9.355  0.0787  0.1044  0.3361
  600MOL0     C82675   7.797   1.036   9.367  0.8830 -0.2566 -0.5898
  600MOL0     C82676   7.661   1.111   9.378  0.2487 -0.0791 -0.7838
  600MOL0     C82677   7.537   1.062   9.286 -0.5877  0.0393 -0.0632
  600MOL0     C82678   7.548   1.124   9.143  0.6867 -0.2306 -0.4748
  600MOL0     N82679   7.441   1.094   9.046  1.2670  0.4888 -0.0400
  600MOL0     C82680   7.372   0.980   9.026  0.0963  0.0520  0.8132
  600MOL0     C82681   7.292   1.001   8.925 -0.5407 -0.8405  0.3967
  600MOL0     C82682   7.191   0.912   8.843  0.6741  0.4148  0.3775
  600MOL0     C82683   7.239   0.890   8.694 -0.0097  0.6386  0.0258
  600MOL0     C82684   7.145   0.795   8.619  0.1341 -0.3574  0.0261
  600MOL0     C82685   7.167   0.767   8.471  0.4944  0.3407  0.2305
  600MOL0     O82686   7.159   0.895   8.407  0.7943 -0.1657 -1.0724
  600MOL0     C82687   7.082   0.903   8.295 -0.1545 -0.7978  0.1955
  600MOL0     C82688   7.151   0.967   8.183 -0.3802  0.6673 -0.3133
  600MOL0     C82689   7.093   0.943   8.064  0.1997  0.0749 -0.1331
  600MOL0     C82690   7.152   1.011   7.944 -0.8635 -0.4133 -0.1220
  600MOL0     C82691   6.961   0.885   8.044 -1.0408  0.1097  0.3327
  600MOL0     C82692   6.919   0.846   7.912 -0.3709 -0.5325 -0.6102
  600MOL0     O82693   6.987   0.741   7.870  0.9072 -0.0388  0.1662
  600MOL0     C82694   6.969   0.705   7.743 -0.7828 -0.1499  0.1693
  600MOL0     C82695   6.963   0.575   7.702 -0.2396  0.3800 -0.2351
  600MOL0     C82696   6.971   0.540   7.566  0.5902 -0.1666 -0.9860
  600MOL0     C82697   6.954   0.634   7.463 -0.4529 -0.0045  0.4609
  600MOL0     O82698   6.943   0.596   7.337 -0.7102  0.2748 -1.0198
  600MOL0     C82699   6.986   0.678   7.225  0.2570 -0.2888  0.0470
  600MOL0     C82700   6.911   0.621   7.104 -0.5959 -0.7636 -0.4939
  600MOL0     C82701   6.949   0.682   6.977 -0.0298 -0.3779  0.5104
  600MOL0     C82702   6.866   0.807   6.955  0.5322  0.3249  0.2327
  600MOL0     C82703   6.862   0.864   6.810 -0.1960  0.2742 -0.6914
  600MOL0     C82704   6.802   1.010   6.802  0.4019 -0.7394  0.2250
  600MOL0     C82705   6.653   1.018   6.853 -0.4769 -1.1253 -0.2003
  600MOL0     C82706   6.600   1.165   6.870 -0.6473  0.4146  0.2156
  600MOL0    Cl82707   6.423   1.179   6.911  0.1834  0.4122  0.3264
  600MOL0     C82708   6.965   0.762   7.505 -0.5571 -0.0170  0.9426
  600MOL0     C82709   6.989   0.801   7.639  0.3468 -0.2970 -0.6522
  600MOL0     O82710   6.808   0.878   7.875  0.3387  0.0739 -0.0446
  600MOL0     C82711   6.889   0.843   8.161 -0.1453 -0.0832 -0.2702
  600MOL0     C82712   6.959   0.848   8.281  0.8020 -0.5271 -0.3768
  600MOL0     N82713   7.318   1.131   8.882 -0.3105  1.1446  0.0436
  600MOL0     N82714   7.405   1.190   8.956  1.0348 -0.8420  0.8185
  600MOL0     C82715   8.387   1.038   9.056 -0.3726  0.1205 -0.2824
  600MOL0     C82716   8.496   0.969   8.995  0.6609 -0.2100 -0.3620
  600MOL0     C82717   8.920   0.950   8.807 -0.0562  0.4001  0.7583
  600MOL0     C82718   8.929   0.806   8.801  0.2869  0.1182  0.1675
  600MOL0     C82719   9.018   0.740   8.715  0.2878 -0.3606  0.3233
  600MOL0     C82720   9.094   0.824   8.624  0.6237  0.0388 -0.0012
  600MOL0     O82721   9.192   0.776   8.540  0.0720  0.4572 -0.8212
  600MOL0     C82722   9.307   0.711   8.604 -0.0203 -0.5592  1.1034
  600MOL0     C82723   9.417   0.682   8.498  0.4056 -0.6378  0.0381
  600MOL0     C82724   9.458   0.813   8.454  0.9191 -0.2213  0.4190
  600MOL0     C82725   9.585   0.813   8.377 -0.3134 -0.0177 -0.2684
  600MOL0     C82726   9.580   0.732   8.255  0.1330  0.5892 -0.8779
  600MOL0     C82727   9.571   0.660   8.158  1.0064 -0.0924  0.5527
  600MOL0     C82728   9.079   0.964   8.623 -0.7179 -0.7755 -0.0442
  600MOL0     C82729   9.000   1.033   8.720 -0.4907  0.4352 -0.5092
  600MOL0     C82730   8.999   1.182   8.730 -0.2562 -0.5212 -1.0042
  600MOL0     H82731   8.680   1.242   8.904 -0.6730  2.7252 -0.6991
  600MOL0     H82732   8.474   1.360   8.987 -0.2089 -0.7367 -0.0240
  600MOL0     H82733   8.195   1.135   9.234  0.6915  2.4798  0.3969
  600MOL0     H82734   8.115   1.136   9.071  0.1187  0.9466 -1.4663
  600MOL0     H82735   8.082   1.340   9.297 -0.5197  1.1298  0.3922
  600MOL0     H82736   8.054   1.380   9.133  4.6583  0.7025 -0.0942
  600MOL0     H82737   7.842   1.284   9.227  0.7097 -0.4358  0.9782
  600MOL0     H82738   7.905   1.141   9.136  2.2345  1.3679 -2.9510
  600MOL0     H82739   8.019   1.084   9.352  0.3618  0.6559  0.4924
  600MOL0     H82740   7.922   1.196   9.445 -1.7534 -0.4080  0.7501
  600MOL0     H82741   7.807   0.977   9.458  2.0467  2.1222  0.9001
  600MOL0     H82742   7.781   0.967   9.283 -4.5159 -1.3558  0.9410
  600MOL0     H82743   7.631   1.099   9.483 -1.7155 -3.8246 -1.5920
  600MOL0     H82744   7.664   1.218   9.358 -2.3173  0.3256  0.5764
  600MOL0     H82745   7.437   1.088   9.322 -1.1552  1.0786 -2.2197
  600MOL0     H82746   7.548   0.954   9.283 -2.8645 -0.2803  1.0205
  600MOL0     H82747   7.544   1.233   9.149 -1.1491 -0.3422  3.6898
  600MOL0     H82748   7.647   1.102   9.103 -0.5371 -1.5439 -3.0124
  600MOL0     H82749   7.394   0.883   9.070  3.5672  0.7074  0.8446
  600MOL0     H82750   7.092   0.959   8.840  0.1155 -0.7618 -1.4445
  600MOL0     H82751   7.180   0.818   8.898  4.3944 -0.9450 -0.9183
  600MOL0     H82752   7.231   0.991   8.653  0.5751  0.9751  0.7155
  600MOL0     H82753   7.340   0.849   8.707 -0.4420 -0.6157 -0.4590
  600MOL0     H82754   7.140   0.699   8.671 -2.7377  0.4680  1.4789
  600MOL0     H82755   7.043   0.833   8.633 -1.0236 -2.2307 -2.5774
  600MOL0     H82756   7.271   0.733   8.467  0.5984  0.0821  3.0964
  600MOL0     H82757   7.092   0.691   8.446 -0.1151  1.0861 -0.2512
  600MOL0     H82758   7.236   1.034   8.194 -0.6092  0.8938  0.1043
  600MOL0     H82759   7.093   1.098   7.913  1.5148  1.0493 -0.8020
  600MOL0     H82760   7.146   0.952   7.852 -1.8623 -0.7628  0.1476
  600MOL0     H82761   7.247   1.059   7.968  0.1295 -0.4946 -3.4692
  600MOL0     H82762   6.952   0.490   7.767  0.3057 -4.4719 -5.6625
  600MOL0     H82763   6.964   0.434   7.545 -0.1939 -0.6693  1.4556
  600MOL0     H82764   6.974   0.786   7.231 -0.6532 -0.3210 -0.8695
  600MOL0     H82765   7.092   0.650   7.214  0.5363 -0.0726  1.8535
  600MOL0     H82766   6.952   0.521   7.089  5.6263  1.5131 -1.7107
  600MOL0     H82767   6.804   0.628   7.124 -0.1024  2.6012  1.8070
  600MOL0     H82768   6.922   0.608   6.901 -1.0465  1.0246 -0.5503
  600MOL0     H82769   7.055   0.699   6.958  0.6339 -4.6935 -0.6805
  600MOL0     H82770   6.894   0.878   7.034 -2.0829 -2.2369  3.7973
  600MOL0     H82771   6.759   0.795   6.977 -0.4479  4.9769 -0.7590
  600MOL0     H82772   6.958   0.860   6.757 -0.7740 -0.2827 -1.7265
  600MOL0     H82773   6.798   0.803   6.746  0.3937  3.1018 -4.3116
  600MOL0     H82774   6.796   1.037   6.696  1.5703 -0.6983  0.1634
  600MOL0     H82775   6.874   1.076   6.851 -2.0053  1.1008  1.5021
  600MOL0     H82776   6.633   0.977   6.952 -3.7554  1.3371  0.3066
  600MOL0     H82777   6.586   0.981   6.775 -2.7066  2.3491 -0.1737
  600MOL0     H82778   6.613   1.234   6.786  0.1272  5.0512  3.7339
  600MOL0     H82779   6.659   1.214   6.948 -3.3731  1.9755  1.4357
  600MOL0     H82780   6.974   0.842   7.432  0.6419 -5.1148 -5.4063
  600MOL0     H82781   7.010   0.904   7.667 -0.1565 -0.2431 -0.4601
  600MOL0     H82782   6.795   0.791   8.151  1.3666 -2.9273 -0.7530
  600MOL0     H82783   6.903   0.819   8.369  1.5505  0.4041  0.4350
  600MOL0     H82784   8.307   0.982   9.103  1.8918 -3.7669 -0.6274
  600MOL0     H82785   8.497   0.860   8.988  0.3241 -0.2408  0.0535
  600MOL0     H82786   8.866   0.758   8.875  2.3691 -0.1300  1.8566
  600MOL0     H82787   9.036   0.633   8.715 -0.4866 -0.5231 -1.5794
  600MOL0     H82788   9.347   0.773   8.684  0.9701 -1.2680  1.1764
  600MOL0     H82789   9.278   0.620   8.657 -2.3558  0.0255  0.9658
  600MOL0     H82790   9.383   0.624   8.412  1.0444  0.5926 -1.0700
  600MOL0     H82791   9.492   0.628   8.556 -0.9517 -0.1465  2.4023
  600MOL0     H82792   9.389   0.851   8.378  1.7058 -2.0214 -1.3127
  600MOL0     H82793   9.459   0.888   8.533  1.3057 -0.1970  0.3959
  600MOL0     H82794   9.655   0.773   8.450 -2.1696  0.8639  2.1520
  600MOL0     H82795   9.605   0.919   8.357  1.1369 -0.1344  0.4703
  600MOL0     H82796   9.554   0.608   8.067 -0.6729 -0.5184  1.0824
  600MOL0     H82797   9.137   1.023   8.554 -3.6801 -0.6766 -2.6549
  600MOL0     H82798   9.067   1.220   8.806 -2.6533  1.7661  0.1507
  600MOL0     H82799   9.035   1.218   8.633 -5.4449  1.2273 -2.6527
  600MOL0     H82800   8.903   1.228   8.755 -1.2861 -2.1046 -1.8393
  601MOL0     O82801   9.321   0.065   4.087 -0.5797 -0.3249 -0.7339
  601MOL0     C82802   9.356   0.099   4.204 -0.7772 -0.0666 -0.1842
  601MOL0     O82803   9.317   0.221   4.263 -0.1702  0.2755 -0.1186
  601MOL0     C82804   9.218   0.307   4.209  0.5135 -0.1094 -0.4694
  601MOL0     C82805   9.170   0.398   4.301 -0.2401 -0.5943  0.7956
  601MOL0     C82806   9.075   0.491   4.262 -1.2518 -0.7913  0.1928
  601MOL0     C82807   9.027   0.494   4.131 -0.1057 -0.4068  0.0025
  601MOL0     O82808   8.935   0.598   4.099 -0.2187  1.2135 -0.1407
  601MOL0     C82809   8.815   0.609   4.176  1.0201 -0.0242  0.4329
  601MOL0     C82810   8.692   0.682   4.109 -0.8342 -0.2047  1.0672
  601MOL0     C82811   8.600   0.750   4.204  0.8880 -0.0387 -0.4005
  601MOL0     C82812   8.471   0.794   4.124  0.5152  0.6389 -0.1743
  601MOL0     C82813   8.366   0.865   4.208 -0.1977  0.1157  0.4714
  601MOL0     C82814   8.222   0.879   4.142 -0.1955  0.2566  0.0150
  601MOL0     C82815   8.111   0.914   4.240 -0.1798 -0.0828 -0.2935
  601MOL0     C82816   8.048   0.817   4.327 -0.1465  0.8964 -0.1588
  601MOL0     N82817   7.978   0.703   4.263  0.1408  1.0969  0.2052
  601MOL0     C82818   7.847   0.687   4.235 -0.5024 -0.4160  0.0706
  601MOL0     C82819   7.832   0.551   4.215 -1.2540 -0.8063  0.4729
  601MOL0     C82820   7.708   0.488   4.184 -0.0095  0.5255  1.0792
  601MOL0     C82821   7.609   0.511   4.297  0.4384  0.0793 -0.4032
  601MOL0     C82822   7.516   0.391   4.312 -0.3593 -0.9210  1.0267
  601MOL0     C82823   7.459   0.396   4.451  0.3238  0.5925 -0.1685
  601MOL0     O82824   7.553   0.350   4.544 -0.4495  0.6116  0.1846
  601MOL0     C82825   7.525   0.349   4.684 -0.6419 -0.4967 -0.7123
  601MOL0     C82826   7.610   0.275   4.761 -0.0579  0.3246 -0.3177
  601MOL0     C82827   7.590   0.254   4.904  0.7408  0.0533  0.3987
  601MOL0     C82828   7.672   0.165   4.982 -0.1398  0.4717 -0.2055
  601MOL0     C82829   7.484   0.333   4.966 -0.2943 -1.1660  0.3066
  601MOL0     C82830   7.443   0.332   5.113  0.8074  1.2931 -0.1177
  601MOL0     O82831   7.361   0.442   5.141  0.0124  0.0790  0.5842
  601MOL0     C82832   7.295   0.438   5.263  0.3021 -0.0127  0.5475
  601MOL0     C82833   7.364   0.421   5.382 -0.9084  0.9134  0.1154
  601MOL0     C82834   7.300   0.404   5.500 -0.1215  0.2752 -0.1368
  601MOL0     C82835   7.169   0.397   5.509  0.6637 -0.1909  0.1783
  601MOL0     O82836   7.115   0.368   5.634 -0.1152 -1.2112  0.2610
  601MOL0     C82837   6.983   0.420   5.653 -0.6932 -0.1944  0.7760
  601MOL0     C82838   6.933   0.396   5.791 -0.0696 -0.5735  0.1391
  601MOL0     C82839   6.939   0.247   5.848  0.5491 -0.1887  0.8816
  601MOL0     C82840   6.917   0.226   5.997 -0.5763 -0.0123  0.2504
  601MOL0     C82841   6.789   0.275   6.045  0.2435  0.3287 -0.0755
  601MOL0     C82842   6.785   0.276   6.199  0.5625 -0.0813 -0.1058
  601MOL0     C82843   6.841   0.150   6.275  0.1681 -0.5446  0.5647
  601MOL0     C82844   6.863   0.170   6.427 -1.2401 -0.9625  0.4310
  601MOL0    Cl82845   6.866   0.014   6.514 -0.0009  0.1262  0.4034
  601MOL0     C82846   7.101   0.428   5.394 -0.7885  1.2220  0.2012
  601MOL0     C82847   7.160   0.449   5.264 -0.0009  0.6233  0.2746
  601MOL0     O82848   7.461   0.243   5.199  0.3101 -0.5298 -0.0991
  601MOL0     C82849   7.393   0.392   4.882 -0.1372 -0.0613 -0.5358
  601MOL0     C82850   7.413   0.402   4.742 -0.4948 -0.0059 -0.3421
  601MOL0     N82851   7.953   0.488   4.243 -0.0896  0.4833 -0.1307
  601MOL0     N82852   8.041   0.580   4.256 -0.3610  0.1245  0.1851
  601MOL0     C82853   9.087   0.407   4.037 -0.4560  0.4864 -0.2006
  601MOL0     C82854   9.179   0.317   4.077  0.3351 -0.7724 -0.5416
  601MOL0     C82855   9.420  -0.006   4.285  0.6852 -0.4044 -0.7528
  601MOL0     C82856   9.424  -0.136   4.239 -0.7056  1.1731 -0.1402
  601MOL0     C82857   9.472  -0.244   4.307 -1.1503 -0.1511  0.4051
  601MOL0     C82858   9.538  -0.223   4.433 -0.5253  1.0210  1.1752
  601MOL0     O82859   9.585  -0.316   4.525 -0.5302  0.2069 -0.2981
  601MOL0     C82860   9.606  -0.455   4.491 -1.1695  0.2419  0.7761
  601MOL0     C82861   9.755  -0.493   4.482 -0.9226 -0.9376  0.4842
  601MOL0     C82862   9.826  -0.462   4.347 -0.7792 -1.0155  0.5143
  601MOL0     C82863   9.947  -0.552   4.323  0.3564  0.3912  0.4930
  601MOL0     C82864  10.016  -0.514   4.205 -0.0138 -0.0163 -0.2884
  601MOL0     C82865  10.078  -0.471   4.114 -0.3681 -0.7651 -0.5283
  601MOL0     C82866   9.547  -0.091   4.474  0.4495  0.5023 -0.1109
  601MOL0     C82867   9.490   0.021   4.407 -0.6602  0.2176 -0.0813
  601MOL0     C82868   9.523   0.161   4.449  0.1629  0.1261 -0.0185
  601MOL0     H82869   9.204   0.395   4.404  0.8236  4.0760  0.8149
  601MOL0     H82870   9.045   0.555   4.345  0.9142 -1.5406  1.6433
  601MOL0     H82871   8.836   0.666   4.267 -0.0807  0.8151  0.1775
  601MOL0     H82872   8.786   0.508   4.207  0.6930  0.5297  2.0397
  601MOL0     H82873   8.728   0.762   4.043  0.3491  2.0080  4.1627
  601MOL0     H82874   8.641   0.609   4.046 -0.2948  0.4949 -0.2192
  601MOL0     H82875   8.570   0.679   4.282 -0.1835 -0.5169 -1.2134
  601MOL0     H82876   8.645   0.829   4.264 -1.2683  1.0478 -0.1236
  601MOL0     H82877   8.499   0.874   4.055 -0.4407  0.5744 -0.6479
  601MOL0     H82878   8.423   0.710   4.074  2.3543 -1.4423  1.3261
  601MOL0     H82879   8.401   0.964   4.239  2.8956 -1.0048  0.9203
  601MOL0     H82880   8.354   0.799   4.294  2.1674 -1.9159 -0.6729
  601MOL0     H82881   8.234   0.951   4.060 -0.1964  2.6019  1.9327
  601MOL0     H82882   8.199   0.779   4.105  0.3623  0.6507 -1.4868
  601MOL0     H82883   8.033   0.963   4.181 -0.5607  1.9642  1.7670
  601MOL0     H82884   8.158   0.997   4.292  1.6412 -0.8175 -0.6788
  601MOL0     H82885   8.116   0.774   4.401  0.6058  1.7501 -0.3277
  601MOL0     H82886   7.983   0.878   4.391  1.1156  0.7257  1.3503
  601MOL0     H82887   7.766   0.760   4.237 -1.7167 -1.6789 -1.1176
  601MOL0     H82888   7.723   0.381   4.165  1.2293  0.5260  1.9316
  601MOL0     H82889   7.671   0.541   4.096  0.6147 -2.2725 -1.0244
  601MOL0     H82890   7.669   0.522   4.387 -0.7327 -2.9697  0.8775
  601MOL0     H82891   7.560   0.607   4.280 -2.1811 -0.5456  2.6354
  601MOL0     H82892   7.428   0.410   4.251  1.9194 -0.9251 -2.5304
  601MOL0     H82893   7.561   0.303   4.264 -2.5756 -1.1280 -0.7947
  601MOL0     H82894   7.425   0.499   4.468  2.0240  2.3943 -5.6084
  601MOL0     H82895   7.369   0.334   4.453  0.7387 -0.0345  2.3436
  601MOL0     H82896   7.691   0.232   4.703 -0.5254  0.0498 -0.7755
  601MOL0     H82897   7.739   0.114   4.912 -1.5088 -0.3303 -0.9890
  601MOL0     H82898   7.623   0.080   5.032 -0.0176  0.0582 -0.7759
  601MOL0     H82899   7.724   0.224   5.058 -2.6237  1.1695  1.0543
  601MOL0     H82900   7.471   0.439   5.375 -1.0842  1.5232 -1.4283
  601MOL0     H82901   7.357   0.414   5.592 -1.7621  2.8289  0.6996
  601MOL0     H82902   6.969   0.527   5.632  1.9810 -0.3502 -2.6081
  601MOL0     H82903   6.919   0.364   5.584 -2.1430  2.0920  0.1283
  601MOL0     H82904   6.996   0.456   5.858  2.2704 -3.3114  0.6014
  601MOL0     H82905   6.830   0.434   5.786 -0.0682 -0.7449 -1.8684
  601MOL0     H82906   7.035   0.203   5.820  0.0423 -3.3143  3.5011
  601MOL0     H82907   6.859   0.193   5.796  1.1911 -0.9702  0.6997
  601MOL0     H82908   6.991   0.280   6.056 -1.0925  0.9502  0.0385
  601MOL0     H82909   6.922   0.121   6.026  0.4472 -0.2971 -0.8657
  601MOL0     H82910   6.768   0.380   6.021  2.2579  0.5747 -0.9125
  601MOL0     H82911   6.704   0.218   6.006  1.4357 -2.4867  1.1573
  601MOL0     H82912   6.678   0.290   6.215  0.0911 -0.8476 -2.2558
  601MOL0     H82913   6.828   0.368   6.240  0.0391 -0.0997  0.5118
  601MOL0     H82914   6.937   0.122   6.232  0.0008  1.7096 -1.4999
  601MOL0     H82915   6.769   0.069   6.260 -0.2719 -0.0581  0.0076
  601MOL0     H82916   6.779   0.230   6.464  0.4779  1.7190  0.2466
  601MOL0     H82917   6.953   0.231   6.436 -0.8873 -0.7505 -2.9882
  601MOL0     H82918   6.993   0.416   5.396 -0.4532 -3.8015  0.7689
  601MOL0     H82919   7.101   0.470   5.176  0.4748  1.3642  0.1227
  601MOL0     H82920   7.297   0.426   4.921 -1.0013 -1.8026 -1.0160
  601MOL0     H82921   7.328   0.446   4.692 -0.3620 -0.5259 -1.0358
  601MOL0     H82922   9.042   0.406   3.938 -0.6358  1.0412 -0.1278
  601MOL0     H82923   9.219   0.250   4.002 -2.8183 -0.7322 -2.4326
  601MOL0     H82924   9.395  -0.155   4.136 -0.8605  0.3343  0.0521
  601MOL0     H82925   9.461  -0.341   4.258 -0.9431 -1.3553  2.5962
  601MOL0     H82926   9.560  -0.509   4.574 -1.1525 -0.5705  0.2722
  601MOL0     H82927   9.553  -0.479   4.399 -0.4751 -1.5784  0.8005
  601MOL0     H82928   9.759  -0.603   4.488  2.6863 -1.1674 -2.1773
  601MOL0     H82929   9.815  -0.446   4.561  2.2032 -1.2785 -1.4931
  601MOL0     H82930   9.754  -0.469   4.265  1.4063  0.4483 -1.6463
  601MOL0     H82931   9.870  -0.362   4.343  1.0412 -1.7549  0.8769
  601MOL0     H82932   9.911  -0.653   4.299  0.1532  1.0480 -2.3810
  601MOL0     H82933  10.009  -0.547   4.412  1.6597  2.1212 -0.4518
  601MOL0     H82934  10.120  -0.424   4.027  1.3654  0.6848  1.0250
  601MOL0     H82935   9.596  -0.058   4.566  0.0264  2.6158 -0.5766
  601MOL0     H82936   9.569   0.210   4.363  0.9395 -2.7003 -1.3184
  601MOL0     H82937   9.429   0.216   4.465 -0.1574  0.5883 -2.9251
  601MOL0     H82938   9.587   0.173   4.537 -0.3059 -0.3985  0.4076
  602MOL0     O82939   4.502   4.423   0.302  0.0837 -0.2386 -0.1453
  602MOL0     C82940   4.406   4.493   0.274 -0.5246 -1.3456  0.0043
  602MOL0     O82941   4.415   4.602   0.191  0.9746  0.0639  0.4361
  602MOL0     C82942   4.531   4.628   0.123  0.4699 -0.1015  0.5939
  602MOL0     C82943   4.543   4.766   0.088 -0.4993 -0.8035 -0.0413
  602MOL0     C82944   4.654   4.814   0.014 -0.0825 -0.2994 -0.9513
  602MOL0     C82945   4.756   4.723  -0.022 -0.4336 -0.5023  0.2377
  602MOL0     O82946   4.882   4.755  -0.084  0.4930 -0.0126  0.6329
  602MOL0     C82947   4.939   4.891  -0.062 -0.2156 -0.1140 -0.0745
  602MOL0     C82948   4.993   4.913   0.079 -0.7001 -0.0181 -0.6289
  602MOL0     C82949   5.071   5.041   0.100 -0.7872  0.7775  0.1646
  602MOL0     C82950   5.229   5.024   0.079  0.1345 -1.0207 -0.1000
  602MOL0     C82951   5.303   5.156   0.089  0.4727  0.2903 -0.5070
  602MOL0     C82952   5.347   5.200   0.239  0.6537  0.5256  0.4698
  602MOL0     C82953   5.452   5.097   0.303 -0.5369  0.8095 -0.5464
  602MOL0     C82954   5.493   5.126   0.452  0.1778 -1.0628  0.2462
  602MOL0     N82955   5.537   5.269   0.471 -0.3194 -0.1500 -0.0769
  602MOL0     C82956   5.653   5.322   0.436  0.1774  0.4856  0.4521
  602MOL0     C82957   5.667   5.444   0.483  0.5233  0.2384  0.0481
  602MOL0     C82958   5.786   5.537   0.459 -0.0344  0.4485 -0.3901
  602MOL0     C82959   5.775   5.684   0.509  0.0902  0.5637  0.6984
  602MOL0     C82960   5.905   5.754   0.482  0.1119 -1.0871  0.4601
  602MOL0     C82961   6.018   5.727   0.568 -0.0542  0.5786 -1.2970
  602MOL0     O82962   6.120   5.656   0.493  0.0837  0.5731 -1.0045
  602MOL0     C82963   6.235   5.728   0.476  0.1195  0.2998  0.2480
  602MOL0     C82964   6.234   5.839   0.399  0.6211 -0.3853  0.5789
  602MOL0     C82965   6.344   5.932   0.396 -0.6366  0.0867 -0.3419
  602MOL0     C82966   6.359   6.046   0.294 -0.0664  0.5593  0.0614
  602MOL0     C82967   6.442   5.911   0.500  0.5086 -0.8862 -0.4348
  602MOL0     C82968   6.555   6.000   0.534 -0.1809 -0.0652  0.6002
  602MOL0     O82969   6.657   5.942   0.596  0.0502 -1.3795 -0.5716
  602MOL0     C82970   6.781   6.016   0.609 -0.4872  0.0049 -0.1879
  602MOL0     C82971   6.819   6.069   0.741 -0.3733  1.1413 -0.3743
  602MOL0     C82972   6.946   6.131   0.772  0.4726  0.9269  0.2532
  602MOL0     C82973   7.039   6.147   0.661 -0.8145 -0.2292 -1.1296
  602MOL0     O82974   7.158   6.214   0.680 -0.8492 -0.4937 -0.3214
  602MOL0     C82975   7.233   6.189   0.800 -0.8153 -0.0736 -0.3821
  602MOL0     C82976   7.348   6.095   0.752  0.1974 -0.4077  1.0262
  602MOL0     C82977   7.306   5.951   0.713 -0.7209  0.1605 -0.1007
  602MOL0     C82978   7.424   5.853   0.712  0.4008  0.2020  0.1887
  602MOL0     C82979   7.529   5.882   0.607  0.0241 -0.2128 -0.4604
  602MOL0     C82980   7.643   5.774   0.623  0.4426  0.1370  0.9636
  602MOL0     C82981   7.740   5.767   0.506 -0.4875 -0.5330  0.3523
  602MOL0     C82982   7.817   5.645   0.559  0.7521  0.2939  0.9371
  602MOL0    Cl82983   7.962   5.635   0.459 -0.1631 -0.2271  0.2905
  602MOL0     C82984   7.000   6.091   0.537 -0.9310  0.1572  0.7453
  602MOL0     C82985   6.878   6.025   0.513  0.1038 -0.2639 -0.0583
  602MOL0     O82986   6.549   6.116   0.493  0.6239 -0.5183 -0.4305
  602MOL0     C82987   6.445   5.787   0.570 -0.0664 -0.2338  0.1228
  602MOL0     C82988   6.337   5.694   0.559  0.3114  0.4616 -0.2238
  602MOL0     N82989   5.554   5.467   0.554  1.0870 -0.3171  0.0338
  602MOL0     N82990   5.478   5.366   0.543  0.0885  0.0096  0.1402
  602MOL0     C82991   4.744   4.586   0.011 -0.7196  0.5820  0.1539
  602MOL0     C82992   4.629   4.540   0.076 -0.0018 -0.2175 -0.0430
  602MOL0     C82993   4.276   4.467   0.350  0.0803  0.3620  0.5142
  602MOL0     C82994   4.262   4.340   0.415  0.3288 -1.1334 -0.2953
  602MOL0     C82995   4.147   4.313   0.491 -0.2519  0.4722  1.0713
  602MOL0     C82996   4.044   4.401   0.501  0.7708 -0.2776  0.1929
  602MOL0     O82997   3.929   4.380   0.572  0.3463 -0.0045  0.0121
  602MOL0     C82998   3.894   4.246   0.611 -0.3905  0.1861  0.2591
  602MOL0     C82999   3.744   4.260   0.649  0.5511  0.4639  0.0656
  602MOL0     C83000   3.653   4.293   0.530 -0.5234 -0.9125 -0.9957
  602MOL0     C83001   3.511   4.312   0.555  0.4846  0.0786 -0.7444
  602MOL0     C83002   3.446   4.351   0.430 -0.3928  0.3339  0.6036
  602MOL0     C83003   3.393   4.396   0.341 -0.2807  0.4429  0.4872
  602MOL0     C83004   4.058   4.521   0.445  0.4917 -1.7922  0.5605
  602MOL0     C83005   4.171   4.555   0.362  0.3066 -0.8879 -0.5748
  602MOL0     C83006   4.179   4.695   0.302 -0.4347 -1.0566 -0.3834
  602MOL0     H83007   4.471   4.844   0.111  0.2363  0.0602 -0.6478
  602MOL0     H83008   4.672   4.921   0.012  1.6934 -0.3200  2.9589
  602MOL0     H83009   4.862   4.967  -0.082  1.1650  0.6963 -2.6857
  602MOL0     H83010   5.017   4.922  -0.131 -0.8433  0.6702 -0.4477
  602MOL0     H83011   4.918   4.910   0.159 -0.1140  0.8535 -0.0261
  602MOL0     H83012   5.059   4.825   0.077  1.5181  1.4736  1.2098
  602MOL0     H83013   5.028   5.119   0.038  0.8241  0.5526 -1.3000
  602MOL0     H83014   5.056   5.072   0.204  0.5152 -0.3476  0.7345
  602MOL0     H83015   5.262   4.948   0.150 -0.3487 -0.8828  0.2737
  602MOL0     H83016   5.239   4.985  -0.023 -0.2161 -0.8513 -0.1998
  602MOL0     H83017   5.245   5.239   0.047  0.6245  1.6601  1.8116
  602MOL0     H83018   5.391   5.129   0.030  1.5505 -1.1894  1.6265
  602MOL0     H83019   5.393   5.299   0.235 -1.4493  1.5022 -1.6591
  602MOL0     H83020   5.259   5.208   0.303 -0.5593 -1.7311 -0.7862
  602MOL0     H83021   5.543   5.099   0.242  0.1745  0.7740  0.4682
  602MOL0     H83022   5.405   4.998   0.301 -0.0260  0.5614 -0.4967
  602MOL0     H83023   5.413   5.096   0.520 -0.2118  1.8380  1.2360
  602MOL0     H83024   5.586   5.076   0.481  0.7853  0.8744  1.8969
  602MOL0     H83025   5.723   5.272   0.370 -3.0390 -0.6845 -2.3569
  602MOL0     H83026   5.814   5.536   0.353  1.0228  1.2130 -0.1394
  602MOL0     H83027   5.872   5.489   0.507  1.4707  1.0533 -2.3624
  602MOL0     H83028   5.695   5.731   0.450 -0.1410 -2.2226 -1.3996
  602MOL0     H83029   5.751   5.677   0.615 -0.9976 -1.4969  0.3707
  602MOL0     H83030   5.939   5.737   0.379  3.8853 -1.2265  1.5609
  602MOL0     H83031   5.888   5.862   0.473  4.1416 -0.4843 -3.3431
  602MOL0     H83032   6.047   5.819   0.619  0.3335 -0.8235  1.1993
  602MOL0     H83033   5.990   5.651   0.642  2.7482  1.6922  1.1189
  602MOL0     H83034   6.151   5.841   0.328  1.2963  0.9142 -0.2026
  602MOL0     H83035   6.348   6.141   0.347  0.4645  0.0639  1.0795
  602MOL0     H83036   6.273   6.043   0.226  3.1343  5.5015 -5.1817
  602MOL0     H83037   6.452   6.040   0.237 -0.8799  1.9261 -1.5058
  602MOL0     H83038   6.759   6.042   0.827  0.1928 -4.2486 -1.3142
  602MOL0     H83039   6.980   6.159   0.871  5.8115 -1.0698 -0.6652
  602MOL0     H83040   7.276   6.285   0.833  2.0444 -1.5190  0.4411
  602MOL0     H83041   7.170   6.137   0.872 -2.4159 -0.1538 -1.7743
  602MOL0     H83042   7.416   6.139   0.679 -2.6541 -0.3165 -1.8502
  602MOL0     H83043   7.389   6.073   0.850 -0.4887 -0.5473  1.2917
  602MOL0     H83044   7.259   5.942   0.614 -5.3887  2.0180  1.6342
  602MOL0     H83045   7.237   5.906   0.785  0.8490 -4.6290 -1.2172
  602MOL0     H83046   7.382   5.753   0.696  0.3225  0.1955  0.4177
  602MOL0     H83047   7.454   5.843   0.817 -2.7222 -0.1375  1.1504
  602MOL0     H83048   7.484   5.869   0.508 -0.3892  0.2624 -0.3436
  602MOL0     H83049   7.579   5.979   0.617 -1.9829  0.9939 -1.4326
  602MOL0     H83050   7.597   5.675   0.620 -1.9146  1.1918 -1.0507
  602MOL0     H83051   7.695   5.790   0.718  1.5569 -0.5551  0.4936
  602MOL0     H83052   7.812   5.848   0.492  0.0534 -1.4079 -2.7483
  602MOL0     H83053   7.680   5.769   0.414 -2.2856  1.7433  1.4443
  602MOL0     H83054   7.757   5.553   0.555 -2.0389  2.0316 -0.5834
  602MOL0     H83055   7.855   5.655   0.661 -0.8117 -1.1692  1.7179
  602MOL0     H83056   7.054   6.104   0.443 -2.2620 -0.7403 -0.1759
  602MOL0     H83057   6.850   6.000   0.411 -0.5077  0.6626 -0.1331
  602MOL0     H83058   6.519   5.765   0.646  2.4048 -0.0690 -2.0551
  602MOL0     H83059   6.332   5.603   0.619  0.7859 -1.2755 -2.6722
  602MOL0     H83060   4.830   4.523  -0.009  0.6796  1.7588  2.0810
  602MOL0     H83061   4.627   4.434   0.101 -0.0020 -0.6208 -1.6578
  602MOL0     H83062   4.343   4.269   0.405  1.0494 -0.3214 -0.3316
  602MOL0     H83063   4.124   4.218   0.537 -1.3624  0.7752  1.1793
  602MOL0     H83064   3.899   4.174   0.529  0.2429  0.0360  0.4308
  602MOL0     H83065   3.955   4.224   0.699  0.3500  0.3247 -0.2109
  602MOL0     H83066   3.726   4.332   0.730  0.4531 -1.4509  1.8498
  602MOL0     H83067   3.698   4.171   0.693  0.1626  0.3869 -0.4975
  602MOL0     H83068   3.698   4.378   0.477 -2.3165 -0.0799 -1.2416
  602MOL0     H83069   3.669   4.208   0.462 -1.9936 -2.9007  1.0185
  602MOL0     H83070   3.503   4.395   0.626  3.4973  0.8043 -1.1003
  602MOL0     H83071   3.464   4.218   0.584  2.1190 -0.2976  0.8711
  602MOL0     H83072   3.339   4.432   0.256  1.0233 -0.1752 -0.6333
  602MOL0     H83073   3.991   4.604   0.463  2.5794 -0.2810  1.7601
  602MOL0     H83074   4.084   4.739   0.334 -0.5000 -0.9865 -0.6730
  602MOL0     H83075   4.252   4.763   0.347 -2.2497 -0.0098  1.1436
  602MOL0     H83076   4.189   4.704   0.194  1.4625  2.3690 -0.0669
  603MOL0     O83077   6.774   7.422   5.482 -0.2163  0.1328 -0.5806
  603MOL0     C83078   6.727   7.488   5.570  0.7017  0.6986 -0.4343
  603MOL0     O83079   6.629   7.448   5.650 -0.8848 -0.1030  0.1887
  603MOL0     C83080   6.556   7.333   5.625  0.1474 -0.9061 -0.5792
  603MOL0     C83081   6.491   7.310   5.502 -0.7336  0.2888  0.3502
  603MOL0     C83082   6.421   7.187   5.474 -0.9498 -0.2450  0.1934
  603MOL0     C83083   6.419   7.091   5.572 -0.0967  0.3652  0.5141
  603MOL0     O83084   6.384   6.969   5.519  0.2331  1.0635 -0.0997
  603MOL0     C83085   6.302   6.890   5.614  0.6098  0.4014  0.2873
  603MOL0     C83086   6.301   6.746   5.577  0.1672 -0.9977 -0.0237
  603MOL0     C83087   6.263   6.724   5.424 -0.5419  0.5335 -0.3562
  603MOL0     C83088   6.264   6.578   5.374 -0.1823 -0.8330  0.5159
  603MOL0     C83089   6.149   6.497   5.417 -0.2420  0.5426  0.7624
  603MOL0     C83090   6.115   6.377   5.318  0.4039  1.1549 -0.2315
  603MOL0     C83091   6.222   6.271   5.334 -0.4083  0.7691 -0.8172
  603MOL0     C83092   6.307   6.262   5.211  0.3740  0.3490 -0.2462
  603MOL0     N83093   6.441   6.199   5.228 -0.0359 -0.5722 -0.4998
  603MOL0     C83094   6.462   6.061   5.252  0.2903 -0.1586 -0.7991
  603MOL0     C83095   6.590   6.056   5.287  0.9988 -0.6327 -0.2592
  603MOL0     C83096   6.659   5.934   5.345  2.2420 -0.3149  0.1129
  603MOL0     C83097   6.815   5.924   5.332 -1.0297 -0.1245 -0.9822
  603MOL0     C83098   6.885   5.938   5.190  0.3226  0.5248 -0.5312
  603MOL0     C83099   7.039   5.968   5.185  0.2447  0.2175  0.1050
  603MOL0     O83100   7.088   6.033   5.062  0.0107 -0.2703 -0.3267
  603MOL0     C83101   7.055   6.168   5.046  0.7571  0.3814  0.5942
  603MOL0     C83102   7.111   6.222   4.934 -0.2759 -0.3289 -0.4415
  603MOL0     C83103   7.096   6.350   4.882  0.2969  0.5354 -0.3555
  603MOL0     C83104   7.155   6.382   4.744  0.1363 -0.1788  0.1702
  603MOL0     C83105   7.020   6.439   4.963 -0.3418 -0.1864  0.6064
  603MOL0     C83106   6.994   6.583   4.927  1.0131  0.5899 -0.9116
  603MOL0     O83107   7.031   6.632   4.805  0.4324  0.2017  0.0421
  603MOL0     C83108   7.018   6.764   4.774 -0.2306  0.0311 -0.0888
  603MOL0     C83109   6.895   6.828   4.798 -0.4557 -1.0071 -0.2458
  603MOL0     C83110   6.883   6.957   4.750 -0.2366  1.0576 -0.0324
  603MOL0     C83111   6.991   7.034   4.707 -0.4896  0.1308 -0.8496
  603MOL0     O83112   6.975   7.168   4.670 -0.6712 -0.2711  0.9232
  603MOL0     C83113   7.095   7.257   4.647  0.7928  0.6162 -0.1253
  603MOL0     C83114   7.069   7.411   4.666 -0.5751 -0.6021  0.9415
  603MOL0     C83115   7.049   7.469   4.807 -0.4122 -0.2123 -0.0546
  603MOL0     C83116   7.172   7.486   4.888 -0.0226 -0.0540 -0.0823
  603MOL0     C83117   7.147   7.550   5.027 -0.5447  0.0316 -0.1996
  603MOL0     C83118   7.272   7.563   5.107  0.3481  0.3094  0.2628
  603MOL0     C83119   7.250   7.622   5.247  0.3411  0.0983  0.3206
  603MOL0     C83120   7.363   7.586   5.335  0.5534 -0.4133 -0.3177
  603MOL0    Cl83121   7.498   7.693   5.275 -0.1588 -0.4355  0.0168
  603MOL0     C83122   7.109   6.965   4.680  1.1689  0.1073 -1.2591
  603MOL0     C83123   7.126   6.833   4.721  0.1121  0.2481  0.6197
  603MOL0     O83124   6.955   6.650   5.022  0.4632 -0.1705 -0.5788
  603MOL0     C83125   6.967   6.389   5.087  0.4677 -0.2369 -0.8469
  603MOL0     C83126   6.991   6.255   5.131  2.0766 -0.8612 -0.2641
  603MOL0     N83127   6.645   6.185   5.282 -0.1375 -0.6886  0.1038
  603MOL0     N83128   6.557   6.281   5.251  0.3007  0.3770 -0.2887
  603MOL0     C83129   6.470   7.117   5.700 -0.8441 -0.2734  0.9914
  603MOL0     C83130   6.538   7.231   5.719 -0.0557 -1.2457  0.0721
  603MOL0     C83131   6.793   7.622   5.585 -0.2932 -0.5316 -0.1404
  603MOL0     C83132   6.915   7.647   5.518 -0.1440 -0.0395 -0.0142
  603MOL0     C83133   6.959   7.776   5.491  0.8990 -0.2202 -0.1405
  603MOL0     C83134   6.885   7.882   5.539  0.7214 -0.8712 -0.3726
  603MOL0     O83135   6.915   8.011   5.494  0.1453  0.2503 -0.0122
  603MOL0     C83136   7.045   8.048   5.437 -0.1933  0.4067  0.0122
  603MOL0     C83137   7.056   8.196   5.412 -0.7589  0.2896  0.5465
  603MOL0     C83138   7.009   8.292   5.524  0.5954  0.0102  0.5885
  603MOL0     C83139   7.070   8.257   5.657  0.0567 -0.7445  0.0789
  603MOL0     C83140   7.035   8.357   5.766 -0.8135  0.1771 -0.5260
  603MOL0     C83141   7.005   8.424   5.866  0.4871  0.0654 -0.6504
  603MOL0     C83142   6.775   7.863   5.613  0.0894  0.0111 -1.6263
  603MOL0     C83143   6.731   7.736   5.646 -0.0985  0.2299  0.5459
  603MOL0     C83144   6.613   7.709   5.745 -0.3084 -0.3022  0.1235
  603MOL0     H83145   6.490   7.378   5.418  1.9092 -1.1303 -0.9361
  603MOL0     H83146   6.391   7.160   5.373 -2.6198 -0.4533  0.7260
  603MOL0     H83147   6.206   6.943   5.617 -0.0164 -0.6758  0.0097
  603MOL0     H83148   6.336   6.898   5.718 -2.4945 -1.1906  1.5832
  603MOL0     H83149   6.400   6.702   5.589 -0.2690 -1.8272  0.5920
  603MOL0     H83150   6.220   6.708   5.639 -1.9875  0.3608 -1.8644
  603MOL0     H83151   6.159   6.756   5.409 -0.6972  0.5568  0.7007
  603MOL0     H83152   6.326   6.780   5.354  0.8322 -1.3278 -0.7021
  603MOL0     H83153   6.260   6.579   5.265  1.1631  0.3212  0.4479
  603MOL0     H83154   6.356   6.532   5.411 -0.4470 -0.2494  2.0136
  603MOL0     H83155   6.065   6.567   5.419 -2.1954 -1.6352  0.2342
  603MOL0     H83156   6.178   6.460   5.516  2.0172 -0.0020 -0.0564
  603MOL0     H83157   6.029   6.315   5.346  0.2647  1.5397  0.2014
  603MOL0     H83158   6.098   6.411   5.215 -2.0267 -0.3395 -0.4062
  603MOL0     H83159   6.168   6.176   5.347 -1.1722  1.3045  0.1175
  603MOL0     H83160   6.289   6.282   5.420  1.5254 -3.6960 -1.4962
  603MOL0     H83161   6.259   6.211   5.127  0.3103  0.6622 -0.4003
  603MOL0     H83162   6.330   6.362   5.173 -0.7802  1.7877  2.5657
  603MOL0     H83163   6.394   5.977   5.248  0.8306 -0.7455  1.2649
  603MOL0     H83164   6.613   5.847   5.298  2.9700 -1.0605  0.7531
  603MOL0     H83165   6.636   5.934   5.452  3.0201  1.5815  0.3158
  603MOL0     H83166   6.856   6.011   5.384  1.4525 -1.0549 -1.2370
  603MOL0     H83167   6.849   5.830   5.375 -1.7936  0.5796  1.2963
  603MOL0     H83168   6.863   5.850   5.128  2.6494  1.4057 -2.7704
  603MOL0     H83169   6.836   6.021   5.138 -0.2159  1.4468  1.3576
  603MOL0     H83170   7.079   6.024   5.270 -1.3515  0.2953  0.8390
  603MOL0     H83171   7.077   5.865   5.190 -0.3028  0.0446  0.8714
  603MOL0     H83172   7.151   6.149   4.864 -2.9402 -1.5850 -0.7803
  603MOL0     H83173   7.191   6.292   4.692  0.9658 -0.1008  0.5925
  603MOL0     H83174   7.231   6.460   4.753  1.5772 -1.1328 -2.4058
  603MOL0     H83175   7.079   6.428   4.680 -0.3204  2.3270  2.3767
  603MOL0     H83176   6.804   6.773   4.819 -0.5264 -0.8935 -0.2582
  603MOL0     H83177   6.791   7.014   4.756  1.2766  3.9025 -1.5377
  603MOL0     H83178   7.174   7.229   4.718  0.0740  0.2459  0.5429
  603MOL0     H83179   7.126   7.240   4.543 -0.0322 -1.6837 -0.0405
  603MOL0     H83180   7.153   7.469   4.626 -2.2589  0.1711 -1.7165
  603MOL0     H83181   6.979   7.435   4.610 -0.6986 -3.4999 -0.2782
  603MOL0     H83182   6.988   7.393   4.857  1.8120 -1.8980  0.2873
  603MOL0     H83183   6.985   7.557   4.794 -2.0927 -1.2430  0.8520
  603MOL0     H83184   7.241   7.560   4.846 -0.2121  1.0064  1.3998
  603MOL0     H83185   7.229   7.395   4.907 -2.4007 -1.7223 -0.4647
  603MOL0     H83186   7.093   7.644   5.010 -1.5007  0.2342  3.3157
  603MOL0     H83187   7.079   7.487   5.085 -2.1925  1.1992 -0.7681
  603MOL0     H83188   7.353   7.614   5.054  1.2574  0.1188  1.4503
  603MOL0     H83189   7.302   7.458   5.112 -3.6297 -1.4290 -4.2908
  603MOL0     H83190   7.160   7.575   5.288  2.3345 -1.3655  3.3818
  603MOL0     H83191   7.238   7.731   5.245 -1.4414 -0.0647 -0.1456
  603MOL0     H83192   7.376   7.477   5.339 -2.5196 -0.9320 -1.6303
  603MOL0     H83193   7.334   7.617   5.435  1.7798 -0.3014  0.0130
  603MOL0     H83194   7.200   7.011   4.645  2.5092 -3.8870 -3.6224
  603MOL0     H83195   7.228   6.797   4.709 -0.1367 -0.2695 -0.0410
  603MOL0     H83196   6.904   6.454   5.147  0.4476 -0.7867 -0.2621
  603MOL0     H83197   6.945   6.228   5.225  1.6162 -0.4686 -0.3755
  603MOL0     H83198   6.496   7.033   5.764 -0.6490  0.4020  1.8104
  603MOL0     H83199   6.612   7.231   5.798 -0.6278 -1.6642  0.6250
  603MOL0     H83200   6.970   7.563   5.478  1.5712  0.7978  0.4581
  603MOL0     H83201   7.047   7.797   5.430 -1.7472  0.9728 -3.9555
  603MOL0     H83202   7.124   8.022   5.507  0.1546  0.1317 -0.4756
  603MOL0     H83203   7.054   8.001   5.338  1.0950 -1.7571  1.0913
  603MOL0     H83204   7.016   8.207   5.311  0.5175 -0.4533 -0.0683
  603MOL0     H83205   7.160   8.216   5.385 -0.4259 -1.4997  0.3677
  603MOL0     H83206   7.040   8.394   5.498  1.1304 -0.5287 -0.9893
  603MOL0     H83207   6.900   8.290   5.526  0.4306  2.3989 -1.2676
  603MOL0     H83208   7.179   8.248   5.651  0.2317  1.1876 -0.3882
  603MOL0     H83209   7.025   8.164   5.691 -2.4973  0.3162 -0.1304
  603MOL0     H83210   6.964   8.467   5.955  1.3553  0.5541 -0.4742
  603MOL0     H83211   6.711   7.947   5.640  2.6052  1.5713 -0.1137
  603MOL0     H83212   6.581   7.808   5.779  1.2924  0.3002 -0.0304
  603MOL0     H83213   6.535   7.647   5.701 -2.1713  1.8656  0.1568
  603MOL0     H83214   6.636   7.656   5.838  0.7271  0.7181  0.4777
  604MOL0     O83215   4.608   6.088   3.118  1.0287 -0.4137  0.4363
  604MOL0     C83216   4.543   6.193   3.107  0.0381  0.3848  0.2343
  604MOL0     O83217   4.476   6.262   3.198  0.2720 -0.2059  0.4401
  604MOL0     C83218   4.512   6.225   3.328 -0.1207 -1.4648  0.5599
  604MOL0     C83219   4.447   6.122   3.383  1.2340 -0.6013 -0.5005
  604MOL0     C83220   4.468   6.083   3.521 -0.0271 -0.0134 -0.5654
  604MOL0     C83221   4.582   6.134   3.589  0.3594 -0.0705 -0.0280
  604MOL0     O83222   4.615   6.076   3.701 -0.3339  0.1171  0.3899
  604MOL0     C83223   4.753   6.057   3.746 -0.3246 -0.4190  0.3911
  604MOL0     C83224   4.748   6.047   3.902 -1.4978  0.5486  0.4451
  604MOL0     C83225   4.897   6.047   3.956  0.1924 -0.0624 -0.2752
  604MOL0     C83226   4.880   6.109   4.101 -0.2076  0.2730 -0.4591
  604MOL0     C83227   5.008   6.109   4.186 -0.4479  0.2659 -0.4809
  604MOL0     C83228   4.988   6.200   4.312 -0.3180  0.2313  0.3077
  604MOL0     C83229   5.087   6.145   4.423 -0.1489 -0.2220 -0.1676
  604MOL0     C83230   5.113   6.260   4.525  0.6411  0.0103 -0.1224
  604MOL0     N83231   5.182   6.223   4.646  1.0035 -0.4463 -0.9030
  604MOL0     C83232   5.130   6.142   4.750  0.2313  0.3521 -0.3512
  604MOL0     C83233   5.230   6.120   4.834 -0.0895 -0.0147  0.5033
  604MOL0     C83234   5.221   6.053   4.962 -0.3436  0.5536  0.0973
  604MOL0     C83235   5.220   6.158   5.079  0.9430  0.1269 -0.4215
  604MOL0     C83236   5.253   6.092   5.204 -1.0471 -0.1618 -0.5667
  604MOL0     C83237   5.306   6.201   5.314 -0.6952  0.3419 -0.3298
  604MOL0     O83238   5.203   6.292   5.370 -0.1945 -0.0654 -0.5975
  604MOL0     C83239   5.240   6.397   5.453 -0.2685 -0.0686  0.2619
  604MOL0     C83240   5.143   6.458   5.528 -0.0520  0.1080 -0.7191
  604MOL0     C83241   5.165   6.579   5.604 -0.0077  0.1519  0.0484
  604MOL0     C83242   5.051   6.633   5.672  0.5324 -0.3130 -0.6429
  604MOL0     C83243   5.292   6.637   5.604  0.0789  0.8181  0.5073
  604MOL0     C83244   5.328   6.758   5.681  0.7059 -0.4867 -0.2908
  604MOL0     O83245   5.442   6.751   5.747  0.2232  0.0412 -0.7925
  604MOL0     C83246   5.482   6.864   5.806 -0.7455  0.4810  0.8545
  604MOL0     C83247   5.493   6.995   5.743 -0.7834 -0.1468  0.0183
  604MOL0     C83248   5.539   7.116   5.806  0.6674 -0.8826 -0.1765
  604MOL0     C83249   5.583   7.099   5.939  0.3872  0.1758  0.1084
  604MOL0     O83250   5.618   7.209   6.003  0.0897 -0.2371 -0.0292
  604MOL0     C83251   5.718   7.206   6.114  0.4202 -0.0444 -0.7737
  604MOL0     C83252   5.769   7.349   6.138  0.6737  0.2234 -0.0196
  604MOL0     C83253   5.887   7.350   6.210 -0.0382  0.6481 -0.0050
  604MOL0     C83254   5.930   7.494   6.222  0.1491 -0.6107  0.1530
  604MOL0     C83255   6.065   7.497   6.311  1.1051  0.0656 -0.2474
  604MOL0     C83256   6.186   7.422   6.260  0.5948 -0.4928 -0.4014
  604MOL0     C83257   6.215   7.447   6.109  0.0357  0.3196 -0.2916
  604MOL0     C83258   6.365   7.443   6.070  0.0136  0.2255 -0.3392
  604MOL0    Cl83259   6.470   7.591   6.087 -0.3722  0.1070 -0.1037
  604MOL0     C83260   5.574   6.972   6.001  0.9218 -0.5236  0.0405
  604MOL0     C83261   5.515   6.859   5.941  0.2059  0.1178 -0.0924
  604MOL0     O83262   5.255   6.862   5.667  0.1561  0.6378 -0.9299
  604MOL0     C83263   5.394   6.572   5.542  0.2827  0.3502  0.1261
  604MOL0     C83264   5.370   6.449   5.475 -0.9917 -0.1621 -0.8986
  604MOL0     N83265   5.344   6.196   4.780  0.5588  0.4187 -1.0284
  604MOL0     N83266   5.312   6.245   4.665  0.3092 -0.3760 -0.3611
  604MOL0     C83267   4.651   6.238   3.530 -0.2277  0.1511  0.1142
  604MOL0     C83268   4.624   6.273   3.402  0.2781 -0.7412  0.6801
  604MOL0     C83269   4.555   6.246   2.969  0.6511 -1.0715  1.1355
  604MOL0     C83270   4.603   6.378   2.943  0.1595 -1.1927 -0.0385
  604MOL0     C83271   4.624   6.430   2.816 -0.3614 -0.7442  0.7932
  604MOL0     C83272   4.590   6.349   2.707  0.2544 -0.3955  0.1236
  604MOL0     O83273   4.603   6.418   2.592 -0.7310  0.4404 -0.7482
  604MOL0     C83274   4.562   6.361   2.472  0.3932 -0.1811  0.4108
  604MOL0     C83275   4.540   6.469   2.365  1.2247 -0.0619 -0.2880
  604MOL0     C83276   4.664   6.553   2.329  0.1394 -0.2380  0.4350
  604MOL0     C83277   4.620   6.654   2.224 -1.1486  0.8714 -1.6725
  604MOL0     C83278   4.721   6.763   2.222  0.2043 -0.0068 -0.2529
  604MOL0     C83279   4.801   6.853   2.227 -0.5527  0.1530 -0.4906
  604MOL0     C83280   4.542   6.218   2.732  0.5500 -0.1480 -0.1649
  604MOL0     C83281   4.524   6.166   2.863 -0.1553  0.4455  0.6646
  604MOL0     C83282   4.444   6.038   2.870 -0.4406  0.4124 -0.3948
  604MOL0     H83283   4.366   6.074   3.329  0.4860 -1.5223  1.3631
  604MOL0     H83284   4.418   5.997   3.564  1.3932 -0.8606 -0.5509
  604MOL0     H83285   4.822   6.138   3.723 -1.6158  1.2770  2.1565
  604MOL0     H83286   4.794   5.966   3.701 -1.1280 -0.7648  0.3559
  604MOL0     H83287   4.696   6.136   3.940 -1.8036  0.8030 -0.5415
  604MOL0     H83288   4.694   5.957   3.934  1.9530 -1.5620  0.8008
  604MOL0     H83289   4.959   5.957   3.953  3.7328  2.1675 -1.4422
  604MOL0     H83290   4.957   6.115   3.894 -0.0688 -0.2519 -0.7401
  604MOL0     H83291   4.836   6.208   4.089  3.1690  1.8180 -1.1212
  604MOL0     H83292   4.806   6.052   4.158  0.1006  2.7535  2.7042
  604MOL0     H83293   5.092   6.149   4.129 -0.9083  1.9974 -0.0060
  604MOL0     H83294   5.041   6.014   4.229  1.4989  1.4952  0.9609
  604MOL0     H83295   5.014   6.301   4.282  2.9250 -0.8987 -1.1395
  604MOL0     H83296   4.886   6.185   4.349  0.7942 -0.0210  3.5500
  604MOL0     H83297   5.186   6.126   4.381  1.0717  0.1642  2.3741
  604MOL0     H83298   5.051   6.051   4.467 -0.9023  1.1833  2.4066
  604MOL0     H83299   5.163   6.342   4.473 -1.7053  0.1064 -2.3917
  604MOL0     H83300   5.018   6.298   4.562  1.1073  1.1358 -0.0497
  604MOL0     H83301   5.026   6.112   4.755  0.4654 -0.2564  2.1757
  604MOL0     H83302   5.300   5.979   4.968 -3.3826 -2.9586  0.0724
  604MOL0     H83303   5.135   5.986   4.955  1.0930 -1.1725 -3.0113
  604MOL0     H83304   5.295   6.236   5.062 -0.6683  2.0803  1.0766
  604MOL0     H83305   5.126   6.213   5.074  0.0029 -1.5331 -2.2983
  604MOL0     H83306   5.167   6.037   5.242 -2.1318  3.6341  3.2843
  604MOL0     H83307   5.340   6.027   5.192  0.0452  0.8946  1.2163
  604MOL0     H83308   5.346   6.141   5.397  0.2016 -2.9148 -2.8813
  604MOL0     H83309   5.377   6.272   5.271 -0.4900  0.9265  0.9441
  604MOL0     H83310   5.043   6.416   5.520 -0.0511  0.2467 -1.5517
  604MOL0     H83311   5.018   6.731   5.636  1.3965  0.0355 -0.5251
  604MOL0     H83312   5.086   6.644   5.775  1.0854 -1.4596 -0.6942
  604MOL0     H83313   4.980   6.551   5.680  0.5846 -0.3673 -0.7298
  604MOL0     H83314   5.460   7.019   5.643  1.1057  1.7001 -0.2445
  604MOL0     H83315   5.550   7.211   5.755  0.2021 -0.6565  0.1358
  604MOL0     H83316   5.664   7.158   6.196 -0.4848  0.8008 -0.8548
  604MOL0     H83317   5.790   7.130   6.081 -1.5768 -1.7909 -1.3247
  604MOL0     H83318   5.783   7.397   6.040  2.0142  0.3330  0.2071
  604MOL0     H83319   5.692   7.411   6.186  0.8281 -0.3948  1.0599
  604MOL0     H83320   5.964   7.288   6.165  1.5011  1.5931  1.2266
  604MOL0     H83321   5.873   7.310   6.311  1.3201  0.3105  0.0639
  604MOL0     H83322   5.853   7.540   6.283 -1.4422 -2.8435 -0.0509
  604MOL0     H83323   5.933   7.550   6.128 -1.6354  0.4451  0.6704
  604MOL0     H83324   6.093   7.603   6.321  3.0580 -0.5125  0.8510
  604MOL0     H83325   6.029   7.469   6.410 -0.1604 -3.2785 -1.5274
  604MOL0     H83326   6.170   7.314   6.275 -1.6620  0.0955  1.9896
  604MOL0     H83327   6.258   7.451   6.337 -3.6023  1.2418  3.2867
  604MOL0     H83328   6.180   7.546   6.078 -1.0643  0.3084  0.8368
  604MOL0     H83329   6.154   7.381   6.046 -0.8995 -0.4453  1.3617
  604MOL0     H83330   6.369   7.409   5.966  0.2782  0.4876 -0.4165
  604MOL0     H83331   6.407   7.359   6.127 -0.1409  0.9328  0.8530
  604MOL0     H83332   5.605   6.970   6.104  1.5562  2.3722 -0.0290
  604MOL0     H83333   5.512   6.775   6.010 -1.5344 -0.2695 -0.5816
  604MOL0     H83334   5.498   6.593   5.567  0.1645  0.8804  0.1713
  604MOL0     H83335   5.461   6.397   5.447 -0.7688  0.8373 -2.1275
  604MOL0     H83336   4.735   6.276   3.586 -0.5503  1.4733 -0.2692
  604MOL0     H83337   4.696   6.344   3.364 -1.4876  0.8513  0.1482
  604MOL0     H83338   4.645   6.445   3.018  0.7252 -1.8269  0.2264
  604MOL0     H83339   4.668   6.529   2.804 -2.4680  0.0949 -0.7724
  604MOL0     H83340   4.639   6.289   2.442  0.0828  0.3162 -1.7514
  604MOL0     H83341   4.463   6.314   2.484  0.3463 -0.6278 -1.3979
  604MOL0     H83342   4.468   6.535   2.415 -1.3428 -2.2351 -0.8974
  604MOL0     H83343   4.507   6.421   2.272 -1.0860  2.0125 -0.6736
  604MOL0     H83344   4.691   6.611   2.417  2.2077 -0.2434 -0.1367
  604MOL0     H83345   4.745   6.490   2.291 -3.3505 -3.9296 -1.8275
  604MOL0     H83346   4.520   6.695   2.242 -0.8447  0.9260  0.1001
  604MOL0     H83347   4.621   6.600   2.129  3.0487 -2.5498 -0.0249
  604MOL0     H83348   4.871   6.925   2.263  2.0303 -2.3960 -0.0101
  604MOL0     H83349   4.502   6.152   2.656 -0.0894  0.0091  0.0316
  604MOL0     H83350   4.372   6.041   2.952  1.8628 -2.8485  1.9847
  604MOL0     H83351   4.405   6.006   2.773  0.1114  0.3183 -0.5877
  604MOL0     H83352   4.517   5.964   2.903  1.2177  2.2843  0.3888
  605MOL0     O83353   5.743   3.521   7.238 -0.7493 -0.4019  0.1434
  605MOL0     C83354   5.850   3.588   7.234  0.5799 -0.2871  0.1363
  605MOL0     O83355   5.963   3.562   7.149 -0.0064 -0.3206 -0.5239
  605MOL0     C83356   5.960   3.454   7.068 -0.6272 -0.6044 -0.6678
  605MOL0     C83357   5.928   3.325   7.102  1.0651  0.1558 -0.0663
  605MOL0     C83358   5.926   3.215   7.020 -0.2467 -0.1738 -0.2336
  605MOL0     C83359   5.949   3.243   6.889 -0.6214  0.2343 -0.0844
  605MOL0     O83360   5.965   3.139   6.805 -0.9134 -1.0424  0.2132
  605MOL0     C83361   5.860   3.122   6.719 -0.7799 -0.0607  0.1408
  605MOL0     C83362   5.854   3.217   6.600  0.0143 -0.0700 -0.4986
  605MOL0     C83363   5.768   3.153   6.483 -0.5898 -0.0503  0.3984
  605MOL0     C83364   5.753   3.266   6.378 -0.0096 -0.3689 -0.2012
  605MOL0     C83365   5.654   3.222   6.264 -0.8389 -0.4790  0.1355
  605MOL0     C83366   5.677   3.318   6.145 -0.1441  0.1927 -0.2481
  605MOL0     C83367   5.618   3.256   6.018 -0.1980 -0.7211 -0.4177
  605MOL0     C83368   5.693   3.143   5.958  0.0817 -0.6540  0.3023
  605MOL0     N83369   5.646   3.099   5.822  0.5135 -0.5675  0.0203
  605MOL0     C83370   5.649   2.968   5.781 -0.3754  0.2301  0.0104
  605MOL0     C83371   5.650   2.973   5.648 -0.4622 -0.0096 -0.4992
  605MOL0     C83372   5.655   2.846   5.563 -0.5194  0.3649  0.1154
  605MOL0     C83373   5.539   2.836   5.465  0.0677  0.1665  0.4935
  605MOL0     C83374   5.396   2.803   5.527 -1.3479 -0.0072  0.1709
  605MOL0     C83375   5.292   2.803   5.422  0.1074  0.2256  0.0191
  605MOL0     O83376   5.282   2.668   5.370  0.9847  0.4994 -0.0527
  605MOL0     C83377   5.182   2.630   5.279  0.9470  0.1042 -0.6046
  605MOL0     C83378   5.163   2.500   5.256  0.4804 -0.7324 -0.4209
  605MOL0     C83379   5.059   2.448   5.183 -0.0798  1.4738 -0.4678
  605MOL0     C83380   5.053   2.296   5.173 -0.3293 -0.6054  0.4866
  605MOL0     C83381   4.976   2.537   5.114 -0.2472  0.4591 -0.3715
  605MOL0     C83382   4.872   2.494   5.017 -0.5907  0.1220  0.1240
  605MOL0     O83383   4.848   2.583   4.907  0.8754 -0.1445 -0.6691
  605MOL0     C83384   4.762   2.527   4.816  0.1305 -0.4386  0.7410
  605MOL0     C83385   4.625   2.559   4.834  0.4320  0.2804  0.0811
  605MOL0     C83386   4.525   2.507   4.753 -0.0735  1.1078 -0.5529
  605MOL0     C83387   4.559   2.412   4.649  0.5739  0.5853 -0.5160
  605MOL0     O83388   4.456   2.391   4.563 -0.8333 -0.1879  0.1173
  605MOL0     C83389   4.350   2.301   4.607  0.1361  0.3849 -0.7986
  605MOL0     C83390   4.254   2.287   4.491  0.0315  0.4622  0.2923
  605MOL0     C83391   4.122   2.366   4.491  0.3023 -0.4780  0.3615
  605MOL0     C83392   4.147   2.518   4.499 -0.1603 -1.2460 -0.0395
  605MOL0     C83393   4.020   2.602   4.517  0.8353 -0.0047 -0.0618
  605MOL0     C83394   3.944   2.582   4.651 -0.0965 -0.1564 -0.3945
  605MOL0     C83395   4.042   2.660   4.751 -0.6868 -0.3352 -0.6640
  605MOL0     C83396   3.986   2.639   4.886 -0.0665 -0.8896  0.5803
  605MOL0    Cl83397   3.985   2.474   4.936  0.4726 -0.6222 -0.1879
  605MOL0     C83398   4.695   2.381   4.629 -0.6093  0.1168 -0.3602
  605MOL0     C83399   4.790   2.438   4.714  0.7542  0.0903  0.6805
  605MOL0     O83400   4.797   2.402   5.043 -0.5532 -0.0499  0.0378
  605MOL0     C83401   4.999   2.677   5.125  0.2909  0.0976  0.2535
  605MOL0     C83402   5.096   2.718   5.216  0.5662 -0.4126 -0.1421
  605MOL0     N83403   5.633   3.107   5.608  0.2950  0.8067 -0.2218
  605MOL0     N83404   5.620   3.177   5.713  0.4311  0.0903  0.2662
  605MOL0     C83405   5.998   3.370   6.846  0.5897 -0.5447 -0.4689
  605MOL0     C83406   6.012   3.476   6.937 -0.1954 -0.6304 -0.3185
  605MOL0     C83407   5.823   3.734   7.298 -0.0797  0.0768  0.0952
  605MOL0     C83408   5.699   3.752   7.366  0.6570 -0.1908 -0.6967
  605MOL0     C83409   5.663   3.875   7.423 -0.3219  0.4725 -0.3173
  605MOL0     C83410   5.763   3.985   7.412  0.3370 -0.4103 -0.1776
  605MOL0     O83411   5.740   4.115   7.459  0.5883 -0.5016 -0.1154
  605MOL0     C83412   5.618   4.134   7.527  0.1296 -0.6679 -0.5653
  605MOL0     C83413   5.631   4.276   7.598 -0.1153 -0.3886 -0.6455
  605MOL0     C83414   5.636   4.399   7.500  0.3601 -0.4124  0.1304
  605MOL0     C83415   5.621   4.526   7.587 -0.6677 -0.3116  0.6920
  605MOL0     C83416   5.595   4.646   7.501  0.1510 -0.5381 -1.0709
  605MOL0     C83417   5.571   4.747   7.432 -0.7373 -0.4983 -1.0883
  605MOL0     C83418   5.879   3.968   7.344  0.6001 -0.1000 -0.1231
  605MOL0     C83419   5.914   3.846   7.287  0.0707 -0.4745 -0.1832
  605MOL0     C83420   6.045   3.842   7.212  0.5108 -0.2451  0.4553
  605MOL0     H83421   5.932   3.304   7.209  1.2055 -1.1621 -0.3200
  605MOL0     H83422   5.907   3.119   7.066  1.5889 -0.1880  0.5927
  605MOL0     H83423   5.767   3.106   6.775  0.0895  2.6271  2.6056
  605MOL0     H83424   5.889   3.032   6.664  2.4250  1.5115 -0.9362
  605MOL0     H83425   5.803   3.307   6.636  1.8663  0.0545  2.0448
  605MOL0     H83426   5.953   3.250   6.566  0.7867 -1.0660  0.7091
  605MOL0     H83427   5.811   3.060   6.446 -0.2212  0.4976 -0.6077
  605MOL0     H83428   5.666   3.132   6.517 -0.6781 -2.3393 -1.0712
  605MOL0     H83429   5.703   3.351   6.426 -0.0946 -1.1598  1.1864
  605MOL0     H83430   5.853   3.291   6.342 -0.3674 -0.9983 -1.7237
  605MOL0     H83431   5.553   3.207   6.303 -0.7584 -1.5941 -0.0494
  605MOL0     H83432   5.686   3.122   6.235 -1.1093 -0.8256  0.9949
  605MOL0     H83433   5.639   3.420   6.152  0.9108  0.5541  0.5979
  605MOL0     H83434   5.786   3.327   6.138 -0.1215  0.5807  0.4825
  605MOL0     H83435   5.626   3.345   5.954  1.2168 -2.2214 -2.4586
  605MOL0     H83436   5.512   3.234   6.035  0.1486 -1.7923  0.5104
  605MOL0     H83437   5.800   3.165   5.954 -0.1513  0.4391 -0.1209
  605MOL0     H83438   5.694   3.060   6.031 -0.7181  2.0047  3.5921
  605MOL0     H83439   5.665   2.882   5.846 -0.3509  1.3870  1.5911
  605MOL0     H83440   5.642   2.758   5.626 -2.1182 -1.4593 -2.5340
  605MOL0     H83441   5.750   2.841   5.508 -2.4555  1.1798 -3.6654
  605MOL0     H83442   5.528   2.936   5.424 -1.4290  0.9775  2.6900
  605MOL0     H83443   5.575   2.762   5.393 -0.5819 -1.3596  1.6731
  605MOL0     H83444   5.418   2.708   5.578 -0.8822 -0.3573 -0.6488
  605MOL0     H83445   5.359   2.864   5.609 -0.6307 -1.2667  1.4799
  605MOL0     H83446   5.195   2.829   5.465 -0.4940  0.2532 -1.2971
  605MOL0     H83447   5.316   2.880   5.348 -0.6935 -0.0666 -0.5599
  605MOL0     H83448   5.223   2.434   5.317  3.6558  4.8887  3.3995
  605MOL0     H83449   5.156   2.259   5.178  1.0582  2.8153  0.1772
  605MOL0     H83450   5.014   2.281   5.072  2.2127 -0.6695 -0.5750
  605MOL0     H83451   4.986   2.243   5.241 -1.4378  1.2078  0.8634
  605MOL0     H83452   4.604   2.623   4.920  0.7162  0.2507  0.1725
  605MOL0     H83453   4.422   2.539   4.763 -0.8015 -0.9820 -0.8957
  605MOL0     H83454   4.395   2.204   4.627 -1.6696 -0.2655  0.4013
  605MOL0     H83455   4.294   2.344   4.690 -0.5592  1.7457 -1.9235
  605MOL0     H83456   4.300   2.306   4.394  1.3584  2.6427  1.2688
  605MOL0     H83457   4.227   2.182   4.500  1.6374  0.1462  2.3399
  605MOL0     H83458   4.071   2.337   4.583 -1.1747 -1.7882 -0.8028
  605MOL0     H83459   4.058   2.333   4.409 -0.0039 -1.9884  1.1882
  605MOL0     H83460   4.197   2.557   4.410 -2.8808  1.2493 -0.6384
  605MOL0     H83461   4.210   2.536   4.587 -0.6973  1.1242 -0.0601
  605MOL0     H83462   4.054   2.706   4.519 -0.8281  0.5486  0.6718
  605MOL0     H83463   3.948   2.595   4.435  1.5494  0.0421 -0.7090
  605MOL0     H83464   3.933   2.476   4.675  0.2404  0.2805  1.8661
  605MOL0     H83465   3.849   2.638   4.652  1.1031  1.9900  0.6567
  605MOL0     H83466   4.040   2.768   4.735 -3.6740 -0.5153 -2.4482
  605MOL0     H83467   4.138   2.609   4.757 -1.2759 -1.5405 -0.9822
  605MOL0     H83468   3.884   2.678   4.884  0.4691  0.9496 -4.5150
  605MOL0     H83469   4.059   2.694   4.946  1.8727  0.0634 -2.4262
  605MOL0     H83470   4.718   2.319   4.543  0.3751 -0.0172 -0.0181
  605MOL0     H83471   4.897   2.422   4.723  0.6233  0.5487  5.9785
  605MOL0     H83472   4.946   2.749   5.063 -0.3547  1.5564  2.3770
  605MOL0     H83473   5.101   2.826   5.228 -0.7155 -0.4152  0.5805
  605MOL0     H83474   6.000   3.383   6.738  0.7919 -2.2640 -0.6962
  605MOL0     H83475   6.034   3.577   6.905 -1.6338  0.2988  1.4280
  605MOL0     H83476   5.626   3.676   7.391  0.5607  0.2473  0.4058
  605MOL0     H83477   5.571   3.899   7.475  0.2225  0.1015  0.8602
  605MOL0     H83478   5.539   4.128   7.451 -0.9537  0.4753  0.4244
  605MOL0     H83479   5.612   4.053   7.600  1.1500 -1.0397 -0.8795
  605MOL0     H83480   5.722   4.264   7.658  0.5689 -1.0639 -1.7647
  605MOL0     H83481   5.537   4.295   7.650 -0.1537  4.2491 -1.9005
  605MOL0     H83482   5.733   4.402   7.449  1.1491  2.0381  1.5892
  605MOL0     H83483   5.554   4.395   7.428 -2.0489  2.1915  2.4951
  605MOL0     H83484   5.699   4.545   7.662  2.7251  2.5578 -3.0819
  605MOL0     H83485   5.535   4.497   7.647  1.0281 -3.1249  1.9688
  605MOL0     H83486   5.541   4.832   7.375 -2.0070 -1.3809 -1.7860
  605MOL0     H83487   5.959   4.042   7.349  1.9633 -1.4160 -1.2556
  605MOL0     H83488   6.131   3.817   7.274  0.5501  2.0856  1.4396
  605MOL0     H83489   6.040   3.781   7.122 -0.1899  3.1490 -2.0281
  605MOL0     H83490   6.068   3.946   7.186 -1.1214 -0.4583 -2.2203
  606MOL0     O83491   0.852   4.101   5.764  0.2636 -0.3178 -0.2825
  606MOL0     C83492   0.952   4.132   5.823 -0.3589  0.3703  0.7886
  606MOL0     O83493   1.076   4.085   5.788  0.4716  0.8139 -0.0235
  606MOL0     C83494   1.100   3.961   5.722  0.0783 -0.1619 -0.4184
  606MOL0     C83495   1.021   3.845   5.745  0.0934 -0.0596  1.3139
  606MOL0     C83496   1.041   3.736   5.652  0.5451 -0.4411  0.1171
  606MOL0     C83497   1.133   3.737   5.550  0.8078 -0.5245  1.5386
  606MOL0     O83498   1.142   3.629   5.463  0.0622  0.0046  0.1915
  606MOL0     C83499   1.153   3.664   5.326 -0.0953  0.6123 -0.0012
  606MOL0     C83500   1.114   3.544   5.239 -0.1105  0.5246  0.4968
  606MOL0     C83501   0.964   3.522   5.240  0.6147  1.5924 -0.1172
  606MOL0     C83502   0.920   3.418   5.346 -0.8100  0.8686  0.1121
  606MOL0     C83503   0.780   3.379   5.331  0.8642 -0.1517  0.0253
  606MOL0     C83504   0.735   3.283   5.446 -0.0849 -0.3661 -0.8276
  606MOL0     C83505   0.599   3.334   5.505 -0.1459  0.6885  0.3021
  606MOL0     C83506   0.484   3.337   5.400 -0.2833 -0.6832 -0.2325
  606MOL0     N83507   0.463   3.209   5.331  0.0155 -0.4037 -0.2512
  606MOL0     C83508   0.507   3.176   5.207  0.5622 -0.0507  0.7631
  606MOL0     C83509   0.469   3.046   5.178  0.0597  0.4106  1.1208
  606MOL0     C83510   0.485   2.967   5.042 -0.0310 -1.2992 -0.3134
  606MOL0     C83511   0.488   2.815   5.066 -0.0765  0.6993  0.1365
  606MOL0     C83512   0.602   2.771   5.147  0.1285  0.0683 -0.6469
  606MOL0     C83513   0.598   2.622   5.184 -1.1198 -0.6085  0.0258
  606MOL0     O83514   0.658   2.539   5.085  0.6844 -0.1396  0.4122
  606MOL0     C83515   0.668   2.407   5.114  0.3655  0.2224 -0.7995
  606MOL0     C83516   0.579   2.322   5.170 -0.0882  0.6374 -0.0501
  606MOL0     C83517   0.599   2.182   5.210 -0.0079 -0.1895 -0.2075
  606MOL0     C83518   0.482   2.117   5.286 -0.8019 -0.6718 -0.1308
  606MOL0     C83519   0.723   2.121   5.158  0.1162 -1.1675 -0.3435
  606MOL0     C83520   0.761   1.987   5.196  0.1460 -0.2153  0.0806
  606MOL0     O83521   0.743   1.956   5.329 -0.3636 -0.3049  0.5349
  606MOL0     C83522   0.710   1.824   5.359 -0.6563  0.6136 -0.4760
  606MOL0     C83523   0.700   1.804   5.497  0.9512  0.1040 -0.0865
  606MOL0     C83524   0.678   1.680   5.547 -0.4791  0.2543 -0.1006
  606MOL0     C83525   0.663   1.571   5.470  1.2336  0.9826 -0.2487
  606MOL0     O83526   0.642   1.446   5.527 -0.4688 -0.6378  0.2888
  606MOL0     C83527   0.603   1.332   5.456  0.2617  0.2702 -0.5839
  606MOL0     C83528   0.598   1.209   5.541  0.8107  0.1992  0.3447
  606MOL0     C83529   0.725   1.162   5.598 -0.5412  0.0680 -0.4660
  606MOL0     C83530   0.704   1.067   5.721  0.2621  0.0524 -0.2707
  606MOL0     C83531   0.828   1.034   5.803  0.5139  0.8312  0.0310
  606MOL0     C83532   0.782   0.993   5.941 -0.5963  0.5147  0.3297
  606MOL0     C83533   0.903   0.924   6.013  0.2912  0.1870  0.4340
  606MOL0     C83534   0.889   0.933   6.163  0.2901  0.5705 -0.2096
  606MOL0    Cl83535   0.750   0.853   6.236 -0.2595  0.3904 -0.4064
  606MOL0     C83536   0.676   1.589   5.334 -0.3409  1.1162 -0.0384
  606MOL0     C83537   0.698   1.712   5.276 -0.0232  1.0400 -0.4278
  606MOL0     O83538   0.798   1.915   5.105  0.3085  0.1651 -0.0821
  606MOL0     C83539   0.801   2.208   5.069  0.8706  0.0322 -1.0922
  606MOL0     C83540   0.782   2.350   5.061  0.6099  1.0455  0.6641
  606MOL0     N83541   0.391   3.004   5.291 -0.4669  0.1740  0.2888
  606MOL0     N83542   0.397   3.097   5.375  0.4051  0.2418 -0.3800
  606MOL0     C83543   1.207   3.852   5.529 -0.2872 -0.1500 -0.3074
  606MOL0     C83544   1.200   3.956   5.626  0.4852  0.2567 -0.4163
  606MOL0     C83545   0.943   4.198   5.958 -0.3897 -0.0300  0.0650
  606MOL0     C83546   1.039   4.152   6.054 -0.5898  0.6394 -0.2601
  606MOL0     C83547   1.044   4.210   6.188 -0.1225  0.3128 -0.5638
  606MOL0     C83548   0.956   4.320   6.204  0.3701  0.1646 -0.3292
  606MOL0     O83549   0.974   4.397   6.320 -0.6238 -0.3449  0.0616
  606MOL0     C83550   0.857   4.444   6.387  0.4747 -0.3306  0.6029
  606MOL0     C83551   0.785   4.325   6.461  0.5846  0.7279 -0.2496
  606MOL0     C83552   0.876   4.266   6.566  0.2897  0.8112 -0.2280
  606MOL0     C83553   0.824   4.142   6.629  0.3634  0.0312  0.7603
  606MOL0     C83554   0.913   4.081   6.730  0.3131  0.3525 -0.6610
  606MOL0     C83555   0.982   4.015   6.802  0.5223  0.3566 -1.1275
  606MOL0     C83556   0.872   4.370   6.111  0.1624 -0.5874  1.3007
  606MOL0     C83557   0.877   4.310   5.978  0.0028 -0.0051 -0.8475
  606MOL0     C83558   0.806   4.374   5.869 -0.1298 -0.5343 -0.4782
  606MOL0     H83559   0.939   3.836   5.816 -1.4731  5.1354  0.5852
  606MOL0     H83560   0.971   3.656   5.674  0.2081  0.0029  0.6847
  606MOL0     H83561   1.253   3.690   5.291  0.0577  0.0305 -0.0052
  606MOL0     H83562   1.092   3.749   5.292  0.1138 -0.2110 -2.6641
  606MOL0     H83563   1.143   3.553   5.134  0.6178 -2.6630  0.3357
  606MOL0     H83564   1.167   3.456   5.276 -1.9143  0.5229  3.3962
  606MOL0     H83565   0.906   3.614   5.255 -0.5622  1.0118 -0.9751
  606MOL0     H83566   0.936   3.474   5.146 -1.3140 -1.3864  1.7950
  606MOL0     H83567   0.984   3.330   5.333  1.9966  2.9814 -1.4504
  606MOL0     H83568   0.942   3.464   5.443  3.5391  1.5839 -0.9930
  606MOL0     H83569   0.770   3.318   5.240  3.9001  0.1927 -0.6612
  606MOL0     H83570   0.710   3.461   5.312 -0.8329 -1.6709 -0.6005
  606MOL0     H83571   0.728   3.180   5.410 -1.7338 -0.6939  0.3342
  606MOL0     H83572   0.812   3.280   5.524 -0.9522  0.2552  0.0682
  606MOL0     H83573   0.605   3.436   5.543  2.4069 -0.3687  3.2066
  606MOL0     H83574   0.569   3.270   5.589 -1.2225 -1.6129 -1.7071
  606MOL0     H83575   0.396   3.365   5.458  0.9190  1.2405  0.7699
  606MOL0     H83576   0.499   3.424   5.335 -1.9348 -1.8897 -2.3702
  606MOL0     H83577   0.563   3.241   5.141 -3.9695  1.4206 -2.0550
  606MOL0     H83578   0.575   2.991   4.985  0.0468 -1.4722 -0.2635
  606MOL0     H83579   0.406   2.997   4.972  2.5361  1.1217 -2.4031
  606MOL0     H83580   0.395   2.794   5.121  0.6065 -1.7705  0.4636
  606MOL0     H83581   0.489   2.759   4.972 -3.5679 -1.7921  1.3632
  606MOL0     H83582   0.697   2.787   5.094  0.7832 -1.5482 -0.0345
  606MOL0     H83583   0.601   2.832   5.238 -5.2046  0.3874 -0.6172
  606MOL0     H83584   0.662   2.615   5.273  0.7939  1.3806 -1.0619
  606MOL0     H83585   0.496   2.594   5.209 -2.4903 -0.2851 -4.3889
  606MOL0     H83586   0.490   2.375   5.205  0.1793  2.0371 -1.3499
  606MOL0     H83587   0.472   2.009   5.269 -1.8590 -0.7995  1.1467
  606MOL0     H83588   0.381   2.153   5.267 -0.5001  0.1023 -0.3033
  606MOL0     H83589   0.498   2.134   5.393  0.5205  0.1644 -0.4315
  606MOL0     H83590   0.727   1.881   5.569  2.9034 -2.9478  2.7690
  606MOL0     H83591   0.677   1.666   5.654 -1.3573  1.0372  0.0049
  606MOL0     H83592   0.497   1.346   5.432  0.2431 -0.1526 -0.7528
  606MOL0     H83593   0.667   1.322   5.368 -2.2776  0.1089 -2.5701
  606MOL0     H83594   0.527   1.231   5.622 -2.3384  2.8510 -2.7963
  606MOL0     H83595   0.551   1.127   5.486 -1.2664  2.9252 -2.2578
  606MOL0     H83596   0.781   1.245   5.642 -0.5535 -1.0313  1.7968
  606MOL0     H83597   0.769   1.123   5.506 -1.0133  0.5656 -0.9067
  606MOL0     H83598   0.667   0.968   5.691 -0.0765 -1.2101  3.6457
  606MOL0     H83599   0.638   1.119   5.791  0.8237 -0.6357  0.8052
  606MOL0     H83600   0.886   0.960   5.746 -0.4918  0.8375 -1.0345
  606MOL0     H83601   0.899   1.117   5.817  4.0245 -1.4493 -2.5062
  606MOL0     H83602   0.704   0.917   5.925 -1.1965  1.6215 -2.5594
  606MOL0     H83603   0.745   1.088   5.979 -4.4102 -1.8558  3.3455
  606MOL0     H83604   0.996   0.968   5.977  0.6741 -1.2372 -0.3533
  606MOL0     H83605   0.903   0.818   5.989 -1.5007  0.6409 -1.9639
  606MOL0     H83606   0.892   1.036   6.201 -0.3056  0.1209  1.1246
  606MOL0     H83607   0.973   0.877   6.205  1.8376  1.6232 -1.7951
  606MOL0     H83608   0.691   1.503   5.270  1.8285 -0.8284  2.8174
  606MOL0     H83609   0.706   1.710   5.168  2.1706  0.3680 -0.2863
  606MOL0     H83610   0.897   2.182   5.025  0.3281  0.6825 -2.7732
  606MOL0     H83611   0.837   2.422   5.001 -3.0942  0.6475 -3.7960
  606MOL0     H83612   1.279   3.852   5.448  0.7741  0.7620  0.5884
  606MOL0     H83613   1.266   4.041   5.636  1.9763 -1.0373  1.2836
  606MOL0     H83614   1.110   4.077   6.020 -1.5105 -0.9331  1.1294
  606MOL0     H83615   1.111   4.173   6.265 -0.6430 -0.0010 -0.2615
  606MOL0     H83616   0.903   4.513   6.458  0.5001  1.9282 -1.4986
  606MOL0     H83617   0.791   4.500   6.321  0.0332 -3.6815 -2.0730
  606MOL0     H83618   0.762   4.248   6.387  3.4334  0.6175 -1.1138
  606MOL0     H83619   0.687   4.357   6.499 -0.6381 -0.9707 -1.7967
  606MOL0     H83620   0.974   4.247   6.522 -0.0277 -0.1291 -0.5426
  606MOL0     H83621   0.899   4.331   6.651  1.3949  0.1877 -0.0270
  606MOL0     H83622   0.819   4.066   6.550 -3.5024 -1.9771  2.6543
  606MOL0     H83623   0.723   4.168   6.660  0.0008  2.5894 -2.0838
  606MOL0     H83624   1.055   3.957   6.854  0.5422  0.7973 -0.6573
  606MOL0     H83625   0.798   4.448   6.129  2.2324  1.4732  1.2899
  606MOL0     H83626   0.870   4.415   5.791 -2.1528 -0.0067 -1.9309
  606MOL0     H83627   0.735   4.302   5.827  0.1023 -1.4120  0.5669
  606MOL0     H83628   0.744   4.455   5.909 -3.6485 -2.4376 -1.6366
  607MOL0     O83629   1.758  10.195   1.534 -0.9271  0.4601 -0.2846
  607MOL0     C83630   1.649  10.183   1.584 -0.4075  0.4504  0.0753
  607MOL0     O83631   1.596  10.064   1.612  0.0980  0.2797 -0.2042
  607MOL0     C83632   1.665   9.950   1.612  0.0536  0.2239  0.4453
  607MOL0     C83633   1.677   9.873   1.495 -1.2931 -0.1602  0.5390
  607MOL0     C83634   1.748   9.754   1.508 -0.8400  0.2627 -0.1147
  607MOL0     C83635   1.787   9.707   1.632  0.2867  0.7096  0.1743
  607MOL0     O83636   1.844   9.583   1.633  0.1162  0.0831 -0.2336
  607MOL0     C83637   1.909   9.520   1.745 -0.4843 -0.7120 -0.8862
  607MOL0     C83638   1.968   9.380   1.704  0.5230  0.2861  0.8213
  607MOL0     C83639   1.958   9.272   1.812 -0.7319  0.5394  0.3612
  607MOL0     C83640   1.835   9.171   1.799  0.5938  0.1026 -1.3838
  607MOL0     C83641   1.841   9.081   1.919 -0.7579  0.4167 -0.5952
  607MOL0     C83642   1.717   9.004   1.927 -0.5673 -0.7011 -0.1565
  607MOL0     C83643   1.716   8.928   2.059 -0.9279  0.7483  0.1711
  607MOL0     C83644   1.679   9.002   2.184  0.4708  0.0539 -0.5129
  607MOL0     N83645   1.641   8.902   2.295 -0.3170  0.3288  0.4912
  607MOL0     C83646   1.522   8.820   2.303 -0.0047  0.4913 -0.5950
  607MOL0     C83647   1.501   8.817   2.440 -0.8008 -1.5215 -0.1623
  607MOL0     C83648   1.379   8.765   2.508 -0.2789 -0.8589 -0.1709
  607MOL0     C83649   1.392   8.628   2.568  0.5735  0.6492  0.7063
  607MOL0     C83650   1.335   8.612   2.715  0.1699  0.5207 -1.1228
  607MOL0     C83651   1.182   8.629   2.732  0.3492 -0.0494  0.7421
  607MOL0     O83652   1.141   8.662   2.872  0.7499 -0.4754  0.1031
  607MOL0     C83653   1.005   8.651   2.901  0.1066 -0.6752  0.5714
  607MOL0     C83654   0.923   8.555   2.863  1.1003 -0.5640  0.7339
  607MOL0     C83655   0.784   8.564   2.867 -0.4208  1.0152 -0.1493
  607MOL0     C83656   0.712   8.430   2.849 -0.1259  0.2234  0.6733
  607MOL0     C83657   0.728   8.678   2.918 -0.6475  0.3391  0.6853
  607MOL0     C83658   0.586   8.691   2.940 -0.1099  0.5491 -0.0652
  607MOL0     O83659   0.560   8.727   3.064  0.2007 -0.0083  0.0335
  607MOL0     C83660   0.427   8.747   3.118 -0.5518 -0.3194  0.0387
  607MOL0     C83661   0.307   8.696   3.063  0.2769 -0.7812  0.8481
  607MOL0     C83662   0.183   8.727   3.120 -0.3193  0.1263  0.6597
  607MOL0     C83663   0.171   8.789   3.248 -0.9762 -0.7536  0.1255
  607MOL0     O83664   0.053   8.813   3.310 -0.0339  0.3235  0.5316
  607MOL0     C83665  -0.052   8.724   3.273 -0.0956  0.6208 -0.2245
  607MOL0     C83666  -0.104   8.640   3.383 -0.3035  0.6085  0.3888
  607MOL0     C83667  -0.230   8.565   3.334  0.5108 -1.0653 -0.1422
  607MOL0     C83668  -0.325   8.538   3.456  0.6625 -0.4225 -0.2276
  607MOL0     C83669  -0.450   8.445   3.415  0.3657 -1.5115 -0.5490
  607MOL0     C83670  -0.566   8.522   3.341  0.5905  0.7921  0.1238
  607MOL0     C83671  -0.702   8.446   3.358 -0.7990  0.6936 -0.5340
  607MOL0     C83672  -0.822   8.530   3.321 -0.0456  0.1380  0.8556
  607MOL0    Cl83673  -0.961   8.417   3.341 -0.2325 -0.0628 -0.0321
  607MOL0     C83674   0.292   8.824   3.314  0.4457  0.7658  0.5382
  607MOL0     C83675   0.412   8.811   3.240  0.1676 -0.4942 -0.5654
  607MOL0     O83676   0.510   8.675   2.852  0.1177  0.3430  0.4738
  607MOL0     C83677   0.809   8.783   2.962 -0.9260  0.1195 -0.0689
  607MOL0     C83678   0.951   8.764   2.965 -0.1167 -0.5130 -0.3488
  607MOL0     N83679   1.615   8.872   2.508 -0.8325  0.4007  1.0480
  607MOL0     N83680   1.706   8.918   2.419  0.0496  0.4350  0.5942
  607MOL0     C83681   1.760   9.779   1.748 -0.4982 -0.8961  0.2602
  607MOL0     C83682   1.705   9.907   1.741  0.1855 -0.0278  0.0279
  607MOL0     C83683   1.564  10.302   1.595  0.2073 -0.5328 -0.8350
  607MOL0     C83684   1.424  10.277   1.584 -0.0325  0.9119  0.5855
  607MOL0     C83685   1.342  10.378   1.564 -0.0233 -0.8175 -0.7167
  607MOL0     C83686   1.382  10.509   1.580 -0.1598 -0.0245  0.0283
  607MOL0     O83687   1.275  10.594   1.589 -0.1825 -0.4971  0.3522
  607MOL0     C83688   1.302  10.716   1.508  0.7954  0.2754 -0.1644
  607MOL0     C83689   1.177  10.750   1.417  0.5248  0.6155 -0.4352
  607MOL0     C83690   1.051  10.786   1.496 -0.1909  0.5254  0.1741
  607MOL0     C83691   0.923  10.802   1.422 -0.4390 -0.7864 -0.0125
  607MOL0     C83692   0.901  10.925   1.357 -0.0514  0.5354  0.6762
  607MOL0     C83693   0.868  11.027   1.293  0.8644  0.6520  0.2915
  607MOL0     C83694   1.514  10.537   1.615  0.9906 -0.4757 -2.2184
  607MOL0     C83695   1.607  10.430   1.620 -0.0482 -0.8875  0.7758
  607MOL0     C83696   1.751  10.457   1.653 -0.1169 -0.1822 -0.0706
  607MOL0     H83697   1.636   9.923   1.408  0.3133 -0.3452 -0.3524
  607MOL0     H83698   1.772   9.694   1.421 -1.4779 -0.3742  0.1374
  607MOL0     H83699   1.850   9.507   1.836 -0.1082 -0.4892 -0.6068
  607MOL0     H83700   1.984   9.586   1.790 -0.1185 -1.0235 -1.0335
  607MOL0     H83701   1.921   9.348   1.610  0.8093  4.3225 -0.9129
  607MOL0     H83702   2.072   9.405   1.684 -0.2754  2.2802 -1.3898
  607MOL0     H83703   2.047   9.208   1.805  0.3159  2.0597 -1.2118
  607MOL0     H83704   1.960   9.323   1.909  1.2903  3.7636 -1.2029
  607MOL0     H83705   1.738   9.221   1.794 -1.6178 -3.3983  1.8101
  607MOL0     H83706   1.847   9.112   1.708  3.9230 -1.4285 -0.1046
  607MOL0     H83707   1.852   9.143   2.009 -0.6417  2.4785 -1.9572
  607MOL0     H83708   1.928   9.015   1.924 -0.2746  1.0979  0.2438
  607MOL0     H83709   1.625   9.063   1.920  0.1469  0.3380 -1.1611
  607MOL0     H83710   1.721   8.927   1.849 -1.6926 -1.4017  0.4429
  607MOL0     H83711   1.818   8.887   2.064 -0.5471  0.6686 -4.2698
  607MOL0     H83712   1.643   8.849   2.038 -0.2978  0.2249 -0.1132
  607MOL0     H83713   1.759   9.069   2.217 -1.0788  1.7368 -0.0097
  607MOL0     H83714   1.592   9.067   2.169  0.2910  0.3052  1.3694
  607MOL0     H83715   1.450   8.792   2.226 -0.7969  1.4933 -0.2399
  607MOL0     H83716   1.293   8.783   2.442 -2.4019 -0.0622  2.6412
  607MOL0     H83717   1.364   8.830   2.594 -0.0857 -0.5534 -0.3637
  607MOL0     H83718   1.345   8.555   2.500  0.8133  0.0237  1.1967
  607MOL0     H83719   1.497   8.598   2.577  0.4500 -1.0316 -2.2344
  607MOL0     H83720   1.372   8.515   2.749  0.7450  0.3974 -2.0750
  607MOL0     H83721   1.383   8.682   2.784  1.6325 -0.7545 -0.8011
  607MOL0     H83722   1.146   8.710   2.669  0.1000 -1.5461 -1.1258
  607MOL0     H83723   1.139   8.532   2.706  0.5154  0.0774 -0.0201
  607MOL0     H83724   0.959   8.464   2.815 -1.1988 -1.8103  1.2401
  607MOL0     H83725   0.697   8.415   2.956 -1.1301  1.3842  0.7203
  607MOL0     H83726   0.784   8.358   2.809 -0.6797  0.4254 -0.7631
  607MOL0     H83727   0.618   8.437   2.793  1.0269  0.1095 -1.3992
  607MOL0     H83728   0.309   8.648   2.966 -1.3217 -2.7508  1.7263
  607MOL0     H83729   0.103   8.696   3.055  2.4515 -3.7184 -1.3017
  607MOL0     H83730  -0.135   8.775   3.224 -1.1744 -1.3566 -0.5379
  607MOL0     H83731  -0.020   8.648   3.201  0.2052  0.4593  0.0749
  607MOL0     H83732  -0.029   8.566   3.413  1.2693  1.9600 -0.0829
  607MOL0     H83733  -0.132   8.708   3.465 -1.8376  0.9191 -0.3509
  607MOL0     H83734  -0.206   8.470   3.286 -3.4601 -1.3690 -1.9379
  607MOL0     H83735  -0.282   8.627   3.261 -2.2529 -1.1914  1.5894
  607MOL0     H83736  -0.352   8.634   3.503  2.0805  0.0261 -0.2851
  607MOL0     H83737  -0.286   8.480   3.540  1.4344  2.0123  1.2191
  607MOL0     H83738  -0.409   8.364   3.355 -2.2439 -1.5552 -2.4644
  607MOL0     H83739  -0.496   8.427   3.513  0.9007  0.6240  0.1492
  607MOL0     H83740  -0.533   8.529   3.237  3.7949 -2.0710  0.7589
  607MOL0     H83741  -0.575   8.622   3.383  0.6580 -0.3490  3.1178
  607MOL0     H83742  -0.732   8.418   3.459 -0.0812  1.4805 -0.0921
  607MOL0     H83743  -0.689   8.358   3.294 -1.1434  2.5589 -3.3966
  607MOL0     H83744  -0.822   8.569   3.219 -1.7661 -0.8423  0.4291
  607MOL0     H83745  -0.817   8.604   3.401  0.0666  1.1483 -0.0675
  607MOL0     H83746   0.289   8.881   3.407  2.2744 -1.4609  2.0733
  607MOL0     H83747   0.505   8.832   3.292 -1.3573  0.6941  1.8785
  607MOL0     H83748   0.761   8.874   2.995 -1.9810 -1.1631  2.1845
  607MOL0     H83749   1.010   8.843   3.009 -0.8013 -0.2925  0.1953
  607MOL0     H83750   1.797   9.755   1.847 -0.0840 -2.2715 -0.2108
  607MOL0     H83751   1.683   9.968   1.828  0.5932 -0.3294  0.3475
  607MOL0     H83752   1.395  10.172   1.582 -2.2925  1.4951 -0.6291
  607MOL0     H83753   1.237  10.359   1.543  0.6508 -3.1047 -2.3514
  607MOL0     H83754   1.314  10.808   1.566  0.7066  1.5464 -2.0554
  607MOL0     H83755   1.391  10.713   1.444 -0.8123  3.7548 -2.9670
  607MOL0     H83756   1.157  10.653   1.371 -0.6203  0.2690  0.7380
  607MOL0     H83757   1.214  10.829   1.351 -0.7492  0.1566 -1.7534
  607MOL0     H83758   1.033  10.690   1.547  1.9766  0.3947  0.8074
  607MOL0     H83759   1.063  10.862   1.573 -2.2967 -0.6976  1.8140
  607MOL0     H83760   0.840  10.778   1.490 -2.0980  4.1008  0.0777
  607MOL0     H83761   0.922  10.719   1.351 -1.0769 -0.6687 -0.1454
  607MOL0     H83762   0.852  11.117   1.237  0.2014 -1.0843 -2.5030
  607MOL0     H83763   1.538  10.642   1.632  0.2201 -0.8364  2.2421
  607MOL0     H83764   1.797  10.375   1.709  2.6031  2.0489  1.2518
  607MOL0     H83765   1.818  10.461   1.567 -0.1216 -1.5051 -0.1638
  607MOL0     H83766   1.771  10.548   1.709  1.9988  1.5928 -3.3851
  608MOL0     O83767   8.229   1.875   7.554 -1.0568  0.9363  0.3081
  608MOL0     C83768   8.315   1.964   7.547  0.4236 -0.0970  0.0202
  608MOL0     O83769   8.296   2.096   7.596  0.0612 -0.3407 -0.8233
  608MOL0     C83770   8.200   2.116   7.689 -0.0491  0.4538 -0.2381
  608MOL0     C83771   8.231   2.070   7.816  0.2887  0.0514  0.0421
  608MOL0     C83772   8.141   2.098   7.923 -0.4250  0.0601 -0.6378
  608MOL0     C83773   8.025   2.156   7.903 -0.5898 -0.1385  0.2218
  608MOL0     O83774   7.945   2.174   8.007 -0.1146  0.8934  0.0341
  608MOL0     C83775   7.863   2.295   8.006 -0.2534  0.9770  1.2641
  608MOL0     C83776   7.720   2.269   7.960  0.2146  0.8631 -1.3673
  608MOL0     C83777   7.652   2.158   8.025  0.2785  0.2564  0.3425
  608MOL0     C83778   7.630   2.046   7.925 -0.4984  1.3184 -0.0229
  608MOL0     C83779   7.579   1.921   7.994 -0.6017  0.0744  0.2357
  608MOL0     C83780   7.444   1.918   8.063 -0.6054  0.7026 -0.4709
  608MOL0     C83781   7.433   1.785   8.141 -0.6171  0.2631 -0.0374
  608MOL0     C83782   7.284   1.742   8.169 -0.0594 -0.2852 -0.2626
  608MOL0     N83783   7.222   1.825   8.275  0.1033 -0.5987  0.1162
  608MOL0     C83784   7.192   1.782   8.399 -0.6344 -0.4539 -0.5337
  608MOL0     C83785   7.133   1.888   8.459  0.0291  0.5241 -0.1296
  608MOL0     C83786   7.081   1.886   8.609 -1.0901 -0.1928 -0.0690
  608MOL0     C83787   6.922   1.913   8.606  0.5102  0.1462  0.1621
  608MOL0     C83788   6.857   1.779   8.595  0.6155 -0.0303  0.2227
  608MOL0     C83789   6.865   1.685   8.475  0.2358 -0.7063 -1.0375
  608MOL0     O83790   6.871   1.751   8.345 -0.4615  0.3239  0.4431
  608MOL0     C83791   6.912   1.676   8.238  0.0849 -0.2373  0.3558
  608MOL0     C83792   6.935   1.530   8.237  0.3692 -0.5252  0.3362
  608MOL0     C83793   6.958   1.462   8.112 -1.0712 -0.0910 -0.4144
  608MOL0     C83794   6.975   1.308   8.121  1.2280  0.2802 -0.9533
  608MOL0     C83795   6.955   1.541   7.984 -0.1307  0.4673 -0.0809
  608MOL0     C83796   6.989   1.484   7.850 -0.0657  0.3004 -0.3669
  608MOL0     O83797   7.005   1.349   7.834  0.2435  0.2022 -0.2392
  608MOL0     C83798   7.034   1.301   7.707  0.5546  0.4448 -1.0154
  608MOL0     C83799   7.130   1.365   7.623  0.8478  0.6155  0.5264
  608MOL0     C83800   7.155   1.303   7.500 -1.3324 -0.8661 -0.4351
  608MOL0     C83801   7.094   1.191   7.453 -0.1371  0.1231  0.1499
  608MOL0     O83802   7.107   1.152   7.317  0.2082  0.0895  0.2969
  608MOL0     C83803   7.242   1.107   7.305 -0.3478  0.3889  0.0710
  608MOL0     C83804   7.241   1.017   7.178 -0.4912 -0.1225 -0.2869
  608MOL0     C83805   7.230   1.099   7.047  0.0392 -0.1387  0.8683
  608MOL0     C83806   7.223   1.007   6.935  0.4309 -0.1244  0.0991
  608MOL0     C83807   7.232   1.083   6.800  0.4112 -0.3465  0.0945
  608MOL0     C83808   7.304   1.000   6.704  0.1206 -0.6836  0.3394
  608MOL0     C83809   7.302   1.054   6.554 -0.5890 -0.0820 -0.5157
  608MOL0     C83810   7.171   1.021   6.496  0.1920 -0.2836  1.2217
  608MOL0    Cl83811   7.178   1.106   6.333  0.4635  0.2683  0.1040
  608MOL0     C83812   6.990   1.135   7.533 -0.2122  0.5615 -1.0116
  608MOL0     C83813   6.962   1.188   7.656  0.3473  0.1069 -0.4737
  608MOL0     O83814   6.992   1.562   7.756  0.4190  0.1101  0.5434
  608MOL0     C83815   6.916   1.676   7.995  0.9890 -0.6283  0.9068
  608MOL0     C83816   6.910   1.749   8.117  0.1965  0.7689 -0.8025
  608MOL0     N83817   7.129   1.994   8.366 -0.3132  0.1319 -0.1881
  608MOL0     N83818   7.172   1.947   8.251  0.5355  0.1955  0.2220
  608MOL0     C83819   7.990   2.193   7.770 -0.4139  0.2232 -0.3508
  608MOL0     C83820   8.082   2.182   7.666 -0.1051 -0.1717 -0.2474
  608MOL0     C83821   8.441   1.937   7.466  0.4573  0.2421 -0.2608
  608MOL0     C83822   8.486   2.037   7.378  0.4132  0.0710 -0.8423
  608MOL0     C83823   8.586   2.032   7.289 -1.3305  0.4846  0.1598
  608MOL0     C83824   8.627   1.906   7.259  0.0063  0.0383  0.0532
  608MOL0     O83825   8.706   1.895   7.148 -0.0871 -0.3292  0.5715
  608MOL0     C83826   8.753   1.763   7.112 -0.8928 -0.2493  0.7524
  608MOL0     C83827   8.875   1.794   7.030 -0.5192 -0.0454  0.5585
  608MOL0     C83828   8.952   1.675   6.980  0.3260 -0.5909  0.0973
  608MOL0     C83829   9.071   1.720   6.883 -0.7075 -0.3547 -0.1130
  608MOL0     C83830   9.174   1.797   6.961 -0.1807 -0.3603 -0.2106
  608MOL0     C83831   9.265   1.840   7.033  0.2090  0.1977 -0.1565
  608MOL0     C83832   8.593   1.797   7.346  0.5385  0.3721  0.8524
  608MOL0     C83833   8.500   1.814   7.445  0.0395  0.1913 -0.3415
  608MOL0     C83834   8.470   1.694   7.536  0.8775  0.0626  0.3866
  608MOL0     H83835   8.321   2.014   7.838 -0.3940 -1.0545  0.0973
  608MOL0     H83836   8.174   2.060   8.019  0.2255  1.8550 -0.1064
  608MOL0     H83837   7.902   2.369   7.935  0.7842  0.6163  1.4378
  608MOL0     H83838   7.862   2.344   8.103 -3.9173  2.8920  0.4082
  608MOL0     H83839   7.662   2.359   7.985 -1.6785 -0.8382  0.8532
  608MOL0     H83840   7.701   2.268   7.852  2.4170 -1.0202 -1.8022
  608MOL0     H83841   7.705   2.132   8.117 -0.3685  1.0584  0.9561
  608MOL0     H83842   7.551   2.191   8.052 -0.1875 -0.6161 -0.2778
  608MOL0     H83843   7.567   2.068   7.839  0.9267  0.1872 -1.4078
  608MOL0     H83844   7.733   2.022   7.898 -0.0489  1.6149  1.3179
  608MOL0     H83845   7.660   1.894   8.062 -0.6425 -1.0212 -0.1201
  608MOL0     H83846   7.573   1.845   7.915 -4.4220  0.5116 -0.0747
  608MOL0     H83847   7.436   2.000   8.135 -3.2757 -0.8914  1.2343
  608MOL0     H83848   7.362   1.911   7.992 -0.9319 -1.9815  0.0680
  608MOL0     H83849   7.467   1.793   8.244 -1.2040 -3.1383  0.5591
  608MOL0     H83850   7.485   1.700   8.096 -0.5682  1.2664 -2.0046
  608MOL0     H83851   7.220   1.736   8.081 -1.9700 -1.0944  1.0999
  608MOL0     H83852   7.292   1.638   8.201  0.1820 -0.2009 -0.0416
  608MOL0     H83853   7.207   1.686   8.449  1.3853 -0.1507 -0.4882
  608MOL0     H83854   7.126   1.965   8.670 -3.6282 -0.2300  2.0467
  608MOL0     H83855   7.113   1.794   8.659  4.0091  0.6621 -1.2378
  608MOL0     H83856   6.892   1.953   8.703 -1.1196 -2.6266  0.9200
  608MOL0     H83857   6.894   1.976   8.521 -0.6775 -1.5190 -0.7512
  608MOL0     H83858   6.880   1.716   8.682  0.8287 -2.3505 -1.4159
  608MOL0     H83859   6.750   1.801   8.593 -0.0867 -2.9123  0.4525
  608MOL0     H83860   6.945   1.614   8.499  1.0765  0.3012 -0.7738
  608MOL0     H83861   6.774   1.624   8.482  0.7488 -1.3331  1.7362
  608MOL0     H83862   6.928   1.484   8.336 -0.9847 -1.7014 -0.2741
  608MOL0     H83863   7.056   1.275   8.056  0.5518  0.9632 -2.1777
  608MOL0     H83864   6.877   1.262   8.102  1.5414 -2.8191  3.4914
  608MOL0     H83865   7.002   1.277   8.222 -2.8500  2.2003  0.9779
  608MOL0     H83866   7.185   1.452   7.656  1.4014  0.3644  0.2850
  608MOL0     H83867   7.223   1.349   7.428 -0.3427  0.7746  1.4514
  608MOL0     H83868   7.318   1.185   7.298 -1.3149  1.3397  0.0747
  608MOL0     H83869   7.267   1.042   7.390 -2.8940 -1.2711 -0.3551
  608MOL0     H83870   7.331   0.956   7.170 -2.3510 -3.0397 -0.4542
  608MOL0     H83871   7.169   0.936   7.195  0.9868 -1.5056 -0.3964
  608MOL0     H83872   7.323   1.156   7.034 -0.4505  0.1209 -2.1740
  608MOL0     H83873   7.142   1.165   7.052 -1.3123 -1.6188 -1.6680
  608MOL0     H83874   7.126   0.955   6.940  0.1912  0.1861 -1.0755
  608MOL0     H83875   7.306   0.936   6.939  2.0802  1.7914  2.4196
  608MOL0     H83876   7.127   1.103   6.774  0.1570 -0.1588  1.2423
  608MOL0     H83877   7.281   1.178   6.818 -1.4269 -0.0803  5.3333
  608MOL0     H83878   7.275   0.896   6.721 -1.9926 -0.2120 -0.0995
  608MOL0     H83879   7.408   1.010   6.736  0.5618 -1.4393 -0.8104
  608MOL0     H83880   7.390   1.023   6.497 -0.9001  2.2790 -2.4511
  608MOL0     H83881   7.309   1.163   6.564 -1.4430 -0.1978  1.9372
  608MOL0     H83882   7.085   1.052   6.556 -0.3306 -0.6826  0.6892
  608MOL0     H83883   7.163   0.913   6.480  0.4871 -0.5959  2.9057
  608MOL0     H83884   6.937   1.049   7.496  1.0157 -1.8433  2.3199
  608MOL0     H83885   6.877   1.149   7.712  1.1669  1.0564  1.5126
  608MOL0     H83886   6.892   1.735   7.907 -1.5025  3.7493  4.0633
  608MOL0     H83887   6.888   1.854   8.137  0.7475  0.6480  0.5203
  608MOL0     H83888   7.900   2.247   7.744 -2.0701 -0.6608  2.9041
  608MOL0     H83889   8.056   2.225   7.570  0.5995 -2.1012 -1.3523
  608MOL0     H83890   8.431   2.131   7.377  0.4730  0.1426  0.6306
  608MOL0     H83891   8.603   2.106   7.211  2.3903  2.1992  2.3039
  608MOL0     H83892   8.790   1.697   7.191 -0.4238 -0.1950  0.5850
  608MOL0     H83893   8.673   1.713   7.057  0.4839  0.1784 -1.8086
  608MOL0     H83894   8.942   1.854   7.094  3.4619 -4.2641  0.8888
  608MOL0     H83895   8.850   1.853   6.941 -2.9498 -1.0492  0.5195
  608MOL0     H83896   8.979   1.602   7.057 -3.7911 -0.9824  1.4449
  608MOL0     H83897   8.887   1.613   6.917  0.3696 -1.0329  0.4834
  608MOL0     H83898   9.037   1.779   6.797  1.0471  0.9912  0.0464
  608MOL0     H83899   9.109   1.624   6.848 -0.2286 -0.4768  0.7136
  608MOL0     H83900   9.354   1.873   7.084  2.4266 -0.5735 -3.1982
  608MOL0     H83901   8.652   1.706   7.345  3.5083  2.1481 -0.2573
  608MOL0     H83902   8.543   1.615   7.516  0.3036 -0.1310 -1.0538
  608MOL0     H83903   8.471   1.723   7.642 -0.5120  1.1646  0.1276
  608MOL0     H83904   8.367   1.661   7.517 -0.5873  4.2104  0.0735
  609MOL0     O83905   5.525  10.522   0.431 -0.1539  0.8656  0.8290
  609MOL0     C83906   5.435  10.543   0.511 -0.4360 -0.1130 -1.4386
  609MOL0     O83907   5.453  10.615   0.633  0.3033 -1.4739 -0.0154
  609MOL0     C83908   5.569  10.698   0.642  0.2615  1.3541 -0.4876
  609MOL0     C83909   5.668  10.670   0.740  0.0891 -0.0131  0.5043
  609MOL0     C83910   5.777  10.754   0.749 -0.3591 -0.6647  0.0909
  609MOL0     C83911   5.785  10.875   0.678  0.2637 -0.0465 -0.4486
  609MOL0     O83912   5.897  10.962   0.694  0.8434 -0.1315 -0.8903
  609MOL0     C83913   5.971  10.968   0.815  0.5461 -0.1428 -0.4347
  609MOL0     C83914   6.078  11.070   0.783  0.2603 -0.6002  0.1861
  609MOL0     C83915   6.168  11.092   0.907  0.0443  0.2900  0.0130
  609MOL0     C83916   6.258  11.208   0.873 -1.2653  0.1730  0.4934
  609MOL0     C83917   6.345  11.264   0.989 -0.7643 -0.0534 -0.5459
  609MOL0     C83918   6.456  11.167   1.030 -0.4789  0.4232  0.6442
  609MOL0     C83919   6.563  11.142   0.923 -1.1418  0.7978 -0.0518
  609MOL0     C83920   6.657  11.047   0.992 -1.1442 -0.3077  0.2558
  609MOL0     N83921   6.788  11.037   0.920 -0.0196 -0.1308  0.0152
  609MOL0     C83922   6.864  10.922   0.922 -0.2227  0.2346  0.4052
  609MOL0     C83923   6.956  10.951   0.826  0.6538 -0.3645 -0.4938
  609MOL0     C83924   7.078  10.868   0.791  0.7096  0.5467  0.2265
  609MOL0     C83925   7.133  10.897   0.642  0.1720  1.4535  0.1408
  609MOL0     C83926   7.204  10.770   0.598  0.4213 -0.0698 -0.2431
  609MOL0     C83927   7.325  10.733   0.688  0.5799 -0.0313  0.4415
  609MOL0     O83928   7.419  10.833   0.683 -0.2423  0.5801 -0.4761
  609MOL0     C83929   7.539  10.828   0.741 -0.2821 -0.5064  0.3438
  609MOL0     C83930   7.653  10.867   0.673  0.0905 -0.7487  0.6572
  609MOL0     C83931   7.782  10.865   0.727 -0.0105 -0.2816  0.0835
  609MOL0     C83932   7.904  10.884   0.635  0.0560  1.1562 -0.4214
  609MOL0     C83933   7.803  10.814   0.857  0.6270  0.1143  0.5387
  609MOL0     C83934   7.941  10.804   0.927 -0.4222  0.3409  0.0863
  609MOL0     O83935   7.933  10.763   1.058  0.2208 -1.0277  0.4186
  609MOL0     C83936   8.051  10.719   1.125  0.6975  0.4705 -0.2351
  609MOL0     C83937   8.079  10.577   1.135  0.4904 -0.1835 -0.3813
  609MOL0     C83938   8.192  10.533   1.196 -0.6207  0.5649  1.0680
  609MOL0     C83939   8.271  10.624   1.265  0.3049 -0.8191  0.0721
  609MOL0     O83940   8.357  10.573   1.359 -0.2525  1.2328  0.1227
  609MOL0     C83941   8.436  10.670   1.430  0.5438 -0.2293 -0.2636
  609MOL0     C83942   8.524  10.605   1.531 -0.6634  0.3825 -0.4297
  609MOL0     C83943   8.619  10.487   1.472 -0.9831  0.1373 -0.3891
  609MOL0     C83944   8.563  10.351   1.520  1.2986  0.3604 -0.1351
  609MOL0     C83945   8.645  10.237   1.464  0.7866 -0.5018  0.2955
  609MOL0     C83946   8.799  10.222   1.495 -0.3387  0.1158 -0.4265
  609MOL0     C83947   8.845  10.081   1.443 -0.5555 -0.5178  0.0945
  609MOL0     C83948   8.997  10.059   1.465 -0.4358  0.1329 -0.9511
  609MOL0    Cl83949   9.103  10.193   1.395  0.2716 -0.2007  0.3181
  609MOL0     C83950   8.241  10.767   1.250  0.5222 -0.0426  1.0596
  609MOL0     C83951   8.137  10.813   1.184  0.6818  0.1646 -0.4130
  609MOL0     O83952   8.048  10.822   0.863  0.0134 -0.5107  0.5656
  609MOL0     C83953   7.685  10.775   0.933 -1.0664 -0.7048 -0.1804
  609MOL0     C83954   7.557  10.783   0.874 -0.3187 -0.5932 -0.8811
  609MOL0     N83955   6.925  11.079   0.773  0.2770  0.1497 -0.0954
  609MOL0     N83956   6.830  11.129   0.832 -0.5602 -0.3399  0.0048
  609MOL0     C83957   5.685  10.895   0.584 -1.5405  1.0208  0.0807
  609MOL0     C83958   5.581  10.808   0.557 -0.2505 -0.1248  0.7815
  609MOL0     C83959   5.301  10.477   0.481 -0.1093  0.6234 -0.0745
  609MOL0     C83960   5.201  10.489   0.578  0.5990 -0.3696  0.7530
  609MOL0     C83961   5.080  10.424   0.561 -0.1176  0.5391  0.0831
  609MOL0     C83962   5.055  10.350   0.453 -0.4710 -0.0781  0.1927
  609MOL0     O83963   4.940  10.264   0.438  0.2336  0.1653  0.4239
  609MOL0     C83964   4.936  10.140   0.498 -0.3003 -0.5728  0.2650
  609MOL0     C83965   4.788  10.097   0.512  0.1322  0.4125  0.5412
  609MOL0     C83966   4.712  10.121   0.392  0.7397 -1.0780  1.0651
  609MOL0     C83967   4.776  10.078   0.259 -0.2483  0.1646  0.1466
  609MOL0     C83968   4.670  10.066   0.157 -0.3021 -0.0825 -0.1418
  609MOL0     C83969   4.588  10.046   0.076  0.1215 -0.0113  1.0817
  609MOL0     C83970   5.144  10.346   0.345 -0.0591  0.4219 -0.3829
  609MOL0     C83971   5.263  10.415   0.350 -0.4017  0.8591  0.0132
  609MOL0     C83972   5.353  10.399   0.226 -0.0372 -0.5289 -0.0326
  609MOL0     H83973   5.665  10.573   0.789 -3.2247 -0.0396  0.5175
  609MOL0     H83974   5.858  10.726   0.814 -0.8123  0.7142  1.3000
  609MOL0     H83975   6.021  10.873   0.835  0.9823  0.7510  3.6788
  609MOL0     H83976   5.917  11.006   0.902 -1.4873  0.8643 -2.0598
  609MOL0     H83977   6.134  11.046   0.692 -0.8151  0.2924 -0.7519
  609MOL0     H83978   6.026  11.164   0.761  0.8047  0.0799  1.6704
  609MOL0     H83979   6.105  11.123   0.991  0.6133 -1.1705  1.0248
  609MOL0     H83980   6.213  10.997   0.937 -0.1622  0.6812  1.7135
  609MOL0     H83981   6.317  11.175   0.786 -4.1495  0.3892 -1.7072
  609MOL0     H83982   6.192  11.280   0.823 -2.0953 -0.9382 -0.0682
  609MOL0     H83983   6.287  11.283   1.080  1.0606 -0.0807  0.6639
  609MOL0     H83984   6.392  11.349   0.939  1.4640  0.5205  2.3223
  609MOL0     H83985   6.508  11.215   1.113 -1.6852  2.3867  0.3206
  609MOL0     H83986   6.406  11.074   1.060  0.3907  0.5669  2.6560
  609MOL0     H83987   6.614  11.234   0.891  0.9386 -0.2410  0.0852
  609MOL0     H83988   6.521  11.091   0.836  1.0353 -2.8464  0.8515
  609MOL0     H83989   6.695  11.085   1.088  1.4874  1.7340 -1.4357
  609MOL0     H83990   6.618  10.946   0.998  1.4022 -1.5250 -1.7264
  609MOL0     H83991   6.838  10.829   0.971 -2.3909  1.9942  2.9315
  609MOL0     H83992   7.042  10.764   0.794 -1.1942  1.0731 -1.9639
  609MOL0     H83993   7.159  10.890   0.862  2.5187 -0.3009 -1.4833
  609MOL0     H83994   7.052  10.933   0.577 -1.9912  1.3175  2.5712
  609MOL0     H83995   7.211  10.973   0.643  1.0920  0.5751  2.2253
  609MOL0     H83996   7.127  10.693   0.611  1.4290 -0.8975  1.0375
  609MOL0     H83997   7.223  10.770   0.491  0.5129 -4.6850 -0.4464
  609MOL0     H83998   7.287  10.692   0.782  1.8823 -3.9232 -0.5455
  609MOL0     H83999   7.368  10.640   0.650  1.4078  0.5058  0.0497
  609MOL0     H84000   7.634  10.893   0.570 -1.8305 -0.9708  0.9223
  609MOL0     H84001   7.966  10.969   0.667  0.1994  0.6526  0.6882
  609MOL0     H84002   7.875  10.907   0.532  0.1228  2.4676 -0.1697
  609MOL0     H84003   7.945  10.783   0.642  0.0340  1.2346  1.2308
  609MOL0     H84004   8.008  10.508   1.091 -1.1039  1.1213  0.0744
  609MOL0     H84005   8.208  10.426   1.195 -0.9854  0.5063  0.1867
  609MOL0     H84006   8.495  10.727   1.357  4.4408 -2.3323  0.9657
  609MOL0     H84007   8.372  10.733   1.492  1.8715 -0.5319  1.4739
  609MOL0     H84008   8.591  10.678   1.578  1.4170 -0.8127 -1.3891
  609MOL0     H84009   8.464  10.568   1.614  1.3690 -4.6944 -0.8481
  609MOL0     H84010   8.716  10.508   1.519 -0.9211 -0.2769 -0.3266
  609MOL0     H84011   8.632  10.502   1.364 -2.4434  1.2516 -0.4321
  609MOL0     H84012   8.456  10.338   1.498  1.1932 -1.0988  1.0549
  609MOL0     H84013   8.566  10.335   1.628 -5.2316 -3.7577  0.0106
  609MOL0     H84014   8.610  10.156   1.529  0.3671  1.2908  2.4031
  609MOL0     H84015   8.617  10.225   1.359  1.0243 -1.4467  0.3246
  609MOL0     H84016   8.815  10.241   1.601 -4.7080  1.1665  0.2390
  609MOL0     H84017   8.855  10.302   1.445 -0.0529  1.3993  1.8119
  609MOL0     H84018   8.816  10.066   1.339 -1.0026  2.5777 -0.3383
  609MOL0     H84019   8.794  10.006   1.504  2.1534  0.9631  4.7176
  609MOL0     H84020   9.025   9.964   1.420 -0.3834 -2.7283  4.3289
  609MOL0     H84021   9.008  10.053   1.574 -0.9564 -1.8119 -0.9743
  609MOL0     H84022   8.309  10.841   1.293  0.4123 -0.2243  1.5535
  609MOL0     H84023   8.128  10.919   1.163  1.4128 -0.1638 -2.7333
  609MOL0     H84024   7.691  10.734   1.033 -0.9640  3.1702  1.6089
  609MOL0     H84025   7.468  10.754   0.930 -1.6788 -0.1356 -2.6866
  609MOL0     H84026   5.673  10.982   0.520  2.1694  1.3691 -0.3364
  609MOL0     H84027   5.511  10.814   0.475 -2.9690 -1.1126  2.8831
  609MOL0     H84028   5.205  10.561   0.659  1.8695 -0.9759  1.2679
  609MOL0     H84029   5.007  10.434   0.641 -1.0978  0.8213 -0.8288
  609MOL0     H84030   4.992  10.064   0.441 -0.0245 -1.5488  1.7782
  609MOL0     H84031   4.988  10.152   0.594  3.0928 -1.0513 -1.3438
  609MOL0     H84032   4.749  10.152   0.599 -0.0544 -0.7904  1.2467
  609MOL0     H84033   4.773   9.995   0.550 -2.3580 -0.2237 -1.7999
  609MOL0     H84034   4.616  10.072   0.409 -0.5469  1.2720  0.9933
  609MOL0     H84035   4.693  10.227   0.372  3.9927 -0.4006  1.0045
  609MOL0     H84036   4.821   9.979   0.269 -1.0991 -0.3380 -0.8143
  609MOL0     H84037   4.846  10.155   0.224  0.1188 -0.2292 -0.0013
  609MOL0     H84038   4.513  10.026   0.001  0.1948 -2.2838  1.5237
  609MOL0     H84039   5.123  10.286   0.257 -0.6496 -1.4426  0.9783
  609MOL0     H84040   5.382  10.496   0.184 -1.2931 -0.9862 -2.1247
  609MOL0     H84041   5.447  10.351   0.255  0.0246 -0.3081  0.1318
  609MOL0     H84042   5.303  10.352   0.140  0.7101  3.8991 -3.2927
  610MOL0     O84043   9.411  10.438   8.570  0.1559  0.3725 -0.0911
  610MOL0     C84044   9.383  10.547   8.523  0.5832  1.0572  0.4246
  610MOL0     O84045   9.294  10.567   8.417  0.3025  0.5509  0.4065
  610MOL0     C84046   9.259  10.460   8.340  0.4015  0.6739  0.2185
  610MOL0     C84047   9.129  10.437   8.304  0.4080  1.6741  0.0938
  610MOL0     C84048   9.104  10.317   8.232  0.1070  0.1840  0.1128
  610MOL0     C84049   9.197  10.226   8.184  0.5013  0.4737  0.3692
  610MOL0     O84050   9.135  10.135   8.103  0.2112 -0.5587  0.2816
  610MOL0     C84051   9.219  10.070   8.006  0.2619  1.0009  0.6506
  610MOL0     C84052   9.259  10.159   7.890 -0.5726 -0.3536 -1.1212
  610MOL0     C84053   9.127  10.196   7.820 -0.7243 -0.5821 -0.9264
  610MOL0     C84054   9.111  10.347   7.832  0.0523  0.3018  0.1008
  610MOL0     C84055   8.978  10.378   7.764  1.3608  0.4486  0.7403
  610MOL0     C84056   8.924  10.518   7.805  0.2323  1.2074 -0.1281
  610MOL0     C84057   8.863  10.518   7.945 -0.3146  0.2761 -0.3036
  610MOL0     C84058   8.728  10.439   7.966  0.0093  1.1567  0.0378
  610MOL0     N84059   8.658  10.472   8.095  0.3291  0.7284 -0.1952
  610MOL0     C84060   8.524  10.507   8.114  0.7003  0.1741 -0.2656
  610MOL0     C84061   8.517  10.549   8.238  0.9162 -0.8477 -1.2522
  610MOL0     C84062   8.403  10.607   8.315  0.6009 -0.0746 -0.1747
  610MOL0     C84063   8.282  10.523   8.288  0.0425  0.2585 -0.6961
  610MOL0     C84064   8.162  10.579   8.367 -0.3798 -0.4913  0.6226
  610MOL0     C84065   8.047  10.483   8.378  0.6633 -0.2751 -0.3014
  610MOL0     O84066   8.003  10.435   8.255  0.0028 -0.0120 -0.0810
  610MOL0     C84067   7.898  10.488   8.192 -0.4003 -0.3875 -0.0433
  610MOL0     C84068   7.836  10.399   8.104  0.2764  1.3450 -0.0701
  610MOL0     C84069   7.732  10.430   8.018  0.2562  0.1117  0.4450
  610MOL0     C84070   7.692  10.315   7.921  0.1214  0.0924  0.2745
  610MOL0     C84071   7.681  10.561   8.024  0.1159  0.0575 -0.7298
  610MOL0     C84072   7.567  10.603   7.944  0.5045  0.2170 -0.2201
  610MOL0     O84073   7.476  10.516   7.896 -1.2036  0.2151  0.4437
  610MOL0     C84074   7.349  10.550   7.878 -0.1050  0.3873  0.2969
  610MOL0     C84075   7.304  10.594   7.758  1.1304  0.6242  0.3469
  610MOL0     C84076   7.166  10.638   7.738  0.1520 -0.7055 -0.5002
  610MOL0     C84077   7.070  10.627   7.839 -0.1605 -0.0381 -0.3770
  610MOL0     O84078   6.946  10.682   7.798 -0.2517 -0.3021  0.6685
  610MOL0     C84079   6.836  10.635   7.884  0.5862  0.1845  0.1480
  610MOL0     C84080   6.705  10.696   7.847  0.3038  0.7644  0.9466
  610MOL0     C84081   6.657  10.644   7.710  0.4083 -0.1711 -0.4194
  610MOL0     C84082   6.499  10.678   7.698 -0.1754  0.2897 -0.2255
  610MOL0     C84083   6.463  10.810   7.632  1.0177 -0.0070 -0.5911
  610MOL0     C84084   6.309  10.812   7.619  0.7856 -0.2958  0.0949
  610MOL0     C84085   6.278  10.924   7.523  0.1436 -0.4665 -0.4599
  610MOL0     C84086   6.256  11.058   7.587 -0.5606  0.0205 -0.2927
  610MOL0    Cl84087   6.319  11.181   7.472  0.1203  0.3516 -0.2180
  610MOL0     C84088   7.120  10.587   7.971 -0.4461  0.3702  0.2788
  610MOL0     C84089   7.257  10.554   7.981 -0.3171  0.1736 -0.1717
  610MOL0     O84090   7.567  10.725   7.931 -0.3086 -0.8423  0.3612
  610MOL0     C84091   7.739  10.650   8.113 -0.9122 -0.6654 -0.2093
  610MOL0     C84092   7.853  10.617   8.188 -0.7585  0.2973  0.5877
  610MOL0     N84093   8.647  10.538   8.288 -0.4802 -0.0953 -0.0514
  610MOL0     N84094   8.726  10.482   8.211  0.0965 -0.8542  0.1983
  610MOL0     C84095   9.332  10.256   8.211 -0.3463 -0.5236 -0.4825
  610MOL0     C84096   9.358  10.373   8.290  0.5533 -0.5290 -0.0867
  610MOL0     C84097   9.426  10.671   8.594  0.5407  0.7690  0.5318
  610MOL0     C84098   9.380  10.794   8.541  0.0472  1.0722 -0.3048
  610MOL0     C84099   9.416  10.914   8.600 -0.0895 -0.0472  0.3414
  610MOL0     C84100   9.493  10.918   8.715  0.5404  0.3827  0.2198
  610MOL0     O84101   9.528  11.030   8.777  1.1674 -0.0779 -0.5626
  610MOL0     C84102   9.414  11.125   8.799  0.0691  0.2555 -0.4298
  610MOL0     C84103   9.444  11.264   8.853  0.7144  0.5303  0.4719
  610MOL0     C84104   9.336  11.324   8.934  0.0522  0.1718 -0.2356
  610MOL0     C84105   9.391  11.452   9.003 -0.0756  0.1528 -0.4963
  610MOL0     C84106   9.479  11.425   9.117 -0.2386  0.0330 -0.2971
  610MOL0     C84107   9.549  11.412   9.214 -0.3392  0.5187  0.5251
  610MOL0     C84108   9.536  10.793   8.769 -0.5325  0.3666  0.3373
  610MOL0     C84109   9.501  10.674   8.716  0.5096 -0.2037  0.2797
  610MOL0     C84110   9.561  10.542   8.777  0.5542 -1.0009  0.1090
  610MOL0     H84111   9.049  10.489   8.356  0.1994 -0.0244  1.5614
  610MOL0     H84112   8.999  10.303   8.209  0.3072 -0.8954 -0.2078
  610MOL0     H84113   9.187   9.974   7.964  3.7687  1.2023 -3.1776
  610MOL0     H84114   9.316  10.040   8.047 -0.4605 -0.1756  1.5633
  610MOL0     H84115   9.308  10.252   7.919 -2.1039  0.8967 -2.3983
  610MOL0     H84116   9.329  10.113   7.819  1.7473 -0.9428  1.3930
  610MOL0     H84117   9.126  10.175   7.712  2.3175  0.3576 -1.2124
  610MOL0     H84118   9.041  10.135   7.849  0.6940 -3.4045 -2.2511
  610MOL0     H84119   9.110  10.363   7.941 -0.2929 -0.5912  0.2353
  610MOL0     H84120   9.195  10.405   7.793 -1.3699  2.7025  0.3873
  610MOL0     H84121   8.902  10.303   7.786 -0.1905  1.6575 -0.3451
  610MOL0     H84122   8.981  10.357   7.656 -0.4278 -0.8633  0.8929
  610MOL0     H84123   9.000  10.596   7.813  2.6918 -1.2201  2.4815
  610MOL0     H84124   8.846  10.547   7.733 -0.4253 -1.5931 -0.6395
  610MOL0     H84125   8.856  10.624   7.968  4.6678  1.4958 -2.9273
  610MOL0     H84126   8.938  10.476   8.012 -0.7025  0.2831  0.1428
  610MOL0     H84127   8.671  10.437   7.873 -0.7491  0.0788  0.5093
  610MOL0     H84128   8.768  10.339   7.981 -0.5054  0.4220 -2.9160
  610MOL0     H84129   8.458  10.494   8.029 -0.0826  0.3700  0.3029
  610MOL0     H84130   8.390  10.710   8.281 -0.3150 -0.0425  0.2370
  610MOL0     H84131   8.419  10.604   8.423 -4.7701  0.5145  0.9147
  610MOL0     H84132   8.264  10.498   8.183 -0.6408 -0.4815 -0.4080
  610MOL0     H84133   8.312  10.427   8.330 -0.7415  0.1158 -0.4609
  610MOL0     H84134   8.201  10.592   8.468  1.0683 -1.7767  0.2701
  610MOL0     H84135   8.129  10.672   8.320 -0.0881  0.0727  1.5131
  610MOL0     H84136   8.087  10.397   8.433  1.7893 -1.8516 -3.3576
  610MOL0     H84137   7.974  10.544   8.432  1.2344  1.1576 -1.0832
  610MOL0     H84138   7.880  10.300   8.093 -3.1927 -0.5863  1.8197
  610MOL0     H84139   7.710  10.217   7.965 -0.7707 -0.7862 -1.2086
  610MOL0     H84140   7.757  10.337   7.836  2.1517  3.9206  2.5684
  610MOL0     H84141   7.586  10.320   7.893  0.7661  1.3752 -2.2703
  610MOL0     H84142   7.376  10.589   7.677  0.5706  1.4802 -0.2182
  610MOL0     H84143   7.129  10.669   7.640  0.4558 -1.9296 -1.0192
  610MOL0     H84144   6.836  10.526   7.879  2.4447  0.2259 -3.3741
  610MOL0     H84145   6.861  10.676   7.982 -0.3581 -0.4516  0.6723
  610MOL0     H84146   6.633  10.667   7.924 -0.1776  1.0992  0.6225
  610MOL0     H84147   6.703  10.805   7.838  0.2539  0.6387 -0.9371
  610MOL0     H84148   6.674  10.537   7.693  0.6481  0.1021 -2.0617
  610MOL0     H84149   6.710  10.692   7.627  0.7932 -0.1552 -0.1657
  610MOL0     H84150   6.453  10.668   7.797  2.3305 -1.2079  0.8918
  610MOL0     H84151   6.454  10.592   7.647 -2.4463  1.9861 -1.2583
  610MOL0     H84152   6.508  10.884   7.700  5.9528 -0.6445 -2.7159
  610MOL0     H84153   6.520  10.812   7.539  2.5452 -4.8076 -0.0423
  610MOL0     H84154   6.254  10.821   7.713  0.4185  1.3514 -0.2392
  610MOL0     H84155   6.259  10.727   7.571 -0.4354  0.8965 -0.8424
  610MOL0     H84156   6.182  10.909   7.474 -1.1824  0.6628  1.6337
  610MOL0     H84157   6.354  10.921   7.444  1.0019  0.2916  0.3127
  610MOL0     H84158   6.317  11.079   7.676 -1.9478 -0.5286  0.8335
  610MOL0     H84159   6.154  11.081   7.618 -0.2562 -0.3278  1.0576
  610MOL0     H84160   7.053  10.589   8.057 -0.9633  0.8103 -0.1243
  610MOL0     H84161   7.290  10.528   8.081  2.6720 -1.1862 -1.3632
  610MOL0     H84162   7.707  10.753   8.121 -0.7150 -0.3977 -2.4007
  610MOL0     H84163   7.897  10.697   8.246  0.1312  1.3513 -1.4663
  610MOL0     H84164   9.409  10.179   8.201  1.2502  0.4803  2.7232
  610MOL0     H84165   9.460  10.402   8.313  1.7252 -2.8218 -1.9701
  610MOL0     H84166   9.327  10.792   8.447  0.4963 -1.1184 -0.5637
  610MOL0     H84167   9.387  11.014   8.567  1.8254  0.5071  0.2260
  610MOL0     H84168   9.341  11.138   8.718  1.0849 -0.9637 -1.5888
  610MOL0     H84169   9.355  11.083   8.881  1.5971  2.4593  1.9723
  610MOL0     H84170   9.476  11.321   8.765  1.1148  0.4540  0.5643
  610MOL0     H84171   9.526  11.247   8.924  1.4848 -0.6424 -0.6565
  610MOL0     H84172   9.247  11.355   8.879 -2.1143 -0.3949  2.7113
  610MOL0     H84173   9.282  11.262   9.005 -4.4972  2.5757 -1.2402
  610MOL0     H84174   9.299  11.503   9.033 -0.2636  0.2429 -1.1918
  610MOL0     H84175   9.441  11.517   8.931 -3.5711  1.5276 -1.9295
  610MOL0     H84176   9.607  11.403   9.303  1.4685 -4.2173 -0.8356
  610MOL0     H84177   9.612  10.795   8.848 -1.6427 -1.9382  1.5627
  610MOL0     H84178   9.613  10.497   8.692  1.5920  1.0908 -0.4180
  610MOL0     H84179   9.640  10.566   8.849  0.4253  0.1391 -0.1184
  610MOL0     H84180   9.490  10.470   8.820  1.7483 -3.5352 -1.8742
  611MOL0     O84181   9.911   2.833   4.781  0.3497 -0.7986 -0.2824
  611MOL0     C84182   9.874   2.946   4.747 -0.0937 -0.2276  0.3858
  611MOL0     O84183   9.892   3.062   4.821 -0.3224  0.6251  0.2357
  611MOL0     C84184   9.991   3.057   4.914 -0.6912 -0.0498  1.2083
  611MOL0     C84185   9.960   3.038   5.042 -0.7630  0.0946 -0.8232
  611MOL0     C84186  10.054   3.012   5.146 -0.3553  0.1310  0.4626
  611MOL0     C84187  10.187   3.016   5.110 -0.0080 -0.8546 -0.5433
  611MOL0     O84188  10.300   2.991   5.185  0.0629  0.7413 -0.3820
  611MOL0     C84189  10.323   2.846   5.200 -0.5711  0.3668  0.1306
  611MOL0     C84190  10.474   2.820   5.243  0.4857  0.2576  1.1301
  611MOL0     C84191  10.498   2.865   5.397  0.5970  0.5898  0.5142
  611MOL0     C84192  10.642   2.838   5.423 -0.0439 -1.0789  0.7199
  611MOL0     C84193  10.688   2.906   5.556  0.5401  0.1710  0.3899
  611MOL0     C84194  10.822   2.844   5.619  0.5071  0.1438 -0.0508
  611MOL0     C84195  10.933   2.870   5.517  1.0820  0.5946  0.5724
  611MOL0     C84196  10.950   3.015   5.460  0.0089 -0.1693 -0.0471
  611MOL0     N84197  11.056   3.021   5.356 -0.1019  0.4814 -0.1008
  611MOL0     C84198  11.187   3.049   5.384  0.0449 -0.8021 -0.0977
  611MOL0     C84199  11.232   3.055   5.257 -0.3223  0.3071 -0.6956
  611MOL0     C84200  11.380   3.085   5.238 -0.1083  0.3098 -0.2247
  611MOL0     C84201  11.464   2.954   5.204  0.3997 -0.4436  0.4673
  611MOL0     C84202  11.609   2.981   5.198  0.2873 -0.4041  0.1219
  611MOL0     C84203  11.695   2.867   5.129  0.3366  0.0308 -0.5831
  611MOL0     O84204  11.626   2.813   5.021  0.1309 -0.1629 -0.4319
  611MOL0     C84205  11.698   2.750   4.927  0.4472  0.5627 -0.6198
  611MOL0     C84206  11.693   2.761   4.789 -0.2902 -0.2943  0.4565
  611MOL0     C84207  11.776   2.687   4.698  0.3796 -0.4798  0.0467
  611MOL0     C84208  11.767   2.736   4.549  0.6431 -0.8288 -0.9577
  611MOL0     C84209  11.861   2.581   4.743 -0.0031  0.3299 -0.4640
  611MOL0     C84210  11.959   2.499   4.671 -0.4752  0.1333  0.5705
  611MOL0     O84211  12.048   2.415   4.741  0.3463  0.2335  0.3381
  611MOL0     C84212  12.110   2.308   4.685 -0.5069 -0.0355  0.2046
  611MOL0     C84213  12.099   2.251   4.553  0.4460  0.2198  0.5076
  611MOL0     C84214  12.178   2.135   4.520  0.3238 -0.8932  0.6865
  611MOL0     C84215  12.261   2.079   4.605 -0.6669  0.7973  0.7719
  611MOL0     O84216  12.327   1.969   4.562 -0.4587 -0.1316 -0.2955
  611MOL0     C84217  12.472   1.962   4.563 -0.0791  0.3044  0.2959
  611MOL0     C84218  12.543   1.920   4.435 -0.0278  0.8795  0.7612
  611MOL0     C84219  12.466   1.807   4.358 -0.7431 -0.9635 -0.3906
  611MOL0     C84220  12.521   1.782   4.207 -0.1390  0.2140 -0.0621
  611MOL0     C84221  12.665   1.713   4.214  0.6322  0.7670 -0.3726
  611MOL0     C84222  12.745   1.682   4.084 -0.3411 -0.3784 -0.2673
  611MOL0     C84223  12.869   1.589   4.091 -0.1351  0.5783  0.1488
  611MOL0     C84224  12.959   1.600   3.971 -0.6019 -0.2097 -0.0825
  611MOL0    Cl84225  13.064   1.746   3.973  0.5030 -0.2481 -0.4920
  611MOL0     C84226  12.271   2.135   4.739 -0.6877  0.0369  0.2804
  611MOL0     C84227  12.198   2.248   4.775 -0.2792 -0.1722  0.0981
  611MOL0     O84228  11.949   2.501   4.545 -0.8143  0.3405 -0.0474
  611MOL0     C84229  11.862   2.566   4.886  0.1830 -0.0999 -0.2766
  611MOL0     C84230  11.787   2.646   4.972 -0.2516 -0.7749 -0.0836
  611MOL0     N84231  11.141   2.995   5.172  0.9114  0.2950  0.7440
  611MOL0     N84232  11.032   2.968   5.232  0.1524 -0.8828  0.7197
  611MOL0     C84233  10.225   3.050   4.975  0.7668 -0.6674 -0.1860
  611MOL0     C84234  10.125   3.069   4.879  1.0712 -0.6661 -0.1667
  611MOL0     C84235   9.808   2.967   4.612  0.2519  0.3981 -0.8949
  611MOL0     C84236   9.835   2.867   4.509  0.6095  0.2182 -0.1050
  611MOL0     C84237   9.781   2.879   4.380 -0.7250 -0.6363  0.5038
  611MOL0     C84238   9.712   2.990   4.337 -0.5010 -0.1865  0.4648
  611MOL0     O84239   9.686   2.999   4.193  0.4035  0.1485 -0.8830
  611MOL0     C84240   9.584   3.097   4.149 -0.1199 -1.0439 -1.1169
  611MOL0     C84241   9.650   3.237   4.139  0.1222 -0.2006 -0.3223
  611MOL0     C84242   9.587   3.334   4.034 -0.7619 -0.4424  0.0658
  611MOL0     C84243   9.448   3.383   4.072 -1.3145  0.0842 -0.1822
  611MOL0     C84244   9.393   3.455   3.954 -1.0889  0.3009 -0.0588
  611MOL0     C84245   9.359   3.522   3.863 -0.5034  0.5446 -0.6105
  611MOL0     C84246   9.679   3.080   4.434  0.1570 -0.8076 -0.0870
  611MOL0     C84247   9.716   3.070   4.570  0.4602 -0.2278 -1.0775
  611MOL0     C84248   9.661   3.181   4.661  0.0885 -0.1535 -0.3327
  611MOL0     H84249   9.857   3.014   5.067 -0.1031 -1.8153  0.2986
  611MOL0     H84250  10.036   2.992   5.251  2.1750 -3.2802  0.4126
  611MOL0     H84251  10.304   2.798   5.103  0.1628 -3.7908  1.8069
  611MOL0     H84252  10.262   2.800   5.278 -0.8207  2.7788  1.4348
  611MOL0     H84253  10.489   2.712   5.240 -1.4930 -0.0485  1.2332
  611MOL0     H84254  10.553   2.865   5.182 -1.9630  2.9211 -0.3160
  611MOL0     H84255  10.486   2.973   5.398  3.3136  0.9713  1.2838
  611MOL0     H84256  10.426   2.814   5.461 -1.1356  1.7215 -0.4626
  611MOL0     H84257  10.656   2.730   5.409 -2.0157 -1.3922  0.8859
  611MOL0     H84258  10.697   2.885   5.341  0.0075  0.3309  1.5421
  611MOL0     H84259  10.610   2.895   5.632  1.5043 -1.1866  1.2386
  611MOL0     H84260  10.702   3.014   5.548  3.0737 -0.0899  0.4612
  611MOL0     H84261  10.848   2.898   5.710  3.5605 -2.2476  0.6730
  611MOL0     H84262  10.804   2.738   5.637  2.5083 -0.2880 -0.3473
  611MOL0     H84263  10.915   2.811   5.427 -0.8784  3.9926 -1.5121
  611MOL0     H84264  11.029   2.843   5.561  1.7616  2.2762  0.2060
  611MOL0     H84265  10.859   3.060   5.420  1.5223  3.3466  0.0549
  611MOL0     H84266  10.975   3.066   5.553  0.3317  0.9884 -0.7445
  611MOL0     H84267  11.244   3.070   5.474  0.4051  0.3460 -0.5681
  611MOL0     H84268  11.415   3.129   5.332  1.2557  0.9203 -0.9926
  611MOL0     H84269  11.402   3.165   5.167 -2.4999  0.5919 -0.7307
  611MOL0     H84270  11.443   2.877   5.279  2.1255 -0.7454  0.6832
  611MOL0     H84271  11.436   2.915   5.105  1.1754 -0.8916  0.4165
  611MOL0     H84272  11.616   3.075   5.142  0.7162 -0.6792 -0.2974
  611MOL0     H84273  11.644   3.010   5.297 -2.2940 -1.7318  1.5241
  611MOL0     H84274  11.790   2.900   5.086  0.7684  2.0523  1.6789
  611MOL0     H84275  11.713   2.793   5.208  2.2133  1.6865  0.6395
  611MOL0     H84276  11.629   2.842   4.754 -3.2021 -1.2480  3.1146
  611MOL0     H84277  11.867   2.731   4.505  1.4224 -0.3853  0.6694
  611MOL0     H84278  11.722   2.836   4.541 -0.4457 -1.1863  0.3965
  611MOL0     H84279  11.708   2.668   4.487 -0.7082 -0.7618  0.1988
  611MOL0     H84280  12.027   2.292   4.482 -0.2160  0.4297  1.2797
  611MOL0     H84281  12.168   2.098   4.419  0.9134  2.7272 -0.8304
  611MOL0     H84282  12.512   2.058   4.598  0.2398  0.7862 -1.2984
  611MOL0     H84283  12.497   1.892   4.643 -0.5211  2.2912  2.2755
  611MOL0     H84284  12.545   2.009   4.372  1.2077 -2.2403 -4.1397
  611MOL0     H84285  12.644   1.886   4.461  0.4044 -2.2746 -3.8228
  611MOL0     H84286  12.362   1.836   4.339 -0.1365  1.2748 -0.4901
  611MOL0     H84287  12.466   1.710   4.410  1.0121 -0.9764 -0.3733
  611MOL0     H84288  12.537   1.880   4.161  2.2733 -0.6018 -1.1695
  611MOL0     H84289  12.454   1.709   4.162  2.0810 -1.1806 -1.3129
  611MOL0     H84290  12.721   1.778   4.281 -0.0058  0.7197  0.2113
  611MOL0     H84291  12.639   1.627   4.276  2.8865  0.3104  0.0217
  611MOL0     H84292  12.783   1.774   4.038  3.0577 -1.9328 -0.8764
  611MOL0     H84293  12.677   1.640   4.009 -1.6808  4.5708 -2.2370
  611MOL0     H84294  12.844   1.486   4.118  1.8242  0.5239  1.9418
  611MOL0     H84295  12.925   1.615   4.181 -1.8496  2.6275  0.7359
  611MOL0     H84296  12.900   1.605   3.878  0.0879  0.0179 -0.5186
  611MOL0     H84297  13.022   1.511   3.959  0.4173  0.5410 -0.4908
  611MOL0     H84298  12.347   2.103   4.809  2.5718  0.1535 -2.9084
  611MOL0     H84299  12.205   2.299   4.870 -1.2846  1.2825 -0.5844
  611MOL0     H84300  11.921   2.481   4.918 -1.8825 -1.4317  0.1648
  611MOL0     H84301  11.787   2.611   5.075  0.2234 -1.8607 -0.4327
  611MOL0     H84302  10.329   3.051   4.943  0.3901  1.1217 -1.5304
  611MOL0     H84303  10.146   3.086   4.774 -2.9796  0.6318 -0.9340
  611MOL0     H84304   9.903   2.786   4.535  1.1077  0.4441 -0.6969
  611MOL0     H84305   9.809   2.798   4.313  1.6215  0.0993  0.5028
  611MOL0     H84306   9.544   3.080   4.049  2.2655  2.9208 -2.9878
  611MOL0     H84307   9.507   3.099   4.227  0.6175 -1.8270 -0.3462
  611MOL0     H84308   9.755   3.215   4.121 -0.8271 -4.2164 -2.0253
  611MOL0     H84309   9.645   3.285   4.237  2.9952 -0.3288 -0.0324
  611MOL0     H84310   9.659   3.416   4.036 -0.8605 -0.3178  3.3646
  611MOL0     H84311   9.591   3.290   3.934  1.8806  1.9846 -1.0168
  611MOL0     H84312   9.450   3.446   4.160  2.0362  0.0960 -0.1291
  611MOL0     H84313   9.390   3.292   4.093  1.5485 -1.5322  1.3137
  611MOL0     H84314   9.351   3.591   3.782  0.1239 -1.4950 -2.5306
  611MOL0     H84315   9.630   3.174   4.409 -3.6199 -1.6875  2.9891
  611MOL0     H84316   9.620   3.145   4.756 -2.2002  1.3042 -0.6958
  611MOL0     H84317   9.750   3.239   4.685 -0.9603  0.4579  2.4056
  611MOL0     H84318   9.581   3.235   4.609  0.3021 -1.1621 -1.7659
  612MOL0     O84319   3.724   9.837   7.300 -0.2504 -0.3909  0.8409
  612MOL0     C84320   3.756   9.948   7.253 -0.6830  0.7129 -0.2161
  612MOL0     O84321   3.709  10.071   7.302  0.8239 -0.6238 -0.7378
  612MOL0     C84322   3.649  10.071   7.423 -0.0162  0.1478  0.2366
  612MOL0     C84323   3.507  10.096   7.422  0.1329  0.0859  0.2913
  612MOL0     C84324   3.448  10.120   7.538 -0.4281 -0.6604  0.1300
  612MOL0     C84325   3.520  10.113   7.660 -0.1749 -0.3756  0.2562
  612MOL0     O84326   3.452  10.139   7.785  0.2006 -0.1347  0.3569
  612MOL0     C84327   3.509  10.064   7.898  0.3146 -0.4131 -0.3672
  612MOL0     C84328   3.412  10.088   8.010 -0.4927  0.2296 -0.9714
  612MOL0     C84329   3.265  10.051   7.976 -0.6224 -0.3100  0.1779
  612MOL0     C84330   3.240   9.906   7.933 -0.1426  0.2019 -0.2738
  612MOL0     C84331   3.099   9.888   7.861 -0.2599  0.1781 -0.3513
  612MOL0     C84332   3.097   9.755   7.799  1.4071 -0.2064 -0.3727
  612MOL0     C84333   2.963   9.721   7.733  0.2048 -0.1320  0.0733
  612MOL0     C84334   2.840   9.757   7.820  0.2870 -0.4212  0.2481
  612MOL0     N84335   2.708   9.730   7.763 -0.0522  0.1770  0.1562
  612MOL0     C84336   2.655   9.774   7.645 -0.3422  0.1031  0.4788
  612MOL0     C84337   2.524   9.722   7.648  0.5010 -0.3226  0.4711
  612MOL0     C84338   2.407   9.739   7.551  0.5546  0.0368  0.0612
  612MOL0     C84339   2.425   9.849   7.442  1.1206 -0.8185 -0.7645
  612MOL0     C84340   2.401   9.992   7.503 -0.1250 -0.7347  0.0970
  612MOL0     C84341   2.401  10.102   7.393  0.5636 -0.1278 -0.0832
  612MOL0     O84342   2.509  10.077   7.308  0.0628 -0.1137  0.6836
  612MOL0     C84343   2.504  10.176   7.209  1.2297 -0.7211 -0.6494
  612MOL0     C84344   2.456  10.154   7.086  0.4172  0.5335  0.2077
  612MOL0     C84345   2.451  10.255   6.985 -0.2108  0.7309  0.1803
  612MOL0     C84346   2.404  10.211   6.849  0.8196 -0.0089  0.1143
  612MOL0     C84347   2.512  10.381   7.010  0.2764  0.9501 -0.4556
  612MOL0     C84348   2.521  10.474   6.903 -1.1674 -0.3048  1.0445
  612MOL0     O84349   2.647  10.532   6.886  0.2238 -0.2505  0.2237
  612MOL0     C84350   2.682  10.592   6.772  0.9662 -0.3645  0.7524
  612MOL0     C84351   2.802  10.667   6.770  0.8144  0.6144 -0.1386
  612MOL0     C84352   2.850  10.729   6.660  1.3625 -0.0334  0.6841
  612MOL0     C84353   2.780  10.716   6.541 -0.3922 -0.1037 -0.2393
  612MOL0     O84354   2.833  10.788   6.437  0.1077  0.6442  0.4982
  612MOL0     C84355   2.743  10.813   6.322 -0.8394 -0.6851  0.0737
  612MOL0     C84356   2.822  10.907   6.232 -0.0512 -0.3525 -0.1283
  612MOL0     C84357   2.749  10.973   6.123  0.5355  0.2073  0.9081
  612MOL0     C84358   2.656  11.083   6.166  0.2425 -0.9492 -0.8337
  612MOL0     C84359   2.549  11.124   6.067 -0.5455  0.0105 -0.1778
  612MOL0     C84360   2.452  11.237   6.120  0.0819 -0.3802 -0.2378
  612MOL0     C84361   2.353  11.282   6.007 -0.7674 -0.9919  0.2675
  612MOL0     C84362   2.253  11.372   6.075 -0.8497 -0.1864  0.2872
  612MOL0    Cl84363   2.190  11.505   5.958 -0.5210  0.2771 -0.2396
  612MOL0     C84364   2.663  10.645   6.536 -0.1129  0.2028 -1.1061
  612MOL0     C84365   2.615  10.585   6.646 -0.1694 -0.2755 -0.7798
  612MOL0     O84366   2.428  10.498   6.830 -0.2604 -0.1411 -1.4698
  612MOL0     C84367   2.552  10.408   7.145  0.0775 -0.8741  0.0981
  612MOL0     C84368   2.548  10.310   7.238 -0.9933  0.0652 -0.6594
  612MOL0     N84369   2.515   9.634   7.758 -1.4221 -0.6229 -0.5238
  612MOL0     N84370   2.619   9.653   7.834 -1.0920 -0.6010  0.8061
  612MOL0     C84371   3.665  10.093   7.653 -0.6137  0.4518  0.0946
  612MOL0     C84372   3.735  10.088   7.530 -0.2993  0.9926  0.2283
  612MOL0     C84373   3.796   9.942   7.113  0.1104 -0.5896  0.4499
  612MOL0     C84374   3.704  10.010   7.019  0.9811 -0.3367  0.1302
  612MOL0     C84375   3.741  10.013   6.884  0.4125  0.8143 -0.0193
  612MOL0     C84376   3.847   9.932   6.836 -0.0915 -0.5538 -0.6392
  612MOL0     O84377   3.850   9.918   6.700  0.2714 -0.0145 -0.2094
  612MOL0     C84378   3.937   9.830   6.632  0.5114 -0.4855 -0.4589
  612MOL0     C84379   3.861   9.756   6.526 -0.5468  0.0252 -0.3326
  612MOL0     C84380   3.817   9.857   6.432  0.0833  0.0355  0.2105
  612MOL0     C84381   3.742   9.788   6.307  0.5045  0.1550  0.0417
  612MOL0     C84382   3.685   9.897   6.220  0.1606 -0.0894 -0.3508
  612MOL0     C84383   3.648   9.966   6.128 -0.0010 -1.0343 -0.3706
  612MOL0     C84384   3.932   9.872   6.925  0.3456  0.3580 -0.5732
  612MOL0     C84385   3.914   9.887   7.065 -0.2704 -0.3395 -0.6321
  612MOL0     C84386   4.011   9.817   7.156 -0.8730 -1.3793 -0.5727
  612MOL0     H84387   3.446  10.104   7.332 -2.8646 -0.9964  2.0922
  612MOL0     H84388   3.341  10.141   7.543 -1.1723 -3.8581 -0.2274
  612MOL0     H84389   3.612  10.092   7.924  0.2532 -1.9702  1.8063
  612MOL0     H84390   3.512   9.958   7.872  1.5588  0.0841 -2.5296
  612MOL0     H84391   3.450  10.025   8.091 -0.6535 -1.0068 -1.8257
  612MOL0     H84392   3.423  10.193   8.038 -0.6755  0.9197 -3.2256
  612MOL0     H84393   3.207  10.084   8.063  0.2831 -0.5171  0.8771
  612MOL0     H84394   3.232  10.105   7.886 -0.3270  2.5049  1.6449
  612MOL0     H84395   3.318   9.868   7.866 -1.0836  0.1626 -1.3943
  612MOL0     H84396   3.250   9.840   8.020 -0.3401  0.3247 -0.1564
  612MOL0     H84397   3.081   9.967   7.787  0.1933 -1.8139 -2.7119
  612MOL0     H84398   3.023   9.889   7.940  1.5287 -0.8179  1.4823
  612MOL0     H84399   3.176   9.762   7.723  2.4104 -0.5022  0.6181
  612MOL0     H84400   3.128   9.675   7.867 -1.5826 -1.1251  0.0633
  612MOL0     H84401   2.958   9.615   7.707 -0.6217  0.0557 -0.5894
  612MOL0     H84402   2.954   9.780   7.642 -1.9789 -1.5814 -0.7373
  612MOL0     H84403   2.851   9.702   7.914  0.7497  0.0458  0.4707
  612MOL0     H84404   2.837   9.863   7.847 -0.5790 -0.7626  1.6484
  612MOL0     H84405   2.695   9.850   7.578 -0.0955 -2.0455 -1.9791
  612MOL0     H84406   2.321   9.749   7.619 -1.5128  0.1884 -2.4176
  612MOL0     H84407   2.382   9.649   7.493 -1.0446 -0.2347  1.1084
  612MOL0     H84408   2.530   9.856   7.411  2.3712  0.1002  3.2073
  612MOL0     H84409   2.357   9.830   7.358 -1.5358  2.3200  0.4623
  612MOL0     H84410   2.304   9.986   7.553 -0.9744 -0.2502 -1.4387
  612MOL0     H84411   2.474  10.012   7.582  0.7550 -3.2794  0.0490
  612MOL0     H84412   2.309  10.089   7.336  0.4738 -2.9105  0.5576
  612MOL0     H84413   2.399  10.194   7.452  1.0818 -1.4120  2.0172
  612MOL0     H84414   2.411  10.057   7.067  2.4257 -0.4567  0.1954
  612MOL0     H84415   2.402  10.102   6.837  3.9759  0.1391 -4.2070
  612MOL0     H84416   2.466  10.253   6.769 -0.4938  1.4763 -0.1703
  612MOL0     H84417   2.308  10.261   6.833  2.0813  3.4665  2.1836
  612MOL0     H84418   2.846  10.671   6.870  0.1122 -1.7469  0.3271
  612MOL0     H84419   2.948  10.773   6.671  2.3064 -0.9322 -2.9038
  612MOL0     H84420   2.720  10.722   6.265  0.4601 -2.0585  1.6255
  612MOL0     H84421   2.660  10.869   6.366  0.4571  1.8791 -0.5672
  612MOL0     H84422   2.858  10.989   6.294 -1.3110  0.4764 -0.4515
  612MOL0     H84423   2.914  10.854   6.203 -0.2380 -1.8688  1.8457
  612MOL0     H84424   2.686  10.898   6.074 -1.0959  0.6500  2.2280
  612MOL0     H84425   2.812  11.022   6.049 -1.5947  2.9545  0.7570
  612MOL0     H84426   2.722  11.167   6.189  0.9889 -1.7070 -0.1692
  612MOL0     H84427   2.609  11.065   6.263 -0.6285  0.7136 -0.9092
  612MOL0     H84428   2.591  11.148   5.969  2.5409 -0.5270  0.9294
  612MOL0     H84429   2.492  11.030   6.066 -2.9735  1.3303  1.6861
  612MOL0     H84430   2.519  11.316   6.153  0.7778 -1.7821  1.9408
  612MOL0     H84431   2.406  11.196   6.211  1.7416 -2.7436 -0.3571
  612MOL0     H84432   2.312  11.199   5.950 -2.4406 -1.3739  1.9657
  612MOL0     H84433   2.403  11.355   5.941 -2.0425 -2.7809 -2.9160
  612MOL0     H84434   2.292  11.424   6.163 -0.1956 -0.0406 -0.0827
  612MOL0     H84435   2.174  11.301   6.103 -1.4062  1.2155  2.4887
  612MOL0     H84436   2.597  10.645   6.450 -2.8311  1.5624  0.8475
  612MOL0     H84437   2.528  10.523   6.625 -0.0974  0.3201 -3.1102
  612MOL0     H84438   2.604  10.504   7.153 -1.4148 -0.1047  0.8323
  612MOL0     H84439   2.602  10.334   7.330 -1.9333 -1.8393  0.4657
  612MOL0     H84440   3.731  10.104   7.738  0.8005  1.0809 -1.0347
  612MOL0     H84441   3.844  10.085   7.532 -0.1922  1.8284 -1.7561
  612MOL0     H84442   3.608  10.046   7.054 -0.0246 -1.0749 -1.7388
  612MOL0     H84443   3.661  10.059   6.827  1.0709  2.3175  0.2303
  612MOL0     H84444   4.016   9.891   6.586  0.8808  0.8708  1.8433
  612MOL0     H84445   3.993   9.762   6.696  0.2361 -2.4573 -2.1857
  612MOL0     H84446   3.772   9.714   6.573 -0.1243 -0.3770  0.1263
  612MOL0     H84447   3.922   9.677   6.482 -2.0635 -0.6254 -1.3395
  612MOL0     H84448   3.743   9.925   6.475 -0.8707 -0.8025 -0.0732
  612MOL0     H84449   3.908   9.910   6.402 -0.2909  1.4277  1.4375
  612MOL0     H84450   3.658   9.725   6.339  1.0776 -1.2970 -1.2174
  612MOL0     H84451   3.816   9.747   6.238  0.6968  4.1630 -2.5088
  612MOL0     H84452   3.611   9.999   6.033 -0.7386 -5.7520 -1.9698
  612MOL0     H84453   4.003   9.798   6.890  1.1923  0.7319  0.3095
  612MOL0     H84454   3.971   9.716   7.171  1.7062 -2.2733  1.0584
  612MOL0     H84455   4.113   9.824   7.118 -0.1511  4.5907  1.4023
  612MOL0     H84456   4.018   9.861   7.256 -1.2511 -2.3530 -0.1014
  613MOL0     O84457   9.603   9.593   0.322 -0.1504  0.2361  0.3766
  613MOL0     C84458   9.564   9.666   0.239 -0.8309 -0.9541  1.1462
  613MOL0     O84459   9.449   9.744   0.248  0.2241  0.3558  0.6740
  613MOL0     C84460   9.349   9.724   0.347  0.0386 -0.1811  0.3782
  613MOL0     C84461   9.219   9.776   0.327 -1.0764 -0.2794 -0.1065
  613MOL0     C84462   9.117   9.754   0.413 -0.3214  0.7440  0.2117
  613MOL0     C84463   9.133   9.679   0.531 -0.4714  0.2262 -0.2128
  613MOL0     O84464   9.034   9.634   0.618  0.4993 -0.2205  0.2326
  613MOL0     C84465   8.900   9.661   0.608 -0.8850 -0.3126 -0.0643
  613MOL0     C84466   8.869   9.778   0.705 -1.3036  0.5679  0.6916
  613MOL0     C84467   8.916   9.920   0.675  0.6817 -1.0262  0.2287
  613MOL0     C84468   8.842   9.980   0.553  0.1930  0.0013 -0.3189
  613MOL0     C84469   8.882  10.122   0.541  0.4520 -0.1799  0.7078
  613MOL0     C84470   8.803  10.214   0.631 -0.7152 -0.3508 -0.5913
  613MOL0     C84471   8.848  10.360   0.604  0.5947  0.5593  0.5401
  613MOL0     C84472   8.976  10.418   0.667 -0.2115  0.3720 -0.7418
  613MOL0     N84473   8.980  10.554   0.612 -0.4001  0.4243  0.2822
  613MOL0     C84474   8.886  10.651   0.651  0.5301 -0.1840 -0.2604
  613MOL0     C84475   8.909  10.754   0.562 -1.0787  0.1866  0.6411
  613MOL0     C84476   8.837  10.882   0.566  1.0539 -0.4790  1.2561
  613MOL0     C84477   8.908  10.974   0.676  0.5559 -0.1512  0.2612
  613MOL0     C84478   8.838  11.114   0.688  0.2563  0.7839 -0.0392
  613MOL0     C84479   8.947  11.210   0.740 -0.9796 -0.0601  0.3933
  613MOL0     O84480   9.010  11.156   0.861  0.1068 -1.0951 -0.6090
  613MOL0     C84481   9.146  11.165   0.882 -0.3334  0.6109  0.3017
  613MOL0     C84482   9.226  11.243   0.809 -0.5095  1.1787 -0.7325
  613MOL0     C84483   9.367  11.249   0.829  0.2999 -0.1447  0.5121
  613MOL0     C84484   9.448  11.340   0.732  1.1939 -0.1313  1.4649
  613MOL0     C84485   9.432  11.178   0.928 -0.9306  0.9456  0.1813
  613MOL0     C84486   9.578  11.169   0.962  0.8259 -1.1284 -0.1947
  613MOL0     O84487   9.643  11.288   0.969 -0.3167  0.8436 -0.1807
  613MOL0     C84488   9.777  11.260   0.981  0.5118  1.3382 -0.0868
  613MOL0     C84489   9.851  11.235   1.097  0.1141  0.3834  1.1582
  613MOL0     C84490   9.989  11.222   1.103  0.4277  0.5747 -0.2302
  613MOL0     C84491  10.068  11.237   0.988 -0.4254  0.1637  0.5648
  613MOL0     O84492  10.205  11.236   0.979  0.3391  0.5863 -1.0991
  613MOL0     C84493  10.277  11.137   1.065  0.6075 -0.3465 -0.3677
  613MOL0     C84494  10.393  11.074   0.991 -0.2133  0.7681  0.6473
  613MOL0     C84495  10.502  11.184   0.982  0.3027  0.4684 -0.8557
  613MOL0     C84496  10.636  11.124   0.940  0.3667  0.1076  0.1345
  613MOL0     C84497  10.733  11.216   0.862  0.1772  1.5058 -0.1145
  613MOL0     C84498  10.760  11.358   0.918  0.7741 -0.3987 -0.3229
  613MOL0     C84499  10.834  11.454   0.827  0.8199  1.4208  0.0797
  613MOL0     C84500  10.737  11.514   0.721 -0.1883 -0.7738  0.5170
  613MOL0    Cl84501  10.806  11.631   0.602  0.0822 -0.0464 -0.0570
  613MOL0     C84502   9.997  11.274   0.871 -0.9367 -0.6944 -0.2925
  613MOL0     C84503   9.857  11.282   0.870 -0.0455  0.6332  0.8422
  613MOL0     O84504   9.626  11.060   0.979 -0.1513  0.0285  0.3369
  613MOL0     C84505   9.345  11.099   1.008  0.2051 -0.8228  0.5093
  613MOL0     C84506   9.206  11.098   0.990 -0.8251 -0.1715 -0.6704
  613MOL0     N84507   9.020  10.718   0.481 -0.1365 -0.2702 -0.2056
  613MOL0     N84508   9.050  10.593   0.507  0.0132 -0.6211 -0.3586
  613MOL0     C84509   9.262   9.638   0.559 -0.2452  0.2199 -0.0602
  613MOL0     C84510   9.369   9.654   0.470 -0.1461  0.6067  0.3081
  613MOL0     C84511   9.645   9.676   0.116 -0.3159 -0.3072 -0.3396
  613MOL0     C84512   9.731   9.572   0.085  0.3702  0.1743 -0.5325
  613MOL0     C84513   9.836   9.595  -0.007  0.7863  0.5476 -0.1957
  613MOL0     C84514   9.840   9.707  -0.089 -0.3012 -0.2058  0.4569
  613MOL0     O84515   9.944   9.732  -0.172 -0.3538 -0.6364  0.7302
  613MOL0     C84516  10.064   9.658  -0.153  0.0883 -0.3991 -0.8218
  613MOL0     C84517  10.156   9.694  -0.269 -0.3827  0.3943  0.6400
  613MOL0     C84518  10.295   9.621  -0.252  0.1570  0.3964 -0.7413
  613MOL0     C84519  10.391   9.642  -0.370 -0.5171  0.5687  0.0493
  613MOL0     C84520  10.343   9.586  -0.501 -0.8810 -0.0494 -0.1285
  613MOL0     C84521  10.291   9.546  -0.603 -0.4940 -0.6939 -0.5643
  613MOL0     C84522   9.740   9.794  -0.085  0.5713 -0.6496 -0.2488
  613MOL0     C84523   9.649   9.791   0.023 -0.4777  0.0399 -0.2134
  613MOL0     C84524   9.568   9.921   0.036  0.4870 -1.2141 -0.0775
  613MOL0     H84525   9.207   9.824   0.231  0.5771  0.4504  0.0339
  613MOL0     H84526   9.014   9.785   0.395 -0.8878 -0.4953  1.1683
  613MOL0     H84527   8.844   9.573   0.642 -0.4633 -1.3739 -1.9976
  613MOL0     H84528   8.875   9.689   0.505  1.7870  1.3608 -0.3493
  613MOL0     H84529   8.760   9.783   0.704 -1.2443  2.4089  0.9680
  613MOL0     H84530   8.911   9.754   0.803  0.3740  1.6868  0.2917
  613MOL0     H84531   8.880   9.972   0.764  0.6390 -2.8203  1.3144
  613MOL0     H84532   9.025   9.930   0.664  0.4540  3.2716  0.1542
  613MOL0     H84533   8.877   9.934   0.460  1.8529  1.5942 -0.5403
  613MOL0     H84534   8.735   9.970   0.571  0.3995  0.3371  1.1645
  613MOL0     H84535   8.877  10.150   0.435  1.6266  1.1130  0.9659
  613MOL0     H84536   8.989  10.117   0.560  0.6209  2.4525  0.8602
  613MOL0     H84537   8.697  10.197   0.608 -1.8878  3.0688  1.4579
  613MOL0     H84538   8.810  10.186   0.736 -1.3185  0.4704 -0.3196
  613MOL0     H84539   8.756  10.413   0.630 -0.8145 -0.3636 -2.2133
  613MOL0     H84540   8.857  10.367   0.496  0.1793  0.0862  0.4692
  613MOL0     H84541   8.962  10.436   0.774 -2.2825  2.4523 -1.2721
  613MOL0     H84542   9.062  10.353   0.650  0.2230  1.1858 -1.7593
  613MOL0     H84543   8.804  10.651   0.723  1.3700 -0.5405  0.7248
  613MOL0     H84544   8.738  10.878   0.614  0.2827  4.0447  0.5390
  613MOL0     H84545   8.825  10.935   0.471  0.8834  0.9936  2.0597
  613MOL0     H84546   8.911  10.927   0.775  1.9755 -0.9330 -0.1237
  613MOL0     H84547   9.006  10.998   0.635  0.3856 -0.6461 -0.4614
  613MOL0     H84548   8.799  11.150   0.593  1.3822 -1.2200 -1.3115
  613MOL0     H84549   8.765  11.115   0.770  0.4233 -0.0461  0.1269
  613MOL0     H84550   9.016  11.232   0.658 -2.9630 -1.9366 -1.9106
  613MOL0     H84551   8.904  11.307   0.767 -0.0658  1.0734 -1.9297
  613MOL0     H84552   9.193  11.310   0.730 -0.9172  0.9708 -0.7415
  613MOL0     H84553   9.427  11.445   0.755  0.0103  0.9211 -3.2460
  613MOL0     H84554   9.405  11.324   0.632  2.1768  1.3080  0.7747
  613MOL0     H84555   9.555  11.318   0.735  1.3336 -0.1586 -1.0608
  613MOL0     H84556   9.792  11.209   1.184 -4.6604  1.3717 -1.4594
  613MOL0     H84557  10.027  11.195   1.201 -3.4983 -1.4670  0.9513
  613MOL0     H84558  10.301  11.180   1.163  2.1161 -0.6759 -0.5743
  613MOL0     H84559  10.212  11.049   1.077 -2.2207  1.2700 -2.5868
  613MOL0     H84560  10.423  10.984   1.044  0.8362 -0.3448 -1.7191
  613MOL0     H84561  10.370  11.042   0.889  1.6642 -0.2220  0.4969
  613MOL0     H84562  10.523  11.229   1.080  2.4288 -1.7616 -0.2262
  613MOL0     H84563  10.479  11.262   0.909  2.2330 -0.0605 -2.0940
  613MOL0     H84564  10.620  11.032   0.885 -1.3988  0.3252  0.2356
  613MOL0     H84565  10.678  11.100   1.038 -0.9932 -2.1525  0.2208
  613MOL0     H84566  10.831  11.167   0.863 -1.8741 -3.1337 -0.2068
  613MOL0     H84567  10.688  11.219   0.762  0.6080  0.3158 -0.3598
  613MOL0     H84568  10.806  11.346   1.016 -1.2911  0.0121  0.7457
  613MOL0     H84569  10.660  11.393   0.943  1.1506  0.6510 -0.2695
  613MOL0     H84570  10.908  11.382   0.791  3.7241  3.9352  0.5598
  613MOL0     H84571  10.879  11.533   0.888  1.2547  0.3673  1.1592
  613MOL0     H84572  10.672  11.576   0.783  0.4381  1.0014 -0.5246
  613MOL0     H84573  10.683  11.443   0.658 -0.7543  0.4141 -0.3878
  613MOL0     H84574  10.050  11.288   0.777 -0.9483  1.0821 -0.0634
  613MOL0     H84575   9.804  11.296   0.776 -0.9363 -3.7458  0.4719
  613MOL0     H84576   9.391  11.037   1.084  0.4902 -2.0640 -0.6480
  613MOL0     H84577   9.143  11.050   1.065  0.6597 -1.2459 -0.0820
  613MOL0     H84578   9.269   9.584   0.654 -1.8691  0.4267  0.2023
  613MOL0     H84579   9.466   9.621   0.504 -0.2111  0.2167  0.1235
  613MOL0     H84580   9.725   9.483   0.147  1.4883  1.9929  2.4070
  613MOL0     H84581   9.895   9.504  -0.017  0.4799  0.3593 -0.3295
  613MOL0     H84582  10.112   9.694  -0.062  3.7564 -1.3742 -2.1911
  613MOL0     H84583  10.053   9.551  -0.131 -0.4340  0.0632  1.3965
  613MOL0     H84584  10.159   9.803  -0.265  1.3669  0.3488  4.5343
  613MOL0     H84585  10.121   9.660  -0.368 -0.6389  1.0116  0.5164
  613MOL0     H84586  10.348   9.665  -0.167  2.5416 -2.7867 -0.4263
  613MOL0     H84587  10.279   9.514  -0.236  2.8462 -0.5960 -3.7198
  613MOL0     H84588  10.486   9.595  -0.345  1.2556  3.3260 -0.9960
  613MOL0     H84589  10.420   9.746  -0.387  2.2357  0.3527  2.5481
  613MOL0     H84590  10.228   9.528  -0.689 -0.9634  2.1378 -0.9156
  613MOL0     H84591   9.748   9.879  -0.152 -2.3133  1.7118  2.1201
  613MOL0     H84592   9.582   9.992  -0.046 -0.5388 -4.3543 -3.2427
  613MOL0     H84593   9.461   9.897   0.033 -0.9866  3.6629  2.6381
  613MOL0     H84594   9.582   9.979   0.127 -1.7845  0.7549 -0.8655
  614MOL0     O84595   7.078   6.773   9.618 -0.4132  1.0155  0.0347
  614MOL0     C84596   7.146   6.669   9.632 -0.0032  0.3642 -0.5201
  614MOL0     O84597   7.138   6.591   9.747  0.5997  0.3341 -0.0947
  614MOL0     C84598   7.101   6.638   9.867  0.6412 -0.2813 -1.2908
  614MOL0     C84599   7.180   6.719   9.942  0.4331  0.0444  0.0229
  614MOL0     C84600   7.117   6.775  10.058 -0.4477 -0.2249  1.0162
  614MOL0     C84601   6.998   6.716  10.111 -0.2627 -0.2502 -0.8544
  614MOL0     O84602   6.926   6.746  10.223  0.4391  0.4124 -0.2764
  614MOL0     C84603   6.984   6.854  10.298  0.8496 -0.2018 -0.2770
  614MOL0     C84604   6.904   6.875  10.425  0.0420 -1.0553  0.2604
  614MOL0     C84605   6.767   6.936  10.387  0.2686  0.4204  1.5048
  614MOL0     C84606   6.715   7.016  10.509  0.5160 -0.5978 -0.2327
  614MOL0     C84607   6.592   7.106  10.478 -0.7718 -0.7109 -0.2085
  614MOL0     C84608   6.475   7.039  10.409  0.0995 -1.0983 -0.4018
  614MOL0     C84609   6.345   7.098  10.437 -0.6753 -0.2221  0.5882
  614MOL0     C84610   6.242   7.015  10.515 -0.3208  0.1672  0.4869
  614MOL0     N84611   6.128   7.106  10.564  0.0533  0.2078 -0.1033
  614MOL0     C84612   6.004   7.064  10.582 -0.0324 -0.0458 -0.2658
  614MOL0     C84613   5.929   7.177  10.609  0.7849 -0.7214  0.0239
  614MOL0     C84614   5.780   7.163  10.616 -1.0846  0.3272 -0.3822
  614MOL0     C84615   5.719   7.249  10.735  1.1211 -0.1903 -1.1818
  614MOL0     C84616   5.573   7.269  10.717 -0.8838  0.6260 -0.6436
  614MOL0     C84617   5.482   7.141  10.694 -0.3313 -0.0537 -0.5661
  614MOL0     O84618   5.340   7.180  10.671 -0.7895 -0.4344 -0.2056
  614MOL0     C84619   5.241   7.090  10.719 -0.1936  0.2390 -0.1908
  614MOL0     C84620   5.272   6.958  10.757  0.5859  0.1000  0.4995
  614MOL0     C84621   5.165   6.871  10.794 -0.9032  0.1916  0.4703
  614MOL0     C84622   5.201   6.724  10.833  0.0259  0.0316  1.0980
  614MOL0     C84623   5.032   6.916  10.790  0.1016  0.2945  0.5015
  614MOL0     C84624   4.912   6.847  10.831 -0.7987 -0.0247  0.5843
  614MOL0     O84625   4.818   6.918  10.900 -0.4650  0.2907  0.3715
  614MOL0     C84626   4.725   6.862  10.977  0.0865  0.2053 -0.5741
  614MOL0     C84627   4.628   6.956  11.022 -0.1738  1.1551 -0.1546
  614MOL0     C84628   4.547   6.918  11.131  0.5476  0.3953  0.4187
  614MOL0     C84629   4.560   6.790  11.190  1.0976 -0.3026 -0.4210
  614MOL0     O84630   4.473   6.751  11.287  0.8583 -0.3742 -0.6426
  614MOL0     C84631   4.377   6.833  11.352 -0.3907 -1.2470 -0.3617
  614MOL0     C84632   4.248   6.838  11.283  0.1123  0.3291 -0.2372
  614MOL0     C84633   4.123   6.899  11.360  0.2785  0.4936 -0.1467
  614MOL0     C84634   4.002   6.802  11.344 -1.0724  0.6184 -0.9931
  614MOL0     C84635   3.880   6.881  11.352  0.2419 -0.0111  0.3227
  614MOL0     C84636   3.758   6.785  11.360 -0.1305 -0.3091  0.0140
  614MOL0     C84637   3.622   6.852  11.338 -0.1386 -0.0468  0.1111
  614MOL0     C84638   3.576   6.939  11.455  0.2046  0.2710  0.4003
  614MOL0    Cl84639   3.540   6.848  11.597  0.1801  0.0791 -0.3450
  614MOL0     C84640   4.645   6.694  11.147 -0.5368  0.2125  0.6498
  614MOL0     C84641   4.730   6.734  11.044 -0.1779  0.4968  0.7255
  614MOL0     O84642   4.903   6.734  10.800  0.4688  0.9464 -0.3799
  614MOL0     C84643   5.009   7.052  10.748  0.4764  0.3531  0.0377
  614MOL0     C84644   5.111   7.129  10.709  0.5083  0.3670  0.4026
  614MOL0     N84645   6.009   7.285  10.603 -0.0682 -0.6256 -0.8207
  614MOL0     N84646   6.128   7.238  10.592 -0.3894  0.2641 -0.3680
  614MOL0     C84647   6.938   6.610  10.046 -0.3735  0.3109  0.5416
  614MOL0     C84648   6.987   6.582   9.915 -0.2525  0.0428  0.2931
  614MOL0     C84649   7.218   6.610   9.521  1.1256  0.6837 -0.7376
  614MOL0     C84650   7.146   6.531   9.429 -0.5639  1.0478 -0.1997
  614MOL0     C84651   7.213   6.499   9.310  0.2849 -0.4032 -0.6138
  614MOL0     C84652   7.344   6.531   9.279 -0.1932  0.6521 -0.0805
  614MOL0     O84653   7.425   6.487   9.183  0.5829  0.0109 -0.3009
  614MOL0     C84654   7.400   6.367   9.112  0.3520  0.8817 -0.6069
  614MOL0     C84655   7.413   6.239   9.200  0.6842  0.0722  0.7070
  614MOL0     C84656   7.379   6.120   9.101  0.4026  0.4900 -0.1572
  614MOL0     C84657   7.312   6.004   9.186  0.2120  0.4462 -0.4500
  614MOL0     C84658   7.264   5.893   9.110  0.0597 -0.3295  0.4092
  614MOL0     C84659   7.231   5.804   9.030 -0.6515  0.0030 -0.1253
  614MOL0     C84660   7.416   6.587   9.387 -0.3494  0.0729 -0.1332
  614MOL0     C84661   7.353   6.622   9.507 -0.7011 -0.4631  0.2137
  614MOL0     C84662   7.435   6.695   9.610 -0.0972  0.2677 -1.5894
  614MOL0     H84663   7.272   6.765   9.908  0.8004 -1.2589 -0.8411
  614MOL0     H84664   7.161   6.854  10.118  0.5949  1.8861 -2.2592
  614MOL0     H84665   6.987   6.934  10.223 -1.2720 -2.7122 -3.3392
  614MOL0     H84666   7.079   6.816  10.336  1.9625  2.8886  0.3030
  614MOL0     H84667   6.890   6.789  10.492 -1.0139 -0.3227  1.0092
  614MOL0     H84668   6.964   6.941  10.487  0.6488  0.9007 -2.2563
  614MOL0     H84669   6.780   7.011  10.308 -0.1711  0.4838  1.4864
  614MOL0     H84670   6.700   6.858  10.350  0.8654  1.2640 -1.6948
  614MOL0     H84671   6.690   6.938  10.581 -2.1613 -0.9491 -1.4071
  614MOL0     H84672   6.802   7.065  10.553  0.8497 -0.8884 -0.5631
  614MOL0     H84673   6.629   7.195  10.426 -4.5997  0.4960 -1.1713
  614MOL0     H84674   6.549   7.147  10.570  0.6373 -0.8820  0.5625
  614MOL0     H84675   6.493   7.056  10.302 -1.7400  2.4100 -0.3041
  614MOL0     H84676   6.479   6.932  10.430  0.6368 -0.9431  0.3283
  614MOL0     H84677   6.294   7.108  10.341  2.4275 -1.5684 -1.3865
  614MOL0     H84678   6.366   7.191  10.489  2.3653 -0.3596 -0.1669
  614MOL0     H84679   6.212   6.926  10.460  4.6346 -2.4416  1.4171
  614MOL0     H84680   6.295   6.976  10.603 -1.2068  1.5935  1.7126
  614MOL0     H84681   5.962   6.964  10.572  1.8428 -0.7182 -2.2405
  614MOL0     H84682   5.752   7.058  10.630 -0.5533 -0.0211 -1.7896
  614MOL0     H84683   5.739   7.209  10.525 -3.7627 -3.3035 -1.2439
  614MOL0     H84684   5.734   7.196  10.830 -2.1424 -2.3976 -1.7450
  614MOL0     H84685   5.767   7.346  10.755 -2.9545  2.0213 -0.8498
  614MOL0     H84686   5.539   7.312  10.812 -1.6353  0.9416 -1.0477
  614MOL0     H84687   5.563   7.330  10.627  1.6350 -0.7002 -1.9206
  614MOL0     H84688   5.525   7.087  10.609 -0.8513  1.8770 -2.1516
  614MOL0     H84689   5.495   7.085  10.787 -0.0249 -0.5455 -0.9023
  614MOL0     H84690   5.369   6.909  10.750  0.0386 -1.2680  1.9138
  614MOL0     H84691   5.125   6.701  10.908 -0.7438  0.6569  0.5338
  614MOL0     H84692   5.299   6.698  10.874 -1.5111 -3.6903  2.8109
  614MOL0     H84693   5.183   6.653  10.752  0.2254 -4.4370  4.5679
  614MOL0     H84694   4.607   7.055  10.984 -0.8855  0.5588 -1.3452
  614MOL0     H84695   4.466   6.982  11.163 -0.4223 -0.2775 -0.6121
  614MOL0     H84696   4.371   6.807  11.458  0.2189  0.8407  0.2385
  614MOL0     H84697   4.413   6.935  11.371  0.1602 -1.0262 -2.3245
  614MOL0     H84698   4.267   6.877  11.183  2.8585  3.7997  1.3833
  614MOL0     H84699   4.239   6.730  11.276 -0.5601  0.5032 -3.1706
  614MOL0     H84700   4.098   6.994  11.312 -0.4778 -0.2626 -1.3015
  614MOL0     H84701   4.141   6.914  11.466 -2.3706  2.3754  0.1272
  614MOL0     H84702   3.987   6.721  11.417 -1.6413  1.4060 -0.2235
  614MOL0     H84703   4.011   6.757  11.244 -0.2242  3.3086 -2.2090
  614MOL0     H84704   3.877   6.942  11.443 -2.8011  3.8579 -2.0653
  614MOL0     H84705   3.878   6.946  11.265 -0.4312 -1.0531 -0.4679
  614MOL0     H84706   3.750   6.760  11.466 -1.0309  0.6589  0.1939
  614MOL0     H84707   3.767   6.696  11.297 -0.8692 -1.0929  0.9771
  614MOL0     H84708   3.549   6.777  11.307  1.0355  0.0744 -3.5313
  614MOL0     H84709   3.620   6.918  11.250 -2.3502  3.3858  2.5052
  614MOL0     H84710   3.495   7.001  11.416 -1.5448 -1.5010  1.0641
  614MOL0     H84711   3.663   7.002  11.478  0.2647  1.0521 -1.7431
  614MOL0     H84712   4.650   6.600  11.201  3.6000 -0.3107 -0.3119
  614MOL0     H84713   4.806   6.659  11.026  1.7459  2.2123  1.3523
  614MOL0     H84714   4.917   7.110  10.752  0.0265 -0.0250 -2.6781
  614MOL0     H84715   5.089   7.229  10.675 -0.7654 -0.6132 -1.9391
  614MOL0     H84716   6.847   6.564  10.085 -1.2655  0.9016 -0.7605
  614MOL0     H84717   6.943   6.514   9.843  1.8259 -0.6114 -0.4239
  614MOL0     H84718   7.046   6.495   9.452  0.3412  0.9264  4.5662
  614MOL0     H84719   7.164   6.441   9.232  2.0898  2.6595 -4.3696
  614MOL0     H84720   7.302   6.360   9.066  0.8594 -2.2144 -1.4145
  614MOL0     H84721   7.481   6.368   9.038 -0.9975 -0.4847 -2.1677
  614MOL0     H84722   7.343   6.246   9.284 -0.6518 -0.1420 -0.3603
  614MOL0     H84723   7.517   6.224   9.231  0.7392  0.6540  0.8112
  614MOL0     H84724   7.305   6.141   9.023  0.9877 -0.8091 -1.0896
  614MOL0     H84725   7.476   6.089   9.062 -1.0665 -1.4203 -2.5643
  614MOL0     H84726   7.232   6.031   9.256 -0.1573 -2.5791  0.4211
  614MOL0     H84727   7.378   5.953   9.257 -3.4167 -1.3201  1.9788
  614MOL0     H84728   7.200   5.730   8.959  2.1796 -0.6841 -0.7850
  614MOL0     H84729   7.524   6.577   9.381 -0.4038 -0.7822  0.1714
  614MOL0     H84730   7.538   6.712   9.577  1.0853  0.5940  1.9242
  614MOL0     H84731   7.400   6.792   9.647 -1.2888 -1.4798  2.4464
  614MOL0     H84732   7.450   6.644   9.705 -0.2207  2.9095 -0.0642
  615MOL0     O84733   0.211   6.364   4.861  0.3095  0.4447 -0.1279
  615MOL0     C84734   0.191   6.289   4.948 -0.2323  0.4669 -0.4776
  615MOL0     O84735   0.230   6.157   4.951 -0.3598  0.3618 -0.2724
  615MOL0     C84736   0.243   6.092   4.830  0.2793  0.4412  0.5133
  615MOL0     C84737   0.195   6.126   4.699 -0.1020 -0.6936 -0.9300
  615MOL0     C84738   0.233   6.054   4.588 -0.7073 -0.3976  0.4713
  615MOL0     C84739   0.302   5.931   4.597  0.7343  0.3196  0.1586
  615MOL0     O84740   0.324   5.874   4.480 -0.0829  0.1013 -0.6953
  615MOL0     C84741   0.285   5.735   4.477 -1.0878 -0.5557 -0.2516
  615MOL0     C84742   0.154   5.676   4.509 -0.3039  0.0275  0.0847
  615MOL0     C84743   0.109   5.678   4.658  0.0357 -0.7775  1.1897
  615MOL0     C84744  -0.011   5.583   4.688  0.2486 -0.3316  0.4992
  615MOL0     C84745  -0.150   5.639   4.683 -0.6136  0.0794  0.0285
  615MOL0     C84746  -0.255   5.524   4.714 -0.7612 -0.8962 -0.5811
  615MOL0     C84747  -0.398   5.572   4.683  0.2788  0.0549  0.0760
  615MOL0     C84748  -0.465   5.697   4.735 -0.5600 -0.1756 -0.2460
  615MOL0     N84749  -0.467   5.709   4.884  0.4594  0.2127  0.2593
  615MOL0     C84750  -0.582   5.717   4.957 -0.5310 -0.2461  0.2180
  615MOL0     C84751  -0.540   5.741   5.085  0.2309 -0.7172  0.0329
  615MOL0     C84752  -0.626   5.754   5.204  0.9035 -0.4360  0.9713
  615MOL0     C84753  -0.708   5.885   5.192  0.4156  0.2865  1.0892
  615MOL0     C84754  -0.754   5.920   5.333  0.0192  0.5020 -0.7068
  615MOL0     C84755  -0.833   6.051   5.331  0.3545 -0.0803 -0.2275
  615MOL0     O84756  -0.762   6.170   5.359  0.0488  0.1284  0.4067
  615MOL0     C84757  -0.754   6.265   5.253  0.2671 -0.5846  0.5588
  615MOL0     C84758  -0.815   6.250   5.125 -0.1511  0.1915  0.3942
  615MOL0     C84759  -0.785   6.341   5.014  0.5765 -0.5591  0.4453
  615MOL0     C84760  -0.861   6.315   4.877 -0.4469 -0.3328  0.1806
  615MOL0     C84761  -0.704   6.457   5.044  0.0495 -0.3898 -0.3797
  615MOL0     C84762  -0.673   6.571   4.952  0.5179 -0.3906 -0.3783
  615MOL0     O84763  -0.753   6.594   4.842  0.4579 -0.0962  0.1627
  615MOL0     C84764  -0.702   6.682   4.755 -0.1353 -0.2437  0.2148
  615MOL0     C84765  -0.593   6.640   4.672  0.6753 -0.1501 -0.2936
  615MOL0     C84766  -0.538   6.719   4.568 -0.2182  0.0100  0.4047
  615MOL0     C84767  -0.598   6.845   4.542  0.9964  0.1375 -0.2937
  615MOL0     O84768  -0.534   6.916   4.448  0.8702  0.3876  0.1171
  615MOL0     C84769  -0.618   7.004   4.374 -0.3590  0.4069 -0.2565
  615MOL0     C84770  -0.535   7.065   4.264 -0.1754 -0.5295  0.1193
  615MOL0     C84771  -0.451   6.960   4.186  0.5749  0.2522  1.0130
  615MOL0     C84772  -0.433   7.003   4.039  0.5721  0.0636 -0.5943
  615MOL0     C84773  -0.546   6.950   3.949 -0.2024 -0.2305  0.1806
  615MOL0     C84774  -0.494   6.955   3.798  0.4145  0.4965 -0.3078
  615MOL0     C84775  -0.600   6.902   3.703 -0.5197 -0.2903 -0.0309
  615MOL0     C84776  -0.564   6.926   3.549  0.1510 -0.3360  0.1821
  615MOL0    Cl84777  -0.600   7.099   3.513 -0.0667 -0.4957 -0.1730
  615MOL0     C84778  -0.718   6.878   4.609 -0.8211  0.3500  0.2734
  615MOL0     C84779  -0.764   6.796   4.719  0.0964 -0.1541 -0.1373
  615MOL0     O84780  -0.579   6.641   4.983 -0.3758 -0.1183 -0.1470
  615MOL0     C84781  -0.646   6.478   5.171  0.7901  0.8763  0.0814
  615MOL0     C84782  -0.670   6.379   5.270 -0.3899 -0.5848 -0.4254
  615MOL0     N84783  -0.403   5.741   5.075 -0.6211 -0.4190 -0.4966
  615MOL0     N84784  -0.355   5.732   4.957 -0.4255 -0.0158  0.7301
  615MOL0     C84785   0.347   5.886   4.714  0.2113 -0.4323 -0.5243
  615MOL0     C84786   0.323   5.965   4.832  0.3382 -0.0405  0.8165
  615MOL0     C84787   0.136   6.351   5.073  1.3418 -0.2690  0.5613
  615MOL0     C84788   0.147   6.485   5.085 -1.1368 -0.0943  0.1922
  615MOL0     C84789   0.113   6.553   5.211 -0.7032  0.4218  0.6851
  615MOL0     C84790   0.081   6.473   5.330 -0.4780  0.9335  0.5868
  615MOL0     O84791   0.072   6.530   5.455  0.5697 -0.6975 -0.1213
  615MOL0     C84792   0.129   6.655   5.466  0.3630 -0.0274 -0.0633
  615MOL0     C84793   0.150   6.703   5.617 -0.0442  0.6336  0.5426
  615MOL0     C84794   0.036   6.769   5.702  0.0455  0.8166  0.4538
  615MOL0     C84795  -0.078   6.670   5.716  0.3114 -0.3630  0.6752
  615MOL0     C84796  -0.082   6.630   5.853 -1.7419 -0.0958  1.0542
  615MOL0     C84797  -0.089   6.603   5.969  0.6238  0.0701 -0.1065
  615MOL0     C84798   0.056   6.342   5.308  0.0114  0.5070 -0.3602
  615MOL0     C84799   0.077   6.274   5.179  0.5432 -0.3936 -0.5471
  615MOL0     C84800   0.053   6.120   5.173 -0.9025  0.4217  0.0705
  615MOL0     H84801   0.127   6.209   4.684  3.3967  2.4429 -0.9652
  615MOL0     H84802   0.202   6.105   4.497  0.0203 -1.3663 -0.3610
  615MOL0     H84803   0.360   5.691   4.543 -0.8787 -1.2561 -0.9451
  615MOL0     H84804   0.312   5.708   4.375 -1.3338 -1.5389 -0.0653
  615MOL0     H84805   0.092   5.743   4.448  3.0862  2.7866 -0.6423
  615MOL0     H84806   0.146   5.573   4.474 -2.9679 -0.1653  0.9621
  615MOL0     H84807   0.192   5.641   4.717  0.6948 -1.2732 -0.0078
  615MOL0     H84808   0.088   5.783   4.680  0.2549 -0.9538  2.2942
  615MOL0     H84809  -0.001   5.501   4.616  1.5850  1.6905 -1.7685
  615MOL0     H84810   0.024   5.551   4.787 -0.5942  0.2810  1.0027
  615MOL0     H84811  -0.164   5.676   4.581 -0.3663  0.6122  0.1843
  615MOL0     H84812  -0.165   5.718   4.757 -1.0337 -0.3209  0.3702
  615MOL0     H84813  -0.233   5.437   4.651  0.5093 -0.9910 -0.0366
  615MOL0     H84814  -0.250   5.496   4.819 -1.1523  1.5324  0.1319
  615MOL0     H84815  -0.463   5.486   4.703  4.0605 -3.3419 -1.0419
  615MOL0     H84816  -0.397   5.582   4.574  1.9954  0.9484  0.1510
  615MOL0     H84817  -0.413   5.783   4.694 -0.6694 -0.0178 -0.0601
  615MOL0     H84818  -0.566   5.717   4.698 -0.6400  0.6897  0.3953
  615MOL0     H84819  -0.688   5.707   4.936 -1.0394 -0.6736  2.6429
  615MOL0     H84820  -0.554   5.764   5.286  1.2715 -0.6679  0.6821
  615MOL0     H84821  -0.691   5.667   5.216  0.8757 -0.3830  1.2103
  615MOL0     H84822  -0.642   5.961   5.150 -2.0835  0.4069 -3.1909
  615MOL0     H84823  -0.789   5.869   5.120  1.2900  1.7559 -0.2909
  615MOL0     H84824  -0.823   5.840   5.362  0.9638  1.1293  4.0907
  615MOL0     H84825  -0.680   5.931   5.413 -1.2282  3.0191  0.2161
  615MOL0     H84826  -0.903   6.054   5.247  0.5299  3.3687 -0.3983
  615MOL0     H84827  -0.903   6.070   5.414  1.1631 -3.3162  1.3780
  615MOL0     H84828  -0.871   6.164   5.091 -2.1335  1.0735  1.2621
  615MOL0     H84829  -0.939   6.239   4.886 -2.4958  1.4144 -1.6463
  615MOL0     H84830  -0.797   6.287   4.793  1.0732  0.8508  0.9017
  615MOL0     H84831  -0.904   6.407   4.837 -1.9994 -1.5977 -1.2264
  615MOL0     H84832  -0.550   6.548   4.709  0.0589  1.0192  3.8644
  615MOL0     H84833  -0.458   6.683   4.504  0.6725 -2.3051  2.6399
  615MOL0     H84834  -0.694   6.955   4.313 -1.5465  2.3116 -0.4013
  615MOL0     H84835  -0.663   7.081   4.437  1.2746 -0.2598  1.8527
  615MOL0     H84836  -0.591   7.125   4.192 -2.4187 -1.8359  0.7116
  615MOL0     H84837  -0.458   7.125   4.314  1.0073 -1.9008  0.0150
  615MOL0     H84838  -0.510   6.869   4.197 -0.3330  0.6547 -0.2884
  615MOL0     H84839  -0.354   6.944   4.235  0.2938 -0.3220  1.3908
  615MOL0     H84840  -0.332   6.968   4.015  0.3484 -0.9621 -0.0909
  615MOL0     H84841  -0.429   7.111   4.024 -3.1613 -0.1216 -5.0061
  615MOL0     H84842  -0.582   6.848   3.970  0.4403 -0.7413 -1.1042
  615MOL0     H84843  -0.629   7.020   3.964 -0.0840  0.8491 -3.4522
  615MOL0     H84844  -0.407   6.889   3.794 -0.0120 -0.5124  3.4806
  615MOL0     H84845  -0.474   7.061   3.777  2.3446  0.3773  0.7273
  615MOL0     H84846  -0.688   6.965   3.718 -0.0252  1.2238 -2.8442
  615MOL0     H84847  -0.623   6.798   3.730  0.1343  0.2700  3.1190
  615MOL0     H84848  -0.640   6.863   3.501 -1.9056  0.8197  1.7603
  615MOL0     H84849  -0.461   6.907   3.516 -0.6898 -1.3292 -2.1111
  615MOL0     H84850  -0.765   6.976   4.600 -1.6655  0.1291  1.9009
  615MOL0     H84851  -0.849   6.831   4.777  0.5530 -0.4551  0.7125
  615MOL0     H84852  -0.595   6.568   5.203  1.5845  1.5489 -2.8300
  615MOL0     H84853  -0.625   6.404   5.366 -1.1905  0.6469 -0.3528
  615MOL0     H84854   0.408   5.796   4.702 -0.5712 -0.6789 -3.3776
  615MOL0     H84855   0.369   5.937   4.926 -3.0104 -2.4099  1.9471
  615MOL0     H84856   0.187   6.548   5.006  0.9875  0.4801  1.6477
  615MOL0     H84857   0.114   6.662   5.211 -1.0109  0.4318  1.7642
  615MOL0     H84858   0.231   6.644   5.427  0.1588  2.6318 -1.6280
  615MOL0     H84859   0.082   6.742   5.418  2.5282  0.9104 -0.6110
  615MOL0     H84860   0.243   6.759   5.632  1.0626 -1.4805  2.2156
  615MOL0     H84861   0.168   6.608   5.668 -0.5897 -1.5054 -2.9706
  615MOL0     H84862   0.069   6.800   5.801 -5.4817  0.2468  2.8587
  615MOL0     H84863   0.002   6.857   5.647 -2.0314 -1.4503 -2.2207
  615MOL0     H84864  -0.065   6.586   5.647  0.9389 -0.1988  0.5889
  615MOL0     H84865  -0.174   6.717   5.690  1.1967  1.2012  0.1202
  615MOL0     H84866  -0.098   6.582   6.074 -2.9201 -2.2933 -0.7419
  615MOL0     H84867   0.023   6.271   5.383 -0.3685 -2.0117 -2.7355
  615MOL0     H84868   0.116   6.072   5.249 -0.1473  1.8431  0.3793
  615MOL0     H84869  -0.054   6.119   5.195 -0.7076  1.9396  1.2689
  615MOL0     H84870   0.062   6.057   5.084 -2.1235 -0.6993  0.6952
  616MOL0     O84871   9.594   3.176   0.990 -0.1325  1.1487 -0.0097
  616MOL0     C84872   9.686   3.119   1.059  1.4365 -0.4984 -0.1067
  616MOL0     O84873   9.791   3.197   1.119  0.1081  0.2111 -0.5168
  616MOL0     C84874   9.751   3.322   1.165 -0.2726 -0.1563 -0.4896
  616MOL0     C84875   9.621   3.354   1.213 -0.3878 -0.2183  0.2005
  616MOL0     C84876   9.593   3.479   1.259  0.7338  0.0644  0.3165
  616MOL0     C84877   9.693   3.585   1.262  0.8787  0.5184 -0.8903
  616MOL0     O84878   9.652   3.707   1.306  0.6289 -0.4471  0.0367
  616MOL0     C84879   9.754   3.803   1.324 -1.3521  0.0188 -0.7207
  616MOL0     C84880   9.699   3.922   1.390 -0.2909  0.8624 -0.7830
  616MOL0     C84881   9.799   4.042   1.405  0.1586  1.3202 -0.1382
  616MOL0     C84882   9.913   4.012   1.506 -0.6702 -0.7816  0.8376
  616MOL0     C84883  10.031   4.111   1.506 -0.4773  0.1387 -0.0888
  616MOL0     C84884   9.980   4.253   1.546  0.8777 -0.2696 -0.0732
  616MOL0     C84885  10.086   4.359   1.528 -0.2170 -0.2798 -0.1064
  616MOL0     C84886  10.131   4.378   1.381 -0.7674 -0.0374  0.4326
  616MOL0     N84887  10.028   4.402   1.286 -0.1136  0.7848  0.1448
  616MOL0     C84888   9.997   4.313   1.185  0.2777  0.5623 -0.2058
  616MOL0     C84889   9.876   4.352   1.134  0.2544  0.4360 -0.9353
  616MOL0     C84890   9.808   4.303   1.009 -0.8377  0.6983 -0.0023
  616MOL0     C84891   9.857   4.362   0.882 -0.2905 -0.6173 -0.8476
  616MOL0     C84892   9.841   4.512   0.877 -0.6872  0.2657 -0.5633
  616MOL0     C84893   9.695   4.549   0.898 -0.2823 -0.7595 -0.8367
  616MOL0     O84894   9.707   4.690   0.929  0.3081  0.1085 -0.8724
  616MOL0     C84895   9.598   4.763   0.922  0.2273  0.0681 -0.0299
  616MOL0     C84896   9.604   4.887   0.861 -0.8147  0.1584 -0.5388
  616MOL0     C84897   9.505   4.980   0.854 -0.1869 -0.6624  0.0911
  616MOL0     C84898   9.531   5.115   0.781 -0.5644  0.4546 -0.1595
  616MOL0     C84899   9.380   4.943   0.912  1.1640 -0.5076  0.0871
  616MOL0     C84900   9.258   5.013   0.900 -0.3998 -1.0628  0.5774
  616MOL0     O84901   9.147   4.933   0.905 -0.1880 -0.6163  0.0627
  616MOL0     C84902   9.023   4.981   0.894 -0.0941 -0.6809 -0.1170
  616MOL0     C84903   8.965   5.033   1.004 -0.4732 -0.1135  0.0615
  616MOL0     C84904   8.830   5.057   1.013 -0.7800  0.0912 -0.0500
  616MOL0     C84905   8.751   5.031   0.895  0.0696  0.5795 -0.7688
  616MOL0     O84906   8.615   5.049   0.891  0.4818  0.4768  0.3577
  616MOL0     C84907   8.536   4.941   0.822  0.0486 -0.5878  0.0086
  616MOL0     C84908   8.390   4.969   0.866 -0.1338 -0.7257 -0.4018
  616MOL0     C84909   8.387   4.942   1.018  0.3398  0.4963 -0.0578
  616MOL0     C84910   8.257   4.981   1.084 -0.7168  0.2644 -0.4444
  616MOL0     C84911   8.132   4.935   0.998  0.0565  0.6305 -0.0200
  616MOL0     C84912   8.005   4.980   1.065  0.4353 -0.4652 -1.3987
  616MOL0     C84913   7.881   4.948   0.973 -0.4746  0.6154  0.1211
  616MOL0     C84914   7.749   4.984   1.064 -0.3419 -0.5401 -0.3580
  616MOL0    Cl84915   7.604   4.970   0.955 -0.0917 -0.0604 -0.4336
  616MOL0     C84916   8.819   4.998   0.776  0.2769  0.0011  0.3339
  616MOL0     C84917   8.956   4.968   0.781 -0.3944  0.5336  0.7585
  616MOL0     O84918   9.258   5.133   0.874  0.0617  0.2663 -0.4489
  616MOL0     C84919   9.372   4.818   0.966  0.0917  0.9900 -0.3762
  616MOL0     C84920   9.480   4.729   0.974 -0.5006 -0.1137 -0.0250
  616MOL0     N84921   9.823   4.453   1.219  0.2838  0.4069 -0.2778
  616MOL0     N84922   9.921   4.484   1.302  0.3798 -0.1195 -0.3642
  616MOL0     C84923   9.827   3.553   1.227 -0.7330 -0.2844 -0.3333
  616MOL0     C84924   9.850   3.424   1.179  0.4094 -0.9748  0.1107
  616MOL0     C84925   9.689   2.976   1.063  0.6397  0.4506  0.2888
  616MOL0     C84926   9.822   2.927   1.103  1.0959 -0.4562 -0.4175
  616MOL0     C84927   9.841   2.789   1.108  0.4706  0.6391 -1.4057
  616MOL0     C84928   9.739   2.700   1.074 -0.1958 -1.0759 -0.1516
  616MOL0     O84929   9.777   2.574   1.063 -0.4052 -0.4627 -0.0871
  616MOL0     C84930   9.753   2.479   1.164  0.8377  0.5904 -0.1474
  616MOL0     C84931   9.664   2.373   1.093 -0.5290 -0.5264  0.5710
  616MOL0     C84932   9.624   2.253   1.167  1.0150  0.2644 -0.6373
  616MOL0     C84933   9.737   2.161   1.227  0.1412  0.2009  0.2126
  616MOL0     C84934   9.679   2.055   1.303  1.2565 -0.5891  0.5605
  616MOL0     C84935   9.620   1.955   1.351 -0.0697 -1.1077 -0.0017
  616MOL0     C84936   9.619   2.749   1.025  0.1291  0.2950  0.9830
  616MOL0     C84937   9.585   2.884   1.024 -0.2879 -0.0813 -0.8579
  616MOL0     C84938   9.451   2.921   0.955 -0.1918 -0.5297  0.0752
  616MOL0     H84939   9.534   3.290   1.204  0.3595 -1.3924  0.9609
  616MOL0     H84940   9.495   3.492   1.303 -1.3578 -1.6086 -3.3805
  616MOL0     H84941   9.809   3.819   1.230  1.3880  1.4934  0.9980
  616MOL0     H84942   9.830   3.764   1.393 -1.7483  2.4988  1.2616
  616MOL0     H84943   9.611   3.951   1.333 -1.3811 -1.4520 -0.3833
  616MOL0     H84944   9.662   3.895   1.489  1.1143 -1.8358 -0.9093
  616MOL0     H84945   9.833   4.064   1.303  0.8748  2.4275  0.3200
  616MOL0     H84946   9.752   4.133   1.444 -1.8643  0.3149 -0.0915
  616MOL0     H84947   9.875   4.010   1.609 -1.3006 -0.0152  0.6335
  616MOL0     H84948   9.949   3.915   1.472 -2.2833 -0.7261 -1.2238
  616MOL0     H84949  10.079   4.095   1.409 -0.8919 -0.4250 -0.2054
  616MOL0     H84950  10.114   4.088   1.572 -1.2933  1.8844  1.6457
  616MOL0     H84951   9.890   4.280   1.490  1.8814  1.4594 -0.9285
  616MOL0     H84952   9.943   4.242   1.649 -0.6437 -1.1290 -0.6835
  616MOL0     H84953  10.168   4.320   1.590 -1.2922  0.8209  2.1396
  616MOL0     H84954  10.059   4.456   1.571  3.1869  1.0101 -0.5356
  616MOL0     H84955  10.198   4.464   1.389 -0.5433 -0.3534  2.4860
  616MOL0     H84956  10.200   4.296   1.356 -0.0232  0.6230  0.2844
  616MOL0     H84957  10.058   4.235   1.140 -3.3201  0.0117 -4.9750
  616MOL0     H84958   9.700   4.320   1.015 -1.1511 -0.6063 -1.1306
  616MOL0     H84959   9.812   4.193   1.010 -3.3464  0.5374  0.1458
  616MOL0     H84960   9.963   4.335   0.892 -0.2497  0.1806  1.5405
  616MOL0     H84961   9.815   4.314   0.793 -0.8870 -1.0614 -0.3342
  616MOL0     H84962   9.905   4.555   0.955  0.4211 -2.4822  0.1631
  616MOL0     H84963   9.861   4.558   0.780  0.2055 -0.6831 -0.8494
  616MOL0     H84964   9.632   4.514   0.816  2.4288  0.4360 -3.6266
  616MOL0     H84965   9.643   4.505   0.984 -1.6814 -1.0165 -1.7762
  616MOL0     H84966   9.697   4.903   0.808  0.0894 -0.4235  0.8104
  616MOL0     H84967   9.549   5.200   0.848 -2.3262  3.2879 -3.0202
  616MOL0     H84968   9.451   5.134   0.709 -2.7903  2.2131  2.5634
  616MOL0     H84969   9.620   5.100   0.719  0.4310  5.3709 -0.3483
  616MOL0     H84970   9.022   5.079   1.084 -2.9693 -0.1780  2.0081
  616MOL0     H84971   8.782   5.113   1.093 -1.4276  2.4990 -1.9839
  616MOL0     H84972   8.543   4.956   0.714  0.0520 -0.9814 -0.0476
  616MOL0     H84973   8.571   4.842   0.852 -1.1340 -1.0548 -0.0914
  616MOL0     H84974   8.385   5.078   0.855  0.9843 -0.5322  0.7983
  616MOL0     H84975   8.325   4.913   0.799 -0.9510  1.6190 -1.6892
  616MOL0     H84976   8.472   5.000   1.057  1.2269 -0.0802 -1.0933
  616MOL0     H84977   8.399   4.835   1.035 -0.2583  0.2924 -0.9024
  616MOL0     H84978   8.265   5.088   1.109 -0.1800 -0.3930  2.6130
  616MOL0     H84979   8.256   4.931   1.181 -1.0651  0.0811 -0.5386
  616MOL0     H84980   8.131   4.973   0.895 -1.0090  1.0796  0.1412
  616MOL0     H84981   8.137   4.826   1.005 -2.0150  0.3204 -1.8636
  616MOL0     H84982   8.009   5.087   1.088 -1.1630 -0.8932  1.3831
  616MOL0     H84983   7.983   4.927   1.159  0.4622  0.8961 -0.5985
  616MOL0     H84984   7.878   4.840   0.954  0.3677  0.5959  0.0703
  616MOL0     H84985   7.887   5.008   0.881  0.6412 -3.7422 -3.0184
  616MOL0     H84986   7.758   5.088   1.095 -3.1270 -0.2558 -0.2551
  616MOL0     H84987   7.740   4.914   1.148 -1.8368 -2.7934 -2.2654
  616MOL0     H84988   8.782   4.998   0.674  1.8919  1.6860 -0.3050
  616MOL0     H84989   9.005   4.927   0.693  0.5515  0.8541  1.1207
  616MOL0     H84990   9.292   4.769   1.020  4.0056 -0.5151  4.8612
  616MOL0     H84991   9.465   4.642   1.038 -3.6336  0.6231  0.3815
  616MOL0     H84992   9.906   3.625   1.246 -1.9394  0.4387  2.5146
  616MOL0     H84993   9.951   3.394   1.153  0.3426 -0.6454 -0.5599
  616MOL0     H84994   9.909   2.984   1.133  0.9556 -0.8887  0.8816
  616MOL0     H84995   9.937   2.750   1.138  0.1139  1.7564  1.4964
  616MOL0     H84996   9.840   2.422   1.198  0.4207 -0.4979 -0.8525
  616MOL0     H84997   9.701   2.512   1.255  1.9521  4.1247 -0.6118
  616MOL0     H84998   9.726   2.353   1.006  0.2032 -0.1753  1.0043
  616MOL0     H84999   9.574   2.425   1.059 -0.5661  0.5838  2.2209
  616MOL0     H85000   9.566   2.298   1.249 -1.2987 -0.5793 -1.7239
  616MOL0     H85001   9.547   2.194   1.116  2.6711 -1.9631 -0.7093
  616MOL0     H85002   9.807   2.216   1.290 -0.6945  2.1350 -0.4612
  616MOL0     H85003   9.799   2.121   1.147 -1.0978 -2.1558  0.3331
  616MOL0     H85004   9.577   1.863   1.383  1.1364 -1.6415  0.1451
  616MOL0     H85005   9.547   2.681   0.981  1.7233 -1.0075  0.3048
  616MOL0     H85006   9.377   2.982   1.008  0.0405 -1.6919  1.8492
  616MOL0     H85007   9.480   2.983   0.870 -0.9630 -0.1396  0.0897
  616MOL0     H85008   9.394   2.835   0.920 -0.0389 -1.1283  1.2182
  617MOL0     O85009  10.546   2.661   3.808  0.7330  0.3761 -0.3935
  617MOL0     C85010  10.526   2.728   3.703  0.6038 -0.6014  0.1945
  617MOL0     O85011  10.537   2.684   3.569 -0.2021  0.7434 -0.1731
  617MOL0     C85012  10.561   2.551   3.536 -0.0807  0.2104 -0.3156
  617MOL0     C85013  10.603   2.448   3.611 -0.3193 -0.5317 -0.7459
  617MOL0     C85014  10.644   2.329   3.551  0.4190  0.2670  0.3759
  617MOL0     C85015  10.637   2.314   3.416  0.7030 -0.7319  0.2848
  617MOL0     O85016  10.673   2.189   3.357  0.4463  1.0319  0.1158
  617MOL0     C85017  10.759   2.195   3.238  0.7135  0.5779 -0.4798
  617MOL0     C85018  10.876   2.100   3.270  0.5223  0.0567 -0.5798
  617MOL0     C85019  10.829   1.971   3.352  0.8372  0.4238 -0.7588
  617MOL0     C85020  10.727   1.884   3.278  0.3842 -0.0084 -0.2213
  617MOL0     C85021  10.678   1.767   3.362  0.1437 -0.2331  0.7953
  617MOL0     C85022  10.600   1.666   3.279  1.7135  0.1990  0.3672
  617MOL0     C85023  10.458   1.712   3.239 -0.7714  0.5425  0.7129
  617MOL0     C85024  10.397   1.594   3.173 -0.3513 -0.5812  0.2874
  617MOL0     N85025  10.261   1.617   3.117 -0.0883  0.0398 -0.0245
  617MOL0     C85026  10.158   1.704   3.149 -0.0726 -0.3586  0.4173
  617MOL0     C85027  10.043   1.657   3.100  0.6727  0.5103 -0.0764
  617MOL0     C85028   9.907   1.697   3.140 -0.6082  0.1851 -0.9406
  617MOL0     C85029   9.855   1.593   3.231  0.4177  0.0897 -0.7159
  617MOL0     C85030   9.726   1.532   3.178  0.1748 -0.1466 -0.8124
  617MOL0     C85031   9.669   1.447   3.290 -0.7586 -0.6639  0.7247
  617MOL0     O85032   9.591   1.524   3.379 -0.6531  0.2331 -0.0239
  617MOL0     C85033   9.556   1.457   3.489 -0.0489  0.8089 -0.0864
  617MOL0     C85034   9.568   1.522   3.608  0.6853  0.4071  0.3121
  617MOL0     C85035   9.509   1.477   3.719  0.1621  0.5769 -0.5781
  617MOL0     C85036   9.547   1.564   3.843  0.5068  0.5985 -0.3740
  617MOL0     C85037   9.444   1.348   3.728 -0.3845 -0.2771  0.2522
  617MOL0     C85038   9.398   1.289   3.863  0.6465  0.0592  0.1133
  617MOL0     O85039   9.371   1.148   3.863  0.1010  0.0304  0.3464
  617MOL0     C85040   9.337   1.079   3.973  0.8903  0.6885  0.0550
  617MOL0     C85041   9.367   1.108   4.106 -0.9341  0.0503  0.1328
  617MOL0     C85042   9.335   1.023   4.207  0.0760  0.6509  0.7309
  617MOL0     C85043   9.267   0.909   4.178  0.3684 -0.8882  0.3026
  617MOL0     O85044   9.205   0.825   4.267  0.0682  0.3858 -0.2902
  617MOL0     C85045   9.161   0.878   4.386 -0.0425  0.2843  0.8829
  617MOL0     C85046   9.030   0.934   4.378 -0.4072 -0.3791 -0.0652
  617MOL0     C85047   9.030   1.074   4.320 -0.2228 -0.3085 -0.0422
  617MOL0     C85048   8.892   1.140   4.323 -0.1736  0.5953  0.2258
  617MOL0     C85049   8.798   1.078   4.220 -0.1705 -0.0994 -0.7575
  617MOL0     C85050   8.664   1.149   4.190  0.7240  0.4025 -0.2711
  617MOL0     C85051   8.659   1.234   4.057  0.8316 -0.4905  0.5602
  617MOL0     C85052   8.549   1.338   4.039  0.3994  0.2355 -0.1234
  617MOL0    Cl85053   8.557   1.414   3.882 -0.5269  0.2107  0.2010
  617MOL0     C85054   9.233   0.877   4.052  0.4975  0.5338  0.0203
  617MOL0     C85055   9.261   0.957   3.948 -0.2111  1.0145  1.3433
  617MOL0     O85056   9.354   1.373   3.946 -0.1628 -0.4343  0.0672
  617MOL0     C85057   9.430   1.276   3.610 -0.1152  0.3509  0.5678
  617MOL0     C85058   9.486   1.333   3.486  0.0721 -0.1200  0.0683
  617MOL0     N85059  10.072   1.552   3.015  0.1642 -0.0564  0.5419
  617MOL0     N85060  10.203   1.536   3.021 -0.5134 -0.1610  0.2619
  617MOL0     C85061  10.583   2.410   3.334  0.0071  0.4727  0.7076
  617MOL0     C85062  10.545   2.537   3.396 -0.3131  0.5570  0.0328
  617MOL0     C85063  10.511   2.871   3.716 -0.4185  0.2878  0.1720
  617MOL0     C85064  10.560   2.960   3.611  0.2532  0.4649 -0.7080
  617MOL0     C85065  10.551   3.106   3.606 -0.0935 -0.2158  0.3973
  617MOL0     C85066  10.505   3.162   3.724 -0.3980 -0.4473 -0.7264
  617MOL0     O85067  10.514   3.294   3.733 -0.4658 -0.3457 -0.4028
  617MOL0     C85068  10.496   3.378   3.851 -0.7312 -0.5704 -0.3152
  617MOL0     C85069  10.529   3.520   3.794 -0.0707  0.3162 -0.7432
  617MOL0     C85070  10.563   3.628   3.902 -0.6793  0.5269  0.6754
  617MOL0     C85071  10.703   3.633   3.953 -0.2838 -0.0749  0.0248
  617MOL0     C85072  10.796   3.659   3.837 -0.2804  1.1934 -0.5987
  617MOL0     C85073  10.874   3.685   3.748  0.3642 -0.0070 -0.5396
  617MOL0     C85074  10.455   3.083   3.835 -1.4065 -0.8935  1.0163
  617MOL0     C85075  10.447   2.938   3.825 -0.1833  0.1320 -0.4420
  617MOL0     C85076  10.371   2.876   3.937  0.1760 -0.3292 -0.3820
  617MOL0     H85077  10.616   2.450   3.719  1.5231 -0.1404 -0.9390
  617MOL0     H85078  10.682   2.255   3.621  1.0657 -0.1517 -0.4120
  617MOL0     H85079  10.802   2.294   3.228  4.8038 -0.9003  0.5623
  617MOL0     H85080  10.707   2.163   3.147  1.5398  0.1370 -0.8060
  617MOL0     H85081  10.934   2.077   3.180 -0.3112  1.4456 -1.5011
  617MOL0     H85082  10.933   2.158   3.343  1.1178 -1.2996  0.0598
  617MOL0     H85083  10.911   1.903   3.379 -1.3087 -0.8646  3.4568
  617MOL0     H85084  10.783   1.991   3.449 -0.7694  0.0873 -1.4245
  617MOL0     H85085  10.648   1.943   3.232  1.2704  1.2057 -0.2519
  617MOL0     H85086  10.774   1.847   3.187 -0.8821 -1.7891 -0.1969
  617MOL0     H85087  10.610   1.801   3.441 -3.5692 -2.0595 -1.3125
  617MOL0     H85088  10.763   1.719   3.411  0.0901  0.4789  1.5888
  617MOL0     H85089  10.651   1.641   3.185  0.2098  1.5201 -0.8634
  617MOL0     H85090  10.567   1.580   3.337 -1.3845  1.4412  0.6055
  617MOL0     H85091  10.457   1.798   3.171 -1.6994  0.0898  0.1294
  617MOL0     H85092  10.393   1.731   3.326 -1.4347  2.4997 -0.1526
  617MOL0     H85093  10.458   1.570   3.085 -0.1516  1.8177 -0.2866
  617MOL0     H85094  10.389   1.508   3.240  0.7774 -0.6851  0.3007
  617MOL0     H85095  10.160   1.778   3.228  0.3199 -0.0499  0.1168
  617MOL0     H85096   9.847   1.704   3.048 -3.7306 -2.2515  0.7320
  617MOL0     H85097   9.902   1.791   3.195 -3.5653 -1.8147  2.6162
  617MOL0     H85098   9.928   1.513   3.246  1.0397  0.2954 -2.4627
  617MOL0     H85099   9.816   1.645   3.319  0.1063  0.1901 -0.9138
  617MOL0     H85100   9.655   1.605   3.139  1.9589  1.3557 -1.3921
  617MOL0     H85101   9.766   1.473   3.094  2.3191 -1.0445  0.7267
  617MOL0     H85102   9.605   1.377   3.236 -1.9188 -1.3313  2.8591
  617MOL0     H85103   9.742   1.387   3.346 -0.2491  1.1781  2.1489
  617MOL0     H85104   9.621   1.616   3.608  4.5084 -1.5640  0.2801
  617MOL0     H85105   9.570   1.504   3.931  3.2342  0.4275 -1.1098
  617MOL0     H85106   9.473   1.644   3.852  2.1669  1.9921  1.9462
  617MOL0     H85107   9.638   1.622   3.825  4.1063 -3.8972  1.3054
  617MOL0     H85108   9.430   1.197   4.112 -1.3832  1.1437 -5.6197
  617MOL0     H85109   9.357   1.033   4.312  0.7369 -0.1858  0.6813
  617MOL0     H85110   9.144   0.788   4.445 -3.8631  0.1450 -0.1977
  617MOL0     H85111   9.237   0.942   4.432  2.5016 -0.9707 -1.2649
  617MOL0     H85112   8.974   0.869   4.310 -0.3041  0.6530 -1.1688
  617MOL0     H85113   8.996   0.935   4.482 -1.9807  1.2290 -0.5525
  617MOL0     H85114   9.063   1.081   4.216 -0.1842  2.3764  0.0807
  617MOL0     H85115   9.096   1.137   4.380 -1.4919  2.6580 -1.5293
  617MOL0     H85116   8.904   1.241   4.284  2.4950  1.3406  2.6213
  617MOL0     H85117   8.842   1.136   4.420 -3.5153 -0.9869 -1.3786
  617MOL0     H85118   8.847   1.091   4.123 -3.6627  0.8720 -2.5466
  617MOL0     H85119   8.765   0.978   4.251 -2.0061  0.3369 -1.1766
  617MOL0     H85120   8.655   1.231   4.262  1.9622  0.0528  0.3159
  617MOL0     H85121   8.575   1.086   4.201 -0.3627  2.2307  2.6613
  617MOL0     H85122   8.627   1.158   3.986 -4.3275  3.0040 -1.4248
  617MOL0     H85123   8.753   1.288   4.041  0.7741 -0.1794  1.2087
  617MOL0     H85124   8.556   1.416   4.115 -1.9349 -1.1024  1.5836
  617MOL0     H85125   8.453   1.289   4.057  0.5728  0.1415  0.5455
  617MOL0     H85126   9.174   0.792   4.020  1.4902 -0.3155  0.3812
  617MOL0     H85127   9.252   0.928   3.844 -2.2828  0.7679  1.5514
  617MOL0     H85128   9.368   1.187   3.612  0.5686 -0.1623 -0.2980
  617MOL0     H85129   9.460   1.299   3.386  0.0600  1.0089 -0.3256
  617MOL0     H85130  10.557   2.390   3.231  1.1211  0.7452  0.3589
  617MOL0     H85131  10.497   2.617   3.342 -0.9740  1.1421  1.4317
  617MOL0     H85132  10.621   2.916   3.532  0.0105  1.0929 -1.2565
  617MOL0     H85133  10.598   3.170   3.533  0.0426 -0.3246  0.3895
  617MOL0     H85134  10.403   3.372   3.909 -0.0216 -1.8988  0.7566
  617MOL0     H85135  10.573   3.368   3.928 -0.1126  3.7395 -0.1179
  617MOL0     H85136  10.439   3.553   3.740 -1.8352  0.0381  1.8644
  617MOL0     H85137  10.604   3.506   3.716 -1.6362 -2.0537 -1.9540
  617MOL0     H85138  10.531   3.728   3.871 -0.6297  1.0756  2.2909
  617MOL0     H85139  10.493   3.612   3.985 -1.9518  0.6695 -0.3341
  617MOL0     H85140  10.745   3.543   3.999  3.7490  1.1670 -0.8674
  617MOL0     H85141  10.713   3.704   4.035 -2.9381 -0.0660  0.4327
  617MOL0     H85142  10.931   3.714   3.662  0.1832 -2.4200 -1.5343
  617MOL0     H85143  10.410   3.135   3.920  3.3451 -0.8968  3.9205
  617MOL0     H85144  10.281   2.930   3.970  0.3218 -0.4818  0.2766
  617MOL0     H85145  10.329   2.776   3.922 -1.2942  0.0881  0.7198
  617MOL0     H85146  10.443   2.867   4.018  3.4971  1.3677 -2.8888
  618MOL0     O85147   0.695   6.454   1.637  0.7145 -0.1019  0.1613
  618MOL0     C85148   0.732   6.399   1.740  0.3743  0.1026 -0.0925
  618MOL0     O85149   0.857   6.364   1.767  0.0114  0.2676  0.1874
  618MOL0     C85150   0.955   6.412   1.683  0.1531 -0.0161  0.6493
  618MOL0     C85151   1.044   6.324   1.628  1.1282  0.0409  0.6839
  618MOL0     C85152   1.127   6.365   1.528  0.1925 -1.4371  0.6554
  618MOL0     C85153   1.139   6.503   1.496 -1.1092  0.2705 -0.1766
  618MOL0     O85154   1.218   6.521   1.386  0.2764 -0.9414 -0.7204
  618MOL0     C85155   1.198   6.650   1.322 -0.3003  0.8874  0.6374
  618MOL0     C85156   1.307   6.742   1.376  0.0944  0.3602 -0.6204
  618MOL0     C85157   1.304   6.887   1.334  0.1894 -0.1933 -0.3720
  618MOL0     C85158   1.188   6.964   1.407  0.7770 -0.9349 -0.5411
  618MOL0     C85159   1.071   6.987   1.309 -0.1162  0.4045 -2.4769
  618MOL0     C85160   1.098   7.106   1.218  0.3960  0.0371  0.3010
  618MOL0     C85161   0.980   7.129   1.119 -0.6296 -0.0773 -0.2323
  618MOL0     C85162   0.861   7.197   1.179 -1.1264  0.0729 -0.3914
  618MOL0     N85163   0.732   7.179   1.110 -0.3874 -0.9665 -0.0663
  618MOL0     C85164   0.632   7.075   1.112 -0.6288 -0.6161 -0.4586
  618MOL0     C85165   0.541   7.106   1.028 -0.1092  0.3830  0.2313
  618MOL0     C85166   0.405   7.033   1.013  0.3395 -0.6352  0.1775
  618MOL0     C85167   0.435   6.923   0.922 -0.8294 -0.2327  0.1123
  618MOL0     C85168   0.310   6.832   0.901  0.1896 -0.1929  0.0213
  618MOL0     C85169   0.331   6.721   0.801  0.1826  0.0354  0.4152
  618MOL0     O85170   0.394   6.611   0.864 -0.9627 -0.3620  0.3411
  618MOL0     C85171   0.467   6.517   0.786 -0.0509 -0.2645  0.0603
  618MOL0     C85172   0.555   6.433   0.862  0.3012  0.6190  0.0500
  618MOL0     C85173   0.630   6.336   0.799 -0.4170  0.3032  0.0606
  618MOL0     C85174   0.708   6.239   0.893  1.0143 -0.4614  0.0354
  618MOL0     C85175   0.629   6.324   0.650  0.1960 -0.5843  0.3588
  618MOL0     C85176   0.712   6.224   0.572 -0.1251  0.0850 -0.1666
  618MOL0     O85177   0.730   6.259   0.443 -0.0609 -0.8930  0.4954
  618MOL0     C85178   0.817   6.193   0.365  0.7992  0.1766 -0.8467
  618MOL0     C85179   0.768   6.171   0.235  0.8189 -0.6323 -0.4759
  618MOL0     C85180   0.842   6.096   0.140  0.0039 -0.2112  0.5649
  618MOL0     C85181   0.972   6.058   0.170 -0.9160 -0.7280 -0.5073
  618MOL0     O85182   1.042   5.992   0.077  0.0201  0.6451  0.4649
  618MOL0     C85183   1.184   5.990   0.070  0.1024  0.2584  0.7695
  618MOL0     C85184   1.225   5.870  -0.010  0.0225 -0.6821  0.4950
  618MOL0     C85185   1.165   5.875  -0.157  0.5012 -1.4737  0.4563
  618MOL0     C85186   1.241   5.767  -0.231 -0.4266 -0.9865 -0.0231
  618MOL0     C85187   1.213   5.774  -0.383  1.6326  0.9171  0.5286
  618MOL0     C85188   1.071   5.715  -0.413  0.2925 -0.9122 -1.3621
  618MOL0     C85189   1.030   5.699  -0.564  0.0282 -0.6088 -0.0752
  618MOL0     C85190   0.998   5.834  -0.615 -0.0691 -0.8151  0.0392
  618MOL0    Cl85191   0.843   5.896  -0.537  0.6413 -0.2813  0.3695
  618MOL0     C85192   1.029   6.095   0.299 -0.6735  0.6979 -1.0761
  618MOL0     C85193   0.950   6.158   0.395  0.2885 -0.6392  0.6785
  618MOL0     O85194   0.744   6.121   0.627  0.7551  0.2671 -0.3810
  618MOL0     C85195   0.538   6.413   0.583 -0.5511  0.5557  0.8086
  618MOL0     C85196   0.462   6.514   0.644 -0.6068  0.6429 -0.4547
  618MOL0     N85197   0.579   7.216   0.964 -0.0934 -0.3179  0.2020
  618MOL0     N85198   0.694   7.261   1.013  0.6325  0.2116 -0.4170
  618MOL0     C85199   1.054   6.593   1.557  0.1371 -0.5283 -0.7322
  618MOL0     C85200   0.965   6.548   1.654 -0.2537 -0.1286  0.0729
  618MOL0     C85201   0.627   6.338   1.808 -1.1300  0.0137  0.9300
  618MOL0     C85202   0.646   6.213   1.856 -0.4183  0.3839  0.4096
  618MOL0     C85203   0.541   6.141   1.921 -0.4456  0.4701  0.2585
  618MOL0     C85204   0.411   6.196   1.928 -0.5895  0.3692  0.2844
  618MOL0     O85205   0.325   6.119   2.004  0.4451  0.4557 -0.0736
  618MOL0     C85206   0.240   6.028   1.932  0.2639 -0.0597 -0.6530
  618MOL0     C85207   0.096   6.069   1.963 -0.4782 -0.2471 -0.4560
  618MOL0     C85208   0.060   6.207   2.019  0.2170  0.5453  0.3939
  618MOL0     C85209  -0.079   6.198   2.088  0.2400 -0.0639 -0.0474
  618MOL0     C85210  -0.129   6.330   2.142  0.3078 -0.3998  0.9385
  618MOL0     C85211  -0.183   6.432   2.188  0.7125 -0.3159 -0.7954
  618MOL0     C85212   0.394   6.326   1.882 -0.2652  0.2789  0.5776
  618MOL0     C85213   0.494   6.398   1.816 -1.1221  0.0957  0.2519
  618MOL0     C85214   0.459   6.545   1.787  1.1343 -0.1558  0.6282
  618MOL0     H85215   1.039   6.220   1.658 -1.0593  0.7789  3.3094
  618MOL0     H85216   1.200   6.293   1.491 -1.3589 -3.3314  1.0908
  618MOL0     H85217   1.093   6.682   1.327 -0.3036  1.8995 -3.0911
  618MOL0     H85218   1.207   6.634   1.214 -0.0724  0.5720  0.7013
  618MOL0     H85219   1.309   6.749   1.486  0.9163 -1.1427 -0.5187
  618MOL0     H85220   1.400   6.710   1.329 -1.6785  0.0936 -4.3049
  618MOL0     H85221   1.394   6.938   1.371 -0.4635  0.8008 -0.1364
  618MOL0     H85222   1.295   6.892   1.225  1.9017 -1.2919 -0.6137
  618MOL0     H85223   1.149   6.916   1.497  0.9256 -1.1467 -0.5888
  618MOL0     H85224   1.216   7.064   1.443 -1.9095 -0.2827 -0.0170
  618MOL0     H85225   0.983   7.010   1.370  1.4110  3.0340 -1.0876
  618MOL0     H85226   1.044   6.892   1.262  0.7719 -0.9257 -0.4612
  618MOL0     H85227   1.128   7.198   1.269  2.4275 -1.9304  2.8852
  618MOL0     H85228   1.184   7.061   1.167  0.7984  3.3238 -2.2731
  618MOL0     H85229   0.954   7.029   1.086  2.1605 -1.2999  0.9215
  618MOL0     H85230   1.010   7.186   1.031 -2.1145 -1.5143 -1.7257
  618MOL0     H85231   0.855   7.159   1.281 -0.9783  0.6844 -0.1489
  618MOL0     H85232   0.878   7.305   1.172 -3.5276  0.4405 -1.6202
  618MOL0     H85233   0.644   6.986   1.173 -3.4767 -0.6533  0.2043
  618MOL0     H85234   0.313   7.081   0.980 -0.8120 -2.6574  0.3213
  618MOL0     H85235   0.377   6.990   1.109  1.2532 -0.4584  0.5338
  618MOL0     H85236   0.458   6.962   0.823 -2.1267 -2.0858 -0.9767
  618MOL0     H85237   0.521   6.865   0.959  0.7028  2.2943  0.7804
  618MOL0     H85238   0.272   6.791   0.995  1.5850  1.7095  1.4920
  618MOL0     H85239   0.235   6.894   0.851 -0.2164 -0.5993  0.1209
  618MOL0     H85240   0.236   6.694   0.755  0.2861  0.2126  0.0957
  618MOL0     H85241   0.396   6.759   0.722  0.1727 -0.6998  0.0398
  618MOL0     H85242   0.567   6.444   0.969 -0.7248 -2.2943  0.5495
  618MOL0     H85243   0.689   6.136   0.861 -0.2433 -0.5245  0.9183
  618MOL0     H85244   0.672   6.230   0.996 -0.4001 -2.9748 -0.5834
  618MOL0     H85245   0.817   6.244   0.899  1.0571 -1.3587  0.2828
  618MOL0     H85246   0.671   6.207   0.202  1.2912  1.0436 -0.1131
  618MOL0     H85247   0.789   6.093   0.045  0.9600  2.6720 -0.1803
  618MOL0     H85248   1.228   6.081   0.030  4.0776 -0.9503  1.9298
  618MOL0     H85249   1.227   5.976   0.169  0.4178  3.9230  1.2755
  618MOL0     H85250   1.334   5.865  -0.015 -0.0741 -3.4805 -1.0605
  618MOL0     H85251   1.186   5.775   0.028 -0.0005 -0.0260  2.1680
  618MOL0     H85252   1.195   5.973  -0.196 -1.1255 -1.4302 -0.7605
  618MOL0     H85253   1.057   5.861  -0.151  0.4789 -1.3962  0.2408
  618MOL0     H85254   1.204   5.678  -0.179 -1.9902  1.3058  3.0971
  618MOL0     H85255   1.349   5.775  -0.213 -0.3913 -0.2619 -0.5134
  618MOL0     H85256   1.241   5.873  -0.419 -3.5297  2.1031 -0.9967
  618MOL0     H85257   1.271   5.697  -0.436 -1.5263 -1.0272 -0.4078
  618MOL0     H85258   0.997   5.776  -0.361  2.8605  1.4245 -0.2139
  618MOL0     H85259   1.071   5.615  -0.370 -0.4374 -0.0419  0.7888
  618MOL0     H85260   0.948   5.628  -0.574 -1.5027  1.0740 -0.1140
  618MOL0     H85261   1.117   5.656  -0.615  0.8781  1.2267 -0.2810
  618MOL0     H85262   1.002   5.817  -0.723  0.4901  0.2797 -0.1276
  618MOL0     H85263   1.081   5.903  -0.596 -2.3084  2.0105  0.3876
  618MOL0     H85264   1.132   6.065   0.318 -0.6326  0.6649 -1.3446
  618MOL0     H85265   0.988   6.205   0.485  1.8961 -0.8956  0.1656
  618MOL0     H85266   0.532   6.403   0.475  2.0661  0.8934  0.5669
  618MOL0     H85267   0.383   6.562   0.587 -0.3239  5.0133  2.3754
  618MOL0     H85268   1.035   6.693   1.517  1.7733 -0.6247 -1.8622
  618MOL0     H85269   0.898   6.625   1.689 -2.0951  0.2083 -3.6987
  618MOL0     H85270   0.747   6.173   1.859  0.1209  1.6564 -0.2165
  618MOL0     H85271   0.585   6.053   1.967  2.2803  3.3332  3.7367
  618MOL0     H85272   0.251   6.031   1.824  1.3256 -0.8313 -0.5814
  618MOL0     H85273   0.249   5.929   1.978 -1.7599  1.3254  3.2378
  618MOL0     H85274   0.060   5.995   2.035 -4.1214 -1.0552 -2.8275
  618MOL0     H85275   0.030   6.041   1.880 -1.1951 -3.2971  1.0081
  618MOL0     H85276   0.140   6.236   2.088  2.5105  0.9288 -2.2407
  618MOL0     H85277   0.054   6.281   1.938  1.7368  1.8983  1.4466
  618MOL0     H85278  -0.076   6.120   2.164 -2.6471 -1.0997 -0.8907
  618MOL0     H85279  -0.163   6.169   2.025 -0.4360 -0.0361  0.8205
  618MOL0     H85280  -0.239   6.509   2.238 -0.6660 -0.9273 -1.3594
  618MOL0     H85281   0.293   6.363   1.897 -0.5301 -0.9346  2.1010
  618MOL0     H85282   0.540   6.618   1.793 -0.2361  1.4404  0.4623
  618MOL0     H85283   0.408   6.544   1.691 -0.7814 -1.2980  1.5819
  618MOL0     H85284   0.390   6.579   1.865  1.8494  0.5568  0.9632
  619MOL0     O85285  10.538   0.201   3.985  0.2069  0.4191  0.3219
  619MOL0     C85286  10.544   0.089   4.025  0.2130 -0.5316  0.1193
  619MOL0     O85287  10.620   0.056   4.129  0.2429 -0.0141 -0.6084
  619MOL0     C85288  10.723   0.129   4.169 -0.2558 -0.6851 -0.0871
  619MOL0     C85289  10.813   0.193   4.093  0.0573 -0.1991  0.1835
  619MOL0     C85290  10.921   0.257   4.157 -0.1389 -0.6730  0.5755
  619MOL0     C85291  10.942   0.248   4.288  0.5587 -0.1996 -0.1785
  619MOL0     O85292  11.026   0.324   4.354  0.6796  0.0637  0.1860
  619MOL0     C85293  11.067   0.291   4.494 -0.2778 -0.1180 -0.1197
  619MOL0     C85294  11.146   0.411   4.536 -0.1227 -0.5671 -0.8169
  619MOL0     C85295  11.057   0.540   4.529 -0.7090  0.6144 -1.3406
  619MOL0     C85296  11.081   0.625   4.404  0.0205  0.6383  0.2643
  619MOL0     C85297  11.019   0.756   4.400  0.2525 -0.4033  0.1486
  619MOL0     C85298  10.871   0.748   4.360  0.0555 -0.7182  0.7649
  619MOL0     C85299  10.810   0.896   4.328  0.6243 -0.4475 -0.1795
  619MOL0     C85300  10.779   0.970   4.458 -0.4096  0.8545  0.4643
  619MOL0     N85301  10.728   1.104   4.435  0.5030  0.1835 -0.2346
  619MOL0     C85302  10.791   1.220   4.489 -1.2427  0.0219  0.4242
  619MOL0     C85303  10.709   1.323   4.446 -0.0443  0.2001  0.2121
  619MOL0     C85304  10.745   1.463   4.478  1.2505  0.2066  0.2227
  619MOL0     C85305  10.752   1.560   4.359 -0.6652  1.1153 -0.9076
  619MOL0     C85306  10.885   1.554   4.276 -0.6631  0.3707 -1.0663
  619MOL0     C85307  10.904   1.432   4.183  0.1469  0.4264 -0.1295
  619MOL0     O85308  11.046   1.420   4.159  0.6778  0.4777  0.1590
  619MOL0     C85309  11.085   1.350   4.039  0.1391  0.0319 -0.5235
  619MOL0     C85310  11.013   1.243   3.982  0.7094  0.7938 -0.1159
  619MOL0     C85311  11.063   1.174   3.865 -0.2366  0.7302  0.2009
  619MOL0     C85312  10.979   1.068   3.808  0.4913 -0.5678 -0.0893
  619MOL0     C85313  11.188   1.202   3.808 -0.0007 -0.4671  0.5786
  619MOL0     C85314  11.247   1.127   3.686  0.5564 -0.1033 -1.0362
  619MOL0     O85315  11.378   1.131   3.687  0.3997 -0.5392  0.0636
  619MOL0     C85316  11.445   1.069   3.588  0.5913 -0.2237 -0.1553
  619MOL0     C85317  11.488   1.148   3.476 -0.2752  0.3300 -0.0237
  619MOL0     C85318  11.559   1.084   3.376  0.5461  0.8235  0.1071
  619MOL0     C85319  11.565   0.944   3.369  0.4481  1.0631  0.4243
  619MOL0     O85320  11.629   0.872   3.274  0.4388 -0.6928 -0.0694
  619MOL0     C85321  11.605   0.907   3.150 -0.0127  0.6093  0.7092
  619MOL0     C85322  11.454   0.936   3.123  0.2419 -0.3811 -0.4230
  619MOL0     C85323  11.396   0.800   3.129  0.3720  0.2638  0.9837
  619MOL0     C85324  11.244   0.794   3.143  0.1712  0.7989 -0.3184
  619MOL0     C85325  11.200   0.645   3.118  0.0512  0.6162 -0.6651
  619MOL0     C85326  11.059   0.611   3.162  0.5045  0.5023  0.2359
  619MOL0     C85327  10.991   0.495   3.106 -0.6457  0.3490  1.3736
  619MOL0     C85328  10.972   0.375   3.207  0.2411  0.4647 -0.5740
  619MOL0    Cl85329  11.117   0.303   3.252 -0.7561 -0.4228 -0.1074
  619MOL0     C85330  11.523   0.872   3.482  0.3267 -0.1992 -0.6659
  619MOL0     C85331  11.468   0.933   3.600 -0.4021  0.0778 -1.0831
  619MOL0     O85332  11.179   1.068   3.607  0.6443  1.4974 -0.0398
  619MOL0     C85333  11.253   1.313   3.865 -0.3864  0.1102 -0.6168
  619MOL0     C85334  11.199   1.381   3.978 -0.3055 -1.0668  0.7493
  619MOL0     N85335  10.610   1.264   4.371  0.2946  0.3910  0.3084
  619MOL0     N85336  10.623   1.142   4.367 -0.3791  0.9054 -0.4050
  619MOL0     C85337  10.846   0.178   4.362  0.7883  0.7738 -0.2861
  619MOL0     C85338  10.743   0.115   4.298 -0.3058 -0.5037 -0.9814
  619MOL0     C85339  10.445  -0.003   3.956  0.3935  1.4101  0.2054
  619MOL0     C85340  10.360   0.039   3.849  0.9365  0.4646 -0.2404
  619MOL0     C85341  10.276  -0.046   3.775 -1.2573  0.6353 -0.3233
  619MOL0     C85342  10.254  -0.178   3.818  0.7299  0.1050 -1.0614
  619MOL0     O85343  10.157  -0.269   3.765  0.4447  0.3368  0.7688
  619MOL0     C85344  10.063  -0.202   3.672  0.5214  0.4702  0.5199
  619MOL0     C85345   9.974  -0.305   3.608 -1.2340  1.0594 -0.2203
  619MOL0     C85346   9.904  -0.262   3.474  0.5994 -0.7258  0.1675
  619MOL0     C85347   9.874  -0.377   3.393 -0.7066 -0.1706  0.5838
  619MOL0     C85348   9.781  -0.460   3.462 -0.1768 -0.0964 -0.6048
  619MOL0     C85349   9.711  -0.540   3.526  0.5425 -0.1613 -0.0425
  619MOL0     C85350  10.339  -0.221   3.911  0.0655  0.3652 -0.0321
  619MOL0     C85351  10.431  -0.139   3.990  0.1584  0.7787  0.1954
  619MOL0     C85352  10.507  -0.211   4.104 -0.0344 -0.6017  0.3566
  619MOL0     H85353  10.797   0.196   3.985  1.3592 -1.7687 -0.0766
  619MOL0     H85354  10.981   0.307   4.081 -4.3182  3.4573 -0.5186
  619MOL0     H85355  11.139   0.209   4.500  1.1050  1.0938  0.3621
  619MOL0     H85356  10.998   0.282   4.578  0.6622  1.0066  0.8011
  619MOL0     H85357  11.186   0.400   4.638  1.4185  1.4928 -1.1232
  619MOL0     H85358  11.231   0.429   4.470 -1.3359  2.5930 -1.6752
  619MOL0     H85359  10.951   0.515   4.520 -0.5165 -0.1002 -1.7336
  619MOL0     H85360  11.073   0.601   4.618 -1.9877 -2.2333  1.0023
  619MOL0     H85361  11.188   0.643   4.413  0.5575 -1.9583 -0.1313
  619MOL0     H85362  11.070   0.574   4.308  3.4660 -0.5164  0.3435
  619MOL0     H85363  11.073   0.819   4.328 -0.2626 -1.2900 -1.0446
  619MOL0     H85364  11.032   0.803   4.498  2.3676 -0.9427  0.1733
  619MOL0     H85365  10.857   0.689   4.269 -0.0129  3.3349 -2.0792
  619MOL0     H85366  10.812   0.703   4.440 -1.5953 -3.6601 -1.8623
  619MOL0     H85367  10.716   0.894   4.273  1.1962  1.4080 -1.3018
  619MOL0     H85368  10.881   0.949   4.264 -1.3070  3.5679  0.6907
  619MOL0     H85369  10.699   0.908   4.502 -1.2572 -0.1423 -2.2953
  619MOL0     H85370  10.863   0.990   4.526 -0.8180  2.8627  0.4352
  619MOL0     H85371  10.887   1.225   4.540  0.9465  1.1358 -3.3665
  619MOL0     H85372  10.844   1.457   4.524 -0.0635 -1.5652  3.0978
  619MOL0     H85373  10.675   1.513   4.546  0.4498  2.3850 -2.0339
  619MOL0     H85374  10.676   1.550   4.280 -2.1426 -2.0027  0.7174
  619MOL0     H85375  10.753   1.658   4.407 -1.8094  0.2287  1.0466
  619MOL0     H85376  10.896   1.635   4.204  1.4727  1.4615  0.3909
  619MOL0     H85377  10.972   1.568   4.341  0.4691 -0.8487 -2.2463
  619MOL0     H85378  10.858   1.343   4.228  3.7532 -0.4964  2.1574
  619MOL0     H85379  10.850   1.457   4.092 -3.3531 -0.3834  1.5515
  619MOL0     H85380  10.921   1.201   4.021 -0.5651  2.3174 -1.3390
  619MOL0     H85381  10.889   1.042   3.864 -0.7181  1.0388 -1.1973
  619MOL0     H85382  11.045   0.982   3.822  0.9629 -0.1596  0.2590
  619MOL0     H85383  10.948   1.091   3.706 -2.8707  1.0496  1.1350
  619MOL0     H85384  11.480   1.256   3.488  1.7903  0.6608 -1.2672
  619MOL0     H85385  11.596   1.142   3.291  1.0554 -1.1566 -1.0792
  619MOL0     H85386  11.658   0.999   3.123 -0.1450 -0.3180 -3.2795
  619MOL0     H85387  11.648   0.829   3.087  1.3788  0.7801  1.4090
  619MOL0     H85388  11.413   1.012   3.189 -2.3842 -3.0818  1.3320
  619MOL0     H85389  11.438   0.976   3.023  1.0085  1.9372  0.3211
  619MOL0     H85390  11.439   0.742   3.212 -0.9851  0.3127  1.7534
  619MOL0     H85391  11.417   0.745   3.038 -0.7820 -0.4356  1.1205
  619MOL0     H85392  11.194   0.851   3.065  0.8254 -0.0897 -1.4058
  619MOL0     H85393  11.216   0.820   3.246 -2.5615  1.1229 -1.0494
  619MOL0     H85394  11.208   0.636   3.009  2.2790  0.6018 -0.5463
  619MOL0     H85395  11.262   0.566   3.161 -0.6837 -1.7469 -3.5577
  619MOL0     H85396  11.014   0.704   3.126  0.7956  0.7393  0.4765
  619MOL0     H85397  11.054   0.614   3.271 -0.2869  0.2243  0.2099
  619MOL0     H85398  11.062   0.475   3.026 -0.1469  0.4053  1.7989
  619MOL0     H85399  10.904   0.533   3.052 -0.6924 -1.2869  0.2566
  619MOL0     H85400  10.903   0.310   3.154 -2.6609  2.6619  0.2599
  619MOL0     H85401  10.914   0.402   3.295  2.5477  3.2946  0.2476
  619MOL0     H85402  11.540   0.765   3.477  2.0553 -0.2995  3.5194
  619MOL0     H85403  11.426   0.874   3.680  0.4681 -0.1934 -0.8094
  619MOL0     H85404  11.349   1.343   3.825 -0.7676 -1.0031 -2.4436
  619MOL0     H85405  11.254   1.466   4.018  0.9340 -1.3827 -0.2426
  619MOL0     H85406  10.852   0.147   4.466 -2.0075 -4.8606 -1.3917
  619MOL0     H85407  10.675   0.050   4.352 -0.0108  0.3751  0.5072
  619MOL0     H85408  10.380   0.144   3.827  0.5473  0.6293  0.1748
  619MOL0     H85409  10.224  -0.011   3.686  0.3008  1.2056 -1.0506
  619MOL0     H85410  10.008  -0.124   3.726  0.6170  0.7055  0.2839
  619MOL0     H85411  10.113  -0.152   3.588 -0.3992 -1.3811 -1.2157
  619MOL0     H85412   9.906  -0.344   3.683 -0.4525  0.8261  0.3813
  619MOL0     H85413  10.046  -0.386   3.590 -3.2505 -0.8451 -0.0841
  619MOL0     H85414   9.814  -0.212   3.511  2.4837  1.5439  2.0023
  619MOL0     H85415   9.947  -0.186   3.408  0.2581 -2.5982 -2.3668
  619MOL0     H85416   9.965  -0.433   3.367 -1.6415 -1.5053  0.0167
  619MOL0     H85417   9.835  -0.340   3.298  1.6374  0.7948 -0.0697
  619MOL0     H85418   9.639  -0.597   3.582  2.4640 -2.0253  0.6515
  619MOL0     H85419  10.327  -0.328   3.927  1.2172  0.4951  2.0432
  619MOL0     H85420  10.481  -0.315   4.129  1.4064 -1.3422 -1.0493
  619MOL0     H85421  10.612  -0.215   4.076  0.2139  0.6195  1.0575
  619MOL0     H85422  10.499  -0.149   4.194 -1.6822 -1.8113  1.1087
  620MOL0     O85423  11.491   9.141  11.133  0.3481 -0.4074  0.3812
  620MOL0     C85424  11.513   9.022  11.120 -0.4817  1.3051 -0.0508
  620MOL0     O85425  11.595   8.970  11.023 -0.2836  0.0736 -0.1716
  620MOL0     C85426  11.648   9.057  10.925  0.4773  0.2853  0.6660
  620MOL0     C85427  11.568   9.164  10.866 -2.0188  0.2656  0.2279
  620MOL0     C85428  11.637   9.261  10.785 -0.4191 -0.6851 -0.3309
  620MOL0     C85429  11.779   9.254  10.764  0.0885 -1.5883  0.1416
  620MOL0     O85430  11.834   9.354  10.683  1.2697 -0.0297 -0.7574
  620MOL0     C85431  11.973   9.365  10.696  0.0942  0.4838 -0.5542
  620MOL0     C85432  12.004   9.509  10.644  0.0599 -0.3034 -0.0228
  620MOL0     C85433  12.152   9.544  10.681  0.1336 -0.4278  0.4213
  620MOL0     C85434  12.209   9.638  10.575  0.3566 -0.0211 -0.6387
  620MOL0     C85435  12.342   9.701  10.610  0.2535  0.5750  0.1302
  620MOL0     C85436  12.381   9.794  10.491 -0.6594  0.1788 -1.5350
  620MOL0     C85437  12.518   9.861  10.530 -0.1641 -0.5445 -0.9039
  620MOL0     C85438  12.599   9.942  10.423  0.5649 -0.3914 -0.6400
  620MOL0     N85439  12.610   9.880  10.285 -0.0693  0.3856 -0.5514
  620MOL0     C85440  12.522   9.914  10.177 -0.4147  0.7406 -1.1135
  620MOL0     C85441  12.552   9.827  10.083 -0.0760  0.7672 -0.0784
  620MOL0     C85442  12.513   9.826   9.942  0.7265 -0.9059 -0.3084
  620MOL0     C85443  12.397   9.729   9.924 -0.0506  0.4512  0.3958
  620MOL0     C85444  12.275   9.785   9.880  0.3682 -0.6804  0.1791
  620MOL0     C85445  12.147   9.714   9.937 -0.5263 -0.7366  0.6522
  620MOL0     O85446  12.133   9.759  10.075 -0.3122  0.2468  0.2116
  620MOL0     C85447  12.007   9.760  10.136 -0.2525  1.0174 -0.4757
  620MOL0     C85448  11.909   9.671  10.095  0.0652 -0.6079 -0.2621
  620MOL0     C85449  11.788   9.654  10.171 -0.3708 -0.1679  0.6602
  620MOL0     C85450  11.691   9.544  10.122  1.2790 -0.2392 -0.0274
  620MOL0     C85451  11.770   9.735  10.291  0.2528  0.2910  0.2484
  620MOL0     C85452  11.656   9.746  10.382  0.7911  0.5096 -0.6164
  620MOL0     O85453  11.681   9.747  10.515  0.5348  0.6857  0.1227
  620MOL0     C85454  11.586   9.768  10.613  0.2281 -0.6692  0.4075
  620MOL0     C85455  11.532   9.896  10.629  0.0961  0.8448 -0.7541
  620MOL0     C85456  11.452   9.931  10.732  0.9153  1.1698  0.6055
  620MOL0     C85457  11.403   9.837  10.823 -0.1681  0.8251 -0.6653
  620MOL0     O85458  11.322   9.868  10.920  0.3383  0.3137  0.0042
  620MOL0     C85459  11.326   9.812  11.048 -0.9219  0.0444 -1.0897
  620MOL0     C85460  11.295   9.913  11.156  0.3890  0.0975 -1.2941
  620MOL0     C85461  11.176  10.008  11.109 -0.4339 -0.4553  0.3381
  620MOL0     C85462  11.131  10.103  11.213  0.2322  0.0378  0.3760
  620MOL0     C85463  11.052  10.230  11.173 -0.0579  0.6454  0.2441
  620MOL0     C85464  11.031  10.326  11.287 -0.1583  0.7760 -0.5255
  620MOL0     C85465  10.972  10.460  11.229 -1.0778  0.8433  0.9878
  620MOL0     C85466  10.937  10.567  11.328 -1.0950 -1.0868 -0.3046
  620MOL0    Cl85467  11.077  10.593  11.445 -0.2012  0.4413  0.1337
  620MOL0     C85468  11.447   9.707  10.814 -0.7676 -0.1958 -0.0142
  620MOL0     C85469  11.539   9.674  10.699  0.3276  0.0589  0.0023
  620MOL0     O85470  11.541   9.750  10.332  0.8534 -0.3283  0.5426
  620MOL0     C85471  11.877   9.817  10.333 -0.0824  0.5362 -0.6176
  620MOL0     C85472  11.991   9.825  10.254  0.7570  0.1490 -0.4167
  620MOL0     N85473  12.643   9.737  10.134 -0.3250 -0.0510 -0.6344
  620MOL0     N85474  12.680   9.775  10.249 -0.6483 -0.1843  0.1096
  620MOL0     C85475  11.845   9.147  10.815 -0.5668  0.9203 -1.3198
  620MOL0     C85476  11.784   9.051  10.901  0.2951 -0.0780  0.1376
  620MOL0     C85477  11.458   8.921  11.214  0.7778  0.2034 -0.4866
  620MOL0     C85478  11.466   8.785  11.176 -0.0729  0.9377  0.6529
  620MOL0     C85479  11.389   8.692  11.237 -0.1537 -0.9303  0.5882
  620MOL0     C85480  11.308   8.721  11.345 -0.1614  0.3403 -0.2724
  620MOL0     O85481  11.237   8.616  11.402  0.6990 -0.7812 -0.2454
  620MOL0     C85482  11.157   8.640  11.519  0.5029 -0.7283 -0.3020
  620MOL0     C85483  11.136   8.504  11.597  0.2073  0.2435  0.1476
  620MOL0     C85484  11.070   8.530  11.737 -0.4872 -0.1377  0.7369
  620MOL0     C85485  10.987   8.420  11.808  0.4014  0.3765  0.2862
  620MOL0     C85486  10.874   8.379  11.727  0.3954  0.4166  0.2329
  620MOL0     C85487  10.768   8.378  11.670  0.4258  0.3830 -0.4370
  620MOL0     C85488  11.301   8.858  11.382  0.7507 -0.4617  0.0377
  620MOL0     C85489  11.367   8.953  11.322 -0.1866  0.3992 -0.3066
  620MOL0     C85490  11.351   9.095  11.364  0.0963 -0.0468 -0.2219
  620MOL0     H85491  11.461   9.178  10.863 -2.1010 -0.4282 -1.6571
  620MOL0     H85492  11.572   9.335  10.740 -3.0026 -3.0895 -0.8373
  620MOL0     H85493  12.021   9.292  10.630  0.9025  2.2312 -1.9867
  620MOL0     H85494  12.003   9.357  10.801  0.4827 -0.8737 -0.7472
  620MOL0     H85495  11.976   9.527  10.540  0.1173  2.4979  0.3661
  620MOL0     H85496  11.938   9.566  10.710  3.0682  0.1322  2.8884
  620MOL0     H85497  12.156   9.605  10.772 -3.4670 -0.0618  0.4769
  620MOL0     H85498  12.216   9.456  10.692 -2.9221 -2.7609  1.2219
  620MOL0     H85499  12.212   9.578  10.483  1.3738  1.2004 -1.4259
  620MOL0     H85500  12.132   9.715  10.564 -1.5911 -0.6266  5.1241
  620MOL0     H85501  12.417   9.622  10.604  1.7678  2.0687 -2.3586
  620MOL0     H85502  12.335   9.742  10.711 -1.5514  2.8841 -0.8112
  620MOL0     H85503  12.403   9.735  10.402  0.6423 -0.9155 -0.5361
  620MOL0     H85504  12.300   9.865  10.473 -1.3194  0.9562  3.1695
  620MOL0     H85505  12.582   9.785  10.577  0.1299  1.9257  3.1275
  620MOL0     H85506  12.494   9.932  10.609 -0.6217 -0.8418 -0.7718
  620MOL0     H85507  12.560  10.044  10.424  2.7628  0.5025 -0.4175
  620MOL0     H85508  12.703   9.955  10.456  1.0402  0.8317 -2.4506
  620MOL0     H85509  12.450   9.994  10.193 -0.6797  0.2048  0.7190
  620MOL0     H85510  12.600   9.781   9.894  1.1587 -2.4368  1.7608
  620MOL0     H85511  12.492   9.929   9.913 -0.2021 -1.1121 -0.3976
  620MOL0     H85512  12.435   9.657   9.851 -0.1998 -0.3685  1.1070
  620MOL0     H85513  12.387   9.669  10.015 -3.6978  1.5996  0.9064
  620MOL0     H85514  12.274   9.894   9.889 -0.9803 -0.8372  2.4326
  620MOL0     H85515  12.282   9.750   9.776  4.2388 -1.9725  0.7147
  620MOL0     H85516  12.061   9.750   9.878  0.6371 -0.6076 -1.0399
  620MOL0     H85517  12.158   9.605   9.934  0.7580 -0.6307 -2.3331
  620MOL0     H85518  11.922   9.600  10.014  0.3246 -3.0570  1.8049
  620MOL0     H85519  11.590   9.563  10.158 -0.0531 -0.6207 -3.3088
  620MOL0     H85520  11.712   9.442  10.157 -0.4525 -1.0625 -1.2344
  620MOL0     H85521  11.687   9.528  10.014  1.6703 -2.4140  0.2331
  620MOL0     H85522  11.569   9.983  10.575 -0.6079  1.4829 -0.2214
  620MOL0     H85523  11.429  10.036  10.748  2.3449  1.3136  1.9572
  620MOL0     H85524  11.250   9.734  11.062 -1.7944  0.9148 -0.8678
  620MOL0     H85525  11.428   9.775  11.067 -1.6463 -1.5440 -0.0491
  620MOL0     H85526  11.268   9.873  11.254  1.6849  0.4010 -0.8015
  620MOL0     H85527  11.387   9.972  11.162  0.7587 -0.3816 -2.1450
  620MOL0     H85528  11.088   9.956  11.069  0.2765  1.2381 -3.9044
  620MOL0     H85529  11.206  10.061  11.019  0.3981  2.8950  2.4230
  620MOL0     H85530  11.218  10.125  11.276  0.3448 -0.5958  0.4441
  620MOL0     H85531  11.057  10.050  11.274 -1.5172  1.1182 -0.7442
  620MOL0     H85532  11.113  10.278  11.096  0.7100 -0.1806  0.3250
  620MOL0     H85533  10.955  10.198  11.135 -1.6994  3.6293  1.5878
  620MOL0     H85534  11.124  10.361  11.331  0.3918  1.1351 -1.9108
  620MOL0     H85535  10.978  10.278  11.370  4.8517 -1.0519  1.9887
  620MOL0     H85536  10.883  10.430  11.174  0.3300 -2.7280  0.3397
  620MOL0     H85537  11.050  10.495  11.161 -0.2710 -2.5228 -0.0523
  620MOL0     H85538  10.850  10.536  11.386 -2.7457  0.0820 -2.0340
  620MOL0     H85539  10.911  10.663  11.282 -2.1233 -0.4568  1.4917
  620MOL0     H85540  11.405   9.621  10.865 -2.2217 -0.4864 -1.6373
  620MOL0     H85541  11.575   9.573  10.681 -1.3265 -0.1911 -2.2331
  620MOL0     H85542  11.866   9.874  10.425  2.9796 -1.2322  1.0057
  620MOL0     H85543  12.071   9.874  10.309  0.4035  0.3260 -0.0609
  620MOL0     H85544  11.951   9.124  10.811 -0.2902  1.0169  2.3435
  620MOL0     H85545  11.843   8.970  10.943 -1.4085 -1.6463 -0.3340
  620MOL0     H85546  11.535   8.754  11.099 -3.1878  1.7628 -2.7548
  620MOL0     H85547  11.408   8.589  11.210 -2.0692 -1.0075 -0.5687
  620MOL0     H85548  11.211   8.708  11.586 -0.1171 -2.0359  1.6070
  620MOL0     H85549  11.065   8.684  11.480  0.1817  0.2941  1.4973
  620MOL0     H85550  11.236   8.460  11.600  1.1862  2.0438 -2.1605
  620MOL0     H85551  11.062   8.445  11.542 -0.6017  0.2322  1.2107
  620MOL0     H85552  11.150   8.565  11.802 -0.0106 -0.0690  0.1267
  620MOL0     H85553  11.001   8.611  11.710 -2.4909 -1.6258  1.1528
  620MOL0     H85554  10.944   8.455  11.902 -0.0700 -0.8755  0.5529
  620MOL0     H85555  11.062   8.344  11.829 -1.1146 -1.3078 -0.2112
  620MOL0     H85556  10.676   8.383  11.615 -1.0752 -1.1045  1.7854
  620MOL0     H85557  11.252   8.892  11.473  1.8312  0.9870  0.0943
  620MOL0     H85558  11.449   9.144  11.375  1.2875 -2.7785  3.0496
  620MOL0     H85559  11.297   9.154  11.290 -0.5705  2.3741  2.0198
  620MOL0     H85560  11.303   9.108  11.461  0.4570 -1.5841  0.1866
  621MOL0     O85561   1.308   9.221   1.864 -0.5306 -0.4754  0.8123
  621MOL0     C85562   1.274   9.267   1.752 -0.3167  0.7898  0.0399
  621MOL0     O85563   1.141   9.298   1.714 -0.5866 -0.5367 -0.2203
  621MOL0     C85564   1.050   9.276   1.810 -0.1179  0.6788  0.8133
  621MOL0     C85565   1.015   9.367   1.904 -0.4336 -0.3976  0.3344
  621MOL0     C85566   0.913   9.341   1.994  0.9413  0.4092 -0.6724
  621MOL0     C85567   0.847   9.216   1.994 -0.1044  0.2895  0.1395
  621MOL0     O85568   0.745   9.195   2.083  0.4191 -0.3095 -0.5454
  621MOL0     C85569   0.705   9.057   2.100  0.0031 -0.7081 -0.6285
  621MOL0     C85570   0.615   9.053   2.222  0.5947 -0.4747 -0.3304
  621MOL0     C85571   0.482   9.139   2.224  0.1157 -0.8053  0.2634
  621MOL0     C85572   0.368   9.081   2.141 -0.2692 -1.0392 -0.6230
  621MOL0     C85573   0.222   9.137   2.171 -1.0381  0.4614 -0.7298
  621MOL0     C85574   0.118   9.058   2.095  0.4111  0.2459 -0.2729
  621MOL0     C85575   0.080   8.929   2.165  0.0766 -0.3177  0.6595
  621MOL0     C85576  -0.036   8.863   2.102 -0.0420  1.1411 -0.7622
  621MOL0     N85577  -0.105   8.769   2.191  0.4907 -0.0926  0.7760
  621MOL0     C85578  -0.143   8.801   2.320  0.3941  0.1083  0.3734
  621MOL0     C85579  -0.191   8.682   2.357 -0.9017 -0.2669 -0.2171
  621MOL0     C85580  -0.253   8.657   2.486 -0.2795 -0.2800 -0.4707
  621MOL0     C85581  -0.397   8.700   2.490  0.1472 -0.9711 -0.3299
  621MOL0     C85582  -0.494   8.655   2.385  0.7041 -0.4405 -0.2586
  621MOL0     C85583  -0.497   8.504   2.373  0.1975  0.2362 -0.9492
  621MOL0     O85584  -0.605   8.453   2.284 -0.1868  0.3882  0.2652
  621MOL0     C85585  -0.604   8.469   2.149  0.2048  0.0814  0.6906
  621MOL0     C85586  -0.729   8.457   2.087  0.1436  0.1607 -0.3339
  621MOL0     C85587  -0.748   8.472   1.950 -0.0564  0.4588 -0.1721
  621MOL0     C85588  -0.881   8.439   1.892  0.0170 -0.0068  0.1666
  621MOL0     C85589  -0.628   8.510   1.866  1.2099  0.4081  0.1347
  621MOL0     C85590  -0.628   8.544   1.715 -0.3742 -0.2473  0.1198
  621MOL0     O85591  -0.519   8.612   1.670  0.0115  0.8003  0.4354
  621MOL0     C85592  -0.526   8.668   1.549 -0.4939 -0.1999  0.7603
  621MOL0     C85593  -0.594   8.797   1.544 -0.1939  0.7643  0.3372
  621MOL0     C85594  -0.599   8.869   1.418 -0.4127  0.4031  0.1228
  621MOL0     C85595  -0.520   8.823   1.312 -0.3564 -0.3255  0.5048
  621MOL0     O85596  -0.521   8.913   1.211  1.3785 -0.0724 -0.0869
  621MOL0     C85597  -0.463   8.893   1.084 -0.3917  0.0513  1.0261
  621MOL0     C85598  -0.333   8.972   1.063 -0.1098 -0.5199  0.4507
  621MOL0     C85599  -0.213   8.901   1.106 -0.0271 -0.3775  0.0168
  621MOL0     C85600  -0.166   8.782   1.014  0.3528  0.6247 -0.5711
  621MOL0     C85601  -0.036   8.718   1.071  0.3514  0.9114 -0.9293
  621MOL0     C85602   0.017   8.601   0.987  0.0421 -0.3463  0.0429
  621MOL0     C85603   0.139   8.545   1.075 -0.5736 -0.0415 -0.2418
  621MOL0     C85604   0.217   8.429   1.019 -0.0736  0.2835 -0.4659
  621MOL0    Cl85605   0.287   8.334   1.154  0.1481  0.2634  0.4161
  621MOL0     C85606  -0.460   8.695   1.316  0.6722  0.1246  1.1423
  621MOL0     C85607  -0.465   8.620   1.438 -0.7042  0.1019  0.4975
  621MOL0     O85608  -0.723   8.517   1.643  1.0561 -0.0045  0.0474
  621MOL0     C85609  -0.505   8.511   1.927 -0.1700  0.0248 -1.3251
  621MOL0     C85610  -0.489   8.494   2.074  0.1631 -0.6211 -0.5947
  621MOL0     N85611  -0.162   8.582   2.269  0.3166 -0.6699 -0.2852
  621MOL0     N85612  -0.113   8.637   2.164  0.8157 -0.2328 -0.2147
  621MOL0     C85613   0.883   9.118   1.896 -0.7314 -0.0954  0.3767
  621MOL0     C85614   0.984   9.148   1.799 -0.3508 -0.2070 -0.3317
  621MOL0     C85615   1.364   9.266   1.638  0.2920  0.2165 -1.6789
  621MOL0     C85616   1.328   9.204   1.519 -0.4534 -0.1923 -0.0801
  621MOL0     C85617   1.410   9.205   1.412  0.0217 -0.9962 -0.0855
  621MOL0     C85618   1.527   9.267   1.412 -0.3424  0.8308 -0.0544
  621MOL0     O85619   1.608   9.262   1.300  0.4823  0.2662 -0.5027
  621MOL0     C85620   1.750   9.298   1.306  0.4874  0.1185 -0.6490
  621MOL0     C85621   1.774   9.445   1.274 -1.1361  0.2680  0.1642
  621MOL0     C85622   1.924   9.497   1.310 -0.1404  0.3241  0.7167
  621MOL0     C85623   2.045   9.433   1.243  0.4049  0.2975 -0.6369
  621MOL0     C85624   2.055   9.293   1.275 -0.1816  0.0703  0.6786
  621MOL0     C85625   2.076   9.173   1.295 -1.5273 -0.2554  1.0211
  621MOL0     C85626   1.572   9.330   1.530 -0.0262 -0.1723  0.2374
  621MOL0     C85627   1.489   9.332   1.642  0.0261  0.2183 -0.4336
  621MOL0     C85628   1.531   9.413   1.769  0.3097  0.7742 -0.3116
  621MOL0     H85629   1.074   9.457   1.917 -1.0922  0.4670 -2.2435
  621MOL0     H85630   0.886   9.415   2.068  2.1046 -0.6010  0.8189
  621MOL0     H85631   0.792   8.997   2.126 -0.7250 -1.3243  0.4829
  621MOL0     H85632   0.654   9.008   2.017 -1.9262 -1.1065  0.7160
  621MOL0     H85633   0.574   8.952   2.229 -1.8599  0.4243 -0.4988
  621MOL0     H85634   0.667   9.083   2.313 -0.4584  1.1018 -0.1892
  621MOL0     H85635   0.450   9.163   2.325  0.0434 -1.6273  0.4398
  621MOL0     H85636   0.495   9.240   2.182  4.1849 -0.3267  2.2115
  621MOL0     H85637   0.387   9.121   2.041 -0.4454 -2.1898 -1.1339
  621MOL0     H85638   0.364   8.972   2.132 -0.1571 -1.0635 -0.3999
  621MOL0     H85639   0.229   9.244   2.148  0.9192  0.4213 -0.5206
  621MOL0     H85640   0.200   9.136   2.278 -1.9926  3.0274 -0.8336
  621MOL0     H85641   0.033   9.124   2.074  0.6747  0.2850 -1.2678
  621MOL0     H85642   0.155   9.034   1.995  0.6007  1.4997 -0.5189
  621MOL0     H85643   0.066   8.948   2.272  0.9188 -1.4694  0.9897
  621MOL0     H85644   0.167   8.864   2.163 -0.5379 -1.1472 -0.9672
  621MOL0     H85645  -0.112   8.941   2.087 -3.6705 -2.0655 -0.5562
  621MOL0     H85646  -0.015   8.818   2.005 -0.2203 -1.8127  0.4733
  621MOL0     H85647  -0.140   8.896   2.373  0.1552  1.0025 -1.1471
  621MOL0     H85648  -0.198   8.708   2.566  1.8974 -3.9057  0.5723
  621MOL0     H85649  -0.235   8.550   2.501  2.6648  0.1688 -0.2314
  621MOL0     H85650  -0.432   8.677   2.591 -0.1504 -1.1581 -0.4747
  621MOL0     H85651  -0.397   8.810   2.495 -1.2980 -0.9944  1.9243
  621MOL0     H85652  -0.594   8.694   2.405  2.0494  0.9006  6.0476
  621MOL0     H85653  -0.450   8.687   2.290  2.8472 -0.7965  0.5572
  621MOL0     H85654  -0.400   8.472   2.336 -0.5505 -0.3595 -2.4774
  621MOL0     H85655  -0.508   8.469   2.476  0.3171  0.1771 -0.9562
  621MOL0     H85656  -0.822   8.447   2.142  0.4792  1.5513  0.5370
  621MOL0     H85657  -0.919   8.525   1.836 -1.6702  1.1421  2.8759
  621MOL0     H85658  -0.960   8.426   1.967  0.2495  2.5569  0.9242
  621MOL0     H85659  -0.877   8.348   1.831 -0.8039 -0.1925  0.3727
  621MOL0     H85660  -0.645   8.839   1.630 -2.6475 -0.4937 -0.4179
  621MOL0     H85661  -0.649   8.965   1.426 -1.2842 -0.1954  2.4632
  621MOL0     H85662  -0.440   8.792   1.051  1.7669  0.6858  0.4098
  621MOL0     H85663  -0.541   8.935   1.020  0.6859  0.3417 -0.1360
  621MOL0     H85664  -0.309   8.995   0.959  2.6612 -1.4835  0.7797
  621MOL0     H85665  -0.350   9.064   1.119 -0.7306 -0.0883 -0.4256
  621MOL0     H85666  -0.220   8.847   1.201  0.8734 -0.5259  0.0134
  621MOL0     H85667  -0.141   8.983   1.116 -2.7654  2.4205 -1.4732
  621MOL0     H85668  -0.139   8.822   0.916  2.5913  0.7639  0.0432
  621MOL0     H85669  -0.248   8.709   1.009  0.0738  0.9296 -0.4963
  621MOL0     H85670   0.043   8.794   1.074  1.0572  0.1692  0.3080
  621MOL0     H85671  -0.053   8.680   1.172 -2.3447 -1.3927 -2.1380
  621MOL0     H85672   0.057   8.623   0.888  0.8598 -2.7929 -0.2254
  621MOL0     H85673  -0.057   8.521   0.978  1.5999 -1.9789  1.0143
  621MOL0     H85674   0.106   8.514   1.175  1.1041  0.6115  0.5650
  621MOL0     H85675   0.225   8.611   1.089  2.6311 -3.7136 -0.8816
  621MOL0     H85676   0.295   8.468   0.953  0.5668  0.5342  0.4315
  621MOL0     H85677   0.140   8.366   0.971  0.9523 -4.5902  3.4681
  621MOL0     H85678  -0.410   8.669   1.223 -0.7582  3.2168 -0.6128
  621MOL0     H85679  -0.419   8.523   1.457 -5.5953 -1.9817  3.6077
  621MOL0     H85680  -0.411   8.515   1.872 -0.0410  0.3888 -1.0834
  621MOL0     H85681  -0.390   8.496   2.119 -1.1064 -1.3724  2.5549
  621MOL0     H85682   0.838   9.020   1.909 -0.6496 -0.0234  1.1926
  621MOL0     H85683   1.012   9.078   1.721  0.3113 -0.0170 -0.2665
  621MOL0     H85684   1.231   9.159   1.499 -0.7603  0.0171  0.8899
  621MOL0     H85685   1.393   9.158   1.316 -1.7645 -0.0698 -0.2650
  621MOL0     H85686   1.795   9.261   1.398 -0.2665 -0.2187 -0.4055
  621MOL0     H85687   1.798   9.236   1.229 -0.2552  0.7232 -1.6230
  621MOL0     H85688   1.698   9.501   1.330  0.3696  0.0629  2.5688
  621MOL0     H85689   1.774   9.458   1.166 -2.0062 -1.6726 -0.1212
  621MOL0     H85690   1.934   9.605   1.299  0.6704  0.6399  3.6079
  621MOL0     H85691   1.937   9.489   1.419  0.4760 -0.7894  0.5772
  621MOL0     H85692   2.128   9.497   1.274  0.3420 -0.0804  0.3545
  621MOL0     H85693   2.029   9.436   1.135 -1.7814  0.1145 -0.3646
  621MOL0     H85694   2.103   9.071   1.310 -3.0146 -0.8191  0.0269
  621MOL0     H85695   1.655   9.400   1.522 -0.3631  0.3158  0.8879
  621MOL0     H85696   1.519   9.356   1.862  1.4631 -1.3348 -1.3649
  621MOL0     H85697   1.633   9.453   1.769  0.5723  0.1484  0.9919
  621MOL0     H85698   1.453   9.489   1.772 -0.7769 -0.2688 -0.9939
  622MOL0     O85699   6.946   0.644   0.531 -0.4733 -0.1515 -0.0332
  622MOL0     C85700   6.887   0.632   0.636  0.2399 -1.0079  0.9490
  622MOL0     O85701   6.837   0.731   0.707  0.0370  0.4365 -0.0485
  622MOL0     C85702   6.841   0.861   0.671  0.3080 -0.6386 -0.1037
  622MOL0     C85703   6.832   0.951   0.771  0.0436  0.0269  0.0118
  622MOL0     C85704   6.818   1.089   0.741  0.9225 -1.6491  0.6884
  622MOL0     C85705   6.830   1.143   0.610 -0.3096 -1.4795  0.3651
  622MOL0     O85706   6.812   1.276   0.575 -0.3195 -0.3707  0.0070
  622MOL0     C85707   6.881   1.368   0.663 -0.2629 -0.6893 -0.6282
  622MOL0     C85708   6.911   1.494   0.577 -0.6879  1.2348 -0.1256
  622MOL0     C85709   6.963   1.597   0.674  0.9254 -1.1545 -0.1606
  622MOL0     C85710   6.992   1.716   0.584  0.9821  0.6537 -0.3317
  622MOL0     C85711   7.050   1.832   0.649  0.0145 -1.1600 -0.2238
  622MOL0     C85712   6.992   1.882   0.779  0.1329 -0.2123  0.2897
  622MOL0     C85713   7.064   2.016   0.839  0.7330 -0.0807  0.2986
  622MOL0     C85714   7.210   2.002   0.886 -0.7565  0.0075  0.1562
  622MOL0     N85715   7.257   2.125   0.957  0.0969  0.9236  0.1024
  622MOL0     C85716   7.182   2.188   1.064 -0.1058 -0.5644  0.1139
  622MOL0     C85717   7.201   2.322   1.043  0.3140 -0.5239 -0.1881
  622MOL0     C85718   7.152   2.433   1.125  1.1424  0.0559 -0.7280
  622MOL0     C85719   7.003   2.446   1.089  0.0083  0.0451  0.1499
  622MOL0     C85720   6.942   2.560   1.165  0.2750  0.2393 -1.0657
  622MOL0     C85721   6.997   2.695   1.118 -0.5659 -1.2026  0.9268
  622MOL0     O85722   6.941   2.792   1.207  0.3101 -0.8985  0.2666
  622MOL0     C85723   6.937   2.922   1.153  0.3963  0.5741  0.5083
  622MOL0     C85724   7.037   2.979   1.067 -0.5453  0.3119 -0.2678
  622MOL0     C85725   7.019   3.106   1.025 -0.0146 -0.4299  0.3312
  622MOL0     C85726   7.124   3.147   0.930 -0.4134 -0.4239 -0.0265
  622MOL0     C85727   6.911   3.185   1.062  0.1315  0.2040  0.5606
  622MOL0     C85728   6.896   3.321   1.013 -0.2968 -1.0301 -0.0571
  622MOL0     O85729   6.970   3.423   1.078 -0.6792  0.1028  0.5223
  622MOL0     C85730   6.964   3.550   1.030  0.0100 -0.0447 -0.6108
  622MOL0     C85731   6.841   3.629   1.023 -0.6752  0.1404  0.6998
  622MOL0     C85732   6.842   3.758   0.984 -0.0150  0.2582  0.1282
  622MOL0     C85733   6.962   3.821   0.945  0.6926  0.2384 -0.6643
  622MOL0     O85734   6.952   3.951   0.899  0.2081 -1.1907 -0.3298
  622MOL0     C85735   6.983   3.990   0.764  0.4130  0.0685  0.6234
  622MOL0     C85736   6.895   3.942   0.649  0.4490 -0.4145 -0.7437
  622MOL0     C85737   6.931   3.799   0.594 -0.2065 -0.6787 -0.0854
  622MOL0     C85738   6.807   3.741   0.523  0.1894 -1.3487 -0.1989
  622MOL0     C85739   6.822   3.601   0.475 -0.6253 -0.7176  0.6184
  622MOL0     C85740   6.802   3.491   0.578 -0.0903 -0.2442  0.4282
  622MOL0     C85741   6.846   3.356   0.527  0.6958 -0.0148  1.2675
  622MOL0     C85742   6.995   3.338   0.515 -0.4989  0.1839 -0.7694
  622MOL0    Cl85743   7.042   3.164   0.498 -0.0296 -0.0721  0.1721
  622MOL0     C85744   7.082   3.745   0.942 -0.0983 -0.6657 -0.1448
  622MOL0     C85745   7.079   3.608   0.984  0.6318  0.5225 -1.1094
  622MOL0     O85746   6.814   3.338   0.922 -0.1628 -0.3044 -0.2565
  622MOL0     C85747   6.816   3.121   1.141 -0.0181  0.1821 -0.1468
  622MOL0     C85748   6.829   3.002   1.195  0.3040 -0.2775  0.1143
  622MOL0     N85749   7.287   2.348   0.942  0.8945  0.6065 -0.2257
  622MOL0     N85750   7.322   2.228   0.892 -1.1669  0.2112  0.0931
  622MOL0     C85751   6.836   1.051   0.509 -1.1791  0.5441 -0.3300
  622MOL0     C85752   6.834   0.911   0.541 -0.5629  0.8009  0.6015
  622MOL0     C85753   6.862   0.497   0.694 -1.1579  0.4154  1.4839
  622MOL0     C85754   6.862   0.484   0.831 -0.5279  0.5427 -0.5769
  622MOL0     C85755   6.846   0.363   0.893  0.5008 -0.3367 -0.8463
  622MOL0     C85756   6.816   0.244   0.818 -0.6018 -0.1124 -0.3127
  622MOL0     O85757   6.789   0.117   0.865  0.4143 -0.2787  0.4906
  622MOL0     C85758   6.759   0.090   1.000  0.2193  0.7661  0.6402
  622MOL0     C85759   6.856  -0.010   1.061 -0.3907  0.5577 -0.3313
  622MOL0     C85760   6.832  -0.154   1.025  0.3622  0.1443  0.0817
  622MOL0     C85761   6.927  -0.250   1.098  0.5397 -0.0828 -0.6175
  622MOL0     C85762   6.875  -0.262   1.236 -0.4179  0.0910  0.7882
  622MOL0     C85763   6.806  -0.272   1.339 -0.4622 -0.0909 -0.7127
  622MOL0     C85764   6.816   0.258   0.678 -0.4317 -0.3107  0.0420
  622MOL0     C85765   6.835   0.384   0.618 -0.1803 -0.1371  0.1689
  622MOL0     C85766   6.826   0.383   0.468 -0.2560 -0.2316 -0.1975
  622MOL0     H85767   6.838   0.905   0.869  1.1359  2.4131  1.1498
  622MOL0     H85768   6.805   1.156   0.826  0.1084  0.8310 -1.2866
  622MOL0     H85769   6.975   1.329   0.704 -0.2208 -0.0632 -0.1204
  622MOL0     H85770   6.827   1.403   0.751  4.5515  2.9114  1.3335
  622MOL0     H85771   6.985   1.482   0.497  1.5812  2.1312  1.7364
  622MOL0     H85772   6.829   1.527   0.512 -1.8985 -3.1678 -1.2287
  622MOL0     H85773   6.886   1.632   0.743  0.0024 -0.7881 -1.3262
  622MOL0     H85774   7.052   1.575   0.734 -0.6581 -1.0203  2.3388
  622MOL0     H85775   7.053   1.686   0.498 -2.4332  1.4453 -3.2686
  622MOL0     H85776   6.896   1.744   0.540  1.0757  0.9617 -0.3383
  622MOL0     H85777   7.041   1.915   0.578  1.0262  1.9035  2.9538
  622MOL0     H85778   7.157   1.808   0.657  0.5122 -0.2937 -3.1243
  622MOL0     H85779   6.883   1.892   0.778 -0.1432 -2.3711  1.1634
  622MOL0     H85780   7.013   1.799   0.848  2.7329 -3.3896 -3.8799
  622MOL0     H85781   7.003   2.057   0.920  1.3494 -2.6649  2.1721
  622MOL0     H85782   7.054   2.094   0.762 -2.7222 -1.2346 -0.5873
  622MOL0     H85783   7.221   1.918   0.955  0.4114  2.7960  3.6484
  622MOL0     H85784   7.282   1.985   0.806  1.1633 -2.6183  2.2625
  622MOL0     H85785   7.111   2.140   1.130  0.7084  1.1064  2.3601
  622MOL0     H85786   7.216   2.521   1.111 -0.6003  1.3641 -0.8364
  622MOL0     H85787   7.163   2.399   1.228 -1.0505  0.1688 -0.4238
  622MOL0     H85788   7.000   2.472   0.982  3.2566 -2.3581 -0.6872
  622MOL0     H85789   6.943   2.359   1.115 -4.3603  3.3185  2.2762
  622MOL0     H85790   6.836   2.556   1.138  0.0476  1.1873 -0.3548
  622MOL0     H85791   6.950   2.562   1.274 -1.0687 -1.7899 -0.8786
  622MOL0     H85792   7.106   2.686   1.128 -0.2741  1.5215  0.9398
  622MOL0     H85793   6.966   2.708   1.014  1.3969 -0.0749  0.4424
  622MOL0     H85794   7.119   2.912   1.043 -0.6065 -1.2411  3.2729
  622MOL0     H85795   7.199   3.069   0.916 -1.4090 -1.0168 -2.7173
  622MOL0     H85796   7.170   3.236   0.975 -3.1843  1.0991 -0.0138
  622MOL0     H85797   7.094   3.178   0.829  2.4172 -2.1592 -1.5359
  622MOL0     H85798   6.748   3.575   1.035 -2.2401  1.2266 -4.1446
  622MOL0     H85799   6.754   3.821   0.976  1.7958  2.7761 -2.0665
  622MOL0     H85800   6.974   4.099   0.765 -0.7505 -0.0146  0.3119
  622MOL0     H85801   7.085   3.959   0.740 -1.1161 -2.7418 -3.2055
  622MOL0     H85802   6.796   3.935   0.697 -0.1183  0.7689 -1.7019
  622MOL0     H85803   6.884   4.010   0.564  1.1641  1.3100  0.4865
  622MOL0     H85804   6.956   3.731   0.676 -0.8860 -0.6831  0.1206
  622MOL0     H85805   7.008   3.810   0.517 -0.8800  3.0562 -0.4067
  622MOL0     H85806   6.793   3.802   0.433 -0.6220  0.4301  1.0857
  622MOL0     H85807   6.726   3.746   0.596  0.8904 -1.4238  0.6055
  622MOL0     H85808   6.745   3.611   0.398  1.5890  0.3432 -1.6222
  622MOL0     H85809   6.922   3.596   0.430 -0.2960  2.4311  0.7581
  622MOL0     H85810   6.700   3.496   0.617  0.1884  1.8156  1.0458
  622MOL0     H85811   6.870   3.510   0.661  1.3180 -2.3773 -0.1514
  622MOL0     H85812   6.785   3.339   0.438  1.5349 -1.8226  0.9850
  622MOL0     H85813   6.809   3.289   0.605  0.2128  0.3795  1.3822
  622MOL0     H85814   7.044   3.377   0.604  2.5092  1.9098 -2.9987
  622MOL0     H85815   7.028   3.399   0.430  1.4525 -4.0850 -3.3794
  622MOL0     H85816   7.169   3.801   0.909  0.5818 -1.6745 -0.0964
  622MOL0     H85817   7.174   3.556   0.986  0.5059  0.3045  0.1161
  622MOL0     H85818   6.716   3.163   1.152 -1.5263 -3.5735  2.7898
  622MOL0     H85819   6.747   2.960   1.253  0.7667 -3.1968 -1.1963
  622MOL0     H85820   6.840   1.087   0.406  6.5529 -0.7210 -1.0686
  622MOL0     H85821   6.840   0.849   0.452  1.5318  1.1187  0.4804
  622MOL0     H85822   6.859   0.573   0.893 -2.3216 -1.1020  1.8690
  622MOL0     H85823   6.853   0.365   1.001 -1.4724  3.4541 -0.6212
  622MOL0     H85824   6.762   0.182   1.059  1.5233  0.2699  1.3873
  622MOL0     H85825   6.656   0.055   1.016  0.1964  0.3393 -0.3634
  622MOL0     H85826   6.859   0.005   1.169 -2.2894 -3.2573  0.4374
  622MOL0     H85827   6.951   0.030   1.025  0.5667 -3.0252 -2.2133
  622MOL0     H85828   6.727  -0.185   1.027  0.3408  0.1294 -0.8113
  622MOL0     H85829   6.853  -0.175   0.920 -1.6539 -1.5940 -0.0501
  622MOL0     H85830   7.025  -0.202   1.106  0.6821 -0.3311 -0.8446
  622MOL0     H85831   6.936  -0.348   1.050  1.4251  0.2278 -1.1092
  622MOL0     H85832   6.744  -0.251   1.424  0.1000  0.0498 -0.3365
  622MOL0     H85833   6.792   0.167   0.624 -2.7602  0.4272 -0.2661
  622MOL0     H85834   6.918   0.422   0.423 -0.5665  1.8659  0.8301
  622MOL0     H85835   6.800   0.284   0.430 -5.0759 -0.3505  2.5831
  622MOL0     H85836   6.745   0.456   0.458  1.7543  2.3968  1.2132
  623MOL0     O85837   4.158   9.911   9.768  0.4219  0.1320 -0.0838
  623MOL0     C85838   4.251   9.992   9.785  0.8027  0.2697 -0.5490
  623MOL0     O85839   4.306  10.022   9.907  0.4248  0.0273  0.4843
  623MOL0     C85840   4.276   9.937  10.007 -0.6317 -0.6686 -0.4992
  623MOL0     C85841   4.369   9.834  10.023  0.0819  0.1783  0.2853
  623MOL0     C85842   4.361   9.754  10.135  0.3243 -0.2136 -0.6189
  623MOL0     C85843   4.254   9.766  10.227 -0.1201  0.7784 -0.5434
  623MOL0     O85844   4.265   9.672  10.322 -0.1769 -0.1922  0.1052
  623MOL0     C85845   4.209   9.705  10.445  0.4847  0.8957 -0.2662
  623MOL0     C85846   4.173   9.569  10.503 -0.1644 -0.3954  1.0007
  623MOL0     C85847   4.134   9.574  10.647 -0.0182  0.0541  0.6261
  623MOL0     C85848   4.097   9.438  10.694 -0.8477  1.0781  0.0199
  623MOL0     C85849   4.208   9.338  10.729 -0.8200 -0.6629 -0.8644
  623MOL0     C85850   4.315   9.395  10.827  0.1358 -0.1668  0.2917
  623MOL0     C85851   4.374   9.271  10.894  0.0683 -0.0012  0.0242
  623MOL0     C85852   4.451   9.167  10.798  1.2056  0.2522  0.2247
  623MOL0     N85853   4.578   9.226  10.751  0.0341 -0.2306  0.0353
  623MOL0     C85854   4.595   9.291  10.636 -0.1890  0.1108 -0.1103
  623MOL0     C85855   4.713   9.357  10.649 -0.9178 -0.2337 -0.4419
  623MOL0     C85856   4.790   9.426  10.542 -0.5349  0.5066  0.2734
  623MOL0     C85857   4.700   9.539  10.494  0.0574 -0.0095 -0.1962
  623MOL0     C85858   4.664   9.532  10.344  0.5988  0.2897  0.7194
  623MOL0     C85859   4.782   9.577  10.262 -0.7174  0.2192  0.3295
  623MOL0     O85860   4.772   9.721  10.251 -0.2936 -0.4725 -0.0370
  623MOL0     C85861   4.834   9.776  10.151  0.3130 -0.6679  0.7798
  623MOL0     C85862   4.764   9.792  10.036  0.6449  0.4819  0.9117
  623MOL0     C85863   4.819   9.825   9.907  1.2476  1.2878 -0.2509
  623MOL0     C85864   4.736   9.829   9.780  0.3625  1.0724 -0.4540
  623MOL0     C85865   4.959   9.846   9.896  0.7615  0.0802 -0.6097
  623MOL0     C85866   5.016   9.884   9.770 -0.5400  0.1959  0.9558
  623MOL0     O85867   4.964   9.990   9.690 -0.2575 -0.1663 -0.8886
  623MOL0     C85868   5.035  10.046   9.593 -0.7220  0.2104  0.8115
  623MOL0     C85869   5.163  10.094   9.620  0.3340  0.2293  0.4497
  623MOL0     C85870   5.240  10.166   9.531 -0.6571  0.3924 -0.0550
  623MOL0     C85871   5.201  10.179   9.396  0.6615 -0.3715 -0.1720
  623MOL0     O85872   5.273  10.251   9.307 -0.2344  0.3383 -0.1386
  623MOL0     C85873   5.327  10.370   9.355  0.0558 -0.2288 -0.1633
  623MOL0     C85874   5.382  10.451   9.239  0.0257 -1.4268  0.1805
  623MOL0     C85875   5.458  10.574   9.296  0.6698  0.3915  0.6627
  623MOL0     C85876   5.520  10.639   9.172 -0.6769  0.8757  0.2526
  623MOL0     C85877   5.578  10.771   9.228 -0.6406 -0.8528  0.4715
  623MOL0     C85878   5.622  10.864   9.122 -0.3239 -1.1881 -0.0525
  623MOL0     C85879   5.707  10.973   9.184 -0.3824  0.3403  0.0611
  623MOL0     C85880   5.705  11.105   9.108 -0.8915 -0.1334  0.7627
  623MOL0    Cl85881   5.689  11.103   8.930 -0.0695 -0.1422 -0.1945
  623MOL0     C85882   5.077  10.117   9.360  0.8626 -0.2177 -0.6315
  623MOL0     C85883   4.995  10.049   9.457  0.4242 -1.2502 -0.0875
  623MOL0     O85884   5.121   9.818   9.744 -1.3134 -0.2767  0.0009
  623MOL0     C85885   5.026   9.835  10.010 -0.9009 -0.1364  0.4753
  623MOL0     C85886   4.968   9.799  10.137  0.0299 -0.0563 -0.6406
  623MOL0     N85887   4.770   9.335  10.769 -0.5573  0.6365  0.1664
  623MOL0     N85888   4.683   9.254  10.823  0.8553 -0.2114  0.4042
  623MOL0     C85889   4.149   9.860  10.204  0.2649  0.4223  0.5364
  623MOL0     C85890   4.154   9.946  10.089 -1.1162 -0.4741  0.5270
  623MOL0     C85891   4.314  10.035   9.659  0.2115  0.0484 -0.4722
  623MOL0     C85892   4.455  10.056   9.673 -0.5949  0.0385 -0.0428
  623MOL0     C85893   4.526  10.092   9.557 -0.0297  0.5755  0.1461
  623MOL0     C85894   4.465  10.124   9.437  0.6957 -0.7474  0.6003
  623MOL0     O85895   4.549  10.153   9.332 -0.2749  0.4403 -0.1578
  623MOL0     C85896   4.504  10.206   9.215  0.3159  0.4630  0.6331
  623MOL0     C85897   4.612  10.233   9.111 -1.1005  0.4112  0.0182
  623MOL0     C85898   4.705  10.339   9.160  0.1724 -1.2448  0.9459
  623MOL0     C85899   4.790  10.403   9.048 -0.2382  0.6918 -0.6077
  623MOL0     C85900   4.877  10.513   9.096 -0.1259 -0.2909  0.3419
  623MOL0     C85901   4.937  10.610   9.138 -0.6173 -0.5978  0.3271
  623MOL0     C85902   4.323  10.121   9.430 -1.2280  0.1039  0.0327
  623MOL0     C85903   4.250  10.071   9.538  1.0134  0.0874  0.0510
  623MOL0     C85904   4.096  10.059   9.525 -0.2903  0.4163 -1.0536
  623MOL0     H85905   4.454   9.839   9.956 -0.1230  1.2828  0.0806
  623MOL0     H85906   4.439   9.678  10.141 -0.1177 -0.6649 -0.4887
  623MOL0     H85907   4.120   9.768  10.435  0.3850  0.5813 -1.4888
  623MOL0     H85908   4.282   9.748  10.513  2.4348 -1.5841 -0.6144
  623MOL0     H85909   4.086   9.531  10.448 -2.6364  3.3239  1.9600
  623MOL0     H85910   4.256   9.499  10.492 -0.5790 -0.8517  0.7503
  623MOL0     H85911   4.209   9.619  10.713 -0.7318  2.9948 -0.4110
  623MOL0     H85912   4.056   9.650  10.643  0.3339  0.4044 -3.3628
  623MOL0     H85913   4.045   9.455  10.789 -0.8793 -0.4596  0.2908
  623MOL0     H85914   4.046   9.379  10.618 -0.2624 -2.9429  2.4734
  623MOL0     H85915   4.242   9.301  10.632 -0.8945 -0.1833 -1.0792
  623MOL0     H85916   4.158   9.251  10.773  1.7864 -0.4384  3.0322
  623MOL0     H85917   4.396   9.454  10.784  0.1066  0.1243  0.6366
  623MOL0     H85918   4.274   9.453  10.910  1.0854 -0.2689  0.8350
  623MOL0     H85919   4.292   9.215  10.941 -0.5741  0.6197 -0.3416
  623MOL0     H85920   4.445   9.299  10.972 -2.1233 -0.1069  2.1643
  623MOL0     H85921   4.467   9.076  10.857 -2.6864 -1.9140 -1.6905
  623MOL0     H85922   4.378   9.143  10.721  0.9539  2.7218 -0.3811
  623MOL0     H85923   4.528   9.294  10.550  1.8302  1.3267 -1.7601
  623MOL0     H85924   4.804   9.352  10.463  2.3335 -0.1862  1.2875
  623MOL0     H85925   4.888   9.461  10.578 -0.7074  2.8417 -1.3373
  623MOL0     H85926   4.597   9.544  10.532 -0.7548  0.9818 -2.3841
  623MOL0     H85927   4.743   9.636  10.517 -0.6412 -0.2754  2.5929
  623MOL0     H85928   4.618   9.435  10.323 -2.3425  0.7226  4.3155
  623MOL0     H85929   4.581   9.601  10.327  0.9314  0.7674  1.0175
  623MOL0     H85930   4.880   9.548  10.302 -0.7588  0.0332  0.2962
  623MOL0     H85931   4.775   9.527  10.165  2.0541 -2.3404  1.2869
  623MOL0     H85932   4.662   9.759  10.052  1.6310 -2.4930  1.7440
  623MOL0     H85933   4.745   9.739   9.717 -0.5394 -0.2786  1.2733
  623MOL0     H85934   4.751   9.925   9.730  0.2650  2.6392  2.3611
  623MOL0     H85935   4.633   9.838   9.813  0.2991  2.0834 -0.9093
  623MOL0     H85936   5.196  10.087   9.724 -3.2685  1.9212  1.8743
  623MOL0     H85937   5.335  10.199   9.572 -0.5556 -0.3131  0.3045
  623MOL0     H85938   5.240  10.430   9.384  2.8389  3.3278  1.7358
  623MOL0     H85939   5.397  10.366   9.439 -1.2861 -2.0077  0.9351
  623MOL0     H85940   5.455  10.387   9.187 -1.2621 -1.1161 -2.1163
  623MOL0     H85941   5.297  10.474   9.175 -0.1770 -1.7119  0.3419
  623MOL0     H85942   5.532  10.544   9.370 -0.1042  2.4075  2.3401
  623MOL0     H85943   5.392  10.651   9.338 -2.2705 -2.5356  1.8930
  623MOL0     H85944   5.442  10.658   9.097 -0.2262 -1.6794 -0.9792
  623MOL0     H85945   5.598  10.585   9.118  0.4243  2.6868 -0.0343
  623MOL0     H85946   5.506  10.823   9.292 -0.9228 -2.3514  1.4283
  623MOL0     H85947   5.664  10.751   9.293 -0.7585  0.8128  1.2028
  623MOL0     H85948   5.537  10.909   9.072 -1.0462 -2.1141  0.3082
  623MOL0     H85949   5.683  10.814   9.046  1.7863  0.9025  0.1574
  623MOL0     H85950   5.809  10.932   9.181 -0.6246 -0.4556  1.7361
  623MOL0     H85951   5.693  10.987   9.291 -1.0779 -0.6467  0.1117
  623MOL0     H85952   5.801  11.152   9.135  1.1905 -2.8009 -1.3942
  623MOL0     H85953   5.628  11.171   9.149 -0.3098  2.1674 -1.5966
  623MOL0     H85954   5.063  10.118   9.252  5.9116  0.3699 -1.5248
  623MOL0     H85955   4.899  10.019   9.416 -0.3578  0.7412  0.1967
  623MOL0     H85956   5.123   9.882  10.006 -0.8481 -0.3010 -1.3993
  623MOL0     H85957   5.032   9.780  10.223 -1.6228 -4.3976 -0.1208
  623MOL0     H85958   4.052   9.856  10.253 -0.0962 -0.8744 -0.2132
  623MOL0     H85959   4.081  10.019  10.053  1.0042  1.3522 -0.2776
  623MOL0     H85960   4.510  10.048   9.766 -0.2089  4.0040  0.2308
  623MOL0     H85961   4.634  10.096   9.572  0.2688 -3.0649 -0.2152
  623MOL0     H85962   4.443  10.128   9.170  1.5892 -1.2341  1.7214
  623MOL0     H85963   4.442  10.291   9.246  1.9626  0.5940  3.9951
  623MOL0     H85964   4.571  10.268   9.016  0.2174 -3.0303 -2.0101
  623MOL0     H85965   4.669  10.144   9.083 -0.7215  0.2502  1.2523
  623MOL0     H85966   4.646  10.422   9.200  1.2518  0.7501 -1.3438
  623MOL0     H85967   4.759  10.303   9.248  0.8944  0.9754  1.4672
  623MOL0     H85968   4.726  10.448   8.972  2.0695  5.0380 -0.2957
  623MOL0     H85969   4.855  10.319   9.022  1.1356  1.8249 -0.9373
  623MOL0     H85970   4.991  10.699   9.160 -2.2841  0.5576 -0.0782
  623MOL0     H85971   4.272  10.158   9.342 -0.1874  0.1198 -0.5676
  623MOL0     H85972   4.064   9.956   9.544  0.6359 -0.1132 -2.2457
  623MOL0     H85973   4.046  10.126   9.595  1.1001  1.3121 -0.8838
  623MOL0     H85974   4.061  10.094   9.428  1.0019  3.2083 -0.6046
  624MOL0     O85975  11.366   1.564   2.125  0.7746  0.2381  0.6360
  624MOL0     C85976  11.411   1.448   2.120 -0.2169  0.2828  0.5385
  624MOL0     O85977  11.378   1.342   2.201  0.7315 -0.1571  0.0564
  624MOL0     C85978  11.278   1.362   2.293 -0.7585 -0.0295 -1.0289
  624MOL0     C85979  11.285   1.441   2.411  0.4688  0.9519 -0.7435
  624MOL0     C85980  11.187   1.436   2.508 -0.7048 -0.7894  0.2113
  624MOL0     C85981  11.079   1.354   2.501  0.0107  0.4812 -0.0683
  624MOL0     O85982  10.987   1.346   2.599 -0.3852  0.0463 -0.6875
  624MOL0     C85983  10.976   1.463   2.688  0.0609 -0.4200  0.9593
  624MOL0     C85984  10.861   1.445   2.793 -1.2098 -0.4028 -0.2419
  624MOL0     C85985  10.724   1.403   2.740  0.3103 -0.0182  0.3214
  624MOL0     C85986  10.627   1.430   2.850 -0.2637  0.3482  0.4934
  624MOL0     C85987  10.488   1.365   2.844 -0.0057  0.0067  0.4975
  624MOL0     C85988  10.408   1.420   2.727  1.0732  0.4869  0.4614
  624MOL0     C85989  10.270   1.354   2.744  0.0763  0.3412 -0.6395
  624MOL0     C85990  10.173   1.457   2.694  0.8672 -0.3766  0.2502
  624MOL0     N85991  10.175   1.499   2.548 -0.3318  0.2373 -0.6550
  624MOL0     C85992  10.161   1.416   2.446  0.2498  0.3919  0.5119
  624MOL0     C85993  10.200   1.471   2.335  0.2660  0.0178  0.6735
  624MOL0     C85994  10.218   1.400   2.204  0.5695  0.2053  0.8019
  624MOL0     C85995  10.275   1.479   2.093  0.5713  0.5358  0.3274
  624MOL0     C85996  10.288   1.399   1.973 -0.1411 -0.2526 -0.3975
  624MOL0     C85997  10.376   1.480   1.877  0.4535  1.1225 -0.3994
  624MOL0     O85998  10.382   1.405   1.749 -0.0048 -0.3128 -0.2370
  624MOL0     C85999  10.492   1.435   1.673  0.7754  0.6462  0.2017
  624MOL0     C86000  10.505   1.351   1.558 -0.7707 -0.7028  0.3705
  624MOL0     C86001  10.625   1.364   1.479  0.4788 -0.2136 -0.0104
  624MOL0     C86002  10.650   1.276   1.359 -0.5103  0.3744 -0.0888
  624MOL0     C86003  10.711   1.462   1.510 -0.1545  0.0294 -0.2171
  624MOL0     C86004  10.839   1.479   1.433  0.2548 -0.6328  0.9274
  624MOL0     O86005  10.924   1.369   1.419  0.3051  0.0835  0.1355
  624MOL0     C86006  10.995   1.357   1.295 -0.6802  0.4961  0.2079
  624MOL0     C86007  11.074   1.238   1.307 -0.1563  0.5340  0.9214
  624MOL0     C86008  11.173   1.218   1.210  0.6889  0.8461  1.0329
  624MOL0     C86009  11.184   1.302   1.096 -1.1463  1.0482 -0.4037
  624MOL0     O86010  11.279   1.290   0.994  0.4142 -0.2018 -0.8625
  624MOL0     C86011  11.330   1.170   0.944  0.0534 -0.6727 -0.4150
  624MOL0     C86012  11.287   1.151   0.802  0.9606  1.0228 -0.0548
  624MOL0     C86013  11.141   1.169   0.774 -0.7980 -0.0543  0.1156
  624MOL0     C86014  11.120   1.319   0.736  0.3129  0.1875  0.4758
  624MOL0     C86015  10.978   1.352   0.714  0.6219 -0.3583  0.0416
  624MOL0     C86016  10.898   1.374   0.847  0.8565 -0.3386 -0.0114
  624MOL0     C86017  10.753   1.405   0.806  0.0659  0.9246  0.1134
  624MOL0     C86018  10.669   1.438   0.919  0.3285 -1.1293 -0.1962
  624MOL0    Cl86019  10.626   1.296   1.017 -0.0364 -0.2977 -0.4350
  624MOL0     C86020  11.096   1.413   1.085  0.0670 -0.2706 -0.5786
  624MOL0     C86021  11.000   1.438   1.171 -0.5128 -0.7364 -0.1029
  624MOL0     O86022  10.872   1.591   1.398  0.6313 -0.7058  0.5123
  624MOL0     C86023  10.684   1.553   1.614 -0.4997 -0.0022 -1.0399
  624MOL0     C86024  10.580   1.541   1.699  0.6642 -0.4156  0.7168
  624MOL0     N86025  10.217   1.603   2.373  0.0043 -0.6511  0.2978
  624MOL0     N86026  10.197   1.623   2.503 -0.1340  0.3230  0.5364
  624MOL0     C86027  11.062   1.285   2.379 -0.3849  0.1297 -0.8930
  624MOL0     C86028  11.160   1.286   2.285  0.1161 -0.7202  0.2959
  624MOL0     C86029  11.513   1.432   2.028  0.2007  0.1027  0.0605
  624MOL0     C86030  11.618   1.348   2.048  0.0076 -0.5480 -0.4265
  624MOL0     C86031  11.723   1.323   1.957 -0.0586  0.8276 -0.7460
  624MOL0     C86032  11.729   1.392   1.836 -0.8311 -0.0666  0.0547
  624MOL0     O86033  11.820   1.363   1.741  0.3581 -0.0980 -0.4187
  624MOL0     C86034  11.953   1.321   1.771  0.3631  0.2710  0.0158
  624MOL0     C86035  12.037   1.335   1.643  0.8367  0.2670  0.4962
  624MOL0     C86036  12.189   1.354   1.654  0.0523  0.9133 -1.5014
  624MOL0     C86037  12.261   1.349   1.510 -0.3079  0.1235 -0.2019
  624MOL0     C86038  12.393   1.287   1.535  0.0522  0.3121 -1.2679
  624MOL0     C86039  12.491   1.228   1.559  0.8890  0.3898  0.0787
  624MOL0     C86040  11.616   1.473   1.802 -0.2544  0.4154  0.2700
  624MOL0     C86041  11.518   1.500   1.898  0.2329  1.0478  0.4848
  624MOL0     C86042  11.401   1.590   1.854 -0.8126  0.4616 -0.6376
  624MOL0     H86043  11.363   1.516   2.422  0.3149  1.1607 -1.0489
  624MOL0     H86044  11.217   1.498   2.592 -0.9765  0.6243 -0.6844
  624MOL0     H86045  10.950   1.545   2.621  0.6740 -0.9417  0.0517
  624MOL0     H86046  11.077   1.484   2.724  1.3593 -3.5047 -0.4913
  624MOL0     H86047  10.897   1.375   2.869 -0.1578  0.2921 -0.0877
  624MOL0     H86048  10.854   1.545   2.838 -4.0557 -0.1451 -1.0219
  624MOL0     H86049  10.696   1.468   2.657  0.4135  1.5320  1.4640
  624MOL0     H86050  10.730   1.298   2.710 -0.2543 -0.0332  0.2546
  624MOL0     H86051  10.667   1.395   2.946 -2.0615 -0.1684  1.0876
  624MOL0     H86052  10.621   1.539   2.857  4.0213  0.7046  1.4482
  624MOL0     H86053  10.439   1.388   2.939 -0.9331 -1.1454  0.3235
  624MOL0     H86054  10.500   1.257   2.834 -4.8424 -0.7817  0.6729
  624MOL0     H86055  10.413   1.529   2.730  1.6288  0.4688  0.2092
  624MOL0     H86056  10.447   1.400   2.627 -3.2732  1.0037 -1.5748
  624MOL0     H86057  10.237   1.327   2.845 -0.7423 -1.3851 -1.3409
  624MOL0     H86058  10.248   1.257   2.699 -0.8255 -0.7167  1.8969
  624MOL0     H86059  10.077   1.417   2.728  2.1217 -1.5393  2.6348
  624MOL0     H86060  10.179   1.549   2.754 -2.0395  1.0821 -1.4521
  624MOL0     H86061  10.133   1.311   2.443  4.4618 -0.8852 -1.1982
  624MOL0     H86062  10.121   1.361   2.172  0.4315  0.3963  0.9780
  624MOL0     H86063  10.278   1.309   2.213 -1.7992 -1.7600 -1.5880
  624MOL0     H86064  10.214   1.569   2.080 -0.0974 -0.2192 -2.3758
  624MOL0     H86065  10.372   1.517   2.126 -0.1169  0.8422  2.1469
  624MOL0     H86066  10.338   1.303   1.984  1.1941  0.4973  0.2696
  624MOL0     H86067  10.197   1.377   1.915  0.4203  0.6916 -1.6949
  624MOL0     H86068  10.328   1.578   1.870 -2.7313 -0.2199  0.7613
  624MOL0     H86069  10.474   1.487   1.925 -0.3018 -2.0692  1.9690
  624MOL0     H86070  10.422   1.283   1.543 -1.7646 -0.2177  3.1510
  624MOL0     H86071  10.713   1.193   1.391 -0.0664 -1.1829 -4.3950
  624MOL0     H86072  10.692   1.324   1.270 -0.5498  2.8711  1.1575
  624MOL0     H86073  10.566   1.222   1.314  1.3160  0.2402 -3.6924
  624MOL0     H86074  11.073   1.177   1.397 -2.2238  0.8102  1.1319
  624MOL0     H86075  11.254   1.150   1.235  2.7770  1.1832 -3.7261
  624MOL0     H86076  11.438   1.181   0.954  0.2744 -3.7849  2.8369
  624MOL0     H86077  11.312   1.083   1.009  0.3030  0.1516  0.7958
  624MOL0     H86078  11.332   1.234   0.747  2.0124  0.8599  0.5460
  624MOL0     H86079  11.319   1.053   0.767  2.2475  1.7558 -1.0246
  624MOL0     H86080  11.085   1.148   0.866  1.1416  2.2434  1.9377
  624MOL0     H86081  11.114   1.098   0.695  1.0525 -1.6049  0.8118
  624MOL0     H86082  11.167   1.337   0.639  0.6104 -0.8632  0.4137
  624MOL0     H86083  11.169   1.395   0.799 -0.6251  1.7554 -0.6103
  624MOL0     H86084  10.973   1.441   0.651  1.5070 -0.7699 -0.6328
  624MOL0     H86085  10.927   1.279   0.649  1.1316  2.2357 -3.5705
  624MOL0     H86086  10.942   1.469   0.879 -3.9300  2.3565 -0.4863
  624MOL0     H86087  10.893   1.304   0.931  0.2837  1.5492  1.6073
  624MOL0     H86088  10.693   1.324   0.764 -1.2162  2.1296 -0.4451
  624MOL0     H86089  10.758   1.489   0.737 -0.4772 -1.2439 -2.7540
  624MOL0     H86090  10.588   1.503   0.883  2.5764  0.8941 -1.9487
  624MOL0     H86091  10.736   1.500   0.978 -1.3547  1.0744 -0.4566
  624MOL0     H86092  11.111   1.490   1.010 -0.1822  0.3352 -0.0127
  624MOL0     H86093  10.943   1.530   1.158  2.3784  0.7586 -4.4909
  624MOL0     H86094  10.746   1.641   1.629 -2.0721  0.8335  1.1166
  624MOL0     H86095  10.579   1.614   1.779  0.2321  0.0096  0.3287
  624MOL0     H86096  10.968   1.231   2.368 -0.2307 -0.3034 -0.1539
  624MOL0     H86097  11.144   1.211   2.208  1.3852 -2.2024  1.3803
  624MOL0     H86098  11.629   1.285   2.136 -0.6598 -0.6066 -0.3765
  624MOL0     H86099  11.803   1.252   1.974  0.6097  1.4899 -1.0725
  624MOL0     H86100  12.003   1.389   1.841 -1.8041  2.3490 -0.3277
  624MOL0     H86101  11.954   1.218   1.806  2.1908  0.3648  0.3790
  624MOL0     H86102  11.997   1.417   1.582  1.0217  0.8333  1.1324
  624MOL0     H86103  12.016   1.244   1.586 -1.5826  0.9922  0.1127
  624MOL0     H86104  12.219   1.448   1.700  2.9048  0.8993 -3.0672
  624MOL0     H86105  12.240   1.276   1.713  0.3147 -0.0194 -2.9053
  624MOL0     H86106  12.282   1.447   1.467  0.0989 -0.1350 -0.6076
  624MOL0     H86107  12.205   1.283   1.443 -4.3461  1.0610  1.9605
  624MOL0     H86108  12.574   1.166   1.587  1.6076  0.4329 -1.8306
  624MOL0     H86109  11.608   1.524   1.707  2.0725 -1.8092 -1.2220
  624MOL0     H86110  11.305   1.540   1.870 -0.7804  0.8987  1.0381
  624MOL0     H86111  11.404   1.685   1.907  1.8053  1.8477 -3.0229
  624MOL0     H86112  11.416   1.629   1.752 -3.0298  3.2925  0.0049
  625MOL0     O86113  10.576   4.289   7.860  0.0975  0.3739  0.4623
  625MOL0     C86114  10.488   4.307   7.940  0.9511  0.3286 -0.4253
  625MOL0     O86115  10.443   4.211   8.027  0.0775 -0.6718  0.1688
  625MOL0     C86116  10.458   4.079   7.984  0.1427  0.2854  1.2317
  625MOL0     C86117  10.386   4.010   7.884  1.0166  0.2924  0.0606
  625MOL0     C86118  10.410   3.876   7.860  0.2355  0.6612 -0.3074
  625MOL0     C86119  10.510   3.803   7.928  0.9099  0.6469 -0.7950
  625MOL0     O86120  10.552   3.676   7.905  0.6032  0.2810 -1.0419
  625MOL0     C86121  10.502   3.595   7.792 -0.4702 -1.0324 -0.7244
  625MOL0     C86122  10.527   3.449   7.829 -0.7110  0.5458  0.4215
  625MOL0     C86123  10.536   3.359   7.704  0.0655 -1.4294  0.0415
  625MOL0     C86124  10.670   3.352   7.636 -0.2855  1.0461  0.8555
  625MOL0     C86125  10.662   3.339   7.479 -0.8217 -0.6086 -0.4653
  625MOL0     C86126  10.786   3.370   7.394  0.3118 -0.7232 -0.0622
  625MOL0     C86127  10.904   3.271   7.420 -0.9788 -0.6444  0.1919
  625MOL0     C86128  10.869   3.139   7.354 -0.1375  0.2548  0.1994
  625MOL0     N86129  10.980   3.041   7.345 -0.5318  0.2949  1.1976
  625MOL0     C86130  11.040   2.952   7.440  0.5232  0.5577  0.1942
  625MOL0     C86131  11.143   2.894   7.383 -0.2359 -0.4726 -0.3705
  625MOL0     C86132  11.244   2.824   7.450 -0.1126  0.0636  0.1600
  625MOL0     C86133  11.215   2.673   7.445 -0.3714 -0.0787  0.1133
  625MOL0     C86134  11.319   2.597   7.527 -0.3722  0.1284  0.1721
  625MOL0     C86135  11.273   2.458   7.555 -1.0974  0.6547  0.6821
  625MOL0     O86136  11.156   2.451   7.645  0.2838  0.1076 -0.0209
  625MOL0     C86137  11.088   2.334   7.674 -0.1622  0.1839 -0.3356
  625MOL0     C86138  11.006   2.328   7.786  0.1324 -0.0548 -1.2787
  625MOL0     C86139  10.924   2.217   7.815 -0.3748 -0.0879  0.3609
  625MOL0     C86140  10.840   2.245   7.940 -0.6704 -0.0789  0.6838
  625MOL0     C86141  10.941   2.093   7.744 -0.9935 -0.5081  1.0172
  625MOL0     C86142  10.883   1.970   7.794 -0.5130  0.8942  0.1533
  625MOL0     O86143  10.857   1.966   7.918 -0.5018 -0.6414  0.2637
  625MOL0     C86144  10.787   1.855   7.966 -0.2607  0.3587  0.8786
  625MOL0     C86145  10.647   1.855   7.963  0.2212 -0.2126  0.3975
  625MOL0     C86146  10.574   1.751   8.018 -0.2903 -0.0291 -0.8007
  625MOL0     C86147  10.633   1.634   8.066  0.1438 -0.0492  0.1746
  625MOL0     O86148  10.572   1.522   8.128  0.0993  0.2419  1.6146
  625MOL0     C86149  10.437   1.500   8.088  1.0018 -0.7831  0.1954
  625MOL0     C86150  10.429   1.356   8.032 -0.6326  0.0531  0.0384
  625MOL0     C86151  10.502   1.328   7.903 -0.2604 -0.0641 -0.6758
  625MOL0     C86152  10.445   1.402   7.788  0.3604  0.6192  0.7303
  625MOL0     C86153  10.539   1.398   7.665 -0.1727  0.3766  0.3355
  625MOL0     C86154  10.674   1.472   7.684  0.0857 -0.1365  0.2529
  625MOL0     C86155  10.733   1.495   7.546  0.1313  0.1836  0.3168
  625MOL0     C86156  10.885   1.547   7.532 -0.1540  0.1705 -0.1991
  625MOL0    Cl86157  10.894   1.574   7.352  0.0201  0.0460  0.6445
  625MOL0     C86158  10.772   1.631   8.059 -0.0717 -0.1468  0.5427
  625MOL0     C86159  10.843   1.734   8.010 -0.2847 -0.8409  0.2966
  625MOL0     O86160  10.872   1.873   7.717  0.2930 -0.0830  0.5764
  625MOL0     C86161  11.015   2.099   7.622 -0.3621 -0.6325  0.2489
  625MOL0     C86162  11.085   2.215   7.591 -0.8496  0.6766  0.2136
  625MOL0     N86163  11.135   2.927   7.242 -0.4412  0.6927 -0.5028
  625MOL0     N86164  11.046   3.019   7.229 -0.1223 -0.8003  0.5292
  625MOL0     C86165  10.568   3.871   8.034 -0.6670 -0.1084  0.5295
  625MOL0     C86166  10.556   4.005   8.053  0.7197 -0.5489  0.2027
  625MOL0     C86167  10.413   4.441   7.941  0.7572  0.7301  0.4262
  625MOL0     C86168  10.490   4.558   7.919  0.3954 -0.5441 -0.5379
  625MOL0     C86169  10.434   4.690   7.922  0.1904  0.0649 -0.0233
  625MOL0     C86170  10.297   4.694   7.939  0.6608 -0.6822  0.2587
  625MOL0     O86171  10.216   4.807   7.952 -0.1308  0.5184  0.6013
  625MOL0     C86172  10.279   4.938   7.960  0.6007  0.0895 -0.4474
  625MOL0     C86173  10.262   5.005   8.105  1.0088  0.8005  0.5199
  625MOL0     C86174  10.124   5.043   8.120  0.0769 -0.2776 -0.5826
  625MOL0     C86175  10.070   5.099   8.251  0.1208 -0.7804 -0.2553
  625MOL0     C86176  10.138   5.222   8.291 -0.3280  0.0590 -0.2037
  625MOL0     C86177  10.210   5.323   8.303  0.3356 -0.4346  0.1398
  625MOL0     C86178  10.223   4.583   7.956 -0.3163  0.8051 -0.1943
  625MOL0     C86179  10.275   4.454   7.958 -0.4992  0.2877 -0.1811
  625MOL0     C86180  10.184   4.335   7.994 -0.1933 -0.6396  0.6080
  625MOL0     H86181  10.306   4.059   7.829  1.1092  1.3198  0.8177
  625MOL0     H86182  10.363   3.840   7.769 -1.3914  1.4914  0.1753
  625MOL0     H86183  10.566   3.618   7.706  0.6245  1.7954  0.6996
  625MOL0     H86184  10.396   3.608   7.768 -0.3197 -2.4042 -2.2705
  625MOL0     H86185  10.610   3.423   7.896 -1.7640  4.1345  3.4502
  625MOL0     H86186  10.442   3.428   7.894  0.0141 -2.0823  0.6269
  625MOL0     H86187  10.474   3.269   7.714 -3.9356  1.2792  2.9029
  625MOL0     H86188  10.490   3.418   7.624  2.5014 -1.6886 -1.6363
  625MOL0     H86189  10.733   3.432   7.677  0.0747  0.5051  1.3788
  625MOL0     H86190  10.711   3.254   7.664 -1.0958 -0.1872 -1.9842
  625MOL0     H86191  10.577   3.399   7.445 -2.5990 -3.2265 -0.9180
  625MOL0     H86192  10.619   3.239   7.471  1.6002 -2.1174  2.8308
  625MOL0     H86193  10.757   3.380   7.289 -0.0024 -1.6281 -0.0725
  625MOL0     H86194  10.824   3.470   7.416 -0.3620 -0.2569 -0.9503
  625MOL0     H86195  10.922   3.254   7.527 -2.2575  2.4963  1.0316
  625MOL0     H86196  10.994   3.306   7.367 -1.2220 -2.8319 -1.7774
  625MOL0     H86197  10.798   3.086   7.419  1.9193 -0.5287  1.9542
  625MOL0     H86198  10.823   3.146   7.255  0.2729 -0.7800 -0.0808
  625MOL0     H86199  11.025   2.957   7.547  0.5138  0.7552  0.1850
  625MOL0     H86200  11.254   2.864   7.552 -1.8640 -0.0332  0.4090
  625MOL0     H86201  11.328   2.847   7.384 -1.1319  0.2925 -1.1055
  625MOL0     H86202  11.111   2.646   7.465 -1.0978  0.9718 -1.9623
  625MOL0     H86203  11.228   2.651   7.339  1.9476  2.2299 -0.1955
  625MOL0     H86204  11.417   2.599   7.480 -0.3106  0.9505  0.3155
  625MOL0     H86205  11.337   2.637   7.627 -1.4445 -1.1577  0.9301
  625MOL0     H86206  11.238   2.419   7.459 -1.6390  1.1473  0.6702
  625MOL0     H86207  11.362   2.399   7.577 -1.9093 -1.5938 -1.4897
  625MOL0     H86208  11.011   2.425   7.834  0.8768  0.8069 -2.9897
  625MOL0     H86209  10.874   2.204   8.036  1.1192  1.4083  0.7400
  625MOL0     H86210  10.740   2.208   7.916 -0.0194 -1.5885  0.1597
  625MOL0     H86211  10.828   2.352   7.957 -3.3250  0.2179 -2.2062
  625MOL0     H86212  10.591   1.937   7.920  0.2536 -0.1220  0.5299
  625MOL0     H86213  10.468   1.775   8.018 -0.2919  0.0708  1.1325
  625MOL0     H86214  10.372   1.496   8.176 -2.6069 -0.7977 -2.2419
  625MOL0     H86215  10.399   1.575   8.018  2.2980  1.6243  1.9240
  625MOL0     H86216  10.478   1.288   8.103  0.8620  1.1257  0.0944
  625MOL0     H86217  10.328   1.319   8.017 -1.2536  1.6564  0.0720
  625MOL0     H86218  10.501   1.222   7.874 -5.4260 -0.9473  1.6690
  625MOL0     H86219  10.600   1.372   7.924  0.4505 -2.7158  2.2856
  625MOL0     H86220  10.425   1.509   7.797 -3.1246  0.1668 -0.1476
  625MOL0     H86221  10.350   1.355   7.760  1.0796  0.8459 -2.5556
  625MOL0     H86222  10.552   1.298   7.621  2.7293  0.7278  0.1537
  625MOL0     H86223  10.488   1.456   7.588 -1.1168 -1.3231 -0.3734
  625MOL0     H86224  10.742   1.411   7.744 -0.0497  0.9400  1.5452
  625MOL0     H86225  10.658   1.560   7.747  0.8180  0.3881 -0.2789
  625MOL0     H86226  10.669   1.572   7.501  0.3933 -0.8882 -2.0414
  625MOL0     H86227  10.726   1.401   7.491  3.8954  0.6576 -1.2907
  625MOL0     H86228  10.960   1.474   7.564 -0.8716 -0.6477 -0.3394
  625MOL0     H86229  10.900   1.633   7.597  0.6744  2.2547 -2.9701
  625MOL0     H86230  10.828   1.544   8.093 -2.3159 -2.3715 -1.1194
  625MOL0     H86231  10.950   1.727   7.993 -0.1185  2.4568 -0.5403
  625MOL0     H86232  11.032   2.010   7.563 -1.4428 -1.8178  1.6522
  625MOL0     H86233  11.157   2.220   7.509  0.7351  0.2821  1.5249
  625MOL0     H86234  10.644   3.819   8.091 -0.3727 -1.0268 -0.6630
  625MOL0     H86235  10.602   4.063   8.132  3.0804 -0.3838 -1.2061
  625MOL0     H86236  10.596   4.562   7.899  0.6591  1.1487  0.8923
  625MOL0     H86237  10.492   4.779   7.899 -2.4119  1.3740 -2.1151
  625MOL0     H86238  10.382   4.945   7.925  0.1789  0.3046 -1.6760
  625MOL0     H86239  10.219   4.998   7.890  0.2476  0.2210 -0.0410
  625MOL0     H86240  10.316   5.100   8.106 -2.7136  3.2172 -1.8860
  625MOL0     H86241  10.293   4.939   8.187  2.7711  1.6397  0.5857
  625MOL0     H86242  10.114   5.114   8.038  1.4889 -0.0776 -0.6112
  625MOL0     H86243  10.050   4.963   8.106 -1.6072  0.9620  0.7919
  625MOL0     H86244  10.077   5.022   8.328  1.0711 -1.8930 -1.4207
  625MOL0     H86245   9.962   5.117   8.238  0.2758  1.3622  0.8538
  625MOL0     H86246  10.291   5.393   8.312  1.4734 -1.8498  1.7721
  625MOL0     H86247  10.116   4.590   7.972 -0.9272 -2.4225 -1.9740
  625MOL0     H86248  10.091   4.382   8.027  1.0891  0.6427  2.6210
  625MOL0     H86249  10.169   4.274   7.904 -1.3827  1.7440 -0.8811
  625MOL0     H86250  10.226   4.282   8.080 -0.1158  0.4870  1.2799
  626MOL0     O86251   1.894   5.131   7.091 -0.7129  0.3174 -0.2994
  626MOL0     C86252   1.955   5.076   6.997 -0.2462 -1.1940 -0.1684
  626MOL0     O86253   1.920   4.960   6.934  0.2143  0.0331  0.1827
  626MOL0     C86254   1.833   4.868   6.974  0.9864 -0.1061 -0.0812
  626MOL0     C86255   1.746   4.820   6.878 -0.0131 -0.0456  0.0337
  626MOL0     C86256   1.654   4.716   6.905  0.0025 -0.2370 -0.8572
  626MOL0     C86257   1.640   4.660   7.036  0.1877  0.9401  0.0873
  626MOL0     O86258   1.565   4.544   7.044  0.7490  0.3279  0.5520
  626MOL0     C86259   1.603   4.441   7.131  0.4809  0.0735 -0.0153
  626MOL0     C86260   1.528   4.310   7.125  0.3226 -0.8732 -0.1188
  626MOL0     C86261   1.538   4.244   6.984  0.6664  0.3059 -0.3042
  626MOL0     C86262   1.419   4.153   6.960  1.1742 -0.6185 -0.3364
  626MOL0     C86263   1.459   4.020   6.885  1.2426 -0.0530  0.3727
  626MOL0     C86264   1.346   3.939   6.815  0.1117  1.4048  0.1051
  626MOL0     C86265   1.401   3.803   6.756  1.0236  0.2215 -0.3599
  626MOL0     C86266   1.462   3.807   6.614  0.0970 -0.0000 -0.5781
  626MOL0     N86267   1.613   3.807   6.612 -0.6779 -0.3198  0.1098
  626MOL0     C86268   1.695   3.920   6.628  0.6973 -0.1641 -0.7316
  626MOL0     C86269   1.811   3.884   6.586 -0.0315 -0.0498 -0.6400
  626MOL0     C86270   1.944   3.954   6.603  0.7304  0.2870  0.2058
  626MOL0     C86271   2.071   3.860   6.609 -0.9597  0.4488  0.6931
  626MOL0     C86272   2.191   3.951   6.574  0.2338  0.3891  0.5283
  626MOL0     C86273   2.317   3.887   6.533  0.3011  0.1763  0.3238
  626MOL0     O86274   2.338   3.777   6.616 -0.4389  0.9107  0.5603
  626MOL0     C86275   2.368   3.801   6.742  0.2503 -0.1486 -0.2830
  626MOL0     C86276   2.433   3.915   6.786 -0.7019 -0.5500 -0.1367
  626MOL0     C86277   2.473   3.926   6.919  0.3385 -0.7617  0.2020
  626MOL0     C86278   2.548   4.048   6.951 -0.6202 -1.9277  0.2568
  626MOL0     C86279   2.447   3.826   7.007 -0.7084  0.3590  0.0767
  626MOL0     C86280   2.471   3.822   7.150 -0.3064 -0.4002 -0.0330
  626MOL0     O86281   2.488   3.700   7.214  0.2324  0.2885  0.0794
  626MOL0     C86282   2.535   3.678   7.346  0.3965 -0.5740 -0.0412
  626MOL0     C86283   2.627   3.766   7.411  1.0944 -0.5639 -1.2047
  626MOL0     C86284   2.683   3.719   7.534 -0.4467 -0.9875 -0.4985
  626MOL0     C86285   2.661   3.585   7.574  0.9741  0.2167  0.3278
  626MOL0     O86286   2.718   3.552   7.699 -0.7637  0.5297 -0.6941
  626MOL0     C86287   2.670   3.455   7.787  0.8467  0.7218 -0.2650
  626MOL0     C86288   2.723   3.449   7.930 -0.4825  0.0042  0.0303
  626MOL0     C86289   2.658   3.328   8.003  0.2952 -0.0910 -0.3363
  626MOL0     C86290   2.691   3.331   8.151 -0.2275  0.2418 -1.8227
  626MOL0     C86291   2.625   3.220   8.233  0.0593 -0.2954 -0.1630
  626MOL0     C86292   2.702   3.080   8.228  0.5188  0.3086  0.0085
  626MOL0     C86293   2.633   2.969   8.304 -1.0944 -0.0627 -0.1466
  626MOL0     C86294   2.692   2.835   8.276 -0.1451  0.8153 -0.6372
  626MOL0    Cl86295   2.865   2.831   8.307 -0.0710  0.4732  0.1383
  626MOL0     C86296   2.562   3.509   7.511  0.3695 -0.2436  0.3410
  626MOL0     C86297   2.501   3.553   7.397  0.3307  0.0883  0.5368
  626MOL0     O86298   2.470   3.929   7.206 -0.2522  0.0769  0.5346
  626MOL0     C86299   2.385   3.704   6.959 -0.3067 -0.6579 -0.2531
  626MOL0     C86300   2.346   3.690   6.826 -0.4345 -0.2358 -0.1170
  626MOL0     N86301   1.798   3.763   6.524 -0.5449  0.3602 -0.5385
  626MOL0     N86302   1.677   3.724   6.536  0.3611  0.7117  0.2687
  626MOL0     C86303   1.726   4.707   7.134  0.5523 -0.1415 -0.4127
  626MOL0     C86304   1.815   4.810   7.099  0.1824  0.1839  0.0061
  626MOL0     C86305   2.083   5.136   6.950  0.6919 -0.1312 -0.0848
  626MOL0     C86306   2.082   5.268   6.896  0.1963 -0.3329  0.0932
  626MOL0     C86307   2.202   5.333   6.862 -0.5728 -0.3695  0.1534
  626MOL0     C86308   2.322   5.267   6.861 -0.6653 -0.5402  0.0986
  626MOL0     O86309   2.437   5.328   6.809  0.7811  0.3714  0.3354
  626MOL0     C86310   2.564   5.265   6.815  0.5845 -0.2547  0.4967
  626MOL0     C86311   2.673   5.362   6.843  0.1727 -0.2665  0.1023
  626MOL0     C86312   2.807   5.299   6.847  0.5748  0.1960  0.4830
  626MOL0     C86313   2.909   5.412   6.877 -0.2155  0.4436 -0.1510
  626MOL0     C86314   3.046   5.357   6.894 -0.8101  0.2794  0.9047
  626MOL0     C86315   3.161   5.321   6.900  0.0014  1.1916 -0.2282
  626MOL0     C86316   2.315   5.127   6.879  0.5766  0.4344  0.3752
  626MOL0     C86317   2.207   5.062   6.943 -0.3053  0.1427  0.2755
  626MOL0     C86318   2.210   4.919   6.989 -0.3038 -0.6769  1.1624
  626MOL0     H86319   1.743   4.858   6.776 -0.3738 -0.4098 -0.0894
  626MOL0     H86320   1.594   4.681   6.821  1.8077  1.2188 -2.8423
  626MOL0     H86321   1.584   4.481   7.232 -0.5068 -0.2001 -0.0763
  626MOL0     H86322   1.711   4.432   7.124  0.6168  0.1836  1.5320
  626MOL0     H86323   1.578   4.248   7.200 -0.8820 -1.8283 -0.0719
  626MOL0     H86324   1.425   4.341   7.144  0.0978 -0.7576 -1.4478
  626MOL0     H86325   1.544   4.329   6.915  0.2859  0.9588  0.4502
  626MOL0     H86326   1.630   4.184   6.989 -0.8176 -2.0503 -0.1711
  626MOL0     H86327   1.378   4.123   7.056  0.3272  2.1815  0.2746
  626MOL0     H86328   1.347   4.211   6.900  3.0957  1.6937 -0.5895
  626MOL0     H86329   1.518   3.948   6.943 -1.1583 -2.4159  0.0355
  626MOL0     H86330   1.528   4.051   6.806  0.3281  1.7031  0.2073
  626MOL0     H86331   1.266   3.921   6.887 -1.5185 -2.0194 -2.2876
  626MOL0     H86332   1.301   4.006   6.741 -1.4155  0.7327  0.3947
  626MOL0     H86333   1.330   3.720   6.767 -1.6333  2.4034  0.3299
  626MOL0     H86334   1.489   3.773   6.814  0.4482  1.0163  0.9924
  626MOL0     H86335   1.415   3.720   6.566 -0.7303 -0.6886  1.4055
  626MOL0     H86336   1.427   3.891   6.552 -2.1278 -1.0748 -0.9160
  626MOL0     H86337   1.681   4.017   6.676  1.6453 -1.0643  1.4874
  626MOL0     H86338   1.948   4.006   6.699 -0.6383  0.0562  0.4180
  626MOL0     H86339   1.959   4.032   6.528  2.3115  0.7264  0.9408
  626MOL0     H86340   2.085   3.818   6.709 -1.6126  4.4994  2.7210
  626MOL0     H86341   2.081   3.783   6.532 -3.4536 -1.1663  1.8557
  626MOL0     H86342   2.161   4.030   6.504 -1.5888  0.2721  1.1137
  626MOL0     H86343   2.201   4.010   6.666  0.4716 -1.7264  1.9083
  626MOL0     H86344   2.318   3.848   6.430  0.4151 -0.4647  0.5620
  626MOL0     H86345   2.391   3.967   6.531  2.7642 -1.8511  2.6240
  626MOL0     H86346   2.465   3.996   6.721 -2.6275  0.0212 -0.4623
  626MOL0     H86347   2.633   4.067   6.885 -0.7976 -4.3868 -0.7822
  626MOL0     H86348   2.589   4.050   7.053  0.0340 -1.7629 -0.0064
  626MOL0     H86349   2.482   4.134   6.962 -0.9555 -2.1161 -0.2617
  626MOL0     H86350   2.631   3.867   7.372 -0.8759 -0.0802 -0.2982
  626MOL0     H86351   2.750   3.784   7.588  0.2677 -1.9314 -0.2212
  626MOL0     H86352   2.563   3.474   7.800  0.9061  0.9015 -0.0321
  626MOL0     H86353   2.691   3.359   7.740  2.1203 -0.2781  2.1973
  626MOL0     H86354   2.831   3.432   7.925 -0.6164 -1.4037  1.2384
  626MOL0     H86355   2.710   3.544   7.984 -1.0749 -0.2959  0.4222
  626MOL0     H86356   2.687   3.238   7.948 -2.2881 -1.5223  0.4896
  626MOL0     H86357   2.549   3.333   8.005  0.3362  2.0903 -0.8405
  626MOL0     H86358   2.663   3.430   8.189 -0.2039 -0.9437  1.5581
  626MOL0     H86359   2.800   3.330   8.158 -0.3308 -1.6939  1.4239
  626MOL0     H86360   2.612   3.246   8.338 -1.0578  0.8250 -0.5591
  626MOL0     H86361   2.525   3.196   8.196 -0.6467  2.4462 -0.2041
  626MOL0     H86362   2.803   3.097   8.267  0.2356 -2.8207  2.5264
  626MOL0     H86363   2.707   3.054   8.122 -1.0850 -1.3435  0.2960
  626MOL0     H86364   2.533   2.976   8.258 -0.8543  3.0345 -0.3963
  626MOL0     H86365   2.628   2.990   8.411 -0.3260 -0.6615  0.0168
  626MOL0     H86366   2.675   2.814   8.170  0.2853  0.9654 -0.7391
  626MOL0     H86367   2.644   2.764   8.344  2.1639 -2.1993 -1.9196
  626MOL0     H86368   2.543   3.410   7.551  1.4119 -1.8130 -2.6962
  626MOL0     H86369   2.440   3.481   7.345  1.5430 -2.5420  2.5565
  626MOL0     H86370   2.370   3.616   7.020  1.0094  1.3141  3.1673
  626MOL0     H86371   2.297   3.606   6.778 -2.0211  2.6823 -4.2243
  626MOL0     H86372   1.725   4.661   7.232 -2.4265 -1.5190 -0.9646
  626MOL0     H86373   1.873   4.850   7.181 -1.4002  2.3705  0.1504
  626MOL0     H86374   1.991   5.326   6.908  1.3178  1.4286  0.4597
  626MOL0     H86375   2.184   5.439   6.843 -2.1467 -0.4702  0.8367
  626MOL0     H86376   2.565   5.188   6.892 -1.1883 -0.2370  0.5815
  626MOL0     H86377   2.577   5.208   6.722 -0.7768 -0.6860  0.5472
  626MOL0     H86378   2.653   5.400   6.943 -1.3681  0.1280 -0.3398
  626MOL0     H86379   2.680   5.444   6.771  1.0370 -2.6955 -2.8448
  626MOL0     H86380   2.811   5.223   6.926  0.9447  0.9386  1.1918
  626MOL0     H86381   2.837   5.248   6.755  0.7598 -1.7527  1.5701
  626MOL0     H86382   2.889   5.449   6.978  1.6162 -2.6588  1.4899
  626MOL0     H86383   2.903   5.480   6.791 -1.9033 -0.4682 -0.8086
  626MOL0     H86384   3.258   5.276   6.898 -0.9641 -0.9605 -0.8848
  626MOL0     H86385   2.405   5.066   6.873  0.5925  0.4368  0.5888
  626MOL0     H86386   2.314   4.884   6.979  0.6885  1.5910  2.6011
  626MOL0     H86387   2.174   4.913   7.092 -1.8000 -0.4160  0.6776
  626MOL0     H86388   2.145   4.872   6.916  1.0059 -0.9390  0.1268
  627MOL0     O86389   0.183   1.518   8.705 -0.7624  0.5377  0.3762
  627MOL0     C86390   0.117   1.554   8.608  0.7655  0.7373 -0.2358
  627MOL0     O86391   0.173   1.597   8.491 -0.3961 -0.8235  0.1312
  627MOL0     C86392   0.305   1.591   8.458 -0.9796 -0.3417 -1.3298
  627MOL0     C86393   0.349   1.685   8.373 -0.3359 -0.5132  0.1907
  627MOL0     C86394   0.480   1.694   8.341 -0.0447 -0.0129  0.3580
  627MOL0     C86395   0.574   1.598   8.388  0.5827 -1.1313 -0.7281
  627MOL0     O86396   0.706   1.601   8.347  0.3412  0.8218 -0.5269
  627MOL0     C86397   0.763   1.733   8.309 -0.2594  0.0520 -0.4682
  627MOL0     C86398   0.900   1.712   8.242  0.5154 -0.2944 -0.1586
  627MOL0     C86399   0.942   1.850   8.160  0.5663 -0.5964  0.1323
  627MOL0     C86400   1.083   1.883   8.205  0.3659 -0.3384  1.1884
  627MOL0     C86401   1.137   2.024   8.164  0.3287  1.0448  0.2802
  627MOL0     C86402   1.262   2.060   8.251 -0.2903  0.7624  0.3663
  627MOL0     C86403   1.313   2.207   8.226  0.0850 -0.0983 -0.2660
  627MOL0     C86404   1.445   2.224   8.297 -0.3355 -0.5126 -0.2178
  627MOL0     N86405   1.569   2.205   8.214  0.6172 -0.5390  1.2210
  627MOL0     C86406   1.606   2.078   8.170 -0.8093 -0.2093  0.1627
  627MOL0     C86407   1.679   2.105   8.059  0.2522 -0.8876  0.6109
  627MOL0     C86408   1.735   1.996   7.976 -0.1626  0.6203  0.7122
  627MOL0     C86409   1.870   2.037   7.921 -0.8299  0.7715 -0.4956
  627MOL0     C86410   1.970   1.915   7.886 -1.1173  0.9514 -1.3678
  627MOL0     C86411   2.069   1.950   7.773 -0.2227 -0.3207  0.4753
  627MOL0     O86412   2.001   1.994   7.657  0.7670  0.0789 -0.3894
  627MOL0     C86413   2.050   1.944   7.543 -0.5042 -0.6825 -0.2365
  627MOL0     C86414   1.966   1.902   7.438 -0.6969 -0.1019 -1.2260
  627MOL0     C86415   2.011   1.858   7.304 -0.8606 -0.5817 -0.8408
  627MOL0     C86416   1.906   1.846   7.198  1.0635  1.1522 -0.3454
  627MOL0     C86417   2.150   1.844   7.287  0.1670  0.3080  0.1132
  627MOL0     C86418   2.212   1.787   7.168 -1.1890 -0.1053 -0.0232
  627MOL0     O86419   2.353   1.773   7.179  0.0683  0.6145  0.1350
  627MOL0     C86420   2.418   1.723   7.071  1.3243 -0.5045  0.5146
  627MOL0     C86421   2.450   1.588   7.063  0.3556 -0.1703  0.1371
  627MOL0     C86422   2.551   1.545   6.976  0.7898 -0.6861  0.7138
  627MOL0     C86423   2.618   1.633   6.891  0.2655  0.0023  0.6413
  627MOL0     O86424   2.700   1.590   6.794 -0.4711 -0.2024  0.1550
  627MOL0     C86425   2.685   1.458   6.737 -0.1448  0.8088 -0.7329
  627MOL0     C86426   2.788   1.442   6.626 -0.1710 -0.2824 -0.9397
  627MOL0     C86427   2.744   1.339   6.525  0.3480  1.2482 -0.4570
  627MOL0     C86428   2.746   1.402   6.387  0.8414 -0.0028  0.0773
  627MOL0     C86429   2.671   1.293   6.288 -0.7933 -1.4237 -0.6056
  627MOL0     C86430   2.670   1.361   6.151 -0.8058 -0.7895 -0.8793
  627MOL0     C86431   2.799   1.373   6.083  0.2703 -0.4870  0.2888
  627MOL0     C86432   2.800   1.487   5.989 -0.2232 -0.2554 -0.1972
  627MOL0    Cl86433   2.944   1.485   5.882 -0.2224  0.0128 -0.4568
  627MOL0     C86434   2.594   1.769   6.906  0.2012 -0.3892 -0.6122
  627MOL0     C86435   2.489   1.815   6.991  0.6170  0.8756 -0.1221
  627MOL0     O86436   2.143   1.760   7.074  0.2794  0.8295  0.6913
  627MOL0     C86437   2.231   1.867   7.399 -0.8068 -0.0676 -0.0220
  627MOL0     C86438   2.187   1.931   7.519 -0.4327  0.5131 -1.1374
  627MOL0     N86439   1.685   2.242   8.050  0.6958 -0.9430  0.4194
  627MOL0     N86440   1.620   2.296   8.142 -0.0468 -0.4954  0.4143
  627MOL0     C86441   0.533   1.498   8.478  0.2582 -0.1624 -1.2212
  627MOL0     C86442   0.398   1.492   8.510 -0.2654  0.0139 -0.5974
  627MOL0     C86443  -0.026   1.531   8.614  0.6524 -0.0037 -0.1227
  627MOL0     C86444  -0.086   1.513   8.492  0.6295 -0.1593 -0.2578
  627MOL0     C86445  -0.223   1.485   8.476  0.1781 -0.4641 -0.5922
  627MOL0     C86446  -0.298   1.485   8.587 -0.6266 -0.1692 -0.4683
  627MOL0     O86447  -0.432   1.471   8.585  0.7401  0.2864 -0.5449
  627MOL0     C86448  -0.495   1.584   8.524  0.5549 -0.2646 -0.5272
  627MOL0     C86449  -0.646   1.547   8.509 -0.4659  0.6288  0.5784
  627MOL0     C86450  -0.669   1.443   8.392  0.0656 -0.4636 -0.4869
  627MOL0     C86451  -0.817   1.399   8.378 -0.3601  0.4800  0.0522
  627MOL0     C86452  -0.861   1.306   8.483  0.4171  0.3605  0.2209
  627MOL0     C86453  -0.888   1.238   8.579  0.6522 -0.3195 -0.2534
  627MOL0     C86454  -0.246   1.511   8.712 -0.9495  0.5301 -0.4270
  627MOL0     C86455  -0.107   1.520   8.730  0.1906 -0.8683  0.5230
  627MOL0     C86456  -0.050   1.516   8.865  0.4746  0.2428  0.0799
  627MOL0     H86457   0.276   1.757   8.338 -0.3500  0.1321  1.4832
  627MOL0     H86458   0.508   1.779   8.279  1.2799 -0.3069  0.5113
  627MOL0     H86459   0.787   1.808   8.385  1.2928  1.1410 -1.9635
  627MOL0     H86460   0.700   1.777   8.231  0.8637 -1.5544 -2.3693
  627MOL0     H86461   0.970   1.689   8.323  1.7880  0.4495 -0.9928
  627MOL0     H86462   0.898   1.624   8.177  0.5908  0.3378 -1.0414
  627MOL0     H86463   0.934   1.841   8.051 -1.5224  0.3900  0.1681
  627MOL0     H86464   0.874   1.929   8.190  0.8498  0.6379 -2.2685
  627MOL0     H86465   1.085   1.881   8.314 -2.1900 -1.4077  1.2893
  627MOL0     H86466   1.149   1.804   8.168  0.0463 -0.1628  0.2149
  627MOL0     H86467   1.049   2.089   8.174 -0.9138 -0.5057 -0.0846
  627MOL0     H86468   1.157   2.013   8.058 -1.8266  2.3438 -0.3279
  627MOL0     H86469   1.230   2.058   8.355 -0.3040  3.7502  0.5121
  627MOL0     H86470   1.333   1.979   8.230 -1.7133 -1.6079  3.9103
  627MOL0     H86471   1.243   2.280   8.267  1.1551 -0.0011  1.4630
  627MOL0     H86472   1.332   2.219   8.119 -1.8932 -1.1589 -0.7820
  627MOL0     H86473   1.445   2.326   8.337  1.9490 -1.2287  1.8529
  627MOL0     H86474   1.456   2.161   8.386  0.8617  1.3554  1.0366
  627MOL0     H86475   1.571   1.987   8.217 -0.9845  1.2300  3.0299
  627MOL0     H86476   1.676   1.959   7.891  1.5891 -4.0821  1.2237
  627MOL0     H86477   1.737   1.907   8.039 -4.3511 -0.4272 -0.3154
  627MOL0     H86478   1.865   2.105   7.835  3.9748 -0.1516 -1.7991
  627MOL0     H86479   1.924   2.105   7.988  2.8390 -2.1062 -0.2087
  627MOL0     H86480   2.016   1.885   7.980 -1.3937  0.1408 -1.4845
  627MOL0     H86481   1.920   1.822   7.859  0.6225 -0.5694  0.3419
  627MOL0     H86482   2.129   2.039   7.793  2.7209 -1.9021 -0.8064
  627MOL0     H86483   2.128   1.861   7.749 -1.2268 -0.7534 -0.5370
  627MOL0     H86484   1.859   1.898   7.457 -0.1555 -2.7621  2.3279
  627MOL0     H86485   1.802   1.870   7.222  1.4063  0.8692  1.5119
  627MOL0     H86486   1.908   1.741   7.169  1.0126  2.1902 -4.8239
  627MOL0     H86487   1.935   1.907   7.111 -0.4908 -0.8419 -2.3861
  627MOL0     H86488   2.395   1.510   7.114 -3.7802  1.0768 -1.9969
  627MOL0     H86489   2.566   1.437   6.973  1.3473 -0.6874  2.3009
  627MOL0     H86490   2.704   1.386   6.816  2.0090  1.1545 -0.8812
  627MOL0     H86491   2.585   1.463   6.693 -0.8442 -1.8875  0.3698
  627MOL0     H86492   2.804   1.537   6.575 -1.3752  0.1048 -0.6315
  627MOL0     H86493   2.879   1.411   6.678  0.6753  2.5655 -0.5873
  627MOL0     H86494   2.640   1.308   6.538  0.8906 -1.0304 -1.1025
  627MOL0     H86495   2.807   1.251   6.537 -1.7577  0.0411  3.4085
  627MOL0     H86496   2.844   1.439   6.356 -0.2935  2.6186 -0.6146
  627MOL0     H86497   2.676   1.484   6.373  2.3255  0.8887 -2.9807
  627MOL0     H86498   2.736   1.205   6.283 -0.4311 -1.1497 -0.7987
  627MOL0     H86499   2.579   1.259   6.335  1.3074 -0.8791  4.5536
  627MOL0     H86500   2.614   1.455   6.155  1.4529  0.6469  3.5540
  627MOL0     H86501   2.623   1.284   6.089  0.1478 -0.5994 -1.8627
  627MOL0     H86502   2.815   1.279   6.029 -3.7806 -0.8656 -0.5953
  627MOL0     H86503   2.882   1.367   6.154  1.2815 -0.4547 -0.8601
  627MOL0     H86504   2.789   1.589   6.025 -0.5014  0.4099 -2.0282
  627MOL0     H86505   2.708   1.473   5.931 -0.5047 -0.6577  0.3371
  627MOL0     H86506   2.651   1.837   6.843  3.7157 -1.5533  1.0793
  627MOL0     H86507   2.464   1.919   7.008  0.3346  0.7276  0.3974
  627MOL0     H86508   2.337   1.845   7.390 -1.3757 -2.3591 -2.8530
  627MOL0     H86509   2.263   1.954   7.593 -1.1600  0.3388 -0.3206
  627MOL0     H86510   0.612   1.434   8.515  3.8665  3.1177 -2.5372
  627MOL0     H86511   0.356   1.421   8.580 -1.8930  1.2317 -0.2660
  627MOL0     H86512  -0.034   1.510   8.397 -1.0372  1.3677 -1.2576
  627MOL0     H86513  -0.265   1.468   8.377  0.2706  0.2501 -0.7601
  627MOL0     H86514  -0.470   1.676   8.578  1.9966 -0.4525 -0.8400
  627MOL0     H86515  -0.459   1.590   8.421 -1.3480  0.3901 -1.1827
  627MOL0     H86516  -0.710   1.635   8.515  0.5086  1.3263  0.9182
  627MOL0     H86517  -0.669   1.495   8.603 -2.4715  0.4789  0.0363
  627MOL0     H86518  -0.643   1.494   8.298 -2.0484  0.4922 -0.6164
  627MOL0     H86519  -0.602   1.357   8.400 -0.3036 -0.8368 -1.2708
  627MOL0     H86520  -0.834   1.357   8.278 -3.3534  1.7626 -0.0760
  627MOL0     H86521  -0.876   1.491   8.372 -0.0947  0.6377 -0.1829
  627MOL0     H86522  -0.887   1.171   8.662  2.3813 -1.0627 -0.8271
  627MOL0     H86523  -0.310   1.501   8.799  1.8127  0.8659  1.7828
  627MOL0     H86524  -0.010   1.418   8.894 -0.0326  0.0660  0.1989
  627MOL0     H86525   0.034   1.585   8.878  2.3996 -1.8836 -0.2911
  627MOL0     H86526  -0.124   1.536   8.943  0.0221  1.6086 -0.6723
  628MOL0     O86527   3.477   8.103   4.519 -0.1752 -0.5849 -0.5485
  628MOL0     C86528   3.367   8.053   4.512  0.0028  0.3899 -0.2624
  628MOL0     O86529   3.276   8.079   4.411  0.2516 -0.4214  0.4627
  628MOL0     C86530   3.296   8.120   4.282  0.1835  0.5806 -0.1068
  628MOL0     C86531   3.416   8.140   4.214  0.0586  0.5534  0.1556
  628MOL0     C86532   3.429   8.195   4.084 -0.8626  0.2212 -0.3374
  628MOL0     C86533   3.307   8.200   4.007 -0.6008 -0.6245 -0.0408
  628MOL0     O86534   3.315   8.226   3.876 -0.0638 -0.5428  0.1943
  628MOL0     C86535   3.218   8.316   3.821  0.0130  0.8599  1.5858
  628MOL0     C86536   3.227   8.315   3.669  0.0488  0.6223 -0.0896
  628MOL0     C86537   3.096   8.361   3.612  0.0844  0.1601 -0.4497
  628MOL0     C86538   3.078   8.507   3.569 -0.2519 -0.6963 -0.3194
  628MOL0     C86539   2.959   8.512   3.469 -0.3927 -0.8410  0.5529
  628MOL0     C86540   2.998   8.450   3.329 -0.8561  0.8659 -0.3693
  628MOL0     C86541   2.904   8.494   3.215  0.8972 -0.6908  0.2569
  628MOL0     C86542   2.757   8.454   3.227  0.5043 -0.6785 -0.4622
  628MOL0     N86543   2.677   8.544   3.136 -0.1615  0.1131 -0.8638
  628MOL0     C86544   2.668   8.540   2.996 -1.0289  0.3871  0.1688
  628MOL0     C86545   2.581   8.623   2.960  0.2257 -0.6768  0.7206
  628MOL0     C86546   2.515   8.624   2.827  0.1401 -0.4110 -0.0598
  628MOL0     C86547   2.611   8.591   2.705  0.5571 -0.4309 -0.6419
  628MOL0     C86548   2.539   8.548   2.576 -0.0278 -0.1558  0.2467
  628MOL0     C86549   2.628   8.507   2.468  0.3554 -1.3617  0.0356
  628MOL0     O86550   2.690   8.367   2.490 -0.1965  0.4309  0.1445
  628MOL0     C86551   2.624   8.256   2.444  0.9089 -0.4976  0.4000
  628MOL0     C86552   2.498   8.256   2.384 -0.2343  1.2931  0.1011
  628MOL0     C86553   2.428   8.141   2.338 -0.0946 -0.8669  0.1900
  628MOL0     C86554   2.299   8.156   2.273  0.4740 -1.0312 -0.3755
  628MOL0     C86555   2.496   8.015   2.356 -0.5481  0.2664 -0.1572
  628MOL0     C86556   2.452   7.875   2.320 -0.9599  0.1409 -0.5988
  628MOL0     O86557   2.509   7.774   2.399 -0.0016 -0.1156 -0.5933
  628MOL0     C86558   2.500   7.645   2.356 -0.3089 -0.1198  0.7214
  628MOL0     C86559   2.488   7.556   2.467  0.2206 -0.9818 -0.6518
  628MOL0     C86560   2.473   7.424   2.458  1.0311  0.1868  0.6182
  628MOL0     C86561   2.486   7.367   2.334  0.9661  0.2822  0.1243
  628MOL0     O86562   2.474   7.230   2.325 -0.1272  0.0773 -0.2995
  628MOL0     C86563   2.440   7.166   2.200 -1.0873 -0.1005  0.5454
  628MOL0     C86564   2.370   7.036   2.236 -0.8967 -1.0494 -0.4454
  628MOL0     C86565   2.368   6.932   2.126  0.5477  0.1862  0.6923
  628MOL0     C86566   2.249   6.836   2.123  0.5924  0.0418 -0.2547
  628MOL0     C86567   2.227   6.789   1.982  0.0593 -0.2297 -1.5599
  628MOL0     C86568   2.322   6.670   1.968 -0.7779  0.1248  0.5944
  628MOL0     C86569   2.322   6.624   1.819 -0.4967 -0.4799  0.0174
  628MOL0     C86570   2.437   6.527   1.780  0.7053  0.5051 -0.3818
  628MOL0    Cl86571   2.418   6.463   1.616  0.7745  0.2047  0.0320
  628MOL0     C86572   2.496   7.450   2.217 -1.0401 -0.2151  0.8337
  628MOL0     C86573   2.508   7.588   2.224  0.0456  0.0973  0.2660
  628MOL0     O86574   2.370   7.851   2.234 -0.0111  0.2516 -0.3675
  628MOL0     C86575   2.628   8.017   2.407  0.7381  0.4792  0.5833
  628MOL0     C86576   2.683   8.133   2.456 -0.7294 -0.6798  0.3839
  628MOL0     N86577   2.537   8.694   3.074 -0.2622 -0.2002 -0.6224
  628MOL0     N86578   2.607   8.649   3.180  0.2988  0.0808  0.5309
  628MOL0     C86579   3.184   8.161   4.069 -0.4693  0.4978  0.0276
  628MOL0     C86580   3.184   8.123   4.203  0.1540 -0.5468 -0.4473
  628MOL0     C86581   3.307   7.975   4.624  0.8474 -0.5057 -0.0979
  628MOL0     C86582   3.394   7.952   4.738 -0.3382  0.2571  0.3807
  628MOL0     C86583   3.361   7.885   4.854  0.0944 -0.4415 -0.1337
  628MOL0     C86584   3.240   7.820   4.859 -0.3671 -0.9747 -0.6526
  628MOL0     O86585   3.212   7.760   4.986  0.2220  0.1791 -0.0548
  628MOL0     C86586   3.069   7.720   4.997  0.3709 -0.0769 -0.1559
  628MOL0     C86587   2.976   7.840   5.030 -0.1438 -0.0797 -0.4382
  628MOL0     C86588   3.030   7.926   5.148 -0.5453  0.5768  0.3461
  628MOL0     C86589   2.933   8.042   5.172 -1.1801  0.0567 -0.5865
  628MOL0     C86590   2.929   8.139   5.065  0.0124  0.1303  0.1203
  628MOL0     C86591   2.938   8.206   4.966  0.4022 -0.4350  0.0071
  628MOL0     C86592   3.151   7.847   4.757  0.0510  0.2073  0.1866
  628MOL0     C86593   3.178   7.921   4.642 -0.4960  0.9204 -0.1271
  628MOL0     C86594   3.061   7.946   4.547  0.1681 -0.4002 -0.0445
  628MOL0     H86595   3.507   8.130   4.273  0.8042  2.5208 -0.5891
  628MOL0     H86596   3.532   8.215   4.055 -0.9886 -0.6520 -1.4387
  628MOL0     H86597   3.217   8.417   3.862 -2.2023  1.9284 -0.7585
  628MOL0     H86598   3.121   8.270   3.841 -0.1141  0.0760 -0.5366
  628MOL0     H86599   3.313   8.363   3.622  0.9956 -1.3007 -0.4463
  628MOL0     H86600   3.251   8.211   3.642  1.5618  0.3504  2.0141
  628MOL0     H86601   3.086   8.316   3.513 -1.5966 -1.5162  0.4229
  628MOL0     H86602   3.008   8.332   3.671  0.5896  2.6777  1.7472
  628MOL0     H86603   3.053   8.570   3.655  0.8304  2.1736 -1.9525
  628MOL0     H86604   3.177   8.541   3.539 -0.3498 -0.9851 -0.9744
  628MOL0     H86605   2.926   8.611   3.435  2.3243 -0.9778 -3.0965
  628MOL0     H86606   2.869   8.470   3.514 -2.6821  1.9250 -1.0486
  628MOL0     H86607   3.102   8.480   3.310  0.3967 -0.6027  3.1492
  628MOL0     H86608   3.006   8.342   3.321 -0.0494  1.0177 -2.0185
  628MOL0     H86609   2.935   8.451   3.120 -0.3730 -0.5340 -0.2525
  628MOL0     H86610   2.913   8.603   3.217  0.9691 -0.6826  2.3460
  628MOL0     H86611   2.743   8.350   3.195 -1.5013 -0.3739 -0.6978
  628MOL0     H86612   2.705   8.472   3.321 -0.9692  1.0349 -1.5419
  628MOL0     H86613   2.722   8.469   2.934  0.0116  1.1062  0.2265
  628MOL0     H86614   2.467   8.719   2.806  3.0181  0.9395 -1.0721
  628MOL0     H86615   2.437   8.547   2.821  2.4944 -3.0425  0.7027
  628MOL0     H86616   2.662   8.679   2.667 -1.1570  1.1905  0.5884
  628MOL0     H86617   2.682   8.516   2.741 -0.4834 -0.0705  2.4860
  628MOL0     H86618   2.471   8.466   2.599  0.7744 -1.1526 -0.8534
  628MOL0     H86619   2.486   8.637   2.541  2.0623  1.7228  1.5641
  628MOL0     H86620   2.562   8.501   2.381 -3.4147 -4.3237  2.7430
  628MOL0     H86621   2.703   8.585   2.480 -0.8879 -0.1441  0.1848
  628MOL0     H86622   2.443   8.348   2.369  0.5587  1.6986 -0.4137
  628MOL0     H86623   2.292   8.251   2.220  0.6383  0.3312  1.8990
  628MOL0     H86624   2.210   8.148   2.335  1.4580  1.9977  1.6426
  628MOL0     H86625   2.299   8.068   2.208  1.7917 -0.1487 -1.6231
  628MOL0     H86626   2.499   7.604   2.564 -1.6719 -0.2840 -0.7418
  628MOL0     H86627   2.465   7.365   2.549  0.1750 -0.0682  0.3818
  628MOL0     H86628   2.372   7.238   2.151 -0.4804  0.9652  1.2348
  628MOL0     H86629   2.530   7.149   2.141 -0.6117 -1.6886  1.7011
  628MOL0     H86630   2.428   6.993   2.318  0.6820  1.4575 -0.1274
  628MOL0     H86631   2.274   7.066   2.279 -0.8786 -1.6085 -0.0102
  628MOL0     H86632   2.457   6.870   2.142 -0.1115 -1.2479 -0.8426
  628MOL0     H86633   2.376   6.986   2.031 -3.1731  0.2241  0.2602
  628MOL0     H86634   2.152   6.864   2.165  0.9185  0.3560  0.2943
  628MOL0     H86635   2.277   6.746   2.179  1.2893 -0.2499 -1.0325
  628MOL0     H86636   2.120   6.770   1.968 -0.1282 -0.3066 -0.1409
  628MOL0     H86637   2.256   6.862   1.906 -1.9107  0.8444 -1.3575
  628MOL0     H86638   2.284   6.589   2.032 -2.3364  1.3988  1.3565
  628MOL0     H86639   2.424   6.700   1.993 -0.9802  1.3536  0.0246
  628MOL0     H86640   2.314   6.708   1.750 -0.5367 -2.2624 -2.2608
  628MOL0     H86641   2.231   6.565   1.805  0.3322 -1.8761  0.3022
  628MOL0     H86642   2.443   6.438   1.842  4.2420 -0.3669 -1.7294
  628MOL0     H86643   2.534   6.578   1.791 -1.2069  4.6582 -0.6372
  628MOL0     H86644   2.497   7.405   2.118 -1.3342 -1.0919  1.2247
  628MOL0     H86645   2.527   7.639   2.130 -1.3082  1.1953  0.5407
  628MOL0     H86646   2.681   7.923   2.407  0.6819  0.3501 -2.6175
  628MOL0     H86647   2.784   8.129   2.496 -0.8548  3.9712  1.7959
  628MOL0     H86648   3.095   8.157   4.007  0.8622  1.7771 -2.0780
  628MOL0     H86649   3.087   8.094   4.243 -0.1775  0.5663 -0.4116
  628MOL0     H86650   3.491   7.997   4.719 -1.2581  1.8333 -0.8545
  628MOL0     H86651   3.437   7.866   4.929 -0.2604  1.8016  0.8718
  628MOL0     H86652   3.039   7.655   4.914 -0.0481 -0.0998  0.0120
  628MOL0     H86653   3.068   7.660   5.088  3.2360 -0.5619 -0.3412
  628MOL0     H86654   2.881   7.789   5.050  0.6497 -2.5261 -2.3110
  628MOL0     H86655   2.983   7.903   4.941  1.6547  1.4059  0.6797
  628MOL0     H86656   3.035   7.857   5.233  3.0438  1.8516  1.3783
  628MOL0     H86657   3.125   7.973   5.121 -1.2593  1.4565 -0.7134
  628MOL0     H86658   2.964   8.100   5.260  0.0348  1.5426 -1.9380
  628MOL0     H86659   2.836   7.996   5.195 -0.0490 -3.6600 -2.3718
  628MOL0     H86660   2.963   8.252   4.873  0.1449 -1.0406 -0.3723
  628MOL0     H86661   3.052   7.803   4.754 -0.7210  1.9172 -0.5595
  628MOL0     H86662   3.017   8.045   4.560 -3.4413 -1.9599  0.8170
  628MOL0     H86663   3.101   7.918   4.449  1.3387  0.7498  0.0772
  628MOL0     H86664   2.983   7.874   4.574  0.1960  0.1351  1.5455
  629MOL0     O86665   3.153   5.104   7.584  0.9166 -0.1577 -0.4208
  629MOL0     C86666   3.239   5.094   7.676  0.0490  0.5327 -0.2717
  629MOL0     O86667   3.347   5.172   7.693  0.2897 -0.4454  0.3768
  629MOL0     C86668   3.411   5.251   7.603 -0.2033 -1.1061  0.8515
  629MOL0     C86669   3.515   5.330   7.651 -0.1857  0.4108 -0.8692
  629MOL0     C86670   3.580   5.425   7.581  0.0390 -0.6086  0.3459
  629MOL0     C86671   3.558   5.436   7.450  0.8109 -0.3036  0.5970
  629MOL0     O86672   3.629   5.509   7.356 -0.1641 -0.6087  0.2434
  629MOL0     C86673   3.709   5.441   7.240 -0.3433 -0.0178 -0.1168
  629MOL0     C86674   3.780   5.316   7.287 -0.8831 -0.3956 -0.2990
  629MOL0     C86675   3.726   5.190   7.239  1.1217  1.4006  0.3010
  629MOL0     C86676   3.798   5.068   7.294 -0.5864 -0.5437 -0.1427
  629MOL0     C86677   3.749   5.047   7.434 -0.7616 -0.0300  0.7607
  629MOL0     C86678   3.848   4.963   7.512  1.0505 -0.3702 -0.1935
  629MOL0     C86679   3.899   4.829   7.444  0.6558  0.2641 -0.0029
  629MOL0     C86680   3.790   4.725   7.412 -0.0979  0.0791 -0.2745
  629MOL0     N86681   3.845   4.587   7.412 -0.4366  0.5515 -0.0631
  629MOL0     C86682   3.937   4.551   7.320 -0.5427 -0.5848 -0.2592
  629MOL0     C86683   4.014   4.455   7.368 -0.8374  0.8332  0.2274
  629MOL0     C86684   4.137   4.388   7.294  0.0784 -0.0983  0.3395
  629MOL0     C86685   4.147   4.238   7.317  0.0980  0.8030  0.0110
  629MOL0     C86686   4.226   4.204   7.438 -0.3709 -0.1884  0.2496
  629MOL0     C86687   4.258   4.052   7.461 -0.1649  0.9732 -1.1211
  629MOL0     O86688   4.353   4.030   7.576  1.2979 -0.1214  0.2639
  629MOL0     C86689   4.291   3.992   7.694  1.2718 -0.7213  0.0099
  629MOL0     C86690   4.358   3.884   7.761  0.0080  0.2966 -0.7555
  629MOL0     C86691   4.292   3.827   7.872  0.6996 -0.4643 -0.7179
  629MOL0     C86692   4.353   3.709   7.933 -0.3512 -0.3921 -0.8086
  629MOL0     C86693   4.169   3.875   7.926  0.0516 -0.4781 -0.3133
  629MOL0     C86694   4.086   3.806   8.032 -0.7299  0.5696  0.2184
  629MOL0     O86695   4.113   3.673   8.060  0.3866  0.1026  0.2476
  629MOL0     C86696   4.013   3.618   8.135  0.0923  0.6408  0.5101
  629MOL0     C86697   3.977   3.638   8.266 -0.1716  1.4467 -0.0203
  629MOL0     C86698   3.892   3.558   8.335  0.7180 -0.0495 -0.4605
  629MOL0     C86699   3.826   3.456   8.273  0.6794  1.0959  0.6074
  629MOL0     O86700   3.741   3.383   8.352  0.1763  0.1771 -0.5116
  629MOL0     C86701   3.702   3.261   8.296 -0.3318  0.2063  0.5607
  629MOL0     C86702   3.636   3.167   8.394  0.0373 -0.0607 -0.8037
  629MOL0     C86703   3.727   3.117   8.499 -0.2922 -0.7616  0.4782
  629MOL0     C86704   3.794   2.990   8.453 -0.8458  0.2816 -0.3341
  629MOL0     C86705   3.898   2.936   8.554  0.3334  0.7951  0.0990
  629MOL0     C86706   3.952   2.791   8.524 -0.7468  0.1032 -0.1560
  629MOL0     C86707   4.059   2.745   8.624 -0.5435 -0.3897  0.1742
  629MOL0     C86708   4.200   2.795   8.575  0.5460  0.4670 -0.5829
  629MOL0    Cl86709   4.215   2.972   8.613  0.1962 -0.1925  0.1492
  629MOL0     C86710   3.845   3.435   8.143 -0.8185 -0.2678  0.1770
  629MOL0     C86711   3.937   3.520   8.066 -0.1915  0.3988  0.3722
  629MOL0     O86712   3.997   3.876   8.081 -0.0815 -0.4189  0.7673
  629MOL0     C86713   4.121   3.989   7.860  0.0548 -0.6836  0.1256
  629MOL0     C86714   4.175   4.054   7.750  0.0688 -0.1734 -0.1051
  629MOL0     N86715   3.971   4.428   7.498  0.4808 -0.8023 -0.4108
  629MOL0     N86716   3.880   4.514   7.528  0.3098  0.8729 -0.7079
  629MOL0     C86717   3.448   5.361   7.396 -0.4988  0.6997  0.3240
  629MOL0     C86718   3.377   5.272   7.468 -0.3423  0.2948 -0.0286
  629MOL0     C86719   3.217   4.993   7.778  0.3828  0.4935  0.2909
  629MOL0     C86720   3.238   5.037   7.907 -0.7441  0.6099 -0.0601
  629MOL0     C86721   3.200   4.962   8.019  0.1925 -0.3846 -0.1644
  629MOL0     C86722   3.150   4.833   7.999 -0.3987  0.3830 -0.2445
  629MOL0     O86723   3.113   4.768   8.116  0.1552  0.4853 -0.6415
  629MOL0     C86724   3.221   4.692   8.176  0.0067 -0.0847 -1.0379
  629MOL0     C86725   3.241   4.554   8.117  0.0463  0.3612  0.6074
  629MOL0     C86726   3.126   4.447   8.145 -0.2135 -0.6431 -0.3711
  629MOL0     C86727   3.152   4.314   8.078 -0.2600 -1.0058  0.2025
  629MOL0     C86728   3.041   4.218   8.078  0.1987 -0.2644 -0.4759
  629MOL0     C86729   2.937   4.159   8.092  0.4772  0.3257  0.3488
  629MOL0     C86730   3.114   4.792   7.874 -0.3770 -0.5161  1.0510
  629MOL0     C86731   3.147   4.868   7.761 -0.5998 -1.4108 -0.2590
  629MOL0     C86732   3.114   4.800   7.628 -0.3917 -0.1424  0.3410
  629MOL0     H86733   3.535   5.335   7.757  0.1549  1.9422 -0.9902
  629MOL0     H86734   3.669   5.477   7.615  0.4049 -0.5145 -0.7085
  629MOL0     H86735   3.776   5.509   7.187  1.4022 -1.0418  0.7113
  629MOL0     H86736   3.636   5.411   7.165 -1.9451 -0.0721  1.3776
  629MOL0     H86737   3.887   5.330   7.267 -1.6259  4.5596 -2.3622
  629MOL0     H86738   3.766   5.315   7.395 -0.2772  1.4088 -0.1611
  629MOL0     H86739   3.618   5.178   7.237  1.1576 -1.3294  3.9482
  629MOL0     H86740   3.764   5.193   7.137  0.8250 -0.2648  0.1141
  629MOL0     H86741   3.780   4.981   7.229 -0.5261  0.6617 -1.8463
  629MOL0     H86742   3.906   5.089   7.292 -0.7806  0.6018  0.6344
  629MOL0     H86743   3.647   5.007   7.430 -1.4548  1.7613 -0.4445
  629MOL0     H86744   3.739   5.142   7.487 -0.1911  0.5761 -0.1913
  629MOL0     H86745   3.933   5.024   7.544  0.5628  1.0544 -1.4668
  629MOL0     H86746   3.798   4.933   7.604  1.4812 -1.4755 -0.2988
  629MOL0     H86747   3.973   4.783   7.511  0.0779 -1.7738 -0.6715
  629MOL0     H86748   3.938   4.853   7.345 -2.9557 -0.4515 -1.7607
  629MOL0     H86749   3.717   4.725   7.493  0.3236  0.6944  0.1155
  629MOL0     H86750   3.745   4.738   7.314  0.7653 -3.2390 -1.2554
  629MOL0     H86751   3.950   4.600   7.224  1.6629 -0.8916 -0.1618
  629MOL0     H86752   4.219   4.459   7.306  1.2138 -1.1806 -0.6574
  629MOL0     H86753   4.116   4.393   7.186 -3.0417  0.8226  0.8706
  629MOL0     H86754   4.046   4.197   7.322 -0.4318  1.9266 -0.8955
  629MOL0     H86755   4.210   4.195   7.238 -0.0621  0.8993 -0.1691
  629MOL0     H86756   4.319   4.260   7.427  1.3925 -3.1089 -0.5791
  629MOL0     H86757   4.165   4.243   7.521  0.6010  2.8665 -0.3448
  629MOL0     H86758   4.162   4.002   7.475  1.2463 -1.3106  1.6614
  629MOL0     H86759   4.301   3.998   7.376 -0.3343  4.2834 -3.4653
  629MOL0     H86760   4.437   3.830   7.710 -0.8088 -0.1314 -1.6051
  629MOL0     H86761   4.449   3.689   7.883  0.3860  2.1821 -0.5710
  629MOL0     H86762   4.287   3.624   7.917 -3.0790  1.8021 -2.1133
  629MOL0     H86763   4.367   3.725   8.040  0.9941 -0.3128 -0.9755
  629MOL0     H86764   4.041   3.715   8.308  1.7486 -1.5505  3.0776
  629MOL0     H86765   3.866   3.586   8.437  1.2129  0.6467 -0.5127
  629MOL0     H86766   3.621   3.289   8.228  1.5704  2.2115 -1.0258
  629MOL0     H86767   3.786   3.209   8.248 -0.1661  0.0477  1.0201
  629MOL0     H86768   3.553   3.229   8.430  0.9743  1.5700 -1.3750
  629MOL0     H86769   3.583   3.085   8.345 -0.0523 -0.1351 -0.5863
  629MOL0     H86770   3.675   3.110   8.595 -0.0662 -1.1287  0.5756
  629MOL0     H86771   3.806   3.193   8.505  1.8889 -2.3506 -3.8749
  629MOL0     H86772   3.851   3.013   8.363  0.9439 -0.9084  0.4387
  629MOL0     H86773   3.718   2.913   8.436  1.3665 -2.0913 -0.0896
  629MOL0     H86774   3.977   3.010   8.573  0.6929  0.2935  0.5850
  629MOL0     H86775   3.843   2.928   8.649  1.1947  3.7598  0.9567
  629MOL0     H86776   3.984   2.788   8.420 -3.9922  5.9989 -1.8007
  629MOL0     H86777   3.866   2.723   8.525  1.1451 -2.4699 -1.9898
  629MOL0     H86778   4.061   2.637   8.641  1.5779 -0.6732 -1.4773
  629MOL0     H86779   4.056   2.784   8.726 -0.7595  1.0937 -0.3708
  629MOL0     H86780   4.207   2.777   8.467  1.6541  1.1080 -0.6242
  629MOL0     H86781   4.269   2.726   8.624  3.9910  2.1627 -2.6665
  629MOL0     H86782   3.778   3.364   8.096 -2.3941  0.5809  1.0573
  629MOL0     H86783   3.947   3.510   7.959 -0.3659 -2.1544  0.5352
  629MOL0     H86784   4.033   4.027   7.910  1.3582 -0.0907  2.0821
  629MOL0     H86785   4.104   4.126   7.710  2.4653  2.5059  0.0856
  629MOL0     H86786   3.420   5.375   7.292  2.5083  3.0247 -0.3422
  629MOL0     H86787   3.320   5.193   7.421 -1.2510 -0.5318  2.3480
  629MOL0     H86788   3.283   5.132   7.935  2.0130 -0.9869  1.3870
  629MOL0     H86789   3.215   5.012   8.114 -0.8021  1.1837 -0.8005
  629MOL0     H86790   3.309   4.757   8.173 -0.5603  0.7614 -0.0954
  629MOL0     H86791   3.196   4.691   8.283  3.0430 -2.3461 -0.2244
  629MOL0     H86792   3.337   4.507   8.141  0.0078 -0.6328 -1.0204
  629MOL0     H86793   3.228   4.574   8.010  2.1094 -0.9660  0.0487
  629MOL0     H86794   3.111   4.440   8.253 -2.5102  0.9870 -0.5076
  629MOL0     H86795   3.029   4.487   8.114  0.8160  3.2756  0.9673
  629MOL0     H86796   3.231   4.258   8.129  2.2890  1.0057 -1.2631
  629MOL0     H86797   3.193   4.345   7.981  1.4798  3.3622  2.0780
  629MOL0     H86798   2.846   4.110   8.119 -1.5756  3.3706 -0.4249
  629MOL0     H86799   3.054   4.702   7.872 -2.1751  0.6099 -0.6243
  629MOL0     H86800   3.200   4.816   7.561 -0.1590  2.4898  1.1428
  629MOL0     H86801   3.092   4.696   7.652  0.5515  0.1723  2.8465
  629MOL0     H86802   3.028   4.844   7.578  0.6624  3.0912  1.0777
  630MOL0     O86803   1.698   6.730  11.019  0.0056 -0.8502 -0.1123
  630MOL0     C86804   1.721   6.683  11.130  0.5713 -0.3194 -0.4196
  630MOL0     O86805   1.819   6.586  11.161  0.2676  0.4014 -0.4750
  630MOL0     C86806   1.860   6.514  11.048  0.4240  0.3412  0.2603
  630MOL0     C86807   1.836   6.376  11.053 -0.8688 -0.5835  0.1286
  630MOL0     C86808   1.892   6.288  10.960 -0.2398  0.6422  0.0571
  630MOL0     C86809   1.972   6.337  10.859 -0.1675  0.5013 -1.2671
  630MOL0     O86810   2.044   6.246  10.792 -0.6698 -0.1590 -0.2270
  630MOL0     C86811   2.170   6.294  10.732 -0.5618 -0.4606  0.8227
  630MOL0     C86812   2.153   6.295  10.576 -0.2929  0.0969 -0.3078
  630MOL0     C86813   2.062   6.194  10.505 -0.1418  0.6862 -0.0814
  630MOL0     C86814   2.097   6.046  10.543  0.3872  0.2659  0.1229
  630MOL0     C86815   2.006   5.949  10.469 -0.3331 -0.2096 -0.6473
  630MOL0     C86816   1.997   5.956  10.312  0.6615  0.0859 -0.9188
  630MOL0     C86817   1.861   5.899  10.253 -0.8584 -0.2884  0.3136
  630MOL0     C86818   1.831   5.755  10.288 -0.4966  1.0563 -0.4631
  630MOL0     N86819   1.715   5.710  10.219  0.2716  0.3875  0.2724
  630MOL0     C86820   1.715   5.633  10.105  0.5612  0.1019  0.4700
  630MOL0     C86821   1.587   5.592  10.085  0.9902 -0.5840 -0.2364
  630MOL0     C86822   1.541   5.500   9.976 -0.2038  0.2419 -0.3157
  630MOL0     C86823   1.396   5.521   9.911 -0.6820 -0.4463 -0.6183
  630MOL0     C86824   1.332   5.395   9.856  0.3473 -0.5582 -0.9322
  630MOL0     C86825   1.403   5.332   9.742 -0.0355 -0.1223 -0.5953
  630MOL0     O86826   1.318   5.223   9.707 -0.2008 -0.1059  0.1178
  630MOL0     C86827   1.360   5.094   9.731 -0.6916 -0.0844 -0.0275
  630MOL0     C86828   1.289   5.001   9.676  0.0602  0.5863  0.4768
  630MOL0     C86829   1.321   4.860   9.671 -0.1675 -0.2170 -0.5864
  630MOL0     C86830   1.234   4.761   9.601  0.9233  0.3982  0.2578
  630MOL0     C86831   1.434   4.829   9.753 -0.6827 -0.5395 -0.6882
  630MOL0     C86832   1.484   4.686   9.763  0.4545 -0.4032  0.6193
  630MOL0     O86833   1.533   4.650   9.889 -0.6856  0.5877  0.9170
  630MOL0     C86834   1.541   4.529   9.947  0.0514 -0.6037 -0.1291
  630MOL0     C86835   1.473   4.405   9.912 -0.1167 -0.5648  0.3016
  630MOL0     C86836   1.466   4.292   9.993  0.6430  0.8914 -0.5403
  630MOL0     C86837   1.518   4.299  10.121 -0.7375 -0.4936 -0.5162
  630MOL0     O86838   1.490   4.193  10.203  0.7671  0.1880  0.6375
  630MOL0     C86839   1.574   4.152  10.315  1.2963  0.7161  0.2909
  630MOL0     C86840   1.543   4.022  10.376 -0.2436 -0.1654 -0.2004
  630MOL0     C86841   1.410   4.020  10.454  0.0096  0.3218  0.3681
  630MOL0     C86842   1.400   4.105  10.583 -0.1685  0.2412 -0.5490
  630MOL0     C86843   1.510   4.058  10.673 -0.3640 -0.1063  0.0350
  630MOL0     C86844   1.493   4.098  10.819  0.4892 -0.3051 -0.0499
  630MOL0     C86845   1.624   4.122  10.898  0.7473 -0.3460  1.8348
  630MOL0     C86846   1.695   4.248  10.870  0.7952  1.0038  0.0290
  630MOL0    Cl86847   1.595   4.390  10.907 -0.1299 -0.1897 -0.1606
  630MOL0     C86848   1.583   4.418  10.164  0.1960 -0.0888 -0.2239
  630MOL0     C86849   1.606   4.523  10.074  0.6986 -0.4642  0.2460
  630MOL0     O86850   1.477   4.614   9.660  0.0875  0.0979 -0.1363
  630MOL0     C86851   1.501   4.921   9.837 -0.0543  0.3366  1.4698
  630MOL0     C86852   1.468   5.055   9.819  0.9733  0.0532 -0.4484
  630MOL0     N86853   1.510   5.641  10.192 -0.9843 -0.8742 -0.5790
  630MOL0     N86854   1.592   5.711  10.268  0.3332 -0.4114 -1.4866
  630MOL0     C86855   1.970   6.477  10.838  0.1112  0.2359  0.4087
  630MOL0     C86856   1.923   6.566  10.937 -1.3700  1.2512  0.3064
  630MOL0     C86857   1.626   6.725  11.239  0.0455 -0.7860 -0.1290
  630MOL0     C86858   1.509   6.790  11.194 -0.6216 -0.4213 -0.5917
  630MOL0     C86859   1.423   6.849  11.290  0.2081  0.4319  0.1503
  630MOL0     C86860   1.441   6.834  11.427  1.1324  0.2942 -0.4306
  630MOL0     O86861   1.373   6.900  11.528 -0.0038  0.1249  0.0384
  630MOL0     C86862   1.263   6.983  11.499 -0.2073 -0.8252  0.2627
  630MOL0     C86863   1.212   7.045  11.629  0.0202 -0.1643  0.0307
  630MOL0     C86864   1.323   7.118  11.709  0.0824 -0.0757 -0.2528
  630MOL0     C86865   1.391   7.249  11.648 -0.6747 -0.6491 -1.2406
  630MOL0     C86866   1.474   7.319  11.749 -0.1495  0.1279  0.0223
  630MOL0     C86867   1.551   7.380  11.820 -0.1046  0.0401  0.2116
  630MOL0     C86868   1.558   6.774  11.467  0.2387 -0.5202 -0.6821
  630MOL0     C86869   1.643   6.714  11.380 -0.6844 -0.0699 -0.4643
  630MOL0     C86870   1.757   6.634  11.434  0.0334 -0.1482 -0.6829
  630MOL0     H86871   1.792   6.338  11.144 -0.1113  0.7913  1.1131
  630MOL0     H86872   1.877   6.184  10.985  0.2047  1.0498  2.1724
  630MOL0     H86873   2.239   6.212  10.755  0.7258  0.3413 -0.0058
  630MOL0     H86874   2.210   6.389  10.770  0.3916 -0.0920 -0.9999
  630MOL0     H86875   2.107   6.391  10.552 -0.0537  0.7467  1.6106
  630MOL0     H86876   2.252   6.287  10.531 -0.1700  2.5561 -0.6077
  630MOL0     H86877   1.955   6.213  10.513 -0.6134 -1.7956  0.0384
  630MOL0     H86878   2.076   6.208  10.397 -2.0841 -3.0378 -0.9592
  630MOL0     H86879   2.200   6.022  10.514  0.3516 -2.7659  1.9848
  630MOL0     H86880   2.092   6.027  10.651  1.1916 -4.7791 -0.4608
  630MOL0     H86881   1.911   5.982  10.512 -0.3255 -2.7162  1.5188
  630MOL0     H86882   2.014   5.847  10.508  0.3504  1.4796  4.3086
  630MOL0     H86883   2.007   6.059  10.274 -1.0812 -0.1382 -2.1173
  630MOL0     H86884   2.080   5.906  10.262 -0.0542 -0.4150 -1.6314
  630MOL0     H86885   1.886   5.900  10.147 -0.4389  1.5584  0.3945
  630MOL0     H86886   1.770   5.958  10.266  0.5956  1.7503  2.0909
  630MOL0     H86887   1.918   5.691  10.276 -1.3514 -0.7800  2.1577
  630MOL0     H86888   1.811   5.756  10.395  1.0764 -0.4004 -0.1188
  630MOL0     H86889   1.807   5.600  10.058 -0.4477 -0.8917 -0.8765
  630MOL0     H86890   1.542   5.401  10.023 -0.8555  1.0329  1.4648
  630MOL0     H86891   1.619   5.505   9.900 -1.8318  1.9169 -1.9772
  630MOL0     H86892   1.325   5.557   9.986  1.5392  0.6754  1.0649
  630MOL0     H86893   1.406   5.598   9.835  0.7634 -0.3349 -0.3388
  630MOL0     H86894   1.311   5.328   9.940 -0.7227  1.0074  0.1052
  630MOL0     H86895   1.234   5.434   9.827 -0.6333 -2.3145 -0.1303
  630MOL0     H86896   1.410   5.405   9.660  2.3534  1.5889  1.0084
  630MOL0     H86897   1.504   5.300   9.769  0.5527 -0.4344 -2.8908
  630MOL0     H86898   1.193   5.031   9.636 -0.8324 -1.0831  1.2794
  630MOL0     H86899   1.226   4.673   9.666 -1.6671  0.8890  0.7216
  630MOL0     H86900   1.273   4.742   9.500  0.3087  1.7310 -0.2472
  630MOL0     H86901   1.135   4.807   9.606  1.3609  1.3666  0.1533
  630MOL0     H86902   1.430   4.414   9.813  1.6237  3.4619 -0.2985
  630MOL0     H86903   1.416   4.201   9.962  0.7502  0.7762 -0.3811
  630MOL0     H86904   1.668   4.118  10.270  1.4749 -1.9208  2.4081
  630MOL0     H86905   1.576   4.242  10.376 -2.9928  0.2785  1.4434
  630MOL0     H86906   1.539   3.947  10.297 -1.0590 -2.8535  2.2276
  630MOL0     H86907   1.621   3.995  10.447 -0.6957  0.2530  0.4645
  630MOL0     H86908   1.372   3.920  10.478 -3.2232  1.9943  2.9277
  630MOL0     H86909   1.334   4.055  10.384  1.9798  0.5271 -1.7969
  630MOL0     H86910   1.306   4.104  10.639  1.9308  1.5009  3.4390
  630MOL0     H86911   1.442   4.205  10.566 -0.0382  0.6649  1.9346
  630MOL0     H86912   1.510   3.949  10.667 -2.4798 -0.1195 -0.5597
  630MOL0     H86913   1.608   4.080  10.631  1.1630 -1.3621  2.7206
  630MOL0     H86914   1.436   4.021  10.871  2.1004 -0.6801  1.2545
  630MOL0     H86915   1.436   4.190  10.824 -0.2816 -0.8374  1.5509
  630MOL0     H86916   1.686   4.033  10.894  2.5080  0.8097  2.2722
  630MOL0     H86917   1.597   4.138  11.003 -0.7199  0.1788  1.4084
  630MOL0     H86918   1.718   4.260  10.764  0.4943  1.5077  0.0205
  630MOL0     H86919   1.782   4.243  10.936 -1.0111  2.8604  2.7873
  630MOL0     H86920   1.623   4.442  10.262  0.8369  0.8533 -0.7040
  630MOL0     H86921   1.648   4.606  10.130 -0.0658  1.0510 -1.3176
  630MOL0     H86922   1.590   4.888   9.889 -0.1043 -3.4499 -0.4896
  630MOL0     H86923   1.528   5.126   9.875 -1.4295  0.6537  1.5345
  630MOL0     H86924   2.020   6.522  10.752  0.7734 -0.4645  0.4070
  630MOL0     H86925   1.933   6.672  10.918 -1.7974  1.0512 -1.1141
  630MOL0     H86926   1.476   6.809  11.092 -1.6500 -2.9496 -0.8037
  630MOL0     H86927   1.334   6.897  11.250  0.4758 -0.1937 -1.2255
  630MOL0     H86928   1.298   7.067  11.438 -0.1040  0.0786  1.5336
  630MOL0     H86929   1.183   6.925  11.453 -1.3761 -1.6284  3.0820
  630MOL0     H86930   1.180   6.960  11.691  2.2495 -0.1166  1.3788
  630MOL0     H86931   1.130   7.112  11.606 -0.7076  0.5927  3.9809
  630MOL0     H86932   1.283   7.149  11.806 -3.8373 -2.2050 -0.9956
  630MOL0     H86933   1.398   7.042  11.733 -1.9361 -1.6265  1.5906
  630MOL0     H86934   1.307   7.316  11.628 -1.4376 -0.2096  2.6542
  630MOL0     H86935   1.449   7.228  11.557 -0.1059  0.2908 -1.1122
  630MOL0     H86936   1.600   7.448  11.886 -2.3081  1.3149  0.6306
  630MOL0     H86937   1.584   6.782  11.572  0.1129  0.7743 -0.7300
  630MOL0     H86938   1.743   6.526  11.420  0.5155 -0.2067 -0.7238
  630MOL0     H86939   1.856   6.665  11.398  0.8125 -2.5384 -0.7596
  630MOL0     H86940   1.753   6.660  11.540 -2.9372  0.3446 -0.8436
  631MOL0     O86941   4.218  10.382   1.974  0.3793  0.4959 -0.6911
  631MOL0     C86942   4.298  10.364   1.883  0.6014  0.0515  1.1048
  631MOL0     O86943   4.272  10.382   1.747  0.6138 -0.0501 -1.0493
  631MOL0     C86944   4.143  10.400   1.711 -1.0633 -0.4122  0.6296
  631MOL0     C86945   4.063  10.510   1.751 -0.2583 -0.9657 -0.1414
  631MOL0     C86946   3.924  10.526   1.711 -0.2978 -0.1513  0.9436
  631MOL0     C86947   3.871  10.422   1.633 -0.5725  0.0087  0.5736
  631MOL0     O86948   3.743  10.451   1.611  0.2793  0.8240  0.9382
  631MOL0     C86949   3.658  10.341   1.565 -0.1879  0.3485  0.5198
  631MOL0     C86950   3.519  10.391   1.514 -0.4609 -0.2774  0.6282
  631MOL0     C86951   3.443  10.484   1.622  0.0439 -0.7281 -0.5471
  631MOL0     C86952   3.323  10.556   1.558 -0.4678  0.9222 -0.2876
  631MOL0     C86953   3.248  10.648   1.649  0.3780 -0.5131 -0.8684
  631MOL0     C86954   3.133  10.723   1.584 -0.3482  0.3027 -0.0822
  631MOL0     C86955   3.176  10.803   1.467 -0.3361 -0.4666 -0.4359
  631MOL0     C86956   3.078  10.926   1.450 -0.4680 -0.3490 -0.0436
  631MOL0     N86957   2.940  10.908   1.413  0.3726 -0.0404  1.0394
  631MOL0     C86958   2.896  10.881   1.280  0.1140 -1.4976 -0.6437
  631MOL0     C86959   2.772  10.847   1.293  0.4313 -0.4741  0.3722
  631MOL0     C86960   2.671  10.808   1.185  0.1213 -0.6646 -0.0387
  631MOL0     C86961   2.684  10.659   1.169  0.5796 -0.0571 -0.3294
  631MOL0     C86962   2.614  10.623   1.038 -0.5672  0.8537  0.0478
  631MOL0     C86963   2.623  10.463   1.015 -0.5564  0.0941  0.2344
  631MOL0     O86964   2.587  10.396   1.131 -0.0504  0.2521 -0.5807
  631MOL0     C86965   2.546  10.262   1.123 -0.8743 -0.5191  0.0465
  631MOL0     C86966   2.632  10.158   1.072  0.8329 -0.4499  0.8393
  631MOL0     C86967   2.586  10.031   1.048 -0.4556  0.3060 -0.7707
  631MOL0     C86968   2.677   9.950   0.962 -0.2045  0.3589 -0.3840
  631MOL0     C86969   2.456   9.991   1.080  0.4703 -0.1204  0.4531
  631MOL0     C86970   2.395   9.857   1.047 -0.3013  0.1763 -0.9212
  631MOL0     O86971   2.389   9.814   0.922  0.7915  0.5393  0.7997
  631MOL0     C86972   2.346   9.694   0.889 -0.4613  0.5372  0.5237
  631MOL0     C86973   2.445   9.602   0.857 -0.4885 -1.0965  0.0147
  631MOL0     C86974   2.409   9.469   0.824  0.6392 -0.7924  0.0778
  631MOL0     C86975   2.272   9.432   0.811 -0.1416 -0.3295 -0.8367
  631MOL0     O86976   2.254   9.305   0.787 -0.1339  1.2108 -0.5639
  631MOL0     C86977   2.194   9.230   0.900  0.6012  0.1052  0.7894
  631MOL0     C86978   2.285   9.194   1.014  0.3090 -0.0875 -0.6419
  631MOL0     C86979   2.393   9.099   0.947 -0.2928 -0.5696  0.4674
  631MOL0     C86980   2.353   8.951   0.940  0.1214 -0.1433  0.0908
  631MOL0     C86981   2.465   8.867   0.876  0.2323  0.2980  0.1658
  631MOL0     C86982   2.421   8.717   0.848 -0.4213  0.4361 -0.4357
  631MOL0     C86983   2.543   8.640   0.787  0.4217  0.3220 -0.0095
  631MOL0     C86984   2.656   8.608   0.882 -0.9365  0.3553 -0.1361
  631MOL0    Cl86985   2.788   8.521   0.785  0.4241  0.4235  0.4968
  631MOL0     C86986   2.173   9.524   0.851  0.8456 -1.1350  0.1786
  631MOL0     C86987   2.207   9.653   0.883 -0.7273  0.3531  0.4958
  631MOL0     O86988   2.381   9.787   1.149 -0.3696 -0.6132  0.6398
  631MOL0     C86989   2.380  10.085   1.143  0.3342 -0.1315 -0.8076
  631MOL0     C86990   2.416  10.221   1.164  0.0478 -0.0286 -0.1922
  631MOL0     N86991   2.751  10.828   1.431  0.5019 -0.4040  0.4991
  631MOL0     N86992   2.852  10.867   1.499 -0.0981  0.3196 -0.5518
  631MOL0     C86993   3.955  10.323   1.576 -0.3782  0.5898  0.6869
  631MOL0     C86994   4.092  10.306   1.619  0.3339  0.2673  0.6451
  631MOL0     C86995   4.433  10.313   1.917  0.4961 -0.6114 -0.8121
  631MOL0     C86996   4.536  10.303   1.819  0.1948  1.7716  0.2420
  631MOL0     C86997   4.656  10.250   1.850  1.3801  0.1477 -0.4331
  631MOL0     C86998   4.698  10.224   1.978 -0.1654  0.1079  0.7521
  631MOL0     O86999   4.819  10.179   2.020 -0.4004  1.1106 -0.1557
  631MOL0     C87000   4.934  10.176   1.924  0.0548 -1.3540  1.0722
  631MOL0     C87001   5.080  10.168   1.992 -0.6522  0.5853 -0.7673
  631MOL0     C87002   5.105  10.027   2.040  0.2839  0.7786  0.3388
  631MOL0     C87003   5.252  10.014   2.091  0.8039 -0.1104 -0.0117
  631MOL0     C87004   5.337  10.008   1.977 -0.2161 -0.6285  0.4635
  631MOL0     C87005   5.404   9.979   1.877  0.5543 -0.4443  1.0073
  631MOL0     C87006   4.605  10.241   2.076 -0.8274 -0.1272  0.3866
  631MOL0     C87007   4.468  10.277   2.056 -0.5362 -0.1129 -0.7176
  631MOL0     C87008   4.379  10.272   2.183 -0.2940 -0.3207  0.2758
  631MOL0     H87009   4.108  10.587   1.813 -3.7292 -0.6823  2.3693
  631MOL0     H87010   3.863  10.612   1.736  0.9309  0.1074  3.2717
  631MOL0     H87011   3.636  10.268   1.644 -1.0159 -0.9196 -0.8345
  631MOL0     H87012   3.703  10.294   1.478  0.7419  1.6888  0.2387
  631MOL0     H87013   3.546  10.450   1.426  2.2305 -0.5973  1.1379
  631MOL0     H87014   3.465  10.305   1.475 -1.5174  0.8036 -0.3875
  631MOL0     H87015   3.416  10.432   1.714 -0.6279  0.1524 -0.2277
  631MOL0     H87016   3.518  10.558   1.651 -1.7078  1.5701 -1.4713
  631MOL0     H87017   3.354  10.622   1.475 -0.8106 -0.7629 -1.8240
  631MOL0     H87018   3.258  10.483   1.510 -4.7352  1.1969  4.3304
  631MOL0     H87019   3.314  10.720   1.699  2.0914 -4.6908  3.8854
  631MOL0     H87020   3.203  10.593   1.733  1.4349  0.5338  0.4264
  631MOL0     H87021   3.061  10.646   1.554  1.2732 -0.8586 -1.1518
  631MOL0     H87022   3.087  10.792   1.656  3.6540  3.3701 -0.1327
  631MOL0     H87023   3.185  10.749   1.373  2.3536 -2.7093  0.9644
  631MOL0     H87024   3.277  10.838   1.488  0.5849 -3.3155  0.2758
  631MOL0     H87025   3.066  10.984   1.541 -3.1695  2.3957 -1.9385
  631MOL0     H87026   3.113  10.993   1.371 -1.9986 -1.1712 -1.4980
  631MOL0     H87027   2.952  10.886   1.187  4.1892 -0.8967  1.6009
  631MOL0     H87028   2.675  10.864   1.090 -1.5374 -2.4353 -1.2329
  631MOL0     H87029   2.567  10.824   1.214  0.0531  3.3008 -1.7254
  631MOL0     H87030   2.787  10.623   1.165  1.2126  1.6819 -0.8170
  631MOL0     H87031   2.637  10.604   1.251 -1.0748 -0.3608 -1.4287
  631MOL0     H87032   2.514  10.666   1.033 -1.6486 -1.1921  2.1752
  631MOL0     H87033   2.669  10.680   0.963 -2.8311  0.0656 -2.3567
  631MOL0     H87034   2.568  10.422   0.930 -2.7972 -1.0289  2.1062
  631MOL0     H87035   2.728  10.435   1.007  0.0394  1.6107  2.0701
  631MOL0     H87036   2.728  10.199   1.042  0.3200  2.1685  2.4511
  631MOL0     H87037   2.755  10.024   0.943 -2.0851  2.0983 -1.6977
  631MOL0     H87038   2.624   9.913   0.874 -0.7545  3.9420 -1.7070
  631MOL0     H87039   2.711   9.866   1.024  1.7903  2.6166  1.7873
  631MOL0     H87040   2.550   9.626   0.859 -1.1188  2.2415 -0.5571
  631MOL0     H87041   2.492   9.401   0.807  0.9784 -0.8113  1.6560
  631MOL0     H87042   2.113   9.291   0.942 -1.0542  0.0778 -2.1077
  631MOL0     H87043   2.152   9.137   0.860 -1.2352  1.2708 -0.1781
  631MOL0     H87044   2.329   9.286   1.053 -1.5070 -0.5929  2.9909
  631MOL0     H87045   2.231   9.135   1.089 -0.6162  2.1524  0.5437
  631MOL0     H87046   2.480   9.114   1.011 -1.7688  1.1352  2.2111
  631MOL0     H87047   2.414   9.136   0.846 -0.4885 -0.5266  0.4417
  631MOL0     H87048   2.266   8.941   0.875  0.7430  2.1467 -1.2010
  631MOL0     H87049   2.328   8.923   1.043  0.0519  2.1763  0.7586
  631MOL0     H87050   2.500   8.905   0.779 -2.1357  2.3996  0.0454
  631MOL0     H87051   2.541   8.870   0.955  1.3156 -4.8300 -0.3414
  631MOL0     H87052   2.333   8.722   0.783 -1.8915  1.8676  1.5081
  631MOL0     H87053   2.390   8.663   0.938 -1.6203  0.2763 -0.9212
  631MOL0     H87054   2.594   8.695   0.708  3.0622 -0.7814  0.8071
  631MOL0     H87055   2.509   8.549   0.737 -3.5579  1.3462  0.5436
  631MOL0     H87056   2.619   8.548   0.966  1.8076 -4.2999 -1.8438
  631MOL0     H87057   2.684   8.708   0.917 -3.1714  1.2450 -0.7220
  631MOL0     H87058   2.069   9.500   0.837  0.3836 -0.0072  1.4552
  631MOL0     H87059   2.132   9.731   0.889  0.1475  1.3534 -0.7399
  631MOL0     H87060   2.282  10.051   1.174  0.2717  0.1560 -0.6876
  631MOL0     H87061   2.353  10.291   1.219  0.8528 -0.0284  0.7571
  631MOL0     H87062   3.922  10.256   1.497 -0.1817  2.4260 -1.0338
  631MOL0     H87063   4.152  10.225   1.579 -0.4130  0.0327 -0.0420
  631MOL0     H87064   4.538  10.331   1.714  3.3586 -1.8211 -0.8644
  631MOL0     H87065   4.726  10.233   1.769  2.0229  1.7729 -0.2525
  631MOL0     H87066   4.928  10.109   1.838 -4.5889  3.8901 -3.4859
  631MOL0     H87067   4.937  10.274   1.875  3.2555 -3.3687 -3.5784
  631MOL0     H87068   5.075  10.235   2.078 -2.0825 -1.0557  0.4961
  631MOL0     H87069   5.151  10.203   1.916 -2.7644  0.2939 -3.0338
  631MOL0     H87070   5.033   9.995   2.116  0.2547  2.9706  1.3183
  631MOL0     H87071   5.088   9.960   1.956  1.2060 -1.9262  2.1678
  631MOL0     H87072   5.265   9.922   2.149  0.2017 -0.0596  0.2046
  631MOL0     H87073   5.280  10.105   2.144 -1.7922  1.1631 -0.7012
  631MOL0     H87074   5.473   9.953   1.799  0.1648  1.6950 -0.1376
  631MOL0     H87075   4.632  10.207   2.175 -1.9966 -2.1255  0.0854
  631MOL0     H87076   4.378  10.372   2.228  5.6581 -1.4595  4.0840
  631MOL0     H87077   4.276  10.234   2.181  0.7410 -3.4125 -0.1470
  631MOL0     H87078   4.427  10.220   2.266  1.1677  0.8294  0.1880
  632MOL0     O87079   4.993   7.163   1.837 -0.4259  0.3426 -0.4014
  632MOL0     C87080   4.903   7.137   1.919 -0.1704 -0.5136  0.0003
  632MOL0     O87081   4.842   7.014   1.927 -1.1315 -0.5887 -0.2225
  632MOL0     C87082   4.889   6.909   1.842 -0.3393  0.4916  0.3348
  632MOL0     C87083   4.961   6.811   1.908 -0.0756 -0.1309 -0.1222
  632MOL0     C87084   4.999   6.690   1.841 -0.4367  0.4349 -0.3117
  632MOL0     C87085   4.975   6.674   1.703 -0.4966  0.8742  0.8639
  632MOL0     O87086   5.008   6.560   1.628  0.1688  0.3156 -0.7883
  632MOL0     C87087   5.117   6.485   1.675 -0.0369  0.1599 -0.6832
  632MOL0     C87088   5.172   6.391   1.563  0.0338 -0.4397  0.6880
  632MOL0     C87089   5.256   6.473   1.459  0.6003 -0.5665  0.2674
  632MOL0     C87090   5.339   6.365   1.388  0.4768  0.2738 -0.4118
  632MOL0     C87091   5.420   6.392   1.253  0.5595  0.3473  0.7590
  632MOL0     C87092   5.324   6.421   1.134 -0.0310  0.7136 -0.5184
  632MOL0     C87093   5.410   6.453   1.006  0.5406  0.0192 -0.0405
  632MOL0     C87094   5.315   6.502   0.892 -0.4828  0.0384 -0.4484
  632MOL0     N87095   5.387   6.519   0.767 -0.5601  0.6742  0.3946
  632MOL0     C87096   5.454   6.633   0.722 -0.0044  0.2213 -0.0627
  632MOL0     C87097   5.474   6.608   0.593  0.0762  0.3761  0.7085
  632MOL0     C87098   5.552   6.686   0.491  0.1572 -0.1591  1.7422
  632MOL0     C87099   5.475   6.789   0.411  0.5597  0.5503 -0.2891
  632MOL0     C87100   5.430   6.907   0.500 -1.0752 -0.0470 -0.5044
  632MOL0     C87101   5.394   7.021   0.404  0.3790 -0.6172  0.2130
  632MOL0     O87102   5.323   7.119   0.486 -0.6983  0.2100 -0.4409
  632MOL0     C87103   5.243   7.225   0.435 -0.0034  0.0521  0.0451
  632MOL0     C87104   5.163   7.287   0.531 -0.1367  0.4906 -0.2378
  632MOL0     C87105   5.071   7.390   0.493  0.4213  0.2298 -0.1310
  632MOL0     C87106   5.008   7.466   0.610 -0.2302 -0.4137 -0.4341
  632MOL0     C87107   5.056   7.428   0.351 -0.2868  0.0457  0.2530
  632MOL0     C87108   4.974   7.549   0.303 -0.3156  0.4330 -0.1367
  632MOL0     O87109   5.006   7.602   0.184  0.5130 -0.1761 -0.2303
  632MOL0     C87110   4.949   7.711   0.123 -0.7760 -0.8494  0.5808
  632MOL0     C87111   4.826   7.772   0.151  0.2328 -0.0217  0.8819
  632MOL0     C87112   4.777   7.874   0.068  0.2047 -0.1720  0.8329
  632MOL0     C87113   4.856   7.919  -0.046  1.5078  0.2003 -0.2818
  632MOL0     O87114   4.813   8.017  -0.133  0.0856 -0.5941 -0.5060
  632MOL0     C87115   4.700   7.989  -0.213 -0.6620  0.7649 -0.4527
  632MOL0     C87116   4.710   8.087  -0.324 -0.0693 -0.1644 -0.2912
  632MOL0     C87117   4.630   8.058  -0.456 -0.5058  0.1728  0.1469
  632MOL0     C87118   4.489   8.048  -0.443  0.6121 -0.3162 -0.1985
  632MOL0     C87119   4.406   8.060  -0.572 -0.7972  0.1305  0.3251
  632MOL0     C87120   4.412   8.196  -0.636  0.9663  0.0734  0.2996
  632MOL0     C87121   4.271   8.245  -0.608  0.0379  0.8303 -1.2675
  632MOL0     C87122   4.262   8.392  -0.640  1.2760  0.0591  0.7404
  632MOL0    Cl87123   4.312   8.494  -0.504 -0.2040  0.0975 -0.6276
  632MOL0     C87124   4.977   7.858  -0.064 -0.6279 -0.0868 -0.8465
  632MOL0     C87125   5.027   7.764   0.016 -0.5432  1.3833  0.1243
  632MOL0     O87126   4.874   7.573   0.368  0.8885  0.5925 -0.2040
  632MOL0     C87127   5.138   7.358   0.257  0.5254 -0.4847 -0.5911
  632MOL0     C87128   5.236   7.266   0.304 -0.1156  0.0701  1.1871
  632MOL0     N87129   5.432   6.479   0.566 -0.4063  0.0425 -0.2302
  632MOL0     N87130   5.384   6.424   0.666  0.5079  0.9477  0.4176
  632MOL0     C87131   4.886   6.761   1.639  0.1803 -0.8793 -0.2731
  632MOL0     C87132   4.843   6.874   1.708  0.0162  0.1156  0.0320
  632MOL0     C87133   4.840   7.250   2.002 -0.1723  0.1534  0.1306
  632MOL0     C87134   4.702   7.241   2.029 -0.3963  0.7971 -0.6502
  632MOL0     C87135   4.637   7.337   2.103  0.4394 -0.3290  0.1162
  632MOL0     C87136   4.704   7.449   2.154  0.6314  0.1827  0.2887
  632MOL0     O87137   4.651   7.541   2.242  0.3930 -0.5631 -0.6910
  632MOL0     C87138   4.519   7.530   2.305 -0.2379 -0.7101  0.6171
  632MOL0     C87139   4.524   7.481   2.448  0.0422  0.2904  0.3528
  632MOL0     C87140   4.518   7.338   2.463  0.0377  0.3822  0.4898
  632MOL0     C87141   4.439   7.300   2.592 -0.3547 -0.7045 -0.6530
  632MOL0     C87142   4.518   7.332   2.709 -0.0017  0.4112  0.1381
  632MOL0     C87143   4.589   7.371   2.803  0.0948 -0.2840  0.3516
  632MOL0     C87144   4.841   7.463   2.129  0.4533 -0.2775  1.2010
  632MOL0     C87145   4.915   7.361   2.052  1.2856 -0.7104  0.6119
  632MOL0     C87146   5.058   7.370   2.011  0.2697 -0.2363 -0.6017
  632MOL0     H87147   4.974   6.828   2.014  1.2004  1.2319 -0.4711
  632MOL0     H87148   5.038   6.602   1.892  0.0443  0.6870 -0.2341
  632MOL0     H87149   5.089   6.428   1.764  1.9604  2.8723  1.8826
  632MOL0     H87150   5.196   6.552   1.710 -2.8561  3.3915  0.1520
  632MOL0     H87151   5.243   6.317   1.602  0.1339 -1.3606 -1.1046
  632MOL0     H87152   5.087   6.343   1.513  0.8550 -1.0112 -0.2100
  632MOL0     H87153   5.198   6.533   1.389 -0.1423 -0.0704  1.2990
  632MOL0     H87154   5.322   6.538   1.517 -0.2565  1.4187 -0.8835
  632MOL0     H87155   5.411   6.318   1.456 -1.8774 -3.9236 -0.4991
  632MOL0     H87156   5.267   6.284   1.375 -1.8786  2.2857 -0.6978
  632MOL0     H87157   5.487   6.307   1.239  3.2355  2.7478 -3.2758
  632MOL0     H87158   5.482   6.482   1.262  0.3170  0.7954 -1.5138
  632MOL0     H87159   5.250   6.342   1.115  0.9950 -0.4493  0.1230
  632MOL0     H87160   5.277   6.517   1.158  1.4582  1.4990 -0.6544
  632MOL0     H87161   5.469   6.367   0.974 -0.0782  0.3105 -2.1513
  632MOL0     H87162   5.477   6.537   1.027  0.4991  1.2413 -3.9241
  632MOL0     H87163   5.226   6.440   0.882 -3.6389  4.4004 -3.5141
  632MOL0     H87164   5.282   6.597   0.936  1.1060  0.8864 -1.0237
  632MOL0     H87165   5.473   6.718   0.787  2.2663  0.1865 -0.5891
  632MOL0     H87166   5.590   6.603   0.431 -1.5763  0.0247  0.2789
  632MOL0     H87167   5.631   6.748   0.533  0.2007  1.2042 -0.2236
  632MOL0     H87168   5.536   6.826   0.328  1.3933 -1.1559 -0.4743
  632MOL0     H87169   5.385   6.740   0.372  0.0187  0.1258  1.4075
  632MOL0     H87170   5.343   6.883   0.562 -3.8372  5.8263 -1.4458
  632MOL0     H87171   5.509   6.933   0.572 -1.0215  0.4065 -0.7251
  632MOL0     H87172   5.486   7.051   0.352 -0.8857  1.3100 -1.0889
  632MOL0     H87173   5.323   6.985   0.329  2.4335 -0.8811 -1.6950
  632MOL0     H87174   5.197   7.265   0.631  3.8735  0.1003 -1.5217
  632MOL0     H87175   4.911   7.510   0.584 -0.4965  0.0601  1.2216
  632MOL0     H87176   5.066   7.554   0.639  1.9108 -1.9287  0.0463
  632MOL0     H87177   4.996   7.394   0.691  0.2702  1.8042  1.7461
  632MOL0     H87178   4.756   7.728   0.222 -4.8199 -1.9289 -4.5317
  632MOL0     H87179   4.678   7.914   0.087  0.1813  0.8774 -1.2056
  632MOL0     H87180   4.702   7.884  -0.242  0.6092  0.1161  1.7507
  632MOL0     H87181   4.610   8.012  -0.156  0.9344  0.3419  2.3904
  632MOL0     H87182   4.677   8.184  -0.287  2.5860 -0.3263  3.0551
  632MOL0     H87183   4.816   8.097  -0.350  0.6669  0.5589  2.5881
  632MOL0     H87184   4.679   7.969  -0.496  3.8625  3.2500 -2.2814
  632MOL0     H87185   4.661   8.123  -0.539  0.9745 -0.9709 -0.2559
  632MOL0     H87186   4.465   8.125  -0.370  0.8961  0.7361 -1.1841
  632MOL0     H87187   4.466   7.950  -0.399 -1.2524  0.2014  0.0582
  632MOL0     H87188   4.442   7.999  -0.654 -0.6069  2.2762 -1.2733
  632MOL0     H87189   4.304   8.026  -0.552 -1.1845  1.6367  1.0240
  632MOL0     H87190   4.412   8.173  -0.743 -0.6129  3.2746 -0.5038
  632MOL0     H87191   4.499   8.254  -0.605  0.5123 -0.2558  2.3621
  632MOL0     H87192   4.257   8.249  -0.500  2.1616 -1.7122 -0.7945
  632MOL0     H87193   4.196   8.181  -0.656 -0.6790  1.0388 -0.4559
  632MOL0     H87194   4.156   8.408  -0.661  0.4499 -0.2284  4.0737
  632MOL0     H87195   4.322   8.423  -0.726  1.0538  2.8905  1.5010
  632MOL0     H87196   5.030   7.890  -0.153  0.3975 -2.9688 -1.3583
  632MOL0     H87197   5.126   7.723  -0.004 -1.1467  0.9254 -2.2849
  632MOL0     H87198   5.119   7.394   0.157 -2.4371  0.0737  0.0675
  632MOL0     H87199   5.285   7.209   0.226 -2.9003  1.5348 -1.8560
  632MOL0     H87200   4.857   6.725   1.541  2.4572  0.0731 -1.3843
  632MOL0     H87201   4.773   6.943   1.661  0.3056 -1.4299 -2.9030
  632MOL0     H87202   4.642   7.159   1.992 -0.1106 -0.1025  0.8175
  632MOL0     H87203   4.532   7.317   2.122  0.4692 -2.1775 -1.3967
  632MOL0     H87204   4.490   7.635   2.313 -0.4689 -0.5104 -2.1376
  632MOL0     H87205   4.448   7.481   2.239 -1.2041  0.8221  0.4713
  632MOL0     H87206   4.435   7.526   2.492 -0.6791  1.7548 -2.4101
  632MOL0     H87207   4.619   7.511   2.494 -0.2755 -0.7682  1.7694
  632MOL0     H87208   4.454   7.306   2.380 -0.9352  1.3848  0.8195
  632MOL0     H87209   4.616   7.289   2.458 -2.3088 -4.8457 -1.7675
  632MOL0     H87210   4.400   7.198   2.580  3.0912 -1.9958 -2.3016
  632MOL0     H87211   4.349   7.360   2.607  1.0439  0.9408  2.0541
  632MOL0     H87212   4.650   7.382   2.890 -0.8748  2.3281  0.7951
  632MOL0     H87213   4.896   7.552   2.158 -1.5654  0.6895  2.2772
  632MOL0     H87214   5.121   7.297   2.063  3.6964 -0.0635 -4.0276
  632MOL0     H87215   5.070   7.362   1.902 -0.4000 -0.6921 -0.6538
  632MOL0     H87216   5.104   7.467   2.031  1.1971 -0.6046 -0.9064
  633MOL0     O87217   6.940   3.398   2.570  0.0457 -0.2964 -0.4795
  633MOL0     C87218   6.819   3.436   2.548 -0.0247 -0.2033 -0.2538
  633MOL0     O87219   6.706   3.361   2.558 -0.2023  0.6608  0.3941
  633MOL0     C87220   6.735   3.226   2.565 -0.4115  0.2711  0.0610
  633MOL0     C87221   6.707   3.149   2.685  0.3069 -0.1763  0.6418
  633MOL0     C87222   6.749   3.016   2.697  0.4025 -0.5565 -0.6242
  633MOL0     C87223   6.795   2.945   2.583 -0.8093 -0.3797 -0.1166
  633MOL0     O87224   6.815   2.811   2.575 -0.2041 -1.0845 -0.1471
  633MOL0     C87225   6.774   2.727   2.682  0.1652 -0.1522 -0.4184
  633MOL0     C87226   6.867   2.710   2.804 -0.6633  0.1756 -0.7958
  633MOL0     C87227   6.991   2.628   2.766 -0.7883  0.0868 -0.1489
  633MOL0     C87228   7.104   2.605   2.879 -0.6091  0.3208  0.6196
  633MOL0     C87229   7.185   2.477   2.856  0.4250  0.0526 -0.2662
  633MOL0     C87230   7.238   2.459   2.709 -0.1488 -0.3097  0.3903
  633MOL0     C87231   7.354   2.553   2.668 -0.1870 -0.7866  0.7171
  633MOL0     C87232   7.469   2.554   2.773 -1.2545 -0.4194 -0.8651
  633MOL0     N87233   7.545   2.425   2.791 -0.1305 -0.3525 -0.2529
  633MOL0     C87234   7.656   2.399   2.722 -0.7294  0.2389 -1.0200
  633MOL0     C87235   7.719   2.301   2.794  0.3431  0.0879 -0.6723
  633MOL0     C87236   7.859   2.242   2.763  0.5180  0.4838  0.0454
  633MOL0     C87237   7.970   2.286   2.857  0.2362  0.1836  0.1258
  633MOL0     C87238   8.015   2.430   2.816 -0.8778  0.0099  0.0793
  633MOL0     C87239   7.956   2.546   2.894 -0.0848  0.4219 -0.0996
  633MOL0     O87240   8.004   2.669   2.844  0.4846  0.6267 -0.0337
  633MOL0     C87241   8.078   2.750   2.922 -0.6905 -0.4833 -0.1695
  633MOL0     C87242   8.123   2.871   2.866 -0.9122 -0.1374 -0.5930
  633MOL0     C87243   8.216   2.959   2.920  0.4198 -0.0330  0.3171
  633MOL0     C87244   8.262   3.075   2.840  0.0816 -0.4329 -0.6470
  633MOL0     C87245   8.267   2.919   3.047  0.1583  0.9918 -0.4199
  633MOL0     C87246   8.376   2.998   3.115 -0.6658  0.2379  0.1599
  633MOL0     O87247   8.407   2.942   3.233  0.0584 -1.8931  0.1037
  633MOL0     C87248   8.513   2.992   3.308 -0.6061  0.3516  0.5779
  633MOL0     C87249   8.642   3.025   3.256 -0.5796  0.5980 -0.0963
  633MOL0     C87250   8.739   3.070   3.340  0.2898 -0.0368 -0.3340
  633MOL0     C87251   8.717   3.089   3.479  0.3108  0.3131  0.0946
  633MOL0     O87252   8.812   3.121   3.572 -0.1382 -0.0047 -0.0918
  633MOL0     C87253   8.954   3.136   3.548  0.4557 -0.3530  1.0538
  633MOL0     C87254   8.981   3.281   3.508 -0.4057  0.5867  0.2888
  633MOL0     C87255   9.133   3.305   3.540 -0.5846 -0.7146  0.1817
  633MOL0     C87256   9.239   3.225   3.453 -0.3304 -0.6963 -0.3320
  633MOL0     C87257   9.206   3.228   3.298  0.0250  0.2413  0.5187
  633MOL0     C87258   9.166   3.368   3.252 -0.3934  0.5009 -0.5738
  633MOL0     C87259   9.214   3.389   3.111  0.2002 -0.2116  0.0871
  633MOL0     C87260   9.199   3.542   3.082 -0.8730  0.3235  0.7654
  633MOL0    Cl87261   9.252   3.578   2.907 -0.4448 -0.4719 -0.4979
  633MOL0     C87262   8.590   3.057   3.530  0.4380 -0.4798 -0.2247
  633MOL0     C87263   8.486   3.009   3.446 -0.5754 -0.3290  0.4046
  633MOL0     O87264   8.438   3.096   3.055  0.1898 -0.3884  0.6253
  633MOL0     C87265   8.221   2.798   3.103 -0.4690  0.2538 -0.5802
  633MOL0     C87266   8.134   2.713   3.036 -0.6230  0.7869 -0.3963
  633MOL0     N87267   7.634   2.277   2.917 -0.7202 -0.6663  0.2959
  633MOL0     N87268   7.525   2.344   2.899 -0.2724 -0.6917  0.6754
  633MOL0     C87269   6.826   3.018   2.470  0.3247  0.2687  0.6850
  633MOL0     C87270   6.800   3.154   2.466  0.3130 -0.1403 -0.1355
  633MOL0     C87271   6.806   3.579   2.506 -0.1783 -0.5096  0.1735
  633MOL0     C87272   6.696   3.619   2.424 -0.1373 -0.9372  0.0256
  633MOL0     C87273   6.681   3.753   2.385 -0.5590  0.0345 -0.7752
  633MOL0     C87274   6.768   3.850   2.422 -0.1881  1.2486  0.3057
  633MOL0     O87275   6.751   3.980   2.373 -0.1124  0.4519  0.5000
  633MOL0     C87276   6.843   4.077   2.407 -0.8450  0.0308 -0.9279
  633MOL0     C87277   6.814   4.131   2.553  0.9555 -0.0874 -0.4591
  633MOL0     C87278   6.922   4.216   2.601  0.1429 -0.2800 -0.1787
  633MOL0     C87279   6.874   4.298   2.720  1.0490  0.1743  0.0675
  633MOL0     C87280   6.988   4.373   2.778 -0.1678 -0.7989  0.1186
  633MOL0     C87281   7.098   4.407   2.820  1.0882 -0.7157 -0.4733
  633MOL0     C87282   6.862   3.813   2.514 -0.0103  0.1530 -0.1164
  633MOL0     C87283   6.893   3.679   2.557  0.0241 -0.4194 -0.5067
  633MOL0     C87284   7.000   3.653   2.669 -0.0593 -0.1316  0.7327
  633MOL0     H87285   6.650   3.201   2.762  0.7162 -0.1512  0.9325
  633MOL0     H87286   6.738   2.950   2.783 -0.2165 -1.5169 -1.4175
  633MOL0     H87287   6.759   2.632   2.630  0.8708  0.0929 -1.0917
  633MOL0     H87288   6.678   2.765   2.720 -0.5256  1.8748 -3.7121
  633MOL0     H87289   6.899   2.805   2.847 -0.2261 -1.5583  3.1460
  633MOL0     H87290   6.809   2.661   2.883  1.1774 -1.7995 -0.5920
  633MOL0     H87291   6.956   2.531   2.729 -1.6264  0.5802 -0.6910
  633MOL0     H87292   7.044   2.677   2.683  0.8446 -0.3848  0.5810
  633MOL0     H87293   7.178   2.685   2.884  1.2755 -1.2008 -1.0492
  633MOL0     H87294   7.051   2.594   2.974 -1.9316  2.4490  0.1799
  633MOL0     H87295   7.117   2.392   2.872 -0.8601  1.0409 -0.3004
  633MOL0     H87296   7.268   2.453   2.923  1.7004 -0.4305 -1.9592
  633MOL0     H87297   7.266   2.354   2.695  0.4005  0.0194 -1.2657
  633MOL0     H87298   7.155   2.465   2.639  0.2311  0.8777  0.0116
  633MOL0     H87299   7.313   2.654   2.660  1.1283 -0.0998  2.1499
  633MOL0     H87300   7.388   2.523   2.569  0.7155  0.9387  0.4655
  633MOL0     H87301   7.534   2.638   2.747 -2.8843  2.0467  2.2496
  633MOL0     H87302   7.424   2.583   2.868 -1.3436 -0.5494 -0.8669
  633MOL0     H87303   7.702   2.437   2.631  1.2917 -2.7268 -1.3777
  633MOL0     H87304   7.872   2.257   2.656 -0.9723 -5.4744 -1.3822
  633MOL0     H87305   7.854   2.133   2.768 -1.6376  0.5986  3.2254
  633MOL0     H87306   7.944   2.279   2.963  1.1565  0.2497  0.3583
  633MOL0     H87307   8.057   2.227   2.827 -0.9361 -0.1595 -2.9970
  633MOL0     H87308   8.122   2.428   2.836 -0.6010  0.4652 -1.2135
  633MOL0     H87309   8.004   2.442   2.707  2.5556  0.1778 -0.3510
  633MOL0     H87310   7.846   2.542   2.886 -0.0094 -2.9062 -1.2312
  633MOL0     H87311   7.978   2.525   2.999 -0.6194 -1.8994 -0.3814
  633MOL0     H87312   8.087   2.888   2.765 -0.5734 -1.5406 -0.9751
  633MOL0     H87313   8.221   3.081   2.739 -0.6368  0.6477 -0.3156
  633MOL0     H87314   8.369   3.069   2.820  0.9616  1.3500  2.7720
  633MOL0     H87315   8.251   3.173   2.888  0.1235 -0.2760 -0.9554
  633MOL0     H87316   8.646   2.988   3.154  0.3096 -0.3022  0.2427
  633MOL0     H87317   8.841   3.079   3.303 -0.7304 -0.4195 -3.5587
  633MOL0     H87318   8.997   3.111   3.646 -0.9334  0.6094  1.9468
  633MOL0     H87319   8.992   3.061   3.478 -1.2283  1.6046 -2.1911
  633MOL0     H87320   8.962   3.306   3.404  1.9512 -1.1260 -0.6451
  633MOL0     H87321   8.924   3.352   3.569 -0.1370 -0.8105  2.2506
  633MOL0     H87322   9.154   3.290   3.647  2.0115 -1.1034 -0.3302
  633MOL0     H87323   9.150   3.412   3.520  0.5995 -0.9659 -0.2537
  633MOL0     H87324   9.254   3.120   3.482 -0.0115 -1.0408 -1.6874
  633MOL0     H87325   9.333   3.280   3.458 -3.1592  4.7453  0.3160
  633MOL0     H87326   9.295   3.199   3.240 -2.8288 -1.4210 -3.4875
  633MOL0     H87327   9.119   3.165   3.275 -1.2766  0.4839  4.1926
  633MOL0     H87328   9.208   3.450   3.311 -0.0911  0.8908 -1.3056
  633MOL0     H87329   9.058   3.384   3.261 -0.2822  0.6955  0.5088
  633MOL0     H87330   9.166   3.340   3.025  1.7253 -0.1230 -0.8624
  633MOL0     H87331   9.322   3.374   3.111  1.4057  5.6942  2.6344
  633MOL0     H87332   9.253   3.599   3.157 -1.5068 -0.5856  1.9457
  633MOL0     H87333   9.095   3.576   3.086 -0.3749  2.4449 -1.5981
  633MOL0     H87334   8.567   3.083   3.633  2.4203 -0.3519  0.2101
  633MOL0     H87335   8.388   2.987   3.488 -0.0663  0.8777  2.3481
  633MOL0     H87336   8.253   2.760   3.200  1.0741  1.6119 -0.5164
  633MOL0     H87337   8.131   2.619   3.091  0.7001  1.6992  1.3131
  633MOL0     H87338   6.875   2.956   2.395 -2.4189 -1.5009  0.2177
  633MOL0     H87339   6.811   3.201   2.369  0.5256 -1.3364 -0.7173
  633MOL0     H87340   6.629   3.546   2.380  0.0602 -2.2992  1.8739
  633MOL0     H87341   6.592   3.786   2.332 -2.3036 -0.2593  1.7881
  633MOL0     H87342   6.945   4.037   2.404 -1.3361 -1.2599 -0.7617
  633MOL0     H87343   6.851   4.159   2.336  1.9931  0.6011 -0.0780
  633MOL0     H87344   6.797   4.047   2.622  3.6207 -0.9380 -0.7446
  633MOL0     H87345   6.722   4.188   2.533  1.5839  0.3041 -2.4833
  633MOL0     H87346   6.996   4.143   2.636 -0.4298 -0.8361 -0.1027
  633MOL0     H87347   6.970   4.280   2.526  1.9672  0.6257  1.6537
  633MOL0     H87348   6.821   4.236   2.793 -1.0602  2.6938  0.8439
  633MOL0     H87349   6.786   4.357   2.692 -2.5093 -3.6887  1.9703
  633MOL0     H87350   7.187   4.448   2.863  0.7256 -1.1445  0.7341
  633MOL0     H87351   6.927   3.887   2.559 -1.9751  2.1695 -0.3660
  633MOL0     H87352   7.029   3.749   2.713 -0.8443  0.5441 -0.1873
  633MOL0     H87353   6.959   3.592   2.750  2.3922 -4.7482 -1.1030
  633MOL0     H87354   7.086   3.603   2.622  0.1696  0.9627 -0.0308
  634MOL0     O87355   4.243   9.515   4.980  0.0337  0.3493  0.1701
  634MOL0     C87356   4.350   9.486   5.032  0.8647 -0.3724  1.8819
  634MOL0     O87357   4.471   9.540   4.998  0.8330 -0.7318 -0.3725
  634MOL0     C87358   4.477   9.626   4.905  0.5116 -0.1381 -0.0287
  634MOL0     C87359   4.443   9.758   4.922 -0.4016  0.2040 -0.4274
  634MOL0     C87360   4.457   9.858   4.821 -0.6797  0.7950  0.0596
  634MOL0     C87361   4.506   9.820   4.689  0.3384  0.2070 -0.7511
  634MOL0     O87362   4.484   9.889   4.577 -0.2326  0.2785 -0.2593
  634MOL0     C87363   4.467  10.033   4.587  0.0578 -1.0571 -0.8128
  634MOL0     C87364   4.509  10.122   4.466 -0.5902  0.6133 -0.4585
  634MOL0     C87365   4.659  10.122   4.431 -0.8681 -0.0517 -0.0941
  634MOL0     C87366   4.718   9.984   4.383  0.2206  0.9614  0.7316
  634MOL0     C87367   4.856   9.985   4.325 -0.1680 -0.0642 -0.4856
  634MOL0     C87368   4.874   9.880   4.216 -0.8654  0.0783  0.1656
  634MOL0     C87369   5.025   9.856   4.181  0.0043  0.0861 -0.5645
  634MOL0     C87370   5.041   9.747   4.081  0.4583  0.2129  0.1462
  634MOL0     N87371   4.963   9.758   3.955 -0.0451  0.6360 -0.3544
  634MOL0     C87372   4.831   9.718   3.946 -0.3623 -0.0650  0.6831
  634MOL0     C87373   4.805   9.773   3.827  0.2774 -0.3945 -0.6853
  634MOL0     C87374   4.665   9.762   3.773 -0.7285  0.2687  0.2462
  634MOL0     C87375   4.655   9.621   3.713  0.1231  0.2391  0.7465
  634MOL0     C87376   4.535   9.609   3.618  0.6494  0.6998  0.0547
  634MOL0     C87377   4.574   9.585   3.464 -0.2518 -0.6785 -0.0140
  634MOL0     O87378   4.625   9.710   3.416 -0.1520  0.4307 -0.3477
  634MOL0     C87379   4.650   9.725   3.282  0.1558  1.2622 -0.7657
  634MOL0     C87380   4.668   9.851   3.233 -0.9883 -0.6419 -0.9803
  634MOL0     C87381   4.712   9.874   3.090 -0.1743 -0.1398 -0.0537
  634MOL0     C87382   4.759  10.009   3.041  1.4507 -0.6553 -0.4196
  634MOL0     C87383   4.711   9.762   3.005 -0.4848 -0.1565 -0.6796
  634MOL0     C87384   4.753   9.773   2.864  0.6445 -0.7296 -0.1763
  634MOL0     O87385   4.838   9.685   2.799 -0.3978  0.3280  0.0836
  634MOL0     C87386   4.953   9.637   2.869  0.1257  0.4279  1.1853
  634MOL0     C87387   4.993   9.505   2.849 -0.9640  1.0548  0.1489
  634MOL0     C87388   5.107   9.451   2.911  0.1499  0.3577 -0.3767
  634MOL0     C87389   5.181   9.529   3.001 -0.5389 -0.0424 -0.3657
  634MOL0     O87390   5.293   9.486   3.074  0.1718 -0.2747  0.8043
  634MOL0     C87391   5.300   9.342   3.108 -0.8320 -0.1760 -0.9747
  634MOL0     C87392   5.223   9.328   3.245 -0.0254 -0.1760 -0.3189
  634MOL0     C87393   5.284   9.415   3.360  0.1110  0.7159  0.2191
  634MOL0     C87394   5.214   9.380   3.492 -0.1465  0.0357  0.1027
  634MOL0     C87395   5.208   9.491   3.592  0.3244  0.6179  0.4414
  634MOL0     C87396   5.094   9.593   3.561  0.1275  1.0807  0.2617
  634MOL0     C87397   5.111   9.671   3.433 -0.1969  0.0012 -0.0899
  634MOL0     C87398   5.028   9.793   3.436  0.8319 -0.2497 -0.0137
  634MOL0    Cl87399   5.051   9.886   3.298 -0.0991 -0.1058 -0.0520
  634MOL0     C87400   5.132   9.657   3.037 -0.2057  0.6103 -0.0681
  634MOL0     C87401   5.026   9.706   2.970  0.0906 -0.7374  0.4517
  634MOL0     O87402   4.697   9.861   2.808 -0.1018 -0.1970  0.3975
  634MOL0     C87403   4.689   9.627   3.061 -0.0995 -1.0471  0.0411
  634MOL0     C87404   4.662   9.616   3.197 -0.2817 -0.8383 -0.2417
  634MOL0     N87405   4.908   9.842   3.772 -0.9603  0.8143 -0.4617
  634MOL0     N87406   5.009   9.824   3.854  0.1511 -0.6830 -0.3927
  634MOL0     C87407   4.557   9.684   4.680 -0.4889 -0.8322  0.1046
  634MOL0     C87408   4.540   9.591   4.782 -0.1071 -0.3770 -0.5363
  634MOL0     C87409   4.324   9.398   5.142 -1.4007 -0.4375 -0.1492
  634MOL0     C87410   4.198   9.364   5.191  0.0191 -0.2430 -0.5110
  634MOL0     C87411   4.172   9.278   5.300 -0.4703  1.0783 -0.0399
  634MOL0     C87412   4.273   9.202   5.359  0.7956  1.0424 -0.0150
  634MOL0     O87413   4.242   9.112   5.456  0.3858  0.2706 -0.8615
  634MOL0     C87414   4.340   9.019   5.507 -0.4051  0.4364 -0.3348
  634MOL0     C87415   4.275   8.900   5.581 -0.0807 -0.2380  0.0898
  634MOL0     C87416   4.150   8.850   5.503 -0.6406 -0.8050  0.4808
  634MOL0     C87417   4.113   8.705   5.556 -0.3237 -0.0043  0.2492
  634MOL0     C87418   4.106   8.699   5.694  0.8799  0.5195 -0.5589
  634MOL0     C87419   4.101   8.717   5.813 -0.0670 -0.3516 -0.4178
  634MOL0     C87420   4.405   9.233   5.316 -0.0765 -0.3184  0.5121
  634MOL0     C87421   4.431   9.331   5.211  0.5157 -0.3294 -0.4670
  634MOL0     C87422   4.585   9.358   5.180 -0.4253  0.3758 -1.3460
  634MOL0     H87423   4.401   9.795   5.015  0.9000  0.6754  0.0015
  634MOL0     H87424   4.429   9.957   4.854  0.7144  0.5301  2.2657
  634MOL0     H87425   4.544  10.060   4.659  2.1819 -1.0339 -2.9718
  634MOL0     H87426   4.362  10.052   4.612  0.8434  0.0317  1.9872
  634MOL0     H87427   4.446  10.088   4.384 -0.2045  1.3363 -1.0635
  634MOL0     H87428   4.499  10.223   4.506  2.3032 -0.3679  3.4018
  634MOL0     H87429   4.671  10.207   4.364 -0.0038 -0.6964 -0.7925
  634MOL0     H87430   4.697  10.158   4.527 -1.1924 -0.2617  0.1162
  634MOL0     H87431   4.715   9.911   4.465 -0.3569 -0.6737 -0.6901
  634MOL0     H87432   4.664   9.952   4.294 -0.4883 -1.4785  1.9737
  634MOL0     H87433   4.933   9.982   4.402 -0.9186 -0.8116  0.2502
  634MOL0     H87434   4.861  10.082   4.274 -2.1420  0.2776 -0.0897
  634MOL0     H87435   4.852   9.789   4.274  2.5916 -0.0163  1.5885
  634MOL0     H87436   4.807   9.907   4.134  0.3992  3.1795  0.0450
  634MOL0     H87437   5.088   9.828   4.266 -1.7141 -2.3942 -0.0161
  634MOL0     H87438   5.071   9.941   4.128  2.0141  0.4609  1.5918
  634MOL0     H87439   5.148   9.731   4.063  0.4728  0.0294  0.4021
  634MOL0     H87440   5.008   9.657   4.133  1.5536 -1.5997 -2.1350
  634MOL0     H87441   4.758   9.674   4.013  1.1744 -1.6203  1.4035
  634MOL0     H87442   4.658   9.837   3.694 -1.0257 -1.3340 -1.2941
  634MOL0     H87443   4.593   9.759   3.855 -0.2465 -1.6893  0.6330
  634MOL0     H87444   4.730   9.588   3.640  0.2230  0.7396  0.6215
  634MOL0     H87445   4.652   9.548   3.794 -1.8769 -2.1492 -1.2902
  634MOL0     H87446   4.467   9.529   3.646  1.2577  1.1151  3.0817
  634MOL0     H87447   4.479   9.703   3.616  0.4853  0.5871 -0.9457
  634MOL0     H87448   4.647   9.506   3.447 -0.4995 -0.3084 -3.4115
  634MOL0     H87449   4.483   9.552   3.414 -0.5547 -2.9163  1.8426
  634MOL0     H87450   4.652   9.931   3.304 -0.1330 -0.1322 -1.3516
  634MOL0     H87451   4.806  10.065   3.123 -2.5167 -0.2987  1.8564
  634MOL0     H87452   4.672  10.063   3.003 -1.5413 -1.4479  4.4221
  634MOL0     H87453   4.835   9.989   2.965 -0.5379 -2.2873 -2.1006
  634MOL0     H87454   4.954   9.433   2.778  0.8937 -1.3807  1.4436
  634MOL0     H87455   5.132   9.347   2.893  0.6950 -0.1360  2.6454
  634MOL0     H87456   5.254   9.277   3.034 -2.5477 -0.3613  0.1764
  634MOL0     H87457   5.402   9.303   3.110 -1.0980 -0.8825 -0.9665
  634MOL0     H87458   5.120   9.364   3.233  0.1508  1.5089  2.4307
  634MOL0     H87459   5.235   9.220   3.255  0.9734  0.0678  1.5257
  634MOL0     H87460   5.265   9.518   3.329 -0.1152  0.1352 -1.7484
  634MOL0     H87461   5.391   9.402   3.375 -0.0230  1.8798  2.5873
  634MOL0     H87462   5.256   9.285   3.524  0.7938  1.0400  2.0758
  634MOL0     H87463   5.111   9.355   3.465  0.2201  1.2938 -2.8618
  634MOL0     H87464   5.190   9.443   3.690  4.5719 -0.0416  1.1085
  634MOL0     H87465   5.305   9.542   3.592 -1.3129  3.9495 -0.8421
  634MOL0     H87466   5.084   9.651   3.653  0.6938  1.5990  0.0097
  634MOL0     H87467   5.003   9.535   3.547  1.2360 -0.5984 -0.1786
  634MOL0     H87468   5.080   9.615   3.345 -0.0838 -0.2200  0.0103
  634MOL0     H87469   5.208   9.720   3.418 -0.8804  0.8985 -1.9099
  634MOL0     H87470   5.043   9.841   3.533 -1.3762 -0.1324  0.3317
  634MOL0     H87471   4.921   9.770   3.435  0.5226  1.1421 -0.4261
  634MOL0     H87472   5.177   9.722   3.111  0.1595  2.1544 -1.5884
  634MOL0     H87473   5.004   9.812   2.970 -0.8668 -0.8657  2.9293
  634MOL0     H87474   4.687   9.544   2.990  0.2451 -1.9632  1.0817
  634MOL0     H87475   4.661   9.515   3.236  1.4114 -0.1283  1.7978
  634MOL0     H87476   4.582   9.646   4.581 -2.5988 -3.2164  0.3817
  634MOL0     H87477   4.574   9.490   4.762  0.0064 -0.2362 -1.0717
  634MOL0     H87478   4.119   9.411   5.133  1.1425  0.4777 -1.5171
  634MOL0     H87479   4.074   9.282   5.348 -0.3365 -1.4493  0.5576
  634MOL0     H87480   4.404   8.982   5.426 -1.5416 -0.1958 -0.9768
  634MOL0     H87481   4.404   9.075   5.576  1.4096  0.0510 -1.6374
  634MOL0     H87482   4.247   8.932   5.682 -0.6506 -3.4031  1.0499
  634MOL0     H87483   4.355   8.830   5.605 -2.3591 -2.7385  0.7848
  634MOL0     H87484   4.065   8.916   5.482 -0.8729 -2.2445 -4.5143
  634MOL0     H87485   4.194   8.840   5.403 -1.6600  4.0243 -0.7351
  634MOL0     H87486   4.198   8.649   5.518  1.7100  1.2062  2.7022
  634MOL0     H87487   4.014   8.691   5.511  0.2975 -0.7275 -0.9268
  634MOL0     H87488   4.090   8.758   5.911 -0.4201 -2.9405  0.7036
  634MOL0     H87489   4.492   9.194   5.367 -0.9683 -3.1212  0.0780
  634MOL0     H87490   4.621   9.460   5.194  1.0280 -0.4278  1.7877
  634MOL0     H87491   4.653   9.288   5.229 -1.6146 -0.0379 -0.2035
  634MOL0     H87492   4.588   9.337   5.073  0.6380 -3.4954 -0.7119
  635MOL0     O87493   9.941   9.038  11.280 -0.0618  0.0842 -0.0101
  635MOL0     C87494   9.970   9.121  11.368  0.2838 -0.1656 -0.2456
  635MOL0     O87495   9.984   9.255  11.349 -0.8242  0.7564  0.1942
  635MOL0     C87496   9.990   9.304  11.222 -0.3407  1.1832  0.1456
  635MOL0     C87497   9.910   9.415  11.201  0.1115 -0.6901  0.1340
  635MOL0     C87498   9.892   9.481  11.077  0.6173  0.3799  0.7348
  635MOL0     C87499   9.955   9.430  10.966 -0.0126 -0.1586 -0.0220
  635MOL0     O87500   9.940   9.490  10.841  0.1292 -0.3229  0.8658
  635MOL0     C87501   9.860   9.612  10.820  0.7746  0.0378 -0.2940
  635MOL0     C87502   9.826   9.645  10.674  0.1038  1.4127 -0.8550
  635MOL0     C87503   9.751   9.535  10.590 -0.2610 -0.7919  0.2595
  635MOL0     C87504   9.691   9.570  10.455  0.4373 -0.1576  0.2245
  635MOL0     C87505   9.785   9.638  10.356 -0.1396 -0.1367  0.1669
  635MOL0     C87506   9.716   9.689  10.224  0.6308 -0.2983 -0.4681
  635MOL0     C87507   9.813   9.705  10.103 -0.4109  0.5382 -0.7437
  635MOL0     C87508   9.745   9.714   9.970 -0.0639  0.6165  0.3583
  635MOL0     N87509   9.821   9.803   9.873  0.3409  0.6961 -0.2099
  635MOL0     C87510   9.769   9.879   9.782  0.4686  0.3526 -0.6954
  635MOL0     C87511   9.861   9.899   9.683  0.1305  0.0234 -0.6578
  635MOL0     C87512   9.858   9.986   9.566  0.3694 -0.2149  0.0605
  635MOL0     C87513   9.763  10.105   9.571  0.4517 -1.5703 -0.0630
  635MOL0     C87514   9.802  10.201   9.451  0.8860  0.0453 -0.4930
  635MOL0     C87515   9.702  10.299   9.391 -0.2747 -0.2980  0.4279
  635MOL0     O87516   9.592  10.217   9.343 -0.0580  0.0770 -0.8295
  635MOL0     C87517   9.498  10.288   9.268 -0.1077 -0.4426  1.0544
  635MOL0     C87518   9.508  10.420   9.228  0.3460 -0.6263  0.3283
  635MOL0     C87519   9.410  10.476   9.146  0.1751 -0.2970 -0.2994
  635MOL0     C87520   9.418  10.628   9.136 -0.0927  0.4089 -0.4200
  635MOL0     C87521   9.301  10.400   9.095 -0.0273  0.8087 -0.5005
  635MOL0     C87522   9.207  10.458   8.998  0.3458 -0.1803  0.7698
  635MOL0     O87523   9.248  10.565   8.920  0.0635 -0.2956  0.0319
  635MOL0     C87524   9.166  10.611   8.818  0.3492 -0.0965  0.5991
  635MOL0     C87525   9.158  10.750   8.790  0.4422 -0.3771 -0.5318
  635MOL0     C87526   9.084  10.815   8.689  1.0949 -0.0521  0.1095
  635MOL0     C87527   9.017  10.726   8.602 -0.2556 -1.6240  0.7966
  635MOL0     O87528   8.973  10.790   8.496  0.1369 -0.5501  0.0949
  635MOL0     C87529   8.836  10.748   8.456 -0.3613  0.2694  0.3511
  635MOL0     C87530   8.797  10.865   8.362 -0.0726 -1.1212  0.5780
  635MOL0     C87531   8.883  10.867   8.248  0.0363  0.9769  0.4094
  635MOL0     C87532   8.830  10.956   8.140 -0.3831  0.1618  0.4857
  635MOL0     C87533   8.917  10.955   8.021  0.2165 -0.6646  0.6909
  635MOL0     C87534   8.885  11.072   7.929 -1.1880  0.9007 -0.2477
  635MOL0     C87535   8.932  11.056   7.781 -0.0567 -0.6420  0.0424
  635MOL0     C87536   8.881  10.940   7.695 -0.4158  0.4246 -0.1326
  635MOL0    Cl87537   8.709  10.925   7.717 -0.0992  0.2117 -0.3752
  635MOL0     C87538   9.020  10.587   8.623 -0.5489  0.0854 -0.4760
  635MOL0     C87539   9.097  10.527   8.732 -0.1891 -0.4247  0.7684
  635MOL0     O87540   9.090  10.417   8.996  0.4779  0.4520  0.0044
  635MOL0     C87541   9.297  10.270   9.133  0.0200 -0.4170 -0.3442
  635MOL0     C87542   9.387  10.217   9.224 -0.2383  0.5066 -0.2269
  635MOL0     N87543   9.974   9.827   9.726  0.6547  0.1326  0.3232
  635MOL0     N87544   9.948   9.768   9.836  0.6710  0.4279 -0.1887
  635MOL0     C87545  10.031   9.307  10.977  0.5295  0.8075 -0.6972
  635MOL0     C87546  10.057   9.250  11.105 -0.5606  0.1331  0.0646
  635MOL0     C87547   9.960   9.084  11.508  0.1311  0.9950  0.2784
  635MOL0     C87548   9.926   9.187  11.613 -0.6899  0.1265  0.5388
  635MOL0     C87549   9.905   9.137  11.743  0.7195 -0.2709  0.6678
  635MOL0     C87550   9.911   9.005  11.768 -1.1229 -0.5102 -0.3615
  635MOL0     O87551   9.907   8.967  11.895 -0.6595  0.0160  0.3238
  635MOL0     C87552   9.803   8.880  11.929 -0.6671  0.3980  0.5529
  635MOL0     C87553   9.742   8.916  12.065 -0.4073  1.7247  0.1516
  635MOL0     C87554   9.704   9.063  12.082 -0.4165 -0.0765  0.4996
  635MOL0     C87555   9.645   9.094  12.225  0.3948  0.1137  0.1614
  635MOL0     C87556   9.558   9.217  12.224  0.2277  0.3927  0.4200
  635MOL0     C87557   9.482   9.313  12.223 -0.2699  0.2425 -0.0328
  635MOL0     C87558   9.950   8.915  11.676 -1.0002  0.0707  0.0700
  635MOL0     C87559   9.981   8.949  11.544 -0.0228 -0.0133  0.1200
  635MOL0     C87560  10.038   8.842  11.457 -0.5355 -0.0473 -0.4669
  635MOL0     H87561   9.864   9.452  11.292  0.5343 -2.5082  1.1422
  635MOL0     H87562   9.820   9.562  11.076 -0.5651 -0.6202  1.3644
  635MOL0     H87563   9.920   9.695  10.859  1.9311 -1.3567  1.0260
  635MOL0     H87564   9.767   9.619  10.877 -0.0781  0.3449 -1.6625
  635MOL0     H87565   9.768   9.738  10.674 -2.7027 -0.2360 -0.8913
  635MOL0     H87566   9.926   9.650  10.630  0.2091 -2.6919 -1.4336
  635MOL0     H87567   9.834   9.470  10.560  0.1916  0.0796 -0.4172
  635MOL0     H87568   9.679   9.483  10.654 -0.5977 -0.6302  0.0150
  635MOL0     H87569   9.642   9.487  10.404 -2.9218  3.3231 -2.8716
  635MOL0     H87570   9.607   9.632  10.488 -0.6044 -1.4608  0.0982
  635MOL0     H87571   9.851   9.554  10.333 -1.4787 -1.4395  0.9111
  635MOL0     H87572   9.847   9.713  10.407 -0.2369  1.0949 -1.4478
  635MOL0     H87573   9.632   9.622  10.204 -0.1370  0.0048  1.5187
  635MOL0     H87574   9.661   9.780  10.251  1.5791  0.9385 -2.4655
  635MOL0     H87575   9.882   9.620  10.094 -0.5947  0.5176 -2.3995
  635MOL0     H87576   9.878   9.789  10.128 -2.2205  0.5653  5.1646
  635MOL0     H87577   9.727   9.615   9.927  3.9651  0.6948 -2.0962
  635MOL0     H87578   9.646   9.760   9.981 -1.8556 -2.5923 -0.9754
  635MOL0     H87579   9.664   9.908   9.779 -0.5041 -2.7249  0.1919
  635MOL0     H87580   9.841   9.924   9.477  2.3353 -2.0223  0.8657
  635MOL0     H87581   9.961  10.018   9.549 -0.0704 -0.1465 -3.0798
  635MOL0     H87582   9.660  10.068   9.568 -0.1641 -0.1456  2.0468
  635MOL0     H87583   9.785  10.156   9.665  4.4803  1.5869 -2.3834
  635MOL0     H87584   9.893  10.255   9.479  1.1708 -0.4304 -0.4969
  635MOL0     H87585   9.832  10.138   9.368  1.0023  1.1079 -1.2775
  635MOL0     H87586   9.682  10.367   9.474  3.6469  0.8312  0.6589
  635MOL0     H87587   9.750  10.356   9.312  0.3337  2.8554  2.8539
  635MOL0     H87588   9.589  10.485   9.260  0.6141 -1.8549  2.2459
  635MOL0     H87589   9.467  10.667   9.047 -0.9794  1.2826 -0.5421
  635MOL0     H87590   9.460  10.668   9.229 -3.7393  0.3314  1.4463
  635MOL0     H87591   9.315  10.664   9.130 -1.3104 -2.6149  0.2433
  635MOL0     H87592   9.227  10.809   8.850  1.0539 -2.7099  1.1928
  635MOL0     H87593   9.093  10.922   8.678  0.4582 -0.0241 -0.1732
  635MOL0     H87594   8.854  10.651   8.410  0.9722  0.7723 -0.2618
  635MOL0     H87595   8.769  10.744   8.542 -0.1812 -1.8720  0.4474
  635MOL0     H87596   8.693  10.845   8.334  0.1315 -0.5246 -0.6426
  635MOL0     H87597   8.805  10.958   8.420 -0.1198 -0.5107 -0.3853
  635MOL0     H87598   8.894  10.764   8.213  1.9967  1.2015  0.2244
  635MOL0     H87599   8.983  10.898   8.283  0.5128  1.3085 -1.1623
  635MOL0     H87600   8.828  11.059   8.176 -0.7415  0.4587 -0.3704
  635MOL0     H87601   8.734  10.910   8.116 -0.9469 -0.0856  2.9480
  635MOL0     H87602   9.023  10.960   8.049  0.4114  0.4268 -0.1786
  635MOL0     H87603   8.905  10.857   7.973  2.0035  0.8421 -3.2393
  635MOL0     H87604   8.929  11.163   7.971  1.6447 -0.2384 -0.4891
  635MOL0     H87605   8.777  11.084   7.938 -1.6309 -1.1609 -2.0732
  635MOL0     H87606   9.041  11.065   7.773 -0.0515 -0.3098  0.4226
  635MOL0     H87607   8.897  11.145   7.726 -1.9101 -1.3129  0.0654
  635MOL0     H87608   8.916  10.845   7.735 -4.3019 -1.4106 -0.5784
  635MOL0     H87609   8.917  10.959   7.594 -1.3475  3.6274  0.0309
  635MOL0     H87610   8.985  10.514   8.551  3.5267 -1.7782 -0.8309
  635MOL0     H87611   9.104  10.419   8.734 -1.0891 -0.5297 -0.5508
  635MOL0     H87612   9.219  10.201   9.103 -0.0949 -1.8256  2.8713
  635MOL0     H87613   9.379  10.118   9.266  5.4152  0.8992  2.8232
  635MOL0     H87614  10.066   9.247  10.894  0.4495 -5.9037  3.3021
  635MOL0     H87615  10.127   9.169  11.119  2.8548  2.7886 -0.3158
  635MOL0     H87616   9.913   9.294  11.606  1.5494  0.5103  1.1960
  635MOL0     H87617   9.887   9.205  11.826  0.6442  0.2441  0.2401
  635MOL0     H87618   9.724   8.884  11.853 -0.0373  1.7350 -0.0513
  635MOL0     H87619   9.848   8.781  11.938  0.2733  0.5960 -1.4507
  635MOL0     H87620   9.808   8.881  12.146 -0.3245  3.3054  0.8060
  635MOL0     H87621   9.654   8.855  12.086  2.1265 -2.2220  0.4268
  635MOL0     H87622   9.787   9.130  12.058 -0.4855 -0.5927 -1.2901
  635MOL0     H87623   9.618   9.093  12.020  0.4007 -1.6484 -1.4952
  635MOL0     H87624   9.725   9.107  12.300 -0.0585 -1.0879  0.8751
  635MOL0     H87625   9.585   9.013  12.268  3.4539 -2.7677 -0.5339
  635MOL0     H87626   9.427   9.404  12.213  2.2304  1.9840  0.9299
  635MOL0     H87627   9.955   8.812  11.711  2.1374 -0.3818 -1.3858
  635MOL0     H87628   9.967   8.814  11.378 -1.0595 -2.1261  0.6691
  635MOL0     H87629  10.121   8.891  11.406  0.5013 -0.4929  0.7538
  635MOL0     H87630  10.065   8.748  11.505 -0.2678  1.1441  1.8440
  636MOL0     O87631   1.691   6.881   6.259 -1.1492 -0.2835  0.1203
  636MOL0     C87632   1.597   6.822   6.308 -0.4933 -0.1736  0.5976
  636MOL0     O87633   1.570   6.799   6.443  0.3284 -0.0007 -0.9718
  636MOL0     C87634   1.668   6.846   6.532  0.0888 -0.0691  0.1995
  636MOL0     C87635   1.632   6.933   6.636  0.4914 -0.3501 -0.0612
  636MOL0     C87636   1.730   7.006   6.711  0.6072 -0.7396  0.1950
  636MOL0     C87637   1.866   6.980   6.694  0.1073  0.2084  0.0370
  636MOL0     O87638   1.973   7.022   6.772  0.7928 -0.1528 -0.3620
  636MOL0     C87639   1.942   7.099   6.890  0.2124  0.6094  0.4839
  636MOL0     C87640   2.062   7.100   6.981  0.2162  0.1594  0.0361
  636MOL0     C87641   2.047   7.209   7.094 -0.2430 -0.8382  0.4158
  636MOL0     C87642   1.921   7.185   7.185 -0.7740  0.1780 -0.6430
  636MOL0     C87643   1.922   7.283   7.306  0.4248  0.8319 -0.0721
  636MOL0     C87644   1.912   7.429   7.278 -0.0314  0.0044  0.0970
  636MOL0     C87645   1.855   7.530   7.372  1.4035  0.1618  0.2071
  636MOL0     C87646   1.709   7.527   7.370  0.1071  0.2922  0.1506
  636MOL0     N87647   1.666   7.623   7.471  0.6794  0.3154 -0.5576
  636MOL0     C87648   1.665   7.622   7.612  0.0866  0.7464 -0.2860
  636MOL0     C87649   1.595   7.732   7.652 -0.2602 -0.0292 -0.0022
  636MOL0     C87650   1.559   7.783   7.792 -0.7451 -0.5767  0.0750
  636MOL0     C87651   1.575   7.935   7.812 -0.0410 -0.8513  0.6919
  636MOL0     C87652   1.493   7.968   7.938  0.5891  0.9227  0.2381
  636MOL0     C87653   1.568   8.069   8.024  0.2829 -0.2800 -0.2367
  636MOL0     O87654   1.524   8.091   8.161 -0.3229 -0.3705 -0.0688
  636MOL0     C87655   1.581   8.190   8.233 -0.6475  0.6198 -0.9463
  636MOL0     C87656   1.540   8.216   8.369 -0.1378  1.1123 -0.1229
  636MOL0     C87657   1.600   8.316   8.447  0.1437 -1.0112  1.0660
  636MOL0     C87658   1.540   8.321   8.587 -0.6681 -0.5405 -0.3875
  636MOL0     C87659   1.706   8.399   8.392 -0.0051  0.5842 -0.0455
  636MOL0     C87660   1.772   8.518   8.461  0.8586  0.3636 -0.4542
  636MOL0     O87661   1.836   8.607   8.389  0.5093 -0.1583  0.3336
  636MOL0     C87662   1.918   8.692   8.456  0.6152  0.3513  0.9311
  636MOL0     C87663   2.052   8.646   8.472 -0.0224  1.2374  0.0718
  636MOL0     C87664   2.147   8.728   8.540  0.3628 -0.0571 -0.0797
  636MOL0     C87665   2.112   8.862   8.566  0.3382 -0.8388 -0.0996
  636MOL0     O87666   2.186   8.941   8.639 -0.2140  0.2555 -0.0294
  636MOL0     C87667   2.305   8.971   8.570 -0.5987  0.1274  0.1416
  636MOL0     C87668   2.381   9.066   8.658 -0.3676  0.0042  0.7236
  636MOL0     C87669   2.396   9.023   8.808 -0.4182 -0.1625 -0.0666
  636MOL0     C87670   2.548   9.042   8.849  1.0178 -0.8630 -0.3728
  636MOL0     C87671   2.567   8.982   8.988 -0.6973  0.3466  0.5236
  636MOL0     C87672   2.719   8.984   9.026  0.3086  0.0413 -1.1963
  636MOL0     C87673   2.754   8.876   9.135  0.0753 -0.3670  0.1113
  636MOL0     C87674   2.904   8.861   9.158 -0.2275 -0.1921  0.1266
  636MOL0    Cl87675   2.958   9.012   9.229 -0.6176  0.1227 -0.7334
  636MOL0     C87676   1.982   8.911   8.519  0.4330  0.1069  0.1926
  636MOL0     C87677   1.882   8.825   8.475 -0.6442 -0.4148  0.5389
  636MOL0     O87678   1.773   8.508   8.581 -0.2284 -0.4914 -0.0067
  636MOL0     C87679   1.749   8.369   8.259  0.2806  0.0907  0.5324
  636MOL0     C87680   1.687   8.268   8.188  0.0558  0.0181  0.8646
  636MOL0     N87681   1.574   7.812   7.540 -0.0199 -0.0768  0.2102
  636MOL0     N87682   1.616   7.748   7.432  0.2546 -0.5076 -0.2847
  636MOL0     C87683   1.899   6.894   6.587 -0.2437  0.7871  0.0644
  636MOL0     C87684   1.801   6.821   6.514 -0.6344 -0.1608 -0.3331
  636MOL0     C87685   1.513   6.752   6.207  1.2598  0.1561 -0.0019
  636MOL0     C87686   1.553   6.624   6.159 -0.4158 -0.0046 -0.8987
  636MOL0     C87687   1.483   6.549   6.072  0.2831  0.8690 -0.5139
  636MOL0     C87688   1.353   6.590   6.034  0.1735  0.4392  0.3685
  636MOL0     O87689   1.264   6.516   5.965  0.2443 -0.4062  0.4983
  636MOL0     C87690   1.224   6.403   6.047  0.0003  0.8409 -0.7621
  636MOL0     C87691   1.089   6.448   6.115 -0.5365  0.4583  0.5663
  636MOL0     C87692   0.988   6.511   6.013  0.0907  0.3224  0.2903
  636MOL0     C87693   0.844   6.530   6.078  0.4938  0.5212 -0.7354
  636MOL0     C87694   0.768   6.407   6.049 -1.5388 -0.6447  0.2299
  636MOL0     C87695   0.687   6.322   6.033  0.4476  0.3459 -0.3659
  636MOL0     C87696   1.313   6.724   6.072 -0.2483 -0.6352  0.3832
  636MOL0     C87697   1.388   6.805   6.154 -0.7534 -0.7934  0.2562
  636MOL0     C87698   1.335   6.946   6.190 -0.7023 -0.1663  0.2694
  636MOL0     H87699   1.527   6.950   6.658  0.6289  0.3928  0.0750
  636MOL0     H87700   1.696   7.078   6.784  0.0687  0.0205 -0.7824
  636MOL0     H87701   1.856   7.049   6.936  0.3297 -0.9136 -0.8718
  636MOL0     H87702   1.912   7.201   6.865  1.5691  1.1726  1.0320
  636MOL0     H87703   2.076   7.000   7.022  3.0777  0.3879 -0.1626
  636MOL0     H87704   2.156   7.128   6.931  2.6980  0.3970  4.3693
  636MOL0     H87705   2.140   7.207   7.153 -0.1851 -0.5569  0.3344
  636MOL0     H87706   2.032   7.304   7.042 -0.4718 -0.7444  0.6506
  636MOL0     H87707   1.828   7.197   7.129 -1.7050 -2.2950  0.2351
  636MOL0     H87708   1.912   7.088   7.236 -0.3267  0.5955  0.2586
  636MOL0     H87709   2.013   7.265   7.364  0.8292  3.3919  0.2044
  636MOL0     H87710   1.830   7.259   7.359 -0.6293  2.3919 -1.1334
  636MOL0     H87711   2.014   7.466   7.271 -0.4528  1.1030 -0.4875
  636MOL0     H87712   1.872   7.441   7.177  2.8204 -0.1510 -1.1369
  636MOL0     H87713   1.872   7.631   7.336 -1.8971  0.8149  0.2062
  636MOL0     H87714   1.899   7.518   7.472 -0.1995  0.6495  1.0160
  636MOL0     H87715   1.684   7.551   7.267  1.0511  0.9552  0.0667
  636MOL0     H87716   1.661   7.432   7.394  1.2276  0.0537  1.6141
  636MOL0     H87717   1.699   7.538   7.672  0.6667 -0.4177 -2.1489
  636MOL0     H87718   1.626   7.739   7.866  1.1140  1.0906 -0.5003
  636MOL0     H87719   1.456   7.759   7.819 -1.6054  2.5572  0.0125
  636MOL0     H87720   1.680   7.962   7.823 -0.2126 -0.0005  0.2711
  636MOL0     H87721   1.541   7.991   7.724  0.8833 -0.5051  0.5529
  636MOL0     H87722   1.394   7.999   7.901  0.0757  1.2938  1.8199
  636MOL0     H87723   1.475   7.874   7.991  1.9638  1.0981  1.0612
  636MOL0     H87724   1.672   8.033   8.028  0.6045  0.4172 -1.7708
  636MOL0     H87725   1.559   8.166   7.975  3.7099 -1.2213 -3.2369
  636MOL0     H87726   1.454   8.157   8.400 -2.1111  2.1651 -3.1013
  636MOL0     H87727   1.607   8.351   8.668  1.4156  0.4535 -2.3506
  636MOL0     H87728   1.508   8.220   8.614 -0.5160 -0.8084 -1.1743
  636MOL0     H87729   1.461   8.394   8.605  1.4171  1.5248  0.8270
  636MOL0     H87730   2.072   8.545   8.439 -3.0027  0.6850 -0.2888
  636MOL0     H87731   2.240   8.676   8.558 -0.7109 -1.4050  1.9119
  636MOL0     H87732   2.361   8.880   8.546 -1.8672 -0.4720 -0.6545
  636MOL0     H87733   2.282   9.028   8.479  1.6964 -0.5861 -0.9630
  636MOL0     H87734   2.476   9.088   8.609 -1.1990 -3.1854 -2.8032
  636MOL0     H87735   2.332   9.163   8.653  1.6526  1.0458 -0.0445
  636MOL0     H87736   2.362   8.920   8.813  1.6037 -0.8985 -0.5681
  636MOL0     H87737   2.326   9.083   8.868 -1.8193 -2.1537  0.3864
  636MOL0     H87738   2.574   9.148   8.848  0.9367 -0.6060  3.9874
  636MOL0     H87739   2.603   8.981   8.777  0.2800  1.2051 -2.8227
  636MOL0     H87740   2.516   9.035   9.068 -0.4354  0.9373  0.3013
  636MOL0     H87741   2.526   8.880   8.988  1.4532 -0.5776  1.0666
  636MOL0     H87742   2.754   9.081   9.064 -0.6671  0.4781 -1.3897
  636MOL0     H87743   2.775   8.965   8.935  1.8285  1.4408 -0.6059
  636MOL0     H87744   2.706   8.780   9.113  0.2759 -0.2957 -0.6817
  636MOL0     H87745   2.712   8.901   9.233 -2.3279 -0.2625 -0.8655
  636MOL0     H87746   2.939   8.861   9.054 -2.4188 -1.5525 -0.6815
  636MOL0     H87747   2.935   8.769   9.208 -1.7937  0.1234  1.7604
  636MOL0     H87748   1.956   9.008   8.560 -1.1671 -0.0366 -0.3891
  636MOL0     H87749   1.784   8.866   8.452 -1.4645 -0.8846  2.8708
  636MOL0     H87750   1.829   8.418   8.205  1.0527 -1.0774  0.5614
  636MOL0     H87751   1.739   8.246   8.096 -1.1917  1.3856 -0.1986
  636MOL0     H87752   2.007   6.885   6.574 -0.3578 -0.2489 -0.2306
  636MOL0     H87753   1.828   6.774   6.419  2.1697  2.1403 -0.8179
  636MOL0     H87754   1.646   6.582   6.196 -2.5633 -3.5000  1.0635
  636MOL0     H87755   1.522   6.454   6.036  1.3485  1.4733 -1.0126
  636MOL0     H87756   1.195   6.316   5.988  1.4017 -1.1882  1.4008
  636MOL0     H87757   1.283   6.357   6.126 -1.5377 -0.9370 -0.5842
  636MOL0     H87758   1.120   6.518   6.193  2.3607 -1.1577  0.9932
  636MOL0     H87759   1.045   6.361   6.166 -0.3194 -2.5033 -3.7288
  636MOL0     H87760   1.037   6.605   5.984  2.2093 -1.1832 -1.3914
  636MOL0     H87761   0.993   6.438   5.931  0.9890  0.8345 -0.1343
  636MOL0     H87762   0.778   6.611   6.046 -4.7544 -3.0993 -0.3735
  636MOL0     H87763   0.853   6.544   6.186  0.6025  4.2918 -1.0867
  636MOL0     H87764   0.609   6.249   6.034 -0.6641  1.4683 -1.5375
  636MOL0     H87765   1.217   6.757   6.033 -0.0876 -1.0423 -0.3566
  636MOL0     H87766   1.410   7.019   6.221  1.2999 -1.7928 -0.5418
  636MOL0     H87767   1.287   6.985   6.099 -2.9029 -3.9512 -0.4192
  636MOL0     H87768   1.260   6.929   6.268  1.2732 -2.2594  1.8338
  637MOL0     O87769   4.101   1.070  10.714 -0.3361  0.3694  0.6103
  637MOL0     C87770   4.035   1.126  10.624 -0.2514  0.0619 -1.4831
  637MOL0     O87771   3.960   1.064  10.530  0.5556  0.5248 -0.0647
  637MOL0     C87772   3.962   0.922  10.527 -0.3148 -0.1913  0.1925
  637MOL0     C87773   3.927   0.837  10.632 -0.6293 -0.2577  0.7957
  637MOL0     C87774   3.909   0.700  10.609 -0.7714  0.7192 -0.1828
  637MOL0     C87775   3.929   0.636  10.489  0.1334 -0.6113 -0.6559
  637MOL0     O87776   3.911   0.500  10.458  0.2413 -0.3772  0.0035
  637MOL0     C87777   3.824   0.430  10.540 -0.3425  0.0998  0.0108
  637MOL0     C87778   3.790   0.294  10.480  0.0534  0.3039 -0.0749
  637MOL0     C87779   3.908   0.202  10.442 -0.4292 -0.0630 -0.4438
  637MOL0     C87780   3.954   0.211  10.295  0.6788 -0.1233  0.5112
  637MOL0     C87781   4.071   0.114  10.268  1.0632  0.2584  0.0077
  637MOL0     C87782   4.193   0.148  10.357 -0.1235 -0.1357  0.3650
  637MOL0     C87783   4.326   0.150  10.287 -0.1133 -0.6199  1.1493
  637MOL0     C87784   4.335   0.287  10.205  0.3331  0.4630 -0.5174
  637MOL0     N87785   4.313   0.268  10.058 -0.0017  0.7283 -0.1509
  637MOL0     C87786   4.228   0.344  10.001  1.0240 -0.8016  0.6214
  637MOL0     C87787   4.209   0.294   9.875  0.0956  0.6108 -0.6140
  637MOL0     C87788   4.124   0.336   9.767  0.9060  0.8455 -0.8358
  637MOL0     C87789   3.994   0.253   9.739 -1.1114  0.0816 -0.3721
  637MOL0     C87790   3.878   0.240   9.841 -0.2410  0.0251  0.9922
  637MOL0     C87791   3.807   0.367   9.902  0.0521  0.3294 -0.5468
  637MOL0     O87792   3.891   0.433  10.001  0.6382  0.0752 -0.4912
  637MOL0     C87793   3.849   0.554  10.044  0.0809 -0.0171 -0.7121
  637MOL0     C87794   3.788   0.571  10.166  0.4265 -0.0096 -1.3070
  637MOL0     C87795   3.727   0.692  10.203  0.0168 -1.2001 -0.3721
  637MOL0     C87796   3.658   0.694  10.339  0.3270 -0.5703  0.5114
  637MOL0     C87797   3.724   0.802  10.116  0.0940 -0.0885  0.6954
  637MOL0     C87798   3.671   0.928  10.144  0.6121 -0.1706  0.9538
  637MOL0     O87799   3.576   0.928  10.238  0.3059 -0.9948  0.8224
  637MOL0     C87800   3.529   1.053  10.290  0.3365 -0.1047 -0.9188
  637MOL0     C87801   3.403   1.049  10.354 -0.3125 -0.5640  0.2139
  637MOL0     C87802   3.341   1.160  10.418  0.2300  0.0534 -0.0710
  637MOL0     C87803   3.402   1.289  10.404 -0.1875 -0.6801 -0.3663
  637MOL0     O87804   3.352   1.411  10.458 -0.4761  0.2981  0.6953
  637MOL0     C87805   3.225   1.413  10.512  0.6481 -0.2473  0.7752
  637MOL0     C87806   3.188   1.558  10.543  0.2790 -0.0657  0.3631
  637MOL0     C87807   3.163   1.633  10.415  0.0624  0.1593 -0.0762
  637MOL0     C87808   3.118   1.774  10.449  0.1552  0.1622  0.6278
  637MOL0     C87809   3.059   1.822  10.312 -0.8893  0.4206 -0.1065
  637MOL0     C87810   3.034   1.979  10.311  0.3536  0.2418 -0.5357
  637MOL0     C87811   2.970   2.020  10.180  0.3405 -0.2185 -0.3387
  637MOL0     C87812   2.976   2.172  10.171  0.3870  0.3431 -0.2259
  637MOL0    Cl87813   3.137   2.237  10.123  0.0871 -0.0050  0.4265
  637MOL0     C87814   3.524   1.294  10.344  0.0941 -1.0491  0.0458
  637MOL0     C87815   3.592   1.189  10.288 -0.1798  0.1447  0.1166
  637MOL0     O87816   3.731   1.028  10.100 -0.2313  0.7656 -0.1372
  637MOL0     C87817   3.778   0.786   9.984  0.0035  0.7394  0.1526
  637MOL0     C87818   3.837   0.660   9.947  0.3144 -1.0921  0.6340
  637MOL0     N87819   4.294   0.188   9.864  0.5409 -0.6326 -0.0921
  637MOL0     N87820   4.362   0.173   9.968  0.2029  0.0345  0.8379
  637MOL0     C87821   3.990   0.721  10.393  0.0862  0.1724  0.5918
  637MOL0     C87822   4.007   0.856  10.410  0.2294  0.1542  0.9673
  637MOL0     C87823   4.027   1.280  10.624  1.3422  1.0766  0.8823
  637MOL0     C87824   3.970   1.342  10.504  0.3874  0.5995 -0.2113
  637MOL0     C87825   3.954   1.486  10.494  0.6776  1.5541  0.0680
  637MOL0     C87826   3.978   1.570  10.602 -0.6602  0.0563  1.0757
  637MOL0     O87827   3.943   1.701  10.573 -0.7488 -0.1363  0.1232
  637MOL0     C87828   3.972   1.803  10.673  0.6548 -0.6289 -0.2498
  637MOL0     C87829   3.914   1.935  10.632  0.2132 -0.1137  0.5485
  637MOL0     C87830   3.923   2.028  10.750 -0.0770  0.8578  0.2331
  637MOL0     C87831   3.853   2.162  10.712 -0.6324 -0.9014 -0.6705
  637MOL0     C87832   3.930   2.280  10.739  0.2098 -0.0463  0.5365
  637MOL0     C87833   3.990   2.378  10.777  0.0988 -0.6660  0.3647
  637MOL0     C87834   4.040   1.517  10.712  0.3464 -0.1409 -0.0910
  637MOL0     C87835   4.066   1.377  10.722  0.7897 -0.3777  0.0121
  637MOL0     C87836   4.119   1.336  10.858  0.6497 -0.0179  0.0697
  637MOL0     H87837   3.900   0.884  10.726 -0.2650 -1.1761  1.3763
  637MOL0     H87838   3.877   0.637  10.691  2.3389 -0.1665  0.5004
  637MOL0     H87839   3.732   0.485  10.559 -0.0944  0.5765 -0.1455
  637MOL0     H87840   3.872   0.387  10.629  3.0627 -0.8725 -2.0870
  637MOL0     H87841   3.740   0.243  10.563 -2.7263 -0.3372 -1.9817
  637MOL0     H87842   3.723   0.299  10.393 -1.9716 -1.0559  1.3225
  637MOL0     H87843   3.991   0.215  10.512 -3.3125  2.5903  2.8231
  637MOL0     H87844   3.861   0.104  10.457 -0.0715  0.0980  2.0898
  637MOL0     H87845   3.865   0.189  10.235 -0.2602  2.4317  0.8457
  637MOL0     H87846   3.969   0.315  10.267  2.1376 -1.2681 -3.6820
  637MOL0     H87847   4.105   0.119  10.164  1.6028  0.4140  0.1894
  637MOL0     H87848   4.042   0.012  10.298  1.5792 -0.2189 -1.0410
  637MOL0     H87849   4.193   0.248  10.401  0.4206  1.4390 -2.9216
  637MOL0     H87850   4.197   0.077  10.440  1.6078 -1.5985 -0.8866
  637MOL0     H87851   4.343   0.057  10.232 -2.8744  0.0414 -1.0096
  637MOL0     H87852   4.408   0.147  10.360  0.7734 -0.5069  0.1829
  637MOL0     H87853   4.262   0.363  10.236  0.8570 -0.5946  3.9739
  637MOL0     H87854   4.436   0.327  10.212  0.2959  0.6442 -0.9832
  637MOL0     H87855   4.165   0.422  10.042  0.3388 -1.9190  1.7493
  637MOL0     H87856   4.185   0.337   9.677  0.9505  0.8567 -0.8059
  637MOL0     H87857   4.102   0.439   9.797 -3.8610 -0.9294  3.2382
  637MOL0     H87858   3.952   0.308   9.654 -3.0913 -1.3536 -0.4170
  637MOL0     H87859   4.029   0.152   9.715  0.4861  0.0813  1.7026
  637MOL0     H87860   3.807   0.176   9.787 -0.9564 -0.1901  2.1628
  637MOL0     H87861   3.906   0.183   9.930  0.7830 -0.1874  0.5480
  637MOL0     H87862   3.762   0.426   9.821 -2.5867 -1.8572 -0.8184
  637MOL0     H87863   3.727   0.319   9.957  1.0688 -2.9728 -1.7186
  637MOL0     H87864   3.784   0.488  10.236 -3.1142  1.1621  0.0968
  637MOL0     H87865   3.708   0.764  10.407  0.3938 -1.0913  0.9977
  637MOL0     H87866   3.668   0.593  10.380  3.1191  0.0165  1.5067
  637MOL0     H87867   3.554   0.728  10.343 -0.3757 -2.5592  0.0979
  637MOL0     H87868   3.353   0.953  10.354  0.5956 -1.0719 -1.2416
  637MOL0     H87869   3.253   1.151  10.481 -3.3688 -1.0928 -4.6896
  637MOL0     H87870   3.152   1.373  10.441  0.0442  1.4764  0.3788
  637MOL0     H87871   3.215   1.357  10.605 -1.9941  0.9891  1.3179
  637MOL0     H87872   3.113   1.568  10.622  1.7337 -0.7655  1.9140
  637MOL0     H87873   3.270   1.613  10.591  2.6605  0.3133 -3.7360
  637MOL0     H87874   3.080   1.585  10.363 -0.0239  1.7443 -1.4853
  637MOL0     H87875   3.255   1.633  10.355 -0.3334  0.3154 -0.6885
  637MOL0     H87876   3.203   1.838  10.474  3.0415 -2.7123 -1.0876
  637MOL0     H87877   3.045   1.776  10.531 -2.6043  1.7785 -1.6847
  637MOL0     H87878   3.123   1.791  10.229  1.6322 -0.9424  2.1627
  637MOL0     H87879   2.963   1.771  10.312 -0.7327 -0.0295  2.5291
  637MOL0     H87880   3.125   2.037  10.333  0.4690 -0.3670  0.7141
  637MOL0     H87881   2.970   2.000  10.397 -2.3086 -0.0582 -2.3470
  637MOL0     H87882   2.870   1.976  10.175  0.1488  0.3466 -2.8758
  637MOL0     H87883   3.003   1.969  10.089  0.3281 -2.0338  0.6230
  637MOL0     H87884   2.951   2.216  10.268 -0.1799 -0.4206 -0.0160
  637MOL0     H87885   2.898   2.192  10.097 -1.5574 -2.1412  1.0158
  637MOL0     H87886   3.577   1.388  10.348  1.0547 -1.5916  0.6015
  637MOL0     H87887   3.695   1.201  10.259 -0.1395 -1.6486 -0.5504
  637MOL0     H87888   3.768   0.868   9.913  0.0276  2.6787  2.2674
  637MOL0     H87889   3.863   0.650   9.842 -0.8713 -2.1439  0.4086
  637MOL0     H87890   3.999   0.679  10.293  0.5648 -0.9839  1.1002
  637MOL0     H87891   4.021   0.919  10.323 -3.3225  0.8413  0.7434
  637MOL0     H87892   3.936   1.293  10.414  2.6620 -1.5202 -0.0096
  637MOL0     H87893   3.916   1.533  10.403  3.1317  0.8472 -1.4121
  637MOL0     H87894   3.933   1.776  10.771  0.8209 -0.2140 -0.0664
  637MOL0     H87895   4.081   1.814  10.676  0.7180 -0.1453 -2.6780
  637MOL0     H87896   3.807   1.932  10.609  0.3533  0.5999 -0.2082
  637MOL0     H87897   3.964   1.975  10.544 -1.0230 -2.0380 -1.1267
  637MOL0     H87898   3.898   1.984  10.846  1.6929 -0.7999 -0.0066
  637MOL0     H87899   4.028   2.058  10.760  0.2909 -0.3024  0.0115
  637MOL0     H87900   3.757   2.165  10.764 -0.4382 -3.1737 -0.0478
  637MOL0     H87901   3.838   2.169  10.604  0.8027  0.6074 -0.8123
  637MOL0     H87902   4.034   2.467  10.816  1.4063 -0.1076 -2.1557
  637MOL0     H87903   4.073   1.591  10.785  1.9383 -3.5798  3.0058
  637MOL0     H87904   4.035   1.299  10.918  1.7157  1.1204  2.3806
  637MOL0     H87905   4.199   1.261  10.860 -0.0781 -0.8062  0.4345
  637MOL0     H87906   4.153   1.424  10.913  3.1080 -2.2844  2.4873
  638MOL0     O87907   2.602   6.677   2.582  0.2661 -0.8775  0.8464
  638MOL0     C87908   2.489   6.673   2.538  0.1648  0.0460 -1.2895
  638MOL0     O87909   2.443   6.599   2.433 -0.2373  0.0534  0.0235
  638MOL0     C87910   2.511   6.486   2.391  0.5174  0.0163  0.9306
  638MOL0     C87911   2.571   6.389   2.476  0.4074  0.1589  0.2129
  638MOL0     C87912   2.636   6.280   2.431  1.2140 -0.2613 -0.1678
  638MOL0     C87913   2.621   6.258   2.297 -1.1677 -0.5936  0.4374
  638MOL0     O87914   2.678   6.142   2.246  0.8429 -0.8110  0.4287
  638MOL0     C87915   2.820   6.128   2.276 -0.2654  0.2329  0.1583
  638MOL0     C87916   2.874   6.033   2.168  0.4788  0.1058  0.1006
  638MOL0     C87917   3.024   6.060   2.146 -0.2465  0.2307 -0.1173
  638MOL0     C87918   3.101   5.971   2.054 -0.2974  0.1268 -0.1358
  638MOL0     C87919   3.250   6.011   2.047  0.1278 -0.7516 -0.4807
  638MOL0     C87920   3.334   5.908   1.967 -0.0462  0.2648 -0.3440
  638MOL0     C87921   3.389   5.796   2.067  0.7334  0.2230 -0.9445
  638MOL0     C87922   3.502   5.729   1.996  0.8199 -0.5100 -0.8590
  638MOL0     N87923   3.497   5.584   1.981 -0.2496 -0.1643  0.7567
  638MOL0     C87924   3.470   5.510   1.872  1.0045  1.0401  0.5715
  638MOL0     C87925   3.479   5.379   1.907  1.0462  0.3634  0.2811
  638MOL0     C87926   3.458   5.253   1.827 -0.7475  0.0211 -0.0548
  638MOL0     C87927   3.576   5.248   1.730  0.5018  0.3977  0.2789
  638MOL0     C87928   3.589   5.106   1.677 -0.4579 -0.9456  0.0610
  638MOL0     C87929   3.470   5.081   1.580 -0.2141 -0.1997  0.5913
  638MOL0     O87930   3.511   4.956   1.505 -0.1053 -0.4791 -0.7853
  638MOL0     C87931   3.406   4.871   1.472  0.2801 -0.4183  0.7528
  638MOL0     C87932   3.435   4.746   1.447 -0.5489  0.1023  0.2291
  638MOL0     C87933   3.347   4.645   1.404 -0.0646 -0.2485  0.2074
  638MOL0     C87934   3.400   4.492   1.395 -0.1708 -0.3818  0.5240
  638MOL0     C87935   3.217   4.693   1.365  0.8121  0.1170 -0.7858
  638MOL0     C87936   3.122   4.605   1.295  0.1619  0.8408 -0.4660
  638MOL0     O87937   2.998   4.652   1.274 -0.2511 -1.3984 -0.3328
  638MOL0     C87938   2.910   4.571   1.216 -0.2804 -0.5485  0.4823
  638MOL0     C87939   2.908   4.534   1.077 -0.6455 -0.0307 -0.2394
  638MOL0     C87940   2.814   4.447   1.027 -0.8750  0.1694  0.2006
  638MOL0     C87941   2.717   4.390   1.113 -0.3858 -0.1350 -0.0962
  638MOL0     O87942   2.632   4.294   1.056  0.6234  0.0294  0.6352
  638MOL0     C87943   2.491   4.299   1.091  0.3711 -0.7489  0.4395
  638MOL0     C87944   2.414   4.428   1.045  0.3858 -1.6259  1.1312
  638MOL0     C87945   2.452   4.459   0.897  0.2890  0.2502 -0.3806
  638MOL0     C87946   2.359   4.571   0.853 -0.9833 -1.0943 -0.3549
  638MOL0     C87947   2.392   4.622   0.701 -0.3777  0.2734  0.1682
  638MOL0     C87948   2.508   4.712   0.666 -0.3559 -0.5092  0.0052
  638MOL0     C87949   2.601   4.640   0.570  0.0033 -0.1055 -0.0032
  638MOL0     C87950   2.576   4.655   0.422 -0.3068 -1.0954 -0.6425
  638MOL0    Cl87951   2.418   4.592   0.374 -0.3119  0.2574  0.3214
  638MOL0     C87952   2.716   4.419   1.252 -0.1722  0.6497 -0.9003
  638MOL0     C87953   2.816   4.515   1.300 -0.4018 -0.8132  0.6985
  638MOL0     O87954   3.155   4.501   1.250 -0.6078  0.3733  0.2032
  638MOL0     C87955   3.176   4.826   1.394 -0.3041  0.3115  0.8506
  638MOL0     C87956   3.275   4.919   1.440  1.1169  0.0560 -0.3615
  638MOL0     N87957   3.499   5.373   2.041  0.2006  0.0903  0.2606
  638MOL0     N87958   3.523   5.495   2.079 -0.4273 -0.2169  0.2713
  638MOL0     C87959   2.557   6.336   2.207  0.6598 -0.1017 -0.2860
  638MOL0     C87960   2.498   6.452   2.252 -0.2954 -0.4774  0.3869
  638MOL0     C87961   2.389   6.782   2.580 -0.0526 -0.6704 -1.1955
  638MOL0     C87962   2.431   6.918   2.603  0.3077  0.0887  0.4950
  638MOL0     C87963   2.343   7.023   2.624 -0.4740 -0.3061  0.4150
  638MOL0     C87964   2.213   6.993   2.633  1.0643  0.5249 -0.9187
  638MOL0     O87965   2.111   7.069   2.688  0.4705 -0.3936  0.2869
  638MOL0     C87966   2.137   7.206   2.728 -0.9675  0.2134 -0.2522
  638MOL0     C87967   2.164   7.201   2.879 -0.4856 -0.6987  0.5504
  638MOL0     C87968   2.186   7.339   2.936 -0.0096 -0.2835 -0.4196
  638MOL0     C87969   2.293   7.420   2.867 -0.9790  0.1716 -0.4593
  638MOL0     C87970   2.428   7.360   2.870  0.3433  0.2966  0.7276
  638MOL0     C87971   2.538   7.303   2.862 -0.1830  1.0167  0.7154
  638MOL0     C87972   2.166   6.862   2.623 -0.0582 -0.3822 -0.4501
  638MOL0     C87973   2.257   6.759   2.585 -0.5837 -0.6744 -0.9615
  638MOL0     C87974   2.201   6.622   2.567  0.9456  0.3924 -0.3892
  638MOL0     H87975   2.579   6.407   2.582  3.2261  0.3055  0.0371
  638MOL0     H87976   2.663   6.203   2.502 -1.0659 -0.1174  0.9494
  638MOL0     H87977   2.851   6.088   2.372  0.6663 -1.8422 -0.9566
  638MOL0     H87978   2.871   6.225   2.268 -0.2781  0.3458  1.3562
  638MOL0     H87979   2.865   5.927   2.194  1.5327 -0.5416 -1.9605
  638MOL0     H87980   2.807   6.045   2.083  0.7764  0.6441 -0.0618
  638MOL0     H87981   3.021   6.164   2.111  0.0777 -0.4845 -2.4362
  638MOL0     H87982   3.076   6.049   2.242  2.1583 -0.5366 -1.4138
  638MOL0     H87983   3.100   5.869   2.093  2.9502 -0.3239 -0.8947
  638MOL0     H87984   3.042   5.974   1.962 -0.6686  2.8023  0.1052
  638MOL0     H87985   3.297   6.026   2.145  3.6488  2.1674 -2.3340
  638MOL0     H87986   3.256   6.110   2.001  0.7511 -0.7605 -0.4295
  638MOL0     H87987   3.283   5.857   1.885 -2.6869  1.0645  0.6712
  638MOL0     H87988   3.422   5.964   1.935  1.1057 -1.2246  0.1292
  638MOL0     H87989   3.323   5.712   2.090  1.8483  0.0265  1.9508
  638MOL0     H87990   3.436   5.831   2.159  0.8433 -0.2426 -0.8220
  638MOL0     H87991   3.506   5.765   1.893 -1.2422  2.6912  0.0217
  638MOL0     H87992   3.597   5.752   2.046 -0.1775 -0.6916  1.2219
  638MOL0     H87993   3.430   5.534   1.774 -2.0899 -0.9434  1.2242
  638MOL0     H87994   3.355   5.250   1.791 -0.7763 -0.8852  0.0780
  638MOL0     H87995   3.479   5.173   1.899  3.8653  1.2823  0.3418
  638MOL0     H87996   3.553   5.326   1.656 -4.5867  0.8117  1.9117
  638MOL0     H87997   3.665   5.271   1.790  1.4735  1.3201 -1.4086
  638MOL0     H87998   3.682   5.099   1.620  2.8205 -1.0512  4.8724
  638MOL0     H87999   3.604   5.047   1.768 -1.2217  1.1029  1.5959
  638MOL0     H88000   3.383   5.068   1.645 -2.0816 -0.2683 -1.7814
  638MOL0     H88001   3.454   5.167   1.515  1.1743 -0.2044  0.2133
  638MOL0     H88002   3.527   4.724   1.500  0.0641  1.3412 -0.2743
  638MOL0     H88003   3.414   4.457   1.293  4.0223  1.3219  0.3046
  638MOL0     H88004   3.327   4.425   1.442 -1.6028  0.5433 -0.2808
  638MOL0     H88005   3.494   4.493   1.451 -0.2184  0.4379  0.5993
  638MOL0     H88006   2.976   4.580   1.005 -1.4453  1.2860 -0.1981
  638MOL0     H88007   2.829   4.421   0.922  1.2361  3.3815 -0.4419
  638MOL0     H88008   2.439   4.204   1.076 -0.0596 -0.4500  0.0122
  638MOL0     H88009   2.477   4.312   1.198  1.8756  1.2952  0.4524
  638MOL0     H88010   2.306   4.442   1.060  0.7364  1.5243  1.3900
  638MOL0     H88011   2.457   4.511   1.103 -1.0129 -2.9870  4.4133
  638MOL0     H88012   2.429   4.371   0.836 -2.8581  0.2518  0.6134
  638MOL0     H88013   2.558   4.481   0.881  0.1123  1.9724  0.6241
  638MOL0     H88014   2.384   4.661   0.909 -0.5455 -1.0270 -0.6532
  638MOL0     H88015   2.253   4.542   0.854 -0.1657 -4.6333 -1.9093
  638MOL0     H88016   2.401   4.530   0.644  0.3962 -1.1888  2.4978
  638MOL0     H88017   2.300   4.676   0.676 -1.4404 -1.2980  0.5205
  638MOL0     H88018   2.562   4.722   0.761  1.2846 -1.8423 -0.7447
  638MOL0     H88019   2.479   4.811   0.631  0.7326 -0.2873 -0.2852
  638MOL0     H88020   2.605   4.532   0.590 -2.2359 -0.1253  0.6016
  638MOL0     H88021   2.703   4.675   0.585 -0.3525  0.7673  0.4052
  638MOL0     H88022   2.645   4.595   0.362 -0.4986 -0.1754 -1.8224
  638MOL0     H88023   2.581   4.760   0.393 -0.1042 -1.3211 -1.4420
  638MOL0     H88024   2.649   4.383   1.329  1.1223 -0.2708 -0.1555
  638MOL0     H88025   2.827   4.552   1.402 -2.1205 -0.9556  0.9558
  638MOL0     H88026   3.087   4.875   1.358 -0.4429 -1.3327 -1.1993
  638MOL0     H88027   3.236   5.020   1.443  2.1597  0.4787 -0.8004
  638MOL0     H88028   2.558   6.289   2.109  2.7397 -0.8280  0.0423
  638MOL0     H88029   2.462   6.532   2.188  1.0885 -0.2285 -0.1238
  638MOL0     H88030   2.536   6.944   2.595  0.5858 -0.7957  1.1784
  638MOL0     H88031   2.384   7.119   2.655 -3.1298  0.4855  1.8787
  638MOL0     H88032   2.229   7.243   2.681  0.9460 -1.0112  2.2809
  638MOL0     H88033   2.058   7.272   2.693 -2.0431 -1.9522 -2.1474
  638MOL0     H88034   2.255   7.151   2.912  0.7405 -0.8030 -2.6382
  638MOL0     H88035   2.077   7.149   2.922 -2.6369 -0.9200 -3.5848
  638MOL0     H88036   2.093   7.394   2.917 -0.9653 -1.3982  0.8798
  638MOL0     H88037   2.203   7.331   3.044  1.2787 -1.2685 -0.6732
  638MOL0     H88038   2.308   7.516   2.919 -0.9313 -1.2602  2.3667
  638MOL0     H88039   2.262   7.450   2.766  0.0550  1.6509 -0.3847
  638MOL0     H88040   2.625   7.241   2.858  0.3923  1.9014 -1.1236
  638MOL0     H88041   2.060   6.849   2.640  0.2795 -4.2457 -0.4349
  638MOL0     H88042   2.266   6.541   2.603  1.6706  1.8585  1.8280
  638MOL0     H88043   2.099   6.620   2.606  1.0265 -0.8902 -0.1979
  638MOL0     H88044   2.175   6.598   2.464 -0.7835 -0.1634  0.1398
  639MOL0     O88045   1.833   1.690   0.509  0.1116  0.6006 -0.7286
  639MOL0     C88046   1.743   1.656   0.576  0.6256  0.4050 -1.2136
  639MOL0     O88047   1.752   1.626   0.708 -0.3377  0.1999  0.1851
  639MOL0     C88048   1.873   1.559   0.744 -0.9222 -0.3409  1.0304
  639MOL0     C88049   1.908   1.432   0.690 -0.1411 -0.5211  0.5819
  639MOL0     C88050   2.022   1.359   0.745  0.9856 -0.3796 -0.1335
  639MOL0     C88051   2.077   1.402   0.859 -0.4448  0.4633 -0.4732
  639MOL0     O88052   2.180   1.326   0.911 -1.3245  0.3636 -0.5838
  639MOL0     C88053   2.256   1.365   1.028 -0.3943  0.2128 -0.2039
  639MOL0     C88054   2.373   1.273   1.040  0.2740  0.0977 -0.6097
  639MOL0     C88055   2.434   1.280   1.180  0.1851  0.2060 -0.0660
  639MOL0     C88056   2.513   1.413   1.207 -0.2065 -0.1218  0.3625
  639MOL0     C88057   2.427   1.531   1.251  0.2795 -0.2772 -0.2645
  639MOL0     C88058   2.513   1.657   1.226 -0.0889  0.1546 -0.2550
  639MOL0     C88059   2.634   1.664   1.299  0.5570  0.1043 -0.4664
  639MOL0     C88060   2.617   1.668   1.455  0.0734  0.0256  0.2346
  639MOL0     N88061   2.713   1.568   1.513  0.4930  0.5964  0.2114
  639MOL0     C88062   2.849   1.572   1.503  0.5231 -0.6038  0.7103
  639MOL0     C88063   2.881   1.441   1.515 -0.0599 -0.2451  0.2005
  639MOL0     C88064   3.014   1.384   1.498 -0.2119  0.3207  0.2851
  639MOL0     C88065   3.022   1.309   1.361  0.1007 -0.1048  0.5892
  639MOL0     C88066   3.151   1.226   1.358 -0.3542  0.3093 -1.1701
  639MOL0     C88067   3.170   1.160   1.222 -0.0622  1.2121  0.9108
  639MOL0     O88068   3.252   1.224   1.132 -0.2384 -0.8209  0.0997
  639MOL0     C88069   3.261   1.188   1.002 -0.2869  0.1310 -1.0665
  639MOL0     C88070   3.175   1.102   0.941  0.0006  0.0569  0.2784
  639MOL0     C88071   3.173   1.068   0.806  0.6982  0.0922 -0.4516
  639MOL0     C88072   3.076   0.958   0.759 -0.3153  0.5344 -0.7961
  639MOL0     C88073   3.280   1.125   0.734 -0.3349  0.2141 -0.6232
  639MOL0     C88074   3.303   1.091   0.594  0.2060 -0.5232  0.0948
  639MOL0     O88075   3.202   1.030   0.521 -0.5563 -0.1748 -0.5882
  639MOL0     C88076   3.216   1.047   0.381  0.1130  1.2232 -0.9860
  639MOL0     C88077   3.260   1.164   0.309  1.7452  0.2105 -0.3320
  639MOL0     C88078   3.299   1.145   0.179  0.1822 -0.7751  0.4388
  639MOL0     C88079   3.287   1.015   0.119 -0.4069  0.2201  0.3803
  639MOL0     O88080   3.310   1.011  -0.019 -0.2112  0.0029 -0.2200
  639MOL0     C88081   3.379   0.896  -0.084 -0.2716 -0.4569 -0.3329
  639MOL0     C88082   3.330   0.883  -0.223 -0.7422  0.2569 -0.1268
  639MOL0     C88083   3.395   0.761  -0.295 -0.6275 -0.0039  0.3645
  639MOL0     C88084   3.307   0.640  -0.319 -0.2881  0.7294 -0.0745
  639MOL0     C88085   3.377   0.537  -0.398 -0.0194 -0.7007 -0.6091
  639MOL0     C88086   3.292   0.406  -0.400 -0.6419  0.6571 -0.5803
  639MOL0     C88087   3.308   0.333  -0.273  0.2805  0.5435 -0.5592
  639MOL0     C88088   3.257   0.184  -0.297 -0.8257  0.2483  0.3989
  639MOL0    Cl88089   3.321   0.100  -0.445 -0.7213 -0.0036  0.0907
  639MOL0     C88090   3.236   0.901   0.184 -0.7786 -0.4023  0.1484
  639MOL0     C88091   3.198   0.922   0.321 -0.4031 -0.1608  1.3757
  639MOL0     O88092   3.411   1.120   0.546  0.3934 -0.2240 -0.0212
  639MOL0     C88093   3.372   1.216   0.795 -0.3039 -0.0199 -0.3954
  639MOL0     C88094   3.359   1.242   0.931  0.1455 -0.0106  0.3050
  639MOL0     N88095   2.778   1.366   1.547  0.0459 -0.4177 -0.3047
  639MOL0     N88096   2.676   1.442   1.560 -0.1385  0.4652  0.2039
  639MOL0     C88097   2.037   1.522   0.917 -0.1531 -0.0194  0.2722
  639MOL0     C88098   1.939   1.604   0.856 -0.4373 -0.1384  0.7223
  639MOL0     C88099   1.602   1.658   0.517 -1.4305  0.4629 -0.3521
  639MOL0     C88100   1.528   1.541   0.522 -0.0967 -0.2149 -0.4830
  639MOL0     C88101   1.394   1.541   0.500 -0.4217 -0.1225  0.0762
  639MOL0     C88102   1.332   1.658   0.457 -0.4437  0.4331 -0.9163
  639MOL0     O88103   1.196   1.678   0.436  0.5805 -0.4093 -0.9599
  639MOL0     C88104   1.109   1.630   0.538  0.1495  0.5538 -0.9397
  639MOL0     C88105   1.143   1.694   0.678 -0.7276 -0.2722 -0.5433
  639MOL0     C88106   1.148   1.850   0.672  0.0580  0.0789  0.5548
  639MOL0     C88107   1.179   1.922   0.806  1.3804  0.0038 -0.0355
  639MOL0     C88108   1.062   1.895   0.893  0.8588  0.7250 -0.1586
  639MOL0     C88109   0.993   1.860   0.986  0.0378 -0.3778 -0.0078
  639MOL0     C88110   1.410   1.764   0.421  0.2701 -0.1420 -0.0063
  639MOL0     C88111   1.548   1.776   0.453  0.1771  0.2513  0.5929
  639MOL0     C88112   1.624   1.900   0.424 -0.6820  0.3390  0.0034
  639MOL0     H88113   1.848   1.391   0.609  0.2937 -1.4160  0.6937
  639MOL0     H88114   2.040   1.258   0.711 -0.6674 -0.1367 -1.8781
  639MOL0     H88115   2.197   1.351   1.119  2.6167  0.6603  2.0028
  639MOL0     H88116   2.286   1.470   1.021  0.2684 -0.0147 -0.8546
  639MOL0     H88117   2.343   1.168   1.029 -3.5810  0.2247  4.5251
  639MOL0     H88118   2.443   1.306   0.963  1.3827  1.8663  1.0539
  639MOL0     H88119   2.357   1.269   1.257  1.2013 -1.9812  0.6956
  639MOL0     H88120   2.497   1.191   1.188  1.9931  1.3684 -0.8417
  639MOL0     H88121   2.582   1.389   1.288  4.2285  0.5740 -2.8325
  639MOL0     H88122   2.567   1.443   1.117 -0.8567  1.0688  0.3484
  639MOL0     H88123   2.384   1.517   1.351 -2.6810  0.1148 -1.3732
  639MOL0     H88124   2.335   1.540   1.193 -0.7910  2.2784  1.6465
  639MOL0     H88125   2.546   1.669   1.123  2.4953  1.6404  0.6510
  639MOL0     H88126   2.454   1.747   1.251  2.9483  1.2148  4.4011
  639MOL0     H88127   2.677   1.757   1.261 -0.7137 -0.0148 -2.3232
  639MOL0     H88128   2.710   1.588   1.278  2.0814  1.5120 -0.2698
  639MOL0     H88129   2.633   1.761   1.510 -3.5154 -0.1726  1.9090
  639MOL0     H88130   2.519   1.631   1.487  0.0620 -0.3759 -0.2406
  639MOL0     H88131   2.915   1.649   1.463  1.6592 -2.2535 -0.7560
  639MOL0     H88132   3.035   1.314   1.579 -0.7303 -1.6046 -1.1859
  639MOL0     H88133   3.088   1.465   1.499 -1.4524  1.6330 -2.4765
  639MOL0     H88134   2.939   1.237   1.360 -0.9409  1.0714 -0.0125
  639MOL0     H88135   3.008   1.377   1.277  0.3793  0.4346  0.9754
  639MOL0     H88136   3.243   1.279   1.387  1.0822 -0.7665 -3.4402
  639MOL0     H88137   3.127   1.151   1.433  3.6281  0.9813  1.0824
  639MOL0     H88138   3.218   1.068   1.257  1.8632  0.9202 -2.1487
  639MOL0     H88139   3.074   1.141   1.173 -0.3324  0.7872  1.5845
  639MOL0     H88140   3.101   1.041   0.990 -3.6182  1.3928 -2.9810
  639MOL0     H88141   3.133   0.869   0.730 -0.0418 -0.4030  2.2329
  639MOL0     H88142   3.018   1.004   0.678  0.7875  2.7558 -0.3946
  639MOL0     H88143   3.000   0.924   0.830  2.6796 -0.2795  2.2567
  639MOL0     H88144   3.257   1.262   0.356  1.1115 -1.0387  2.3901
  639MOL0     H88145   3.333   1.230   0.121 -2.4241 -1.4960 -2.4544
  639MOL0     H88146   3.485   0.923  -0.074 -0.9538  3.2976 -1.6355
  639MOL0     H88147   3.360   0.801  -0.035 -2.2314 -0.5197 -1.1502
  639MOL0     H88148   3.221   0.873  -0.223 -0.9167  1.6915 -1.6728
  639MOL0     H88149   3.357   0.970  -0.283 -1.4361  0.9470  0.5419
  639MOL0     H88150   3.490   0.732  -0.251 -0.0127 -0.7398 -1.3462
  639MOL0     H88151   3.405   0.790  -0.401 -1.0783 -1.9208 -0.2396
  639MOL0     H88152   3.222   0.665  -0.383  1.9143 -0.1524 -3.6638
  639MOL0     H88153   3.267   0.612  -0.221 -1.8709  1.0218 -0.6103
  639MOL0     H88154   3.386   0.574  -0.500 -1.3024 -2.5818 -1.4488
  639MOL0     H88155   3.472   0.511  -0.350 -0.8980 -3.0693 -0.0065
  639MOL0     H88156   3.342   0.354  -0.483 -0.0898  1.1299 -0.5539
  639MOL0     H88157   3.184   0.418  -0.414 -0.6122  1.7326 -0.0311
  639MOL0     H88158   3.241   0.381  -0.200  0.4989 -0.3372  0.2444
  639MOL0     H88159   3.401   0.349  -0.218 -0.7441  2.9570  0.6201
  639MOL0     H88160   3.150   0.184  -0.321 -0.9508  1.2059  0.8978
  639MOL0     H88161   3.273   0.120  -0.209  3.2107 -2.3235 -1.9188
  639MOL0     H88162   3.232   0.806   0.131 -0.8286 -0.7484  0.7641
  639MOL0     H88163   3.156   0.837   0.374  0.3973 -1.0116  0.6824
  639MOL0     H88164   3.462   1.264   0.760 -0.5789  2.2244  1.6975
  639MOL0     H88165   3.433   1.306   0.977 -1.4275  1.5016  0.8542
  639MOL0     H88166   2.091   1.560   1.002  0.6002  1.4823 -0.8213
  639MOL0     H88167   1.904   1.700   0.891  0.6242  0.6562 -0.3031
  639MOL0     H88168   1.561   1.454   0.579 -2.0335 -0.2255  0.6937
  639MOL0     H88169   1.327   1.457   0.517 -0.0933 -0.6637 -1.1720
  639MOL0     H88170   1.003   1.645   0.519  0.3045 -0.3661 -2.6608
  639MOL0     H88171   1.118   1.522   0.552 -0.6712  0.1755 -3.0782
  639MOL0     H88172   1.243   1.657   0.703 -1.0800  0.2462  1.8786
  639MOL0     H88173   1.083   1.659   0.763 -0.0294 -0.9570 -0.3208
  639MOL0     H88174   1.210   1.888   0.590 -2.2390  0.5118 -1.0823
  639MOL0     H88175   1.049   1.870   0.630 -0.1874  1.6276  1.7763
  639MOL0     H88176   1.195   2.028   0.784 -2.1615  0.3166 -1.8128
  639MOL0     H88177   1.268   1.885   0.857  1.5566  0.9161  0.3234
  639MOL0     H88178   0.927   1.830   1.065 -1.6338  1.7604 -0.4940
  639MOL0     H88179   1.355   1.851   0.385 -0.5025 -0.0643  1.2829
  639MOL0     H88180   1.562   1.989   0.439 -2.0125 -0.2376 -1.6508
  639MOL0     H88181   1.712   1.914   0.488 -2.7190  4.3040  2.3457
  639MOL0     H88182   1.660   1.894   0.321  1.1118 -1.1797  0.6708
  640MOL0     O88183   6.357   3.129   8.902 -0.2664  0.5095 -0.0572
  640MOL0     C88184   6.256   3.130   8.833  0.4488  0.4474 -0.5855
  640MOL0     O88185   6.192   3.010   8.806 -0.1905  0.5071 -0.1741
  640MOL0     C88186   6.094   3.006   8.706 -0.2881 -0.7389 -0.0424
  640MOL0     C88187   5.957   2.986   8.735 -0.8218  1.1262 -0.0414
  640MOL0     C88188   5.867   3.001   8.632 -0.0020 -0.4743 -0.9758
  640MOL0     C88189   5.899   3.054   8.507 -0.1492 -0.8737 -0.2617
  640MOL0     O88190   5.797   3.073   8.417 -0.3265 -0.0061  0.6381
  640MOL0     C88191   5.836   3.131   8.288 -0.7902 -0.3330  0.4723
  640MOL0     C88192   5.838   3.279   8.305 -0.2246 -0.3724 -0.9236
  640MOL0     C88193   5.866   3.358   8.181  0.6539  0.0297  0.3880
  640MOL0     C88194   5.842   3.510   8.197  0.8087 -0.0819  0.7395
  640MOL0     C88195   5.938   3.602   8.271  0.7802 -0.4350 -1.3607
  640MOL0     C88196   6.066   3.606   8.189 -0.5952 -0.4588  0.0721
  640MOL0     C88197   6.184   3.522   8.242 -0.3826 -0.2933  1.5773
  640MOL0     C88198   6.321   3.551   8.172  0.2134 -0.0352  0.1111
  640MOL0     N88199   6.295   3.546   8.028 -0.2723 -0.7914 -0.5651
  640MOL0     C88200   6.270   3.442   7.950  0.5901  0.0281 -0.3480
  640MOL0     C88201   6.260   3.493   7.824 -0.0576  0.4639  0.5243
  640MOL0     C88202   6.282   3.411   7.695  0.2573 -0.2204 -0.1191
  640MOL0     C88203   6.153   3.353   7.646  0.3934  0.0709  0.1784
  640MOL0     C88204   6.167   3.276   7.510  0.5112 -0.1318  0.5219
  640MOL0     C88205   6.278   3.172   7.518  0.0604  0.6248  0.0226
  640MOL0     O88206   6.262   3.105   7.387  0.2140  0.1710 -0.0985
  640MOL0     C88207   6.324   2.988   7.362 -0.4279 -0.5067  0.0145
  640MOL0     C88208   6.398   2.910   7.445  0.5793  0.5934 -0.4372
  640MOL0     C88209   6.474   2.796   7.413  0.1174  0.2292  0.5522
  640MOL0     C88210   6.560   2.733   7.521  0.4754  0.6903 -0.0283
  640MOL0     C88211   6.453   2.755   7.273 -0.1725  1.1333 -1.3334
  640MOL0     C88212   6.546   2.655   7.214  0.1622 -0.8922 -0.2348
  640MOL0     O88213   6.503   2.576   7.108 -0.5834  0.0181  0.1855
  640MOL0     C88214   6.589   2.481   7.056 -0.1845  1.0920 -0.1410
  640MOL0     C88215   6.707   2.512   6.987  1.0611  0.1301  0.2186
  640MOL0     C88216   6.788   2.408   6.933 -0.4611  0.3237  0.1099
  640MOL0     C88217   6.752   2.271   6.954 -0.9067  0.2188 -0.8936
  640MOL0     O88218   6.832   2.179   6.894  0.1711 -0.1595  0.4977
  640MOL0     C88219   6.806   2.037   6.919  0.0937  0.8636 -0.0702
  640MOL0     C88220   6.897   1.945   6.846 -0.2614 -0.2235  1.1780
  640MOL0     C88221   6.911   1.977   6.696 -0.3869  0.9299  0.1247
  640MOL0     C88222   6.992   1.880   6.601 -0.0288  0.0104  0.4335
  640MOL0     C88223   7.145   1.914   6.582 -0.0409  0.4921  0.6218
  640MOL0     C88224   7.210   1.820   6.480 -0.1321  0.3974 -0.9107
  640MOL0     C88225   7.358   1.830   6.482 -0.6944 -0.2892 -0.5919
  640MOL0     C88226   7.419   1.968   6.434 -0.8763 -0.5926  0.1543
  640MOL0    Cl88227   7.594   1.948   6.401  0.0799 -0.7048  0.0427
  640MOL0     C88228   6.638   2.250   7.039  0.4126 -0.4984 -0.0865
  640MOL0     C88229   6.553   2.351   7.077 -1.1566  0.3602  0.0199
  640MOL0     O88230   6.661   2.655   7.256  0.2026 -0.7576  0.3912
  640MOL0     C88231   6.366   2.829   7.188  0.7815  0.2332  0.7492
  640MOL0     C88232   6.308   2.952   7.232 -0.1573  0.1854  0.6185
  640MOL0     N88233   6.321   3.619   7.821 -0.0447  0.3055 -0.5046
  640MOL0     N88234   6.346   3.648   7.943 -0.0441 -0.0029  0.1302
  640MOL0     C88235   6.034   3.075   8.484  0.8140 -0.8582 -0.6797
  640MOL0     C88236   6.123   3.053   8.580 -0.3133 -0.1895  0.3376
  640MOL0     C88237   6.201   3.267   8.803 -0.4172  0.1924  0.6526
  640MOL0     C88238   6.083   3.299   8.876 -0.0418  0.2416  0.2882
  640MOL0     C88239   6.026   3.422   8.866 -0.8087  0.1146 -0.2930
  640MOL0     C88240   6.073   3.515   8.768 -0.4255  0.0199 -0.7927
  640MOL0     O88241   6.011   3.632   8.748  0.5151  0.2389  0.4758
  640MOL0     C88242   5.871   3.628   8.727  0.2173 -0.4526 -0.0568
  640MOL0     C88243   5.838   3.731   8.623 -0.1389  0.0818 -0.1417
  640MOL0     C88244   5.863   3.866   8.693 -0.4057 -1.1365  0.2640
  640MOL0     C88245   5.852   3.973   8.579 -0.5145 -1.0044 -0.5385
  640MOL0     C88246   5.871   4.104   8.641  0.5586  0.0329 -0.5629
  640MOL0     C88247   5.878   4.209   8.699 -0.7877 -0.2622  0.6211
  640MOL0     C88248   6.192   3.486   8.699 -0.9611  0.6186 -0.4970
  640MOL0     C88249   6.256   3.356   8.712 -0.0741  0.1207 -0.4281
  640MOL0     C88250   6.392   3.326   8.638  0.1571 -0.1391  0.5248
  640MOL0     H88251   5.930   2.957   8.836  0.7635  0.3796  0.2093
  640MOL0     H88252   5.761   2.981   8.647 -0.1648  0.4011 -0.8829
  640MOL0     H88253   5.755   3.118   8.215  0.3243 -1.4177 -0.6377
  640MOL0     H88254   5.929   3.085   8.250 -0.9796 -0.4847  0.1837
  640MOL0     H88255   5.742   3.308   8.348  1.6647  0.9925  2.9057
  640MOL0     H88256   5.906   3.307   8.387 -2.6335  2.3398  0.3340
  640MOL0     H88257   5.968   3.339   8.146 -0.6957 -4.4061 -1.9129
  640MOL0     H88258   5.788   3.317   8.116 -0.4199  0.1819  1.5514
  640MOL0     H88259   5.827   3.558   8.100  1.2511 -0.7814  0.3133
  640MOL0     H88260   5.746   3.521   8.247 -0.4906 -1.4194 -1.2863
  640MOL0     H88261   5.953   3.560   8.370  1.1140 -1.4662 -1.8368
  640MOL0     H88262   5.891   3.701   8.275  0.6724 -0.5289  1.9466
  640MOL0     H88263   6.038   3.585   8.085 -2.0927 -1.5697  0.6707
  640MOL0     H88264   6.103   3.709   8.196  1.8485 -1.1738 -1.3226
  640MOL0     H88265   6.161   3.417   8.222 -4.3526  0.4430  1.5710
  640MOL0     H88266   6.193   3.517   8.351  0.8131 -3.4845  1.4458
  640MOL0     H88267   6.353   3.654   8.192 -0.7425  0.5493 -1.2196
  640MOL0     H88268   6.400   3.480   8.198  1.7367  0.5713 -2.4977
  640MOL0     H88269   6.284   3.338   7.978  3.2033  0.9898  2.3437
  640MOL0     H88270   6.349   3.327   7.719 -0.0951 -0.9028 -1.4478
  640MOL0     H88271   6.329   3.479   7.625 -1.0766  2.4019  1.3861
  640MOL0     H88272   6.110   3.299   7.732 -0.9072  0.5688 -0.1410
  640MOL0     H88273   6.093   3.442   7.626  3.7360  1.7345 -3.8681
  640MOL0     H88274   6.079   3.219   7.480 -1.6821  2.1331  2.2288
  640MOL0     H88275   6.182   3.354   7.434  1.0041  1.2683  1.9912
  640MOL0     H88276   6.378   3.213   7.535  0.3189  0.2560 -0.5766
  640MOL0     H88277   6.263   3.100   7.600  1.2406  1.1371  0.7142
  640MOL0     H88278   6.408   2.939   7.549 -1.0479  0.1376 -0.1113
  640MOL0     H88279   6.617   2.642   7.500 -1.2615 -1.4939  3.7561
  640MOL0     H88280   6.501   2.699   7.606 -2.2541  3.7079 -0.5132
  640MOL0     H88281   6.630   2.810   7.556  2.4380  0.5056 -3.1257
  640MOL0     H88282   6.715   2.620   6.982  0.0547  0.2479  0.7694
  640MOL0     H88283   6.857   2.431   6.852 -0.5677 -3.1858 -1.1584
  640MOL0     H88284   6.825   2.015   7.025  0.4914  3.1396  0.3877
  640MOL0     H88285   6.704   2.005   6.896  1.0499 -1.1166 -1.8456
  640MOL0     H88286   6.996   1.950   6.894  0.0981  1.1483  0.3477
  640MOL0     H88287   6.856   1.846   6.867  0.7965 -1.0679 -0.5567
  640MOL0     H88288   6.965   2.071   6.681  0.0280  0.3070 -3.1184
  640MOL0     H88289   6.809   1.984   6.656  0.5038 -1.4264 -2.9101
  640MOL0     H88290   6.948   1.885   6.501  1.6203 -0.1734 -0.3219
  640MOL0     H88291   6.987   1.779   6.642  2.7908 -0.8495 -1.0915
  640MOL0     H88292   7.158   2.018   6.552  2.0123  0.8234  2.4425
  640MOL0     H88293   7.197   1.896   6.676 -0.2980 -0.3482  0.6166
  640MOL0     H88294   7.169   1.831   6.379 -1.9941  3.5223  0.0268
  640MOL0     H88295   7.179   1.718   6.502 -0.8060  0.1284 -2.9007
  640MOL0     H88296   7.415   1.763   6.417  1.7229  0.6935  0.3989
  640MOL0     H88297   7.382   1.809   6.587 -1.9818  2.2238  0.2997
  640MOL0     H88298   7.408   2.051   6.504 -0.9794 -0.6617  0.2202
  640MOL0     H88299   7.358   1.993   6.347 -2.5751 -4.0862  0.1774
  640MOL0     H88300   6.621   2.150   7.077  1.3659 -0.6612 -0.0547
  640MOL0     H88301   6.457   2.337   7.126 -1.4127 -1.2548 -0.8655
  640MOL0     H88302   6.355   2.801   7.084 -0.5707  1.1566  0.6191
  640MOL0     H88303   6.256   3.018   7.162  0.3674  1.5789  1.5071
  640MOL0     H88304   6.069   3.106   8.386  1.3937  0.5135 -0.0533
  640MOL0     H88305   6.228   3.074   8.562 -0.6933  2.4290  0.8531
  640MOL0     H88306   6.044   3.236   8.956 -0.5572  0.7910  0.4694
  640MOL0     H88307   5.941   3.450   8.927  0.2072 -0.9370  1.7078
  640MOL0     H88308   5.846   3.525   8.700  0.4222 -0.5471  0.1087
  640MOL0     H88309   5.822   3.641   8.824 -2.3073 -2.0210 -1.0278
  640MOL0     H88310   5.735   3.730   8.587  0.2802 -0.2685 -1.3959
  640MOL0     H88311   5.900   3.715   8.534  0.5073  0.1981  0.2744
  640MOL0     H88312   5.785   3.888   8.766  1.3875  0.4126  1.8277
  640MOL0     H88313   5.965   3.877   8.730  0.9804 -1.2900 -3.1092
  640MOL0     H88314   5.758   3.976   8.523  0.5944  0.7320 -2.4827
  640MOL0     H88315   5.939   3.954   8.515  0.9827  1.3421  0.6361
  640MOL0     H88316   5.901   4.289   8.767  1.9677  0.6423 -1.2051
  640MOL0     H88317   6.234   3.563   8.636  2.9061  2.6928  3.9931
  640MOL0     H88318   6.424   3.222   8.647 -1.1415 -0.4384  2.2794
  640MOL0     H88319   6.374   3.334   8.531 -1.4853  2.6799  0.9022
  640MOL0     H88320   6.471   3.396   8.670 -1.7307  1.0127  3.0592
  641MOL0     O88321   0.172   3.336   1.815  0.3308 -0.2240 -0.4523
  641MOL0     C88322   0.149   3.453   1.834 -0.5429 -0.0558  0.4137
  641MOL0     O88323   0.060   3.501   1.924 -0.7628 -0.2113 -0.3011
  641MOL0     C88324  -0.021   3.406   1.994  0.3625 -0.0227  0.7397
  641MOL0     C88325  -0.020   3.412   2.134 -1.7316 -0.8703 -0.1533
  641MOL0     C88326  -0.112   3.336   2.206  0.3111 -0.3003  0.1001
  641MOL0     C88327  -0.207   3.267   2.142  0.1838  0.4004  0.7087
  641MOL0     O88328  -0.311   3.194   2.215 -0.3604 -0.1920 -0.6747
  641MOL0     C88329  -0.374   3.082   2.144  0.7390  0.1634 -0.3858
  641MOL0     C88330  -0.433   2.983   2.250  0.1746  0.9712 -0.2924
  641MOL0     C88331  -0.329   2.956   2.352 -0.0563  0.0217 -0.7425
  641MOL0     C88332  -0.388   2.873   2.479 -0.1317 -0.4864 -0.2549
  641MOL0     C88333  -0.295   2.857   2.593  0.6438 -0.4736 -0.0145
  641MOL0     C88334  -0.253   2.985   2.654 -0.4515  0.3647  0.1624
  641MOL0     C88335  -0.190   2.963   2.797 -0.2447 -0.2593 -0.1683
  641MOL0     C88336  -0.129   3.092   2.852 -0.0364 -0.6835 -0.1681
  641MOL0     N88337  -0.019   3.158   2.775  0.6861 -0.0851 -0.1331
  641MOL0     C88338   0.068   3.089   2.693 -0.2176 -0.9152  0.5615
  641MOL0     C88339   0.142   3.189   2.632  0.0876 -0.6558 -0.6879
  641MOL0     C88340   0.251   3.175   2.531  0.3189  0.5742 -0.8486
  641MOL0     C88341   0.178   3.138   2.394 -0.2052 -0.1406 -0.7066
  641MOL0     C88342   0.289   3.116   2.293  0.0246 -0.2360 -0.9262
  641MOL0     C88343   0.305   3.229   2.197 -0.3995  0.9153  0.0695
  641MOL0     O88344   0.394   3.336   2.243 -0.2052  0.0724 -0.0172
  641MOL0     C88345   0.473   3.401   2.149  0.6039  0.3573  0.1007
  641MOL0     C88346   0.554   3.501   2.199  0.1244  0.3445  0.0836
  641MOL0     C88347   0.631   3.580   2.122 -0.0115  0.4120  0.1106
  641MOL0     C88348   0.730   3.671   2.193 -0.2930 -0.0501  0.8897
  641MOL0     C88349   0.612   3.586   1.981  0.2710 -0.5298 -0.1748
  641MOL0     C88350   0.681   3.687   1.892  0.1894  0.3337  0.4824
  641MOL0     O88351   0.742   3.794   1.941 -0.5402  0.8156  0.2485
  641MOL0     C88352   0.837   3.855   1.866 -0.1317  1.1110 -0.0048
  641MOL0     C88353   0.939   3.788   1.797  0.0798 -0.2242 -0.9316
  641MOL0     C88354   1.019   3.864   1.707 -0.0444  0.0414 -0.6909
  641MOL0     C88355   1.019   4.002   1.698  0.7362 -0.5432  0.0558
  641MOL0     O88356   1.112   4.062   1.619 -0.5331 -0.0100 -0.0705
  641MOL0     C88357   1.079   4.177   1.548 -0.1976 -1.1142  0.4900
  641MOL0     C88358   1.225   4.220   1.483  0.9331  0.1323  0.4063
  641MOL0     C88359   1.218   4.317   1.366 -0.2220 -0.3512  0.3990
  641MOL0     C88360   1.178   4.459   1.405  0.7269  0.3127  0.4135
  641MOL0     C88361   1.251   4.516   1.533  0.2044  0.4580 -0.7277
  641MOL0     C88362   1.405   4.520   1.513 -0.0481  0.2058  0.2181
  641MOL0     C88363   1.479   4.596   1.621  1.0197  0.5489  0.0698
  641MOL0     C88364   1.617   4.536   1.637  0.1950 -0.0332 -0.6729
  641MOL0    Cl88365   1.606   4.411   1.749  0.2173 -0.1015 -0.5000
  641MOL0     C88366   0.920   4.068   1.777 -0.3760  0.8060  0.7753
  641MOL0     C88367   0.833   3.995   1.857 -0.9917  0.5439  0.6607
  641MOL0     O88368   0.681   3.654   1.774 -0.1169  0.0779  0.0101
  641MOL0     C88369   0.539   3.486   1.927  0.3820  0.7070 -0.3742
  641MOL0     C88370   0.464   3.399   2.012  0.2221  0.2322  0.3554
  641MOL0     N88371   0.101   3.304   2.689 -0.2645  0.2754  0.7873
  641MOL0     N88372   0.028   3.285   2.783  0.4042  0.3456  0.5415
  641MOL0     C88373  -0.207   3.260   2.005 -0.2397  0.6036 -0.2034
  641MOL0     C88374  -0.107   3.318   1.927  0.7562 -0.1473  0.8693
  641MOL0     C88375   0.220   3.547   1.743 -0.2949 -0.0324  0.5655
  641MOL0     C88376   0.268   3.658   1.801 -1.0175 -0.5726 -0.6836
  641MOL0     C88377   0.355   3.747   1.727 -1.0643 -0.0022  0.0049
  641MOL0     C88378   0.389   3.728   1.592 -0.1709  0.4935 -0.0616
  641MOL0     O88379   0.464   3.808   1.501 -0.3364 -0.7167 -1.0660
  641MOL0     C88380   0.522   3.929   1.565  0.2558  0.3292 -0.2786
  641MOL0     C88381   0.617   4.000   1.475 -0.4449  0.5988  0.2996
  641MOL0     C88382   0.536   4.072   1.362 -0.0005 -0.1932  0.0695
  641MOL0     C88383   0.632   4.135   1.257 -0.5842 -0.7519  0.4162
  641MOL0     C88384   0.711   4.247   1.309 -0.1751 -0.0223 -0.3627
  641MOL0     C88385   0.768   4.350   1.333 -0.4254  0.1528 -0.3866
  641MOL0     C88386   0.331   3.613   1.537  0.2690  0.1964 -0.3756
  641MOL0     C88387   0.250   3.522   1.609 -0.0683  0.1461 -0.0428
  641MOL0     C88388   0.193   3.393   1.543 -0.7759  0.0545  0.4343
  641MOL0     H88389   0.062   3.467   2.179 -1.3586 -1.0294 -0.6219
  641MOL0     H88390  -0.118   3.347   2.314  1.3138  4.2606 -0.1112
  641MOL0     H88391  -0.300   3.026   2.086  1.4512  1.0350 -0.3355
  641MOL0     H88392  -0.462   3.123   2.094  1.5692  0.3114 -1.7584
  641MOL0     H88393  -0.521   3.028   2.298 -1.2270 -1.1199 -0.7895
  641MOL0     H88394  -0.479   2.899   2.197 -2.4794  3.5320 -2.3640
  641MOL0     H88395  -0.244   2.913   2.298 -1.1298  0.7807 -3.1783
  641MOL0     H88396  -0.288   3.047   2.397 -1.3063  0.7431 -1.0019
  641MOL0     H88397  -0.482   2.921   2.509 -0.5845  1.4242 -4.0707
  641MOL0     H88398  -0.423   2.772   2.454 -2.6170  0.2075  0.1975
  641MOL0     H88399  -0.215   2.788   2.564  1.9713  0.3946  1.3986
  641MOL0     H88400  -0.351   2.809   2.674  0.7061 -0.1943  0.2006
  641MOL0     H88401  -0.176   3.025   2.587 -0.1190 -1.1476 -0.4008
  641MOL0     H88402  -0.335   3.056   2.661 -1.1054  0.1299 -3.2823
  641MOL0     H88403  -0.119   2.881   2.799  0.1815  0.1181  0.9040
  641MOL0     H88404  -0.273   2.936   2.864  0.5710  3.1842  2.5716
  641MOL0     H88405  -0.214   3.157   2.834 -1.4155 -1.8988  1.5481
  641MOL0     H88406  -0.101   3.084   2.958  0.6101 -0.2415 -0.2979
  641MOL0     H88407   0.073   2.984   2.669 -0.8705 -0.6594 -0.8142
  641MOL0     H88408   0.329   3.106   2.564  1.1420  1.8847  0.0303
  641MOL0     H88409   0.303   3.269   2.507  3.5273 -1.7161 -3.9591
  641MOL0     H88410   0.134   3.038   2.400  2.5323 -1.4679 -1.4703
  641MOL0     H88411   0.115   3.223   2.365  0.5523 -0.1730 -2.5500
  641MOL0     H88412   0.382   3.105   2.352 -0.7128 -0.0840  0.3030
  641MOL0     H88413   0.279   3.021   2.240 -1.9398  0.3886 -1.7213
  641MOL0     H88414   0.353   3.174   2.115 -0.0131 -2.5973  2.4484
  641MOL0     H88415   0.212   3.272   2.159  0.2648  0.9501 -1.5935
  641MOL0     H88416   0.583   3.503   2.304 -0.9441  0.2785  0.3973
  641MOL0     H88417   0.743   3.633   2.295 -1.3710 -3.3926 -0.0678
  641MOL0     H88418   0.695   3.774   2.184  3.6190  1.3658 -0.2942
  641MOL0     H88419   0.822   3.678   2.135 -1.1098  1.0757 -0.3444
  641MOL0     H88420   0.943   3.680   1.807  1.0332 -0.2254 -1.2586
  641MOL0     H88421   1.098   3.813   1.653  0.1931  1.2122 -1.4948
  641MOL0     H88422   1.007   4.153   1.469  1.0304  0.4178 -1.1930
  641MOL0     H88423   1.031   4.253   1.610 -0.5709  2.2561 -3.4386
  641MOL0     H88424   1.302   4.244   1.557  2.8683  0.6976 -1.6677
  641MOL0     H88425   1.247   4.127   1.431 -1.9552 -0.4045 -0.0212
  641MOL0     H88426   1.142   4.278   1.297 -1.3369  0.3357  1.2066
  641MOL0     H88427   1.314   4.325   1.313 -0.3144  0.1550  0.2969
  641MOL0     H88428   1.070   4.474   1.422  1.4144  4.0743  2.8117
  641MOL0     H88429   1.194   4.533   1.325 -1.6508 -0.3953 -0.8247
  641MOL0     H88430   1.222   4.620   1.552  3.9143  1.7879 -1.6034
  641MOL0     H88431   1.227   4.462   1.625  0.1195 -1.2365 -1.7159
  641MOL0     H88432   1.437   4.576   1.425 -0.8439  0.0412 -0.1829
  641MOL0     H88433   1.442   4.417   1.510 -1.3137 -0.3260  1.4129
  641MOL0     H88434   1.426   4.612   1.715  0.7140  3.3520 -0.4743
  641MOL0     H88435   1.498   4.698   1.584 -2.3683  0.7924 -1.4145
  641MOL0     H88436   1.692   4.604   1.681  1.1905 -1.5389  0.0393
  641MOL0     H88437   1.660   4.509   1.541 -0.0090 -0.4354 -0.6498
  641MOL0     H88438   0.908   4.175   1.766 -0.7751  0.6372 -0.5152
  641MOL0     H88439   0.749   4.038   1.910 -3.7169 -1.8603 -1.3881
  641MOL0     H88440   0.524   3.473   1.820  3.5500  1.6688 -1.0401
  641MOL0     H88441   0.386   3.335   1.973  1.1632 -0.0444 -1.1360
  641MOL0     H88442  -0.266   3.189   1.948  0.8733 -0.8215  0.3505
  641MOL0     H88443  -0.113   3.303   1.820 -3.6759  0.8795  0.8049
  641MOL0     H88444   0.260   3.681   1.907  1.8035  0.8659 -0.7078
  641MOL0     H88445   0.398   3.832   1.779  0.5632 -0.7011 -0.1443
  641MOL0     H88446   0.442   3.992   1.605 -2.5090 -1.1287 -3.0540
  641MOL0     H88447   0.579   3.897   1.652 -1.5436 -0.4218  0.6771
  641MOL0     H88448   0.695   3.933   1.438 -0.2917  0.3226  1.1001
  641MOL0     H88449   0.679   4.063   1.540  1.4591 -1.2454  0.3715
  641MOL0     H88450   0.487   3.989   1.311  1.2520 -1.7876  1.3833
  641MOL0     H88451   0.454   4.134   1.400  1.8139  2.1140  0.4472
  641MOL0     H88452   0.580   4.164   1.166  0.5601 -1.4687 -0.4928
  641MOL0     H88453   0.699   4.057   1.220 -0.9818 -0.4910 -0.8847
  641MOL0     H88454   0.825   4.439   1.352  1.2804 -1.3742  2.5782
  641MOL0     H88455   0.346   3.592   1.432 -1.0967  0.1870 -0.5917
  641MOL0     H88456   0.186   3.410   1.435  4.0406 -3.4780 -0.7578
  641MOL0     H88457   0.269   3.316   1.558 -0.7699 -0.4197 -1.6524
  641MOL0     H88458   0.102   3.346   1.583  0.3335 -1.0404  1.7653
  642MOL0     O88459   4.186   3.624   2.613 -1.5687  1.4827  1.0756
  642MOL0     C88460   4.176   3.589   2.494  0.2728 -1.2647  0.4363
  642MOL0     O88461   4.090   3.494   2.453  0.1174  0.0372  0.2441
  642MOL0     C88462   3.965   3.500   2.513 -0.0485  0.9633  0.6692
  642MOL0     C88463   3.909   3.381   2.564 -0.5642 -0.3980  0.3208
  642MOL0     C88464   3.781   3.380   2.608  0.3243 -1.5453  0.0203
  642MOL0     C88465   3.706   3.498   2.613  0.1942  0.0804 -1.4004
  642MOL0     O88466   3.577   3.478   2.666 -0.0053 -0.2873 -0.7680
  642MOL0     C88467   3.484   3.588   2.671  0.0542 -0.9051  0.7918
  642MOL0     C88468   3.411   3.621   2.546  0.1415  1.0013  0.2308
  642MOL0     C88469   3.299   3.515   2.513  0.1564  0.0548  0.5403
  642MOL0     C88470   3.176   3.526   2.622  0.0351  0.1544  0.7691
  642MOL0     C88471   3.055   3.596   2.551  0.9442 -0.8675  0.5394
  642MOL0     C88472   2.939   3.623   2.655  0.0034 -0.0756  0.4813
  642MOL0     C88473   2.895   3.501   2.721 -0.4655  0.5363  0.3688
  642MOL0     C88474   2.765   3.505   2.793  1.1957 -0.4323  0.3264
  642MOL0     N88475   2.652   3.528   2.709 -0.1377 -0.6396 -0.6204
  642MOL0     C88476   2.598   3.656   2.687 -1.3486  0.4742  0.1734
  642MOL0     C88477   2.483   3.637   2.613  0.2366  0.7627  0.1832
  642MOL0     C88478   2.382   3.747   2.577  0.0403  0.5916  0.9554
  642MOL0     C88479   2.327   3.811   2.699  0.7228 -0.0406  0.4597
  642MOL0     C88480   2.252   3.934   2.656  0.1877 -0.9829 -0.0615
  642MOL0     C88481   2.209   4.022   2.769 -0.0113 -0.8435 -0.0118
  642MOL0     O88482   2.324   4.095   2.827  0.5320 -0.1452  0.5414
  642MOL0     C88483   2.296   4.222   2.866  0.6050 -0.2140  0.8262
  642MOL0     C88484   2.416   4.295   2.874  0.5924 -1.5649 -0.5647
  642MOL0     C88485   2.412   4.428   2.914  0.0870 -0.2060  0.4760
  642MOL0     C88486   2.549   4.486   2.942  0.5819  0.0213  0.9536
  642MOL0     C88487   2.284   4.505   2.930  0.1319  0.0556  0.0717
  642MOL0     C88488   2.284   4.653   2.980  0.1063  0.5955  0.0786
  642MOL0     O88489   2.158   4.702   2.990  0.8112  0.1773 -0.1153
  642MOL0     C88490   2.136   4.827   3.039 -0.2143  0.2367 -0.1717
  642MOL0     C88491   2.041   4.838   3.145  0.3701 -0.7732 -0.0376
  642MOL0     C88492   2.002   4.965   3.179  0.5358 -0.2969 -0.6390
  642MOL0     C88493   2.046   5.083   3.113 -0.5174  0.4292  0.5137
  642MOL0     O88494   2.005   5.196   3.166  0.6764  0.4756 -0.0598
  642MOL0     C88495   2.104   5.272   3.234  0.5089  1.2175 -0.5380
  642MOL0     C88496   2.040   5.391   3.301  0.1550  0.0904 -1.6762
  642MOL0     C88497   1.996   5.348   3.445  0.0906 -0.0479 -1.1701
  642MOL0     C88498   1.893   5.460   3.503  0.1440  0.3981 -0.0982
  642MOL0     C88499   1.892   5.450   3.657  0.9546 -0.1040  0.9046
  642MOL0     C88500   1.791   5.349   3.722 -0.1347  0.7388  0.5644
  642MOL0     C88501   1.801   5.346   3.870 -0.2029  0.1677 -0.1396
  642MOL0     C88502   1.759   5.459   3.952  1.1296 -1.0944 -0.6960
  642MOL0    Cl88503   1.587   5.500   3.929  0.1495  0.1907  0.3534
  642MOL0     C88504   2.140   5.073   3.011 -0.3151  0.5401 -0.2667
  642MOL0     C88505   2.177   4.941   2.972  0.0708 -0.9558 -0.5944
  642MOL0     O88506   2.390   4.714   3.010  0.5202  0.4019 -0.6252
  642MOL0     C88507   2.170   4.422   2.916 -0.1302 -0.0488  1.5504
  642MOL0     C88508   2.179   4.285   2.881 -0.2639 -1.5674 -0.8087
  642MOL0     N88509   2.472   3.503   2.587 -0.7766  0.2077 -0.0676
  642MOL0     N88510   2.572   3.440   2.642  0.3624 -0.2917  0.0389
  642MOL0     C88511   3.761   3.627   2.555  0.5287  0.1314 -0.9149
  642MOL0     C88512   3.891   3.620   2.506  0.1218  0.2493 -0.5595
  642MOL0     C88513   4.279   3.644   2.394  0.3999  0.4561  0.2809
  642MOL0     C88514   4.276   3.589   2.262  0.3537 -1.1134  0.4560
  642MOL0     C88515   4.360   3.649   2.161 -0.2076  1.3030 -0.2464
  642MOL0     C88516   4.466   3.744   2.188 -0.0494  0.3147  0.3482
  642MOL0     O88517   4.548   3.807   2.095  0.6317 -0.7318 -0.9438
  642MOL0     C88518   4.558   3.736   1.975  0.2447 -0.1342 -0.3183
  642MOL0     C88519   4.662   3.807   1.885  0.5361 -0.5249  0.1170
  642MOL0     C88520   4.660   3.771   1.741 -0.4573 -0.2593  0.6938
  642MOL0     C88521   4.757   3.848   1.650 -0.1752  0.5138  0.7395
  642MOL0     C88522   4.721   3.997   1.630  0.3371  0.7390 -0.2190
  642MOL0     C88523   4.690   4.115   1.627 -0.1274  0.3929 -0.6193
  642MOL0     C88524   4.461   3.792   2.321  1.0370 -0.2268 -0.6721
  642MOL0     C88525   4.368   3.751   2.420  0.2815 -0.6501  0.2010
  642MOL0     C88526   4.380   3.821   2.558 -0.5161 -0.0233  0.8211
  642MOL0     H88527   3.965   3.288   2.569 -1.6938 -1.0504  1.9007
  642MOL0     H88528   3.750   3.284   2.649 -1.9790 -0.7392  0.2849
  642MOL0     H88529   3.547   3.674   2.692  3.1677 -2.2866 -2.0077
  642MOL0     H88530   3.415   3.568   2.754 -1.1998  1.5002  0.4056
  642MOL0     H88531   3.359   3.717   2.557 -0.1939  0.7217  1.1612
  642MOL0     H88532   3.479   3.630   2.461 -1.0323 -0.5642 -0.9132
  642MOL0     H88533   3.262   3.514   2.410  3.6792 -1.5238 -0.8755
  642MOL0     H88534   3.344   3.416   2.523 -2.4485 -1.5085 -1.8783
  642MOL0     H88535   3.146   3.423   2.643 -0.5711 -0.2892 -1.9156
  642MOL0     H88536   3.201   3.576   2.716 -2.3935  0.8928  1.0929
  642MOL0     H88537   3.019   3.542   2.464 -1.2127  0.2702  0.6559
  642MOL0     H88538   3.087   3.696   2.521 -1.5831 -0.8615 -2.6362
  642MOL0     H88539   2.967   3.696   2.732  0.5766 -1.9617  2.1602
  642MOL0     H88540   2.851   3.660   2.602  1.1980  2.3214  0.0488
  642MOL0     H88541   2.967   3.478   2.800  1.7243 -2.3979 -2.2164
  642MOL0     H88542   2.899   3.408   2.663  1.1383  0.5108  0.4938
  642MOL0     H88543   2.754   3.410   2.846  0.4009 -0.9707 -0.7833
  642MOL0     H88544   2.771   3.589   2.864  1.7701  0.8176 -1.1539
  642MOL0     H88545   2.636   3.750   2.726  0.5089 -1.1820  2.6906
  642MOL0     H88546   2.304   3.688   2.531 -0.2302  0.4162  1.6221
  642MOL0     H88547   2.423   3.812   2.499 -1.6141 -0.9827 -1.3217
  642MOL0     H88548   2.253   3.747   2.749 -0.7203  0.2836 -1.1708
  642MOL0     H88549   2.398   3.835   2.780  0.8342  1.4704 -0.0479
  642MOL0     H88550   2.311   3.985   2.580 -1.0369  1.3866  0.4511
  642MOL0     H88551   2.178   3.893   2.587 -0.2347 -0.3538  0.0028
  642MOL0     H88552   2.137   4.091   2.725 -0.1118 -1.0370 -0.1565
  642MOL0     H88553   2.162   3.958   2.844 -2.1738  0.2748 -0.3399
  642MOL0     H88554   2.507   4.237   2.861  0.2264 -2.8417  1.9353
  642MOL0     H88555   2.622   4.414   2.904 -1.3647 -2.6395  1.9407
  642MOL0     H88556   2.560   4.505   3.049  0.1538  2.1217  0.6626
  642MOL0     H88557   2.564   4.573   2.878  2.6189  2.2675  4.1438
  642MOL0     H88558   1.997   4.753   3.198 -1.2113 -0.3821 -0.6614
  642MOL0     H88559   1.920   4.980   3.249 -0.9354 -1.4387 -2.0322
  642MOL0     H88560   2.169   5.209   3.296 -0.0927  1.3594  0.2434
  642MOL0     H88561   2.168   5.314   3.156 -1.5002  2.7513 -1.4385
  642MOL0     H88562   2.111   5.474   3.309  0.8555 -0.6816  1.5332
  642MOL0     H88563   1.956   5.430   3.244 -1.4668 -1.9905 -0.8281
  642MOL0     H88564   2.092   5.353   3.497 -1.2420 -2.0890  1.8170
  642MOL0     H88565   1.951   5.249   3.459  2.1326 -1.2288 -2.4779
  642MOL0     H88566   1.792   5.443   3.465 -0.2977  0.7841  0.8567
  642MOL0     H88567   1.921   5.560   3.468  2.9636 -0.8000 -1.5950
  642MOL0     H88568   1.993   5.443   3.697  0.7288  0.1049  1.5308
  642MOL0     H88569   1.863   5.552   3.682 -0.1469 -0.1700 -0.0465
  642MOL0     H88570   1.824   5.249   3.693 -1.7105  0.7508 -1.5137
  642MOL0     H88571   1.695   5.358   3.670 -0.0855  1.5178  0.5898
  642MOL0     H88572   1.901   5.324   3.907 -1.2586  1.9965  4.4430
  642MOL0     H88573   1.755   5.253   3.902  0.6815 -0.8824 -1.7731
  642MOL0     H88574   1.818   5.551   3.945  1.1379 -0.6959  2.8229
  642MOL0     H88575   1.775   5.434   4.058  0.6866 -0.1230 -0.3835
  642MOL0     H88576   2.182   5.152   2.949 -2.2505  0.0264 -2.3735
  642MOL0     H88577   2.250   4.930   2.892 -1.3220  3.9375 -2.9018
  642MOL0     H88578   2.070   4.465   2.911 -0.1427 -0.2241 -1.3212
  642MOL0     H88579   2.083   4.235   2.878 -1.3460  0.3316 -0.1368
  642MOL0     H88580   3.694   3.712   2.545 -3.4767 -2.5997  0.0087
  642MOL0     H88581   3.926   3.712   2.460  0.9755 -0.3936 -1.2147
  642MOL0     H88582   4.203   3.513   2.235  1.1351 -0.8915 -2.6654
  642MOL0     H88583   4.351   3.601   2.065 -0.6546 -1.9582  1.2945
  642MOL0     H88584   4.577   3.630   1.997  0.0643  0.5526  3.9824
  642MOL0     H88585   4.468   3.755   1.916 -0.2097 -2.3863 -0.4553
  642MOL0     H88586   4.757   3.782   1.933  0.7241  0.4763  0.2902
  642MOL0     H88587   4.652   3.915   1.904 -3.6967 -1.4388  5.7507
  642MOL0     H88588   4.675   3.663   1.736  2.2703  0.1097 -1.9900
  642MOL0     H88589   4.557   3.791   1.710  0.0787  2.2935  0.3585
  642MOL0     H88590   4.757   3.805   1.549  0.4637 -0.7709  1.2610
  642MOL0     H88591   4.864   3.839   1.673  0.2653  2.1941 -0.4849
  642MOL0     H88592   4.685   4.222   1.621 -2.8129  0.3866  0.0066
  642MOL0     H88593   4.529   3.876   2.324  2.3957 -1.1802 -2.7433
  642MOL0     H88594   4.283   3.866   2.581 -1.0047 -1.2517  1.2307
  642MOL0     H88595   4.416   3.760   2.642  1.5639  0.9381  0.7043
  642MOL0     H88596   4.459   3.896   2.547 -0.9241  0.2222 -0.5329
  643MOL0     O88597   6.642   3.180   6.483 -0.5086 -0.1066  0.4607
  643MOL0     C88598   6.629   3.293   6.431  1.1740 -0.3894 -0.0071
  643MOL0     O88599   6.729   3.369   6.375 -0.1726 -0.8332  0.2811
  643MOL0     C88600   6.863   3.339   6.369 -0.6493 -0.2646 -0.2227
  643MOL0     C88601   6.947   3.453   6.389 -0.5918  0.0855  0.5350
  643MOL0     C88602   7.083   3.438   6.418 -0.5302 -0.1604 -0.0085
  643MOL0     C88603   7.149   3.316   6.409 -0.3929 -0.1333 -0.7762
  643MOL0     O88604   7.279   3.279   6.440  0.3595 -0.3779  0.7297
  643MOL0     C88605   7.386   3.364   6.397 -0.8802 -0.2108 -0.1097
  643MOL0     C88606   7.522   3.299   6.443  0.0620 -0.1886  0.3337
  643MOL0     C88607   7.641   3.378   6.375  0.5087  0.2853 -0.4634
  643MOL0     C88608   7.763   3.322   6.437 -0.5096  0.4255 -0.3398
  643MOL0     C88609   7.880   3.416   6.436 -0.4772 -0.8023  0.5972
  643MOL0     C88610   7.928   3.436   6.289 -0.2885  0.6251  0.1251
  643MOL0     C88611   8.049   3.535   6.258 -0.5188 -0.0827 -0.6314
  643MOL0     C88612   8.039   3.675   6.330 -0.7191 -0.5423 -0.1028
  643MOL0     N88613   7.924   3.758   6.287  0.0835 -0.3655  0.6670
  643MOL0     C88614   7.897   3.786   6.156 -0.8630  1.4038  0.9510
  643MOL0     C88615   7.783   3.855   6.153 -0.9816  0.7964  0.2853
  643MOL0     C88616   7.710   3.894   6.031 -0.1977  0.1664  0.4046
  643MOL0     C88617   7.565   3.899   6.063 -0.0188  0.8197  0.4259
  643MOL0     C88618   7.478   3.928   5.934  0.6070 -0.1456  1.1913
  643MOL0     C88619   7.333   3.967   5.971  0.7554 -0.4897 -0.1740
  643MOL0     O88620   7.248   3.870   6.039  0.0808  0.8051 -0.1532
  643MOL0     C88621   7.220   3.746   5.965  0.3528  0.4247 -0.5901
  643MOL0     C88622   7.234   3.711   5.831  0.0486 -0.3813 -0.3224
  643MOL0     C88623   7.198   3.591   5.772 -0.7580  1.0168  0.6643
  643MOL0     C88624   7.218   3.565   5.622  1.0815 -0.0604 -0.0518
  643MOL0     C88625   7.141   3.491   5.857 -0.8699 -0.5865  0.0276
  643MOL0     C88626   7.105   3.350   5.820  0.5612 -0.0486  0.2642
  643MOL0     O88627   7.183   3.288   5.729  0.2926  0.4653 -0.6850
  643MOL0     C88628   7.122   3.168   5.683  0.6506  0.2380 -0.9255
  643MOL0     C88629   7.161   3.039   5.736 -0.1336 -0.0027  0.4868
  643MOL0     C88630   7.096   2.927   5.703  0.4250  0.1868 -0.8167
  643MOL0     C88631   6.988   2.927   5.615  0.8919  0.6841  0.6053
  643MOL0     O88632   6.913   2.819   5.602 -0.3059  0.5603 -0.2504
  643MOL0     C88633   6.873   2.769   5.473  0.0152 -0.2929 -0.5445
  643MOL0     C88634   6.857   2.617   5.482 -0.3818 -0.4378 -0.2559
  643MOL0     C88635   6.822   2.562   5.351 -0.0076  0.2886 -0.4928
  643MOL0     C88636   6.804   2.408   5.351 -0.9556 -0.0375  0.5094
  643MOL0     C88637   6.817   2.361   5.197  0.2076 -0.8219 -0.8274
  643MOL0     C88638   6.696   2.396   5.109  0.7837  0.2719 -0.7834
  643MOL0     C88639   6.570   2.326   5.160  1.0156 -1.0184  0.3562
  643MOL0     C88640   6.453   2.361   5.066 -0.5614  0.5567 -0.0536
  643MOL0    Cl88641   6.417   2.546   5.073 -0.2074 -0.2362 -0.5319
  643MOL0     C88642   6.957   3.047   5.548 -0.0099 -0.0083 -0.4672
  643MOL0     C88643   7.020   3.162   5.589 -1.3315 -0.7340  0.3753
  643MOL0     O88644   6.992   3.312   5.860 -0.1649  0.2716  0.1549
  643MOL0     C88645   7.124   3.527   5.993  0.2939  0.2840 -0.4203
  643MOL0     C88646   7.162   3.650   6.048 -0.3880 -0.3820  0.6915
  643MOL0     N88647   7.739   3.877   6.286 -0.5206 -0.6555 -0.0696
  643MOL0     N88648   7.829   3.816   6.368  0.4334 -0.6234  0.1472
  643MOL0     C88649   7.066   3.207   6.386 -0.2082 -0.2874 -0.7011
  643MOL0     C88650   6.928   3.215   6.371 -1.0341 -0.0542 -0.6008
  643MOL0     C88651   6.487   3.354   6.429  0.4310 -0.4234  0.8625
  643MOL0     C88652   6.489   3.478   6.360 -0.6455 -0.4402  0.0524
  643MOL0     C88653   6.377   3.554   6.375 -0.6490  0.2680 -0.9496
  643MOL0     C88654   6.258   3.506   6.431 -0.2032 -0.2308  0.1743
  643MOL0     O88655   6.157   3.596   6.418  0.8021  0.8760 -0.2987
  643MOL0     C88656   6.055   3.605   6.524  0.5202  0.5056 -0.3957
  643MOL0     C88657   6.046   3.753   6.556  1.0264  0.3590  0.4384
  643MOL0     C88658   6.171   3.833   6.609 -0.2126  0.5958 -0.5044
  643MOL0     C88659   6.227   3.791   6.750  0.5151 -0.5921  1.4876
  643MOL0     C88660   6.289   3.661   6.744 -0.0904  0.2555 -0.7687
  643MOL0     C88661   6.346   3.553   6.743  0.1938  0.1381 -0.1525
  643MOL0     C88662   6.255   3.376   6.486  0.5816 -1.1695  0.3543
  643MOL0     C88663   6.375   3.301   6.496  0.2350  0.4991 -0.6538
  643MOL0     C88664   6.364   3.167   6.580 -0.5708  0.1522  0.1702
  643MOL0     H88665   6.902   3.550   6.409  3.1122  2.1615 -0.3448
  643MOL0     H88666   7.138   3.526   6.451  0.7420 -1.7066  2.2512
  643MOL0     H88667   7.369   3.467   6.428  0.5131  0.5125 -1.6479
  643MOL0     H88668   7.391   3.369   6.288  2.5492 -1.4151 -0.1358
  643MOL0     H88669   7.529   3.299   6.552 -1.2492  3.7014  0.5820
  643MOL0     H88670   7.530   3.197   6.404 -1.8169 -0.0186 -0.5943
  643MOL0     H88671   7.635   3.368   6.267  0.9508 -0.2925 -0.4412
  643MOL0     H88672   7.636   3.484   6.401  2.0170 -0.1964  2.2372
  643MOL0     H88673   7.743   3.308   6.544  1.1120 -1.5092 -0.2269
  643MOL0     H88674   7.779   3.225   6.390 -0.6238  1.7283 -3.2748
  643MOL0     H88675   7.963   3.360   6.480 -0.7135 -0.6874  1.1982
  643MOL0     H88676   7.861   3.512   6.485 -1.0242  0.6975 -2.3096
  643MOL0     H88677   7.936   3.335   6.249 -2.2656 -0.5002  2.3249
  643MOL0     H88678   7.840   3.473   6.236 -3.4401 -2.1224  2.9644
  643MOL0     H88679   8.048   3.541   6.149 -1.6451 -2.8406 -0.8709
  643MOL0     H88680   8.145   3.490   6.288 -1.4858 -0.1724  2.8309
  643MOL0     H88681   8.033   3.665   6.438  1.3383 -1.6727 -0.0453
  643MOL0     H88682   8.128   3.733   6.302  0.4221 -2.7998 -1.4579
  643MOL0     H88683   7.948   3.758   6.064 -1.4842 -0.3981  1.1338
  643MOL0     H88684   7.732   3.833   5.943 -1.8795 -0.7086  0.5483
  643MOL0     H88685   7.735   4.000   6.017 -1.8982  0.5938  0.3943
  643MOL0     H88686   7.510   3.817   6.111 -0.6035  0.1389 -1.3444
  643MOL0     H88687   7.560   3.984   6.131  1.3760  1.5630 -0.3776
  643MOL0     H88688   7.523   4.006   5.873 -0.3857 -0.7403 -0.3558
  643MOL0     H88689   7.486   3.833   5.881  1.8809  1.1481 -1.0502
  643MOL0     H88690   7.340   4.037   6.055  0.3450 -2.1773  1.3221
  643MOL0     H88691   7.280   3.989   5.878  2.9223 -1.7509 -1.8039
  643MOL0     H88692   7.277   3.787   5.767 -2.5183  0.8461 -0.7121
  643MOL0     H88693   7.240   3.460   5.600  1.0922  0.4441 -2.7979
  643MOL0     H88694   7.312   3.618   5.605  1.0053  1.5027  3.5399
  643MOL0     H88695   7.142   3.602   5.553  2.6978 -0.3053 -2.0507
  643MOL0     H88696   7.238   3.043   5.812  1.0311 -1.7139 -0.5361
  643MOL0     H88697   7.128   2.831   5.742  1.0373  1.2412  1.4483
  643MOL0     H88698   6.779   2.813   5.438  0.5052  1.0586 -0.2359
  643MOL0     H88699   6.946   2.791   5.395  0.9631  2.1579  0.9078
  643MOL0     H88700   6.942   2.560   5.521  0.4127  0.8620 -0.0476
  643MOL0     H88701   6.774   2.593   5.549  1.8844 -0.5727  2.6820
  643MOL0     H88702   6.904   2.601   5.290 -0.2049  1.8454  0.1995
  643MOL0     H88703   6.721   2.589   5.320 -0.5533 -2.9701 -2.0854
  643MOL0     H88704   6.715   2.373   5.404 -2.0121  0.5390 -0.8241
  643MOL0     H88705   6.892   2.361   5.396 -0.3697  0.1165 -0.4476
  643MOL0     H88706   6.910   2.387   5.144  0.4868 -1.6154 -0.7353
  643MOL0     H88707   6.827   2.253   5.210 -0.3930 -0.6209  1.7061
  643MOL0     H88708   6.722   2.378   5.005  0.8748  3.3317 -1.4025
  643MOL0     H88709   6.694   2.505   5.116  1.2819  0.1863  2.3478
  643MOL0     H88710   6.559   2.367   5.261 -0.8168 -1.4717  0.3818
  643MOL0     H88711   6.578   2.217   5.162 -0.0648 -1.1071  1.0307
  643MOL0     H88712   6.363   2.309   5.099 -0.0108 -1.3155 -1.3615
  643MOL0     H88713   6.475   2.339   4.962 -2.4560  0.8221 -0.5544
  643MOL0     H88714   6.867   3.050   5.487  0.1617 -1.0326 -0.8038
  643MOL0     H88715   6.980   3.255   5.549  2.4857  1.0402  0.2987
  643MOL0     H88716   7.081   3.451   6.058  2.2433 -1.6002 -1.2009
  643MOL0     H88717   7.139   3.667   6.153 -1.5857 -0.0781  0.4013
  643MOL0     H88718   7.095   3.104   6.398 -0.8160 -0.5529 -1.4156
  643MOL0     H88719   6.869   3.124   6.364 -1.3377 -0.0011  0.9217
  643MOL0     H88720   6.573   3.523   6.308  1.0254 -2.3289  0.9800
  643MOL0     H88721   6.385   3.655   6.338 -2.6984  1.3964  1.3927
  643MOL0     H88722   5.959   3.565   6.492  0.0158 -0.6733  2.3076
  643MOL0     H88723   6.089   3.552   6.614  1.5630  0.2422 -0.9260
  643MOL0     H88724   5.957   3.774   6.616 -0.2471  0.6938 -1.4951
  643MOL0     H88725   6.021   3.813   6.468  0.5451 -0.0884  0.2586
  643MOL0     H88726   6.253   3.831   6.537  1.3034  0.1684  1.1611
  643MOL0     H88727   6.148   3.940   6.617 -0.0240  0.6094 -0.1130
  643MOL0     H88728   6.153   3.786   6.830 -1.6176 -2.6032 -0.4323
  643MOL0     H88729   6.289   3.872   6.787 -0.4817 -0.1316  2.1872
  643MOL0     H88730   6.406   3.465   6.731  0.2041 -0.1832  1.8909
  643MOL0     H88731   6.162   3.345   6.534 -0.5491 -1.8337 -2.1175
  643MOL0     H88732   6.439   3.171   6.660  1.2251 -1.2245 -1.3633
  643MOL0     H88733   6.268   3.161   6.632  0.8551  2.0974  3.2832
  643MOL0     H88734   6.377   3.080   6.515 -2.4727 -1.1526  1.4298
  644MOL0     O88735   9.644   5.274   8.912 -0.1085 -0.0001 -0.3405
  644MOL0     C88736   9.688   5.304   9.026  0.2128 -0.2621  0.0219
  644MOL0     O88737   9.810   5.265   9.082  0.3000  0.1077  0.0713
  644MOL0     C88738   9.900   5.185   9.022  0.6878  0.0375 -1.6241
  644MOL0     C88739   9.860   5.105   8.908 -0.1042 -0.2923 -0.2501
  644MOL0     C88740   9.950   5.012   8.857 -0.7635 -0.1766  0.4085
  644MOL0     C88741  10.087   5.006   8.904 -0.1529 -0.8915  0.0507
  644MOL0     O88742  10.198   4.932   8.846  0.5798  0.1809 -0.6928
  644MOL0     C88743  10.174   4.892   8.706 -0.2293  0.3780 -0.5818
  644MOL0     C88744  10.307   4.901   8.635 -0.7407  0.2645  0.1046
  644MOL0     C88745  10.354   5.052   8.603 -0.7590  0.4829  0.2049
  644MOL0     C88746  10.512   5.056   8.575 -0.2028  0.0378  0.6360
  644MOL0     C88747  10.538   5.201   8.529 -0.0151  0.4305  0.3074
  644MOL0     C88748  10.635   5.280   8.615 -0.0016  0.7266 -0.3972
  644MOL0     C88749  10.615   5.284   8.765 -0.5220 -0.3714  0.2468
  644MOL0     C88750  10.477   5.336   8.816 -0.0556 -0.0908 -0.2494
  644MOL0     N88751  10.433   5.302   8.951  0.4707 -0.1878 -0.6083
  644MOL0     C88752  10.481   5.212   9.041 -0.1033  0.1968  0.2947
  644MOL0     C88753  10.408   5.221   9.151  0.4012 -0.4177 -0.1114
  644MOL0     C88754  10.422   5.115   9.252 -0.7689  0.1363  0.0867
  644MOL0     C88755  10.411   5.185   9.385  0.0214  0.3246  0.2362
  644MOL0     C88756  10.256   5.180   9.425 -0.5203 -0.6443 -0.0085
  644MOL0     C88757  10.241   5.266   9.554 -0.3338  0.2750  0.4035
  644MOL0     O88758  10.269   5.409   9.520 -0.3040  0.2853 -0.1265
  644MOL0     C88759  10.167   5.492   9.546  0.0308 -0.0271  0.5350
  644MOL0     C88760  10.099   5.545   9.434 -1.0791  0.8164 -0.5955
  644MOL0     C88761   9.986   5.629   9.455 -0.4172  0.2027  0.7657
  644MOL0     C88762   9.918   5.684   9.330  0.7164  1.0926  0.7027
  644MOL0     C88763   9.948   5.665   9.583 -0.6355  0.6904 -0.1601
  644MOL0     C88764   9.859   5.774   9.605  0.2264 -0.4923 -0.2604
  644MOL0     O88765   9.832   5.866   9.509 -0.1125 -1.0144 -0.1549
  644MOL0     C88766   9.736   5.964   9.534 -0.5763  0.0882  1.0629
  644MOL0     C88767   9.779   6.100   9.572 -0.2915  0.5896 -0.7417
  644MOL0     C88768   9.681   6.199   9.592 -0.1452 -0.3689 -0.3481
  644MOL0     C88769   9.545   6.173   9.566  0.5549  0.2569 -0.3733
  644MOL0     O88770   9.447   6.270   9.569  0.6102 -0.7247 -0.5227
  644MOL0     C88771   9.311   6.240   9.585  0.4615 -0.5703  0.3485
  644MOL0     C88772   9.229   6.371   9.603 -0.4477  0.5411  0.0513
  644MOL0     C88773   9.068   6.343   9.601 -0.6844  0.7423 -0.5435
  644MOL0     C88774   8.973   6.470   9.580 -0.2359  0.5425 -0.1341
  644MOL0     C88775   8.826   6.463   9.602 -0.4749  0.1713  0.0904
  644MOL0     C88776   8.775   6.373   9.714  0.1132 -0.5586 -0.2041
  644MOL0     C88777   8.622   6.403   9.750  0.4380 -0.2859  0.2909
  644MOL0     C88778   8.552   6.292   9.826 -0.5352  0.2154  0.0460
  644MOL0    Cl88779   8.379   6.303   9.786 -0.0030 -0.0203  0.3800
  644MOL0     C88780   9.511   6.044   9.519  0.5126 -0.5972 -0.2210
  644MOL0     C88781   9.606   5.940   9.492  0.2106  0.5136 -0.5904
  644MOL0     O88782   9.803   5.772   9.716 -0.3631  0.5916 -0.5165
  644MOL0     C88783  10.007   5.606   9.693  0.2272  0.4493 -0.0500
  644MOL0     C88784  10.123   5.515   9.672  0.0511 -0.2322 -0.7730
  644MOL0     N88785  10.329   5.330   9.134  0.3974  0.1488 -0.2554
  644MOL0     N88786  10.340   5.379   9.012  0.2971 -0.5029  0.0667
  644MOL0     C88787  10.108   5.072   9.017  0.3182  0.2577  0.5671
  644MOL0     C88788  10.024   5.164   9.083  0.6477 -0.7225  0.6971
  644MOL0     C88789   9.604   5.383   9.116  0.6701 -0.3027  0.4360
  644MOL0     C88790   9.626   5.383   9.260  0.1738  0.2166 -0.0636
  644MOL0     C88791   9.560   5.467   9.351  0.5989 -0.5795 -0.6110
  644MOL0     C88792   9.445   5.548   9.302 -0.8152 -0.1403 -0.1508
  644MOL0     O88793   9.384   5.623   9.405  0.0667 -0.1230  0.5492
  644MOL0     C88794   9.285   5.723   9.356  1.1041  0.4243  0.4824
  644MOL0     C88795   9.201   5.765   9.476  0.9295 -0.6223 -0.8449
  644MOL0     C88796   9.092   5.867   9.433 -0.7515  0.7572 -0.6403
  644MOL0     C88797   9.020   5.934   9.548  0.1268 -1.1940 -0.5532
  644MOL0     C88798   8.901   6.004   9.501  0.0673 -1.0288  0.3535
  644MOL0     C88799   8.793   6.055   9.479 -0.3225  0.3237  0.3581
  644MOL0     C88800   9.419   5.542   9.164 -0.0690 -0.4468  0.1008
  644MOL0     C88801   9.499   5.472   9.072 -0.5901  0.6453 -0.3287
  644MOL0     C88802   9.459   5.474   8.922 -0.0526  0.4114 -0.8794
  644MOL0     H88803   9.771   5.108   8.847  0.8675  0.7448 -1.6730
  644MOL0     H88804   9.914   4.943   8.781 -0.1186 -0.1761  0.0969
  644MOL0     H88805  10.095   4.938   8.647  0.7212  2.1754 -0.5293
  644MOL0     H88806  10.151   4.786   8.721  0.6056  0.4193  1.3163
  644MOL0     H88807  10.386   4.842   8.681 -0.2234 -0.1353 -1.2549
  644MOL0     H88808  10.285   4.858   8.537  0.5363  0.4667 -0.2819
  644MOL0     H88809  10.295   5.084   8.516 -0.5083 -3.1037 -1.4712
  644MOL0     H88810  10.325   5.111   8.690 -1.2146  2.8536 -1.4509
  644MOL0     H88811  10.571   5.040   8.666  2.3758 -3.0442 -1.3800
  644MOL0     H88812  10.535   4.983   8.498  0.3781  1.0176 -0.1467
  644MOL0     H88813  10.451   5.267   8.534 -1.0952 -1.0201  2.3629
  644MOL0     H88814  10.580   5.192   8.428 -1.8957 -0.3828 -0.4462
  644MOL0     H88815  10.736   5.246   8.593  0.6893 -0.1154  3.4136
  644MOL0     H88816  10.641   5.382   8.577 -0.1039  0.5648 -0.8558
  644MOL0     H88817  10.676   5.365   8.807 -0.2221 -0.4196 -0.0921
  644MOL0     H88818  10.647   5.185   8.800  2.8581 -0.8581 -3.4973
  644MOL0     H88819  10.492   5.443   8.799  1.5616  1.0705  5.9101
  644MOL0     H88820  10.393   5.308   8.753  1.2358 -1.4978 -1.4380
  644MOL0     H88821  10.544   5.127   9.018  3.4012  1.6957  3.3833
  644MOL0     H88822  10.522   5.071   9.253  0.8287  3.4071  1.7498
  644MOL0     H88823  10.356   5.029   9.235  3.2169 -2.9606 -1.3506
  644MOL0     H88824  10.463   5.120   9.456  1.4238 -1.3921 -2.2341
  644MOL0     H88825  10.446   5.289   9.381 -1.8843  0.9609 -2.6800
  644MOL0     H88826  10.197   5.216   9.340 -0.9522 -2.1846 -0.3896
  644MOL0     H88827  10.221   5.079   9.451 -0.3563 -1.1246 -1.5585
  644MOL0     H88828  10.141   5.248   9.594  0.3905 -0.5454  1.9096
  644MOL0     H88829  10.309   5.226   9.629  2.6234 -1.3228 -2.8696
  644MOL0     H88830  10.137   5.536   9.333  1.2650  1.2864  0.1806
  644MOL0     H88831   9.811   5.666   9.336  0.8943 -0.3091  0.0419
  644MOL0     H88832   9.949   5.628   9.241  2.3919  3.0909 -0.0805
  644MOL0     H88833   9.963   5.782   9.312  2.1579  0.6559  1.7469
  644MOL0     H88834   9.883   6.097   9.600 -0.7172 -0.9461  0.8632
  644MOL0     H88835   9.717   6.295   9.628  1.0018 -0.4217 -1.3007
  644MOL0     H88836   9.265   6.193   9.498 -2.5585  1.0369  0.9332
  644MOL0     H88837   9.299   6.170   9.669 -2.3920  0.4148  0.8676
  644MOL0     H88838   9.250   6.430   9.692 -2.5826 -0.1513  1.0667
  644MOL0     H88839   9.245   6.435   9.516 -2.2620  0.9016 -0.0478
  644MOL0     H88840   9.045   6.296   9.697  2.8064 -2.1335 -0.9357
  644MOL0     H88841   9.040   6.262   9.534 -0.5736 -1.4513  1.9062
  644MOL0     H88842   8.987   6.507   9.478  1.1188 -0.6407 -0.4252
  644MOL0     H88843   9.009   6.546   9.650 -1.9047  2.2237 -1.0285
  644MOL0     H88844   8.780   6.562   9.614 -0.8406  0.0007  0.1014
  644MOL0     H88845   8.782   6.420   9.512  0.3004 -0.8104  0.1679
  644MOL0     H88846   8.833   6.388   9.805  1.9035  0.0606 -1.4017
  644MOL0     H88847   8.781   6.270   9.675  2.7682  0.1457 -1.9437
  644MOL0     H88848   8.559   6.414   9.662 -1.4214 -0.3543  1.5654
  644MOL0     H88849   8.623   6.501   9.799  0.6638 -0.4300  0.5762
  644MOL0     H88850   8.578   6.315   9.930 -0.6145  1.1236 -0.1203
  644MOL0     H88851   8.586   6.193   9.797 -0.4535  0.1324  0.4199
  644MOL0     H88852   9.412   6.018   9.485  1.3664 -3.2896 -0.9075
  644MOL0     H88853   9.589   5.850   9.434 -0.3111  1.6821 -2.3362
  644MOL0     H88854   9.981   5.648   9.790  2.1075  0.9094  0.3012
  644MOL0     H88855  10.175   5.483   9.762  4.5282 -2.2283 -3.6950
  644MOL0     H88856  10.211   5.051   9.044  0.4885  0.2701 -0.0424
  644MOL0     H88857  10.049   5.212   9.177 -0.6338  0.2251  0.5739
  644MOL0     H88858   9.697   5.313   9.303  0.0259 -1.4473 -2.3739
  644MOL0     H88859   9.588   5.462   9.455  3.2765 -1.1273 -1.2940
  644MOL0     H88860   9.335   5.804   9.303  1.5943  0.0538  0.3675
  644MOL0     H88861   9.213   5.683   9.284  2.0878 -1.8361  0.6543
  644MOL0     H88862   9.262   5.807   9.556  0.1352 -0.8137 -0.1244
  644MOL0     H88863   9.162   5.671   9.517 -1.4776 -0.5455 -2.7078
  644MOL0     H88864   9.137   5.943   9.368  0.4298 -1.2936 -2.3517
  644MOL0     H88865   9.023   5.799   9.380  0.0307 -0.7399  0.2023
  644MOL0     H88866   9.087   6.005   9.598 -0.1147 -0.6925 -0.9386
  644MOL0     H88867   8.990   5.855   9.617 -0.0849 -2.9535 -2.5759
  644MOL0     H88868   8.708   6.118   9.459 -0.6392 -0.6433 -1.5956
  644MOL0     H88869   9.340   5.599   9.116  0.4844 -0.2187 -0.5622
  644MOL0     H88870   9.429   5.377   8.880 -2.6176 -1.2306  3.9730
  644MOL0     H88871   9.377   5.543   8.900  0.3376  1.7868  1.5907
  644MOL0     H88872   9.545   5.511   8.866 -0.7588  1.3778 -1.3569
  645MOL0     O88873   9.620  10.924   3.941  0.1151 -0.1382 -0.5062
  645MOL0     C88874   9.585  10.935   4.061 -0.4995 -0.5204 -0.3828
  645MOL0     O88875   9.490  11.021   4.117 -0.6891  0.1231 -0.1698
  645MOL0     C88876   9.419  11.094   4.025 -0.5152  0.4392  0.2415
  645MOL0     C88877   9.468  11.175   3.921  0.3760  0.0746 -0.1582
  645MOL0     C88878   9.377  11.243   3.833  0.0371 -0.5604  0.5315
  645MOL0     C88879   9.243  11.228   3.846 -0.2776  1.2700 -1.5825
  645MOL0     O88880   9.155  11.288   3.768  0.0842 -0.4620 -0.1549
  645MOL0     C88881   9.145  11.424   3.805  0.1516 -0.8589 -0.7106
  645MOL0     C88882   9.041  11.488   3.718  0.2585 -0.1209 -0.2016
  645MOL0     C88883   9.020  11.642   3.717 -0.7645 -0.5874 -0.4023
  645MOL0     C88884   8.884  11.664   3.647 -0.0626 -0.6517 -0.6053
  645MOL0     C88885   8.849  11.818   3.655  0.1830  0.6304 -0.1113
  645MOL0     C88886   8.702  11.837   3.620  0.5945  0.0924  0.0242
  645MOL0     C88887   8.640  11.969   3.669  0.7573 -1.2935  0.1258
  645MOL0     C88888   8.491  11.980   3.650  0.5557  0.2714 -0.0349
  645MOL0     N88889   8.441  12.089   3.729 -0.6742  0.3749  1.0167
  645MOL0     C88890   8.310  12.080   3.776 -0.7654 -0.6053  0.8006
  645MOL0     C88891   8.285  12.218   3.795  0.7646 -0.3888  0.0409
  645MOL0     C88892   8.147  12.262   3.856  0.5510 -0.3777  0.1701
  645MOL0     C88893   8.021  12.256   3.758  0.2025  0.5673  0.3459
  645MOL0     C88894   7.881  12.268   3.829  0.6922  0.8490 -0.0441
  645MOL0     C88895   7.860  12.399   3.881 -0.0339 -0.9073  0.2624
  645MOL0     O88896   7.736  12.408   3.949  0.5280 -1.3818 -0.2242
  645MOL0     C88897   7.620  12.461   3.895 -0.3261 -0.3542 -0.0331
  645MOL0     C88898   7.620  12.545   3.778 -0.4179 -0.5203  0.1444
  645MOL0     C88899   7.520  12.637   3.738  0.3916 -0.6189 -0.6435
  645MOL0     C88900   7.548  12.719   3.617  0.6680  0.1580  0.9532
  645MOL0     C88901   7.400  12.647   3.815  0.2686 -0.6055 -0.3612
  645MOL0     C88902   7.302  12.756   3.806 -0.8640  0.3606 -0.2682
  645MOL0     O88903   7.229  12.786   3.917 -0.3097 -0.0571 -0.2101
  645MOL0     C88904   7.118  12.862   3.914  0.5232  0.7366 -0.4326
  645MOL0     C88905   7.001  12.828   3.852 -0.3857 -0.3362 -0.0824
  645MOL0     C88906   6.886  12.907   3.871 -0.6689  0.3030  0.0482
  645MOL0     C88907   6.892  13.028   3.939  0.0341  0.5635 -0.9851
  645MOL0     O88908   6.782  13.111   3.932  0.4715 -0.2751  0.6330
  645MOL0     C88909   6.768  13.225   4.017  0.3646  0.5329  0.5646
  645MOL0     C88910   6.632  13.293   4.045  0.0432 -0.1188  0.6753
  645MOL0     C88911   6.516  13.193   4.035 -0.7450 -0.9499 -0.7224
  645MOL0     C88912   6.526  13.074   4.133  0.6786 -0.4885 -0.5556
  645MOL0     C88913   6.405  12.992   4.156  0.2130  0.2609  0.2677
  645MOL0     C88914   6.319  13.073   4.253 -0.7243  0.1195 -0.7514
  645MOL0     C88915   6.177  13.011   4.260  0.1915 -0.4682 -0.2619
  645MOL0     C88916   6.153  12.901   4.364  1.0918  0.0586  0.0721
  645MOL0    Cl88917   5.974  12.858   4.376 -0.5378  0.0231 -0.5633
  645MOL0     C88918   7.026  13.071   3.999  0.3885  0.7498 -0.2626
  645MOL0     C88919   7.128  12.980   3.988  0.7839  0.8682  0.2486
  645MOL0     O88920   7.304  12.818   3.699 -0.3990  0.6765 -0.4462
  645MOL0     C88921   7.395  12.556   3.932 -0.7648 -0.5788  0.0469
  645MOL0     C88922   7.499  12.466   3.961 -0.2236  0.3001  0.2856
  645MOL0     N88923   8.387  12.297   3.759 -0.5277 -1.5777  0.5561
  645MOL0     N88924   8.479  12.214   3.710 -0.1397  0.1205  0.6371
  645MOL0     C88925   9.196  11.141   3.958  0.7874  1.3165  0.1822
  645MOL0     C88926   9.281  11.071   4.040  0.3686 -1.3273  0.2229
  645MOL0     C88927   9.661  10.857   4.158 -0.2394 -0.2227  0.4296
  645MOL0     C88928   9.595  10.829   4.280 -0.0749  0.3488  0.6048
  645MOL0     C88929   9.646  10.730   4.359  0.2807  0.1380 -0.6178
  645MOL0     C88930   9.757  10.657   4.325  1.3968 -1.1060 -0.8711
  645MOL0     O88931   9.807  10.570   4.416  0.2859  0.7658 -0.2101
  645MOL0     C88932   9.881  10.457   4.358  0.8061 -1.3051 -0.0814
  645MOL0     C88933   9.884  10.342   4.447  0.1752  0.0024  0.7422
  645MOL0     C88934   9.744  10.279   4.464 -0.3295 -0.5727 -0.1445
  645MOL0     C88935   9.741  10.147   4.532  0.1763 -0.7183  0.4140
  645MOL0     C88936   9.804  10.152   4.660  0.1989  0.0579 -0.8621
  645MOL0     C88937   9.859  10.153   4.770 -0.3070 -0.1220  0.4088
  645MOL0     C88938   9.828  10.695   4.207  0.1369 -0.2732 -0.9352
  645MOL0     C88939   9.780  10.787   4.118 -0.1071  0.1836  0.1482
  645MOL0     C88940   9.859  10.812   3.995 -0.7295 -1.2293 -0.6584
  645MOL0     H88941   9.574  11.195   3.908 -0.0878  2.4906 -0.7985
  645MOL0     H88942   9.415  11.288   3.741 -2.7638 -2.4441 -1.7416
  645MOL0     H88943   9.239  11.472   3.777 -0.8459  2.4997  1.1682
  645MOL0     H88944   9.131  11.420   3.914  1.5364 -1.3677 -0.5282
  645MOL0     H88945   9.078  11.466   3.618 -0.0613  2.9186 -1.0786
  645MOL0     H88946   8.945  11.435   3.729  0.9737 -1.1876  1.2206
  645MOL0     H88947   9.032  11.673   3.821 -0.7381 -2.1705  0.0872
  645MOL0     H88948   9.104  11.693   3.667  2.0561 -2.1553  2.4031
  645MOL0     H88949   8.900  11.633   3.543  0.9725  1.2134 -1.0430
  645MOL0     H88950   8.804  11.608   3.697  0.1178 -1.6833 -1.4425
  645MOL0     H88951   8.919  11.874   3.593  1.2296 -0.5534 -0.0464
  645MOL0     H88952   8.871  11.850   3.757 -2.8624 -2.7717  1.8769
  645MOL0     H88953   8.676  11.828   3.514  0.0309  1.7831 -0.0103
  645MOL0     H88954   8.640  11.770   3.681  1.9784 -0.2156  1.1596
  645MOL0     H88955   8.685  12.044   3.604 -0.1914 -1.3324 -0.5892
  645MOL0     H88956   8.667  11.993   3.772 -0.4011  0.6351  0.0242
  645MOL0     H88957   8.470  11.995   3.544  1.5140 -3.5559 -0.9286
  645MOL0     H88958   8.437  11.892   3.686 -0.9093  1.5212  0.9737
  645MOL0     H88959   8.239  11.998   3.781  0.1220 -1.5876 -1.2268
  645MOL0     H88960   8.142  12.362   3.899 -2.3276 -1.1181  1.8101
  645MOL0     H88961   8.135  12.191   3.938  3.0730 -0.4981  0.5245
  645MOL0     H88962   8.023  12.329   3.677  2.8576 -2.0744 -2.2164
  645MOL0     H88963   8.026  12.159   3.707 -2.7645  0.2529  0.4727
  645MOL0     H88964   7.806  12.232   3.757  0.4028 -1.3464  1.2583
  645MOL0     H88965   7.872  12.196   3.911  2.1121  0.8620  0.1424
  645MOL0     H88966   7.928  12.411   3.966  2.0711  1.0374 -1.5742
  645MOL0     H88967   7.875  12.474   3.803 -1.8018 -1.3597 -0.5724
  645MOL0     H88968   7.704  12.536   3.710 -2.0260 -0.7585 -1.9279
  645MOL0     H88969   7.651  12.702   3.583  0.8236 -0.6965  1.8222
  645MOL0     H88970   7.546  12.827   3.630  2.4108  0.5677 -1.4171
  645MOL0     H88971   7.488  12.696   3.528  0.5801 -0.1717  1.0953
  645MOL0     H88972   6.997  12.739   3.789  0.5548 -0.6610  0.2821
  645MOL0     H88973   6.799  12.872   3.816 -1.1610 -0.8679  1.5038
  645MOL0     H88974   6.804  13.199   4.117  2.5040  0.7333 -0.0979
  645MOL0     H88975   6.842  13.298   3.983  0.2354  0.6630  0.5589
  645MOL0     H88976   6.622  13.355   4.134 -0.0396  2.0171 -0.7331
  645MOL0     H88977   6.621  13.359   3.958  2.2110 -0.9592 -0.3032
  645MOL0     H88978   6.512  13.156   3.932 -0.1255 -3.4469  0.0756
  645MOL0     H88979   6.431  13.259   4.053 -0.5846 -0.7920 -0.5430
  645MOL0     H88980   6.563  13.102   4.232  0.5982 -1.1759 -0.3227
  645MOL0     H88981   6.594  13.008   4.078  0.2191 -1.0690 -0.4318
  645MOL0     H88982   6.358  12.986   4.057 -0.2598 -0.4329  0.5286
  645MOL0     H88983   6.426  12.891   4.192 -0.7987 -0.0882 -0.0880
  645MOL0     H88984   6.306  13.173   4.211  0.4843  0.9599  0.7605
  645MOL0     H88985   6.367  13.086   4.350 -0.5228 -3.5470 -0.2228
  645MOL0     H88986   6.146  12.984   4.158 -1.7900 -1.7381  0.6078
  645MOL0     H88987   6.103  13.082   4.298 -0.4291 -1.9652  1.4854
  645MOL0     H88988   6.192  12.939   4.459 -0.0463  1.2455  0.0921
  645MOL0     H88989   6.195  12.805   4.331  0.3846 -1.1464  2.4286
  645MOL0     H88990   7.056  13.166   4.041  0.8551 -0.2142  1.6905
  645MOL0     H88991   7.226  12.997   4.031  1.2359 -0.0114 -0.3797
  645MOL0     H88992   7.310  12.572   3.998 -0.3699 -0.7518  0.5986
  645MOL0     H88993   7.504  12.410   4.054 -1.0520 -1.2561 -0.5579
  645MOL0     H88994   9.088  11.138   3.948  0.9992 -1.7243 -2.9810
  645MOL0     H88995   9.234  11.004   4.111 -0.4194  1.9635  3.0685
  645MOL0     H88996   9.499  10.871   4.308 -0.4233 -1.9131  3.2567
  645MOL0     H88997   9.608  10.700   4.456  0.6820 -1.6927 -0.9980
  645MOL0     H88998   9.843  10.426   4.260 -1.2129 -1.7405  0.7887
  645MOL0     H88999   9.985  10.490   4.349  0.0814  1.1399 -0.0791
  645MOL0     H89000   9.923  10.377   4.543 -0.5385 -2.4123  2.0010
  645MOL0     H89001   9.950  10.267   4.405 -0.2275 -0.2384  0.5363
  645MOL0     H89002   9.687  10.345   4.530  0.5907  1.9355 -1.6988
  645MOL0     H89003   9.691  10.287   4.369 -0.0623  1.1351 -0.1986
  645MOL0     H89004   9.783  10.083   4.454  1.0831  1.8668 -1.3708
  645MOL0     H89005   9.639  10.111   4.547  0.5142 -1.0157  2.2184
  645MOL0     H89006   9.915  10.150   4.861  3.0859 -5.1921 -1.3633
  645MOL0     H89007   9.927  10.650   4.200  0.7020  0.9088 -0.8295
  645MOL0     H89008   9.809  10.765   3.910  2.6048 -5.2644 -0.7377
  645MOL0     H89009   9.882  10.917   3.978 -1.0706 -0.6401  2.0131
  645MOL0     H89010   9.954  10.757   3.996  0.8233  1.2801 -0.3128
  646MOL0     O89011   5.109   4.072   8.940  0.4797  0.8168  0.3231
  646MOL0     C89012   4.996   4.078   8.998 -0.2023  0.4855  0.0139
  646MOL0     O89013   4.966   4.031   9.124 -0.6381  0.4651  0.7384
  646MOL0     C89014   5.073   3.978   9.201 -0.0925 -0.1665  0.3401
  646MOL0     C89015   5.186   4.060   9.231  0.6038  0.7713 -0.0133
  646MOL0     C89016   5.289   3.994   9.302 -0.0429  0.5391 -0.2938
  646MOL0     C89017   5.283   3.867   9.360  1.5260  0.1203 -1.1612
  646MOL0     O89018   5.378   3.807   9.434 -0.0894  0.5459 -0.2856
  646MOL0     C89019   5.495   3.879   9.470 -0.5660  1.0360  0.6548
  646MOL0     C89020   5.591   3.777   9.524 -0.1085  0.3476  0.6638
  646MOL0     C89021   5.591   3.732   9.662 -0.5447  1.0816 -0.3469
  646MOL0     C89022   5.727   3.753   9.737  0.5946  0.1683 -1.0047
  646MOL0     C89023   5.751   3.914   9.752 -0.3402 -0.1575 -0.6320
  646MOL0     C89024   5.882   3.949   9.826 -0.5564  0.0632 -0.2745
  646MOL0     C89025   5.879   3.928   9.978 -0.8762 -0.2874  0.5817
  646MOL0     C89026   5.812   4.030  10.060  0.1458  0.4136  0.4166
  646MOL0     N89027   5.800   3.996  10.197 -0.5242  0.0032 -0.5746
  646MOL0     C89028   5.905   4.004  10.288  0.0965  1.0458  0.9650
  646MOL0     C89029   5.855   3.951  10.405  0.3089  0.5133  0.4016
  646MOL0     C89030   5.942   3.932  10.527 -0.5238 -1.4231 -1.4544
  646MOL0     C89031   5.968   4.061  10.611 -0.9598 -0.8184  0.1906
  646MOL0     C89032   5.874   4.065  10.722  0.4226  0.5453  0.0646
  646MOL0     C89033   5.942   4.014  10.846  0.6397 -0.9687 -0.6584
  646MOL0     O89034   6.024   4.127  10.895 -0.7382 -0.4053  0.2183
  646MOL0     C89035   6.157   4.100  10.910 -0.7663  0.2660 -0.6369
  646MOL0     C89036   6.212   3.985  10.967  0.0525 -0.3197 -1.0492
  646MOL0     C89037   6.348   3.966  10.986 -0.4934  0.4771 -0.0516
  646MOL0     C89038   6.394   3.841  11.069  0.1289  0.1625  0.7158
  646MOL0     C89039   6.439   4.065  10.935 -0.3992 -1.0461 -0.4155
  646MOL0     C89040   6.595   4.069  10.945 -0.0397  0.4038 -0.0258
  646MOL0     O89041   6.653   4.192  10.928  0.4666 -0.8966  0.1356
  646MOL0     C89042   6.788   4.204  10.941 -0.0055 -1.1007 -0.5086
  646MOL0     C89043   6.847   4.284  11.047 -0.4925 -0.3892 -0.4567
  646MOL0     C89044   6.986   4.307  11.053 -0.0303 -0.3891  0.1559
  646MOL0     C89045   7.075   4.256  10.956  0.5452  0.8324 -0.3684
  646MOL0     O89046   7.199   4.293  10.969 -0.9392  0.0182 -0.2119
  646MOL0     C89047   7.310   4.209  10.917  0.4816 -0.5893 -0.2535
  646MOL0     C89048   7.341   4.073  10.973 -0.1561  1.1418  0.1216
  646MOL0     C89049   7.354   4.080  11.134 -0.1630  0.7373  0.3854
  646MOL0     C89050   7.473   4.158  11.184 -0.5157  0.3892  0.4773
  646MOL0     C89051   7.596   4.079  11.203  0.4220  0.1929  0.1373
  646MOL0     C89052   7.709   4.140  11.290  0.8484  0.3085 -0.1212
  646MOL0     C89053   7.667   4.163  11.431  0.7545 -0.5098 -0.6354
  646MOL0     C89054   7.778   4.196  11.527 -0.0959  0.3151 -0.2941
  646MOL0    Cl89055   7.891   4.053  11.580  0.5121  0.4297 -0.2281
  646MOL0     C89056   7.023   4.190  10.843 -0.1087 -0.5814  0.5403
  646MOL0     C89057   6.881   4.155  10.847 -0.4653 -0.5290  0.2553
  646MOL0     O89058   6.651   3.967  10.986  0.0357 -0.0168 -0.3291
  646MOL0     C89059   6.380   4.178  10.876 -0.8364 -0.0176 -0.4105
  646MOL0     C89060   6.241   4.192  10.861  0.2753 -0.1185  0.3951
  646MOL0     N89061   5.725   3.914  10.384  0.7791 -0.4475  0.2048
  646MOL0     N89062   5.685   3.944  10.261  0.6572 -1.0780  0.5047
  646MOL0     C89063   5.160   3.797   9.336 -0.1446  0.6241 -0.3808
  646MOL0     C89064   5.065   3.851   9.259 -0.5897 -0.4649 -0.4315
  646MOL0     C89065   4.887   4.127   8.920 -0.3272 -0.2113 -0.4946
  646MOL0     C89066   4.891   4.106   8.773 -0.4700  0.4115 -0.3305
  646MOL0     C89067   4.803   4.165   8.688  0.0956 -0.6079 -0.1043
  646MOL0     C89068   4.699   4.236   8.730  0.0701  0.5203  0.1928
  646MOL0     O89069   4.610   4.278   8.635  0.1861 -0.6186  0.4209
  646MOL0     C89070   4.504   4.373   8.671 -0.1527  0.0191 -0.1393
  646MOL0     C89071   4.450   4.444   8.540  0.4851  0.4466 -0.8413
  646MOL0     C89072   4.554   4.507   8.436  0.3952 -0.0374 -0.4176
  646MOL0     C89073   4.487   4.574   8.316 -0.7535 -0.3421  0.4364
  646MOL0     C89074   4.414   4.690   8.366  0.4297  0.2103 -0.8580
  646MOL0     C89075   4.357   4.790   8.403  0.7444 -0.2597 -0.5997
  646MOL0     C89076   4.686   4.253   8.869 -0.1285  0.3483 -0.1228
  646MOL0     C89077   4.774   4.204   8.965 -0.4270  0.8114 -0.8631
  646MOL0     C89078   4.729   4.215   9.105  0.8433 -0.4676  0.2094
  646MOL0     H89079   5.198   4.162   9.195  0.9326  0.5415 -0.5762
  646MOL0     H89080   5.377   4.057   9.295 -0.2702  0.6950 -5.7118
  646MOL0     H89081   5.477   3.957   9.543 -0.7917  2.7717 -1.1732
  646MOL0     H89082   5.539   3.920   9.379  1.4243  2.2130  2.0785
  646MOL0     H89083   5.587   3.690   9.458  0.1578 -0.0389  1.1559
  646MOL0     H89084   5.685   3.827   9.498  2.5513 -4.1686  0.6330
  646MOL0     H89085   5.509   3.769   9.725  1.5616  0.6622  2.8780
  646MOL0     H89086   5.578   3.624   9.664  0.2615  0.9395  2.5081
  646MOL0     H89087   5.730   3.702   9.833 -1.3884  0.7730 -0.5793
  646MOL0     H89088   5.817   3.717   9.685  1.3747 -1.5479  1.3781
  646MOL0     H89089   5.673   3.968   9.807 -1.0005 -0.1707 -1.5231
  646MOL0     H89090   5.763   3.951   9.650 -0.2482  2.0371  0.1363
  646MOL0     H89091   5.963   3.886   9.789 -0.0276 -0.2051  1.2529
  646MOL0     H89092   5.923   4.049   9.807 -3.3029  0.7645 -3.3179
  646MOL0     H89093   5.980   3.920  10.020 -1.0159 -2.3740  0.6171
  646MOL0     H89094   5.837   3.830  10.001  1.3905 -2.3400 -2.9604
  646MOL0     H89095   5.853   4.131  10.051  0.3043  0.4075  1.0418
  646MOL0     H89096   5.711   4.043  10.019 -0.8999  0.0951  2.7447
  646MOL0     H89097   6.006   4.037  10.265  1.2320  0.2396  4.3061
  646MOL0     H89098   6.035   3.883  10.497 -0.6213 -2.2212 -0.5306
  646MOL0     H89099   5.896   3.860  10.596 -0.3494 -1.2055 -1.1079
  646MOL0     H89100   6.073   4.063  10.639 -1.2178 -0.0834  1.1852
  646MOL0     H89101   5.941   4.149  10.552 -0.7108 -3.1859 -3.7462
  646MOL0     H89102   5.842   4.167  10.746  1.8075  1.1908 -0.6994
  646MOL0     H89103   5.786   4.008  10.689  1.1752 -0.3029 -0.5106
  646MOL0     H89104   5.878   3.984  10.929  1.9896  0.1530  0.8675
  646MOL0     H89105   6.007   3.929  10.821  2.0013 -0.3096  0.5034
  646MOL0     H89106   6.133   3.923  11.008  1.4311 -1.5435 -0.1457
  646MOL0     H89107   6.475   3.781  11.028 -0.2741 -1.6866  2.4553
  646MOL0     H89108   6.312   3.773  11.096  2.2463 -3.2797 -0.8163
  646MOL0     H89109   6.427   3.882  11.165  1.8822 -1.3190  0.8005
  646MOL0     H89110   6.784   4.334  11.120  2.7424  1.2100  1.4690
  646MOL0     H89111   7.020   4.364  11.139 -3.3593  0.8388  0.8262
  646MOL0     H89112   7.302   4.204  10.808 -1.1473  0.3431 -0.2186
  646MOL0     H89113   7.397   4.274  10.929  0.2924  0.0135 -1.9377
  646MOL0     H89114   7.270   4.002  10.929  1.0106  2.4322 -4.4365
  646MOL0     H89115   7.432   4.031  10.929 -1.3764 -2.1113  0.4501
  646MOL0     H89116   7.372   3.975  11.160  1.0209  0.2412 -2.1853
  646MOL0     H89117   7.257   4.118  11.167  0.6262  2.0761  1.2610
  646MOL0     H89118   7.440   4.196  11.281  0.1275  3.8422 -0.5459
  646MOL0     H89119   7.485   4.236  11.109  3.1016 -2.7396 -2.6524
  646MOL0     H89120   7.585   3.978  11.243 -0.7962  0.5414  0.7355
  646MOL0     H89121   7.644   4.069  11.105 -0.1968  1.6793 -0.3517
  646MOL0     H89122   7.726   4.237  11.243 -1.6277  1.1513  0.5624
  646MOL0     H89123   7.792   4.069  11.293 -1.2385 -2.2596  0.9662
  646MOL0     H89124   7.606   4.076  11.458  1.0772 -0.8695 -1.0423
  646MOL0     H89125   7.590   4.241  11.436 -0.2444 -1.4759 -0.5305
  646MOL0     H89126   7.722   4.224  11.616 -2.7467  2.5889 -2.4826
  646MOL0     H89127   7.825   4.285  11.484 -3.4815  2.3187 -0.1941
  646MOL0     H89128   7.080   4.154  10.758  0.2562 -0.7502  0.8500
  646MOL0     H89129   6.843   4.094  10.766 -0.0297  0.2588 -0.5532
  646MOL0     H89130   6.443   4.255  10.833  2.2233 -1.9537  0.3081
  646MOL0     H89131   6.201   4.286  10.825 -1.4054 -1.1128 -0.4626
  646MOL0     H89132   5.141   3.702   9.384  0.4121  0.1214 -1.1423
  646MOL0     H89133   4.971   3.801   9.238 -0.5283 -1.9929  2.4622
  646MOL0     H89134   4.976   4.060   8.724  0.6408  0.9774  0.9730
  646MOL0     H89135   4.808   4.150   8.580 -1.8687  0.1706 -0.3467
  646MOL0     H89136   4.417   4.323   8.715  0.8238 -0.7990  0.9345
  646MOL0     H89137   4.541   4.456   8.731  1.5727 -1.2882  0.7149
  646MOL0     H89138   4.380   4.517   8.580  0.2063 -0.6402  0.7779
  646MOL0     H89139   4.389   4.362   8.499  3.4642 -2.2983 -0.2314
  646MOL0     H89140   4.608   4.584   8.492 -3.5095  1.8954  1.0558
  646MOL0     H89141   4.621   4.427   8.404 -0.5827 -1.2072  0.3875
  646MOL0     H89142   4.417   4.501   8.274  0.0375  0.1070 -1.8035
  646MOL0     H89143   4.550   4.587   8.227 -2.3565 -0.7673 -0.8086
  646MOL0     H89144   4.293   4.872   8.430  2.3012  0.7618  0.2202
  646MOL0     H89145   4.601   4.312   8.903 -1.5023 -1.4843 -0.1986
  646MOL0     H89146   4.705   4.118   9.150  1.0247  0.9103  3.5226
  646MOL0     H89147   4.792   4.275   9.171  4.1211 -1.4582 -1.8069
  646MOL0     H89148   4.642   4.281   9.112 -0.2311 -1.5781 -1.7105
  647MOL0     O89149   3.830   9.446   5.098  0.1654  0.2809 -0.7500
  647MOL0     C89150   3.734   9.393   5.049  0.6267  0.7822  0.5965
  647MOL0     O89151   3.641   9.309   5.112  0.1516  0.5629 -0.1502
  647MOL0     C89152   3.684   9.243   5.227  0.3555 -0.5747  0.1267
  647MOL0     C89153   3.583   9.249   5.327  0.4536 -0.9484  0.3810
  647MOL0     C89154   3.594   9.165   5.434  0.4764 -0.1091  0.4858
  647MOL0     C89155   3.703   9.093   5.460  0.4071  0.4638  0.8330
  647MOL0     O89156   3.707   9.039   5.587 -0.1233  0.1608 -0.2395
  647MOL0     C89157   3.746   8.894   5.584 -0.9897 -0.2818 -1.1070
  647MOL0     C89158   3.730   8.844   5.723  0.2558  0.2068 -0.7106
  647MOL0     C89159   3.582   8.857   5.762  1.0419 -0.3805 -0.2589
  647MOL0     C89160   3.493   8.762   5.687 -0.2620  0.7922 -0.7215
  647MOL0     C89161   3.342   8.772   5.739 -0.4587 -1.1860 -0.1396
  647MOL0     C89162   3.246   8.700   5.649  0.1855 -0.7376 -0.5753
  647MOL0     C89163   3.109   8.683   5.716  0.0665  0.3278 -0.6656
  647MOL0     C89164   2.992   8.704   5.623  0.4665 -0.2970  0.6281
  647MOL0     N89165   2.970   8.838   5.576  0.1992 -0.5976 -0.7050
  647MOL0     C89166   2.968   8.958   5.649  0.6472 -0.4117  0.0954
  647MOL0     C89167   2.902   9.033   5.554 -0.8219 -0.4337 -0.5579
  647MOL0     C89168   2.863   9.184   5.585 -0.1621  0.3535  0.4325
  647MOL0     C89169   2.714   9.201   5.605 -0.3922 -0.3096  0.0174
  647MOL0     C89170   2.654   9.125   5.733  0.3821  0.9402  0.1039
  647MOL0     C89171   2.504   9.121   5.750 -0.3801  0.8835  0.5513
  647MOL0     O89172   2.458   9.243   5.811  0.7934  0.0664  0.8073
  647MOL0     C89173   2.319   9.246   5.822 -0.3165 -0.3330 -0.8783
  647MOL0     C89174   2.268   9.332   5.929 -0.6299  0.2695  0.6928
  647MOL0     C89175   2.131   9.360   5.954 -0.7486 -0.3151  0.0182
  647MOL0     C89176   2.111   9.438   6.080 -0.3681  0.1341 -0.6223
  647MOL0     C89177   2.033   9.299   5.868  0.1210  0.2620  0.3156
  647MOL0     C89178   1.888   9.327   5.872  0.5427  0.4169  0.3496
  647MOL0     O89179   1.804   9.235   5.820  0.2150 -0.1257  0.5094
  647MOL0     C89180   1.671   9.249   5.804  0.0289 -1.3973  0.0191
  647MOL0     C89181   1.608   9.138   5.749 -0.2984  0.0194 -0.4272
  647MOL0     C89182   1.475   9.127   5.731  0.4167  0.4728  0.1605
  647MOL0     C89183   1.397   9.232   5.750  0.6600  0.4488  0.5321
  647MOL0     O89184   1.259   9.239   5.724  0.7584  0.3054 -0.0610
  647MOL0     C89185   1.184   9.117   5.714 -0.1249  0.4869  1.5407
  647MOL0     C89186   1.038   9.161   5.722  0.4450  0.8546 -0.1788
  647MOL0     C89187   1.006   9.256   5.603 -0.3366 -0.5197  1.0487
  647MOL0     C89188   0.917   9.187   5.500 -0.0681  0.6582  0.1371
  647MOL0     C89189   0.867   9.280   5.402  0.6241  0.5543  0.9529
  647MOL0     C89190   0.791   9.199   5.309  0.0474  0.1415  0.3480
  647MOL0     C89191   0.705   9.283   5.214 -0.0860 -0.3505 -0.0075
  647MOL0     C89192   0.761   9.304   5.067  0.0461 -0.0200 -0.7048
  647MOL0    Cl89193   0.669   9.409   4.959  0.3405 -0.1568  0.0243
  647MOL0     C89194   1.447   9.352   5.801 -0.0450  0.0412 -0.2977
  647MOL0     C89195   1.590   9.361   5.824  0.9068 -0.4696  0.1801
  647MOL0     O89196   1.853   9.431   5.928  0.1032 -0.2523  0.8552
  647MOL0     C89197   2.085   9.211   5.765  0.1781 -0.5427  1.2713
  647MOL0     C89198   2.218   9.185   5.743 -1.0046 -0.0249 -0.3188
  647MOL0     N89199   2.871   8.970   5.439  0.0972 -0.1094  0.7330
  647MOL0     N89200   2.912   8.851   5.456 -0.3642 -0.4446  0.4278
  647MOL0     C89201   3.815   9.105   5.363  0.3374  0.4138 -0.4549
  647MOL0     C89202   3.805   9.174   5.239 -0.4343  0.5778  0.3288
  647MOL0     C89203   3.711   9.431   4.906  0.4119  0.0783  0.3793
  647MOL0     C89204   3.705   9.561   4.878 -0.8737 -1.4057  0.6668
  647MOL0     C89205   3.660   9.598   4.750 -0.2874 -0.1264 -0.9796
  647MOL0     C89206   3.608   9.508   4.653  0.3233  0.5983  0.3116
  647MOL0     O89207   3.568   9.561   4.538 -0.1114 -0.6163  0.0903
  647MOL0     C89208   3.517   9.479   4.446  0.6934 -0.6368  0.3394
  647MOL0     C89209   3.447   9.549   4.325 -0.0432 -0.0377 -0.0291
  647MOL0     C89210   3.551   9.612   4.232 -0.4519 -0.8865  0.9802
  647MOL0     C89211   3.508   9.605   4.087 -0.0403 -0.4240  0.4083
  647MOL0     C89212   3.404   9.701   4.053 -1.1031 -0.0326 -0.2859
  647MOL0     C89213   3.319   9.784   4.032  0.2435  0.6429  0.6383
  647MOL0     C89214   3.618   9.377   4.697  0.3921  0.4965 -0.7755
  647MOL0     C89215   3.662   9.333   4.819 -0.6862  0.2217 -0.9123
  647MOL0     C89216   3.655   9.192   4.842  0.2700 -0.3668  1.1372
  647MOL0     H89217   3.493   9.305   5.304  1.8506 -0.0285 -3.7453
  647MOL0     H89218   3.508   9.169   5.499  1.0384  3.0655  1.1992
  647MOL0     H89219   3.854   8.895   5.565 -0.9313 -1.2833 -0.9098
  647MOL0     H89220   3.702   8.831   5.506  0.9388 -2.2463 -0.7218
  647MOL0     H89221   3.774   8.744   5.729 -2.7907 -1.4970 -3.3871
  647MOL0     H89222   3.777   8.908   5.798 -3.0441  0.6866  1.1622
  647MOL0     H89223   3.574   8.847   5.871 -3.6248 -3.6554 -0.6082
  647MOL0     H89224   3.540   8.954   5.738  1.9464 -0.1081 -0.7931
  647MOL0     H89225   3.490   8.787   5.580 -1.3126  1.9546 -0.4370
  647MOL0     H89226   3.538   8.664   5.706  1.2481  2.1533  4.2714
  647MOL0     H89227   3.326   8.879   5.728 -1.0156 -1.3629 -1.2013
  647MOL0     H89228   3.328   8.737   5.842 -3.4698 -2.7264 -0.9770
  647MOL0     H89229   3.238   8.765   5.562  1.5916 -1.2822 -1.1468
  647MOL0     H89230   3.276   8.602   5.611 -3.3487 -1.8981 -0.7689
  647MOL0     H89231   3.095   8.764   5.788  1.1148  0.9668 -1.1601
  647MOL0     H89232   3.103   8.582   5.757  1.1092  0.2048 -0.8107
  647MOL0     H89233   2.994   8.640   5.535 -1.4254 -0.0064  0.3315
  647MOL0     H89234   2.899   8.677   5.675 -0.2264  2.2438  0.8336
  647MOL0     H89235   3.016   8.983   5.743 -0.3379  2.0329  0.0175
  647MOL0     H89236   2.903   9.234   5.496  1.4062 -2.5587 -0.6601
  647MOL0     H89237   2.909   9.216   5.679 -2.0952 -1.0422  1.9344
  647MOL0     H89238   2.693   9.308   5.613 -1.0162 -0.4613  0.4944
  647MOL0     H89239   2.663   9.170   5.513  0.0141  1.3494 -0.7975
  647MOL0     H89240   2.682   9.019   5.726  0.8252  1.0848 -0.3686
  647MOL0     H89241   2.712   9.165   5.816  1.2180  1.5501 -0.7495
  647MOL0     H89242   2.454   9.114   5.653 -1.3144  1.5420  0.9760
  647MOL0     H89243   2.466   9.037   5.809 -2.6652 -0.3001 -2.3524
  647MOL0     H89244   2.348   9.375   5.988  0.4386  1.7906 -1.7259
  647MOL0     H89245   2.204   9.446   6.137 -0.5901  0.7965 -0.3464
  647MOL0     H89246   2.039   9.385   6.143  0.8318 -1.5872 -0.6149
  647MOL0     H89247   2.083   9.541   6.057 -3.0746 -0.6686 -1.2440
  647MOL0     H89248   1.675   9.058   5.717  3.0117  1.0335  3.1763
  647MOL0     H89249   1.440   9.037   5.683  2.7255  0.5409 -1.8500
  647MOL0     H89250   1.193   9.072   5.615  0.7025  0.0403  1.8100
  647MOL0     H89251   1.203   9.034   5.783  0.2412 -4.4544 -3.7294
  647MOL0     H89252   0.968   9.080   5.742  1.0436  0.6507  1.2788
  647MOL0     H89253   1.029   9.217   5.816  0.4485 -2.2462  1.8216
  647MOL0     H89254   1.089   9.301   5.548 -1.0372 -1.9216 -1.3126
  647MOL0     H89255   0.952   9.342   5.644  0.1192  0.0368  0.5047
  647MOL0     H89256   0.834   9.138   5.554 -2.0956  2.6779 -0.9807
  647MOL0     H89257   0.984   9.123   5.441 -0.2050  0.0932  0.5777
  647MOL0     H89258   0.807   9.349   5.461 -0.4232 -1.5594  2.4733
  647MOL0     H89259   0.947   9.338   5.355  2.2682 -1.7931  0.7134
  647MOL0     H89260   0.737   9.121   5.363  0.2840 -0.1530  0.1642
  647MOL0     H89261   0.862   9.153   5.239  0.3007  0.9456  0.0718
  647MOL0     H89262   0.688   9.382   5.258  1.8523 -1.0040  2.4282
  647MOL0     H89263   0.604   9.239   5.212 -0.6531  0.8344  1.4275
  647MOL0     H89264   0.795   9.214   5.015  1.4183  1.1969 -2.0174
  647MOL0     H89265   0.856   9.353   5.092  0.0705 -0.0168 -0.8026
  647MOL0     H89266   1.384   9.436   5.827  0.0159  0.0621 -0.2186
  647MOL0     H89267   1.633   9.451   5.867 -0.4012  0.6232 -0.7145
  647MOL0     H89268   2.013   9.174   5.692 -1.3768  3.9822  0.1922
  647MOL0     H89269   2.238   9.107   5.670  0.5691  1.1527 -1.2271
  647MOL0     H89270   3.912   9.058   5.367  0.0803 -0.0711  0.2006
  647MOL0     H89271   3.879   9.161   5.161 -1.1557  0.1812 -0.3056
  647MOL0     H89272   3.734   9.631   4.956  0.0077  0.1883 -1.0015
  647MOL0     H89273   3.667   9.704   4.727  0.5808 -0.8036 -4.4037
  647MOL0     H89274   3.581   9.404   4.398  0.8321  0.0090 -0.5190
  647MOL0     H89275   3.432   9.433   4.495 -0.9164  1.5509 -0.2433
  647MOL0     H89276   3.383   9.629   4.362 -0.5214  0.1820 -1.2985
  647MOL0     H89277   3.387   9.475   4.271 -0.1772 -1.7399  2.2968
  647MOL0     H89278   3.558   9.717   4.260 -2.1358 -0.4923  0.1021
  647MOL0     H89279   3.653   9.575   4.245  1.1696  3.2314  1.3948
  647MOL0     H89280   3.482   9.502   4.059 -1.6588  0.2967 -0.8759
  647MOL0     H89281   3.605   9.613   4.036 -0.0330 -2.1909  0.0440
  647MOL0     H89282   3.236   9.845   4.004  2.9265  3.1691 -2.5468
  647MOL0     H89283   3.565   9.308   4.633  0.8535 -2.4362  1.7710
  647MOL0     H89284   3.683   9.135   4.754  1.5955  1.7757  0.0834
  647MOL0     H89285   3.728   9.156   4.915  0.4538 -0.3826  0.9458
  647MOL0     H89286   3.554   9.162   4.873 -0.4509 -0.2296 -0.9489
  648MOL0     O89287   3.790   6.869   5.748 -0.0337  0.7028  0.7643
  648MOL0     C89288   3.882   6.886   5.831  0.3682  0.9293  0.4119
  648MOL0     O89289   3.998   6.812   5.836  0.3183 -0.0692 -0.4472
  648MOL0     C89290   4.015   6.702   5.756  0.3561  0.3721 -0.3205
  648MOL0     C89291   3.989   6.571   5.812 -0.3865 -0.0540  0.4824
  648MOL0     C89292   4.036   6.458   5.740 -0.3753 -1.4176 -0.6087
  648MOL0     C89293   4.103   6.470   5.618 -0.5552 -1.2046 -0.6567
  648MOL0     O89294   4.150   6.360   5.553 -0.7919  0.1717  0.5873
  648MOL0     C89295   4.137   6.230   5.608 -0.4136 -1.0883 -0.1322
  648MOL0     C89296   4.179   6.142   5.492  0.4563 -1.3008  0.0820
  648MOL0     C89297   4.073   6.127   5.388 -0.0633 -0.2646  0.1770
  648MOL0     C89298   4.095   6.002   5.306  0.0731  0.3052  0.7838
  648MOL0     C89299   3.968   5.962   5.222 -0.0154  0.3148 -0.6984
  648MOL0     C89300   3.968   5.814   5.184 -0.0865 -0.2398  0.0320
  648MOL0     C89301   3.828   5.772   5.137 -0.9411  0.4179  0.6411
  648MOL0     C89302   3.838   5.629   5.086 -1.4665 -0.1963  0.4666
  648MOL0     N89303   3.858   5.522   5.184  0.1423  0.0529 -0.2704
  648MOL0     C89304   3.763   5.475   5.267 -1.4872  0.8338  0.1468
  648MOL0     C89305   3.838   5.389   5.337  0.4686  0.4281 -0.5721
  648MOL0     C89306   3.790   5.302   5.449 -0.5622 -0.1203 -0.2362
  648MOL0     C89307   3.735   5.172   5.396 -0.1736 -0.2073  0.2729
  648MOL0     C89308   3.825   5.103   5.289  0.6539 -0.8178 -0.8120
  648MOL0     C89309   3.786   4.968   5.232  0.1377  0.0416  0.1110
  648MOL0     O89310   3.812   4.866   5.332  0.2433 -0.1413  0.2217
  648MOL0     C89311   3.732   4.755   5.320 -0.6854  0.0334  0.7605
  648MOL0     C89312   3.601   4.751   5.374 -0.8626  0.4384 -0.0516
  648MOL0     C89313   3.522   4.633   5.367 -0.5520  0.5490  0.0484
  648MOL0     C89314   3.392   4.621   5.434 -0.1493 -0.6274 -0.6717
  648MOL0     C89315   3.580   4.520   5.292 -0.0662 -0.3077  0.0547
  648MOL0     C89316   3.522   4.384   5.261  0.0039 -0.4132 -0.6993
  648MOL0     O89317   3.563   4.315   5.157 -0.5113 -0.0182 -0.5397
  648MOL0     C89318   3.547   4.187   5.147 -0.6291  0.4108 -0.4798
  648MOL0     C89319   3.570   4.093   5.263  0.5861  0.0192 -0.3817
  648MOL0     C89320   3.544   3.959   5.250 -0.4077 -0.4243  0.3503
  648MOL0     C89321   3.505   3.907   5.124 -0.6714 -0.6753  0.2146
  648MOL0     O89322   3.478   3.776   5.128 -0.5573 -0.4602 -0.2417
  648MOL0     C89323   3.379   3.710   5.046  1.1752  0.7052 -0.1469
  648MOL0     C89324   3.425   3.676   4.904  0.0529  0.5870 -0.0354
  648MOL0     C89325   3.556   3.599   4.903  0.6839 -0.3033 -1.0107
  648MOL0     C89326   3.580   3.517   4.775  0.0707 -1.1121  0.5214
  648MOL0     C89327   3.727   3.529   4.720  0.8724  0.0484 -0.0066
  648MOL0     C89328   3.750   3.450   4.590 -0.2685  0.1668 -0.2915
  648MOL0     C89329   3.899   3.452   4.544  0.7424  0.2665  0.3738
  648MOL0     C89330   3.907   3.426   4.395 -0.4596  0.0627 -0.1925
  648MOL0    Cl89331   4.068   3.379   4.352  0.1328 -0.7122  0.2711
  648MOL0     C89332   3.488   3.998   5.024  0.1723 -0.4701  0.1835
  648MOL0     C89333   3.518   4.134   5.031 -0.7789  0.3329  0.0227
  648MOL0     O89334   3.427   4.354   5.329  0.3800  0.4273  0.0684
  648MOL0     C89335   3.708   4.533   5.238  0.2881 -0.0422  0.8236
  648MOL0     C89336   3.782   4.642   5.254  0.3461 -0.3468  0.4879
  648MOL0     N89337   3.966   5.367   5.285  0.6694  0.1092 -0.8544
  648MOL0     N89338   3.976   5.452   5.193  0.2101 -0.4274  0.9344
  648MOL0     C89339   4.114   6.599   5.558 -0.2594  0.8027  0.4806
  648MOL0     C89340   4.068   6.713   5.628 -2.0003  0.3895  1.1920
  648MOL0     C89341   3.855   6.989   5.939  0.2988 -0.9504  0.3707
  648MOL0     C89342   3.968   7.023   6.021  0.7797  0.4564  0.1255
  648MOL0     C89343   3.959   7.110   6.132  1.2004  0.3330 -0.3779
  648MOL0     C89344   3.839   7.172   6.157  0.0974 -0.0368 -0.0994
  648MOL0     O89345   3.843   7.263   6.260  0.2697 -0.5538  0.0917
  648MOL0     C89346   3.725   7.344   6.291  0.3240  1.0962 -0.2630
  648MOL0     C89347   3.754   7.455   6.385 -0.4213 -1.2062  0.4678
  648MOL0     C89348   3.623   7.525   6.430  0.4054  0.1462 -0.3591
  648MOL0     C89349   3.643   7.621   6.549  0.2531  0.1386 -0.8987
  648MOL0     C89350   3.681   7.530   6.663  0.7320 -0.5628  0.0547
  648MOL0     C89351   3.708   7.465   6.769  0.2657 -1.1703  1.1052
  648MOL0     C89352   3.727   7.154   6.072  0.1953  0.1651  1.4245
  648MOL0     C89353   3.737   7.065   5.969  1.1050 -0.4359  0.4054
  648MOL0     C89354   3.594   7.030   5.905 -0.1025  0.1553 -0.3556
  648MOL0     H89355   3.944   6.571   5.911 -1.7833  0.5747 -0.1188
  648MOL0     H89356   4.019   6.359   5.780  1.9128 -0.7466  2.3965
  648MOL0     H89357   4.041   6.200   5.651  0.1347 -0.9912  1.2235
  648MOL0     H89358   4.217   6.213   5.681 -0.9904 -0.4625  0.6735
  648MOL0     H89359   4.273   6.180   5.448 -0.6807  1.8106  0.0930
  648MOL0     H89360   4.207   6.043   5.527 -4.0435 -2.2937  1.5025
  648MOL0     H89361   3.976   6.109   5.434  0.5961 -4.6761  0.1960
  648MOL0     H89362   4.063   6.217   5.326 -4.5947 -1.7590 -1.6657
  648MOL0     H89363   4.174   6.012   5.232 -0.3051 -0.6102  0.2316
  648MOL0     H89364   4.106   5.916   5.373  0.5562  1.6649  2.5372
  648MOL0     H89365   3.963   6.023   5.131  0.9977  0.4160 -0.6963
  648MOL0     H89366   3.880   5.979   5.285  1.3586  2.0524  0.8398
  648MOL0     H89367   4.039   5.802   5.101 -0.2415 -3.4591  0.2198
  648MOL0     H89368   4.001   5.750   5.266  1.5974  0.9536  0.3578
  648MOL0     H89369   3.786   5.840   5.063 -2.6233  0.4447  1.5828
  648MOL0     H89370   3.755   5.777   5.218  1.6663 -0.7652  3.2435
  648MOL0     H89371   3.743   5.612   5.034  0.1499 -0.1873 -2.6958
  648MOL0     H89372   3.920   5.630   5.014  1.2833 -0.8571  3.3596
  648MOL0     H89373   3.659   5.502   5.276 -1.5578  0.3324  0.9727
  648MOL0     H89374   3.723   5.356   5.516  2.8506 -3.4752  7.0106
  648MOL0     H89375   3.885   5.286   5.500 -1.0114  2.0032  1.3844
  648MOL0     H89376   3.733   5.105   5.483  1.0255  1.4265  1.6309
  648MOL0     H89377   3.630   5.190   5.371  0.2005  2.7091  0.4820
  648MOL0     H89378   3.819   5.175   5.207  0.2415  0.5565  0.3801
  648MOL0     H89379   3.921   5.096   5.340 -0.5243 -4.2772  1.3291
  648MOL0     H89380   3.679   4.956   5.214  0.5726 -2.3006 -1.4097
  648MOL0     H89381   3.831   4.946   5.135  1.4290  1.0273  0.4567
  648MOL0     H89382   3.563   4.844   5.413  1.5382  1.2158  0.5875
  648MOL0     H89383   3.317   4.575   5.370 -1.3209  1.7415 -1.1040
  648MOL0     H89384   3.356   4.721   5.461 -1.0981 -1.6611  2.2655
  648MOL0     H89385   3.405   4.568   5.529  2.4193 -3.2132 -2.2950
  648MOL0     H89386   3.614   4.130   5.354 -1.4222  0.5070  0.4431
  648MOL0     H89387   3.570   3.897   5.335 -0.2397 -2.0026 -0.7984
  648MOL0     H89388   3.361   3.619   5.104  3.7827 -0.1880 -0.6016
  648MOL0     H89389   3.285   3.766   5.037  2.0559  2.0911 -1.1982
  648MOL0     H89390   3.347   3.620   4.851 -0.0640  0.6493  0.0698
  648MOL0     H89391   3.441   3.769   4.848  0.2643  1.8892  2.0843
  648MOL0     H89392   3.554   3.538   4.994 -3.3126  2.1138  0.7997
  648MOL0     H89393   3.639   3.669   4.906  1.8376 -1.5563 -2.4073
  648MOL0     H89394   3.498   3.535   4.705 -0.5677 -3.7372  0.4894
  648MOL0     H89395   3.561   3.412   4.800 -0.3883 -0.8561  1.2704
  648MOL0     H89396   3.764   3.626   4.686  0.8529 -0.2511 -0.9238
  648MOL0     H89397   3.785   3.483   4.801  1.1746  1.3489  0.5349
  648MOL0     H89398   3.699   3.499   4.506  1.1147  0.0002 -1.2617
  648MOL0     H89399   3.710   3.350   4.607  0.4478  0.0469  0.7176
  648MOL0     H89400   3.950   3.375   4.603 -0.0857  1.1832  2.3882
  648MOL0     H89401   3.949   3.546   4.569  1.9045  1.0593 -4.0326
  648MOL0     H89402   3.884   3.517   4.339  0.6541  0.4467 -0.0593
  648MOL0     H89403   3.831   3.353   4.367 -0.8552  0.5107 -0.2912
  648MOL0     H89404   3.450   3.966   4.928  0.6730  2.0064 -0.9386
  648MOL0     H89405   3.525   4.202   4.946  0.2948  0.3054  0.0869
  648MOL0     H89406   3.745   4.458   5.169 -0.2651 -2.5138  3.0831
  648MOL0     H89407   3.878   4.654   5.204  0.6497 -0.3765  1.0562
  648MOL0     H89408   4.164   6.617   5.464  0.4634 -1.5672  0.3687
  648MOL0     H89409   4.096   6.811   5.589 -0.6982 -0.3420  0.2349
  648MOL0     H89410   4.062   6.969   6.017 -0.6624 -2.8609  3.9352
  648MOL0     H89411   4.048   7.121   6.193  1.5689 -3.0769 -0.0690
  648MOL0     H89412   3.687   7.384   6.197 -1.8332 -1.1415 -0.4581
  648MOL0     H89413   3.645   7.276   6.322  2.4885 -2.4181 -1.7729
  648MOL0     H89414   3.821   7.527   6.336 -0.7001  1.6189  3.7888
  648MOL0     H89415   3.801   7.422   6.478  0.8165  1.5843  0.9599
  648MOL0     H89416   3.578   7.573   6.343  0.4138 -0.3836 -0.6576
  648MOL0     H89417   3.547   7.463   6.479  0.0351  2.1035  1.7704
  648MOL0     H89418   3.551   7.676   6.568 -1.0523 -1.0349 -3.3276
  648MOL0     H89419   3.728   7.688   6.533 -1.1753  3.1504  2.6361
  648MOL0     H89420   3.736   7.425   6.865 -1.1335 -6.8909 -0.4917
  648MOL0     H89421   3.633   7.193   6.107 -2.2178 -1.6877 -2.3843
  648MOL0     H89422   3.577   6.924   5.922  2.9294 -0.6795 -1.8332
  648MOL0     H89423   3.517   7.087   5.958 -0.3281  0.7222 -1.2684
  648MOL0     H89424   3.579   7.044   5.798 -1.4235 -1.8711 -0.4930
  649MOL0     O89425   8.679   8.812  10.047  0.5352 -0.0526 -0.1435
  649MOL0     C89426   8.626   8.705  10.085 -0.6609 -0.1286  0.4117
  649MOL0     O89427   8.697   8.606  10.156 -0.2380 -0.5009  0.3834
  649MOL0     C89428   8.830   8.595  10.114  0.8870 -0.5099 -0.2031
  649MOL0     C89429   8.923   8.581  10.214 -0.2978  0.7413  0.7593
  649MOL0     C89430   9.056   8.541  10.177  0.0472  0.1552 -0.6858
  649MOL0     C89431   9.089   8.522  10.045  0.1475 -0.2185 -0.3883
  649MOL0     O89432   9.213   8.477  10.011  0.0332  0.1789  0.9483
  649MOL0     C89433   9.229   8.338  10.053  0.4718  1.0969  0.8865
  649MOL0     C89434   9.362   8.298   9.995  0.5301 -0.4301 -0.5408
  649MOL0     C89435   9.409   8.163  10.059 -0.4078 -0.5156  0.1029
  649MOL0     C89436   9.333   8.041  10.019  0.4345  0.1147  0.0433
  649MOL0     C89437   9.376   7.986   9.891  0.5869  0.6676 -0.0834
  649MOL0     C89438   9.520   7.912   9.904 -0.6448 -0.8763 -0.3884
  649MOL0     C89439   9.556   7.824   9.770  0.4946  0.6694 -0.2776
  649MOL0     C89440   9.538   7.905   9.641 -0.5071  0.2957 -0.5965
  649MOL0     N89441   9.642   7.868   9.552 -0.6008 -0.2826  0.0212
  649MOL0     C89442   9.740   7.954   9.499 -0.5692 -0.3393  0.1958
  649MOL0     C89443   9.795   7.891   9.389 -0.2009  0.2946 -0.2884
  649MOL0     C89444   9.912   7.940   9.305 -0.0040 -0.2746  0.3861
  649MOL0     C89445  10.035   7.895   9.376  0.5743 -0.0718  0.1399
  649MOL0     C89446  10.159   7.942   9.311  0.2043  0.0293 -0.6485
  649MOL0     C89447  10.162   8.091   9.264  0.5339 -0.0607  0.1831
  649MOL0     O89448  10.277   8.130   9.194 -0.8353  1.2325  0.3880
  649MOL0     C89449  10.291   8.108   9.062 -0.6022  0.3495 -1.0254
  649MOL0     C89450  10.401   8.166   9.003 -0.0697 -0.3624  0.1184
  649MOL0     C89451  10.432   8.145   8.874 -0.9674  0.3841  1.1174
  649MOL0     C89452  10.544   8.225   8.801  0.9187  0.6416  0.1392
  649MOL0     C89453  10.363   8.041   8.801  0.5912 -0.3765  1.0382
  649MOL0     C89454  10.390   8.000   8.659 -0.8331 -0.3551 -0.7848
  649MOL0     O89455  10.383   7.874   8.608  0.1836 -0.4696  0.4480
  649MOL0     C89456  10.375   7.861   8.466  0.7979  0.9063 -0.7570
  649MOL0     C89457  10.243   7.830   8.422 -0.9829  0.4571  0.9965
  649MOL0     C89458  10.226   7.839   8.279 -0.5914 -0.2929 -0.4636
  649MOL0     C89459  10.333   7.875   8.195 -0.8721  0.3262  0.2892
  649MOL0     O89460  10.317   7.871   8.054 -0.0952 -0.3534  1.5743
  649MOL0     C89461  10.221   7.779   7.987 -0.6231  0.1085 -0.5234
  649MOL0     C89462  10.244   7.632   8.014 -0.3198  0.1539  0.4477
  649MOL0     C89463  10.252   7.553   7.887  1.0702 -0.3260  0.7448
  649MOL0     C89464  10.390   7.571   7.819  0.6417 -0.0713 -0.2647
  649MOL0     C89465  10.398   7.495   7.687  1.0610  0.0926  0.2309
  649MOL0     C89466  10.524   7.551   7.621  0.0846 -0.4346 -0.8535
  649MOL0     C89467  10.556   7.462   7.498  0.1659 -0.0591  0.2316
  649MOL0     C89468  10.428   7.469   7.402  0.3241  0.7504  0.3278
  649MOL0    Cl89469  10.373   7.640   7.359 -0.0414 -0.5323  0.2979
  649MOL0     C89470  10.459   7.899   8.255 -0.6237  0.6388 -0.3118
  649MOL0     C89471  10.487   7.902   8.390 -0.0258  1.6429 -0.3630
  649MOL0     O89472  10.400   8.103   8.592 -0.4661  0.0863  0.5547
  649MOL0     C89473  10.251   7.983   8.859  0.1599  0.0609 -0.4910
  649MOL0     C89474  10.213   8.016   8.990 -0.3644 -0.8218  0.6431
  649MOL0     N89475   9.742   7.765   9.377  0.0964  0.0028  0.3424
  649MOL0     N89476   9.650   7.753   9.472  0.3350  0.5179  0.2244
  649MOL0     C89477   9.000   8.558   9.943 -0.0170  0.8260 -0.6433
  649MOL0     C89478   8.870   8.593   9.981  0.0259 -0.0691 -0.4398
  649MOL0     C89479   8.478   8.679  10.066 -0.0551 -0.6717  2.4344
  649MOL0     C89480   8.426   8.572  10.128 -0.1370  0.3577 -0.2380
  649MOL0     C89481   8.289   8.545  10.150  0.7469 -0.7111 -0.4754
  649MOL0     C89482   8.196   8.634  10.091 -0.0686  0.9206 -0.4547
  649MOL0     O89483   8.063   8.598  10.103 -1.0213  0.1594 -0.2489
  649MOL0     C89484   7.960   8.680  10.059 -0.1207  0.3639 -0.2377
  649MOL0     C89485   7.819   8.601  10.043  0.4875 -0.1608 -0.2161
  649MOL0     C89486   7.721   8.627  10.167 -0.2245 -0.2065 -0.4694
  649MOL0     C89487   7.675   8.770  10.173  0.3054 -0.4756  0.1136
  649MOL0     C89488   7.598   8.822  10.054 -0.4022 -0.2650  0.0361
  649MOL0     C89489   7.542   8.875   9.961  0.1759 -0.6319 -1.0945
  649MOL0     C89490   8.235   8.749  10.020  0.0628  0.3866  1.4700
  649MOL0     C89491   8.379   8.771  10.005 -0.6031  0.2300  0.2259
  649MOL0     C89492   8.418   8.879   9.913  0.3863  0.6079  0.3385
  649MOL0     H89493   8.903   8.588  10.321  1.8107 -2.4937  1.4989
  649MOL0     H89494   9.136   8.531  10.250  2.0793 -0.8980 -2.9048
  649MOL0     H89495   9.152   8.268  10.017  1.2822 -0.4622  2.0486
  649MOL0     H89496   9.239   8.348  10.162  2.6513  4.6628  0.4899
  649MOL0     H89497   9.361   8.280   9.887 -0.2279 -5.2926  0.0438
  649MOL0     H89498   9.437   8.374  10.016 -2.7420  3.0690 -0.4567
  649MOL0     H89499   9.515   8.155  10.032  0.0959  0.8087  1.5272
  649MOL0     H89500   9.413   8.160  10.169  0.3428 -1.8850  0.0588
  649MOL0     H89501   9.346   7.958  10.089 -1.1406 -0.7535 -0.6481
  649MOL0     H89502   9.226   8.068  10.014  0.8714  1.7651 -1.5380
  649MOL0     H89503   9.367   8.058   9.810  1.1559  2.0623  1.0602
  649MOL0     H89504   9.300   7.911   9.864  1.6680 -0.2207 -0.7489
  649MOL0     H89505   9.606   7.978   9.917 -0.2053 -1.5435  0.1425
  649MOL0     H89506   9.501   7.844   9.988 -2.7610  0.6348  0.4495
  649MOL0     H89507   9.473   7.753   9.759  0.3368  0.5521  1.4064
  649MOL0     H89508   9.647   7.764   9.777  1.8039  2.3831 -1.8506
  649MOL0     H89509   9.441   7.892   9.593 -0.3998 -3.8236 -0.0412
  649MOL0     H89510   9.550   8.009   9.674  2.4173 -0.7108  1.9994
  649MOL0     H89511   9.770   8.048   9.545  1.6583 -0.3098 -1.1457
  649MOL0     H89512   9.897   8.047   9.290  1.9078  0.1795  1.4564
  649MOL0     H89513   9.909   7.887   9.209  2.9685 -1.9169  1.0614
  649MOL0     H89514  10.028   7.932   9.478  0.3812  1.6228 -0.4551
  649MOL0     H89515  10.026   7.786   9.367 -1.0971  0.1254 -1.3365
  649MOL0     H89516  10.235   7.944   9.389 -1.2274  4.1005  0.8614
  649MOL0     H89517  10.191   7.872   9.233  1.8649  1.3883 -1.2374
  649MOL0     H89518  10.068   8.111   9.212 -0.2504  1.0218  1.9239
  649MOL0     H89519  10.156   8.152   9.355  1.1036 -2.3019  1.8267
  649MOL0     H89520  10.441   8.253   9.055  1.2463 -0.4997 -0.6243
  649MOL0     H89521  10.607   8.159   8.740  0.6116 -1.2281  1.7398
  649MOL0     H89522  10.611   8.270   8.874  1.3691  1.4113 -0.7285
  649MOL0     H89523  10.501   8.295   8.728 -2.3012 -2.9679 -1.7979
  649MOL0     H89524  10.153   7.819   8.482  0.4694 -2.2236  2.9162
  649MOL0     H89525  10.123   7.819   8.251 -1.7726  0.5068  2.9202
  649MOL0     H89526  10.122   7.809   8.023  0.4088  3.9357 -0.4041
  649MOL0     H89527  10.226   7.794   7.879  0.9907 -1.4086 -0.6938
  649MOL0     H89528  10.340   7.621   8.065 -0.4440  1.2155  0.9295
  649MOL0     H89529  10.161   7.599   8.077  1.5477  1.4998  3.8293
  649MOL0     H89530  10.168   7.582   7.823  1.8214  1.6299  0.5549
  649MOL0     H89531  10.233   7.448   7.908 -1.3616 -0.3724 -1.1819
  649MOL0     H89532  10.473   7.549   7.887  0.4666  1.3806  0.4794
  649MOL0     H89533  10.395   7.678   7.794  2.8121 -0.3876 -1.3762
  649MOL0     H89534  10.406   7.387   7.703 -4.4357 -0.3971  1.6994
  649MOL0     H89535  10.301   7.507   7.638  1.1816  1.5051  0.2811
  649MOL0     H89536  10.610   7.563   7.687 -0.4889  0.1195 -0.1900
  649MOL0     H89537  10.501   7.651   7.583  0.7309 -0.9831 -2.7926
  649MOL0     H89538  10.575   7.357   7.523 -3.2252 -0.0097  4.1295
  649MOL0     H89539  10.645   7.505   7.452 -0.6942  1.0024 -0.4936
  649MOL0     H89540  10.355   7.404   7.452  3.2682 -1.1646  2.5360
  649MOL0     H89541  10.447   7.414   7.309 -1.2951 -0.0936  0.4566
  649MOL0     H89542  10.534   7.918   8.180  1.0977  0.3592  1.2569
  649MOL0     H89543  10.580   7.936   8.433  0.7470 -0.4937 -0.2226
  649MOL0     H89544  10.189   7.922   8.794  2.1885 -0.6429 -1.8477
  649MOL0     H89545  10.124   7.976   9.037 -2.2077  2.2685  0.0192
  649MOL0     H89546   9.027   8.537   9.840 -1.0176 -0.7043 -0.6373
  649MOL0     H89547   8.805   8.622   9.900  0.0589  4.0803  0.8226
  649MOL0     H89548   8.491   8.503  10.180  0.4660  1.1831  0.1420
  649MOL0     H89549   8.256   8.459  10.207  1.2103 -0.2085  0.5704
  649MOL0     H89550   7.950   8.759  10.135 -1.0492  1.5666 -1.5597
  649MOL0     H89551   7.980   8.729   9.963  1.4950  1.0950  0.4278
  649MOL0     H89552   7.830   8.494  10.021  2.3231 -0.0976  0.2679
  649MOL0     H89553   7.755   8.640   9.964 -1.1484 -3.4567 -0.7153
  649MOL0     H89554   7.637   8.558  10.163 -1.1239  0.2341  4.3991
  649MOL0     H89555   7.763   8.601  10.265 -1.1981 -0.2320 -0.0511
  649MOL0     H89556   7.759   8.829  10.210  0.3719 -0.9997  0.8229
  649MOL0     H89557   7.600   8.764  10.251 -1.2710  0.5634 -1.2484
  649MOL0     H89558   7.489   8.916   9.878 -0.4171  1.5191  0.2504
  649MOL0     H89559   8.158   8.811   9.976 -4.0452 -4.2901  1.2028
  649MOL0     H89560   8.503   8.939   9.947  0.2627  1.1930 -0.3498
  649MOL0     H89561   8.449   8.832   9.819  0.5694  1.1380  0.1288
  649MOL0     H89562   8.338   8.953   9.903 -0.3882 -0.3951 -1.2592
  650MOL0     O89563   8.435   4.000   7.770 -0.1124 -0.2299 -0.1762
  650MOL0     C89564   8.547   4.049   7.804 -0.0497 -0.2948 -0.3565
  650MOL0     O89565   8.573   4.180   7.788  0.4196 -0.7376 -0.2149
  650MOL0     C89566   8.467   4.261   7.791  0.6834  0.7093  0.1251
  650MOL0     C89567   8.422   4.311   7.910 -0.3141  0.5402  0.1370
  650MOL0     C89568   8.304   4.386   7.919 -0.5212 -0.6320  0.6461
  650MOL0     C89569   8.248   4.438   7.799 -0.6941 -0.0717 -1.1223
  650MOL0     O89570   8.161   4.542   7.801  0.0749 -0.4449 -0.3804
  650MOL0     C89571   8.062   4.542   7.693 -0.1891  0.3184  1.1926
  650MOL0     C89572   7.951   4.643   7.729  0.0020  0.4560  0.8527
  650MOL0     C89573   7.878   4.686   7.601  1.4453 -0.6157 -0.2832
  650MOL0     C89574   7.801   4.818   7.626 -0.1099  0.6297  0.3612
  650MOL0     C89575   7.866   4.933   7.553 -0.0287 -0.2476 -0.3498
  650MOL0     C89576   7.983   4.997   7.637 -0.4137  0.1057 -0.3080
  650MOL0     C89577   8.045   5.103   7.532  0.1702  0.2243 -0.4766
  650MOL0     C89578   8.158   5.192   7.584 -0.2127 -0.3152 -0.3760
  650MOL0     N89579   8.202   5.294   7.487 -0.4113  0.2744  0.3195
  650MOL0     C89580   8.270   5.256   7.376 -0.4037 -0.1312  0.1764
  650MOL0     C89581   8.315   5.367   7.324  0.1240  0.1063  0.2621
  650MOL0     C89582   8.385   5.386   7.195  0.2910  0.8890  0.1080
  650MOL0     C89583   8.395   5.253   7.118 -0.7365  0.1561  0.1064
  650MOL0     C89584   8.468   5.270   6.975 -0.0525  0.0489  0.4284
  650MOL0     C89585   8.450   5.156   6.865  1.1477  0.1283  0.1410
  650MOL0     O89586   8.313   5.115   6.852 -0.5886 -0.1554 -0.5679
  650MOL0     C89587   8.220   5.185   6.781  0.1013  1.6453 -0.2270
  650MOL0     C89588   8.100   5.110   6.773  1.0822 -0.7028  0.6384
  650MOL0     C89589   7.997   5.157   6.682 -0.4010  0.4725  0.1089
  650MOL0     C89590   7.872   5.071   6.680  0.1677  0.1905 -0.0005
  650MOL0     C89591   8.010   5.271   6.609 -1.1926 -0.5348  0.4503
  650MOL0     C89592   7.910   5.322   6.521 -0.0274 -0.4245  0.5432
  650MOL0     O89593   7.856   5.237   6.429 -0.2653 -0.1991  0.1184
  650MOL0     C89594   7.729   5.263   6.373  1.2271 -0.0205 -0.9833
  650MOL0     C89595   7.625   5.308   6.454  0.2569  0.4073  0.1989
  650MOL0     C89596   7.503   5.336   6.391 -0.1697  0.5112 -0.9197
  650MOL0     C89597   7.487   5.341   6.249  0.1627  0.4534 -0.2641
  650MOL0     O89598   7.370   5.367   6.190 -0.0920  0.1333 -0.0829
  650MOL0     C89599   7.377   5.459   6.081 -0.4164 -0.2836 -0.0885
  650MOL0     C89600   7.300   5.587   6.121  0.4963  0.1991 -0.6492
  650MOL0     C89601   7.351   5.701   6.043 -0.4533  0.2652  0.4929
  650MOL0     C89602   7.260   5.828   6.031  0.3987 -0.4849 -0.7208
  650MOL0     C89603   7.248   5.904   6.174  0.3067 -0.1213  0.5941
  650MOL0     C89604   7.361   5.994   6.217  0.3494  0.5793 -0.0826
  650MOL0     C89605   7.372   6.123   6.129  0.0350  0.7511 -0.8675
  650MOL0     C89606   7.497   6.193   6.168 -0.1712 -0.2163 -0.7573
  650MOL0    Cl89607   7.463   6.318   6.296  0.1778 -0.0443  0.0696
  650MOL0     C89608   7.594   5.297   6.169 -0.7016  1.3950  0.2511
  650MOL0     C89609   7.707   5.249   6.234  0.2326  0.0990 -0.4534
  650MOL0     O89610   7.880   5.441   6.542 -0.5838 -0.5140 -0.1792
  650MOL0     C89611   8.132   5.347   6.621 -0.5119 -0.4475  0.6171
  650MOL0     C89612   8.239   5.305   6.713 -0.1934 -0.1699  0.0435
  650MOL0     N89613   8.268   5.468   7.405 -0.7448 -0.4961  0.6124
  650MOL0     N89614   8.188   5.424   7.496 -1.5292  0.7478  0.0579
  650MOL0     C89615   8.314   4.398   7.681  0.6123  0.0441  0.2852
  650MOL0     C89616   8.405   4.304   7.681 -0.0901  0.4329  0.1681
  650MOL0     C89617   8.662   3.963   7.841  0.6634  0.7782 -0.4965
  650MOL0     C89618   8.791   4.005   7.851 -0.5621 -0.1347  0.8678
  650MOL0     C89619   8.898   3.922   7.882 -0.0495  1.0872 -0.9247
  650MOL0     C89620   8.882   3.783   7.897 -0.5015  0.0528 -0.0817
  650MOL0     O89621   8.981   3.700   7.930 -0.2604 -0.3085 -0.1096
  650MOL0     C89622   8.956   3.636   8.060  0.2154 -1.1187  0.1021
  650MOL0     C89623   9.088   3.611   8.128 -0.0836  0.1525  0.7488
  650MOL0     C89624   9.087   3.537   8.263 -0.0494  0.4012 -0.4109
  650MOL0     C89625   9.234   3.506   8.301  0.4109  0.0170 -0.6288
  650MOL0     C89626   9.219   3.463   8.438 -0.4511  0.5302  0.1120
  650MOL0     C89627   9.202   3.424   8.553 -0.2474 -0.5440 -0.0834
  650MOL0     C89628   8.751   3.731   7.876  0.3312 -0.6808 -0.8116
  650MOL0     C89629   8.644   3.821   7.857 -0.1838 -0.4781  0.1419
  650MOL0     C89630   8.511   3.741   7.858 -0.2919 -0.3748 -0.3769
  650MOL0     H89631   8.472   4.277   8.000 -1.1726 -0.0923  0.3911
  650MOL0     H89632   8.264   4.408   8.018  1.1755  0.1283  1.1999
  650MOL0     H89633   8.006   4.448   7.687 -2.6928  1.7294 -4.2454
  650MOL0     H89634   8.100   4.558   7.592 -4.9240 -1.2150 -1.1114
  650MOL0     H89635   7.884   4.603   7.805  1.6964  0.0402  2.1948
  650MOL0     H89636   8.010   4.726   7.768  1.9613 -1.4939  2.3321
  650MOL0     H89637   7.934   4.679   7.507 -1.2526 -2.6522 -1.9020
  650MOL0     H89638   7.801   4.610   7.585  1.4867 -0.7811  0.2776
  650MOL0     H89639   7.698   4.804   7.590  0.5355  1.6752 -2.0965
  650MOL0     H89640   7.798   4.844   7.732 -1.1519 -0.6365  0.6714
  650MOL0     H89641   7.793   5.011   7.530  1.2120  0.7099 -1.1932
  650MOL0     H89642   7.901   4.900   7.455 -0.8314  2.6217 -1.7114
  650MOL0     H89643   7.938   5.049   7.722  2.4019  0.7900  0.8702
  650MOL0     H89644   8.055   4.922   7.671 -1.2072 -0.2203  0.7207
  650MOL0     H89645   7.964   5.167   7.497 -1.8159 -1.7256  0.3302
  650MOL0     H89646   8.098   5.050   7.452 -1.7041 -0.9498 -1.0089
  650MOL0     H89647   8.115   5.244   7.670 -2.8775 -0.5997 -1.4225
  650MOL0     H89648   8.242   5.127   7.608  0.1904 -0.3935 -1.9336
  650MOL0     H89649   8.275   5.159   7.328 -0.7454 -0.3125  0.5014
  650MOL0     H89650   8.485   5.424   7.217 -0.2010  1.8538  0.7373
  650MOL0     H89651   8.327   5.458   7.137 -3.1556 -1.5027  0.2666
  650MOL0     H89652   8.442   5.167   7.165 -5.9439 -4.1388 -1.5472
  650MOL0     H89653   8.296   5.210   7.102 -1.1357 -0.6845  3.8652
  650MOL0     H89654   8.433   5.368   6.940  0.3873  1.5347  3.7815
  650MOL0     H89655   8.575   5.288   6.987  0.1869 -0.4479 -0.8041
  650MOL0     H89656   8.492   5.202   6.775  0.0854  1.6691  0.4142
  650MOL0     H89657   8.505   5.066   6.897 -0.6946 -2.2977 -2.8897
  650MOL0     H89658   8.089   5.015   6.825  0.2766  0.1588  2.1131
  650MOL0     H89659   7.899   4.972   6.719 -0.4902  0.3997  1.0409
  650MOL0     H89660   7.821   5.062   6.584 -1.1994  0.5178  0.6538
  650MOL0     H89661   7.802   5.110   6.755  3.7210  2.2892  2.4903
  650MOL0     H89662   7.621   5.314   6.563 -4.6440  0.4482  0.2321
  650MOL0     H89663   7.418   5.362   6.454 -2.4668 -0.6095 -3.3545
  650MOL0     H89664   7.476   5.481   6.040 -0.6524 -0.7738 -0.9672
  650MOL0     H89665   7.321   5.408   6.002 -3.7868 -1.3124  2.7241
  650MOL0     H89666   7.191   5.584   6.123  0.3195  3.1786  0.1536
  650MOL0     H89667   7.323   5.601   6.227 -1.1138  0.1586 -0.2756
  650MOL0     H89668   7.355   5.667   5.939 -1.5636  1.7544 -0.0790
  650MOL0     H89669   7.453   5.728   6.071  0.4676 -0.1165 -2.1795
  650MOL0     H89670   7.163   5.793   5.993 -0.9563  1.9997  0.2462
  650MOL0     H89671   7.304   5.901   5.963 -1.0792 -0.2652 -1.4751
  650MOL0     H89672   7.161   5.970   6.168 -0.5261 -0.8184  3.3584
  650MOL0     H89673   7.213   5.829   6.246 -2.5044 -1.1409 -1.6675
  650MOL0     H89674   7.451   5.933   6.202 -2.6173 -4.5845  0.5292
  650MOL0     H89675   7.344   6.026   6.320 -0.0112 -0.0152  0.0496
  650MOL0     H89676   7.288   6.189   6.153  1.2151  1.0326  3.3947
  650MOL0     H89677   7.370   6.094   6.024  0.9877 -3.5220  0.1169
  650MOL0     H89678   7.551   6.238   6.084  2.3388 -0.2754  0.6988
  650MOL0     H89679   7.568   6.131   6.223 -0.5874 -0.8321 -0.9048
  650MOL0     H89680   7.586   5.295   6.061 -0.8022  0.7861  0.2659
  650MOL0     H89681   7.794   5.215   6.179  0.9006  3.5034 -1.7225
  650MOL0     H89682   8.142   5.436   6.560  1.9135 -2.2242 -1.8468
  650MOL0     H89683   8.331   5.362   6.724 -0.5580  0.5583 -0.5742
  650MOL0     H89684   8.285   4.427   7.581  1.5119  0.3298  0.1039
  650MOL0     H89685   8.434   4.272   7.582 -0.4070 -0.6729  0.4219
  650MOL0     H89686   8.810   4.108   7.822  0.4645  0.5697  3.6609
  650MOL0     H89687   8.998   3.964   7.895 -0.1921  3.3357 -5.2940
  650MOL0     H89688   8.905   3.708   8.125  0.2603 -0.1656 -0.8847
  650MOL0     H89689   8.900   3.545   8.038 -0.8130 -0.1625 -1.5187
  650MOL0     H89690   9.134   3.709   8.148  1.7941 -0.8427  1.5731
  650MOL0     H89691   9.141   3.563   8.045 -1.6027  2.8332 -1.9735
  650MOL0     H89692   9.038   3.600   8.338  3.9183  2.2619  0.9343
  650MOL0     H89693   9.023   3.450   8.278 -2.7580  2.5520  1.5375
  650MOL0     H89694   9.291   3.599   8.292 -2.3074  1.6034 -3.6225
  650MOL0     H89695   9.272   3.432   8.230 -0.0250 -0.0289 -0.8188
  650MOL0     H89696   9.172   3.423   8.656 -3.2161 -1.8938 -0.8431
  650MOL0     H89697   8.723   3.626   7.884 -1.3959 -0.2151 -0.2339
  650MOL0     H89698   8.449   3.734   7.768  0.3824 -1.7872 -0.7684
  650MOL0     H89699   8.528   3.633   7.859  4.5461  0.1341 -1.9493
  650MOL0     H89700   8.448   3.770   7.942  1.1204 -1.0203  0.9732
  651MOL0     O89701   0.574   7.799   6.582 -0.1453  0.4591 -0.0747
  651MOL0     C89702   0.684   7.764   6.534 -0.5456  0.5826 -0.4195
  651MOL0     O89703   0.779   7.854   6.483 -0.4163  0.5927 -0.3458
  651MOL0     C89704   0.764   7.989   6.476  0.1929  0.2315 -0.1185
  651MOL0     C89705   0.684   8.051   6.367  0.8571  0.9499 -0.1338
  651MOL0     C89706   0.653   8.190   6.369 -0.2815 -0.6484 -0.7398
  651MOL0     C89707   0.697   8.264   6.483 -1.0326 -0.4003  0.3612
  651MOL0     O89708   0.651   8.400   6.487  0.5694  0.0444  0.4765
  651MOL0     C89709   0.615   8.443   6.617  0.2717 -0.1474 -0.8979
  651MOL0     C89710   0.547   8.580   6.605  1.0982  0.3605 -0.3778
  651MOL0     C89711   0.634   8.684   6.531 -0.8929  0.1518 -0.0597
  651MOL0     C89712   0.710   8.776   6.618 -0.1144  0.0336  0.3378
  651MOL0     C89713   0.787   8.859   6.515 -0.0672  0.1192  1.0772
  651MOL0     C89714   0.879   8.980   6.563 -0.4184  0.3524 -0.0331
  651MOL0     C89715   0.797   9.062   6.666  0.0476  0.6344  0.1967
  651MOL0     C89716   0.900   9.169   6.721  0.1669  0.1619  0.4848
  651MOL0     N89717   0.959   9.251   6.609  0.6974  0.4685 -0.4236
  651MOL0     C89718   1.080   9.239   6.528  0.2606  0.4395  0.1518
  651MOL0     C89719   1.069   9.334   6.437  1.5601 -0.1951 -0.1290
  651MOL0     C89720   1.170   9.354   6.318 -0.2176 -0.2397 -0.2086
  651MOL0     C89721   1.197   9.500   6.266  0.4180 -0.2155 -1.2976
  651MOL0     C89722   1.301   9.502   6.159  0.1748 -0.5113  0.2884
  651MOL0     C89723   1.320   9.636   6.085 -0.9509 -0.2192  0.7072
  651MOL0     O89724   1.351   9.749   6.168 -0.3466  0.6646 -0.3426
  651MOL0     C89725   1.458   9.735   6.255  0.0493  0.3509  0.4553
  651MOL0     C89726   1.579   9.678   6.211 -0.3284  0.2962  0.2472
  651MOL0     C89727   1.682   9.668   6.299 -0.1332 -0.1862  0.6480
  651MOL0     C89728   1.816   9.612   6.244  0.2556  0.5158 -0.1893
  651MOL0     C89729   1.675   9.706   6.435 -0.2974  0.3182 -0.1251
  651MOL0     C89730   1.789   9.682   6.534  0.1381  0.9838  0.2052
  651MOL0     O89731   1.902   9.614   6.491  0.4963 -0.5454  0.1962
  651MOL0     C89732   2.001   9.563   6.566 -0.5222  0.8350  0.2096
  651MOL0     C89733   2.012   9.562   6.706 -0.7643 -0.9278 -0.0393
  651MOL0     C89734   2.118   9.506   6.773 -0.1502  0.2441 -0.6224
  651MOL0     C89735   2.213   9.434   6.699  0.8971  0.6639 -0.6083
  651MOL0     O89736   2.319   9.373   6.757 -0.0610 -0.2188 -0.3619
  651MOL0     C89737   2.353   9.422   6.879 -0.9525 -0.0328 -0.6605
  651MOL0     C89738   2.470   9.333   6.925  0.0397  0.6641 -1.1586
  651MOL0     C89739   2.576   9.311   6.812 -0.1135  0.1729 -0.7544
  651MOL0     C89740   2.696   9.229   6.859 -0.0091  0.1565  0.8827
  651MOL0     C89741   2.779   9.289   6.972 -0.2547  0.1522  0.2024
  651MOL0     C89742   2.912   9.213   6.993 -0.1771 -0.3680  0.2956
  651MOL0     C89743   2.893   9.081   7.066 -0.0188 -0.6602 -0.7411
  651MOL0     C89744   3.030   9.023   7.114 -0.2932 -0.4054  0.1315
  651MOL0    Cl89745   3.129   8.976   6.973  0.0718 -0.5797 -0.0661
  651MOL0     C89746   2.202   9.437   6.564 -1.2770 -0.0787 -0.1835
  651MOL0     C89747   2.105   9.511   6.495  0.9088  0.6806  0.2844
  651MOL0     O89748   1.779   9.742   6.643  0.2882 -0.0293  0.4082
  651MOL0     C89749   1.559   9.776   6.476 -0.4523 -1.5840  0.2153
  651MOL0     C89750   1.451   9.777   6.384 -0.4690 -0.8987  0.4277
  651MOL0     N89751   0.954   9.411   6.455 -0.4270  0.0273 -0.0461
  651MOL0     N89752   0.896   9.354   6.554 -0.0165 -0.8510  0.7056
  651MOL0     C89753   0.782   8.207   6.579  0.8930 -0.3178  0.4480
  651MOL0     C89754   0.816   8.070   6.572  0.3421  0.5454 -0.1600
  651MOL0     C89755   0.725   7.620   6.521 -0.6271  0.9224  0.6202
  651MOL0     C89756   0.848   7.593   6.462  0.1540 -0.0824  0.2791
  651MOL0     C89757   0.895   7.464   6.457 -0.2995 -0.6727  0.7316
  651MOL0     C89758   0.827   7.360   6.515 -0.4551  0.4044  0.3725
  651MOL0     O89759   0.878   7.225   6.508  0.2438 -0.2043 -0.5215
  651MOL0     C89760   1.021   7.210   6.501 -0.7125  0.0077 -0.1137
  651MOL0     C89761   1.049   7.061   6.524  0.4033 -0.5369 -0.6606
  651MOL0     C89762   1.198   7.041   6.542  0.5865 -0.4873 -0.0064
  651MOL0     C89763   1.234   6.893   6.554  0.1666  0.1048  0.0863
  651MOL0     C89764   1.142   6.798   6.481 -0.4799  1.1083 -0.6115
  651MOL0     C89765   1.094   6.709   6.420  0.3236  1.1338 -0.6076
  651MOL0     C89766   0.706   7.384   6.571 -0.6208 -0.2036 -0.8733
  651MOL0     C89767   0.648   7.509   6.577  0.4522  0.1173 -0.5312
  651MOL0     C89768   0.517   7.524   6.656 -0.4329  0.1939  0.0100
  651MOL0     H89769   0.644   7.988   6.288  0.6141 -2.2165  2.3086
  651MOL0     H89770   0.596   8.241   6.293  1.3563  1.7900 -0.4658
  651MOL0     H89771   0.696   8.441   6.690  1.1027  0.1729 -1.7935
  651MOL0     H89772   0.553   8.367   6.667  2.1592 -0.2090  1.5512
  651MOL0     H89773   0.454   8.555   6.554  0.0398  1.4574  0.9604
  651MOL0     H89774   0.521   8.632   6.697  3.0051 -0.7225  0.8329
  651MOL0     H89775   0.704   8.650   6.455 -1.0445  2.1025 -1.1236
  651MOL0     H89776   0.564   8.747   6.476 -1.3460  1.8763  2.3072
  651MOL0     H89777   0.635   8.827   6.679 -0.2498  2.0864 -1.4340
  651MOL0     H89778   0.775   8.714   6.680 -0.1609  1.1350  1.5213
  651MOL0     H89779   0.716   8.914   6.453  0.3187 -2.7067 -2.1486
  651MOL0     H89780   0.841   8.801   6.440 -1.3166 -0.1644  0.3680
  651MOL0     H89781   0.963   8.922   6.602 -0.6746 -1.5344 -2.0492
  651MOL0     H89782   0.902   9.044   6.477  1.0799 -0.7151 -0.4761
  651MOL0     H89783   0.768   8.998   6.749  1.3082 -0.3408 -0.0666
  651MOL0     H89784   0.714   9.116   6.620 -0.6612 -1.8072 -1.5784
  651MOL0     H89785   0.856   9.238   6.794  1.0453  0.8670  0.3683
  651MOL0     H89786   0.979   9.123   6.780  0.5365 -0.1496 -0.2432
  651MOL0     H89787   1.160   9.166   6.535 -1.2499 -1.6673 -2.6529
  651MOL0     H89788   1.133   9.298   6.231  2.9637 -0.3104 -1.6499
  651MOL0     H89789   1.268   9.312   6.342  2.1753  5.2337  0.9061
  651MOL0     H89790   1.106   9.541   6.221 -0.2155  3.1118  2.5161
  651MOL0     H89791   1.219   9.563   6.352 -0.5741 -1.5639  0.0024
  651MOL0     H89792   1.391   9.452   6.198  1.2457  1.9571  1.1861
  651MOL0     H89793   1.274   9.431   6.080  1.7888 -0.2194 -0.5820
  651MOL0     H89794   1.409   9.623   6.022 -0.8753  1.7632  0.3316
  651MOL0     H89795   1.234   9.660   6.021  1.6412  4.3919 -1.5666
  651MOL0     H89796   1.600   9.648   6.109  0.4491  0.0264  0.4763
  651MOL0     H89797   1.816   9.601   6.135  2.6780 -2.7993 -0.0079
  651MOL0     H89798   1.832   9.512   6.284 -0.8879  0.4657  0.1716
  651MOL0     H89799   1.891   9.688   6.271  0.5652 -0.1428  0.8329
  651MOL0     H89800   1.953   9.624   6.773  2.8502  2.8197  0.1075
  651MOL0     H89801   2.121   9.525   6.880  2.6599 -2.9541  0.0701
  651MOL0     H89802   2.388   9.526   6.877 -2.5617  0.5994  1.2801
  651MOL0     H89803   2.267   9.402   6.943 -1.4894  0.8364 -1.0937
  651MOL0     H89804   2.507   9.373   7.020 -4.0955 -1.2370  1.5462
  651MOL0     H89805   2.441   9.229   6.947  0.3324  0.3988 -1.9887
  651MOL0     H89806   2.599   9.409   6.768 -0.5133 -0.1828 -1.7703
  651MOL0     H89807   2.525   9.246   6.741 -1.0252 -1.5555  1.3614
  651MOL0     H89808   2.767   9.217   6.777 -2.8295 -3.0600 -1.4064
  651MOL0     H89809   2.660   9.127   6.877 -1.7524  1.0887  3.3492
  651MOL0     H89810   2.788   9.392   6.936  0.9200  0.4149  1.1716
  651MOL0     H89811   2.727   9.281   7.068  2.3030  1.6263  1.8315
  651MOL0     H89812   2.969   9.284   7.053 -0.1043  2.3257 -2.6895
  651MOL0     H89813   2.957   9.197   6.894 -0.7538  1.1830 -0.2538
  651MOL0     H89814   2.837   9.012   7.002 -2.4650  0.4151  0.1313
  651MOL0     H89815   2.828   9.088   7.154 -0.5817 -3.1986 -0.8568
  651MOL0     H89816   3.018   8.933   7.175  0.2197  1.9529  4.1438
  651MOL0     H89817   3.085   9.094   7.177  0.2793 -1.0230  0.3385
  651MOL0     H89818   2.277   9.380   6.510  0.6301 -0.1252  2.3659
  651MOL0     H89819   2.099   9.508   6.386 -0.0717  1.2615  0.3167
  651MOL0     H89820   1.540   9.832   6.567 -1.9492 -1.3355 -0.2248
  651MOL0     H89821   1.361   9.821   6.427 -2.1187  0.4802 -3.9266
  651MOL0     H89822   0.834   8.273   6.648 -3.2670  2.0198  1.7313
  651MOL0     H89823   0.863   8.020   6.656 -1.3024 -1.5265 -0.3636
  651MOL0     H89824   0.906   7.668   6.409  2.3861 -3.0319 -1.7926
  651MOL0     H89825   0.988   7.450   6.403  0.3609  0.9028  1.4157
  651MOL0     H89826   1.061   7.246   6.406  0.5824  1.7405  1.0322
  651MOL0     H89827   1.077   7.256   6.583  1.9689  0.7594 -2.2491
  651MOL0     H89828   1.003   7.008   6.441 -1.2835 -1.9491  1.0778
  651MOL0     H89829   1.005   7.031   6.620  1.0526  2.1118  0.5883
  651MOL0     H89830   1.245   7.085   6.453 -0.0932  0.0557 -0.1003
  651MOL0     H89831   1.243   7.093   6.627 -3.4014  1.9623  0.8525
  651MOL0     H89832   1.243   6.863   6.658  0.3778  1.5524  0.5034
  651MOL0     H89833   1.337   6.890   6.517  0.3815  3.7712  0.0250
  651MOL0     H89834   1.059   6.619   6.373 -0.9684  0.7047  1.0818
  651MOL0     H89835   0.652   7.307   6.626 -1.0938  1.9438  1.8907
  651MOL0     H89836   0.479   7.424   6.678  2.2299 -0.6160  1.4070
  651MOL0     H89837   0.537   7.586   6.745  3.5652 -1.7631  0.7106
  651MOL0     H89838   0.439   7.565   6.592 -0.4524 -3.9118 -2.9615
  652MOL0     O89839   0.894   7.099   1.775  0.4463 -0.4443 -0.1814
  652MOL0     C89840   0.789   7.131   1.831 -0.2292  0.3963  0.0317
  652MOL0     O89841   0.665   7.069   1.810 -0.6857  0.9369  0.7843
  652MOL0     C89842   0.659   6.999   1.691  0.0420 -0.1008  0.7337
  652MOL0     C89843   0.603   7.067   1.587 -0.2267 -0.5366 -0.1208
  652MOL0     C89844   0.592   7.003   1.466  0.8209 -0.3660 -0.0509
  652MOL0     C89845   0.638   6.874   1.445 -1.4255 -0.4820  0.0700
  652MOL0     O89846   0.597   6.825   1.332  0.2310  0.2444  0.5498
  652MOL0     C89847   0.675   6.720   1.264  0.1390  0.0896  0.3422
  652MOL0     C89848   0.627   6.574   1.284  0.3786 -0.3242  1.0894
  652MOL0     C89849   0.475   6.539   1.263  0.0859  0.0820 -0.3734
  652MOL0     C89850   0.446   6.385   1.248 -0.0935 -0.0561  0.3115
  652MOL0     C89851   0.296   6.371   1.269 -0.1742  0.3222 -0.2107
  652MOL0     C89852   0.249   6.368   1.423 -1.3334 -0.2976 -0.1517
  652MOL0     C89853   0.109   6.320   1.447 -0.0694 -0.9171 -0.7138
  652MOL0     C89854   0.084   6.271   1.595 -0.6403  1.0188  0.9875
  652MOL0     N89855  -0.054   6.231   1.625 -0.3817 -0.1524 -0.0147
  652MOL0     C89856  -0.127   6.110   1.618 -0.4320 -0.3418 -0.0317
  652MOL0     C89857  -0.253   6.145   1.654  0.9766  0.4271  0.5171
  652MOL0     C89858  -0.366   6.052   1.688  0.5758  0.3363  0.5236
  652MOL0     C89859  -0.436   6.095   1.822 -0.1804 -0.9599  0.0166
  652MOL0     C89860  -0.503   5.980   1.887 -0.0229  0.6718 -0.6637
  652MOL0     C89861  -0.550   6.019   2.032 -0.4123 -0.0276 -0.1921
  652MOL0     O89862  -0.640   6.129   2.032  0.6746 -0.8562  0.1480
  652MOL0     C89863  -0.617   6.232   2.121 -0.3566 -0.1766  0.0626
  652MOL0     C89864  -0.660   6.223   2.252  0.5777  0.2065 -0.1620
  652MOL0     C89865  -0.643   6.334   2.338 -1.0170 -0.1547 -0.1376
  652MOL0     C89866  -0.703   6.321   2.473  0.1582 -0.1493 -0.3657
  652MOL0     C89867  -0.575   6.454   2.293 -1.0591  0.0811  0.7813
  652MOL0     C89868  -0.539   6.575   2.381 -0.2623  0.1766  0.4913
  652MOL0     O89869  -0.533   6.692   2.315 -0.6547  0.3110 -0.4451
  652MOL0     C89870  -0.452   6.789   2.368  0.2706  0.7127 -0.3352
  652MOL0     C89871  -0.504   6.868   2.469  0.7462  0.1911  0.2092
  652MOL0     C89872  -0.427   6.969   2.525  0.6701 -0.4499 -0.5775
  652MOL0     C89873  -0.303   6.990   2.470  0.2310  0.0426  0.3673
  652MOL0     O89874  -0.209   7.085   2.506 -0.3189  0.2040  0.2407
  652MOL0     C89875  -0.238   7.165   2.617 -0.8836 -0.0229 -1.1563
  652MOL0     C89876  -0.160   7.298   2.605 -0.1988  0.5846 -0.0738
  652MOL0     C89877  -0.010   7.266   2.599  0.1875  0.0233 -0.4081
  652MOL0     C89878   0.074   7.388   2.560  1.1008  0.1438  0.3329
  652MOL0     C89879   0.218   7.364   2.556  0.8836  0.7435 -0.5214
  652MOL0     C89880   0.296   7.468   2.480 -0.0942 -0.8075 -0.9064
  652MOL0     C89881   0.440   7.428   2.465 -0.7574  0.3879 -0.0837
  652MOL0     C89882   0.506   7.366   2.598  0.4135 -1.0580  0.1386
  652MOL0    Cl89883   0.476   7.192   2.589 -0.4252 -0.2096  0.4565
  652MOL0     C89884  -0.258   6.919   2.362 -0.0911  0.2959 -0.6878
  652MOL0     C89885  -0.329   6.816   2.311  0.4121  0.3012 -0.3896
  652MOL0     O89886  -0.513   6.559   2.494 -0.0439 -0.2656 -0.4693
  652MOL0     C89887  -0.537   6.459   2.152  0.4342  0.7775 -0.4400
  652MOL0     C89888  -0.569   6.346   2.064 -1.2035 -0.6476 -0.4225
  652MOL0     N89889  -0.253   6.278   1.670  0.2446  0.4354 -0.7947
  652MOL0     N89890  -0.149   6.328   1.635 -1.1541 -0.0445  1.7994
  652MOL0     C89891   0.699   6.803   1.551 -0.1617 -0.0530  0.3934
  652MOL0     C89892   0.715   6.868   1.672 -0.0259 -0.9198  0.2527
  652MOL0     C89893   0.793   7.248   1.924 -0.5147  0.1371  0.5127
  652MOL0     C89894   0.699   7.261   2.037 -0.4663  0.1735  0.3043
  652MOL0     C89895   0.719   7.350   2.138 -1.1043 -0.4869  1.3763
  652MOL0     C89896   0.823   7.445   2.134  0.4472  0.1842  0.0187
  652MOL0     O89897   0.854   7.539   2.228  0.4102  0.0536 -0.0471
  652MOL0     C89898   0.776   7.570   2.342 -0.3761 -1.3349 -0.3829
  652MOL0     C89899   0.842   7.694   2.407 -0.5726  0.1430  0.4197
  652MOL0     C89900   0.778   7.736   2.546 -0.5599  0.3192  0.4010
  652MOL0     C89901   0.849   7.866   2.581  0.0052 -0.6047  0.0397
  652MOL0     C89902   0.779   7.926   2.692 -0.0463  0.1207 -0.4608
  652MOL0     C89903   0.713   7.987   2.775 -0.3856  0.7190  0.4430
  652MOL0     C89904   0.907   7.445   2.020  1.1072 -0.0549  0.1909
  652MOL0     C89905   0.898   7.346   1.915  0.2855  0.5729 -0.4139
  652MOL0     C89906   1.018   7.350   1.807  0.3488  0.5132 -0.8392
  652MOL0     H89907   0.568   7.169   1.602  0.7738 -0.0973 -0.6697
  652MOL0     H89908   0.546   7.056   1.383  1.8216  1.3449  0.4325
  652MOL0     H89909   0.781   6.727   1.288  0.9143 -1.7306 -2.1644
  652MOL0     H89910   0.658   6.742   1.159  1.7857  1.1378  0.2704
  652MOL0     H89911   0.689   6.515   1.217 -0.3790  0.0561  0.0254
  652MOL0     H89912   0.657   6.552   1.387 -3.6026 -0.4394  2.4326
  652MOL0     H89913   0.438   6.584   1.356 -0.0742 -1.3875  0.3002
  652MOL0     H89914   0.439   6.599   1.178  3.7136  1.6877 -0.9851
  652MOL0     H89915   0.478   6.353   1.149  1.0087 -0.3002  0.7344
  652MOL0     H89916   0.504   6.326   1.320 -0.6418  1.2862  1.9275
  652MOL0     H89917   0.271   6.273   1.228 -1.2049  0.8418 -0.8556
  652MOL0     H89918   0.241   6.438   1.203  1.2112  1.6441 -0.0766
  652MOL0     H89919   0.320   6.294   1.461  0.4973 -1.0328 -4.4193
  652MOL0     H89920   0.260   6.463   1.477 -1.4516  1.0154 -2.3568
  652MOL0     H89921   0.094   6.238   1.377 -2.9682  1.6756 -3.4962
  652MOL0     H89922   0.042   6.401   1.416  0.9829  1.1589  2.0208
  652MOL0     H89923   0.140   6.179   1.609 -2.4810 -0.2430  0.4717
  652MOL0     H89924   0.104   6.350   1.667 -1.0435 -0.4137  2.7207
  652MOL0     H89925  -0.086   6.017   1.581 -1.7699 -0.5279 -1.1320
  652MOL0     H89926  -0.333   5.948   1.693 -2.9652 -0.9905 -0.3020
  652MOL0     H89927  -0.440   6.047   1.607 -0.4331 -0.4318  1.4674
  652MOL0     H89928  -0.368   6.147   1.891  0.0577  1.7380 -2.0891
  652MOL0     H89929  -0.509   6.168   1.787  1.7570  1.2835  0.4049
  652MOL0     H89930  -0.587   5.936   1.833 -0.0283 -2.1633  1.4055
  652MOL0     H89931  -0.436   5.894   1.891  0.7054  1.2608  0.3879
  652MOL0     H89932  -0.590   5.927   2.076 -2.7776  0.2864 -1.4773
  652MOL0     H89933  -0.464   6.047   2.093  0.2982 -3.1134  0.4074
  652MOL0     H89934  -0.702   6.128   2.284 -0.8319  0.1301 -2.0798
  652MOL0     H89935  -0.801   6.368   2.484 -0.6609 -2.0313  1.0440
  652MOL0     H89936  -0.634   6.344   2.555  1.3171 -2.5600 -0.5717
  652MOL0     H89937  -0.722   6.215   2.495 -1.6754  0.1806 -0.1984
  652MOL0     H89938  -0.598   6.832   2.511  1.5989 -0.6668  1.4593
  652MOL0     H89939  -0.464   7.036   2.601 -0.0754  0.1831 -1.4657
  652MOL0     H89940  -0.345   7.181   2.632 -1.3892 -1.6048 -2.7128
  652MOL0     H89941  -0.204   7.112   2.707 -3.9802  1.5196  1.1044
  652MOL0     H89942  -0.210   7.350   2.523 -3.2060 -2.3304 -0.2634
  652MOL0     H89943  -0.177   7.365   2.690 -1.0765  0.5996 -0.2552
  652MOL0     H89944   0.021   7.180   2.539 -0.6364 -1.1904  0.8506
  652MOL0     H89945   0.013   7.236   2.702  2.9189  0.7622 -0.7184
  652MOL0     H89946   0.049   7.470   2.628 -0.4906  0.7907 -0.9461
  652MOL0     H89947   0.043   7.422   2.461  1.6791  0.7180  0.3401
  652MOL0     H89948   0.255   7.369   2.658  0.3585 -2.8373 -0.0533
  652MOL0     H89949   0.243   7.267   2.512  2.8604 -0.2221  2.4432
  652MOL0     H89950   0.317   7.558   2.538  2.5939 -0.3680 -2.4009
  652MOL0     H89951   0.254   7.508   2.387 -1.4689  1.1341  0.4627
  652MOL0     H89952   0.492   7.518   2.429 -0.3128 -0.4047 -1.4876
  652MOL0     H89953   0.429   7.347   2.393  0.8665  0.4049 -0.3939
  652MOL0     H89954   0.464   7.408   2.690  0.3093  0.1848 -0.4524
  652MOL0     H89955   0.613   7.389   2.595 -0.3385  3.2869 -0.4074
  652MOL0     H89956  -0.157   6.935   2.326  1.1652  1.2666  2.7967
  652MOL0     H89957  -0.282   6.759   2.233  1.8876 -1.3291  1.5751
  652MOL0     H89958  -0.496   6.545   2.100  0.0380  0.1666 -1.8012
  652MOL0     H89959  -0.551   6.357   1.957 -0.3212 -1.0501 -0.3204
  652MOL0     H89960   0.737   6.702   1.546  1.3056  0.4756 -0.0104
  652MOL0     H89961   0.728   6.824   1.771 -0.5055  0.0261  0.7532
  652MOL0     H89962   0.618   7.189   2.045 -1.7127  1.1464 -2.3247
  652MOL0     H89963   0.652   7.338   2.223 -0.1282 -2.1465  1.9762
  652MOL0     H89964   0.674   7.606   2.333 -0.4165 -0.3407  2.8397
  652MOL0     H89965   0.788   7.486   2.411  0.4573 -1.3488 -0.5304
  652MOL0     H89966   0.840   7.774   2.332 -1.6135 -1.9089 -1.9116
  652MOL0     H89967   0.947   7.669   2.424 -0.7883 -1.7677 -0.7008
  652MOL0     H89968   0.673   7.758   2.525 -0.1055 -1.1961 -4.7812
  652MOL0     H89969   0.800   7.659   2.621  2.9965  0.7614 -0.0319
  652MOL0     H89970   0.836   7.924   2.489  0.6049 -0.1257  0.2517
  652MOL0     H89971   0.957   7.853   2.595  0.8212  0.9614 -3.7066
  652MOL0     H89972   0.654   8.045   2.843 -0.8259 -1.7799  2.3381
  652MOL0     H89973   0.981   7.525   2.021 -0.1047  1.1080  1.3980
  652MOL0     H89974   1.073   7.444   1.803 -0.5125  1.0917  0.4812
  652MOL0     H89975   1.085   7.265   1.826 -2.2946 -1.0919  2.1782
  652MOL0     H89976   0.972   7.331   1.710 -3.6147  1.8681  0.5998
  653MOL0     O89977  10.117   9.409  10.249  0.1829 -0.0933 -0.3589
  653MOL0     C89978  10.156   9.293  10.238  1.1712 -0.6416 -0.0296
  653MOL0     O89979  10.136   9.209  10.132 -0.1120  0.4851 -0.3443
  653MOL0     C89980  10.054   9.252  10.035 -0.2578  0.2502 -0.2907
  653MOL0     C89981   9.920   9.236  10.050 -0.3323 -0.6930  0.5098
  653MOL0     C89982   9.828   9.281   9.950 -0.6014  0.3131  0.2944
  653MOL0     C89983   9.876   9.358   9.840  0.8461 -0.3037 -0.2834
  653MOL0     O89984   9.788   9.424   9.745 -0.4394  0.3376  0.7876
  653MOL0     C89985   9.843   9.476   9.622  0.2735  1.1080  0.1549
  653MOL0     C89986   9.732   9.536   9.529  0.0177  0.5102  0.5478
  653MOL0     C89987   9.797   9.612   9.413 -0.2355 -0.9539 -0.6043
  653MOL0     C89988   9.698   9.634   9.303 -0.2038  0.6688  0.0948
  653MOL0     C89989   9.760   9.696   9.165 -0.4137  0.1046  0.7510
  653MOL0     C89990   9.764   9.858   9.151  0.0263 -0.2367  0.3465
  653MOL0     C89991   9.627   9.924   9.192 -0.5628 -0.3509  1.1255
  653MOL0     C89992   9.501   9.852   9.146 -0.0918 -0.1870 -0.0954
  653MOL0     N89993   9.488   9.892   9.002  0.5970 -0.2569  0.0904
  653MOL0     C89994   9.440  10.008   8.944 -0.7106 -0.6118  0.6428
  653MOL0     C89995   9.433   9.981   8.811 -0.6792  0.1198 -0.1860
  653MOL0     C89996   9.373  10.070   8.711  0.7680 -0.4722  0.5814
  653MOL0     C89997   9.476  10.104   8.600  0.4757  0.4263  0.4743
  653MOL0     C89998   9.604  10.158   8.669 -0.3017  0.2265  0.7201
  653MOL0     C89999   9.690  10.202   8.554 -0.5511 -0.3353 -1.0291
  653MOL0     O90000   9.746  10.102   8.470 -0.9138  0.0076  0.9300
  653MOL0     C90001   9.827  10.144   8.368 -0.4556 -0.1139 -0.3837
  653MOL0     C90002   9.827  10.276   8.324 -0.7847  0.3692  1.2792
  653MOL0     C90003   9.925  10.326   8.239 -0.8800 -0.3188 -0.1730
  653MOL0     C90004   9.919  10.469   8.195 -0.0642 -0.5059 -0.0126
  653MOL0     C90005  10.028  10.236   8.204  0.1140 -0.7495  0.6801
  653MOL0     C90006  10.146  10.286   8.116  0.6379  0.1095 -0.2967
  653MOL0     O90007  10.184  10.416   8.121 -0.2591 -0.3529 -0.0839
  653MOL0     C90008  10.285  10.453   8.032  1.2439 -1.1855 -0.8634
  653MOL0     C90009  10.260  10.543   7.932 -0.0347  0.4304  0.4609
  653MOL0     C90010  10.364  10.571   7.845 -0.1612 -0.2257 -0.0890
  653MOL0     C90011  10.488  10.525   7.871 -0.2089  0.1366  0.0133
  653MOL0     O90012  10.591  10.554   7.782 -1.1072  0.6253  0.0322
  653MOL0     C90013  10.723  10.503   7.810  0.1222 -0.6831 -0.0024
  653MOL0     C90014  10.829  10.559   7.711 -0.2967 -0.2270 -0.5852
  653MOL0     C90015  10.797  10.699   7.657  0.1341  1.4326 -0.2793
  653MOL0     C90016  10.911  10.751   7.572  0.0738  0.3912  0.8028
  653MOL0     C90017  10.873  10.885   7.519  0.2029  0.0846 -0.4193
  653MOL0     C90018  10.994  10.953   7.452 -0.8674 -0.0914  0.6711
  653MOL0     C90019  10.939  11.067   7.361 -0.6834 -0.0656 -0.6662
  653MOL0     C90020  11.044  11.144   7.283 -0.6171  0.1554 -1.1030
  653MOL0    Cl90021  11.104  11.036   7.153 -0.2249  0.0648  0.3233
  653MOL0     C90022  10.525  10.445   7.981 -0.3226  0.3093 -0.0341
  653MOL0     C90023  10.417  10.411   8.063 -0.0065  0.3243 -0.4959
  653MOL0     O90024  10.213  10.197   8.056 -0.2140  0.5647  0.4909
  653MOL0     C90025  10.017  10.096   8.224 -0.7461  0.0212  0.4654
  653MOL0     C90026   9.897  10.056   8.305  0.0373 -0.1634  0.8886
  653MOL0     N90027   9.478   9.857   8.782 -0.5165 -1.0387  0.8093
  653MOL0     N90028   9.502   9.805   8.902 -0.2534 -0.4342  0.2647
  653MOL0     C90029  10.015   9.377   9.827  0.0996 -0.2813 -0.1187
  653MOL0     C90030  10.097   9.328   9.924  0.3539  0.8844 -0.0517
  653MOL0     C90031  10.226   9.236  10.349  1.2409 -0.1113  0.7890
  653MOL0     C90032  10.331   9.133  10.326  0.8959  0.9146 -0.8965
  653MOL0     C90033  10.410   9.077  10.430  0.9346 -0.6066  1.2488
  653MOL0     C90034  10.375   9.112  10.553  0.6038  0.0225 -0.0591
  653MOL0     O90035  10.454   9.058  10.657 -0.3061  0.0378  0.0756
  653MOL0     C90036  10.397   8.974  10.753  0.1897  0.3323  0.1713
  653MOL0     C90037  10.451   8.995  10.906  0.1823  0.2527 -0.6976
  653MOL0     C90038  10.436   9.136  10.965  0.3439 -0.0759 -0.5274
  653MOL0     C90039  10.444   9.174  11.115 -0.6333 -0.7170 -0.9580
  653MOL0     C90040  10.578   9.137  11.167 -0.1358  0.1713 -0.1488
  653MOL0     C90041  10.683   9.095  11.214  0.2749 -0.5556  0.8877
  653MOL0     C90042  10.271   9.195  10.580  0.1062  1.0949 -0.4266
  653MOL0     C90043  10.195   9.266  10.479 -0.0215  0.5865 -0.8730
  653MOL0     C90044  10.077   9.344  10.533  0.3722  0.1036  0.2878
  653MOL0     H90045   9.890   9.199  10.147  0.9829 -2.0347  0.4538
  653MOL0     H90046   9.720   9.279   9.958 -0.5812 -2.4297  0.9053
  653MOL0     H90047   9.885   9.393   9.565  0.9729 -0.4002  2.7082
  653MOL0     H90048   9.922   9.551   9.632  1.2346  0.1593 -0.1619
  653MOL0     H90049   9.680   9.449   9.489 -2.5219  1.9974  0.3602
  653MOL0     H90050   9.681   9.610   9.592  1.6687 -0.0592  2.6684
  653MOL0     H90051   9.828   9.713   9.441  0.4402 -1.2838 -0.1281
  653MOL0     H90052   9.882   9.559   9.369 -0.2013  1.8213 -4.3963
  653MOL0     H90053   9.664   9.534   9.272  0.2642  0.9323 -1.3735
  653MOL0     H90054   9.617   9.698   9.339 -0.3114  0.2239  0.6539
  653MOL0     H90055   9.688   9.659   9.092 -1.2947  1.0057  1.1458
  653MOL0     H90056   9.859   9.653   9.143 -0.4742 -0.4906  1.5909
  653MOL0     H90057   9.833   9.908   9.220 -0.8157  3.7319 -1.3612
  653MOL0     H90058   9.787   9.878   9.046  2.8178 -2.1600  0.4862
  653MOL0     H90059   9.642  10.026   9.157  5.0366 -1.9868 -2.6171
  653MOL0     H90060   9.626   9.943   9.300  0.1550  1.0011  0.9119
  653MOL0     H90061   9.500   9.742   9.144  2.2159 -0.2762  0.6052
  653MOL0     H90062   9.414   9.889   9.201 -0.3134 -1.8679  0.7530
  653MOL0     H90063   9.415  10.099   8.996 -3.6053 -1.7338  1.3685
  653MOL0     H90064   9.315  10.149   8.759 -1.1441 -2.3618  1.5930
  653MOL0     H90065   9.287  10.016   8.669 -0.6602  2.4732 -0.5321
  653MOL0     H90066   9.485  10.015   8.538 -3.6692  0.4390 -0.4168
  653MOL0     H90067   9.437  10.179   8.530 -3.8350 -1.7301  0.2466
  653MOL0     H90068   9.576  10.244   8.731 -2.2331 -0.5327  0.9435
  653MOL0     H90069   9.658  10.092   8.737  0.2111 -1.0544 -0.8596
  653MOL0     H90070   9.633  10.255   8.477  1.1893  0.8833 -1.5366
  653MOL0     H90071   9.769  10.260   8.601  0.4475 -2.9513  0.7218
  653MOL0     H90072   9.750  10.347   8.355 -0.9040  0.6412  0.3887
  653MOL0     H90073   9.834  10.518   8.242 -0.4637  0.3735 -1.5899
  653MOL0     H90074   9.918  10.470   8.085  0.1388  2.4631 -0.0641
  653MOL0     H90075  10.008  10.529   8.214  0.5333 -1.7121  1.1805
  653MOL0     H90076  10.159  10.579   7.918 -0.9691 -2.3559 -0.6558
  653MOL0     H90077  10.359  10.642   7.763  1.5932  2.8288  2.2334
  653MOL0     H90078  10.764  10.543   7.903 -0.9562 -1.7388  0.9543
  653MOL0     H90079  10.715  10.394   7.800 -0.5918 -0.7340  0.9872
  653MOL0     H90080  10.930  10.559   7.754 -0.4482 -0.2658 -0.2174
  653MOL0     H90081  10.834  10.485   7.630 -1.1524 -2.1003  0.9661
  653MOL0     H90082  10.776  10.764   7.742 -1.6098 -0.1743  0.5908
  653MOL0     H90083  10.707  10.698   7.595  0.3878  0.6004 -0.6513
  653MOL0     H90084  10.936  10.678   7.495 -0.3348  1.3960 -0.3243
  653MOL0     H90085  11.003  10.742   7.631  1.4877 -0.9988 -1.4586
  653MOL0     H90086  10.794  10.868   7.445  2.2475 -0.2247 -2.6884
  653MOL0     H90087  10.832  10.950   7.597 -0.0690  0.6918 -1.0581
  653MOL0     H90088  11.042  10.881   7.384 -1.5993 -0.3447  0.4111
  653MOL0     H90089  11.071  10.995   7.517  0.1388  0.4614 -0.8246
  653MOL0     H90090  10.886  11.137   7.425  0.8476 -1.4360  2.2750
  653MOL0     H90091  10.871  11.016   7.291  0.4447  0.9294 -2.5804
  653MOL0     H90092  11.132  11.172   7.341  0.0169 -1.4094 -1.2575
  653MOL0     H90093  11.007  11.239   7.245 -2.1449  0.0568  0.0486
  653MOL0     H90094  10.620  10.407   8.018  0.7930  1.3139 -1.7662
  653MOL0     H90095  10.433  10.345   8.149 -0.5697 -1.1962 -1.5116
  653MOL0     H90096  10.081  10.027   8.170 -1.3198 -0.3002  0.1818
  653MOL0     H90097   9.874   9.952   8.325 -2.6384  0.4841  1.6607
  653MOL0     H90098  10.065   9.420   9.740  1.7950 -0.8871  0.5066
  653MOL0     H90099  10.204   9.338   9.911  0.9371 -3.3473  0.2840
  653MOL0     H90100  10.336   9.105  10.221  0.7698 -0.3367 -0.5808
  653MOL0     H90101  10.483   8.998  10.416 -0.9079 -1.9913 -1.4340
  653MOL0     H90102  10.290   8.995  10.762 -0.2251 -0.3088 -2.4909
  653MOL0     H90103  10.417   8.869  10.728  3.0448  0.7470  0.3467
  653MOL0     H90104  10.555   8.962  10.915  0.3451  0.9340 -0.0257
  653MOL0     H90105  10.386   8.926  10.962 -0.9291  2.1019  0.3804
  653MOL0     H90106  10.510   9.198  10.913  3.1713 -2.2024  0.6412
  653MOL0     H90107  10.333   9.153  10.935 -0.2768  1.5737  2.2168
  653MOL0     H90108  10.367   9.116  11.167 -0.0005  0.0981  0.9642
  653MOL0     H90109  10.414   9.278  11.130 -1.2378 -0.9841 -0.2606
  653MOL0     H90110  10.771   9.044  11.246  2.1556  2.4450  0.8600
  653MOL0     H90111  10.243   9.216  10.682 -0.7619 -0.3678 -0.3385
  653MOL0     H90112  10.073   9.360  10.641  1.7008  0.3460  0.3222
  653MOL0     H90113  10.087   9.449  10.502 -1.0404  0.7356  1.8127
  653MOL0     H90114   9.983   9.303  10.495  0.8053  0.9913 -1.8722
  654MOL0     O90115   7.305   8.971   0.351  0.0042  0.0090 -0.2700
  654MOL0     C90116   7.340   8.862   0.390 -1.3447 -0.0004 -0.0857
  654MOL0     O90117   7.401   8.760   0.323  0.2722  0.0863  0.5661
  654MOL0     C90118   7.411   8.763   0.183 -0.6809  0.9979 -0.3909
  654MOL0     C90119   7.541   8.781   0.127  0.4152  0.3565 -0.3421
  654MOL0     C90120   7.551   8.785  -0.014  0.3424 -0.2725  1.3583
  654MOL0     C90121   7.439   8.784  -0.095 -0.0969  0.0352 -0.4927
  654MOL0     O90122   7.448   8.797  -0.230  0.5414 -0.1828  0.4626
  654MOL0     C90123   7.570   8.765  -0.302  0.3345  0.0065 -1.0389
  654MOL0     C90124   7.654   8.888  -0.335 -0.0781 -0.2023 -0.3081
  654MOL0     C90125   7.798   8.838  -0.382  1.1891 -1.1290 -0.5518
  654MOL0     C90126   7.795   8.750  -0.515 -0.0236  0.0142 -0.7742
  654MOL0     C90127   7.724   8.794  -0.648 -1.1470 -0.0701 -0.8068
  654MOL0     C90128   7.775   8.928  -0.691  0.9459 -0.3206  0.4723
  654MOL0     C90129   7.928   8.944  -0.694 -0.6158 -0.1170 -0.3106
  654MOL0     C90130   7.967   9.079  -0.749  0.4377 -0.0193 -0.7287
  654MOL0     N90131   7.957   9.181  -0.641  0.0005  0.3756 -0.1858
  654MOL0     C90132   7.841   9.240  -0.598  0.3650 -0.1177 -0.9607
  654MOL0     C90133   7.876   9.312  -0.495 -0.1963 -0.3474  1.2048
  654MOL0     C90134   7.775   9.390  -0.408 -0.1989  0.1992  0.0760
  654MOL0     C90135   7.706   9.281  -0.319  1.4569 -0.5353  1.1128
  654MOL0     C90136   7.603   9.327  -0.208  0.3229  0.4575  0.4330
  654MOL0     C90137   7.544   9.201  -0.152  0.8986 -0.2182 -0.4253
  654MOL0     O90138   7.421   9.152  -0.216  0.5438 -0.2816  0.1606
  654MOL0     C90139   7.299   9.203  -0.175  0.4214  0.9080 -1.1291
  654MOL0     C90140   7.246   9.155  -0.058 -0.0832 -0.1620 -0.3601
  654MOL0     C90141   7.127   9.202  -0.005  0.8723  0.8643  0.4325
  654MOL0     C90142   7.097   9.147   0.130  0.1936  0.6519 -0.7730
  654MOL0     C90143   7.057   9.302  -0.077 -0.0704 -0.2447  0.0410
  654MOL0     C90144   6.923   9.360  -0.026 -0.1611  0.3959  0.0493
  654MOL0     O90145   6.840   9.425  -0.110 -0.0538 -0.7000  0.2669
  654MOL0     C90146   6.763   9.511  -0.043  0.9318  0.1094  0.5636
  654MOL0     C90147   6.644   9.465   0.028 -0.0910  1.2283  0.3595
  654MOL0     C90148   6.542   9.559   0.057 -0.1535 -0.9259 -0.1917
  654MOL0     C90149   6.564   9.693   0.062 -0.4987  0.6880 -0.1389
  654MOL0     O90150   6.477   9.783   0.124  1.0190  0.2530 -0.2811
  654MOL0     C90151   6.462   9.918   0.063  0.0243  1.5237 -0.3069
  654MOL0     C90152   6.355   9.990   0.148 -0.1209 -0.5902  0.1424
  654MOL0     C90153   6.337  10.135   0.103 -0.4199 -0.1529  0.6934
  654MOL0     C90154   6.262  10.216   0.207 -0.2425  0.4067 -0.7367
  654MOL0     C90155   6.269  10.357   0.167 -0.5266 -0.3740  0.3410
  654MOL0     C90156   6.412  10.427   0.190  0.7672  0.2598  0.1229
  654MOL0     C90157   6.403  10.584   0.187  0.5001 -0.0459 -0.3430
  654MOL0     C90158   6.354  10.637   0.049 -0.0358 -0.4183 -0.3150
  654MOL0    Cl90159   6.347  10.807   0.081  0.0816  0.1764  0.1049
  654MOL0     C90160   6.688   9.735   0.008  0.4238  0.1782 -0.8237
  654MOL0     C90161   6.786   9.651  -0.050 -0.1951 -1.2168 -0.6697
  654MOL0     O90162   6.895   9.340   0.096 -0.5097  0.5332 -0.7252
  654MOL0     C90163   7.113   9.353  -0.194  0.7523 -0.1686  0.1767
  654MOL0     C90164   7.240   9.308  -0.242  0.3138 -0.3138  0.6151
  654MOL0     N90165   8.011   9.298  -0.476 -0.6720 -0.2304 -0.8533
  654MOL0     N90166   8.067   9.225  -0.575  0.3364 -0.0666  0.1144
  654MOL0     C90167   7.307   8.780  -0.028 -0.4556 -0.7833  0.8756
  654MOL0     C90168   7.298   8.761   0.110  0.7952  0.8057 -0.3922
  654MOL0     C90169   7.342   8.838   0.541  0.4980  0.7687 -0.5510
  654MOL0     C90170   7.426   8.735   0.593  0.0189 -0.2947  0.2650
  654MOL0     C90171   7.439   8.707   0.725  0.0375  0.0667 -0.1219
  654MOL0     C90172   7.359   8.777   0.818 -0.6880 -0.3466 -0.4094
  654MOL0     O90173   7.339   8.752   0.955 -0.8050 -0.0139  0.1045
  654MOL0     C90174   7.380   8.625   1.002 -0.3487  1.1682 -0.2647
  654MOL0     C90175   7.394   8.625   1.151  0.3087  0.2815  0.4409
  654MOL0     C90176   7.280   8.703   1.219  0.0447 -0.0815  0.0012
  654MOL0     C90177   7.316   8.784   1.364 -0.0968  0.2131 -0.0656
  654MOL0     C90178   7.364   8.929   1.356  0.4963  0.6279 -0.1548
  654MOL0     C90179   7.402   9.043   1.356 -0.3483 -0.8740 -0.7134
  654MOL0     C90180   7.281   8.881   0.767  0.4547 -0.0852  0.3819
  654MOL0     C90181   7.260   8.906   0.631  0.8006 -0.2265 -0.1355
  654MOL0     C90182   7.155   9.018   0.596 -0.9050 -0.2735 -0.2257
  654MOL0     H90183   7.633   8.796   0.183 -0.6110  0.1368  1.4549
  654MOL0     H90184   7.647   8.807  -0.060  0.7052 -0.5701  1.9628
  654MOL0     H90185   7.535   8.734  -0.401  1.7846 -2.7355 -0.8045
  654MOL0     H90186   7.630   8.685  -0.257  0.1298 -0.4843 -1.6206
  654MOL0     H90187   7.615   8.956  -0.411  1.1945 -0.0287 -0.8317
  654MOL0     H90188   7.662   8.946  -0.243 -4.2374 -1.7068  1.2320
  654MOL0     H90189   7.862   8.927  -0.388 -2.5833  1.7904 -0.8766
  654MOL0     H90190   7.830   8.779  -0.296 -2.2917  0.3340  1.9385
  654MOL0     H90191   7.901   8.728  -0.528  0.5467  0.9492  1.7759
  654MOL0     H90192   7.758   8.654  -0.477 -0.5592  0.0208 -1.2589
  654MOL0     H90193   7.616   8.798  -0.632 -1.1649  0.7275 -1.0832
  654MOL0     H90194   7.754   8.728  -0.730 -0.1709  0.4751 -0.9001
  654MOL0     H90195   7.743   8.935  -0.796  1.5555  2.8774  0.4027
  654MOL0     H90196   7.725   9.005  -0.632 -1.9592 -0.4314 -1.6156
  654MOL0     H90197   7.970   8.856  -0.744 -2.5217 -0.9091 -0.5893
  654MOL0     H90198   7.954   8.939  -0.588 -0.0268 -1.2019 -0.4882
  654MOL0     H90199   8.072   9.065  -0.776  0.5456  0.5954 -0.6386
  654MOL0     H90200   7.906   9.103  -0.836 -0.0723 -2.7335 -1.2132
  654MOL0     H90201   7.744   9.226  -0.645 -0.1546  2.9384 -0.9659
  654MOL0     H90202   7.704   9.438  -0.476 -0.8918  0.2222  0.7880
  654MOL0     H90203   7.814   9.475  -0.352  1.0908  2.3184 -3.7304
  654MOL0     H90204   7.649   9.213  -0.383  0.0844  0.9295  0.7102
  654MOL0     H90205   7.785   9.216  -0.281  2.0094 -2.6543 -3.0581
  654MOL0     H90206   7.640   9.391  -0.127 -3.7402  3.8825 -0.0726
  654MOL0     H90207   7.514   9.377  -0.248 -1.4148 -0.4793  2.9097
  654MOL0     H90208   7.614   9.118  -0.145 -0.2204 -1.2067 -0.6099
  654MOL0     H90209   7.520   9.233  -0.050  2.5275 -1.4277  0.3709
  654MOL0     H90210   7.289   9.064  -0.018 -0.8408 -0.1535  0.5115
  654MOL0     H90211   6.991   9.135   0.151  0.0867  0.3066 -1.4758
  654MOL0     H90212   7.139   9.210   0.209 -5.1431  1.0195  2.2120
  654MOL0     H90213   7.142   9.047   0.138 -2.9277 -0.7370  0.8742
  654MOL0     H90214   6.637   9.357   0.039 -0.9210  1.0664 -1.3700
  654MOL0     H90215   6.447   9.542   0.106 -0.7068  3.2623  0.5424
  654MOL0     H90216   6.551   9.981   0.070  2.3496 -1.3253 -1.8654
  654MOL0     H90217   6.443   9.904  -0.044  0.7050  0.1177 -0.2611
  654MOL0     H90218   6.255   9.947   0.160 -0.2688 -0.5586 -0.9406
  654MOL0     H90219   6.397   9.987   0.249 -0.8789 -0.3705  0.4723
  654MOL0     H90220   6.282  10.138   0.009 -1.0918  4.4552  1.0301
  654MOL0     H90221   6.442  10.164   0.091 -0.2671  0.1448  2.5581
  654MOL0     H90222   6.301  10.196   0.307  1.9763  1.5064 -1.3169
  654MOL0     H90223   6.158  10.181   0.215  0.3297 -1.1540  0.2399
  654MOL0     H90224   6.252  10.368   0.059  0.2767  3.2769  0.4780
  654MOL0     H90225   6.196  10.415   0.224  0.4208 -1.0124  2.2846
  654MOL0     H90226   6.488  10.381   0.127  2.0786  1.5049  0.7613
  654MOL0     H90227   6.446  10.407   0.292 -0.9645  2.6718  1.2893
  654MOL0     H90228   6.508  10.606   0.209  1.5300 -4.0126 -0.4094
  654MOL0     H90229   6.342  10.616   0.272  0.0864  0.1349 -0.7036
  654MOL0     H90230   6.254  10.601   0.022 -1.3859  2.3697  0.5995
  654MOL0     H90231   6.424  10.611  -0.031 -0.8069  3.6675 -2.6048
  654MOL0     H90232   6.703   9.840  -0.013  1.3142  0.0540 -0.8718
  654MOL0     H90233   6.880   9.663  -0.102  1.0975 -4.8750  0.5807
  654MOL0     H90234   7.050   9.424  -0.247 -0.2458 -1.4485 -0.3811
  654MOL0     H90235   7.269   9.331  -0.344 -0.9062 -0.3580  0.2404
  654MOL0     H90236   7.223   8.774  -0.097  1.1683 -1.7835 -1.1585
  654MOL0     H90237   7.196   8.763   0.147  0.4645  0.0526 -1.2324
  654MOL0     H90238   7.492   8.672   0.534  0.8289 -0.0017  0.8397
  654MOL0     H90239   7.514   8.632   0.749 -1.2297 -0.8888  1.0220
  654MOL0     H90240   7.302   8.552   0.977 -0.8931  1.3171  0.9428
  654MOL0     H90241   7.477   8.593   0.962  1.1002  3.5654  1.1128
  654MOL0     H90242   7.495   8.664   1.167  1.5024 -0.7849 -3.5204
  654MOL0     H90243   7.389   8.523   1.189  3.2336 -0.6096 -1.2852
  654MOL0     H90244   7.235   8.782   1.158 -2.1378 -2.6510 -1.9638
  654MOL0     H90245   7.200   8.636   1.253  1.0839 -1.2470  0.2327
  654MOL0     H90246   7.391   8.719   1.411  0.2645  0.2221 -0.6164
  654MOL0     H90247   7.227   8.778   1.427 -0.8993 -2.3560 -1.2787
  654MOL0     H90248   7.433   9.145   1.369  0.2553 -1.2276  0.9260
  654MOL0     H90249   7.252   8.938   0.854  0.6152 -2.9493  2.4557
  654MOL0     H90250   7.088   8.995   0.512  0.0832 -2.3538 -0.5152
  654MOL0     H90251   7.094   9.057   0.678  0.8333  1.1759  0.4158
  654MOL0     H90252   7.213   9.105   0.565 -1.6235  0.0851 -0.5955
  655MOL0     O90253   5.532  10.833   3.723 -0.3975  0.3998  0.1345
  655MOL0     C90254   5.440  10.779   3.782  0.4942  0.1108  0.6956
  655MOL0     O90255   5.346  10.848   3.846 -0.3818  0.0504 -0.4714
  655MOL0     C90256   5.336  10.983   3.862 -0.7799 -0.1055 -0.5158
  655MOL0     C90257   5.215  11.045   3.849 -0.2639 -0.2021 -0.9297
  655MOL0     C90258   5.194  11.183   3.884 -0.0532  0.2877 -0.2225
  655MOL0     C90259   5.305  11.257   3.926 -0.2427 -0.4959 -0.1163
  655MOL0     O90260   5.279  11.392   3.940 -0.5818 -0.3254 -0.1094
  655MOL0     C90261   5.381  11.488   3.955 -0.1603  0.5033 -0.0332
  655MOL0     C90262   5.320  11.628   3.959  0.4552  0.0443  1.0504
  655MOL0     C90263   5.255  11.672   3.829  0.4190 -0.1469 -0.5829
  655MOL0     C90264   5.195  11.814   3.841 -0.1532 -0.3784  0.1527
  655MOL0     C90265   5.274  11.927   3.777  0.1112 -0.3527  0.7166
  655MOL0     C90266   5.190  12.055   3.772  0.1922 -0.1498  0.2629
  655MOL0     C90267   5.276  12.186   3.775 -0.6661  1.0332  0.3940
  655MOL0     C90268   5.196  12.318   3.765  0.3124 -0.1617  0.7380
  655MOL0     N90269   5.110  12.325   3.636  0.1317 -0.2470  0.4232
  655MOL0     C90270   4.971  12.334   3.637  0.6135  0.7521  0.9684
  655MOL0     C90271   4.936  12.347   3.505 -0.4097 -0.3458 -0.3280
  655MOL0     C90272   4.790  12.356   3.468 -1.1064 -0.1637 -0.0604
  655MOL0     C90273   4.741  12.226   3.416 -0.2131  0.0631 -0.8167
  655MOL0     C90274   4.601  12.224   3.405 -0.2809  0.8020 -0.5282
  655MOL0     C90275   4.541  12.232   3.269 -0.1444  0.2716 -0.2852
  655MOL0     O90276   4.530  12.378   3.246  0.0732  0.8576  0.0859
  655MOL0     C90277   4.482  12.422   3.122 -0.4199  0.6958 -0.6461
  655MOL0     C90278   4.433  12.548   3.112  1.1098  0.7608  0.2122
  655MOL0     C90279   4.370  12.603   3.003 -0.3199 -0.1898  0.2921
  655MOL0     C90280   4.323  12.738   3.025  0.0405 -0.2798 -0.4138
  655MOL0     C90281   4.368  12.526   2.890 -0.0687 -0.2020 -0.5892
  655MOL0     C90282   4.317  12.568   2.761 -0.6076 -1.2726  0.4294
  655MOL0     O90283   4.330  12.488   2.650  0.6109 -0.6355  0.0849
  655MOL0     C90284   4.246  12.514   2.546  0.5216  0.1883  0.5501
  655MOL0     C90285   4.267  12.617   2.460 -0.8005  0.2549 -0.1929
  655MOL0     C90286   4.191  12.630   2.348  0.1978 -1.1992  0.0173
  655MOL0     C90287   4.078  12.553   2.320  0.2854  0.2321  0.4586
  655MOL0     O90288   3.991  12.578   2.217  0.7295 -1.0159 -0.2173
  655MOL0     C90289   4.053  12.618   2.097  1.0634  0.5243 -0.3898
  655MOL0     C90290   3.952  12.627   1.976 -0.4910  0.2703 -0.1014
  655MOL0     C90291   3.864  12.747   2.008 -0.0283 -1.0594 -0.5914
  655MOL0     C90292   3.755  12.778   1.899  0.6520 -0.3690  0.6116
  655MOL0     C90293   3.644  12.679   1.900  0.7926  0.7190  0.4441
  655MOL0     C90294   3.545  12.691   2.007  0.5687 -0.3132  0.0238
  655MOL0     C90295   3.461  12.573   2.037  0.0516  0.1994  0.6470
  655MOL0     C90296   3.331  12.598   2.116  0.0044 -1.2489 -0.5022
  655MOL0    Cl90297   3.362  12.641   2.285  0.5955 -0.1711  0.0612
  655MOL0     C90298   4.042  12.455   2.406  0.9954  0.0782  0.0366
  655MOL0     C90299   4.127  12.440   2.524  0.1910  1.1065  0.1274
  655MOL0     O90300   4.245  12.668   2.770  0.4374 -0.4364  0.2616
  655MOL0     C90301   4.418  12.391   2.889 -0.0354  0.5529  0.3136
  655MOL0     C90302   4.476  12.338   3.008  0.0997  0.4494 -0.0568
  655MOL0     N90303   5.050  12.326   3.439 -0.4079  0.5034  0.1774
  655MOL0     N90304   5.151  12.315   3.509  0.4559 -1.2713  0.2095
  655MOL0     C90305   5.430  11.197   3.942 -0.8244  0.1298  0.3879
  655MOL0     C90306   5.438  11.065   3.911  0.2211 -0.7472  0.1298
  655MOL0     C90307   5.426  10.638   3.783  0.0469  1.0803 -0.5295
  655MOL0     C90308   5.299  10.584   3.816  0.9980  1.0222  1.0558
  655MOL0     C90309   5.292  10.441   3.801  0.0875  0.1824 -0.0682
  655MOL0     C90310   5.396  10.353   3.754  0.9280 -0.2150 -0.3468
  655MOL0     O90311   5.399  10.209   3.739  0.1479  0.2472  0.2629
  655MOL0     C90312   5.278  10.131   3.727  0.2018 -0.4702  0.3717
  655MOL0     C90313   5.221  10.160   3.589 -1.0318  0.5227  0.3592
  655MOL0     C90314   5.304  10.091   3.478 -0.5157  1.2603  0.8223
  655MOL0     C90315   5.453  10.123   3.464 -0.5880 -0.8665 -0.4218
  655MOL0     C90316   5.498  10.097   3.332 -0.4645 -0.4861  0.2355
  655MOL0     C90317   5.546  10.093   3.216 -0.1961  0.4249 -0.4739
  655MOL0     C90318   5.519  10.417   3.734 -0.1482  0.2880 -0.8651
  655MOL0     C90319   5.535  10.557   3.754 -0.5947 -0.6356  0.7140
  655MOL0     C90320   5.675  10.599   3.768  1.2109  1.0384  1.0062
  655MOL0     H90321   5.128  10.991   3.813 -0.3988  0.5193 -1.6994
  655MOL0     H90322   5.099  11.234   3.882  1.5165  3.4722 -0.2629
  655MOL0     H90323   5.459  11.475   3.879 -0.2770 -0.0986 -0.0531
  655MOL0     H90324   5.431  11.476   4.051  0.4486  0.7887 -0.3114
  655MOL0     H90325   5.239  11.619   4.032  1.9460  0.1173  2.7846
  655MOL0     H90326   5.398  11.701   3.981  3.0607 -0.9859 -3.3706
  655MOL0     H90327   5.333  11.668   3.753  0.5809  0.0850 -0.4332
  655MOL0     H90328   5.170  11.608   3.804  1.6366 -1.8044 -0.6202
  655MOL0     H90329   5.097  11.803   3.795  0.8910  1.0594 -2.6334
  655MOL0     H90330   5.181  11.840   3.947 -0.4018  0.3587 -0.0559
  655MOL0     H90331   5.299  11.899   3.674  0.1222 -0.0210  0.6303
  655MOL0     H90332   5.369  11.926   3.830  0.7633 -0.6068 -0.4267
  655MOL0     H90333   5.120  12.051   3.688 -0.3872  1.5346  0.6297
  655MOL0     H90334   5.136  12.066   3.866 -0.7183  2.9636 -0.5140
  655MOL0     H90335   5.349  12.184   3.693 -0.1019  2.1607  0.8491
  655MOL0     H90336   5.329  12.188   3.870  2.8374 -0.4793 -1.3456
  655MOL0     H90337   5.127  12.328   3.850  2.0059 -0.2172  2.1725
  655MOL0     H90338   5.271  12.397   3.769  2.5540 -1.8897 -2.4973
  655MOL0     H90339   4.907  12.340   3.725  2.3131  0.7848  2.2703
  655MOL0     H90340   4.794  12.433   3.390  0.8643  1.9186  1.9557
  655MOL0     H90341   4.730  12.388   3.554  1.2751  0.4706  1.4623
  655MOL0     H90342   4.780  12.210   3.315  2.2947 -1.4691  0.2834
  655MOL0     H90343   4.768  12.146   3.485  1.8051  0.9536 -0.4774
  655MOL0     H90344   4.571  12.121   3.426 -0.0303  0.5202 -1.4958
  655MOL0     H90345   4.549  12.302   3.461  2.5324  2.5331 -0.1712
  655MOL0     H90346   4.608  12.170   3.208 -0.3777  1.6655 -2.0426
  655MOL0     H90347   4.438  12.195   3.261 -0.5512  1.6410 -2.1246
  655MOL0     H90348   4.453  12.597   3.207  1.6667  0.6607  0.1520
  655MOL0     H90349   4.214  12.744   3.018 -0.1958  1.3295  2.6844
  655MOL0     H90350   4.365  12.803   2.947 -0.5148  2.7882  1.6648
  655MOL0     H90351   4.335  12.779   3.125 -4.1563  1.1217 -0.2930
  655MOL0     H90352   4.348  12.689   2.465 -1.5415  1.0740  3.7493
  655MOL0     H90353   4.221  12.723   2.302  3.7500 -3.1546 -2.1241
  655MOL0     H90354   4.109  12.711   2.103  0.1490  1.1855 -1.5203
  655MOL0     H90355   4.125  12.545   2.058  1.6086  0.3114  0.9795
  655MOL0     H90356   4.010  12.651   1.886  0.0726  0.8934  0.4178
  655MOL0     H90357   3.897  12.533   1.960 -0.8027  0.8617 -3.2365
  655MOL0     H90358   3.927  12.836   2.022 -0.6060 -0.3930 -2.0635
  655MOL0     H90359   3.817  12.736   2.106  0.6010  3.6971  0.5208
  655MOL0     H90360   3.806  12.768   1.803  3.0530 -1.1466  1.8740
  655MOL0     H90361   3.712  12.878   1.914 -0.1479 -0.9035  2.1020
  655MOL0     H90362   3.594  12.703   1.806 -0.5233 -4.8435 -0.6322
  655MOL0     H90363   3.688  12.579   1.895  0.5839  0.5897  1.0317
  655MOL0     H90364   3.474  12.771   1.985 -1.1631 -2.4019 -2.3948
  655MOL0     H90365   3.594  12.721   2.101  1.5702  2.8581 -1.3799
  655MOL0     H90366   3.522  12.504   2.096  2.7466  0.4706 -1.5943
  655MOL0     H90367   3.432  12.529   1.942 -0.3329  1.7269  0.0305
  655MOL0     H90368   3.262  12.514   2.104  0.7135 -2.0194  0.6193
  655MOL0     H90369   3.284  12.684   2.068 -1.1170 -0.7676  1.3927
  655MOL0     H90370   3.957  12.389   2.395 -0.3653  1.6114  0.9735
  655MOL0     H90371   4.106  12.357   2.590  5.1340 -0.8269 -0.3167
  655MOL0     H90372   4.409  12.322   2.806 -1.8150  0.2746  0.6932
  655MOL0     H90373   4.500  12.233   3.019 -1.9633  0.0338  0.9415
  655MOL0     H90374   5.518  11.253   3.971 -0.4119  0.0498 -0.6665
  655MOL0     H90375   5.533  11.016   3.931  0.6737 -0.1148 -0.4465
  655MOL0     H90376   5.205  10.632   3.840 -0.1512 -1.3785  1.5750
  655MOL0     H90377   5.206  10.380   3.827  0.2784  0.1148  0.4133
  655MOL0     H90378   5.294  10.025   3.746 -0.9688 -0.6488  0.4066
  655MOL0     H90379   5.203  10.168   3.798 -0.7052  0.1735 -0.8784
  655MOL0     H90380   5.212  10.265   3.559 -0.8685  0.9503  1.7564
  655MOL0     H90381   5.124  10.109   3.587 -1.9890  2.2395 -1.9994
  655MOL0     H90382   5.277   9.986   3.493 -2.0554  1.8305  2.5233
  655MOL0     H90383   5.263  10.125   3.383  1.7070  0.1874 -0.6131
  655MOL0     H90384   5.509  10.068   3.541 -1.7399 -3.6491 -1.4749
  655MOL0     H90385   5.466  10.232   3.471  1.1612 -0.7760 -3.4905
  655MOL0     H90386   5.587  10.088   3.117  2.2216 -1.6243  0.5241
  655MOL0     H90387   5.601  10.355   3.699  0.4884  1.5922 -1.7694
  655MOL0     H90388   5.702  10.641   3.671  0.4632 -1.3633 -0.3052
  655MOL0     H90389   5.675  10.689   3.831 -1.5165  1.6215  0.2906
  655MOL0     H90390   5.737  10.520   3.813 -1.2949 -1.7903 -0.1488
  656MOL0     O90391   2.557   5.326   0.107  0.1465 -0.8290  0.1651
  656MOL0     C90392   2.667   5.271   0.099  0.8605 -0.3124  0.0119
  656MOL0     O90393   2.785   5.315   0.138 -0.3802 -0.1155 -0.4852
  656MOL0     C90394   2.805   5.402   0.247  0.1030 -0.7204 -0.2710
  656MOL0     C90395   2.918   5.481   0.244  0.5364 -0.2929  0.6253
  656MOL0     C90396   2.947   5.567   0.351 -0.7780 -0.2359  0.5196
  656MOL0     C90397   2.871   5.572   0.459 -1.6851  0.0420  0.1267
  656MOL0     O90398   2.931   5.642   0.557 -0.9003  0.4845 -0.7247
  656MOL0     C90399   2.845   5.691   0.662  0.1530  0.0018 -0.3081
  656MOL0     C90400   2.919   5.801   0.752 -0.1585 -0.1895  0.8125
  656MOL0     C90401   2.952   5.932   0.670 -0.0786 -0.3628  0.0838
  656MOL0     C90402   3.029   6.042   0.747 -0.7574 -0.0322  0.3178
  656MOL0     C90403   3.177   6.010   0.762  1.0494 -0.2223 -0.4903
  656MOL0     C90404   3.245   6.115   0.853 -0.7593 -0.5976 -0.1113
  656MOL0     C90405   3.393   6.078   0.879 -0.0603  0.4060  1.0976
  656MOL0     C90406   3.489   6.151   0.787 -0.1506 -0.1404  0.2292
  656MOL0     N90407   3.457   6.128   0.650 -0.5199  0.0551  0.2668
  656MOL0     C90408   3.438   6.223   0.562  0.1998  0.1468  0.5305
  656MOL0     C90409   3.420   6.163   0.444 -0.3372  0.9010 -0.4254
  656MOL0     C90410   3.402   6.231   0.311 -0.1343  0.2026  0.0772
  656MOL0     C90411   3.281   6.185   0.227 -0.2009  0.7756  0.1230
  656MOL0     C90412   3.300   6.227   0.075 -0.3815  0.6417 -0.2320
  656MOL0     C90413   3.287   6.372   0.045 -0.2424  0.3114  0.0585
  656MOL0     O90414   3.390   6.463   0.085 -0.5020  0.7157  1.0574
  656MOL0     C90415   3.514   6.431   0.040 -0.2108 -1.3804  0.8721
  656MOL0     C90416   3.551   6.344  -0.061  1.2072 -0.3863  1.0753
  656MOL0     C90417   3.687   6.324  -0.098 -0.1287  0.5705 -1.1833
  656MOL0     C90418   3.720   6.224  -0.207 -0.4012  0.7353  0.0533
  656MOL0     C90419   3.787   6.391  -0.026  0.2668  0.4655 -0.4297
  656MOL0     C90420   3.932   6.390  -0.043 -0.4140 -0.7526  0.5573
  656MOL0     O90421   4.015   6.357   0.060  0.3482 -0.1700  0.5233
  656MOL0     C90422   4.151   6.369   0.044  1.2965  0.5706  0.7670
  656MOL0     C90423   4.212   6.491   0.009 -0.7411  0.9442 -0.8161
  656MOL0     C90424   4.349   6.499  -0.010  0.1717  0.1673  0.3635
  656MOL0     C90425   4.428   6.382   0.019  1.2551 -0.9914 -0.6909
  656MOL0     O90426   4.557   6.383   0.008 -0.7374 -0.6542  0.0788
  656MOL0     C90427   4.618   6.465  -0.089  0.9292  1.0191  1.3044
  656MOL0     C90428   4.727   6.386  -0.147 -0.1409 -0.7715  0.4516
  656MOL0     C90429   4.682   6.304  -0.259 -0.0752  0.0825 -0.5351
  656MOL0     C90430   4.783   6.228  -0.350  0.5410  0.4091  0.0924
  656MOL0     C90431   4.859   6.315  -0.455 -0.1851  0.4397  0.0345
  656MOL0     C90432   4.970   6.234  -0.521 -0.3060  0.3692 -0.0094
  656MOL0     C90433   5.056   6.317  -0.621  0.2185  0.5360 -0.2528
  656MOL0     C90434   5.174   6.252  -0.684  0.3159  0.3309 -0.2842
  656MOL0    Cl90435   5.118   6.125  -0.790 -0.2629 -0.6712 -0.1056
  656MOL0     C90436   4.371   6.260   0.055 -0.1384  0.1510 -0.3089
  656MOL0     C90437   4.231   6.254   0.058  1.0015 -0.9865 -0.4867
  656MOL0     O90438   3.972   6.421  -0.157  0.6279  0.0730 -0.0820
  656MOL0     C90439   3.750   6.497   0.053 -0.6370 -0.3193  0.0606
  656MOL0     C90440   3.614   6.520   0.090  0.2785 -0.1763  0.4457
  656MOL0     N90441   3.442   6.031   0.459  0.4402 -0.4445 -0.1781
  656MOL0     N90442   3.466   6.008   0.583  0.2548  0.7826  1.3830
  656MOL0     C90443   2.743   5.513   0.449 -0.4398 -0.6307  0.0250
  656MOL0     C90444   2.712   5.432   0.340  1.1434  0.0863 -0.3117
  656MOL0     C90445   2.669   5.135   0.043  0.0596  0.2306 -0.3113
  656MOL0     C90446   2.788   5.060   0.049 -0.7957 -0.3930 -0.7073
  656MOL0     C90447   2.804   4.932  -0.005 -0.3763 -0.0673  0.1611
  656MOL0     C90448   2.694   4.868  -0.065  0.2184  1.0859 -0.7061
  656MOL0     O90449   2.714   4.741  -0.111  0.7323 -0.0080  0.4779
  656MOL0     C90450   2.750   4.642  -0.006  0.5704 -0.4812  0.5966
  656MOL0     C90451   2.782   4.502  -0.066 -0.1683 -0.6871 -0.4585
  656MOL0     C90452   2.667   4.437  -0.136 -0.1017  0.0752  1.6387
  656MOL0     C90453   2.686   4.312  -0.224 -0.4625 -0.0857 -0.8864
  656MOL0     C90454   2.764   4.333  -0.339 -0.0429 -0.2980 -0.1411
  656MOL0     C90455   2.840   4.357  -0.428 -0.2513  0.1263  0.0792
  656MOL0     C90456   2.574   4.934  -0.082  1.3928 -0.7900  0.3844
  656MOL0     C90457   2.559   5.064  -0.031 -0.2697 -0.1992  0.2195
  656MOL0     C90458   2.428   5.135  -0.063  0.7889 -0.2195 -0.1074
  656MOL0     H90459   2.982   5.478   0.157 -0.7222  2.6988 -0.5219
  656MOL0     H90460   3.038   5.626   0.343 -1.5260  1.0323  1.0060
  656MOL0     H90461   2.827   5.603   0.723 -1.5015  1.2847  1.1436
  656MOL0     H90462   2.759   5.741   0.618 -1.3402  1.3209  3.6714
  656MOL0     H90463   2.848   5.811   0.835  0.0978  1.1242  0.9048
  656MOL0     H90464   3.010   5.761   0.795 -1.0056  0.4003  3.3050
  656MOL0     H90465   3.006   5.911   0.578  0.8936  0.4050  0.4685
  656MOL0     H90466   2.852   5.967   0.642 -0.3260 -1.6462 -0.7739
  656MOL0     H90467   3.019   6.141   0.702  3.3078 -0.3131 -1.6889
  656MOL0     H90468   2.980   6.052   0.844 -1.5605 -0.4525 -0.0411
  656MOL0     H90469   3.231   6.006   0.667  3.2001 -2.5708  0.6924
  656MOL0     H90470   3.188   5.910   0.804 -1.9559 -0.7784 -0.8308
  656MOL0     H90471   3.234   6.219   0.822 -3.0402 -0.5084  0.7725
  656MOL0     H90472   3.190   6.114   0.948  3.1376  1.2190  2.4296
  656MOL0     H90473   3.418   5.971   0.884 -0.6999  0.1634 -0.3004
  656MOL0     H90474   3.413   6.111   0.982  1.2270 -0.4205  1.1456
  656MOL0     H90475   3.460   6.254   0.809 -2.3443 -0.8795  1.0322
  656MOL0     H90476   3.595   6.140   0.813 -0.5125  3.0315  4.0612
  656MOL0     H90477   3.449   6.330   0.575  0.2443  0.0046  1.7858
  656MOL0     H90478   3.496   6.209   0.262 -1.1265 -0.1880 -1.7270
  656MOL0     H90479   3.388   6.340   0.313 -1.1056  0.0832  1.0933
  656MOL0     H90480   3.285   6.076   0.231  2.2112  0.7492 -1.0836
  656MOL0     H90481   3.177   6.212   0.246 -0.6184  2.2692 -3.4815
  656MOL0     H90482   3.390   6.177   0.040 -0.4517  1.0193 -0.9583
  656MOL0     H90483   3.214   6.176   0.030 -1.5763  1.4627  1.0382
  656MOL0     H90484   3.267   6.385  -0.062  1.3345  2.0845 -0.0770
  656MOL0     H90485   3.192   6.407   0.087  0.6835  2.9132  0.1506
  656MOL0     H90486   3.477   6.295  -0.122  2.3445 -1.0302  0.1681
  656MOL0     H90487   3.649   6.218  -0.289  0.1449 -1.9578 -0.3356
  656MOL0     H90488   3.720   6.124  -0.162 -1.4689  0.3317 -0.7951
  656MOL0     H90489   3.817   6.237  -0.256 -0.2879 -3.0428 -1.0285
  656MOL0     H90490   4.138   6.568  -0.007 -1.5073  0.8145  1.7064
  656MOL0     H90491   4.389   6.588  -0.057 -0.6765 -0.8152 -2.4499
  656MOL0     H90492   4.540   6.499  -0.158  0.8277  0.2157  1.0128
  656MOL0     H90493   4.666   6.552  -0.043  3.5819  0.4918 -0.2540
  656MOL0     H90494   4.807   6.448  -0.189 -1.3675  1.0575  0.7100
  656MOL0     H90495   4.774   6.330  -0.065  0.3491 -1.4993 -0.3065
  656MOL0     H90496   4.615   6.358  -0.327 -1.9928  1.0007  1.9275
  656MOL0     H90497   4.602   6.241  -0.219 -1.1332  0.8520 -1.3785
  656MOL0     H90498   4.744   6.142  -0.405  1.1552  1.5195 -2.2292
  656MOL0     H90499   4.857   6.185  -0.283  1.9481 -0.3176 -1.8151
  656MOL0     H90500   4.793   6.356  -0.532 -0.6965 -0.0815  0.1904
  656MOL0     H90501   4.907   6.401  -0.407 -0.4515  0.6593 -0.0907
  656MOL0     H90502   4.927   6.149  -0.574 -1.1948  1.8216 -1.7054
  656MOL0     H90503   5.036   6.191  -0.444  0.9679  1.9061 -0.1969
  656MOL0     H90504   5.098   6.396  -0.559  1.8596  1.6916 -2.6477
  656MOL0     H90505   4.993   6.354  -0.703 -0.3551 -0.6078 -0.3459
  656MOL0     H90506   5.241   6.200  -0.616  2.9818  1.5875 -1.7665
  656MOL0     H90507   5.237   6.325  -0.735  2.5410 -1.1862  0.1920
  656MOL0     H90508   4.434   6.172   0.058 -1.0801 -0.5438 -0.1560
  656MOL0     H90509   4.187   6.156   0.073  1.6477 -0.8410  3.1180
  656MOL0     H90510   3.830   6.550   0.104 -0.1491 -0.2400 -0.7580
  656MOL0     H90511   3.580   6.598   0.158 -4.6194 -0.4801 -1.2497
  656MOL0     H90512   2.681   5.526   0.536 -0.5848  1.3260 -0.3307
  656MOL0     H90513   2.617   5.379   0.339  0.7170  0.8365 -1.1175
  656MOL0     H90514   2.871   5.105   0.103 -2.4073 -0.1177  1.6954
  656MOL0     H90515   2.895   4.874   0.004 -0.7393 -0.6600  0.0183
  656MOL0     H90516   2.839   4.682   0.043  0.2744  1.5994 -0.4568
  656MOL0     H90517   2.669   4.648   0.067  0.3562  1.3392  0.2608
  656MOL0     H90518   2.806   4.442   0.023 -2.1644 -0.1620  0.4966
  656MOL0     H90519   2.872   4.501  -0.128 -0.8326 -2.8628 -1.4790
  656MOL0     H90520   2.597   4.408  -0.058 -2.7718  2.5347  0.3412
  656MOL0     H90521   2.615   4.516  -0.192  0.4171 -3.0572 -3.9718
  656MOL0     H90522   2.596   4.256  -0.248 -2.1182 -0.1260  4.1393
  656MOL0     H90523   2.740   4.242  -0.158 -2.6367  1.1308  2.4459
  656MOL0     H90524   2.916   4.380  -0.500 -2.4460  3.1491 -1.5199
  656MOL0     H90525   2.490   4.888  -0.132 -0.4584  0.1389  2.4877
  656MOL0     H90526   2.353   5.133   0.016  0.5251 -0.4623 -0.3609
  656MOL0     H90527   2.450   5.241  -0.081 -0.2497  0.1990  0.9392
  656MOL0     H90528   2.381   5.082  -0.146  1.7697 -1.2082 -0.0443
  657MOL0     O90529   6.545   4.127   8.388  0.2365 -0.4921  0.4280
  657MOL0     C90530   6.616   4.228   8.390 -0.3375 -0.7110  0.4111
  657MOL0     O90531   6.566   4.353   8.354  0.7584 -0.0370  0.1916
  657MOL0     C90532   6.651   4.426   8.284  0.6230 -0.6710  0.7789
  657MOL0     C90533   6.733   4.367   8.184 -0.0161 -0.1173  1.1040
  657MOL0     C90534   6.822   4.443   8.106 -0.6347 -0.3314  0.2013
  657MOL0     C90535   6.831   4.580   8.127  0.0288  0.4659  0.9343
  657MOL0     O90536   6.911   4.647   8.042  0.4481  0.3373 -0.5394
  657MOL0     C90537   6.911   4.787   8.034 -0.1795 -0.0119  0.4800
  657MOL0     C90538   7.017   4.826   7.926 -0.8028 -0.4976 -0.1861
  657MOL0     C90539   6.988   4.759   7.786  0.7192  0.7058 -0.7464
  657MOL0     C90540   6.856   4.798   7.710 -0.6043  0.9886 -0.0783
  657MOL0     C90541   6.822   4.943   7.726 -0.6674 -1.4959 -0.1269
  657MOL0     C90542   6.935   5.028   7.660 -0.5978  0.2628 -0.6405
  657MOL0     C90543   6.933   5.171   7.713  0.1571  0.0124 -0.1529
  657MOL0     C90544   7.004   5.190   7.849 -0.1153 -0.1940  0.3646
  657MOL0     N90545   7.050   5.323   7.880 -0.3153 -0.8592  0.2713
  657MOL0     C90546   7.188   5.354   7.894 -0.2348  0.3187  0.2321
  657MOL0     C90547   7.178   5.492   7.890  0.2604  0.0452 -0.1240
  657MOL0     C90548   7.286   5.603   7.873 -0.0569  0.1815 -0.8420
  657MOL0     C90549   7.241   5.731   7.950 -0.5408 -0.4376 -0.3745
  657MOL0     C90550   7.333   5.854   7.938  0.4315  0.7078  0.0718
  657MOL0     C90551   7.472   5.826   7.989  0.4865 -0.7888 -0.7431
  657MOL0     O90552   7.548   5.771   7.886  0.4214  0.8636  0.1043
  657MOL0     C90553   7.641   5.843   7.812 -0.0623  0.6529  0.1583
  657MOL0     C90554   7.751   5.778   7.762 -0.5143  0.0825  0.3387
  657MOL0     C90555   7.860   5.846   7.698 -0.4982 -0.9965 -0.0951
  657MOL0     C90556   7.953   5.749   7.641  0.1465  0.2119 -0.6264
  657MOL0     C90557   7.864   5.986   7.684 -0.1146 -0.4353  0.0998
  657MOL0     C90558   7.973   6.080   7.618  0.0073 -0.0049 -0.1964
  657MOL0     O90559   8.079   6.017   7.550 -0.1862 -0.5313 -0.1876
  657MOL0     C90560   8.142   6.095   7.457  0.0807  0.4691  0.5533
  657MOL0     C90561   8.097   6.116   7.328  0.3699  0.8327  0.1284
  657MOL0     C90562   8.174   6.192   7.234  0.8461  1.5775 -0.3608
  657MOL0     C90563   8.293   6.246   7.269 -0.8927  0.2165  0.3156
  657MOL0     O90564   8.367   6.308   7.173 -0.0444 -0.1437  0.0187
  657MOL0     C90565   8.512   6.309   7.181  0.5874 -0.7516  0.5427
  657MOL0     C90566   8.562   6.330   7.037 -0.4146 -0.1473 -0.9218
  657MOL0     C90567   8.722   6.317   7.043  0.6945 -1.1218  0.0509
  657MOL0     C90568   8.789   6.210   6.961  0.1035 -0.2881 -0.1407
  657MOL0     C90569   8.943   6.200   6.984  0.2208  0.4299  0.4974
  657MOL0     C90570   9.019   6.327   6.982 -0.1683  0.1488 -0.1475
  657MOL0     C90571   9.037   6.397   6.834  0.0309 -0.2544  0.1760
  657MOL0     C90572   8.958   6.532   6.829 -0.1675 -0.0223  1.4764
  657MOL0    Cl90573   9.002   6.612   6.667  0.3132 -0.3478  0.0601
  657MOL0     C90574   8.341   6.229   7.401  0.9586  0.5489 -0.0544
  657MOL0     C90575   8.261   6.150   7.491 -0.6462  0.5183  1.1688
  657MOL0     O90576   7.949   6.201   7.622 -0.1838  0.0737  0.1308
  657MOL0     C90577   7.751   6.047   7.725 -0.0574  0.3764  0.1727
  657MOL0     C90578   7.640   5.981   7.785  0.5011 -0.3902  0.3315
  657MOL0     N90579   7.047   5.535   7.898 -0.3174 -0.4263  0.5169
  657MOL0     N90580   6.973   5.434   7.876 -0.7162  0.6550 -0.0765
  657MOL0     C90581   6.748   4.637   8.220 -0.7727 -0.4857  0.8451
  657MOL0     C90582   6.673   4.556   8.308 -0.5301  0.2099 -0.6129
  657MOL0     C90583   6.751   4.217   8.455 -0.8447  1.6665  0.0176
  657MOL0     C90584   6.780   4.312   8.550  0.4952  0.3714 -0.6070
  657MOL0     C90585   6.910   4.316   8.600  0.0222  0.4650  0.0127
  657MOL0     C90586   7.012   4.224   8.566  0.3699 -0.4845  0.1524
  657MOL0     O90587   7.135   4.216   8.624  0.2943 -0.2843 -0.1833
  657MOL0     C90588   7.157   4.321   8.724 -0.3120  0.0726  0.8978
  657MOL0     C90589   7.305   4.322   8.772  0.4181  0.1407  0.4824
  657MOL0     C90590   7.410   4.358   8.661  0.4546 -0.6881  0.2702
  657MOL0     C90591   7.359   4.480   8.577 -0.0460  0.0485 -0.3647
  657MOL0     C90592   7.347   4.600   8.653 -0.8482 -0.0608 -0.5606
  657MOL0     C90593   7.353   4.705   8.713 -0.7563  0.6135  0.3633
  657MOL0     C90594   6.970   4.125   8.476  0.9616 -0.5092 -0.4079
  657MOL0     C90595   6.845   4.126   8.410 -0.2690 -0.7409 -0.1283
  657MOL0     C90596   6.815   4.011   8.313 -0.1908  0.4990 -0.2085
  657MOL0     H90597   6.748   4.261   8.168  0.9613  0.2417 -0.7376
  657MOL0     H90598   6.871   4.387   8.026  0.7695  0.0582  0.7766
  657MOL0     H90599   6.931   4.838   8.129 -1.2425  1.4961 -0.0699
  657MOL0     H90600   6.810   4.820   8.007  1.4879  4.0168 -1.7469
  657MOL0     H90601   7.018   4.935   7.915  1.1855 -0.3768  0.7553
  657MOL0     H90602   7.119   4.798   7.955 -0.6638 -0.8362 -0.9669
  657MOL0     H90603   7.073   4.790   7.725 -0.2331  0.4988 -2.2276
  657MOL0     H90604   6.997   4.650   7.781 -0.5875  0.6226 -1.7243
  657MOL0     H90605   6.878   4.767   7.607  3.5771 -2.7008  1.5772
  657MOL0     H90606   6.774   4.739   7.753  2.2834 -1.7725  2.1246
  657MOL0     H90607   6.810   4.959   7.833  4.0641  2.8535  0.1458
  657MOL0     H90608   6.728   4.974   7.681 -0.8974 -0.6895  0.8857
  657MOL0     H90609   7.037   4.990   7.666 -0.6915 -0.2671 -1.9951
  657MOL0     H90610   6.933   5.021   7.550  4.5174 -1.9327 -0.8494
  657MOL0     H90611   6.839   5.227   7.704  0.8095  0.9775 -1.1158
  657MOL0     H90612   6.991   5.217   7.633  1.2511  0.8946  1.0869
  657MOL0     H90613   6.935   5.150   7.924  3.0469 -1.6891  2.7026
  657MOL0     H90614   7.094   5.128   7.853 -1.1390 -1.8163 -0.5736
  657MOL0     H90615   7.282   5.301   7.888 -1.0458 -1.0297 -1.3369
  657MOL0     H90616   7.308   5.627   7.768 -3.1226  1.0578 -1.3631
  657MOL0     H90617   7.378   5.566   7.919 -0.5999 -0.5162 -0.2876
  657MOL0     H90618   7.141   5.757   7.915  0.6793  0.6556 -3.3796
  657MOL0     H90619   7.223   5.703   8.055 -0.4816  0.3835 -0.1340
  657MOL0     H90620   7.335   5.909   7.844  2.4301 -0.8982 -0.9088
  657MOL0     H90621   7.287   5.925   8.008 -0.0852 -1.2639  1.8574
  657MOL0     H90622   7.519   5.919   8.024  3.2397 -2.1322 -0.5973
  657MOL0     H90623   7.462   5.756   8.073 -5.4930 -1.7811 -1.8302
  657MOL0     H90624   7.755   5.671   7.778  0.1332 -0.0633 -0.7063
  657MOL0     H90625   7.977   5.671   7.714 -0.7672  1.4135  1.0310
  657MOL0     H90626   8.050   5.792   7.614  0.4538  0.4255  0.7306
  657MOL0     H90627   7.916   5.710   7.546  1.4412  2.0220 -1.9385
  657MOL0     H90628   8.005   6.068   7.297  0.3995  1.0336 -0.2784
  657MOL0     H90629   8.116   6.179   7.142  0.2782  0.2501  0.1658
  657MOL0     H90630   8.551   6.382   7.253  4.4279 -1.4327 -0.6346
  657MOL0     H90631   8.534   6.207   7.215 -1.6164 -2.1281 -1.7865
  657MOL0     H90632   8.521   6.247   6.980 -3.4494  0.1261  0.6662
  657MOL0     H90633   8.532   6.424   6.990  3.3886  1.7063 -0.1012
  657MOL0     H90634   8.758   6.300   7.144  1.4810 -0.6792 -0.1465
  657MOL0     H90635   8.762   6.416   7.018  1.2365 -1.4035 -0.2046
  657MOL0     H90636   8.764   6.238   6.859  1.6031  3.7174  0.4341
  657MOL0     H90637   8.757   6.107   6.983 -2.7083  0.5606  0.0939
  657MOL0     H90638   8.965   6.150   7.080  0.7472 -0.3096  0.0037
  657MOL0     H90639   8.974   6.135   6.902  0.9646 -2.1162  2.6156
  657MOL0     H90640   9.124   6.302   6.995 -0.7419 -2.7501 -0.4010
  657MOL0     H90641   8.978   6.395   7.058  1.4430  0.3246  0.6031
  657MOL0     H90642   9.017   6.336   6.745  0.0878  0.4565 -0.3337
  657MOL0     H90643   9.144   6.421   6.830  0.6688 -2.8458 -0.8081
  657MOL0     H90644   9.000   6.588   6.913  1.4530  2.2549 -0.7055
  657MOL0     H90645   8.853   6.509   6.851 -0.7106  0.8277 -0.0760
  657MOL0     H90646   8.437   6.272   7.429  1.3353  0.9495 -1.8658
  657MOL0     H90647   8.307   6.127   7.587 -2.1658 -1.4219  1.5167
  657MOL0     H90648   7.740   6.155   7.714  0.6977  0.3833 -0.5742
  657MOL0     H90649   7.551   6.040   7.803  0.7305  0.5496 -1.4172
  657MOL0     H90650   6.762   4.739   8.252  1.8383 -1.2225  2.3016
  657MOL0     H90651   6.639   4.618   8.391  1.4036  1.5824 -0.7795
  657MOL0     H90652   6.704   4.376   8.593  0.1711 -2.3959  3.4709
  657MOL0     H90653   6.909   4.400   8.669 -0.8971  3.0664 -2.9192
  657MOL0     H90654   7.132   4.422   8.690  2.1795  0.7451  0.8427
  657MOL0     H90655   7.108   4.295   8.818  0.4099 -1.0492  0.9862
  657MOL0     H90656   7.315   4.221   8.812 -1.3777  0.0597  0.8357
  657MOL0     H90657   7.315   4.392   8.855  0.1377  0.6351  0.1016
  657MOL0     H90658   7.501   4.382   8.716  0.6179  0.7216 -0.5496
  657MOL0     H90659   7.439   4.279   8.591  5.4935  1.4168 -0.4695
  657MOL0     H90660   7.270   4.451   8.520 -1.5136 -2.6043  2.8867
  657MOL0     H90661   7.436   4.501   8.503 -0.4059  0.7792 -0.5371
  657MOL0     H90662   7.376   4.804   8.744  2.5548  0.5529 -1.4648
  657MOL0     H90663   7.050   4.058   8.446  1.7738 -0.7922  2.1822
  657MOL0     H90664   6.746   4.047   8.236 -2.9745  3.4562  3.3156
  657MOL0     H90665   6.905   3.961   8.276 -1.1375 -1.6903  0.2548
  657MOL0     H90666   6.762   3.927   8.360  0.1566 -0.5754 -1.6642
  658MOL0     O90667  10.156   1.103   1.968 -0.0099  0.1503 -0.1516
  658MOL0     C90668  10.140   0.996   1.904  0.0004 -0.6426  0.1604
  658MOL0     O90669  10.050   0.981   1.795 -0.5655  0.7812 -0.3119
  658MOL0     C90670  10.011   1.091   1.726  0.8122  0.4197  1.2136
  658MOL0     C90671  10.093   1.201   1.679 -0.1912  0.6546 -0.5751
  658MOL0     C90672  10.040   1.309   1.620  0.0993  1.0919 -0.5255
  658MOL0     C90673   9.904   1.311   1.584  0.4838 -0.0609 -1.5784
  658MOL0     O90674   9.844   1.420   1.520 -0.2014 -0.1505 -1.3559
  658MOL0     C90675   9.884   1.457   1.385 -0.2738  1.0359 -0.4198
  658MOL0     C90676   9.753   1.465   1.301  0.2310 -0.0491 -0.9650
  658MOL0     C90677   9.776   1.467   1.153 -0.0006  0.9403  0.0749
  658MOL0     C90678   9.712   1.346   1.081  1.0222 -0.9392  0.2899
  658MOL0     C90679   9.753   1.345   0.927 -0.3370 -0.3794  0.1232
  658MOL0     C90680   9.682   1.239   0.840 -0.0532 -0.7312 -0.6062
  658MOL0     C90681   9.723   1.092   0.876  0.6976 -0.8058 -0.2226
  658MOL0     C90682   9.631   0.995   0.802 -0.5665  0.4133 -0.8391
  658MOL0     N90683   9.483   1.008   0.832 -0.1319 -0.9227  1.1573
  658MOL0     C90684   9.407   0.933   0.921 -0.0942 -0.8742  0.5789
  658MOL0     C90685   9.286   0.981   0.895  0.0017  0.5192 -0.0597
  658MOL0     C90686   9.161   0.919   0.941  0.3841 -0.7339  0.6764
  658MOL0     C90687   9.150   0.872   1.083  0.4728 -0.0566 -0.8790
  658MOL0     C90688   9.192   0.981   1.184  0.9390 -0.6714 -0.0986
  658MOL0     C90689   9.098   1.104   1.191  0.2321 -0.6492 -0.9800
  658MOL0     O90690   9.167   1.203   1.273  0.0266 -0.6178 -0.2175
  658MOL0     C90691   9.232   1.305   1.210 -0.9776 -0.2495 -0.5634
  658MOL0     C90692   9.281   1.406   1.298  0.5104  0.2390  0.6019
  658MOL0     C90693   9.337   1.531   1.260  0.1061  0.2379 -0.6766
  658MOL0     C90694   9.388   1.617   1.378  0.6661 -0.2787  0.9975
  658MOL0     C90695   9.347   1.561   1.122  0.2411  0.5474 -0.8238
  658MOL0     C90696   9.406   1.676   1.062 -0.4595 -0.0271 -0.7675
  658MOL0     O90697   9.522   1.653   0.997 -0.3467 -0.9385 -0.2660
  658MOL0     C90698   9.586   1.754   0.930  0.8102 -0.5343  0.7940
  658MOL0     C90699   9.643   1.862   0.991  0.1037  0.0718 -0.6274
  658MOL0     C90700   9.708   1.954   0.906  0.0398  0.1924  0.5033
  658MOL0     C90701   9.730   1.944   0.767  0.1687  0.4013  0.1632
  658MOL0     O90702   9.791   2.050   0.695  0.0184  0.4113 -0.1364
  658MOL0     C90703   9.825   2.038   0.556 -0.1024 -0.4298  0.0146
  658MOL0     C90704   9.953   1.968   0.541  0.5035  0.2557  0.1494
  658MOL0     C90705  10.070   2.039   0.613 -0.1827 -0.2128 -0.1585
  658MOL0     C90706  10.070   2.190   0.612 -0.3994  0.3844 -0.7603
  658MOL0     C90707  10.193   2.245   0.695  0.0334  0.2121 -0.9148
  658MOL0     C90708  10.162   2.363   0.787  0.4208  0.0126  0.7706
  658MOL0     C90709  10.047   2.347   0.877 -0.0324  1.1177 -0.1569
  658MOL0     C90710  10.063   2.260   1.001  0.1049  0.1700 -0.2135
  658MOL0    Cl90711  10.190   2.335   1.115 -0.1464  0.2929  0.3608
  658MOL0     C90712   9.673   1.826   0.712 -0.1607  0.3551  0.2520
  658MOL0     C90713   9.601   1.730   0.785 -0.7400  0.0123  0.2799
  658MOL0     O90714   9.364   1.786   1.099  0.1776 -0.2490 -0.1958
  658MOL0     C90715   9.293   1.468   1.037 -1.1499  0.5019  0.5568
  658MOL0     C90716   9.240   1.342   1.073  0.1645 -0.2627 -0.0722
  658MOL0     N90717   9.291   1.082   0.802 -0.2732 -0.7268  0.1560
  658MOL0     N90718   9.405   1.091   0.755 -0.0746  0.0174 -0.4132
  658MOL0     C90719   9.825   1.207   1.632 -0.3875 -0.8872  0.7571
  658MOL0     C90720   9.875   1.103   1.708  0.1772  0.3298 -1.2563
  658MOL0     C90721  10.195   0.864   1.954  0.9514  1.5091  0.0058
  658MOL0     C90722  10.111   0.752   1.938 -0.3484  0.2695  0.8435
  658MOL0     C90723  10.136   0.622   1.984  0.0940 -0.3103 -0.3212
  658MOL0     C90724  10.256   0.606   2.050  0.0269 -1.5098 -0.9540
  658MOL0     O90725  10.301   0.481   2.098  0.2658  0.0739  0.0181
  658MOL0     C90726  10.234   0.356   2.090 -0.0883  0.8598  0.3213
  658MOL0     C90727  10.322   0.260   2.168 -0.0542 -0.1092  0.4671
  658MOL0     C90728  10.316   0.300   2.319 -0.1363  0.4383  0.1042
  658MOL0     C90729  10.372   0.187   2.406 -0.4595  0.2576 -1.3494
  658MOL0     C90730  10.360   0.229   2.552  0.5976 -0.7843  0.2719
  658MOL0     C90731  10.338   0.255   2.674  0.3784 -0.5337  0.2154
  658MOL0     C90732  10.344   0.710   2.059 -0.9563  0.3875  0.4579
  658MOL0     C90733  10.318   0.845   2.028  0.3992 -0.9081 -0.0604
  658MOL0     C90734  10.402   0.960   2.084 -0.0438  0.0693 -0.2139
  658MOL0     H90735  10.198   1.193   1.705 -0.4613  0.1811  0.4132
  658MOL0     H90736  10.114   1.382   1.587  1.6383 -0.5546 -0.8407
  658MOL0     H90737   9.959   1.382   1.359  2.8015  3.1950  1.5202
  658MOL0     H90738   9.934   1.552   1.367 -0.7982  1.4298  0.1426
  658MOL0     H90739   9.691   1.382   1.335  3.4023 -2.7525 -1.2223
  658MOL0     H90740   9.706   1.558   1.334  1.9850  1.0655 -1.4779
  658MOL0     H90741   9.733   1.561   1.116  0.8923  1.0237 -0.7816
  658MOL0     H90742   9.883   1.472   1.132 -0.2509  1.5141 -1.1333
  658MOL0     H90743   9.732   1.250   1.129  2.6214 -1.4699 -1.3293
  658MOL0     H90744   9.603   1.358   1.087  1.1598  1.1582 -0.6202
  658MOL0     H90745   9.861   1.333   0.922 -0.5283 -2.7694  0.8139
  658MOL0     H90746   9.728   1.446   0.892  0.9011  0.6270  2.0109
  658MOL0     H90747   9.577   1.256   0.864 -0.2565  2.2613 -3.0144
  658MOL0     H90748   9.692   1.256   0.732 -0.7006  3.5947 -0.1589
  658MOL0     H90749   9.728   1.073   0.983  1.7467 -0.3487 -0.1741
  658MOL0     H90750   9.822   1.068   0.837  0.3655  0.3295 -1.8971
  658MOL0     H90751   9.651   1.003   0.695  1.7178  0.4123 -0.4673
  658MOL0     H90752   9.656   0.892   0.830  0.2139  0.4641 -1.3005
  658MOL0     H90753   9.444   0.851   0.982  0.3752 -1.9326 -1.0667
  658MOL0     H90754   9.130   0.835   0.879  0.7335 -0.6232  0.3529
  658MOL0     H90755   9.082   0.995   0.932  1.7107  0.4318 -2.4444
  658MOL0     H90756   9.051   0.836   1.113  1.4131 -0.9746  1.4039
  658MOL0     H90757   9.219   0.788   1.099  1.9468  0.6656 -3.0254
  658MOL0     H90758   9.200   0.932   1.281 -0.6943  3.2264  2.2319
  658MOL0     H90759   9.293   1.017   1.162  0.0320  1.5845 -0.8206
  658MOL0     H90760   9.062   1.147   1.097  0.6751 -1.3273 -1.4674
  658MOL0     H90761   9.016   1.083   1.259  1.8039  0.4688  1.3839
  658MOL0     H90762   9.264   1.386   1.403 -1.2653 -0.7507  0.1623
  658MOL0     H90763   9.497   1.607   1.377  1.0200  1.8134 -2.9873
  658MOL0     H90764   9.347   1.582   1.473  2.2325 -0.6786  1.5596
  658MOL0     H90765   9.368   1.725   1.373 -0.8642 -0.6106 -1.0522
  658MOL0     H90766   9.639   1.876   1.098 -1.3024  0.0378 -0.6684
  658MOL0     H90767   9.743   2.048   0.947  1.1041 -0.6230  1.5194
  658MOL0     H90768   9.748   1.979   0.505 -0.6166 -0.2991  0.6265
  658MOL0     H90769   9.830   2.137   0.510 -1.4078  0.0512  0.8260
  658MOL0     H90770   9.938   1.870   0.588  1.1897 -1.4736 -3.0016
  658MOL0     H90771   9.970   1.945   0.436  0.7650 -0.9242  0.4372
  658MOL0     H90772  10.165   2.002   0.574  0.1770  1.1203 -0.6248
  658MOL0     H90773  10.055   2.004   0.716 -1.7648 -1.2573 -0.6968
  658MOL0     H90774   9.972   2.233   0.637  0.0129  0.2134  1.2366
  658MOL0     H90775  10.103   2.211   0.509 -0.4827  0.0285 -0.8603
  658MOL0     H90776  10.236   2.165   0.755 -0.0214  1.1917  0.4686
  658MOL0     H90777  10.277   2.268   0.629 -0.0714  0.0547 -1.1062
  658MOL0     H90778  10.127   2.443   0.722 -0.5268  3.7463  5.3651
  658MOL0     H90779  10.251   2.409   0.830 -0.9426  2.9584  0.6583
  658MOL0     H90780   9.963   2.298   0.826  0.5684  0.3360 -0.4356
  658MOL0     H90781  10.008   2.445   0.905 -0.1102  1.3128 -0.9224
  658MOL0     H90782  10.106   2.165   0.966 -0.1620  1.0810 -3.3183
  658MOL0     H90783   9.967   2.251   1.052 -1.3146  0.6321 -2.6352
  658MOL0     H90784   9.682   1.814   0.605  0.8841 -0.3250  0.4031
  658MOL0     H90785   9.555   1.641   0.742 -0.5902 -0.6897  1.5192
  658MOL0     H90786   9.298   1.498   0.933 -0.8965  3.1716  1.2852
  658MOL0     H90787   9.195   1.294   0.987  1.8141  0.8700 -1.6623
  658MOL0     H90788   9.720   1.212   1.609 -0.2492 -0.7204  0.1456
  658MOL0     H90789   9.803   1.027   1.737  0.2594  1.5063  2.4707
  658MOL0     H90790  10.013   0.768   1.893 -0.2912 -0.3336  0.4933
  658MOL0     H90791  10.062   0.543   1.988  0.3234 -0.4872  1.2361
  658MOL0     H90792  10.134   0.366   2.133 -0.4497 -0.6976 -0.0954
  658MOL0     H90793  10.223   0.327   1.985 -1.8043  1.6610  0.2518
  658MOL0     H90794  10.426   0.260   2.134  0.5375 -0.1852  2.1689
  658MOL0     H90795  10.282   0.159   2.154  0.9784 -1.0756  3.6596
  658MOL0     H90796  10.387   0.383   2.321  1.9392 -1.1731 -1.6052
  658MOL0     H90797  10.214   0.327   2.349  0.8671  2.9934  1.5638
  658MOL0     H90798  10.476   0.173   2.376  0.2500  3.9381 -1.0478
  658MOL0     H90799  10.336   0.084   2.405  4.1225 -1.6769  0.8276
  658MOL0     H90800  10.322   0.265   2.779  0.9919 -2.9524  0.6084
  658MOL0     H90801  10.444   0.681   2.090 -0.4939  0.3013 -1.0503
  658MOL0     H90802  10.385   0.980   2.190  0.2397 -1.3801  0.1338
  658MOL0     H90803  10.501   0.912   2.079  0.3668  0.1517  3.8006
  658MOL0     H90804  10.415   1.054   2.030 -0.5744  1.1716  1.5120
  659MOL0     O90805   9.869   3.285   8.300 -0.1051 -0.3508 -0.6874
  659MOL0     C90806   9.834   3.212   8.395  0.1270 -0.5811  0.0127
  659MOL0     O90807   9.911   3.180   8.504  0.9969  0.4519 -0.6662
  659MOL0     C90808  10.031   3.242   8.526 -0.3623 -0.1761  0.3334
  659MOL0     C90809  10.062   3.375   8.493  0.3831  0.3697  0.3190
  659MOL0     C90810  10.173   3.439   8.551  0.0876  0.8602 -0.1859
  659MOL0     C90811  10.272   3.374   8.620  0.1060  0.3838  0.0320
  659MOL0     O90812  10.376   3.429   8.681 -0.7218 -0.0622  0.7693
  659MOL0     C90813  10.383   3.568   8.697  0.5052 -0.3049 -0.9739
  659MOL0     C90814  10.501   3.616   8.780 -0.2571 -0.6935 -0.2802
  659MOL0     C90815  10.630   3.559   8.708  0.5504 -0.4689  0.1293
  659MOL0     C90816  10.757   3.651   8.716  0.2226  0.1680  1.1015
  659MOL0     C90817  10.882   3.574   8.656 -0.9313 -0.3202 -0.7196
  659MOL0     C90818  11.008   3.629   8.720  0.6610 -0.6327 -0.3307
  659MOL0     C90819  11.036   3.781   8.705 -0.3991 -0.7662 -0.0951
  659MOL0     C90820  11.174   3.823   8.770 -0.2544  0.3696  0.5634
  659MOL0     N90821  11.196   3.964   8.767  0.4698  0.2500  0.1997
  659MOL0     C90822  11.216   4.018   8.649  0.5426  0.9084  0.4423
  659MOL0     C90823  11.229   4.151   8.669  0.7532 -0.1393 -0.1669
  659MOL0     C90824  11.278   4.251   8.575 -0.4541 -0.1152 -0.2388
  659MOL0     C90825  11.284   4.399   8.625  0.8196 -0.2460 -0.1054
  659MOL0     C90826  11.325   4.504   8.520 -0.5578  0.7085 -0.1458
  659MOL0     C90827  11.235   4.510   8.402  0.4562  0.7824 -0.0397
  659MOL0     O90828  11.243   4.644   8.350 -0.6157 -0.3819 -0.2860
  659MOL0     C90829  11.163   4.659   8.241 -0.4164  0.3382  0.5357
  659MOL0     C90830  11.064   4.576   8.184 -0.3269 -0.6690 -0.0915
  659MOL0     C90831  10.981   4.610   8.076  0.7097 -0.4704  0.2625
  659MOL0     C90832  10.872   4.505   8.044  0.5665  0.5228  0.1870
  659MOL0     C90833  11.010   4.724   8.002 -0.6637 -0.4757 -0.3293
  659MOL0     C90834  10.930   4.778   7.885  0.0077  0.8510  0.1504
  659MOL0     O90835  10.986   4.872   7.799  0.0545  0.0202 -0.5970
  659MOL0     C90836  10.913   4.947   7.711  0.2017  0.0188  0.5789
  659MOL0     C90837  10.773   4.965   7.703  0.4127  0.8037 -0.3847
  659MOL0     C90838  10.706   5.044   7.611  0.3478  0.7311 -0.3907
  659MOL0     C90839  10.779   5.116   7.522 -0.6489  0.3318 -0.8492
  659MOL0     O90840  10.705   5.192   7.440 -0.9069  0.6808 -0.1744
  659MOL0     C90841  10.769   5.274   7.356 -0.2014  0.3675 -0.6467
  659MOL0     C90842  10.690   5.299   7.222  0.2416 -0.3929 -0.2432
  659MOL0     C90843  10.554   5.354   7.260 -0.0861  0.5489 -0.4711
  659MOL0     C90844  10.475   5.379   7.130 -0.0456 -0.2108 -0.2891
  659MOL0     C90845  10.357   5.473   7.156  0.8716 -1.3705 -1.1216
  659MOL0     C90846  10.274   5.493   7.031  0.3662 -0.0297 -0.1085
  659MOL0     C90847  10.126   5.434   7.028  0.3401  0.7774 -0.5598
  659MOL0     C90848  10.114   5.295   6.980 -0.2077 -0.0128  0.5814
  659MOL0    Cl90849  10.205   5.180   7.082 -0.1683 -0.3968 -0.4587
  659MOL0     C90850  10.924   5.093   7.521  0.7214 -0.4862  0.8039
  659MOL0     C90851  10.989   5.011   7.611  0.2424 -0.9054  0.5968
  659MOL0     O90852  10.817   4.739   7.887 -0.9024 -0.4336  0.2682
  659MOL0     C90853  11.124   4.793   8.034 -0.0265  0.4888  0.0953
  659MOL0     C90854  11.191   4.767   8.162 -0.2726 -1.0480 -0.1280
  659MOL0     N90855  11.212   4.166   8.804  0.0170  0.4981 -0.7888
  659MOL0     N90856  11.201   4.057   8.861 -0.5001  0.3325 -0.0839
  659MOL0     C90857  10.245   3.245   8.653  0.0256  0.2973 -0.4693
  659MOL0     C90858  10.126   3.179   8.615 -0.1447  0.2095 -0.0225
  659MOL0     C90859   9.698   3.158   8.387  0.2295  0.0262  0.0584
  659MOL0     C90860   9.680   3.025   8.413 -0.0824  0.0105  0.1948
  659MOL0     C90861   9.561   2.960   8.380  0.1301 -0.2420  0.4853
  659MOL0     C90862   9.450   3.038   8.356  0.0935  0.4515 -0.5639
  659MOL0     O90863   9.337   2.961   8.337  0.9751 -0.2341 -0.3243
  659MOL0     C90864   9.200   3.021   8.341 -0.1059 -0.5914 -0.6438
  659MOL0     C90865   9.155   3.065   8.205 -0.2701  0.3237  0.4290
  659MOL0     C90866   9.022   3.139   8.212  0.5850 -0.9470  0.0614
  659MOL0     C90867   8.974   3.206   8.078  0.8832 -0.5448 -0.2290
  659MOL0     C90868   8.936   3.109   7.975  0.1137  0.8724 -0.4684
  659MOL0     C90869   8.931   3.021   7.887 -0.5102 -0.3102  0.5933
  659MOL0     C90870   9.453   3.182   8.355 -0.3584  0.0170  0.3831
  659MOL0     C90871   9.580   3.239   8.372 -0.2829  0.3773  0.4154
  659MOL0     C90872   9.577   3.385   8.376  0.2487 -0.2206 -0.6042
  659MOL0     H90873   9.999   3.433   8.427 -0.1367 -1.5096 -0.9077
  659MOL0     H90874  10.184   3.541   8.514  1.7897  0.9190  0.4146
  659MOL0     H90875  10.304   3.606   8.762  0.3506 -0.1166 -1.2699
  659MOL0     H90876  10.380   3.625   8.603 -0.8929  2.4202  0.6079
  659MOL0     H90877  10.510   3.723   8.797  1.4442 -0.5881 -1.6028
  659MOL0     H90878  10.486   3.582   8.883 -2.4354  2.7962  0.7183
  659MOL0     H90879  10.639   3.453   8.733 -3.3203 -1.1942 -1.0078
  659MOL0     H90880  10.601   3.566   8.603 -1.1700  1.1600  0.6570
  659MOL0     H90881  10.740   3.742   8.657  1.3566  2.1860  3.6344
  659MOL0     H90882  10.769   3.686   8.819 -1.3167  2.9707  0.4464
  659MOL0     H90883  10.902   3.595   8.550  1.8989 -0.9472 -0.3953
  659MOL0     H90884  10.873   3.465   8.666 -0.4378 -0.3773 -0.8653
  659MOL0     H90885  11.004   3.621   8.829  2.2022  1.4215 -0.0668
  659MOL0     H90886  11.084   3.556   8.689  1.8277 -0.3442  1.6865
  659MOL0     H90887  10.964   3.845   8.758  0.5972  2.4443 -2.2770
  659MOL0     H90888  11.028   3.803   8.598 -3.4048  0.1364  0.2272
  659MOL0     H90889  11.173   3.786   8.873 -0.1506 -1.6398 -0.1060
  659MOL0     H90890  11.251   3.766   8.718  1.3890  2.8016  0.1971
  659MOL0     H90891  11.237   3.957   8.561 -0.6290 -0.5947  1.1648
  659MOL0     H90892  11.218   4.243   8.484 -1.5279  2.9474  0.0817
  659MOL0     H90893  11.383   4.228   8.554 -0.2695  1.2570 -0.9353
  659MOL0     H90894  11.179   4.429   8.635  0.0991 -2.6284  0.1033
  659MOL0     H90895  11.331   4.405   8.723 -1.1791 -3.6058  1.2221
  659MOL0     H90896  11.319   4.602   8.567 -3.8062  1.3427 -1.6365
  659MOL0     H90897  11.432   4.499   8.497 -0.6848  2.0161 -1.1074
  659MOL0     H90898  11.257   4.433   8.327  1.2021  1.8186 -0.9235
  659MOL0     H90899  11.132   4.504   8.437  0.4126  1.2672 -0.0687
  659MOL0     H90900  11.036   4.482   8.231  2.4201 -0.5980  1.9454
  659MOL0     H90901  10.781   4.559   8.073  0.9600  0.0235  2.5696
  659MOL0     H90902  10.879   4.423   8.116 -3.1444 -2.4423 -2.4626
  659MOL0     H90903  10.873   4.469   7.941 -0.4632 -3.8175  1.4948
  659MOL0     H90904  10.707   4.913   7.771  0.4377  0.5222 -0.5744
  659MOL0     H90905  10.598   5.050   7.600  0.3889 -1.6299 -4.2548
  659MOL0     H90906  10.788   5.371   7.402 -2.6761  3.7011 -5.7420
  659MOL0     H90907  10.861   5.230   7.316 -0.4684 -1.5513  0.7050
  659MOL0     H90908  10.747   5.369   7.161 -0.8333  3.1786  2.5073
  659MOL0     H90909  10.688   5.200   7.176 -2.0125  1.0179 -3.5191
  659MOL0     H90910  10.571   5.439   7.327  0.9206 -1.4295  1.9211
  659MOL0     H90911  10.497   5.286   7.324 -1.7501  3.4361  1.3799
  659MOL0     H90912  10.424   5.284   7.113 -1.6388  1.2209 -5.2522
  659MOL0     H90913  10.533   5.422   7.048  0.3584  0.4550  0.3250
  659MOL0     H90914  10.304   5.421   7.237  1.1847  0.2044  0.1318
  659MOL0     H90915  10.388   5.571   7.194 -0.3527 -0.7260 -1.7159
  659MOL0     H90916  10.326   5.462   6.940 -0.9832  3.6469 -2.3186
  659MOL0     H90917  10.256   5.600   7.019 -1.3868 -0.3733 -0.9264
  659MOL0     H90918  10.061   5.488   6.959 -0.1787  1.5849  0.5262
  659MOL0     H90919  10.086   5.434   7.130  1.6343  0.3327 -0.0319
  659MOL0     H90920  10.153   5.284   6.878  1.6676 -3.3042  1.5090
  659MOL0     H90921  10.011   5.259   6.989 -0.6353  1.2852  1.0117
  659MOL0     H90922  10.992   5.138   7.450 -2.9705 -2.1415 -4.4538
  659MOL0     H90923  11.097   5.002   7.618  0.8122  3.5661  0.5625
  659MOL0     H90924  11.158   4.890   7.997  0.5921  0.6504  1.0478
  659MOL0     H90925  11.265   4.836   8.200 -2.3533  1.4981 -0.3884
  659MOL0     H90926  10.318   3.194   8.716  2.5220 -1.0452 -4.1004
  659MOL0     H90927  10.106   3.091   8.675 -0.9298  2.0642  2.6308
  659MOL0     H90928   9.771   2.973   8.441 -0.6012 -1.2040 -0.3397
  659MOL0     H90929   9.553   2.853   8.394  0.2971 -0.4161 -0.6012
  659MOL0     H90930   9.127   2.948   8.378 -1.0669  0.3765 -0.5685
  659MOL0     H90931   9.197   3.108   8.408  3.4789  2.5730 -4.0608
  659MOL0     H90932   9.136   2.978   8.141 -1.4668  1.2036 -0.4577
  659MOL0     H90933   9.218   3.131   8.145 -3.6731  1.8149 -1.8459
  659MOL0     H90934   8.939   3.072   8.238  0.2793 -1.7071 -2.5510
  659MOL0     H90935   9.041   3.221   8.281  0.0089  0.1046 -0.9966
  659MOL0     H90936   9.054   3.270   8.039 -1.2601  3.2834  1.0595
  659MOL0     H90937   8.885   3.266   8.101  0.1041 -1.0627 -1.7217
  659MOL0     H90938   8.939   2.947   7.811  2.7607 -0.5178  0.9774
  659MOL0     H90939   9.366   3.238   8.320 -0.9635 -0.1445  1.5640
  659MOL0     H90940   9.674   3.423   8.407  1.0025 -3.0072  0.7381
  659MOL0     H90941   9.547   3.429   8.280  4.3083  1.3819 -1.3598
  659MOL0     H90942   9.511   3.418   8.456  0.2681  2.0558 -1.4413
  660MOL0     O90943   2.253   3.694   1.987 -0.1149  0.7528 -0.5299
  660MOL0     C90944   2.204   3.774   2.063 -0.0599  0.4910  0.0832
  660MOL0     O90945   2.263   3.835   2.173 -0.0586 -0.2210 -0.4467
  660MOL0     C90946   2.395   3.827   2.182  0.3526  0.2171 -0.0748
  660MOL0     C90947   2.447   3.701   2.220 -0.0088  0.2812  0.0528
  660MOL0     C90948   2.581   3.694   2.265  0.5886  0.1090  0.5870
  660MOL0     C90949   2.652   3.810   2.282  0.0713  0.2817  0.1411
  660MOL0     O90950   2.781   3.801   2.340 -0.7176  0.2927  0.6375
  660MOL0     C90951   2.896   3.817   2.255  0.6194  0.3187 -0.5358
  660MOL0     C90952   2.997   3.889   2.338 -0.5282  0.3963 -0.0889
  660MOL0     C90953   2.968   4.039   2.331  0.2599 -0.4839 -0.2570
  660MOL0     C90954   3.076   4.131   2.383  0.1416  0.4010 -0.0597
  660MOL0     C90955   3.041   4.279   2.370  0.1619  0.4455  0.8092
  660MOL0     C90956   3.164   4.366   2.410  0.1154 -0.4590 -0.5965
  660MOL0     C90957   3.126   4.518   2.403  0.3947  0.1537 -0.7449
  660MOL0     C90958   3.245   4.618   2.397 -0.0546  0.5868 -0.0439
  660MOL0     N90959   3.338   4.607   2.510 -0.7980 -0.2598  0.2014
  660MOL0     C90960   3.372   4.709   2.598 -0.5024 -0.5478  0.2830
  660MOL0     C90961   3.501   4.680   2.641  0.6578  0.3047 -0.3436
  660MOL0     C90962   3.580   4.761   2.735  0.2230 -0.5429 -0.3083
  660MOL0     C90963   3.657   4.685   2.846 -0.2290  0.1085  0.2997
  660MOL0     C90964   3.767   4.787   2.907 -0.2127 -1.3993  0.0449
  660MOL0     C90965   3.711   4.882   3.011  0.2296 -0.1372 -0.4158
  660MOL0     O90966   3.686   4.806   3.134  0.5382 -0.3334  0.0204
  660MOL0     C90967   3.716   4.859   3.254 -0.6446 -0.0913  0.4762
  660MOL0     C90968   3.838   4.810   3.306 -0.5870  0.0248  0.6395
  660MOL0     C90969   3.886   4.855   3.428 -0.9653  0.0127 -0.5555
  660MOL0     C90970   4.002   4.785   3.490  0.8755  0.3905  0.4252
  660MOL0     C90971   3.813   4.956   3.502  0.0482 -0.5686  0.0297
  660MOL0     C90972   3.857   5.022   3.636  0.6756  0.6179 -0.0631
  660MOL0     O90973   3.772   5.101   3.698  0.8836 -0.4641  0.1950
  660MOL0     C90974   3.816   5.195   3.792  0.1599  0.3047  0.8849
  660MOL0     C90975   3.731   5.237   3.895 -0.0831 -0.2605  0.2092
  660MOL0     C90976   3.765   5.344   3.971  0.7231  0.3386  1.4766
  660MOL0     C90977   3.886   5.413   3.963  0.2478 -0.4447 -0.6308
  660MOL0     O90978   3.916   5.525   4.038  0.0883 -0.8304 -0.1261
  660MOL0     C90979   3.844   5.551   4.162 -0.3119  0.1404  1.0486
  660MOL0     C90980   3.943   5.637   4.238 -0.3036  0.3717 -0.4881
  660MOL0     C90981   3.914   5.640   4.386  0.1635 -0.2430  0.3522
  660MOL0     C90982   3.821   5.548   4.470 -1.1621 -0.4046 -0.1901
  660MOL0     C90983   3.811   5.588   4.617  0.3265 -0.1407  0.6211
  660MOL0     C90984   3.769   5.737   4.642  0.2853  0.7001  0.2546
  660MOL0     C90985   3.713   5.738   4.780  0.0567  0.4838 -0.6693
  660MOL0     C90986   3.631   5.866   4.808  0.6863 -0.3943  0.5546
  660MOL0    Cl90987   3.455   5.820   4.763  0.1789  0.0574 -0.0053
  660MOL0     C90988   3.974   5.368   3.874 -0.2782  0.6700 -0.6411
  660MOL0     C90989   3.945   5.260   3.783  0.7101 -0.8534  0.0936
  660MOL0     O90990   3.965   4.994   3.685  0.2298 -0.3772  0.7728
  660MOL0     C90991   3.692   5.009   3.448  0.6630 -1.0455 -0.0360
  660MOL0     C90992   3.637   4.947   3.327  0.7190  0.2884 -0.8032
  660MOL0     N90993   3.541   4.568   2.574 -0.2723  0.7123  0.6504
  660MOL0     N90994   3.444   4.522   2.504  0.7625  0.2826  0.0163
  660MOL0     C90995   2.593   3.935   2.246 -0.5231 -0.6949  0.1045
  660MOL0     C90996   2.466   3.943   2.196 -0.9024 -1.0626  0.1293
  660MOL0     C90997   2.068   3.824   2.017  0.3849  0.2272  0.5354
  660MOL0     C90998   2.028   3.961   2.014 -0.9232  0.5799 -0.4297
  660MOL0     C90999   1.895   4.007   1.979  0.8105 -0.5849 -1.0720
  660MOL0     C91000   1.800   3.913   1.950  0.3327 -0.4274 -0.9787
  660MOL0     O91001   1.669   3.966   1.963  0.2720  0.7269  0.0392
  660MOL0     C91002   1.560   3.885   2.005  0.2603  0.3536 -0.3541
  660MOL0     C91003   1.482   3.993   2.083  0.0114 -0.1024 -0.2712
  660MOL0     C91004   1.412   4.095   1.998 -0.7744 -0.4810 -0.2104
  660MOL0     C91005   1.333   4.198   2.085 -0.2740  0.4483  0.0694
  660MOL0     C91006   1.252   4.296   2.013  0.5599  0.1021  0.1052
  660MOL0     C91007   1.183   4.381   1.959  1.0201  0.1149 -0.9329
  660MOL0     C91008   1.829   3.780   1.957  0.9044  0.7730  0.1956
  660MOL0     C91009   1.961   3.732   1.971 -0.2671  0.4118  0.1109
  660MOL0     C91010   1.973   3.580   1.991  0.2660 -1.5534  1.2337
  660MOL0     H91011   2.400   3.606   2.197  1.3438 -0.8121  1.5720
  660MOL0     H91012   2.626   3.601   2.298 -0.0990  0.3453  2.2788
  660MOL0     H91013   2.877   3.870   2.161 -0.3735  1.4716  0.2872
  660MOL0     H91014   2.937   3.720   2.227  0.8989  0.7925 -1.8397
  660MOL0     H91015   2.993   3.870   2.445  2.3513  0.7146  0.1693
  660MOL0     H91016   3.098   3.865   2.304 -0.2034  1.3471  0.1846
  660MOL0     H91017   2.956   4.071   2.227  0.1106  1.6416  0.3709
  660MOL0     H91018   2.883   4.076   2.388  1.0788  2.7255 -0.9555
  660MOL0     H91019   3.105   4.111   2.486  2.3341  0.1436 -0.6848
  660MOL0     H91020   3.164   4.104   2.323  1.7530 -0.1675  2.4336
  660MOL0     H91021   2.956   4.309   2.433 -0.7032 -0.3977  0.0602
  660MOL0     H91022   3.010   4.292   2.266 -0.1698 -0.2894  0.8078
  660MOL0     H91023   3.192   4.337   2.511 -0.9387 -1.2033 -0.5009
  660MOL0     H91024   3.245   4.336   2.343  1.2026  0.7511  0.1329
  660MOL0     H91025   3.059   4.541   2.487 -0.7780 -0.2190 -1.5542
  660MOL0     H91026   3.072   4.535   2.310 -2.4997  0.5886  0.8742
  660MOL0     H91027   3.297   4.606   2.302 -2.0478  3.2674 -1.6177
  660MOL0     H91028   3.192   4.714   2.396  0.2016  0.7270 -0.6072
  660MOL0     H91029   3.323   4.793   2.645  1.3354  0.5268  0.4007
  660MOL0     H91030   3.520   4.835   2.788  0.4561 -1.3648  1.1513
  660MOL0     H91031   3.643   4.821   2.668  0.6725  1.7301  2.0163
  660MOL0     H91032   3.597   4.624   2.914  0.4701 -4.1589 -2.5264
  660MOL0     H91033   3.709   4.613   2.782 -1.3566  1.2426 -2.0127
  660MOL0     H91034   3.843   4.728   2.959  2.5658  2.1446  0.4141
  660MOL0     H91035   3.829   4.851   2.843  1.1236 -0.3735  2.2432
  660MOL0     H91036   3.787   4.960   3.025 -1.4272  1.1966  1.6389
  660MOL0     H91037   3.622   4.933   2.974 -0.2629 -1.7146 -1.5229
  660MOL0     H91038   3.884   4.729   3.252 -1.4595 -0.0186 -0.0550
  660MOL0     H91039   4.095   4.841   3.475 -0.3277  1.8390 -2.6482
  660MOL0     H91040   4.017   4.689   3.441 -1.4126 -0.4399  1.2314
  660MOL0     H91041   3.962   4.772   3.591 -2.1861  3.2328 -0.2331
  660MOL0     H91042   3.629   5.199   3.898  0.3864 -1.7001 -0.6672
  660MOL0     H91043   3.689   5.396   4.029  0.5571  2.7000 -0.6510
  660MOL0     H91044   3.752   5.609   4.150 -1.0884 -1.2735 -0.1763
  660MOL0     H91045   3.821   5.460   4.218 -2.8005  0.8897  1.3766
  660MOL0     H91046   4.041   5.596   4.211  2.3906  3.9715  2.7101
  660MOL0     H91047   3.936   5.737   4.195 -1.8026  1.2241  1.5802
  660MOL0     H91048   3.862   5.736   4.394 -0.3492 -0.6393  2.1418
  660MOL0     H91049   4.009   5.663   4.437 -0.2074  0.3100  0.8026
  660MOL0     H91050   3.859   5.448   4.446  1.1164  0.9527 -2.7951
  660MOL0     H91051   3.721   5.538   4.428 -0.4190  1.0613 -2.5145
  660MOL0     H91052   3.745   5.518   4.669  3.0983 -0.9520  3.3442
  660MOL0     H91053   3.904   5.572   4.672 -0.1957 -0.0477  1.5406
  660MOL0     H91054   3.694   5.780   4.576 -0.4795 -0.9012  0.0320
  660MOL0     H91055   3.859   5.800   4.644  0.1077  0.9501  1.9941
  660MOL0     H91056   3.798   5.728   4.848 -2.7089 -1.6256  2.8748
  660MOL0     H91057   3.645   5.655   4.802 -2.5039  2.5110 -0.3782
  660MOL0     H91058   3.667   5.950   4.748 -1.0351 -1.0742 -1.5386
  660MOL0     H91059   3.628   5.904   4.911 -0.7344  1.5799 -0.1387
  660MOL0     H91060   4.070   5.417   3.871  0.6375 -1.0078 -4.4839
  660MOL0     H91061   4.012   5.225   3.705 -0.2683 -1.2308 -0.5927
  660MOL0     H91062   3.637   5.083   3.505  1.5048 -1.6495  1.6202
  660MOL0     H91063   3.546   4.998   3.297  0.8788 -0.5676 -2.8743
  660MOL0     H91064   2.654   4.025   2.247 -3.0913  1.2324 -1.9365
  660MOL0     H91065   2.420   4.041   2.184  0.1118 -0.6356 -0.3822
  660MOL0     H91066   2.100   4.038   2.037  2.0894 -2.3228  0.4935
  660MOL0     H91067   1.882   4.115   1.981  1.3813 -0.3846  3.7012
  660MOL0     H91068   1.508   3.845   1.918  0.1227 -1.2272  0.4226
  660MOL0     H91069   1.592   3.811   2.079 -3.7307  1.5487  2.9851
  660MOL0     H91070   1.559   4.039   2.145  0.1797  0.5877 -0.9749
  660MOL0     H91071   1.393   3.956   2.134 -1.3737  1.1685 -1.6404
  660MOL0     H91072   1.487   4.145   1.936  1.6605 -4.0206 -0.4635
  660MOL0     H91073   1.341   4.044   1.931  1.3527 -2.5167 -1.0989
  660MOL0     H91074   1.409   4.248   2.145 -0.3841 -2.5398  3.0207
  660MOL0     H91075   1.273   4.141   2.156 -0.5737  0.6372 -0.0319
  660MOL0     H91076   1.102   4.445   1.929  0.6569 -0.3027 -0.8700
  660MOL0     H91077   1.748   3.708   1.954  0.7431  0.8112  2.2060
  660MOL0     H91078   1.976   3.541   2.093 -0.6569 -0.4831  1.6833
  660MOL0     H91079   1.889   3.527   1.944  1.2246 -0.2869 -2.2294
  660MOL0     H91080   2.065   3.552   1.938  1.7552  0.6101  2.5445
  661MOL0     O91081   7.878   2.458   7.563 -0.3879 -0.2582 -0.7615
  661MOL0     C91082   7.833   2.540   7.480  0.3106  0.0795 -0.6437
  661MOL0     O91083   7.859   2.530   7.347  0.6066 -0.1481 -0.1663
  661MOL0     C91084   7.952   2.442   7.306  0.6627  0.0218 -0.6254
  661MOL0     C91085   8.087   2.473   7.313  0.2429 -0.4507  0.0669
  661MOL0     C91086   8.172   2.390   7.240 -0.0351 -0.1219  0.2959
  661MOL0     C91087   8.141   2.260   7.195 -0.2275  0.0676  0.7858
  661MOL0     O91088   8.216   2.159   7.141 -0.4523  0.2062  0.1416
  661MOL0     C91089   8.286   2.192   7.019  0.7185 -0.6443 -0.2155
  661MOL0     C91090   8.380   2.078   6.986  0.4825  1.0264 -0.0648
  661MOL0     C91091   8.335   1.999   6.876 -0.5679  0.8425 -1.0961
  661MOL0     C91092   8.374   1.848   6.891 -0.0664 -0.4211  1.0096
  661MOL0     C91093   8.332   1.777   6.761  0.0033 -0.4551 -0.4443
  661MOL0     C91094   8.375   1.634   6.768  0.1107 -0.5526 -0.2823
  661MOL0     C91095   8.526   1.588   6.765  0.1304 -0.6347 -0.1047
  661MOL0     C91096   8.527   1.443   6.737 -0.8877  0.4480 -0.1539
  661MOL0     N91097   8.661   1.388   6.783  0.3474  0.4704  0.1403
  661MOL0     C91098   8.785   1.438   6.744  0.1846  0.5290  1.0260
  661MOL0     C91099   8.863   1.337   6.768 -0.6065 -1.1485  0.2487
  661MOL0     C91100   9.011   1.338   6.742 -0.2676  0.1803  0.3789
  661MOL0     C91101   9.052   1.392   6.600 -0.7861  0.3507  1.0417
  661MOL0     C91102   9.164   1.302   6.531  0.0159  0.9641 -0.1722
  661MOL0     C91103   9.217   1.375   6.411  0.6469  1.7637 -0.1241
  661MOL0     O91104   9.137   1.332   6.304  1.2199  0.4890  0.2198
  661MOL0     C91105   9.189   1.315   6.182  0.8440  0.1128 -0.4145
  661MOL0     C91106   9.314   1.365   6.146 -0.0602  0.1293 -0.0410
  661MOL0     C91107   9.351   1.361   6.012 -0.3019 -0.4641 -0.2931
  661MOL0     C91108   9.481   1.427   5.982 -0.6043 -0.3540  0.9658
  661MOL0     C91109   9.258   1.320   5.911 -1.0504  0.4222 -1.2571
  661MOL0     C91110   9.285   1.333   5.766 -0.5545 -0.6924 -0.3101
  661MOL0     O91111   9.197   1.270   5.680 -0.1369 -0.6776  0.3188
  661MOL0     C91112   9.196   1.289   5.548  0.1517  0.8971 -0.9195
  661MOL0     C91113   9.206   1.421   5.487 -0.1913  0.0138 -0.2868
  661MOL0     C91114   9.188   1.430   5.351 -0.2460  0.8010  0.4133
  661MOL0     C91115   9.163   1.321   5.272 -0.3551 -0.4929 -0.4377
  661MOL0     O91116   9.125   1.323   5.134  0.5307  1.1712 -0.0204
  661MOL0     C91117   9.175   1.423   5.053  0.0162  0.9106 -0.0739
  661MOL0     C91118   9.118   1.403   4.913  0.0977 -0.3750  0.3175
  661MOL0     C91119   9.196   1.476   4.807  0.1110  0.0292  0.0652
  661MOL0     C91120   9.150   1.626   4.805  0.1569 -0.0743 -0.0910
  661MOL0     C91121   9.243   1.721   4.726  0.2529  0.2194  1.0977
  661MOL0     C91122   9.192   1.866   4.743  0.0482  0.1374 -0.6902
  661MOL0     C91123   9.281   1.974   4.698 -1.9537 -0.9297 -0.2996
  661MOL0     C91124   9.218   2.112   4.728 -0.8935  0.1260  0.4887
  661MOL0    Cl91125   9.220   2.164   4.898 -0.2665  0.8711  0.1764
  661MOL0     C91126   9.166   1.189   5.329  1.1242  0.5507 -0.5349
  661MOL0     C91127   9.184   1.176   5.467  0.0392  0.1625 -0.7781
  661MOL0     O91128   9.383   1.402   5.732  0.4394 -0.2663 -0.5020
  661MOL0     C91129   9.143   1.255   5.957  0.8026  0.2369  1.3145
  661MOL0     C91130   9.102   1.253   6.094  0.4955 -0.4488  1.1618
  661MOL0     N91131   8.799   1.241   6.838 -0.4453  0.1584  0.0645
  661MOL0     N91132   8.674   1.267   6.850 -0.3063 -0.2102 -0.5287
  661MOL0     C91133   8.002   2.229   7.202 -0.0400  0.2328 -0.6240
  661MOL0     C91134   7.909   2.326   7.245 -0.4264  0.6914 -0.8838
  661MOL0     C91135   7.748   2.659   7.525  0.7557 -0.0374 -0.3038
  661MOL0     C91136   7.731   2.775   7.442 -0.4616  0.3121  0.0055
  661MOL0     C91137   7.661   2.884   7.473 -0.1102  0.1092 -0.8487
  661MOL0     C91138   7.590   2.889   7.590  0.4880  1.1478  0.2968
  661MOL0     O91139   7.512   3.002   7.606 -1.3622 -0.2836 -0.6691
  661MOL0     C91140   7.490   3.039   7.747 -0.1358 -0.7799  0.0713
  661MOL0     C91141   7.354   2.996   7.817  0.6127 -0.1032  1.1722
  661MOL0     C91142   7.242   3.015   7.717  0.6297  0.6184 -0.7563
  661MOL0     C91143   7.107   3.012   7.781 -0.3075  0.4214 -0.6145
  661MOL0     C91144   7.088   3.133   7.869  0.1915  0.3755  0.1656
  661MOL0     C91145   7.071   3.234   7.929 -0.7424 -0.0716 -0.8519
  661MOL0     C91146   7.590   2.773   7.680 -0.7324  0.1376 -0.7248
  661MOL0     C91147   7.672   2.661   7.652  0.5629 -0.1396  0.1703
  661MOL0     C91148   7.672   2.557   7.753 -0.5973 -0.3054  0.5571
  661MOL0     H91149   8.112   2.571   7.351  0.7026 -1.1687  1.6644
  661MOL0     H91150   8.274   2.428   7.240 -0.6644  1.6626  1.2062
  661MOL0     H91151   8.344   2.285   7.021  0.8147 -0.7108  0.5099
  661MOL0     H91152   8.209   2.214   6.945  2.6719  4.0756 -1.1471
  661MOL0     H91153   8.479   2.122   6.969  0.8348  0.5433  0.6873
  661MOL0     H91154   8.370   2.009   7.070 -2.2427  1.6175  0.1700
  661MOL0     H91155   8.225   2.003   6.881 -0.9945 -4.3987  2.9623
  661MOL0     H91156   8.369   2.042   6.782  1.3685  1.2607 -0.2588
  661MOL0     H91157   8.478   1.835   6.919 -0.8096 -2.9680  2.8692
  661MOL0     H91158   8.319   1.793   6.967  0.0874 -1.1716  0.5844
  661MOL0     H91159   8.377   1.830   6.677 -1.6383 -1.2258 -1.8807
  661MOL0     H91160   8.224   1.778   6.743 -0.1692 -2.9191  0.1151
  661MOL0     H91161   8.322   1.584   6.850  0.5193 -1.4074 -0.5332
  661MOL0     H91162   8.340   1.589   6.674  0.3030 -2.2175  0.4175
  661MOL0     H91163   8.568   1.595   6.866 -0.6757  0.8364  0.1595
  661MOL0     H91164   8.583   1.644   6.691 -1.0944  0.9415  0.0879
  661MOL0     H91165   8.456   1.385   6.796 -0.4811 -1.2578 -1.2515
  661MOL0     H91166   8.519   1.423   6.629 -0.1168 -0.0853 -0.1221
  661MOL0     H91167   8.810   1.528   6.690  2.6489 -2.0380 -2.6303
  661MOL0     H91168   9.033   1.230   6.740  1.2259  0.4663 -1.5708
  661MOL0     H91169   9.063   1.386   6.825 -0.8250  2.5535 -0.5839
  661MOL0     H91170   8.968   1.402   6.531 -2.1972 -1.6868  2.3251
  661MOL0     H91171   9.079   1.497   6.615  0.0458 -0.0772  2.8257
  661MOL0     H91172   9.254   1.294   6.594 -0.6839  1.8615  1.0018
  661MOL0     H91173   9.125   1.206   6.498  0.5645  0.0115  1.7754
  661MOL0     H91174   9.218   1.484   6.421 -2.0395  1.8992 -0.7059
  661MOL0     H91175   9.323   1.349   6.421 -0.0871 -2.6788 -1.5456
  661MOL0     H91176   9.382   1.421   6.210  1.8884 -1.3920 -0.6846
  661MOL0     H91177   9.550   1.431   6.067  0.0544  1.9102  0.4094
  661MOL0     H91178   9.467   1.534   5.961 -1.0900 -0.2238  1.8918
  661MOL0     H91179   9.537   1.375   5.904  1.3898  3.1132 -0.1545
  661MOL0     H91180   9.236   1.509   5.544 -1.2054  0.2275 -0.0523
  661MOL0     H91181   9.186   1.529   5.307 -3.6309  0.4228 -0.5873
  661MOL0     H91182   9.145   1.513   5.107  1.2639  2.3804 -1.6881
  661MOL0     H91183   9.284   1.416   5.055 -0.0632 -0.5483  0.2653
  661MOL0     H91184   9.128   1.295   4.897  0.5681 -0.3144  0.1906
  661MOL0     H91185   9.012   1.430   4.909  0.7475  2.3122 -0.9677
  661MOL0     H91186   9.187   1.431   4.708  2.2671 -1.8968  0.6671
  661MOL0     H91187   9.300   1.495   4.836 -0.7740  1.6367  2.5395
  661MOL0     H91188   9.131   1.664   4.905  1.4726  1.3351 -0.3482
  661MOL0     H91189   9.047   1.638   4.768  1.0536  4.3510 -1.8106
  661MOL0     H91190   9.347   1.706   4.757  0.7674 -1.6777 -1.2899
  661MOL0     H91191   9.229   1.691   4.622  0.2602  1.7464  0.6468
  661MOL0     H91192   9.180   1.888   4.849  0.7375 -1.0176 -0.3636
  661MOL0     H91193   9.095   1.880   4.694 -0.7905  1.6533  1.2895
  661MOL0     H91194   9.309   1.970   4.592  1.2235  0.4214  0.3698
  661MOL0     H91195   9.373   1.968   4.757 -1.4880 -0.2750 -0.9303
  661MOL0     H91196   9.114   2.116   4.694 -0.3472 -1.1351 -1.5034
  661MOL0     H91197   9.284   2.185   4.680 -0.0889 -1.0319 -0.1985
  661MOL0     H91198   9.158   1.096   5.275  2.4217 -0.9279  1.6745
  661MOL0     H91199   9.201   1.073   5.500  1.1687  0.6791  0.3298
  661MOL0     H91200   9.072   1.212   5.887  1.0346 -0.2917  1.3976
  661MOL0     H91201   9.016   1.210   6.143  1.9743 -1.5019  2.9591
  661MOL0     H91202   7.976   2.128   7.170 -1.9193  0.6119 -0.3888
  661MOL0     H91203   7.802   2.306   7.243 -0.3793  0.2490  0.2078
  661MOL0     H91204   7.797   2.773   7.356  3.4352  3.1849  2.5503
  661MOL0     H91205   7.648   2.969   7.406 -0.3253  1.2938  0.6337
  661MOL0     H91206   7.570   3.006   7.814  1.6915 -0.1337 -1.6805
  661MOL0     H91207   7.480   3.148   7.750 -2.0891 -0.9476  0.8577
  661MOL0     H91208   7.347   3.061   7.905  0.7085  2.0658 -0.3482
  661MOL0     H91209   7.358   2.890   7.843 -1.7785 -1.3067 -2.4906
  661MOL0     H91210   7.245   3.104   7.654 -1.5055  2.3148  1.3593
  661MOL0     H91211   7.240   2.927   7.653 -1.4381  0.8296 -1.0450
  661MOL0     H91212   7.089   2.930   7.851  1.4899 -1.5851 -2.3826
  661MOL0     H91213   7.028   3.005   7.706 -0.9670 -1.6498  0.2104
  661MOL0     H91214   7.060   3.326   7.982 -2.4257 -0.7590  0.0706
  661MOL0     H91215   7.541   2.767   7.776 -0.6627  0.7078 -0.6539
  661MOL0     H91216   7.641   2.462   7.707  1.3022 -0.6840 -0.0483
  661MOL0     H91217   7.775   2.542   7.787 -1.3944  2.5978  4.9795
  661MOL0     H91218   7.611   2.585   7.839  1.1411 -0.1551  1.7795
  662MOL0     O91219   4.568   8.226   3.936 -0.6294  0.3228 -0.6528
  662MOL0     C91220   4.664   8.256   3.870 -0.5845  0.0093  1.5249
  662MOL0     O91221   4.721   8.381   3.866 -0.0802 -0.5029 -0.8487
  662MOL0     C91222   4.683   8.485   3.958 -0.7699 -0.9503 -0.6869
  662MOL0     C91223   4.790   8.563   4.019  1.1294  0.5509  0.1376
  662MOL0     C91224   4.760   8.663   4.117  0.2386  1.3626 -0.2552
  662MOL0     C91225   4.625   8.698   4.149  0.4462  0.4987  0.4136
  662MOL0     O91226   4.598   8.780   4.249 -0.4638 -0.5336 -0.7888
  662MOL0     C91227   4.467   8.799   4.300  0.0923  0.5050 -0.5199
  662MOL0     C91228   4.483   8.879   4.431  0.1108 -0.3687 -1.0952
  662MOL0     C91229   4.554   8.792   4.529  0.3976 -0.1673  0.0569
  662MOL0     C91230   4.581   8.869   4.665 -1.1977  0.2750 -0.1138
  662MOL0     C91231   4.669   8.786   4.765 -0.2657  0.6500  0.3533
  662MOL0     C91232   4.817   8.761   4.722  0.0321 -0.4088  0.1299
  662MOL0     C91233   4.879   8.643   4.811 -0.8382  0.4305 -0.3427
  662MOL0     C91234   5.041   8.632   4.793  0.6651  0.2584 -0.3926
  662MOL0     N91235   5.115   8.739   4.858 -0.3761  0.2889 -0.0458
  662MOL0     C91236   5.119   8.873   4.820 -0.3438  0.7529 -0.0838
  662MOL0     C91237   5.204   8.931   4.909  0.4146 -0.4790  0.6178
  662MOL0     C91238   5.246   9.079   4.891 -0.6133  0.3684  0.3087
  662MOL0     C91239   5.195   9.159   5.006  0.1020 -0.4890  0.1720
  662MOL0     C91240   5.281   9.152   5.134  1.6771  0.8695 -0.0827
  662MOL0     C91241   5.375   9.275   5.157  0.0959  1.2273  0.3244
  662MOL0     O91242   5.451   9.279   5.033  0.0551 -0.9035 -0.4185
  662MOL0     C91243   5.572   9.341   5.030 -0.4559  0.7314  0.6139
  662MOL0     C91244   5.641   9.405   5.131 -0.2778 -0.4723  0.4624
  662MOL0     C91245   5.766   9.474   5.115  1.1616 -0.2327  0.9279
  662MOL0     C91246   5.833   9.526   5.239 -0.2212 -0.4495  0.2088
  662MOL0     C91247   5.823   9.467   4.982 -0.3704 -0.2635  0.0290
  662MOL0     C91248   5.953   9.522   4.953 -0.0192 -0.0574  0.3404
  662MOL0     O91249   6.040   9.438   4.881  0.2316 -0.7606 -0.0951
  662MOL0     C91250   6.165   9.478   4.839  0.3202  0.1761 -0.6976
  662MOL0     C91251   6.240   9.381   4.781 -0.1833  1.3225  0.0991
  662MOL0     C91252   6.378   9.393   4.743  0.6083 -0.4002 -0.4597
  662MOL0     C91253   6.438   9.520   4.772 -0.8243  0.1251 -0.0043
  662MOL0     O91254   6.562   9.536   4.719 -0.4703  0.3174 -1.0463
  662MOL0     C91255   6.651   9.628   4.797 -0.6556  0.5794  0.8083
  662MOL0     C91256   6.785   9.624   4.733  0.2738 -0.1875  0.5538
  662MOL0     C91257   6.801   9.658   4.591 -0.0366  0.4267 -0.2034
  662MOL0     C91258   6.946   9.613   4.542  0.2505 -0.1739 -0.4085
  662MOL0     C91259   6.951   9.608   4.390  0.5073  0.0166  0.0312
  662MOL0     C91260   6.959   9.735   4.319  0.5157  0.3192  1.0856
  662MOL0     C91261   7.048   9.843   4.388 -0.4105 -0.9600  0.6350
  662MOL0     C91262   7.196   9.794   4.415 -0.2879  1.4702 -0.1537
  662MOL0    Cl91263   7.271   9.764   4.251  0.4436  0.0135  0.4837
  662MOL0     C91264   6.372   9.613   4.853 -0.2838 -0.9766  0.9952
  662MOL0     C91265   6.237   9.581   4.891  0.4128 -0.2373  0.3233
  662MOL0     O91266   5.954   9.646   4.962 -0.7941 -0.7843 -0.8571
  662MOL0     C91267   5.753   9.402   4.878 -0.2144 -1.4967 -0.6883
  662MOL0     C91268   5.634   9.336   4.908  0.8525 -0.8159  0.2023
  662MOL0     N91269   5.236   8.837   5.005 -0.3212  1.3828 -0.0336
  662MOL0     N91270   5.183   8.721   4.978 -0.1408  0.5219  0.1231
  662MOL0     C91271   4.522   8.637   4.065 -0.6451 -0.2224 -0.0364
  662MOL0     C91272   4.552   8.532   3.976 -0.4108 -1.1058 -0.7185
  662MOL0     C91273   4.737   8.149   3.803 -0.0651  0.2530  0.3107
  662MOL0     C91274   4.676   8.020   3.789  0.7292 -0.3160 -0.1789
  662MOL0     C91275   4.734   7.918   3.723  0.3104 -0.6848 -0.5081
  662MOL0     C91276   4.861   7.927   3.668 -0.4546  0.4466  0.4529
  662MOL0     O91277   4.924   7.824   3.605 -0.3983 -0.6019 -0.5050
  662MOL0     C91278   4.870   7.683   3.604  0.4075  1.3105 -0.2469
  662MOL0     C91279   4.741   7.666   3.511  1.1789  0.7706 -0.4377
  662MOL0     C91280   4.644   7.541   3.530  1.1022 -0.5133 -0.5282
  662MOL0     C91281   4.696   7.414   3.474  0.9624  0.6245 -0.6041
  662MOL0     C91282   4.718   7.406   3.333  0.4970  0.0160  1.4622
  662MOL0     C91283   4.714   7.389   3.209 -0.1139  0.3687  0.3866
  662MOL0     C91284   4.935   8.052   3.686 -0.4774  0.4230  1.1366
  662MOL0     C91285   4.874   8.163   3.755  0.1560  0.2906  1.0058
  662MOL0     C91286   4.965   8.274   3.792 -0.3337  0.6007  0.0164
  662MOL0     H91287   4.891   8.524   4.008  1.0296 -0.5885  2.7098
  662MOL0     H91288   4.842   8.706   4.174  1.3502  0.4035 -1.0946
  662MOL0     H91289   4.421   8.702   4.322  0.1482  0.6779  0.3861
  662MOL0     H91290   4.401   8.842   4.224 -3.5924 -3.0261  0.3264
  662MOL0     H91291   4.521   8.981   4.420 -2.2918  0.7732  0.4684
  662MOL0     H91292   4.380   8.884   4.467  0.1285  2.4084 -1.2313
  662MOL0     H91293   4.508   8.694   4.529  0.9329 -0.4531 -1.5883
  662MOL0     H91294   4.652   8.765   4.488 -0.4927 -2.7909 -0.5006
  662MOL0     H91295   4.625   8.968   4.655 -1.2834  0.1832 -1.6686
  662MOL0     H91296   4.477   8.879   4.698 -0.6477  1.6170  1.3365
  662MOL0     H91297   4.608   8.704   4.806 -2.8887  3.5266  2.7845
  662MOL0     H91298   4.681   8.840   4.859  0.8005  1.5947 -0.3142
  662MOL0     H91299   4.822   8.736   4.616  2.2707 -2.4749  0.6232
  662MOL0     H91300   4.872   8.855   4.719 -0.6217 -0.0440 -0.6442
  662MOL0     H91301   4.838   8.546   4.779  2.3498 -1.5313  0.9717
  662MOL0     H91302   4.851   8.671   4.913 -1.4610 -0.1361 -0.3506
  662MOL0     H91303   5.062   8.543   4.853  2.5901  0.8645 -0.0715
  662MOL0     H91304   5.062   8.608   4.688  1.3195 -0.3395 -0.1403
  662MOL0     H91305   5.082   8.926   4.732 -0.7275  1.0984  0.2791
  662MOL0     H91306   5.208   9.118   4.796 -1.4206 -0.9853  0.0537
  662MOL0     H91307   5.355   9.074   4.881 -0.6729  0.8443 -0.6421
  662MOL0     H91308   5.166   9.260   4.977 -0.2605 -1.2463 -2.3584
  662MOL0     H91309   5.097   9.111   5.020 -0.6637 -0.1375 -3.1515
  662MOL0     H91310   5.215   9.156   5.222  3.3595 -1.3326  1.3834
  662MOL0     H91311   5.336   9.059   5.143  1.8466  1.0587  0.9375
  662MOL0     H91312   5.316   9.365   5.177 -1.7253  0.3103 -0.5950
  662MOL0     H91313   5.435   9.252   5.245 -1.6504 -0.0942  1.2375
  662MOL0     H91314   5.601   9.409   5.231 -0.4083 -0.4749  0.4103
  662MOL0     H91315   5.787   9.621   5.267 -2.1076 -1.8339  2.0489
  662MOL0     H91316   5.941   9.543   5.230  0.0087 -0.1346  2.7558
  662MOL0     H91317   5.808   9.464   5.325  0.4037  0.7251  1.2640
  662MOL0     H91318   6.192   9.283   4.776  1.2847  0.6484 -1.7425
  662MOL0     H91319   6.425   9.307   4.695 -0.7427 -4.0204  4.0368
  662MOL0     H91320   6.615   9.732   4.794  0.0953  0.9668  3.1581
  662MOL0     H91321   6.672   9.599   4.901  1.7462 -2.2427 -0.3200
  662MOL0     H91322   6.852   9.693   4.785  0.9526  0.2900 -0.9068
  662MOL0     H91323   6.837   9.529   4.748  1.3683  0.4342  0.8161
  662MOL0     H91324   6.758   9.755   4.566 -2.3397 -0.3116  0.6503
  662MOL0     H91325   6.734   9.601   4.527  0.9087  1.6897 -2.4404
  662MOL0     H91326   6.961   9.507   4.565  1.1295 -1.5772 -5.8175
  662MOL0     H91327   7.018   9.681   4.589 -0.3781 -0.7262  1.4242
  662MOL0     H91328   7.047   9.569   4.356 -0.4224 -0.0380 -2.7335
  662MOL0     H91329   6.866   9.549   4.356  0.5383  1.0551 -1.9736
  662MOL0     H91330   6.855   9.768   4.313  1.0293  1.9121  0.4524
  662MOL0     H91331   6.987   9.729   4.213  2.9189  0.6603  1.6568
  662MOL0     H91332   7.010   9.876   4.485  1.5900  1.0545  0.8273
  662MOL0     H91333   7.049   9.941   4.338  0.0052  0.4027  3.1320
  662MOL0     H91334   7.206   9.700   4.470  0.7905  2.4234  1.3317
  662MOL0     H91335   7.253   9.877   4.457 -1.3996  3.5079 -2.3865
  662MOL0     H91336   6.420   9.706   4.879 -0.0683 -0.0883 -2.0984
  662MOL0     H91337   6.177   9.659   4.936 -0.3112 -0.6665  0.1019
  662MOL0     H91338   5.814   9.386   4.789 -0.6453 -1.9615 -0.9075
  662MOL0     H91339   5.590   9.275   4.829  1.4768 -0.4439 -0.4544
  662MOL0     H91340   4.417   8.659   4.080 -0.9592 -1.1403 -0.7578
  662MOL0     H91341   4.476   8.498   3.906 -1.4831  1.6162 -0.9901
  662MOL0     H91342   4.572   8.015   3.821 -0.3158 -1.4202 -3.4067
  662MOL0     H91343   4.669   7.831   3.719 -1.8487  0.9024 -2.0162
  662MOL0     H91344   4.937   7.610   3.556 -1.8390  0.1983 -1.8810
  662MOL0     H91345   4.853   7.642   3.704 -2.0043  0.7822 -0.8091
  662MOL0     H91346   4.781   7.651   3.410  0.9673 -2.5010 -0.1446
  662MOL0     H91347   4.672   7.751   3.517  0.3973  0.0520  1.7626
  662MOL0     H91348   4.611   7.529   3.634 -2.0003  0.3075 -1.3268
  662MOL0     H91349   4.557   7.566   3.469  1.5507  0.6042 -0.7235
  662MOL0     H91350   4.633   7.328   3.495  1.6788 -1.2184 -5.0107
  662MOL0     H91351   4.793   7.388   3.517 -0.5290 -4.4921  0.3257
  662MOL0     H91352   4.721   7.373   3.103  1.1716  3.6149 -0.1609
  662MOL0     H91353   5.035   8.055   3.644 -1.4493  3.4988 -1.3589
  662MOL0     H91354   4.963   8.287   3.900 -1.5164 -4.8869  0.9693
  662MOL0     H91355   5.069   8.251   3.766 -0.1649  2.0782 -0.7392
  662MOL0     H91356   4.933   8.363   3.738  1.3095  0.5816 -1.0531
  663MOL0     O91357   7.898  11.436   1.228 -0.7685  0.0578 -0.1505
  663MOL0     C91358   7.851  11.536   1.271  0.7654 -0.3641 -0.2154
  663MOL0     O91359   7.905  11.618   1.366 -0.4992 -0.0369 -0.6534
  663MOL0     C91360   8.048  11.608   1.398  0.1057 -0.1782  0.5086
  663MOL0     C91361   8.073  11.574   1.532 -0.0844 -0.0177  0.8419
  663MOL0     C91362   8.209  11.588   1.573 -0.5151  1.1567 -0.3987
  663MOL0     C91363   8.320  11.598   1.487 -0.8097  1.0108 -0.5833
  663MOL0     O91364   8.451  11.589   1.546  0.3251 -0.2840  0.2602
  663MOL0     C91365   8.568  11.599   1.468  0.1928 -0.6990 -0.1654
  663MOL0     C91366   8.683  11.583   1.567  0.8595 -0.2854  0.2252
  663MOL0     C91367   8.818  11.602   1.503  1.5430  1.0254  0.0181
  663MOL0     C91368   8.926  11.596   1.617  0.4833  0.7773  0.3121
  663MOL0     C91369   9.068  11.578   1.562  0.2958  0.5727 -0.0020
  663MOL0     C91370   9.180  11.559   1.661 -0.7569  0.1819  0.0781
  663MOL0     C91371   9.302  11.547   1.573  0.3055 -0.1410  0.2813
  663MOL0     C91372   9.434  11.539   1.645 -0.3336  0.7907 -0.7959
  663MOL0     N91373   9.460  11.395   1.676  0.0120  0.6179 -0.4212
  663MOL0     C91374   9.577  11.341   1.733 -0.5591  0.2005 -0.1847
  663MOL0     C91375   9.534  11.214   1.769  0.3082 -0.3279  0.4376
  663MOL0     C91376   9.628  11.101   1.820  0.2359 -0.5764  0.4252
  663MOL0     C91377   9.710  11.151   1.945 -0.2324 -0.9348  0.3917
  663MOL0     C91378   9.615  11.218   2.042  0.5033  0.2391 -0.4085
  663MOL0     C91379   9.664  11.196   2.189 -0.1977 -0.6124  0.3313
  663MOL0     O91380   9.559  11.223   2.288 -0.6860  0.0126  0.6178
  663MOL0     C91381   9.607  11.242   2.415  0.9549  1.7402  0.2970
  663MOL0     C91382   9.567  11.347   2.491 -0.1220  0.7268 -1.2950
  663MOL0     C91383   9.600  11.364   2.631 -0.0682  0.5692 -0.2738
  663MOL0     C91384   9.561  11.495   2.698 -0.0625  0.0498  0.0544
  663MOL0     C91385   9.691  11.271   2.684 -0.2911  0.2964  0.2582
  663MOL0     C91386   9.745  11.269   2.818  0.2140 -0.9958 -0.6915
  663MOL0     O91387   9.872  11.219   2.843  0.3579  0.5583  0.1652
  663MOL0     C91388   9.963  11.260   2.937  0.0133 -0.0534  0.7466
  663MOL0     C91389   9.948  11.376   3.003 -0.2965 -0.0400 -0.0180
  663MOL0     C91390  10.025  11.415   3.117  0.4790  0.3264  0.1643
  663MOL0     C91391  10.134  11.332   3.148 -0.2707 -0.6554 -0.3015
  663MOL0     O91392  10.202  11.364   3.258  0.7286  0.3577  0.7993
  663MOL0     C91393  10.307  11.282   3.311  0.4613  0.5851  0.1418
  663MOL0     C91394  10.390  11.396   3.375 -0.0146  0.6338  0.2432
  663MOL0     C91395  10.500  11.325   3.460  0.4224 -0.3170 -1.3250
  663MOL0     C91396  10.567  11.407   3.569  0.0190  0.8145 -0.5458
  663MOL0     C91397  10.628  11.550   3.536 -0.5048 -1.2715  0.9908
  663MOL0     C91398  10.681  11.627   3.658  0.6342 -0.7262  0.6079
  663MOL0     C91399  10.735  11.768   3.625  0.1853  0.0004 -0.4988
  663MOL0     C91400  10.854  11.761   3.529 -0.5148  0.2370 -1.3334
  663MOL0    Cl91401  10.978  11.898   3.559  0.0834 -0.0875  0.2216
  663MOL0     C91402  10.163  11.225   3.065 -0.9580  0.8665 -0.6314
  663MOL0     C91403  10.079  11.189   2.965  0.0214 -0.6024 -0.8631
  663MOL0     O91404   9.658  11.301   2.903 -0.3660  0.6317  0.2586
  663MOL0     C91405   9.757  11.184   2.598 -0.6563  0.5298 -0.2828
  663MOL0     C91406   9.699  11.156   2.467 -0.1908 -0.0649 -0.2236
  663MOL0     N91407   9.404  11.190   1.741  0.0593 -0.8629  0.1483
  663MOL0     N91408   9.359  11.305   1.697 -0.3225  0.0261 -0.3726
  663MOL0     C91409   8.296  11.613   1.354  0.9089 -0.7192  0.4010
  663MOL0     C91410   8.158  11.619   1.310  0.2718 -1.1665  0.2733
  663MOL0     C91411   7.737  11.594   1.209 -0.8083  0.2901  0.3969
  663MOL0     C91412   7.732  11.641   1.080  0.8287 -0.1858 -0.2320
  663MOL0     C91413   7.627  11.688   1.010 -0.9918 -0.0706  0.7546
  663MOL0     C91414   7.512  11.722   1.084  0.1197 -0.5078 -0.2013
  663MOL0     O91415   7.427  11.795   1.005  0.1630  0.1320  0.4575
  663MOL0     C91416   7.287  11.794   1.051 -0.7504 -0.2545 -0.0721
  663MOL0     C91417   7.195  11.851   0.940 -0.1404  0.2390  0.3910
  663MOL0     C91418   7.199  11.787   0.799 -0.0515  0.6569  0.6345
  663MOL0     C91419   7.185  11.631   0.797 -0.0728  0.6706 -0.4153
  663MOL0     C91420   7.210  11.599   0.659  0.3340  0.2499 -0.2154
  663MOL0     C91421   7.233  11.576   0.540  0.0249  0.1127 -0.4347
  663MOL0     C91422   7.506  11.694   1.219 -0.1750 -0.2975 -0.1618
  663MOL0     C91423   7.618  11.625   1.281 -0.7021  1.0107 -0.7251
  663MOL0     C91424   7.608  11.575   1.428 -0.3343  0.4988 -0.0875
  663MOL0     H91425   7.992  11.546   1.598 -1.7393  0.5782 -0.8604
  663MOL0     H91426   8.225  11.561   1.676  0.2399 -1.3895 -1.1146
  663MOL0     H91427   8.570  11.683   1.398  0.7636 -0.0162  0.6615
  663MOL0     H91428   8.576  11.511   1.403  1.0344 -0.1962 -0.7679
  663MOL0     H91429   8.688  11.661   1.643  0.6341  0.0571 -0.1078
  663MOL0     H91430   8.690  11.494   1.630  0.3982  1.2203  2.5235
  663MOL0     H91431   8.823  11.519   1.431 -0.5500  0.9094 -0.0489
  663MOL0     H91432   8.821  11.693   1.443 -1.1893  0.5102 -1.0482
  663MOL0     H91433   8.913  11.685   1.678 -3.4975  1.4969 -1.2404
  663MOL0     H91434   8.896  11.512   1.680  0.7504 -0.0162 -0.5912
  663MOL0     H91435   9.087  11.672   1.509 -2.6915  1.1504 -0.2591
  663MOL0     H91436   9.080  11.502   1.484  1.1692  3.4703 -2.9663
  663MOL0     H91437   9.190  11.655   1.711 -0.0744  0.1527  0.0067
  663MOL0     H91438   9.172  11.470   1.725  2.5747 -2.2861 -2.5461
  663MOL0     H91439   9.321  11.628   1.501 -1.3242  0.0956  0.0834
  663MOL0     H91440   9.285  11.456   1.514 -0.2289  0.9373 -1.3249
  663MOL0     H91441   9.511  11.579   1.579  0.6474  0.5216  0.1533
  663MOL0     H91442   9.435  11.602   1.735 -0.5613  1.3012 -1.1412
  663MOL0     H91443   9.676  11.384   1.736  0.4981 -2.0324  4.0247
  663MOL0     H91444   9.695  11.065   1.742  2.3505  0.6113  1.5945
  663MOL0     H91445   9.552  11.028   1.847  1.2536 -0.3565  4.6084
  663MOL0     H91446   9.769  11.071   1.991  0.1389  0.6691  2.9287
  663MOL0     H91447   9.774  11.230   1.906  0.2817 -1.2856  0.5109
  663MOL0     H91448   9.599  11.324   2.020 -0.2261  0.4644  1.0594
  663MOL0     H91449   9.516  11.171   2.039 -0.9016  2.9835 -0.0416
  663MOL0     H91450   9.713  11.098   2.195 -0.7072 -1.2161 -3.2863
  663MOL0     H91451   9.741  11.268   2.217 -0.9634 -0.5848  2.6520
  663MOL0     H91452   9.495  11.422   2.461 -1.8851 -0.4025 -0.0814
  663MOL0     H91453   9.514  11.563   2.627 -0.0030 -1.0610 -1.0686
  663MOL0     H91454   9.656  11.535   2.735 -0.1704  0.4656 -0.1141
  663MOL0     H91455   9.488  11.477   2.778 -0.5472  1.5799 -0.0285
  663MOL0     H91456   9.867  11.444   2.980  1.4594  1.8276 -0.9694
  663MOL0     H91457  10.005  11.503   3.176  1.0492 -0.3962  1.4627
  663MOL0     H91458  10.279  11.202   3.380 -0.2742  2.3019  1.9371
  663MOL0     H91459  10.370  11.238   3.233 -2.4216 -1.1017 -1.4091
  663MOL0     H91460  10.426  11.470   3.303 -2.2298  1.8581  0.3003
  663MOL0     H91461  10.335  11.465   3.441 -0.7112 -0.1134  0.4606
  663MOL0     H91462  10.576  11.274   3.400  1.0526 -1.6800  0.5270
  663MOL0     H91463  10.450  11.249   3.521  0.0961  2.1774  1.7680
  663MOL0     H91464  10.634  11.347   3.631 -3.0315 -0.1007  2.2019
  663MOL0     H91465  10.480  11.434   3.630 -1.0990 -1.5878 -0.9882
  663MOL0     H91466  10.713  11.520   3.474  0.0443  1.3928  0.3108
  663MOL0     H91467  10.559  11.590   3.461 -0.5069 -1.4335  0.9055
  663MOL0     H91468  10.749  11.562   3.714  1.9071 -1.1034 -1.2877
  663MOL0     H91469  10.597  11.647   3.725  1.3794 -2.4362  2.1465
  663MOL0     H91470  10.753  11.821   3.719  0.9003 -1.5516  0.2938
  663MOL0     H91471  10.669  11.835   3.570 -1.4761 -2.3577 -1.5669
  663MOL0     H91472  10.819  11.750   3.426  0.8011  1.5486 -1.9549
  663MOL0     H91473  10.912  11.672   3.553 -1.1874  0.0693 -0.2147
  663MOL0     H91474  10.248  11.159   3.071 -2.3928 -1.1356 -1.3467
  663MOL0     H91475  10.104  11.102   2.905 -1.5640 -0.6755 -1.4813
  663MOL0     H91476   9.843  11.125   2.629 -0.6555  0.7639  0.1764
  663MOL0     H91477   9.729  11.064   2.417 -3.1158 -0.3786 -1.5783
  663MOL0     H91478   8.367  11.626   1.273 -0.6290 -1.0874 -1.0472
  663MOL0     H91479   8.122  11.634   1.208 -1.5346  0.7129  1.1094
  663MOL0     H91480   7.820  11.633   1.017  0.7614  0.1146 -0.3641
  663MOL0     H91481   7.625  11.720   0.906 -3.8919 -1.3254  0.3232
  663MOL0     H91482   7.261  11.689   1.068  1.1159 -0.5354  1.3852
  663MOL0     H91483   7.284  11.838   1.151  0.9123 -2.2740  0.9455
  663MOL0     H91484   7.211  11.958   0.926 -1.5327  0.3974 -0.1011
  663MOL0     H91485   7.091  11.846   0.975 -0.6166 -2.0075 -1.1073
  663MOL0     H91486   7.123  11.839   0.740  0.2166 -0.1221 -0.4378
  663MOL0     H91487   7.297  11.822   0.764 -1.2457  1.8559 -1.7351
  663MOL0     H91488   7.079  11.613   0.817 -0.9016  1.0381 -3.8580
  663MOL0     H91489   7.254  11.572   0.858 -0.7564  0.7672  0.4726
  663MOL0     H91490   7.271  11.562   0.441  2.7959 -3.4530  0.8931
  663MOL0     H91491   7.420  11.723   1.279 -0.2907  3.0525 -1.6939
  663MOL0     H91492   7.609  11.465   1.427 -0.3163  0.5030 -0.4753
  663MOL0     H91493   7.698  11.604   1.483  2.0712 -3.4986 -1.4629
  663MOL0     H91494   7.513  11.608   1.472 -0.7411  1.1317 -1.4082
  664MOL0     O91495   8.712   6.341  11.293 -0.3933  0.1179 -0.4904
  664MOL0     C91496   8.594   6.366  11.323 -0.7976 -0.7161 -0.2697
  664MOL0     O91497   8.563   6.410  11.447 -0.3979  0.5859  0.0885
  664MOL0     C91498   8.655   6.410  11.544 -0.2461 -0.1111 -0.5174
  664MOL0     C91499   8.649   6.514  11.634  0.6982  0.3039  0.0063
  664MOL0     C91500   8.725   6.521  11.754 -0.8833  0.1986  1.0779
  664MOL0     C91501   8.814   6.413  11.787 -0.1006  0.1369  0.3312
  664MOL0     O91502   8.895   6.405  11.904  0.1080 -0.3467  0.3139
  664MOL0     C91503   8.943   6.523  11.961  1.0771  0.2009  0.0269
  664MOL0     C91504   9.081   6.499  12.012  0.9702 -0.1955 -1.0004
  664MOL0     C91505   9.180   6.482  11.892  0.2815 -0.3021 -0.5685
  664MOL0     C91506   9.329   6.495  11.938  0.3828  0.0660 -0.2540
  664MOL0     C91507   9.421   6.418  11.852  0.0188 -0.3009  0.7774
  664MOL0     C91508   9.562   6.478  11.839  0.0864  0.2298  1.0382
  664MOL0     C91509   9.649   6.457  11.969 -0.6787  0.2157  0.3803
  664MOL0     C91510   9.792   6.407  11.938 -0.5316 -0.1428  0.4002
  664MOL0     N91511   9.883   6.418  12.060 -0.2035  0.2163  0.7613
  664MOL0     C91512   9.911   6.319  12.151  0.0839 -0.2147 -0.1851
  664MOL0     C91513   9.977   6.392  12.245  0.6830 -0.2709 -0.9753
  664MOL0     C91514  10.016   6.365  12.388  0.2868  0.4732 -0.0170
  664MOL0     C91515  10.157   6.302  12.418 -0.3100  0.2771  0.3052
  664MOL0     C91516  10.169   6.272  12.567  1.7932  0.2409  0.3853
  664MOL0     C91517  10.312   6.261  12.619  0.1785  0.1241  1.1245
  664MOL0     O91518  10.365   6.127  12.577  0.3157  0.1342  0.1620
  664MOL0     C91519  10.481   6.070  12.624  0.4216  0.7405 -0.8920
  664MOL0     C91520  10.552   6.136  12.726  0.4567  0.4981  0.2106
  664MOL0     C91521  10.676   6.082  12.768  0.6175 -0.2664 -0.5069
  664MOL0     C91522  10.760   6.159  12.860  0.2358  0.4093 -0.1500
  664MOL0     C91523  10.728   5.968  12.696  0.8020 -0.2647  0.7634
  664MOL0     C91524  10.864   5.914  12.716  1.0353 -0.3208  0.0517
  664MOL0     O91525  10.917   5.907  12.845  0.2795 -0.1510  0.2719
  664MOL0     C91526  11.048   5.889  12.878  0.0419  0.6103  0.0150
  664MOL0     C91527  11.065   5.842  13.005  0.3292  0.0873 -0.1469
  664MOL0     C91528  11.197   5.807  13.055  0.0255 -0.3035  1.2390
  664MOL0     C91529  11.310   5.817  12.968  0.7083 -0.0088 -1.2174
  664MOL0     O91530  11.431   5.777  13.032  0.0563  0.0651 -0.4783
  664MOL0     C91531  11.539   5.748  12.947  0.7705  0.1448 -0.6002
  664MOL0     C91532  11.624   5.873  12.904 -0.4010  0.8781 -0.1396
  664MOL0     C91533  11.756   5.826  12.838 -0.0318  0.8620  0.0077
  664MOL0     C91534  11.877   5.922  12.860  0.3121 -1.2267  1.5834
  664MOL0     C91535  12.000   5.892  12.767 -0.8255  0.5640 -0.0231
  664MOL0     C91536  12.136   5.928  12.822 -0.8211 -0.2301  0.1180
  664MOL0     C91537  12.254   5.919  12.726 -0.7959  0.3841  0.1755
  664MOL0     C91538  12.385   5.964  12.791  0.9441 -0.5714 -0.6318
  664MOL0    Cl91539  12.394   6.138  12.812 -0.2282 -0.4220 -0.1883
  664MOL0     C91540  11.288   5.858  12.839 -0.0873 -0.3066 -0.0852
  664MOL0     C91541  11.161   5.898  12.793  0.4232  0.5242  0.2245
  664MOL0     O91542  10.920   5.896  12.610  0.7023  0.2983  0.3004
  664MOL0     C91543  10.651   5.914  12.587  0.2995  0.4897 -0.0965
  664MOL0     C91544  10.532   5.957  12.557  0.6322 -0.1524 -0.0688
  664MOL0     N91545  10.012   6.510  12.190 -0.0781 -0.0696  0.1110
  664MOL0     N91546   9.944   6.532  12.082 -0.3092  0.1018  0.9609
  664MOL0     C91547   8.819   6.312  11.688 -0.8903 -0.1090 -0.7119
  664MOL0     C91548   8.746   6.309  11.572 -0.5322 -0.5092 -0.6142
  664MOL0     C91549   8.491   6.366  11.225 -0.4831  0.6294 -0.0298
  664MOL0     C91550   8.530   6.322  11.097  0.3245 -0.3739 -0.5224
  664MOL0     C91551   8.453   6.335  10.982  0.6424 -1.4444 -1.2734
  664MOL0     C91552   8.319   6.377  10.989 -0.4720 -0.4264  0.0591
  664MOL0     O91553   8.263   6.396  10.867 -0.7291 -0.2377  0.6536
  664MOL0     C91554   8.123   6.393  10.856 -1.1556  0.0963  0.8283
  664MOL0     C91555   8.041   6.270  10.914 -0.0380 -0.2804 -0.0260
  664MOL0     C91556   8.069   6.143  10.827  0.5108 -0.2675  0.2313
  664MOL0     C91557   8.052   6.162  10.682  0.4086  0.1413  0.6536
  664MOL0     C91558   7.910   6.191  10.636 -0.1840 -0.4245  0.3213
  664MOL0     C91559   7.811   6.249  10.585 -0.8277 -0.4777  0.3105
  664MOL0     C91560   8.268   6.400  11.125 -0.4196  0.5022  0.4569
  664MOL0     C91561   8.350   6.400  11.238 -0.1538  0.1086 -0.1343
  664MOL0     C91562   8.291   6.443  11.365  0.0525  0.5596 -0.6590
  664MOL0     H91563   8.577   6.592  11.613 -2.9660 -2.0453  2.6184
  664MOL0     H91564   8.700   6.604  11.820  1.7128  1.3432  0.7646
  664MOL0     H91565   8.870   6.538  12.042  1.0324  0.0474  0.0169
  664MOL0     H91566   8.931   6.610  11.897 -1.3202 -0.9967 -1.3017
  664MOL0     H91567   9.109   6.585  12.072  1.8813  0.1035 -1.8213
  664MOL0     H91568   9.074   6.409  12.074 -2.6149 -1.2890 -2.7569
  664MOL0     H91569   9.172   6.382  11.847  1.8278 -1.6601  1.9090
  664MOL0     H91570   9.163   6.553  11.811 -0.1487  1.5001  1.0224
  664MOL0     H91571   9.352   6.602  11.931  4.8655 -0.7677 -1.5241
  664MOL0     H91572   9.341   6.468  12.043  1.1229 -0.2328 -0.4129
  664MOL0     H91573   9.366   6.427  11.758 -0.7466 -2.5783  0.9491
  664MOL0     H91574   9.419   6.312  11.877 -0.2377 -1.0833 -2.1715
  664MOL0     H91575   9.600   6.438  11.745  2.6858  0.2159  2.0218
  664MOL0     H91576   9.551   6.584  11.812 -4.2514 -0.5145 -0.9556
  664MOL0     H91577   9.604   6.384  12.036 -0.7372  0.1608  0.2801
  664MOL0     H91578   9.651   6.556  12.016 -0.1332  1.8912 -2.8860
  664MOL0     H91579   9.782   6.306  11.899  0.7054 -0.4525  0.8304
  664MOL0     H91580   9.833   6.464  11.854  0.0761 -2.8381 -1.2542
  664MOL0     H91581   9.874   6.218  12.159 -0.3467 -0.2542 -2.1778
  664MOL0     H91582   9.943   6.301  12.440  2.6311 -2.9410 -0.6253
  664MOL0     H91583  10.005   6.459  12.444  0.6924 -0.0485  0.9718
  664MOL0     H91584  10.155   6.207  12.365 -1.9522  0.4440  0.0078
  664MOL0     H91585  10.238   6.367  12.384 -0.5475  0.8895  0.8612
  664MOL0     H91586  10.122   6.361  12.611  2.4694  2.2952 -2.7511
  664MOL0     H91587  10.114   6.181  12.596  2.5818 -0.3233  0.1354
  664MOL0     H91588  10.380   6.342  12.589  1.2474 -0.4897  1.8021
  664MOL0     H91589  10.312   6.260  12.729 -0.7535 -2.6770  1.1744
  664MOL0     H91590  10.512   6.221  12.780 -0.5377 -0.3658  0.8774
  664MOL0     H91591  10.775   6.099  12.950 -2.4433  1.1402  0.8871
  664MOL0     H91592  10.730   6.259  12.894 -0.5024 -0.5714  2.2571
  664MOL0     H91593  10.862   6.176  12.825  0.5882  1.4112  1.2832
  664MOL0     H91594  10.972   5.841  13.061  0.7675  1.6901  0.6702
  664MOL0     H91595  11.210   5.754  13.149  1.8117 -1.1701  0.5708
  664MOL0     H91596  11.601   5.694  13.019 -2.3821 -0.3917  1.9550
  664MOL0     H91597  11.501   5.684  12.867 -0.0914 -1.6885  1.1768
  664MOL0     H91598  11.567   5.946  12.846 -2.5178 -0.9483 -0.5008
  664MOL0     H91599  11.662   5.915  12.998  2.4504  0.6057 -1.0813
  664MOL0     H91600  11.738   5.823  12.730  0.5308 -1.4576 -0.0722
  664MOL0     H91601  11.779   5.723  12.867 -1.3680  0.5642  0.0799
  664MOL0     H91602  11.901   5.915  12.966  0.4608  0.6837  1.7115
  664MOL0     H91603  11.848   6.026  12.843 -0.8149 -1.8081 -0.4685
  664MOL0     H91604  12.009   5.788  12.735 -0.1480  0.8033 -0.6372
  664MOL0     H91605  11.987   5.937  12.668 -1.2511  0.1151 -0.1798
  664MOL0     H91606  12.160   5.878  12.916 -1.7743  2.3580  1.8307
  664MOL0     H91607  12.123   6.034  12.844  0.9532  0.3804 -1.4171
  664MOL0     H91608  12.236   5.977  12.636  1.1904  0.1765 -0.4177
  664MOL0     H91609  12.261   5.813  12.701 -3.9320 -0.3050  1.7043
  664MOL0     H91610  12.463   5.934  12.719  0.0529  2.0463 -2.8607
  664MOL0     H91611  12.384   5.910  12.886  0.3688 -0.6682 -0.6882
  664MOL0     H91612  11.365   5.872  12.763  0.5547  2.1697  0.9390
  664MOL0     H91613  11.158   5.925  12.688  2.8485 -2.7873 -0.8568
  664MOL0     H91614  10.706   5.840  12.531 -0.8399 -0.6256  0.2095
  664MOL0     H91615  10.471   5.904  12.485 -1.5245  0.8251  0.9506
  664MOL0     H91616   8.887   6.228  11.701 -0.5024  0.6049  2.5704
  664MOL0     H91617   8.772   6.223  11.511 -0.0198 -0.0764 -1.0086
  664MOL0     H91618   8.624   6.270  11.081 -0.5746 -2.5355  0.7543
  664MOL0     H91619   8.502   6.303  10.891  3.0144 -0.6960 -0.3483
  664MOL0     H91620   8.080   6.476  10.913  0.7818  0.4934  1.7983
  664MOL0     H91621   8.100   6.409  10.751 -2.0974  0.5965  1.0985
  664MOL0     H91622   7.934   6.294  10.909 -0.2647 -0.7320  1.9457
  664MOL0     H91623   8.074   6.267  11.018  0.2601  1.9016  0.0009
  664MOL0     H91624   8.175   6.120  10.838  0.5862 -0.8950 -1.4532
  664MOL0     H91625   7.999   6.066  10.859 -0.6516  0.1732 -1.1090
  664MOL0     H91626   8.096   6.076  10.631 -2.3597 -0.4388 -0.9172
  664MOL0     H91627   8.123   6.235  10.642  2.3256 -3.2859 -2.8804
  664MOL0     H91628   7.723   6.272  10.530 -0.9077  0.8416  0.9482
  664MOL0     H91629   8.166   6.434  11.142 -1.6277 -1.5166 -2.0448
  664MOL0     H91630   8.339   6.541  11.374  0.8173  0.5132 -3.2089
  664MOL0     H91631   8.187   6.473  11.355  0.5418  1.6460 -3.3515
  664MOL0     H91632   8.318   6.378  11.449 -1.6497  0.2653 -0.3138
  665MOL0     O91633  10.509   3.079   4.754  0.0404  0.7636 -0.3707
  665MOL0     C91634  10.587   3.138   4.679  0.1237  0.2349 -0.4057
  665MOL0     O91635  10.547   3.227   4.575 -0.3986  0.5376 -0.0105
  665MOL0     C91636  10.415   3.270   4.587 -0.8395  0.2735 -0.2617
  665MOL0     C91637  10.310   3.212   4.526  1.2572 -0.7714  0.8371
  665MOL0     C91638  10.180   3.245   4.570 -0.5863 -0.3897 -0.2521
  665MOL0     C91639  10.158   3.358   4.644  0.7311 -0.1753  0.6133
  665MOL0     O91640  10.029   3.388   4.679 -0.0086 -0.2326 -0.6226
  665MOL0     C91641   9.998   3.525   4.686  0.0370 -0.2775  0.5624
  665MOL0     C91642   9.841   3.533   4.641 -0.8426 -0.2184 -0.1031
  665MOL0     C91643   9.826   3.492   4.494 -0.5819  0.6850  0.4625
  665MOL0     C91644   9.844   3.603   4.399 -1.2411  0.2982  0.7849
  665MOL0     C91645   9.815   3.560   4.255 -0.0017 -0.1280  0.5852
  665MOL0     C91646   9.838   3.670   4.162  0.2586 -0.1283  1.5019
  665MOL0     C91647   9.798   3.655   4.010  0.6018  0.2986  0.3796
  665MOL0     C91648   9.826   3.782   3.932  0.6504  0.3658  0.0246
  665MOL0     N91649   9.792   3.749   3.799  0.0360  0.6752 -0.1327
  665MOL0     C91650   9.870   3.705   3.691  0.7209  0.4779  0.2296
  665MOL0     C91651   9.765   3.691   3.596  0.1746  0.1745  0.4853
  665MOL0     C91652   9.783   3.640   3.451  0.3024 -0.4771 -0.5802
  665MOL0     C91653   9.652   3.662   3.367 -0.6987  0.3453  1.6057
  665MOL0     C91654   9.613   3.813   3.345 -0.7137 -0.2872 -0.4634
  665MOL0     C91655   9.654   3.861   3.209 -1.1985  0.2583  0.1498
  665MOL0     O91656   9.798   3.853   3.206  0.1502 -0.4624 -0.3872
  665MOL0     C91657   9.869   3.919   3.106  0.5723  1.2383 -0.3172
  665MOL0     C91658  10.004   3.921   3.136 -0.1587 -0.0450  0.1572
  665MOL0     C91659  10.100   3.975   3.039  0.8843  0.7963  0.3183
  665MOL0     C91660  10.242   4.007   3.093  0.6413 -0.0944  0.3645
  665MOL0     C91661  10.057   4.018   2.912  0.7283  0.0743  0.2704
  665MOL0     C91662  10.142   4.078   2.812  0.1593 -1.3571  0.0297
  665MOL0     O91663  10.271   4.055   2.805 -0.3888 -0.3740  0.5423
  665MOL0     C91664  10.338   4.111   2.697 -0.1354  0.1875 -0.6289
  665MOL0     C91665  10.361   4.031   2.582  0.4554  0.6459 -0.6005
  665MOL0     C91666  10.433   4.084   2.473  0.0149  0.8542  0.4910
  665MOL0     C91667  10.480   4.215   2.472 -0.2662 -0.0409  0.5508
  665MOL0     O91668  10.539   4.265   2.358 -0.3704 -0.0207 -0.0590
  665MOL0     C91669  10.651   4.360   2.375 -0.4078  0.0841 -0.5035
  665MOL0     C91670  10.765   4.346   2.272  0.7534 -0.5793 -0.7038
  665MOL0     C91671  10.712   4.302   2.138 -0.1923  0.3227 -0.1400
  665MOL0     C91672  10.825   4.293   2.035 -0.8350  0.3454  0.1401
  665MOL0     C91673  10.777   4.235   1.894  0.4172 -0.6934  0.2051
  665MOL0     C91674  10.709   4.350   1.812  0.6508  0.5933  0.5267
  665MOL0     C91675  10.644   4.304   1.686 -0.6250  0.0846 -0.2846
  665MOL0     C91676  10.506   4.231   1.687  0.0921  0.1664  0.8381
  665MOL0    Cl91677  10.428   4.211   1.529  0.1026  0.4283  0.2144
  665MOL0     C91678  10.456   4.287   2.586 -0.6189  0.0206  0.2380
  665MOL0     C91679  10.395   4.235   2.703  0.0453  0.0208  0.9471
  665MOL0     O91680  10.082   4.166   2.740  0.0933  1.1519  0.0551
  665MOL0     C91681   9.917   4.014   2.889  0.1337 -0.7152 -0.3004
  665MOL0     C91682   9.827   3.975   2.981  0.2879  0.2498 -0.5639
  665MOL0     N91683   9.639   3.732   3.643  0.5061 -0.3347 -0.4863
  665MOL0     N91684   9.665   3.774   3.759  0.0376 -0.1881  0.2765
  665MOL0     C91685  10.261   3.432   4.699 -0.0081  0.9852  1.1555
  665MOL0     C91686  10.391   3.390   4.669  0.5660  0.1304  0.0592
  665MOL0     C91687  10.734   3.122   4.714  0.2610 -0.0868  0.4864
  665MOL0     C91688  10.825   3.135   4.608  0.2725  0.0787  0.2442
  665MOL0     C91689  10.956   3.119   4.621 -0.7113 -0.8731  0.6025
  665MOL0     C91690  11.010   3.087   4.745 -0.6260 -0.1856 -0.3572
  665MOL0     O91691  11.140   3.056   4.766  0.6433 -0.0716 -0.4106
  665MOL0     C91692  11.227   3.059   4.657 -0.7810  0.0945 -1.1285
  665MOL0     C91693  11.363   3.012   4.708 -0.2864  0.0154 -0.6674
  665MOL0     C91694  11.416   3.094   4.832 -0.5410  0.5052  0.2876
  665MOL0     C91695  11.444   3.243   4.795  0.0631  0.3756 -0.0966
  665MOL0     C91696  11.528   3.268   4.669  0.3545  0.7147 -0.2998
  665MOL0     C91697  11.576   3.283   4.557 -0.8261 -1.0113  0.0613
  665MOL0     C91698  10.924   3.068   4.853 -0.3733  0.1604  0.0119
  665MOL0     C91699  10.783   3.080   4.839 -0.6456  0.1537 -0.5338
  665MOL0     C91700  10.697   3.047   4.959 -0.3880 -1.6848  0.2222
  665MOL0     H91701  10.323   3.122   4.467  0.7486 -1.0213  1.0975
  665MOL0     H91702  10.094   3.187   4.540 -0.5605 -1.2683  1.2796
  665MOL0     H91703  10.051   3.591   4.617 -0.3141  0.0659  0.6197
  665MOL0     H91704   9.991   3.562   4.788  1.5518  1.6472  0.0217
  665MOL0     H91705   9.785   3.463   4.703  0.7474  0.9460  2.8687
  665MOL0     H91706   9.796   3.631   4.659  1.2341  0.4534  1.8675
  665MOL0     H91707   9.895   3.413   4.464 -0.2593  1.5693 -1.3084
  665MOL0     H91708   9.727   3.448   4.476 -0.1326  0.4935 -1.8332
  665MOL0     H91709   9.781   3.687   4.430 -0.3449  1.6348 -0.8611
  665MOL0     H91710   9.950   3.632   4.399 -1.3138  0.5877  0.3471
  665MOL0     H91711   9.711   3.529   4.244 -0.1238  0.9325 -1.8123
  665MOL0     H91712   9.884   3.480   4.226  1.4082  1.6137 -1.1306
  665MOL0     H91713   9.775   3.757   4.184  1.1672  1.8898 -2.7707
  665MOL0     H91714   9.942   3.706   4.163 -0.3947  3.2489 -4.3687
  665MOL0     H91715   9.696   3.618   4.006  0.7190 -0.0203  0.3051
  665MOL0     H91716   9.876   3.593   3.965  2.6660  3.6872 -1.1117
  665MOL0     H91717   9.780   3.869   3.979 -0.9395 -0.6110  0.3600
  665MOL0     H91718   9.931   3.811   3.948  0.1295  0.9174  3.0913
  665MOL0     H91719   9.972   3.668   3.686 -0.4129 -2.9173 -3.4367
  665MOL0     H91720   9.793   3.531   3.456 -2.2721 -0.7598  3.9229
  665MOL0     H91721   9.873   3.687   3.412  2.3852 -2.5356  1.4191
  665MOL0     H91722   9.671   3.628   3.264  1.6314  1.6173  1.5332
  665MOL0     H91723   9.570   3.600   3.405 -1.5943 -0.3572 -1.2002
  665MOL0     H91724   9.504   3.820   3.350 -0.5780  1.6292  2.6692
  665MOL0     H91725   9.654   3.881   3.420  3.9496 -1.6854 -1.4202
  665MOL0     H91726   9.634   3.783   3.135 -1.3336 -1.0712  1.5295
  665MOL0     H91727   9.611   3.960   3.191 -1.5397  0.7320  3.1337
  665MOL0     H91728  10.024   3.901   3.241 -1.6273  1.0335  0.6753
  665MOL0     H91729  10.321   3.975   3.024  2.4174  1.8569  1.3921
  665MOL0     H91730  10.265   3.955   3.186 -0.3097 -0.2491  0.5181
  665MOL0     H91731  10.260   4.112   3.115 -1.0060  0.0267  1.3275
  665MOL0     H91732  10.325   3.929   2.574  0.2310  0.7717 -1.2909
  665MOL0     H91733  10.457   4.017   2.391  0.8836 -1.7448  2.7091
  665MOL0     H91734  10.608   4.460   2.368 -0.5766  0.0090 -0.5387
  665MOL0     H91735  10.699   4.349   2.472  0.1461  3.0622 -0.3388
  665MOL0     H91736  10.802   4.449   2.271  0.7247 -0.2546  4.5111
  665MOL0     H91737  10.824   4.267   2.320 -0.6505 -1.8980 -1.0711
  665MOL0     H91738  10.636   4.373   2.103 -0.1555 -0.0199 -0.9272
  665MOL0     H91739  10.653   4.211   2.154 -1.9582  1.4214 -0.0624
  665MOL0     H91740  10.887   4.209   2.069 -0.8648 -0.3720 -1.4797
  665MOL0     H91741  10.884   4.385   2.030  2.5816 -1.5870  1.0616
  665MOL0     H91742  10.866   4.211   1.835  0.4467 -1.5328  0.5769
  665MOL0     H91743  10.716   4.144   1.893  0.2565 -0.6012  0.9263
  665MOL0     H91744  10.788   4.422   1.791  2.9913 -2.1944 -1.0327
  665MOL0     H91745  10.629   4.406   1.861  2.7446  2.2075  2.2603
  665MOL0     H91746  10.706   4.234   1.628 -0.7632 -0.8138  0.6278
  665MOL0     H91747  10.633   4.395   1.626  1.7452  1.8767  1.7425
  665MOL0     H91748  10.449   4.283   1.764 -0.7096  3.0432 -1.4926
  665MOL0     H91749  10.534   4.130   1.720  1.5402 -0.6282 -2.3704
  665MOL0     H91750  10.495   4.388   2.601 -3.2291  1.3871 -1.3794
  665MOL0     H91751  10.390   4.302   2.789  2.1500  0.8235  0.5252
  665MOL0     H91752   9.886   4.057   2.794  2.1813 -1.9092 -1.5689
  665MOL0     H91753   9.721   3.986   2.964  0.8194  2.3114 -3.1470
  665MOL0     H91754  10.241   3.509   4.773 -0.8332  0.4561  1.5015
  665MOL0     H91755  10.476   3.421   4.730 -1.2524 -1.9427  4.0248
  665MOL0     H91756  10.785   3.171   4.514 -0.2759  0.3649  0.5786
  665MOL0     H91757  11.023   3.165   4.549  3.0018 -1.6920  3.2095
  665MOL0     H91758  11.196   2.991   4.577 -0.6387  1.6401 -2.5553
  665MOL0     H91759  11.241   3.164   4.627 -0.5345  0.7559  1.1450
  665MOL0     H91760  11.427   3.019   4.619 -1.8959 -2.7307 -2.1925
  665MOL0     H91761  11.359   2.906   4.735  0.2300 -0.4222 -2.2224
  665MOL0     H91762  11.341   3.076   4.909  0.6092  0.1118  1.3567
  665MOL0     H91763  11.504   3.047   4.876 -1.0636 -0.8769 -0.1135
  665MOL0     H91764  11.481   3.291   4.886 -2.2032  1.4382  0.3485
  665MOL0     H91765  11.344   3.288   4.787  0.1037  1.3471  3.2530
  665MOL0     H91766  11.602   3.307   4.456 -0.8129  2.1664  0.7328
  665MOL0     H91767  10.967   3.027   4.944 -0.0499 -0.0744 -0.2463
  665MOL0     H91768  10.766   3.028   5.042  2.0631  0.6951 -1.0912
  665MOL0     H91769  10.619   3.121   4.972 -0.8731 -1.7822 -1.7540
  665MOL0     H91770  10.644   2.955   4.933  0.4224 -2.1924  0.3068
  666MOL0     O91771   6.041   9.614   0.922 -0.6443 -0.5790 -0.0955
  666MOL0     C91772   6.050   9.577   0.806  1.2485 -1.0151  0.2596
  666MOL0     O91773   6.047   9.659   0.692  0.4089 -0.0824 -0.2407
  666MOL0     C91774   6.075   9.793   0.681 -1.2273  0.2388 -0.6197
  666MOL0     C91775   6.143   9.818   0.560 -0.0121 -0.6809  0.9915
  666MOL0     C91776   6.190   9.952   0.543  0.0488 -0.0743  0.2156
  666MOL0     C91777   6.152  10.053   0.634  0.1062 -0.1733  0.3511
  666MOL0     O91778   6.186  10.177   0.579 -0.5276 -0.3935 -0.9593
  666MOL0     C91779   6.147  10.297   0.649  0.2991  0.2837 -0.8650
  666MOL0     C91780   6.203  10.411   0.572  0.0650 -0.2786 -0.9303
  666MOL0     C91781   6.200  10.538   0.647  0.9828  0.0835  0.3305
  666MOL0     C91782   6.262  10.652   0.557 -0.5445  0.2928 -0.5091
  666MOL0     C91783   6.288  10.780   0.649 -0.7575  0.5024  0.7197
  666MOL0     C91784   6.399  10.864   0.583 -1.0632  0.1223  0.4190
  666MOL0     C91785   6.352  10.920   0.453 -0.5084 -0.9353  0.0517
  666MOL0     C91786   6.451  11.015   0.399  0.4139 -0.1409  0.4907
  666MOL0     N91787   6.455  11.137   0.471 -0.1113  0.6390  0.2019
  666MOL0     C91788   6.563  11.168   0.548 -0.6733  0.2344  0.4888
  666MOL0     C91789   6.550  11.298   0.571 -0.0525 -0.5418  0.2764
  666MOL0     C91790   6.642  11.372   0.648 -0.1502 -0.2431 -0.0485
  666MOL0     C91791   6.732  11.474   0.568 -0.4333 -0.2472  0.0355
  666MOL0     C91792   6.824  11.414   0.459  0.1845  0.5162 -0.1407
  666MOL0     C91793   6.909  11.294   0.522 -0.9308 -0.7368  0.2153
  666MOL0     O91794   6.995  11.266   0.411 -0.5898  0.1998  0.2151
  666MOL0     C91795   6.993  11.152   0.341 -0.6173 -0.2484 -0.7770
  666MOL0     C91796   6.913  11.037   0.374  0.3261  0.5080  0.5239
  666MOL0     C91797   6.894  10.930   0.295 -0.6361 -0.4215 -0.1138
  666MOL0     C91798   6.794  10.828   0.351 -0.2320 -0.3560  0.4175
  666MOL0     C91799   6.958  10.925   0.175  0.1944 -0.1839 -0.3895
  666MOL0     C91800   6.927  10.834   0.058 -0.8068  0.2756 -1.0732
  666MOL0     O91801   6.958  10.886  -0.067 -0.1216 -0.4903 -0.2567
  666MOL0     C91802   6.948  10.813  -0.184 -0.9102 -0.3646  0.4400
  666MOL0     C91803   7.024  10.700  -0.199  0.3643 -0.4579 -0.2773
  666MOL0     C91804   7.019  10.640  -0.325  0.9273 -0.2406 -0.1889
  666MOL0     C91805   6.927  10.684  -0.419  0.5036  1.3980  0.2148
  666MOL0     O91806   6.908  10.599  -0.523 -0.6593 -0.0690 -0.2277
  666MOL0     C91807   6.870  10.465  -0.504 -0.4061  0.6744  0.7305
  666MOL0     C91808   6.732  10.429  -0.565  1.0943 -0.3773 -0.0355
  666MOL0     C91809   6.605  10.461  -0.485  0.7755 -0.8096 -0.8730
  666MOL0     C91810   6.590  10.610  -0.449  0.3970 -0.0520  0.2247
  666MOL0     C91811   6.442  10.621  -0.401  0.2497  0.6810 -0.2656
  666MOL0     C91812   6.396  10.763  -0.374 -1.2191 -0.0309  0.1073
  666MOL0     C91813   6.249  10.773  -0.384 -0.1055  1.4618 -0.0819
  666MOL0     C91814   6.185  10.912  -0.371 -0.1032  0.1000 -0.1090
  666MOL0    Cl91815   6.005  10.911  -0.401  0.9215  0.4317  0.7185
  666MOL0     C91816   6.862  10.808  -0.410 -0.7183 -0.8231  0.1355
  666MOL0     C91817   6.866  10.869  -0.280  0.1839  0.0733  0.3964
  666MOL0     O91818   6.879  10.720   0.081  0.3594 -0.4395  0.5039
  666MOL0     C91819   7.054  11.022   0.151 -0.5625  0.6089 -0.1251
  666MOL0     C91820   7.064  11.141   0.223 -0.8419 -0.1148 -0.1966
  666MOL0     N91821   6.446  11.348   0.495 -0.3588  0.3517  0.5012
  666MOL0     N91822   6.381  11.251   0.437  0.1741  0.3165 -0.2007
  666MOL0     C91823   6.093  10.020   0.756  0.4445  0.1969  0.5509
  666MOL0     C91824   6.055   9.892   0.781  0.1891  1.1918 -0.6747
  666MOL0     C91825   6.036   9.439   0.783 -0.2279  0.5865 -0.1787
  666MOL0     C91826   5.940   9.396   0.698 -0.3525 -0.4049 -0.2689
  666MOL0     C91827   5.915   9.264   0.675  0.1836 -1.8357 -0.1042
  666MOL0     C91828   5.983   9.174   0.747 -0.8817 -0.0929  0.1899
  666MOL0     O91829   5.962   9.045   0.691 -0.0099 -0.6183 -0.0612
  666MOL0     C91830   6.062   8.950   0.734 -0.6066  0.7827  1.5040
  666MOL0     C91831   6.045   8.826   0.638  0.5964 -0.0773 -0.0380
  666MOL0     C91832   5.930   8.732   0.695 -0.2299 -0.7500 -0.9000
  666MOL0     C91833   5.922   8.609   0.605 -0.1902  0.9248 -0.7106
  666MOL0     C91834   5.823   8.509   0.657  0.7827 -0.1565  0.1974
  666MOL0     C91835   5.726   8.453   0.701  0.9020 -0.0569 -0.4900
  666MOL0     C91836   6.086   9.210   0.840 -0.0227  0.5379 -0.1562
  666MOL0     C91837   6.115   9.347   0.857 -0.3716  0.7766 -0.0507
  666MOL0     C91838   6.216   9.374   0.967  0.3863 -0.1217  0.9876
  666MOL0     H91839   6.151   9.745   0.481 -0.4084 -0.5042  0.7847
  666MOL0     H91840   6.249   9.979   0.457  0.3733 -1.3115  0.0209
  666MOL0     H91841   6.186  10.294   0.751 -1.5648  1.4351 -0.0594
  666MOL0     H91842   6.038  10.305   0.660  0.2023 -1.9250  0.2587
  666MOL0     H91843   6.310  10.389   0.564  0.0508 -1.9512  1.9580
  666MOL0     H91844   6.163  10.401   0.471  0.7723  1.4489 -1.4182
  666MOL0     H91845   6.093  10.557   0.656  1.3082  1.8398  0.8577
  666MOL0     H91846   6.254  10.535   0.742  3.3398  2.6328 -0.7821
  666MOL0     H91847   6.347  10.610   0.503  0.4302  1.8801 -0.2551
  666MOL0     H91848   6.198  10.683   0.474  1.0435  0.6789 -1.6334
  666MOL0     H91849   6.320  10.741   0.746  2.8732  2.2759  0.3847
  666MOL0     H91850   6.202  10.847   0.657 -0.8454  0.7503 -1.6345
  666MOL0     H91851   6.438  10.941   0.650 -0.2713 -0.5491  0.7484
  666MOL0     H91852   6.483  10.796   0.570 -2.0028 -1.1023  0.5247
  666MOL0     H91853   6.252  10.965   0.455 -0.2089 -0.2649  1.4790
  666MOL0     H91854   6.347  10.849   0.370 -0.4091 -0.0475 -0.7359
  666MOL0     H91855   6.549  10.973   0.378 -0.4595 -2.8794  1.4468
  666MOL0     H91856   6.399  11.035   0.305 -0.0934  0.4231  0.8769
  666MOL0     H91857   6.632  11.102   0.600 -0.2627  0.6753  0.5118
  666MOL0     H91858   6.722  11.309   0.687  1.2086 -2.3571 -5.3994
  666MOL0     H91859   6.584  11.406   0.734  0.4683 -3.1566  1.6725
  666MOL0     H91860   6.687  11.560   0.517  1.1880  0.4832 -0.2334
  666MOL0     H91861   6.791  11.525   0.644 -0.8651  0.4923 -0.1166
  666MOL0     H91862   6.757  11.362   0.389 -0.5927  2.5863 -1.0094
  666MOL0     H91863   6.878  11.499   0.416 -2.9441  3.0899  0.5957
  666MOL0     H91864   6.957  11.319   0.617 -0.5867 -1.3846  0.2225
  666MOL0     H91865   6.838  11.217   0.551 -3.4513  0.8196 -1.4619
  666MOL0     H91866   6.850  11.040   0.462 -3.0226 -2.4791 -1.5112
  666MOL0     H91867   6.710  10.827   0.282  0.3953  1.4070 -0.4210
  666MOL0     H91868   6.752  10.860   0.447  1.0454 -1.2337  1.3064
  666MOL0     H91869   6.834  10.728   0.374  0.4646  0.0611  1.0867
  666MOL0     H91870   7.093  10.663  -0.123  1.5939  4.0678  1.1574
  666MOL0     H91871   7.080  10.554  -0.349  0.8766 -0.0405 -1.0561
  666MOL0     H91872   6.949  10.402  -0.546  2.0233  1.8372  3.2134
  666MOL0     H91873   6.870  10.450  -0.395  1.3784  0.6157  0.7590
  666MOL0     H91874   6.732  10.483  -0.660 -2.5646 -3.0755 -1.7950
  666MOL0     H91875   6.734  10.322  -0.587 -0.1114 -0.0642 -1.8502
  666MOL0     H91876   6.615  10.388  -0.403 -1.2122 -1.4959 -1.1797
  666MOL0     H91877   6.519  10.426  -0.543 -0.2853 -0.4069  0.3877
  666MOL0     H91878   6.605  10.673  -0.537 -0.2402  0.0594  0.1900
  666MOL0     H91879   6.657  10.632  -0.365  0.9868  2.3861 -0.7999
  666MOL0     H91880   6.383  10.583  -0.485 -1.2507  3.0217 -0.3706
  666MOL0     H91881   6.435  10.564  -0.308 -0.1670  0.2794 -0.5399
  666MOL0     H91882   6.435  10.834  -0.448 -0.3398  1.9903  2.3807
  666MOL0     H91883   6.426  10.801  -0.276  2.4602 -3.9341  0.7880
  666MOL0     H91884   6.211  10.710  -0.303  0.8051 -1.7570 -1.9684
  666MOL0     H91885   6.208  10.727  -0.474  2.8068 -0.7731 -0.3984
  666MOL0     H91886   6.231  10.974  -0.449 -1.3237  0.1076 -0.8357
  666MOL0     H91887   6.209  10.954  -0.273  1.5381 -3.4872  1.2232
  666MOL0     H91888   6.807  10.855  -0.491  0.7160  1.3504  0.3388
  666MOL0     H91889   6.813  10.961  -0.262 -0.9753 -0.5878  0.4498
  666MOL0     H91890   7.111  11.004   0.061  2.0100 -1.3981  1.7741
  666MOL0     H91891   7.138  11.217   0.198 -2.0404  1.9260  2.0143
  666MOL0     H91892   6.070  10.095   0.831 -1.1321  0.6951 -0.3694
  666MOL0     H91893   6.006   9.865   0.874  2.0380  0.9541  0.2916
  666MOL0     H91894   5.872   9.471   0.661  0.9444  1.3549  0.7573
  666MOL0     H91895   5.858   9.230   0.589  2.7740  1.2107 -3.3340
  666MOL0     H91896   6.162   8.987   0.710 -0.3369 -1.4214 -1.3390
  666MOL0     H91897   6.043   8.924   0.839  1.0407 -4.6992  0.7466
  666MOL0     H91898   6.145   8.782   0.627  0.1699 -0.4817 -3.7148
  666MOL0     H91899   6.024   8.865   0.538 -1.8027 -1.8396 -0.3233
  666MOL0     H91900   5.952   8.710   0.800  0.0736  0.5989 -0.6698
  666MOL0     H91901   5.827   8.769   0.698 -0.5439 -1.6329  0.0002
  666MOL0     H91902   6.014   8.550   0.596 -0.2279  0.1840  2.4914
  666MOL0     H91903   5.887   8.639   0.506  1.4815 -0.7152 -1.8635
  666MOL0     H91904   5.652   8.395   0.754  2.3475  0.3857  2.1836
  666MOL0     H91905   6.139   9.135   0.897 -1.6878  0.6383  1.6356
  666MOL0     H91906   6.287   9.451   0.936 -0.6443  0.5255  0.1534
  666MOL0     H91907   6.174   9.413   1.060 -3.5829 -1.2673 -0.1163
  666MOL0     H91908   6.274   9.283   0.986 -2.0732 -2.1996 -0.8050
  667MOL0     O91909   4.593   8.371   9.205 -0.1677 -0.1601 -0.3556
  667MOL0     C91910   4.502   8.286   9.218  0.7138 -0.6273  0.2668
  667MOL0     O91911   4.479   8.204   9.325  0.0594  0.1082  0.3189
  667MOL0     C91912   4.562   8.192   9.440 -0.3282  0.8595  0.5870
  667MOL0     C91913   4.512   8.106   9.548  0.0731  0.0990  1.5019
  667MOL0     C91914   4.596   8.071   9.658 -1.0857 -0.6666  1.2723
  667MOL0     C91915   4.722   8.120   9.665 -0.2161 -0.5474  0.3162
  667MOL0     O91916   4.816   8.085   9.765  0.2696 -0.1549  0.4613
  667MOL0     C91917   4.764   8.028   9.887 -0.8199 -0.1074  0.1384
  667MOL0     C91918   4.716   8.138   9.983 -0.2394  0.5940  0.4215
  667MOL0     C91919   4.696   8.093  10.119  0.4473  1.2580 -0.6396
  667MOL0     C91920   4.636   8.203  10.203  0.2142 -0.1146 -0.0826
  667MOL0     C91921   4.484   8.212  10.191 -0.5746 -0.1231  0.2530
  667MOL0     C91922   4.423   8.307  10.289  1.1663 -1.1334 -0.5608
  667MOL0     C91923   4.267   8.316  10.264 -0.8186 -0.2586  0.3362
  667MOL0     C91924   4.220   8.373  10.398 -0.4659 -0.3715  0.4538
  667MOL0     N91925   4.203   8.278  10.504  0.5206 -0.7419  0.1735
  667MOL0     C91926   4.157   8.149  10.483  0.9067 -0.5103 -0.2881
  667MOL0     C91927   4.130   8.100  10.607  0.5016 -0.6919  0.0153
  667MOL0     C91928   4.071   7.973  10.640  0.1317 -0.1399  0.3094
  667MOL0     C91929   4.159   7.856  10.608 -0.6385  0.2449  0.7923
  667MOL0     C91930   4.082   7.725  10.627 -0.4096  0.9697 -1.0317
  667MOL0     C91931   4.184   7.610  10.661  0.8087  0.0308 -0.1901
  667MOL0     O91932   4.243   7.631  10.792  0.4501  0.3686  0.4801
  667MOL0     C91933   4.341   7.541  10.829  0.2685 -0.0184 -0.2864
  667MOL0     C91934   4.328   7.410  10.807  0.5101  1.2280  0.7139
  667MOL0     C91935   4.434   7.322  10.838 -0.0758  0.1209  1.0207
  667MOL0     C91936   4.412   7.178  10.789 -0.3517  0.0779  0.7385
  667MOL0     C91937   4.556   7.374  10.896  0.2341 -0.6054  0.2506
  667MOL0     C91938   4.670   7.292  10.921 -0.8188  0.0674 -0.3596
  667MOL0     O91939   4.746   7.316  11.036 -0.7086 -0.5363  0.2006
  667MOL0     C91940   4.863   7.253  11.053  0.2610  0.3190  0.3752
  667MOL0     C91941   4.870   7.139  11.143  0.1903 -0.7936 -0.1582
  667MOL0     C91942   5.000   7.090  11.163  0.4927  0.1809 -0.8126
  667MOL0     C91943   5.105   7.130  11.081 -0.2670  0.6671  0.4294
  667MOL0     O91944   5.231   7.080  11.080  0.3717 -0.2060 -0.1282
  667MOL0     C91945   5.278   6.998  11.182  0.4544 -0.9770  0.6196
  667MOL0     C91946   5.431   6.991  11.181  0.9384  1.5977  0.2279
  667MOL0     C91947   5.516   7.104  11.233 -1.0326 -0.6791  0.4436
  667MOL0     C91948   5.513   7.232  11.144  0.8263  0.0215 -0.7341
  667MOL0     C91949   5.605   7.340  11.184 -0.6291  0.2289 -0.1805
  667MOL0     C91950   5.625   7.461  11.088  1.1223  0.0842  0.0768
  667MOL0     C91951   5.747   7.555  11.120  0.5920 -0.2134 -0.9124
  667MOL0     C91952   5.756   7.667  11.015  1.5080  0.1952 -0.3038
  667MOL0    Cl91953   5.610   7.770  11.002  0.2313  0.0499 -0.6169
  667MOL0     C91954   5.088   7.233  10.991  1.0326 -1.5548  0.0296
  667MOL0     C91955   4.970   7.297  10.973  0.3333 -0.1196  0.2548
  667MOL0     O91956   4.706   7.220  10.827  0.1864 -0.5873 -0.5778
  667MOL0     C91957   4.559   7.509  10.937 -1.0361  0.2690  0.3412
  667MOL0     C91958   4.457   7.590  10.892  1.1691  0.1291 -1.2625
  667MOL0     N91959   4.167   8.193  10.696  0.9239  0.2999  0.1624
  667MOL0     N91960   4.211   8.298  10.632 -0.1370 -0.1390  0.1594
  667MOL0     C91961   4.775   8.197   9.551 -0.2514  0.0609  0.3901
  667MOL0     C91962   4.694   8.238   9.443 -0.6796 -0.7957 -0.2019
  667MOL0     C91963   4.422   8.260   9.099  0.2280 -0.3880 -0.4520
  667MOL0     C91964   4.287   8.227   9.117 -0.0452  0.7928 -1.0529
  667MOL0     C91965   4.190   8.211   9.018  0.1621 -0.1438 -0.6330
  667MOL0     C91966   4.221   8.231   8.883 -1.0477  0.8205 -0.2984
  667MOL0     O91967   4.128   8.215   8.787 -0.7949 -0.7152 -0.0607
  667MOL0     C91968   4.023   8.316   8.803 -0.5106 -0.9039 -0.5006
  667MOL0     C91969   3.908   8.239   8.734  0.9724  0.7460 -0.8212
  667MOL0     C91970   3.836   8.133   8.833  0.7437 -0.1049  0.4708
  667MOL0     C91971   3.872   7.991   8.791 -0.7818  0.2764 -0.0904
  667MOL0     C91972   3.828   7.891   8.882 -0.6549  0.9757  0.1058
  667MOL0     C91973   3.804   7.806   8.963 -0.1373 -1.1361 -0.2459
  667MOL0     C91974   4.355   8.271   8.857 -1.2251 -0.2004  0.2559
  667MOL0     C91975   4.454   8.276   8.960 -0.7528  0.5776 -0.2281
  667MOL0     C91976   4.595   8.291   8.911  0.3738 -1.2640 -0.2024
  667MOL0     H91977   4.408   8.078   9.537 -0.0784  1.0270  0.4280
  667MOL0     H91978   4.553   8.005   9.733 -0.8449 -1.0444  1.0782
  667MOL0     H91979   4.849   7.975   9.932 -1.1627 -0.6708  0.1253
  667MOL0     H91980   4.675   7.964   9.885 -1.4096  0.5117  2.9777
  667MOL0     H91981   4.799   8.208   9.997 -0.4877  0.6065  1.9954
  667MOL0     H91982   4.632   8.183   9.928 -0.3259  2.3928  1.9011
  667MOL0     H91983   4.640   7.999  10.123  3.1339 -0.4134  0.6138
  667MOL0     H91984   4.792   8.077  10.169 -0.2415  0.1034  0.3596
  667MOL0     H91985   4.657   8.179  10.308 -0.5414  1.8648  0.5810
  667MOL0     H91986   4.676   8.302  10.181  2.4738 -1.0476 -0.4207
  667MOL0     H91987   4.444   8.111  10.192  1.4515 -0.9665  1.0652
  667MOL0     H91988   4.466   8.265  10.097  4.0856  1.4129 -0.0644
  667MOL0     H91989   4.459   8.254  10.377  1.8977 -2.3652 -1.5588
  667MOL0     H91990   4.467   8.407  10.292  1.8442 -1.4273 -0.3800
  667MOL0     H91991   4.219   8.220  10.242 -0.7204 -0.4938  1.1319
  667MOL0     H91992   4.238   8.389  10.188 -1.7849  0.0573  0.9957
  667MOL0     H91993   4.296   8.442  10.435  1.6150 -1.8635 -0.8456
  667MOL0     H91994   4.130   8.433  10.377  0.2387  1.6432  2.7271
  667MOL0     H91995   4.143   8.101  10.387  0.8235 -4.3103  1.4484
  667MOL0     H91996   3.976   7.968  10.586  1.1113 -0.2326 -1.4729
  667MOL0     H91997   4.042   7.965  10.745 -3.7079 -0.1236 -0.5850
  667MOL0     H91998   4.190   7.851  10.503 -0.6433  0.3673  0.7837
  667MOL0     H91999   4.255   7.859  10.661 -0.2413  4.1508  0.1735
  667MOL0     H92000   3.997   7.735  10.694 -0.5072  0.6325 -1.1027
  667MOL0     H92001   4.038   7.708  10.528 -0.7270 -0.1001 -0.7172
  667MOL0     H92002   4.116   7.525  10.667 -1.4536  1.6963 -1.0758
  667MOL0     H92003   4.259   7.591  10.584 -0.3402  0.1808 -1.3836
  667MOL0     H92004   4.240   7.371  10.757  0.1197  3.5932 -0.6010
  667MOL0     H92005   4.354   7.120  10.861  0.0368 -1.7940 -0.3862
  667MOL0     H92006   4.503   7.119  10.779 -2.0072 -2.3925 -1.1754
  667MOL0     H92007   4.369   7.174  10.688  0.2942  1.9728  0.3554
  667MOL0     H92008   4.788   7.099  11.201  0.2164 -0.0287  0.4226
  667MOL0     H92009   5.026   7.017  11.239  2.0943  0.5669 -0.9636
  667MOL0     H92010   5.250   7.035  11.281 -1.0444 -0.1868 -0.0709
  667MOL0     H92011   5.250   6.893  11.169 -2.8078  0.0039 -1.3056
  667MOL0     H92012   5.459   6.904  11.240  0.1476  0.5161 -0.9592
  667MOL0     H92013   5.456   6.961  11.079 -3.5024  1.1827 -0.9492
  667MOL0     H92014   5.622   7.079  11.242 -0.3713  1.7111 -0.0088
  667MOL0     H92015   5.486   7.144  11.330 -1.5203  2.1655 -0.7632
  667MOL0     H92016   5.410   7.265  11.160  1.0464 -0.0068  0.9445
  667MOL0     H92017   5.526   7.221  11.036  2.0694  2.8247 -0.9351
  667MOL0     H92018   5.565   7.383  11.277  1.2275 -0.9294  1.2234
  667MOL0     H92019   5.701   7.296  11.209  0.0767  2.3281  1.1371
  667MOL0     H92020   5.533   7.520  11.085  1.1152  0.0542 -0.4901
  667MOL0     H92021   5.617   7.418  10.988 -1.0974 -2.1462  1.1148
  667MOL0     H92022   5.834   7.488  11.117 -1.0716 -2.5464 -0.2159
  667MOL0     H92023   5.731   7.601  11.218  2.6831  0.4587 -0.8472
  667MOL0     H92024   5.768   7.623  10.915 -1.3822  0.7239 -0.9875
  667MOL0     H92025   5.848   7.723  11.031  2.6804 -1.3685 -1.3129
  667MOL0     H92026   5.175   7.255  10.930  2.7909  1.0238  3.1075
  667MOL0     H92027   4.945   7.382  10.910  0.7051 -0.0253  0.2336
  667MOL0     H92028   4.639   7.553  10.995 -0.7601  1.8032 -1.1204
  667MOL0     H92029   4.459   7.697  10.904 -0.4808 -0.0788  1.7112
  667MOL0     H92030   4.879   8.227   9.556 -0.3349  0.5692 -0.6889
  667MOL0     H92031   4.735   8.306   9.369 -0.3634 -3.0520 -2.2269
  667MOL0     H92032   4.243   8.207   9.214  1.3214 -1.6052 -0.8530
  667MOL0     H92033   4.086   8.187   9.038 -0.2958 -0.0790 -2.6943
  667MOL0     H92034   3.989   8.357   8.899 -0.3043  0.5907 -1.0428
  667MOL0     H92035   4.050   8.402   8.742  0.0120  0.9817  2.2004
  667MOL0     H92036   3.946   8.193   8.643  1.4940  0.7000 -0.5810
  667MOL0     H92037   3.827   8.307   8.707  1.4447  2.5561  1.9236
  667MOL0     H92038   3.876   8.149   8.934  1.7820  0.4571 -0.0131
  667MOL0     H92039   3.729   8.156   8.828  0.8464  0.4920  0.9654
  667MOL0     H92040   3.980   7.978   8.779 -1.0749 -3.3144  0.1247
  667MOL0     H92041   3.841   7.956   8.692  3.1700 -3.0159 -0.4624
  667MOL0     H92042   3.777   7.740   9.042 -1.4574  1.7362  1.8789
  667MOL0     H92043   4.377   8.263   8.751  0.9867 -1.4637  0.7530
  667MOL0     H92044   4.602   8.307   8.803 -2.4796  0.1296 -0.2772
  667MOL0     H92045   4.632   8.379   8.964  0.7194 -0.5199 -1.6471
  667MOL0     H92046   4.652   8.205   8.948  0.0075 -1.3627  0.1520
  668MOL0     O92047   6.512  10.340   5.311 -0.0843  0.0912  0.0794
  668MOL0     C92048   6.605  10.400   5.259  0.0072  0.0855  0.9432
  668MOL0     O92049   6.590  10.486   5.160  0.0157 -0.1476  0.2688
  668MOL0     C92050   6.472  10.550   5.129  0.0332  0.0723 -0.3079
  668MOL0     C92051   6.339  10.512   5.157  0.2074  1.2196 -1.3681
  668MOL0     C92052   6.230  10.589   5.115 -0.7526 -0.4649  0.4752
  668MOL0     C92053   6.259  10.702   5.038 -0.1469  0.4197  0.4128
  668MOL0     O92054   6.152  10.790   5.001  0.0437  0.3408  0.3119
  668MOL0     C92055   6.051  10.731   4.921 -0.6067 -0.4263  1.2370
  668MOL0     C92056   5.915  10.752   4.981  0.1798 -0.3729  0.5516
  668MOL0     C92057   5.844  10.627   5.033 -0.2725  0.0481  1.5836
  668MOL0     C92058   5.693  10.668   5.030 -0.7718  0.4627  0.2106
  668MOL0     C92059   5.603  10.564   5.094 -0.5699 -0.1360  0.1667
  668MOL0     C92060   5.579  10.449   4.992 -0.2167 -0.8872 -0.0659
  668MOL0     C92061   5.494  10.489   4.865  0.3341  1.0484 -0.2203
  668MOL0     C92062   5.433  10.373   4.789 -0.6351 -0.0189  0.0674
  668MOL0     N92063   5.534  10.296   4.710 -0.4840 -0.7259  0.4314
  668MOL0     C92064   5.666  10.294   4.714  0.7316  0.9427  0.0943
  668MOL0     C92065   5.709  10.215   4.619  0.4134  0.2756  0.1674
  668MOL0     C92066   5.850  10.169   4.575  0.7546  0.6686 -1.0624
  668MOL0     C92067   5.869  10.214   4.420 -0.0841  1.2847 -0.7901
  668MOL0     C92068   6.012  10.235   4.387 -0.5012 -0.2069  0.2102
  668MOL0     C92069   6.090  10.330   4.471 -0.7202 -0.6740  0.0701
  668MOL0     O92070   6.218  10.375   4.412  0.1448  0.1263  0.0216
  668MOL0     C92071   6.279  10.488   4.461  0.5530  0.6608  0.6619
  668MOL0     C92072   6.366  10.540   4.378 -0.3976 -1.1734  0.4608
  668MOL0     C92073   6.420  10.676   4.399 -0.0129  1.1051 -0.1123
  668MOL0     C92074   6.524  10.710   4.301 -1.3410  0.3508  1.1356
  668MOL0     C92075   6.384  10.747   4.514  0.3617  0.3434 -0.4104
  668MOL0     C92076   6.443  10.886   4.541  0.0724 -0.4753  0.1631
  668MOL0     O92077   6.431  10.922   4.665  0.0913 -0.7494 -0.1295
  668MOL0     C92078   6.470  11.039   4.714  0.3899 -0.1308  0.2817
  668MOL0     C92079   6.387  11.145   4.743  0.0672 -0.1937 -0.9607
  668MOL0     C92080   6.434  11.260   4.802  0.0525 -1.2226 -0.0308
  668MOL0     C92081   6.569  11.269   4.831 -0.6779 -0.5948 -0.8403
  668MOL0     O92082   6.615  11.394   4.879  0.3479 -0.6216 -0.8517
  668MOL0     C92083   6.752  11.421   4.914 -0.0804  0.2685 -0.0560
  668MOL0     C92084   6.783  11.574   4.923  0.5823  0.0135  0.0132
  668MOL0     C92085   6.866  11.609   4.797 -1.2297  0.2814  0.3045
  668MOL0     C92086   6.800  11.619   4.659  0.8863 -0.7607  0.1451
  668MOL0     C92087   6.757  11.488   4.598 -0.6095 -0.5558 -0.2501
  668MOL0     C92088   6.758  11.501   4.445  0.1541  0.3266  0.1092
  668MOL0     C92089   6.724  11.376   4.371 -0.3230 -0.4458 -0.5342
  668MOL0     C92090   6.605  11.296   4.434  0.0806  0.5914  0.1510
  668MOL0    Cl92091   6.450  11.385   4.399 -0.3258  0.3617  0.0596
  668MOL0     C92092   6.657  11.161   4.809 -0.3974 -0.0436 -0.7557
  668MOL0     C92093   6.601  11.047   4.756  0.9665 -0.0859 -0.2672
  668MOL0     O92094   6.489  10.953   4.455 -0.2778 -0.1265  0.5047
  668MOL0     C92095   6.294  10.689   4.604 -0.3982 -0.3336  0.3945
  668MOL0     C92096   6.242  10.558   4.583 -0.2988 -0.4948  0.6899
  668MOL0     N92097   5.589  10.165   4.570 -0.1040 -0.4821  0.3703
  668MOL0     N92098   5.484  10.205   4.624 -0.3632  0.0927 -0.3873
  668MOL0     C92099   6.391  10.747   5.012  0.9991 -0.1106 -0.2947
  668MOL0     C92100   6.495  10.668   5.054  0.6725 -0.9893 -0.0044
  668MOL0     C92101   6.737  10.335   5.281  0.8595 -1.2304 -0.3560
  668MOL0     C92102   6.843  10.366   5.186 -0.0484  0.2645  0.6153
  668MOL0     C92103   6.974  10.328   5.203  0.2946 -0.0025 -0.1190
  668MOL0     C92104   7.005  10.227   5.297  0.1964  0.0992  0.5552
  668MOL0     O92105   7.124  10.157   5.311 -0.3145  0.0191  0.6163
  668MOL0     C92106   7.219  10.147   5.207 -0.0735  0.1866  0.5861
  668MOL0     C92107   7.163  10.108   5.070  0.3562  0.1078 -0.4385
  668MOL0     C92108   7.098   9.967   5.051  0.5590  0.0993 -0.1388
  668MOL0     C92109   6.975   9.936   5.144  0.6516 -0.2250 -1.2801
  668MOL0     C92110   6.903   9.813   5.106  0.0550 -0.1528 -0.2356
  668MOL0     C92111   6.836   9.716   5.082 -0.1636  0.5391 -0.2280
  668MOL0     C92112   6.897  10.183   5.386  0.6025  0.6691 -0.0839
  668MOL0     C92113   6.768  10.245   5.386 -0.5921 -0.0692  0.7340
  668MOL0     C92114   6.674  10.208   5.500  0.0971 -1.2449 -0.5440
  668MOL0     H92115   6.319  10.426   5.221  0.3075  2.1642 -0.0164
  668MOL0     H92116   6.130  10.553   5.138 -0.9851 -1.6698 -2.0832
  668MOL0     H92117   6.063  10.623   4.911 -0.6849 -0.2003 -2.9213
  668MOL0     H92118   6.052  10.767   4.818 -1.8906 -0.3244  1.2526
  668MOL0     H92119   5.913  10.833   5.054 -0.5464 -0.6350  0.8329
  668MOL0     H92120   5.854  10.795   4.900 -0.8276  0.9123  1.9413
  668MOL0     H92121   5.849  10.542   4.964 -2.2367 -2.4966  4.3361
  668MOL0     H92122   5.890  10.585   5.123  0.0185 -3.8827 -0.2025
  668MOL0     H92123   5.700  10.760   5.089  2.2348 -0.1515  0.9641
  668MOL0     H92124   5.664  10.682   4.925 -0.3267  1.0212  0.1595
  668MOL0     H92125   5.509  10.615   5.116  0.3859  3.1043 -2.3282
  668MOL0     H92126   5.649  10.521   5.183 -0.6111  1.9049  1.2516
  668MOL0     H92127   5.676  10.413   4.957  0.8860  0.3148  1.6310
  668MOL0     H92128   5.529  10.364   5.039  0.2185 -0.1989  1.7048
  668MOL0     H92129   5.545  10.554   4.793  0.9817 -2.1379 -2.8873
  668MOL0     H92130   5.413  10.547   4.909  1.0850  1.3267  0.8501
  668MOL0     H92131   5.388  10.301   4.857  1.3489 -2.2667 -0.8397
  668MOL0     H92132   5.348  10.406   4.729  0.0244 -0.6558 -1.2720
  668MOL0     H92133   5.734  10.349   4.779 -0.7639 -1.2625  3.9046
  668MOL0     H92134   5.856  10.061   4.557 -3.5300 -0.1172  1.0131
  668MOL0     H92135   5.920  10.195   4.656 -1.8133 -1.1816  1.9987
  668MOL0     H92136   5.831  10.137   4.353  2.4298 -2.6538  1.9073
  668MOL0     H92137   5.820  10.309   4.395 -4.7674 -1.0664 -1.5503
  668MOL0     H92138   6.065  10.139   4.382  2.2512  1.2607 -0.6966
  668MOL0     H92139   6.014  10.275   4.285 -1.3817 -2.6079 -0.8421
  668MOL0     H92140   6.030  10.419   4.491  1.0701  1.0655 -1.8597
  668MOL0     H92141   6.109  10.278   4.566 -2.2792  0.7344  1.2014
  668MOL0     H92142   6.392  10.483   4.290 -0.4373  0.8009 -0.9102
  668MOL0     H92143   6.542  10.634   4.224  1.0652 -0.5012  2.4223
  668MOL0     H92144   6.626  10.727   4.338  0.2874  0.5509 -2.9270
  668MOL0     H92145   6.498  10.808   4.261  1.6777  0.3969 -1.0376
  668MOL0     H92146   6.282  11.142   4.713  0.2927  0.1893 -1.8074
  668MOL0     H92147   6.376  11.351   4.816  2.1171  0.7543 -3.2010
  668MOL0     H92148   6.774  11.376   5.011 -1.5879 -1.7868 -0.5884
  668MOL0     H92149   6.820  11.374   4.842 -0.3149  0.5977 -0.5001
  668MOL0     H92150   6.693  11.634   4.938  1.6114  2.1002 -1.5850
  668MOL0     H92151   6.840  11.602   5.013  1.7267  4.6113 -1.8400
  668MOL0     H92152   6.942  11.529   4.793  0.7930  2.0963  0.4182
  668MOL0     H92153   6.919  11.703   4.815 -1.9175  0.3123  2.3744
  668MOL0     H92154   6.870  11.670   4.592 -1.8610  0.4047 -2.0421
  668MOL0     H92155   6.712  11.683   4.657  2.2077  1.1391 -1.3673
  668MOL0     H92156   6.815  11.403   4.635 -2.6146 -2.6699 -1.6921
  668MOL0     H92157   6.659  11.463   4.640 -0.2348  0.7806  1.5467
  668MOL0     H92158   6.855  11.541   4.412  0.6458 -0.0118  1.1000
  668MOL0     H92159   6.678  11.572   4.423 -1.3169 -1.4748 -0.6060
  668MOL0     H92160   6.812  11.315   4.392 -1.2520 -1.7166 -0.2154
  668MOL0     H92161   6.707  11.388   4.264  0.8488  0.4929 -0.6446
  668MOL0     H92162   6.615  11.277   4.541  1.8455  0.6557  0.0235
  668MOL0     H92163   6.608  11.197   4.387 -0.4748  0.5192  0.2692
  668MOL0     H92164   6.764  11.166   4.830 -0.4311 -1.9807  0.1373
  668MOL0     H92165   6.662  10.959   4.739  0.5709 -0.9286  2.2804
  668MOL0     H92166   6.285  10.741   4.699  0.7467 -1.1279  0.9622
  668MOL0     H92167   6.181  10.518   4.664 -2.3978 -2.3495 -1.6243
  668MOL0     H92168   6.411  10.848   4.978  0.4671  1.1149  2.7013
  668MOL0     H92169   6.597  10.701   5.034  0.3663 -1.4197 -2.6324
  668MOL0     H92170   6.823  10.444   5.113  3.6437  2.4419  1.6249
  668MOL0     H92171   7.037  10.372   5.126 -0.7882  0.4846 -0.7421
  668MOL0     H92172   7.270  10.243   5.194  0.4986  0.3139  3.1505
  668MOL0     H92173   7.295  10.079   5.246 -1.0770 -1.1603  0.2634
  668MOL0     H92174   7.254  10.097   5.011  0.6720  3.3580 -0.7300
  668MOL0     H92175   7.098  10.183   5.024 -0.5601  1.7636  3.1989
  668MOL0     H92176   7.070   9.957   4.946  0.0393 -2.1256  0.1671
  668MOL0     H92177   7.175   9.891   5.066  0.6602  0.2566  0.1522
  668MOL0     H92178   6.900  10.014   5.150 -0.1670 -1.0786  0.0829
  668MOL0     H92179   7.016   9.923   5.244 -0.8790  2.5187 -0.2066
  668MOL0     H92180   6.783   9.624   5.062 -0.7822  1.0899 -1.2308
  668MOL0     H92181   6.917  10.102   5.455  0.7920  0.3530 -0.5023
  668MOL0     H92182   6.724  10.145   5.574 -0.2770  1.3493  2.0807
  668MOL0     H92183   6.632  10.297   5.547 -0.1124 -1.8977  0.5403
  668MOL0     H92184   6.587  10.154   5.460 -1.1491  0.5266 -0.3414
  669MOL0     O92185   5.004   4.974   3.948 -0.2117 -0.3351 -0.2619
  669MOL0     C92186   4.989   5.058   3.861 -0.1917  0.0402  1.3356
  669MOL0     O92187   5.045   5.171   3.858  0.4501 -0.6081 -0.2496
  669MOL0     C92188   5.155   5.183   3.931 -1.5613 -0.7157  0.4238
  669MOL0     C92189   5.149   5.239   4.053  0.4658  0.6381 -0.4843
  669MOL0     C92190   5.263   5.260   4.126 -1.1605 -0.1985  0.3902
  669MOL0     C92191   5.393   5.237   4.068 -0.1612 -0.4248 -0.6335
  669MOL0     O92192   5.508   5.236   4.138 -0.4357  0.3665  0.0986
  669MOL0     C92193   5.534   5.349   4.223 -0.9878  0.5671  0.2588
  669MOL0     C92194   5.671   5.332   4.298  1.2030  0.4084  0.2254
  669MOL0     C92195   5.780   5.323   4.201  0.0926 -0.3550  0.0936
  669MOL0     C92196   5.918   5.346   4.267  0.4141 -0.5560  0.0155
  669MOL0     C92197   6.032   5.343   4.166 -0.1134 -0.0052 -0.9576
  669MOL0     C92198   6.157   5.375   4.253  0.2072 -1.0800  0.0980
  669MOL0     C92199   6.285   5.322   4.182  0.2329 -0.4101  0.0859
  669MOL0     C92200   6.405   5.407   4.208 -0.1158 -0.1177  0.5800
  669MOL0     N92201   6.533   5.357   4.147 -0.4811  0.0724 -0.2791
  669MOL0     C92202   6.550   5.290   4.028 -0.3866  0.3166 -0.0186
  669MOL0     C92203   6.687   5.272   4.026 -0.9458  0.4852 -0.6338
  669MOL0     C92204   6.759   5.200   3.921  0.2736 -0.3210  0.2635
  669MOL0     C92205   6.735   5.045   3.936  0.3264 -1.0382 -0.0184
  669MOL0     C92206   6.845   4.983   3.852 -0.6882 -0.9208 -0.4676
  669MOL0     C92207   6.820   4.846   3.814  0.6063 -0.1190  0.0581
  669MOL0     O92208   6.812   4.766   3.935  0.0584 -0.2189 -0.1895
  669MOL0     C92209   6.904   4.669   3.954 -0.5096  0.2908  0.0037
  669MOL0     C92210   7.033   4.668   3.895  0.0456 -0.4631 -0.3463
  669MOL0     C92211   7.126   4.554   3.894  1.0544 -0.0253 -0.7490
  669MOL0     C92212   7.264   4.565   3.842 -1.1450  0.4440  0.7638
  669MOL0     C92213   7.083   4.435   3.953  0.3228  0.1833  0.2242
  669MOL0     C92214   7.166   4.312   3.968  0.2767 -0.1080  0.4087
  669MOL0     O92215   7.137   4.245   4.087  0.1146 -0.7926  0.5619
  669MOL0     C92216   7.171   4.118   4.086 -0.5141  1.8306  0.5252
  669MOL0     C92217   7.096   3.996   4.057  0.5573  0.4128 -0.7668
  669MOL0     C92218   7.152   3.865   4.082 -0.2837  0.5348  1.1283
  669MOL0     C92219   7.282   3.853   4.133  0.6760 -0.7064  0.5673
  669MOL0     O92220   7.354   3.740   4.140  0.1714 -0.0495 -0.1142
  669MOL0     C92221   7.285   3.612   4.148 -0.2731  0.4291 -0.2188
  669MOL0     C92222   7.374   3.491   4.170  0.8478  0.1930 -0.0552
  669MOL0     C92223   7.478   3.512   4.285 -0.3908  0.3341 -0.7828
  669MOL0     C92224   7.563   3.379   4.319 -0.0741  0.6617  0.7488
  669MOL0     C92225   7.504   3.289   4.430 -0.5593  0.7027 -0.0550
  669MOL0     C92226   7.585   3.151   4.428  0.6704  1.0910  0.3192
  669MOL0     C92227   7.538   3.064   4.554 -0.9056 -0.0775  0.4484
  669MOL0     C92228   7.673   3.021   4.613  0.7585  0.1606  0.8253
  669MOL0    Cl92229   7.655   2.903   4.753 -0.5016  0.2870 -0.4358
  669MOL0     C92230   7.352   3.974   4.151  0.2685  0.0023  0.4823
  669MOL0     C92231   7.296   4.097   4.130 -0.0719 -0.2409  0.9646
  669MOL0     O92232   7.235   4.272   3.870  0.5638 -0.1078 -0.1946
  669MOL0     C92233   6.945   4.439   4.007  0.3853 -0.2551 -0.2526
  669MOL0     C92234   6.860   4.546   3.991  0.7643 -0.0138  0.3760
  669MOL0     N92235   6.754   5.337   4.135 -0.3519 -0.5541 -0.1682
  669MOL0     N92236   6.656   5.371   4.204 -0.8424 -0.4428 -0.3159
  669MOL0     C92237   5.399   5.192   3.935 -0.1191  0.3545 -1.0945
  669MOL0     C92238   5.284   5.162   3.869  0.2370  0.4681 -0.3323
  669MOL0     C92239   4.885   5.031   3.761 -0.1801  0.6968 -1.0019
  669MOL0     C92240   4.831   5.141   3.692 -0.5688  0.1608 -0.7554
  669MOL0     C92241   4.707   5.124   3.626  0.4510  0.7349 -0.6483
  669MOL0     C92242   4.644   4.999   3.609 -0.6798 -1.7584 -0.4612
  669MOL0     O92243   4.531   4.996   3.535 -0.1567 -0.0346 -0.1365
  669MOL0     C92244   4.430   4.901   3.555  0.2228  0.4969 -0.2776
  669MOL0     C92245   4.351   4.908   3.682  0.4364 -1.0152 -0.8242
  669MOL0     C92246   4.322   5.058   3.719  0.6869 -0.1466  0.2109
  669MOL0     C92247   4.273   5.067   3.863  0.2114 -0.4990  0.0917
  669MOL0     C92248   4.299   5.207   3.911  0.4398  0.5085  0.2070
  669MOL0     C92249   4.324   5.319   3.951  0.9219  0.1332  0.2294
  669MOL0     C92250   4.716   4.891   3.662  1.3998  0.5288  0.3280
  669MOL0     C92251   4.834   4.902   3.735  0.0286 -0.2250  0.0053
  669MOL0     C92252   4.897   4.777   3.783 -0.1235  1.0762  0.4035
  669MOL0     H92253   5.050   5.264   4.090 -0.1187  2.2622 -2.8787
  669MOL0     H92254   5.254   5.309   4.223 -0.3032 -1.4951  1.1495
  669MOL0     H92255   5.460   5.359   4.303 -3.2225 -1.0663 -1.4489
  669MOL0     H92256   5.547   5.435   4.156  1.6033 -1.1273 -1.6138
  669MOL0     H92257   5.678   5.411   4.373 -3.8532  1.1271  0.3165
  669MOL0     H92258   5.674   5.241   4.359 -1.4133  0.6632  0.8627
  669MOL0     H92259   5.771   5.224   4.155 -1.3653  0.2708 -1.0542
  669MOL0     H92260   5.777   5.399   4.122  4.8600  0.4243  0.3531
  669MOL0     H92261   5.912   5.439   4.323 -0.0217 -0.3116 -0.4263
  669MOL0     H92262   5.934   5.259   4.331  2.3937  0.9369  1.6593
  669MOL0     H92263   6.028   5.419   4.087  0.9663  0.3413 -0.7023
  669MOL0     H92264   6.039   5.247   4.116 -1.8021  0.8701 -3.0095
  669MOL0     H92265   6.169   5.481   4.276 -2.6946 -0.3399 -1.3602
  669MOL0     H92266   6.147   5.315   4.343 -1.8073 -1.4901 -0.3513
  669MOL0     H92267   6.274   5.339   4.075  0.5038 -2.1055 -0.2372
  669MOL0     H92268   6.293   5.214   4.202 -0.6756 -0.7788 -1.3932
  669MOL0     H92269   6.377   5.505   4.168 -1.2130 -1.8483 -3.3313
  669MOL0     H92270   6.412   5.424   4.316 -0.6067 -0.9327  0.7498
  669MOL0     H92271   6.470   5.261   3.960 -2.0686  1.3162  1.4344
  669MOL0     H92272   6.863   5.234   3.920 -0.5749  2.5281 -0.3805
  669MOL0     H92273   6.719   5.233   3.825  0.3180 -0.3019  0.2511
  669MOL0     H92274   6.736   5.023   4.044 -1.2388 -2.4964 -0.2572
  669MOL0     H92275   6.636   5.026   3.893  0.3185 -0.1376 -0.4085
  669MOL0     H92276   6.873   5.031   3.758 -0.0247  1.3656  0.8069
  669MOL0     H92277   6.939   4.994   3.907  1.4077 -1.0056 -3.7718
  669MOL0     H92278   6.721   4.850   3.768  0.8172  4.7585 -0.4241
  669MOL0     H92279   6.885   4.806   3.736  1.0242 -1.0227  0.8363
  669MOL0     H92280   7.071   4.760   3.851  2.0054  0.1262  2.2849
  669MOL0     H92281   7.293   4.479   3.781 -0.7528 -0.9903  2.8514
  669MOL0     H92282   7.331   4.575   3.928  1.0008  0.2795 -0.8179
  669MOL0     H92283   7.277   4.646   3.769 -0.6284 -3.2992 -3.7479
  669MOL0     H92284   6.995   3.998   4.015  0.3182  2.7519 -0.2171
  669MOL0     H92285   7.099   3.773   4.060  2.1579 -0.4930 -1.0071
  669MOL0     H92286   7.217   3.629   4.232 -0.7851  3.0793 -1.0746
  669MOL0     H92287   7.230   3.596   4.055 -1.4197 -2.1141  0.7950
  669MOL0     H92288   7.297   3.415   4.182 -1.2126  2.3787  1.5527
  669MOL0     H92289   7.424   3.474   4.074  0.5071 -1.6666  0.0669
  669MOL0     H92290   7.435   3.548   4.379  3.1312  2.0242  0.3288
  669MOL0     H92291   7.545   3.586   4.240  1.1003  0.5318  1.6148
  669MOL0     H92292   7.667   3.395   4.346  0.9962 -3.2022 -0.4451
  669MOL0     H92293   7.559   3.317   4.229 -2.0305  1.6119  0.1191
  669MOL0     H92294   7.528   3.334   4.527  0.6237 -0.2540  0.1163
  669MOL0     H92295   7.395   3.277   4.429 -0.6050 -0.2960 -4.6833
  669MOL0     H92296   7.693   3.163   4.435  1.2797 -2.8781  0.1522
  669MOL0     H92297   7.567   3.103   4.331  1.9138  0.4369  0.3984
  669MOL0     H92298   7.477   2.973   4.544 -2.1810  0.9319 -1.8137
  669MOL0     H92299   7.490   3.132   4.626 -1.1863  0.1963  0.0072
  669MOL0     H92300   7.744   3.101   4.634  0.0413  1.4943 -1.4520
  669MOL0     H92301   7.718   2.950   4.544  1.8505 -1.6383  3.2494
  669MOL0     H92302   7.458   3.984   4.176  1.3790 -1.8334 -2.9170
  669MOL0     H92303   7.349   4.188   4.154 -1.9068  2.1770 -3.0342
  669MOL0     H92304   6.919   4.343   4.051  2.3874 -1.5202 -1.6674
  669MOL0     H92305   6.758   4.515   4.011 -0.0756  0.7251 -2.4381
  669MOL0     H92306   5.494   5.174   3.885  1.5739  1.0195  1.7039
  669MOL0     H92307   5.279   5.131   3.765 -3.2759  0.7554 -0.3788
  669MOL0     H92308   4.867   5.243   3.698  1.4691 -0.5071 -1.0249
  669MOL0     H92309   4.655   5.210   3.586  0.7942  0.5218 -1.5968
  669MOL0     H92310   4.353   4.915   3.478 -1.9880  0.5657  1.8392
  669MOL0     H92311   4.477   4.802   3.559 -1.8616 -0.5304  1.6772
  669MOL0     H92312   4.416   4.875   3.764  1.3091  3.3570  0.5362
  669MOL0     H92313   4.262   4.845   3.679  1.4789 -2.6162  0.2362
  669MOL0     H92314   4.417   5.110   3.707  1.1145 -1.0880 -0.6094
  669MOL0     H92315   4.261   5.108   3.643  1.0546  2.7604  1.7049
  669MOL0     H92316   4.314   4.991   3.930 -1.8595 -1.0396  0.8458
  669MOL0     H92317   4.166   5.043   3.864  0.0314  0.2062  2.0479
  669MOL0     H92318   4.340   5.417   3.991  2.3787  0.4578 -1.0518
  669MOL0     H92319   4.687   4.787   3.656 -0.7067  1.1389 -1.0106
  669MOL0     H92320   4.848   4.730   3.869  2.9411 -2.1371  0.6098
  669MOL0     H92321   4.894   4.701   3.704 -1.3210  3.2072 -1.7425
  669MOL0     H92322   5.003   4.793   3.803 -0.1923  1.5265  0.4242
  670MOL0     O92323   7.191   3.278   4.617  0.5880 -0.3238  0.1994
  670MOL0     C92324   7.103   3.243   4.539 -0.3300 -0.0187 -0.6015
  670MOL0     O92325   6.995   3.315   4.491  0.1322  0.2626  0.6350
  670MOL0     C92326   6.977   3.426   4.562 -0.5226 -0.1720 -0.8514
  670MOL0     C92327   7.054   3.540   4.555 -0.5624 -0.3749 -0.1568
  670MOL0     C92328   7.045   3.650   4.639  0.2038 -0.5491 -0.3289
  670MOL0     C92329   6.943   3.655   4.736  0.3475  0.1762  0.5086
  670MOL0     O92330   6.917   3.747   4.834 -0.2530  0.5319  0.3405
  670MOL0     C92331   7.000   3.866   4.827  1.0363  0.9333  0.5900
  670MOL0     C92332   6.972   3.961   4.949  0.9397  0.8696  0.2902
  670MOL0     C92333   6.831   4.001   4.958  0.1042  0.6620 -0.0619
  670MOL0     C92334   6.816   4.112   5.058  0.2261  0.9866 -0.3304
  670MOL0     C92335   6.697   4.207   5.030 -0.3939 -0.2810 -0.0696
  670MOL0     C92336   6.698   4.317   5.136 -1.1978  0.0504 -0.4169
  670MOL0     C92337   6.552   4.361   5.163 -0.4854 -0.6714  0.0408
  670MOL0     C92338   6.551   4.481   5.270  0.1450  0.1146  0.3014
  670MOL0     N92339   6.627   4.445   5.383 -0.0694  0.1837 -0.4589
  670MOL0     C92340   6.704   4.534   5.452  0.9539 -0.4146  0.4483
  670MOL0     C92341   6.766   4.451   5.535 -0.2797 -1.0378  0.0070
  670MOL0     C92342   6.888   4.498   5.601  0.6135 -0.5285  0.3233
  670MOL0     C92343   6.868   4.535   5.744 -0.1971 -0.2701  0.2755
  670MOL0     C92344   6.849   4.412   5.826  0.0156  1.1484 -0.7788
  670MOL0     C92345   6.782   4.458   5.961  0.2550  0.4944  0.0363
  670MOL0     O92346   6.791   4.362   6.077  0.4927  0.4528 -0.2647
  670MOL0     C92347   6.717   4.409   6.185 -0.6046 -0.0634 -0.7048
  670MOL0     C92348   6.810   4.440   6.290  0.6087  0.6263 -0.0726
  670MOL0     C92349   6.766   4.499   6.407  0.7231  0.6620 -0.4775
  670MOL0     C92350   6.873   4.524   6.512 -0.3594 -0.3219  0.1749
  670MOL0     C92351   6.621   4.515   6.425 -0.1814  0.1976  0.4676
  670MOL0     C92352   6.555   4.563   6.543 -0.4801  0.3064 -0.0548
  670MOL0     O92353   6.409   4.560   6.538 -0.3155  0.2836  1.0522
  670MOL0     C92354   6.341   4.594   6.653  0.2729  0.1413 -0.5473
  670MOL0     C92355   6.279   4.719   6.675  0.6034 -0.2788 -0.5541
  670MOL0     C92356   6.227   4.747   6.797 -0.1049  0.9645  0.2159
  670MOL0     C92357   6.207   4.649   6.890 -0.4775 -0.3241  0.1876
  670MOL0     O92358   6.160   4.703   7.007 -0.2412 -0.0747  0.2274
  670MOL0     C92359   6.158   4.634   7.134  0.0728 -0.9004 -0.9817
  670MOL0     C92360   6.037   4.698   7.219 -0.5232 -0.1326 -0.6666
  670MOL0     C92361   5.911   4.645   7.178  0.0570 -0.6129  0.3020
  670MOL0     C92362   5.878   4.488   7.185  0.6536 -0.1829 -1.1638
  670MOL0     C92363   5.727   4.469   7.156  0.3098 -0.2639  0.9438
  670MOL0     C92364   5.671   4.526   7.025 -0.1039  0.5132  0.4908
  670MOL0     C92365   5.526   4.478   6.996  0.5077 -0.0248  0.1764
  670MOL0     C92366   5.427   4.521   7.102  0.8954 -0.0020 -0.4281
  670MOL0    Cl92367   5.436   4.706   7.115 -0.1905  0.5059 -0.3227
  670MOL0     C92368   6.262   4.524   6.872 -0.2346  0.3595 -0.1403
  670MOL0     C92369   6.324   4.488   6.758 -0.5417 -0.3790  0.6207
  670MOL0     O92370   6.622   4.592   6.642  0.2506  0.5962  0.4491
  670MOL0     C92371   6.528   4.474   6.322  0.3776  0.5639  0.4385
  670MOL0     C92372   6.581   4.434   6.193 -0.2468 -1.0803 -0.2201
  670MOL0     N92373   6.725   4.326   5.526  0.5945 -0.2763  1.2559
  670MOL0     N92374   6.632   4.317   5.439  0.4982 -0.0917 -0.4882
  670MOL0     C92375   6.859   3.543   4.735  0.3547 -0.6073 -1.5474
  670MOL0     C92376   6.877   3.427   4.657 -0.6871 -1.2905 -0.6424
  670MOL0     C92377   7.126   3.110   4.458  0.1399 -0.1062 -0.1847
  670MOL0     C92378   7.085   3.103   4.327 -0.1004  0.6406  0.3187
  670MOL0     C92379   7.118   2.992   4.249 -0.0635  0.1396  0.3596
  670MOL0     C92380   7.196   2.888   4.299 -0.4109 -0.5339 -0.8558
  670MOL0     O92381   7.226   2.791   4.217 -0.2410  0.2154 -0.5314
  670MOL0     C92382   7.315   2.689   4.238  1.0659  0.3598 -0.0479
  670MOL0     C92383   7.286   2.595   4.125  0.2603  0.6984 -0.5415
  670MOL0     C92384   7.381   2.474   4.119 -0.0166  0.4741  0.1266
  670MOL0     C92385   7.312   2.350   4.060  0.3505  0.4940  0.5414
  670MOL0     C92386   7.391   2.230   4.090  0.4271 -0.0194 -0.6566
  670MOL0     C92387   7.479   2.148   4.109 -0.3997 -0.3283 -0.1813
  670MOL0     C92388   7.223   2.886   4.439  0.3320 -0.1748  0.2309
  670MOL0     C92389   7.187   2.997   4.515 -0.9981 -0.2575 -0.0174
  670MOL0     C92390   7.189   2.980   4.664 -0.4858 -0.1023 -1.0316
  670MOL0     H92391   7.143   3.545   4.492  2.1709  2.3797  3.4128
  670MOL0     H92392   7.111   3.735   4.626 -1.0020  0.3314 -0.8742
  670MOL0     H92393   6.991   3.922   4.733  0.6707 -0.6546 -0.3401
  670MOL0     H92394   7.103   3.830   4.827  0.5157 -0.6550 -0.7918
  670MOL0     H92395   6.991   3.891   5.030 -1.5063 -1.0089 -0.6165
  670MOL0     H92396   7.045   4.043   4.949  1.8306  0.0981  0.5699
  670MOL0     H92397   6.796   4.047   4.865 -2.2617 -0.7684  0.0193
  670MOL0     H92398   6.763   3.921   4.989  0.1044 -0.3832 -2.5216
  670MOL0     H92399   6.799   4.065   5.155  0.8995  0.2058 -0.5837
  670MOL0     H92400   6.908   4.170   5.060  1.8903 -1.5260 -0.0229
  670MOL0     H92401   6.613   4.137   5.028  1.8034 -3.0701 -1.7086
  670MOL0     H92402   6.712   4.251   4.932  3.6647 -0.0314  0.4912
  670MOL0     H92403   6.740   4.279   5.229  2.7776 -2.1548 -2.8140
  670MOL0     H92404   6.748   4.405   5.094  1.2727 -1.2686 -0.4085
  670MOL0     H92405   6.492   4.277   5.199 -0.4506 -1.1624 -1.0037
  670MOL0     H92406   6.509   4.400   5.071  2.1048  0.2854 -0.8376
  670MOL0     H92407   6.599   4.574   5.238  1.4834 -0.2591  1.0903
  670MOL0     H92408   6.450   4.503   5.306 -0.8491 -4.6861  1.2066
  670MOL0     H92409   6.710   4.641   5.437 -0.4810 -0.3364  0.3595
  670MOL0     H92410   6.938   4.575   5.542 -1.5668 -0.4524 -1.5583
  670MOL0     H92411   6.953   4.410   5.600  2.7280  0.9516  0.3066
  670MOL0     H92412   6.959   4.592   5.769  0.2363  0.3738 -2.4436
  670MOL0     H92413   6.783   4.602   5.757  2.3205  2.7982  2.7041
  670MOL0     H92414   6.777   4.339   5.787  1.0511 -0.8548  0.8532
  670MOL0     H92415   6.945   4.368   5.854 -1.0685  0.4563  2.1589
  670MOL0     H92416   6.827   4.552   5.994 -0.3614  0.1461  2.0080
  670MOL0     H92417   6.676   4.481   5.943 -0.6539 -2.8759  0.3611
  670MOL0     H92418   6.912   4.425   6.256  0.2769 -0.1295 -0.7787
  670MOL0     H92419   6.837   4.502   6.613  0.0012  2.3449  0.9658
  670MOL0     H92420   6.936   4.613   6.507  1.5004 -1.5388  0.8834
  670MOL0     H92421   6.948   4.445   6.499 -2.8164 -3.0206  1.2582
  670MOL0     H92422   6.267   4.786   6.591 -1.2958 -1.6818 -1.4851
  670MOL0     H92423   6.179   4.841   6.823 -4.0513 -1.2120  1.6783
  670MOL0     H92424   6.141   4.526   7.131 -0.8244 -0.7975 -0.1552
  670MOL0     H92425   6.251   4.665   7.182  0.3749  1.0820 -2.7250
  670MOL0     H92426   6.058   4.669   7.323  1.9402 -1.2261 -1.3821
  670MOL0     H92427   6.045   4.806   7.207 -0.9194  0.1368  1.1590
  670MOL0     H92428   5.894   4.677   7.075 -0.6413 -0.4227  0.4717
  670MOL0     H92429   5.835   4.694   7.239  1.4969 -0.9383  2.4833
  670MOL0     H92430   5.895   4.453   7.288  0.6910  1.2096 -0.6743
  670MOL0     H92431   5.936   4.426   7.117 -1.7050 -3.5355 -0.3950
  670MOL0     H92432   5.723   4.360   7.154  1.1533 -0.3147  1.5107
  670MOL0     H92433   5.660   4.507   7.233 -1.9867  0.8786 -1.4669
  670MOL0     H92434   5.737   4.506   6.940 -0.8030  1.8886 -0.3918
  670MOL0     H92435   5.660   4.634   7.036  0.7696  0.4708  2.2634
  670MOL0     H92436   5.531   4.369   6.989 -1.9947 -0.1323 -1.0656
  670MOL0     H92437   5.494   4.517   6.899  3.2681  0.3810 -0.6709
  670MOL0     H92438   5.459   4.479   7.198 -0.6944  0.3748  0.3072
  670MOL0     H92439   5.329   4.484   7.070  1.2701  1.4228 -3.5947
  670MOL0     H92440   6.268   4.438   6.937  2.8770  1.1687  0.8083
  670MOL0     H92441   6.367   4.391   6.738  0.1747 -0.0210  0.4076
  670MOL0     H92442   6.421   4.473   6.337  0.5206  0.5773  1.5646
  670MOL0     H92443   6.517   4.410   6.109 -3.3936  1.4510  1.2526
  670MOL0     H92444   6.781   3.547   4.811  2.0322  0.2270  0.2008
  670MOL0     H92445   6.811   3.344   4.682 -0.6403 -0.9617  0.6509
  670MOL0     H92446   7.029   3.181   4.278 -0.8875 -0.2255 -0.2056
  670MOL0     H92447   7.093   2.991   4.143 -1.2378 -6.3540  0.2844
  670MOL0     H92448   7.417   2.726   4.224  0.5353  0.9538 -2.9797
  670MOL0     H92449   7.304   2.635   4.332  1.9386 -1.0310 -0.7072
  670MOL0     H92450   7.300   2.654   4.034 -0.1528  1.7062  0.0362
  670MOL0     H92451   7.185   2.554   4.125  0.8719 -1.6270  4.9815
  670MOL0     H92452   7.465   2.492   4.052  0.5275 -0.8664  0.4101
  670MOL0     H92453   7.429   2.447   4.213  0.1739 -1.1532 -0.4046
  670MOL0     H92454   7.295   2.351   3.952  0.7840  2.6551  0.4559
  670MOL0     H92455   7.215   2.328   4.105  0.2607 -0.7954 -0.2235
  670MOL0     H92456   7.559   2.078   4.101  2.5761  2.9652 -2.5322
  670MOL0     H92457   7.275   2.805   4.489  4.8020  2.4287  0.3871
  670MOL0     H92458   7.094   2.966   4.715  0.6840 -1.9113  0.8228
  670MOL0     H92459   7.242   2.886   4.686  2.2486  1.4662 -0.4626
  670MOL0     H92460   7.244   3.064   4.707  2.0935 -1.9933 -0.3402
  671MOL0     O92461   0.903   1.144   5.156 -0.2671  0.5009 -0.4012
  671MOL0     C92462   0.843   1.159   5.047 -0.2312  0.1996  0.4417
  671MOL0     O92463   0.905   1.161   4.929 -0.0156  0.3355 -0.0465
  671MOL0     C92464   1.042   1.155   4.942  0.3800  0.4976  0.2420
  671MOL0     C92465   1.103   1.032   4.955 -0.1645 -1.7459 -0.0505
  671MOL0     C92466   1.246   1.021   4.964  0.5936  0.2484  0.3842
  671MOL0     C92467   1.320   1.134   4.974  0.8747 -0.0172  0.2772
  671MOL0     O92468   1.452   1.119   4.987  0.6649  0.5722  0.4857
  671MOL0     C92469   1.527   1.222   5.047  0.4199  0.5434  0.3028
  671MOL0     C92470   1.653   1.164   5.110  0.6258  0.2598 -0.2566
  671MOL0     C92471   1.776   1.152   5.023 -0.1895  0.3769  0.7205
  671MOL0     C92472   1.818   1.288   4.971  0.5945  0.1543  0.0168
  671MOL0     C92473   1.949   1.299   4.898 -1.0814  0.3198  0.3724
  671MOL0     C92474   1.999   1.439   4.878 -0.0624 -0.3354 -0.4267
  671MOL0     C92475   1.911   1.508   4.767  0.6778  0.0906  0.2666
  671MOL0     C92476   1.961   1.652   4.758  0.4577  0.8810 -0.9420
  671MOL0     N92477   2.027   1.684   4.629 -0.0653 -0.1598 -0.2464
  671MOL0     C92478   1.969   1.752   4.520 -0.8657 -0.8602  0.2680
  671MOL0     C92479   2.077   1.751   4.427  0.2442 -0.8666 -0.5203
  671MOL0     C92480   2.088   1.795   4.281 -0.3280 -0.3751 -0.6909
  671MOL0     C92481   2.071   1.687   4.180 -0.1932 -0.2303  0.4239
  671MOL0     C92482   2.141   1.723   4.039 -0.6331  0.0283  0.0125
  671MOL0     C92483   2.070   1.639   3.926  0.4293  1.0923 -0.2816
  671MOL0     O92484   1.936   1.676   3.907  0.5866  0.1986  0.6984
  671MOL0     C92485   1.919   1.792   3.831 -0.5658 -1.4459 -0.2306
  671MOL0     C92486   2.017   1.874   3.764 -0.3461  0.6018  0.2580
  671MOL0     C92487   1.988   1.994   3.692  0.1281  0.1357  0.2751
  671MOL0     C92488   2.097   2.062   3.612 -0.7510  1.2366 -0.0567
  671MOL0     C92489   1.847   2.035   3.684 -0.3949  0.0513  0.2428
  671MOL0     C92490   1.801   2.165   3.630  0.5787 -0.2696 -0.0523
  671MOL0     O92491   1.687   2.204   3.665  1.0453 -0.4310  0.2635
  671MOL0     C92492   1.635   2.326   3.629 -0.6592 -0.5890 -0.8395
  671MOL0     C92493   1.557   2.352   3.508  0.0387 -0.1716 -1.0401
  671MOL0     C92494   1.527   2.480   3.459 -0.9183  0.4398  0.5026
  671MOL0     C92495   1.553   2.595   3.538  0.4989  0.1411 -0.3548
  671MOL0     O92496   1.502   2.720   3.515 -1.1175 -0.0534  0.1679
  671MOL0     C92497   1.406   2.740   3.407 -0.6629 -0.0115  0.2747
  671MOL0     C92498   1.460   2.788   3.273  0.8907  0.1590 -0.0037
  671MOL0     C92499   1.360   2.761   3.163  0.6865 -0.6687 -1.0870
  671MOL0     C92500   1.437   2.773   3.029  0.8567  0.6116 -0.0894
  671MOL0     C92501   1.340   2.746   2.908  0.5135 -0.6464  0.0545
  671MOL0     C92502   1.404   2.722   2.771  0.4506 -0.8105  0.4239
  671MOL0     C92503   1.308   2.701   2.663  0.8082  0.1770  0.3484
  671MOL0     C92504   1.359   2.721   2.516 -1.3531  0.4104 -0.7520
  671MOL0    Cl92505   1.528   2.655   2.495 -0.0724  0.5798 -0.2029
  671MOL0     C92506   1.629   2.578   3.651  0.0454 -0.1255 -1.1921
  671MOL0     C92507   1.666   2.451   3.700  0.1507 -0.6365  1.5579
  671MOL0     O92508   1.880   2.232   3.565 -0.3031  0.3918  0.0182
  671MOL0     C92509   1.757   1.956   3.759 -0.7186  0.1682 -0.2378
  671MOL0     C92510   1.790   1.839   3.833  0.1740  0.2511 -0.0573
  671MOL0     N92511   2.180   1.677   4.478 -0.0795 -0.2595  0.1530
  671MOL0     N92512   2.152   1.642   4.600 -0.0003 -0.3777 -0.3376
  671MOL0     C92513   1.257   1.258   4.953 -0.2248  0.3868  0.0225
  671MOL0     C92514   1.121   1.267   4.941  0.2291  0.1738  0.8930
  671MOL0     C92515   0.692   1.174   5.053 -0.7197  0.2503  0.7671
  671MOL0     C92516   0.612   1.074   5.102 -0.0094  0.0796  0.3179
  671MOL0     C92517   0.473   1.089   5.119  0.6505 -0.5773 -0.4860
  671MOL0     C92518   0.409   1.210   5.074  0.7388 -0.2627  0.2791
  671MOL0     O92519   0.274   1.243   5.084 -1.0319 -0.0815  0.5114
  671MOL0     C92520   0.180   1.149   5.141 -0.3412 -0.5674 -0.1074
  671MOL0     C92521   0.042   1.210   5.145 -0.1544  0.5902  0.5163
  671MOL0     C92522  -0.059   1.112   5.216  1.0180 -0.4472 -0.0338
  671MOL0     C92523  -0.177   1.197   5.260  0.0249  0.6035  0.4256
  671MOL0     C92524  -0.297   1.119   5.309  0.1854  1.1326  0.5906
  671MOL0     C92525  -0.389   1.042   5.332  0.9025  0.1847  0.1034
  671MOL0     C92526   0.498   1.307   5.028  0.5454  0.9024 -0.1448
  671MOL0     C92527   0.633   1.296   5.022  0.7764  1.0405 -0.2170
  671MOL0     C92528   0.706   1.422   4.994  0.2052  0.1934 -0.3051
  671MOL0     H92529   1.031   0.952   4.956  0.4425 -2.3032  0.5547
  671MOL0     H92530   1.303   0.929   4.968  0.5056  0.1984  0.4759
  671MOL0     H92531   1.470   1.255   5.133  0.1907  0.8220  0.0460
  671MOL0     H92532   1.558   1.307   4.986  0.6378 -0.9919 -1.8518
  671MOL0     H92533   1.675   1.231   5.194  3.8398 -1.6960  0.6767
  671MOL0     H92534   1.629   1.063   5.144 -2.4395  1.0039  0.0236
  671MOL0     H92535   1.857   1.114   5.087  3.3658 -0.5901 -3.8572
  671MOL0     H92536   1.759   1.073   4.950  1.3395  0.2641  0.4542
  671MOL0     H92537   1.741   1.324   4.901  0.9090 -0.8176 -0.8591
  671MOL0     H92538   1.821   1.363   5.049  5.2975 -1.5423  1.7816
  671MOL0     H92539   1.941   1.243   4.805 -1.4895 -0.0040  0.5961
  671MOL0     H92540   2.025   1.255   4.964 -1.1495  2.9368  2.3944
  671MOL0     H92541   1.986   1.494   4.972  1.5794 -5.0272  2.9452
  671MOL0     H92542   2.102   1.444   4.842 -0.4855  1.0124 -1.5194
  671MOL0     H92543   1.810   1.512   4.808 -0.1334 -0.3512 -1.6292
  671MOL0     H92544   1.917   1.462   4.668  0.1107 -1.3483  0.8720
  671MOL0     H92545   1.870   1.711   4.768 -0.8534 -1.4872  3.7094
  671MOL0     H92546   2.031   1.675   4.839  1.8214 -0.2578 -1.7443
  671MOL0     H92547   1.876   1.807   4.506 -0.1756  0.1840 -0.3953
  671MOL0     H92548   2.187   1.835   4.259  0.0026 -0.2098  0.9440
  671MOL0     H92549   2.024   1.881   4.259 -1.7804 -1.5335 -1.2214
  671MOL0     H92550   2.114   1.593   4.215  0.4090 -0.0773  0.1135
  671MOL0     H92551   1.963   1.678   4.170 -0.5140  0.2417  2.9053
  671MOL0     H92552   2.122   1.827   4.011 -2.4837  0.2729  1.9988
  671MOL0     H92553   2.246   1.695   4.030 -0.9524 -1.0029 -0.6344
  671MOL0     H92554   2.123   1.652   3.831  0.1418 -1.3401 -0.8491
  671MOL0     H92555   2.057   1.534   3.954 -1.6159  0.5100 -3.0263
  671MOL0     H92556   2.118   1.839   3.747 -1.6605 -2.4145 -2.4053
  671MOL0     H92557   2.113   2.167   3.638  0.9153  1.8027 -2.8759
  671MOL0     H92558   2.075   2.064   3.505 -0.1742  3.8113 -0.2039
  671MOL0     H92559   2.188   2.001   3.617 -1.9663 -0.5476  1.2158
  671MOL0     H92560   1.518   2.276   3.440 -0.6417 -0.7642 -0.0204
  671MOL0     H92561   1.466   2.499   3.371 -1.6362 -4.5124 -0.3739
  671MOL0     H92562   1.331   2.664   3.384  0.4595 -0.7249 -1.2127
  671MOL0     H92563   1.345   2.825   3.438  0.9285  1.0677  0.6035
  671MOL0     H92564   1.491   2.893   3.279  0.5216  0.3095 -0.6767
  671MOL0     H92565   1.552   2.731   3.258 -0.1987 -2.4295  2.2660
  671MOL0     H92566   1.273   2.827   3.174 -0.2100 -1.8038 -1.2893
  671MOL0     H92567   1.325   2.659   3.178  2.1486 -1.2948 -1.7211
  671MOL0     H92568   1.526   2.710   3.037  0.8783  0.7336  0.8319
  671MOL0     H92569   1.470   2.877   3.022 -0.2683  1.4378  4.1247
  671MOL0     H92570   1.289   2.651   2.928 -1.5337 -0.2656 -2.7119
  671MOL0     H92571   1.269   2.828   2.895 -0.1015 -1.2517 -0.5141
  671MOL0     H92572   1.465   2.631   2.778  0.1690 -1.0609 -0.3008
  671MOL0     H92573   1.462   2.814   2.758  0.6562 -1.1308 -1.1906
  671MOL0     H92574   1.227   2.774   2.667  1.0934  0.4518  1.3613
  671MOL0     H92575   1.269   2.599   2.667 -0.5738  0.5100 -2.6135
  671MOL0     H92576   1.365   2.827   2.486 -2.3961  1.2242  1.6995
  671MOL0     H92577   1.296   2.674   2.439  1.6616 -2.7972 -1.4945
  671MOL0     H92578   1.658   2.664   3.711  2.4161 -2.2724  0.9706
  671MOL0     H92579   1.728   2.446   3.789 -0.0270 -1.6357  1.6321
  671MOL0     H92580   1.650   1.975   3.760 -0.8215 -0.3165 -1.0754
  671MOL0     H92581   1.721   1.780   3.892 -1.4072  3.6433  1.7623
  671MOL0     H92582   1.306   1.354   4.969  0.7348  0.0259 -0.6666
  671MOL0     H92583   1.061   1.358   4.942 -0.2240 -0.0940 -0.1681
  671MOL0     H92584   0.654   0.983   5.142 -2.9527 -2.9019 -2.6944
  671MOL0     H92585   0.423   1.012   5.178  0.4304 -1.5086 -1.8370
  671MOL0     H92586   0.178   1.065   5.072  3.2306 -2.0699  1.3925
  671MOL0     H92587   0.193   1.118   5.245 -1.7830 -1.1770 -0.0867
  671MOL0     H92588   0.004   1.222   5.043 -2.7052 -1.1424  1.1865
  671MOL0     H92589   0.061   1.298   5.208  2.2382 -1.1123  2.3734
  671MOL0     H92590  -0.098   1.034   5.150 -2.4463  1.9507 -1.1136
  671MOL0     H92591  -0.014   1.070   5.306 -0.3027  1.6719  1.7001
  671MOL0     H92592  -0.209   1.251   5.170 -0.4643  0.9646  0.8108
  671MOL0     H92593  -0.155   1.275   5.333 -2.8734  0.6890  1.3220
  671MOL0     H92594  -0.463   0.965   5.344  1.8829 -0.6725  0.8795
  671MOL0     H92595   0.460   1.406   5.005  0.0674  1.5368  2.9951
  671MOL0     H92596   0.648   1.514   5.011 -1.7754 -1.3810  2.2078
  671MOL0     H92597   0.808   1.421   5.035 -0.3779  2.7990  1.5170
  671MOL0     H92598   0.720   1.424   4.886  1.8699 -1.7255 -0.1835
  672MOL0     O92599   0.472   6.337  11.503 -0.6244  0.8727 -0.2065
  672MOL0     C92600   0.595   6.332  11.530  0.1269  0.9693 -0.1952
  672MOL0     O92601   0.678   6.246  11.476  0.1190 -0.1586  1.1590
  672MOL0     C92602   0.622   6.141  11.402  0.2603  0.3464  0.0260
  672MOL0     C92603   0.584   6.020  11.475 -0.0790  0.0114 -0.1867
  672MOL0     C92604   0.516   5.911  11.410  0.6993 -0.4684 -0.4348
  672MOL0     C92605   0.478   5.928  11.281 -1.0895  0.3420  0.5930
  672MOL0     O92606   0.419   5.824  11.214  0.2795 -0.0353  0.1905
  672MOL0     C92607   0.290   5.865  11.177  0.4682 -0.0551 -0.1388
  672MOL0     C92608   0.220   5.745  11.100 -0.9986  0.3348  0.1745
  672MOL0     C92609   0.140   5.646  11.196 -0.0361 -0.9720 -0.3356
  672MOL0     C92610   0.120   5.514  11.130  0.6285  0.0662  0.2995
  672MOL0     C92611   0.037   5.410  11.225  0.6433 -0.3398  0.0461
  672MOL0     C92612   0.104   5.400  11.363  0.4310  0.1241 -0.6080
  672MOL0     C92613   0.058   5.285  11.461  0.2754 -0.1626  0.0182
  672MOL0     C92614   0.048   5.148  11.412 -1.0228 -0.0869 -0.0036
  672MOL0     N92615   0.038   5.047  11.516  0.9049  0.3278  0.1692
  672MOL0     C92616   0.109   4.932  11.507 -0.5672  0.1203 -0.3919
  672MOL0     C92617   0.089   4.861  11.619 -0.8642  0.4856 -1.3001
  672MOL0     C92618   0.165   4.730  11.669  0.7161  0.0210  0.2115
  672MOL0     C92619   0.071   4.627  11.738 -0.1032  0.4617 -0.8669
  672MOL0     C92620   0.116   4.484  11.756 -0.3278 -0.2427 -0.3005
  672MOL0     C92621   0.242   4.475  11.839  0.3231  0.6240 -0.2481
  672MOL0     O92622   0.285   4.333  11.818 -0.4835 -0.6729  0.0462
  672MOL0     C92623   0.264   4.242  11.925  0.1593 -0.9801  0.8026
  672MOL0     C92624   0.258   4.269  12.065  0.1439  0.5947  0.1907
  672MOL0     C92625   0.234   4.153  12.153  0.0650 -0.9308  0.6603
  672MOL0     C92626   0.252   4.183  12.302 -0.0005 -0.0376  0.8614
  672MOL0     C92627   0.220   4.016  12.098  0.1467 -0.0321 -0.4559
  672MOL0     C92628   0.222   3.888  12.175  0.0597  0.8232 -0.7039
  672MOL0     O92629   0.283   3.777  12.114 -0.2249  0.2305  0.3050
  672MOL0     C92630   0.277   3.655  12.164 -0.7470  0.4889 -0.1592
  672MOL0     C92631   0.373   3.559  12.125 -0.1790  0.5476 -0.1835
  672MOL0     C92632   0.383   3.430  12.181 -0.2840  0.4717  0.0457
  672MOL0     C92633   0.289   3.378  12.271  0.2808 -0.0093  0.8714
  672MOL0     O92634   0.313   3.244  12.321 -0.4926  0.2741 -0.1284
  672MOL0     C92635   0.205   3.188  12.404  0.4537  0.1353  0.7098
  672MOL0     C92636   0.244   3.196  12.558  0.8367 -0.8945 -0.3800
  672MOL0     C92637   0.129   3.180  12.656  0.2652  0.8967 -0.5581
  672MOL0     C92638   0.181   3.186  12.807  0.4831 -0.9702 -0.0929
  672MOL0     C92639   0.080   3.132  12.903  0.6259 -0.8461  0.6549
  672MOL0     C92640   0.112   2.992  12.952  1.0055 -0.6444 -0.6290
  672MOL0     C92641   0.026   2.952  13.078 -0.3240  0.2652  0.4673
  672MOL0     C92642   0.056   2.809  13.138 -0.6764  0.8969 -0.3387
  672MOL0    Cl92643   0.004   2.662  13.031 -0.3424 -0.0892 -0.4484
  672MOL0     C92644   0.178   3.467  12.291 -0.6219 -0.8084 -1.0468
  672MOL0     C92645   0.185   3.601  12.251 -0.1658 -0.6693 -0.4475
  672MOL0     O92646   0.166   3.890  12.280  0.7728 -0.2034  0.5464
  672MOL0     C92647   0.226   4.007  11.959 -0.6266 -0.6862  0.2138
  672MOL0     C92648   0.245   4.117  11.877  0.0388  0.9097  0.0784
  672MOL0     N92649  -0.006   4.926  11.694  0.1904 -0.3426  0.1109
  672MOL0     N92650  -0.036   5.040  11.625  0.5535 -0.3331  0.2261
  672MOL0     C92651   0.528   6.034  11.203 -0.0039  0.6218 -0.0011
  672MOL0     C92652   0.600   6.135  11.263  0.0668 -0.7434 -0.0653
  672MOL0     C92653   0.663   6.428  11.607  0.1776 -0.3608  0.1079
  672MOL0     C92654   0.771   6.492  11.547 -0.2771 -0.0045  0.9004
  672MOL0     C92655   0.851   6.587  11.619 -0.3361  0.3095 -0.0834
  672MOL0     C92656   0.803   6.644  11.736  0.0746  0.4842 -0.3757
  672MOL0     O92657   0.875   6.747  11.788  0.3747 -0.6416  0.4018
  672MOL0     C92658   0.837   6.818  11.905  0.5402  0.0875 -0.6964
  672MOL0     C92659   0.940   6.929  11.915  0.9325 -0.1884 -1.0343
  672MOL0     C92660   0.935   7.048  11.802  0.5758  1.2247 -0.3188
  672MOL0     C92661   0.815   7.143  11.822 -0.5426 -0.0257  0.2254
  672MOL0     C92662   0.847   7.260  11.731 -0.3821  0.8086  0.5542
  672MOL0     C92663   0.851   7.351  11.659 -0.2660 -0.7899 -0.2385
  672MOL0     C92664   0.685   6.592  11.790  0.1423  0.7058 -0.1610
  672MOL0     C92665   0.616   6.486  11.728 -0.2867 -0.0735  0.1981
  672MOL0     C92666   0.491   6.437  11.792  0.3554  1.1696  0.9215
  672MOL0     H92667   0.603   6.017  11.582  2.5067  0.4406 -0.5852
  672MOL0     H92668   0.508   5.815  11.460  0.7632 -0.6784 -0.8229
  672MOL0     H92669   0.294   5.950  11.109 -0.6632  1.6709  1.8360
  672MOL0     H92670   0.233   5.893  11.266  1.1706  1.7716 -0.2135
  672MOL0     H92671   0.149   5.774  11.022 -1.4374 -3.5351 -1.0719
  672MOL0     H92672   0.296   5.695  11.040 -0.2957  2.9628 -1.3000
  672MOL0     H92673   0.207   5.630  11.281  0.9260  0.0697 -0.8714
  672MOL0     H92674   0.049   5.689  11.238  0.4448 -1.7884  1.6501
  672MOL0     H92675   0.067   5.528  11.036 -1.3992  0.4128  1.4443
  672MOL0     H92676   0.216   5.468  11.104  1.9925  2.3356  0.9925
  672MOL0     H92677   0.054   5.313  11.178  0.7979 -1.9202  3.1104
  672MOL0     H92678  -0.071   5.430  11.225  0.3417 -0.8629 -4.3538
  672MOL0     H92679   0.213   5.395  11.348  0.6270  0.9996  0.4305
  672MOL0     H92680   0.094   5.499  11.408  0.4035 -0.8116  1.5607
  672MOL0     H92681  -0.039   5.316  11.501  0.3125  1.7807 -1.2746
  672MOL0     H92682   0.137   5.287  11.538  0.4789  1.5714 -0.2031
  672MOL0     H92683  -0.041   5.156  11.348  1.3644  2.8173 -3.3361
  672MOL0     H92684   0.127   5.135  11.338 -0.7445  2.1181 -0.1427
  672MOL0     H92685   0.189   4.910  11.437 -1.1180 -3.7249 -0.0112
  672MOL0     H92686   0.245   4.759  11.738  0.7364 -2.5722  1.3705
  672MOL0     H92687   0.200   4.683  11.577 -1.6101 -1.6481  0.0983
  672MOL0     H92688   0.030   4.661  11.833  0.5113  0.6745 -0.6712
  672MOL0     H92689  -0.018   4.610  11.677 -0.7975 -1.7397  0.6338
  672MOL0     H92690   0.034   4.422  11.794  1.9785 -3.4099  0.0069
  672MOL0     H92691   0.140   4.435  11.661  3.8998 -0.1016  0.5048
  672MOL0     H92692   0.319   4.544  11.803  1.6836 -1.2879 -1.1348
  672MOL0     H92693   0.216   4.498  11.943  0.9787 -2.6532  0.7582
  672MOL0     H92694   0.269   4.371  12.100 -1.3974  1.1692 -0.8767
  672MOL0     H92695   0.347   4.232  12.322  0.8887  0.3490 -3.4130
  672MOL0     H92696   0.243   4.096  12.368  1.2904  0.0488  1.1630
  672MOL0     H92697   0.187   4.266  12.332  0.0418  0.6605 -0.8719
  672MOL0     H92698   0.462   3.582  12.067  0.7373 -0.8707  0.6019
  672MOL0     H92699   0.471   3.370  12.161  0.9016  1.5031  1.7388
  672MOL0     H92700   0.112   3.240  12.378  0.4543  0.7423  1.8374
  672MOL0     H92701   0.198   3.086  12.366  0.8264  0.5421 -0.5067
  672MOL0     H92702   0.321   3.124  12.586  1.1319 -0.8865 -1.1372
  672MOL0     H92703   0.273   3.301  12.566 -1.1931 -0.2252 -1.0646
  672MOL0     H92704   0.080   3.084  12.637 -0.1013  1.4064 -2.3678
  672MOL0     H92705   0.052   3.257  12.647 -0.5689  0.3571  1.3199
  672MOL0     H92706   0.198   3.293  12.822  0.6207 -1.0029 -0.0086
  672MOL0     H92707   0.281   3.143  12.823  0.8938  0.1956  0.5712
  672MOL0     H92708   0.075   3.200  12.989 -2.3596 -2.6770  2.0950
  672MOL0     H92709  -0.017   3.132  12.853  0.9712 -2.5602 -0.0629
  672MOL0     H92710   0.216   2.976  12.980  0.3684 -2.8915  0.7071
  672MOL0     H92711   0.091   2.919  12.874 -0.5056 -0.7075 -0.1933
  672MOL0     H92712  -0.079   2.938  13.052 -0.3010 -2.0477  1.3753
  672MOL0     H92713   0.036   3.016  13.166  1.1053 -0.5751  0.9504
  672MOL0     H92714  -0.015   2.805  13.221 -1.6988  2.4141 -1.0773
  672MOL0     H92715   0.163   2.802  13.162 -0.0242  2.9283 -2.2160
  672MOL0     H92716   0.114   3.428  12.369 -0.8579 -0.1630 -0.9133
  672MOL0     H92717   0.095   3.655  12.275  0.6469 -0.5781  3.0789
  672MOL0     H92718   0.236   3.910  11.911  1.1574 -0.3495 -0.1649
  672MOL0     H92719   0.230   4.101  11.771 -2.9804 -0.6330  0.6358
  672MOL0     H92720   0.503   6.045  11.098 -1.4736 -1.4286  0.0755
  672MOL0     H92721   0.641   6.218  11.207  1.0495 -0.4716  1.0257
  672MOL0     H92722   0.812   6.471  11.448 -1.7556  2.1262 -0.2390
  672MOL0     H92723   0.943   6.633  11.587 -0.6245  1.5081  0.7209
  672MOL0     H92724   0.737   6.861  11.901  1.4115  2.4221  0.3849
  672MOL0     H92725   0.841   6.747  11.988  2.1790 -1.2311 -1.8307
  672MOL0     H92726   1.038   6.883  11.902  2.8633  3.4422 -0.8147
  672MOL0     H92727   0.945   6.977  12.013 -3.9647  0.0194 -0.6264
  672MOL0     H92728   1.028   7.102  11.819  0.0990  2.2123 -0.7954
  672MOL0     H92729   0.938   7.011  11.699 -2.4455  2.7626 -1.0665
  672MOL0     H92730   0.804   7.181  11.923  2.8091 -0.5469  0.8965
  672MOL0     H92731   0.722   7.093  11.793 -0.0138 -0.7266 -0.3039
  672MOL0     H92732   0.852   7.451  11.619 -2.5368 -0.3071  0.7777
  672MOL0     H92733   0.653   6.645  11.878 -2.6587 -0.7868 -0.1374
  672MOL0     H92734   0.482   6.483  11.891 -1.7531 -0.7006  1.6629
  672MOL0     H92735   0.405   6.461  11.729  0.6867  0.5138  0.2021
  672MOL0     H92736   0.500   6.329  11.800  2.1436  1.1607 -0.4631
  673MOL0     O92737   7.190  10.872   3.944  0.0242 -0.4335  0.0270
  673MOL0     C92738   7.261  10.771   3.913  0.7093  0.0137  1.5406
  673MOL0     O92739   7.371  10.770   3.834  0.1494 -0.1217 -0.8461
  673MOL0     C92740   7.421  10.891   3.782 -0.5186  1.3304 -0.5463
  673MOL0     C92741   7.543  10.921   3.822  0.6355 -0.3732 -0.3997
  673MOL0     C92742   7.604  11.036   3.789  0.1435  0.3866  0.9762
  673MOL0     C92743   7.545  11.117   3.700 -0.1360  0.5326  0.4876
  673MOL0     O92744   7.609  11.231   3.660  0.1546  0.3207  0.3244
  673MOL0     C92745   7.748  11.242   3.639 -0.1061  0.0388  0.5480
  673MOL0     C92746   7.773  11.368   3.554 -0.2831  0.9251  0.1489
  673MOL0     C92747   7.719  11.351   3.410  0.1104  0.4927 -0.0926
  673MOL0     C92748   7.800  11.456   3.323 -0.5946 -0.0164  0.6268
  673MOL0     C92749   7.766  11.470   3.171  0.9085 -1.0643 -0.5295
  673MOL0     C92750   7.627  11.553   3.151 -0.0621  1.0177 -0.2784
  673MOL0     C92751   7.584  11.548   2.999  0.1887 -0.5319  0.0620
  673MOL0     C92752   7.688  11.600   2.899  0.3384  0.2088 -0.2757
  673MOL0     N92753   7.611  11.625   2.774  0.3758 -0.2570 -0.1697
  673MOL0     C92754   7.556  11.747   2.748  0.0782 -0.5001  0.8184
  673MOL0     C92755   7.491  11.740   2.626 -0.4901  0.0550 -0.1873
  673MOL0     C92756   7.439  11.851   2.539 -0.6168  0.7925  0.2873
  673MOL0     C92757   7.508  11.874   2.414 -0.1656  0.4817 -0.3630
  673MOL0     C92758   7.662  11.873   2.431 -1.2856 -0.2378 -0.0978
  673MOL0     C92759   7.744  11.928   2.314  0.0602 -0.6244  0.9176
  673MOL0     O92760   7.714  12.066   2.295  0.6451 -0.7395  0.3507
  673MOL0     C92761   7.668  12.095   2.168  0.1904  0.0479  0.5987
  673MOL0     C92762   7.531  12.111   2.146 -0.2399 -0.4132 -0.9636
  673MOL0     C92763   7.477  12.134   2.019 -0.3667 -1.2028  0.1838
  673MOL0     C92764   7.331  12.171   2.017 -0.1988 -0.3057 -0.3443
  673MOL0     C92765   7.571  12.137   1.913  0.7987 -0.8496  0.0409
  673MOL0     C92766   7.517  12.146   1.770 -0.8482  0.7583 -0.1643
  673MOL0     O92767   7.604  12.118   1.674 -0.0832  0.1003 -0.4700
  673MOL0     C92768   7.568  12.173   1.554  0.8589  0.0826  0.6220
  673MOL0     C92769   7.620  12.294   1.507  0.3618  1.2142  0.4277
  673MOL0     C92770   7.579  12.339   1.382  0.0835 -0.2946 -0.6755
  673MOL0     C92771   7.528  12.253   1.292  0.1599  0.1611 -0.2623
  673MOL0     O92772   7.515  12.291   1.163  0.1100 -0.3016 -0.2429
  673MOL0     C92773   7.553  12.205   1.054 -0.2996  0.0308 -0.5721
  673MOL0     C92774   7.438  12.172   0.962 -0.4235 -0.1779 -0.5026
  673MOL0     C92775   7.398  12.306   0.901  0.3627 -0.3404 -0.1058
  673MOL0     C92776   7.272  12.291   0.805  0.7556  1.7425  1.2340
  673MOL0     C92777   7.198  12.420   0.771 -0.0178  0.1246 -0.7817
  673MOL0     C92778   7.278  12.520   0.675  0.8665  1.1877 -0.1873
  673MOL0     C92779   7.204  12.642   0.642 -0.0178  0.4223 -1.0893
  673MOL0     C92780   7.228  12.718   0.516  0.1546 -0.3165  1.2425
  673MOL0    Cl92781   7.195  12.605   0.380 -0.3707 -0.0733  0.1510
  673MOL0     C92782   7.489  12.122   1.327 -0.5456 -0.0727 -1.0797
  673MOL0     C92783   7.513  12.079   1.465 -0.1269  0.7100  0.2620
  673MOL0     O92784   7.404  12.171   1.746 -0.4009  0.4810 -0.4195
  673MOL0     C92785   7.711  12.112   1.934  0.3382  1.0073 -0.2091
  673MOL0     C92786   7.752  12.083   2.062  0.0234  0.0380  0.4238
  673MOL0     N92787   7.511  11.607   2.582 -0.0756 -0.2216  0.5110
  673MOL0     N92788   7.577  11.548   2.668 -0.2800 -0.2506  0.2649
  673MOL0     C92789   7.423  11.087   3.637  0.5809  1.0514  0.5362
  673MOL0     C92790   7.356  10.968   3.683 -0.3320 -0.4556 -0.3226
  673MOL0     C92791   7.227  10.649   3.976 -0.0664  1.0843  0.6217
  673MOL0     C92792   7.250  10.634   4.116 -0.5592  0.0913  0.5263
  673MOL0     C92793   7.233  10.506   4.182  0.3057 -0.5789  0.3484
  673MOL0     C92794   7.189  10.399   4.102 -0.2731 -0.4672 -0.3521
  673MOL0     O92795   7.156  10.286   4.173 -0.1705 -0.8851  0.8196
  673MOL0     C92796   7.248  10.177   4.165 -0.1644 -0.1931 -0.2990
  673MOL0     C92797   7.372  10.213   4.253  0.8064 -0.2178 -0.0538
  673MOL0     C92798   7.484  10.106   4.267  0.5361 -0.8133  0.5839
  673MOL0     C92799   7.631  10.151   4.307  0.1191 -0.1025  0.3841
  673MOL0     C92800   7.658  10.150   4.452  0.7078 -0.0255  0.7790
  673MOL0     C92801   7.673  10.145   4.570  0.6355  0.8668 -0.5272
  673MOL0     C92802   7.172  10.417   3.963 -0.8951  0.5083  0.2895
  673MOL0     C92803   7.201  10.537   3.897 -0.3710  0.4152  0.1711
  673MOL0     C92804   7.193  10.534   3.745  0.8534 -0.4846 -0.6306
  673MOL0     H92805   7.592  10.853   3.892 -2.2927 -3.9863 -1.5481
  673MOL0     H92806   7.704  11.061   3.822  0.3463  0.9257  0.0189
  673MOL0     H92807   7.795  11.150   3.601  0.9043 -0.5814  3.1163
  673MOL0     H92808   7.807  11.266   3.728  0.3073 -1.2801  0.6414
  673MOL0     H92809   7.733  11.460   3.598  1.8483  2.3285 -0.6721
  673MOL0     H92810   7.882  11.384   3.549 -0.3613  1.2373 -0.7243
  673MOL0     H92811   7.748  11.252   3.374 -0.9835 -0.0570  0.4589
  673MOL0     H92812   7.612  11.375   3.403 -0.3274 -1.2769  0.1030
  673MOL0     H92813   7.804  11.556   3.368  1.3698  0.9979 -1.5576
  673MOL0     H92814   7.900  11.413   3.335 -1.4241 -2.5094 -0.8033
  673MOL0     H92815   7.756  11.369   3.130  1.6042 -1.0639 -0.7040
  673MOL0     H92816   7.843  11.529   3.120  0.1508  0.4121 -0.0443
  673MOL0     H92817   7.551  11.501   3.211  0.2566  1.5829  0.6303
  673MOL0     H92818   7.627  11.656   3.188 -0.6653  0.3327  1.7673
  673MOL0     H92819   7.488  11.593   2.974  1.2752  1.8513 -0.0629
  673MOL0     H92820   7.565  11.442   2.977 -2.2200 -0.6589  2.2236
  673MOL0     H92821   7.736  11.689   2.940  0.2022 -0.2411  0.9006
  673MOL0     H92822   7.767  11.524   2.892 -0.9144 -1.2039  0.3592
  673MOL0     H92823   7.564  11.840   2.803  0.3892  1.1274 -1.8276
  673MOL0     H92824   7.428  11.945   2.594 -2.0409  1.9093 -1.7766
  673MOL0     H92825   7.340  11.823   2.502  0.3664 -0.3338 -1.6898
  673MOL0     H92826   7.478  11.787   2.354  4.0791 -1.2972 -0.2390
  673MOL0     H92827   7.468  11.963   2.364 -1.3564 -0.4158 -1.0721
  673MOL0     H92828   7.678  11.951   2.507 -2.1621  2.0890 -2.1582
  673MOL0     H92829   7.703  11.776   2.460  1.2912  1.6073  3.1995
  673MOL0     H92830   7.850  11.929   2.340  0.2356  1.0312  0.2537
  673MOL0     H92831   7.727  11.869   2.224  1.2318 -0.0187  0.2782
  673MOL0     H92832   7.471  12.137   2.233  0.5025  1.1820 -0.8960
  673MOL0     H92833   7.294  12.177   2.119 -1.3330 -2.2068 -0.5878
  673MOL0     H92834   7.275  12.087   1.974 -0.8598 -0.1460  0.1798
  673MOL0     H92835   7.306  12.270   1.979 -0.0797 -0.1200  0.0605
  673MOL0     H92836   7.677  12.352   1.579  2.2932 -0.6718  0.5344
  673MOL0     H92837   7.602  12.441   1.351  0.2848 -0.5674 -1.4249
  673MOL0     H92838   7.633  12.265   1.010  1.4726  1.4780  4.0332
  673MOL0     H92839   7.588  12.108   1.091 -3.1772 -0.4459  1.2518
  673MOL0     H92840   7.471  12.107   0.880  1.8830  1.5947 -1.1069
  673MOL0     H92841   7.360  12.118   1.017 -0.4472 -0.1914 -0.5493
  673MOL0     H92842   7.483  12.353   0.850  0.7962 -2.1042 -1.0829
  673MOL0     H92843   7.366  12.372   0.982 -0.0026  0.7117 -1.0757
  673MOL0     H92844   7.208  12.217   0.853  0.1919  1.2863 -0.1795
  673MOL0     H92845   7.310  12.254   0.709 -0.3254  3.1686  0.2171
  673MOL0     H92846   7.109  12.381   0.720 -0.3579 -1.2793  0.8050
  673MOL0     H92847   7.163  12.457   0.867  3.4569 -1.3586  1.2582
  673MOL0     H92848   7.317  12.470   0.587  4.2824  2.1952  0.6032
  673MOL0     H92849   7.372  12.553   0.721  1.0607  1.9322 -1.0754
  673MOL0     H92850   7.217  12.716   0.722 -0.7243  1.1634 -1.6451
  673MOL0     H92851   7.098  12.616   0.633  0.0116  0.0471 -0.4196
  673MOL0     H92852   7.333  12.750   0.521 -0.8691  4.0801 -0.9926
  673MOL0     H92853   7.175  12.813   0.506  6.0000  3.3812  0.3718
  673MOL0     H92854   7.449  12.050   1.256  1.1911  0.0028 -2.1827
  673MOL0     H92855   7.496  11.974   1.486  1.2096  0.0199 -1.8569
  673MOL0     H92856   7.783  12.103   1.853  0.3452 -0.4616 -0.0659
  673MOL0     H92857   7.854  12.063   2.095 -0.1710 -1.2481  0.3179
  673MOL0     H92858   7.375  11.135   3.553  2.5343 -0.6725 -1.6863
  673MOL0     H92859   7.259  10.935   3.648 -0.7257 -1.6815  1.7783
  673MOL0     H92860   7.277  10.721   4.175  1.3706 -0.3884  0.4239
  673MOL0     H92861   7.259  10.480   4.284 -1.2259 -4.4157 -0.0524
  673MOL0     H92862   7.199  10.084   4.196 -0.9004 -0.4245 -2.0567
  673MOL0     H92863   7.269  10.167   4.059  3.2279  1.1066  0.1207
  673MOL0     H92864   7.332  10.249   4.347 -1.2231  2.3873 -1.7739
  673MOL0     H92865   7.419  10.302   4.210 -0.0590 -0.0137 -0.6001
  673MOL0     H92866   7.435  10.027   4.324 -1.4980 -1.5096 -1.9380
  673MOL0     H92867   7.498  10.059   4.169 -1.7252 -3.7644  1.5175
  673MOL0     H92868   7.675  10.238   4.259  2.6065 -1.1205  0.6605
  673MOL0     H92869   7.694  10.074   4.261 -1.3954 -1.3411  0.2893
  673MOL0     H92870   7.699  10.128   4.673  0.3611  1.2752 -0.3903
  673MOL0     H92871   7.116  10.335   3.919  0.5717 -2.8273  4.0054
  673MOL0     H92872   7.103  10.480   3.717 -1.2459  1.9581  0.9673
  673MOL0     H92873   7.183  10.634   3.700 -0.7960  0.4697  1.6598
  673MOL0     H92874   7.280  10.485   3.702  1.5779  2.6546 -3.1177
  674MOL0     O92875   7.892   9.077   1.894  0.2342 -0.6077  0.1277
  674MOL0     C92876   7.805   9.069   1.985  0.7961 -0.3186 -0.5469
  674MOL0     O92877   7.732   8.961   2.002  0.4150  0.4494  0.2079
  674MOL0     C92878   7.747   8.842   1.927  0.0874  0.1424 -0.2593
  674MOL0     C92879   7.870   8.788   1.872  0.3163  0.6560  0.0301
  674MOL0     C92880   7.873   8.664   1.813 -0.3151  0.3904 -0.0351
  674MOL0     C92881   7.761   8.576   1.813 -0.6258 -0.5060 -0.3317
  674MOL0     O92882   7.782   8.455   1.752 -0.3361 -0.0173  0.0903
  674MOL0     C92883   7.676   8.414   1.668 -0.2343  1.4926 -0.0336
  674MOL0     C92884   7.668   8.488   1.527 -0.4601  0.3169 -0.3519
  674MOL0     C92885   7.795   8.464   1.442 -0.6094  0.1284 -0.4040
  674MOL0     C92886   7.764   8.498   1.296  0.5010  0.0741  0.6345
  674MOL0     C92887   7.685   8.396   1.225  0.2865 -0.0836 -0.3972
  674MOL0     C92888   7.685   8.408   1.069 -0.0980  0.7066  0.1628
  674MOL0     C92889   7.644   8.263   1.017  1.0800 -1.2012  0.4985
  674MOL0     C92890   7.487   8.262   1.008 -0.0774  0.1507 -0.4081
  674MOL0     N92891   7.445   8.126   1.013 -0.5173  0.2692 -0.7459
  674MOL0     C92892   7.361   8.067   0.929  0.0062  0.8879 -0.2818
  674MOL0     C92893   7.327   7.948   0.986 -0.5196 -0.0875 -0.5216
  674MOL0     C92894   7.223   7.858   0.932 -0.1202  0.1410 -0.1414
  674MOL0     C92895   7.240   7.703   0.964  1.2327  0.2160  0.2589
  674MOL0     C92896   7.329   7.637   0.859  0.2169 -0.1752  0.2827
  674MOL0     C92897   7.329   7.482   0.867  0.0574 -0.6180  0.8857
  674MOL0     O92898   7.331   7.439   1.004  0.0858  0.0011  0.0554
  674MOL0     C92899   7.259   7.312   1.016  0.1576 -0.4865 -0.7845
  674MOL0     C92900   7.134   7.314   1.072 -0.2486 -0.1746  0.1669
  674MOL0     C92901   7.050   7.194   1.076  0.2314 -0.8158 -0.0235
  674MOL0     C92902   6.910   7.207   1.150 -0.5614 -0.3009 -1.0087
  674MOL0     C92903   7.104   7.067   1.040 -0.2847 -1.3152  0.2509
  674MOL0     C92904   7.057   6.933   1.060  0.1636 -0.3424  0.0153
  674MOL0     O92905   7.160   6.838   1.073 -0.0560 -0.7731 -0.4190
  674MOL0     C92906   7.139   6.704   1.093  0.6740  0.4549 -0.4769
  674MOL0     C92907   7.255   6.629   1.117 -0.3952  0.8213  0.2714
  674MOL0     C92908   7.240   6.488   1.127  0.9280  0.3823  0.6665
  674MOL0     C92909   7.105   6.433   1.120 -0.2171 -0.6590  0.1928
  674MOL0     O92910   7.084   6.299   1.166 -0.7298 -0.1033  0.1397
  674MOL0     C92911   6.957   6.243   1.188  1.0244  0.0330 -1.2905
  674MOL0     C92912   6.960   6.096   1.223 -0.1554 -0.0576  0.6986
  674MOL0     C92913   7.061   6.006   1.157  1.0276 -0.1495 -0.8793
  674MOL0     C92914   7.192   6.009   1.229  0.0504  0.2306  0.3194
  674MOL0     C92915   7.293   5.938   1.153  0.7599  0.3296 -0.6440
  674MOL0     C92916   7.401   5.875   1.240 -0.4447  0.2688  0.3255
  674MOL0     C92917   7.374   5.736   1.297  0.9838 -0.6676  0.0137
  674MOL0     C92918   7.492   5.692   1.382 -0.6307  0.1069 -0.4005
  674MOL0    Cl92919   7.438   5.560   1.488  0.5446  0.1188  0.2501
  674MOL0     C92920   6.993   6.511   1.086  1.1239  1.2189  0.4119
  674MOL0     C92921   7.006   6.644   1.076  0.6618 -0.8799 -0.6968
  674MOL0     O92922   6.933   6.921   1.075 -0.7858  0.1127  0.1992
  674MOL0     C92923   7.240   7.075   1.000  0.5550  0.0509 -0.2630
  674MOL0     C92924   7.315   7.196   0.973  0.5095 -0.5860 -0.1516
  674MOL0     N92925   7.392   7.940   1.107 -0.0306 -0.2244 -0.7743
  674MOL0     N92926   7.457   8.046   1.122  0.2992 -1.1103  0.1590
  674MOL0     C92927   7.642   8.625   1.868  0.1657 -0.1766  0.6857
  674MOL0     C92928   7.636   8.758   1.923 -0.1061 -0.1424  0.0224
  674MOL0     C92929   7.803   9.175   2.090  0.5085  0.1466  0.3533
  674MOL0     C92930   7.902   9.271   2.084 -0.3533 -1.2505  0.9892
  674MOL0     C92931   7.912   9.386   2.166  0.8949  0.3587  0.3119
  674MOL0     C92932   7.814   9.397   2.265 -0.2321 -0.3960  0.2105
  674MOL0     O92933   7.821   9.497   2.352 -0.0343  0.7353 -0.2822
  674MOL0     C92934   7.930   9.487   2.445  1.3782  0.7680 -0.0203
  674MOL0     C92935   7.913   9.610   2.542 -0.5396  0.0392 -0.0388
  674MOL0     C92936   7.782   9.618   2.632  0.0446  0.7744  0.4826
  674MOL0     C92937   7.804   9.684   2.778 -0.4820 -0.2131 -0.4852
  674MOL0     C92938   7.691   9.759   2.833  0.4469  0.3106  0.4642
  674MOL0     C92939   7.593   9.833   2.856  0.3037 -0.0629  0.3638
  674MOL0     C92940   7.712   9.307   2.266  0.7436  0.0354 -0.3227
  674MOL0     C92941   7.697   9.193   2.184 -0.8905 -0.4420  0.9848
  674MOL0     C92942   7.576   9.107   2.197 -0.3211 -0.6917 -0.2769
  674MOL0     H92943   7.955   8.855   1.859  1.0625 -0.5381 -1.5541
  674MOL0     H92944   7.964   8.638   1.760  0.4592 -1.8931  2.1800
  674MOL0     H92945   7.577   8.414   1.714 -1.4365 -0.1375 -2.3986
  674MOL0     H92946   7.698   8.308   1.652  1.4899  1.7328  0.4865
  674MOL0     H92947   7.578   8.450   1.479 -1.9537  0.1054  2.4389
  674MOL0     H92948   7.633   8.590   1.545 -3.3896 -0.9069  1.5510
  674MOL0     H92949   7.880   8.529   1.465 -1.2219  1.6273 -2.2102
  674MOL0     H92950   7.816   8.356   1.443 -1.3299 -0.0255  1.2544
  674MOL0     H92951   7.709   8.593   1.297  0.2439 -0.0741  0.5773
  674MOL0     H92952   7.857   8.518   1.241  0.1088 -0.1229 -0.1026
  674MOL0     H92953   7.590   8.398   1.281  1.0852 -1.1554  1.0941
  674MOL0     H92954   7.718   8.293   1.241 -0.8193 -0.7960 -2.4029
  674MOL0     H92955   7.626   8.493   1.034  0.3683  1.9613  2.2427
  674MOL0     H92956   7.791   8.412   1.041  0.0314  1.2220  0.7115
  674MOL0     H92957   7.691   8.178   1.068  1.6539 -0.8191  0.6066
  674MOL0     H92958   7.689   8.247   0.918 -1.2289 -1.5467 -0.5901
  674MOL0     H92959   7.447   8.315   1.095  0.0842  2.6378 -1.7421
  674MOL0     H92960   7.436   8.316   0.928 -1.6670  1.1842  1.2094
  674MOL0     H92961   7.311   8.102   0.839 -0.5602 -0.8960 -0.7169
  674MOL0     H92962   7.203   7.874   0.825  0.5390  0.3447 -0.2428
  674MOL0     H92963   7.132   7.893   0.981  0.0940 -2.4378  2.3491
  674MOL0     H92964   7.277   7.677   1.063 -1.7208 -0.9262  1.1801
  674MOL0     H92965   7.139   7.662   0.966  0.7145  1.3577  3.0769
  674MOL0     H92966   7.316   7.672   0.756  1.1433  2.4665  0.9809
  674MOL0     H92967   7.433   7.662   0.882  0.3104  0.1801 -0.4730
  674MOL0     H92968   7.249   7.431   0.813  1.4601 -1.3070 -0.6620
  674MOL0     H92969   7.422   7.447   0.820 -1.3499 -0.7078 -2.0255
  674MOL0     H92970   7.111   7.410   1.118 -0.8045 -0.7034  1.0181
  674MOL0     H92971   6.823   7.242   1.094 -0.6870  2.4649  0.7014
  674MOL0     H92972   6.918   7.277   1.234  0.0145 -0.0974 -1.2274
  674MOL0     H92973   6.877   7.109   1.186 -2.3113  0.9050  0.8939
  674MOL0     H92974   7.358   6.659   1.127 -0.6542  0.9183  3.8615
  674MOL0     H92975   7.319   6.416   1.148 -0.7836 -1.6921  0.3563
  674MOL0     H92976   6.894   6.295   1.261 -2.8927 -2.5074 -2.5519
  674MOL0     H92977   6.907   6.241   1.091 -1.6396 -1.2285 -0.0016
  674MOL0     H92978   6.984   6.096   1.330  2.4816 -0.2328  0.1777
  674MOL0     H92979   6.858   6.056   1.216  0.0118 -0.7217  1.7877
  674MOL0     H92980   7.060   6.035   1.051  0.8803 -1.0822 -1.1407
  674MOL0     H92981   7.036   5.900   1.155 -1.3425  0.3504 -1.2987
  674MOL0     H92982   7.182   5.966   1.329  1.7952  0.9958  0.8666
  674MOL0     H92983   7.251   6.098   1.252  1.4912  0.5529 -3.9039
  674MOL0     H92984   7.242   5.862   1.093  1.6957  0.0483 -1.1047
  674MOL0     H92985   7.343   6.013   1.091  0.1874 -0.0495 -1.5872
  674MOL0     H92986   7.434   5.944   1.318  0.7060  0.6237 -0.4532
  674MOL0     H92987   7.491   5.852   1.182 -0.1244 -4.9402  2.3694
  674MOL0     H92988   7.337   5.659   1.228 -2.2597 -2.9989  3.9382
  674MOL0     H92989   7.288   5.729   1.364  0.7169  0.2746 -0.2193
  674MOL0     H92990   7.517   5.779   1.444 -2.4234  1.4512 -1.4504
  674MOL0     H92991   7.572   5.658   1.316 -2.1756 -2.7243 -0.9855
  674MOL0     H92992   6.893   6.469   1.084  1.6771 -0.3731  2.2539
  674MOL0     H92993   6.920   6.701   1.043  2.7172  3.1515  0.2454
  674MOL0     H92994   7.291   6.986   0.964 -1.0650 -0.2251 -1.9857
  674MOL0     H92995   7.411   7.180   0.925  0.8723  2.8785 -0.8344
  674MOL0     H92996   7.551   8.567   1.859  0.9452 -1.4008  0.3754
  674MOL0     H92997   7.536   8.792   1.946 -0.5577 -1.3546 -0.0653
  674MOL0     H92998   7.983   9.266   2.012 -2.2501 -0.4692 -1.3455
  674MOL0     H92999   7.980   9.464   2.134  0.5427  0.5765  0.0911
  674MOL0     H93000   7.909   9.393   2.496  0.1125 -0.3534 -2.4508
  674MOL0     H93001   8.028   9.481   2.396  1.2236  1.5037 -0.4279
  674MOL0     H93002   7.913   9.703   2.484 -1.1226 -0.8592 -1.5203
  674MOL0     H93003   8.000   9.613   2.608 -0.8006 -1.0160  0.3753
  674MOL0     H93004   7.711   9.682   2.579 -1.4413  0.5386  2.1250
  674MOL0     H93005   7.747   9.514   2.634  1.1863  0.3394 -0.5882
  674MOL0     H93006   7.880   9.763   2.767 -0.4217  0.3736  3.0783
  674MOL0     H93007   7.844   9.615   2.853 -0.3218 -0.2228 -0.5771
  674MOL0     H93008   7.506   9.896   2.864  0.9274  1.1236 -1.6499
  674MOL0     H93009   7.633   9.326   2.337 -1.8573 -0.3047 -2.9214
  674MOL0     H93010   7.507   9.092   2.114 -1.2509  0.8204  0.1829
  674MOL0     H93011   7.617   9.007   2.217  0.5259 -0.4225 -0.6339
  674MOL0     H93012   7.508   9.136   2.278  0.2606  0.7932 -0.3051
  675MOL0     O93013   2.228   8.435   8.819  0.5334  0.3266 -0.2789
  675MOL0     C93014   2.227   8.488   8.936 -0.2986 -0.1774 -0.0768
  675MOL0     O93015   2.342   8.529   9.002 -0.2169 -0.6512 -0.4762
  675MOL0     C93016   2.465   8.549   8.933  0.2925  0.5519 -0.5046
  675MOL0     C93017   2.587   8.546   9.002 -0.2139  0.0875 -0.0825
  675MOL0     C93018   2.705   8.573   8.927  0.7677 -1.3077  0.6513
  675MOL0     C93019   2.706   8.588   8.788 -0.5203 -0.3038 -0.5784
  675MOL0     O93020   2.827   8.595   8.717  0.3039 -0.2815  0.3520
  675MOL0     C93021   2.954   8.580   8.783  0.2499  0.5127 -0.3907
  675MOL0     C93022   3.070   8.564   8.669  1.4453  0.7587 -1.0090
  675MOL0     C93023   3.012   8.542   8.527 -0.0062 -0.2771 -0.3331
  675MOL0     C93024   3.123   8.560   8.417  0.2144  0.6997  0.4134
  675MOL0     C93025   3.076   8.553   8.275  0.1018  0.5065  0.1080
  675MOL0     C93026   3.192   8.562   8.177 -0.0638 -0.3745 -0.3785
  675MOL0     C93027   3.149   8.589   8.033  0.7048 -0.7820  0.8643
  675MOL0     C93028   3.274   8.608   7.934  0.4227 -0.6873 -0.2360
  675MOL0     N93029   3.216   8.656   7.806  0.0407 -0.5706 -0.5160
  675MOL0     C93030   3.276   8.687   7.689 -1.1581  0.0957 -0.6570
  675MOL0     C93031   3.173   8.698   7.602  0.1289 -0.1520  0.3521
  675MOL0     C93032   3.174   8.730   7.453  0.4964  0.5554  0.1762
  675MOL0     C93033   3.122   8.597   7.388 -0.6268  0.1865 -0.5889
  675MOL0     C93034   3.227   8.501   7.385 -0.4486  0.3107 -0.0232
  675MOL0     C93035   3.354   8.543   7.322 -0.3179  0.2707  0.6539
  675MOL0     O93036   3.443   8.573   7.432 -0.0902 -0.5732 -0.1903
  675MOL0     C93037   3.570   8.568   7.389  0.2103 -0.2249  0.1250
  675MOL0     C93038   3.655   8.468   7.437 -0.1822  0.5828  0.1091
  675MOL0     C93039   3.790   8.457   7.412 -0.2190  0.5347 -0.2700
  675MOL0     C93040   3.856   8.333   7.462  0.1477  0.1080  0.4104
  675MOL0     C93041   3.849   8.577   7.353 -1.0373  0.1694 -1.7137
  675MOL0     C93042   3.997   8.606   7.349 -0.5980 -0.2787 -0.3931
  675MOL0     O93043   4.047   8.712   7.279  0.1737  0.2714  0.7089
  675MOL0     C93044   4.182   8.718   7.267  0.5164 -0.2757  0.4027
  675MOL0     C93045   4.247   8.687   7.147 -0.9254  0.5347 -0.0138
  675MOL0     C93046   4.386   8.711   7.135  0.6909  0.7845 -0.9608
  675MOL0     C93047   4.461   8.776   7.241  0.5056  0.5939  0.4903
  675MOL0     O93048   4.589   8.781   7.225 -0.6481  0.1023  0.4890
  675MOL0     C93049   4.673   8.874   7.296 -0.7251  0.0803  0.2026
  675MOL0     C93050   4.784   8.912   7.189  0.2183  0.2316  1.2133
  675MOL0     C93051   4.875   8.809   7.129 -1.7538 -0.3160 -0.0445
  675MOL0     C93052   4.938   8.871   7.004  0.3403  0.3473 -0.3289
  675MOL0     C93053   5.038   8.791   6.925 -1.1056 -0.0628  0.1662
  675MOL0     C93054   5.101   8.880   6.810  0.1798 -0.0950 -0.6415
  675MOL0     C93055   5.180   8.799   6.714 -0.7308 -0.0043  0.1183
  675MOL0     C93056   5.221   8.882   6.589  0.5325 -1.6073  0.4280
  675MOL0    Cl93057   5.374   8.979   6.612  0.3441 -0.1093  0.0981
  675MOL0     C93058   4.394   8.791   7.359  1.0867  0.4628  0.7171
  675MOL0     C93059   4.262   8.768   7.370 -0.0213 -0.0979 -0.9355
  675MOL0     O93060   4.068   8.526   7.409  0.1264  0.6673 -1.1169
  675MOL0     C93061   3.760   8.671   7.295  0.4757  0.3383 -0.4518
  675MOL0     C93062   3.619   8.667   7.307  0.0640  0.3094  0.6411
  675MOL0     N93063   3.059   8.682   7.671  0.4320  0.4232  0.3230
  675MOL0     N93064   3.081   8.666   7.790 -0.1404  0.7161 -0.7788
  675MOL0     C93065   2.586   8.608   8.728  0.9503 -0.0373  0.0086
  675MOL0     C93066   2.471   8.600   8.805  0.1559  0.2421  0.6943
  675MOL0     C93067   2.105   8.520   9.022  0.0492 -0.4439  0.3911
  675MOL0     C93068   2.104   8.477   9.153  0.3600  0.3796  0.6312
  675MOL0     C93069   1.999   8.504   9.238  0.8145  0.2443  0.0425
  675MOL0     C93070   1.889   8.575   9.187  0.0354 -1.0776 -1.0726
  675MOL0     O93071   1.779   8.611   9.266 -0.7250 -0.0833 -0.4682
  675MOL0     C93072   1.755   8.534   9.383  0.2716  0.3020 -0.9113
  675MOL0     C93073   1.822   8.610   9.496 -0.4914  0.9133 -0.3992
  675MOL0     C93074   1.826   8.504   9.604 -0.3119 -0.0810  0.0517
  675MOL0     C93075   1.911   8.546   9.723  0.9259  0.0139  0.1495
  675MOL0     C93076   1.859   8.671   9.794  0.5390 -0.1583 -0.3836
  675MOL0     C93077   1.802   8.768   9.833  0.1108 -1.0213  0.3573
  675MOL0     C93078   1.889   8.616   9.049 -0.4115  1.0868 -0.4264
  675MOL0     C93079   1.994   8.586   8.967 -0.4053 -0.2809  0.9707
  675MOL0     C93080   1.987   8.620   8.823 -0.3700  0.1572 -0.4855
  675MOL0     H93081   2.588   8.536   9.110  1.1441  2.6660  0.2284
  675MOL0     H93082   2.804   8.580   8.971  2.2506  1.1539 -2.6224
  675MOL0     H93083   2.969   8.491   8.844  1.0721  1.3026  0.5743
  675MOL0     H93084   2.979   8.663   8.849 -0.5210 -2.1107  3.5059
  675MOL0     H93085   3.127   8.657   8.676  2.7040 -0.0849  0.5513
  675MOL0     H93086   3.132   8.478   8.694  0.4411  0.6427  1.4103
  675MOL0     H93087   2.968   8.443   8.513  0.4857 -0.3207 -1.7066
  675MOL0     H93088   2.939   8.619   8.499  1.1797  1.5337  1.2943
  675MOL0     H93089   3.160   8.662   8.435 -0.7538  1.0484  0.4690
  675MOL0     H93090   3.197   8.481   8.427 -0.7362 -0.6676 -2.3928
  675MOL0     H93091   3.011   8.638   8.254  2.4181  2.2254 -0.4994
  675MOL0     H93092   3.015   8.464   8.254  1.6510 -0.4662 -0.5289
  675MOL0     H93093   3.257   8.637   8.223 -0.3107 -0.7081  0.5435
  675MOL0     H93094   3.241   8.464   8.170  0.3969 -0.0958 -1.1997
  675MOL0     H93095   3.085   8.678   8.044  2.7308  0.8951 -0.2726
  675MOL0     H93096   3.085   8.509   7.996 -1.8688  2.3994 -2.3779
  675MOL0     H93097   3.351   8.675   7.973  1.0537  0.0867 -2.5914
  675MOL0     H93098   3.314   8.506   7.923 -0.8149 -1.0276 -2.1274
  675MOL0     H93099   3.383   8.701   7.678 -0.8507 -2.0623 -0.8256
  675MOL0     H93100   3.272   8.761   7.415 -1.3019  0.5310 -5.3804
  675MOL0     H93101   3.110   8.816   7.431  1.7178  1.0751 -1.5309
  675MOL0     H93102   3.035   8.559   7.442 -0.8020  0.9375 -0.3251
  675MOL0     H93103   3.088   8.626   7.288  0.2175  0.6256 -0.7588
  675MOL0     H93104   3.251   8.461   7.485 -2.4023 -2.6339 -0.6151
  675MOL0     H93105   3.193   8.414   7.329  1.8967 -0.3835 -0.4620
  675MOL0     H93106   3.391   8.451   7.276  1.0378  1.5079 -0.8995
  675MOL0     H93107   3.345   8.627   7.252 -2.0120 -0.3234  0.1192
  675MOL0     H93108   3.612   8.397   7.506  0.0412 -1.9903 -2.2343
  675MOL0     H93109   3.787   8.255   7.497  0.4547  0.5130  2.0003
  675MOL0     H93110   3.927   8.358   7.541 -0.0284  0.4265  0.4691
  675MOL0     H93111   3.927   8.298   7.387  0.8493 -1.7204  1.8431
  675MOL0     H93112   4.211   8.637   7.058  2.1432 -1.4301 -0.2871
  675MOL0     H93113   4.435   8.696   7.039  1.6194  1.2693 -0.5840
  675MOL0     H93114   4.614   8.960   7.332 -2.2619 -0.7184 -0.3243
  675MOL0     H93115   4.713   8.812   7.377 -0.1661 -2.5676 -1.9666
  675MOL0     H93116   4.743   8.974   7.109  3.1804  3.1651  1.7344
  675MOL0     H93117   4.857   8.981   7.233 -0.6763  3.5512 -1.9552
  675MOL0     H93118   4.824   8.714   7.112 -1.2325 -0.4033 -1.2423
  675MOL0     H93119   4.950   8.791   7.207 -1.6694  3.1469  0.8132
  675MOL0     H93120   4.977   8.971   7.026  0.0337 -0.0054  2.0836
  675MOL0     H93121   4.853   8.884   6.936 -0.3028 -2.4705 -0.1719
  675MOL0     H93122   5.120   8.751   6.987 -0.6798  0.5805  0.0249
  675MOL0     H93123   4.987   8.702   6.886 -2.6977  0.8389  0.1103
  675MOL0     H93124   5.164   8.959   6.849 -2.0818  0.0091  3.3295
  675MOL0     H93125   5.010   8.925   6.768 -0.4687 -1.0338 -0.2887
  675MOL0     H93126   5.110   8.720   6.683 -3.3441  1.9846  0.5653
  675MOL0     H93127   5.268   8.754   6.760 -1.3813 -0.6418  0.7759
  675MOL0     H93128   5.137   8.949   6.569  1.6517 -0.9393 -2.5744
  675MOL0     H93129   5.245   8.813   6.507  1.1890 -1.5788  0.5854
  675MOL0     H93130   4.454   8.821   7.444  1.9626  0.4039  0.1270
  675MOL0     H93131   4.219   8.800   7.464  0.1360  4.1025 -2.0534
  675MOL0     H93132   3.801   8.759   7.247 -1.3638  2.0950  1.0492
  675MOL0     H93133   3.557   8.749   7.274  1.6524  0.9024 -1.0585
  675MOL0     H93134   2.585   8.607   8.620  0.6827  1.1583 -0.0089
  675MOL0     H93135   2.387   8.622   8.739  0.0757 -0.7687  0.4330
  675MOL0     H93136   2.187   8.435   9.208 -0.2587  1.7082  2.7187
  675MOL0     H93137   2.020   8.489   9.344 -3.8886 -1.9682  0.9217
  675MOL0     H93138   1.648   8.543   9.408  0.6103  0.3381  0.6070
  675MOL0     H93139   1.780   8.429   9.370 -0.0039  0.3677 -2.0671
  675MOL0     H93140   1.759   8.694   9.528 -1.0544  0.1294  0.6004
  675MOL0     H93141   1.920   8.629   9.451  0.5578 -0.2567  1.2434
  675MOL0     H93142   1.725   8.488   9.644  0.4583 -2.5980  1.1370
  675MOL0     H93143   1.861   8.409   9.564 -0.7053  0.2084 -1.0329
  675MOL0     H93144   2.006   8.560   9.670  0.4935 -1.9109 -1.2011
  675MOL0     H93145   1.926   8.465   9.795 -2.3063  2.6514  4.2753
  675MOL0     H93146   1.760   8.851   9.887  1.3245  0.8328 -1.4215
  675MOL0     H93147   1.813   8.673   8.996 -3.8732 -1.9822  0.8020
  675MOL0     H93148   2.072   8.688   8.810  0.0511 -0.2997 -0.1647
  675MOL0     H93149   2.012   8.527   8.770 -0.1092 -0.6180  0.9463
  675MOL0     H93150   1.892   8.653   8.780  0.1897 -1.8439 -3.6317
  676MOL0     O93151   3.470   9.010   2.745  0.2504 -0.5164 -0.5553
  676MOL0     C93152   3.570   9.084   2.729 -0.4541 -0.4265 -0.4630
  676MOL0     O93153   3.666   9.111   2.830 -0.1764  0.1229  0.4841
  676MOL0     C93154   3.665   9.015   2.932  0.4682  0.5592  0.0632
  676MOL0     C93155   3.709   8.885   2.918 -0.0951 -0.2406  0.5358
  676MOL0     C93156   3.712   8.794   3.021 -0.3241  0.3089  0.0770
  676MOL0     C93157   3.678   8.834   3.149  0.8115  0.3662  0.8702
  676MOL0     O93158   3.678   8.736   3.250 -0.0555 -0.1018 -0.8206
  676MOL0     C93159   3.634   8.782   3.378  0.5040 -0.0990  1.1254
  676MOL0     C93160   3.646   8.671   3.484 -0.1406  0.2117 -0.3650
  676MOL0     C93161   3.785   8.615   3.468  0.2836  0.0492 -0.0033
  676MOL0     C93162   3.801   8.518   3.581 -0.1186 -0.2785  0.6510
  676MOL0     C93163   3.947   8.459   3.561  1.3768  0.5096  0.0074
  676MOL0     C93164   3.969   8.330   3.643  0.7786 -0.7124 -0.6379
  676MOL0     C93165   4.120   8.293   3.649  0.3288  0.1613 -0.5557
  676MOL0     C93166   4.185   8.220   3.776  0.1338 -0.3816 -0.4363
  676MOL0     N93167   4.171   8.079   3.768 -0.5280  0.3822 -0.0521
  676MOL0     C93168   4.049   8.017   3.745 -0.2436  0.2210  0.9704
  676MOL0     C93169   4.080   7.886   3.737  0.7614 -0.1792  1.0573
  676MOL0     C93170   3.986   7.765   3.733  0.5726  0.8851  0.7873
  676MOL0     C93171   3.882   7.780   3.608  0.0287  0.1824  0.4523
  676MOL0     C93172   3.762   7.696   3.616 -0.1371 -0.8341  0.2184
  676MOL0     C93173   3.669   7.705   3.500  0.4360  0.1630  0.1260
  676MOL0     O93174   3.586   7.594   3.510 -0.5040 -0.7068 -0.1062
  676MOL0     C93175   3.473   7.593   3.421 -0.5307  0.6610  0.7298
  676MOL0     C93176   3.448   7.474   3.352  0.7118 -0.1385  0.5137
  676MOL0     C93177   3.334   7.439   3.269 -1.2997 -0.0422  0.0298
  676MOL0     C93178   3.323   7.312   3.188 -0.1122  0.1282  0.2785
  676MOL0     C93179   3.234   7.551   3.266 -0.4209  0.4148 -0.5751
  676MOL0     C93180   3.108   7.557   3.188  0.7064  1.1147 -0.9204
  676MOL0     O93181   3.049   7.669   3.161  0.7052 -0.4665  0.2263
  676MOL0     C93182   2.914   7.670   3.139  0.0377 -0.6346  0.0045
  676MOL0     C93183   2.884   7.714   3.010  0.6690 -0.8228 -0.4803
  676MOL0     C93184   2.750   7.737   2.979  0.2556 -0.3362  0.0960
  676MOL0     C93185   2.645   7.716   3.075 -0.0496 -0.0984  0.3982
  676MOL0     O93186   2.519   7.752   3.037 -1.3116  0.6493  0.1080
  676MOL0     C93187   2.420   7.774   3.135  0.0050 -0.1031  0.2320
  676MOL0     C93188   2.276   7.826   3.086 -0.0981  0.4329 -0.1779
  676MOL0     C93189   2.146   7.789   3.180 -0.6956  0.9417 -0.4918
  676MOL0     C93190   2.024   7.784   3.092  0.5518  0.3045  0.1115
  676MOL0     C93191   1.908   7.755   3.195 -0.3390 -0.7153 -0.1541
  676MOL0     C93192   1.898   7.605   3.238 -0.2951 -0.3698  0.7965
  676MOL0     C93193   1.794   7.573   3.336  0.2175 -0.2382  0.4707
  676MOL0     C93194   1.829   7.654   3.463  0.2616 -0.6098 -0.5634
  676MOL0    Cl93195   1.997   7.674   3.513 -0.0682 -0.0747 -0.0612
  676MOL0     C93196   2.684   7.676   3.203  0.4213  0.3846 -0.6252
  676MOL0     C93197   2.815   7.648   3.236 -1.0989 -1.3439 -0.1627
  676MOL0     O93198   3.071   7.451   3.139  0.4459  0.0615  0.9329
  676MOL0     C93199   3.263   7.667   3.342 -0.3152  0.3489  0.2132
  676MOL0     C93200   3.381   7.692   3.422 -0.9499  0.0118  0.1697
  676MOL0     N93201   4.222   7.872   3.727  0.7775 -0.7043  0.1307
  676MOL0     N93202   4.275   7.991   3.734  0.3836  0.3230 -0.4907
  676MOL0     C93203   3.639   8.967   3.174  0.1701  0.6001 -0.4962
  676MOL0     C93204   3.633   9.054   3.065 -0.3859  0.0930 -1.0759
  676MOL0     C93205   3.576   9.185   2.622  0.1570  0.7319 -0.5356
  676MOL0     C93206   3.647   9.305   2.639 -0.5032  0.4756 -0.5105
  676MOL0     C93207   3.648   9.401   2.534 -1.0566  0.1597 -0.7046
  676MOL0     C93208   3.567   9.389   2.420 -0.5625  0.0398  0.9852
  676MOL0     O93209   3.555   9.488   2.317 -0.3755 -0.5727 -0.1524
  676MOL0     C93210   3.596   9.624   2.348  0.2040  0.4656  0.1451
  676MOL0     C93211   3.560   9.710   2.228 -0.4682  0.0963 -0.2500
  676MOL0     C93212   3.568   9.862   2.268  0.1582 -0.1580  0.2608
  676MOL0     C93213   3.534   9.965   2.155  0.3896 -1.0470 -0.8738
  676MOL0     C93214   3.502  10.099   2.201  0.0203  0.2666 -1.3288
  676MOL0     C93215   3.470  10.205   2.238 -0.5659  1.0132 -0.1942
  676MOL0     C93216   3.505   9.269   2.399  0.3491  0.2626 -0.0687
  676MOL0     C93217   3.499   9.170   2.499 -0.0891 -0.0028 -0.8526
  676MOL0     C93218   3.427   9.050   2.458  0.1599  0.8950 -0.4765
  676MOL0     H93219   3.737   8.836   2.825 -4.8602 -0.6094 -1.0154
  676MOL0     H93220   3.750   8.694   3.004  0.0737  0.4752 -0.0218
  676MOL0     H93221   3.531   8.819   3.372  0.5103 -0.2970 -1.7547
  676MOL0     H93222   3.714   8.850   3.410  2.2647 -1.9379  0.8284
  676MOL0     H93223   3.631   8.726   3.578  1.0712  2.0749 -1.2029
  676MOL0     H93224   3.562   8.602   3.471 -0.4156  0.3322  0.6502
  676MOL0     H93225   3.805   8.576   3.368 -1.9147 -1.6052  0.1208
  676MOL0     H93226   3.848   8.701   3.492 -1.8429  1.4164  0.9720
  676MOL0     H93227   3.774   8.556   3.679 -2.1225  1.0739 -0.3806
  676MOL0     H93228   3.736   8.431   3.564 -1.4036  0.3855  2.0168
  676MOL0     H93229   4.024   8.533   3.586  2.6398 -1.9081  4.4403
  676MOL0     H93230   3.951   8.426   3.457 -2.2075 -3.5944  0.8724
  676MOL0     H93231   3.933   8.343   3.746 -0.9124 -2.6570 -0.9147
  676MOL0     H93232   3.912   8.242   3.612 -1.9147  0.2079  1.3376
  676MOL0     H93233   4.158   8.395   3.658 -1.3914  0.6351  2.6139
  676MOL0     H93234   4.152   8.255   3.552  3.0403  0.1927  0.2422
  676MOL0     H93235   4.290   8.249   3.790 -0.2754  0.1303  2.0649
  676MOL0     H93236   4.119   8.247   3.859 -0.9164  2.7854 -2.1423
  676MOL0     H93237   3.950   8.063   3.746 -0.6282 -0.5859  0.8157
  676MOL0     H93238   3.934   7.779   3.828 -0.5340  2.9454 -0.0622
  676MOL0     H93239   4.031   7.665   3.724 -0.6698  0.5275 -3.8198
  676MOL0     H93240   3.838   7.880   3.605 -2.5935 -0.5938  4.4270
  676MOL0     H93241   3.941   7.769   3.517  0.0564  0.1700  0.4714
  676MOL0     H93242   3.788   7.590   3.622 -3.0680 -1.7603 -1.1009
  676MOL0     H93243   3.707   7.720   3.707 -1.0834 -2.8889  0.2540
  676MOL0     H93244   3.618   7.801   3.511 -0.8037 -0.7866  4.8928
  676MOL0     H93245   3.742   7.692   3.420  1.9627 -2.5108  1.7904
  676MOL0     H93246   3.530   7.402   3.355 -0.6908 -1.7858  1.9271
  676MOL0     H93247   3.223   7.269   3.199  0.9707 -2.3855  1.0022
  676MOL0     H93248   3.391   7.237   3.230 -2.3142 -0.4230  3.1656
  676MOL0     H93249   3.336   7.340   3.083 -0.1279  2.3065  0.7975
  676MOL0     H93250   2.954   7.739   2.931  0.0197 -0.8051 -1.0522
  676MOL0     H93251   2.706   7.780   2.889 -1.5684 -0.9543  0.6534
  676MOL0     H93252   2.403   7.674   3.176  2.6639 -0.5941  0.3021
  676MOL0     H93253   2.448   7.847   3.211 -2.5341  0.8352  0.3702
  676MOL0     H93254   2.278   7.931   3.056  1.5382  0.0143 -1.7164
  676MOL0     H93255   2.253   7.780   2.989 -0.4939 -1.4228  0.7543
  676MOL0     H93256   2.147   7.860   3.263  1.4867 -0.0089  0.3502
  676MOL0     H93257   2.157   7.691   3.227  0.4355  0.4865 -1.6296
  676MOL0     H93258   2.046   7.697   3.030 -1.9397 -0.9582  0.8956
  676MOL0     H93259   2.017   7.880   3.039  0.8915 -0.6728 -1.7587
  676MOL0     H93260   1.914   7.828   3.275 -2.0257  0.7752 -1.3201
  676MOL0     H93261   1.813   7.767   3.143 -0.0503  2.2899 -0.1610
  676MOL0     H93262   1.993   7.580   3.286 -0.7818  1.6670  2.9669
  676MOL0     H93263   1.880   7.543   3.150  1.2133  0.4911 -0.1720
  676MOL0     H93264   1.780   7.466   3.356  0.5328 -0.2559  0.6032
  676MOL0     H93265   1.694   7.597   3.299 -0.6628 -1.1605  2.1115
  676MOL0     H93266   1.781   7.610   3.550 -2.3381  1.4707 -0.8326
  676MOL0     H93267   1.788   7.755   3.450  2.1230  0.5024  1.5680
  676MOL0     H93268   2.603   7.662   3.275  0.7482  1.6128  0.0051
  676MOL0     H93269   2.840   7.629   3.340  0.1336 -0.3344 -0.2489
  676MOL0     H93270   3.184   7.738   3.366 -2.2508 -1.3801 -0.6917
  676MOL0     H93271   3.412   7.783   3.471 -0.0628 -1.1637  1.9207
  676MOL0     H93272   3.612   9.013   3.269 -2.0827  0.0817 -0.8398
  676MOL0     H93273   3.589   9.150   3.089 -1.9363 -1.0300  0.8724
  676MOL0     H93274   3.680   9.324   2.740 -0.2315 -0.6567 -0.3674
  676MOL0     H93275   3.700   9.495   2.549 -4.3161  2.0915 -0.5209
  676MOL0     H93276   3.551   9.656   2.442  0.9672  0.4390  0.5238
  676MOL0     H93277   3.704   9.612   2.362  0.4653  1.4537 -0.8631
  676MOL0     H93278   3.455   9.698   2.198 -0.6144  2.2029 -0.6991
  676MOL0     H93279   3.617   9.675   2.141 -2.4575 -0.5185 -1.3799
  676MOL0     H93280   3.503   9.881   2.354 -1.0819 -2.1730 -0.1544
  676MOL0     H93281   3.659   9.897   2.318  0.2242  4.3076 -2.4482
  676MOL0     H93282   3.441   9.929   2.111 -0.7473 -2.3638  2.2648
  676MOL0     H93283   3.607   9.982   2.076 -3.3918  0.5408 -4.3739
  676MOL0     H93284   3.434  10.300   2.272 -3.4239 -0.3067  0.7713
  676MOL0     H93285   3.450   9.245   2.309 -1.5296  2.8704  0.2753
  676MOL0     H93286   3.353   9.023   2.534  1.5265 -0.0142  0.5877
  676MOL0     H93287   3.383   9.062   2.359 -0.8402 -0.3908 -0.2158
  676MOL0     H93288   3.493   8.963   2.453 -1.1843 -0.5024  2.8021
  677MOL0     O93289  10.295   6.393   1.469  0.6678  0.9334 -0.6576
  677MOL0     C93290  10.205   6.344   1.409  0.4059  0.6107 -0.1349
  677MOL0     O93291  10.181   6.209   1.402 -0.0768 -0.5267  0.3782
  677MOL0     C93292  10.275   6.117   1.455  0.5719  0.7617 -0.0835
  677MOL0     C93293  10.269   6.081   1.589 -0.2777  0.4595  0.4152
  677MOL0     C93294  10.355   5.979   1.644 -0.3201 -0.5142  0.7383
  677MOL0     C93295  10.459   5.934   1.562 -0.3253  0.0898  0.6394
  677MOL0     O93296  10.546   5.843   1.614 -0.5014  0.1290  0.5409
  677MOL0     C93297  10.681   5.883   1.609  1.6466  0.3155  0.9464
  677MOL0     C93298  10.714   6.015   1.682  0.9567  0.4395  0.2145
  677MOL0     C93299  10.673   6.004   1.827 -0.3018 -0.8719 -0.0804
  677MOL0     C93300  10.639   6.141   1.889  0.2532  0.8669  0.8482
  677MOL0     C93301  10.602   6.113   2.031 -0.5462 -0.0332 -0.0950
  677MOL0     C93302  10.598   6.240   2.127 -0.5067  0.3457  0.4300
  677MOL0     C93303  10.512   6.240   2.250  0.6608  0.7014  0.7543
  677MOL0     C93304  10.562   6.143   2.357  0.7572  0.2563  0.0060
  677MOL0     N93305  10.489   6.137   2.479  0.4598 -0.0771 -0.0222
  677MOL0     C93306  10.436   6.248   2.527  0.0707 -0.0008  0.0666
  677MOL0     C93307  10.370   6.211   2.644 -0.5294 -1.1764 -0.0096
  677MOL0     C93308  10.308   6.304   2.739  0.6902 -0.6946 -1.0021
  677MOL0     C93309  10.148   6.292   2.746 -0.2627  0.0361  0.9078
  677MOL0     C93310  10.087   6.382   2.853  0.3682 -0.7923 -0.0363
  677MOL0     C93311  10.093   6.312   2.989  0.7781 -1.3282  1.4789
  677MOL0     O93312  10.016   6.195   2.978 -0.2448  0.8313  0.2441
  677MOL0     C93313  10.049   6.102   3.071  0.4624  0.8444 -0.0472
  677MOL0     C93314  10.069   6.123   3.204  0.5976 -0.8763 -0.2828
  677MOL0     C93315  10.088   6.012   3.296 -0.0290  0.3569  0.4229
  677MOL0     C93316  10.094   6.047   3.448 -0.5371 -0.3024  0.3964
  677MOL0     C93317  10.083   5.873   3.249  0.4365  0.0475 -0.0416
  677MOL0     C93318  10.098   5.749   3.320  0.9798 -0.0401 -0.3377
  677MOL0     O93319  10.056   5.632   3.262 -0.3759  0.6567  0.1730
  677MOL0     C93320  10.114   5.515   3.297 -0.5712 -0.8001  0.4456
  677MOL0     C93321  10.047   5.401   3.348  0.9581  0.3784  1.0042
  677MOL0     C93322  10.101   5.274   3.340 -0.5132 -0.1028  0.6012
  677MOL0     C93323  10.235   5.270   3.303  1.2292  0.4321 -0.4694
  677MOL0     O93324  10.297   5.145   3.283 -0.5862 -1.3791  0.8359
  677MOL0     C93325  10.268   5.045   3.378  0.7001 -0.2917  0.4173
  677MOL0     C93326  10.289   5.093   3.528  0.4582 -0.4930  0.1933
  677MOL0     C93327  10.250   4.986   3.639 -0.1335 -0.6178 -0.0616
  677MOL0     C93328  10.304   4.845   3.635 -0.3302 -0.7170  0.5232
  677MOL0     C93329  10.453   4.819   3.694  0.5767  0.5854 -0.3829
  677MOL0     C93330  10.475   4.842   3.843  0.0779 -0.4013 -0.6636
  677MOL0     C93331  10.414   4.726   3.918  0.1906 -0.3738  0.1666
  677MOL0     C93332  10.433   4.741   4.070  0.2921  1.2412  0.7062
  677MOL0    Cl93333  10.613   4.723   4.107  0.3641  0.4631 -0.0272
  677MOL0     C93334  10.307   5.387   3.257  0.1081  0.4024 -0.0479
  677MOL0     C93335  10.247   5.501   3.252 -0.3703  0.3585  0.0116
  677MOL0     O93336  10.160   5.760   3.424  0.0358 -0.6121  0.4779
  677MOL0     C93337  10.055   5.858   3.113  0.0373  0.3098 -0.6637
  677MOL0     C93338  10.037   5.970   3.031 -0.3536 -0.3443 -0.0234
  677MOL0     N93339  10.374   6.077   2.655 -0.2107 -0.5177  0.9265
  677MOL0     N93340  10.441   6.031   2.551  0.4133  0.7544 -0.2175
  677MOL0     C93341  10.453   5.957   1.423 -0.7078 -0.4969  0.2556
  677MOL0     C93342  10.365   6.044   1.377  1.7940  0.4826  0.1646
  677MOL0     C93343  10.092   6.423   1.355  0.4902 -0.3966  0.8712
  677MOL0     C93344   9.969   6.363   1.317 -1.0843  0.8562  0.6462
  677MOL0     C93345   9.868   6.428   1.253  0.1419 -0.3224  0.4225
  677MOL0     C93346   9.877   6.560   1.229  0.3427  0.9969 -0.3571
  677MOL0     O93347   9.784   6.628   1.169  0.0834  0.5501  0.5776
  677MOL0     C93348   9.669   6.586   1.100 -0.3080 -0.2458 -0.6733
  677MOL0     C93349   9.709   6.538   0.963 -0.2529  0.0980 -0.0978
  677MOL0     C93350   9.579   6.474   0.908 -0.3675 -0.0153  0.1331
  677MOL0     C93351   9.596   6.433   0.763  0.3320  0.0433  0.1026
  677MOL0     C93352   9.476   6.357   0.711  0.1757  0.4792  0.1856
  677MOL0     C93353   9.374   6.286   0.681 -0.6491  0.1704 -0.5812
  677MOL0     C93354   9.998   6.626   1.263 -0.0107  0.8462 -0.4766
  677MOL0     C93355  10.110   6.561   1.316 -0.3686 -0.5592  0.1445
  677MOL0     C93356  10.241   6.648   1.326  0.0408  0.1475 -0.1956
  677MOL0     H93357  10.198   6.136   1.649  0.2189  2.2028 -0.5452
  677MOL0     H93358  10.349   5.950   1.748 -0.7233  0.5559  1.0184
  677MOL0     H93359  10.717   5.886   1.505  1.7544  0.0828  0.9758
  677MOL0     H93360  10.726   5.800   1.665 -0.5940  0.3187  2.9132
  677MOL0     H93361  10.822   6.021   1.667  1.2293 -1.8543  0.8744
  677MOL0     H93362  10.668   6.094   1.622  1.0060 -1.0590 -1.8828
  677MOL0     H93363  10.594   5.929   1.839  1.0686 -2.5092 -0.8975
  677MOL0     H93364  10.762   5.955   1.867 -0.6914 -1.0876  0.5409
  677MOL0     H93365  10.722   6.211   1.887  1.1305 -0.1486  0.7738
  677MOL0     H93366  10.555   6.182   1.832  1.6447  2.4165 -0.1624
  677MOL0     H93367  10.681   6.051   2.075 -1.4167 -1.2375 -0.1699
  677MOL0     H93368  10.511   6.052   2.032  1.7972 -3.9343  1.3878
  677MOL0     H93369  10.702   6.258   2.155 -0.5201 -2.1063  2.3403
  677MOL0     H93370  10.559   6.324   2.068 -0.2868  1.4586  1.8094
  677MOL0     H93371  10.411   6.207   2.224 -0.0743 -0.0602  4.1796
  677MOL0     H93372  10.513   6.341   2.293 -5.4280  1.7015 -0.4800
  677MOL0     H93373  10.562   6.042   2.315  2.0752  0.0653  0.4289
  677MOL0     H93374  10.666   6.167   2.380  0.2716  3.6329 -0.8345
  677MOL0     H93375  10.462   6.351   2.503  0.8572  0.6697  3.2065
  677MOL0     H93376  10.333   6.406   2.708 -0.7607  0.1711  0.5308
  677MOL0     H93377  10.352   6.287   2.838  3.2961  5.8146 -0.5871
  677MOL0     H93378  10.121   6.339   2.651  1.9216  0.8660  0.6279
  677MOL0     H93379  10.115   6.188   2.749 -1.7616  0.2647 -2.8129
  677MOL0     H93380  10.132   6.481   2.862 -1.6961  0.3280 -1.1795
  677MOL0     H93381   9.985   6.411   2.825  0.7469 -0.9482 -1.6962
  677MOL0     H93382  10.197   6.292   3.017  1.2797 -0.4198  0.3504
  677MOL0     H93383  10.042   6.377   3.060 -5.1723 -3.6684 -0.0420
  677MOL0     H93384  10.077   6.224   3.244  0.1750 -0.2115 -1.8171
  677MOL0     H93385  10.194   6.087   3.470 -1.5262  0.6650  3.6314
  677MOL0     H93386  10.068   5.964   3.515  1.0342 -0.3851  0.9639
  677MOL0     H93387  10.031   6.135   3.461 -1.2284 -1.1222  3.5225
  677MOL0     H93388   9.948   5.416   3.391  0.5559  2.0175 -0.3675
  677MOL0     H93389  10.041   5.189   3.372 -4.4413  2.5318  0.9517
  677MOL0     H93390  10.168   5.005   3.359  1.9249 -2.9597 -0.8284
  677MOL0     H93391  10.336   4.960   3.376 -0.6879 -1.4398 -1.1120
  677MOL0     H93392  10.393   5.117   3.549 -0.1191  0.3284  2.5013
  677MOL0     H93393  10.231   5.177   3.568  0.1349 -1.7012  2.4576
  677MOL0     H93394  10.141   4.982   3.651 -0.1770 -2.8683 -0.7665
  677MOL0     H93395  10.283   5.021   3.737  0.2534 -0.8400 -0.1131
  677MOL0     H93396  10.300   4.811   3.531 -0.9054 -2.8510  1.1785
  677MOL0     H93397  10.230   4.779   3.681 -1.0117 -0.8982 -0.7713
  677MOL0     H93398  10.481   4.716   3.670  0.8648  0.5846 -0.0598
  677MOL0     H93399  10.524   4.879   3.636 -0.6645  1.8236 -0.6652
  677MOL0     H93400  10.441   4.943   3.867 -2.5741 -1.2059 -0.6748
  677MOL0     H93401  10.584   4.849   3.849  0.1285 -0.4499 -1.4426
  677MOL0     H93402  10.449   4.627   3.889 -0.7001 -1.0952  1.4677
  677MOL0     H93403  10.307   4.727   3.894 -0.0027  0.3339  1.0150
  677MOL0     H93404  10.374   4.670   4.128  1.3814 -0.8840 -0.6689
  677MOL0     H93405  10.395   4.835   4.112 -0.5983  0.3872  1.8636
  677MOL0     H93406  10.410   5.370   3.229  0.0309 -1.4588  0.6649
  677MOL0     H93407  10.314   5.579   3.217  0.8232 -1.4253 -2.0197
  677MOL0     H93408  10.050   5.758   3.072  0.3160 -0.4421  1.0519
  677MOL0     H93409  10.017   5.936   2.930 -1.1894 -3.7994  1.1618
  677MOL0     H93410  10.513   5.910   1.346  0.0074  0.6220  0.1091
  677MOL0     H93411  10.343   6.063   1.272 -0.2440  0.1005  0.4805
  677MOL0     H93412   9.959   6.255   1.328 -1.0970  0.4587 -2.5489
  677MOL0     H93413   9.779   6.377   1.220  1.5852 -0.6373 -3.5004
  677MOL0     H93414   9.615   6.518   1.166 -1.4878 -1.7584 -3.0558
  677MOL0     H93415   9.596   6.668   1.089 -1.0858 -0.8976 -0.4937
  677MOL0     H93416   9.793   6.469   0.961 -1.4203 -1.4045 -2.6841
  677MOL0     H93417   9.742   6.615   0.892  3.8300  1.7996  3.2177
  677MOL0     H93418   9.559   6.388   0.973  2.7937 -0.3292  0.8946
  677MOL0     H93419   9.496   6.545   0.912  1.3043  2.1258 -1.0379
  677MOL0     H93420   9.685   6.372   0.744  0.3993 -0.2766  1.3313
  677MOL0     H93421   9.609   6.520   0.698  2.8018  1.4036  2.1976
  677MOL0     H93422   9.295   6.215   0.672  0.0959 -1.1234  2.1160
  677MOL0     H93423  10.001   6.734   1.249  2.5704  0.8279 -0.4665
  677MOL0     H93424  10.316   6.600   1.262 -1.4593 -3.0369  0.2753
  677MOL0     H93425  10.222   6.753   1.301 -0.6091  0.1510  0.2866
  677MOL0     H93426  10.270   6.654   1.432 -2.5465 -1.0933  0.6698
  678MOL0     O93427   0.239   8.673   5.073  0.1252  0.1168 -0.4462
  678MOL0     C93428   0.275   8.663   4.962 -0.9306 -0.7186 -0.0513
  678MOL0     O93429   0.325   8.776   4.893  0.4801 -0.4170 -0.2765
  678MOL0     C93430   0.293   8.907   4.932 -1.6189  0.1120 -0.7565
  678MOL0     C93431   0.403   8.997   4.922  0.9130  0.8096  0.5120
  678MOL0     C93432   0.385   9.130   4.961  1.2003  0.5595 -0.1500
  678MOL0     C93433   0.256   9.170   5.000  0.6189 -0.0492  0.3601
  678MOL0     O93434   0.217   9.296   4.990 -1.0906 -0.3509 -0.1938
  678MOL0     C93435   0.313   9.402   5.024  0.8491 -0.6466 -1.2365
  678MOL0     C93436   0.228   9.529   5.047  0.1897  0.2241  0.4112
  678MOL0     C93437   0.119   9.554   4.931  0.2751 -0.1879 -1.0496
  678MOL0     C93438   0.095   9.705   4.912 -0.1634 -0.6087  0.3479
  678MOL0     C93439   0.214   9.782   4.845 -0.2456 -0.8406  0.7284
  678MOL0     C93440   0.191   9.939   4.868 -0.2898  0.0750  0.1106
  678MOL0     C93441   0.318   9.998   4.798  0.7236 -0.1265  0.0028
  678MOL0     C93442   0.317  10.151   4.795 -0.2218 -0.0384  0.7849
  678MOL0     N93443   0.204  10.201   4.712 -0.1243  0.4040 -0.0806
  678MOL0     C93444   0.174  10.167   4.586 -0.9016 -0.0938  0.2091
  678MOL0     C93445   0.074  10.260   4.558 -1.2315 -0.2568  0.1070
  678MOL0     C93446  -0.014  10.268   4.431 -0.2018  0.4622  0.7377
  678MOL0     C93447   0.075  10.279   4.310 -0.5439 -0.5054 -0.3098
  678MOL0     C93448   0.124  10.421   4.291  0.1048  0.1256 -0.1300
  678MOL0     C93449   0.205  10.435   4.159  0.5787  0.0213  0.9787
  678MOL0     O93450   0.131  10.396   4.034 -0.7138 -0.1478  0.2552
  678MOL0     C93451   0.201  10.379   3.909 -0.0357  0.0233  0.7440
  678MOL0     C93452   0.326  10.432   3.890  0.5299 -0.5191 -0.3962
  678MOL0     C93453   0.397  10.379   3.779 -0.2463 -0.4125 -0.5789
  678MOL0     C93454   0.527  10.445   3.763 -0.1127  0.7376 -0.1915
  678MOL0     C93455   0.355  10.277   3.681 -0.0542  0.1900 -0.8131
  678MOL0     C93456   0.429  10.233   3.556 -0.1149  0.4671 -0.6888
  678MOL0     O93457   0.554  10.275   3.531  0.2322  1.0930  0.1469
  678MOL0     C93458   0.636  10.263   3.418 -0.7472 -0.1774 -0.4703
  678MOL0     C93459   0.760  10.335   3.438 -0.5670 -0.8405 -0.9322
  678MOL0     C93460   0.848  10.364   3.331  0.0414  0.7977  0.4550
  678MOL0     C93461   0.833  10.283   3.217 -0.0349  0.7954 -0.5149
  678MOL0     O93462   0.922  10.297   3.109 -0.0779  0.4939 -0.1136
  678MOL0     C93463   0.897  10.234   2.978  0.2377  0.3710 -0.6175
  678MOL0     C93464   1.004  10.265   2.873 -0.4666 -0.9997  0.0633
  678MOL0     C93465   1.142  10.215   2.901  0.1811 -0.4951  0.0831
  678MOL0     C93466   1.223  10.219   2.774 -0.9030  0.2113 -0.5965
  678MOL0     C93467   1.364  10.183   2.818 -0.1986  0.5010 -0.4077
  678MOL0     C93468   1.463  10.243   2.725 -0.2162 -0.0079  0.4995
  678MOL0     C93469   1.466  10.166   2.583  0.6647 -1.2373 -0.7456
  678MOL0     C93470   1.605  10.205   2.515  0.2529 -0.3983 -0.2569
  678MOL0    Cl93471   1.617  10.388   2.505  0.0854  0.4065  0.0817
  678MOL0     C93472   0.718  10.202   3.198 -0.3059 -1.0471 -0.0437
  678MOL0     C93473   0.621  10.191   3.297  0.5129  0.1272  0.4679
  678MOL0     O93474   0.358  10.177   3.471  0.8014 -0.3527 -0.2347
  678MOL0     C93475   0.221  10.238   3.713 -0.2982 -0.1779 -0.5949
  678MOL0     C93476   0.148  10.290   3.820 -0.9419  0.5040  0.0935
  678MOL0     N93477   0.057  10.344   4.665 -0.3544 -0.1993 -0.4508
  678MOL0     N93478   0.128  10.303   4.753  1.0248  0.3200 -0.1446
  678MOL0     C93479   0.155   9.077   5.038 -0.0430  0.6235 -0.2305
  678MOL0     C93480   0.174   8.947   5.002 -0.4342  0.1359  0.7119
  678MOL0     C93481   0.275   8.535   4.881  0.5182  0.0618  0.0044
  678MOL0     C93482   0.240   8.529   4.741  0.4635  0.1583  0.6502
  678MOL0     C93483   0.239   8.409   4.670  0.2344  0.4881 -0.6843
  678MOL0     C93484   0.272   8.297   4.746 -0.4346  0.2539 -1.0577
  678MOL0     O93485   0.260   8.177   4.686  0.4232 -0.0689  0.0306
  678MOL0     C93486   0.375   8.090   4.667 -0.4802  0.6517  1.0997
  678MOL0     C93487   0.336   7.995   4.560  0.1126  0.2117  0.0979
  678MOL0     C93488   0.352   8.056   4.415  0.6755  0.1188 -0.2613
  678MOL0     C93489   0.273   7.961   4.314 -0.1669 -0.2693 -0.8236
  678MOL0     C93490   0.336   7.830   4.306 -0.6930 -0.8973  0.9476
  678MOL0     C93491   0.409   7.735   4.308  0.6701 -0.5567  0.0396
  678MOL0     C93492   0.304   8.302   4.879 -0.1635  0.1038  0.5058
  678MOL0     C93493   0.317   8.422   4.952  0.5593 -0.5321  0.7235
  678MOL0     C93494   0.346   8.402   5.094 -1.0952 -0.9084  0.0725
  678MOL0     H93495   0.491   8.969   4.866 -0.2993 -1.3384 -0.4375
  678MOL0     H93496   0.453   9.205   4.920  0.1666  1.0909 -0.9467
  678MOL0     H93497   0.389   9.433   4.952 -0.1372  4.8447 -0.3508
  678MOL0     H93498   0.363   9.390   5.121  1.8697  1.5727 -1.4294
  678MOL0     H93499   0.166   9.514   5.136 -0.6648  3.0052  0.3741
  678MOL0     H93500   0.293   9.617   5.055 -0.0125  0.4147 -0.0129
  678MOL0     H93501   0.145   9.518   4.831 -0.3296 -2.3647 -0.4695
  678MOL0     H93502   0.033   9.495   4.963  1.2808 -0.4905  1.3416
  678MOL0     H93503   0.015   9.720   4.840  1.3351  0.1770 -1.2009
  678MOL0     H93504   0.073   9.751   5.009  4.2813  1.2304  0.7537
  678MOL0     H93505   0.231   9.752   4.742  2.3685  4.7361 -0.8092
  678MOL0     H93506   0.302   9.761   4.906  0.0084  0.6156  0.8985
  678MOL0     H93507   0.101   9.976   4.819 -2.4171 -3.0083  1.4101
  678MOL0     H93508   0.184   9.962   4.975 -0.9922  3.8172 -0.5795
  678MOL0     H93509   0.316   9.971   4.692 -1.8846  0.5685 -0.1820
  678MOL0     H93510   0.417   9.967   4.834 -0.0100 -0.5574  1.7505
  678MOL0     H93511   0.315  10.192   4.896  2.9621  2.3086  0.0627
  678MOL0     H93512   0.411  10.193   4.757  0.2628  0.3310  2.3291
  678MOL0     H93513   0.226  10.090   4.532 -0.2172  1.9435 -2.2352
  678MOL0     H93514  -0.088  10.349   4.430  0.4422  1.0786  1.6687
  678MOL0     H93515  -0.064  10.171   4.434  2.9941 -1.3430  0.3156
  678MOL0     H93516   0.156  10.208   4.328 -0.4134  0.1183  1.8385
  678MOL0     H93517   0.009  10.256   4.226 -1.0220  1.0183 -0.3894
  678MOL0     H93518   0.035  10.485   4.286 -3.6656 -4.5048  0.8997
  678MOL0     H93519   0.189  10.448   4.374  0.2778  0.0815 -0.2504
  678MOL0     H93520   0.235  10.539   4.147  0.2946 -0.0711 -0.8128
  678MOL0     H93521   0.297  10.376   4.161  0.7006 -0.0300 -2.1067
  678MOL0     H93522   0.357  10.514   3.953 -0.5263 -0.7464  0.4381
  678MOL0     H93523   0.602  10.369   3.789 -0.4517  0.4679  0.0181
  678MOL0     H93524   0.528  10.521   3.841 -0.5803  2.4145 -1.7573
  678MOL0     H93525   0.541  10.490   3.665 -1.2689  0.1818 -0.6349
  678MOL0     H93526   0.792  10.385   3.528  1.1321  3.1414 -3.4774
  678MOL0     H93527   0.941  10.421   3.340 -0.5810  1.8849  0.2242
  678MOL0     H93528   0.898  10.125   2.991  1.9091  0.6619  2.8544
  678MOL0     H93529   0.802  10.272   2.940  1.8773  4.0438 -1.4913
  678MOL0     H93530   0.975  10.192   2.797 -0.3224 -3.4545  2.2396
  678MOL0     H93531   1.005  10.368   2.834 -0.9873 -1.3613 -0.9244
  678MOL0     H93532   1.143  10.113   2.939  2.1146 -1.0730 -1.4141
  678MOL0     H93533   1.183  10.285   2.975 -0.7819 -1.1588  1.3050
  678MOL0     H93534   1.218  10.317   2.726 -1.6356  1.3953  1.7380
  678MOL0     H93535   1.189  10.143   2.703  0.9915  1.1739 -2.6710
  678MOL0     H93536   1.395  10.214   2.918 -2.0924 -1.4310  0.8656
  678MOL0     H93537   1.377  10.075   2.829 -0.5583  0.5863  1.0996
  678MOL0     H93538   1.560  10.235   2.776  0.2098  2.4896  0.2286
  678MOL0     H93539   1.435  10.345   2.698  0.0143  0.1237  0.7556
  678MOL0     H93540   1.382  10.208   2.527 -0.2379 -1.2328  0.5605
  678MOL0     H93541   1.456  10.060   2.604 -0.1289 -0.7122  1.9412
  678MOL0     H93542   1.628  10.158   2.420  3.5665  2.6699 -1.1772
  678MOL0     H93543   1.690  10.166   2.572  2.5276  3.3640 -0.7210
  678MOL0     H93544   0.697  10.156   3.101  1.3668  0.8819 -1.3925
  678MOL0     H93545   0.524  10.145   3.282  0.2996  0.7831 -0.2557
  678MOL0     H93546   0.177  10.164   3.647 -0.6955 -2.0447  1.6503
  678MOL0     H93547   0.052  10.241   3.839 -0.4336  0.1462  1.9905
  678MOL0     H93548   0.060   9.114   5.075 -1.1582 -1.0462 -1.2993
  678MOL0     H93549   0.096   8.872   5.013 -0.7977  0.3919 -0.0569
  678MOL0     H93550   0.211   8.618   4.686 -3.1405 -0.9739  0.4632
  678MOL0     H93551   0.218   8.400   4.564 -1.3337 -0.5208 -0.3376
  678MOL0     H93552   0.462   8.150   4.638 -1.2999  0.6578 -1.6123
  678MOL0     H93553   0.398   8.043   4.763 -0.8321 -0.2821  0.7342
  678MOL0     H93554   0.228   7.979   4.572  0.0552  1.1485  1.0212
  678MOL0     H93555   0.389   7.900   4.572 -0.4448 -0.1620 -0.3693
  678MOL0     H93556   0.303   8.154   4.415  0.7812  0.1874  0.9766
  678MOL0     H93557   0.456   8.069   4.385  1.2639  0.3314  1.7518
  678MOL0     H93558   0.249   7.997   4.214 -3.0081 -4.7981 -2.0797
  678MOL0     H93559   0.182   7.945   4.373  1.2276  3.3844  2.8138
  678MOL0     H93560   0.481   7.656   4.314  0.2540 -0.8586  1.1420
  678MOL0     H93561   0.318   8.208   4.931 -1.1733  0.2245  1.0183
  678MOL0     H93562   0.395   8.306   5.111 -1.5022 -0.9546  1.0640
  678MOL0     H93563   0.411   8.484   5.127  1.5675 -2.5798 -0.6900
  678MOL0     H93564   0.249   8.409   5.144 -0.5259  0.2592  1.0626
  679MOL0     O93565   8.776   4.229   9.019  0.3016 -0.5152 -0.6377
  679MOL0     C93566   8.785   4.106   9.008 -0.1439  0.8130 -0.2495
  679MOL0     O93567   8.824   4.023   9.105 -1.4537 -0.1181  0.5155
  679MOL0     C93568   8.846   4.063   9.235 -0.1920  0.9892  0.1280
  679MOL0     C93569   8.900   4.187   9.270 -0.1920 -0.2603  0.6815
  679MOL0     C93570   8.942   4.212   9.395  0.1692 -1.0726 -0.1183
  679MOL0     C93571   8.924   4.125   9.501 -0.1314  0.1211  0.2561
  679MOL0     O93572   8.967   4.137   9.630 -0.3359 -0.0730  0.6823
  679MOL0     C93573   9.014   4.270   9.678  1.1921  1.1923  1.1336
  679MOL0     C93574   9.079   4.253   9.812  0.9402  0.0209  0.0017
  679MOL0     C93575   9.011   4.139   9.899  0.9042 -1.1471 -1.0079
  679MOL0     C93576   9.047   4.155  10.045 -0.2145 -0.7301 -1.1026
  679MOL0     C93577   9.021   4.040  10.128 -0.3263 -0.6605 -0.0190
  679MOL0     C93578   8.869   4.035  10.152 -0.1218 -0.7777  0.3506
  679MOL0     C93579   8.834   3.908  10.237  0.9069  0.3288  0.3236
  679MOL0     C93580   8.698   3.902  10.309 -0.3013  1.3195  0.1374
  679MOL0     N93581   8.671   3.761  10.355 -0.9635  0.2720  0.8715
  679MOL0     C93582   8.567   3.726  10.434  0.4850  1.6808 -0.4662
  679MOL0     C93583   8.586   3.591  10.462  0.2110 -0.0579 -0.3567
  679MOL0     C93584   8.492   3.497  10.536  1.1751 -0.0465  0.5675
  679MOL0     C93585   8.395   3.432  10.438 -0.0600 -0.7276  0.0212
  679MOL0     C93586   8.461   3.336  10.337  0.8615 -0.0543  0.1108
  679MOL0     C93587   8.385   3.318  10.203 -0.0527 -1.6385 -0.1286
  679MOL0     O93588   8.242   3.300  10.243 -0.2723  0.5704  0.3345
  679MOL0     C93589   8.157   3.237  10.149 -0.6823 -1.2351 -0.2209
  679MOL0     C93590   8.026   3.245  10.168  0.7729 -0.2532 -0.9673
  679MOL0     C93591   7.926   3.196  10.080  0.4640  0.6429  1.2146
  679MOL0     C93592   7.787   3.203  10.118 -0.0560  0.3535 -0.9629
  679MOL0     C93593   7.970   3.121   9.969  0.1513  0.1355 -0.5058
  679MOL0     C93594   7.881   3.081   9.855  0.0571 -0.0802 -0.6587
  679MOL0     O93595   7.780   3.160   9.805  0.9838 -0.0284 -0.6850
  679MOL0     C93596   7.718   3.107   9.698 -1.0534  0.0346 -0.6760
  679MOL0     C93597   7.781   3.116   9.569  0.3778 -0.1376 -0.2768
  679MOL0     C93598   7.727   3.042   9.458 -0.8773  0.0685  0.2399
  679MOL0     C93599   7.607   2.961   9.479 -0.4921 -0.4388  0.9684
  679MOL0     O93600   7.553   2.897   9.369 -0.2046  0.2385  0.3403
  679MOL0     C93601   7.515   2.769   9.405 -0.1293  0.4933  1.0886
  679MOL0     C93602   7.577   2.690   9.279  0.0369 -0.3407 -1.1024
  679MOL0     C93603   7.731   2.668   9.297  0.3272 -0.4330  0.2989
  679MOL0     C93604   7.802   2.588   9.188 -0.1663 -0.8303  1.2408
  679MOL0     C93605   7.954   2.586   9.217  0.6593 -0.4911 -1.3661
  679MOL0     C93606   8.016   2.463   9.160  0.4222  0.3283  0.4550
  679MOL0     C93607   8.160   2.443   9.217 -0.7268  0.8690  0.0691
  679MOL0     C93608   8.228   2.336   9.137 -0.0003  0.8191  0.0306
  679MOL0    Cl93609   8.384   2.303   9.224 -0.2097 -1.0035  0.0157
  679MOL0     C93610   7.548   2.969   9.602 -0.4493  0.3764 -0.5296
  679MOL0     C93611   7.601   3.037   9.711 -0.5479  0.3075  0.3963
  679MOL0     O93612   7.911   2.968   9.812  0.0137 -0.1426  0.9112
  679MOL0     C93613   8.107   3.107   9.951  0.7284 -0.3158  0.3537
  679MOL0     C93614   8.196   3.158  10.037 -0.1714  0.2357 -0.2949
  679MOL0     N93615   8.705   3.544  10.403 -0.0381  0.1206 -0.0448
  679MOL0     N93616   8.750   3.657  10.350 -0.4889 -0.0816  0.1825
  679MOL0     C93617   8.848   4.010   9.470 -0.2983  0.5158  0.4060
  679MOL0     C93618   8.808   3.974   9.339 -0.8786  0.1606 -1.1676
  679MOL0     C93619   8.719   4.041   8.889  1.4542  0.3513 -0.3342
  679MOL0     C93620   8.680   3.901   8.902  0.3137 -1.0093 -0.2171
  679MOL0     C93621   8.601   3.837   8.806 -0.6114 -0.3461  0.3889
  679MOL0     C93622   8.566   3.903   8.689  0.4034  0.1685 -0.3957
  679MOL0     O93623   8.483   3.835   8.607  0.0695 -0.6253  0.2561
  679MOL0     C93624   8.430   3.895   8.481 -0.7419  0.6730  0.9750
  679MOL0     C93625   8.369   3.792   8.399  0.0262 -0.1068  0.1718
  679MOL0     C93626   8.331   3.834   8.259  0.1597  0.3414  0.3066
  679MOL0     C93627   8.243   3.961   8.254 -1.0418  0.3777  0.6450
  679MOL0     C93628   8.228   4.006   8.111  0.5000 -0.9485 -1.2992
  679MOL0     C93629   8.196   4.065   8.012 -0.2495 -0.4966  0.2828
  679MOL0     C93630   8.613   4.033   8.659  0.1989  0.7502 -0.0902
  679MOL0     C93631   8.691   4.097   8.764  0.6345 -0.5144 -0.0096
  679MOL0     C93632   8.747   4.234   8.722  0.5833  0.2410  0.4043
  679MOL0     H93633   8.931   4.251   9.188 -0.2632 -1.2706 -0.1558
  679MOL0     H93634   8.997   4.305   9.407 -3.8610  1.2581  2.3910
  679MOL0     H93635   8.933   4.343   9.688  0.6586  0.6767  0.6443
  679MOL0     H93636   9.087   4.313   9.609 -0.8876  3.0194 -0.0653
  679MOL0     H93637   9.182   4.219   9.801  1.0809  0.9465 -1.8157
  679MOL0     H93638   9.071   4.348   9.866  0.5001 -0.8348  1.5265
  679MOL0     H93639   8.905   4.146   9.874  0.8506  2.7194 -0.2429
  679MOL0     H93640   9.025   4.036   9.863 -0.9173 -1.7783 -0.0619
  679MOL0     H93641   9.156   4.156  10.035 -0.1607 -3.2933 -1.3803
  679MOL0     H93642   9.006   4.238  10.105 -0.9928 -2.4644  0.8693
  679MOL0     H93643   9.062   4.047  10.230 -1.0236  0.6900  0.1909
  679MOL0     H93644   9.070   3.951  10.087 -0.5862 -0.5683 -0.5363
  679MOL0     H93645   8.828   4.122  10.204 -3.3090 -1.1741 -1.2946
  679MOL0     H93646   8.806   4.024  10.064 -0.7023 -1.9214  0.8829
  679MOL0     H93647   8.912   3.910  10.313  0.0235 -1.0676  1.3166
  679MOL0     H93648   8.844   3.827  10.164  1.5442 -0.0880  0.8607
  679MOL0     H93649   8.691   3.976  10.389  0.1933  0.7712  0.6981
  679MOL0     H93650   8.622   3.930  10.236 -0.7025  1.6591  0.6723
  679MOL0     H93651   8.482   3.791  10.451  0.3089  1.5871 -0.9820
  679MOL0     H93652   8.428   3.542  10.613 -0.2289 -0.5798 -0.2532
  679MOL0     H93653   8.548   3.414  10.580 -1.0677 -0.6900  2.4629
  679MOL0     H93654   8.319   3.377  10.495  0.7701 -0.7270  1.1593
  679MOL0     H93655   8.353   3.508  10.371 -3.9541 -3.4749 -0.9565
  679MOL0     H93656   8.565   3.363  10.316  0.7356 -0.2574 -0.8143
  679MOL0     H93657   8.460   3.237  10.382 -1.6961 -0.0860  0.1375
  679MOL0     H93658   8.391   3.415  10.153 -0.3786 -0.7914  1.4048
  679MOL0     H93659   8.430   3.235  10.149 -1.0523 -2.1015 -0.2767
  679MOL0     H93660   7.997   3.299  10.258  0.3649 -0.2448 -1.1034
  679MOL0     H93661   7.773   3.276  10.199  0.4245 -0.2164 -0.3606
  679MOL0     H93662   7.746   3.114  10.167  0.2707  1.2728  1.1027
  679MOL0     H93663   7.721   3.237  10.037 -1.4509 -1.9703 -0.8779
  679MOL0     H93664   7.880   3.157   9.555 -0.1508  0.7352 -1.7171
  679MOL0     H93665   7.787   3.057   9.369  0.1311  0.3304  0.9410
  679MOL0     H93666   7.555   2.727   9.498  1.7925 -0.8608 -0.2615
  679MOL0     H93667   7.406   2.762   9.407 -0.0296 -2.1934  1.5468
  679MOL0     H93668   7.542   2.588   9.262 -0.2718  0.2854 -5.3083
  679MOL0     H93669   7.562   2.749   9.187 -0.7744  0.3799 -0.5240
  679MOL0     H93670   7.753   2.608   9.386  2.9488 -1.5004 -0.9737
  679MOL0     H93671   7.781   2.762   9.320 -1.8343  1.1453 -1.0506
  679MOL0     H93672   7.791   2.627   9.086 -0.8562 -0.9764  1.2574
  679MOL0     H93673   7.770   2.483   9.186  5.4234 -2.9387 -2.3271
  679MOL0     H93674   7.998   2.685   9.203  1.6220  0.1865  4.2995
  679MOL0     H93675   7.964   2.561   9.323 -0.9041 -1.4468 -1.4113
  679MOL0     H93676   8.017   2.480   9.052 -1.2914  1.7160  0.6094
  679MOL0     H93677   7.967   2.370   9.189  2.2645 -2.0032 -3.2086
  679MOL0     H93678   8.173   2.410   9.320  0.9020 -2.9959 -1.1981
  679MOL0     H93679   8.214   2.536   9.199 -0.8128  0.6618 -1.3333
  679MOL0     H93680   8.260   2.372   9.039  2.1368 -2.0020 -0.4425
  679MOL0     H93681   8.172   2.242   9.132  1.5882 -0.2072 -4.9812
  679MOL0     H93682   7.454   2.917   9.616 -1.1396  1.9853  1.1422
  679MOL0     H93683   7.557   3.030   9.810 -0.1394 -1.9316  0.4763
  679MOL0     H93684   8.138   3.051   9.863  1.1818  2.6691 -1.5247
  679MOL0     H93685   8.299   3.129  10.021 -0.0223  0.9683 -0.7059
  679MOL0     H93686   8.836   3.933   9.545  0.4761  2.0180  2.1543
  679MOL0     H93687   8.764   3.875   9.329  2.7814 -1.4922 -2.7216
  679MOL0     H93688   8.718   3.845   8.987 -2.0128  1.4776  2.6923
  679MOL0     H93689   8.573   3.733   8.811 -2.6640  0.1548 -0.0689
  679MOL0     H93690   8.364   3.980   8.503  1.3814  2.7226 -0.0636
  679MOL0     H93691   8.518   3.935   8.430  0.8169 -1.6889  1.6715
  679MOL0     H93692   8.283   3.753   8.453  0.3249  0.3345  0.9927
  679MOL0     H93693   8.444   3.713   8.394  0.0527 -0.0965  0.4107
  679MOL0     H93694   8.417   3.855   8.195 -0.0812  0.4157  0.0071
  679MOL0     H93695   8.275   3.752   8.214  0.4460  0.0305  0.5099
  679MOL0     H93696   8.282   4.041   8.317 -0.2958  0.5781 -0.0647
  679MOL0     H93697   8.144   3.934   8.292 -0.2805 -0.6089  2.0589
  679MOL0     H93698   8.175   4.112   7.918 -2.8998  1.9687  1.8987
  679MOL0     H93699   8.601   4.078   8.561  3.7295 -0.5770 -1.2825
  679MOL0     H93700   8.784   4.244   8.620  0.8297  1.0053  0.5650
  679MOL0     H93701   8.670   4.308   8.741  2.2040  2.0215  0.3685
  679MOL0     H93702   8.841   4.251   8.776  0.4946  2.3978 -0.0448
  680MOL0     O93703   2.311   2.390   9.525 -0.0734 -0.3358 -0.6335
  680MOL0     C93704   2.229   2.396   9.618 -0.5453 -0.1002 -0.2393
  680MOL0     O93705   2.246   2.456   9.743  0.5255  0.3147  0.0143
  680MOL0     C93706   2.350   2.537   9.772 -0.7779  0.6593 -0.2587
  680MOL0     C93707   2.358   2.577   9.911 -0.5661  0.4636 -0.0235
  680MOL0     C93708   2.434   2.687   9.951 -0.5153  1.2976  0.4834
  680MOL0     C93709   2.521   2.752   9.861  0.3069  0.1315 -0.2884
  680MOL0     O93710   2.601   2.854   9.900 -0.4380  0.5751  0.4140
  680MOL0     C93711   2.742   2.846   9.861 -0.4936  0.6376  0.2227
  680MOL0     C93712   2.828   2.954   9.918 -1.2253  1.0423 -0.8770
  680MOL0     C93713   2.981   2.940   9.888  0.0979  0.2476 -0.8663
  680MOL0     C93714   3.045   2.806   9.889 -0.3553 -0.3708 -0.8462
  680MOL0     C93715   3.196   2.804   9.855 -0.0336 -0.1479  0.3727
  680MOL0     C93716   3.276   2.686   9.910  0.2962  0.9280  0.6326
  680MOL0     C93717   3.243   2.541   9.840  0.2946  0.0510  0.5245
  680MOL0     C93718   3.309   2.438   9.929 -0.9100 -0.6000 -0.2524
  680MOL0     N93719   3.459   2.452   9.928  0.2700 -0.1567 -0.0170
  680MOL0     C93720   3.518   2.380   9.830  0.2381  0.1866 -0.4092
  680MOL0     C93721   3.641   2.351   9.858  0.5408  1.2444  0.2526
  680MOL0     C93722   3.741   2.281   9.760  0.6852 -0.2322  0.1108
  680MOL0     C93723   3.872   2.262   9.829  0.6501 -0.2615  0.2443
  680MOL0     C93724   3.864   2.163   9.939  0.5944  0.8570 -0.5184
  680MOL0     C93725   3.993   2.099   9.973 -1.7424 -0.0216 -0.2766
  680MOL0     O93726   3.973   1.986  10.063  0.6028 -0.3841  0.3737
  680MOL0     C93727   4.072   1.948  10.146 -0.1873 -0.5592 -0.2627
  680MOL0     C93728   4.210   1.949  10.102 -0.2570 -0.0662 -0.2715
  680MOL0     C93729   4.307   1.900  10.192 -0.7259 -0.3069  0.9898
  680MOL0     C93730   4.453   1.918  10.154  0.4894 -0.0504 -0.0271
  680MOL0     C93731   4.265   1.848  10.317  0.8808  1.9771  0.2211
  680MOL0     C93732   4.347   1.762  10.413  0.3272 -0.1257  0.8280
  680MOL0     O93733   4.349   1.799  10.541  0.4964  0.0878 -0.1457
  680MOL0     C93734   4.433   1.725  10.623 -0.3664 -0.1927 -0.4012
  680MOL0     C93735   4.569   1.703  10.605  0.4673  0.2057 -0.2610
  680MOL0     C93736   4.646   1.657  10.707 -0.1038  0.9629  0.4147
  680MOL0     C93737   4.587   1.614  10.829 -0.0673 -0.0398  0.5956
  680MOL0     O93738   4.668   1.552  10.923  1.0633 -0.6986 -0.6111
  680MOL0     C93739   4.643   1.410  10.948  0.4221  0.2007  1.0337
  680MOL0     C93740   4.767   1.333  10.998 -0.3056  0.1760 -0.9506
  680MOL0     C93741   4.889   1.348  10.903  0.8095  0.0372 -0.2572
  680MOL0     C93742   4.870   1.320  10.760  0.8363 -0.4829 -0.0748
  680MOL0     C93743   4.873   1.177  10.710  0.1027  0.6438 -0.1110
  680MOL0     C93744   4.880   1.170  10.554 -0.2912  0.4439  0.5328
  680MOL0     C93745   4.867   1.029  10.498  0.6531 -0.5354 -0.4453
  680MOL0     C93746   4.872   1.017  10.344 -0.6398 -0.3892  0.5250
  680MOL0    Cl93747   5.043   1.017  10.295 -0.2190 -0.0248  0.4485
  680MOL0     C93748   4.448   1.627  10.843 -0.2968 -0.0938 -0.0254
  680MOL0     C93749   4.368   1.678  10.736  0.2982  1.0883 -0.3903
  680MOL0     O93750   4.407   1.661  10.370 -0.4700 -0.8820 -0.0840
  680MOL0     C93751   4.127   1.842  10.343 -0.1881 -0.1367 -0.3720
  680MOL0     C93752   4.030   1.896  10.269 -0.3120  0.4012  0.5661
  680MOL0     N93753   3.666   2.409   9.983 -0.5842 -0.0674 -0.5383
  680MOL0     N93754   3.551   2.467  10.033 -0.0707  0.2162  0.2742
  680MOL0     C93755   2.514   2.705   9.729  0.1467  0.4089 -1.0317
  680MOL0     C93756   2.431   2.606   9.686  0.4087 -0.5547  0.2460
  680MOL0     C93757   2.106   2.319   9.600  0.2492  0.7525 -0.3435
  680MOL0     C93758   2.098   2.233   9.485 -0.7884 -1.3178  0.1642
  680MOL0     C93759   1.980   2.161   9.456 -1.3843  0.5057 -0.0381
  680MOL0     C93760   1.868   2.171   9.537  1.1900 -0.1985 -1.1450
  680MOL0     O93761   1.749   2.107   9.511 -0.0183  0.0984  0.4151
  680MOL0     C93762   1.621   2.166   9.546 -1.3127 -0.5280  1.3365
  680MOL0     C93763   1.486   2.101   9.488 -0.5848  0.1133  0.7943
  680MOL0     C93764   1.363   2.185   9.531 -0.2151  1.1177 -0.2799
  680MOL0     C93765   1.221   2.119   9.492  0.4841  0.2340  0.6078
  680MOL0     C93766   1.210   2.085   9.353  0.9023  0.3194 -0.3314
  680MOL0     C93767   1.202   2.063   9.237  0.0012 -0.2015 -0.3153
  680MOL0     C93768   1.867   2.243   9.654  0.4977  0.5122 -0.5189
  680MOL0     C93769   1.989   2.310   9.685  0.5522  1.0426 -0.1230
  680MOL0     C93770   1.991   2.370   9.828 -0.1596  0.3609 -0.4603
  680MOL0     H93771   2.298   2.531   9.989 -2.5308  0.4914 -1.4425
  680MOL0     H93772   2.426   2.726  10.051 -1.9825  2.2489  0.0240
  680MOL0     H93773   2.758   2.847   9.753 -2.1905 -2.5418 -0.1679
  680MOL0     H93774   2.780   2.748   9.894  0.0797  0.5212 -0.7582
  680MOL0     H93775   2.801   3.058   9.901  0.7321  2.4653  3.4062
  680MOL0     H93776   2.813   2.955  10.026  2.4868 -3.4689  0.0480
  680MOL0     H93777   3.006   2.967   9.785  0.0728 -0.6688 -1.1215
  680MOL0     H93778   3.033   2.999   9.964 -0.7548 -2.4678  1.9914
  680MOL0     H93779   3.037   2.769   9.992  0.4377 -0.2711 -0.7443
  680MOL0     H93780   3.002   2.727   9.826  2.2455 -1.6751 -1.1432
  680MOL0     H93781   3.243   2.888   9.907 -0.3844  0.5454 -0.4127
  680MOL0     H93782   3.207   2.832   9.750  0.0035  0.5348  0.5531
  680MOL0     H93783   3.380   2.708   9.885  1.6149 -2.0194  2.8396
  680MOL0     H93784   3.264   2.675  10.019  2.6231 -3.4071  0.6663
  680MOL0     H93785   3.276   2.537   9.736  0.6071 -4.0866  0.5865
  680MOL0     H93786   3.135   2.524   9.843  0.3914 -0.4920  2.6005
  680MOL0     H93787   3.268   2.450  10.030  2.4150 -2.4121  1.4889
  680MOL0     H93788   3.267   2.343   9.896 -4.0463  0.4887  0.2115
  680MOL0     H93789   3.460   2.362   9.740 -2.5271  2.0810  0.8575
  680MOL0     H93790   3.748   2.357   9.682  1.1747  2.1259  2.3083
  680MOL0     H93791   3.706   2.181   9.730 -3.0772  0.2167  2.2966
  680MOL0     H93792   3.938   2.227   9.749 -1.5400 -1.2363 -1.2357
  680MOL0     H93793   3.903   2.359   9.870  2.1151 -1.0862  1.1940
  680MOL0     H93794   3.828   2.207  10.033  2.5207  0.2911  0.5525
  680MOL0     H93795   3.792   2.087   9.911  0.5378  0.2212  1.2331
  680MOL0     H93796   4.039   2.054   9.885  0.0789 -2.1254  1.6317
  680MOL0     H93797   4.063   2.175  10.008 -1.0510 -0.2150 -1.2125
  680MOL0     H93798   4.241   1.989  10.006  0.3340 -0.2417 -0.1563
  680MOL0     H93799   4.475   2.022  10.129 -1.4121  0.0164 -1.7725
  680MOL0     H93800   4.478   1.856  10.067  1.1910  2.3590 -1.6673
  680MOL0     H93801   4.518   1.885  10.235 -0.1528 -1.8941 -0.2034
  680MOL0     H93802   4.616   1.741  10.515  0.5685 -0.1920 -0.3785
  680MOL0     H93803   4.754   1.648  10.711 -0.2512 -1.0061  3.1850
  680MOL0     H93804   4.567   1.404  11.026  1.6018  1.4904  2.3258
  680MOL0     H93805   4.599   1.369  10.857  0.6288 -0.3008  1.1579
  680MOL0     H93806   4.799   1.367  11.097  0.7055  2.8747 -2.1184
  680MOL0     H93807   4.733   1.229  11.007 -0.4644  0.4130  4.0742
  680MOL0     H93808   4.971   1.292  10.949  0.1534  0.5617  1.5985
  680MOL0     H93809   4.920   1.452  10.903  2.2113 -0.3468  0.7880
  680MOL0     H93810   4.937   1.379  10.697  1.2969 -0.8959  0.0278
  680MOL0     H93811   4.767   1.351  10.737  0.9411  0.3413  0.5223
  680MOL0     H93812   4.964   1.132  10.750  0.8652  0.0722 -2.3051
  680MOL0     H93813   4.779   1.128  10.737 -2.3992  3.6597 -2.5429
  680MOL0     H93814   4.983   1.201  10.530  1.3208 -3.0617  2.2209
  680MOL0     H93815   4.802   1.232  10.509 -1.0467 -0.1212  1.0522
  680MOL0     H93816   4.775   0.986  10.538  1.7873  0.1641  3.3241
  680MOL0     H93817   4.940   0.961  10.542  0.6328  0.6442  1.4883
  680MOL0     H93818   4.814   1.100  10.304 -0.9931  0.9696  3.5934
  680MOL0     H93819   4.835   0.919  10.312 -0.0857 -0.1638 -0.9147
  680MOL0     H93820   4.399   1.592  10.934 -0.6315  1.4285  0.4137
  680MOL0     H93821   4.261   1.698  10.748  0.0989  3.2455 -4.1677
  680MOL0     H93822   4.107   1.784  10.432  0.2689 -1.1638 -0.9230
  680MOL0     H93823   3.923   1.890  10.290 -1.0636 -3.6350 -2.8924
  680MOL0     H93824   2.581   2.756   9.659  1.5289  0.1752  0.0684
  680MOL0     H93825   2.425   2.580   9.581 -2.9914  0.5669  0.0073
  680MOL0     H93826   2.178   2.230   9.412  0.6839  1.7899  1.4657
  680MOL0     H93827   1.984   2.089   9.375  1.8242  0.1470  0.2891
  680MOL0     H93828   1.626   2.173   9.655  4.4676 -0.6609  1.3924
  680MOL0     H93829   1.625   2.271   9.514  3.3358 -1.4890 -2.2291
  680MOL0     H93830   1.470   1.998   9.520  0.5735 -0.2319  0.3109
  680MOL0     H93831   1.494   2.095   9.379  0.0517  2.3400  0.6811
  680MOL0     H93832   1.356   2.199   9.639 -0.1654  2.4628 -0.4337
  680MOL0     H93833   1.378   2.286   9.492  2.1004  0.5732 -0.9848
  680MOL0     H93834   1.141   2.182   9.531 -0.8139 -1.1580  0.2780
  680MOL0     H93835   1.209   2.024   9.546 -0.6928 -0.5208 -0.8976
  680MOL0     H93836   1.222   2.037   9.135  0.5408 -0.7860 -0.0661
  680MOL0     H93837   1.791   2.235   9.731 -1.3652  1.9512 -2.0909
  680MOL0     H93838   1.998   2.479   9.837 -0.0366  0.1621  3.5827
  680MOL0     H93839   1.903   2.345   9.888  0.3617 -0.5816 -0.0822
  680MOL0     H93840   2.071   2.321   9.883 -0.4835 -1.3366 -1.4199
  681MOL0     O93841   4.749   4.973   0.659  0.3418 -0.4813  0.3293
  681MOL0     C93842   4.770   5.071   0.587  0.7798 -0.3481  0.2866
  681MOL0     O93843   4.849   5.070   0.477 -0.7870 -0.2258  0.8996
  681MOL0     C93844   4.914   4.960   0.437  0.0015 -0.3173  0.0561
  681MOL0     C93845   5.055   4.946   0.449  1.0336 -0.0598 -0.2485
  681MOL0     C93846   5.124   4.831   0.408  0.2133  0.1713  0.3643
  681MOL0     C93847   5.051   4.722   0.357  0.3658  0.4044 -0.2125
  681MOL0     O93848   5.123   4.609   0.319  0.2994 -0.1805  0.2338
  681MOL0     C93849   5.073   4.542   0.192 -0.2576  0.6535 -0.1115
  681MOL0     C93850   5.177   4.443   0.137 -0.3593  0.8614 -1.1713
  681MOL0     C93851   5.291   4.527   0.073  0.0162 -0.5556 -0.8480
  681MOL0     C93852   5.399   4.427   0.022 -0.0456  0.9765  0.9094
  681MOL0     C93853   5.360   4.380  -0.113  1.1036  0.0244  0.4872
  681MOL0     C93854   5.455   4.293  -0.191 -0.9715  0.6986 -0.0695
  681MOL0     C93855   5.573   4.371  -0.256 -0.3091 -0.2248  0.4339
  681MOL0     C93856   5.532   4.471  -0.370 -0.0632  0.1274  0.2657
  681MOL0     N93857   5.466   4.398  -0.482  0.5970 -0.5313 -0.1532
  681MOL0     C93858   5.526   4.313  -0.573  0.2414 -0.9430 -0.0073
  681MOL0     C93859   5.428   4.278  -0.656  0.3562  0.8129  0.0212
  681MOL0     C93860   5.436   4.160  -0.751 -0.0332 -0.8363  0.7665
  681MOL0     C93861   5.492   4.027  -0.694 -0.7294  0.5100 -0.0246
  681MOL0     C93862   5.502   3.909  -0.791 -0.1040  1.4794  0.0392
  681MOL0     C93863   5.542   3.769  -0.731 -0.7032 -0.5795  0.0617
  681MOL0     O93864   5.664   3.761  -0.659  0.9098 -0.3526  0.6333
  681MOL0     C93865   5.665   3.804  -0.525  0.7603 -0.3513 -0.6312
  681MOL0     C93866   5.786   3.826  -0.464 -0.2071  0.4839  0.7240
  681MOL0     C93867   5.812   3.869  -0.328  0.4190  0.5684  1.0054
  681MOL0     C93868   5.959   3.878  -0.277  0.0538 -0.8551  0.7841
  681MOL0     C93869   5.694   3.888  -0.247 -0.0605 -0.7592  1.1628
  681MOL0     C93870   5.702   3.908  -0.103 -0.6266 -0.3557  0.3545
  681MOL0     O93871   5.585   3.930  -0.042  0.4257 -0.1246 -0.2437
  681MOL0     C93872   5.576   3.983   0.084  0.6899 -0.3487 -0.0104
  681MOL0     C93873   5.622   4.112   0.118  0.4073  0.3016 -0.4934
  681MOL0     C93874   5.599   4.155   0.245  0.7229  0.3160  0.0031
  681MOL0     C93875   5.535   4.076   0.348  0.6361  0.2874  0.3076
  681MOL0     O93876   5.522   4.127   0.479 -0.4767  0.4638 -0.1363
  681MOL0     C93877   5.598   4.247   0.517 -0.2936 -0.3297  0.7292
  681MOL0     C93878   5.577   4.283   0.668 -0.1090 -0.3709 -0.1807
  681MOL0     C93879   5.651   4.405   0.713 -0.4184  0.9642  0.1347
  681MOL0     C93880   5.652   4.399   0.867  0.2478  1.4987  0.2629
  681MOL0     C93881   5.716   4.526   0.912 -0.5066  0.7567  0.2334
  681MOL0     C93882   5.677   4.546   1.061 -0.1869 -0.9411  0.3744
  681MOL0     C93883   5.780   4.611   1.150  0.7306 -0.3005 -0.1180
  681MOL0     C93884   5.769   4.586   1.298 -0.3595  0.9465 -1.1181
  681MOL0    Cl93885   5.789   4.415   1.340 -0.0362 -0.1790 -0.2534
  681MOL0     C93886   5.495   3.948   0.316 -1.0019  0.3841 -0.8626
  681MOL0     C93887   5.525   3.907   0.184 -0.8791  0.7152 -0.2846
  681MOL0     O93888   5.815   3.925  -0.054  0.5534  0.2733  0.0317
  681MOL0     C93889   5.573   3.843  -0.304  0.5718 -0.0258 -1.1674
  681MOL0     C93890   5.555   3.813  -0.433 -0.5522  0.2020 -0.0485
  681MOL0     N93891   5.310   4.344  -0.623 -0.4568  0.2450 -0.1107
  681MOL0     N93892   5.338   4.405  -0.511  0.1522  1.2998  0.1231
  681MOL0     C93893   4.912   4.724   0.366  0.1503  0.4987 -0.2741
  681MOL0     C93894   4.842   4.842   0.409  0.5928 -0.3821  0.6580
  681MOL0     C93895   4.704   5.197   0.621  0.1132 -0.6221  1.0851
  681MOL0     C93896   4.747   5.315   0.562 -0.3941 -0.5015 -0.5631
  681MOL0     C93897   4.687   5.441   0.580 -0.5725  0.3947 -0.1236
  681MOL0     C93898   4.578   5.452   0.665  0.2293 -1.1932 -0.0408
  681MOL0     O93899   4.524   5.578   0.669  0.2812  0.4655  0.5512
  681MOL0     C93900   4.553   5.646   0.791 -1.6814  0.3680  0.1306
  681MOL0     C93901   4.702   5.660   0.830 -0.4454  0.0229 -0.3409
  681MOL0     C93902   4.719   5.716   0.970 -0.0389 -1.2624  0.7838
  681MOL0     C93903   4.857   5.724   1.027  0.1772 -0.3023 -0.6304
  681MOL0     C93904   4.835   5.741   1.168 -0.3784  0.0441 -0.4268
  681MOL0     C93905   4.828   5.762   1.284  0.4685  0.5131  0.5901
  681MOL0     C93906   4.534   5.342   0.733 -0.1436  0.3825  0.2051
  681MOL0     C93907   4.590   5.214   0.707 -0.6640  0.2045 -0.8293
  681MOL0     C93908   4.529   5.102   0.791 -0.0585  0.0785 -0.0426
  681MOL0     H93909   5.117   5.030   0.478  1.1917 -0.3725  0.3226
  681MOL0     H93910   5.233   4.825   0.412  0.2373 -5.8125  0.8319
  681MOL0     H93911   5.049   4.615   0.115  1.3320  1.6271  0.2760
  681MOL0     H93912   4.984   4.481   0.214  0.8079 -0.8717  0.1349
  681MOL0     H93913   5.212   4.375   0.215 -3.5216  1.2486  0.7661
  681MOL0     H93914   5.134   4.378   0.060 -1.3127  0.3923 -0.2635
  681MOL0     H93915   5.249   4.591  -0.004 -0.6604  1.6423  1.2366
  681MOL0     H93916   5.334   4.591   0.150 -0.0783 -1.1686 -0.2723
  681MOL0     H93917   5.488   4.486  -0.000 -0.0687  0.8930  0.5977
  681MOL0     H93918   5.410   4.342   0.090 -1.1330 -0.2995 -0.4652
  681MOL0     H93919   5.327   4.463  -0.177  2.3395  1.7631  2.0068
  681MOL0     H93920   5.270   4.319  -0.100  0.5682  1.0483  1.7395
  681MOL0     H93921   5.497   4.214  -0.127  1.6381  2.5437  0.6612
  681MOL0     H93922   5.398   4.233  -0.262 -0.8147  1.5009 -0.8859
  681MOL0     H93923   5.648   4.301  -0.293 -0.6400  0.1392 -0.9947
  681MOL0     H93924   5.623   4.429  -0.178 -1.7144 -1.2825  2.1924
  681MOL0     H93925   5.461   4.543  -0.331 -0.5380 -1.0875  1.7396
  681MOL0     H93926   5.621   4.523  -0.407  0.6209 -0.7941  0.5750
  681MOL0     H93927   5.628   4.280  -0.563  0.3605 -0.1618  1.8357
  681MOL0     H93928   5.496   4.187  -0.838  0.7111  0.4222  1.6476
  681MOL0     H93929   5.329   4.160  -0.777  0.2715  3.7056 -1.4339
  681MOL0     H93930   5.589   4.046  -0.645 -0.1767 -1.6783 -0.1881
  681MOL0     H93931   5.418   4.002  -0.618 -1.7841  0.1943 -1.1435
  681MOL0     H93932   5.398   3.892  -0.821 -0.1918  1.4152  0.3783
  681MOL0     H93933   5.568   3.919  -0.878  0.2096 -0.4640 -0.0062
  681MOL0     H93934   5.465   3.736  -0.660  0.1970 -2.0000  0.4078
  681MOL0     H93935   5.525   3.701  -0.815 -2.4304  0.8463 -0.8208
  681MOL0     H93936   5.873   3.808  -0.528 -0.5281 -3.2497  1.0833
  681MOL0     H93937   6.028   3.857  -0.359 -0.8095  0.9060 -0.4700
  681MOL0     H93938   5.973   3.812  -0.191 -2.0781  1.6725  3.3013
  681MOL0     H93939   5.969   3.978  -0.234  1.7285 -0.3131 -0.7544
  681MOL0     H93940   5.663   4.179   0.044  1.2993  1.5129  1.0288
  681MOL0     H93941   5.623   4.258   0.268  0.9644  0.1547  0.5021
  681MOL0     H93942   5.705   4.225   0.511 -0.5974 -1.5358 -1.0891
  681MOL0     H93943   5.581   4.334   0.452  3.3073 -0.9071 -1.2890
  681MOL0     H93944   5.472   4.307   0.686  0.5875  2.5397  0.5016
  681MOL0     H93945   5.606   4.200   0.734 -1.0167 -0.8128 -0.3188
  681MOL0     H93946   5.590   4.488   0.674  0.6528  1.1538 -1.1898
  681MOL0     H93947   5.749   4.423   0.668 -0.5714  0.1199 -0.5431
  681MOL0     H93948   5.705   4.319   0.920  0.6925  0.0910 -2.1624
  681MOL0     H93949   5.549   4.372   0.893  0.7965 -1.7484 -0.4096
  681MOL0     H93950   5.825   4.525   0.902 -0.3920  0.1417  1.3211
  681MOL0     H93951   5.700   4.606   0.839  0.5125 -1.4895 -2.6467
  681MOL0     H93952   5.665   4.447   1.106 -1.8656 -2.5071 -3.1107
  681MOL0     H93953   5.582   4.600   1.069  0.6054  0.7539 -1.0372
  681MOL0     H93954   5.760   4.717   1.135 -1.5561 -0.2190  2.7178
  681MOL0     H93955   5.875   4.569   1.116 -0.6354 -4.5717  0.7159
  681MOL0     H93956   5.670   4.612   1.339  0.3893 -0.4528  1.8742
  681MOL0     H93957   5.835   4.649   1.358  2.4394 -2.2186 -0.6252
  681MOL0     H93958   5.444   3.878   0.381 -3.8889  0.9337 -2.3169
  681MOL0     H93959   5.488   3.807   0.162 -0.5183  0.1645  1.4797
  681MOL0     H93960   5.483   3.847  -0.242  2.4465 -4.2850  2.3317
  681MOL0     H93961   5.452   3.793  -0.462 -0.7055  2.3436 -1.1307
  681MOL0     H93962   4.861   4.631   0.343  1.2441 -0.3688  0.6728
  681MOL0     H93963   4.735   4.852   0.404  0.8498  2.9029 -0.4639
  681MOL0     H93964   4.843   5.308   0.512  1.9640 -0.2678  3.4693
  681MOL0     H93965   4.732   5.535   0.548 -3.7779  1.8974 -0.5877
  681MOL0     H93966   4.506   5.744   0.773 -1.1104  0.5914 -0.1565
  681MOL0     H93967   4.505   5.594   0.874 -1.4226 -2.0336 -1.1194
  681MOL0     H93968   4.747   5.734   0.764 -0.7177  0.6167  0.1294
  681MOL0     H93969   4.752   5.566   0.808  0.3554  0.4043 -0.1759
  681MOL0     H93970   4.691   5.821   0.954 -0.8786 -1.9033 -2.8012
  681MOL0     H93971   4.656   5.659   1.038 -1.3064  2.2002  2.8073
  681MOL0     H93972   4.916   5.807   0.989 -2.2327  1.9581  0.2648
  681MOL0     H93973   4.907   5.631   0.999 -1.3576 -1.1800 -0.5870
  681MOL0     H93974   4.827   5.787   1.388 -0.8296 -0.6677  0.8809
  681MOL0     H93975   4.453   5.351   0.805  0.4610  0.8622  0.8478
  681MOL0     H93976   4.446   5.138   0.853  1.7628  1.4648  1.7405
  681MOL0     H93977   4.487   5.022   0.730  0.1567  1.1234 -1.6259
  681MOL0     H93978   4.608   5.076   0.863 -1.6326  2.5015  2.7951
  682MOL0     O93979   8.217   6.635   4.960 -0.5594 -0.7966  0.8012
  682MOL0     C93980   8.221   6.538   4.887  0.5804 -0.6041  0.4908
  682MOL0     O93981   8.178   6.533   4.757  0.1696  0.1043 -0.6400
  682MOL0     C93982   8.139   6.651   4.692  0.7901  0.0067 -0.3975
  682MOL0     C93983   8.212   6.768   4.704  0.3860  0.5147  0.1952
  682MOL0     C93984   8.169   6.884   4.642  0.3341  0.4144 -0.4175
  682MOL0     C93985   8.046   6.882   4.575  0.5652  0.4435 -0.1903
  682MOL0     O93986   7.989   6.992   4.517  0.3906 -0.4421 -0.3680
  682MOL0     C93987   8.083   7.071   4.440 -0.4888  0.5154 -0.0796
  682MOL0     C93988   7.998   7.169   4.359 -0.0049  0.1202  0.4111
  682MOL0     C93989   7.879   7.120   4.280  0.3706 -0.8375  0.4194
  682MOL0     C93990   7.913   7.009   4.174 -0.4314 -0.4445 -0.5807
  682MOL0     C93991   7.786   6.924   4.135 -0.7120  0.7266  0.1224
  682MOL0     C93992   7.742   6.804   4.221  0.0511  0.9151 -0.0225
  682MOL0     C93993   7.601   6.752   4.173 -1.0309  0.1778  0.7310
  682MOL0     C93994   7.592   6.723   4.018  0.6189  0.5277 -0.2863
  682MOL0     N93995   7.469   6.652   3.994  0.1073  0.6406 -0.1923
  682MOL0     C93996   7.432   6.538   4.065  0.0139  0.9147 -0.1115
  682MOL0     C93997   7.315   6.504   4.004  0.2136  0.0800  0.1100
  682MOL0     C93998   7.246   6.377   4.051 -0.5830 -0.3118  0.0546
  682MOL0     C93999   7.100   6.412   4.080 -0.1829  0.4032  0.0693
  682MOL0     C94000   7.001   6.301   4.115 -1.2255 -0.2791  0.8708
  682MOL0     C94001   7.027   6.226   4.253 -0.2642 -0.6939 -0.9226
  682MOL0     O94002   7.015   6.313   4.371 -0.5976 -1.0120 -0.2045
  682MOL0     C94003   6.911   6.396   4.398 -0.1943 -0.5373  0.3846
  682MOL0     C94004   6.783   6.341   4.425  0.5876 -0.1758  0.2343
  682MOL0     C94005   6.669   6.414   4.461  0.0324 -0.4765  0.4567
  682MOL0     C94006   6.540   6.345   4.494  0.0800 -0.0850 -0.0041
  682MOL0     C94007   6.687   6.560   4.465  1.3475  0.8121  0.1104
  682MOL0     C94008   6.586   6.659   4.492  0.2044 -0.6354 -0.8127
  682MOL0     O94009   6.449   6.628   4.464 -0.7907  0.2083 -0.0773
  682MOL0     C94010   6.360   6.726   4.459 -0.3026  0.1744  1.6070
  682MOL0     C94011   6.256   6.700   4.544  0.2627  0.2339  0.1851
  682MOL0     C94012   6.164   6.808   4.564 -0.2192  0.2444  0.2830
  682MOL0     C94013   6.170   6.932   4.491  0.4580 -0.2128  0.6402
  682MOL0     O94014   6.069   7.030   4.512 -0.1342 -0.2537 -0.3075
  682MOL0     C94015   6.089   7.153   4.445  0.9661  0.6701 -0.2281
  682MOL0     C94016   5.968   7.249   4.460  0.3175 -0.2973  0.0923
  682MOL0     C94017   5.854   7.193   4.377 -0.5895 -0.4642 -0.1575
  682MOL0     C94018   5.725   7.286   4.399 -0.5592  0.1818  0.2438
  682MOL0     C94019   5.602   7.243   4.320  0.2809  0.9523 -0.3701
  682MOL0     C94020   5.604   7.277   4.175  0.2286 -0.0680 -0.7945
  682MOL0     C94021   5.483   7.212   4.097  0.0945 -0.2238 -0.2813
  682MOL0     C94022   5.349   7.248   4.149 -0.8054  0.2677 -1.1580
  682MOL0    Cl94023   5.217   7.204   4.031  0.4525 -0.0784  0.3421
  682MOL0     C94024   6.280   6.950   4.399 -0.0712 -0.7230 -0.4396
  682MOL0     C94025   6.375   6.845   4.383  0.3132  0.8211 -0.5936
  682MOL0     O94026   6.621   6.779   4.521 -0.2531  0.0135 -0.2986
  682MOL0     C94027   6.817   6.611   4.426 -0.4939 -0.6244  0.1485
  682MOL0     C94028   6.927   6.530   4.403 -0.5495 -0.4480  0.9702
  682MOL0     N94029   7.286   6.594   3.906 -0.0147 -0.5487  0.4238
  682MOL0     N94030   7.383   6.671   3.886 -0.0072  0.7722 -0.1254
  682MOL0     C94031   7.984   6.761   4.543  0.5021  0.7185 -0.2372
  682MOL0     C94032   8.032   6.648   4.604  0.8036 -0.4304  0.1743
  682MOL0     C94033   8.282   6.415   4.951  0.4186 -1.0696  0.2748
  682MOL0     C94034   8.334   6.436   5.082  1.7347 -1.3047  0.2896
  682MOL0     C94035   8.384   6.332   5.154  0.4319  0.1505 -0.6503
  682MOL0     C94036   8.382   6.198   5.105 -0.0117  0.1814  0.1975
  682MOL0     O94037   8.427   6.084   5.169 -0.0537  0.3930 -0.5724
  682MOL0     C94038   8.574   6.075   5.167  0.3927  0.3229 -0.3986
  682MOL0     C94039   8.620   6.010   5.041 -0.1099 -0.9694 -1.1792
  682MOL0     C94040   8.662   6.127   4.939  0.0557  0.5896  0.4053
  682MOL0     C94041   8.687   6.078   4.795  0.4617  0.0171  0.4786
  682MOL0     C94042   8.566   6.058   4.718  0.2278  0.1676 -0.2368
  682MOL0     C94043   8.470   6.032   4.649  0.2363  0.6858  0.0575
  682MOL0     C94044   8.320   6.180   4.982  0.2679 -0.3474  0.2561
  682MOL0     C94045   8.273   6.281   4.907  0.9328  0.6951 -0.7518
  682MOL0     C94046   8.180   6.229   4.798 -0.1181  0.0642  0.4515
  682MOL0     H94047   8.306   6.765   4.759  1.3830  0.9977 -1.4190
  682MOL0     H94048   8.232   6.972   4.645  1.5430 -0.3637 -1.7753
  682MOL0     H94049   8.150   7.009   4.378 -0.1349  0.8755 -0.0627
  682MOL0     H94050   8.155   7.130   4.498  0.9646 -1.8824  0.7051
  682MOL0     H94051   7.976   7.256   4.421  1.3650  1.6874 -1.1720
  682MOL0     H94052   8.063   7.209   4.279  1.0442 -1.5269  0.3891
  682MOL0     H94053   7.812   7.069   4.349  0.6676 -2.1683 -0.2447
  682MOL0     H94054   7.828   7.204   4.231 -0.2365 -1.5690 -0.2207
  682MOL0     H94055   7.958   7.066   4.092 -0.2460  1.3608  0.7215
  682MOL0     H94056   7.998   6.949   4.206  0.1999  0.8641  0.2883
  682MOL0     H94057   7.803   6.881   4.036  0.7155  0.7252  0.3416
  682MOL0     H94058   7.700   6.989   4.119 -1.0030 -0.0244 -1.6244
  682MOL0     H94059   7.818   6.727   4.210 -0.8270 -0.3882  2.3965
  682MOL0     H94060   7.746   6.830   4.327  3.4656 -0.4798  0.2927
  682MOL0     H94061   7.522   6.823   4.196  0.3004  2.8130 -2.0134
  682MOL0     H94062   7.597   6.659   4.231  2.4089  0.1228  1.0801
  682MOL0     H94063   7.616   6.815   3.965  2.3644  0.7769  0.8226
  682MOL0     H94064   7.677   6.658   3.993  0.5363  1.4602 -3.4635
  682MOL0     H94065   7.475   6.477   4.143  0.8673  3.6850  1.7573
  682MOL0     H94066   7.288   6.303   4.120 -2.8492 -1.0598  0.7192
  682MOL0     H94067   7.237   6.309   3.965  0.5186  1.7805 -1.8456
  682MOL0     H94068   7.097   6.485   4.162  0.6259  0.7892 -0.2371
  682MOL0     H94069   7.051   6.457   3.993 -0.5625  1.9452  1.0456
  682MOL0     H94070   6.897   6.335   4.124 -2.1728 -2.5680 -0.5070
  682MOL0     H94071   7.002   6.231   4.031  2.8232 -1.3456  1.6272
  682MOL0     H94072   6.950   6.149   4.254 -1.5736  0.5423  0.5174
  682MOL0     H94073   7.131   6.192   4.262 -0.4151 -0.5936  2.7068
  682MOL0     H94074   6.773   6.234   4.410 -2.0579  0.0761 -0.3709
  682MOL0     H94075   6.554   6.239   4.470  0.7290  0.2301 -1.0796
  682MOL0     H94076   6.453   6.388   4.445 -0.3895  0.5986  1.3821
  682MOL0     H94077   6.519   6.356   4.601  0.2613  2.5058 -0.1726
  682MOL0     H94078   6.246   6.608   4.600 -0.0398  0.5821  0.7136
  682MOL0     H94079   6.069   6.806   4.617  0.4352 -1.5332  1.5088
  682MOL0     H94080   6.175   7.203   4.492  2.2628 -0.9549 -0.7688
  682MOL0     H94081   6.103   7.137   4.338 -0.2532 -1.4483 -0.1338
  682MOL0     H94082   5.943   7.264   4.565  2.1414  6.1129  0.0543
  682MOL0     H94083   5.992   7.351   4.426  0.7278  0.9280  3.6122
  682MOL0     H94084   5.829   7.090   4.407 -0.7822  0.4560  3.2774
  682MOL0     H94085   5.882   7.179   4.272 -1.0351 -2.7004 -0.0280
  682MOL0     H94086   5.762   7.385   4.369  2.3276 -0.8822 -0.0668
  682MOL0     H94087   5.702   7.293   4.506  0.9601 -0.0945  0.6083
  682MOL0     H94088   5.594   7.134   4.326 -0.0084  1.0408  2.5491
  682MOL0     H94089   5.511   7.283   4.367 -2.6670 -1.8068 -3.2077
  682MOL0     H94090   5.696   7.239   4.129 -1.1499 -1.2751 -2.6827
  682MOL0     H94091   5.600   7.386   4.162 -2.3169 -0.2200 -1.8653
  682MOL0     H94092   5.496   7.103   4.102 -0.4075 -0.2670  0.2195
  682MOL0     H94093   5.504   7.246   3.995  1.7340  0.9049  0.3866
  682MOL0     H94094   5.342   7.350   4.188  1.2959 -0.7298  2.3160
  682MOL0     H94095   5.317   7.196   4.240 -0.0439  0.8862 -0.5205
  682MOL0     H94096   6.284   7.040   4.339  0.2181  0.6947  1.6093
  682MOL0     H94097   6.459   6.866   4.318  0.8522 -0.5232 -0.3664
  682MOL0     H94098   6.826   6.719   4.436 -0.7500 -0.7327  1.9280
  682MOL0     H94099   7.030   6.564   4.401 -0.3171 -0.6161  4.1507
  682MOL0     H94100   7.900   6.751   4.475  1.1743 -0.2428 -0.9586
  682MOL0     H94101   7.969   6.564   4.575 -1.1097  0.9919 -0.0161
  682MOL0     H94102   8.337   6.532   5.133 -2.4447 -0.7437 -0.1763
  682MOL0     H94103   8.439   6.337   5.247 -1.7314 -2.6788  0.9502
  682MOL0     H94104   8.615   6.170   5.202  2.0310 -0.3339 -0.4823
  682MOL0     H94105   8.611   6.007   5.244 -0.9812  1.7181  1.6103
  682MOL0     H94106   8.540   5.955   4.989 -1.7727 -1.2534  1.4945
  682MOL0     H94107   8.706   5.950   5.072  0.3425  0.4970  0.5530
  682MOL0     H94108   8.592   6.211   4.943 -0.5254  0.1684 -0.5454
  682MOL0     H94109   8.755   6.176   4.971  0.0789  1.5427 -1.0085
  682MOL0     H94110   8.748   5.989   4.777 -1.8737 -1.2325 -2.0713
  682MOL0     H94111   8.745   6.163   4.758  0.7890  0.1805  1.3434
  682MOL0     H94112   8.385   6.021   4.585  1.0726  1.2616 -1.2056
  682MOL0     H94113   8.305   6.082   4.937 -0.2712 -0.4512  0.6601
  682MOL0     H94114   8.209   6.258   4.696  0.2628 -0.4635  0.4041
  682MOL0     H94115   8.170   6.120   4.790  3.4578 -0.4325  0.7206
  682MOL0     H94116   8.082   6.271   4.821 -0.4223 -0.2195 -0.2803
  683MOL0     O94117   7.935   4.476   1.857  0.5223  0.0597  0.1890
  683MOL0     C94118   8.017   4.391   1.810 -0.0585  0.4061  0.2370
  683MOL0     O94119   7.974   4.267   1.750  0.2792 -0.1897  0.1655
  683MOL0     C94120   7.840   4.231   1.753 -1.1002 -0.3846 -0.2766
  683MOL0     C94121   7.738   4.308   1.701  0.3296  0.7061 -0.8776
  683MOL0     C94122   7.602   4.272   1.714  0.6115  0.2402  0.0540
  683MOL0     C94123   7.568   4.147   1.775 -0.2043 -0.5142 -0.1127
  683MOL0     O94124   7.429   4.114   1.792  0.5342  0.4819  0.6221
  683MOL0     C94125   7.407   3.977   1.840  0.2724  0.0346 -1.0704
  683MOL0     C94126   7.252   3.950   1.847  0.5282  0.5390  1.0258
  683MOL0     C94127   7.199   3.840   1.748  0.0885  0.1166 -0.0531
  683MOL0     C94128   7.244   3.865   1.598  0.5397  0.7669  0.4470
  683MOL0     C94129   7.191   3.736   1.524  0.0248 -0.0805 -0.2891
  683MOL0     C94130   7.031   3.728   1.524 -0.3902 -0.9918 -0.0455
  683MOL0     C94131   6.974   3.620   1.436  0.6576  0.3648  0.5871
  683MOL0     C94132   6.976   3.481   1.503  0.4243 -0.0216  0.1221
  683MOL0     N94133   6.948   3.488   1.643 -0.2420 -0.3285  0.2053
  683MOL0     C94134   6.827   3.505   1.699  0.9772  0.5736  0.2282
  683MOL0     C94135   6.856   3.514   1.830  0.3005 -0.1775  0.2133
  683MOL0     C94136   6.753   3.532   1.939  0.1780  0.7100  0.3686
  683MOL0     C94137   6.702   3.676   1.956 -0.5516  0.7500  0.3145
  683MOL0     C94138   6.815   3.775   2.006 -0.1346  0.5072  0.4860
  683MOL0     C94139   6.750   3.906   2.029 -0.0269 -0.2784  0.6427
  683MOL0     O94140   6.846   4.009   2.073  1.3026  0.5200 -0.9950
  683MOL0     C94141   6.842   4.124   2.001  0.3100  0.3177  0.4085
  683MOL0     C94142   6.953   4.186   1.944 -0.1948 -1.2580 -0.1107
  683MOL0     C94143   6.930   4.318   1.894 -0.3973  0.4873  0.2218
  683MOL0     C94144   7.059   4.376   1.828  0.3938 -0.1785  0.3240
  683MOL0     C94145   6.808   4.378   1.898  0.1036 -0.3284 -0.7539
  683MOL0     C94146   6.777   4.523   1.851 -0.1054 -0.0189  0.0305
  683MOL0     O94147   6.645   4.566   1.847  0.3507  0.8725 -0.8401
  683MOL0     C94148   6.601   4.702   1.847 -0.7106  0.3444 -0.4294
  683MOL0     C94149   6.475   4.733   1.785  0.5423 -1.1027 -0.6564
  683MOL0     C94150   6.435   4.870   1.793  0.2166  0.4307 -0.3850
  683MOL0     C94151   6.516   4.969   1.842  0.5767  0.3569  0.3827
  683MOL0     O94152   6.460   5.096   1.840 -0.2659  0.0601  0.4686
  683MOL0     C94153   6.549   5.202   1.890  0.0973  0.5769 -0.6920
  683MOL0     C94154   6.466   5.323   1.908  0.9873  1.1377 -0.4530
  683MOL0     C94155   6.483   5.418   1.791 -0.2042 -0.0356 -0.4377
  683MOL0     C94156   6.363   5.512   1.793 -0.6720 -0.1158  0.4177
  683MOL0     C94157   6.376   5.643   1.716  0.3989  1.2753 -0.2474
  683MOL0     C94158   6.470   5.741   1.792  0.1956 -0.2464  0.5985
  683MOL0     C94159   6.537   5.834   1.691  0.5963  0.4916 -0.1609
  683MOL0     C94160   6.441   5.922   1.600  1.4992 -0.1308  0.1628
  683MOL0    Cl94161   6.562   5.984   1.481  0.1843 -0.0895  0.2746
  683MOL0     C94162   6.631   4.936   1.909 -1.2609 -0.0842  0.0844
  683MOL0     C94163   6.675   4.804   1.910  0.0188 -1.1457 -0.2877
  683MOL0     O94164   6.875   4.594   1.837 -0.8126 -0.4256 -1.1731
  683MOL0     C94165   6.699   4.309   1.955 -0.1247 -0.0432 -0.6054
  683MOL0     C94166   6.714   4.183   2.001 -0.0274 -0.6432 -0.1438
  683MOL0     N94167   6.989   3.491   1.852  0.4933 -0.1404  0.3221
  683MOL0     N94168   7.047   3.476   1.736  0.0683  0.3790 -0.7068
  683MOL0     C94169   7.672   4.071   1.818 -0.2599 -0.4389  0.1311
  683MOL0     C94170   7.803   4.104   1.803 -0.3074 -0.4374 -0.2273
  683MOL0     C94171   8.151   4.435   1.792 -0.5363  0.3183 -0.1980
  683MOL0     C94172   8.218   4.379   1.684  1.2781 -0.1096 -0.5954
  683MOL0     C94173   8.357   4.408   1.664  0.2643  0.1664 -0.3706
  683MOL0     C94174   8.426   4.515   1.740 -0.0917 -0.1246  0.2769
  683MOL0     O94175   8.545   4.574   1.708  0.4134 -0.3694 -0.3894
  683MOL0     C94176   8.645   4.480   1.654 -0.3401  0.1285  0.2506
  683MOL0     C94177   8.706   4.408   1.769 -0.1267 -0.3939 -0.8205
  683MOL0     C94178   8.755   4.502   1.871 -1.0481 -1.1558 -0.1492
  683MOL0     C94179   8.865   4.439   1.959 -0.1111  0.1274  0.0385
  683MOL0     C94180   8.799   4.339   2.055  0.1787  0.0471  0.6908
  683MOL0     C94181   8.736   4.278   2.135 -0.3472  0.8839 -0.0124
  683MOL0     C94182   8.348   4.586   1.831  0.4603  0.1220  0.3451
  683MOL0     C94183   8.218   4.539   1.866 -0.2546  1.0218  0.8012
  683MOL0     C94184   8.174   4.601   2.003  0.1059 -1.2536 -0.4726
  683MOL0     H94185   7.760   4.401   1.650  0.4137  1.5687  0.6397
  683MOL0     H94186   7.521   4.333   1.677  1.6216  0.8307 -1.2610
  683MOL0     H94187   7.445   3.969   1.942 -1.6538  1.9337 -0.1052
  683MOL0     H94188   7.463   3.901   1.786  0.9856 -1.5402  1.6850
  683MOL0     H94189   7.214   3.919   1.945  0.8424 -0.1073  0.9407
  683MOL0     H94190   7.200   4.045   1.828 -0.1775 -0.1918 -0.8442
  683MOL0     H94191   7.246   3.748   1.784 -0.1649 -0.5320 -1.3124
  683MOL0     H94192   7.090   3.848   1.756 -0.1027 -0.4681 -1.7132
  683MOL0     H94193   7.203   3.953   1.547  2.9898  1.6185 -0.1625
  683MOL0     H94194   7.353   3.865   1.594  0.5454  1.1100  0.6153
  683MOL0     H94195   7.226   3.640   1.563  1.4821 -0.6952 -2.9283
  683MOL0     H94196   7.216   3.738   1.418 -1.8081  1.7923 -0.7526
  683MOL0     H94197   6.982   3.728   1.621 -1.6424  2.4708 -0.5514
  683MOL0     H94198   6.990   3.810   1.464 -0.6181 -1.3199 -0.3445
  683MOL0     H94199   7.018   3.611   1.336 -1.4660  1.0974 -0.4963
  683MOL0     H94200   6.868   3.632   1.411  0.4101  1.1435  1.9353
  683MOL0     H94201   6.899   3.422   1.453 -1.4754  1.8860  0.6620
  683MOL0     H94202   7.073   3.434   1.484  0.5475 -1.1426  2.9887
  683MOL0     H94203   6.733   3.510   1.646 -0.4542 -0.5243  2.5367
  683MOL0     H94204   6.779   3.480   2.032 -3.1570 -1.0055  0.5063
  683MOL0     H94205   6.677   3.460   1.905  0.4691  1.0742 -1.1066
  683MOL0     H94206   6.650   3.705   1.865 -1.5464  0.4336  0.7776
  683MOL0     H94207   6.619   3.672   2.027 -0.0098  4.5507  1.4157
  683MOL0     H94208   6.842   3.747   2.108 -2.6049  1.6888  1.5584
  683MOL0     H94209   6.901   3.774   1.939  0.4498  2.3075  1.1373
  683MOL0     H94210   6.701   3.933   1.934  0.4257  0.9628  0.7472
  683MOL0     H94211   6.674   3.896   2.107 -2.4662  1.7924 -1.2755
  683MOL0     H94212   7.054   4.145   1.949  2.4124  3.9860 -2.0851
  683MOL0     H94213   7.044   4.381   1.720  0.0016 -0.6186  0.3584
  683MOL0     H94214   7.149   4.316   1.840  1.5834  1.8535  2.5356
  683MOL0     H94215   7.078   4.480   1.857  1.6721 -0.4511  0.5064
  683MOL0     H94216   6.416   4.654   1.740  0.2944 -3.6984  3.6538
  683MOL0     H94217   6.333   4.898   1.768  0.3231  0.5851 -0.6524
  683MOL0     H94218   6.583   5.182   1.992 -2.6531  5.0098  1.3593
  683MOL0     H94219   6.638   5.212   1.827 -0.4822 -1.4067 -1.9452
  683MOL0     H94220   6.364   5.301   1.940  1.4779 -0.3845  0.1380
  683MOL0     H94221   6.514   5.369   1.995  0.3362 -2.9345  2.3607
  683MOL0     H94222   6.484   5.375   1.690  0.5645 -2.4685  0.5348
  683MOL0     H94223   6.570   5.483   1.807 -1.4310  1.1154  2.0991
  683MOL0     H94224   6.325   5.539   1.892 -1.3306 -3.3797  1.1706
  683MOL0     H94225   6.286   5.445   1.754  0.1812 -0.4097 -0.8265
  683MOL0     H94226   6.417   5.618   1.618 -1.1730 -3.2151 -0.0023
  683MOL0     H94227   6.273   5.678   1.704  0.0075  2.5117  4.5649
  683MOL0     H94228   6.544   5.693   1.856  1.5845  0.0131 -0.7680
  683MOL0     H94229   6.403   5.802   1.854 -2.2778  0.7301 -2.7739
  683MOL0     H94230   6.598   5.777   1.621 -0.2759  0.1883 -0.6978
  683MOL0     H94231   6.602   5.902   1.747  0.8901  1.7074 -1.9000
  683MOL0     H94232   6.405   6.008   1.658 -1.1946  1.5084 -3.5076
  683MOL0     H94233   6.356   5.866   1.561  0.6542  1.1571  0.0727
  683MOL0     H94234   6.694   5.001   1.968  0.6645  0.5258 -2.4739
  683MOL0     H94235   6.762   4.779   1.969  0.3767  1.0110  0.1918
  683MOL0     H94236   6.597   4.344   1.965 -0.2383 -0.5178 -0.0465
  683MOL0     H94237   6.639   4.135   2.063  0.7061 -0.8350  0.6003
  683MOL0     H94238   7.666   3.975   1.869 -1.0967  0.1337  1.1549
  683MOL0     H94239   7.882   4.049   1.854  1.9838  1.2391 -1.7663
  683MOL0     H94240   8.168   4.312   1.615  0.8200  0.5790 -0.9310
  683MOL0     H94241   8.410   4.355   1.585  0.7492  2.4389 -1.6623
  683MOL0     H94242   8.611   4.419   1.570 -0.5029 -1.7672  1.6366
  683MOL0     H94243   8.725   4.534   1.602  1.1841 -2.7630 -0.6189
  683MOL0     H94244   8.800   4.362   1.737 -1.0557 -3.6929  0.7884
  683MOL0     H94245   8.648   4.333   1.824  1.7400  0.0639  1.9409
  683MOL0     H94246   8.799   4.595   1.835  0.1259 -0.6620  2.3578
  683MOL0     H94247   8.673   4.534   1.936 -1.4172 -3.5359  0.6665
  683MOL0     H94248   8.920   4.511   2.019  1.5109 -1.2249  0.2732
  683MOL0     H94249   8.938   4.391   1.893 -1.2141 -0.4776 -0.7884
  683MOL0     H94250   8.677   4.223   2.205  0.2387 -0.2862 -0.4096
  683MOL0     H94251   8.399   4.671   1.875  1.3312  0.5300 -1.3659
  683MOL0     H94252   8.076   4.562   2.032 -0.0852 -0.6187 -0.2412
  683MOL0     H94253   8.251   4.603   2.080 -0.0570 -2.9640 -0.2228
  683MOL0     H94254   8.149   4.707   1.988  0.4178 -0.6789  2.4428
  684MOL0     O94255   2.127   9.287   5.493  0.2677 -0.0176 -0.0405
  684MOL0     C94256   2.197   9.303   5.394 -0.9721 -1.1315  0.0199
  684MOL0     O94257   2.166   9.265   5.267 -0.5532 -0.0255  0.0245
  684MOL0     C94258   2.056   9.190   5.261 -0.6654  0.1358 -0.8128
  684MOL0     C94259   2.055   9.053   5.303  0.7995 -0.8169  0.0492
  684MOL0     C94260   1.932   8.968   5.277 -0.1123 -0.7868 -0.4869
  684MOL0     C94261   1.810   9.018   5.233  0.5311 -0.8231 -0.5532
  684MOL0     O94262   1.704   8.932   5.197  0.1113  0.3764  0.8368
  684MOL0     C94263   1.701   8.801   5.262  0.8956 -0.8728  0.0214
  684MOL0     C94264   1.561   8.746   5.233  0.4435 -0.2255 -0.0016
  684MOL0     C94265   1.449   8.832   5.296  0.8104 -1.5367  0.4546
  684MOL0     C94266   1.317   8.748   5.287 -0.0021  0.3598  0.1129
  684MOL0     C94267   1.207   8.840   5.328  0.0674 -0.5349 -0.8947
  684MOL0     C94268   1.073   8.761   5.358 -0.6351 -0.2170  0.4091
  684MOL0     C94269   0.949   8.825   5.406  0.7144  0.8493  0.7387
  684MOL0     C94270   0.859   8.724   5.472 -0.6293  0.2598 -0.4126
  684MOL0     N94271   0.727   8.768   5.496 -0.3067  0.4163 -0.2718
  684MOL0     C94272   0.607   8.727   5.434 -0.0963 -0.4700 -0.6704
  684MOL0     C94273   0.507   8.796   5.493 -0.7881  0.7567 -0.3595
  684MOL0     C94274   0.375   8.811   5.442 -0.9942 -0.8967 -0.2074
  684MOL0     C94275   0.367   8.936   5.355  0.7213 -0.7803  0.3685
  684MOL0     C94276   0.416   9.068   5.420 -0.5707  0.4868  0.4497
  684MOL0     C94277   0.294   9.130   5.493 -0.1277  0.2904 -0.7891
  684MOL0     O94278   0.294   9.274   5.490 -0.2891  0.3185 -0.1004
  684MOL0     C94279   0.397   9.334   5.564 -0.4848  0.4854  0.9279
  684MOL0     C94280   0.408   9.471   5.534 -0.8912 -0.0871 -0.6449
  684MOL0     C94281   0.505   9.554   5.601 -0.3423  0.5534 -0.6148
  684MOL0     C94282   0.520   9.703   5.571  0.7601 -0.3950 -0.2484
  684MOL0     C94283   0.593   9.500   5.707 -0.8495 -0.4028  1.0090
  684MOL0     C94284   0.691   9.582   5.786  1.0561 -0.7524 -0.9410
  684MOL0     O94285   0.635   9.682   5.858  0.3181  0.0652 -0.0870
  684MOL0     C94286   0.716   9.729   5.947 -0.8873 -0.0799  0.0734
  684MOL0     C94287   0.676   9.733   6.077 -0.8572 -0.3343  1.3640
  684MOL0     C94288   0.760   9.785   6.179  0.2269 -0.7045 -0.1489
  684MOL0     C94289   0.874   9.857   6.152  0.0955 -0.4171  0.4733
  684MOL0     O94290   0.962   9.881   6.257  0.0601  0.2344  0.0453
  684MOL0     C94291   1.022  10.003   6.249 -0.2283 -0.5378  1.5561
  684MOL0     C94292   1.089  10.039   6.383 -0.3528  0.4938 -0.3499
  684MOL0     C94293   1.230  10.103   6.347 -0.4289 -0.2307 -1.1101
  684MOL0     C94294   1.302  10.163   6.472  0.4896  0.8404 -0.1593
  684MOL0     C94295   1.435  10.225   6.452  0.1097  0.3934  0.6448
  684MOL0     C94296   1.496  10.281   6.573 -0.3341 -1.0250 -0.2742
  684MOL0     C94297   1.415  10.377   6.656  0.6498 -0.4315  0.4672
  684MOL0     C94298   1.517  10.437   6.751 -0.0450 -0.3227  0.4953
  684MOL0    Cl94299   1.565  10.304   6.856 -0.1228 -0.2581 -0.5153
  684MOL0     C94300   0.910   9.869   6.017 -0.6494 -0.7304  0.0750
  684MOL0     C94301   0.831   9.807   5.915 -0.0380  0.9471 -0.4774
  684MOL0     O94302   0.807   9.540   5.792  0.7127  0.3573 -0.5399
  684MOL0     C94303   0.582   9.355   5.730  0.6690 -0.6337  0.6966
  684MOL0     C94304   0.487   9.277   5.662 -0.0300 -0.3083 -0.4163
  684MOL0     N94305   0.568   8.870   5.594 -0.0063  0.2623 -0.8343
  684MOL0     N94306   0.695   8.851   5.601 -0.9142  0.1289 -0.7534
  684MOL0     C94307   1.819   9.158   5.194  0.9350  0.0120 -0.0028
  684MOL0     C94308   1.931   9.241   5.211  0.8581  0.7675  0.2518
  684MOL0     C94309   2.321   9.366   5.434  0.2793  0.1566  0.4801
  684MOL0     C94310   2.320   9.479   5.515  0.5631 -0.3966 -0.5774
  684MOL0     C94311   2.443   9.558   5.548  0.0769  0.1902  0.0317
  684MOL0     C94312   2.560   9.525   5.483 -0.5553  0.5290 -0.2636
  684MOL0     O94313   2.675   9.599   5.484 -0.2821 -0.6476  0.7842
  684MOL0     C94314   2.679   9.721   5.548 -0.2842 -0.3547 -0.0837
  684MOL0     C94315   2.701   9.707   5.688  0.0019 -0.2235 -0.8142
  684MOL0     C94316   2.806   9.607   5.734 -0.7101 -0.8575  0.3423
  684MOL0     C94317   2.781   9.519   5.859  0.2606 -0.9288 -0.6734
  684MOL0     C94318   2.747   9.606   5.979  0.6924  0.1610 -0.6141
  684MOL0     C94319   2.713   9.661   6.083  0.8388 -0.3440 -0.4951
  684MOL0     C94320   2.560   9.404   5.417 -0.3783  0.5033 -0.7200
  684MOL0     C94321   2.445   9.323   5.394 -0.8014 -0.5841 -0.3591
  684MOL0     C94322   2.480   9.189   5.328  0.0808 -0.1260 -0.5362
  684MOL0     H94323   2.145   9.003   5.337  3.1094  0.5836 -3.4137
  684MOL0     H94324   1.941   8.862   5.301 -0.9027 -0.8632 -0.5133
  684MOL0     H94325   1.711   8.815   5.370  0.0455  3.5278 -0.2871
  684MOL0     H94326   1.772   8.722   5.234  1.5697 -0.6393  1.0169
  684MOL0     H94327   1.553   8.747   5.124  0.2540  1.5426 -0.0099
  684MOL0     H94328   1.536   8.649   5.276 -1.9488 -0.3117 -1.3976
  684MOL0     H94329   1.471   8.872   5.395 -1.9345  3.7781 -0.7091
  684MOL0     H94330   1.428   8.925   5.243  3.1464 -0.8408  0.6087
  684MOL0     H94331   1.313   8.717   5.182  2.8696 -2.7149  0.7541
  684MOL0     H94332   1.333   8.664   5.354  3.4876  0.7358 -0.0626
  684MOL0     H94333   1.193   8.904   5.241  1.4047 -0.5921 -1.1821
  684MOL0     H94334   1.226   8.905   5.414  3.0576 -1.1345 -0.9911
  684MOL0     H94335   1.043   8.723   5.260 -2.1542  3.3652 -0.6789
  684MOL0     H94336   1.108   8.681   5.423 -0.5723  0.1036  0.7736
  684MOL0     H94337   0.891   8.873   5.327 -1.6052 -0.4140  1.5539
  684MOL0     H94338   0.972   8.904   5.479  0.3674  0.3000  1.4594
  684MOL0     H94339   0.858   8.631   5.414 -2.4855 -0.6099  0.9065
  684MOL0     H94340   0.907   8.693   5.565  2.3209  0.7994 -1.6384
  684MOL0     H94341   0.599   8.648   5.361 -3.8476 -2.1063  1.2023
  684MOL0     H94342   0.316   8.819   5.534  1.2233 -2.0229  1.4039
  684MOL0     H94343   0.352   8.721   5.383  1.5213 -1.0178 -1.1446
  684MOL0     H94344   0.443   8.922   5.277  1.3856  0.2369  0.8125
  684MOL0     H94345   0.266   8.953   5.319  1.5279  4.8658 -0.0504
  684MOL0     H94346   0.508   9.072   5.480 -0.6597  0.8213  0.5627
  684MOL0     H94347   0.450   9.124   5.331  2.3196 -2.2634 -0.3837
  684MOL0     H94348   0.193   9.111   5.456 -0.7034 -0.7588  1.1971
  684MOL0     H94349   0.295   9.084   5.592 -1.0374 -4.5213 -2.7380
  684MOL0     H94350   0.337   9.523   5.470  0.6555 -2.0326 -4.2175
  684MOL0     H94351   0.620   9.742   5.548 -0.0230  3.8654  2.3971
  684MOL0     H94352   0.489   9.767   5.654  2.7224  0.1413  0.1253
  684MOL0     H94353   0.456   9.741   5.492  1.9650 -0.4435 -1.2914
  684MOL0     H94354   0.582   9.683   6.094 -2.3119  2.4548  2.2635
  684MOL0     H94355   0.714   9.753   6.272 -1.1874  1.2607 -0.1150
  684MOL0     H94356   1.091  10.006   6.164 -0.8433  6.0820  0.7092
  684MOL0     H94357   0.946  10.079   6.227  1.0449  0.5105  0.6788
  684MOL0     H94358   1.023  10.106   6.439 -1.6935  1.0844 -2.5132
  684MOL0     H94359   1.099   9.953   6.449 -0.9318  1.8881  1.6501
  684MOL0     H94360   1.212  10.167   6.261 -0.2072 -3.0041 -3.3663
  684MOL0     H94361   1.299  10.027   6.307  0.3544 -0.3973  0.4647
  684MOL0     H94362   1.298  10.094   6.556 -2.2235  0.4464 -0.5342
  684MOL0     H94363   1.225  10.232   6.508 -3.1451 -3.8577  2.1416
  684MOL0     H94364   1.504  10.158   6.401 -0.8750  1.4171 -2.2080
  684MOL0     H94365   1.421  10.310   6.385 -2.1511 -0.5246 -0.1333
  684MOL0     H94366   1.593  10.324   6.546  0.3280 -1.0910  1.8842
  684MOL0     H94367   1.528  10.196   6.634  0.9918  1.9719  3.5493
  684MOL0     H94368   1.334  10.331   6.714 -0.5728  0.7038 -0.2810
  684MOL0     H94369   1.375  10.464   6.602 -1.4657 -0.0806  2.4028
  684MOL0     H94370   1.488  10.523   6.812 -1.1430  0.5813 -1.2275
  684MOL0     H94371   1.600  10.467   6.687 -1.9709 -1.5360 -2.8290
  684MOL0     H94372   1.001   9.921   5.989 -0.7593  0.1777  1.3469
  684MOL0     H94373   0.864   9.808   5.811  2.6607 -0.5772  0.2671
  684MOL0     H94374   0.645   9.305   5.802  0.4903  0.4797  1.6522
  684MOL0     H94375   0.472   9.175   5.696 -2.2992  0.9503  2.8771
  684MOL0     H94376   1.725   9.198   5.159  1.2423  1.3599  0.6255
  684MOL0     H94377   1.916   9.347   5.190  2.1305  0.6528 -1.3982
  684MOL0     H94378   2.230   9.525   5.554 -0.3145 -2.7267  0.2641
  684MOL0     H94379   2.445   9.639   5.620  1.2340 -0.7594  1.1074
  684MOL0     H94380   2.763   9.779   5.508  1.3796 -0.0005  3.5661
  684MOL0     H94381   2.585   9.768   5.516  1.8125  2.4049 -2.8539
  684MOL0     H94382   2.605   9.698   5.740 -1.8392  4.3212 -2.8442
  684MOL0     H94383   2.727   9.806   5.727  1.0592 -1.7860  2.8449
  684MOL0     H94384   2.821   9.523   5.665 -3.7911 -3.1062  2.1618
  684MOL0     H94385   2.904   9.656   5.731 -0.8811 -0.4326  1.4445
  684MOL0     H94386   2.874   9.464   5.873  2.2858  1.9288 -1.9674
  684MOL0     H94387   2.704   9.446   5.833 -1.8112  0.0803  2.0178
  684MOL0     H94388   2.688   9.715   6.172  0.6545  0.9839 -1.3137
  684MOL0     H94389   2.652   9.369   5.371  0.8963  0.0961  1.9841
  684MOL0     H94390   2.455   9.100   5.386 -1.2889  2.1277  2.6192
  684MOL0     H94391   2.416   9.179   5.239  0.1445 -2.4911 -0.3719
  684MOL0     H94392   2.584   9.177   5.295  0.1064 -1.8589  0.1000
  685MOL0     O94393   1.662   1.376   8.720  0.1639  0.4106  0.3534
  685MOL0     C94394   1.767   1.347   8.658  0.2497 -0.8369 -0.2639
  685MOL0     O94395   1.889   1.386   8.705 -0.1626 -0.6023  0.2724
  685MOL0     C94396   1.905   1.462   8.815 -0.4884  0.8689 -0.5866
  685MOL0     C94397   1.845   1.436   8.940  0.5967  0.0139 -0.3461
  685MOL0     C94398   1.859   1.530   9.046  0.4038 -0.8716  0.2800
  685MOL0     C94399   1.943   1.633   9.034  0.5074 -0.3695 -0.6062
  685MOL0     O94400   1.963   1.724   9.136  0.2821  0.4478 -0.6166
  685MOL0     C94401   2.097   1.717   9.194 -0.3202 -0.6816  0.0933
  685MOL0     C94402   2.108   1.664   9.342  0.2975 -0.1636 -1.3458
  685MOL0     C94403   2.056   1.770   9.446 -1.1204  0.4895  0.1169
  685MOL0     C94404   1.994   1.715   9.574  0.1662  0.2801 -0.8257
  685MOL0     C94405   1.934   1.813   9.681 -0.6938 -0.9629 -0.8730
  685MOL0     C94406   1.841   1.737   9.794 -0.0999 -0.0580  0.3888
  685MOL0     C94407   1.741   1.843   9.859  1.1718  0.2204  0.0972
  685MOL0     C94408   1.819   1.962   9.941  0.4783  1.9239 -0.2281
  685MOL0     N94409   1.732   2.067  10.009 -0.5917  0.4336  0.8217
  685MOL0     C94410   1.768   2.140  10.117 -0.1572  0.6195  0.1114
  685MOL0     C94411   1.659   2.212  10.146  0.0835 -0.1718  0.2943
  685MOL0     C94412   1.637   2.296  10.282 -0.0731 -0.3406  0.0799
  685MOL0     C94413   1.751   2.416  10.285  0.7362  0.2567 -0.9149
  685MOL0     C94414   1.734   2.508  10.158 -0.9439 -0.5588  0.3676
  685MOL0     C94415   1.855   2.604  10.155 -0.2380  0.4738 -0.1107
  685MOL0     O94416   1.979   2.532  10.138 -0.4957 -0.0140 -0.5323
  685MOL0     C94417   2.080   2.603  10.196  0.2930  0.0811  0.5754
  685MOL0     C94418   2.189   2.536  10.257  0.4965 -0.0113  0.7872
  685MOL0     C94419   2.284   2.600  10.339  0.3121  0.9062 -0.2829
  685MOL0     C94420   2.346   2.501  10.438 -0.7971  0.0569 -0.0023
  685MOL0     C94421   2.300   2.735  10.319  0.2830  0.5173 -0.4730
  685MOL0     C94422   2.399   2.813  10.387 -0.0883 -0.0367  0.6064
  685MOL0     O94423   2.428   2.932  10.322  0.1369 -0.0264 -0.4182
  685MOL0     C94424   2.526   3.014  10.365 -0.3570  0.7047 -0.0527
  685MOL0     C94425   2.527   3.076  10.491  0.5493  0.0929  0.3257
  685MOL0     C94426   2.629   3.161  10.534 -0.2651  0.2769  0.0551
  685MOL0     C94427   2.735   3.193  10.444  0.2000  0.7637 -1.4760
  685MOL0     O94428   2.860   3.253  10.466  0.4841  0.2873 -1.1672
  685MOL0     C94429   2.893   3.272  10.605 -0.4934  0.1603 -0.0623
  685MOL0     C94430   3.024   3.345  10.597  1.1167  0.3968  0.0595
  685MOL0     C94431   2.998   3.487  10.535  0.1110  0.5965 -0.3069
  685MOL0     C94432   2.979   3.585  10.655 -0.2433 -0.7365  0.5175
  685MOL0     C94433   3.112   3.616  10.743 -0.0986 -0.5443  0.1356
  685MOL0     C94434   3.101   3.741  10.822 -0.0539 -0.3921 -0.3160
  685MOL0     C94435   3.079   3.863  10.741 -0.1463  0.6894  0.5886
  685MOL0     C94436   3.131   3.986  10.810  0.3052 -0.2267 -0.0368
  685MOL0    Cl94437   3.051   4.142  10.741 -0.3247 -0.1783  0.4926
  685MOL0     C94438   2.723   3.129  10.327 -0.0465 -0.0142  0.0032
  685MOL0     C94439   2.632   3.037  10.284  0.6520  1.2076  0.2136
  685MOL0     O94440   2.441   2.788  10.503 -0.0682  0.3877  0.0031
  685MOL0     C94441   2.190   2.801  10.255 -0.5461 -0.2084 -0.0628
  685MOL0     C94442   2.083   2.740  10.187 -0.2540 -0.6042  1.2817
  685MOL0     N94443   1.548   2.168  10.074 -0.7214  0.0472 -0.2621
  685MOL0     N94444   1.597   2.076   9.999  0.2004 -0.6032  0.0614
  685MOL0     C94445   2.019   1.647   8.918  0.0743 -0.0039 -0.3622
  685MOL0     C94446   2.004   1.562   8.813 -0.0758 -0.8428  0.1494
  685MOL0     C94447   1.760   1.285   8.524  0.1395  0.9183 -0.0293
  685MOL0     C94448   1.870   1.290   8.449  0.4124  0.1013  0.2427
  685MOL0     C94449   1.870   1.220   8.319 -0.4559 -0.3035 -0.2785
  685MOL0     C94450   1.764   1.141   8.272 -0.1664  0.5036 -0.4970
  685MOL0     O94451   1.781   1.085   8.145 -0.1544  0.0583 -0.2891
  685MOL0     C94452   1.707   1.152   8.049 -0.3643 -0.5944  0.4367
  685MOL0     C94453   1.676   1.051   7.945 -0.3979 -0.0338  0.0043
  685MOL0     C94454   1.585   0.937   7.977 -0.0487  0.3718  0.1663
  685MOL0     C94455   1.594   0.835   7.854 -0.4410  0.0140 -0.2991
  685MOL0     C94456   1.722   0.775   7.834 -0.4058 -0.0824 -0.6945
  685MOL0     C94457   1.842   0.748   7.827 -0.8501 -0.0901 -0.1830
  685MOL0     C94458   1.657   1.124   8.362 -0.1610 -0.0664 -0.5305
  685MOL0     C94459   1.648   1.204   8.484  0.2923 -0.2514  0.1380
  685MOL0     C94460   1.530   1.176   8.572  0.2758 -0.1801  0.6631
  685MOL0     H94461   1.784   1.346   8.947  0.5543 -0.1159 -1.9544
  685MOL0     H94462   1.801   1.516   9.137  0.8057  2.7418  1.2595
  685MOL0     H94463   2.140   1.817   9.196  1.0217 -1.2390 -0.0458
  685MOL0     H94464   2.171   1.659   9.138  1.4299  1.1089  0.4742
  685MOL0     H94465   2.051   1.571   9.341  0.6056 -0.4377  0.7264
  685MOL0     H94466   2.214   1.647   9.364  0.7614  2.1362 -1.5660
  685MOL0     H94467   2.135   1.839   9.477  0.1797 -0.1357 -1.6785
  685MOL0     H94468   1.992   1.838   9.390 -1.4216  1.8459  1.9988
  685MOL0     H94469   1.927   1.640   9.532 -1.1186  0.0275  1.4998
  685MOL0     H94470   2.069   1.664   9.635  0.6383  1.9556  0.0800
  685MOL0     H94471   1.858   1.878   9.637 -3.6212 -2.3240  1.7901
  685MOL0     H94472   2.013   1.873   9.728 -1.4387  0.3166 -1.2001
  685MOL0     H94473   1.773   1.665   9.747 -0.3675  1.4082 -1.6267
  685MOL0     H94474   1.907   1.682   9.862  0.3422 -0.2186 -0.1663
  685MOL0     H94475   1.673   1.789   9.926  2.2426 -1.1129  0.1755
  685MOL0     H94476   1.693   1.882   9.769  1.3477 -3.2895 -1.6888
  685MOL0     H94477   1.869   1.911  10.024 -1.5501  0.9275  0.4583
  685MOL0     H94478   1.893   2.001   9.871  0.4106  1.8770 -0.3263
  685MOL0     H94479   1.868   2.160  10.155 -0.0721 -0.8906  0.7653
  685MOL0     H94480   1.660   2.228  10.364 -0.5390 -1.8846 -1.0041
  685MOL0     H94481   1.535   2.336  10.289 -0.5544 -0.5670 -3.4405
  685MOL0     H94482   1.739   2.482  10.371 -1.1951  1.7660 -2.2416
  685MOL0     H94483   1.849   2.369  10.286  1.1215  1.0096 -1.7652
  685MOL0     H94484   1.740   2.439  10.073  2.2594 -0.9163  0.7540
  685MOL0     H94485   1.640   2.562  10.171  0.2867  1.8375 -0.0213
  685MOL0     H94486   1.836   2.679  10.078 -0.9069 -1.0030 -1.4465
  685MOL0     H94487   1.867   2.655  10.251 -0.5293 -2.4829  1.6190
  685MOL0     H94488   2.189   2.428  10.256  1.7809 -0.1683  4.0876
  685MOL0     H94489   2.319   2.397  10.420 -2.4283  0.0934  1.8465
  685MOL0     H94490   2.317   2.523  10.542 -0.4144 -2.2930  0.6663
  685MOL0     H94491   2.455   2.513  10.432 -1.0551  2.1145 -4.3199
  685MOL0     H94492   2.442   3.044  10.551  0.6776 -0.1410  0.3852
  685MOL0     H94493   2.628   3.187  10.639 -3.9066 -1.9320  0.7351
  685MOL0     H94494   2.811   3.322  10.657 -0.2285  0.3507  0.1728
  685MOL0     H94495   2.911   3.179  10.660  0.7545  1.2390  1.4090
  685MOL0     H94496   3.057   3.354  10.701  1.2701 -2.0930  0.2709
  685MOL0     H94497   3.096   3.282  10.546 -1.7270 -4.6198  1.5914
  685MOL0     H94498   2.911   3.484  10.470 -0.2182 -0.5855  0.1452
  685MOL0     H94499   3.083   3.516  10.473  1.8270 -4.8529 -1.1158
  685MOL0     H94500   2.900   3.537  10.712  0.6162 -0.8852  1.6325
  685MOL0     H94501   2.958   3.681  10.606 -0.2380 -0.5586  0.8526
  685MOL0     H94502   3.124   3.532  10.812  0.7423  0.6192  1.4667
  685MOL0     H94503   3.206   3.629  10.689 -0.7625 -3.2521 -1.9007
  685MOL0     H94504   3.201   3.762  10.861  0.6891 -0.1096 -2.3033
  685MOL0     H94505   3.027   3.737  10.903 -0.1595  1.5969 -0.2579
  685MOL0     H94506   2.971   3.867  10.726  0.1705  0.8185 -2.2208
  685MOL0     H94507   3.127   3.863  10.643 -0.2954 -0.1458  0.5116
  685MOL0     H94508   3.239   4.002  10.805 -0.1578  3.4690 -1.2143
  685MOL0     H94509   3.114   3.981  10.918  0.6154 -0.3995  0.0054
  685MOL0     H94510   2.815   3.139  10.270  0.4168 -3.5599 -0.1311
  685MOL0     H94511   2.627   2.987  10.188 -1.3615  0.2822  0.7339
  685MOL0     H94512   2.178   2.909  10.265  0.7765 -0.1663  1.5885
  685MOL0     H94513   2.010   2.799  10.133 -0.1194 -2.4464 -1.0486
  685MOL0     H94514   2.093   1.726   8.905  1.0979 -1.2366 -2.6632
  685MOL0     H94515   2.055   1.589   8.722 -3.1250  0.7453 -1.2460
  685MOL0     H94516   1.962   1.343   8.471  1.5844 -2.6803  2.6695
  685MOL0     H94517   1.963   1.229   8.264  0.3455 -0.7366  0.9584
  685MOL0     H94518   1.609   1.185   8.088 -2.2151 -3.9739 -0.9440
  685MOL0     H94519   1.763   1.228   7.994 -1.9806 -1.0181 -1.9525
  685MOL0     H94520   1.768   1.005   7.907 -1.3094 -0.6336 -1.5821
  685MOL0     H94521   1.636   1.115   7.866 -1.6904  0.9313  1.3952
  685MOL0     H94522   1.612   0.893   8.073 -3.8443  0.7767  1.5811
  685MOL0     H94523   1.489   0.985   7.998  0.9041  1.2069  3.0695
  685MOL0     H94524   1.557   0.885   7.764 -1.0680  0.2301  0.0731
  685MOL0     H94525   1.521   0.756   7.871 -0.1371 -0.1297  0.3772
  685MOL0     H94526   1.935   0.697   7.817 -0.9636 -0.9404  2.4080
  685MOL0     H94527   1.577   1.063   8.323  2.3596 -2.3353 -2.5187
  685MOL0     H94528   1.549   1.112   8.658  1.0185  0.8121  1.2642
  685MOL0     H94529   1.488   1.267   8.615 -0.9483  0.6725 -2.1198
  685MOL0     H94530   1.450   1.140   8.507  0.8621 -1.0430  0.3902
  686MOL0     O94531   6.576   2.554   8.622  0.6793 -0.1788  0.3996
  686MOL0     C94532   6.646   2.520   8.714  0.2874 -0.7540 -0.9119
  686MOL0     O94533   6.614   2.509   8.851  0.1843  0.1077  0.6594
  686MOL0     C94534   6.487   2.540   8.899 -0.1623 -0.5329 -0.6680
  686MOL0     C94535   6.456   2.503   9.031  0.2435  0.6153  0.5906
  686MOL0     C94536   6.325   2.531   9.093  0.4510 -0.4929 -0.0761
  686MOL0     C94537   6.242   2.618   9.032  0.4182  0.5324  0.2633
  686MOL0     O94538   6.121   2.663   9.074 -0.3193 -0.0472 -0.2186
  686MOL0     C94539   6.051   2.603   9.176 -0.7774  0.2371 -0.3825
  686MOL0     C94540   5.910   2.671   9.178 -0.2339  0.2957 -0.0234
  686MOL0     C94541   5.816   2.606   9.273  0.6207 -0.8772 -0.3354
  686MOL0     C94542   5.836   2.630   9.422 -0.2523  0.5308  0.0426
  686MOL0     C94543   5.777   2.519   9.501 -0.4938 -0.2828 -0.7061
  686MOL0     C94544   5.621   2.511   9.494 -0.2071  0.0903 -0.7755
  686MOL0     C94545   5.544   2.632   9.550 -0.0909 -1.0318  0.0347
  686MOL0     C94546   5.541   2.623   9.703 -0.1806 -0.7404  0.6400
  686MOL0     N94547   5.451   2.521   9.748  0.7167 -0.1029  0.2597
  686MOL0     C94548   5.319   2.533   9.752  0.1882 -0.7383  0.4500
  686MOL0     C94549   5.270   2.422   9.801 -0.4514 -0.5670  0.0373
  686MOL0     C94550   5.130   2.384   9.845  0.2879 -0.6905 -0.6580
  686MOL0     C94551   5.123   2.366  10.004 -0.1376 -0.4754 -1.2553
  686MOL0     C94552   5.137   2.503  10.076  0.1137 -0.6261 -0.7284
  686MOL0     C94553   5.109   2.476  10.230 -0.3918 -0.5097 -0.2833
  686MOL0     O94554   4.971   2.522  10.270  0.9467 -0.3501 -0.5183
  686MOL0     C94555   4.941   2.660  10.270 -0.7351 -0.2298  0.8333
  686MOL0     C94556   4.811   2.692  10.251  0.6050 -0.4369  0.2904
  686MOL0     C94557   4.767   2.832  10.264  0.7640 -0.0927  0.0348
  686MOL0     C94558   4.620   2.869  10.241  0.3880 -0.1177  0.0350
  686MOL0     C94559   4.865   2.926  10.304 -0.0769  0.0151 -0.5073
  686MOL0     C94560   4.837   3.070  10.318 -0.6596  0.1816 -1.0676
  686MOL0     O94561   4.941   3.145  10.263 -0.5372  0.1468 -0.5206
  686MOL0     C94562   4.951   3.268  10.307 -0.0713 -0.3875 -0.3709
  686MOL0     C94563   5.018   3.329  10.414 -1.0664 -1.1340  0.3779
  686MOL0     C94564   4.994   3.461  10.446  0.5928 -0.1203 -0.6312
  686MOL0     C94565   4.898   3.539  10.385 -0.0483  0.3639 -1.1794
  686MOL0     O94566   4.890   3.670  10.429  0.4862 -0.7241  0.0381
  686MOL0     C94567   4.833   3.759  10.343 -0.3393  0.5382 -0.0541
  686MOL0     C94568   4.840   3.892  10.415  0.2585  0.1165 -0.3957
  686MOL0     C94569   4.985   3.923  10.469 -0.0651  0.2095  0.6221
  686MOL0     C94570   4.990   4.073  10.488  0.3515  0.6442 -0.0129
  686MOL0     C94571   5.128   4.111  10.539 -0.3031  0.5084 -0.2270
  686MOL0     C94572   5.132   4.260  10.568 -0.4594  0.3817  0.6306
  686MOL0     C94573   5.044   4.304  10.690 -0.8022 -0.5950 -0.4419
  686MOL0     C94574   5.063   4.450  10.737  0.2393 -0.1889 -0.3011
  686MOL0    Cl94575   5.043   4.575  10.612  0.0529  0.2476 -0.6092
  686MOL0     C94576   4.830   3.486  10.275 -0.7618 -0.0969 -0.0526
  686MOL0     C94577   4.851   3.348  10.244 -0.1097 -0.4827  0.1311
  686MOL0     O94578   4.735   3.108  10.364 -0.5327  0.1512 -0.3151
  686MOL0     C94579   5.003   2.889  10.337  1.6133  0.4560 -0.7767
  686MOL0     C94580   5.034   2.762  10.310 -0.4690  0.1307  0.0149
  686MOL0     N94581   5.384   2.333   9.821  1.0706 -0.9945 -0.2345
  686MOL0     N94582   5.490   2.396   9.784  0.5475  0.1522 -1.0533
  686MOL0     C94583   6.273   2.668   8.904 -0.9601 -0.2511 -0.3084
  686MOL0     C94584   6.392   2.637   8.839  0.7622  0.3598  0.5241
  686MOL0     C94585   6.775   2.479   8.677  1.0472 -0.3783 -0.8277
  686MOL0     C94586   6.862   2.574   8.615  0.8813  0.8914  0.1481
  686MOL0     C94587   6.992   2.539   8.609  0.7948  0.5831  0.1277
  686MOL0     C94588   7.045   2.409   8.636 -0.3928  0.2159 -0.4778
  686MOL0     O94589   7.172   2.380   8.588 -0.6338  0.2311 -0.1711
  686MOL0     C94590   7.232   2.254   8.610  1.2584 -0.1399  0.0055
  686MOL0     C94591   7.375   2.259   8.552 -0.5261  0.9726 -0.4957
  686MOL0     C94592   7.436   2.110   8.554  0.7195 -0.6665 -0.3580
  686MOL0     C94593   7.597   2.124   8.574  0.3348 -0.5439 -1.2161
  686MOL0     C94594   7.661   2.196   8.464 -0.4366  0.4236  1.4719
  686MOL0     C94595   7.707   2.265   8.376 -0.0563 -0.8640  0.1919
  686MOL0     C94596   6.949   2.307   8.675  0.2256  0.3860  0.4874
  686MOL0     C94597   6.813   2.346   8.712 -0.8879  0.4368 -0.2295
  686MOL0     C94598   6.724   2.235   8.742 -0.7389  0.3481 -0.6884
  686MOL0     H94599   6.522   2.432   9.080 -1.8645 -0.0548  2.5979
  686MOL0     H94600   6.285   2.487   9.184 -3.6459  0.4296 -1.2016
  686MOL0     H94601   6.107   2.631   9.265 -0.2342 -0.0754 -0.6169
  686MOL0     H94602   6.043   2.494   9.167  4.1008 -0.1810 -2.7239
  686MOL0     H94603   5.925   2.778   9.196  0.1445  0.3604 -0.6952
  686MOL0     H94604   5.876   2.673   9.074  0.6247  2.0978 -0.3037
  686MOL0     H94605   5.716   2.646   9.254  0.3914 -0.4728  1.5170
  686MOL0     H94606   5.820   2.497   9.261  0.5274 -0.9208  0.0129
  686MOL0     H94607   5.942   2.633   9.446 -0.7398  2.3323  2.2669
  686MOL0     H94608   5.799   2.725   9.462 -0.8264  1.1629 -1.8386
  686MOL0     H94609   5.802   2.543   9.604 -1.1844 -0.8898 -0.3847
  686MOL0     H94610   5.816   2.420   9.480 -0.6339  0.0202 -2.6126
  686MOL0     H94611   5.591   2.478   9.394 -0.8441  0.7194 -0.7994
  686MOL0     H94612   5.606   2.418   9.549 -0.6268 -0.4579 -1.7925
  686MOL0     H94613   5.438   2.635   9.523 -0.8538 -0.6835  2.7195
  686MOL0     H94614   5.587   2.724   9.508  0.1971 -1.6346 -1.0226
  686MOL0     H94615   5.633   2.584   9.749  1.4504  1.3196 -0.6624
  686MOL0     H94616   5.513   2.720   9.744 -1.0335  0.0009 -1.5371
  686MOL0     H94617   5.254   2.614   9.720  1.7166  0.0144 -0.8651
  686MOL0     H94618   5.097   2.290   9.799  0.3373 -1.2445  0.4036
  686MOL0     H94619   5.058   2.462   9.819  1.1989  0.2399 -0.4716
  686MOL0     H94620   5.024   2.321  10.014 -0.3855 -0.4752 -3.3332
  686MOL0     H94621   5.210   2.310  10.042  0.0596  1.9509  2.4098
  686MOL0     H94622   5.237   2.546  10.064  1.3675 -3.3366 -0.7459
  686MOL0     H94623   5.060   2.568  10.035  0.3545  0.7370  0.8629
  686MOL0     H94624   5.145   2.377  10.260  0.8794  0.3397  1.1218
  686MOL0     H94625   5.171   2.537  10.296 -3.5599  0.5578  1.9566
  686MOL0     H94626   4.736   2.618  10.224 -3.3061  3.8515 -2.2451
  686MOL0     H94627   4.567   2.789  10.188  2.2405  0.6566 -3.2904
  686MOL0     H94628   4.621   2.957  10.175  0.8976  2.5404  3.3108
  686MOL0     H94629   4.560   2.900  10.327 -0.4004  2.2972 -1.2968
  686MOL0     H94630   5.102   3.276  10.458  0.8954 -0.4467 -2.2780
  686MOL0     H94631   5.058   3.502  10.522 -1.5830 -0.0017  1.2341
  686MOL0     H94632   4.898   3.755  10.255  0.6697 -3.0067  0.6818
  686MOL0     H94633   4.728   3.744  10.320 -1.3030  6.8899 -1.7746
  686MOL0     H94634   4.795   3.973  10.357  0.8162 -0.5639 -1.8088
  686MOL0     H94635   4.772   3.878  10.500  2.8473  3.3904  2.4919
  686MOL0     H94636   5.058   3.897  10.392 -0.2856  2.0843 -0.2731
  686MOL0     H94637   5.011   3.874  10.563 -3.5178  0.4133  1.7999
  686MOL0     H94638   4.920   4.107  10.565 -2.0056  1.7859 -2.4747
  686MOL0     H94639   4.968   4.135  10.400 -0.7711 -1.1744 -1.0694
  686MOL0     H94640   5.151   4.053  10.629 -0.3767 -1.1312 -1.2155
  686MOL0     H94641   5.197   4.082  10.459 -2.4578 -2.8222 -1.1087
  686MOL0     H94642   5.101   4.319  10.481 -0.1528 -1.8426 -1.0835
  686MOL0     H94643   5.236   4.292  10.577  0.2331 -1.1483 -1.2418
  686MOL0     H94644   5.074   4.246  10.778  1.6836 -0.2717 -1.0191
  686MOL0     H94645   4.938   4.292  10.664 -0.7019 -0.2815 -1.0117
  686MOL0     H94646   5.166   4.465  10.771 -0.4901  0.7260  1.6738
  686MOL0     H94647   4.989   4.473  10.814  1.9520 -0.2180  1.4449
  686MOL0     H94648   4.760   3.558  10.233 -1.9310 -1.6778 -0.9404
  686MOL0     H94649   4.788   3.300  10.171 -1.8072  1.2612  0.3604
  686MOL0     H94650   5.071   2.960  10.384  1.7453 -0.5926  0.6818
  686MOL0     H94651   5.136   2.731  10.335 -0.6719 -0.3621  0.2570
  686MOL0     H94652   6.211   2.747   8.862  0.6049  1.7888  1.0302
  686MOL0     H94653   6.415   2.684   8.744 -4.1170  0.3425 -0.9141
  686MOL0     H94654   6.833   2.677   8.602 -2.2599  0.1102  0.3233
  686MOL0     H94655   7.049   2.614   8.556  2.8081  0.8907  2.5514
  686MOL0     H94656   7.213   2.214   8.710  0.7395 -1.0167 -0.4290
  686MOL0     H94657   7.175   2.179   8.555  4.4164 -2.8827  0.1242
  686MOL0     H94658   7.443   2.329   8.601  2.7344 -2.0801 -0.2785
  686MOL0     H94659   7.364   2.297   8.450 -1.1383 -1.5100 -1.4087
  686MOL0     H94660   7.397   2.060   8.643 -0.0880  1.9263  0.8343
  686MOL0     H94661   7.404   2.056   8.464 -1.8829 -0.0831  0.1336
  686MOL0     H94662   7.634   2.023   8.594 -2.7706 -1.3196  1.5197
  686MOL0     H94663   7.617   2.191   8.658  0.2282 -1.1845 -0.6714
  686MOL0     H94664   7.730   2.322   8.288 -5.6269  1.7086 -0.0519
  686MOL0     H94665   6.964   2.201   8.688 -0.4925  0.4480  2.0167
  686MOL0     H94666   6.617   2.258   8.736 -0.7041  0.2096 -3.4102
  686MOL0     H94667   6.741   2.150   8.675 -1.1673 -0.2076 -0.1055
  686MOL0     H94668   6.756   2.213   8.844 -1.0501 -1.1784 -0.8809
  687MOL0     O94669   9.084   4.919   0.352 -0.2858  0.0443  0.0532
  687MOL0     C94670   9.112   4.993   0.451  0.5797  0.1869  0.3810
  687MOL0     O94671   9.203   4.964   0.546  0.1509  0.0252  0.5886
  687MOL0     C94672   9.316   4.897   0.499 -0.2026  0.4362 -0.9355
  687MOL0     C94673   9.409   4.831   0.593 -0.4670  0.5135  0.1529
  687MOL0     C94674   9.538   4.780   0.554  0.5666  1.0049  0.6280
  687MOL0     C94675   9.566   4.782   0.426  0.2402  0.1782  0.7677
  687MOL0     O94676   9.680   4.715   0.374 -0.1899  0.3437  0.6315
  687MOL0     C94677   9.767   4.806   0.305 -0.2721  0.5324 -0.5877
  687MOL0     C94678   9.851   4.869   0.406 -0.8018 -0.3596  0.0536
  687MOL0     C94679   9.916   4.780   0.511  0.1706 -0.0598 -0.1208
  687MOL0     C94680   9.995   4.862   0.613 -0.8362 -0.1083 -0.4636
  687MOL0     C94681  10.052   4.763   0.731  0.0998 -0.0817  0.8551
  687MOL0     C94682  10.160   4.838   0.813  1.0873 -0.4676  0.5967
  687MOL0     C94683  10.234   4.753   0.924 -0.3752 -0.0978  0.0982
  687MOL0     C94684  10.348   4.671   0.878  1.1636 -0.5316 -0.8569
  687MOL0     N94685  10.401   4.593   0.980 -0.2063  0.5166 -0.4119
  687MOL0     C94686  10.389   4.460   0.993 -0.6266  0.8393 -0.0514
  687MOL0     C94687  10.481   4.428   1.092 -0.4091 -0.4856  0.6330
  687MOL0     C94688  10.493   4.292   1.139 -0.3652  0.3651  0.9599
  687MOL0     C94689  10.577   4.200   1.044 -0.7695  0.1817 -0.3299
  687MOL0     C94690  10.563   4.058   1.099  0.7076 -0.8719  0.1585
  687MOL0     C94691  10.642   4.030   1.239  0.1837 -0.2748 -0.3103
  687MOL0     O94692  10.763   4.094   1.248  0.0722  0.2279  1.2950
  687MOL0     C94693  10.844   4.100   1.353 -0.9634 -0.5241  0.6305
  687MOL0     C94694  10.921   4.213   1.398 -0.4764 -0.0648 -0.2873
  687MOL0     C94695  11.007   4.214   1.516  0.6871  0.4042 -0.6579
  687MOL0     C94696  11.089   4.336   1.533  0.1989 -0.3308 -0.7013
  687MOL0     C94697  11.010   4.101   1.600  0.6119  0.2502 -0.0790
  687MOL0     C94698  11.085   4.093   1.727 -1.2202  0.1212 -0.5492
  687MOL0     O94699  11.186   4.190   1.763  0.2752 -0.2846  0.4475
  687MOL0     C94700  11.247   4.168   1.886 -0.2188  0.5437  0.2269
  687MOL0     C94701  11.350   4.072   1.887 -0.6971 -0.3367 -0.5245
  687MOL0     C94702  11.422   4.048   2.008 -0.2771  0.4174  0.4107
  687MOL0     C94703  11.369   4.091   2.131 -0.3230  0.0398 -0.1001
  687MOL0     O94704  11.429   4.058   2.250  0.0490 -0.5723 -0.0292
  687MOL0     C94705  11.563   4.028   2.276  0.6369  0.1020  0.3004
  687MOL0     C94706  11.643   4.152   2.308  0.9139 -0.0176 -0.4202
  687MOL0     C94707  11.577   4.247   2.405 -1.1178 -0.2516 -0.0077
  687MOL0     C94708  11.683   4.352   2.463 -0.0860 -0.3588 -0.0156
  687MOL0     C94709  11.739   4.444   2.346 -0.4527 -0.0300 -0.0182
  687MOL0     C94710  11.838   4.547   2.410 -0.2916  0.3196 -0.0565
  687MOL0     C94711  11.971   4.474   2.440  0.7064 -0.1543  0.0658
  687MOL0     C94712  12.072   4.565   2.507  0.1331  0.8951  0.4042
  687MOL0    Cl94713  12.104   4.701   2.399  0.1366 -0.8220 -0.2267
  687MOL0     C94714  11.244   4.156   2.123  0.2791 -0.5065 -0.2781
  687MOL0     C94715  11.199   4.209   2.003  0.1613  0.5359  0.7594
  687MOL0     O94716  11.063   3.995   1.799 -0.4124 -0.5350 -0.4732
  687MOL0     C94717  10.936   3.993   1.547 -0.2609 -0.4230  1.3425
  687MOL0     C94718  10.870   3.985   1.427  0.6831  0.7779 -0.0156
  687MOL0     N94719  10.529   4.536   1.144  1.2197 -0.5697 -0.6174
  687MOL0     N94720  10.485   4.630   1.076 -0.7655  0.1681  0.5395
  687MOL0     C94721   9.479   4.844   0.330 -0.3746 -0.5524 -0.0355
  687MOL0     C94722   9.365   4.911   0.366  0.2242 -0.0058 -0.3313
  687MOL0     C94723   9.019   5.107   0.478  0.7379  0.4130  1.3635
  687MOL0     C94724   9.042   5.180   0.592 -0.1449  0.2827 -1.2360
  687MOL0     C94725   8.952   5.282   0.629 -0.1913  0.4217  0.3099
  687MOL0     C94726   8.851   5.323   0.541  0.3407  0.0724 -0.2288
  687MOL0     O94727   8.762   5.420   0.580  0.4772  0.7846  1.5776
  687MOL0     C94728   8.669   5.362   0.673  0.1424  0.5583  0.7344
  687MOL0     C94729   8.569   5.248   0.610 -0.8744 -0.0024  0.2518
  687MOL0     C94730   8.488   5.293   0.486  0.3884 -0.3828  0.5560
  687MOL0     C94731   8.373   5.185   0.451 -0.4569  0.1043  0.2126
  687MOL0     C94732   8.432   5.065   0.395  0.2971 -0.5171  0.0215
  687MOL0     C94733   8.483   4.978   0.329 -0.8499 -0.1172  0.0711
  687MOL0     C94734   8.838   5.261   0.421 -0.1943  0.4249 -0.0106
  687MOL0     C94735   8.913   5.148   0.394  0.5694  0.2332  0.0074
  687MOL0     C94736   8.873   5.071   0.274  0.0809  0.0205 -0.6048
  687MOL0     H94737   9.377   4.825   0.696 -4.1337  2.5029 -0.6884
  687MOL0     H94738   9.605   4.738   0.628  2.0292 -0.0329 -1.2039
  687MOL0     H94739   9.727   4.891   0.248 -0.2598  0.6808 -0.3773
  687MOL0     H94740   9.834   4.755   0.235 -2.7036 -0.3079 -2.4512
  687MOL0     H94741   9.933   4.925   0.361  1.9499 -1.3790  3.3513
  687MOL0     H94742   9.798   4.949   0.458  1.5428  0.4284  1.3845
  687MOL0     H94743   9.832   4.734   0.565  2.1152  1.3034  4.6011
  687MOL0     H94744   9.981   4.701   0.474 -0.1099  0.3188 -1.4585
  687MOL0     H94745  10.074   4.912   0.557 -1.1433  1.6604  0.6253
  687MOL0     H94746   9.928   4.928   0.669  1.0512 -1.4186  3.7775
  687MOL0     H94747  10.100   4.675   0.688  0.1836  0.0808  0.6106
  687MOL0     H94748   9.967   4.731   0.793 -1.3671  1.6622 -0.1226
  687MOL0     H94749  10.240   4.886   0.756  1.0109  1.9442  2.3506
  687MOL0     H94750  10.118   4.929   0.858  0.9640 -0.1586 -0.1329
  687MOL0     H94751  10.167   4.680   0.969  0.3598  1.1525  3.5287
  687MOL0     H94752  10.257   4.827   1.001 -1.3990 -0.3025  0.6195
  687MOL0     H94753  10.320   4.618   0.786 -0.0085 -1.4640 -0.0031
  687MOL0     H94754  10.429   4.738   0.849 -0.0702  2.1849  1.4501
  687MOL0     H94755  10.338   4.395   0.923 -0.8044 -1.6722  2.2251
  687MOL0     H94756  10.394   4.251   1.159 -0.0617 -0.5576  0.6065
  687MOL0     H94757  10.541   4.295   1.237 -0.8258  1.7843  1.1673
  687MOL0     H94758  10.527   4.213   0.947 -0.5936 -1.6940 -0.7093
  687MOL0     H94759  10.685   4.217   1.039 -0.4652 -0.7072  2.1454
  687MOL0     H94760  10.458   4.043   1.128  0.7169 -1.6843 -0.2120
  687MOL0     H94761  10.594   3.982   1.028  1.2498 -0.3516 -0.1638
  687MOL0     H94762  10.578   4.060   1.323 -0.5747  2.4447 -1.7209
  687MOL0     H94763  10.660   3.924   1.257  4.1342  0.4316  0.8514
  687MOL0     H94764  10.918   4.301   1.335  2.0364 -0.9973 -1.8766
  687MOL0     H94765  11.082   4.407   1.450 -3.5938  1.3211  0.8071
  687MOL0     H94766  11.197   4.315   1.533  0.2807 -0.1265 -2.5970
  687MOL0     H94767  11.064   4.398   1.620  0.8660 -2.0670  0.8065
  687MOL0     H94768  11.380   4.035   1.789  0.3363 -1.9008  0.3310
  687MOL0     H94769  11.523   4.009   2.008 -0.5665 -0.3902  1.6402
  687MOL0     H94770  11.563   3.974   2.372  0.6257  2.5122  1.7308
  687MOL0     H94771  11.610   3.976   2.191  0.7304 -0.4611  0.6875
  687MOL0     H94772  11.746   4.136   2.342  1.5559  0.8530 -1.8490
  687MOL0     H94773  11.653   4.209   2.215 -3.4082 -0.4614 -1.3568
  687MOL0     H94774  11.531   4.185   2.482 -0.9157 -2.9221 -1.9166
  687MOL0     H94775  11.494   4.311   2.374 -0.3821  0.5856 -0.3100
  687MOL0     H94776  11.765   4.302   2.516  0.3157  0.1399 -0.1547
  687MOL0     H94777  11.631   4.420   2.531 -1.2059 -0.0306 -1.1535
  687MOL0     H94778  11.803   4.390   2.276  0.9480 -0.2224  1.3602
  687MOL0     H94779  11.670   4.502   2.284 -0.6256 -1.3800 -1.1349
  687MOL0     H94780  11.785   4.588   2.497 -1.4393 -2.1887  0.5031
  687MOL0     H94781  11.868   4.633   2.349  1.2208  1.4865  2.1648
  687MOL0     H94782  12.010   4.425   2.351  0.9793  1.3667 -0.6785
  687MOL0     H94783  11.952   4.385   2.501  0.9099 -0.7193 -0.6821
  687MOL0     H94784  12.162   4.506   2.529 -0.1324  0.0642 -0.6531
  687MOL0     H94785  12.022   4.603   2.597 -2.6325 -1.5035  0.0527
  687MOL0     H94786  11.198   4.175   2.219 -4.1273  0.3278 -2.2873
  687MOL0     H94787  11.105   4.263   2.015 -1.2283 -1.4308 -0.5448
  687MOL0     H94788  10.913   3.901   1.601  2.8295 -0.8527  2.0894
  687MOL0     H94789  10.835   3.885   1.403  1.4306 -0.5197  3.6948
  687MOL0     H94790   9.515   4.857   0.229  0.0159  2.4518  0.4235
  687MOL0     H94791   9.327   4.980   0.291 -0.5871  2.0995  1.9052
  687MOL0     H94792   9.119   5.171   0.668 -0.9398  1.5578 -0.2276
  687MOL0     H94793   8.962   5.332   0.725  0.7507  1.0621 -0.1080
  687MOL0     H94794   8.726   5.320   0.757 -0.8097  2.6035  2.5038
  687MOL0     H94795   8.599   5.437   0.711 -2.0781 -1.2806  0.4927
  687MOL0     H94796   8.498   5.220   0.688 -1.4118  4.5284  1.6899
  687MOL0     H94797   8.633   5.164   0.580  0.1204  0.7417  0.2217
  687MOL0     H94798   8.442   5.389   0.512  1.0874 -0.0909  0.7632
  687MOL0     H94799   8.545   5.302   0.393 -0.0180 -1.2446  0.2168
  687MOL0     H94800   8.311   5.231   0.374  0.9276 -1.0990 -1.7148
  687MOL0     H94801   8.315   5.149   0.536  1.4545  2.4206  2.6839
  687MOL0     H94802   8.525   4.911   0.256 -2.5200  1.1479 -2.1991
  687MOL0     H94803   8.751   5.297   0.368 -1.4794  0.1046  1.8001
  687MOL0     H94804   8.798   5.130   0.220 -0.5970 -1.0418 -0.8671
  687MOL0     H94805   8.952   5.036   0.207 -0.8095 -6.3460  1.0765
  687MOL0     H94806   8.815   4.980   0.294 -0.0036  0.6569  2.6995
  688MOL0     O94807   9.686   1.434   2.681  0.4896 -0.2275 -0.3436
  688MOL0     C94808   9.603   1.496   2.748  0.1146  0.2365 -0.1799
  688MOL0     O94809   9.621   1.627   2.777 -0.8048 -0.1163  0.3698
  688MOL0     C94810   9.723   1.712   2.734 -0.1197 -0.3229  0.3216
  688MOL0     C94811   9.698   1.846   2.713  0.6968  0.4464 -0.1405
  688MOL0     C94812   9.804   1.930   2.678  0.0856 -0.0970 -1.4017
  688MOL0     C94813   9.937   1.896   2.676 -0.5446  0.6050  0.3705
  688MOL0     O94814  10.045   1.973   2.650  0.1342 -0.5187  0.4415
  688MOL0     C94815  10.046   2.016   2.512 -0.1928  0.1297  1.3817
  688MOL0     C94816  10.127   2.150   2.524 -0.1995 -0.2568  0.2772
  688MOL0     C94817  10.279   2.111   2.527  0.0481  0.0053 -0.0871
  688MOL0     C94818  10.360   2.204   2.430 -0.2811 -0.0611  0.8562
  688MOL0     C94819  10.385   2.348   2.475 -0.1369 -0.3691 -0.4810
  688MOL0     C94820  10.492   2.328   2.583 -0.0123  0.2329 -0.1077
  688MOL0     C94821  10.513   2.458   2.656  0.3274 -0.1038 -0.4446
  688MOL0     C94822  10.409   2.480   2.771  0.8645  0.7939 -0.2643
  688MOL0     N94823  10.470   2.545   2.881  0.4574  0.3664  0.5318
  688MOL0     C94824  10.559   2.640   2.884 -0.4446  0.2461  0.1507
  688MOL0     C94825  10.564   2.689   3.010  0.4924 -0.8801 -0.7858
  688MOL0     C94826  10.641   2.804   3.069 -0.0092  0.0975  0.3658
  688MOL0     C94827  10.548   2.901   3.144 -0.6413  1.3117 -1.0726
  688MOL0     C94828  10.620   3.018   3.213 -0.6756  0.3127  0.0220
  688MOL0     C94829  10.730   3.087   3.134  0.9810 -0.0094  0.0039
  688MOL0     O94830  10.864   3.061   3.177 -0.7655  0.1669 -0.1413
  688MOL0     C94831  10.900   3.110   3.300  0.1948  0.3096 -1.0992
  688MOL0     C94832  10.872   3.237   3.352  0.4826 -0.2497 -0.0657
  688MOL0     C94833  10.910   3.271   3.489  0.3131  0.2347  0.2438
  688MOL0     C94834  10.846   3.402   3.530 -0.3930 -0.4068  0.0802
  688MOL0     C94835  10.977   3.181   3.572 -0.2984 -1.0759 -0.1785
  688MOL0     C94836  11.018   3.222   3.704  0.6949 -0.9655  0.3400
  688MOL0     O94837  10.930   3.277   3.789 -0.2437 -0.4435  0.4707
  688MOL0     C94838  10.959   3.321   3.913  1.0060  0.9948  0.4793
  688MOL0     C94839  11.033   3.434   3.935 -0.9659 -0.4465  0.1401
  688MOL0     C94840  11.075   3.476   4.066  0.8736  0.6154  0.1027
  688MOL0     C94841  11.026   3.403   4.175 -0.3782 -0.3430 -0.0197
  688MOL0     O94842  11.094   3.422   4.295 -0.1102 -0.0315  0.0017
  688MOL0     C94843  11.236   3.444   4.294 -0.0141 -0.7248  0.0563
  688MOL0     C94844  11.294   3.403   4.429  0.1144  0.2333 -0.1190
  688MOL0     C94845  11.207   3.432   4.556 -1.2433 -0.5621  0.9585
  688MOL0     C94846  11.227   3.583   4.584 -0.8797 -0.6193 -0.5264
  688MOL0     C94847  11.153   3.612   4.720 -0.1856  0.4082  0.1719
  688MOL0     C94848  11.186   3.757   4.781  0.7431  0.0859  0.5520
  688MOL0     C94849  11.104   3.808   4.895  0.0262 -0.2774  0.3567
  688MOL0     C94850  11.138   3.953   4.939  0.1088 -0.1400 -0.4557
  688MOL0    Cl94851  11.048   3.992   5.095  0.3503  0.5977 -0.3719
  688MOL0     C94852  10.945   3.289   4.151  0.4414  0.8461  0.7949
  688MOL0     C94853  10.916   3.254   4.024  1.4188 -0.6881 -0.0539
  688MOL0     O94854  11.131   3.198   3.735  0.0863  0.5553 -0.3381
  688MOL0     C94855  11.015   3.064   3.515 -0.3257  0.2429  1.1715
  688MOL0     C94856  10.973   3.019   3.387  0.4984 -0.2077 -0.5172
  688MOL0     N94857  10.460   2.618   3.072 -0.2691  0.4690  0.2834
  688MOL0     N94858  10.407   2.534   3.000 -0.2151 -0.3216  1.1231
  688MOL0     C94859   9.965   1.761   2.710  0.4886  0.1241  0.1653
  688MOL0     C94860   9.859   1.670   2.725 -0.6239 -0.8376  0.8846
  688MOL0     C94861   9.501   1.426   2.823  0.9696 -0.6639  0.4359
  688MOL0     C94862   9.428   1.507   2.918 -0.3433 -0.2292 -0.4183
  688MOL0     C94863   9.328   1.455   3.001  0.2537 -1.1369  0.1381
  688MOL0     C94864   9.303   1.320   3.003 -0.2393  0.3418 -0.6630
  688MOL0     O94865   9.230   1.246   3.097 -0.4171 -0.1721  0.6858
  688MOL0     C94866   9.189   1.312   3.216  0.7913 -0.3490  0.1659
  688MOL0     C94867   9.091   1.216   3.293  0.3638  0.6033  0.7427
  688MOL0     C94868   9.181   1.101   3.347 -0.0283  0.3097 -0.6162
  688MOL0     C94869   9.109   1.027   3.464 -0.7013 -0.5338  1.0641
  688MOL0     C94870   9.110   1.112   3.588 -0.2802  0.4323 -0.2791
  688MOL0     C94871   9.098   1.151   3.706 -0.3223  0.6281 -0.4780
  688MOL0     C94872   9.368   1.244   2.896  0.4058  0.6792 -0.3432
  688MOL0     C94873   9.463   1.294   2.815 -0.2768  0.1848  1.0931
  688MOL0     C94874   9.522   1.190   2.715  0.0563  0.1185  0.4342
  688MOL0     H94875   9.598   1.888   2.720  0.8440  0.5417  2.0537
  688MOL0     H94876   9.788   2.033   2.645  1.2239  1.2619  1.9326
  688MOL0     H94877   9.948   2.038   2.469 -0.0126  1.9888  1.8432
  688MOL0     H94878  10.080   1.936   2.445 -1.0754 -0.3403  1.4789
  688MOL0     H94879  10.111   2.221   2.442  3.9851  1.0381  0.3324
  688MOL0     H94880  10.093   2.204   2.612  2.0763  0.5248  0.7337
  688MOL0     H94881  10.318   2.117   2.629 -3.1168  1.6195  1.1517
  688MOL0     H94882  10.301   2.012   2.485  0.1960 -0.1560  0.3691
  688MOL0     H94883  10.458   2.157   2.417 -0.8502 -1.8492  2.5131
  688MOL0     H94884  10.308   2.208   2.334 -0.9749 -0.1563  1.2227
  688MOL0     H94885  10.294   2.396   2.512 -0.5567 -2.3482  1.1948
  688MOL0     H94886  10.424   2.410   2.393 -0.1335 -0.0708 -0.2566
  688MOL0     H94887  10.468   2.249   2.655  1.1670 -1.5097 -1.5404
  688MOL0     H94888  10.589   2.300   2.542  0.7388  2.5129  0.0066
  688MOL0     H94889  10.504   2.537   2.581 -0.3084 -2.0125 -2.4691
  688MOL0     H94890  10.618   2.463   2.688 -0.3921  2.7249  2.0134
  688MOL0     H94891  10.337   2.557   2.745  0.5039  1.2675  1.8965
  688MOL0     H94892  10.365   2.384   2.802 -1.7086  1.5743 -1.3051
  688MOL0     H94893  10.621   2.661   2.797  1.7706 -0.5808  1.4521
  688MOL0     H94894  10.690   2.863   2.990  0.3880  1.5365  1.6347
  688MOL0     H94895  10.716   2.764   3.137  1.4873 -2.5937 -2.5811
  688MOL0     H94896  10.487   2.943   3.064 -1.3978 -0.8787 -1.7366
  688MOL0     H94897  10.489   2.839   3.213  2.6747 -0.4346  0.4415
  688MOL0     H94898  10.555   3.100   3.242  0.6774  0.8776  1.6286
  688MOL0     H94899  10.665   2.985   3.308  2.9117  4.9358  0.3036
  688MOL0     H94900  10.738   3.059   3.028 -1.4763 -1.5705  0.1516
  688MOL0     H94901  10.705   3.193   3.141  1.1925 -0.0702  2.3676
  688MOL0     H94902  10.804   3.304   3.299 -2.2002  0.2077  3.6013
  688MOL0     H94903  10.781   3.449   3.455  1.8141  3.0354  0.0720
  688MOL0     H94904  10.922   3.476   3.559 -1.4836  1.1511 -0.8630
  688MOL0     H94905  10.768   3.386   3.605 -0.5489 -4.1021 -0.6779
  688MOL0     H94906  11.057   3.510   3.861  2.3961 -1.3486  0.1436
  688MOL0     H94907  11.137   3.560   4.097 -0.3974  0.4989  3.3674
  688MOL0     H94908  11.285   3.384   4.217  1.9587 -2.9270  2.8238
  688MOL0     H94909  11.253   3.552   4.285  1.1515 -0.4121  4.0943
  688MOL0     H94910  11.314   3.296   4.439  1.3007  0.5877  2.0046
  688MOL0     H94911  11.391   3.455   4.434 -0.6173  1.5645  1.8824
  688MOL0     H94912  11.244   3.377   4.643  0.2068  1.2309  1.5238
  688MOL0     H94913  11.101   3.412   4.538 -0.9553  0.2996 -2.3705
  688MOL0     H94914  11.172   3.642   4.510 -5.5220 -2.7395  0.8416
  688MOL0     H94915  11.330   3.615   4.600 -1.4996  0.6566  1.2793
  688MOL0     H94916  11.047   3.602   4.696 -0.2759  4.6525 -2.2847
  688MOL0     H94917  11.192   3.547   4.799  4.1381  2.9272  0.4299
  688MOL0     H94918  11.161   3.821   4.696  1.7143  2.0680  1.6884
  688MOL0     H94919  11.293   3.761   4.804  0.6122 -0.4394  1.3054
  688MOL0     H94920  11.111   3.745   4.985 -0.6838 -0.7968  0.0589
  688MOL0     H94921  10.998   3.795   4.870  0.3873 -1.6342 -0.5672
  688MOL0     H94922  11.106   4.019   4.858 -2.4899 -0.5395  0.1568
  688MOL0     H94923  11.245   3.969   4.955 -0.5054  0.3335  4.6675
  688MOL0     H94924  10.894   3.233   4.229  0.9502  0.3218  0.7550
  688MOL0     H94925  10.844   3.173   4.011  1.2883 -0.7049  0.7387
  688MOL0     H94926  11.068   2.989   3.574  3.6447  0.8213 -1.2504
  688MOL0     H94927  10.997   2.914   3.375  0.8878 -0.4378  1.7667
  688MOL0     H94928  10.063   1.717   2.717  0.5583  0.4643  1.4671
  688MOL0     H94929   9.899   1.574   2.755 -1.2318 -0.5119  2.8719
  688MOL0     H94930   9.457   1.607   2.946  2.6290 -0.6920 -1.5607
  688MOL0     H94931   9.288   1.526   3.073  1.5386 -0.5534  0.3003
  688MOL0     H94932   9.272   1.340   3.281 -0.9583  3.2326  1.1213
  688MOL0     H94933   9.140   1.409   3.203 -1.5119 -1.4871 -0.3299
  688MOL0     H94934   8.997   1.193   3.242 -1.0737  3.1424  2.0631
  688MOL0     H94935   9.045   1.263   3.381 -3.1502 -2.4417  0.7561
  688MOL0     H94936   9.180   1.029   3.264  1.1061 -1.8126  1.1011
  688MOL0     H94937   9.286   1.121   3.369  0.5941 -2.1467 -1.0100
  688MOL0     H94938   9.159   0.932   3.488 -2.0299 -1.5426 -0.0354
  688MOL0     H94939   9.007   1.002   3.435 -0.1303 -0.4616 -1.1587
  688MOL0     H94940   9.090   1.181   3.808  3.5151  1.0617 -0.1602
  688MOL0     H94941   9.323   1.148   2.872 -0.2463  1.3876 -2.1199
  688MOL0     H94942   9.435   1.139   2.672 -1.5591 -0.8929  4.4471
  688MOL0     H94943   9.580   1.235   2.634  1.6675 -2.5974 -0.0445
  688MOL0     H94944   9.587   1.117   2.763  1.6196  0.0070 -1.7382
  689MOL0     O94945   4.127   4.476   9.299 -0.1492 -0.3519  0.1209
  689MOL0     C94946   4.194   4.370   9.296  0.3913 -0.1897 -0.1390
  689MOL0     O94947   4.306   4.352   9.226 -0.1206 -0.6187 -0.3296
  689MOL0     C94948   4.350   4.446   9.130  0.5301  0.3451 -0.4439
  689MOL0     C94949   4.263   4.468   9.025 -0.1965 -0.2989  0.6063
  689MOL0     C94950   4.311   4.535   8.917  0.8778 -0.0526  0.2764
  689MOL0     C94951   4.430   4.607   8.913  0.4948  0.0751 -1.0885
  689MOL0     O94952   4.449   4.689   8.804 -0.3122 -0.3287  1.1268
  689MOL0     C94953   4.463   4.830   8.833  0.4028  0.8564  0.2102
  689MOL0     C94954   4.330   4.887   8.889  0.0651 -0.4362 -0.2156
  689MOL0     C94955   4.211   4.870   8.798  0.4421  0.0779  0.5142
  689MOL0     C94956   4.196   4.991   8.706 -0.1384  0.1105  0.6566
  689MOL0     C94957   4.067   4.980   8.626 -0.3324  0.6491  0.3642
  689MOL0     C94958   4.066   5.071   8.506 -0.4599  0.6544 -0.4982
  689MOL0     C94959   3.928   5.052   8.430 -1.0320 -1.0184 -0.3853
  689MOL0     C94960   3.900   5.151   8.326 -0.1248 -0.0963 -0.5201
  689MOL0     N94961   4.020   5.192   8.246  0.3647  0.3933 -0.2609
  689MOL0     C94962   4.089   5.106   8.161  0.0938 -0.8768 -1.3723
  689MOL0     C94963   4.184   5.187   8.102  0.0696  0.3561 -0.8789
  689MOL0     C94964   4.288   5.143   8.005 -0.5969  0.2618 -0.2779
  689MOL0     C94965   4.434   5.141   8.051 -1.0606  0.4018  0.4542
  689MOL0     C94966   4.475   5.044   8.164  0.0849 -0.8640  0.0499
  689MOL0     C94967   4.597   5.104   8.251  0.1866  0.0805  0.4826
  689MOL0     O94968   4.720   5.076   8.177  0.2823  0.4298  0.1557
  689MOL0     C94969   4.800   4.974   8.222  0.5665 -0.1857 -0.6341
  689MOL0     C94970   4.929   4.982   8.198 -0.7999  0.0635 -0.1123
  689MOL0     C94971   5.021   4.876   8.212  0.0931  0.3693 -0.8750
  689MOL0     C94972   5.165   4.920   8.190  0.3887  0.6299 -0.9501
  689MOL0     C94973   4.973   4.751   8.258  0.4140  0.0722  0.4126
  689MOL0     C94974   5.049   4.620   8.276  0.3544 -0.4787  1.0431
  689MOL0     O94975   4.994   4.517   8.347 -0.5012 -0.6238 -0.0895
  689MOL0     C94976   5.043   4.386   8.330 -0.2848 -0.2747 -0.2295
  689MOL0     C94977   5.177   4.343   8.347 -0.4092  0.6415 -0.6881
  689MOL0     C94978   5.207   4.204   8.351 -0.0761  0.0325  0.4326
  689MOL0     C94979   5.106   4.100   8.348  0.9694 -0.1441 -0.1497
  689MOL0     O94980   5.120   3.964   8.363 -0.4621 -0.0156  0.9451
  689MOL0     C94981   5.248   3.914   8.343 -1.0513 -0.6652  0.5456
  689MOL0     C94982   5.250   3.770   8.319 -0.6103  0.3054  0.9857
  689MOL0     C94983   5.221   3.666   8.427 -0.3229 -0.5144 -0.5803
  689MOL0     C94984   5.075   3.615   8.422 -0.7513  0.1731  0.1653
  689MOL0     C94985   5.070   3.505   8.311 -0.0507 -0.2873  0.4818
  689MOL0     C94986   4.948   3.426   8.324  0.1526  0.0538  0.4986
  689MOL0     C94987   4.948   3.304   8.225 -0.0437 -0.0807  0.6192
  689MOL0     C94988   4.869   3.183   8.261  0.3891 -0.0615  0.2433
  689MOL0    Cl94989   4.691   3.226   8.233 -0.4582  0.3832 -0.4267
  689MOL0     C94990   4.971   4.148   8.334 -0.1707  0.6302 -0.1307
  689MOL0     C94991   4.942   4.288   8.325 -0.4239  0.4867  0.1115
  689MOL0     O94992   5.148   4.614   8.203 -0.0917  0.8625 -0.0156
  689MOL0     C94993   4.839   4.742   8.300  0.2887 -0.1224  0.0602
  689MOL0     C94994   4.753   4.851   8.280  0.1809  0.1789 -0.1604
  689MOL0     N94995   4.168   5.312   8.153  0.4854  0.1976 -0.4893
  689MOL0     N94996   4.068   5.323   8.235  0.7238  0.3180 -0.3660
  689MOL0     C94997   4.506   4.607   9.029 -0.8983 -0.1005 -0.1898
  689MOL0     C94998   4.473   4.515   9.133 -0.2488 -0.6217  0.7289
  689MOL0     C94999   4.138   4.245   9.349  0.2292 -0.7471  0.6368
  689MOL0     C95000   3.993   4.238   9.340 -0.0546 -0.0062  0.5447
  689MOL0     C95001   3.925   4.128   9.400 -1.1780 -0.3494  0.4763
  689MOL0     C95002   4.001   4.025   9.457 -0.2454 -0.0939  0.2066
  689MOL0     O95003   3.945   3.920   9.519 -0.4631  0.1628 -0.5133
  689MOL0     C95004   3.837   3.944   9.614 -0.6821 -0.7052 -0.2938
  689MOL0     C95005   3.838   3.837   9.720  1.0910  0.1454  0.1452
  689MOL0     C95006   3.767   3.706   9.681  0.4617  0.1441  0.5700
  689MOL0     C95007   3.780   3.592   9.788 -0.9182 -0.3886  0.8664
  689MOL0     C95008   3.656   3.509   9.758  0.5360 -0.5633  0.0888
  689MOL0     C95009   3.556   3.446   9.728  0.0822  0.0041 -0.2240
  689MOL0     C95010   4.140   4.030   9.450  0.3006 -0.2387  0.4110
  689MOL0     C95011   4.208   4.135   9.396 -0.1238 -0.8760  0.0363
  689MOL0     C95012   4.359   4.123   9.400 -0.0254 -1.2047 -0.7229
  689MOL0     H95013   4.171   4.410   9.019  0.6258 -1.5670 -0.4414
  689MOL0     H95014   4.257   4.523   8.824  1.4623 -0.8154  0.0246
  689MOL0     H95015   4.494   4.876   8.739 -0.5420 -3.0531 -2.2300
  689MOL0     H95016   4.547   4.837   8.903  2.2494 -1.7534 -1.5795
  689MOL0     H95017   4.310   4.850   8.989  0.7194 -2.7467 -0.8807
  689MOL0     H95018   4.342   4.995   8.900 -1.1283 -0.2735 -0.4539
  689MOL0     H95019   4.201   4.772   8.750  0.0268 -0.0949  0.9487
  689MOL0     H95020   4.122   4.888   8.859  2.1350  1.2915  2.7688
  689MOL0     H95021   4.190   5.089   8.753 -1.3367  0.6879 -0.6125
  689MOL0     H95022   4.277   4.971   8.635 -0.9568  3.9161 -1.6323
  689MOL0     H95023   3.975   4.986   8.685 -2.3507  2.4992 -2.6842
  689MOL0     H95024   4.065   4.880   8.580 -0.5340  1.2425 -0.9724
  689MOL0     H95025   4.076   5.173   8.544  0.2347  0.6667 -0.7105
  689MOL0     H95026   4.145   5.053   8.433  1.1141 -0.1334  1.3440
  689MOL0     H95027   3.861   5.064   8.515  0.4240 -2.7873  1.1077
  689MOL0     H95028   3.926   4.949   8.392 -2.5956 -1.5881  1.0989
  689MOL0     H95029   3.819   5.122   8.257  0.9102  1.0008 -2.2765
  689MOL0     H95030   3.869   5.243   8.376  1.9351  0.5457 -0.3404
  689MOL0     H95031   4.064   5.005   8.130  1.3590 -1.1238 -1.6401
  689MOL0     H95032   4.293   5.224   7.932  1.0449  0.7455  0.3400
  689MOL0     H95033   4.262   5.044   7.966 -0.9885  0.7442 -1.2844
  689MOL0     H95034   4.508   5.131   7.971  1.5835 -1.5414  2.9149
  689MOL0     H95035   4.440   5.241   8.095 -4.0656  2.0541 -2.4866
  689MOL0     H95036   4.386   5.021   8.223 -0.4095  1.1383  0.1555
  689MOL0     H95037   4.499   4.947   8.120 -1.4718 -1.8937  1.3444
  689MOL0     H95038   4.593   5.208   8.286  1.6614  0.1475  0.5235
  689MOL0     H95039   4.593   5.047   8.344  1.8032 -0.0911  0.4732
  689MOL0     H95040   4.963   5.078   8.160  2.8914 -0.8933  0.3957
  689MOL0     H95041   5.220   4.894   8.281 -2.8496 -3.0723  0.2896
  689MOL0     H95042   5.165   5.026   8.167 -2.4376  0.6415 -1.3098
  689MOL0     H95043   5.210   4.868   8.105  2.5732  2.2472 -0.8602
  689MOL0     H95044   5.261   4.412   8.344  1.5256 -1.6353 -2.6145
  689MOL0     H95045   5.311   4.172   8.350  0.4376  1.6149  1.1530
  689MOL0     H95046   5.306   3.956   8.261 -0.9592  0.0248  0.9643
  689MOL0     H95047   5.307   3.923   8.435 -0.8743  0.8130  0.3033
  689MOL0     H95048   5.192   3.754   8.229 -0.6877  2.4184  0.6186
  689MOL0     H95049   5.358   3.752   8.307 -0.4860 -1.0348  3.3639
  689MOL0     H95050   5.238   3.713   8.524 -1.0266 -2.4730  0.5577
  689MOL0     H95051   5.285   3.580   8.403  2.3094  1.6497 -1.8327
  689MOL0     H95052   5.009   3.696   8.392 -0.1895 -0.2862 -2.6214
  689MOL0     H95053   5.049   3.577   8.521  3.6681  2.0407  2.3310
  689MOL0     H95054   5.070   3.556   8.215 -1.0835  0.3160  0.7838
  689MOL0     H95055   5.146   3.427   8.325 -0.3589 -0.9826 -1.4496
  689MOL0     H95056   4.862   3.493   8.309 -0.2762 -0.5155  0.3651
  689MOL0     H95057   4.936   3.380   8.422  2.9552  1.8578  1.7991
  689MOL0     H95058   5.051   3.273   8.206 -1.2636 -2.6506 -2.9846
  689MOL0     H95059   4.900   3.340   8.134 -0.6513  1.7101  1.5911
  689MOL0     H95060   4.884   3.135   8.358  0.8982  0.5588  0.4847
  689MOL0     H95061   4.884   3.111   8.181  3.4766  0.3694  0.3101
  689MOL0     H95062   4.891   4.075   8.334 -0.4293  0.7556 -3.5400
  689MOL0     H95063   4.841   4.326   8.315 -0.2668  0.6881 -0.7875
  689MOL0     H95064   4.792   4.654   8.343  1.0146 -0.0270  1.1020
  689MOL0     H95065   4.648   4.835   8.303  0.1539 -3.2372 -2.0186
  689MOL0     H95066   4.600   4.662   9.033 -1.4385  0.7539  2.1080
  689MOL0     H95067   4.536   4.508   9.221 -0.1991  0.7866  0.8414
  689MOL0     H95068   3.925   4.307   9.291  0.0198 -0.6881 -0.5745
  689MOL0     H95069   3.817   4.127   9.400 -1.1770 -0.6715  0.8379
  689MOL0     H95070   3.842   4.042   9.663 -0.9668 -1.4820  1.3802
  689MOL0     H95071   3.740   3.948   9.564 -1.1570  0.2693  0.6504
  689MOL0     H95072   3.781   3.869   9.808 -0.4265 -0.3196 -0.6492
  689MOL0     H95073   3.938   3.823   9.763  0.5129  0.0145  1.5068
  689MOL0     H95074   3.660   3.727   9.669  0.4544  0.2470  0.8115
  689MOL0     H95075   3.809   3.679   9.584 -0.8092  0.5604 -0.1204
  689MOL0     H95076   3.785   3.636   9.889  2.7345  5.1326 -1.2522
  689MOL0     H95077   3.871   3.536   9.770 -0.8996 -0.0391 -0.1536
  689MOL0     H95078   3.464   3.403   9.694 -1.4678  1.8388  1.4104
  689MOL0     H95079   4.188   3.947   9.501 -1.2797 -0.4850  1.5897
  689MOL0     H95080   4.402   4.209   9.451 -0.3617 -0.1390 -2.1861
  689MOL0     H95081   4.396   4.032   9.450 -2.6547 -3.4057 -2.4876
  689MOL0     H95082   4.400   4.129   9.299  0.7400  0.5439 -0.3309
  690MOL0     O95083   2.608   1.987   2.935 -0.4679 -0.2490  0.2051
  690MOL0     C95084   2.606   2.051   3.035 -1.0066 -0.3297 -0.1864
  690MOL0     O95085   2.624   2.192   3.034  0.0354  0.0077  0.0561
  690MOL0     C95086   2.656   2.261   2.919  0.4722  0.0822  0.1273
  690MOL0     C95087   2.602   2.386   2.900  0.2910 -0.1202  0.2846
  690MOL0     C95088   2.632   2.457   2.785  0.6040  0.1939  0.5044
  690MOL0     C95089   2.712   2.399   2.682 -0.0825  0.3054  0.3471
  690MOL0     O95090   2.718   2.472   2.562  0.2799 -0.5650  0.7688
  690MOL0     C95091   2.824   2.436   2.476  0.5411  0.7834 -0.2478
  690MOL0     C95092   2.958   2.459   2.538  0.6155 -0.7503 -0.9309
  690MOL0     C95093   3.060   2.402   2.451  0.2393  1.3665 -0.5779
  690MOL0     C95094   3.093   2.249   2.465  0.0485 -0.6280 -1.3521
  690MOL0     C95095   3.191   2.199   2.360 -0.2321 -0.3488 -0.5089
  690MOL0     C95096   3.229   2.052   2.373 -0.6898 -0.1445  0.1803
  690MOL0     C95097   3.104   1.961   2.382  0.2564  0.0731  0.4256
  690MOL0     C95098   3.128   1.824   2.329  0.3308  0.0929 -0.3289
  690MOL0     N95099   3.211   1.745   2.421 -1.0611 -1.0582 -0.0269
  690MOL0     C95100   3.230   1.769   2.557  1.0228  0.1213  0.3049
  690MOL0     C95101   3.317   1.676   2.593 -0.5833  0.4285 -1.1277
  690MOL0     C95102   3.366   1.662   2.735  0.4947 -0.7856  0.0663
  690MOL0     C95103   3.499   1.727   2.771 -0.5125 -0.4234  0.6328
  690MOL0     C95104   3.582   1.626   2.858 -0.1245  0.3016 -0.7863
  690MOL0     C95105   3.707   1.673   2.919  0.2598  0.0400 -0.3410
  690MOL0     O95106   3.802   1.705   2.817 -0.2412 -1.0633  0.7387
  690MOL0     C95107   3.885   1.817   2.832 -0.3253  0.7876 -0.1079
  690MOL0     C95108   3.934   1.876   2.948  0.2020  0.1664 -0.3482
  690MOL0     C95109   4.012   1.995   2.949 -0.3780 -0.2612  0.4843
  690MOL0     C95110   4.059   2.043   3.088 -0.0415 -0.1056 -1.3588
  690MOL0     C95111   4.034   2.060   2.825  0.2332 -0.2464 -0.3067
  690MOL0     C95112   4.101   2.191   2.807 -0.3015 -0.7179 -0.0370
  690MOL0     O95113   4.131   2.243   2.687  0.0615  0.4331  0.4138
  690MOL0     C95114   4.240   2.330   2.683 -0.0382  0.2722 -0.4301
  690MOL0     C95115   4.357   2.295   2.736 -0.2118  0.4412 -0.5271
  690MOL0     C95116   4.469   2.379   2.744  0.2938 -0.8788 -0.1810
  690MOL0     C95117   4.457   2.505   2.686 -0.3131 -0.2601 -0.2662
  690MOL0     O95118   4.565   2.585   2.712 -0.0861  0.1693  1.1386
  690MOL0     C95119   4.591   2.688   2.616 -0.4951 -0.6171 -0.1136
  690MOL0     C95120   4.559   2.831   2.658 -0.6451  0.5633 -0.0164
  690MOL0     C95121   4.575   2.853   2.812  0.2187 -0.2412 -0.8579
  690MOL0     C95122   4.563   3.000   2.851  0.1969  0.1631  1.0228
  690MOL0     C95123   4.670   3.081   2.784  0.8583 -0.4476 -0.1909
  690MOL0     C95124   4.765   3.149   2.893 -0.6863  0.2812  0.8535
  690MOL0     C95125   4.707   3.275   2.962 -0.2157 -1.2527  1.3523
  690MOL0     C95126   4.811   3.371   3.033 -0.4632  0.5927  0.1336
  690MOL0    Cl95127   4.901   3.259   3.142  0.3525  0.2764  0.0775
  690MOL0     C95128   4.339   2.553   2.645 -0.0071 -0.1105 -0.6029
  690MOL0     C95129   4.224   2.467   2.642 -0.5702  0.1330 -0.3330
  690MOL0     O95130   4.097   2.257   2.907  0.0113  0.2877 -0.3414
  690MOL0     C95131   3.985   2.005   2.706 -0.5612  0.5451 -0.5333
  690MOL0     C95132   3.907   1.893   2.714  0.1734 -0.3670  0.3213
  690MOL0     N95133   3.363   1.604   2.490  0.5129  0.5206  0.7835
  690MOL0     N95134   3.293   1.640   2.384  0.0585 -0.5494 -0.3461
  690MOL0     C95135   2.772   2.271   2.704  0.1988  0.8231 -0.2420
  690MOL0     C95136   2.743   2.204   2.820  0.8407  0.5208  0.6287
  690MOL0     C95137   2.554   1.990   3.171 -0.2521  0.2737  0.0930
  690MOL0     C95138   2.517   2.073   3.281  0.3233 -0.9647  1.0290
  690MOL0     C95139   2.456   2.029   3.393 -1.1921  1.9871 -0.5905
  690MOL0     C95140   2.446   1.886   3.410 -0.1032 -0.6686 -0.8739
  690MOL0     O95141   2.379   1.842   3.527 -0.0883  0.4204  0.0931
  690MOL0     C95142   2.421   1.714   3.578 -0.7600  0.4946 -0.9315
  690MOL0     C95143   2.443   1.728   3.727  0.2947 -0.3191  0.1236
  690MOL0     C95144   2.502   1.607   3.799  0.8376  0.5305 -0.1105
  690MOL0     C95145   2.641   1.618   3.842 -1.1375  0.2235  0.0769
  690MOL0     C95146   2.734   1.605   3.733 -0.6566  0.1070  0.3721
  690MOL0     C95147   2.807   1.593   3.637 -0.3965  0.0631  0.4601
  690MOL0     C95148   2.484   1.802   3.311 -0.0460 -0.4814 -0.0980
  690MOL0     C95149   2.552   1.846   3.195 -0.0818  0.4188  0.1317
  690MOL0     C95150   2.619   1.747   3.106  0.2077 -0.7690  0.4711
  690MOL0     H95151   2.532   2.420   2.975  1.6785  2.3383  0.5553
  690MOL0     H95152   2.585   2.553   2.764 -2.1840 -1.2374 -0.2772
  690MOL0     H95153   2.803   2.507   2.396  0.3130  2.2066  1.0372
  690MOL0     H95154   2.810   2.333   2.442  1.1483  0.1190  1.3909
  690MOL0     H95155   2.964   2.568   2.549 -3.2750 -0.5649  1.3154
  690MOL0     H95156   2.962   2.412   2.637 -3.2312 -1.7063 -1.0300
  690MOL0     H95157   3.036   2.422   2.346 -0.3949  0.7306 -0.5606
  690MOL0     H95158   3.143   2.469   2.475  1.9111 -0.2895 -1.4640
  690MOL0     H95159   3.131   2.217   2.562 -2.6287  0.8842  0.3183
  690MOL0     H95160   2.997   2.200   2.451 -0.9015  1.1220 -1.2741
  690MOL0     H95161   3.280   2.256   2.387  0.4425 -1.3760 -0.5354
  690MOL0     H95162   3.156   2.231   2.261 -1.7013 -1.7290 -0.4771
  690MOL0     H95163   3.283   2.021   2.283  0.1572 -3.1982  1.6153
  690MOL0     H95164   3.300   2.043   2.456 -0.6917  0.4858  0.2521
  690MOL0     H95165   3.017   2.009   2.337 -1.4525 -4.0970 -1.2870
  690MOL0     H95166   3.067   1.947   2.483  0.3835 -2.4232  0.1835
  690MOL0     H95167   3.032   1.772   2.332 -0.0960  0.9030  1.7862
  690MOL0     H95168   3.163   1.826   2.225 -2.7856  2.4451 -1.4818
  690MOL0     H95169   3.196   1.844   2.628  1.1981 -0.9006  1.5019
  690MOL0     H95170   3.379   1.554   2.740 -0.9321 -1.1237 -2.3891
  690MOL0     H95171   3.294   1.695   2.810  0.4085  1.4762 -0.9299
  690MOL0     H95172   3.554   1.745   2.678  1.5879  0.1772  1.9167
  690MOL0     H95173   3.479   1.830   2.802 -2.9537  0.3289 -2.9012
  690MOL0     H95174   3.518   1.592   2.940  2.9902 -3.8488  0.2656
  690MOL0     H95175   3.600   1.535   2.800  3.9703  0.0962  0.5079
  690MOL0     H95176   3.680   1.763   2.975 -0.1265 -0.9483  1.1098
  690MOL0     H95177   3.737   1.608   3.001 -2.1080  2.3791  2.6186
  690MOL0     H95178   3.922   1.808   3.033 -2.6283 -2.2129 -2.4213
  690MOL0     H95179   4.014   2.141   3.103  2.1912  1.0215 -1.5462
  690MOL0     H95180   4.168   2.044   3.093 -0.0870  2.2870  0.9705
  690MOL0     H95181   4.019   1.980   3.167 -0.1394 -0.4140 -1.6490
  690MOL0     H95182   4.390   2.197   2.771 -0.2693 -0.1021 -1.9362
  690MOL0     H95183   4.556   2.344   2.800  0.6511 -2.5849 -1.6910
  690MOL0     H95184   4.686   2.681   2.561  0.2753  0.8284  0.9398
  690MOL0     H95185   4.527   2.661   2.532 -2.5475 -4.7626  2.4899
  690MOL0     H95186   4.622   2.907   2.612  1.1666  1.6071  3.7518
  690MOL0     H95187   4.455   2.856   2.637 -0.6261  0.2662 -0.4793
  690MOL0     H95188   4.672   2.823   2.851  0.3005  2.6762  1.5087
  690MOL0     H95189   4.509   2.786   2.867  0.6868 -0.0771 -0.0885
  690MOL0     H95190   4.577   2.999   2.959  2.2574 -2.4468  0.8299
  690MOL0     H95191   4.468   3.035   2.809 -0.7612  0.4178  3.2861
  690MOL0     H95192   4.736   3.018   2.723 -0.5709 -0.5817 -1.6485
  690MOL0     H95193   4.634   3.160   2.718  0.9248 -2.9576 -3.4781
  690MOL0     H95194   4.852   3.182   2.835 -2.1039  1.3873 -0.7312
  690MOL0     H95195   4.798   3.068   2.959 -0.9628 -0.1526  0.4621
  690MOL0     H95196   4.637   3.235   3.036 -1.8862  3.7159  2.8703
  690MOL0     H95197   4.646   3.336   2.895  2.4123 -1.8951 -1.8706
  690MOL0     H95198   4.776   3.454   3.096 -1.1486  1.0776 -0.8605
  690MOL0     H95199   4.876   3.420   2.960 -0.7230 -0.3976 -0.7772
  690MOL0     H95200   4.323   2.653   2.606 -0.8461  0.4502  1.0926
  690MOL0     H95201   4.134   2.512   2.602 -0.8451  1.6697  1.7932
  690MOL0     H95202   4.014   2.048   2.611  2.9157  0.1521  0.1759
  690MOL0     H95203   3.854   1.846   2.632 -0.9403 -2.5620  2.1828
  690MOL0     H95204   2.842   2.216   2.643 -0.6815 -2.5556  1.5256
  690MOL0     H95205   2.789   2.107   2.833 -2.1440 -1.1825 -0.5254
  690MOL0     H95206   2.516   2.181   3.267 -3.0055 -1.2639 -2.8930
  690MOL0     H95207   2.409   2.089   3.470 -0.1179  0.4515  1.3494
  690MOL0     H95208   2.348   1.635   3.559  0.7092 -0.8994 -1.0023
  690MOL0     H95209   2.517   1.679   3.538 -0.1141 -1.7269  2.1884
  690MOL0     H95210   2.351   1.756   3.779  0.7762 -0.9510  1.3743
  690MOL0     H95211   2.506   1.817   3.730 -2.4059  1.6979  0.4015
  690MOL0     H95212   2.451   1.593   3.895 -2.1889 -1.5305 -1.8732
  690MOL0     H95213   2.494   1.523   3.729  0.2133  0.4891  0.0098
  690MOL0     H95214   2.665   1.547   3.922 -0.3234  1.5785  1.0987
  690MOL0     H95215   2.651   1.721   3.880  0.8211  0.7316 -1.6137
  690MOL0     H95216   2.864   1.574   3.548 -0.0197 -0.0233  0.7203
  690MOL0     H95217   2.468   1.696   3.323 -0.3512 -0.2973  1.2231
  690MOL0     H95218   2.716   1.784   3.073  0.0276  1.4095  2.1496
  690MOL0     H95219   2.639   1.660   3.170 -0.2406 -1.3837 -0.2093
  690MOL0     H95220   2.565   1.717   3.016  1.3024  0.2606 -0.5610
  691MOL0     O95221   0.905   4.805   6.242 -0.3471  0.7658 -0.5863
  691MOL0     C95222   1.028   4.822   6.241  0.9877  0.9614 -0.6283
  691MOL0     O95223   1.108   4.896   6.331  0.0724 -0.6285 -0.2036
  691MOL0     C95224   1.053   4.956   6.442  0.2794 -0.8546 -0.7426
  691MOL0     C95225   1.141   4.985   6.543  0.0494 -0.0937 -0.2662
  691MOL0     C95226   1.099   5.052   6.656  0.0376  0.1544 -0.0810
  691MOL0     C95227   0.974   5.085   6.679 -0.1501 -0.4449  0.2297
  691MOL0     O95228   0.958   5.153   6.795 -0.3091  0.1062 -0.8729
  691MOL0     C95229   0.823   5.166   6.840 -0.1650 -0.3285 -0.3275
  691MOL0     C95230   0.826   5.229   6.985 -0.4655  0.1848 -0.1924
  691MOL0     C95231   0.694   5.228   7.062 -0.5276  0.1285  0.4414
  691MOL0     C95232   0.576   5.148   7.012 -0.6946  0.8806 -0.3469
  691MOL0     C95233   0.439   5.176   7.097  0.0971  1.2129  0.9600
  691MOL0     C95234   0.386   5.319   7.058  0.1821 -0.3803 -0.3374
  691MOL0     C95235   0.259   5.336   7.140 -0.0441 -0.3535  1.0309
  691MOL0     C95236   0.153   5.252   7.066 -0.2051  0.3382 -0.4111
  691MOL0     N95237   0.024   5.285   7.131 -0.0031  0.2317  0.6112
  691MOL0     C95238  -0.013   5.228   7.251  0.5075  0.3788 -0.5720
  691MOL0     C95239  -0.134   5.295   7.283  0.2667  0.5131  1.1636
  691MOL0     C95240  -0.234   5.250   7.393 -0.0446 -0.2852 -0.5167
  691MOL0     C95241  -0.304   5.118   7.360  0.2169 -0.1103 -0.0167
  691MOL0     C95242  -0.385   5.121   7.227 -0.2986 -0.7116  0.5584
  691MOL0     C95243  -0.365   4.997   7.130  0.7790 -0.3359  0.2680
  691MOL0     O95244  -0.222   4.955   7.119 -0.3060 -0.1119 -0.0129
  691MOL0     C95245  -0.145   5.001   7.011  0.5086 -0.9418  1.3376
  691MOL0     C95246  -0.176   5.125   6.943  0.0850 -0.0889 -0.7792
  691MOL0     C95247  -0.093   5.164   6.831  0.7825  0.0110  0.1373
  691MOL0     C95248  -0.106   5.307   6.786 -0.2544 -0.4126  0.1942
  691MOL0     C95249   0.013   5.082   6.783  0.1084 -0.2815 -0.6414
  691MOL0     C95250   0.092   5.113   6.665  0.8626  0.4220 -0.0362
  691MOL0     O95251   0.194   5.031   6.638  0.5227 -0.0919 -1.1119
  691MOL0     C95252   0.265   5.045   6.523  0.7972  0.1526 -0.0399
  691MOL0     C95253   0.299   4.920   6.466  0.4506 -0.1549 -0.9669
  691MOL0     C95254   0.371   4.913   6.346 -0.3037  0.4271 -0.6326
  691MOL0     C95255   0.408   5.032   6.278  0.1576 -0.1137 -0.1409
  691MOL0     O95256   0.475   5.057   6.166  0.3770  0.3466  0.6889
  691MOL0     C95257   0.522   4.944   6.095  0.0360 -0.2405  0.1097
  691MOL0     C95258   0.592   4.992   5.967 -0.6345  0.5511 -0.1287
  691MOL0     C95259   0.732   5.059   5.987 -0.7429 -0.4770 -0.8747
  691MOL0     C95260   0.794   5.107   5.855 -0.6017 -0.1048 -0.6316
  691MOL0     C95261   0.884   5.223   5.886 -0.9677  0.0216 -0.9669
  691MOL0     C95262   0.964   5.247   5.753  0.5637 -0.0119 -0.0676
  691MOL0     C95263   1.058   5.373   5.755  0.2972  0.1266 -0.0040
  691MOL0     C95264   1.130   5.398   5.627  0.6145  0.2410  0.8731
  691MOL0    Cl95265   1.224   5.548   5.614  0.0676 -0.4366 -0.3363
  691MOL0     C95266   0.374   5.151   6.335 -0.9700 -0.1946 -0.7069
  691MOL0     C95267   0.307   5.154   6.459 -0.6541 -0.2120 -0.1094
  691MOL0     O95268   0.058   5.209   6.594 -0.0903 -0.4069 -0.0746
  691MOL0     C95269   0.037   4.960   6.857 -0.2802  0.0479  0.1390
  691MOL0     C95270  -0.038   4.931   6.966 -0.2103 -0.1432  0.4540
  691MOL0     N95271  -0.161   5.384   7.176 -0.5009  0.7705 -0.5099
  691MOL0     N95272  -0.060   5.383   7.092  0.1737 -0.3615 -0.2952
  691MOL0     C95273   0.879   5.064   6.581  0.3803 -0.0175 -0.2908
  691MOL0     C95274   0.916   4.991   6.466 -0.0800  0.8606  0.4170
  691MOL0     C95275   1.102   4.710   6.161  0.1422  0.5826 -0.0571
  691MOL0     C95276   1.193   4.629   6.234 -0.5693  0.2350  0.6647
  691MOL0     C95277   1.267   4.534   6.169 -0.2658  0.8344 -0.2361
  691MOL0     C95278   1.244   4.493   6.035 -0.8234 -0.5661 -0.4322
  691MOL0     O95279   1.315   4.389   5.975  0.3626  0.5486  0.0358
  691MOL0     C95280   1.270   4.334   5.851 -0.2723  1.4914  0.4032
  691MOL0     C95281   1.343   4.409   5.733  0.6212 -0.8879  0.0426
  691MOL0     C95282   1.292   4.376   5.592 -0.4673  0.2691 -0.9619
  691MOL0     C95283   1.377   4.438   5.491 -0.2092 -0.7450  0.1661
  691MOL0     C95284   1.496   4.341   5.477 -0.4003 -0.2507 -0.6402
  691MOL0     C95285   1.578   4.251   5.478  0.3585  0.1975  0.4010
  691MOL0     C95286   1.142   4.568   5.965  0.2981  0.1925 -0.0757
  691MOL0     C95287   1.067   4.673   6.026  0.1293 -0.5378 -0.2684
  691MOL0     C95288   0.960   4.756   5.950 -0.2993 -0.2552 -0.1239
  691MOL0     H95289   1.245   4.951   6.546  1.1591  3.0671  0.7057
  691MOL0     H95290   1.187   5.066   6.719  1.3347 -1.5939 -1.3694
  691MOL0     H95291   0.778   5.067   6.852 -0.8978  0.3155  3.9099
  691MOL0     H95292   0.772   5.231   6.769 -2.6074 -1.7161  0.0525
  691MOL0     H95293   0.902   5.174   7.040 -0.4995 -2.0521 -2.1973
  691MOL0     H95294   0.871   5.328   6.969 -0.9817  0.5522  0.5955
  691MOL0     H95295   0.718   5.187   7.160 -1.3847 -5.1069 -1.2304
  691MOL0     H95296   0.661   5.332   7.057  1.2955  0.7264  0.1850
  691MOL0     H95297   0.554   5.183   6.910 -3.1794 -3.1920 -1.4478
  691MOL0     H95298   0.593   5.040   7.008 -2.9072  0.4966 -1.2516
  691MOL0     H95299   0.452   5.170   7.205 -0.1981 -2.0650  0.9219
  691MOL0     H95300   0.376   5.096   7.056  2.3602  0.8773 -2.1964
  691MOL0     H95301   0.454   5.391   7.105  1.3890 -1.3889 -0.4569
  691MOL0     H95302   0.378   5.338   6.951  0.1173  0.7439 -0.1428
  691MOL0     H95303   0.237   5.442   7.154 -2.9389 -0.4650 -1.6726
  691MOL0     H95304   0.290   5.300   7.239  4.7948  1.5690  0.5340
  691MOL0     H95305   0.150   5.287   6.962  1.7400 -1.3810 -1.1134
  691MOL0     H95306   0.171   5.144   7.074  2.3220  0.6772 -0.5981
  691MOL0     H95307   0.033   5.142   7.299  2.3507  1.8446  0.3763
  691MOL0     H95308  -0.311   5.323   7.418  1.6616  1.3437  0.1943
  691MOL0     H95309  -0.170   5.236   7.480  0.6717 -1.1058 -1.1510
  691MOL0     H95310  -0.224   5.043   7.353 -0.7707 -1.0871 -1.5137
  691MOL0     H95311  -0.379   5.076   7.428 -1.0964 -2.1729 -2.5547
  691MOL0     H95312  -0.494   5.128   7.237 -0.6223  2.5785 -2.7748
  691MOL0     H95313  -0.358   5.216   7.180  1.1248 -1.9317 -1.2308
  691MOL0     H95314  -0.432   4.916   7.159  1.9728 -1.2611  0.5356
  691MOL0     H95315  -0.398   5.020   7.028  0.0033 -0.0816  0.5685
  691MOL0     H95316  -0.266   5.176   6.975  1.0554 -0.5188  3.1428
  691MOL0     H95317  -0.015   5.368   6.789  1.0803 -2.2883 -0.2415
  691MOL0     H95318  -0.173   5.359   6.855 -0.1122  1.2764 -0.8912
  691MOL0     H95319  -0.138   5.318   6.682  2.5694 -2.0737 -0.9535
  691MOL0     H95320   0.261   4.832   6.517 -3.9204  1.9984  0.0619
  691MOL0     H95321   0.383   4.815   6.301 -2.9532  1.3134 -3.6225
  691MOL0     H95322   0.598   4.905   6.164  1.1491  1.3265 -0.1774
  691MOL0     H95323   0.440   4.876   6.073 -1.7340  1.7463  0.2376
  691MOL0     H95324   0.609   4.904   5.905 -2.4600  0.9195 -1.2219
  691MOL0     H95325   0.534   5.059   5.903  0.6149  1.7978 -0.0293
  691MOL0     H95326   0.801   5.002   6.049  0.3570  0.9042 -0.7724
  691MOL0     H95327   0.712   5.146   6.051  2.3585 -0.1957 -0.1573
  691MOL0     H95328   0.709   5.148   5.800 -0.2126  1.3787 -0.1909
  691MOL0     H95329   0.846   5.034   5.792  1.8540 -1.0860  2.2727
  691MOL0     H95330   0.836   5.319   5.903  3.0573  1.9792  0.6256
  691MOL0     H95331   0.967   5.216   5.957  2.6827  0.8947 -4.7553
  691MOL0     H95332   0.889   5.279   5.680  1.4166  1.2900 -0.3895
  691MOL0     H95333   1.030   5.166   5.723  2.4252  1.4039  0.0424
  691MOL0     H95334   1.132   5.364   5.834 -0.6330  2.1954  1.1990
  691MOL0     H95335   0.996   5.460   5.780 -0.3831 -0.5631  0.7153
  691MOL0     H95336   1.056   5.396   5.546  2.2360  0.4648 -0.6955
  691MOL0     H95337   1.193   5.316   5.590 -3.5063 -2.1295 -1.6617
  691MOL0     H95338   0.395   5.242   6.280  1.7418 -0.1290  0.2964
  691MOL0     H95339   0.273   5.251   6.495  0.8118  0.4586 -0.4257
  691MOL0     H95340   0.118   4.891   6.838 -0.0799 -0.1983  1.7166
  691MOL0     H95341  -0.011   4.839   7.016  4.0851  0.1931 -0.8811
  691MOL0     H95342   0.776   5.097   6.591 -0.0062 -1.7593  2.3566
  691MOL0     H95343   0.837   4.965   6.396  0.7085 -0.9354  0.1292
  691MOL0     H95344   1.222   4.646   6.337 -1.3368  1.9221  0.6313
  691MOL0     H95345   1.335   4.469   6.223 -0.2183 -1.3232 -2.7065
  691MOL0     H95346   1.292   4.227   5.856 -3.3793  0.7163 -0.0850
  691MOL0     H95347   1.164   4.336   5.823 -0.8049 -0.8927  1.9406
  691MOL0     H95348   1.452   4.400   5.730  0.5949 -1.1831 -1.9147
  691MOL0     H95349   1.327   4.516   5.750 -3.5375 -0.5251 -4.0929
  691MOL0     H95350   1.269   4.272   5.567 -2.7955  0.9789 -2.0040
  691MOL0     H95351   1.190   4.414   5.584 -0.4932  0.4565  0.1067
  691MOL0     H95352   1.406   4.534   5.534 -3.1848 -0.6651  2.2728
  691MOL0     H95353   1.321   4.444   5.397 -1.4344  3.3201  0.9912
  691MOL0     H95354   1.644   4.167   5.469  0.1971  0.2918 -2.2602
  691MOL0     H95355   1.123   4.549   5.860  3.8473  0.8388 -0.9352
  691MOL0     H95356   0.858   4.727   5.976 -0.7280  1.6815  0.5307
  691MOL0     H95357   0.969   4.865   5.957 -2.7991 -0.0899  1.5750
  691MOL0     H95358   0.980   4.727   5.846  1.5918 -0.2528  0.1913
  692MOL0     O95359   0.576  11.068   9.512  0.1714 -1.3017  0.2068
  692MOL0     C95360   0.471  11.033   9.564 -0.3792 -0.0104 -0.3066
  692MOL0     O95361   0.446  11.053   9.695  0.2371 -0.0474  0.3057
  692MOL0     C95362   0.563  11.061   9.769 -1.3564 -0.2891 -0.7968
  692MOL0     C95363   0.576  11.169   9.857 -0.1633  0.8828 -0.9767
  692MOL0     C95364   0.686  11.195   9.934 -0.5677 -0.0360 -0.8267
  692MOL0     C95365   0.798  11.114   9.913  0.3967 -0.7268 -1.3608
  692MOL0     O95366   0.922  11.145   9.974  0.5344 -0.1831  0.4383
  692MOL0     C95367   1.048  11.108   9.920  0.3720 -0.8377 -1.2108
  692MOL0     C95368   1.105  10.983   9.982  0.3617  0.2856 -0.5741
  692MOL0     C95369   1.229  10.927   9.924 -0.5537 -0.2873 -0.4485
  692MOL0     C95370   1.347  11.020   9.921 -0.0336 -0.1940  0.2976
  692MOL0     C95371   1.476  10.935   9.888  0.2137 -0.1435 -0.3791
  692MOL0     C95372   1.604  11.022   9.885 -0.3737  0.8714 -0.3021
  692MOL0     C95373   1.739  10.954   9.863  0.3114  0.5888  0.3470
  692MOL0     C95374   1.851  11.051   9.873 -0.0519 -0.4631  0.2559
  692MOL0     N95375   1.898  11.079  10.010  0.5704  0.6529  0.1445
  692MOL0     C95376   1.975  10.995  10.081  0.5444 -0.3884  0.3924
  692MOL0     C95377   2.038  11.073  10.169  0.8280 -0.1228  0.0949
  692MOL0     C95378   2.133  11.021  10.275 -0.1505  0.3767  0.8710
  692MOL0     C95379   2.223  11.140  10.315  0.4100 -0.5436 -0.3483
  692MOL0     C95380   2.307  11.180  10.201 -0.0643 -0.1489  0.0108
  692MOL0     C95381   2.438  11.252  10.232  0.5050  0.2230  0.7781
  692MOL0     O95382   2.512  11.186  10.324 -0.1156  0.2536 -0.3644
  692MOL0     C95383   2.570  11.255  10.428 -0.2121  0.3022 -0.3790
  692MOL0     C95384   2.711  11.265  10.441 -0.3741 -0.4397 -0.3625
  692MOL0     C95385   2.772  11.355  10.533  0.7641  0.2505  0.0972
  692MOL0     C95386   2.924  11.370  10.528 -1.0583 -0.9701 -0.5129
  692MOL0     C95387   2.688  11.425  10.621 -0.0126  0.3172  0.1616
  692MOL0     C95388   2.749  11.521  10.714  0.1249  0.5023 -0.7145
  692MOL0     O95389   2.758  11.479  10.848  0.9149  0.2341 -0.2888
  692MOL0     C95390   2.793  11.576  10.934 -0.0445  0.0567  0.1959
  692MOL0     C95391   2.918  11.586  10.968  0.4313 -0.0779  0.3999
  692MOL0     C95392   2.957  11.701  11.041  1.0640 -0.3906 -0.4453
  692MOL0     C95393   2.865  11.805  11.071 -0.0833 -1.6852 -0.3317
  692MOL0     O95394   2.924  11.919  11.123  0.6315 -0.1815 -0.9878
  692MOL0     C95395   2.826  12.017  11.165 -0.5256 -0.0556 -0.8808
  692MOL0     C95396   2.760  11.999  11.303  0.2414  0.3109 -0.6033
  692MOL0     C95397   2.726  12.141  11.365  0.2161  0.1096  0.4605
  692MOL0     C95398   2.676  12.126  11.513 -0.6160 -0.3064  0.4971
  692MOL0     C95399   2.641  12.245  11.592  0.8040  0.0505 -0.0740
  692MOL0     C95400   2.758  12.324  11.642  0.1516  0.4685 -0.1042
  692MOL0     C95401   2.799  12.259  11.775  0.3697  0.1555  0.2037
  692MOL0     C95402   2.931  12.286  11.835 -0.4081 -0.6579 -0.5780
  692MOL0    Cl95403   2.976  12.220  11.993  0.7017 -0.3580 -0.4046
  692MOL0     C95404   2.731  11.785  11.044  0.3253 -0.5485  0.9736
  692MOL0     C95405   2.693  11.659  10.978 -0.2680 -0.2039 -0.2146
  692MOL0     O95406   2.793  11.625  10.663 -0.2800  0.9980  0.2043
  692MOL0     C95407   2.549  11.412  10.612 -0.5554 -0.7504 -0.1748
  692MOL0     C95408   2.489  11.329  10.523 -0.0979 -0.1909  0.1043
  692MOL0     N95409   1.966  11.197  10.174  0.5983 -0.3603  0.6242
  692MOL0     N95410   1.882  11.186  10.073  0.5906 -0.6181  0.1403
  692MOL0     C95411   0.787  10.995   9.843  0.6355  0.0793 -0.5042
  692MOL0     C95412   0.667  10.971   9.769  0.3457  0.6035  0.9061
  692MOL0     C95413   0.365  10.975   9.473 -0.6443  0.3365 -0.6040
  692MOL0     C95414   0.386  10.968   9.338 -0.0179  0.5621  0.3938
  692MOL0     C95415   0.286  10.916   9.257  0.3850 -0.2067  0.6191
  692MOL0     C95416   0.172  10.860   9.309  0.1270  0.3689 -0.3183
  692MOL0     O95417   0.079  10.796   9.239  0.2086  0.1912 -0.4565
  692MOL0     C95418   0.065  10.816   9.098  0.1470 -0.2809 -0.0161
  692MOL0     C95419   0.142  10.702   9.031 -0.0223 -0.9435  0.5225
  692MOL0     C95420   0.080  10.569   9.031 -0.2096 -0.0730 -0.3286
  692MOL0     C95421   0.174  10.461   8.961  0.3578 -0.4672  0.0191
  692MOL0     C95422   0.173  10.475   8.814  0.9363 -0.4581  0.1646
  692MOL0     C95423   0.170  10.513   8.695 -0.2641  0.8459  0.7904
  692MOL0     C95424   0.150  10.884   9.443  0.4864 -0.3875 -0.6840
  692MOL0     C95425   0.240  10.929   9.527 -0.2335  0.9214  0.3028
  692MOL0     C95426   0.181  10.936   9.671  0.1613 -0.1151  0.1075
  692MOL0     H95427   0.489  11.231   9.874 -0.0376  0.5043  1.4745
  692MOL0     H95428   0.697  11.288   9.988 -3.4228  1.1223 -2.0402
  692MOL0     H95429   1.123  11.185   9.940  0.5030 -1.0376 -0.9196
  692MOL0     H95430   1.028  11.087   9.815  0.4824 -1.4686 -1.1060
  692MOL0     H95431   1.120  11.013  10.086  0.5425 -2.1644  0.1733
  692MOL0     H95432   1.026  10.908   9.976  0.5279  0.2331 -2.5268
  692MOL0     H95433   1.271  10.849   9.987  3.7142  2.2909  0.2612
  692MOL0     H95434   1.209  10.887   9.824  0.4541 -0.4370 -0.5917
  692MOL0     H95435   1.342  11.095   9.842  2.4413 -2.2101 -1.9327
  692MOL0     H95436   1.361  11.069  10.018  1.3033 -1.0642  0.5620
  692MOL0     H95437   1.468  10.896   9.786  1.3027  2.1241 -1.4108
  692MOL0     H95438   1.497  10.860   9.964  1.9854  0.1952 -0.4712
  692MOL0     H95439   1.588  11.076   9.791 -0.2427 -1.1623 -1.5391
  692MOL0     H95440   1.603  11.086   9.974 -0.0947 -0.3362  0.5813
  692MOL0     H95441   1.743  10.905   9.765  4.1417 -0.2309  0.7547
  692MOL0     H95442   1.755  10.878   9.940  0.6758 -0.2598 -0.5439
  692MOL0     H95443   1.936  11.027   9.809  3.8364  5.1053  2.5147
  692MOL0     H95444   1.823  11.148   9.833 -0.4200 -0.5943  0.1958
  692MOL0     H95445   1.995  10.892  10.057 -1.6356 -1.4509  2.6593
  692MOL0     H95446   2.186  10.940  10.225 -4.0041  0.0616 -3.3994
  692MOL0     H95447   2.070  10.993  10.360 -1.5488 -0.3326 -0.3560
  692MOL0     H95448   2.164  11.216  10.366 -2.5039 -3.7475  1.5369
  692MOL0     H95449   2.290  11.096  10.389  4.5431  0.7791 -2.9955
  692MOL0     H95450   2.336  11.095  10.137  2.1233 -1.7451  2.8657
  692MOL0     H95451   2.250  11.242  10.131 -0.2765 -0.0112  0.3071
  692MOL0     H95452   2.500  11.261  10.142 -0.0713  0.4743  0.3974
  692MOL0     H95453   2.417  11.350  10.276 -0.4276 -1.0779  3.4107
  692MOL0     H95454   2.773  11.202  10.377  2.0151  0.6794  0.7192
  692MOL0     H95455   2.964  11.381  10.629 -0.3557  3.0307 -1.0500
  692MOL0     H95456   2.953  11.469  10.492  0.8234 -1.8411 -1.5367
  692MOL0     H95457   2.970  11.291  10.467  2.7729  0.5825  0.0651
  692MOL0     H95458   2.998  11.521  10.936  0.6321  0.8973 -1.2489
  692MOL0     H95459   3.060  11.700  11.075  1.3295  0.1194 -1.2077
  692MOL0     H95460   2.882  12.111  11.157  0.5587 -0.6487 -0.4307
  692MOL0     H95461   2.746  12.037  11.093 -2.2854 -0.5791  0.8433
  692MOL0     H95462   2.668  11.941  11.291  0.0772  0.1095  1.3030
  692MOL0     H95463   2.833  11.948  11.367  1.7297  1.5975 -1.2004
  692MOL0     H95464   2.644  12.175  11.302 -0.1040 -2.1381 -0.4212
  692MOL0     H95465   2.812  12.209  11.361  1.3298 -0.9963  3.0916
  692MOL0     H95466   2.742  12.053  11.561 -0.0141  0.1970  0.4443
  692MOL0     H95467   2.585  12.066  11.500 -1.4780  1.1530 -0.4602
  692MOL0     H95468   2.579  12.315  11.536 -1.8118 -2.4608 -0.5215
  692MOL0     H95469   2.575  12.209  11.671 -1.5845  0.2063 -1.9082
  692MOL0     H95470   2.734  12.430  11.652  1.2904  0.6893  0.4254
  692MOL0     H95471   2.845  12.326  11.577  0.2488  1.9072  0.0397
  692MOL0     H95472   2.801  12.150  11.767  0.1850 -0.2642  3.9800
  692MOL0     H95473   2.716  12.269  11.845 -1.2216  2.0773 -1.8324
  692MOL0     H95474   2.938  12.394  11.851  2.2644 -1.0239  1.5022
  692MOL0     H95475   3.004  12.263  11.756  0.3632 -2.2358  0.5551
  692MOL0     H95476   2.650  11.852  11.070  2.5159  1.7117  2.3843
  692MOL0     H95477   2.590  11.637  10.949 -0.9647  1.6858  0.6445
  692MOL0     H95478   2.488  11.485  10.663 -1.4543 -2.3368  1.1233
  692MOL0     H95479   2.381  11.335  10.530  0.0659  3.1019  2.9034
  692MOL0     H95480   0.873  10.929   9.832  0.1899 -0.7656  0.9120
  692MOL0     H95481   0.657  10.880   9.711  2.8956  0.4394  0.6231
  692MOL0     H95482   0.474  11.014   9.295 -1.5571  2.2125 -1.1082
  692MOL0     H95483   0.320  10.940   9.156 -3.5776  2.1835 -0.3840
  692MOL0     H95484  -0.041  10.798   9.079  0.0488 -0.2527  0.4983
  692MOL0     H95485   0.088  10.919   9.070 -1.6551  0.7064  1.9016
  692MOL0     H95486   0.233  10.695   9.091 -0.3708 -3.0607  0.8806
  692MOL0     H95487   0.167  10.744   8.933 -0.5669 -0.4192  0.5983
  692MOL0     H95488   0.082  10.546   9.138  0.8376 -0.0891 -0.3323
  692MOL0     H95489  -0.020  10.586   8.992  1.3576  1.6082 -4.1304
  692MOL0     H95490   0.130  10.363   8.982 -2.9196  0.5156 -1.6150
  692MOL0     H95491   0.278  10.475   8.994 -0.4316  0.8131  2.1168
  692MOL0     H95492   0.158  10.552   8.596  1.9245 -2.3984 -0.8944
  692MOL0     H95493   0.051  10.848   9.470 -0.2615  1.7609 -0.3850
  692MOL0     H95494   0.101  10.864   9.688  0.3086  0.0966  1.8974
  692MOL0     H95495   0.260  10.912   9.744  2.2042 -1.3981 -2.3622
  692MOL0     H95496   0.146  11.039   9.683  4.1090  1.4806 -0.5572
  693MOL0     O95497   9.729   8.089   7.150 -0.5894 -0.5436  0.6349
  693MOL0     C95498   9.794   8.142   7.058  1.4590 -0.2049  0.3068
  693MOL0     O95499   9.830   8.261   7.051  0.2954 -0.5227 -0.4728
  693MOL0     C95500   9.846   8.336   7.168 -0.4023 -0.4200  0.3763
  693MOL0     C95501   9.978   8.377   7.196  0.2318 -0.7800  0.5939
  693MOL0     C95502  10.011   8.452   7.310 -0.6899  0.2539 -0.9639
  693MOL0     C95503   9.913   8.482   7.400 -0.2712  0.3669  0.3562
  693MOL0     O95504   9.940   8.553   7.514 -0.5023 -0.0935 -0.5556
  693MOL0     C95505   9.975   8.482   7.634 -0.6004 -0.0456  0.0461
  693MOL0     C95506  10.123   8.470   7.646 -0.8716  0.1190  0.2795
  693MOL0     C95507  10.188   8.607   7.640 -0.7216  0.6307 -0.2668
  693MOL0     C95508  10.337   8.585   7.685  0.3584 -0.3236 -0.0491
  693MOL0     C95509  10.419   8.498   7.601 -0.4519 -0.5085  0.2664
  693MOL0     C95510  10.556   8.473   7.666  0.2330  0.8090  0.6492
  693MOL0     C95511  10.641   8.390   7.562  0.2134  1.0124  0.8168
  693MOL0     C95512  10.790   8.386   7.619  0.5746  0.0532  0.5002
  693MOL0     N95513  10.819   8.341   7.759 -1.4862 -0.5795 -0.8214
  693MOL0     C95514  10.831   8.212   7.810 -0.0702 -0.3571 -0.7099
  693MOL0     C95515  10.883   8.240   7.929  0.7212  0.1680 -0.6796
  693MOL0     C95516  10.912   8.123   8.026 -0.3874  0.4384  0.0470
  693MOL0     C95517  10.954   8.166   8.170  1.4137  0.7720 -1.4413
  693MOL0     C95518  10.950   8.029   8.253 -0.5822 -0.1061 -0.6727
  693MOL0     C95519  11.030   8.064   8.385  0.2632  0.6932  0.2427
  693MOL0     O95520  11.024   7.936   8.452  0.4140  0.4657 -0.0753
  693MOL0     C95521  11.037   7.933   8.587  0.2296 -0.3380  0.5095
  693MOL0     C95522  10.978   8.038   8.667 -0.5484 -0.5435  0.5687
  693MOL0     C95523  10.981   8.036   8.804 -0.8145 -0.0375  0.3600
  693MOL0     C95524  10.904   8.140   8.864  1.0391 -1.1134  0.7362
  693MOL0     C95525  11.029   7.914   8.871 -0.2149 -0.1322  0.3885
  693MOL0     C95526  11.030   7.906   9.016  0.8005 -0.1801 -1.0712
  693MOL0     O95527  11.073   7.780   9.069  0.2352  0.5367 -0.1391
  693MOL0     C95528  11.025   7.752   9.194  0.5470  0.5210 -0.4401
  693MOL0     C95529  11.068   7.815   9.315  0.1740  0.2961  0.2850
  693MOL0     C95530  11.016   7.775   9.433 -0.1075 -0.3814 -0.1135
  693MOL0     C95531  10.927   7.669   9.450  1.0317  0.7284  0.7610
  693MOL0     O95532  10.867   7.639   9.566 -0.5272  0.0086 -0.5517
  693MOL0     C95533  10.827   7.507   9.603  0.0736  0.3093  0.7606
  693MOL0     C95534  10.948   7.415   9.595 -0.2402  0.3954  0.6605
  693MOL0     C95535  10.918   7.289   9.675 -0.4019 -0.4529  0.4855
  693MOL0     C95536  11.024   7.185   9.652  0.4307 -0.6454  0.1507
  693MOL0     C95537  11.143   7.205   9.736  0.1179 -0.1167 -0.4395
  693MOL0     C95538  11.238   7.099   9.701  0.1506  0.3498 -0.1065
  693MOL0     C95539  11.362   7.119   9.772 -0.6285  0.2650 -0.2272
  693MOL0     C95540  11.474   7.029   9.703  0.2824 -1.4359 -0.2278
  693MOL0    Cl95541  11.426   6.867   9.706  0.7212 -0.4158  0.0880
  693MOL0     C95542  10.883   7.600   9.332  0.3322  0.0846  1.0757
  693MOL0     C95543  10.940   7.643   9.208  0.9998 -0.2647  0.0379
  693MOL0     O95544  10.979   7.998   9.085 -0.5164  0.6622 -0.7076
  693MOL0     C95545  11.073   7.805   8.785 -0.5140 -0.4995 -0.6467
  693MOL0     C95546  11.076   7.822   8.643  0.3936  0.3033  0.3466
  693MOL0     N95547  10.901   8.370   7.954  0.0624 -0.0632  0.6761
  693MOL0     N95548  10.864   8.431   7.854 -0.1172  0.3722 -0.6311
  693MOL0     C95549   9.783   8.443   7.385  0.4191  1.0126  0.1211
  693MOL0     C95550   9.747   8.364   7.270  0.1615 -0.7331  0.6472
  693MOL0     C95551   9.809   8.056   6.938 -0.0702  0.6226  0.4458
  693MOL0     C95552   9.720   7.949   6.920 -0.4111  0.5524  1.2506
  693MOL0     C95553   9.718   7.875   6.799 -0.5104  0.7368  0.1658
  693MOL0     C95554   9.829   7.882   6.710 -0.1996 -0.1564  0.9112
  693MOL0     O95555   9.862   7.786   6.618  0.1151 -0.7121 -0.5093
  693MOL0     C95556   9.781   7.670   6.616  0.2540  1.2717  1.0050
  693MOL0     C95557   9.806   7.601   6.478  0.2426 -0.9870  0.6218
  693MOL0     C95558   9.751   7.694   6.364 -0.7059 -0.9183 -0.5308
  693MOL0     C95559   9.853   7.805   6.313  0.6858 -0.0544  0.0595
  693MOL0     C95560   9.974   7.742   6.264 -0.6324  0.0166 -0.1796
  693MOL0     C95561  10.073   7.682   6.232 -0.5376 -0.2533  0.0398
  693MOL0     C95562   9.928   7.977   6.737 -0.2943  0.3274  0.7252
  693MOL0     C95563   9.914   8.071   6.840 -0.0902  0.3199  0.4504
  693MOL0     C95564  10.022   8.169   6.839 -0.4473  0.0683 -0.6279
  693MOL0     H95565  10.054   8.358   7.121  0.9733 -0.9952  1.3718
  693MOL0     H95566  10.111   8.488   7.331 -0.3605 -1.7294  1.3133
  693MOL0     H95567   9.916   8.389   7.638  3.4136 -2.8374  0.3562
  693MOL0     H95568   9.930   8.544   7.712 -0.8204 -0.5371  0.3180
  693MOL0     H95569  10.148   8.415   7.737 -1.5253 -1.4353 -0.4448
  693MOL0     H95570  10.160   8.403   7.568 -2.0908 -0.2736  0.0093
  693MOL0     H95571  10.188   8.639   7.536  1.7118 -1.0121 -0.8719
  693MOL0     H95572  10.139   8.680   7.706 -1.1743 -1.2305  1.5859
  693MOL0     H95573  10.384   8.682   7.699  0.4251  0.3117 -3.7029
  693MOL0     H95574  10.335   8.525   7.776  4.9062 -0.4497  0.1544
  693MOL0     H95575  10.436   8.545   7.503 -5.0148  3.0670  0.8499
  693MOL0     H95576  10.366   8.405   7.580 -1.0863 -0.2078  0.5267
  693MOL0     H95577  10.601   8.569   7.694 -2.5127  2.0248  1.1678
  693MOL0     H95578  10.532   8.410   7.752 -1.5548 -1.1588 -1.1637
  693MOL0     H95579  10.641   8.446   7.468 -1.5261  0.1786  0.2794
  693MOL0     H95580  10.599   8.289   7.557  2.0589 -0.0434  4.0393
  693MOL0     H95581  10.848   8.329   7.546 -1.5447 -0.9418 -0.4911
  693MOL0     H95582  10.831   8.487   7.607  1.4257 -0.3738 -0.2604
  693MOL0     H95583  10.813   8.117   7.761 -0.8753 -1.1519  1.0348
  693MOL0     H95584  10.987   8.053   7.988 -1.8531 -1.6645  0.8202
  693MOL0     H95585  10.821   8.066   8.046  1.1196 -1.8329  0.8607
  693MOL0     H95586  11.056   8.205   8.162  1.2526  2.0305  1.4647
  693MOL0     H95587  10.882   8.242   8.202  0.6449  0.5105 -2.4892
  693MOL0     H95588  10.850   7.991   8.275 -0.3381 -1.9250 -2.4200
  693MOL0     H95589  11.003   7.949   8.200 -0.8730 -2.5281  2.4370
  693MOL0     H95590  11.133   8.091   8.362  0.6266 -1.9281 -1.7166
  693MOL0     H95591  10.978   8.151   8.427  3.3501  1.1646  3.6526
  693MOL0     H95592  10.939   8.129   8.622  1.0035  0.3777  1.0340
  693MOL0     H95593  10.846   8.194   8.789 -0.5572 -0.2834  2.4836
  693MOL0     H95594  10.975   8.210   8.910  1.3178 -2.0437  1.7781
  693MOL0     H95595  10.834   8.102   8.938 -1.2534  1.2778 -0.0655
  693MOL0     H95596  11.144   7.892   9.301 -0.1433  0.1877 -2.7161
  693MOL0     H95597  11.046   7.818   9.528 -0.3686 -0.0991 -0.1560
  693MOL0     H95598  10.794   7.526   9.706 -0.3440  2.3519  0.2982
  693MOL0     H95599  10.746   7.461   9.546  1.6855 -3.9119  1.5249
  693MOL0     H95600  10.963   7.385   9.491 -1.7540 -6.2737  1.8582
  693MOL0     H95601  11.042   7.462   9.623  2.2053 -2.3691 -2.1384
  693MOL0     H95602  10.823   7.240   9.651 -0.2340 -0.9489  0.8334
  693MOL0     H95603  10.919   7.324   9.779  0.9627 -0.5252  0.5136
  693MOL0     H95604  11.046   7.188   9.545 -1.0653 -2.0184 -0.2391
  693MOL0     H95605  10.976   7.087   9.657 -0.7002 -0.1389 -0.5408
  693MOL0     H95606  11.191   7.302   9.720  1.4065  0.1020  3.6542
  693MOL0     H95607  11.132   7.201   9.845 -1.0581  0.2037 -0.5277
  693MOL0     H95608  11.263   7.111   9.595 -0.3940  1.1074 -0.1518
  693MOL0     H95609  11.208   6.996   9.725 -1.0314  0.6202 -0.3761
  693MOL0     H95610  11.354   7.082   9.875  0.6796 -0.5429 -0.3804
  693MOL0     H95611  11.387   7.225   9.759 -1.3281  0.3100 -1.3805
  693MOL0     H95612  11.568   7.038   9.759 -0.4840  1.9656  0.7703
  693MOL0     H95613  11.484   7.059   9.599  0.0703  0.9445  0.3689
  693MOL0     H95614  10.806   7.524   9.339 -0.9386  1.0820 -1.0838
  693MOL0     H95615  10.909   7.594   9.117 -2.3628  1.1815  0.2649
  693MOL0     H95616  11.117   7.716   8.829  1.6308  1.1357  0.7217
  693MOL0     H95617  11.120   7.743   8.582  0.2478  1.7995 -1.8123
  693MOL0     H95618   9.712   8.465   7.464 -1.0969  2.0753 -1.4837
  693MOL0     H95619   9.646   8.327   7.255  0.5715 -1.2895 -0.9526
  693MOL0     H95620   9.645   7.917   6.991  1.1144 -2.4904  1.6452
  693MOL0     H95621   9.628   7.815   6.789  0.0835  0.0415 -1.1324
  693MOL0     H95622   9.783   7.605   6.704 -2.0484 -0.6037 -0.2095
  693MOL0     H95623   9.676   7.700   6.604  0.0108  0.5446  1.2922
  693MOL0     H95624   9.753   7.505   6.478 -0.7546 -0.4505  1.0446
  693MOL0     H95625   9.913   7.576   6.474  0.6128  0.6216 -0.5956
  693MOL0     H95626   9.741   7.633   6.274  0.2269 -0.5753 -0.8800
  693MOL0     H95627   9.652   7.735   6.385 -1.0054 -0.3246 -2.8637
  693MOL0     H95628   9.875   7.876   6.394 -0.1610  1.8503 -1.3217
  693MOL0     H95629   9.806   7.860   6.231 -1.1454  1.0589  1.7391
  693MOL0     H95630  10.176   7.659   6.210 -0.9490 -0.3195 -2.0512
  693MOL0     H95631  10.012   7.964   6.670 -1.8902  0.7077 -1.4756
  693MOL0     H95632   9.983   8.268   6.815 -4.5356 -1.2523 -0.1524
  693MOL0     H95633  10.069   8.187   6.937 -1.1944  2.7187 -0.6627
  693MOL0     H95634  10.102   8.137   6.772  0.7905  1.2575  0.2206
  694MOL0     O95635   1.280  11.207   3.845  0.0433  0.1221  0.1788
  694MOL0     C95636   1.237  11.221   3.730 -0.0149 -1.1259 -0.1558
  694MOL0     O95637   1.137  11.153   3.675 -0.1989 -0.3432  0.7894
  694MOL0     C95638   1.114  11.021   3.727 -0.2398 -0.3760  0.5639
  694MOL0     C95639   1.011  11.014   3.822  0.3489 -0.5292 -0.3602
  694MOL0     C95640   1.002  10.889   3.887  1.1518  0.7160 -0.0562
  694MOL0     C95641   1.102  10.795   3.870 -0.2719  0.4515 -0.5770
  694MOL0     O95642   1.110  10.680   3.946  0.1072 -0.4657  0.0833
  694MOL0     C95643   1.207  10.686   4.053  0.4751  0.4665 -0.6408
  694MOL0     C95644   1.212  10.564   4.129  0.8587  0.1709  0.1746
  694MOL0     C95645   1.321  10.559   4.235  0.0491 -0.0423 -0.2409
  694MOL0     C95646   1.332  10.428   4.315  0.0856  0.2448  0.5252
  694MOL0     C95647   1.216  10.420   4.419  0.0886  0.0439 -0.2803
  694MOL0     C95648   1.231  10.311   4.527  0.3227 -0.7347 -0.0225
  694MOL0     C95649   1.262  10.179   4.476 -0.1658  0.2299  0.3868
  694MOL0     C95650   1.136  10.106   4.415  0.5362  0.3137  0.4643
  694MOL0     N95651   1.094  10.133   4.273 -0.0988  0.0460  0.2361
  694MOL0     C95652   1.179  10.102   4.172  1.1205  0.1630 -0.8173
  694MOL0     C95653   1.141  10.180   4.071 -0.7440  0.1690  0.0415
  694MOL0     C95654   1.199  10.183   3.938 -0.2584 -0.4582 -0.5262
  694MOL0     C95655   1.151  10.304   3.848  0.4934  0.5247 -0.4218
  694MOL0     C95656   1.216  10.294   3.703 -1.0287  0.0239 -0.6478
  694MOL0     C95657   1.172  10.423   3.628 -0.4335  0.3526 -0.6398
  694MOL0     O95658   1.030  10.448   3.647 -0.3441  0.5141  0.3586
  694MOL0     C95659   0.991  10.575   3.599  0.4102  1.3410 -0.6918
  694MOL0     C95660   0.880  10.617   3.663  0.7031  0.1360  0.1282
  694MOL0     C95661   0.820  10.733   3.630 -0.8840  0.4796  0.0891
  694MOL0     C95662   0.706  10.782   3.718  0.2381  0.3081  0.3819
  694MOL0     C95663   0.881  10.821   3.525  0.3675  1.1454  0.0802
  694MOL0     C95664   0.822  10.949   3.481 -1.4176 -0.2409  0.3153
  694MOL0     O95665   0.750  11.013   3.574 -0.4005 -0.2090  0.1989
  694MOL0     C95666   0.708  11.140   3.543 -0.2397  0.4122 -0.1339
  694MOL0     C95667   0.797  11.247   3.525 -0.7203  0.0773 -1.2446
  694MOL0     C95668   0.740  11.370   3.475 -0.0797 -0.4370  0.2513
  694MOL0     C95669   0.604  11.394   3.478  0.0139 -0.1105  0.4087
  694MOL0     O95670   0.541  11.509   3.458 -0.1001 -0.1391  0.3900
  694MOL0     C95671   0.587  11.603   3.356 -0.4069 -0.1658 -0.2195
  694MOL0     C95672   0.494  11.730   3.349  0.9145 -0.1313 -0.3842
  694MOL0     C95673   0.550  11.820   3.244 -0.0447  0.1515 -0.0618
  694MOL0     C95674   0.466  11.943   3.226  0.2948  1.3279  0.4056
  694MOL0     C95675   0.495  12.009   3.093  1.0360 -0.3146 -0.8034
  694MOL0     C95676   0.412  12.140   3.088 -0.2843  0.1722  0.5621
  694MOL0     C95677   0.408  12.203   2.946  0.1167  1.0250  0.6411
  694MOL0     C95678   0.289  12.287   2.902  0.3368 -0.7801  0.3649
  694MOL0    Cl95679   0.299  12.463   2.925 -0.1955 -0.8131 -0.0549
  694MOL0     C95680   0.520  11.292   3.517  0.4552  0.1517 -0.5640
  694MOL0     C95681   0.572  11.164   3.538  0.3175 -0.1658 -0.0073
  694MOL0     O95682   0.837  10.979   3.364 -0.7038 -0.3743  0.4288
  694MOL0     C95683   1.008  10.783   3.475  0.5134 -0.4298 -0.4610
  694MOL0     C95684   1.060  10.660   3.519  0.3326  0.0932  0.3956
  694MOL0     N95685   1.041  10.262   4.110  0.8233 -0.6014  0.0555
  694MOL0     N95686   1.021  10.243   4.229  0.1791  0.4220 -0.5590
  694MOL0     C95687   1.199  10.809   3.771 -0.3785  0.4791  1.0279
  694MOL0     C95688   1.210  10.926   3.695  0.9212 -0.2190  1.2001
  694MOL0     C95689   1.308  11.299   3.634 -0.7689  0.2145 -0.5296
  694MOL0     C95690   1.444  11.270   3.619 -0.3941  0.4030  0.5170
  694MOL0     C95691   1.520  11.336   3.513  1.3525  1.5951  0.2868
  694MOL0     C95692   1.467  11.437   3.448  0.6363  0.3731  0.6043
  694MOL0     O95693   1.528  11.493   3.339 -0.0226  0.2971  0.0258
  694MOL0     C95694   1.658  11.527   3.373  0.3418 -0.1302 -0.2369
  694MOL0     C95695   1.730  11.592   3.253 -0.8538  0.6186  0.2198
  694MOL0     C95696   1.870  11.647   3.291  0.2423  0.4808 -0.5218
  694MOL0     C95697   1.952  11.663   3.168 -1.0158 -1.0030 -0.2613
  694MOL0     C95698   2.092  11.705   3.206 -0.3513 -0.2504  0.0301
  694MOL0     C95699   2.211  11.746   3.218 -0.0064  0.1200 -0.4048
  694MOL0     C95700   1.335  11.473   3.468 -0.6238  0.3148  0.8864
  694MOL0     C95701   1.256  11.408   3.564 -0.1431 -0.2301  0.5682
  694MOL0     C95702   1.116  11.470   3.581 -0.2976 -0.1692 -0.0829
  694MOL0     H95703   0.938  11.093   3.837 -0.1399 -0.6204 -2.0860
  694MOL0     H95704   0.935  10.872   3.970  0.2232 -3.2814 -1.3949
  694MOL0     H95705   1.186  10.766   4.125 -0.6969 -1.0466  0.7945
  694MOL0     H95706   1.303  10.696   4.002  0.0226  0.3466 -1.5357
  694MOL0     H95707   1.114  10.560   4.179  0.6792 -1.1993 -0.2359
  694MOL0     H95708   1.221  10.473   4.070 -1.1271 -0.4562  0.7567
  694MOL0     H95709   1.413  10.570   4.176 -0.8249 -0.8416 -1.8256
  694MOL0     H95710   1.309  10.648   4.297  1.3897  0.9510 -1.3538
  694MOL0     H95711   1.332  10.344   4.245  0.0463 -0.9003  1.8588
  694MOL0     H95712   1.427  10.426   4.371  1.8918 -1.9670 -2.3273
  694MOL0     H95713   1.122  10.395   4.369  0.3629 -1.2474 -0.2011
  694MOL0     H95714   1.211  10.519   4.465  1.6794 -1.1653  2.8013
  694MOL0     H95715   1.305  10.331   4.605 -0.8605  0.5355  0.8195
  694MOL0     H95716   1.142  10.315   4.591  2.2909  2.2364  2.8860
  694MOL0     H95717   1.281  10.119   4.565  0.0294 -1.3017 -0.6485
  694MOL0     H95718   1.345  10.180   4.404  0.1473 -3.4500  0.5138
  694MOL0     H95719   1.143   9.998   4.430 -3.3462 -0.1464  0.0105
  694MOL0     H95720   1.050  10.129   4.479  0.2383 -0.4959  0.3602
  694MOL0     H95721   1.244  10.016   4.182  0.1474 -0.4667  0.5531
  694MOL0     H95722   1.161  10.089   3.897  1.4557 -1.6923  0.5308
  694MOL0     H95723   1.308  10.172   3.939 -0.0516  1.0583  1.9294
  694MOL0     H95724   1.042  10.302   3.841  0.2995 -0.8701  1.8898
  694MOL0     H95725   1.180  10.402   3.886  3.2941 -0.4129  0.1553
  694MOL0     H95726   1.323  10.287   3.724 -1.5787 -1.0906  2.1801
  694MOL0     H95727   1.192  10.215   3.632  0.9181 -0.5193 -0.7588
  694MOL0     H95728   1.239  10.498   3.671  0.1459 -1.9430  2.8467
  694MOL0     H95729   1.196  10.416   3.521 -2.0343 -1.4527 -0.9275
  694MOL0     H95730   0.842  10.567   3.752 -1.5177 -1.4043 -1.5813
  694MOL0     H95731   0.735  10.868   3.779 -0.5829 -0.1755  1.4727
  694MOL0     H95732   0.680  10.713   3.798  2.3143 -0.3334  0.5617
  694MOL0     H95733   0.618  10.798   3.655  0.6368 -2.8081 -1.1559
  694MOL0     H95734   0.903  11.223   3.529 -0.3220  1.8887  1.1469
  694MOL0     H95735   0.809  11.450   3.447 -1.6384  1.4118  1.4164
  694MOL0     H95736   0.692  11.627   3.373 -0.3921 -1.8815  2.8237
  694MOL0     H95737   0.573  11.548   3.262 -0.0398  0.6332 -0.7549
  694MOL0     H95738   0.398  11.689   3.318  1.7197 -0.5183 -2.5553
  694MOL0     H95739   0.470  11.783   3.442 -0.0399  2.4472 -1.9850
  694MOL0     H95740   0.549  11.755   3.156 -0.0759 -1.3542  1.0217
  694MOL0     H95741   0.654  11.844   3.271 -0.5802  0.3002  1.9941
  694MOL0     H95742   0.482  11.997   3.320  1.9579 -1.9224  2.1493
  694MOL0     H95743   0.363  11.906   3.235  0.0752  2.1667  1.7284
  694MOL0     H95744   0.601  12.037   3.084  0.2417  2.9214 -1.4068
  694MOL0     H95745   0.465  11.937   3.016  0.9422 -3.1966  1.7662
  694MOL0     H95746   0.437  12.216   3.164  0.2073  0.5709  0.0136
  694MOL0     H95747   0.312  12.105   3.113  0.2514 -0.6929  1.6027
  694MOL0     H95748   0.403  12.120   2.874 -3.2607  0.7509  1.0081
  694MOL0     H95749   0.500  12.260   2.936  0.1075  1.5818  3.1137
  694MOL0     H95750   0.207  12.254   2.966  0.0117 -1.5127 -0.4026
  694MOL0     H95751   0.257  12.262   2.800  1.0935 -0.8051  0.1307
  694MOL0     H95752   0.416  11.313   3.541  0.6406  2.5250 -1.5671
  694MOL0     H95753   0.503  11.086   3.570  0.4910 -0.6104 -0.6891
  694MOL0     H95754   1.063  10.849   3.409  0.0960 -0.0272 -0.4149
  694MOL0     H95755   1.161  10.631   3.489 -0.3745 -2.0487 -0.1281
  694MOL0     H95756   1.285  10.742   3.770  1.7193  2.9953 -0.2735
  694MOL0     H95757   1.284  10.939   3.616 -2.7856  0.6745 -2.4770
  694MOL0     H95758   1.487  11.192   3.680 -0.3224  1.2925  1.6452
  694MOL0     H95759   1.621  11.300   3.501  0.8720 -0.1120  1.0736
  694MOL0     H95760   1.659  11.594   3.459 -3.9162 -1.9807  1.5334
  694MOL0     H95761   1.730  11.450   3.401  2.1807  2.6336  3.5918
  694MOL0     H95762   1.656  11.661   3.212  1.0996  2.1210 -0.9193
  694MOL0     H95763   1.748  11.506   3.187 -0.3340 -0.1363  1.3088
  694MOL0     H95764   1.858  11.747   3.333 -0.1761  0.1268  0.2307
  694MOL0     H95765   1.919  11.588   3.369 -1.2921  0.6042  0.5916
  694MOL0     H95766   1.913  11.750   3.113 -1.2218 -1.7072 -1.2547
  694MOL0     H95767   1.939  11.576   3.104 -2.5722 -1.9897  1.2945
  694MOL0     H95768   2.304  11.784   3.256 -0.3530 -1.5180  2.3315
  694MOL0     H95769   1.296  11.548   3.401 -0.3190 -1.6559 -1.6803
  694MOL0     H95770   1.033  11.406   3.554 -0.2342 -0.8746  1.3115
  694MOL0     H95771   1.099  11.496   3.686 -1.4024 -0.4098 -0.1933
  694MOL0     H95772   1.110  11.568   3.531 -3.0066  0.7574  1.8023
  695MOL0     O95773   9.446   2.218   8.240  0.2326 -0.7161 -0.3183
  695MOL0     C95774   9.338   2.167   8.230 -0.5818  0.5428 -0.0409
  695MOL0     O95775   9.242   2.173   8.333 -0.0616  0.1312  0.0558
  695MOL0     C95776   9.270   2.258   8.446 -0.3281 -1.2832  0.4410
  695MOL0     C95777   9.279   2.397   8.417  0.2510  0.4710  0.1438
  695MOL0     C95778   9.313   2.486   8.517  0.2976  0.6998 -0.4777
  695MOL0     C95779   9.310   2.447   8.652 -0.0837 -0.5134  0.5104
  695MOL0     O95780   9.335   2.524   8.760  0.2438 -0.4172 -0.0580
  695MOL0     C95781   9.278   2.660   8.764 -0.3591  0.1876  0.3265
  695MOL0     C95782   9.377   2.769   8.759  0.3027  0.3220  0.2364
  695MOL0     C95783   9.305   2.898   8.730 -0.0027  0.1318 -0.0852
  695MOL0     C95784   9.360   3.021   8.791  0.2846  0.4946  0.5369
  695MOL0     C95785   9.504   3.067   8.744  1.0606  0.3741  0.2085
  695MOL0     C95786   9.574   3.182   8.825  0.3334  0.0306 -0.2873
  695MOL0     C95787   9.721   3.206   8.775  0.2307 -0.1789  0.5910
  695MOL0     C95788   9.798   3.286   8.882 -0.4334  0.3166 -0.2939
  695MOL0     N95789   9.810   3.215   9.014  0.0893  0.6655 -1.0952
  695MOL0     C95790   9.892   3.116   9.040 -0.9106 -0.0146  1.3149
  695MOL0     C95791   9.906   3.108   9.173 -0.5144 -0.3869  0.1738
  695MOL0     C95792   9.995   3.013   9.245  0.5142 -0.2174 -0.3788
  695MOL0     C95793  10.119   3.082   9.294 -0.2932 -0.7727  0.2618
  695MOL0     C95794  10.217   3.089   9.172 -0.3062 -0.0352 -0.1987
  695MOL0     C95795  10.330   3.189   9.191  0.1165  0.3219  0.8855
  695MOL0     O95796  10.418   3.198   9.073 -0.1537  0.2423  0.1819
  695MOL0     C95797  10.552   3.228   9.091  0.2304  0.7970 -0.5480
  695MOL0     C95798  10.622   3.215   9.215  0.9890  0.7073  0.3110
  695MOL0     C95799  10.761   3.233   9.214  0.7166 -0.4620 -0.7312
  695MOL0     C95800  10.809   3.236   9.358 -0.0731 -0.2517  0.1828
  695MOL0     C95801  10.838   3.255   9.105 -0.3049  0.1188  0.2195
  695MOL0     C95802  10.977   3.273   9.101  0.0006  0.4961 -0.8309
  695MOL0     O95803  11.045   3.190   9.190 -0.0549 -0.2532 -0.1427
  695MOL0     C95804  11.175   3.192   9.185 -0.0302 -0.0867 -1.1747
  695MOL0     C95805  11.240   3.124   9.086  0.4350  0.7456 -0.7121
  695MOL0     C95806  11.383   3.097   9.097 -0.5559 -0.1411 -0.8886
  695MOL0     C95807  11.453   3.137   9.210 -0.8745 -1.0004  0.1300
  695MOL0     O95808  11.582   3.095   9.216 -0.2192 -0.4259 -0.0221
  695MOL0     C95809  11.647   3.078   9.345  1.2951  0.3814  0.2052
  695MOL0     C95810  11.790   3.039   9.335  0.0005  0.7092  0.5450
  695MOL0     C95811  11.881   3.141   9.254  0.3668 -0.2303 -0.4796
  695MOL0     C95812  11.959   3.083   9.133  0.5115 -0.8618  0.4431
  695MOL0     C95813  12.067   2.987   9.173  0.4935  0.5077 -0.2397
  695MOL0     C95814  12.112   2.902   9.059 -0.2977  1.2136 -0.9666
  695MOL0     C95815  12.169   2.982   8.942 -0.3157 -0.4489  0.4354
  695MOL0     C95816  12.075   3.021   8.832 -0.5155  0.2282  0.0844
  695MOL0    Cl95817  12.160   3.061   8.693  0.0626 -0.0203 -0.0395
  695MOL0     C95818  11.392   3.218   9.301 -0.5173 -0.2236  0.3271
  695MOL0     C95819  11.253   3.247   9.296  0.0676 -0.3056 -0.4454
  695MOL0     O95820  11.030   3.353   9.031  0.0210  0.7361  0.1237
  695MOL0     C95821  10.769   3.266   8.984 -0.1132 -0.0698 -0.4463
  695MOL0     C95822  10.633   3.248   8.979  0.0503 -0.5968 -0.8891
  695MOL0     N95823   9.817   3.195   9.230 -0.2079  0.1461  0.3227
  695MOL0     N95824   9.775   3.266   9.133 -0.9304 -0.5920  0.2028
  695MOL0     C95825   9.307   2.309   8.683 -0.6455 -0.4272 -0.5142
  695MOL0     C95826   9.282   2.217   8.577  0.0717  1.1595 -1.4488
  695MOL0     C95827   9.314   2.087   8.105  0.2689 -0.4691  0.0105
  695MOL0     C95828   9.213   1.988   8.113  0.8264  0.2174  0.3762
  695MOL0     C95829   9.198   1.884   8.012 -0.6621 -0.0589 -0.3780
  695MOL0     C95830   9.284   1.889   7.897  0.7069  0.4183  0.2972
  695MOL0     O95831   9.274   1.803   7.790  0.6892 -0.0702  0.4731
  695MOL0     C95832   9.198   1.685   7.793 -0.7189  1.4009  0.1795
  695MOL0     C95833   9.057   1.697   7.755 -1.0893 -0.0844  0.7266
  695MOL0     C95834   9.034   1.772   7.626 -0.0873 -0.3835  0.4441
  695MOL0     C95835   8.900   1.740   7.560  0.3203 -0.4510 -0.2508
  695MOL0     C95836   8.805   1.787   7.665 -0.9560  0.2356  0.4738
  695MOL0     C95837   8.737   1.817   7.761  0.3195  0.4863 -0.0287
  695MOL0     C95838   9.365   2.002   7.885  0.3669  0.0895 -0.6263
  695MOL0     C95839   9.386   2.098   7.983  0.5322 -0.3749 -0.3309
  695MOL0     C95840   9.488   2.208   7.969 -0.7781 -1.0108  0.5114
  695MOL0     H95841   9.246   2.427   8.318 -1.5888 -1.5416  0.0715
  695MOL0     H95842   9.311   2.592   8.496 -1.9941  0.8069  0.0744
  695MOL0     H95843   9.223   2.684   8.855  0.5128 -0.0925  0.9381
  695MOL0     H95844   9.203   2.669   8.684  0.0926 -1.6722 -0.3686
  695MOL0     H95845   9.428   2.766   8.856  2.3721  0.8581 -0.7882
  695MOL0     H95846   9.437   2.732   8.676 -3.0801 -2.7908 -1.0966
  695MOL0     H95847   9.313   2.913   8.622 -0.6027 -0.4530 -0.2163
  695MOL0     H95848   9.201   2.878   8.757  0.1703 -1.6149 -0.5994
  695MOL0     H95849   9.284   3.100   8.796 -3.7710 -2.8399 -1.8120
  695MOL0     H95850   9.372   2.991   8.896  0.4178  1.1330  0.7119
  695MOL0     H95851   9.497   3.100   8.641 -0.7314  0.3534  0.2865
  695MOL0     H95852   9.559   2.973   8.742  0.3773 -0.1888  2.8339
  695MOL0     H95853   9.525   3.279   8.813 -1.8163 -0.9604  0.0381
  695MOL0     H95854   9.576   3.159   8.932 -2.1245  1.7422  0.2222
  695MOL0     H95855   9.721   3.250   8.675  0.5360 -0.7199  0.3461
  695MOL0     H95856   9.771   3.109   8.779  0.6438 -0.1118 -1.6989
  695MOL0     H95857   9.898   3.314   8.847 -0.1700  1.8868  1.5692
  695MOL0     H95858   9.757   3.386   8.904 -0.4216 -0.2159  2.4558
  695MOL0     H95859   9.954   3.062   8.969 -1.8698  2.8588 -2.0011
  695MOL0     H95860  10.004   2.921   9.186 -1.2095  0.2867 -1.5079
  695MOL0     H95861   9.942   2.992   9.338 -0.0368  0.7047 -0.4732
  695MOL0     H95862  10.095   3.179   9.339 -2.1916 -0.5501 -1.0915
  695MOL0     H95863  10.173   3.028   9.372  1.2124 -2.9930 -2.1692
  695MOL0     H95864  10.269   2.995   9.151  1.1250  1.0151 -1.7082
  695MOL0     H95865  10.158   3.114   9.083  0.9310 -0.2060 -1.1080
  695MOL0     H95866  10.281   3.285   9.212 -0.0791  0.8360 -1.5423
  695MOL0     H95867  10.385   3.168   9.283  1.6239 -0.4310 -0.1415
  695MOL0     H95868  10.579   3.188   9.311  0.8810 -3.4343 -0.7278
  695MOL0     H95869  10.848   3.140   9.393  0.4805 -0.0927  0.0056
  695MOL0     H95870  10.730   3.267   9.427 -0.5545  1.4751 -1.0574
  695MOL0     H95871  10.881   3.317   9.371 -0.4891 -0.1051  1.7113
  695MOL0     H95872  11.182   3.091   9.000 -0.2026 -0.9082  0.2848
  695MOL0     H95873  11.435   3.028   9.031  4.0771 -0.9066  3.0299
  695MOL0     H95874  11.644   3.168   9.408  0.9398  0.0584  0.6582
  695MOL0     H95875  11.602   2.997   9.403  0.1271  3.2471  3.7214
  695MOL0     H95876  11.836   3.026   9.433 -2.7579  1.1524  1.9959
  695MOL0     H95877  11.797   2.940   9.290  2.0733  1.5256 -1.0918
  695MOL0     H95878  11.960   3.174   9.321  0.4261 -2.4158  0.6205
  695MOL0     H95879  11.824   3.229   9.224 -0.4979  0.4838  2.9294
  695MOL0     H95880  11.998   3.169   9.079 -1.3286 -2.0915 -3.1687
  695MOL0     H95881  11.893   3.027   9.066  1.4362 -2.5481  0.8579
  695MOL0     H95882  12.153   3.048   9.202  1.1806 -0.6798  0.3068
  695MOL0     H95883  12.049   2.925   9.262 -0.4986 -2.4653 -2.3668
  695MOL0     H95884  12.038   2.828   9.025  3.9640 -2.8112 -2.5524
  695MOL0     H95885  12.194   2.841   9.098  1.6026  1.2875 -4.4815
  695MOL0     H95886  12.247   2.922   8.896 -0.7970  0.0310 -1.0433
  695MOL0     H95887  12.218   3.074   8.975 -4.9545  2.1105  1.1010
  695MOL0     H95888  12.018   3.109   8.862  1.9976  2.6225 -1.6355
  695MOL0     H95889  12.010   2.934   8.817  0.8828 -0.4964 -2.3359
  695MOL0     H95890  11.440   3.253   9.392 -1.9517  2.6804  0.0777
  695MOL0     H95891  11.203   3.287   9.384 -0.8243 -2.5886  0.1675
  695MOL0     H95892  10.813   3.297   8.890 -0.5408 -0.7928 -0.9021
  695MOL0     H95893  10.574   3.238   8.888 -1.0656  0.9294 -0.3738
  695MOL0     H95894   9.319   2.268   8.783  1.6752 -1.0162 -0.9590
  695MOL0     H95895   9.269   2.110   8.587  0.0781  1.4062  2.5501
  695MOL0     H95896   9.142   1.983   8.195 -0.3286 -2.1649 -0.6839
  695MOL0     H95897   9.135   1.797   8.025  2.2405 -2.2267  0.0227
  695MOL0     H95898   9.259   1.616   7.734  2.6813  2.6085  1.9716
  695MOL0     H95899   9.212   1.638   7.890 -0.9246 -0.4369 -0.6487
  695MOL0     H95900   8.997   1.742   7.835 -1.4925 -2.1205  1.6341
  695MOL0     H95901   9.015   1.600   7.729  0.1296  0.2384 -3.0096
  695MOL0     H95902   9.028   1.877   7.657  4.8843 -0.2094  1.5892
  695MOL0     H95903   9.120   1.761   7.559  2.2989  2.6289  2.7278
  695MOL0     H95904   8.892   1.634   7.538 -2.1821 -0.8503  1.9766
  695MOL0     H95905   8.904   1.802   7.470 -0.3522  0.7260  0.4848
  695MOL0     H95906   8.685   1.840   7.852  2.0735 -0.1196  1.1801
  695MOL0     H95907   9.408   2.011   7.786  0.2839  1.5028 -0.5433
  695MOL0     H95908   9.435   2.302   7.985 -0.2797 -0.9391  1.8835
  695MOL0     H95909   9.577   2.193   8.032 -0.7747 -3.2548  0.0580
  695MOL0     H95910   9.518   2.206   7.864 -2.5617  0.3705 -0.0632
  696MOL0     O95911   8.359   0.936   4.929  0.8458  0.0324 -0.8706
  696MOL0     C95912   8.413   0.898   5.030  0.7153 -0.9453 -0.5258
  696MOL0     O95913   8.483   0.975   5.112  0.6172 -0.6650  0.5245
  696MOL0     C95914   8.498   1.110   5.097  0.1727  0.1203 -0.0674
  696MOL0     C95915   8.613   1.171   5.148 -0.2041  0.7598 -0.2505
  696MOL0     C95916   8.643   1.304   5.122  0.3878  0.4144  0.4450
  696MOL0     C95917   8.555   1.379   5.051 -0.9360  0.2185 -0.9500
  696MOL0     O95918   8.593   1.508   5.010  0.2269  0.1656 -0.3414
  696MOL0     C95919   8.723   1.557   5.038 -0.8319 -0.5784  0.5264
  696MOL0     C95920   8.712   1.705   4.985 -0.0479  0.1169  0.0253
  696MOL0     C95921   8.845   1.779   5.022  0.0700  0.4161  1.0638
  696MOL0     C95922   8.828   1.841   5.161 -1.1351 -1.0281 -1.1564
  696MOL0     C95923   8.951   1.925   5.186 -1.0260 -1.2290 -0.4213
  696MOL0     C95924   8.933   2.036   5.284 -0.6679  0.0113 -0.0089
  696MOL0     C95925   8.920   1.996   5.433 -0.6086 -0.0489  0.8512
  696MOL0     C95926   8.972   2.087   5.557  0.0295  0.4043  0.9725
  696MOL0     N95927   8.859   2.165   5.621 -0.3251 -0.2199 -0.8342
  696MOL0     C95928   8.731   2.172   5.578  0.0896 -0.1208 -0.1369
  696MOL0     C95929   8.662   2.234   5.675 -0.9581 -0.0572  0.2078
  696MOL0     C95930   8.517   2.273   5.676 -0.1369 -0.3989 -0.4923
  696MOL0     C95931   8.465   2.314   5.809 -0.8015 -0.3716 -0.0740
  696MOL0     C95932   8.314   2.323   5.818 -0.7108 -1.4833 -0.1711
  696MOL0     C95933   8.285   2.409   5.940  0.3763  0.0772 -0.2020
  696MOL0     O95934   8.143   2.444   5.944 -0.8040  0.0247 -0.3309
  696MOL0     C95935   8.108   2.531   6.043 -0.9377 -0.6289  1.0650
  696MOL0     C95936   8.191   2.588   6.131 -0.0973 -0.3417  0.2842
  696MOL0     C95937   8.156   2.679   6.227 -1.1030  0.3059  0.4140
  696MOL0     C95938   8.261   2.743   6.327 -1.0727 -0.1430 -0.0642
  696MOL0     C95939   8.016   2.703   6.246  0.3762  0.6146  0.2034
  696MOL0     C95940   7.952   2.778   6.360 -0.5119  0.2720  0.2766
  696MOL0     O95941   7.823   2.753   6.378 -0.4488 -0.5412 -0.4554
  696MOL0     C95942   7.761   2.809   6.484 -0.2382 -0.5062  0.0556
  696MOL0     C95943   7.687   2.731   6.569 -0.2489  0.0541  0.6402
  696MOL0     C95944   7.619   2.778   6.675 -0.1071  0.1633 -0.0501
  696MOL0     C95945   7.611   2.909   6.699 -0.2358  0.2225  0.3238
  696MOL0     O95946   7.545   2.926   6.814 -0.0281  0.4679  0.8198
  696MOL0     C95947   7.500   3.061   6.842 -0.0862  0.6097 -0.7298
  696MOL0     C95948   7.380   3.050   6.940 -0.7922 -0.2466  0.8023
  696MOL0     C95949   7.272   2.991   6.857 -0.2715  0.1760 -0.4190
  696MOL0     C95950   7.141   3.006   6.939 -0.0421  0.8503  0.4158
  696MOL0     C95951   7.010   3.005   6.859  0.5026 -0.2698 -0.3567
  696MOL0     C95952   6.902   3.001   6.965  0.1090 -1.2862  1.1995
  696MOL0     C95953   6.769   3.025   6.901 -0.3979 -0.1421  0.7054
  696MOL0     C95954   6.656   3.023   6.997  0.1121  0.3433  0.9210
  696MOL0    Cl95955   6.495   3.098   6.918 -0.2487 -0.1577 -0.7189
  696MOL0     C95956   7.666   3.005   6.609 -0.3587 -0.1574  0.4909
  696MOL0     C95957   7.746   2.952   6.504  0.1515  0.2817  0.6927
  696MOL0     O95958   8.019   2.859   6.417 -0.3119 -0.6571 -0.1646
  696MOL0     C95959   7.930   2.667   6.138  0.4964  1.0092  0.2153
  696MOL0     C95960   7.981   2.591   6.026 -1.0168 -0.3064 -0.4800
  696MOL0     N95961   8.753   2.259   5.778  0.0396  0.2758 -0.6380
  696MOL0     N95962   8.873   2.219   5.744 -0.0365 -0.4839 -0.3466
  696MOL0     C95963   8.442   1.325   5.014  0.1195 -0.0137 -0.5171
  696MOL0     C95964   8.403   1.197   5.038  0.9312 -0.3250 -0.3452
  696MOL0     C95965   8.423   0.756   5.061 -0.0884  0.5403 -0.0585
  696MOL0     C95966   8.547   0.700   5.110  0.7124  0.2963 -0.0795
  696MOL0     C95967   8.556   0.565   5.153 -0.2696  0.2337 -0.4212
  696MOL0     C95968   8.451   0.477   5.134  0.3209 -0.0698  0.3614
  696MOL0     O95969   8.465   0.345   5.150 -0.1716 -0.2882  0.2965
  696MOL0     C95970   8.592   0.291   5.170  0.9022 -0.5223  0.1678
  696MOL0     C95971   8.565   0.144   5.205 -0.8007 -0.0309  0.2220
  696MOL0     C95972   8.463   0.116   5.324 -0.0405  0.7585  1.1494
  696MOL0     C95973   8.437  -0.032   5.368 -0.1010 -0.6709 -0.2637
  696MOL0     C95974   8.386  -0.030   5.505 -0.9753  1.0685  0.0794
  696MOL0     C95975   8.338  -0.033   5.617  1.3032 -0.0889 -0.3039
  696MOL0     C95976   8.336   0.521   5.083  0.7690  0.4954 -1.2652
  696MOL0     C95977   8.321   0.658   5.049  0.2991  0.7987  0.3934
  696MOL0     C95978   8.193   0.704   4.998  0.4477  0.0877  0.3303
  696MOL0     H95979   8.684   1.114   5.207 -1.0225 -1.0670 -0.9421
  696MOL0     H95980   8.739   1.341   5.158  0.4351 -1.1104  2.0488
  696MOL0     H95981   8.796   1.491   4.991 -2.7392 -1.7197 -0.9919
  696MOL0     H95982   8.745   1.567   5.144 -2.9527  0.9175  0.8897
  696MOL0     H95983   8.691   1.715   4.878  0.1778  0.2793 -0.0054
  696MOL0     H95984   8.636   1.761   5.041  0.6568  1.6456 -0.4962
  696MOL0     H95985   8.929   1.708   5.020  0.6488  0.7763 -4.7602
  696MOL0     H95986   8.864   1.847   4.938  1.4880  0.8576  1.7023
  696MOL0     H95987   8.741   1.907   5.159 -0.3476  0.4584  3.3934
  696MOL0     H95988   8.825   1.757   5.231  1.8039  1.0456  1.7535
  696MOL0     H95989   8.976   1.972   5.090 -0.5435  2.2004  1.2457
  696MOL0     H95990   9.045   1.874   5.207  1.6384  2.4321 -2.2467
  696MOL0     H95991   9.010   2.113   5.276 -1.3832  0.8453  0.7406
  696MOL0     H95992   8.843   2.094   5.258 -0.4479  0.8104  0.9360
  696MOL0     H95993   8.981   1.906   5.442  0.4560  0.6305  0.6372
  696MOL0     H95994   8.819   1.958   5.450  0.1872 -1.7146  2.1506
  696MOL0     H95995   9.006   2.028   5.643  3.0479  2.4302  1.3068
  696MOL0     H95996   9.052   2.152   5.520 -0.5978  0.0029 -1.2197
  696MOL0     H95997   8.694   2.162   5.476  0.0699  1.1810 -0.2725
  696MOL0     H95998   8.449   2.195   5.642 -0.2969  0.2340 -1.6680
  696MOL0     H95999   8.505   2.350   5.599 -2.2099  0.8379  0.9329
  696MOL0     H96000   8.503   2.235   5.875  1.7400  1.4087  0.7511
  696MOL0     H96001   8.518   2.405   5.839  0.6330 -0.3729 -2.4180
  696MOL0     H96002   8.259   2.378   5.741 -2.0848 -1.5673  0.7185
  696MOL0     H96003   8.273   2.224   5.838  0.1952 -1.5326  1.6367
  696MOL0     H96004   8.321   2.359   6.031 -1.7262  0.4731  0.8970
  696MOL0     H96005   8.333   2.507   5.937  1.0576 -0.1174  2.3548
  696MOL0     H96006   8.292   2.549   6.141 -0.1200 -1.8729 -3.5257
  696MOL0     H96007   8.259   2.691   6.423  2.8051 -1.1452 -0.3809
  696MOL0     H96008   8.246   2.849   6.346  0.2492 -0.1068  0.9193
  696MOL0     H96009   8.361   2.731   6.285 -1.6683 -0.3863 -1.4963
  696MOL0     H96010   7.693   2.625   6.544  1.5166 -0.1485  1.6888
  696MOL0     H96011   7.560   2.710   6.736  0.0490 -1.0527 -1.1967
  696MOL0     H96012   7.584   3.117   6.885 -0.0175  0.4541 -0.6579
  696MOL0     H96013   7.468   3.111   6.750  2.7262  0.5554 -1.8366
  696MOL0     H96014   7.407   2.991   7.029  0.4995  2.5357  2.3957
  696MOL0     H96015   7.359   3.148   6.983 -0.8003 -0.1350  0.5461
  696MOL0     H96016   7.290   2.886   6.831  0.2767 -0.9673  3.8847
  696MOL0     H96017   7.255   3.051   6.767  0.3598  3.1117  1.2846
  696MOL0     H96018   7.140   3.106   6.982  2.5880  1.0847  0.0574
  696MOL0     H96019   7.138   2.923   7.011  2.5456  0.9557  0.7338
  696MOL0     H96020   7.011   3.093   6.795  0.3334  0.0063  0.0155
  696MOL0     H96021   7.014   2.915   6.797  2.1975 -0.2572 -0.3321
  696MOL0     H96022   6.914   3.081   7.039 -0.3547 -0.4503  0.3923
  696MOL0     H96023   6.905   2.902   7.010 -0.2190 -1.6476  0.4459
  696MOL0     H96024   6.758   2.944   6.828  3.3024  0.9615 -1.3142
  696MOL0     H96025   6.770   3.111   6.833 -0.6137 -1.4966 -1.0615
  696MOL0     H96026   6.679   3.098   7.073  5.9535  0.4631 -0.5197
  696MOL0     H96027   6.632   2.931   7.051 -1.2175  0.5614  0.7441
  696MOL0     H96028   7.663   3.110   6.636  1.4929  0.0754 -0.0596
  696MOL0     H96029   7.806   3.014   6.438  1.1153 -2.5235 -1.2409
  696MOL0     H96030   7.825   2.693   6.141  0.4801  0.9768 -0.0746
  696MOL0     H96031   7.926   2.570   5.935 -0.9230  0.8532 -0.8267
  696MOL0     H96032   8.367   1.382   4.960  0.1809 -0.3597 -0.9761
  696MOL0     H96033   8.301   1.162   5.023  1.9972 -3.2240 -1.6307
  696MOL0     H96034   8.634   0.766   5.111  1.4971 -0.6980 -0.5156
  696MOL0     H96035   8.656   0.539   5.185  1.0889 -2.7606 -5.8616
  696MOL0     H96036   8.648   0.288   5.075 -1.6648 -1.1688 -1.4109
  696MOL0     H96037   8.650   0.345   5.246 -0.1822 -0.5921  1.0514
  696MOL0     H96038   8.650   0.092   5.251 -4.2194 -4.6725  1.9560
  696MOL0     H96039   8.539   0.089   5.115  0.5511  2.7340 -2.0140
  696MOL0     H96040   8.506   0.174   5.407 -1.3807 -1.4524  3.5437
  696MOL0     H96041   8.366   0.164   5.304 -0.3368 -0.1137  0.4518
  696MOL0     H96042   8.528  -0.093   5.368 -1.1848 -2.3745 -1.6825
  696MOL0     H96043   8.363  -0.069   5.296 -1.5276  0.4515  0.5742
  696MOL0     H96044   8.288  -0.033   5.712  2.3106 -0.2016  0.2326
  696MOL0     H96045   8.262   0.443   5.074  1.0745 -0.0103  0.2315
  696MOL0     H96046   8.187   0.808   5.029  3.1322 -0.1623  2.0678
  696MOL0     H96047   8.198   0.690   4.889 -1.4573  0.4759  0.1706
  696MOL0     H96048   8.112   0.643   5.039 -0.2214  1.7311  1.5724
  697MOL0     O96049  10.584  10.576  10.665 -0.8105  0.1108  0.8934
  697MOL0     C96050  10.556  10.544  10.547 -0.2251 -0.7075 -0.3804
  697MOL0     O96051  10.610  10.595  10.432 -0.0929  0.2482  0.8483
  697MOL0     C96052  10.727  10.675  10.428  0.0377 -0.5594  0.6338
  697MOL0     C96053  10.838  10.658  10.520  0.4063  0.5389 -0.0169
  697MOL0     C96054  10.953  10.727  10.514 -0.0117 -0.4210 -0.0931
  697MOL0     C96055  10.967  10.825  10.414 -0.1039 -0.0231  0.1486
  697MOL0     O96056  11.086  10.906  10.420  0.9383 -0.0021  0.1825
  697MOL0     C96057  11.101  10.986  10.306  0.7995  0.2940 -0.4193
  697MOL0     C96058  11.238  11.059  10.314  0.0731  0.3957  0.3890
  697MOL0     C96059  11.264  11.210  10.286 -0.4673 -0.5818 -0.8876
  697MOL0     C96060  11.418  11.247  10.300 -0.8132 -0.1854  0.0867
  697MOL0     C96061  11.451  11.315  10.434  0.7839  0.5197  0.1259
  697MOL0     C96062  11.597  11.347  10.442  0.4248 -1.0423 -0.0605
  697MOL0     C96063  11.637  11.401  10.585 -0.8918  0.9505 -0.3862
  697MOL0     C96064  11.788  11.409  10.599  0.0230  0.4580  0.2786
  697MOL0     N96065  11.839  11.269  10.623 -0.2964 -0.2784 -0.2380
  697MOL0     C96066  11.973  11.247  10.653 -0.8528  0.2548 -0.5358
  697MOL0     C96067  11.976  11.121  10.718 -0.1658  0.0738  0.5722
  697MOL0     C96068  12.096  11.062  10.788 -0.1879 -0.2975 -0.9026
  697MOL0     C96069  12.082  10.918  10.829  0.2057 -0.3921  0.3093
  697MOL0     C96070  11.998  10.884  10.949  0.0295  0.4794  0.8225
  697MOL0     C96071  12.024  10.975  11.071  1.1403 -0.4063  0.4588
  697MOL0     O96072  11.973  11.110  11.052 -0.1303  0.4104 -0.0344
  697MOL0     C96073  11.839  11.119  11.078  0.4687  0.9991  0.5247
  697MOL0     C96074  11.748  11.021  11.110  0.5012  0.0760  0.4971
  697MOL0     C96075  11.609  11.033  11.125 -0.0210 -0.2823  0.1120
  697MOL0     C96076  11.524  10.900  11.157  0.1977  0.4081 -0.3429
  697MOL0     C96077  11.560  11.166  11.129 -0.7514 -0.4555  0.1730
  697MOL0     C96078  11.423  11.210  11.155 -0.1619  0.0625 -0.0450
  697MOL0     O96079  11.384  11.343  11.160 -0.3425 -0.1587 -0.2831
  697MOL0     C96080  11.264  11.385  11.232 -0.1097 -0.3764  0.0869
  697MOL0     C96081  11.190  11.322  11.334  0.2987  0.9867 -0.0584
  697MOL0     C96082  11.096  11.383  11.417 -1.0485  0.7634 -0.1092
  697MOL0     C96083  11.076  11.515  11.403  0.6767 -0.2213 -0.4915
  697MOL0     O96084  10.980  11.551  11.496  0.0498  0.6545  0.3079
  697MOL0     C96085  10.929  11.685  11.476  0.3663  0.1926 -0.3856
  697MOL0     C96086  10.823  11.717  11.577  0.5471  0.0676 -0.6404
  697MOL0     C96087  10.728  11.603  11.621 -0.5691  0.4017 -0.0689
  697MOL0     C96088  10.741  11.573  11.771  0.1759 -0.4093  0.4997
  697MOL0     C96089  10.607  11.525  11.828  0.8385 -0.4478 -0.0240
  697MOL0     C96090  10.559  11.620  11.937  0.0601 -0.7199  0.4453
  697MOL0     C96091  10.518  11.753  11.886  0.2528  0.5096  0.2117
  697MOL0     C96092  10.364  11.757  11.850  0.4422  1.6774 -0.7547
  697MOL0    Cl96093  10.292  11.908  11.813 -0.4335  0.2716 -0.1655
  697MOL0     C96094  11.142  11.587  11.311  0.0594 -0.5979 -0.7198
  697MOL0     C96095  11.238  11.524  11.231  0.0531  0.5730 -0.0014
  697MOL0     O96096  11.338  11.120  11.152  0.5947  0.8614 -0.1214
  697MOL0     C96097  11.654  11.271  11.092 -0.5938 -0.5002 -0.8498
  697MOL0     C96098  11.790  11.254  11.072 -0.7482 -0.3635  0.2227
  697MOL0     N96099  11.851  11.066  10.711 -0.0771  0.0204 -0.2107
  697MOL0     N96100  11.769  11.156  10.671  0.4835  0.4539  0.5793
  697MOL0     C96101  10.856  10.852  10.326  0.5134  0.1892 -0.3476
  697MOL0     C96102  10.739  10.773  10.326  0.2283 -0.0380  0.4803
  697MOL0     C96103  10.437  10.451  10.523 -0.5124 -0.1088  0.0144
  697MOL0     C96104  10.401  10.412  10.388  0.6039  0.9088 -0.0675
  697MOL0     C96105  10.297  10.319  10.356 -0.8163 -1.8921  0.0156
  697MOL0     C96106  10.225  10.264  10.464  0.2685  0.4449 -1.0943
  697MOL0     O96107  10.121  10.195  10.424  0.2418  0.0036  0.9802
  697MOL0     C96108  10.073  10.075  10.500 -0.5172  0.4645  1.0273
  697MOL0     C96109   9.976   9.983  10.417  0.6468 -0.7799 -0.5022
  697MOL0     C96110   9.869  10.070  10.353  0.2734 -0.3239  0.2661
  697MOL0     C96111   9.809  10.187  10.431 -0.3965  0.0985  0.1981
  697MOL0     C96112   9.730  10.135  10.545  1.2025 -0.2606 -0.5957
  697MOL0     C96113   9.669  10.086  10.645 -1.3249  0.0330  0.2756
  697MOL0     C96114  10.258  10.300  10.590  0.5820  0.9611  0.1740
  697MOL0     C96115  10.356  10.394  10.626  0.2688  0.6813 -1.0838
  697MOL0     C96116  10.378  10.423  10.773 -0.1370  0.0313  0.3102
  697MOL0     H96117  10.824  10.588  10.602  1.7239  0.2635 -0.0130
  697MOL0     H96118  11.029  10.721  10.591 -1.3268 -2.2825  1.1717
  697MOL0     H96119  11.025  11.065  10.314  2.5130  2.0026 -0.3040
  697MOL0     H96120  11.095  10.920  10.219 -1.6204  0.6451 -0.5966
  697MOL0     H96121  11.279  11.033  10.412 -0.4703 -2.5937 -0.0943
  697MOL0     H96122  11.297  10.999  10.244 -4.0954 -0.4242 -2.7632
  697MOL0     H96123  11.215  11.230  10.190 -0.5429 -1.2298 -0.9887
  697MOL0     H96124  11.209  11.257  10.368 -0.7966  1.7225 -2.3470
  697MOL0     H96125  11.470  11.151  10.295  1.1366  0.8897 -1.9068
  697MOL0     H96126  11.445  11.305  10.211 -1.7181 -0.8233 -0.6252
  697MOL0     H96127  11.407  11.250  10.510  4.4725 -1.2188  1.0064
  697MOL0     H96128  11.390  11.405  10.423 -1.9741 -1.2937 -0.6112
  697MOL0     H96129  11.648  11.252  10.425 -2.7232 -2.6394 -1.4471
  697MOL0     H96130  11.620  11.429  10.373 -1.7184  0.7241  1.2059
  697MOL0     H96131  11.583  11.342  10.660 -1.8029 -2.1903 -3.2879
  697MOL0     H96132  11.609  11.506  10.601 -3.3384  0.5003 -1.2502
  697MOL0     H96133  11.829  11.459  10.510 -0.4725 -0.3362 -0.4181
  697MOL0     H96134  11.813  11.473  10.683 -1.1593  0.7933  0.3864
  697MOL0     H96135  12.061  11.310  10.649  0.4084 -1.4446 -1.0885
  697MOL0     H96136  12.126  11.131  10.867 -1.2964 -1.3815  0.5234
  697MOL0     H96137  12.182  11.067  10.720 -0.1748 -1.0670 -0.9573
  697MOL0     H96138  12.063  10.854  10.742 -0.0049  2.3306 -1.7873
  697MOL0     H96139  12.182  10.893  10.863  0.3768 -0.3708 -0.1748
  697MOL0     H96140  11.892  10.880  10.923 -1.0667 -2.5693  4.7846
  697MOL0     H96141  12.030  10.791  10.997  3.6646  1.2154  0.1718
  697MOL0     H96142  11.983  10.919  11.155 -1.7932 -2.3990 -2.0543
  697MOL0     H96143  12.129  10.989  11.094  0.6657  1.9014  1.5085
  697MOL0     H96144  11.777  10.917  11.097  2.0644  0.4789  0.6284
  697MOL0     H96145  11.479  10.919  11.255 -0.3648  2.2121 -0.9110
  697MOL0     H96146  11.601  10.822  11.156 -1.4039 -1.2696 -1.2202
  697MOL0     H96147  11.444  10.877  11.085  0.5861  0.4954 -0.8015
  697MOL0     H96148  11.218  11.225  11.374  0.2419  1.3819  0.9818
  697MOL0     H96149  11.052  11.329  11.500 -1.3849 -0.0560 -0.8037
  697MOL0     H96150  11.010  11.757  11.493 -2.3384  2.7421  3.2382
  697MOL0     H96151  10.869  11.696  11.385  1.4456 -1.1799 -1.3185
  697MOL0     H96152  10.872  11.754  11.668 -0.8396 -0.8145  0.5026
  697MOL0     H96153  10.765  11.799  11.532 -0.5155 -0.2359  0.1317
  697MOL0     H96154  10.756  11.506  11.580 -1.6857  0.1306 -0.2316
  697MOL0     H96155  10.629  11.617  11.576 -0.6057  2.5244  0.5500
  697MOL0     H96156  10.772  11.660  11.829 -1.1192 -1.0892  2.2679
  697MOL0     H96157  10.815  11.492  11.776  0.3563 -0.9099 -4.4778
  697MOL0     H96158  10.535  11.507  11.748 -1.3706  0.3505  1.6885
  697MOL0     H96159  10.625  11.431  11.880 -2.2205 -1.7946 -1.1806
  697MOL0     H96160  10.652  11.643  11.990 -0.3047  2.5357 -0.1168
  697MOL0     H96161  10.484  11.576  12.004 -1.5921  2.6716  1.0826
  697MOL0     H96162  10.578  11.784  11.801 -0.2555 -2.4057 -1.3333
  697MOL0     H96163  10.534  11.827  11.965  2.1263  2.1779 -1.6307
  697MOL0     H96164  10.302  11.714  11.928  0.0556 -0.8695 -2.3526
  697MOL0     H96165  10.358  11.696  11.759  0.0080  1.3284 -0.4917
  697MOL0     H96166  11.145  11.695  11.325 -0.4382 -0.5701 -0.7834
  697MOL0     H96167  11.296  11.594  11.172  1.3282  0.7833  1.4339
  697MOL0     H96168  11.617  11.371  11.073 -2.7018 -1.3390 -1.3522
  697MOL0     H96169  11.865  11.325  11.039  0.8381 -1.2616  1.7393
  697MOL0     H96170  10.857  10.936  10.258  4.6085  1.0132  0.4533
  697MOL0     H96171  10.661  10.788  10.253 -0.2225  0.6262  1.0850
  697MOL0     H96172  10.463  10.448  10.307  0.3767  0.6449 -0.3613
  697MOL0     H96173  10.291  10.299  10.250 -1.1431  1.6078 -0.7529
  697MOL0     H96174  10.161  10.017  10.529 -1.3074 -1.4508 -0.2080
  697MOL0     H96175  10.024  10.114  10.590  1.2211 -0.6688  2.5423
  697MOL0     H96176   9.935   9.913  10.491 -5.9241  2.9016  0.1126
  697MOL0     H96177  10.023   9.925  10.338  3.0925  0.3110  0.0589
  697MOL0     H96178   9.926  10.124  10.276 -0.1079 -0.5119 -0.1532
  697MOL0     H96179   9.793  10.004  10.310  2.8277 -1.2960 -3.2513
  697MOL0     H96180   9.741  10.240  10.364  1.5972  1.9938 -0.4449
  697MOL0     H96181   9.880  10.264  10.463 -1.0597  0.8494 -0.0896
  697MOL0     H96182   9.632  10.035  10.732  0.1817  1.4849  1.8598
  697MOL0     H96183  10.193  10.260  10.668 -4.5413 -0.6221 -4.3322
  697MOL0     H96184  10.362  10.531  10.778  0.3849  0.5627 -4.8360
  697MOL0     H96185  10.318  10.363  10.842 -0.5338  1.2579  1.0684
  697MOL0     H96186  10.481  10.405  10.804 -0.7163  0.0541  2.4364
  698MOL0     O96187  11.515   1.934   1.839  0.1540  0.9171  0.1598
  698MOL0     C96188  11.633   1.898   1.834 -0.1870  0.1963 -0.1902
  698MOL0     O96189  11.712   1.913   1.934 -0.8886  0.0600  0.2148
  698MOL0     C96190  11.667   1.972   2.046  0.1678 -0.3758 -0.4270
  698MOL0     C96191  11.665   2.111   2.075  0.5424  0.4233 -0.5849
  698MOL0     C96192  11.610   2.164   2.200 -0.0839 -0.7038 -0.3450
  698MOL0     C96193  11.588   2.081   2.306 -0.6190  0.6904 -0.8570
  698MOL0     O96194  11.566   2.123   2.433  0.5705 -0.5308 -0.2959
  698MOL0     C96195  11.685   2.188   2.496 -0.7300 -0.6588  1.2536
  698MOL0     C96196  11.729   2.098   2.608 -1.2800 -0.6242 -0.4928
  698MOL0     C96197  11.617   2.065   2.719  0.6181 -0.3838  0.9627
  698MOL0     C96198  11.669   1.946   2.788  0.0234  0.0570 -0.3865
  698MOL0     C96199  11.572   1.876   2.878 -0.2679  0.6906 -1.5363
  698MOL0     C96200  11.564   1.956   3.013  0.6081 -0.1471  1.4831
  698MOL0     C96201  11.458   1.887   3.100  1.2031  0.0413  0.4931
  698MOL0     C96202  11.511   1.853   3.233 -0.3587  0.2664 -0.6454
  698MOL0     N96203  11.610   1.739   3.221  0.2082  0.4095 -0.4042
  698MOL0     C96204  11.578   1.617   3.183  0.6300 -0.0058 -0.2815
  698MOL0     C96205  11.695   1.549   3.168  0.2500  0.4284  0.6294
  698MOL0     C96206  11.708   1.403   3.114 -0.1107 -0.2719 -0.0130
  698MOL0     C96207  11.819   1.390   3.009  0.0941  0.2186 -0.1161
  698MOL0     C96208  11.799   1.259   2.934 -0.1087  0.1584 -0.9200
  698MOL0     C96209  11.901   1.261   2.822  0.1143 -0.0405  0.2251
  698MOL0     O96210  12.033   1.230   2.866 -0.1064 -0.4220  0.2607
  698MOL0     C96211  12.110   1.254   2.766 -0.5957  0.2011  0.9448
  698MOL0     C96212  12.140   1.144   2.684 -0.0789  0.7958 -1.0062
  698MOL0     C96213  12.192   1.161   2.559  0.4301  0.1488 -0.9870
  698MOL0     C96214  12.188   1.031   2.474 -0.2931  0.2846  0.0044
  698MOL0     C96215  12.253   1.282   2.518 -0.0011 -0.0440 -0.2423
  698MOL0     C96216  12.329   1.311   2.391 -0.1083 -0.4386 -0.2750
  698MOL0     O96217  12.293   1.232   2.283  0.7815  0.6578  0.0849
  698MOL0     C96218  12.340   1.281   2.172  0.5399  0.0091  1.1746
  698MOL0     C96219  12.256   1.356   2.083 -1.1464 -0.3584 -0.3391
  698MOL0     C96220  12.311   1.413   1.971  0.1816 -0.3070 -0.3955
  698MOL0     C96221  12.443   1.399   1.938  0.1740  0.6077  0.0839
  698MOL0     O96222  12.475   1.462   1.824  0.0249 -0.5323  0.3222
  698MOL0     C96223  12.614   1.454   1.789  0.5364 -0.3199  0.7226
  698MOL0     C96224  12.650   1.550   1.673 -0.0761 -0.2238 -0.1177
  698MOL0     C96225  12.797   1.556   1.636 -0.3515  0.0916  1.0042
  698MOL0     C96226  12.821   1.673   1.547 -0.8115 -0.1427  0.3697
  698MOL0     C96227  12.934   1.643   1.442  0.3972 -0.4572 -0.3085
  698MOL0     C96228  12.944   1.745   1.332  0.8560  0.5982 -0.2008
  698MOL0     C96229  13.014   1.866   1.399 -0.2171 -0.1818  0.0869
  698MOL0     C96230  12.996   1.986   1.315 -1.2038 -0.1672  1.3237
  698MOL0    Cl96231  13.085   2.110   1.413 -0.3118  0.0313  0.3570
  698MOL0     C96232  12.523   1.323   2.024 -0.1005  0.3998 -1.2912
  698MOL0     C96233  12.476   1.257   2.138 -0.2121  0.5404  0.4452
  698MOL0     O96234  12.412   1.409   2.381 -0.1057  0.5223  0.1827
  698MOL0     C96235  12.238   1.389   2.617  0.5639  0.2753  0.3132
  698MOL0     C96236  12.156   1.376   2.732 -0.8885 -0.7924  0.1861
  698MOL0     N96237  11.799   1.637   3.195 -0.0947  0.5084 -0.0242
  698MOL0     N96238  11.747   1.745   3.237 -0.3321 -0.2697  0.7241
  698MOL0     C96239  11.603   1.946   2.276 -0.1374 -1.2231 -0.3890
  698MOL0     C96240  11.633   1.891   2.149  0.6128  0.7594  0.1656
  698MOL0     C96241  11.685   1.856   1.706  0.4696 -0.7441 -0.5349
  698MOL0     C96242  11.603   1.876   1.593 -0.3395  0.0607 -0.2846
  698MOL0     C96243  11.651   1.837   1.470  0.1360  0.3498  0.2972
  698MOL0     C96244  11.784   1.796   1.444 -0.1932 -0.0677 -0.3154
  698MOL0     O96245  11.827   1.748   1.331 -0.3552  0.0438  0.1174
  698MOL0     C96246  11.807   1.606   1.312  0.2964  0.0282  1.0164
  698MOL0     C96247  11.754   1.589   1.162  0.0451 -0.3328 -0.4558
  698MOL0     C96248  11.610   1.649   1.153  0.8470  0.1764 -0.3029
  698MOL0     C96249  11.495   1.544   1.158 -0.6235 -0.1630  0.1817
  698MOL0     C96250  11.507   1.460   1.273  0.1639  0.6243 -2.0697
  698MOL0     C96251  11.500   1.389   1.376  0.1779 -0.1359  0.6349
  698MOL0     C96252  11.863   1.779   1.553 -0.0048  0.0602 -0.2059
  698MOL0     C96253  11.823   1.798   1.684  1.8393 -0.6893  0.8565
  698MOL0     C96254  11.912   1.751   1.785 -0.6789 -0.2415 -0.5892
  698MOL0     H96255  11.686   2.175   1.990  1.1983  1.1443  0.1053
  698MOL0     H96256  11.591   2.267   2.226  1.9835 -0.4329  0.2628
  698MOL0     H96257  11.662   2.285   2.542 -0.5288 -0.0421  0.0882
  698MOL0     H96258  11.761   2.215   2.422 -0.9867 -3.8992 -0.3905
  698MOL0     H96259  11.784   2.010   2.575 -0.3578 -1.4435  2.8612
  698MOL0     H96260  11.806   2.156   2.659 -2.1317 -0.7812  1.0228
  698MOL0     H96261  11.614   2.154   2.782 -0.0489  1.4687 -1.5319
  698MOL0     H96262  11.519   2.043   2.677  0.9839 -1.6220  0.7082
  698MOL0     H96263  11.698   1.864   2.722  0.6905 -1.5292  1.7440
  698MOL0     H96264  11.763   1.968   2.840  0.4913 -0.4758 -1.0019
  698MOL0     H96265  11.613   1.777   2.899 -0.8731 -0.1482 -3.9429
  698MOL0     H96266  11.474   1.863   2.831 -1.2828  0.0516  0.6091
  698MOL0     H96267  11.656   1.966   3.073  1.1030  0.9652  0.5832
  698MOL0     H96268  11.528   2.060   3.008 -1.7118 -0.9381  0.2698
  698MOL0     H96269  11.412   1.805   3.043 -0.6000  1.3165  0.0349
  698MOL0     H96270  11.374   1.957   3.111 -0.7794 -2.1141 -0.0523
  698MOL0     H96271  11.558   1.943   3.275 -2.8828  0.0538  3.1187
  698MOL0     H96272  11.430   1.827   3.302 -1.8714  1.8346 -1.7415
  698MOL0     H96273  11.471   1.597   3.172 -0.2628  4.5952 -2.1304
  698MOL0     H96274  11.606   1.393   3.074 -1.0108  2.9583  1.1739
  698MOL0     H96275  11.733   1.335   3.195  0.3425  2.7967  2.6225
  698MOL0     H96276  11.810   1.474   2.939  2.7083  1.8129  1.3107
  698MOL0     H96277  11.919   1.383   3.052 -0.7705 -1.2568  1.8207
  698MOL0     H96278  11.811   1.182   3.011  1.0086 -0.5708 -1.8109
  698MOL0     H96279  11.693   1.253   2.907 -0.7718  0.2929  1.3743
  698MOL0     H96280  11.863   1.189   2.749 -0.6297  0.5754 -0.0092
  698MOL0     H96281  11.897   1.352   2.761  0.7027 -1.3354 -1.8417
  698MOL0     H96282  12.112   1.049   2.729 -1.0506  0.7302 -1.7132
  698MOL0     H96283  12.293   1.006   2.457  0.4775  2.9448  0.4573
  698MOL0     H96284  12.161   1.042   2.368  2.8869 -0.5655 -1.0286
  698MOL0     H96285  12.129   0.952   2.521 -0.3814  0.4362  0.1472
  698MOL0     H96286  12.153   1.375   2.111 -0.7790 -1.6472  2.1036
  698MOL0     H96287  12.245   1.473   1.910 -2.1203 -3.2002 -0.9983
  698MOL0     H96288  12.677   1.489   1.871  0.7113 -1.8523  1.2756
  698MOL0     H96289  12.646   1.352   1.765  3.3465  0.3342  1.3327
  698MOL0     H96290  12.599   1.505   1.588  2.4862 -2.1962 -0.7563
  698MOL0     H96291  12.618   1.649   1.707  0.8418  0.7128 -1.8165
  698MOL0     H96292  12.823   1.456   1.600 -2.9090 -0.8345  1.5746
  698MOL0     H96293  12.850   1.571   1.730  0.0452  1.3429  0.6100
  698MOL0     H96294  12.847   1.759   1.610 -0.8844 -1.2869  2.0291
  698MOL0     H96295  12.736   1.707   1.487  0.3623 -0.5089 -1.5871
  698MOL0     H96296  13.026   1.604   1.489 -0.6426 -4.8722 -1.4362
  698MOL0     H96297  12.906   1.553   1.387  2.5398 -0.4640 -1.5217
  698MOL0     H96298  12.839   1.767   1.309  0.3607 -1.6742 -0.3526
  698MOL0     H96299  12.994   1.703   1.244  0.0559  0.7838 -0.7511
  698MOL0     H96300  13.117   1.832   1.413  0.7628  1.6463 -2.1685
  698MOL0     H96301  12.961   1.900   1.489 -1.3174 -0.2929 -0.4975
  698MOL0     H96302  12.889   1.998   1.297 -0.5248  0.4198 -4.3823
  698MOL0     H96303  13.039   1.975   1.215 -4.8477  0.4589 -0.4625
  698MOL0     H96304  12.628   1.307   2.002 -0.0354 -1.7590  0.2992
  698MOL0     H96305  12.553   1.207   2.197 -1.6237  0.6963  2.5489
  698MOL0     H96306  12.269   1.490   2.595  0.2973  0.0717 -1.1319
  698MOL0     H96307  12.148   1.462   2.798 -0.8429  0.6081 -1.5523
  698MOL0     H96308  11.579   1.875   2.354  2.0509  0.1837  1.6806
  698MOL0     H96309  11.639   1.783   2.137  4.2864  0.6553  1.6119
  698MOL0     H96310  11.508   1.927   1.602 -0.6013 -0.3107 -0.8661
  698MOL0     H96311  11.579   1.861   1.392  0.1959  0.0341  0.1431
  698MOL0     H96312  11.905   1.559   1.315  0.7041  0.8764  1.3168
  698MOL0     H96313  11.747   1.561   1.392  0.2599 -0.5380  0.6779
  698MOL0     H96314  11.754   1.484   1.129 -2.1483 -0.5271  0.0294
  698MOL0     H96315  11.823   1.649   1.102 -1.3597  2.2583  0.3930
  698MOL0     H96316  11.601   1.730   1.225 -0.9653  2.9088 -3.3290
  698MOL0     H96317  11.609   1.688   1.051  2.1127 -1.5961 -1.0576
  698MOL0     H96318  11.494   1.479   1.070  1.7363 -1.3704  0.9313
  698MOL0     H96319  11.410   1.611   1.163  0.3632  1.2661 -1.2043
  698MOL0     H96320  11.472   1.321   1.453 -3.0395  0.6280  0.2614
  698MOL0     H96321  11.959   1.732   1.533  0.5217  0.2523  1.7022
  698MOL0     H96322  11.954   1.842   1.830  2.1699 -0.5680 -2.3421
  698MOL0     H96323  11.855   1.688   1.854 -1.1813 -0.9359 -1.6265
  698MOL0     H96324  11.994   1.697   1.738 -0.5976  1.6784 -2.8301
  699MOL0     O96325   9.353   7.627   5.726 -0.5390 -0.5775  1.0824
  699MOL0     C96326   9.413   7.585   5.624  0.9786  0.1146 -0.5781
  699MOL0     O96327   9.435   7.454   5.604 -0.6983 -0.2195 -0.6778
  699MOL0     C96328   9.372   7.361   5.672 -1.0153  0.1786 -0.4407
  699MOL0     C96329   9.444   7.287   5.762  0.2132 -0.3599  0.7324
  699MOL0     C96330   9.380   7.209   5.865  0.5852  0.1220  0.5460
  699MOL0     C96331   9.244   7.204   5.868 -1.0967 -0.0642 -0.1585
  699MOL0     O96332   9.163   7.131   5.948  0.0847  0.0047 -0.4059
  699MOL0     C96333   9.201   7.108   6.082 -0.2889 -0.2539  0.1034
  699MOL0     C96334   9.107   7.015   6.168  0.8479  0.4636  1.0123
  699MOL0     C96335   8.957   7.041   6.124 -0.6454 -0.8111  0.1473
  699MOL0     C96336   8.922   7.192   6.126 -0.0698  0.5340 -0.1905
  699MOL0     C96337   8.795   7.211   6.037  0.1676  0.4417 -0.3784
  699MOL0     C96338   8.806   7.330   5.953  0.7898 -0.6931 -0.8188
  699MOL0     C96339   8.689   7.352   5.862  0.4859  0.1586 -0.0243
  699MOL0     C96340   8.573   7.423   5.940  0.9898 -0.3323 -0.2598
  699MOL0     N96341   8.589   7.572   5.936 -0.2218  0.4601 -0.4233
  699MOL0     C96342   8.499   7.665   5.885 -0.5354  1.0600 -0.4645
  699MOL0     C96343   8.558   7.784   5.915  0.7304 -0.3504 -0.2150
  699MOL0     C96344   8.519   7.918   5.871  0.4354 -0.4775 -0.3072
  699MOL0     C96345   8.405   7.960   5.957 -0.9637 -0.3637 -0.0561
  699MOL0     C96346   8.388   8.105   5.930 -0.3214  0.0012  0.5276
  699MOL0     C96347   8.276   8.172   6.013 -0.3350  0.6484  0.6071
  699MOL0     O96348   8.303   8.173   6.159 -0.2032 -1.0521  0.1778
  699MOL0     C96349   8.220   8.101   6.241 -0.3744 -0.2255 -1.0884
  699MOL0     C96350   8.209   8.153   6.372 -0.2701 -1.1111 -0.6293
  699MOL0     C96351   8.137   8.096   6.476 -0.2148 -0.5812 -0.0803
  699MOL0     C96352   8.139   8.166   6.612  0.1589 -0.0742  0.8837
  699MOL0     C96353   8.066   7.976   6.448  0.7461 -0.4390  0.1862
  699MOL0     C96354   7.977   7.917   6.550 -0.0195  0.2644  0.9767
  699MOL0     O96355   7.989   7.944   6.683  0.2307  0.5641  0.2302
  699MOL0     C96356   7.896   7.909   6.787 -0.8836  0.1382  0.6743
  699MOL0     C96357   7.762   7.870   6.762  0.2033  0.0898 -0.2589
  699MOL0     C96358   7.677   7.841   6.877 -0.7554 -0.6235  0.1455
  699MOL0     C96359   7.735   7.840   7.007 -0.3463 -0.0927  1.3311
  699MOL0     O96360   7.652   7.816   7.108  1.0458 -0.3066 -0.1811
  699MOL0     C96361   7.682   7.797   7.245  0.5031 -0.6092  0.2183
  699MOL0     C96362   7.566   7.815   7.337 -0.0355  0.0779 -0.7161
  699MOL0     C96363   7.488   7.950   7.335  0.6422  0.4975  0.3175
  699MOL0     C96364   7.548   8.061   7.406 -0.2380 -0.1368 -0.5863
  699MOL0     C96365   7.466   8.196   7.368 -0.0986  0.0374  0.3111
  699MOL0     C96366   7.526   8.301   7.449  0.2568 -0.2140 -0.4626
  699MOL0     C96367   7.473   8.449   7.423 -0.6784  0.4827  0.0628
  699MOL0     C96368   7.445   8.515   7.557 -0.3721 -0.3524 -0.6756
  699MOL0    Cl96369   7.396   8.676   7.503 -0.0035  0.6492 -0.5767
  699MOL0     C96370   7.868   7.870   7.025  0.0719  0.2800  0.0756
  699MOL0     C96371   7.947   7.902   6.919 -0.0979  0.5045  0.5658
  699MOL0     O96372   7.890   7.842   6.508  0.1913 -0.1303  0.6259
  699MOL0     C96373   8.065   7.921   6.320 -0.0069  0.1438 -0.4963
  699MOL0     C96374   8.143   7.989   6.220  0.8035  0.1529 -0.6909
  699MOL0     N96375   8.673   7.763   5.978  0.4867  0.2948  0.4959
  699MOL0     N96376   8.697   7.636   5.988 -0.8545 -1.3192  0.0006
  699MOL0     C96377   9.174   7.282   5.778  0.6100 -0.6058 -0.3792
  699MOL0     C96378   9.236   7.339   5.680 -0.3972 -1.2666 -0.1940
  699MOL0     C96379   9.453   7.678   5.522 -0.3493 -1.1281  0.7375
  699MOL0     C96380   9.530   7.599   5.335  0.4991 -0.8753 -0.6945
  699MOL0     C96381   9.598   7.737   5.183  0.8331  0.2855 -0.3291
  699MOL0     C96382   9.597   7.944   5.219  1.6199  1.1398  0.0710
  699MOL0     O96383   9.633   8.031   5.116 -0.0369 -0.0942 -0.6410
  699MOL0     C96384   9.622   8.175   5.144 -0.0306 -0.1348  0.1976
  699MOL0     C96385   9.761   8.230   5.194 -0.9918  0.1736  0.1823
  699MOL0     C96386   9.790   8.372   5.163 -1.0478 -1.5701 -0.4096
  699MOL0     C96387   9.702   8.451   5.263 -0.6639 -1.2288  0.2400
  699MOL0     C96388   9.702   8.583   5.195 -0.2893  0.3174  0.4593
  699MOL0     C96389   9.710   8.688   5.132  0.6727  0.1245 -0.0051
  699MOL0     C96390   9.521   8.019   5.405 -0.5609  0.5156  0.5363
  699MOL0     C96391   9.448   7.886   5.548 -0.2243  0.4805 -0.5109
  699MOL0     C96392   9.390   7.946   5.678  0.0633  0.4539  0.6676
  699MOL0     H96393   9.552   7.291   5.747 -0.0851 -0.5890 -1.7430
  699MOL0     H96394   9.437   7.154   5.939 -0.7750 -0.3945  1.2534
  699MOL0     H96395   9.199   7.208   6.128  1.2074 -0.3246  0.3759
  699MOL0     H96396   9.300   7.067   6.103 -0.0963 -0.0968 -0.4832
  699MOL0     H96397   9.130   6.908   6.159 -1.9239 -0.0364 -4.4593
  699MOL0     H96398   9.131   7.047   6.270  1.7225  1.2226  0.5799
  699MOL0     H96399   8.950   7.001   6.023 -1.0439 -3.6103  1.1980
  699MOL0     H96400   8.882   7.003   6.194  0.6626 -1.8230  1.0662
  699MOL0     H96401   8.906   7.240   6.222 -1.4128  2.9367 -1.5227
  699MOL0     H96402   8.990   7.259   6.072  2.6123 -0.5384  1.6604
  699MOL0     H96403   8.708   7.210   6.103  1.0513  2.8485  0.9725
  699MOL0     H96404   8.781   7.124   5.972 -1.9373  0.7388 -0.3746
  699MOL0     H96405   8.817   7.417   6.018  1.1116 -2.0707  1.0686
  699MOL0     H96406   8.891   7.313   5.886 -1.7126  0.6978 -4.6761
  699MOL0     H96407   8.658   7.260   5.812  0.8892 -0.1478  0.2846
  699MOL0     H96408   8.722   7.420   5.783 -4.4990  1.1022 -1.6572
  699MOL0     H96409   8.472   7.402   5.905  0.6377 -0.0025  0.5371
  699MOL0     H96410   8.573   7.381   6.041 -1.9112  0.5290  0.1835
  699MOL0     H96411   8.398   7.645   5.853 -0.6875  1.0607  0.0111
  699MOL0     H96412   8.497   7.912   5.764  0.1147 -2.4198 -0.1810
  699MOL0     H96413   8.611   7.974   5.889  1.6666 -2.7220  0.8701
  699MOL0     H96414   8.304   7.917   5.954 -0.3496 -2.1620  2.2436
  699MOL0     H96415   8.440   7.948   6.060  1.4834  3.0873 -0.3443
  699MOL0     H96416   8.478   8.166   5.940 -1.4385  1.9585 -0.6753
  699MOL0     H96417   8.359   8.123   5.826  1.7307  4.5826  0.4686
  699MOL0     H96418   8.252   8.273   5.979 -1.4807  1.4796  3.5394
  699MOL0     H96419   8.188   8.113   5.985  2.0937 -2.7145 -0.6002
  699MOL0     H96420   8.259   8.247   6.395 -0.1047 -1.5680  1.0490
  699MOL0     H96421   8.192   8.261   6.598  2.2227 -1.2339  0.2917
  699MOL0     H96422   8.174   8.097   6.690  0.9752 -1.0877 -0.3208
  699MOL0     H96423   8.039   8.199   6.640  0.3527  2.4176 -1.0189
  699MOL0     H96424   7.710   7.870   6.667 -1.6748  2.4813  0.6784
  699MOL0     H96425   7.579   7.799   6.858 -0.0021 -1.4338 -2.4242
  699MOL0     H96426   7.737   7.703   7.253 -0.6117 -1.8074 -3.8562
  699MOL0     H96427   7.751   7.875   7.278  2.6612 -2.6479  0.7637
  699MOL0     H96428   7.501   7.726   7.332 -2.0864  1.5390 -1.7678
  699MOL0     H96429   7.602   7.818   7.440  1.1729  1.1875 -1.1605
  699MOL0     H96430   7.394   7.926   7.386  0.8398 -0.4017  0.2794
  699MOL0     H96431   7.478   7.968   7.227 -1.9525  0.4604  0.4952
  699MOL0     H96432   7.653   8.075   7.377  0.3654 -0.3621  1.3331
  699MOL0     H96433   7.543   8.047   7.514 -1.7508  0.9856 -0.4702
  699MOL0     H96434   7.469   8.219   7.261  1.1960 -0.6521  0.1719
  699MOL0     H96435   7.361   8.172   7.388  0.1095 -1.1579  0.0622
  699MOL0     H96436   7.633   8.308   7.429  0.0423  0.7522 -1.3470
  699MOL0     H96437   7.526   8.267   7.553 -1.8757 -0.9367 -0.6390
  699MOL0     H96438   7.390   8.449   7.353 -1.6952 -2.2658  1.1228
  699MOL0     H96439   7.558   8.498   7.375 -1.0830  1.5038  0.3456
  699MOL0     H96440   7.529   8.525   7.627 -2.0910  1.0274  1.2946
  699MOL0     H96441   7.360   8.457   7.594 -2.3203  0.5137 -3.4314
  699MOL0     H96442   7.920   7.873   7.121  1.5610 -2.6859 -0.5109
  699MOL0     H96443   8.050   7.929   6.935  1.9849 -3.8580 -3.1518
  699MOL0     H96444   8.016   7.827   6.295  0.1882 -0.5226  1.4634
  699MOL0     H96445   8.134   7.942   6.122 -1.4373 -1.1811  0.0750
  699MOL0     H96446   9.066   7.288   5.783  0.5918 -0.6529 -0.7090
  699MOL0     H96447   9.165   7.368   5.604 -1.8135  2.1896  2.2182
  699MOL0     H96448   9.500   7.496   5.321 -0.8722 -1.4616  4.5661
  699MOL0     H96449   9.616   7.709   5.080 -2.1474  2.0430 -1.4377
  699MOL0     H96450   9.604   8.214   5.043 -1.2631  3.9335  1.7661
  699MOL0     H96451   9.541   8.219   5.202 -1.9466 -0.6756 -1.8924
  699MOL0     H96452   9.835   8.164   5.147 -1.4833 -1.7495  1.9927
  699MOL0     H96453   9.788   8.214   5.298  1.6796 -0.2510 -0.4941
  699MOL0     H96454   9.896   8.401   5.163 -1.0997 -1.3425 -1.2609
  699MOL0     H96455   9.757   8.391   5.061 -5.4582  3.4523  1.4766
  699MOL0     H96456   9.760   8.463   5.354 -0.9346  4.6845  0.0066
  699MOL0     H96457   9.599   8.418   5.274 -1.3351  1.5094  3.9131
  699MOL0     H96458   9.707   8.785   5.086 -0.4519  0.6198  1.0819
  699MOL0     H96459   9.520   8.123   5.436 -0.9327  0.4455  0.7663
  699MOL0     H96460   9.298   7.890   5.698  0.5248 -0.8682 -0.6876
  699MOL0     H96461   9.458   7.942   5.764 -0.7060  0.7121  1.2942
  699MOL0     H96462   9.371   8.050   5.653  1.4368  0.4524 -0.5109
  700MOL0     O96463   5.584  11.376   4.834 -0.2571 -0.6792  0.0926
  700MOL0     C96464   5.541  11.488   4.812  0.4633 -0.6914  1.0184
  700MOL0     O96465   5.569  11.555   4.690 -0.5680  0.2139 -0.5006
  700MOL0     C96466   5.599  11.470   4.582 -0.3016  0.3814 -1.0966
  700MOL0     C96467   5.726  11.415   4.559  0.5163 -0.3452  0.5675
  700MOL0     C96468   5.748  11.320   4.455  0.1832 -0.0854  0.1821
  700MOL0     C96469   5.646  11.306   4.361 -0.9547 -0.0564  0.9458
  700MOL0     O96470   5.664  11.219   4.251 -0.0027  0.6185  0.4554
  700MOL0     C96471   5.715  11.090   4.280 -0.3436 -0.7227 -0.4152
  700MOL0     C96472   5.695  10.982   4.172  0.8690  0.4769  0.9950
  700MOL0     C96473   5.787  11.012   4.061 -0.1969  0.0531  0.6050
  700MOL0     C96474   5.809  10.900   3.965 -0.1380 -0.4531 -0.2355
  700MOL0     C96475   5.887  10.953   3.840 -0.6516  0.0906  0.3976
  700MOL0     C96476   5.814  11.059   3.754  0.0309 -0.3093  0.0767
  700MOL0     C96477   5.910  11.119   3.646  0.9602  0.1335  0.0416
  700MOL0     C96478   5.815  11.220   3.569  0.3830  0.2522  0.2025
  700MOL0     N96479   5.897  11.306   3.480  0.1210 -1.0050 -0.6099
  700MOL0     C96480   5.958  11.251   3.370 -0.2692  0.5474  0.4851
  700MOL0     C96481   6.057  11.332   3.335  0.3817  0.6532  0.8930
  700MOL0     C96482   6.153  11.338   3.214  0.5205  0.5381  0.3009
  700MOL0     C96483   6.095  11.258   3.094 -0.9002 -0.2357  0.2135
  700MOL0     C96484   6.156  11.118   3.087 -0.2101  0.1111 -0.4031
  700MOL0     C96485   6.136  11.033   2.962 -0.2779  0.2021 -0.9549
  700MOL0     O96486   6.196  11.084   2.839 -0.6727  0.2705 -0.6517
  700MOL0     C96487   6.143  11.042   2.717 -0.9601  0.1908  0.8486
  700MOL0     C96488   6.118  11.149   2.639 -0.1780  0.7310  0.9383
  700MOL0     C96489   6.074  11.115   2.506 -0.3608 -0.2831 -1.1450
  700MOL0     C96490   6.067  11.238   2.419  0.3253  1.2177  0.4549
  700MOL0     C96491   6.085  10.991   2.447  0.8904 -0.4510 -0.5592
  700MOL0     C96492   6.084  10.976   2.305  0.0669  0.6497  0.0442
  700MOL0     O96493   6.183  10.896   2.245  0.2369 -0.6713 -0.6161
  700MOL0     C96494   6.159  10.841   2.126  0.3396  0.8810 -0.4367
  700MOL0     C96495   6.151  10.929   2.026  0.7504 -0.2667 -0.4383
  700MOL0     C96496   6.123  10.876   1.902 -0.3650 -0.2349 -0.3092
  700MOL0     C96497   6.115  10.740   1.875 -0.4541  0.3368  0.3256
  700MOL0     O96498   6.128  10.691   1.749  0.3310 -0.4041  0.0290
  700MOL0     C96499   6.217  10.752   1.653 -0.9274  0.1691  0.3554
  700MOL0     C96500   6.362  10.727   1.663 -0.3414 -0.3464 -0.9796
  700MOL0     C96501   6.410  10.586   1.636  0.3490 -0.1433 -1.0098
  700MOL0     C96502   6.383  10.548   1.489  0.2204  0.9942 -0.2000
  700MOL0     C96503   6.449  10.412   1.456 -0.1360  0.2831 -0.1228
  700MOL0     C96504   6.346  10.309   1.404 -0.7351 -0.3528  0.5254
  700MOL0     C96505   6.322  10.323   1.253  0.3069  0.3775 -0.4722
  700MOL0     C96506   6.220  10.224   1.211 -0.0321  0.0248  0.6783
  700MOL0    Cl96507   6.212  10.227   1.041  0.1991  0.2982 -0.3459
  700MOL0     C96508   6.127  10.651   1.977 -0.5764 -0.0305  0.4075
  700MOL0     C96509   6.149  10.705   2.107  0.1618  0.1331  0.2377
  700MOL0     O96510   5.992  11.028   2.250  0.4531  0.8782  0.5157
  700MOL0     C96511   6.102  10.884   2.535  1.2613  0.7501 -0.1033
  700MOL0     C96512   6.125  10.909   2.673  0.5019 -0.1120 -0.0016
  700MOL0     N96513   6.055  11.437   3.429  0.3005  0.5917  0.1238
  700MOL0     N96514   5.971  11.413   3.523 -0.1381  0.1213  0.8232
  700MOL0     C96515   5.529  11.381   4.368 -0.0009 -0.2733  0.2360
  700MOL0     C96516   5.508  11.444   4.483  0.7587 -0.3634  0.3290
  700MOL0     C96517   5.467  11.563   4.914 -0.0459  0.4807 -1.5298
  700MOL0     C96518   5.496  11.517   5.045  0.2331 -0.4792 -0.7920
  700MOL0     C96519   5.437  11.586   5.159  0.1443  0.5664  0.1641
  700MOL0     C96520   5.357  11.695   5.134  0.0497 -0.0713  0.6810
  700MOL0     O96521   5.298  11.757   5.245  0.3740 -0.0984  0.1268
  700MOL0     C96522   5.214  11.868   5.236  0.4762 -0.0886  0.0135
  700MOL0     C96523   5.291  11.995   5.197 -0.2847  0.4715 -0.3809
  700MOL0     C96524   5.243  12.120   5.271 -0.8834  0.0634  0.1220
  700MOL0     C96525   5.310  12.252   5.220  0.5722  0.2425 -0.0612
  700MOL0     C96526   5.441  12.286   5.293 -0.2088 -0.4705  0.4491
  700MOL0     C96527   5.543  12.293   5.353  0.2487  0.0638  0.1731
  700MOL0     C96528   5.324  11.740   5.000  0.5474  0.4881  0.2208
  700MOL0     C96529   5.382  11.673   4.887  0.6135 -0.6520 -0.0483
  700MOL0     C96530   5.331  11.696   4.742  1.2632  0.3195  0.3568
  700MOL0     H96531   5.804  11.415   4.635  1.1782  1.6875 -0.0555
  700MOL0     H96532   5.842  11.268   4.438 -0.5262 -1.2040 -0.4879
  700MOL0     H96533   5.657  11.057   4.368 -1.4388 -2.3999 -1.6941
  700MOL0     H96534   5.820  11.100   4.309 -0.7649  1.0082  0.6516
  700MOL0     H96535   5.707  10.879   4.208  1.3628  0.6097  1.2253
  700MOL0     H96536   5.590  10.981   4.140  0.8205 -1.4018  1.0557
  700MOL0     H96537   5.747  11.098   4.007 -1.8068  0.9727  3.1093
  700MOL0     H96538   5.886  11.045   4.096 -0.1926  1.6105 -0.7689
  700MOL0     H96539   5.864  10.815   4.006 -1.1064 -0.2553  1.6070
  700MOL0     H96540   5.711  10.869   3.927  1.4139 -3.4541 -2.1874
  700MOL0     H96541   5.906  10.867   3.775  1.7118 -0.4446  1.6709
  700MOL0     H96542   5.981  10.995   3.876  0.2314 -1.5219  0.1051
  700MOL0     H96543   5.734  10.998   3.711 -0.4050 -0.6528  1.3233
  700MOL0     H96544   5.770  11.145   3.804 -1.0516  1.3883 -3.4656
  700MOL0     H96545   5.944  11.047   3.571 -1.1440 -0.3440 -0.5228
  700MOL0     H96546   5.996  11.178   3.678  2.6320  0.1327 -3.9434
  700MOL0     H96547   5.739  11.159   3.519 -0.1214 -1.3080  2.6457
  700MOL0     H96548   5.768  11.281   3.647  3.2632  0.0017  2.2932
  700MOL0     H96549   5.916  11.166   3.318 -1.7618  0.2676  2.0543
  700MOL0     H96550   6.258  11.312   3.230  0.3805  0.4054  1.0560
  700MOL0     H96551   6.159  11.442   3.182 -0.1305  0.5420  0.1660
  700MOL0     H96552   5.990  11.237   3.114 -0.1623 -0.9711  4.2009
  700MOL0     H96553   6.113  11.310   2.999  1.9418 -0.2205  0.6683
  700MOL0     H96554   6.265  11.123   3.093 -0.3009  3.9907  4.9207
  700MOL0     H96555   6.110  11.076   3.177 -0.8812  2.1717  0.2781
  700MOL0     H96556   6.182  10.940   2.996 -1.7271  0.1983  1.1672
  700MOL0     H96557   6.029  11.015   2.945  0.1997 -3.1048 -1.1739
  700MOL0     H96558   6.148  11.252   2.658  4.2065 -0.6542  2.9034
  700MOL0     H96559   6.111  11.227   2.320  2.4725 -0.0417  1.4613
  700MOL0     H96560   6.119  11.325   2.460  0.8150  0.4073  1.6418
  700MOL0     H96561   5.961  11.260   2.403 -0.0425 -0.8029 -0.1000
  700MOL0     H96562   6.155  11.036   2.041  2.8881 -0.1810 -1.2392
  700MOL0     H96563   6.108  10.941   1.816 -1.6022 -4.2779 -3.4842
  700MOL0     H96564   6.180  10.711   1.559  1.4645 -0.9761 -0.1731
  700MOL0     H96565   6.199  10.860   1.641 -0.8206  0.0398 -1.1502
  700MOL0     H96566   6.406  10.793   1.587 -1.3982  1.8402  0.2167
  700MOL0     H96567   6.403  10.755   1.761  1.5688 -1.8325 -1.2812
  700MOL0     H96568   6.354  10.515   1.698 -0.5879 -1.9430 -3.6971
  700MOL0     H96569   6.519  10.592   1.647  0.0929  1.0345  1.4034
  700MOL0     H96570   6.430  10.628   1.430 -2.0589  0.6954 -2.6477
  700MOL0     H96571   6.277  10.537   1.465  0.2782 -1.3899  0.4526
  700MOL0     H96572   6.523  10.428   1.377 -0.3696  2.9610  0.0902
  700MOL0     H96573   6.504  10.376   1.543  0.0552 -2.5344 -1.3023
  700MOL0     H96574   6.257  10.330   1.464 -0.6683  5.5532 -0.8526
  700MOL0     H96575   6.385  10.208   1.424  1.1987  0.0006 -1.1427
  700MOL0     H96576   6.418  10.313   1.202  0.8441  1.6500  0.2515
  700MOL0     H96577   6.290  10.421   1.216  1.5403  1.3214  0.8760
  700MOL0     H96578   6.124  10.242   1.261 -1.0581 -4.6615  0.8379
  700MOL0     H96579   6.257  10.127   1.244  2.2197  1.6619  3.3488
  700MOL0     H96580   6.123  10.544   1.961 -2.4043 -0.1995  1.7809
  700MOL0     H96581   6.162  10.633   2.187 -1.3223 -1.8892 -1.2366
  700MOL0     H96582   6.092  10.779   2.510  2.2588  0.9830 -1.6470
  700MOL0     H96583   6.154  10.825   2.736 -1.0786 -1.7140 -1.3190
  700MOL0     H96584   5.470  11.359   4.280 -0.2128  0.5306  0.1706
  700MOL0     H96585   5.406  11.479   4.499  0.4735 -0.9454 -0.1576
  700MOL0     H96586   5.556  11.429   5.067 -1.2240 -2.3067 -3.6098
  700MOL0     H96587   5.450  11.540   5.256  4.7719  1.8745  0.3995
  700MOL0     H96588   5.125  11.848   5.176  2.5060 -2.6987 -2.3859
  700MOL0     H96589   5.169  11.886   5.334  0.7503 -0.5317  0.2253
  700MOL0     H96590   5.268  12.010   5.092 -0.2063 -5.1179 -1.5102
  700MOL0     H96591   5.399  11.986   5.215 -0.7363  0.5196  3.0479
  700MOL0     H96592   5.135  12.137   5.261 -1.1495  1.2066  3.7803
  700MOL0     H96593   5.284  12.108   5.371 -0.4168 -0.7517 -0.1554
  700MOL0     H96594   5.251  12.335   5.260  0.7762 -0.0649  0.9062
  700MOL0     H96595   5.314  12.241   5.111 -0.9079 -1.2528  0.0033
  700MOL0     H96596   5.628  12.323   5.410 -1.9089 -0.6171  4.0611
  700MOL0     H96597   5.258  11.824   4.982  0.5813 -0.1758 -4.1058
  700MOL0     H96598   5.334  11.606   4.680  1.3730 -0.8974  2.0243
  700MOL0     H96599   5.232  11.741   4.745  2.2222  2.6160 -0.3758
  700MOL0     H96600   5.385  11.775   4.691 -3.3353  2.1215 -2.2380
  701MOL0     O96601   5.735   6.535   6.882 -0.3419 -0.3784 -0.3287
  701MOL0     C96602   5.736   6.440   6.955  0.1787 -0.5429  0.0351
  701MOL0     O96603   5.633   6.349   6.971  0.4246 -0.3415  0.3123
  701MOL0     C96604   5.513   6.350   6.904 -0.0866  1.4823  0.4296
  701MOL0     C96605   5.443   6.233   6.884  0.8525  0.4776 -0.1016
  701MOL0     C96606   5.319   6.237   6.825 -0.7070  0.3716  0.1152
  701MOL0     C96607   5.263   6.360   6.782 -0.5196  0.8732  0.7362
  701MOL0     O96608   5.143   6.358   6.717 -0.4335  0.3456 -0.0970
  701MOL0     C96609   5.044   6.417   6.800 -0.4875 -0.0846 -0.2478
  701MOL0     C96610   4.905   6.388   6.737  0.6744 -0.7059 -0.3177
  701MOL0     C96611   4.882   6.236   6.702  0.0507 -0.9722  0.7342
  701MOL0     C96612   4.912   6.148   6.817 -0.5373  0.1740 -0.0731
  701MOL0     C96613   4.846   6.006   6.799  0.4734  0.1716  0.0640
  701MOL0     C96614   4.695   5.996   6.796  0.3121 -0.6882 -0.1883
  701MOL0     C96615   4.640   5.873   6.730  0.1473  0.1200  0.7258
  701MOL0     C96616   4.493   5.882   6.696 -0.0999 -0.2917  0.1815
  701MOL0     N96617   4.470   5.964   6.578 -0.4272 -0.3596  0.1766
  701MOL0     C96618   4.560   6.001   6.477  0.2767 -0.3002  0.1115
  701MOL0     C96619   4.491   6.107   6.417 -0.7417  1.3866  0.3586
  701MOL0     C96620   4.558   6.202   6.314 -0.5193 -0.5290 -0.1305
  701MOL0     C96621   4.669   6.283   6.392  0.2723 -0.5742  0.0796
  701MOL0     C96622   4.714   6.399   6.303  0.0753  0.1432  0.3801
  701MOL0     C96623   4.800   6.501   6.372 -0.5959 -0.7208  0.3885
  701MOL0     O96624   4.729   6.602   6.446  0.0735  0.3525 -0.0615
  701MOL0     C96625   4.811   6.695   6.512  0.6710 -0.3830  0.4327
  701MOL0     C96626   4.748   6.775   6.611  0.1167  0.7414  0.5935
  701MOL0     C96627   4.822   6.858   6.693 -0.0575 -0.2230 -0.6189
  701MOL0     C96628   4.747   6.921   6.808 -0.2318 -0.4486  0.4371
  701MOL0     C96629   4.960   6.876   6.680 -0.3610 -0.0236  0.6647
  701MOL0     C96630   5.051   6.959   6.769  0.5946 -0.2647 -0.5407
  701MOL0     O96631   5.186   6.979   6.722 -1.0717  0.0743 -0.3253
  701MOL0     C96632   5.264   7.033   6.821 -0.7899  0.1955 -0.7901
  701MOL0     C96633   5.310   6.946   6.923  0.2441 -0.0923 -0.8974
  701MOL0     C96634   5.404   6.987   7.026 -0.6143  0.0065 -0.0011
  701MOL0     C96635   5.458   7.110   7.023 -1.3054  0.2224 -0.2223
  701MOL0     O96636   5.559   7.137   7.115 -0.5579  0.7436 -0.0247
  701MOL0     C96637   5.624   7.263   7.111  0.2997 -0.3137 -0.2894
  701MOL0     C96638   5.733   7.275   7.225  0.2963 -1.0888  0.3630
  701MOL0     C96639   5.861   7.207   7.181 -0.3768 -0.1977  0.2060
  701MOL0     C96640   5.876   7.069   7.244  0.4778 -1.3802  0.5741
  701MOL0     C96641   6.015   7.007   7.223  0.7369  0.6429 -0.3479
  701MOL0     C96642   6.010   6.855   7.267 -0.0754  0.0863  0.2339
  701MOL0     C96643   6.141   6.803   7.324 -0.3368 -0.1151  0.1963
  701MOL0     C96644   6.153   6.806   7.479 -0.7158  0.2404  0.0842
  701MOL0    Cl96645   6.057   6.653   7.526  0.1462  0.1284  0.0052
  701MOL0     C96646   5.394   7.203   6.928  0.5044 -0.0864 -0.3603
  701MOL0     C96647   5.314   7.161   6.826 -0.7739 -0.4041  1.3086
  701MOL0     O96648   5.010   6.986   6.883 -0.1257  0.7819 -0.7709
  701MOL0     C96649   5.018   6.798   6.579 -0.2843  0.9246  0.4694
  701MOL0     C96650   4.942   6.712   6.497  0.5772  0.7910  0.3023
  701MOL0     N96651   4.369   6.125   6.472  0.3337  0.5734 -0.8712
  701MOL0     N96652   4.356   6.038   6.566 -0.4607 -0.0295 -0.0921
  701MOL0     C96653   5.332   6.473   6.800 -0.1679 -0.7371 -0.2806
  701MOL0     C96654   5.457   6.473   6.864 -1.0450  0.6429  0.0836
  701MOL0     C96655   5.862   6.414   7.018 -1.0416 -1.0583 -0.9060
  701MOL0     C96656   5.974   6.395   6.937  0.0513 -0.2101  0.4849
  701MOL0     C96657   6.105   6.371   6.991  0.8231 -0.3749 -0.3884
  701MOL0     C96658   6.123   6.393   7.130  0.1313  0.6691  0.7282
  701MOL0     O96659   6.243   6.377   7.189 -0.3034  0.3976 -0.0696
  701MOL0     C96660   6.348   6.461   7.143  0.1710 -1.2085 -0.1329
  701MOL0     C96661   6.461   6.437   7.247 -0.1822 -0.4747 -0.0077
  701MOL0     C96662   6.422   6.522   7.372 -0.7991 -0.8454  0.2974
  701MOL0     C96663   6.548   6.583   7.449  0.3153 -0.7119 -0.1782
  701MOL0     C96664   6.656   6.641   7.367 -0.2569 -0.3135  1.5303
  701MOL0     C96665   6.739   6.682   7.286  1.0876  0.1615 -1.0339
  701MOL0     C96666   6.017   6.413   7.209  0.0836  0.2308  0.0006
  701MOL0     C96667   5.885   6.433   7.155  0.6640 -0.4219  0.2901
  701MOL0     C96668   5.782   6.468   7.247 -0.1145  0.0761  0.2442
  701MOL0     H96669   5.483   6.135   6.907 -4.3536 -2.3349 -1.4920
  701MOL0     H96670   5.270   6.143   6.803 -0.8345 -0.9374  4.8768
  701MOL0     H96671   5.052   6.526   6.798  0.5691 -0.1505 -0.9648
  701MOL0     H96672   5.065   6.372   6.898  2.7022 -1.3636 -1.3677
  701MOL0     H96673   4.832   6.426   6.808  1.6211 -1.6856  1.2322
  701MOL0     H96674   4.899   6.457   6.652 -1.1304 -1.4839 -0.8643
  701MOL0     H96675   4.774   6.236   6.682 -0.3423 -0.8205  2.6159
  701MOL0     H96676   4.945   6.204   6.619 -0.8411  2.6834 -1.5729
  701MOL0     H96677   5.022   6.148   6.819 -0.5147  1.3828 -0.6247
  701MOL0     H96678   4.874   6.194   6.908 -1.7730 -1.6245  0.3671
  701MOL0     H96679   4.872   5.946   6.887 -1.5462  2.6975  2.5629
  701MOL0     H96680   4.883   5.963   6.706 -0.6065  0.9312 -0.7427
  701MOL0     H96681   4.667   6.009   6.900 -0.3009  0.5292 -0.4835
  701MOL0     H96682   4.667   6.085   6.740  1.3120 -1.5991 -2.2707
  701MOL0     H96683   4.649   5.786   6.795 -4.3546  0.4125  2.0634
  701MOL0     H96684   4.694   5.850   6.637 -1.0721 -1.0218  0.2753
  701MOL0     H96685   4.451   5.786   6.667  1.4766 -0.6634 -1.0511
  701MOL0     H96686   4.439   5.916   6.785  0.5850  0.3557  0.3663
  701MOL0     H96687   4.665   5.977   6.462 -0.0346 -0.8969 -1.2527
  701MOL0     H96688   4.468   6.257   6.286 -1.5119 -0.4407  2.8332
  701MOL0     H96689   4.610   6.160   6.228  1.3378  3.7093 -1.2998
  701MOL0     H96690   4.622   6.329   6.479  2.3771 -0.8407  1.4181
  701MOL0     H96691   4.755   6.222   6.422 -0.4415 -1.8111 -0.3421
  701MOL0     H96692   4.749   6.360   6.207 -1.7806  1.3598 -0.8488
  701MOL0     H96693   4.621   6.449   6.272 -2.6338 -1.6414  4.6644
  701MOL0     H96694   4.868   6.449   6.440  1.8543  2.6333  0.7903
  701MOL0     H96695   4.857   6.555   6.295 -2.1446  0.1556 -0.1938
  701MOL0     H96696   4.641   6.771   6.626  0.1958  2.8667  2.1089
  701MOL0     H96697   4.725   7.026   6.786  0.8936  0.2611  2.5387
  701MOL0     H96698   4.797   6.906   6.904  0.8059 -0.7146 -0.1321
  701MOL0     H96699   4.654   6.866   6.823  0.8039 -2.4771 -0.1889
  701MOL0     H96700   5.275   6.844   6.934  1.9246 -0.4938  1.5023
  701MOL0     H96701   5.419   6.911   7.102 -0.7645 -0.1544 -0.1311
  701MOL0     H96702   5.664   7.287   7.012 -0.4556 -0.7871 -0.7172
  701MOL0     H96703   5.548   7.341   7.121  1.9299  1.7355 -2.5786
  701MOL0     H96704   5.741   7.384   7.234  0.1120 -0.9584 -0.7988
  701MOL0     H96705   5.696   7.226   7.316  0.6097 -1.6619  0.1885
  701MOL0     H96706   5.950   7.258   7.218 -0.0909 -2.0313  2.2618
  701MOL0     H96707   5.865   7.201   7.072 -1.7295 -0.0414  0.1227
  701MOL0     H96708   5.801   7.000   7.205  0.5994 -2.2684  1.8419
  701MOL0     H96709   5.856   7.075   7.351 -2.3627  0.4786  0.0525
  701MOL0     H96710   6.040   7.009   7.117 -2.2082 -0.6568 -1.1824
  701MOL0     H96711   6.086   7.071   7.276 -1.6654  1.7364  1.8287
  701MOL0     H96712   5.988   6.800   7.175  1.3994  0.8217 -0.6012
  701MOL0     H96713   5.922   6.851   7.332 -1.0512  0.9931 -0.9746
  701MOL0     H96714   6.229   6.860   7.291 -1.3726  1.3766 -0.0976
  701MOL0     H96715   6.151   6.702   7.283 -2.1925  0.1350 -0.9697
  701MOL0     H96716   6.100   6.893   7.520 -0.5536  1.2081 -1.6124
  701MOL0     H96717   6.257   6.801   7.510 -0.6416  1.0685  0.0041
  701MOL0     H96718   5.417   7.309   6.934 -0.4482  0.2760 -2.1564
  701MOL0     H96719   5.277   7.246   6.770 -1.6069 -0.9710  0.9771
  701MOL0     H96720   5.126   6.791   6.566 -0.1170  1.6856  1.3537
  701MOL0     H96721   4.998   6.649   6.428  1.7328  0.8363  1.1664
  701MOL0     H96722   5.285   6.565   6.764  0.7206 -1.1866 -2.7955
  701MOL0     H96723   5.490   6.568   6.903 -2.9009  0.1467  3.1846
  701MOL0     H96724   5.955   6.380   6.831  2.3585 -1.5277  0.2066
  701MOL0     H96725   6.197   6.353   6.937  2.0247  0.9157  1.1492
  701MOL0     H96726   6.391   6.412   7.056 -0.0500  0.0842 -0.9941
  701MOL0     H96727   6.314   6.565   7.135 -3.9060 -2.2517  1.1684
  701MOL0     H96728   6.554   6.470   7.199 -0.5902  0.9833  0.1713
  701MOL0     H96729   6.487   6.333   7.268  0.1498 -1.1500 -3.2581
  701MOL0     H96730   6.372   6.613   7.338  0.5086 -0.0445  0.4472
  701MOL0     H96731   6.348   6.473   7.435 -1.3273  1.3448  1.4988
  701MOL0     H96732   6.586   6.498   7.508 -1.3407 -1.8203 -0.6517
  701MOL0     H96733   6.505   6.658   7.516 -0.9832 -1.9640  0.4283
  701MOL0     H96734   6.807   6.730   7.218  3.0470  1.7417  1.7990
  701MOL0     H96735   6.031   6.411   7.317  1.0422 -2.8499 -0.0942
  701MOL0     H96736   5.768   6.383   7.314 -0.6192 -0.6490 -0.7596
  701MOL0     H96737   5.819   6.558   7.298  3.2566  0.6937 -2.8884
  701MOL0     H96738   5.690   6.499   7.198 -0.0942  3.0969  1.8761
  702MOL0     O96739   2.133   8.640   5.243 -0.1703  0.1552 -0.9643
  702MOL0     C96740   2.250   8.674   5.222  0.7213  0.1364 -0.1248
  702MOL0     O96741   2.292   8.734   5.106 -0.1376  0.0664 -0.5288
  702MOL0     C96742   2.201   8.770   5.008 -0.9449  0.3965  0.1424
  702MOL0     C96743   2.160   8.660   4.926  0.2398 -0.3314 -1.3160
  702MOL0     C96744   2.076   8.677   4.819  0.4715 -0.9278  0.3699
  702MOL0     C96745   2.008   8.794   4.802 -0.6832  0.0123 -0.3656
  702MOL0     O96746   1.913   8.809   4.698  0.6111  0.2552  0.0579
  702MOL0     C96747   1.901   8.726   4.589 -0.1880  0.4078 -0.7337
  702MOL0     C96748   2.014   8.717   4.485 -0.8783  0.4361 -0.2425
  702MOL0     C96749   1.987   8.837   4.400  0.1543 -0.2306  0.3942
  702MOL0     C96750   2.075   8.834   4.276  0.8804  0.2610  0.1002
  702MOL0     C96751   2.059   8.953   4.187  0.4403 -0.3907  0.2579
  702MOL0     C96752   1.933   8.977   4.094  0.5211  0.0274 -0.0671
  702MOL0     C96753   1.890   8.855   3.993 -0.3802 -0.4928  0.8723
  702MOL0     C96754   1.952   8.880   3.860  0.7053  1.1626  0.7258
  702MOL0     N96755   1.938   8.752   3.786 -0.5095  0.3158 -0.4689
  702MOL0     C96756   2.036   8.672   3.738 -0.2529 -0.1262 -0.3841
  702MOL0     C96757   1.981   8.562   3.685  0.7770  0.1848 -0.2050
  702MOL0     C96758   2.059   8.445   3.616  1.0033  0.3886 -0.4772
  702MOL0     C96759   2.172   8.382   3.709 -0.7397 -0.3491  0.6500
  702MOL0     C96760   2.115   8.270   3.793 -0.1580 -0.0624 -0.0150
  702MOL0     C96761   2.227   8.205   3.876 -0.1543 -0.6791 -0.4050
  702MOL0     O96762   2.166   8.104   3.954 -0.7243 -0.0463  0.8367
  702MOL0     C96763   2.254   8.075   4.056  0.0425 -0.2178 -0.2488
  702MOL0     C96764   2.337   7.971   4.036 -0.3291 -0.5575 -0.5721
  702MOL0     C96765   2.425   7.924   4.140  0.9965  0.0094  0.6965
  702MOL0     C96766   2.493   7.796   4.112  0.8079  0.0273 -0.1258
  702MOL0     C96767   2.435   8.013   4.252  1.0763  0.5011 -0.6733
  702MOL0     C96768   2.536   7.992   4.367  0.3994  1.2769  0.7799
  702MOL0     O96769   2.583   7.866   4.390 -0.5000  0.1739 -0.0555
  702MOL0     C96770   2.642   7.820   4.499 -0.2016  0.2488  0.5873
  702MOL0     C96771   2.597   7.698   4.529 -0.5378 -0.0151 -1.6249
  702MOL0     C96772   2.635   7.647   4.654 -0.2122  0.0912 -0.4105
  702MOL0     C96773   2.716   7.710   4.749  0.1853 -0.0238  0.5014
  702MOL0     O96774   2.770   7.636   4.859  0.4525 -0.0602 -0.0334
  702MOL0     C96775   2.731   7.498   4.859  0.4498 -0.3472 -0.0851
  702MOL0     C96776   2.823   7.420   4.968  0.1439  0.2400  0.3096
  702MOL0     C96777   2.771   7.272   4.981 -0.0223 -0.7587  1.0116
  702MOL0     C96778   2.882   7.188   5.034  0.3607 -0.4638  0.7266
  702MOL0     C96779   2.873   7.158   5.183  0.0642  0.1449  0.0809
  702MOL0     C96780   2.969   7.049   5.221 -1.3319 -1.2317 -0.6098
  702MOL0     C96781   3.120   7.054   5.185 -0.7318  0.2296 -0.3398
  702MOL0     C96782   3.193   6.952   5.282  0.1931 -0.7975  0.3092
  702MOL0    Cl96783   3.380   6.954   5.293  0.0692 -0.2221 -0.4801
  702MOL0     C96784   2.755   7.837   4.709 -0.4149  0.0475  0.3178
  702MOL0     C96785   2.723   7.897   4.585 -0.8126 -0.0226  0.3060
  702MOL0     O96786   2.568   8.094   4.424  0.1203  0.1097 -0.8758
  702MOL0     C96787   2.353   8.127   4.261  0.2836 -0.0405  0.2638
  702MOL0     C96788   2.262   8.162   4.167  0.3038 -0.2256  1.3932
  702MOL0     N96789   1.848   8.572   3.696 -0.3699 -0.7285  0.5863
  702MOL0     N96790   1.823   8.693   3.744 -0.5384 -0.1725 -0.2416
  702MOL0     C96791   2.025   8.891   4.899 -0.2710 -0.0391  0.6248
  702MOL0     C96792   2.118   8.891   4.992 -0.8636  0.4325 -0.2457
  702MOL0     C96793   2.350   8.664   5.332 -1.2078 -0.2802  0.2699
  702MOL0     C96794   2.317   8.594   5.442  1.5473  0.2117 -0.0332
  702MOL0     C96795   2.402   8.569   5.551 -0.5002  0.0811 -0.2499
  702MOL0     C96796   2.529   8.635   5.555 -0.5790  0.2323  0.2869
  702MOL0     O96797   2.622   8.623   5.662 -0.2529 -0.0472  0.6933
  702MOL0     C96798   2.599   8.554   5.778  0.4007 -0.3601 -0.8318
  702MOL0     C96799   2.691   8.603   5.890 -0.5627  0.5617 -0.0371
  702MOL0     C96800   2.671   8.746   5.936 -0.3253  0.8652  0.4251
  702MOL0     C96801   2.796   8.775   6.019  0.2698 -0.2132  0.3119
  702MOL0     C96802   2.806   8.921   6.048  0.1788 -0.2694  0.1219
  702MOL0     C96803   2.836   9.035   6.081 -0.1593  0.1674  0.1473
  702MOL0     C96804   2.566   8.719   5.447 -0.3507  0.4282  0.6985
  702MOL0     C96805   2.473   8.735   5.342 -1.2362  0.7130 -0.1320
  702MOL0     C96806   2.511   8.839   5.243  0.3371  0.5152  0.3794
  702MOL0     H96807   2.212   8.564   4.927  2.4734  0.8019 -1.7969
  702MOL0     H96808   2.078   8.601   4.741  1.2019 -0.8545  0.3095
  702MOL0     H96809   1.807   8.738   4.535 -1.0481 -3.1149 -0.2666
  702MOL0     H96810   1.902   8.625   4.631  0.4845  1.3943  1.8533
  702MOL0     H96811   2.117   8.701   4.518 -2.1741 -1.5404  3.4043
  702MOL0     H96812   2.001   8.631   4.419  0.1605  1.3163 -1.6443
  702MOL0     H96813   1.882   8.816   4.379 -1.6385  2.1779  5.3418
  702MOL0     H96814   2.012   8.925   4.460  0.0674  0.1434 -0.1122
  702MOL0     H96815   2.180   8.818   4.304  0.2840 -1.6990  1.4181
  702MOL0     H96816   2.047   8.746   4.217  2.2532 -0.3243  0.2692
  702MOL0     H96817   2.151   8.954   4.127  1.4086  0.5375  1.6915
  702MOL0     H96818   2.062   9.040   4.252 -0.4799  0.7292 -1.1342
  702MOL0     H96819   1.849   8.983   4.164  3.6615  1.1096  3.9447
  702MOL0     H96820   1.937   9.079   4.057 -1.2844  1.6088  3.6030
  702MOL0     H96821   1.781   8.849   3.993 -0.4394  0.4614  0.2568
  702MOL0     H96822   1.935   8.758   4.017 -2.2953 -1.9491 -0.9419
  702MOL0     H96823   1.910   8.969   3.813  2.1976  1.2589 -0.4712
  702MOL0     H96824   2.060   8.895   3.870  0.8718 -0.5430  1.9858
  702MOL0     H96825   2.143   8.688   3.731 -0.2955  0.2211 -0.2636
  702MOL0     H96826   2.114   8.489   3.532  1.4741  0.8945  0.0814
  702MOL0     H96827   1.990   8.370   3.576  1.5908  0.2708 -1.3029
  702MOL0     H96828   2.251   8.347   3.642 -2.3724 -0.7486 -1.1547
  702MOL0     H96829   2.207   8.462   3.776  0.2854 -0.9274  0.8225
  702MOL0     H96830   2.034   8.302   3.859  0.8496  2.0448  0.3032
  702MOL0     H96831   2.070   8.205   3.718  1.3538  0.1195 -1.1471
  702MOL0     H96832   2.317   8.170   3.825 -0.1540 -0.3103 -0.6547
  702MOL0     H96833   2.257   8.282   3.947 -2.2790  0.3007 -0.4759
  702MOL0     H96834   2.338   7.915   3.943  2.1631  1.1346 -1.6642
  702MOL0     H96835   2.563   7.759   4.187  1.2720 -0.9314 -1.0007
  702MOL0     H96836   2.540   7.790   4.014 -0.0709 -1.7823 -0.4807
  702MOL0     H96837   2.415   7.719   4.115  1.5059 -0.8318 -2.2130
  702MOL0     H96838   2.549   7.630   4.460 -0.0967 -0.2091 -1.7454
  702MOL0     H96839   2.585   7.557   4.687  0.5756  0.4559  1.9508
  702MOL0     H96840   2.626   7.493   4.888  0.3871  1.6585  0.2127
  702MOL0     H96841   2.753   7.442   4.767  2.2110 -3.0552  1.8278
  702MOL0     H96842   2.923   7.421   4.924 -0.1072 -1.7097 -0.4030
  702MOL0     H96843   2.819   7.467   5.067 -1.7202  1.0472 -0.0995
  702MOL0     H96844   2.741   7.233   4.883 -2.7160 -2.4096  2.3658
  702MOL0     H96845   2.676   7.263   5.034 -0.2921 -0.8263  0.5164
  702MOL0     H96846   2.983   7.217   5.006  0.9651 -1.6377  1.5997
  702MOL0     H96847   2.866   7.093   4.980 -2.6553  0.9671 -1.1842
  702MOL0     H96848   2.900   7.257   5.221  0.3653  0.0311  0.1649
  702MOL0     H96849   2.771   7.126   5.209  0.7030 -0.8749  1.4111
  702MOL0     H96850   2.931   6.957   5.176  0.0973 -1.6240 -1.0679
  702MOL0     H96851   2.951   7.043   5.329 -2.6935  1.3529 -0.6090
  702MOL0     H96852   3.166   7.151   5.202 -0.8033  0.7499 -2.7604
  702MOL0     H96853   3.136   7.024   5.081  1.0413 -0.3120  0.0552
  702MOL0     H96854   3.163   6.853   5.248 -1.5830 -0.1399 -0.1593
  702MOL0     H96855   3.156   6.977   5.382 -0.2532 -0.7542  0.1315
  702MOL0     H96856   2.840   7.883   4.758  0.2992  1.2500 -1.8959
  702MOL0     H96857   2.735   8.003   4.571 -1.3858 -0.1896 -1.6691
  702MOL0     H96858   2.374   8.203   4.336 -3.7664  1.4834  0.0587
  702MOL0     H96859   2.205   8.254   4.182 -4.0604 -2.2161 -1.0518
  702MOL0     H96860   1.972   8.985   4.890  2.8748  1.8782  0.8177
  702MOL0     H96861   2.126   8.980   5.053  0.8205  0.1435  0.0041
  702MOL0     H96862   2.223   8.541   5.452  1.0096  1.1053 -0.3151
  702MOL0     H96863   2.369   8.510   5.637 -0.5143 -1.0215 -0.9940
  702MOL0     H96864   2.498   8.571   5.816  0.2341  2.4013 -2.2119
  702MOL0     H96865   2.615   8.448   5.757 -1.1318 -1.7869  3.9092
  702MOL0     H96866   2.788   8.596   5.841  0.6376  2.0987  1.9606
  702MOL0     H96867   2.687   8.535   5.975 -1.8671  2.4812  1.5156
  702MOL0     H96868   2.677   8.814   5.850 -2.9326  1.1261  0.3778
  702MOL0     H96869   2.578   8.774   5.985  1.2820  3.1557  2.4047
  702MOL0     H96870   2.883   8.740   5.962 -1.1665 -2.5192 -0.6222
  702MOL0     H96871   2.785   8.715   6.109 -1.3206 -1.9438 -0.9517
  702MOL0     H96872   2.867   9.135   6.102 -3.1339  1.0546  0.6938
  702MOL0     H96873   2.666   8.762   5.447  0.9112 -2.2141  1.7003
  702MOL0     H96874   2.610   8.876   5.270  1.1520 -1.8611  0.8543
  702MOL0     H96875   2.525   8.809   5.138 -2.3334  2.5154 -0.6722
  702MOL0     H96876   2.435   8.918   5.244  0.1495  0.3330  0.6634
  703MOL0     O96877   6.555   0.130   5.551  0.1253 -0.5426 -0.2487
  703MOL0     C96878   6.576   0.021   5.600 -0.6021  0.4109 -0.3771
  703MOL0     O96879   6.481  -0.064   5.656  0.7099 -1.2674  0.2643
  703MOL0     C96880   6.353  -0.030   5.645 -1.0314  0.5523 -0.1065
  703MOL0     C96881   6.302   0.098   5.677 -0.2270  0.5188  0.3314
  703MOL0     C96882   6.183   0.143   5.639 -0.0208 -0.1627  0.5367
  703MOL0     C96883   6.092   0.055   5.566 -0.3701  0.1137  0.6075
  703MOL0     O96884   5.970   0.070   5.517  0.1998  0.4122  0.9647
  703MOL0     C96885   5.888   0.164   5.580  0.3802  0.1850 -0.3557
  703MOL0     C96886   5.761   0.202   5.511  1.0046  0.4084  0.5846
  703MOL0     C96887   5.801   0.299   5.401 -0.1231 -1.1358  0.4046
  703MOL0     C96888   5.678   0.339   5.330 -0.5512 -0.3562 -0.1701
  703MOL0     C96889   5.703   0.445   5.220  0.6058  1.4643  0.3849
  703MOL0     C96890   5.767   0.392   5.095 -0.2220  0.1256 -0.9555
  703MOL0     C96891   5.669   0.329   4.996 -0.3962 -0.1447 -1.3604
  703MOL0     C96892   5.741   0.293   4.864 -0.2916 -0.4148 -0.2250
  703MOL0     N96893   5.686   0.368   4.755 -0.0616  0.6329 -0.5951
  703MOL0     C96894   5.756   0.453   4.670 -0.3888  0.2719  0.3088
  703MOL0     C96895   5.686   0.491   4.567 -0.7648 -0.4504  1.6173
  703MOL0     C96896   5.730   0.593   4.460  0.6733  0.4119  0.5874
  703MOL0     C96897   5.774   0.722   4.528 -0.4155  0.7991  0.2253
  703MOL0     C96898   5.669   0.792   4.625 -0.3787  0.3367  0.3047
  703MOL0     C96899   5.725   0.929   4.665 -0.7932 -0.1286 -0.5321
  703MOL0     O96900   5.818   0.898   4.761 -0.0109  0.3059 -0.0577
  703MOL0     C96901   5.883   1.010   4.820 -0.3740 -0.0826 -1.3666
  703MOL0     C96902   5.859   1.142   4.800  0.7710  0.4552 -0.1067
  703MOL0     C96903   5.931   1.236   4.860 -0.0553 -0.6886  0.9525
  703MOL0     C96904   5.878   1.381   4.847 -0.3362 -0.2641 -0.1429
  703MOL0     C96905   6.048   1.199   4.938  0.4707 -0.3601 -0.1146
  703MOL0     C96906   6.131   1.286   5.018  0.6502 -0.3079 -1.1387
  703MOL0     O96907   6.193   1.247   5.129  0.0565 -0.4313 -0.9173
  703MOL0     C96908   6.283   1.316   5.202 -0.6736  0.3805 -0.5619
  703MOL0     C96909   6.293   1.318   5.338  1.5163 -0.9173 -1.2856
  703MOL0     C96910   6.397   1.383   5.409  0.2429 -0.1355  0.1963
  703MOL0     C96911   6.498   1.440   5.332 -0.3040  0.1080 -0.1437
  703MOL0     O96912   6.588   1.514   5.397 -1.0122 -0.2150  0.2476
  703MOL0     C96913   6.675   1.595   5.316  0.6353 -0.0636  0.9037
  703MOL0     C96914   6.762   1.696   5.398  0.6646  0.0948 -0.5451
  703MOL0     C96915   6.687   1.825   5.402  0.1441  0.4239  0.1100
  703MOL0     C96916   6.762   1.936   5.480 -0.5506  0.2176  0.5382
  703MOL0     C96917   6.790   1.896   5.633 -0.1794 -0.6360 -0.5258
  703MOL0     C96918   6.809   2.017   5.719  0.1301 -0.3964 -0.2675
  703MOL0     C96919   6.676   2.068   5.768  0.1959 -1.6741  0.1608
  703MOL0     C96920   6.693   2.163   5.884 -0.4094 -0.1556 -0.7956
  703MOL0    Cl96921   6.545   2.260   5.884  0.1815  0.0833 -0.1360
  703MOL0     C96922   6.499   1.426   5.195  0.6648  0.2021  0.4267
  703MOL0     C96923   6.400   1.361   5.134 -0.3312  0.2127  0.4036
  703MOL0     O96924   6.138   1.402   4.980 -0.4843 -0.1578 -0.0949
  703MOL0     C96925   6.069   1.060   4.965 -0.2618 -0.0886 -0.3466
  703MOL0     C96926   5.992   0.964   4.900  0.3890  0.2575  0.5804
  703MOL0     N96927   5.568   0.438   4.590  0.1180 -0.6024  1.1919
  703MOL0     N96928   5.556   0.365   4.701 -1.1797 -0.5967  0.6243
  703MOL0     C96929   6.137  -0.068   5.529 -0.6598  0.0480 -0.0925
  703MOL0     C96930   6.270  -0.112   5.565 -1.0690  0.4041 -0.1646
  703MOL0     C96931   6.723  -0.016   5.597  0.2038 -0.3243 -0.0915
  703MOL0     C96932   6.814   0.083   5.556 -0.2826 -0.8054  0.3429
  703MOL0     C96933   6.951   0.070   5.549  0.8046 -0.3535  0.0755
  703MOL0     C96934   7.008  -0.046   5.596 -0.1202  0.4828 -0.5778
  703MOL0     O96935   7.142  -0.077   5.594  0.7624 -0.4450  0.2169
  703MOL0     C96936   7.231   0.016   5.543 -0.3424  0.1905  0.5077
  703MOL0     C96937   7.381  -0.018   5.568  0.4431  0.9709  0.2381
  703MOL0     C96938   7.416  -0.027   5.711 -0.7391 -0.7376  0.3419
  703MOL0     C96939   7.555   0.042   5.734 -0.1811  0.8391 -0.1383
  703MOL0     C96940   7.579   0.048   5.881 -0.4150 -0.0249 -0.3766
  703MOL0     C96941   7.607   0.066   5.998 -0.3768  0.0161  0.4699
  703MOL0     C96942   6.923  -0.151   5.636 -0.4405 -0.5843 -0.0835
  703MOL0     C96943   6.782  -0.142   5.639 -0.0983 -0.2564  0.7946
  703MOL0     C96944   6.699  -0.258   5.694 -0.2142 -1.0774 -0.0596
  703MOL0     H96945   6.365   0.159   5.741  1.6359 -2.7955  1.9547
  703MOL0     H96946   6.149   0.241   5.672 -0.7202 -1.4753  4.2852
  703MOL0     H96947   5.928   0.264   5.598  0.4492 -0.0237  0.7164
  703MOL0     H96948   5.862   0.113   5.673 -2.0775  2.4165  0.2987
  703MOL0     H96949   5.712   0.110   5.479 -0.3320  0.3472  2.6312
  703MOL0     H96950   5.696   0.251   5.585  2.7823  2.4342  0.9119
  703MOL0     H96951   5.849   0.388   5.444 -0.8759 -1.4453  1.9408
  703MOL0     H96952   5.869   0.257   5.327  1.3061  0.7836  0.5639
  703MOL0     H96953   5.621   0.249   5.304  1.9131 -1.4941 -2.0263
  703MOL0     H96954   5.611   0.383   5.405  1.4168 -3.7785  3.9835
  703MOL0     H96955   5.757   0.532   5.258  2.2880  0.9925 -0.8147
  703MOL0     H96956   5.610   0.495   5.191  0.4794  1.6272  1.0435
  703MOL0     H96957   5.821   0.469   5.040 -0.8759 -1.2891 -3.8194
  703MOL0     H96958   5.837   0.309   5.110  0.4315  0.7174 -0.6796
  703MOL0     H96959   5.592   0.404   4.976  0.4042  0.8173 -0.9651
  703MOL0     H96960   5.628   0.241   5.046 -0.6557  1.2880  1.1307
  703MOL0     H96961   5.850   0.298   4.862 -0.3085 -0.1568 -1.2201
  703MOL0     H96962   5.714   0.189   4.844  0.9912 -0.9510  0.7340
  703MOL0     H96963   5.854   0.493   4.693  0.4219 -1.6862  0.5028
  703MOL0     H96964   5.638   0.606   4.403  2.9895 -1.3945 -4.0283
  703MOL0     H96965   5.807   0.555   4.392  3.2347  0.5911  3.1805
  703MOL0     H96966   5.866   0.707   4.585 -0.6230 -2.5924 -0.1267
  703MOL0     H96967   5.814   0.787   4.450  1.3609 -0.2653  0.2059
  703MOL0     H96968   5.575   0.812   4.573 -1.1357  0.9996  1.8533
  703MOL0     H96969   5.649   0.734   4.715 -4.4167  0.8866 -0.0293
  703MOL0     H96970   5.761   0.992   4.584 -2.9632 -2.5366 -3.6585
  703MOL0     H96971   5.638   0.984   4.704 -2.8437 -3.2369 -0.3586
  703MOL0     H96972   5.775   1.175   4.741 -1.0773  3.6963  3.8384
  703MOL0     H96973   5.901   1.426   4.750  0.6873  0.1775  0.2812
  703MOL0     H96974   5.916   1.438   4.933  0.2977  0.8847 -1.1595
  703MOL0     H96975   5.770   1.386   4.861 -0.3734 -0.8756 -0.1655
  703MOL0     H96976   6.211   1.280   5.399  1.9003 -2.6374 -1.8104
  703MOL0     H96977   6.411   1.388   5.516  0.6065 -1.9499  0.2643
  703MOL0     H96978   6.731   1.534   5.244 -0.6071  2.9501 -3.0053
  703MOL0     H96979   6.608   1.655   5.253  1.7368  0.6488  0.3761
  703MOL0     H96980   6.787   1.653   5.495 -1.7877  0.2571  0.2279
  703MOL0     H96981   6.856   1.718   5.345 -0.2509  3.6969 -0.9491
  703MOL0     H96982   6.589   1.803   5.444  0.1976 -1.7810 -0.7787
  703MOL0     H96983   6.657   1.850   5.299 -0.3630 -1.7659 -0.3141
  703MOL0     H96984   6.700   2.026   5.475  0.9522  1.2303 -1.0549
  703MOL0     H96985   6.858   1.943   5.427 -1.3936 -1.7636 -1.3886
  703MOL0     H96986   6.705   1.837   5.670  1.3387 -1.5596  1.7340
  703MOL0     H96987   6.881   1.835   5.639  0.5810  0.0153 -3.6964
  703MOL0     H96988   6.865   2.101   5.676  1.3888  0.4860  2.8557
  703MOL0     H96989   6.853   1.981   5.813 -1.6171 -1.3247  0.2282
  703MOL0     H96990   6.605   1.991   5.799 -1.0805  0.1304  1.9803
  703MOL0     H96991   6.624   2.132   5.696  0.5820  1.5835  2.5397
  703MOL0     H96992   6.780   2.225   5.862 -1.1056  1.9679  1.9902
  703MOL0     H96993   6.718   2.104   5.972  2.0583 -1.3272 -2.1594
  703MOL0     H96994   6.564   1.468   5.118 -2.6731 -2.1301 -4.1896
  703MOL0     H96995   6.423   1.350   5.029  6.7660 -1.4513  1.5958
  703MOL0     H96996   6.153   1.023   5.022  0.2735 -0.5298 -1.4007
  703MOL0     H96997   6.023   0.860   4.895  1.0264  0.5089 -2.9950
  703MOL0     H96998   6.077  -0.138   5.472 -2.2769  0.8027  0.6307
  703MOL0     H96999   6.305  -0.209   5.530 -1.7869 -0.2220  0.8138
  703MOL0     H97000   6.778   0.183   5.533 -5.8509 -2.2655  1.2984
  703MOL0     H97001   7.005   0.160   5.520 -0.3885  0.5740  0.6338
  703MOL0     H97002   7.211   0.028   5.436 -2.1693 -0.8908  0.6873
  703MOL0     H97003   7.193   0.106   5.592 -3.5379 -2.1709  2.8098
  703MOL0     H97004   7.446   0.054   5.518  1.5312 -1.7623 -2.6144
  703MOL0     H97005   7.397  -0.112   5.515  0.8117  0.7127  0.7884
  703MOL0     H97006   7.339   0.029   5.766  0.1639 -1.4923  2.4895
  703MOL0     H97007   7.415  -0.128   5.752 -3.4240 -0.2571  1.7131
  703MOL0     H97008   7.557   0.139   5.684 -0.2455  1.2957  0.7318
  703MOL0     H97009   7.635  -0.016   5.686  1.9048  0.9423  2.9393
  703MOL0     H97010   7.634   0.083   6.100 -1.1710  3.0767  0.2566
  703MOL0     H97011   6.965  -0.243   5.676  2.0734  0.7090  0.5180
  703MOL0     H97012   6.603  -0.261   5.641 -0.5813 -3.2369  0.6287
  703MOL0     H97013   6.750  -0.353   5.674  0.6605 -0.2998 -1.7306
  703MOL0     H97014   6.688  -0.243   5.802 -3.5508 -1.1078 -0.3053
  704MOL0     O97015   2.551   5.469   3.496  0.0886 -0.1544 -0.7792
  704MOL0     C97016   2.470   5.393   3.445 -0.1605  0.2104  0.6629
  704MOL0     O97017   2.372   5.321   3.512 -0.2026 -0.2778  0.6141
  704MOL0     C97018   2.349   5.352   3.650 -0.5953 -1.0176 -0.4639
  704MOL0     C97019   2.346   5.248   3.738  0.5014 -0.3667  0.7885
  704MOL0     C97020   2.307   5.270   3.870 -0.0221  0.5099 -0.3179
  704MOL0     C97021   2.268   5.395   3.910 -0.3013 -0.4903 -0.1945
  704MOL0     O97022   2.218   5.410   4.035  1.0381 -0.0223  0.2336
  704MOL0     C97023   2.205   5.539   4.095  0.3176 -0.0789 -0.3848
  704MOL0     C97024   2.150   5.523   4.240  0.0684  0.3738 -0.8347
  704MOL0     C97025   2.262   5.530   4.350  0.1932  0.2796 -0.0000
  704MOL0     C97026   2.304   5.675   4.372  0.7028 -1.0100  0.5500
  704MOL0     C97027   2.195   5.782   4.382 -0.3764 -0.2226 -0.3143
  704MOL0     C97028   2.112   5.762   4.510 -0.3344  0.2370 -0.4152
  704MOL0     C97029   2.009   5.879   4.532  0.6702 -0.5801  0.4101
  704MOL0     C97030   1.957   5.873   4.678  0.1030  0.3775  0.5059
  704MOL0     N97031   1.885   5.997   4.725 -0.2896  0.3365  0.4163
  704MOL0     C97032   1.848   6.107   4.660 -0.7380  0.0293 -0.4454
  704MOL0     C97033   1.776   6.185   4.746 -0.2166  0.3174 -0.7932
  704MOL0     C97034   1.706   6.310   4.722 -0.7935  0.4650  0.1425
  704MOL0     C97035   1.666   6.339   4.584 -0.2206 -1.2146 -0.1675
  704MOL0     C97036   1.554   6.452   4.605 -0.3549 -0.0903 -0.2183
  704MOL0     C97037   1.500   6.510   4.476  0.9202  0.1546 -1.7269
  704MOL0     O97038   1.596   6.574   4.388 -0.2389 -0.1037 -0.0190
  704MOL0     C97039   1.549   6.602   4.263 -0.0056 -0.4273 -0.2081
  704MOL0     C97040   1.421   6.639   4.231 -0.1347  0.6077 -0.2346
  704MOL0     C97041   1.394   6.680   4.098 -0.0794  0.1831 -0.5769
  704MOL0     C97042   1.249   6.716   4.073 -0.9029 -1.1132 -0.3540
  704MOL0     C97043   1.506   6.687   4.000 -0.1946 -0.3024 -0.1285
  704MOL0     C97044   1.482   6.721   3.858 -1.5087 -1.0623 -0.0620
  704MOL0     O97045   1.601   6.723   3.780 -0.4550  0.1077 -0.1594
  704MOL0     C97046   1.621   6.804   3.666  0.4723  0.0846 -0.2326
  704MOL0     C97047   1.746   6.797   3.612 -0.9864 -0.6365 -0.3348
  704MOL0     C97048   1.777   6.842   3.481  0.2594  0.0353  0.0689
  704MOL0     C97049   1.678   6.918   3.416  0.3527 -0.6538  0.5499
  704MOL0     O97050   1.719   6.958   3.291  0.0083 -0.8824  0.7831
  704MOL0     C97051   1.667   7.075   3.235  0.3281  0.2951  0.1977
  704MOL0     C97052   1.731   7.078   3.091 -0.8945  0.3355  0.3201
  704MOL0     C97053   1.658   7.006   2.983  0.5504  0.1206  1.0824
  704MOL0     C97054   1.725   7.010   2.845  0.7065 -0.7336  0.3141
  704MOL0     C97055   1.813   6.894   2.813  0.8231 -0.1560  0.4441
  704MOL0     C97056   1.722   6.766   2.764 -0.5602  0.5433 -0.6936
  704MOL0     C97057   1.814   6.650   2.754 -0.5397  0.5185  0.8804
  704MOL0     C97058   1.777   6.566   2.634 -0.8298  0.1289 -0.4701
  704MOL0    Cl97059   1.614   6.515   2.647  0.1073  0.4232  0.8950
  704MOL0     C97060   1.556   6.945   3.479 -0.5125  0.2789  0.2264
  704MOL0     C97061   1.529   6.889   3.603  0.1744 -0.1635 -0.0567
  704MOL0     O97062   1.377   6.773   3.825  0.2403 -0.1977  0.4529
  704MOL0     C97063   1.632   6.665   4.047 -0.8593  0.0796  0.0773
  704MOL0     C97064   1.653   6.619   4.176 -0.7744 -0.8821 -0.5492
  704MOL0     N97065   1.756   6.117   4.866 -0.3306  0.3006  0.5197
  704MOL0     N97066   1.826   6.013   4.848 -0.1407  0.1461  0.7492
  704MOL0     C97067   2.284   5.507   3.825  0.9927 -0.0665 -0.1713
  704MOL0     C97068   2.320   5.488   3.690  0.1107 -0.1916 -0.4837
  704MOL0     C97069   2.480   5.370   3.302 -0.6909  0.1365  0.5863
  704MOL0     C97070   2.484   5.472   3.203 -0.1929  0.7209 -1.5164
  704MOL0     C97071   2.501   5.444   3.068  0.2572 -1.1114  0.1149
  704MOL0     C97072   2.522   5.317   3.011  0.0625  0.5284 -0.8239
  704MOL0     O97073   2.561   5.298   2.876 -0.0127 -0.7231  0.3736
  704MOL0     C97074   2.549   5.173   2.804  0.4228  0.7746 -0.7707
  704MOL0     C97075   2.685   5.118   2.746  0.1845  0.7814 -0.2213
  704MOL0     C97076   2.679   4.968   2.717  1.8382 -0.4017  0.3664
  704MOL0     C97077   2.654   4.881   2.843  0.3466 -0.0457  0.1248
  704MOL0     C97078   2.780   4.808   2.870  0.4127 -0.4990 -0.1782
  704MOL0     C97079   2.870   4.733   2.887 -0.8681  0.2928  0.7533
  704MOL0     C97080   2.515   5.211   3.104 -0.0593  0.2771  0.3202
  704MOL0     C97081   2.496   5.232   3.241  0.4869 -0.5636 -0.5386
  704MOL0     C97082   2.494   5.108   3.320 -0.6373  0.5585 -0.5385
  704MOL0     H97083   2.359   5.146   3.703 -0.1627 -0.4440  0.7604
  704MOL0     H97084   2.318   5.177   3.925  0.4124 -0.2463 -1.6384
  704MOL0     H97085   2.143   5.611   4.042 -0.4494 -0.5441 -0.1493
  704MOL0     H97086   2.306   5.581   4.093 -0.1257  1.2016 -4.1460
  704MOL0     H97087   2.069   5.593   4.261  1.4428  1.7049  0.2618
  704MOL0     H97088   2.108   5.423   4.248  2.6810 -0.7179 -0.0126
  704MOL0     H97089   2.228   5.484   4.443  1.8196 -1.5625 -0.2357
  704MOL0     H97090   2.344   5.471   4.307  0.8666  0.8473  0.4768
  704MOL0     H97091   2.351   5.666   4.471  1.6376 -0.8552  0.1251
  704MOL0     H97092   2.387   5.711   4.310  0.2208  0.1946  0.5647
  704MOL0     H97093   2.118   5.782   4.304 -1.2127  1.3678  0.4530
  704MOL0     H97094   2.241   5.881   4.392  0.2859 -0.6913  1.6226
  704MOL0     H97095   2.052   5.672   4.491  0.1597  0.2896 -2.4265
  704MOL0     H97096   2.173   5.750   4.600  0.0602  1.7716 -0.4468
  704MOL0     H97097   1.924   5.876   4.465  0.0851  0.1980  1.0937
  704MOL0     H97098   2.060   5.973   4.509  1.2150 -0.7908  0.7345
  704MOL0     H97099   1.889   5.787   4.678 -0.2168  0.6143 -0.2725
  704MOL0     H97100   2.043   5.863   4.745 -1.3328  1.6319  2.6517
  704MOL0     H97101   1.880   6.130   4.559 -0.5448  0.8428 -0.2012
  704MOL0     H97102   1.782   6.381   4.757  1.4891 -0.9272 -1.6796
  704MOL0     H97103   1.621   6.310   4.791 -0.4494 -1.1532  0.6113
  704MOL0     H97104   1.753   6.378   4.531  1.1825 -1.3403  1.9085
  704MOL0     H97105   1.629   6.252   4.529 -0.7323  1.0693 -3.7257
  704MOL0     H97106   1.469   6.423   4.667 -1.5113  1.2090 -1.1312
  704MOL0     H97107   1.601   6.541   4.647  1.2006 -0.2729 -1.4838
  704MOL0     H97108   1.460   6.426   4.418  2.6346 -3.0388  1.3506
  704MOL0     H97109   1.416   6.571   4.510  1.5850 -0.0348  0.4276
  704MOL0     H97110   1.348   6.621   4.309  0.3488 -2.6367 -0.3892
  704MOL0     H97111   1.194   6.695   4.165  0.6354  2.5611  1.6120
  704MOL0     H97112   1.214   6.664   3.983  4.1761 -0.6140 -3.0152
  704MOL0     H97113   1.230   6.819   4.042 -1.4388 -1.6199 -1.8019
  704MOL0     H97114   1.821   6.743   3.668 -1.5803  1.1253  2.3131
  704MOL0     H97115   1.881   6.831   3.455  0.9557  0.7844  2.2702
  704MOL0     H97116   1.558   7.066   3.227  0.3011  0.8503 -0.1179
  704MOL0     H97117   1.680   7.165   3.296  0.0141  1.5144 -1.4762
  704MOL0     H97118   1.725   7.182   3.057 -2.0981 -0.3161 -1.6591
  704MOL0     H97119   1.833   7.037   3.088 -1.1905 -0.3589 -1.0674
  704MOL0     H97120   1.565   7.062   2.966  0.6377 -0.6947 -3.2079
  704MOL0     H97121   1.631   6.903   3.008  0.2527 -0.9324 -2.9306
  704MOL0     H97122   1.778   7.106   2.840  0.0297  0.0165  4.2723
  704MOL0     H97123   1.644   7.016   2.773 -0.7013 -3.1832  1.5669
  704MOL0     H97124   1.878   6.925   2.731  3.6954 -3.3259  1.3104
  704MOL0     H97125   1.875   6.863   2.897 -1.6247 -0.1713  2.3487
  704MOL0     H97126   1.667   6.789   2.672  1.7979 -1.0019 -2.6113
  704MOL0     H97127   1.655   6.749   2.849  0.4525 -0.8969 -0.1358
  704MOL0     H97128   1.818   6.578   2.836 -3.4045 -2.8382 -1.5936
  704MOL0     H97129   1.915   6.688   2.736 -0.4405  0.5118  1.4117
  704MOL0     H97130   1.846   6.481   2.625 -0.1653  0.6857 -0.6769
  704MOL0     H97131   1.790   6.621   2.541  1.8810  3.0204  1.4214
  704MOL0     H97132   1.481   6.989   3.414  1.0555 -2.4334 -3.7187
  704MOL0     H97133   1.433   6.908   3.650  0.4886 -1.9039  1.4293
  704MOL0     H97134   1.720   6.678   3.985 -1.3803 -1.0166 -0.9345
  704MOL0     H97135   1.756   6.622   4.210 -0.2508 -0.3953 -2.1074
  704MOL0     H97136   2.250   5.603   3.863 -2.0607 -1.3105  0.5432
  704MOL0     H97137   2.326   5.573   3.625 -4.3372 -1.1685 -2.5815
  704MOL0     H97138   2.472   5.578   3.225 -2.8228  0.1141  0.5882
  704MOL0     H97139   2.511   5.524   2.996 -1.5793 -2.4066 -1.6784
  704MOL0     H97140   2.489   5.106   2.866 -0.1930  1.5215 -0.5327
  704MOL0     H97141   2.474   5.188   2.726  1.4095 -0.3554 -1.9757
  704MOL0     H97142   2.772   5.137   2.809 -0.3283 -1.1545  1.1631
  704MOL0     H97143   2.700   5.166   2.649 -1.0720 -1.0711 -1.4038
  704MOL0     H97144   2.592   4.952   2.652  1.1405  1.1670  0.8613
  704MOL0     H97145   2.766   4.929   2.665  0.8728 -2.5259  0.2461
  704MOL0     H97146   2.572   4.813   2.818 -2.4602  3.2396 -0.2859
  704MOL0     H97147   2.612   4.941   2.924 -1.3562  0.8349 -1.3532
  704MOL0     H97148   2.964   4.684   2.897 -0.9167 -0.4497 -1.7904
  704MOL0     H97149   2.525   5.112   3.061 -1.0484  0.8134 -1.2019
  704MOL0     H97150   2.525   5.138   3.421 -0.7156 -2.0411  0.3399
  704MOL0     H97151   2.399   5.054   3.322  0.2339 -1.0406  0.6118
  704MOL0     H97152   2.566   5.042   3.270 -3.3309 -1.6865 -1.7103
  705MOL0     O97153   3.928   0.560   9.613 -0.3244 -0.0941 -0.0103
  705MOL0     C97154   3.995   0.621   9.534 -0.2071 -0.0428 -0.3469
  705MOL0     O97155   4.120   0.665   9.561 -0.2795 -0.0698 -0.1482
  705MOL0     C97156   4.170   0.676   9.689 -0.9760 -0.3119  0.0735
  705MOL0     C97157   4.102   0.761   9.785 -0.4812  0.1420 -0.4176
  705MOL0     C97158   4.142   0.766   9.922  0.5206 -0.8468 -0.0269
  705MOL0     C97159   4.261   0.704   9.964  0.8944  0.8921 -0.1676
  705MOL0     O97160   4.301   0.721  10.099 -0.5429  0.8634  0.8633
  705MOL0     C97161   4.443   0.734  10.129  0.1637  0.0338  0.4900
  705MOL0     C97162   4.504   0.630  10.211  0.1949  0.8524 -0.3740
  705MOL0     C97163   4.659   0.632  10.230 -0.0900  0.1223 -0.4395
  705MOL0     C97164   4.719   0.533  10.335  0.3689 -1.0535 -0.3317
  705MOL0     C97165   4.854   0.571  10.394 -0.2356 -0.3629  0.3893
  705MOL0     C97166   4.966   0.581  10.297  0.4105  0.1030  0.5195
  705MOL0     C97167   5.111   0.571  10.357  0.2190 -0.3744  0.3733
  705MOL0     C97168   5.217   0.591  10.257  0.0137 -0.0342 -0.1041
  705MOL0     N97169   5.207   0.537  10.113 -0.1071 -0.5182 -0.0642
  705MOL0     C97170   5.181   0.408  10.088 -0.3687  0.2762 -0.5631
  705MOL0     C97171   5.238   0.375   9.976 -0.3600  0.7813  1.0130
  705MOL0     C97172   5.222   0.250   9.893 -0.6452  0.7083 -1.1444
  705MOL0     C97173   5.116   0.256   9.782  0.3591 -0.7319 -0.0953
  705MOL0     C97174   5.156   0.291   9.637 -0.3998 -0.3943 -0.2624
  705MOL0     C97175   5.270   0.396   9.644  0.6550 -0.2461 -1.0960
  705MOL0     O97176   5.307   0.402   9.510 -0.1067 -0.4501 -1.0402
  705MOL0     C97177   5.286   0.528   9.460 -0.5974  0.4013  0.7672
  705MOL0     C97178   5.163   0.577   9.436 -0.4456 -0.0700  0.9261
  705MOL0     C97179   5.147   0.710   9.389 -0.1314 -0.0122  0.3001
  705MOL0     C97180   5.004   0.778   9.405 -0.8852 -0.1624 -0.1225
  705MOL0     C97181   5.267   0.791   9.342 -1.4389  0.0239 -0.5337
  705MOL0     C97182   5.255   0.922   9.271  0.9916  1.0928  0.7125
  705MOL0     O97183   5.374   0.978   9.244  0.3292  0.1883  0.1011
  705MOL0     C97184   5.388   1.096   9.185 -0.6334 -0.5183  0.5566
  705MOL0     C97185   5.508   1.103   9.115 -0.5438  0.3532 -0.0071
  705MOL0     C97186   5.543   1.227   9.054 -1.5601 -0.3562 -0.4758
  705MOL0     C97187   5.468   1.340   9.065 -0.3011 -0.6847 -0.0735
  705MOL0     O97188   5.503   1.470   9.025 -0.1119 -0.3455  0.0970
  705MOL0     C97189   5.639   1.512   9.011  0.0196 -1.1154  0.0406
  705MOL0     C97190   5.702   1.487   8.878  0.3207  1.2365  0.4423
  705MOL0     C97191   5.815   1.577   8.852  0.1116 -0.1394  0.5431
  705MOL0     C97192   5.869   1.571   8.709  0.3779 -0.4591 -0.5215
  705MOL0     C97193   6.016   1.598   8.675 -0.8364  0.0610  0.1096
  705MOL0     C97194   6.077   1.736   8.709 -0.2702 -0.0280 -0.0111
  705MOL0     C97195   6.215   1.728   8.779 -0.5314 -0.0327 -0.5292
  705MOL0     C97196   6.328   1.755   8.683  0.0203  0.3599 -1.2761
  705MOL0    Cl97197   6.493   1.742   8.750  0.2415 -0.2643 -0.1084
  705MOL0     C97198   5.342   1.326   9.130 -0.6589 -0.2477  0.0638
  705MOL0     C97199   5.302   1.210   9.187  1.1290  0.0495  0.4471
  705MOL0     O97200   5.142   0.954   9.228 -0.4832 -0.0164  0.1741
  705MOL0     C97201   5.394   0.733   9.367 -0.3677 -0.4249 -0.3600
  705MOL0     C97202   5.397   0.609   9.429  0.0325  0.4279  0.5250
  705MOL0     N97203   5.316   0.479   9.931  0.0902  0.2399  0.4664
  705MOL0     N97204   5.302   0.574  10.019  0.6350 -0.5781 -0.3416
  705MOL0     C97205   4.329   0.625   9.866  0.3790 -0.6156 -0.2058
  705MOL0     C97206   4.284   0.610   9.735  0.0673  0.4584 -0.2515
  705MOL0     C97207   3.940   0.633   9.400 -0.5809  0.3271  0.7139
  705MOL0     C97208   4.023   0.619   9.288 -0.0402 -0.2380 -0.5953
  705MOL0     C97209   3.986   0.637   9.160 -0.8596 -0.4416 -0.6617
  705MOL0     C97210   3.858   0.686   9.131  0.2905 -0.4800 -0.4953
  705MOL0     O97211   3.827   0.717   8.999  0.9345 -0.3442 -0.4886
  705MOL0     C97212   3.797   0.853   8.971 -0.0410  0.2300 -0.1438
  705MOL0     C97213   3.830   0.884   8.822  0.9185  0.3542  0.5821
  705MOL0     C97214   3.797   1.031   8.785  0.1641  0.1937 -0.8277
  705MOL0     C97215   3.805   1.063   8.634  0.4575  0.7362  0.8157
  705MOL0     C97216   3.676   1.031   8.578  0.4212  0.5687 -0.3756
  705MOL0     C97217   3.574   0.993   8.521  0.5375 -0.0361 -0.6421
  705MOL0     C97218   3.767   0.688   9.238  0.4136 -0.5534 -0.1414
  705MOL0     C97219   3.802   0.664   9.373 -0.4630  1.0345 -0.5260
  705MOL0     C97220   3.696   0.680   9.478  0.9406  1.0442 -0.4565
  705MOL0     H97221   4.016   0.821   9.755  0.3954  0.8934 -1.5198
  705MOL0     H97222   4.094   0.833   9.992  0.2024 -3.9739  2.9917
  705MOL0     H97223   4.449   0.830  10.181  2.0174 -0.3419  1.0468
  705MOL0     H97224   4.506   0.762  10.044  0.6188  0.4846  0.9631
  705MOL0     H97225   4.443   0.624  10.302  1.1810 -0.1149  0.2565
  705MOL0     H97226   4.483   0.535  10.161 -1.3192  0.4340  0.9625
  705MOL0     H97227   4.707   0.623  10.132  1.4759  0.8637  0.2253
  705MOL0     H97228   4.686   0.734  10.259 -3.3795  1.6916 -2.3233
  705MOL0     H97229   4.651   0.533  10.421  2.7339  0.5438  1.6923
  705MOL0     H97230   4.726   0.431  10.297  0.3317 -0.8352 -0.9439
  705MOL0     H97231   4.881   0.494  10.467 -1.7669 -1.5947 -0.2886
  705MOL0     H97232   4.834   0.667  10.441 -1.4645  0.5455 -1.8380
  705MOL0     H97233   4.950   0.497  10.228 -0.9013 -0.0777  1.0204
  705MOL0     H97234   4.953   0.670  10.235  0.7495 -0.2873 -0.1351
  705MOL0     H97235   5.126   0.471  10.400  1.6118 -2.3135 -4.0075
  705MOL0     H97236   5.123   0.642  10.439  1.1822 -1.6899  1.4298
  705MOL0     H97237   5.221   0.699  10.242  1.5689 -0.0582  0.0206
  705MOL0     H97238   5.316   0.556  10.288  0.9689  1.6024 -1.1242
  705MOL0     H97239   5.114   0.351  10.151  0.2526 -0.9350 -0.9452
  705MOL0     H97240   5.184   0.177   9.964  1.7199 -3.0611 -3.4153
  705MOL0     H97241   5.315   0.203   9.860 -1.1584 -0.9360 -0.3463
  705MOL0     H97242   5.057   0.164   9.788 -1.3283  0.3641  1.0690
  705MOL0     H97243   5.047   0.337   9.809  0.3758 -0.7109 -0.1156
  705MOL0     H97244   5.200   0.205   9.586  1.1548 -0.6253  1.3537
  705MOL0     H97245   5.070   0.337   9.588  0.8479  1.7124 -0.5964
  705MOL0     H97246   5.241   0.493   9.686  3.7272  0.2480  0.1432
  705MOL0     H97247   5.358   0.368   9.703 -0.9343  0.6854  1.9237
  705MOL0     H97248   5.073   0.525   9.468 -0.6925  0.1545  0.5926
  705MOL0     H97249   4.937   0.707   9.453 -3.2109  0.6682 -1.9674
  705MOL0     H97250   4.963   0.808   9.309 -4.7292  1.2413  1.7428
  705MOL0     H97251   4.999   0.869   9.466 -1.5661 -0.9779  1.0680
  705MOL0     H97252   5.561   1.010   9.100 -0.9818 -0.4940  3.1276
  705MOL0     H97253   5.626   1.228   8.984 -2.8118  2.0748 -2.0734
  705MOL0     H97254   5.641   1.618   9.038  0.9847 -0.6252 -1.8304
  705MOL0     H97255   5.705   1.459   9.081  0.7189 -0.7454 -0.3303
  705MOL0     H97256   5.714   1.378   8.870  0.4783  0.4619  6.4816
  705MOL0     H97257   5.627   1.516   8.805  0.1131 -1.2125 -0.4183
  705MOL0     H97258   5.898   1.571   8.924  1.0396  0.0167 -0.4901
  705MOL0     H97259   5.774   1.678   8.865 -2.7904 -1.0421 -0.8435
  705MOL0     H97260   5.809   1.645   8.655  2.5006  0.4232 -1.8071
  705MOL0     H97261   5.839   1.473   8.671 -0.4424  0.3545 -2.0679
  705MOL0     H97262   6.083   1.523   8.716  0.2858  2.0940  2.2065
  705MOL0     H97263   6.017   1.580   8.567  0.7392 -3.2390  0.5423
  705MOL0     H97264   6.015   1.801   8.771  1.7623  0.5212  1.5804
  705MOL0     H97265   6.087   1.788   8.614  1.8729  2.6244  1.5044
  705MOL0     H97266   6.239   1.637   8.836 -0.7501  0.5821  0.5706
  705MOL0     H97267   6.225   1.804   8.857  3.2728 -2.6104  1.8093
  705MOL0     H97268   6.320   1.859   8.648  0.2750  1.0617  0.6308
  705MOL0     H97269   6.312   1.686   8.600 -4.2902 -0.7238  0.1991
  705MOL0     H97270   5.278   1.413   9.123  0.6573  0.6801 -1.1190
  705MOL0     H97271   5.203   1.210   9.232  0.3879  1.6994 -1.1129
  705MOL0     H97272   5.483   0.788   9.340 -0.5114 -0.4448 -0.8869
  705MOL0     H97273   5.492   0.562   9.454  0.8255  0.3086 -2.3646
  705MOL0     H97274   4.418   0.574   9.903 -0.1578  0.8572  3.5242
  705MOL0     H97275   4.332   0.529   9.681 -2.1348 -1.9418  1.1918
  705MOL0     H97276   4.125   0.599   9.320 -0.7166  1.0874  2.9323
  705MOL0     H97277   4.062   0.615   9.085  0.3515  2.7602 -0.5569
  705MOL0     H97278   3.694   0.879   8.996 -1.1910 -2.8029 -1.1748
  705MOL0     H97279   3.859   0.922   9.029 -1.6186  1.9300 -0.4216
  705MOL0     H97280   3.758   0.826   8.763  2.0043 -0.4899  0.0359
  705MOL0     H97281   3.931   0.849   8.800  1.1496 -0.3712  2.5425
  705MOL0     H97282   3.704   1.056   8.837  1.5843 -0.7978  2.4247
  705MOL0     H97283   3.872   1.096   8.830  1.8577  0.1987 -3.4578
  705MOL0     H97284   3.873   0.990   8.590 -1.1261  0.6138 -1.6343
  705MOL0     H97285   3.847   1.160   8.606  1.9867  0.7523  2.8929
  705MOL0     H97286   3.487   0.951   8.475 -0.3592  0.8489  0.1716
  705MOL0     H97287   3.668   0.719   9.206 -0.1657 -0.2597  1.7797
  705MOL0     H97288   3.733   0.751   9.552  3.3314  1.7633 -2.1774
  705MOL0     H97289   3.604   0.719   9.436 -0.1121 -1.1933 -0.3693
  705MOL0     H97290   3.676   0.583   9.525 -2.5988  1.2518 -1.2991
  706MOL0     O97291   4.116   3.753   7.471 -0.0232  0.4978 -0.0561
  706MOL0     C97292   4.038   3.694   7.400 -0.2063 -0.3791  0.3690
  706MOL0     O97293   4.060   3.676   7.262  0.0159  0.5442  0.4846
  706MOL0     C97294   4.170   3.733   7.200  0.0827  0.0113  0.0081
  706MOL0     C97295   4.148   3.855   7.141 -0.6998  0.1680 -0.5197
  706MOL0     C97296   4.260   3.929   7.094  0.9920  0.1136 -0.5488
  706MOL0     C97297   4.386   3.875   7.093 -0.4484  0.8117  0.9224
  706MOL0     O97298   4.493   3.949   7.042  0.7177 -0.2800  0.3689
  706MOL0     C97299   4.613   3.876   7.027 -0.3222 -0.0561 -0.5585
  706MOL0     C97300   4.707   3.967   6.955  0.1169 -0.6662  1.1771
  706MOL0     C97301   4.847   3.910   6.933 -0.5871 -0.5730 -0.8123
  706MOL0     C97302   4.865   3.807   6.819  0.1371 -0.6763 -0.0605
  706MOL0     C97303   4.983   3.720   6.856 -0.4941  0.1236 -0.3968
  706MOL0     C97304   5.051   3.649   6.730  0.4092  0.2995 -0.4472
  706MOL0     C97305   5.113   3.736   6.616  0.3959 -0.4026 -0.3383
  706MOL0     C97306   5.136   3.652   6.495 -0.0097 -0.4086  0.0522
  706MOL0     N97307   5.189   3.737   6.394  0.3447 -0.4582  0.4067
  706MOL0     C97308   5.113   3.791   6.289 -0.4422  0.0809 -0.7466
  706MOL0     C97309   5.214   3.831   6.206 -0.6737 -0.0923 -0.2509
  706MOL0     C97310   5.214   3.915   6.077 -0.6389 -0.4227 -0.9551
  706MOL0     C97311   5.184   4.064   6.125  0.1622  0.4055 -0.3109
  706MOL0     C97312   5.274   4.169   6.051  0.1818 -1.0402 -0.6904
  706MOL0     C97313   5.226   4.307   6.092  0.0296  0.1516  0.2040
  706MOL0     O97314   5.293   4.402   6.017  0.7391  0.6631 -0.0236
  706MOL0     C97315   5.276   4.531   6.055 -1.3388  0.1994  0.1637
  706MOL0     C97316   5.189   4.584   6.153 -0.6161 -0.2957  0.0307
  706MOL0     C97317   5.198   4.718   6.188 -1.0367  0.5204 -0.5206
  706MOL0     C97318   5.119   4.752   6.308  0.4906  1.5019 -1.6157
  706MOL0     C97319   5.281   4.806   6.113  0.1825 -0.3500  0.3603
  706MOL0     C97320   5.276   4.960   6.130 -0.8134  0.4192  0.5760
  706MOL0     O97321   5.379   5.022   6.056 -0.0067 -0.6176  0.3226
  706MOL0     C97322   5.412   5.148   6.085 -0.2560 -0.2300  0.1739
  706MOL0     C97323   5.380   5.224   6.192 -0.4066 -0.4035  0.1172
  706MOL0     C97324   5.433   5.345   6.219  0.7015 -0.3338  0.1616
  706MOL0     C97325   5.524   5.397   6.121 -0.2366 -0.4883  0.7105
  706MOL0     O97326   5.576   5.524   6.139  0.3905  0.1885 -1.4850
  706MOL0     C97327   5.712   5.522   6.209  0.6730 -0.4065  0.1523
  706MOL0     C97328   5.830   5.492   6.121 -0.8622  0.5487 -0.0434
  706MOL0     C97329   5.966   5.547   6.176  0.0534 -0.8337  0.3097
  706MOL0     C97330   5.997   5.507   6.322 -0.2876  0.2873 -0.7636
  706MOL0     C97331   6.147   5.548   6.352  0.3415  0.2513  0.6304
  706MOL0     C97332   6.156   5.702   6.362 -0.1803 -0.1083  0.3506
  706MOL0     C97333   6.306   5.747   6.385  0.1536  0.4282  0.1493
  706MOL0     C97334   6.384   5.736   6.253 -0.2708  0.5872  0.3196
  706MOL0    Cl97335   6.295   5.828   6.119 -0.4263  0.1075 -0.9314
  706MOL0     C97336   5.562   5.329   6.007 -0.7135  0.9104  0.0073
  706MOL0     C97337   5.511   5.198   5.996 -0.1619 -0.0742 -0.8387
  706MOL0     O97338   5.199   5.012   6.216  0.0578  1.1262  0.7118
  706MOL0     C97339   5.367   4.754   6.018 -0.9656 -0.7665  0.8408
  706MOL0     C97340   5.361   4.620   5.989 -0.1378 -0.6402 -1.3063
  706MOL0     N97341   5.338   3.778   6.245 -0.4404  0.9809  0.3186
  706MOL0     N97342   5.322   3.722   6.360 -0.8153 -0.7707 -0.4455
  706MOL0     C97343   4.400   3.742   7.138 -0.0977 -0.1815  0.9728
  706MOL0     C97344   4.289   3.671   7.193 -0.5802  0.4140  0.1646
  706MOL0     C97345   3.908   3.631   7.458 -0.6035  0.0852  0.5450
  706MOL0     C97346   3.832   3.547   7.377  0.4200  0.4070  0.1210
  706MOL0     C97347   3.701   3.504   7.422 -0.5037  0.4405  0.4834
  706MOL0     C97348   3.651   3.521   7.549  0.0527  1.0150  0.2125
  706MOL0     O97349   3.509   3.491   7.561 -1.1358  0.3070  0.6610
  706MOL0     C97350   3.452   3.463   7.687  0.2188 -0.0545  0.9604
  706MOL0     C97351   3.529   3.366   7.766 -0.6630  0.8017  0.8716
  706MOL0     C97352   3.466   3.313   7.894  0.2043  0.2591  0.0133
  706MOL0     C97353   3.554   3.191   7.946  0.2042  0.0109 -0.1527
  706MOL0     C97354   3.499   3.073   7.879  1.0270 -0.5173 -0.8770
  706MOL0     C97355   3.443   2.985   7.817  0.0661 -0.2873 -0.2899
  706MOL0     C97356   3.736   3.584   7.634 -0.4723  0.0406 -0.3370
  706MOL0     C97357   3.856   3.643   7.590 -0.4068 -0.1686 -0.4026
  706MOL0     C97358   3.953   3.703   7.688 -0.4347  0.5733 -1.3219
  706MOL0     H97359   4.055   3.912   7.138  0.1261  1.5251 -2.5874
  706MOL0     H97360   4.238   4.026   7.051  2.2361 -0.1891 -1.9547
  706MOL0     H97361   4.597   3.785   6.969 -6.3610  0.3752 -0.1816
  706MOL0     H97362   4.655   3.841   7.122 -0.6261  0.2827 -0.2969
  706MOL0     H97363   4.667   3.982   6.855 -4.6795 -0.8313  2.7968
  706MOL0     H97364   4.706   4.056   7.019  2.6266 -2.3659  3.8675
  706MOL0     H97365   4.913   3.998   6.931  0.4351 -1.2337  1.1756
  706MOL0     H97366   4.875   3.858   7.025  0.2323  0.2363 -0.5855
  706MOL0     H97367   4.770   3.757   6.797 -0.3472  0.4002 -0.4759
  706MOL0     H97368   4.886   3.856   6.724 -1.5198 -0.4255 -0.3257
  706MOL0     H97369   4.944   3.647   6.927 -3.4828 -0.5753 -2.5480
  706MOL0     H97370   5.060   3.777   6.907 -0.9006  0.6376 -0.3455
  706MOL0     H97371   5.139   3.589   6.754  1.2208  0.9298 -1.7503
  706MOL0     H97372   4.976   3.576   6.695 -0.2762  1.3979 -1.3292
  706MOL0     H97373   5.206   3.784   6.647 -0.8811  2.5545 -0.7064
  706MOL0     H97374   5.046   3.822   6.610  1.9537  0.9299  0.7293
  706MOL0     H97375   5.216   3.580   6.513  1.0443  1.0804  1.6910
  706MOL0     H97376   5.050   3.604   6.448 -0.0061 -0.3698  0.0059
  706MOL0     H97377   5.005   3.804   6.283 -1.1604 -2.4448  3.1581
  706MOL0     H97378   5.128   3.900   6.011 -1.2339 -1.6129  0.0431
  706MOL0     H97379   5.306   3.902   6.019 -1.7225  0.6816 -3.0324
  706MOL0     H97380   5.078   4.087   6.119 -0.4828 -2.2396 -0.0415
  706MOL0     H97381   5.199   4.078   6.233  0.0596  0.4156 -0.2979
  706MOL0     H97382   5.377   4.147   6.080 -0.2482 -1.0269  0.9235
  706MOL0     H97383   5.256   4.160   5.943  1.0572 -1.6160 -0.7949
  706MOL0     H97384   5.119   4.305   6.066  0.5931  1.4076 -2.5129
  706MOL0     H97385   5.254   4.315   6.198  2.8822  0.0220 -0.4602
  706MOL0     H97386   5.128   4.526   6.222 -1.0183 -0.7465 -0.6953
  706MOL0     H97387   5.183   4.814   6.371  1.0031 -0.1706 -0.4311
  706MOL0     H97388   5.076   4.672   6.369 -0.4913  4.7365  2.4943
  706MOL0     H97389   5.031   4.804   6.269 -0.6267  1.4339  0.6113
  706MOL0     H97390   5.312   5.180   6.264 -2.5575 -1.6613 -2.5047
  706MOL0     H97391   5.405   5.398   6.309  0.3443 -0.8537  0.3621
  706MOL0     H97392   5.711   5.620   6.257 -4.4263  0.1193 -0.4527
  706MOL0     H97393   5.719   5.442   6.284  1.7021  0.6440  1.2252
  706MOL0     H97394   5.854   5.388   6.101  2.5476  1.1764  0.1933
  706MOL0     H97395   5.814   5.536   6.022  1.5493  1.2778 -0.1704
  706MOL0     H97396   5.951   5.655   6.174  1.6194 -0.5471  1.6195
  706MOL0     H97397   6.052   5.529   6.110 -0.6684  0.2487 -0.9674
  706MOL0     H97398   5.985   5.399   6.333 -4.6534  0.8567  3.4983
  706MOL0     H97399   5.927   5.553   6.393  1.4034  0.9403  0.5486
  706MOL0     H97400   6.179   5.512   6.450 -2.3750  0.8641  1.8233
  706MOL0     H97401   6.223   5.508   6.284  1.4968  1.4412  1.1903
  706MOL0     H97402   6.108   5.715   6.460  1.5761 -1.1579  1.4160
  706MOL0     H97403   6.114   5.755   6.277 -1.6044 -1.1586  0.3659
  706MOL0     H97404   6.354   5.686   6.461  4.1274  0.1170 -2.3518
  706MOL0     H97405   6.313   5.851   6.418  0.3499  1.0767 -1.8077
  706MOL0     H97406   6.401   5.630   6.233  0.5798  0.6181  0.8529
  706MOL0     H97407   6.483   5.781   6.259  0.7481 -1.1916 -1.6889
  706MOL0     H97408   5.647   5.366   5.950  0.4916  3.1016  2.9162
  706MOL0     H97409   5.556   5.135   5.920  4.2622  1.6924  0.0332
  706MOL0     H97410   5.419   4.813   5.943 -0.7066 -1.9792  0.0333
  706MOL0     H97411   5.429   4.579   5.915  0.2690  1.0624 -1.9239
  706MOL0     H97412   4.498   3.695   7.137 -0.1923 -0.5266 -1.8237
  706MOL0     H97413   4.299   3.573   7.239 -2.2607  0.2207  0.1810
  706MOL0     H97414   3.874   3.535   7.278  2.2346  1.9092  0.6377
  706MOL0     H97415   3.634   3.471   7.343  0.4990  0.4178 -0.3750
  706MOL0     H97416   3.446   3.555   7.745  3.8719  0.6543  0.4105
  706MOL0     H97417   3.348   3.430   7.673 -0.2366  2.0877 -1.4845
  706MOL0     H97418   3.631   3.403   7.784 -0.4121  2.4099 -2.8172
  706MOL0     H97419   3.544   3.277   7.704 -3.1589  1.3154 -0.5913
  706MOL0     H97420   3.454   3.384   7.977 -0.1853 -0.5805  0.6836
  706MOL0     H97421   3.363   3.282   7.877  0.6758 -0.5792 -1.4988
  706MOL0     H97422   3.551   3.176   8.055  0.9310  1.4558  0.0826
  706MOL0     H97423   3.658   3.198   7.912  0.1680  2.2139  0.0694
  706MOL0     H97424   3.396   2.903   7.767 -0.9491  0.1808 -0.1173
  706MOL0     H97425   3.705   3.607   7.736 -2.5909  1.5210 -1.2462
  706MOL0     H97426   3.976   3.806   7.658  3.5414 -0.8290 -3.9204
  706MOL0     H97427   3.916   3.705   7.791  2.1629 -0.8375 -0.2611
  706MOL0     H97428   4.039   3.636   7.700 -1.1018 -0.1434 -0.3834
  707MOL0     O97429   4.843   7.567   9.637 -0.2776 -0.1744  0.0908
  707MOL0     C97430   4.813   7.648   9.721  0.2049  0.2889  0.1234
  707MOL0     O97431   4.698   7.641   9.804 -0.0655  0.3615  0.4297
  707MOL0     C97432   4.620   7.526   9.819 -0.1705 -0.0984  1.0101
  707MOL0     C97433   4.482   7.535   9.837  0.6629  0.3174 -0.1791
  707MOL0     C97434   4.404   7.424   9.843  0.3590 -0.9589  0.0166
  707MOL0     C97435   4.464   7.293   9.818  0.2231 -0.2082  0.0459
  707MOL0     O97436   4.402   7.178   9.791  0.1213 -0.1473  0.7254
  707MOL0     C97437   4.348   7.099   9.901 -0.2859  0.4814 -0.0848
  707MOL0     C97438   4.257   6.977   9.844  0.2872 -0.0967  0.0992
  707MOL0     C97439   4.135   7.019   9.777  0.0360 -0.3629 -0.1937
  707MOL0     C97440   4.047   6.893   9.751 -0.5382  0.6900 -0.2369
  707MOL0     C97441   3.910   6.911   9.685 -0.4566  0.5980  0.3170
  707MOL0     C97442   3.923   6.855   9.542  0.0346  0.2634  0.6561
  707MOL0     C97443   4.034   6.922   9.457  0.1504  0.0126  0.1364
  707MOL0     C97444   4.033   6.885   9.298 -0.7592 -0.3647  0.1976
  707MOL0     N97445   3.908   6.922   9.234  0.7969 -0.1989 -0.1677
  707MOL0     C97446   3.872   7.051   9.193 -0.4241  0.2325 -1.2893
  707MOL0     C97447   3.743   7.041   9.158  1.3295 -0.5318 -0.0335
  707MOL0     C97448   3.634   7.139   9.114  0.1261  0.0164  0.2182
  707MOL0     C97449   3.671   7.243   9.007 -0.1354 -0.5668  0.6148
  707MOL0     C97450   3.750   7.181   8.889 -1.0717 -0.6145 -0.8720
  707MOL0     C97451   3.700   7.055   8.832 -0.3504  0.1882  0.0540
  707MOL0     O97452   3.563   7.068   8.791  0.4384 -0.6018 -0.1708
  707MOL0     C97453   3.532   7.118   8.668 -0.2718 -0.1673 -0.5228
  707MOL0     C97454   3.401   7.162   8.644 -0.0751 -0.4341  0.0289
  707MOL0     C97455   3.352   7.221   8.521 -0.6578 -0.6762 -1.4354
  707MOL0     C97456   3.197   7.246   8.511 -0.0966 -0.2355 -1.1104
  707MOL0     C97457   3.451   7.239   8.417 -0.2195 -0.2312 -0.0119
  707MOL0     C97458   3.413   7.294   8.285  0.0286 -0.0235 -0.4345
  707MOL0     O97459   3.525   7.336   8.216 -0.0425  0.2295  1.3806
  707MOL0     C97460   3.529   7.437   8.120  0.6937 -0.1131 -0.8916
  707MOL0     C97461   3.621   7.439   8.015 -0.9753 -0.2685 -0.3633
  707MOL0     C97462   3.633   7.551   7.935 -0.5367  0.4891  0.3449
  707MOL0     C97463   3.554   7.658   7.956 -0.4260 -0.6067 -0.0643
  707MOL0     O97464   3.578   7.766   7.871  0.3887 -0.3763 -0.5474
  707MOL0     C97465   3.501   7.886   7.898  0.4478  0.0219  0.6044
  707MOL0     C97466   3.523   7.975   7.777 -0.2540  0.0981 -0.0589
  707MOL0     C97467   3.497   7.917   7.632 -0.4241  0.0774 -0.0958
  707MOL0     C97468   3.555   7.996   7.525  0.3212 -0.6319 -0.0069
  707MOL0     C97469   3.603   7.911   7.412 -0.8215 -0.4020  0.2308
  707MOL0     C97470   3.669   7.995   7.302 -0.5319  0.2428  0.3942
  707MOL0     C97471   3.664   7.915   7.168  0.5365 -0.4440 -0.5283
  707MOL0     C97472   3.519   7.880   7.112 -0.1277  1.1036 -0.2101
  707MOL0    Cl97473   3.556   7.835   6.952  0.0788  0.0768  0.0765
  707MOL0     C97474   3.453   7.654   8.053 -0.3920  0.3233 -0.1873
  707MOL0     C97475   3.447   7.545   8.134  0.4638 -0.3110  0.5169
  707MOL0     O97476   3.300   7.295   8.243  0.3922  0.3601 -0.5318
  707MOL0     C97477   3.583   7.200   8.447 -0.0483  0.1616  0.2841
  707MOL0     C97478   3.625   7.136   8.560  1.1965  0.2019 -0.6600
  707MOL0     N97479   3.706   6.904   9.167  0.3910 -0.1309 -0.4835
  707MOL0     N97480   3.807   6.833   9.213  0.4738 -0.1236 -0.7974
  707MOL0     C97481   4.601   7.286   9.810 -0.1756  1.0344 -0.1231
  707MOL0     C97482   4.675   7.398   9.814  0.1542  1.0624  0.4862
  707MOL0     C97483   4.937   7.710   9.774 -0.1690 -0.7495  0.0253
  707MOL0     C97484   4.976   7.694   9.911 -0.4549 -0.5266 -0.0505
  707MOL0     C97485   5.094   7.757   9.966 -0.6729 -0.3883 -0.3735
  707MOL0     C97486   5.180   7.828   9.880  0.5790 -0.2410  1.1185
  707MOL0     O97487   5.291   7.889   9.926 -0.2264 -0.4500 -0.1020
  707MOL0     C97488   5.335   7.877  10.068 -0.5210 -0.3517 -0.2098
  707MOL0     C97489   5.485   7.913  10.072  0.8505 -0.1879  0.6158
  707MOL0     C97490   5.535   7.919  10.212  0.1908 -0.2143 -0.0938
  707MOL0     C97491   5.687   7.878  10.221 -0.1091 -0.3659  0.6316
  707MOL0     C97492   5.765   7.975  10.143 -0.5158 -0.5210  1.1065
  707MOL0     C97493   5.812   8.062  10.072  0.3214 -0.7492  0.7237
  707MOL0     C97494   5.139   7.850   9.739  0.1900  0.2422 -0.1299
  707MOL0     C97495   5.015   7.798   9.695  0.3107 -0.1966  0.4023
  707MOL0     C97496   4.974   7.824   9.550 -0.5108 -0.3335 -0.8822
  707MOL0     H97497   4.436   7.633   9.846  1.5128  0.6368  0.9164
  707MOL0     H97498   4.298   7.442   9.853  0.0449  1.4158 -4.6417
  707MOL0     H97499   4.299   7.157   9.979  0.6835 -0.2494  1.0980
  707MOL0     H97500   4.437   7.050   9.941 -1.5044 -0.7689  1.2028
  707MOL0     H97501   4.313   6.910   9.779 -1.5083  0.7120 -2.4181
  707MOL0     H97502   4.224   6.921   9.933 -0.9025  1.1178  0.4570
  707MOL0     H97503   4.092   7.097   9.840  1.4901  0.2597  0.0748
  707MOL0     H97504   4.150   7.061   9.677 -0.6920  0.4925  0.0422
  707MOL0     H97505   4.104   6.825   9.687  0.3482  0.8797  0.3278
  707MOL0     H97506   4.027   6.852   9.850  0.2603  2.2209  0.5927
  707MOL0     H97507   3.891   7.018   9.681 -0.6967  0.5860  1.0418
  707MOL0     H97508   3.836   6.854   9.742  0.0656  1.9310  2.4080
  707MOL0     H97509   3.936   6.747   9.532 -0.4345  0.0696  1.9761
  707MOL0     H97510   3.829   6.869   9.487  1.0329  2.0709 -0.6687
  707MOL0     H97511   4.131   6.906   9.506 -1.2160 -3.0677  2.1540
  707MOL0     H97512   4.015   7.030   9.464  1.3623  0.4559 -2.3470
  707MOL0     H97513   4.118   6.937   9.251  0.3752 -1.7937  0.5857
  707MOL0     H97514   4.042   6.777   9.284 -3.7466 -0.8958  1.7156
  707MOL0     H97515   3.926   7.142   9.172  0.3133  0.4902  1.3958
  707MOL0     H97516   3.591   7.193   9.198 -1.7030  1.7133 -1.6891
  707MOL0     H97517   3.551   7.083   9.071  0.2425  0.4844 -0.6404
  707MOL0     H97518   3.578   7.275   8.960  1.4420  0.2419 -2.1874
  707MOL0     H97519   3.719   7.333   9.046  0.9866 -1.6171  1.7348
  707MOL0     H97520   3.769   7.248   8.804  0.2594 -1.6874 -1.4486
  707MOL0     H97521   3.852   7.169   8.926 -0.0886  2.7406 -2.0472
  707MOL0     H97522   3.763   7.015   8.752  1.3245  0.8836  0.9778
  707MOL0     H97523   3.689   6.975   8.906 -0.2606  0.5751  0.4831
  707MOL0     H97524   3.342   7.157   8.735  2.1484 -2.7588  1.4615
  707MOL0     H97525   3.155   7.175   8.440  0.5845 -3.0661  1.1098
  707MOL0     H97526   3.187   7.348   8.472  0.2717  0.5089  0.6443
  707MOL0     H97527   3.152   7.224   8.609  0.1364 -2.3415 -1.4420
  707MOL0     H97528   3.698   7.362   8.014 -0.3951  0.3087 -0.8944
  707MOL0     H97529   3.715   7.556   7.864  1.1574 -2.3610  1.8981
  707MOL0     H97530   3.394   7.865   7.893  0.1356  0.3897  3.6555
  707MOL0     H97531   3.521   7.927   7.997  1.0460 -2.0443  1.3928
  707MOL0     H97532   3.466   8.068   7.785  1.2834  1.1620 -0.8536
  707MOL0     H97533   3.631   7.994   7.777 -0.4463  1.3046 -0.2029
  707MOL0     H97534   3.390   7.894   7.621  0.1400 -1.8452 -2.7519
  707MOL0     H97535   3.546   7.819   7.628 -1.7337 -0.8344  3.1352
  707MOL0     H97536   3.645   8.044   7.564 -0.5375 -0.9272  2.5696
  707MOL0     H97537   3.491   8.076   7.488 -1.3529 -1.3184  1.2631
  707MOL0     H97538   3.672   7.830   7.439 -0.0880 -0.6186 -2.0692
  707MOL0     H97539   3.514   7.856   7.379 -0.2626 -2.5872  2.1103
  707MOL0     H97540   3.765   8.031   7.341  0.3166 -0.5253 -0.8814
  707MOL0     H97541   3.607   8.082   7.278  1.1198  1.4744  0.3745
  707MOL0     H97542   3.727   7.827   7.178  2.2029  0.7228 -0.3897
  707MOL0     H97543   3.708   7.982   7.093 -0.9653  1.9893  0.6230
  707MOL0     H97544   3.456   7.970   7.111  1.2074  2.1112  0.9849
  707MOL0     H97545   3.463   7.801   7.163 -2.7410  1.8255 -1.8067
  707MOL0     H97546   3.383   7.735   8.069 -0.8586 -0.1177  0.0143
  707MOL0     H97547   3.390   7.548   8.226  0.2710  1.2265  0.3602
  707MOL0     H97548   3.654   7.210   8.366 -1.6401 -1.9209 -1.4741
  707MOL0     H97549   3.733   7.121   8.568  1.1936  0.8783  1.5240
  707MOL0     H97550   4.649   7.191   9.790 -1.6923  0.3730 -0.7485
  707MOL0     H97551   4.782   7.383   9.801  0.3334  1.3076  1.5360
  707MOL0     H97552   4.908   7.640   9.976 -3.3515  0.7584 -1.8347
  707MOL0     H97553   5.113   7.731  10.070  0.9849 -1.4583 -0.9048
  707MOL0     H97554   5.281   7.944  10.136 -0.4875 -1.8466  1.3478
  707MOL0     H97555   5.315   7.784  10.122  0.4388 -0.3005  0.2535
  707MOL0     H97556   5.497   8.012  10.026 -0.2441 -1.7789 -3.5614
  707MOL0     H97557   5.536   7.838  10.010  0.6863  0.4398 -0.3042
  707MOL0     H97558   5.527   8.018  10.257 -2.2909 -0.7431  0.7515
  707MOL0     H97559   5.487   7.842  10.272  1.6387 -3.2604 -2.5350
  707MOL0     H97560   5.700   7.775  10.189  1.6774  0.4517 -1.5485
  707MOL0     H97561   5.727   7.880  10.323  0.3482  0.3093  0.4475
  707MOL0     H97562   5.849   8.145  10.016 -3.6291 -0.2097 -1.4771
  707MOL0     H97563   5.194   7.922   9.680 -0.7282  1.4726  0.4599
  707MOL0     H97564   4.954   7.730   9.497 -0.1734 -0.6132 -0.5221
  707MOL0     H97565   4.885   7.887   9.558  0.9946  1.8501 -0.5447
  707MOL0     H97566   5.051   7.874   9.491 -0.5340 -2.2973 -2.7000
  708MOL0     O97567   2.624   0.158   4.886 -0.4828 -0.5122 -0.0111
  708MOL0     C97568   2.578   0.186   4.996  0.9727 -0.1713  0.1079
  708MOL0     O97569   2.607   0.121   5.110 -0.4052  0.5233 -0.0345
  708MOL0     C97570   2.621  -0.014   5.112 -0.4811  0.3451 -0.0704
  708MOL0     C97571   2.640  -0.065   5.243 -0.1790  0.0606  0.1396
  708MOL0     C97572   2.625  -0.205   5.272  1.2588 -0.7237 -0.4818
  708MOL0     C97573   2.621  -0.300   5.170 -0.7414 -1.3985  0.2510
  708MOL0     O97574   2.607  -0.429   5.204 -0.2008 -0.4469 -0.1152
  708MOL0     C97575   2.589  -0.539   5.113  0.4729  0.8376 -0.5781
  708MOL0     C97576   2.498  -0.644   5.187  0.1871  1.0857  0.3899
  708MOL0     C97577   2.554  -0.660   5.331 -0.3145  0.5677  0.1742
  708MOL0     C97578   2.468  -0.763   5.410 -0.3627 -0.2284 -0.3977
  708MOL0     C97579   2.554  -0.864   5.485  0.2453 -0.2847  0.2589
  708MOL0     C97580   2.645  -0.802   5.588 -0.1595  0.3141 -0.2082
  708MOL0     C97581   2.761  -0.898   5.617 -0.0482 -0.1999  0.0901
  708MOL0     C97582   2.855  -0.934   5.513  0.7208 -1.5774  0.5223
  708MOL0     N97583   2.979  -0.988   5.567 -0.4642  0.3485  0.0085
  708MOL0     C97584   2.999  -1.121   5.605 -0.0084 -0.2410 -0.3532
  708MOL0     C97585   3.136  -1.135   5.634  0.4798 -0.9511  0.1834
  708MOL0     C97586   3.192  -1.266   5.672  0.7725 -0.1029 -0.2930
  708MOL0     C97587   3.340  -1.268   5.642  0.2760  0.0252  0.5018
  708MOL0     C97588   3.410  -1.402   5.675 -0.6434  0.0328  0.3626
  708MOL0     C97589   3.554  -1.404   5.618 -0.4940  0.2719 -0.2307
  708MOL0     O97590   3.641  -1.311   5.690  0.1693  0.0589 -0.0828
  708MOL0     C97591   3.757  -1.286   5.623  0.6552  0.3113 -1.2260
  708MOL0     C97592   3.776  -1.168   5.554  0.1124 -1.0555  0.5170
  708MOL0     C97593   3.887  -1.160   5.465  0.1069  0.2452 -0.1870
  708MOL0     C97594   3.891  -1.042   5.372 -0.5821  0.5648 -0.2537
  708MOL0     C97595   3.985  -1.267   5.458  0.4092  0.2524  1.4196
  708MOL0     C97596   4.097  -1.284   5.352 -0.0943 -0.2159  0.8828
  708MOL0     O97597   4.136  -1.405   5.335  0.4631 -0.0935  0.3769
  708MOL0     C97598   4.253  -1.424   5.261 -0.2183  0.2304 -0.3663
  708MOL0     C97599   4.369  -1.421   5.336 -0.5363 -0.7249  0.3046
  708MOL0     C97600   4.493  -1.438   5.259 -1.1897  0.3515  0.5045
  708MOL0     C97601   4.488  -1.470   5.119 -0.5176  0.9317 -0.5787
  708MOL0     O97602   4.596  -1.493   5.040  0.7151 -0.6055 -0.8451
  708MOL0     C97603   4.728  -1.437   5.074  0.2485  1.1758 -1.0167
  708MOL0     C97604   4.808  -1.456   4.942  0.2043 -0.2200  0.4218
  708MOL0     C97605   4.845  -1.601   4.891  0.2308  0.0486  0.6075
  708MOL0     C97606   4.937  -1.589   4.763  0.1927 -0.2897 -0.2002
  708MOL0     C97607   5.004  -1.718   4.717 -0.0892  0.0735 -0.1188
  708MOL0     C97608   4.903  -1.834   4.701 -0.1024 -0.8326  0.1957
  708MOL0     C97609   4.980  -1.954   4.634  0.7209  0.0104  0.2555
  708MOL0     C97610   4.995  -2.070   4.724  0.6970 -0.2311 -0.2778
  708MOL0    Cl97611   5.118  -2.169   4.654 -0.0736 -0.1965 -0.1351
  708MOL0     C97612   4.367  -1.457   5.054  0.2293  0.8688 -0.1371
  708MOL0     C97613   4.248  -1.446   5.123 -0.0359  0.5043 -0.2344
  708MOL0     O97614   4.159  -1.185   5.317 -0.1853 -0.5827 -0.4957
  708MOL0     C97615   3.968  -1.374   5.544 -0.5510  0.4212 -1.0839
  708MOL0     C97616   3.852  -1.391   5.623 -0.6753 -0.5162 -0.5802
  708MOL0     N97617   3.192  -1.022   5.584 -0.2742  0.8428 -0.6182
  708MOL0     N97618   3.101  -0.938   5.553  0.8030 -0.9550 -0.5108
  708MOL0     C97619   2.626  -0.250   5.044  0.0657 -0.4412  0.6905
  708MOL0     C97620   2.629  -0.116   5.011  0.9148  0.5951 -0.9703
  708MOL0     C97621   2.495   0.307   4.992 -0.8113 -0.6892  0.6581
  708MOL0     C97622   2.481   0.366   4.862  0.8333  0.0791  0.2190
  708MOL0     C97623   2.405   0.480   4.844 -0.5621  0.4905 -0.5701
  708MOL0     C97624   2.346   0.544   4.950 -0.2665  0.1261  0.2969
  708MOL0     O97625   2.251   0.645   4.928  0.3922  0.7598 -0.2226
  708MOL0     C97626   2.152   0.666   5.021  0.3040 -0.0494 -0.3783
  708MOL0     C97627   2.059   0.556   5.062 -0.7281  0.4912 -0.3859
  708MOL0     C97628   1.982   0.585   5.186  0.0365 -0.5097 -0.3509
  708MOL0     C97629   2.050   0.552   5.319 -0.4990 -0.4310 -0.1269
  708MOL0     C97630   2.131   0.669   5.365 -0.6139  0.7818  1.1520
  708MOL0     C97631   2.196   0.773   5.376 -0.5820  1.1750  0.4776
  708MOL0     C97632   2.377   0.492   5.075  0.7166 -0.5210  0.4106
  708MOL0     C97633   2.443   0.371   5.103  0.1264  0.8731  0.1041
  708MOL0     C97634   2.463   0.327   5.252  0.0303  0.7528  0.6658
  708MOL0     H97635   2.638   0.004   5.326  0.1132 -2.9074  2.7825
  708MOL0     H97636   2.626  -0.250   5.371  0.1933 -1.3353 -0.7351
  708MOL0     H97637   2.692  -0.573   5.098 -0.2275 -0.7868 -2.0260
  708MOL0     H97638   2.539  -0.521   5.017 -3.4144 -1.8028  0.7192
  708MOL0     H97639   2.397  -0.602   5.194 -0.3529 -0.3041  1.2404
  708MOL0     H97640   2.487  -0.739   5.136 -0.0354  0.8325  0.8955
  708MOL0     H97641   2.655  -0.700   5.322 -0.3585  0.6744 -0.9771
  708MOL0     H97642   2.553  -0.564   5.383  0.4002  0.6215  0.0902
  708MOL0     H97643   2.406  -0.711   5.484 -0.2578 -2.3532  1.3002
  708MOL0     H97644   2.404  -0.808   5.333  2.6932 -1.0630 -2.6326
  708MOL0     H97645   2.597  -0.929   5.407  1.4829 -0.0324  0.7091
  708MOL0     H97646   2.492  -0.927   5.549 -2.3480  2.1006  0.2587
  708MOL0     H97647   2.685  -0.712   5.542  0.7471 -0.2788 -0.6199
  708MOL0     H97648   2.598  -0.777   5.683  0.2110  0.3448 -0.0302
  708MOL0     H97649   2.734  -0.989   5.671  2.7907  0.7965  3.5581
  708MOL0     H97650   2.836  -0.856   5.684  2.4097 -6.0869  1.6701
  708MOL0     H97651   2.811  -1.005   5.443  1.2318  1.1535 -2.8698
  708MOL0     H97652   2.862  -0.842   5.454 -2.5969 -0.9944  0.8444
  708MOL0     H97653   2.926  -1.201   5.612  1.2026 -1.2220  2.7918
  708MOL0     H97654   3.152  -1.341   5.603 -1.3071  0.3300  0.3706
  708MOL0     H97655   3.157  -1.303   5.769 -0.7220  0.7862 -0.4658
  708MOL0     H97656   3.331  -1.256   5.534 -1.2815 -3.1049  0.1820
  708MOL0     H97657   3.390  -1.180   5.684 -2.3740  0.2412  3.6875
  708MOL0     H97658   3.433  -1.418   5.781 -0.0644  2.1582  0.6046
  708MOL0     H97659   3.343  -1.477   5.633  0.0616 -0.1568 -0.4423
  708MOL0     H97660   3.596  -1.504   5.633  0.7239 -0.4604 -5.9612
  708MOL0     H97661   3.548  -1.382   5.511 -0.6464  4.3514  0.4287
  708MOL0     H97662   3.703  -1.088   5.547  1.2205 -0.1469 -3.4389
  708MOL0     H97663   3.983  -0.986   5.389  1.0976 -2.2092  0.4737
  708MOL0     H97664   3.798  -0.986   5.385 -2.9550 -3.4015  1.5991
  708MOL0     H97665   3.896  -1.088   5.272 -0.0251 -1.1861  0.5422
  708MOL0     H97666   4.358  -1.385   5.438 -0.5441 -4.3038  1.6983
  708MOL0     H97667   4.586  -1.429   5.313 -1.5578  0.9566  1.0573
  708MOL0     H97668   4.732  -1.333   5.106  3.6768  1.3317 -1.6067
  708MOL0     H97669   4.771  -1.502   5.151 -2.0339 -0.1835 -0.7638
  708MOL0     H97670   4.755  -1.409   4.858 -0.4334 -1.1400  0.2963
  708MOL0     H97671   4.894  -1.390   4.955  0.0437 -0.2966  2.0477
  708MOL0     H97672   4.756  -1.661   4.868  1.1700 -1.5895  1.1251
  708MOL0     H97673   4.892  -1.654   4.974 -0.3602  1.3383  1.8094
  708MOL0     H97674   5.001  -1.503   4.781 -0.6504  0.6185 -1.3649
  708MOL0     H97675   4.872  -1.560   4.680  2.5801 -0.6589 -2.3147
  708MOL0     H97676   5.056  -1.706   4.621  1.1873  0.9315  0.6555
  708MOL0     H97677   5.078  -1.761   4.785 -1.3494 -1.6416  0.2467
  708MOL0     H97678   4.817  -1.798   4.643  0.2343 -2.1103 -1.1611
  708MOL0     H97679   4.845  -1.853   4.792 -2.6581 -2.0979 -1.5721
  708MOL0     H97680   5.083  -1.921   4.618  1.2892 -0.9414  1.6929
  708MOL0     H97681   4.944  -1.985   4.536  1.6505  1.4432 -0.5689
  708MOL0     H97682   4.901  -2.125   4.735  2.6245 -3.5744  0.6723
  708MOL0     H97683   5.027  -2.026   4.819  3.6757 -2.4326 -0.1194
  708MOL0     H97684   4.350  -1.459   4.946  1.2389 -0.4094 -0.2899
  708MOL0     H97685   4.149  -1.444   5.078 -1.1017 -0.1385  1.9433
  708MOL0     H97686   4.032  -1.462   5.542 -0.2044  0.6510 -0.4194
  708MOL0     H97687   3.834  -1.478   5.685  3.3351 -0.3824  1.1210
  708MOL0     H97688   2.617  -0.318   4.959  2.6792 -2.0522  1.5966
  708MOL0     H97689   2.618  -0.077   4.911 -1.9334 -0.3527 -1.1022
  708MOL0     H97690   2.528   0.331   4.771 -1.4776  1.4763 -1.5996
  708MOL0     H97691   2.371   0.514   4.746 -0.5539 -1.4790 -1.2960
  708MOL0     H97692   2.190   0.716   5.111 -3.5248  4.4500 -0.8707
  708MOL0     H97693   2.097   0.748   4.974 -0.6352 -1.4352 -1.7942
  708MOL0     H97694   2.130   0.473   5.073 -0.6652  0.8455  2.4202
  708MOL0     H97695   1.986   0.535   4.984 -0.8143 -1.9200  0.2409
  708MOL0     H97696   1.943   0.687   5.187  1.7101  0.1877  1.5417
  708MOL0     H97697   1.894   0.520   5.185 -0.0849 -0.4321  1.4215
  708MOL0     H97698   2.105   0.458   5.305 -0.7035 -0.3768 -1.4428
  708MOL0     H97699   1.972   0.545   5.396  2.2566  2.5613  3.3121
  708MOL0     H97700   2.274   0.847   5.368  2.0373 -1.2644  1.7573
  708MOL0     H97701   2.337   0.540   5.164 -2.1564 -3.5945  0.9531
  708MOL0     H97702   2.396   0.383   5.317 -0.1220  0.0465  1.1269
  708MOL0     H97703   2.430   0.224   5.270  1.7422  0.2235  0.9873
  708MOL0     H97704   2.563   0.357   5.287  1.6306 -0.1779 -2.6758
  709MOL0     O97705   5.340   3.554  11.074 -0.0183  0.4438 -0.7967
  709MOL0     C97706   5.350   3.436  11.043 -0.8066  0.1161 -0.2888
  709MOL0     O97707   5.426   3.401  10.939  1.2168  0.2672 -0.0079
  709MOL0     C97708   5.398   3.456  10.817 -0.2329  0.1327  0.1208
  709MOL0     C97709   5.490   3.410  10.723 -0.4673  0.2463  0.0816
  709MOL0     C97710   5.483   3.450  10.589  0.0089  0.6277 -0.1329
  709MOL0     C97711   5.371   3.527  10.547 -1.2549 -0.6013  0.1950
  709MOL0     O97712   5.339   3.543  10.414  0.1481 -0.2340  0.4036
  709MOL0     C97713   5.322   3.682  10.369  0.3465  1.0978 -0.9311
  709MOL0     C97714   5.400   3.703  10.241 -0.2050 -0.1283  0.6711
  709MOL0     C97715   5.333   3.629  10.120  0.3521  0.1968 -1.3429
  709MOL0     C97716   5.433   3.626  10.003 -0.6267  0.2580 -0.4349
  709MOL0     C97717   5.559   3.537  10.007 -0.2367 -0.6773  0.0344
  709MOL0     C97718   5.520   3.390  10.036 -0.7590  0.7459 -0.1212
  709MOL0     C97719   5.434   3.318   9.925 -0.2095 -0.6103 -0.3459
  709MOL0     C97720   5.494   3.294   9.790 -0.8054  0.0423  0.2527
  709MOL0     N97721   5.401   3.269   9.673 -0.0253 -0.4876 -0.1272
  709MOL0     C97722   5.309   3.359   9.631  0.1346 -0.3652  0.6754
  709MOL0     C97723   5.264   3.308   9.513 -0.1908 -1.2796  0.1181
  709MOL0     C97724   5.153   3.358   9.427  0.2422 -0.1358 -0.6209
  709MOL0     C97725   5.052   3.243   9.393  0.3226  0.6840  0.6763
  709MOL0     C97726   4.936   3.309   9.313  0.1839 -0.1878  1.1256
  709MOL0     C97727   4.854   3.210   9.236  0.2430 -0.1751  0.5139
  709MOL0     O97728   4.766   3.158   9.342  0.9622 -0.1301  0.3372
  709MOL0     C97729   4.698   3.052   9.305 -0.0436  0.3165  0.8935
  709MOL0     C97730   4.747   2.928   9.328 -0.9183  0.6778  0.8819
  709MOL0     C97731   4.681   2.812   9.284  0.6257 -0.2846  0.2194
  709MOL0     C97732   4.762   2.679   9.285  0.3307  0.7353  0.6518
  709MOL0     C97733   4.542   2.831   9.238 -0.6149 -0.3728 -0.4177
  709MOL0     C97734   4.468   2.721   9.189  0.2213 -0.2151 -0.2743
  709MOL0     O97735   4.387   2.738   9.088 -0.4746 -0.2721 -0.5780
  709MOL0     C97736   4.340   2.628   9.022 -0.7461  0.1540  0.5717
  709MOL0     C97737   4.203   2.618   9.018  0.0355 -0.8157  0.7360
  709MOL0     C97738   4.139   2.510   8.943 -0.0294  0.3379  0.0785
  709MOL0     C97739   4.221   2.419   8.874  0.4288 -0.1821 -0.8735
  709MOL0     O97740   4.174   2.322   8.787 -0.1240 -0.3809 -0.4178
  709MOL0     C97741   4.039   2.334   8.740 -0.5458 -0.6216 -0.2137
  709MOL0     C97742   3.956   2.227   8.819 -0.5767 -1.0220  0.8737
  709MOL0     C97743   3.809   2.243   8.791  1.0812  0.5166 -0.1805
  709MOL0     C97744   3.736   2.138   8.882  0.1634  0.6551  0.3841
  709MOL0     C97745   3.577   2.150   8.868  0.5824 -0.8697  0.3977
  709MOL0     C97746   3.484   2.059   8.959 -0.3152  0.4246  0.1701
  709MOL0     C97747   3.484   1.904   8.933 -0.5618 -0.1606 -0.2377
  709MOL0     C97748   3.419   1.827   9.038 -0.5326 -0.4986 -0.3864
  709MOL0    Cl97749   3.404   1.659   8.977 -0.1390 -0.2106 -0.2075
  709MOL0     C97750   4.358   2.437   8.886 -0.0847 -0.1160  0.4344
  709MOL0     C97751   4.424   2.540   8.957 -0.4206  0.4799 -0.3737
  709MOL0     O97752   4.480   2.621   9.258 -0.6135 -0.3591  0.5425
  709MOL0     C97753   4.497   2.966   9.218  0.3802  0.2885 -0.5915
  709MOL0     C97754   4.573   3.073   9.249 -0.4934 -0.3119 -0.1037
  709MOL0     N97755   5.324   3.185   9.494  0.2267  0.3184  0.6759
  709MOL0     N97756   5.409   3.166   9.589 -0.4735  0.5359  0.8392
  709MOL0     C97757   5.287   3.591  10.635 -0.7272  0.0347 -0.1800
  709MOL0     C97758   5.298   3.550  10.773  0.4204  0.3022 -0.7335
  709MOL0     C97759   5.291   3.334  11.138  0.0095  0.4717 -0.2476
  709MOL0     C97760   5.235   3.381  11.258  0.0692 -0.4859  0.7535
  709MOL0     C97761   5.169   3.292  11.333  0.6818 -0.2209 -0.3466
  709MOL0     C97762   5.162   3.148  11.306  0.3485 -0.0253  0.5848
  709MOL0     O97763   5.105   3.051  11.385  0.2302 -0.0785 -0.0202
  709MOL0     C97764   5.069   3.075  11.520  0.5109  0.9581 -0.9351
  709MOL0     C97765   5.175   3.036  11.623  0.8149 -0.4209  0.1738
  709MOL0     C97766   5.185   2.883  11.622 -0.3489  0.0618  0.5073
  709MOL0     C97767   5.233   2.820  11.759  0.2140 -0.5702 -0.5773
  709MOL0     C97768   5.356   2.750  11.737  0.0971 -0.1227 -0.4778
  709MOL0     C97769   5.465   2.685  11.731  0.2422 -0.5557 -0.7247
  709MOL0     C97770   5.230   3.106  11.194 -0.3688  0.4776  1.1324
  709MOL0     C97771   5.303   3.198  11.108  0.8687  0.3784  0.1273
  709MOL0     C97772   5.376   3.134  10.990  0.2988 -0.7692 -0.1243
  709MOL0     H97773   5.571   3.341  10.746 -1.1995 -1.2233 -1.5874
  709MOL0     H97774   5.554   3.428  10.510 -1.7178 -0.4217 -1.4628
  709MOL0     H97775   5.352   3.754  10.446 -1.7816  0.1725  0.8844
  709MOL0     H97776   5.215   3.696  10.351 -0.1996 -0.7844  0.4936
  709MOL0     H97777   5.404   3.810  10.217 -1.0093 -0.3718 -0.6689
  709MOL0     H97778   5.508   3.684  10.245 -0.0517  0.3962 -0.5357
  709MOL0     H97779   5.296   3.529  10.146  0.0363  1.0199  1.8226
  709MOL0     H97780   5.255   3.694  10.081 -0.1296  2.0073  2.2108
  709MOL0     H97781   5.373   3.597   9.916 -4.1742  2.6047  0.9818
  709MOL0     H97782   5.454   3.733   9.993 -3.7544  1.2305  1.6751
  709MOL0     H97783   5.642   3.572  10.069  0.9638 -0.6404 -1.5329
  709MOL0     H97784   5.602   3.534   9.906  0.5606  2.4837  0.1838
  709MOL0     H97785   5.611   3.333  10.054 -0.8879  0.4380 -0.4230
  709MOL0     H97786   5.465   3.376  10.129  4.4592  0.0281  3.2376
  709MOL0     H97787   5.341   3.375   9.914  0.1956  0.7948  2.5286
  709MOL0     H97788   5.409   3.217   9.958  0.4856 -0.2156  1.5696
  709MOL0     H97789   5.566   3.371   9.762  0.3631 -0.9474  0.4687
  709MOL0     H97790   5.560   3.207   9.800 -0.2299  0.7591  4.4189
  709MOL0     H97791   5.284   3.451   9.683 -0.1224 -0.7821  1.3015
  709MOL0     H97792   5.194   3.390   9.331  0.6437  0.3974 -0.2844
  709MOL0     H97793   5.118   3.443   9.487  1.2331  0.4705 -0.8688
  709MOL0     H97794   5.110   3.168   9.339  0.2743 -2.8644  4.9310
  709MOL0     H97795   5.020   3.194   9.486  2.3578 -0.6743  0.7383
  709MOL0     H97796   4.867   3.371   9.372 -2.6778  0.7417 -2.7695
  709MOL0     H97797   4.970   3.372   9.231  1.1956 -2.9691 -0.6996
  709MOL0     H97798   4.791   3.264   9.165 -0.3571  1.3284  2.1040
  709MOL0     H97799   4.917   3.134   9.190 -1.2327 -1.2366  0.2044
  709MOL0     H97800   4.842   2.904   9.376 -1.0584 -0.2955  0.6921
  709MOL0     H97801   4.869   2.692   9.270  0.1572  0.2724 -1.2388
  709MOL0     H97802   4.732   2.613   9.204  0.7170  0.9623  0.3182
  709MOL0     H97803   4.741   2.621   9.376  0.5623 -3.3734 -1.6747
  709MOL0     H97804   4.151   2.703   9.060  1.1871  0.7955 -0.9308
  709MOL0     H97805   4.032   2.493   8.948  0.4046 -3.2096  0.0846
  709MOL0     H97806   3.993   2.432   8.750 -0.1877 -0.3340 -1.2624
  709MOL0     H97807   4.031   2.306   8.634  3.1063 -1.9839 -0.2820
  709MOL0     H97808   3.987   2.125   8.795 -0.5801 -0.3225 -2.5454
  709MOL0     H97809   3.975   2.222   8.927  1.1644 -2.3347  0.5590
  709MOL0     H97810   3.796   2.222   8.685  3.2612 -0.7901 -0.2643
  709MOL0     H97811   3.763   2.338   8.820  0.3905  0.3152 -0.5982
  709MOL0     H97812   3.753   2.157   8.988 -1.3651 -1.7428  1.1238
  709MOL0     H97813   3.770   2.038   8.856 -0.2923  0.4074  0.7213
  709MOL0     H97814   3.555   2.255   8.893  2.7195 -0.3804  0.4445
  709MOL0     H97815   3.547   2.122   8.767 -3.1491  1.5768  0.6409
  709MOL0     H97816   3.382   2.097   8.947 -0.4994  1.9045  4.6932
  709MOL0     H97817   3.510   2.071   9.064  0.8204  0.7643 -0.1458
  709MOL0     H97818   3.580   1.861   8.902  0.5440 -0.8393  3.5590
  709MOL0     H97819   3.426   1.889   8.842  1.0797 -2.2433 -1.0265
  709MOL0     H97820   3.316   1.860   9.057 -1.2545 -1.5365 -2.1496
  709MOL0     H97821   3.480   1.830   9.128 -0.8071  1.7665 -0.2262
  709MOL0     H97822   4.430   2.379   8.828  1.7438  1.1835  1.3111
  709MOL0     H97823   4.531   2.529   8.970 -0.9099 -1.1840  3.9092
  709MOL0     H97824   4.396   2.982   9.182 -0.4393 -0.8284  1.1025
  709MOL0     H97825   4.542   3.176   9.233 -1.1438 -0.6217 -0.8676
  709MOL0     H97826   5.212   3.659  10.596 -2.0089 -1.1365  0.1546
  709MOL0     H97827   5.225   3.580  10.847  1.1336 -0.0727  0.1460
  709MOL0     H97828   5.242   3.489  11.268 -1.6888 -0.0494 -1.8413
  709MOL0     H97829   5.123   3.335  11.421 -1.4616 -4.3909  0.8264
  709MOL0     H97830   5.052   3.181  11.540 -4.5518  0.2786 -0.1302
  709MOL0     H97831   4.979   3.020  11.552  0.0523  1.2477 -1.6924
  709MOL0     H97832   5.137   3.058  11.723 -0.4980 -0.3569 -0.3116
  709MOL0     H97833   5.275   3.075  11.608  1.2359 -0.3305  2.8520
  709MOL0     H97834   5.089   2.844  11.588  0.4681  0.6572 -2.8450
  709MOL0     H97835   5.254   2.860  11.541 -0.3104 -1.9040  1.0443
  709MOL0     H97836   5.168   2.738  11.792  0.8531 -1.0913 -0.5734
  709MOL0     H97837   5.245   2.887  11.844 -2.9139 -1.8277  1.0361
  709MOL0     H97838   5.555   2.630  11.711  2.3677  2.4118 -0.0131
  709MOL0     H97839   5.231   3.000  11.174  1.2258  0.0602  3.0565
  709MOL0     H97840   5.484   3.151  10.994  0.4182 -0.8044 -2.0861
  709MOL0     H97841   5.380   3.025  10.995  2.3287 -0.7045  0.9234
  709MOL0     H97842   5.336   3.159  10.892 -3.4490  0.8847  1.6459
  710MOL0     O97843  11.230   3.321  11.338 -0.5856  0.2836  0.3518
  710MOL0     C97844  11.291   3.238  11.409 -0.6517 -0.0115 -0.2851
  710MOL0     O97845  11.424   3.206  11.398 -0.7138  0.5068 -0.6525
  710MOL0     C97846  11.481   3.248  11.278  0.3663 -0.1443  0.2798
  710MOL0     C97847  11.431   3.193  11.155 -0.0618  0.7123  0.0781
  710MOL0     C97848  11.450   3.250  11.024 -0.0668  0.4020  0.5980
  710MOL0     C97849  11.541   3.359  11.015  0.1129 -0.1904 -0.3966
  710MOL0     O97850  11.553   3.420  10.888  0.3199 -0.0595 -0.0598
  710MOL0     C97851  11.667   3.506  10.878  0.0611  0.5577 -0.4016
  710MOL0     C97852  11.696   3.535  10.733  0.4799 -0.4177  0.1058
  710MOL0     C97853  11.792   3.662  10.726 -0.4364  0.8406  0.1212
  710MOL0     C97854  11.923   3.648  10.795 -0.1433  0.5571 -1.4004
  710MOL0     C97855  12.013   3.773  10.776 -0.0551  0.7336 -0.1625
  710MOL0     C97856  12.158   3.757  10.833 -0.1146 -0.2206  0.0618
  710MOL0     C97857  12.238   3.641  10.783  0.0754 -0.2226 -0.0201
  710MOL0     C97858  12.367   3.614  10.862  0.3868  0.6737  0.3268
  710MOL0     N97859  12.463   3.529  10.793 -0.7218  0.4289 -0.7854
  710MOL0     C97860  12.524   3.567  10.676  0.2928  0.4521 -0.6747
  710MOL0     C97861  12.582   3.453  10.628 -0.1105  1.1162  0.2764
  710MOL0     C97862  12.663   3.443  10.498 -0.5747 -0.7786  0.8741
  710MOL0     C97863  12.641   3.320  10.417  0.9211  0.5846  1.7719
  710MOL0     C97864  12.501   3.319  10.354 -0.8952  0.0515  0.5735
  710MOL0     C97865  12.486   3.430  10.248 -0.2164  0.4070  0.3458
  710MOL0     O97866  12.588   3.435  10.149 -0.0366  0.7426  0.2023
  710MOL0     C97867  12.584   3.348  10.041 -0.2991 -0.8222  0.6157
  710MOL0     C97868  12.670   3.374   9.930  0.1529  0.4803  0.0224
  710MOL0     C97869  12.667   3.291   9.817  0.8004 -0.5824  0.6963
  710MOL0     C97870  12.762   3.337   9.699 -0.3889 -0.3822  0.2942
  710MOL0     C97871  12.570   3.193   9.800  0.3250  0.1563 -0.5258
  710MOL0     C97872  12.551   3.105   9.681 -0.6071  0.1174  0.1823
  710MOL0     O97873  12.422   3.083   9.642 -0.6112 -0.2900  0.2575
  710MOL0     C97874  12.416   3.057   9.505 -0.0678  0.4009  0.7291
  710MOL0     C97875  12.411   3.154   9.406  0.2784  0.2902 -0.0371
  710MOL0     C97876  12.433   3.110   9.273 -0.5117 -0.9094  0.2718
  710MOL0     C97877  12.429   2.980   9.235 -0.2991  0.4539  1.1255
  710MOL0     O97878  12.427   2.947   9.097 -0.7219 -0.3150 -0.5731
  710MOL0     C97879  12.551   2.996   9.044 -0.4908 -0.9775  0.9011
  710MOL0     C97880  12.560   2.960   8.898 -0.0041  0.2850  0.3079
  710MOL0     C97881  12.689   2.990   8.830  0.6667  0.0291 -0.2736
  710MOL0     C97882  12.797   2.906   8.895 -0.0245 -0.3404 -0.8960
  710MOL0     C97883  12.915   2.908   8.797 -0.0427 -0.1631  0.2108
  710MOL0     C97884  13.049   2.873   8.860 -0.1874  0.1099 -0.5797
  710MOL0     C97885  13.107   2.981   8.957  1.3564  0.3576 -0.1133
  710MOL0     C97886  13.240   3.031   8.900 -0.6928 -0.5053  0.4612
  710MOL0    Cl97887  13.233   3.130   8.747  0.4311 -0.1025  0.3086
  710MOL0     C97888  12.426   2.887   9.340  0.2006 -0.3322  0.7545
  710MOL0     C97889  12.422   2.928   9.473  0.2398 -0.3478  0.0695
  710MOL0     O97890  12.659   3.079   9.617  0.8081  0.8472  0.3576
  710MOL0     C97891  12.477   3.174   9.913 -0.5104 -1.0806  0.5089
  710MOL0     C97892  12.480   3.246  10.032  0.1153  0.7283 -0.3920
  710MOL0     N97893  12.562   3.349  10.715 -0.1916  0.5441 -0.4553
  710MOL0     N97894  12.484   3.395  10.804 -0.2076  0.7850  0.3880
  710MOL0     C97895  11.597   3.414  11.131  1.4685 -1.1979 -0.9762
  710MOL0     C97896  11.565   3.365  11.264 -0.1329 -0.1180 -0.3304
  710MOL0     C97897  11.214   3.142  11.488 -0.4921 -0.4385 -0.1779
  710MOL0     C97898  11.258   3.008  11.492 -0.0826 -0.0397 -0.6121
  710MOL0     C97899  11.205   2.910  11.579 -0.0290  0.4748 -0.2240
  710MOL0     C97900  11.081   2.935  11.642  0.4064 -0.1824 -0.0315
  710MOL0     O97901  11.009   2.842  11.716 -0.2272  0.1048 -0.0928
  710MOL0     C97902  11.051   2.861  11.855  0.0513  0.1503 -0.4670
  710MOL0     C97903  11.000   2.734  11.943 -0.5262  0.4235  0.5593
  710MOL0     C97904  11.060   2.603  11.899  1.3529 -0.7135 -0.2847
  710MOL0     C97905  11.076   2.512  12.024  0.3449  0.3762  0.1427
  710MOL0     C97906  11.201   2.546  12.083 -0.6125  0.8138  0.5253
  710MOL0     C97907  11.312   2.572  12.127  0.2179 -0.0796 -0.2935
  710MOL0     C97908  11.032   3.068  11.640  0.7989 -0.8534 -0.4119
  710MOL0     C97909  11.100   3.169  11.574  0.4558 -0.1338 -0.8466
  710MOL0     C97910  11.045   3.315  11.594 -0.1758 -0.7321  0.5545
  710MOL0     H97911  11.373   3.103  11.170  1.5516 -0.9361 -2.7409
  710MOL0     H97912  11.420   3.199  10.933  4.3611 -1.1425 -0.2705
  710MOL0     H97913  11.761   3.461  10.910  2.1414  2.7124 -3.0966
  710MOL0     H97914  11.641   3.594  10.937  0.9926 -0.1653  1.1692
  710MOL0     H97915  11.740   3.451  10.679  0.3965  1.9279 -4.0842
  710MOL0     H97916  11.599   3.555  10.685  0.0485  0.2887  1.2157
  710MOL0     H97917  11.826   3.682  10.624  0.4908 -1.6762 -0.1494
  710MOL0     H97918  11.735   3.745  10.768 -2.3700 -0.8430  0.9799
  710MOL0     H97919  11.911   3.653  10.903  1.4155  1.4208 -1.2286
  710MOL0     H97920  11.968   3.550  10.772 -2.1325 -0.4941 -1.0398
  710MOL0     H97921  11.971   3.860  10.826  1.7709  1.7681 -0.3590
  710MOL0     H97922  12.031   3.797  10.671 -0.1259  0.7261 -0.1767
  710MOL0     H97923  12.216   3.846  10.804 -1.4571  0.8469  0.5370
  710MOL0     H97924  12.168   3.753  10.942  1.6576 -0.6854 -0.0796
  710MOL0     H97925  12.269   3.663  10.680  0.1173 -1.5688 -0.3099
  710MOL0     H97926  12.183   3.547  10.782  0.9014 -0.7556 -2.5898
  710MOL0     H97927  12.404   3.708  10.904 -1.4563  1.0821  1.1223
  710MOL0     H97928  12.332   3.558  10.950 -1.1917  0.0050 -0.6865
  710MOL0     H97929  12.514   3.661  10.623 -4.2583  2.5093  3.0929
  710MOL0     H97930  12.767   3.459  10.527 -1.0381  2.4708  1.0570
  710MOL0     H97931  12.630   3.528  10.439  0.5060 -1.1415 -0.3013
  710MOL0     H97932  12.711   3.294  10.337 -3.0717 -0.5979 -1.7692
  710MOL0     H97933  12.640   3.241  10.493  1.0971 -0.3822  0.8021
  710MOL0     H97934  12.490   3.228  10.294  1.3743  0.4322 -0.5163
  710MOL0     H97935  12.422   3.328  10.428  0.3107  1.7743  1.7128
  710MOL0     H97936  12.387   3.422  10.203 -0.2879 -0.7540  0.6719
  710MOL0     H97937  12.487   3.524  10.303  0.3927  2.3733 -2.7652
  710MOL0     H97938  12.742   3.455   9.937 -0.0470  0.8410 -1.6665
  710MOL0     H97939  12.837   3.259   9.680 -1.4067 -1.3246  0.0522
  710MOL0     H97940  12.822   3.426   9.722  0.1464 -0.7711  0.4271
  710MOL0     H97941  12.698   3.350   9.611 -1.0788  0.1483  0.8701
  710MOL0     H97942  12.387   3.257   9.433 -2.5768 -0.5820  1.1510
  710MOL0     H97943  12.451   3.193   9.206  0.1572 -1.1191  0.1851
  710MOL0     H97944  12.573   3.102   9.058  0.0938 -1.1915  1.6649
  710MOL0     H97945  12.624   2.937   9.101 -0.6767 -2.0986  0.0165
  710MOL0     H97946  12.542   2.852   8.894  2.4926 -0.1864  0.1890
  710MOL0     H97947  12.488   3.013   8.836  3.1990  2.6284 -1.7028
  710MOL0     H97948  12.716   3.095   8.841 -0.8779  0.2973  1.3560
  710MOL0     H97949  12.675   2.956   8.726  0.6014  1.8101 -0.8802
  710MOL0     H97950  12.763   2.802   8.902 -0.4791 -0.2034 -0.9987
  710MOL0     H97951  12.817   2.959   8.988 -4.0017  0.0078 -0.0300
  710MOL0     H97952  12.890   2.840   8.715 -1.5115  0.0690  0.4433
  710MOL0     H97953  12.921   3.010   8.758 -2.7164  1.3486  3.2552
  710MOL0     H97954  13.122   2.841   8.784  0.7931  1.6237 -0.3179
  710MOL0     H97955  13.035   2.781   8.919 -0.4089  1.1876  1.1045
  710MOL0     H97956  13.124   2.933   9.054  0.7469  0.8761  0.2593
  710MOL0     H97957  13.042   3.068   8.964 -1.0433 -1.1288 -2.2588
  710MOL0     H97958  13.313   2.951   8.884  1.5802  1.3910  0.8308
  710MOL0     H97959  13.280   3.104   8.970 -2.1744  1.1616 -0.3553
  710MOL0     H97960  12.432   2.780   9.320  4.4018 -0.3294  1.0589
  710MOL0     H97961  12.405   2.848   9.544 -2.7664 -0.9832 -1.2388
  710MOL0     H97962  12.400   3.098   9.900  0.2722 -1.9323  0.7285
  710MOL0     H97963  12.399   3.226  10.102  0.0047  0.9938 -0.4443
  710MOL0     H97964  11.663   3.500  11.134  0.0587 -0.0952  1.5949
  710MOL0     H97965  11.595   3.400  11.362 -0.3085 -1.4196  0.2070
  710MOL0     H97966  11.350   2.973  11.446  0.1785 -0.0919 -0.0566
  710MOL0     H97967  11.241   2.808  11.575  1.5630  0.8382  2.2637
  710MOL0     H97968  11.160   2.874  11.856  0.6164 -2.1468 -4.6449
  710MOL0     H97969  11.007   2.954  11.891  5.5280  2.2958  1.7561
  710MOL0     H97970  10.891   2.737  11.933 -0.4921  4.1273 -0.2687
  710MOL0     H97971  11.013   2.745  12.051 -0.4840 -0.9421  0.7088
  710MOL0     H97972  10.989   2.564  11.825 -2.3999  2.2502  1.4428
  710MOL0     H97973  11.154   2.619  11.845 -1.0293  5.4637 -3.6543
  710MOL0     H97974  11.082   2.413  11.978 -3.1689  0.0311  0.1997
  710MOL0     H97975  10.990   2.528  12.089 -0.7418  1.3429 -1.4638
  710MOL0     H97976  11.407   2.600  12.167 -0.0567 -1.7493  1.6217
  710MOL0     H97977  10.943   3.110  11.685  2.5370  3.2647 -0.3447
  710MOL0     H97978  10.936   3.309  11.582 -0.0520  0.0076 -1.1972
  710MOL0     H97979  11.063   3.343  11.699 -2.8117  0.4633  0.7541
  710MOL0     H97980  11.094   3.383  11.524 -3.1032 -0.1004 -1.0537
  711MOL0     O97981   4.642   3.155   4.600 -0.3176 -1.1534 -0.4941
  711MOL0     C97982   4.610   3.037   4.599 -0.3287  0.2909 -0.3280
  711MOL0     O97983   4.683   2.942   4.651  0.0892 -0.3603 -0.9943
  711MOL0     C97984   4.778   2.975   4.738 -0.9897 -0.2245  0.3640
  711MOL0     C97985   4.907   2.942   4.713 -0.0446 -0.1161  0.2806
  711MOL0     C97986   5.009   2.970   4.797  0.8750  0.1089 -0.7776
  711MOL0     C97987   4.985   3.038   4.924 -0.3017  0.4919  0.0426
  711MOL0     O97988   5.090   3.056   5.008  0.1914  0.2767  0.4651
  711MOL0     C97989   5.067   3.161   5.108  0.3364 -0.5833  0.1624
  711MOL0     C97990   5.183   3.179   5.199  0.8920 -0.8000 -0.2366
  711MOL0     C97991   5.163   3.262   5.329 -0.1009  0.6927  0.7548
  711MOL0     C97992   5.211   3.404   5.309 -0.3210  0.3052 -0.5642
  711MOL0     C97993   5.090   3.491   5.263  0.0624 -0.1969 -0.2947
  711MOL0     C97994   5.144   3.643   5.248 -0.2269 -0.3983  0.2106
  711MOL0     C97995   5.050   3.722   5.144  0.6757  0.6383 -0.4305
  711MOL0     C97996   4.913   3.751   5.213  0.2223 -0.8068  0.1494
  711MOL0     N97997   4.819   3.776   5.104 -0.0263  0.5675  0.2423
  711MOL0     C97998   4.772   3.682   5.016  1.4146 -0.6514  0.0553
  711MOL0     C97999   4.686   3.759   4.937  0.6217 -0.4119  0.2414
  711MOL0     C98000   4.598   3.697   4.828  0.3656 -0.5102  0.4591
  711MOL0     C98001   4.671   3.691   4.688  0.2279  0.2543 -0.5369
  711MOL0     C98002   4.680   3.835   4.622 -0.1000  0.4654 -0.2098
  711MOL0     C98003   4.667   3.828   4.466 -0.0345 -0.6034 -0.4835
  711MOL0     O98004   4.556   3.741   4.429 -0.2250 -0.2553  1.0379
  711MOL0     C98005   4.489   3.764   4.311 -0.9009  0.2876  0.1824
  711MOL0     C98006   4.527   3.852   4.212  0.3600  0.0263 -0.1053
  711MOL0     C98007   4.434   3.872   4.108  0.6620  0.2561 -0.0689
  711MOL0     C98008   4.467   3.983   4.008 -0.0733 -0.1710 -0.0335
  711MOL0     C98009   4.322   3.793   4.086  0.5907 -0.0694 -0.5567
  711MOL0     C98010   4.218   3.812   3.982 -0.3773 -0.3085 -0.0090
  711MOL0     O98011   4.106   3.741   4.008 -1.1574  0.7328  0.0511
  711MOL0     C98012   3.983   3.766   3.955  0.9423  0.3551  0.2832
  711MOL0     C98013   3.923   3.885   3.932  0.2093 -0.0271  0.7395
  711MOL0     C98014   3.796   3.893   3.886 -0.4680 -0.6605  0.2118
  711MOL0     C98015   3.706   3.777   3.870  0.1429 -0.5444 -0.2369
  711MOL0     O98016   3.569   3.786   3.869 -0.3815  0.1981  0.6746
  711MOL0     C98017   3.496   3.665   3.846 -0.1279  0.2977  0.8347
  711MOL0     C98018   3.352   3.721   3.825 -0.6948 -0.0426 -0.1362
  711MOL0     C98019   3.240   3.618   3.783  0.0377 -0.0378  0.3513
  711MOL0     C98020   3.204   3.532   3.910  0.2280  0.4200 -0.2367
  711MOL0     C98021   3.120   3.405   3.857  0.4799  0.5855  0.4266
  711MOL0     C98022   3.119   3.294   3.974 -0.2005  0.0688  0.2835
  711MOL0     C98023   3.024   3.172   3.937  0.2802  1.2632 -0.3672
  711MOL0     C98024   3.005   3.067   4.044 -0.5181  0.4383  0.1758
  711MOL0    Cl98025   3.160   2.973   4.065 -0.1110 -0.2621  0.2326
  711MOL0     C98026   3.765   3.655   3.906  0.5615  0.0226 -0.1170
  711MOL0     C98027   3.899   3.652   3.943 -1.1555  0.8584  0.1970
  711MOL0     O98028   4.243   3.866   3.871  0.3778 -0.2255 -0.7576
  711MOL0     C98029   4.290   3.693   4.182 -0.5668 -0.0678 -0.4078
  711MOL0     C98030   4.375   3.686   4.291 -0.0474 -0.5351 -0.4189
  711MOL0     N98031   4.700   3.891   4.970 -0.0309 -0.2098  0.1694
  711MOL0     N98032   4.783   3.897   5.071  0.5061  0.9794 -0.2184
  711MOL0     C98033   4.850   3.065   4.953  0.1095 -0.6485 -0.4634
  711MOL0     C98034   4.750   3.035   4.859  0.3716 -0.1468  0.0418
  711MOL0     C98035   4.510   3.000   4.505  0.0984 -0.0298  0.2517
  711MOL0     C98036   4.403   3.094   4.487  0.0184 -0.6760  0.0817
  711MOL0     C98037   4.293   3.054   4.412  0.2704 -0.5522 -0.1020
  711MOL0     C98038   4.281   2.920   4.358  0.5579  1.4695 -0.5593
  711MOL0     O98039   4.174   2.869   4.282  0.2367 -0.4502  0.1625
  711MOL0     C98040   4.051   2.941   4.300 -0.5862 -0.3744 -1.0028
  711MOL0     C98041   3.937   2.873   4.234 -0.6695  0.2144  0.9710
  711MOL0     C98042   3.813   2.960   4.211 -0.4878  0.3118 -0.9841
  711MOL0     C98043   3.708   2.967   4.337 -0.4872 -0.8619  0.9021
  711MOL0     C98044   3.775   3.000   4.458 -0.3805 -0.2147  0.4634
  711MOL0     C98045   3.829   3.016   4.569 -0.1539  0.1611  0.0666
  711MOL0     C98046   4.394   2.838   4.365  1.0335  0.4922  0.4476
  711MOL0     C98047   4.509   2.869   4.434 -0.9456  0.2894 -0.5103
  711MOL0     C98048   4.624   2.769   4.449  0.4616 -0.9393  0.2838
  711MOL0     H98049   4.929   2.878   4.628 -0.8333  0.3400 -0.2856
  711MOL0     H98050   5.112   2.940   4.776  1.6407  0.8270  1.5890
  711MOL0     H98051   4.980   3.150   5.173  1.0298  1.9177  1.6432
  711MOL0     H98052   5.063   3.255   5.051 -0.7260 -1.3546 -1.0904
  711MOL0     H98053   5.213   3.080   5.237 -0.9559 -0.8299  1.3015
  711MOL0     H98054   5.263   3.229   5.143  0.3548  1.3171  0.7979
  711MOL0     H98055   5.058   3.265   5.359 -0.5068 -1.1757 -0.2935
  711MOL0     H98056   5.218   3.199   5.399  1.9245 -0.6019 -1.8136
  711MOL0     H98057   5.243   3.444   5.406 -2.2889  0.5114  0.0423
  711MOL0     H98058   5.298   3.422   5.245 -0.5166  0.3373 -0.8213
  711MOL0     H98059   5.012   3.495   5.339 -2.0904  1.1913 -2.4527
  711MOL0     H98060   5.062   3.464   5.161 -0.1828  2.9399 -1.1412
  711MOL0     H98061   5.150   3.682   5.351 -0.5232 -3.3712  1.4629
  711MOL0     H98062   5.246   3.644   5.210 -0.7089 -0.7353 -1.1432
  711MOL0     H98063   5.036   3.671   5.049  0.8936 -0.4769  0.1160
  711MOL0     H98064   5.096   3.821   5.137 -0.6812  1.2124 -1.5220
  711MOL0     H98065   4.873   3.666   5.268  1.2006 -2.0566 -1.0130
  711MOL0     H98066   4.925   3.832   5.286 -3.6533 -0.3381  0.4969
  711MOL0     H98067   4.779   3.574   5.011 -1.2489 -0.9599  1.2044
  711MOL0     H98068   4.509   3.760   4.818  0.9271  0.5017  1.4817
  711MOL0     H98069   4.560   3.598   4.855 -1.4115  0.2993  1.1680
  711MOL0     H98070   4.768   3.646   4.709 -0.1661 -0.8549 -1.0409
  711MOL0     H98071   4.619   3.612   4.633 -0.7623  0.4849  0.0488
  711MOL0     H98072   4.592   3.893   4.651 -0.6915 -0.6212  0.2329
  711MOL0     H98073   4.765   3.897   4.652 -0.0877  0.2576  0.1910
  711MOL0     H98074   4.647   3.929   4.432 -0.9692  0.1790  2.1236
  711MOL0     H98075   4.763   3.785   4.434  1.7123  0.6349  2.6340
  711MOL0     H98076   4.618   3.909   4.229  1.5880 -1.8429 -0.0531
  711MOL0     H98077   4.378   4.044   3.988 -0.2486 -1.4957 -4.4099
  711MOL0     H98078   4.501   3.947   3.911  1.2997  2.3375 -0.5758
  711MOL0     H98079   4.541   4.047   4.057 -0.6611 -0.1419  0.8336
  711MOL0     H98080   3.980   3.973   3.961 -0.1575  0.6925 -0.5956
  711MOL0     H98081   3.763   3.996   3.876  0.0519 -0.6394 -1.8193
  711MOL0     H98082   3.518   3.615   3.751 -1.7448 -0.1667  0.6701
  711MOL0     H98083   3.516   3.606   3.936  1.7790 -0.6165 -0.1206
  711MOL0     H98084   3.316   3.772   3.915 -5.2910 -0.7828 -1.2941
  711MOL0     H98085   3.379   3.801   3.755 -0.1222  1.6232  1.8869
  711MOL0     H98086   3.280   3.563   3.698  2.2629  2.2326 -0.1768
  711MOL0     H98087   3.157   3.679   3.746  1.5752 -0.4600 -4.4685
  711MOL0     H98088   3.141   3.594   3.974 -1.2355  0.0583 -1.2739
  711MOL0     H98089   3.299   3.499   3.954 -1.0198 -2.1865  0.7505
  711MOL0     H98090   3.021   3.440   3.827 -1.9196 -0.8649  5.5063
  711MOL0     H98091   3.172   3.355   3.775  1.2272 -1.1784  1.9060
  711MOL0     H98092   3.073   3.347   4.058  0.3972  1.6377 -0.3568
  711MOL0     H98093   3.219   3.256   3.997 -0.8969 -1.9401  0.1940
  711MOL0     H98094   3.068   3.136   3.844  1.7725  0.7789  0.4774
  711MOL0     H98095   2.922   3.200   3.909 -0.1114 -0.5660 -0.9168
  711MOL0     H98096   2.926   2.996   4.017 -1.0303  0.2346  2.0705
  711MOL0     H98097   2.964   3.109   4.136  0.4620  1.3560  0.2192
  711MOL0     H98098   3.719   3.559   3.922  0.7002  0.4722  4.2997
  711MOL0     H98099   3.937   3.559   3.985 -3.3210  0.5494  1.6457
  711MOL0     H98100   4.207   3.624   4.193  1.2742 -2.3110  0.2066
  711MOL0     H98101   4.354   3.616   4.371 -0.8165 -0.1531 -0.2799
  711MOL0     H98102   4.815   3.114   5.043  0.3094 -1.3961  0.0301
  711MOL0     H98103   4.646   3.061   4.873  0.3912  1.9379 -2.7574
  711MOL0     H98104   4.401   3.185   4.547 -0.5402 -1.3739  1.1553
  711MOL0     H98105   4.203   3.115   4.417  0.2879 -0.4526 -0.9281
  711MOL0     H98106   4.034   2.932   4.408 -0.1382  0.3193 -0.8708
  711MOL0     H98107   4.052   3.047   4.276  1.6663  0.5751  2.5391
  711MOL0     H98108   3.908   2.784   4.291 -0.8083 -0.0374  0.5068
  711MOL0     H98109   3.967   2.834   4.137  1.9178  1.1800  1.2886
  711MOL0     H98110   3.846   3.062   4.191  0.2679  1.1227  3.4313
  711MOL0     H98111   3.758   2.930   4.121 -0.4584 -0.9028 -0.6162
  711MOL0     H98112   3.664   2.869   4.354  3.0244 -2.5115  1.3892
  711MOL0     H98113   3.636   3.040   4.299 -0.1523  0.4539  2.6289
  711MOL0     H98114   3.875   3.052   4.659 -1.1503  1.9300 -0.0820
  711MOL0     H98115   4.397   2.741   4.317  2.9436 -1.2235  3.6971
  711MOL0     H98116   4.615   2.723   4.548 -1.7879 -3.3098 -0.8921
  711MOL0     H98117   4.619   2.694   4.369  0.8095  1.7024 -2.3946
  711MOL0     H98118   4.722   2.813   4.429  0.0957 -0.2739 -0.0804
  712MOL0     O98119   9.480   4.956  11.320 -0.1744  0.0867  0.3277
  712MOL0     C98120   9.434   4.991  11.427  0.0544  0.4699  0.0410
  712MOL0     O98121   9.300   4.977  11.464 -0.4768 -0.8799  0.2455
  712MOL0     C98122   9.229   4.886  11.388 -0.2034  0.3636 -0.9638
  712MOL0     C98123   9.175   4.909  11.265 -0.7621 -0.4195  0.6842
  712MOL0     C98124   9.114   4.818  11.188 -0.1316 -0.5635 -0.3770
  712MOL0     C98125   9.075   4.697  11.241 -0.0306  0.9125 -0.0585
  712MOL0     O98126   8.998   4.608  11.155 -0.5298 -0.3298  0.4743
  712MOL0     C98127   9.055   4.471  11.143  0.4429  0.6840  0.6812
  712MOL0     C98128   8.941   4.404  11.059 -0.4397  0.0383 -1.1373
  712MOL0     C98129   8.928   4.463  10.915  0.3133  0.7526  0.1458
  712MOL0     C98130   8.793   4.433  10.849  0.8929  0.1704 -0.3809
  712MOL0     C98131   8.683   4.533  10.889  0.5678 -0.3151 -0.5266
  712MOL0     C98132   8.702   4.686  10.867 -0.9421  0.9944  0.4411
  712MOL0     C98133   8.777   4.713  10.732  0.5693  0.3585 -0.3672
  712MOL0     C98134   8.756   4.854  10.692  0.6886 -0.3638 -0.1273
  712MOL0     N98135   8.881   4.913  10.655 -0.1365 -0.1526 -0.5022
  712MOL0     C98136   8.977   4.941  10.747  0.1098  1.2377 -0.5035
  712MOL0     C98137   9.068   5.014  10.677  0.0651 -1.2310 -0.3744
  712MOL0     C98138   9.183   5.081  10.741 -0.0232 -0.2730  0.3893
  712MOL0     C98139   9.311   4.992  10.758  0.3774  0.3086 -0.0316
  712MOL0     C98140   9.410   5.064  10.853  0.3376  0.0976 -0.5316
  712MOL0     C98141   9.512   4.968  10.898 -0.5459 -0.2522  0.4620
  712MOL0     O98142   9.577   5.030  11.014  0.0708  0.4769  0.2036
  712MOL0     C98143   9.687   4.960  11.049 -0.3810  0.0861  0.2290
  712MOL0     C98144   9.816   4.989  10.997  0.1222 -0.2256  0.0526
  712MOL0     C98145   9.927   4.905  11.022  0.6082  0.0495 -0.8079
  712MOL0     C98146  10.044   4.948  10.946  0.3017 -0.1934 -0.2462
  712MOL0     C98147   9.914   4.784  11.096 -0.0274  0.1748 -0.8210
  712MOL0     C98148  10.026   4.701  11.139  0.1938 -0.0843 -0.2316
  712MOL0     O98149  10.157   4.753  11.136  0.4351  0.3985  0.8661
  712MOL0     C98150  10.255   4.677  11.187 -0.0414 -0.3549 -0.4285
  712MOL0     C98151  10.312   4.553  11.142  0.5586  0.7690 -0.1430
  712MOL0     C98152  10.418   4.488  11.216  0.7690 -0.6542 -0.3996
  712MOL0     C98153  10.445   4.538  11.339 -0.1069 -0.0748  0.0372
  712MOL0     O98154  10.534   4.472  11.416 -0.5936 -0.0255 -1.1099
  712MOL0     C98155  10.604   4.555  11.511 -0.7644  0.5773 -0.1728
  712MOL0     C98156  10.553   4.557  11.660 -0.7596 -0.3660  0.2165
  712MOL0     C98157  10.567   4.420  11.732 -1.3969 -0.1349  0.3933
  712MOL0     C98158  10.707   4.411  11.805 -0.1161  0.3636  0.0787
  712MOL0     C98159  10.717   4.272  11.875 -0.7644 -0.4259 -0.5674
  712MOL0     C98160  10.855   4.205  11.879 -0.0026 -0.2805  0.3799
  712MOL0     C98161  10.961   4.310  11.929  1.5447  1.2997 -0.5809
  712MOL0     C98162  10.944   4.345  12.073  0.1086 -0.1829  1.1336
  712MOL0    Cl98163  10.992   4.202  12.159  0.1311 -0.4032  0.4173
  712MOL0     C98164  10.372   4.652  11.392  0.1418 -0.2247 -0.4176
  712MOL0     C98165  10.296   4.734  11.307  0.3501 -0.2987  0.6747
  712MOL0     O98166   9.998   4.585  11.175  0.5011 -0.3964  0.4166
  712MOL0     C98167   9.788   4.753  11.144 -0.0910 -0.3512  1.3666
  712MOL0     C98168   9.677   4.840  11.116 -0.0644  0.2742 -0.3924
  712MOL0     N98169   9.033   5.021  10.551  0.2493  0.5502  0.5600
  712MOL0     N98170   8.921   4.958  10.529 -0.3100  0.6145  0.0903
  712MOL0     C98171   9.103   4.675  11.374 -0.3084  0.2323  0.0908
  712MOL0     C98172   9.187   4.770  11.451 -0.2596 -0.3514  0.5602
  712MOL0     C98173   9.534   5.061  11.519  0.3133  0.5236  0.2385
  712MOL0     C98174   9.671   5.047  11.490 -0.0833  0.5140  0.6916
  712MOL0     C98175   9.778   5.119  11.562 -0.0821  0.7570 -0.5063
  712MOL0     C98176   9.744   5.201  11.677  0.2322  0.6423 -0.3825
  712MOL0     O98177   9.826   5.288  11.734  0.1329 -0.1004 -0.1650
  712MOL0     C98178   9.965   5.254  11.734 -0.4757 -1.0820 -0.6778
  712MOL0     C98179  10.049   5.368  11.801  0.2156 -0.4383 -0.1166
  712MOL0     C98180  10.063   5.492  11.710  1.0984 -0.1969 -0.0560
  712MOL0     C98181  10.182   5.577  11.751  0.3793  0.2920  0.3072
  712MOL0     C98182  10.156   5.647  11.877  0.2748  0.4480 -0.2718
  712MOL0     C98183  10.140   5.711  11.981  0.0181  0.8521 -0.3269
  712MOL0     C98184   9.607   5.213  11.701  0.4119 -0.1354  0.1445
  712MOL0     C98185   9.499   5.146  11.634 -0.1559  0.2076  0.6889
  712MOL0     C98186   9.357   5.170  11.681  0.4230  0.5259 -0.5495
  712MOL0     H98187   9.191   5.006  11.220 -0.4477 -0.4911  0.6416
  712MOL0     H98188   9.078   4.846  11.090  0.2810  1.5801  0.0320
  712MOL0     H98189   9.061   4.427  11.243 -2.1889  2.2413  1.6413
  712MOL0     H98190   9.159   4.467  11.110  1.1222 -0.4916  2.7850
  712MOL0     H98191   8.949   4.295  11.065 -0.4526  0.1266  1.8015
  712MOL0     H98192   8.844   4.413  11.107 -0.3977 -1.6200 -0.6502
  712MOL0     H98193   8.935   4.572  10.916 -1.7078  0.9058  1.5615
  712MOL0     H98194   9.005   4.413  10.856  0.9166 -0.4347  1.8547
  712MOL0     H98195   8.800   4.452  10.741 -2.9140 -0.1494 -0.8476
  712MOL0     H98196   8.766   4.330  10.876  0.2948 -0.6399 -3.6303
  712MOL0     H98197   8.668   4.503  10.993  3.1172 -1.9730 -0.5484
  712MOL0     H98198   8.590   4.516  10.834  1.2531 -0.2777 -1.7290
  712MOL0     H98199   8.601   4.729  10.864 -0.9606  0.8981 -0.9790
  712MOL0     H98200   8.760   4.730  10.948  1.3552 -1.6997  0.3852
  712MOL0     H98201   8.747   4.647  10.649  1.9039 -2.5663  1.2944
  712MOL0     H98202   8.880   4.688  10.758  0.1656 -0.7532  0.2469
  712MOL0     H98203   8.698   4.852  10.600 -1.2615 -0.4183  1.0416
  712MOL0     H98204   8.709   4.912  10.772 -0.7327 -3.5215  1.4944
  712MOL0     H98205   8.993   4.913  10.851 -1.0261  0.6115 -0.4811
  712MOL0     H98206   9.152   5.111  10.842  0.9283 -4.9371  2.3445
  712MOL0     H98207   9.220   5.165  10.681  1.2336 -2.2862 -1.8277
  712MOL0     H98208   9.288   4.892  10.795  0.1147  0.3334 -0.1270
  712MOL0     H98209   9.366   4.998  10.664 -1.9470 -2.7628 -1.7753
  712MOL0     H98210   9.458   5.147  10.799  2.5870 -1.0781 -0.4531
  712MOL0     H98211   9.359   5.097  10.944 -0.5836 -2.5439  0.0044
  712MOL0     H98212   9.460   4.873  10.919 -1.3892 -0.2270 -1.3390
  712MOL0     H98213   9.582   4.948  10.816 -0.0754 -1.2358  1.0762
  712MOL0     H98214   9.822   5.074  10.929 -1.3041  0.3740  0.6300
  712MOL0     H98215  10.027   5.022  10.867  1.3853  0.1659 -0.1563
  712MOL0     H98216  10.101   4.864  10.905  1.5930  1.0378 -1.0811
  712MOL0     H98217  10.104   5.011  11.013 -4.2953  2.4111  1.9129
  712MOL0     H98218  10.296   4.525  11.039 -0.8677 -0.4663  0.3602
  712MOL0     H98219  10.478   4.401  11.191  1.8598 -0.6216  1.8077
  712MOL0     H98220  10.708   4.522  11.513  0.2368  3.2537  3.6216
  712MOL0     H98221  10.620   4.658  11.478  1.7006 -0.1852 -1.6199
  712MOL0     H98222  10.616   4.625  11.718  1.2785 -3.4700  1.9074
  712MOL0     H98223  10.449   4.590  11.669 -0.9928 -0.7940 -0.7096
  712MOL0     H98224  10.553   4.340  11.659  1.7080 -1.1094  0.7250
  712MOL0     H98225  10.484   4.416  11.804 -0.1115 -0.6928  1.9084
  712MOL0     H98226  10.715   4.489  11.881 -1.7412 -1.7791  2.6276
  712MOL0     H98227  10.786   4.418  11.731 -1.8162 -0.0835 -1.8930
  712MOL0     H98228  10.668   4.285  11.972  0.4477  0.5201 -0.0482
  712MOL0     H98229  10.660   4.197  11.820  0.7379 -0.5845 -1.9533
  712MOL0     H98230  10.871   4.168  11.778 -3.3521 -0.0374 -0.3838
  712MOL0     H98231  10.844   4.118  11.944  0.6131  0.2294  1.1851
  712MOL0     H98232  10.960   4.391  11.857  0.1243  1.6158 -0.2323
  712MOL0     H98233  11.054   4.252  11.921 -0.2464 -1.9344  0.2059
  712MOL0     H98234  10.849   4.391  12.101  1.1117  4.2529 -1.7304
  712MOL0     H98235  11.017   4.426  12.086  2.6357 -1.7457 -1.9044
  712MOL0     H98236  10.395   4.694  11.489  0.3290 -0.7647 -0.2228
  712MOL0     H98237  10.263   4.830  11.343 -2.2837  0.2736 -2.7364
  712MOL0     H98238   9.768   4.658  11.192 -1.5948  0.3005  2.0725
  712MOL0     H98239   9.576   4.814  11.147 -1.0382  5.7970  2.5730
  712MOL0     H98240   9.072   4.587  11.430 -0.7889  0.2314 -0.1695
  712MOL0     H98241   9.219   4.750  11.552  1.7304  2.0432  0.4943
  712MOL0     H98242   9.697   4.997  11.397 -2.0839  1.0048 -0.1766
  712MOL0     H98243   9.875   5.112  11.513  0.2862 -0.4350  0.3662
  712MOL0     H98244   9.982   5.166  11.797  1.3898  1.6768  3.0958
  712MOL0     H98245   9.994   5.247  11.628  0.1664  2.5802 -0.8660
  712MOL0     H98246  10.147   5.334  11.837  1.7276  0.9905 -2.5600
  712MOL0     H98247  10.001   5.422  11.883  1.4969  1.5493 -0.6000
  712MOL0     H98248  10.065   5.472  11.603 -0.7550  1.6776 -0.5056
  712MOL0     H98249   9.972   5.552  11.724  0.4681 -1.7583  4.2780
  712MOL0     H98250  10.184   5.650  11.670  1.0577  0.2700  0.3026
  712MOL0     H98251  10.277   5.524  11.761 -0.9713 -1.8019  4.1452
  712MOL0     H98252  10.133   5.777  12.065  0.3605  3.3512 -2.1441
  712MOL0     H98253   9.579   5.282  11.780 -1.1819 -0.4289 -0.1386
  712MOL0     H98254   9.306   5.075  11.701  3.1053 -1.6636 -3.1319
  712MOL0     H98255   9.362   5.245  11.760 -1.7010  2.3199 -1.9783
  712MOL0     H98256   9.292   5.215  11.606 -1.7155 -0.5387  0.5735
  713MOL0     O98257   9.513   6.681   8.271  0.1864 -0.2336 -0.6728
  713MOL0     C98258   9.565   6.739   8.365  0.1815  1.1791  0.3278
  713MOL0     O98259   9.494   6.832   8.435  0.0219  0.2040 -0.5283
  713MOL0     C98260   9.382   6.884   8.393  0.4495  0.6518 -0.5635
  713MOL0     C98261   9.260   6.800   8.402  0.6175 -0.2787 -0.5714
  713MOL0     C98262   9.126   6.853   8.382 -0.7527 -0.6637 -0.2171
  713MOL0     C98263   9.115   6.987   8.348  0.0935  1.4902  0.4326
  713MOL0     O98264   9.000   7.049   8.330 -0.0531  0.3504 -0.0803
  713MOL0     C98265   8.876   6.988   8.364  0.3395 -0.4168 -0.8717
  713MOL0     C98266   8.766   7.079   8.396 -0.1852  0.3793 -0.5666
  713MOL0     C98267   8.778   7.174   8.513  0.0830  0.3399  0.0486
  713MOL0     C98268   8.761   7.114   8.647 -0.1102  0.6193 -0.4739
  713MOL0     C98269   8.770   7.218   8.760 -0.7391  0.4706  0.8929
  713MOL0     C98270   8.801   7.138   8.894 -0.4476 -0.0630 -0.4296
  713MOL0     C98271   8.902   7.213   8.986  0.9382  0.0913  0.6967
  713MOL0     C98272   8.923   7.135   9.111 -0.0565 -0.5696 -0.1941
  713MOL0     N98273   9.041   7.178   9.191  0.7567 -0.2267 -0.0199
  713MOL0     C98274   9.172   7.183   9.147 -0.5605  0.3267  0.1905
  713MOL0     C98275   9.240   7.225   9.258 -1.1352 -0.4476  0.2679
  713MOL0     C98276   9.386   7.251   9.269 -0.0629 -0.1119 -0.0983
  713MOL0     C98277   9.421   7.383   9.194 -1.4886 -0.0929  0.0208
  713MOL0     C98278   9.551   7.394   9.105 -1.3123  0.1017  0.0534
  713MOL0     C98279   9.674   7.456   9.165 -0.1199  0.3859 -0.0501
  713MOL0     O98280   9.704   7.378   9.287 -0.0075  0.7502 -0.4594
  713MOL0     C98281   9.820   7.401   9.356 -0.5028 -1.1801 -0.6618
  713MOL0     C98282   9.919   7.495   9.320  0.1127  0.8035  0.1795
  713MOL0     C98283  10.051   7.495   9.373 -0.3449 -0.2814 -1.1743
  713MOL0     C98284  10.157   7.581   9.300 -0.3734 -0.0484  0.1753
  713MOL0     C98285  10.076   7.416   9.489  0.4760 -0.1698  0.4334
  713MOL0     C98286  10.206   7.396   9.550 -0.3279  0.0396  0.0085
  713MOL0     O98287  10.207   7.366   9.682 -0.4308 -0.3689  0.5193
  713MOL0     C98288  10.330   7.352   9.744  1.0087 -0.4491 -0.4098
  713MOL0     C98289  10.353   7.430   9.864 -0.3696 -0.0432 -0.0131
  713MOL0     C98290  10.482   7.429   9.916  0.4537  0.7366  0.2103
  713MOL0     C98291  10.585   7.339   9.872  0.2430 -0.6295 -1.0489
  713MOL0     O98292  10.711   7.335   9.917  0.2178  0.6628 -0.8907
  713MOL0     C98293  10.744   7.423  10.024 -0.2696 -0.3247 -0.8844
  713MOL0     C98294  10.871   7.370  10.073 -1.0735  0.1118 -0.6525
  713MOL0     C98295  10.916   7.406  10.222 -0.9899 -0.3173  0.2680
  713MOL0     C98296  11.047   7.328  10.250  0.4034  0.3351  0.0757
  713MOL0     C98297  11.173   7.379  10.179 -0.1493  0.5093  0.6746
  713MOL0     C98298  11.301   7.336  10.244 -0.5060  0.1939 -0.9219
  713MOL0     C98299  11.352   7.436  10.349  0.1362 -0.6952  0.5189
  713MOL0     C98300  11.259   7.462  10.462 -0.3760 -0.6116 -0.3999
  713MOL0    Cl98301  11.234   7.317  10.562  0.2473 -0.1907 -0.0324
  713MOL0     C98302  10.551   7.247   9.769 -0.6438 -0.5357  0.2290
  713MOL0     C98303  10.427   7.254   9.708  0.1800 -0.3123  0.4855
  713MOL0     O98304  10.304   7.397   9.476  0.2054 -0.9583  0.3074
  713MOL0     C98305   9.971   7.336   9.534  0.6704 -0.4121 -0.6492
  713MOL0     C98306   9.841   7.331   9.472  0.3601  0.2468 -0.0135
  713MOL0     N98307   9.153   7.237   9.360 -0.7786  1.0053  0.1712
  713MOL0     N98308   9.029   7.211   9.318  0.1257 -0.3804 -0.0975
  713MOL0     C98309   9.236   7.058   8.329 -0.1820 -0.4716 -0.1963
  713MOL0     C98310   9.368   7.014   8.353  1.3715  0.1535 -0.8962
  713MOL0     C98311   9.697   6.693   8.421 -0.1357  0.4832 -0.3328
  713MOL0     C98312   9.725   6.745   8.549 -0.7194  0.4918 -0.1941
  713MOL0     C98313   9.857   6.733   8.602  0.0647  1.0386 -0.3041
  713MOL0     C98314   9.948   6.641   8.541 -1.0457 -0.9000  0.2262
  713MOL0     O98315  10.070   6.600   8.595 -0.3350  0.5741  0.7603
  713MOL0     C98316  10.124   6.683   8.688 -0.3592  0.4685 -1.3568
  713MOL0     C98317  10.260   6.627   8.732  0.2095  1.5642  0.0325
  713MOL0     C98318  10.307   6.691   8.861 -0.2057  1.0911 -0.1172
  713MOL0     C98319  10.344   6.836   8.838 -0.3710 -0.4815 -0.7862
  713MOL0     C98320  10.431   6.885   8.945  0.0987 -0.0980 -0.7837
  713MOL0     C98321  10.482   6.924   9.049 -0.5621 -0.0120  0.7013
  713MOL0     C98322   9.916   6.582   8.418  0.5259  1.0246 -0.0332
  713MOL0     C98323   9.789   6.607   8.362 -0.9198  0.6776  0.0893
  713MOL0     C98324   9.757   6.518   8.240 -0.1190 -0.9608 -0.5263
  713MOL0     H98325   9.273   6.695   8.427  2.2380  0.2959  1.2536
  713MOL0     H98326   9.050   6.788   8.422 -1.3287 -0.8179 -1.5270
  713MOL0     H98327   8.890   6.930   8.455 -1.2451  1.3923  0.6187
  713MOL0     H98328   8.843   6.927   8.279 -0.8993  2.4530 -2.6037
  713MOL0     H98329   8.744   7.136   8.306  0.1242  0.2367 -0.7332
  713MOL0     H98330   8.675   7.019   8.398 -0.2945  0.5088 -1.3452
  713MOL0     H98331   8.876   7.222   8.511 -0.1760  1.0357  1.8736
  713MOL0     H98332   8.719   7.266   8.503 -0.7519 -0.4373 -3.4274
  713MOL0     H98333   8.668   7.056   8.656  1.2828 -1.4633  1.5458
  713MOL0     H98334   8.848   7.050   8.661 -0.9040 -0.0426  2.0350
  713MOL0     H98335   8.671   7.262   8.776 -1.7482 -0.2545 -2.4781
  713MOL0     H98336   8.844   7.297   8.746 -0.4660 -0.1614 -1.8250
  713MOL0     H98337   8.702   7.138   8.940 -0.8908  3.7790 -1.0720
  713MOL0     H98338   8.832   7.035   8.874 -0.6033  0.0296 -1.1620
  713MOL0     H98339   8.850   7.309   8.998 -3.1762 -2.0068  1.6356
  713MOL0     H98340   9.000   7.230   8.940  1.9292 -0.3125  2.5589
  713MOL0     H98341   8.835   7.156   9.173 -1.4768  1.1585 -2.6338
  713MOL0     H98342   8.925   7.026   9.100 -1.2385 -0.4637 -1.9570
  713MOL0     H98343   9.211   7.161   9.048 -0.0885 -1.0173  0.6535
  713MOL0     H98344   9.450   7.166   9.242 -0.4529 -0.5715  0.3889
  713MOL0     H98345   9.398   7.269   9.376  0.2821 -1.6868  0.1561
  713MOL0     H98346   9.329   7.398   9.137 -0.9244 -2.7097 -1.7444
  713MOL0     H98347   9.429   7.466   9.264  2.0355  2.4894 -3.0110
  713MOL0     H98348   9.572   7.293   9.071  1.4193  0.7110 -0.3663
  713MOL0     H98349   9.523   7.456   9.019  1.3054  3.0340  1.0907
  713MOL0     H98350   9.761   7.453   9.099 -0.4374 -1.2080 -0.4395
  713MOL0     H98351   9.657   7.560   9.196  1.6474  1.0597 -1.2023
  713MOL0     H98352   9.893   7.556   9.234 -1.2523 -0.2724 -0.2199
  713MOL0     H98353  10.219   7.512   9.241  0.8446  0.1970  1.1355
  713MOL0     H98354  10.211   7.652   9.363  0.0790  0.4576 -0.7634
  713MOL0     H98355  10.108   7.654   9.235 -0.1879  1.3425  1.5483
  713MOL0     H98356  10.284   7.506   9.900  2.6055  3.3757 -0.9132
  713MOL0     H98357  10.507   7.498   9.996  2.3107  0.7577 -0.3365
  713MOL0     H98358  10.757   7.526   9.989 -1.5573 -1.4982 -5.6089
  713MOL0     H98359  10.666   7.411  10.099  0.3082 -2.9200 -0.5995
  713MOL0     H98360  10.890   7.263  10.061  3.3898  0.6441  0.0606
  713MOL0     H98361  10.936   7.424  10.004 -2.7317  0.7802 -1.7647
  713MOL0     H98362  10.830   7.367  10.278 -1.8716  1.1031 -0.0506
  713MOL0     H98363  10.925   7.514  10.237 -1.7317 -0.4603  2.0615
  713MOL0     H98364  11.040   7.224  10.216  0.0304  1.0591 -2.2628
  713MOL0     H98365  11.055   7.319  10.358  3.0815  0.7341 -0.0295
  713MOL0     H98366  11.161   7.339  10.078 -0.1060 -2.1795  1.6461
  713MOL0     H98367  11.172   7.488  10.168 -1.4765  0.4586  0.1011
  713MOL0     H98368  11.373   7.312  10.165 -0.9891 -2.4903 -0.6608
  713MOL0     H98369  11.282   7.240  10.293 -1.7746 -1.3484 -4.1237
  713MOL0     H98370  11.350   7.531  10.295 -2.7481 -0.3930  0.9772
  713MOL0     H98371  11.448   7.405  10.391 -0.2047 -0.1032  1.7958
  713MOL0     H98372  11.164   7.509  10.436 -1.3861  0.5570  4.4367
  713MOL0     H98373  11.316   7.546  10.503 -3.4156  1.2647  0.2874
  713MOL0     H98374  10.625   7.177   9.731 -1.9927 -2.0708  0.3439
  713MOL0     H98375  10.411   7.190   9.621  3.8384  1.1222 -1.4546
  713MOL0     H98376   9.985   7.263   9.613  0.9927  1.5611  1.1929
  713MOL0     H98377   9.765   7.257   9.495 -0.0865  0.3121 -1.2432
  713MOL0     H98378   9.229   7.159   8.289  2.6463 -0.9665 -2.2187
  713MOL0     H98379   9.453   7.082   8.344  2.1933 -0.3396  2.1427
  713MOL0     H98380   9.648   6.790   8.610 -3.4748 -1.5139 -1.9821
  713MOL0     H98381   9.874   6.775   8.700 -0.9776 -1.4214  1.0370
  713MOL0     H98382  10.119   6.788   8.658 -0.7720  0.5880 -0.8735
  713MOL0     H98383  10.050   6.672   8.768  0.4944 -1.8163 -0.7985
  713MOL0     H98384  10.333   6.625   8.651  3.6590  1.5100  2.8678
  713MOL0     H98385  10.242   6.526   8.771 -3.2980  1.9201 -0.3743
  713MOL0     H98386  10.227   6.699   8.935 -1.9097  2.4937 -2.0064
  713MOL0     H98387  10.387   6.632   8.907  0.3911  0.8900 -1.3589
  713MOL0     H98388  10.246   6.884   8.834 -1.9316 -3.4221 -0.2953
  713MOL0     H98389  10.397   6.846   8.742  2.2501  2.0111  0.7565
  713MOL0     H98390  10.526   6.972   9.134 -0.8466  2.1694 -0.3161
  713MOL0     H98391   9.993   6.523   8.369  0.9601  1.4424  0.1369
  713MOL0     H98392   9.819   6.429   8.258  2.5870  1.0990  1.2088
  713MOL0     H98393   9.654   6.482   8.249 -1.6488  3.4050  3.1156
  713MOL0     H98394   9.781   6.561   8.142  0.7394 -1.4081 -0.5253
  714MOL0     O98395   8.074   6.839   2.149 -0.5350  1.1467  0.4370
  714MOL0     C98396   8.110   6.857   2.035 -0.4298 -0.6188  0.1447
  714MOL0     O98397   8.175   6.777   1.950  1.4307 -0.4106 -0.2769
  714MOL0     C98398   8.182   6.645   1.990 -0.8283 -0.2403  0.1226
  714MOL0     C98399   8.311   6.580   1.976 -0.4036  0.3892  0.1768
  714MOL0     C98400   8.328   6.446   2.020  0.3839 -0.8029 -0.1572
  714MOL0     C98401   8.222   6.382   2.068 -0.1488  0.2055  0.7526
  714MOL0     O98402   8.246   6.252   2.102  0.0563  0.1851  0.3712
  714MOL0     C98403   8.141   6.157   2.060 -0.3303 -0.9094  0.8356
  714MOL0     C98404   8.082   6.081   2.176 -0.2246  0.1454 -1.1265
  714MOL0     C98405   8.029   5.941   2.122 -0.8371  0.0689 -1.1423
  714MOL0     C98406   7.900   5.961   2.033 -0.3979 -0.7632 -0.6259
  714MOL0     C98407   7.937   5.969   1.883  0.0257 -0.2068 -0.0963
  714MOL0     C98408   7.800   5.947   1.806 -0.5533  0.0910  0.6612
  714MOL0     C98409   7.827   5.949   1.653  0.7525  0.1441  0.3619
  714MOL0     C98410   7.707   5.876   1.577 -0.1447  0.0293 -0.0631
  714MOL0     N98411   7.605   5.973   1.558 -0.1780 -0.1467 -0.7613
  714MOL0     C98412   7.606   6.096   1.495  0.3111 -0.2741  0.6166
  714MOL0     C98413   7.494   6.156   1.520 -0.4133 -0.0939  0.9618
  714MOL0     C98414   7.456   6.287   1.448 -0.7363  0.5249 -0.4068
  714MOL0     C98415   7.366   6.363   1.537  0.0924 -0.2396  1.0239
  714MOL0     C98416   7.314   6.488   1.464 -0.1555 -0.7646 -0.3596
  714MOL0     C98417   7.266   6.592   1.560 -0.0225  0.4770 -0.3013
  714MOL0     O98418   7.154   6.570   1.645 -0.7222 -0.2012 -0.2615
  714MOL0     C98419   7.027   6.605   1.598 -0.3954  0.9314 -0.1273
  714MOL0     C98420   6.918   6.560   1.672 -0.5048  0.3008 -0.0304
  714MOL0     C98421   6.790   6.579   1.631  0.1242 -0.1752 -0.1346
  714MOL0     C98422   6.676   6.521   1.711 -0.3757 -0.4881  0.6039
  714MOL0     C98423   6.756   6.652   1.514 -0.1583  1.0830  0.6312
  714MOL0     C98424   6.628   6.639   1.438  0.8455 -0.2771  0.3987
  714MOL0     O98425   6.537   6.745   1.449  0.3198  0.1612  0.1492
  714MOL0     C98426   6.555   6.832   1.553 -0.2771 -0.1568  0.2207
  714MOL0     C98427   6.487   6.809   1.669 -1.5120  0.1044 -0.3411
  714MOL0     C98428   6.475   6.903   1.763  0.2930 -0.1285  0.4110
  714MOL0     C98429   6.546   7.021   1.753  0.1553 -0.0320  0.1511
  714MOL0     O98430   6.535   7.117   1.857 -0.4811 -0.0494 -0.1847
  714MOL0     C98431   6.486   7.237   1.795 -0.7510 -0.4537 -0.2421
  714MOL0     C98432   6.406   7.300   1.905 -0.4796 -0.1414 -0.2752
  714MOL0     C98433   6.290   7.210   1.955 -1.0528  1.3540  0.5991
  714MOL0     C98434   6.188   7.284   2.039  0.9556  0.6006 -0.7364
  714MOL0     C98435   6.084   7.189   2.089  0.3614  0.2524  0.1811
  714MOL0     C98436   5.967   7.243   2.181  0.5319  0.0629 -0.8608
  714MOL0     C98437   6.013   7.299   2.313  0.1803  0.3244  0.2470
  714MOL0     C98438   5.899   7.310   2.410 -0.3902 -0.5254 -0.4211
  714MOL0    Cl98439   5.862   7.146   2.463 -0.0784  0.6533 -0.5064
  714MOL0     C98440   6.646   7.031   1.652 -0.7660 -1.7951 -0.3584
  714MOL0     C98441   6.641   6.943   1.550 -0.3065  0.0380 -0.4427
  714MOL0     O98442   6.598   6.533   1.377 -0.0448 -0.3202 -0.6477
  714MOL0     C98443   6.864   6.683   1.434  0.2867 -0.9575  0.1742
  714MOL0     C98444   6.997   6.664   1.474  0.0185 -0.4154 -0.1085
  714MOL0     N98445   7.420   6.072   1.594 -0.1048  0.2547 -0.8259
  714MOL0     N98446   7.487   5.965   1.621 -0.3162 -0.0043  0.4276
  714MOL0     C98447   8.096   6.442   2.094 -0.3753 -1.2204  0.3819
  714MOL0     C98448   8.075   6.572   2.047  0.8598 -0.4560  0.1498
  714MOL0     C98449   8.085   6.991   1.994 -0.4042 -0.0474 -0.0542
  714MOL0     C98450   7.987   7.015   1.896 -0.5498  0.2752 -0.4615
  714MOL0     C98451   7.971   7.144   1.852 -0.1491 -0.0974 -0.0305
  714MOL0     C98452   8.053   7.249   1.886  0.0059  1.1834  1.2385
  714MOL0     O98453   8.024   7.367   1.838  0.8864 -0.1040 -0.3674
  714MOL0     C98454   8.115   7.432   1.752 -0.2632 -0.4837 -0.2340
  714MOL0     C98455   8.050   7.454   1.620 -0.6101  0.0254  0.5692
  714MOL0     C98456   8.063   7.321   1.538 -0.9249 -0.3098  0.2359
  714MOL0     C98457   7.945   7.318   1.427  0.0225 -0.3467 -0.6164
  714MOL0     C98458   7.809   7.290   1.479 -0.7164  0.9409  0.1404
  714MOL0     C98459   7.708   7.265   1.536  0.2916 -0.3691 -0.4288
  714MOL0     C98460   8.150   7.229   1.986  0.6210  0.6774  0.6511
  714MOL0     C98461   8.173   7.100   2.032  0.1882 -0.5149  0.0671
  714MOL0     C98462   8.296   7.085   2.121  0.2273 -1.1438  0.2858
  714MOL0     H98463   8.377   6.655   1.935 -0.7824  0.8221  0.3504
  714MOL0     H98464   8.426   6.402   2.004  0.5545  0.1474 -1.9600
  714MOL0     H98465   8.195   6.086   1.997 -3.5171 -0.6515 -2.5381
  714MOL0     H98466   8.061   6.200   1.998  0.6280 -0.3136 -0.0278
  714MOL0     H98467   8.157   6.064   2.253  0.8426  1.8692 -1.7453
  714MOL0     H98468   8.002   6.138   2.224  0.7860  0.3637  0.3727
  714MOL0     H98469   8.112   5.888   2.073 -0.3767 -2.0662  1.6806
  714MOL0     H98470   8.020   5.885   2.215 -0.6855  2.2786  0.2623
  714MOL0     H98471   7.839   5.871   2.046 -3.1380  1.0919  0.3320
  714MOL0     H98472   7.838   6.050   2.053 -0.2601 -0.8243  0.1098
  714MOL0     H98473   8.004   5.885   1.860  1.3984  1.1591 -1.3041
  714MOL0     H98474   7.994   6.058   1.853 -2.0468  0.9256 -0.8399
  714MOL0     H98475   7.758   5.848   1.828  0.4970 -2.0620 -5.0872
  714MOL0     H98476   7.720   6.019   1.827 -3.4196 -2.1899 -1.5168
  714MOL0     H98477   7.916   5.889   1.630  1.2994  0.8217  0.6485
  714MOL0     H98478   7.830   6.053   1.621 -1.6079 -0.5379 -2.4647
  714MOL0     H98479   7.745   5.841   1.481  2.0915  3.0334 -0.3984
  714MOL0     H98480   7.678   5.796   1.646  0.5434  0.1903  0.4185
  714MOL0     H98481   7.683   6.148   1.439 -0.3567 -1.8606 -1.9710
  714MOL0     H98482   7.419   6.255   1.351 -0.5618 -1.2053  0.0700
  714MOL0     H98483   7.542   6.354   1.445 -1.1003  1.1208  1.0327
  714MOL0     H98484   7.279   6.302   1.566 -0.7606  0.0195 -0.8694
  714MOL0     H98485   7.419   6.383   1.631  0.9995  1.1534  0.2352
  714MOL0     H98486   7.394   6.537   1.408 -0.9899  1.1760  0.0736
  714MOL0     H98487   7.238   6.456   1.392  0.5861 -0.7932 -1.1397
  714MOL0     H98488   7.354   6.602   1.625  0.0218 -1.3617 -0.0513
  714MOL0     H98489   7.246   6.683   1.503 -5.5250  1.0200  1.8507
  714MOL0     H98490   6.937   6.519   1.771 -1.3890 -2.0273 -0.7462
  714MOL0     H98491   6.579   6.529   1.662 -1.7099 -0.4027  3.0940
  714MOL0     H98492   6.664   6.583   1.801 -0.2205  1.1064 -0.4510
  714MOL0     H98493   6.686   6.414   1.735 -0.4298  0.0120  3.2552
  714MOL0     H98494   6.428   6.718   1.671 -1.5455  0.1086 -0.8333
  714MOL0     H98495   6.417   6.880   1.852 -2.0270 -1.6906 -1.3842
  714MOL0     H98496   6.566   7.307   1.770 -2.2555  1.5808  0.2698
  714MOL0     H98497   6.429   7.226   1.702  0.5088  1.9284 -1.4075
  714MOL0     H98498   6.481   7.332   1.978  0.8956  0.7624 -1.9957
  714MOL0     H98499   6.374   7.392   1.856 -0.1729  0.3350  0.4076
  714MOL0     H98500   6.339   7.128   2.008 -1.7634 -0.0934 -0.9337
  714MOL0     H98501   6.240   7.162   1.870  0.8761  0.2444  0.0393
  714MOL0     H98502   6.135   7.351   1.971 -1.1022 -1.9216 -1.7676
  714MOL0     H98503   6.233   7.347   2.117 -0.3852 -0.7173  1.2103
  714MOL0     H98504   6.031   7.144   2.004 -2.5879  0.0747  1.9631
  714MOL0     H98505   6.139   7.106   2.135 -1.2099 -0.2484  1.2305
  714MOL0     H98506   5.897   7.160   2.197 -0.2780  1.0374  0.9955
  714MOL0     H98507   5.917   7.333   2.144 -0.5581  0.9092  2.3579
  714MOL0     H98508   6.058   7.396   2.294 -1.9777  1.8076  2.1563
  714MOL0     H98509   6.079   7.235   2.372 -0.1128  1.1153  1.4768
  714MOL0     H98510   5.813   7.364   2.370 -0.6999  0.3271  1.2946
  714MOL0     H98511   5.934   7.370   2.495  0.0290 -0.2673 -0.7703
  714MOL0     H98512   6.720   7.110   1.649 -1.0790 -1.2946  2.3437
  714MOL0     H98513   6.721   6.941   1.477  0.9647 -5.5581  0.5884
  714MOL0     H98514   6.851   6.714   1.331  2.9617  1.7655  0.5094
  714MOL0     H98515   7.070   6.714   1.412  0.8422  0.4463  1.5206
  714MOL0     H98516   8.015   6.385   2.139 -1.9319  1.5932  1.4553
  714MOL0     H98517   7.982   6.627   2.045  0.4713 -0.9251 -4.1426
  714MOL0     H98518   7.916   6.939   1.864 -0.4778  1.6743 -4.5759
  714MOL0     H98519   7.895   7.162   1.776 -0.1011  1.5150  0.2672
  714MOL0     H98520   8.139   7.535   1.783 -0.1033  0.2718 -2.6790
  714MOL0     H98521   8.201   7.367   1.738 -1.4285 -2.5297  1.4973
  714MOL0     H98522   8.103   7.536   1.572 -0.2826  0.4356  1.6109
  714MOL0     H98523   7.947   7.488   1.638 -0.6823 -1.1070  2.6691
  714MOL0     H98524   8.158   7.337   1.488  0.4130 -1.2808  2.3405
  714MOL0     H98525   8.061   7.230   1.598 -1.5835 -0.6109 -0.2266
  714MOL0     H98526   7.972   7.248   1.348 -4.2908 -0.4968 -2.2593
  714MOL0     H98527   7.938   7.410   1.368  0.4255 -1.9655 -3.3216
  714MOL0     H98528   7.616   7.250   1.589  0.3887 -0.3575 -0.2571
  714MOL0     H98529   8.209   7.314   2.019  0.2718  1.4503 -0.6594
  714MOL0     H98530   8.388   7.089   2.063 -0.0060  1.0870 -0.0347
  714MOL0     H98531   8.311   7.156   2.203 -1.4645  1.4233 -1.4618
  714MOL0     H98532   8.281   6.990   2.172 -0.2887  0.0586  2.5176
  715MOL0     O98533   5.595   7.147   2.184  0.4404  0.3256 -0.2023
  715MOL0     C98534   5.543   7.247   2.136  1.0193  0.5094  0.0253
  715MOL0     O98535   5.572   7.301   2.020 -1.0603  0.0168 -0.3465
  715MOL0     C98536   5.668   7.257   1.934  0.0780  0.6664  0.0299
  715MOL0     C98537   5.764   7.344   1.897  0.1870  0.3297 -0.1677
  715MOL0     C98538   5.860   7.308   1.801 -0.2600 -0.2164 -0.8014
  715MOL0     C98539   5.881   7.179   1.752  1.4994  0.2998  0.1729
  715MOL0     O98540   5.979   7.125   1.674  0.1907  0.1856  0.4185
  715MOL0     C98541   6.064   7.225   1.618  0.2589 -1.1561 -0.0784
  715MOL0     C98542   6.140   7.165   1.501 -0.6387 -0.4983  0.7879
  715MOL0     C98543   6.257   7.265   1.466 -0.1997  0.1735  0.0511
  715MOL0     C98544   6.372   7.187   1.383 -0.3708 -0.4923  0.3626
  715MOL0     C98545   6.349   7.204   1.231 -0.4618 -1.0100 -0.0637
  715MOL0     C98546   6.447   7.135   1.144  0.1057 -0.8925  0.0911
  715MOL0     C98547   6.414   6.991   1.141  0.2930  0.6925  0.2111
  715MOL0     C98548   6.520   6.930   1.057  0.0846 -0.2250  0.9355
  715MOL0     N98549   6.481   6.793   1.008  0.8642  0.1178 -0.5801
  715MOL0     C98550   6.453   6.689   1.087  0.4149  0.9476 -0.2989
  715MOL0     C98551   6.386   6.598   1.011 -0.5670  0.0747 -0.2035
  715MOL0     C98552   6.314   6.475   1.038  0.6793 -0.0637 -0.5668
  715MOL0     C98553   6.307   6.431   1.188 -0.6393 -0.4224  0.2934
  715MOL0     C98554   6.211   6.515   1.273  0.2646  0.1548  0.1254
  715MOL0     C98555   6.252   6.499   1.423  0.4388 -0.2749 -1.0200
  715MOL0     O98556   6.146   6.551   1.512 -0.5849  0.1638 -0.1517
  715MOL0     C98557   6.187   6.579   1.642  0.4332  0.7048 -1.4643
  715MOL0     C98558   6.261   6.491   1.725  0.4399  0.6252  0.4732
  715MOL0     C98559   6.293   6.514   1.860 -0.3439  0.2727 -0.0973
  715MOL0     C98560   6.358   6.396   1.927 -0.5467  1.1333 -0.1636
  715MOL0     C98561   6.256   6.633   1.921 -0.1770 -0.2020 -0.0971
  715MOL0     C98562   6.295   6.677   2.058 -0.9991 -0.0055 -0.1984
  715MOL0     O98563   6.199   6.728   2.143  0.0790 -0.5172 -0.3111
  715MOL0     C98564   6.222   6.778   2.268 -0.4011  0.1926 -0.1993
  715MOL0     C98565   6.317   6.723   2.348 -0.0616  0.2690 -1.0354
  715MOL0     C98566   6.345   6.783   2.474 -0.5548  0.6752 -0.5059
  715MOL0     C98567   6.276   6.892   2.512 -0.1106 -0.5076 -0.5985
  715MOL0     O98568   6.298   6.948   2.633 -0.4554 -0.2232 -0.3814
  715MOL0     C98569   6.209   6.906   2.739 -0.7576 -0.0682  0.1564
  715MOL0     C98570   6.172   7.022   2.838 -0.0999 -0.2613  0.9342
  715MOL0     C98571   6.290   7.099   2.898 -0.8462  0.4333  0.4683
  715MOL0     C98572   6.241   7.203   2.996 -0.4931  0.6073  0.4135
  715MOL0     C98573   6.178   7.145   3.121  0.1781  0.2943  0.3332
  715MOL0     C98574   6.158   7.251   3.228 -0.9233  0.2597  1.5136
  715MOL0     C98575   6.207   7.187   3.362  0.5749  0.1340  0.5453
  715MOL0     C98576   6.177   7.297   3.467 -0.4835  0.3384  0.4732
  715MOL0    Cl98577   6.254   7.240   3.614  0.1302  0.2807  0.1956
  715MOL0     C98578   6.183   6.949   2.430  0.5604 -0.2793 -0.4658
  715MOL0     C98579   6.163   6.895   2.304  0.9520  1.3520  0.6144
  715MOL0     O98580   6.412   6.666   2.088 -0.7807 -0.5788  1.0313
  715MOL0     C98581   6.188   6.732   1.843 -0.2959 -0.2448  0.6880
  715MOL0     C98582   6.150   6.703   1.710  0.8711 -0.3205 -0.0477
  715MOL0     N98583   6.378   6.655   0.885 -0.7517 -0.0640 -0.7829
  715MOL0     N98584   6.426   6.771   0.885  0.3905 -0.7548 -0.3030
  715MOL0     C98585   5.784   7.093   1.794 -0.3353 -0.5722  0.1396
  715MOL0     C98586   5.683   7.126   1.892 -0.4437 -1.1965  0.8834
  715MOL0     C98587   5.450   7.330   2.217 -0.5991  0.3336 -0.0315
  715MOL0     C98588   5.389   7.443   2.157  0.8820 -0.8949 -0.0980
  715MOL0     C98589   5.298   7.521   2.217 -0.4092 -0.9232 -0.1839
  715MOL0     C98590   5.267   7.505   2.346  1.1017  0.0291 -0.2840
  715MOL0     O98591   5.173   7.578   2.418  0.4507 -0.4413 -0.6271
  715MOL0     C98592   5.091   7.689   2.372  0.6536  0.2818 -0.1577
  715MOL0     C98593   4.994   7.735   2.492 -0.2245 -0.3577 -0.4397
  715MOL0     C98594   4.902   7.616   2.546  0.6700  0.5476 -0.1583
  715MOL0     C98595   4.816   7.650   2.666  0.0460  0.2761 -0.8085
  715MOL0     C98596   4.897   7.648   2.786 -0.4502 -1.5650 -0.3101
  715MOL0     C98597   4.968   7.639   2.891 -0.5768  0.0727  0.8334
  715MOL0     C98598   5.335   7.404   2.417 -0.4917 -0.3668  0.3352
  715MOL0     C98599   5.423   7.315   2.355  0.1903 -0.6626  0.7209
  715MOL0     C98600   5.480   7.210   2.447 -0.5266 -0.0492 -0.6446
  715MOL0     H98601   5.761   7.439   1.950 -1.1659 -0.7759  1.8877
  715MOL0     H98602   5.932   7.385   1.775 -2.2561  2.0409 -0.0073
  715MOL0     H98603   6.139   7.261   1.689  0.4567  0.4999 -1.0787
  715MOL0     H98604   6.009   7.304   1.566  2.2011 -0.5302 -1.2995
  715MOL0     H98605   6.185   7.070   1.532  0.3235 -0.6662 -1.0247
  715MOL0     H98606   6.078   7.145   1.414 -0.1719  1.5889 -0.0788
  715MOL0     H98607   6.219   7.328   1.385  0.9555 -2.9866 -3.2230
  715MOL0     H98608   6.281   7.323   1.555 -0.8470  0.4130  0.0734
  715MOL0     H98609   6.470   7.232   1.402 -1.1455  1.6703 -0.4486
  715MOL0     H98610   6.390   7.085   1.419 -0.6870 -0.9460 -0.7250
  715MOL0     H98611   6.357   7.309   1.199 -0.0664 -1.5396 -1.7567
  715MOL0     H98612   6.248   7.172   1.203  0.2049 -2.5604 -0.7495
  715MOL0     H98613   6.446   7.184   1.047 -3.7012  1.0198  0.8897
  715MOL0     H98614   6.548   7.149   1.183 -1.4130  2.4946  3.4995
  715MOL0     H98615   6.322   6.968   1.085  1.4845  3.5550 -3.3257
  715MOL0     H98616   6.411   6.951   1.243 -1.3501  3.7558  1.4912
  715MOL0     H98617   6.528   6.978   0.959 -3.7286  1.0087  1.0593
  715MOL0     H98618   6.613   6.928   1.115  0.8365 -0.4422 -0.2510
  715MOL0     H98619   6.465   6.689   1.195 -2.9311  1.8824  0.1815
  715MOL0     H98620   6.367   6.398   0.981 -1.9123 -0.5027 -2.5606
  715MOL0     H98621   6.216   6.478   0.990 -1.0923 -0.4210  2.6779
  715MOL0     H98622   6.264   6.330   1.196 -1.3334 -0.3396 -1.8351
  715MOL0     H98623   6.411   6.426   1.223 -0.6981  1.3740  0.8066
  715MOL0     H98624   6.192   6.619   1.245  0.5569  0.5995  1.5206
  715MOL0     H98625   6.123   6.449   1.266  3.2668 -4.0935 -2.1259
  715MOL0     H98626   6.263   6.390   1.432 -4.6953 -1.0341 -0.9578
  715MOL0     H98627   6.354   6.531   1.447  0.3145  0.4287 -1.4018
  715MOL0     H98628   6.277   6.391   1.685  2.1670  0.4802  1.4105
  715MOL0     H98629   6.305   6.311   1.882 -0.0321 -1.3142  3.4626
  715MOL0     H98630   6.341   6.394   2.035 -3.3411  1.6841 -0.5185
  715MOL0     H98631   6.465   6.386   1.906 -0.9108 -2.8729 -0.9771
  715MOL0     H98632   6.362   6.626   2.324 -0.7611 -0.9422  2.0880
  715MOL0     H98633   6.410   6.733   2.546  0.4418  2.9606  0.2958
  715MOL0     H98634   6.124   6.854   2.692 -0.9179  1.5516 -1.4475
  715MOL0     H98635   6.264   6.829   2.794  0.9666 -0.3459 -1.8090
  715MOL0     H98636   6.117   7.092   2.774  0.9869 -1.3185 -1.2880
  715MOL0     H98637   6.102   6.992   2.916 -1.1899 -2.4198 -0.7668
  715MOL0     H98638   6.339   7.158   2.821  0.7317 -0.1782  0.9455
  715MOL0     H98639   6.355   7.020   2.938  2.0098  0.9646 -2.6445
  715MOL0     H98640   6.180   7.273   2.939 -1.5089  1.5194  2.5352
  715MOL0     H98641   6.325   7.267   3.023  0.1735 -0.4260  0.8830
  715MOL0     H98642   6.084   7.098   3.092  0.5595 -1.3425  1.5595
  715MOL0     H98643   6.234   7.058   3.156  1.1599  0.4006 -0.9118
  715MOL0     H98644   6.053   7.281   3.229 -1.8303 -1.6680 -3.8622
  715MOL0     H98645   6.221   7.335   3.199 -3.5670  1.8546 -0.0107
  715MOL0     H98646   6.316   7.178   3.365  0.7898  2.3866  1.9186
  715MOL0     H98647   6.157   7.093   3.388  0.2742  0.4998  1.3249
  715MOL0     H98648   6.072   7.308   3.493 -1.0769 -0.3718 -1.4477
  715MOL0     H98649   6.217   7.396   3.444 -3.7190  1.4424 -0.9394
  715MOL0     H98650   6.114   7.032   2.449 -0.3453 -1.1836  0.3131
  715MOL0     H98651   6.081   6.934   2.244  1.0729 -1.5100 -1.6475
  715MOL0     H98652   6.173   6.835   1.875 -0.6988  0.6244 -2.0832
  715MOL0     H98653   6.092   6.781   1.661  1.2478  1.4612  2.2017
  715MOL0     H98654   5.774   6.989   1.768 -1.8698 -0.5272  0.4196
  715MOL0     H98655   5.620   7.045   1.928  2.2742 -3.5569  0.7365
  715MOL0     H98656   5.384   7.455   2.050 -2.4446  1.6972  0.1674
  715MOL0     H98657   5.230   7.584   2.161  1.0999  1.2117  0.2593
  715MOL0     H98658   5.154   7.773   2.341  2.7476 -0.0945  2.7165
  715MOL0     H98659   5.022   7.669   2.290  2.2349  1.2331 -1.8146
  715MOL0     H98660   4.941   7.824   2.456 -1.6168 -0.8289  0.3779
  715MOL0     H98661   5.056   7.770   2.575 -0.0746 -1.2397 -0.1618
  715MOL0     H98662   4.827   7.590   2.471 -0.3095  1.8219  0.3363
  715MOL0     H98663   4.956   7.521   2.555 -0.1377  0.1330  0.4015
  715MOL0     H98664   4.747   7.566   2.678  1.6711 -0.8072  2.3889
  715MOL0     H98665   4.774   7.749   2.647  0.0473  0.8339  1.7289
  715MOL0     H98666   5.029   7.637   2.979 -0.0867 -1.0578  0.4804
  715MOL0     H98667   5.323   7.399   2.525  3.3830 -1.7939  0.8595
  715MOL0     H98668   5.418   7.211   2.537  1.9189 -3.2254  1.2712
  715MOL0     H98669   5.498   7.114   2.398 -1.0281 -1.7769  2.3041
  715MOL0     H98670   5.576   7.253   2.474 -0.5383 -0.8221  0.7129
  716MOL0     O98671   9.689   5.482   1.547  1.2390 -0.3115  0.6258
  716MOL0     C98672   9.641   5.438   1.443  1.3855 -0.2510  1.4216
  716MOL0     O98673   9.533   5.498   1.377 -0.1942 -0.0231  0.1015
  716MOL0     C98674   9.501   5.621   1.430  0.5508 -0.6589 -0.6142
  716MOL0     C98675   9.536   5.744   1.379 -0.2960  0.5494 -0.0251
  716MOL0     C98676   9.513   5.867   1.444 -0.7716 -0.6317  0.0622
  716MOL0     C98677   9.428   5.869   1.559  0.7064 -0.1875 -0.2781
  716MOL0     O98678   9.410   5.983   1.631  0.2386 -1.0204 -0.3787
  716MOL0     C98679   9.430   5.987   1.780 -0.2657  0.1856 -0.2316
  716MOL0     C98680   9.437   6.132   1.837 -0.0573 -0.1322 -0.3856
  716MOL0     C98681   9.322   6.219   1.812  0.6002  0.8540  0.4208
  716MOL0     C98682   9.189   6.200   1.891 -0.9039 -0.1145 -0.7506
  716MOL0     C98683   9.082   6.292   1.816 -0.8886 -0.7126  0.5381
  716MOL0     C98684   8.937   6.247   1.839  0.1638 -0.6549 -0.2516
  716MOL0     C98685   8.906   6.239   1.986 -0.4775 -0.1771 -0.6178
  716MOL0     C98686   8.758   6.275   2.017  0.3648  0.5900  0.3299
  716MOL0     N98687   8.710   6.228   2.147 -0.0612 -0.5793  0.9251
  716MOL0     C98688   8.749   6.282   2.261  0.1058  0.5793  0.6377
  716MOL0     C98689   8.700   6.211   2.358  0.9062 -0.7696 -0.4688
  716MOL0     C98690   8.698   6.242   2.510  0.4141  0.3267  0.5001
  716MOL0     C98691   8.566   6.307   2.546 -0.3163 -0.2242  0.1329
  716MOL0     C98692   8.581   6.355   2.683 -0.2885  0.1364  0.1445
  716MOL0     C98693   8.454   6.419   2.735  1.0440  0.4928  0.3684
  716MOL0     O98694   8.482   6.500   2.846 -0.8194 -0.3760 -0.0611
  716MOL0     C98695   8.514   6.638   2.840  0.2404  0.8875 -0.2735
  716MOL0     C98696   8.586   6.684   2.743 -1.1131 -0.0959 -0.9203
  716MOL0     C98697   8.619   6.824   2.739 -0.0789  0.7370  0.4442
  716MOL0     C98698   8.700   6.868   2.615  0.4282 -0.7144  0.5541
  716MOL0     C98699   8.579   6.906   2.843  0.8017  0.4381  0.3069
  716MOL0     C98700   8.638   7.039   2.871 -0.9476 -0.5661  0.1684
  716MOL0     O98701   8.603   7.101   2.993 -0.3297  0.2365  0.2043
  716MOL0     C98702   8.599   7.241   3.018  0.3395  0.2391  0.6525
  716MOL0     C98703   8.581   7.271   3.157  0.3144  0.5722  0.7850
  716MOL0     C98704   8.566   7.407   3.194  0.6906 -0.2022 -0.0279
  716MOL0     C98705   8.576   7.509   3.108  0.7573 -0.2809 -0.1905
  716MOL0     O98706   8.565   7.644   3.141  0.2964 -0.5542  0.7238
  716MOL0     C98707   8.546   7.684   3.281  0.3144 -0.4942  0.4700
  716MOL0     C98708   8.551   7.834   3.286 -0.1783 -0.3322 -0.7866
  716MOL0     C98709   8.562   7.890   3.437  0.0778 -0.5206  0.0656
  716MOL0     C98710   8.533   8.043   3.439  0.0893  0.1708 -0.2764
  716MOL0     C98711   8.633   8.108   3.535  0.5617  0.2747  0.2741
  716MOL0     C98712   8.600   8.261   3.528  1.2665  0.4770 -0.1148
  716MOL0     C98713   8.713   8.342   3.605  0.1823 -0.1544  0.5528
  716MOL0     C98714   8.692   8.488   3.578  0.3742 -0.1137 -0.1513
  716MOL0    Cl98715   8.762   8.589   3.709 -0.2041  0.0128  0.4151
  716MOL0     C98716   8.590   7.476   2.974  0.3581  0.3586 -1.2386
  716MOL0     C98717   8.598   7.349   2.928 -0.5060 -0.0083 -0.0687
  716MOL0     O98718   8.687   7.104   2.776  0.0106 -0.7729 -0.2935
  716MOL0     C98719   8.493   6.852   2.943 -0.1301  0.5850 -0.0998
  716MOL0     C98720   8.458   6.722   2.931 -0.2876  0.0687  0.0258
  716MOL0     N98721   8.628   6.107   2.305  0.6080 -0.3657 -0.4001
  716MOL0     N98722   8.624   6.126   2.170  0.4233  0.5996 -0.7548
  716MOL0     C98723   9.393   5.745   1.609  0.5513  1.0799 -0.0863
  716MOL0     C98724   9.422   5.622   1.540 -1.2817  0.6567  0.5910
  716MOL0     C98725   9.686   5.307   1.390  0.4677 -0.2301 -0.3765
  716MOL0     C98726   9.756   5.219   1.480 -0.0794 -0.2830  0.5950
  716MOL0     C98727   9.780   5.072   1.452 -0.2896  0.3690  0.8135
  716MOL0     C98728   9.745   5.030   1.329 -0.8190  0.2316 -0.1606
  716MOL0     O98729   9.780   4.899   1.291 -0.3443 -0.1503  0.1523
  716MOL0     C98730   9.873   4.890   1.171  0.5220  0.1238  0.2789
  716MOL0     C98731  10.003   4.952   1.205 -0.4234 -0.3064  0.3066
  716MOL0     C98732  10.066   4.884   1.332  0.8243  0.6024  0.0888
  716MOL0     C98733  10.195   4.938   1.388  0.1252 -1.0294 -0.0136
  716MOL0     C98734  10.170   5.065   1.466  0.6906  0.0604 -0.4281
  716MOL0     C98735  10.126   5.162   1.523 -0.6238  0.3191  0.0640
  716MOL0     C98736   9.680   5.121   1.238  0.6279  0.3114  0.1894
  716MOL0     C98737   9.655   5.257   1.256 -0.6405  0.5753 -0.0320
  716MOL0     C98738   9.583   5.338   1.152  0.3493  0.5703  0.3342
  716MOL0     H98739   9.615   5.745   1.304  3.1250 -0.9964  3.2339
  716MOL0     H98740   9.543   5.961   1.397  1.0523 -1.7656 -1.2022
  716MOL0     H98741   9.520   5.933   1.810 -1.3377 -3.0652 -2.3622
  716MOL0     H98742   9.351   5.934   1.834 -1.1099  0.4996 -1.1238
  716MOL0     H98743   9.459   6.130   1.945  0.0816 -2.8491 -0.3982
  716MOL0     H98744   9.524   6.180   1.791  0.0102  0.7267  0.5919
  716MOL0     H98745   9.354   6.323   1.820  4.0010  0.0745 -1.1749
  716MOL0     H98746   9.299   6.204   1.706  1.9371 -1.8593  0.4261
  716MOL0     H98747   9.152   6.097   1.890 -0.0937 -0.4547  0.9340
  716MOL0     H98748   9.200   6.239   1.993  0.1232  2.9774 -1.9229
  716MOL0     H98749   9.091   6.284   1.708 -0.4880 -0.2796  0.5373
  716MOL0     H98750   9.096   6.398   1.842 -1.3395 -0.9106  1.6404
  716MOL0     H98751   8.867   6.325   1.804 -0.3643  1.8584  5.3593
  716MOL0     H98752   8.911   6.154   1.787  0.1335  0.5839 -2.6066
  716MOL0     H98753   8.962   6.300   2.058 -0.6329 -2.1696  1.2956
  716MOL0     H98754   8.926   6.139   2.025 -1.2446 -0.5480 -1.1599
  716MOL0     H98755   8.758   6.384   2.016 -3.0545  0.6715  0.5044
  716MOL0     H98756   8.692   6.239   1.938 -1.4499  4.3553 -0.0509
  716MOL0     H98757   8.800   6.377   2.275 -0.4791  0.5319  4.1019
  716MOL0     H98758   8.780   6.312   2.531 -1.3639  2.4362  0.6609
  716MOL0     H98759   8.712   6.155   2.575  0.4706  0.5838  0.8374
  716MOL0     H98760   8.561   6.392   2.477  1.4006 -1.8339 -2.1496
  716MOL0     H98761   8.493   6.226   2.539  1.8928 -2.2298 -1.3994
  716MOL0     H98762   8.611   6.278   2.754  0.7802  0.1481 -0.2827
  716MOL0     H98763   8.666   6.424   2.686  0.7218 -0.8779 -2.7781
  716MOL0     H98764   8.396   6.483   2.668 -2.7170 -3.7501 -0.9279
  716MOL0     H98765   8.383   6.347   2.777 -0.4667  1.8447  0.1804
  716MOL0     H98766   8.642   6.626   2.671 -2.1905  1.3164 -2.9732
  716MOL0     H98767   8.799   6.908   2.640  1.0740 -2.3736  0.7936
  716MOL0     H98768   8.645   6.954   2.575  0.9259 -1.4802 -1.9574
  716MOL0     H98769   8.721   6.793   2.538 -2.2192 -0.9008 -0.0651
  716MOL0     H98770   8.561   7.191   3.228  0.0630  2.6649  3.2033
  716MOL0     H98771   8.536   7.438   3.294  0.5174 -1.1193  0.2099
  716MOL0     H98772   8.447   7.648   3.311  0.4803  0.0878  1.8108
  716MOL0     H98773   8.619   7.636   3.347 -1.7931 -0.0472  3.3503
  716MOL0     H98774   8.638   7.861   3.225  0.0440  1.0264  0.0823
  716MOL0     H98775   8.460   7.873   3.240  1.1177  2.1903 -1.4174
  716MOL0     H98776   8.662   7.867   3.475 -0.2153  2.4823  3.0952
  716MOL0     H98777   8.492   7.839   3.504 -2.4772  3.7289  0.9993
  716MOL0     H98778   8.434   8.071   3.478 -0.1406  0.7571 -1.2374
  716MOL0     H98779   8.552   8.083   3.339  0.0078 -0.1611 -0.4237
  716MOL0     H98780   8.626   8.069   3.637  0.6719 -0.7091 -0.0784
  716MOL0     H98781   8.735   8.096   3.499  0.1579 -1.2828 -0.4574
  716MOL0     H98782   8.502   8.280   3.571  0.4521 -3.4197  0.0765
  716MOL0     H98783   8.587   8.295   3.425 -4.1566 -2.2231 -0.6447
  716MOL0     H98784   8.812   8.328   3.560 -1.6312  0.9329 -4.4480
  716MOL0     H98785   8.690   8.330   3.711 -1.5044  1.8151  0.4704
  716MOL0     H98786   8.585   8.513   3.580  0.3097  0.1212 -2.8252
  716MOL0     H98787   8.731   8.529   3.484  0.6576  2.3087  0.9588
  716MOL0     H98788   8.587   7.561   2.907  1.9076  0.6728 -0.9445
  716MOL0     H98789   8.590   7.329   2.822  2.3088 -1.2778 -0.1417
  716MOL0     H98790   8.464   6.909   3.031  2.0044  2.7249 -0.6412
  716MOL0     H98791   8.400   6.676   3.010 -0.7544  0.9321  0.1867
  716MOL0     H98792   9.338   5.738   1.703 -2.9085 -1.7305 -2.0515
  716MOL0     H98793   9.410   5.526   1.588  2.5988 -1.1296 -1.4872
  716MOL0     H98794   9.798   5.257   1.572 -1.1488  2.6124 -0.0159
  716MOL0     H98795   9.835   5.010   1.521 -1.4500 -1.0708  0.4965
  716MOL0     H98796   9.896   4.784   1.163  0.8020  0.1152  1.1293
  716MOL0     H98797   9.829   4.935   1.082 -2.6121  0.7861  2.0072
  716MOL0     H98798   9.990   5.060   1.219  0.7271 -0.4403  3.1226
  716MOL0     H98799  10.079   4.938   1.128 -0.1000 -1.0469  0.7567
  716MOL0     H98800   9.993   4.876   1.414  0.0270 -1.2722 -0.7530
  716MOL0     H98801  10.078   4.785   1.289  2.8784  0.4728  0.8791
  716MOL0     H98802  10.272   4.959   1.314  1.4628 -1.3471  1.2301
  716MOL0     H98803  10.226   4.857   1.455 -2.4263 -2.8084 -0.8113
  716MOL0     H98804  10.079   5.255   1.549 -4.9992 -1.8283  0.8016
  716MOL0     H98805   9.648   5.067   1.150  0.1656 -2.4840  1.9427
  716MOL0     H98806   9.476   5.353   1.171  0.4952 -1.5562  3.6523
  716MOL0     H98807   9.641   5.431   1.149  1.1041  0.0944  0.1103
  716MOL0     H98808   9.581   5.282   1.059 -1.0996  1.1336 -0.0036
  717MOL0     O98809   7.221   3.229   8.371  0.3777  0.3433 -0.0567
  717MOL0     C98810   7.268   3.174   8.471 -0.0595 -0.3034 -0.1865
  717MOL0     O98811   7.240   3.051   8.518  0.5713 -0.0896  0.0913
  717MOL0     C98812   7.151   2.977   8.454  0.0881  0.5664  0.3235
  717MOL0     C98813   7.033   2.950   8.503 -0.2620 -0.1842  0.4079
  717MOL0     C98814   6.936   2.876   8.429  0.0654  0.3210  0.6275
  717MOL0     C98815   6.966   2.826   8.303  0.8197 -0.6828 -0.8349
  717MOL0     O98816   6.883   2.753   8.220 -0.4379  0.0571 -0.0643
  717MOL0     C98817   6.742   2.753   8.243  1.3713 -0.1471  0.7626
  717MOL0     C98818   6.687   2.627   8.186  0.2612  0.1335 -0.3301
  717MOL0     C98819   6.541   2.635   8.136 -0.0400  0.6425 -0.3896
  717MOL0     C98820   6.491   2.488   8.117 -1.2816  0.2247  0.3794
  717MOL0     C98821   6.340   2.473   8.117 -0.2556 -0.9859  0.1136
  717MOL0     C98822   6.289   2.333   8.112 -0.8023  0.7488 -0.4354
  717MOL0     C98823   6.134   2.342   8.135 -0.0343  0.2725  0.2868
  717MOL0     C98824   6.053   2.200   8.141  1.1321 -0.3265  0.2804
  717MOL0     N98825   6.073   2.124   8.012  1.2303  0.2612  0.4710
  717MOL0     C98826   6.028   2.157   7.879 -0.5177 -0.3211 -0.1145
  717MOL0     C98827   6.046   2.042   7.810 -0.5942 -0.3758  1.5111
  717MOL0     C98828   6.011   2.026   7.656  0.1625 -0.0065 -0.1334
  717MOL0     C98829   5.895   1.925   7.643 -0.9941  0.3167 -0.4008
  717MOL0     C98830   5.771   1.978   7.582  0.3724 -0.0587 -0.1946
  717MOL0     C98831   5.703   2.080   7.668 -0.5825  0.0656 -0.6733
  717MOL0     O98832   5.686   2.029   7.807 -0.1574 -0.0126  0.4814
  717MOL0     C98833   5.689   2.111   7.916 -0.5657 -0.1975 -0.5085
  717MOL0     C98834   5.655   2.042   8.036  0.4143  0.6914 -0.2317
  717MOL0     C98835   5.645   2.119   8.154  0.1354 -0.7706  0.3797
  717MOL0     C98836   5.610   2.052   8.282  0.5401  0.5667 -1.6304
  717MOL0     C98837   5.671   2.257   8.152 -0.2858 -0.5544  0.0606
  717MOL0     C98838   5.674   2.341   8.277  0.3820 -0.0350 -0.8771
  717MOL0     O98839   5.576   2.427   8.279  0.1905 -0.4064  0.6297
  717MOL0     C98840   5.571   2.509   8.393  0.0706  0.7400  0.3245
  717MOL0     C98841   5.488   2.489   8.501 -0.2011 -0.2431 -0.0180
  717MOL0     C98842   5.491   2.571   8.614  0.0989  0.0868  0.4597
  717MOL0     C98843   5.572   2.692   8.612 -0.1365 -0.2489  0.3753
  717MOL0     O98844   5.575   2.779   8.711  1.0740 -0.8315  0.9232
  717MOL0     C98845   5.563   2.730   8.844 -0.0506 -0.5309  0.2231
  717MOL0     C98846   5.587   2.846   8.945 -0.3723 -0.7324 -0.4507
  717MOL0     C98847   5.471   2.944   8.945  0.0942  0.6365 -0.3262
  717MOL0     C98848   5.505   3.076   9.011 -0.2409 -0.7625 -0.6376
  717MOL0     C98849   5.377   3.139   9.063  0.4241  0.3265 -0.1589
  717MOL0     C98850   5.289   3.181   8.950 -0.0856 -1.0062  0.4502
  717MOL0     C98851   5.313   3.319   8.888  0.2642 -1.1461  0.0358
  717MOL0     C98852   5.295   3.327   8.731  0.4932  0.3999 -0.8559
  717MOL0    Cl98853   5.405   3.222   8.636 -0.2080 -0.3557  0.4309
  717MOL0     C98854   5.658   2.710   8.499  0.8110  0.0384  0.2088
  717MOL0     C98855   5.658   2.619   8.398 -0.6537 -0.8603 -0.5077
  717MOL0     O98856   5.769   2.335   8.358  0.4707  0.1658  0.6365
  717MOL0     C98857   5.706   2.323   8.028  0.9617  0.9238 -0.8292
  717MOL0     C98858   5.712   2.242   7.916 -1.3051 -0.2799 -0.2923
  717MOL0     N98859   6.113   1.954   7.890  0.4393 -0.0661  0.6925
  717MOL0     N98860   6.118   2.002   8.008  0.4933  0.7192  0.7356
  717MOL0     C98861   7.094   2.852   8.255 -0.9215  0.0694  0.2263
  717MOL0     C98862   7.190   2.927   8.325  1.4478  0.1172 -1.2256
  717MOL0     C98863   7.388   3.228   8.542  0.5015 -0.0313  0.6853
  717MOL0     C98864   7.407   3.187   8.677 -1.1614 -0.4482  1.2060
  717MOL0     C98865   7.524   3.220   8.744 -0.6050  0.2081 -0.8632
  717MOL0     C98866   7.623   3.305   8.690 -0.5608  0.7804  0.2119
  717MOL0     O98867   7.746   3.336   8.751  0.1617  0.3602  0.6920
  717MOL0     C98868   7.754   3.316   8.889 -0.6602 -0.6632  1.1970
  717MOL0     C98869   7.908   3.353   8.924  0.1463  0.7219  0.1722
  717MOL0     C98870   7.919   3.506   8.924 -0.1191  0.4940  0.3460
  717MOL0     C98871   8.048   3.537   9.004  0.4345  0.6535  0.4274
  717MOL0     C98872   8.061   3.683   8.996 -0.0329  0.2174  0.0369
  717MOL0     C98873   8.052   3.803   8.981 -0.2431 -0.3350  0.4708
  717MOL0     C98874   7.598   3.360   8.565  1.0294 -0.5114 -0.6969
  717MOL0     C98875   7.479   3.324   8.496 -0.3401  0.9737 -0.7948
  717MOL0     C98876   7.460   3.394   8.366  0.1468 -0.1196 -0.6039
  717MOL0     H98877   7.015   2.987   8.603 -2.1286  1.5155 -0.4958
  717MOL0     H98878   6.842   2.859   8.480  0.7378 -4.7657  0.7080
  717MOL0     H98879   6.700   2.839   8.190  0.5313 -0.6126  0.6592
  717MOL0     H98880   6.710   2.749   8.347 -1.6313  1.3247  0.0055
  717MOL0     H98881   6.756   2.594   8.108  0.7431 -0.5060  0.3468
  717MOL0     H98882   6.685   2.556   8.269  1.6142 -0.0710 -0.4524
  717MOL0     H98883   6.486   2.684   8.216  1.1642 -1.5977  1.9338
  717MOL0     H98884   6.525   2.685   8.040 -0.8739  0.2582 -0.4585
  717MOL0     H98885   6.536   2.445   8.028 -3.1828 -0.1761 -0.4349
  717MOL0     H98886   6.521   2.427   8.203 -0.7929  1.9479  1.4941
  717MOL0     H98887   6.311   2.526   8.025  1.2188 -2.1266 -1.0463
  717MOL0     H98888   6.312   2.536   8.202  1.7735  1.2701 -0.7507
  717MOL0     H98889   6.327   2.280   8.024  3.0338 -1.0770  2.0466
  717MOL0     H98890   6.342   2.276   8.189 -1.0136 -2.8924 -2.7655
  717MOL0     H98891   6.094   2.398   8.049  0.6774 -3.3924 -2.6716
  717MOL0     H98892   6.104   2.397   8.225  0.7076  1.7295 -0.3293
  717MOL0     H98893   6.092   2.143   8.226  2.6277  0.2333  0.0045
  717MOL0     H98894   5.946   2.217   8.158  1.5956 -0.2925  3.8392
  717MOL0     H98895   5.976   2.241   7.835  1.5410  0.9382 -0.2520
  717MOL0     H98896   6.100   1.979   7.613  1.1116 -0.2917  2.0151
  717MOL0     H98897   5.977   2.118   7.608 -0.5998 -1.3046 -2.2086
  717MOL0     H98898   5.922   1.838   7.583  1.2716  2.0096 -2.0006
  717MOL0     H98899   5.879   1.876   7.739  1.4020  2.1205  1.0493
  717MOL0     H98900   5.794   2.014   7.481  0.2553  1.0101  0.1466
  717MOL0     H98901   5.695   1.900   7.574 -2.2345  2.3808 -1.0135
  717MOL0     H98902   5.770   2.167   7.666  1.1867 -1.1221  1.8418
  717MOL0     H98903   5.606   2.097   7.621 -1.9639  2.5360  2.7230
  717MOL0     H98904   5.634   1.935   8.034 -2.0656  1.1067  0.5142
  717MOL0     H98905   5.684   2.068   8.361 -0.3653  1.1394 -0.8654
  717MOL0     H98906   5.603   1.947   8.251 -0.3911 -0.5895  2.0337
  717MOL0     H98907   5.516   2.090   8.324  0.4639 -0.6114 -0.6928
  717MOL0     H98908   5.432   2.397   8.492  1.7137 -2.3843  5.3867
  717MOL0     H98909   5.424   2.555   8.697  0.5722  0.8063  0.9962
  717MOL0     H98910   5.464   2.687   8.862 -0.3061 -1.4721 -2.8236
  717MOL0     H98911   5.653   2.667   8.848 -0.0212 -0.6218 -1.3405
  717MOL0     H98912   5.595   2.810   9.048 -1.2946 -1.2431 -0.5543
  717MOL0     H98913   5.685   2.892   8.927  0.1383 -1.4246  0.4250
  717MOL0     H98914   5.384   2.891   8.983  0.4982  0.0700 -0.1797
  717MOL0     H98915   5.455   2.968   8.839  1.2576  2.8048 -0.0824
  717MOL0     H98916   5.560   3.143   8.943  0.1939  1.2959  1.5837
  717MOL0     H98917   5.573   3.052   9.093 -2.2606 -1.2678  0.9554
  717MOL0     H98918   5.315   3.073   9.126 -2.2587  3.6989  1.0291
  717MOL0     H98919   5.403   3.230   9.117 -0.9855  1.5613 -1.4689
  717MOL0     H98920   5.193   3.189   9.000 -0.7372 -1.2620 -0.7241
  717MOL0     H98921   5.294   3.108   8.868  1.3161  0.5936 -0.9729
  717MOL0     H98922   5.416   3.353   8.901 -0.3738  1.2712 -0.6528
  717MOL0     H98923   5.243   3.390   8.932  2.1450  0.3276  0.7823
  717MOL0     H98924   5.320   3.426   8.692 -1.6505  0.1379 -3.1261
  717MOL0     H98925   5.190   3.299   8.714  0.9607 -2.0301 -0.1460
  717MOL0     H98926   5.718   2.799   8.488 -1.6528  1.5968 -1.8654
  717MOL0     H98927   5.713   2.635   8.305 -2.7943  0.9272 -1.5721
  717MOL0     H98928   5.737   2.427   8.026 -0.3211  1.5546  2.9114
  717MOL0     H98929   5.718   2.292   7.820 -1.7471  0.6060  0.1290
  717MOL0     H98930   7.110   2.801   8.161 -0.2161  2.9647 -1.3562
  717MOL0     H98931   7.288   2.946   8.282  0.8899  1.2689 -2.0740
  717MOL0     H98932   7.336   3.120   8.724  2.1061 -3.9285  1.6983
  717MOL0     H98933   7.548   3.164   8.833 -1.8890 -0.2583 -0.7898
  717MOL0     H98934   7.687   3.387   8.937 -0.1008 -0.2527  1.3810
  717MOL0     H98935   7.745   3.217   8.935 -1.6906 -0.2725  1.8534
  717MOL0     H98936   7.966   3.314   8.839  1.5501  0.9489  1.0026
  717MOL0     H98937   7.931   3.316   9.024 -0.9377 -0.3469  0.0583
  717MOL0     H98938   7.935   3.540   8.821 -0.0823 -1.0935 -0.1874
  717MOL0     H98939   7.833   3.555   8.969  0.2536  2.5823 -1.0371
  717MOL0     H98940   8.125   3.492   8.942  0.0512  1.1317 -0.4109
  717MOL0     H98941   8.052   3.498   9.106  0.6939  1.7764  0.8616
  717MOL0     H98942   8.030   3.907   8.975  1.8012  0.0511 -1.2955
  717MOL0     H98943   7.683   3.415   8.527  2.9137 -3.1246 -0.4819
  717MOL0     H98944   7.556   3.438   8.336 -0.0632  0.2079 -0.8016
  717MOL0     H98945   7.410   3.337   8.288 -1.9791 -1.7026  1.7887
  717MOL0     H98946   7.383   3.469   8.385  0.1420 -0.2512 -0.0853
  718MOL0     O98947  11.032  11.193   7.679 -0.4880 -0.1089 -0.2532
  718MOL0     C98948  11.058  11.271   7.768 -0.3976  0.0423 -0.1698
  718MOL0     O98949  11.156  11.376   7.757 -0.8574 -0.4892  0.0834
  718MOL0     C98950  11.190  11.406   7.628  0.5116 -0.6712 -0.2922
  718MOL0     C98951  11.288  11.341   7.561 -0.3609  0.1386  1.0360
  718MOL0     C98952  11.308  11.357   7.430  0.0377  0.0917  0.1633
  718MOL0     C98953  11.234  11.447   7.350  0.4633  0.3791  0.5162
  718MOL0     O98954  11.248  11.476   7.217 -0.1928  1.1544  0.7373
  718MOL0     C98955  11.369  11.412   7.157  0.9249 -0.5722  0.2582
  718MOL0     C98956  11.381  11.476   7.016  0.2516  1.0218 -0.1288
  718MOL0     C98957  11.348  11.625   7.010  0.2331 -1.1403  0.1837
  718MOL0     C98958  11.387  11.696   6.874 -0.0017 -0.0643 -0.3745
  718MOL0     C98959  11.331  11.847   6.885  0.1926  0.8642  0.5655
  718MOL0     C98960  11.380  11.948   6.782 -0.2168  0.0053 -0.2047
  718MOL0     C98961  11.299  12.088   6.796 -0.4756  0.7871 -0.1592
  718MOL0     C98962  11.365  12.194   6.700 -0.4793  1.5249  0.2064
  718MOL0     N98963  11.386  12.136   6.563  0.2691 -0.2031 -0.6018
  718MOL0     C98964  11.288  12.108   6.473  0.1843 -0.1031 -0.4136
  718MOL0     C98965  11.349  12.098   6.352  0.4566  1.1798 -0.0044
  718MOL0     C98966  11.283  12.097   6.220  0.0267 -1.2698  0.2502
  718MOL0     C98967  11.378  12.142   6.110 -0.5897 -0.1397 -0.3284
  718MOL0     C98968  11.294  12.103   5.982  0.3898 -0.6088 -0.4583
  718MOL0     C98969  11.345  12.179   5.859  0.4611  0.4601 -0.0147
  718MOL0     O98970  11.479  12.181   5.827 -0.2518 -0.0888 -0.3925
  718MOL0     C98971  11.576  12.276   5.862  0.1329 -0.7016 -0.8194
  718MOL0     C98972  11.699  12.236   5.821 -0.3470 -0.3575 -0.6086
  718MOL0     C98973  11.808  12.316   5.858  0.5452  0.8935  0.3432
  718MOL0     C98974  11.942  12.253   5.839  0.4526 -0.6102  1.4638
  718MOL0     C98975  11.799  12.433   5.919  0.3439 -0.7228 -0.5992
  718MOL0     C98976  11.916  12.527   5.940 -0.1071 -0.1987  0.0675
  718MOL0     O98977  11.894  12.610   6.045 -0.2073 -0.1813  0.5247
  718MOL0     C98978  11.991  12.711   6.074  0.9613 -0.0256  0.2459
  718MOL0     C98979  12.010  12.810   5.972  0.8008 -0.1398  0.6946
  718MOL0     C98980  12.078  12.927   6.000  0.0565  0.6278  0.0678
  718MOL0     C98981  12.133  12.944   6.128 -0.4507 -0.2044 -0.3397
  718MOL0     O98982  12.203  13.060   6.161 -0.3361  0.1697  0.3122
  718MOL0     C98983  12.187  13.180   6.075 -0.3483  0.0030  0.6590
  718MOL0     C98984  12.225  13.310   6.157  0.2315  0.9160  0.3852
  718MOL0     C98985  12.230  13.429   6.068  0.0489 -0.5472  0.8059
  718MOL0     C98986  12.102  13.479   5.997 -0.8061 -0.1331  0.2100
  718MOL0     C98987  12.129  13.614   5.924 -0.4070 -0.4741  0.6152
  718MOL0     C98988  12.148  13.731   6.022  0.4880  0.1584  0.0522
  718MOL0     C98989  12.175  13.866   5.956 -0.3518  0.2215  0.5789
  718MOL0     C98990  12.163  13.986   6.046 -0.0954  0.7345  0.0573
  718MOL0    Cl98991  12.308  13.988   6.142 -0.1100 -0.2388  0.0695
  718MOL0     C98992  12.119  12.844   6.222 -0.2922 -0.7066  0.6569
  718MOL0     C98993  12.049  12.723   6.191 -0.1075  0.0693 -0.4669
  718MOL0     O98994  12.017  12.527   5.868  0.5004  0.1842  0.1481
  718MOL0     C98995  11.669  12.470   5.962  1.0577 -0.1896  0.0612
  718MOL0     C98996  11.554  12.397   5.935 -0.6153  0.9895 -0.1053
  718MOL0     N98997  11.484  12.112   6.381  0.1903  0.7650 -0.3686
  718MOL0     N98998  11.502  12.138   6.499 -0.0950  0.1723  0.4325
  718MOL0     C98999  11.127  11.504   7.413  0.0756 -0.6629 -0.0548
  718MOL0     C99000  11.113  11.487   7.552  0.5467  0.4551 -0.1559
  718MOL0     C99001  10.994  11.266   7.898 -0.5415 -0.7140 -1.0792
  718MOL0     C99002  10.897  11.363   7.924 -0.3224 -0.0519 -2.0643
  718MOL0     C99003  10.826  11.370   8.043 -0.0652 -0.7152 -0.3887
  718MOL0     C99004  10.845  11.269   8.138  0.0029 -1.1277 -0.3927
  718MOL0     O99005  10.769  11.276   8.251 -0.3504 -0.0510  0.3131
  718MOL0     C99006  10.848  11.313   8.367  0.1654  0.3320  0.1563
  718MOL0     C99007  10.845  11.198   8.471  0.1955  0.0134  0.0666
  718MOL0     C99008  10.702  11.182   8.520  1.0092  0.4984  0.3465
  718MOL0     C99009  10.665  11.054   8.593 -0.2472 -1.1710 -0.5471
  718MOL0     C99010  10.630  10.946   8.499  0.4462  0.2138 -0.6382
  718MOL0     C99011  10.608  10.855   8.423 -0.5453 -0.4269  0.4984
  718MOL0     C99012  10.938  11.173   8.117 -0.5989 -0.3127  0.2677
  718MOL0     C99013  11.017  11.171   7.999  0.0759  0.4185 -0.0672
  718MOL0     C99014  11.130  11.070   7.978 -0.5328 -0.7864 -0.1927
  718MOL0     H99015  11.342  11.261   7.613  1.6087  1.2582  0.8006
  718MOL0     H99016  11.389  11.295   7.392 -2.6598 -2.7135 -1.3662
  718MOL0     H99017  11.341  11.307   7.157 -1.8140  0.0871  0.3767
  718MOL0     H99018  11.459  11.437   7.215  0.4465  2.0938 -0.0197
  718MOL0     H99019  11.483  11.464   6.978 -0.9375 -5.1692 -2.6267
  718MOL0     H99020  11.322  11.421   6.942  1.5897 -0.5610 -0.0660
  718MOL0     H99021  11.241  11.647   7.016  0.8818  2.6961  0.5752
  718MOL0     H99022  11.399  11.685   7.086  0.4282 -0.4198 -0.5077
  718MOL0     H99023  11.495  11.689   6.863  0.2716 -0.2007  1.8908
  718MOL0     H99024  11.356  11.629   6.794  1.6283 -0.7050 -0.5075
  718MOL0     H99025  11.363  11.871   6.987 -0.5423  0.7934  0.8176
  718MOL0     H99026  11.222  11.847   6.890  0.1011  3.3639 -0.0519
  718MOL0     H99027  11.484  11.968   6.808 -1.0881  1.5413  2.4749
  718MOL0     H99028  11.376  11.902   6.683  1.9239  3.2830 -1.9990
  718MOL0     H99029  11.282  12.120   6.899  2.1471 -0.0962  0.6083
  718MOL0     H99030  11.200  12.073   6.751  0.9066 -2.6375 -2.4864
  718MOL0     H99031  11.311  12.288   6.688  1.3089  2.7765  1.4244
  718MOL0     H99032  11.456  12.216   6.756 -0.8582 -0.0124  1.5135
  718MOL0     H99033  11.183  12.093   6.497  0.7903 -2.9581  0.7816
  718MOL0     H99034  11.206  12.174   6.221 -1.0266 -2.3138  0.5950
  718MOL0     H99035  11.227  12.006   6.200  0.4824 -1.9772  2.0406
  718MOL0     H99036  11.400  12.249   6.110 -3.2263  0.5210 -2.0446
  718MOL0     H99037  11.471  12.086   6.121 -1.2590 -1.5016 -1.2982
  718MOL0     H99038  11.309  11.996   5.965 -2.9975 -1.0568 -1.3786
  718MOL0     H99039  11.185  12.114   5.982  0.5381  1.1444  0.2698
  718MOL0     H99040  11.301  12.144   5.765  4.1351  1.2709 -2.2060
  718MOL0     H99041  11.331  12.286   5.870  0.4325  0.6717 -1.7900
  718MOL0     H99042  11.719  12.139   5.778  0.6325 -1.1413  1.5060
  718MOL0     H99043  11.991  12.287   5.748 -1.6166 -0.0611  0.4958
  718MOL0     H99044  11.930  12.144   5.835  2.1237 -0.8347  2.1698
  718MOL0     H99045  12.009  12.284   5.919  1.3589  1.6986 -0.0890
  718MOL0     H99046  11.963  12.783   5.878 -1.4044 -0.9842  1.9800
  718MOL0     H99047  12.091  13.001   5.921  0.1026 -0.5592 -1.0791
  718MOL0     H99048  12.254  13.175   5.989  0.9880  0.3014  1.6448
  718MOL0     H99049  12.083  13.194   6.045 -1.6287 -0.0106  4.4940
  718MOL0     H99050  12.139  13.329   6.222 -3.9641 -0.6179 -4.0645
  718MOL0     H99051  12.315  13.293   6.216 -2.0337 -1.2874  3.5498
  718MOL0     H99052  12.306  13.422   5.989 -3.0801 -3.3048 -2.2585
  718MOL0     H99053  12.266  13.501   6.142  2.3122  0.0231 -0.7465
  718MOL0     H99054  12.023  13.486   6.072 -0.3050 -3.2623  1.1880
  718MOL0     H99055  12.068  13.406   5.923 -1.1648 -1.3710  1.5608
  718MOL0     H99056  12.219  13.599   5.863 -1.0127  0.6876 -0.6066
  718MOL0     H99057  12.044  13.632   5.857 -2.2355 -1.6314  2.5201
  718MOL0     H99058  12.233  13.706   6.086 -0.0998 -1.7127  0.1564
  718MOL0     H99059  12.061  13.755   6.084  0.8058  0.9624  0.2014
  718MOL0     H99060  12.101  13.876   5.876 -0.9434 -1.7030  0.8402
  718MOL0     H99061  12.277  13.855   5.917 -0.1085  0.0192  1.2495
  718MOL0     H99062  12.071  13.981   6.105  0.1773 -0.8200  0.4088
  718MOL0     H99063  12.165  14.074   5.981  3.3464  0.6238 -0.1403
  718MOL0     H99064  12.174  12.862   6.314  0.8447  1.2720 -0.3432
  718MOL0     H99065  12.033  12.649   6.269  2.0010  2.8700  2.9276
  718MOL0     H99066  11.653  12.567   6.008  2.9575  0.2696 -0.1669
  718MOL0     H99067  11.460  12.447   5.957 -0.2606  0.3930  3.2828
  718MOL0     H99068  11.051  11.550   7.351  2.3618  0.3999 -2.2488
  718MOL0     H99069  11.026  11.528   7.602 -1.6661 -2.6015 -1.2330
  718MOL0     H99070  10.873  11.426   7.838 -2.7261 -0.1988 -1.5791
  718MOL0     H99071  10.748  11.440   8.072  0.1471 -1.4887  2.3285
  718MOL0     H99072  10.956  11.323   8.350 -0.0555  0.2753 -1.4276
  718MOL0     H99073  10.807  11.410   8.398  0.6415  1.1545 -1.6026
  718MOL0     H99074  10.901  11.217   8.563  0.3718  1.6054 -0.3337
  718MOL0     H99075  10.889  11.108   8.427 -0.2256 -1.4324  2.4564
  718MOL0     H99076  10.675  11.274   8.573 -0.0946  0.1279  0.4406
  718MOL0     H99077  10.639  11.183   8.431 -0.3920  0.2354  1.3124
  718MOL0     H99078  10.581  11.082   8.656 -0.0566 -3.6388  0.9149
  718MOL0     H99079  10.753  11.029   8.653  0.4177  4.8664  1.7465
  718MOL0     H99080  10.581  10.779   8.352 -2.3522  1.5904 -1.1402
  718MOL0     H99081  10.956  11.106   8.200 -0.0579  1.3950  1.5957
  718MOL0     H99082  11.230  11.114   7.975 -0.3914 -0.8383  2.1982
  718MOL0     H99083  11.138  11.007   8.067  4.0381 -2.2183 -1.3699
  718MOL0     H99084  11.129  11.007   7.888 -0.3333 -1.0191 -0.0338
  719MOL0     O99085   6.299   0.717   0.888  0.1745 -0.5740  0.3936
  719MOL0     C99086   6.414   0.728   0.942 -0.1577 -0.0396  0.3525
  719MOL0     O99087   6.509   0.633   0.916 -0.1123 -0.1034 -0.7427
  719MOL0     C99088   6.495   0.524   0.838 -0.1297 -0.7397  0.0684
  719MOL0     C99089   6.456   0.541   0.704  1.5630 -0.3616 -0.0265
  719MOL0     C99090   6.454   0.430   0.614  0.1853  0.4781 -0.4883
  719MOL0     C99091   6.484   0.295   0.667 -0.0073 -0.8212 -0.1823
  719MOL0     O99092   6.499   0.180   0.586 -0.2179 -0.3618  0.1430
  719MOL0     C99093   6.367   0.126   0.570  0.5466 -0.3336 -0.2260
  719MOL0     C99094   6.289   0.181   0.455  0.7025 -0.8707  0.0788
  719MOL0     C99095   6.171   0.087   0.424  0.4410 -0.6100  0.2598
  719MOL0     C99096   6.188   0.007   0.288  0.1715 -0.5242  0.3342
  719MOL0     C99097   6.081  -0.088   0.262 -0.5716  0.3328 -0.6729
  719MOL0     C99098   6.116  -0.187   0.145  0.3713 -0.2414 -0.3044
  719MOL0     C99099   6.120  -0.127   0.008  1.3435 -0.5224  0.9777
  719MOL0     C99100   6.160  -0.219  -0.108 -0.1837 -0.3152 -0.5903
  719MOL0     N99101   6.294  -0.268  -0.086 -0.7044 -0.4365 -0.0153
  719MOL0     C99102   6.412  -0.189  -0.061 -0.3858 -0.2634  0.0381
  719MOL0     C99103   6.496  -0.293  -0.015  0.2746  0.4111  0.4807
  719MOL0     C99104   6.638  -0.269   0.033  0.1616 -0.5066  0.5223
  719MOL0     C99105   6.737  -0.346  -0.056 -0.3253 -0.1873 -0.6892
  719MOL0     C99106   6.773  -0.272  -0.185 -0.7124 -0.4179 -0.7583
  719MOL0     C99107   6.880  -0.333  -0.259 -0.1721  0.4233  0.5735
  719MOL0     O99108   7.009  -0.302  -0.200 -0.3923 -0.2347 -0.5880
  719MOL0     C99109   7.109  -0.390  -0.219  1.0839 -0.0300 -0.4219
  719MOL0     C99110   7.205  -0.393  -0.119 -0.3760 -0.3746  0.2856
  719MOL0     C99111   7.309  -0.489  -0.118  1.0706 -0.6140  0.1061
  719MOL0     C99112   7.418  -0.468  -0.009  0.3764 -0.3355 -0.5353
  719MOL0     C99113   7.312  -0.590  -0.209 -0.2305  0.0828  1.0615
  719MOL0     C99114   7.397  -0.706  -0.211 -0.6529  0.1855  0.9377
  719MOL0     O99115   7.402  -0.779  -0.326 -0.0404 -0.8381 -0.2875
  719MOL0     C99116   7.517  -0.846  -0.355  0.3810 -0.3352  0.1801
  719MOL0     C99117   7.556  -0.958  -0.276  0.2701  0.2023 -0.2150
  719MOL0     C99118   7.667  -1.031  -0.313 -0.5430 -0.1037 -0.0817
  719MOL0     C99119   7.757  -0.996  -0.418  0.1311  0.3513 -0.3868
  719MOL0     O99120   7.870  -1.072  -0.442 -0.0904 -0.3362 -0.3611
  719MOL0     C99121   7.938  -1.057  -0.573 -0.0603  0.6084 -0.3367
  719MOL0     C99122   7.863  -1.123  -0.689 -0.0711 -0.3242  0.2237
  719MOL0     C99123   7.848  -1.273  -0.691 -0.1466  0.5155  1.0365
  719MOL0     C99124   7.761  -1.314  -0.803  0.4410 -0.4680  0.9221
  719MOL0     C99125   7.623  -1.367  -0.755 -0.5500  0.7082  0.6352
  719MOL0     C99126   7.552  -1.283  -0.644  0.4929 -0.4421 -0.3475
  719MOL0     C99127   7.414  -1.336  -0.620  0.2025 -0.3496  0.2575
  719MOL0     C99128   7.339  -1.277  -0.499  0.0322 -0.4587  0.8822
  719MOL0    Cl99129   7.345  -1.096  -0.499 -0.1285 -0.0793 -0.2071
  719MOL0     C99130   7.716  -0.880  -0.489 -0.4037  0.3743  0.1974
  719MOL0     C99131   7.594  -0.811  -0.456  0.6302  0.5913 -0.6857
  719MOL0     O99132   7.478  -0.714  -0.111  0.0831 -0.8080  0.7990
  719MOL0     C99133   7.221  -0.584  -0.317  0.1985  0.1869 -0.4779
  719MOL0     C99134   7.128  -0.474  -0.323 -0.2594 -0.4368  0.6510
  719MOL0     N99135   6.432  -0.417  -0.022  0.2881  0.0741  0.2192
  719MOL0     N99136   6.320  -0.399  -0.061  0.7055  1.5384  0.1175
  719MOL0     C99137   6.520   0.287   0.804 -0.3891 -0.0488  0.0428
  719MOL0     C99138   6.522   0.399   0.881  0.0372 -0.2290 -1.0530
  719MOL0     C99139   6.433   0.848   1.017 -0.3116  0.5219 -0.3585
  719MOL0     C99140   6.356   0.961   0.993  0.0113  0.0907  0.3520
  719MOL0     C99141   6.376   1.079   1.069 -1.5396 -0.1904  0.7265
  719MOL0     C99142   6.464   1.090   1.177 -0.0100 -0.8607  0.8078
  719MOL0     O99143   6.466   1.216   1.235  0.0957  0.0908  0.5505
  719MOL0     C99144   6.569   1.253   1.325 -0.5002 -0.1824 -0.3596
  719MOL0     C99145   6.589   1.404   1.342 -0.7108  0.1485 -0.2689
  719MOL0     C99146   6.484   1.459   1.429  0.3930 -0.3878  0.0513
  719MOL0     C99147   6.340   1.488   1.374  0.0715 -0.8693 -0.0941
  719MOL0     C99148   6.266   1.576   1.462  0.2774 -0.5820 -0.8178
  719MOL0     C99149   6.195   1.623   1.549  1.1521 -0.4054  0.6796
  719MOL0     C99150   6.550   0.982   1.195  0.0513 -1.0347 -0.7138
  719MOL0     C99151   6.541   0.863   1.117 -0.3162 -0.2712 -0.3208
  719MOL0     C99152   6.648   0.769   1.144  0.0411  0.2788 -0.7281
  719MOL0     H99153   6.441   0.641   0.665  0.9514 -0.8006 -0.9519
  719MOL0     H99154   6.440   0.431   0.507  2.4522  0.4809 -0.8430
  719MOL0     H99155   6.306   0.153   0.657  0.8977 -1.3327  0.3474
  719MOL0     H99156   6.371   0.017   0.564  1.6809 -0.3239  0.1194
  719MOL0     H99157   6.237   0.274   0.480  0.4377 -0.4893 -1.7332
  719MOL0     H99158   6.360   0.208   0.376  0.5484  0.7298  0.4413
  719MOL0     H99159   6.154   0.029   0.515 -0.0752  1.5211  1.6230
  719MOL0     H99160   6.079   0.146   0.415  0.1853 -1.3316 -2.7041
  719MOL0     H99161   6.188   0.075   0.202 -0.7114  0.6220  1.1945
  719MOL0     H99162   6.291  -0.027   0.286  0.4716  0.2733 -2.5438
  719MOL0     H99163   5.986  -0.041   0.233 -0.1857  2.0910  0.7346
  719MOL0     H99164   6.054  -0.157   0.342 -3.3049  1.2067 -0.7285
  719MOL0     H99165   6.213  -0.230   0.172 -0.6316 -2.7531 -0.4003
  719MOL0     H99166   6.034  -0.258   0.132 -0.0239  0.6404 -3.2629
  719MOL0     H99167   6.184  -0.039   0.002 -0.9204  1.1314 -1.1798
  719MOL0     H99168   6.016  -0.101  -0.015  2.1458  1.7447 -0.5448
  719MOL0     H99169   6.096  -0.307  -0.116  1.5256 -1.6281 -0.3432
  719MOL0     H99170   6.144  -0.160  -0.199 -3.4209 -0.8655 -0.5209
  719MOL0     H99171   6.434  -0.084  -0.072  0.6690 -0.5405 -0.7283
  719MOL0     H99172   6.645  -0.301   0.138  0.3455  0.8563  0.9505
  719MOL0     H99173   6.662  -0.163   0.040  1.4133 -0.8017  0.9250
  719MOL0     H99174   6.829  -0.359   0.002 -1.3140 -1.7121  0.6653
  719MOL0     H99175   6.683  -0.441  -0.069 -4.9104  1.8536  1.0978
  719MOL0     H99176   6.680  -0.271  -0.243 -1.8009  0.5698  0.9047
  719MOL0     H99177   6.794  -0.166  -0.164 -0.2449 -0.3113 -1.6867
  719MOL0     H99178   6.868  -0.442  -0.252  1.4813  0.3122  2.8996
  719MOL0     H99179   6.892  -0.299  -0.362 -1.3091 -1.6909 -0.3127
  719MOL0     H99180   7.208  -0.310  -0.050  1.4715 -1.2032  1.2761
  719MOL0     H99181   7.518  -0.461  -0.053  1.1766  2.4284  1.4605
  719MOL0     H99182   7.414  -0.549   0.065  1.9543 -0.7417 -0.8461
  719MOL0     H99183   7.425  -0.377   0.050 -0.1154  0.8683 -2.2763
  719MOL0     H99184   7.488  -0.987  -0.196  0.0377  0.4278 -0.3303
  719MOL0     H99185   7.693  -1.118  -0.253 -0.3703  0.1092  0.1537
  719MOL0     H99186   7.953  -0.950  -0.584 -1.1758  0.9814  1.3011
  719MOL0     H99187   8.039  -1.098  -0.569  0.1237  1.1112  2.1290
  719MOL0     H99188   7.761  -1.082  -0.687 -1.0067 -2.3502 -1.5905
  719MOL0     H99189   7.911  -1.093  -0.782  0.1062  0.1844  0.4718
  719MOL0     H99190   7.811  -1.322  -0.601 -0.9477 -0.5294  0.1550
  719MOL0     H99191   7.946  -1.318  -0.709  0.6186  1.8729  1.6181
  719MOL0     H99192   7.812  -1.401  -0.847  2.5446  0.7040  0.9088
  719MOL0     H99193   7.754  -1.232  -0.874  2.6645 -0.2311  0.9045
  719MOL0     H99194   7.556  -1.374  -0.841 -3.2309 -3.9896  2.7600
  719MOL0     H99195   7.639  -1.471  -0.726 -0.3656 -0.0486 -1.9727
  719MOL0     H99196   7.547  -1.183  -0.687 -1.5007  0.1286  1.0724
  719MOL0     H99197   7.603  -1.290  -0.547  1.4721 -0.4423 -0.8493
  719MOL0     H99198   7.415  -1.444  -0.608 -0.0496 -0.4892 -0.8407
  719MOL0     H99199   7.359  -1.303  -0.709 -0.9399  2.1292  1.7696
  719MOL0     H99200   7.388  -1.310  -0.407  0.9628  2.9742  1.7418
  719MOL0     H99201   7.233  -1.307  -0.500 -1.2234  3.4543  0.7706
  719MOL0     H99202   7.781  -0.839  -0.566 -0.9119  1.5883  0.3859
  719MOL0     H99203   7.563  -0.722  -0.511  2.4490  1.3390 -0.5955
  719MOL0     H99204   7.224  -0.656  -0.398 -1.7649 -1.2739  0.6422
  719MOL0     H99205   7.064  -0.460  -0.410  0.6850  2.6360  0.3285
  719MOL0     H99206   6.548   0.188   0.837 -2.1282  0.2900  2.8583
  719MOL0     H99207   6.561   0.386   0.982  0.0485 -0.9944 -1.1456
  719MOL0     H99208   6.269   0.960   0.928  0.4535 -0.2227 -0.2528
  719MOL0     H99209   6.313   1.160   1.033  0.4042  1.9736  1.8906
  719MOL0     H99210   6.567   1.214   1.427  0.6208  1.0547  0.1656
  719MOL0     H99211   6.665   1.220   1.284 -0.0997  0.9065 -0.3368
  719MOL0     H99212   6.587   1.453   1.244 -2.4945  1.9737  0.5819
  719MOL0     H99213   6.683   1.437   1.387 -0.0351 -0.5133 -1.1586
  719MOL0     H99214   6.473   1.406   1.524 -0.4246  1.8359  1.2878
  719MOL0     H99215   6.521   1.556   1.464 -0.7291  0.8020 -1.8396
  719MOL0     H99216   6.290   1.393   1.352  3.3159 -3.1412  1.6199
  719MOL0     H99217   6.351   1.541   1.279  2.9083  1.6184  1.4302
  719MOL0     H99218   6.141   1.684   1.618  2.0731  1.0504  0.1661
  719MOL0     H99219   6.627   0.982   1.272  1.0987 -5.2937 -1.5319
  719MOL0     H99220   6.715   0.763   1.058 -3.6504 -0.6812 -3.8287
  719MOL0     H99221   6.707   0.792   1.233  0.6941  5.0063 -2.1214
  719MOL0     H99222   6.620   0.665   1.163  3.2002 -0.7669 -1.2705
  720MOL0     O99223   7.398   6.304   3.734 -0.2703 -0.2586 -0.0507
  720MOL0     C99224   7.452   6.220   3.658  0.2095 -1.1973 -0.4726
  720MOL0     O99225   7.467   6.086   3.691  0.0754  0.5647 -0.3800
  720MOL0     C99226   7.399   6.043   3.808 -0.7626 -0.1528  0.3935
  720MOL0     C99227   7.459   5.982   3.914  0.1390  0.0437 -0.9233
  720MOL0     C99228   7.399   5.937   4.035  0.3007  0.3255  0.0304
  720MOL0     C99229   7.264   5.951   4.036 -0.0119  0.1544  0.2216
  720MOL0     O99230   7.212   5.893   4.148  0.0260  0.1187 -0.4886
  720MOL0     C99231   7.088   5.815   4.130  0.6824 -0.0166  0.2997
  720MOL0     C99232   7.034   5.751   4.258  0.4519  0.1637 -0.0638
  720MOL0     C99233   7.048   5.842   4.376  0.7078  0.0854 -0.3381
  720MOL0     C99234   6.985   5.789   4.506  0.4284 -0.0580  0.0461
  720MOL0     C99235   7.035   5.841   4.634  0.8636  0.1975 -0.0134
  720MOL0     C99236   7.153   5.762   4.679 -0.1806  0.1292 -0.0812
  720MOL0     C99237   7.268   5.873   4.714 -0.1639  0.0702 -0.4128
  720MOL0     C99238   7.413   5.820   4.730  0.6147 -0.6093 -0.8413
  720MOL0     N99239   7.449   5.698   4.655 -1.0132 -0.0499 -0.9985
  720MOL0     C99240   7.468   5.693   4.520 -1.1972 -0.8573  0.1996
  720MOL0     C99241   7.455   5.558   4.493 -0.0717  0.3734 -0.0990
  720MOL0     C99242   7.439   5.490   4.356  0.6591 -0.2778 -0.2115
  720MOL0     C99243   7.564   5.410   4.335 -0.4258  0.8821 -0.5711
  720MOL0     C99244   7.549   5.289   4.230 -0.5602 -0.5876  0.1800
  720MOL0     C99245   7.438   5.186   4.262 -0.6504  0.0949 -0.2136
  720MOL0     O99246   7.467   5.121   4.388  0.2022 -0.5952 -0.1051
  720MOL0     C99247   7.560   5.020   4.396 -0.7744 -0.2987  0.0852
  720MOL0     C99248   7.627   4.957   4.290  0.2408 -0.3456 -0.8707
  720MOL0     C99249   7.715   4.847   4.304 -0.3878  1.3091 -0.7228
  720MOL0     C99250   7.780   4.776   4.187  0.2711 -0.2453  0.9401
  720MOL0     C99251   7.750   4.801   4.442  0.3608 -0.5163 -0.2975
  720MOL0     C99252   7.865   4.715   4.487 -0.0115  0.1773  0.4004
  720MOL0     O99253   7.965   4.687   4.394 -0.5060 -0.1380 -0.3972
  720MOL0     C99254   8.060   4.590   4.413  0.4068  0.5904  0.1869
  720MOL0     C99255   8.188   4.599   4.352  0.1572  0.1952 -0.4559
  720MOL0     C99256   8.291   4.517   4.383 -0.9787 -0.0371 -0.4448
  720MOL0     C99257   8.273   4.419   4.474  0.5490  0.5196 -0.5826
  720MOL0     O99258   8.378   4.339   4.503  0.2661  0.3701 -0.9498
  720MOL0     C99259   8.372   4.218   4.440 -0.6999  1.0295  1.0737
  720MOL0     C99260   8.508   4.168   4.380  0.4781  0.2662  0.3922
  720MOL0     C99261   8.483   4.020   4.355 -0.2388 -0.4070 -0.0758
  720MOL0     C99262   8.619   3.954   4.317 -0.9961  1.0431 -0.0442
  720MOL0     C99263   8.615   3.805   4.332 -0.2478 -0.1562 -0.0023
  720MOL0     C99264   8.746   3.730   4.277  0.3625 -0.6238 -0.1459
  720MOL0     C99265   8.701   3.588   4.265 -0.3280 -1.5555 -0.0173
  720MOL0     C99266   8.623   3.537   4.147 -0.5356 -0.4089 -0.0881
  720MOL0    Cl99267   8.725   3.501   4.002  0.1053 -0.1419 -0.1065
  720MOL0     C99268   8.150   4.399   4.537 -0.7099  0.0481 -0.4345
  720MOL0     C99269   8.044   4.480   4.505 -0.2249  0.7591  0.0530
  720MOL0     O99270   7.867   4.667   4.597  0.6520 -0.2605 -0.3293
  720MOL0     C99271   7.672   4.858   4.549  0.2407  0.2458  0.2262
  720MOL0     C99272   7.577   4.959   4.525  1.0335  0.8273 -0.7049
  720MOL0     N99273   7.430   5.492   4.610 -1.0368  0.5615  0.1594
  720MOL0     N99274   7.432   5.572   4.715  0.4427  0.0210  0.2769
  720MOL0     C99275   7.190   6.007   3.930 -0.1535  0.3596  0.5280
  720MOL0     C99276   7.261   6.048   3.811  0.6076 -0.2368 -0.0901
  720MOL0     C99277   7.483   6.281   3.529  0.1840  0.1154  0.7097
  720MOL0     C99278   7.546   6.199   3.428 -0.0600  0.3571 -0.9886
  720MOL0     C99279   7.604   6.243   3.317 -1.1673 -0.0764 -0.0976
  720MOL0     C99280   7.606   6.375   3.288  0.4745 -0.3598 -1.4280
  720MOL0     O99281   7.661   6.424   3.165 -0.0992  0.4912  0.7963
  720MOL0     C99282   7.590   6.529   3.101  0.1935  0.1500 -0.7315
  720MOL0     C99283   7.615   6.526   2.950 -0.9188 -0.6211  1.6876
  720MOL0     C99284   7.541   6.416   2.880 -0.2151 -0.2893 -0.1431
  720MOL0     C99285   7.596   6.381   2.737 -0.6271  0.7146  0.1654
  720MOL0     C99286   7.538   6.254   2.689 -0.2858  0.2908  0.2928
  720MOL0     C99287   7.503   6.143   2.647  0.1393 -0.4972 -0.6988
  720MOL0     C99288   7.528   6.462   3.378 -0.0426  0.6885  0.4040
  720MOL0     C99289   7.460   6.416   3.487  0.1810 -0.2897 -0.1927
  720MOL0     C99290   7.375   6.521   3.558 -0.5428  0.6747  0.1653
  720MOL0     H99291   7.567   5.975   3.916  0.1571  0.3194 -0.8080
  720MOL0     H99292   7.465   5.884   4.102 -0.8730  1.3633  2.1135
  720MOL0     H99293   7.105   5.739   4.052  3.2979  1.3786 -0.6328
  720MOL0     H99294   7.014   5.888   4.097 -0.4752 -0.4066  1.9410
  720MOL0     H99295   6.930   5.717   4.258 -0.0560  1.6408 -0.7376
  720MOL0     H99296   7.100   5.664   4.268  1.2557  0.7312 -0.4233
  720MOL0     H99297   7.153   5.867   4.388  0.9733 -1.0087 -0.2646
  720MOL0     H99298   6.998   5.937   4.356  1.6041  0.8714  0.9856
  720MOL0     H99299   6.877   5.799   4.501  0.5939  1.3375 -1.7122
  720MOL0     H99300   7.008   5.683   4.490 -0.0302  0.1022 -1.9166
  720MOL0     H99301   6.953   5.832   4.706 -0.0969  0.0456 -1.0994
  720MOL0     H99302   7.061   5.947   4.630  2.3747 -0.1631 -0.2844
  720MOL0     H99303   7.131   5.690   4.757 -0.1765  1.3445  1.0815
  720MOL0     H99304   7.181   5.697   4.595  3.1612  0.7843  0.3581
  720MOL0     H99305   7.235   5.906   4.813  1.9094 -0.2865  0.4466
  720MOL0     H99306   7.271   5.953   4.639  1.0370  0.9118  0.4997
  720MOL0     H99307   7.480   5.904   4.709 -1.2062  0.9298 -0.7213
  720MOL0     H99308   7.416   5.805   4.838 -2.6102  0.1083 -0.5444
  720MOL0     H99309   7.476   5.778   4.454  0.7226 -1.6292 -0.6379
  720MOL0     H99310   7.443   5.570   4.282 -2.5469  1.1952  1.0452
  720MOL0     H99311   7.347   5.431   4.359  0.7609 -0.4102  1.4055
  720MOL0     H99312   7.651   5.472   4.312 -0.1328  0.9289  0.6003
  720MOL0     H99313   7.585   5.358   4.429  1.8235 -1.4564 -2.2233
  720MOL0     H99314   7.526   5.337   4.134 -0.0641  1.0733  0.8488
  720MOL0     H99315   7.646   5.238   4.226  0.6257  1.3841  1.5772
  720MOL0     H99316   7.343   5.240   4.267 -0.5758  0.9606 -4.5178
  720MOL0     H99317   7.444   5.114   4.180  5.3511 -2.9752  2.2861
  720MOL0     H99318   7.621   5.002   4.192  0.4498  0.6635 -0.4419
  720MOL0     H99319   7.888   4.793   4.175  0.6588 -1.7330  2.0165
  720MOL0     H99320   7.719   4.791   4.097  1.5385  1.9983  0.3806
  720MOL0     H99321   7.774   4.667   4.194  0.0357 -0.2128  1.2532
  720MOL0     H99322   8.204   4.676   4.277  1.0699 -0.7921 -1.2939
  720MOL0     H99323   8.383   4.524   4.326 -2.2628  1.5027 -2.4730
  720MOL0     H99324   8.345   4.153   4.523  1.5565  1.5810  2.3248
  720MOL0     H99325   8.299   4.207   4.359  0.6979  0.3914 -0.1569
  720MOL0     H99326   8.526   4.226   4.289  0.6408  3.4903  2.3064
  720MOL0     H99327   8.593   4.173   4.448  0.2698 -0.6423  0.7261
  720MOL0     H99328   8.412   4.007   4.273 -1.3597 -2.1388  1.0852
  720MOL0     H99329   8.447   3.967   4.444 -1.6994 -0.2574 -0.5572
  720MOL0     H99330   8.701   3.996   4.376  1.7211 -1.1653 -1.9923
  720MOL0     H99331   8.643   3.985   4.215 -0.7074 -0.8004 -0.5721
  720MOL0     H99332   8.601   3.780   4.438  0.4479  2.0756  0.6737
  720MOL0     H99333   8.524   3.777   4.279 -0.4171 -1.3085  0.8658
  720MOL0     H99334   8.832   3.746   4.343  0.5567 -1.0285 -0.3052
  720MOL0     H99335   8.779   3.762   4.178  3.4369  0.7065  1.1591
  720MOL0     H99336   8.650   3.557   4.357  1.5128  0.3275  1.7693
  720MOL0     H99337   8.793   3.529   4.256  0.2081 -0.3805 -3.8131
  720MOL0     H99338   8.547   3.611   4.118  1.7465  1.8593 -0.6452
  720MOL0     H99339   8.589   3.440   4.186  0.2233  0.1797  2.2190
  720MOL0     H99340   8.144   4.326   4.617 -1.4626 -0.1324 -0.6514
  720MOL0     H99341   7.948   4.453   4.548 -0.3422 -0.5587 -0.9846
  720MOL0     H99342   7.682   4.825   4.652 -2.5019 -0.5476  0.3132
  720MOL0     H99343   7.518   5.000   4.607 -0.9798 -3.3548  0.2242
  720MOL0     H99344   7.082   6.005   3.940 -0.3241 -3.7307 -0.1995
  720MOL0     H99345   7.202   6.079   3.725  0.4168 -0.4003 -0.0179
  720MOL0     H99346   7.573   6.097   3.451  2.2674  0.8714 -1.2187
  720MOL0     H99347   7.645   6.175   3.242 -0.6534  0.5868 -0.4309
  720MOL0     H99348   7.482   6.515   3.111  0.1405 -0.1410 -1.6370
  720MOL0     H99349   7.637   6.619   3.143 -1.3936  0.5475  0.3105
  720MOL0     H99350   7.723   6.519   2.938 -1.0016  1.6783 -2.0831
  720MOL0     H99351   7.598   6.619   2.895  5.7095  0.8902  1.3525
  720MOL0     H99352   7.550   6.331   2.949 -1.6051  1.4547  2.3781
  720MOL0     H99353   7.437   6.449   2.867 -0.1358 -0.3081 -0.8807
  720MOL0     H99354   7.704   6.364   2.741 -0.3646  1.2774 -2.5918
  720MOL0     H99355   7.593   6.461   2.663  1.2226  0.8828  0.2302
  720MOL0     H99356   7.460   6.059   2.597  0.8232  0.6170 -3.3264
  720MOL0     H99357   7.527   6.570   3.368  2.8450  0.9405  1.6814
  720MOL0     H99358   7.433   6.544   3.648  0.2659  1.8688 -0.6320
  720MOL0     H99359   7.364   6.614   3.502  0.5243  0.7363  0.0458
  720MOL0     H99360   7.278   6.483   3.591  0.6261 -0.7234  2.1954
  721MOL0     O99361   4.521   9.833   6.003 -0.4789 -0.0948  0.1182
  721MOL0     C99362   4.641   9.825   6.018 -0.5101  0.4750  0.4623
  721MOL0     O99363   4.704   9.795   6.145 -0.1579  0.0768 -0.2024
  721MOL0     C99364   4.619   9.756   6.244  0.2706 -0.8186  0.3474
  721MOL0     C99365   4.609   9.840   6.356 -0.5167 -0.3223  0.4308
  721MOL0     C99366   4.510   9.820   6.452 -0.3324  0.0999  0.0042
  721MOL0     C99367   4.430   9.707   6.446 -0.1493 -0.5469 -0.8214
  721MOL0     O99368   4.331   9.699   6.536 -0.1048  0.6205 -0.5077
  721MOL0     C99369   4.353   9.703   6.679 -0.3780  0.9390 -0.3246
  721MOL0     C99370   4.419   9.582   6.757  0.6649 -0.2450  0.4226
  721MOL0     C99371   4.305   9.469   6.751 -0.2195  0.4294 -0.6759
  721MOL0     C99372   4.195   9.491   6.860  0.4159 -0.1843 -0.4992
  721MOL0     C99373   4.084   9.385   6.831 -0.5840  0.0748  0.6029
  721MOL0     C99374   3.977   9.399   6.925 -0.1536  0.1373 -0.9716
  721MOL0     C99375   4.014   9.408   7.076  0.7065 -0.8775 -0.2298
  721MOL0     C99376   3.880   9.431   7.151 -0.3856  1.3180 -0.2854
  721MOL0     N99377   3.811   9.305   7.168  0.9823  0.1689  0.8300
  721MOL0     C99378   3.687   9.274   7.119  1.0435 -0.3533  0.3512
  721MOL0     C99379   3.657   9.154   7.162 -0.4826  0.3466 -0.1919
  721MOL0     C99380   3.509   9.100   7.135  0.2997 -0.2878  0.0471
  721MOL0     C99381   3.397   9.197   7.180  0.6586 -0.6317 -0.4412
  721MOL0     C99382   3.389   9.204   7.334 -1.0681 -1.0911 -1.0655
  721MOL0     C99383   3.277   9.288   7.394  0.2041  0.2055 -0.8049
  721MOL0     O99384   3.288   9.418   7.334 -0.2462 -0.3786 -0.1678
  721MOL0     C99385   3.165   9.469   7.296 -0.3780  0.3225  0.1209
  721MOL0     C99386   3.150   9.512   7.167  0.4098  0.2693 -1.0306
  721MOL0     C99387   3.030   9.579   7.131 -1.3475 -0.4625 -0.5633
  721MOL0     C99388   3.007   9.607   6.990  0.3924 -0.2169 -0.3587
  721MOL0     C99389   2.929   9.601   7.231  0.6957 -0.6605 -1.1044
  721MOL0     C99390   2.788   9.666   7.202  0.4023  0.6037  0.4629
  721MOL0     O99391   2.726   9.642   7.079  0.1781  0.1717 -0.8137
  721MOL0     C99392   2.610   9.707   7.064 -0.0452 -0.9525  0.2328
  721MOL0     C99393   2.496   9.679   7.134  1.6501  0.2680  0.6097
  721MOL0     C99394   2.374   9.738   7.089  0.0987 -0.4112  0.5789
  721MOL0     C99395   2.363   9.824   6.977  0.5706 -0.3313  0.4084
  721MOL0     O99396   2.249   9.894   6.934  0.2910  1.2360  0.2152
  721MOL0     C99397   2.134   9.915   7.016 -0.2964 -0.6224 -0.6097
  721MOL0     C99398   2.011   9.970   6.938 -1.0541  0.7642 -0.4994
  721MOL0     C99399   2.050  10.101   6.868  0.1793  0.3824 -0.8279
  721MOL0     C99400   1.935  10.171   6.793 -0.7418 -0.7054 -0.3413
  721MOL0     C99401   1.995  10.298   6.732  0.5064 -0.0189 -0.6564
  721MOL0     C99402   1.882  10.365   6.661 -0.0100 -0.1902  0.8247
  721MOL0     C99403   1.919  10.461   6.542 -0.6310 -0.4619  0.3512
  721MOL0     C99404   1.944  10.393   6.405 -0.9956 -0.1317 -0.2874
  721MOL0    Cl99405   2.116  10.333   6.388 -0.2201  0.1065 -0.7060
  721MOL0     C99406   2.481   9.848   6.906 -0.4117  0.7323 -0.1654
  721MOL0     C99407   2.598   9.779   6.948 -0.9388 -0.8998  0.1067
  721MOL0     O99408   2.740   9.723   7.300  0.3314 -0.0540 -0.2246
  721MOL0     C99409   2.953   9.558   7.363 -0.3860  0.0322 -0.1700
  721MOL0     C99410   3.063   9.491   7.393 -0.5925  0.3790 -0.3929
  721MOL0     N99411   3.769   9.101   7.233  0.7673 -0.8262  0.6898
  721MOL0     N99412   3.860   9.191   7.231 -0.3937  0.1151  0.0327
  721MOL0     C99413   4.453   9.620   6.341 -0.3340  0.0974 -0.3284
  721MOL0     C99414   4.546   9.641   6.239  0.0027 -0.6650 -0.2874
  721MOL0     C99415   4.719   9.848   5.892 -0.5723  0.3021 -0.4809
  721MOL0     C99416   4.658   9.856   5.766  0.1817  0.1058  0.0971
  721MOL0     C99417   4.738   9.874   5.649 -0.3253 -0.7924  0.0945
  721MOL0     C99418   4.881   9.891   5.658  0.2049  0.5344  0.2474
  721MOL0     O99419   4.954   9.916   5.542  0.0198 -0.1766 -0.3080
  721MOL0     C99420   4.975   9.803   5.469  0.9219 -0.3696  1.0137
  721MOL0     C99421   4.912   9.814   5.322  0.2576  0.2168 -0.4185
  721MOL0     C99422   4.968   9.695   5.254 -0.2831 -0.0863 -0.3007
  721MOL0     C99423   4.906   9.666   5.116 -0.1873 -0.0940 -0.5490
  721MOL0     C99424   4.916   9.517   5.093 -0.1488 -0.4085 -0.2333
  721MOL0     C99425   4.925   9.408   5.057 -0.2128  0.0855  1.1593
  721MOL0     C99426   4.937   9.879   5.782 -0.7544  0.1550  0.0084
  721MOL0     C99427   4.863   9.864   5.891 -0.6784  0.2836  0.6901
  721MOL0     C99428   4.938   9.873   6.023 -1.0104  0.5605 -1.1492
  721MOL0     H99429   4.682   9.920   6.347  1.5545 -2.3127 -4.1068
  721MOL0     H99430   4.501   9.910   6.513  0.5564  0.3171 -0.1755
  721MOL0     H99431   4.258   9.723   6.730  0.5955  0.3657  1.8358
  721MOL0     H99432   4.425   9.781   6.704 -0.7453  1.4875 -0.9537
  721MOL0     H99433   4.517   9.558   6.715  0.4829 -0.6754  0.2354
  721MOL0     H99434   4.430   9.606   6.863 -1.1215  2.0190  0.1616
  721MOL0     H99435   4.263   9.468   6.650  2.4314 -3.5555 -1.9330
  721MOL0     H99436   4.352   9.371   6.764 -0.1609  0.8306  4.2878
  721MOL0     H99437   4.246   9.494   6.957 -2.2827  3.1887  1.0347
  721MOL0     H99438   4.154   9.591   6.844 -4.5002 -2.0822 -1.7907
  721MOL0     H99439   4.119   9.282   6.838 -1.5683 -0.2893  0.3688
  721MOL0     H99440   4.051   9.408   6.729  1.4544 -0.8087 -0.2888
  721MOL0     H99441   3.921   9.488   6.895  0.2438  1.2986  1.4328
  721MOL0     H99442   3.911   9.312   6.917 -0.8866  0.3191  1.9254
  721MOL0     H99443   4.076   9.490   7.113 -3.0903  1.1812  2.2418
  721MOL0     H99444   4.060   9.314   7.107 -0.0242 -1.5242 -1.0774
  721MOL0     H99445   3.913   9.462   7.250 -1.0625 -0.1683  0.4317
  721MOL0     H99446   3.809   9.499   7.103 -0.8666 -0.2780 -1.9534
  721MOL0     H99447   3.616   9.345   7.076  1.8739 -0.6314 -1.5720
  721MOL0     H99448   3.488   9.005   7.186 -2.1956  0.5838  0.7661
  721MOL0     H99449   3.503   9.089   7.026 -5.3980 -1.6134  0.1842
  721MOL0     H99450   3.415   9.296   7.136 -0.6532  0.7997  1.9765
  721MOL0     H99451   3.300   9.158   7.146  0.9023 -1.2323 -0.4621
  721MOL0     H99452   3.378   9.101   7.369 -0.2924 -1.6776 -2.4735
  721MOL0     H99453   3.479   9.252   7.372 -0.0703 -3.4232 -0.2911
  721MOL0     H99454   3.192   9.222   7.374  1.2129 -0.9500 -1.3640
  721MOL0     H99455   3.280   9.298   7.503 -2.9996  1.9269 -0.7405
  721MOL0     H99456   3.230   9.525   7.095 -1.2175  1.9730 -2.6725
  721MOL0     H99457   3.100   9.612   6.934  0.7650  0.6761  0.3010
  721MOL0     H99458   2.961   9.706   6.979  0.0644 -0.1477  1.2846
  721MOL0     H99459   2.948   9.530   6.940 -2.1822  2.7545 -2.2785
  721MOL0     H99460   2.505   9.608   7.215 -0.7191  1.3471  1.9334
  721MOL0     H99461   2.277   9.715   7.132 -0.7146  1.8345  0.0867
  721MOL0     H99462   2.107   9.824   7.070  1.2419 -0.4741  0.4681
  721MOL0     H99463   2.164   9.987   7.092  0.9137 -1.2464 -0.4678
  721MOL0     H99464   1.983   9.894   6.865  2.8255 -1.2351 -0.1524
  721MOL0     H99465   1.935   9.982   7.016 -1.9896 -1.9930 -0.8587
  721MOL0     H99466   2.120  10.063   6.794  2.0842  0.7275  0.6979
  721MOL0     H99467   2.099  10.175   6.933 -0.3224  0.4086 -0.4687
  721MOL0     H99468   1.848  10.200   6.853 -0.8794 -0.5945 -0.5958
  721MOL0     H99469   1.912  10.099   6.714  1.4344  0.4272 -2.0984
  721MOL0     H99470   2.035  10.367   6.807 -0.4345  0.8748 -0.9532
  721MOL0     H99471   2.060  10.256   6.654 -2.6906 -1.3286 -2.8343
  721MOL0     H99472   1.819  10.424   6.728  1.4670  2.6629 -0.1472
  721MOL0     H99473   1.819  10.295   6.605 -1.6823  1.6344  0.3248
  721MOL0     H99474   2.012  10.515   6.565 -1.4660  0.7487  1.0122
  721MOL0     H99475   1.840  10.532   6.516  2.4045  2.2582 -2.4537
  721MOL0     H99476   1.925  10.457   6.318 -3.6270 -0.3708  0.0342
  721MOL0     H99477   1.859  10.325   6.393 -1.1007  0.3227 -2.7885
  721MOL0     H99478   2.462   9.906   6.816 -1.7590  1.3820  0.5064
  721MOL0     H99479   2.690   9.789   6.892 -0.8407  0.7916  0.5308
  721MOL0     H99480   2.878   9.577   7.439 -1.5928  0.4028 -1.4074
  721MOL0     H99481   3.079   9.479   7.500  1.1846 -0.5077 -0.7159
  721MOL0     H99482   4.391   9.532   6.327 -0.9658  0.4227  0.3174
  721MOL0     H99483   4.557   9.574   6.154 -1.1196 -0.8167 -0.3267
  721MOL0     H99484   4.552   9.833   5.763  0.0759  0.1621  2.2462
  721MOL0     H99485   4.686   9.865   5.554  1.3068  1.4750 -1.1124
  721MOL0     H99486   5.083   9.793   5.465  1.1521  0.8856  2.6673
  721MOL0     H99487   4.942   9.710   5.515  3.6702 -2.8361 -1.5885
  721MOL0     H99488   4.952   9.910   5.288  2.7988 -0.4863  0.4157
  721MOL0     H99489   4.803   9.812   5.312  0.3008 -0.4650 -0.8277
  721MOL0     H99490   5.076   9.710   5.250  0.1314 -1.1407  3.3477
  721MOL0     H99491   4.955   9.615   5.328 -0.0370 -0.0140 -0.1789
  721MOL0     H99492   4.954   9.718   5.032 -1.8776 -2.5846 -3.2504
  721MOL0     H99493   4.800   9.693   5.117 -0.2741  0.0898 -3.7772
  721MOL0     H99494   4.929   9.306   5.026 -0.6969 -0.4119  2.6135
  721MOL0     H99495   5.043   9.899   5.787 -0.6673 -0.3777  0.4111
  721MOL0     H99496   4.884   9.935   6.095  0.5216 -0.2440  0.7907
  721MOL0     H99497   4.966   9.777   6.067  5.2055  1.7556 -1.6302
  721MOL0     H99498   5.041   9.905   6.006 -0.0921 -0.8728  1.2474
  722MOL0     O99499  11.078   9.555   4.369  0.1130 -0.3551 -0.0218
  722MOL0     C99500  11.052   9.672   4.377 -0.8763 -0.7172  0.5361
  722MOL0     O99501  10.965   9.740   4.288  0.3237 -0.6791 -0.5204
  722MOL0     C99502  10.878   9.659   4.222 -0.4767  0.7880 -1.0059
  722MOL0     C99503  10.902   9.618   4.095 -0.7049 -0.9889  0.3425
  722MOL0     C99504  10.812   9.546   4.021 -1.1564 -0.1911  0.9076
  722MOL0     C99505  10.694   9.508   4.081  0.1944 -0.5469 -0.0964
  722MOL0     O99506  10.603   9.433   4.019  0.0535  0.0420 -0.2525
  722MOL0     C99507  10.466   9.462   4.051 -0.1125  0.1393 -1.2251
  722MOL0     C99508  10.373   9.370   3.963  0.2964  0.3038  0.2352
  722MOL0     C99509  10.224   9.364   4.000 -0.1260 -0.3954  0.4126
  722MOL0     C99510  10.126   9.311   3.893  0.4259  0.1524  1.0968
  722MOL0     C99511   9.973   9.298   3.961 -1.4478 -0.0820  0.5101
  722MOL0     C99512   9.882   9.415   3.942  0.6357  0.4794  0.0436
  722MOL0     C99513   9.734   9.382   3.961  0.3141 -0.0698  0.6822
  722MOL0     C99514   9.645   9.510   3.978 -0.6814  1.4486 -0.5929
  722MOL0     N99515   9.503   9.461   3.990 -0.0379  0.0224  0.8338
  722MOL0     C99516   9.436   9.389   3.898  0.0355  0.2478  0.6044
  722MOL0     C99517   9.304   9.376   3.939 -1.3870  0.1288  0.1183
  722MOL0     C99518   9.192   9.302   3.873  0.2872  0.9920 -0.2025
  722MOL0     C99519   9.163   9.362   3.738  0.2526  0.3155  1.1038
  722MOL0     C99520   9.082   9.501   3.737 -0.3676 -0.4582  0.4237
  722MOL0     C99521   9.180   9.622   3.727 -0.3690 -0.4565 -0.4812
  722MOL0     O99522   9.257   9.604   3.605  0.6741 -0.1904 -0.5527
  722MOL0     C99523   9.385   9.652   3.597 -0.4404 -0.3301  0.0834
  722MOL0     C99524   9.459   9.605   3.493 -0.7217  0.3570  0.1548
  722MOL0     C99525   9.592   9.638   3.480  0.3528  0.3479 -0.3175
  722MOL0     C99526   9.659   9.575   3.361 -0.3232 -0.4739 -0.1661
  722MOL0     C99527   9.637   9.735   3.561  0.4859  0.0074  0.3213
  722MOL0     C99528   9.786   9.779   3.562  0.0180 -0.9301  0.8753
  722MOL0     O99529   9.829   9.835   3.671  0.3392  0.0549 -0.0943
  722MOL0     C99530   9.968   9.818   3.700  0.9161 -0.5722  0.6105
  722MOL0     C99531  10.051   9.726   3.628 -0.1471 -0.5889  0.2851
  722MOL0     C99532  10.180   9.699   3.677 -0.7029  0.7562 -0.6124
  722MOL0     C99533  10.233   9.762   3.798  1.0209  0.5799  0.5620
  722MOL0     O99534  10.362   9.746   3.847  0.1760 -0.7541 -0.0413
  722MOL0     C99535  10.463   9.701   3.754  0.8600  0.1838  0.3398
  722MOL0     C99536  10.519   9.828   3.693 -0.0875 -0.7599  0.5465
  722MOL0     C99537  10.645   9.802   3.607  0.0379 -0.0288 -0.0313
  722MOL0     C99538  10.612   9.705   3.486  0.0243 -0.0941  0.0578
  722MOL0     C99539  10.729   9.685   3.384 -0.4375  0.0960  0.6133
  722MOL0     C99540  10.768   9.804   3.292 -0.3777 -0.1762  0.7747
  722MOL0     C99541  10.809   9.777   3.152 -0.9578 -1.0279 -0.2353
  722MOL0     C99542  10.909   9.672   3.128 -0.2113 -0.2221  0.1018
  722MOL0    Cl99543  11.049   9.712   3.229  0.3764  0.1562  0.5690
  722MOL0     C99544  10.140   9.841   3.867 -0.3138 -0.5477  0.0057
  722MOL0     C99545  10.014   9.868   3.823  0.2135 -0.0430  0.3557
  722MOL0     O99546   9.845   9.776   3.454  0.3133 -0.0010  0.4733
  722MOL0     C99547   9.558   9.796   3.665  0.5126 -0.1551  1.5273
  722MOL0     C99548   9.431   9.747   3.675  0.0194  0.5319 -0.2546
  722MOL0     N99549   9.303   9.424   4.071 -0.4787  0.3370 -0.2644
  722MOL0     N99550   9.423   9.471   4.103  0.2088  0.3586  0.3241
  722MOL0     C99551  10.671   9.544   4.219 -0.5531 -0.2163 -0.5671
  722MOL0     C99552  10.774   9.620   4.287 -0.4845 -0.5390  0.0802
  722MOL0     C99553  11.115   9.756   4.480  0.1588 -0.5663 -0.0990
  722MOL0     C99554  11.063   9.890   4.512  0.4379 -0.4158 -0.1017
  722MOL0     C99555  11.127   9.978   4.602 -0.0782  0.7980 -0.7740
  722MOL0     C99556  11.237   9.931   4.676 -1.2518  0.1380 -0.4347
  722MOL0     O99557  11.319  10.002   4.771  0.4589  0.0786 -0.3339
  722MOL0     C99558  11.274  10.139   4.799 -0.7516  0.4554  0.5910
  722MOL0     C99559  11.357  10.199   4.914 -0.8205  0.5242  0.4400
  722MOL0     C99560  11.300  10.339   4.941  0.2054  0.0376 -0.0502
  722MOL0     C99561  11.390  10.399   5.050  1.1722  1.3854 -0.4102
  722MOL0     C99562  11.393  10.330   5.180  0.2151  1.1480 -0.5870
  722MOL0     C99563  11.389  10.278   5.286 -0.3503 -0.1531 -0.5619
  722MOL0     C99564  11.263   9.799   4.660 -0.3564  0.4791  0.1807
  722MOL0     C99565  11.211   9.707   4.570  0.4412  0.0500  0.3639
  722MOL0     C99566  11.261   9.558   4.593  0.7732 -0.2265  1.4157
  722MOL0     H99567  10.991   9.653   4.044 -2.1690  4.3366  0.8402
  722MOL0     H99568  10.843   9.513   3.922  0.7525  0.7352  1.1620
  722MOL0     H99569  10.453   9.571   4.042 -2.6019  0.3992  2.7337
  722MOL0     H99570  10.450   9.436   4.157 -0.2520  0.6373 -1.1190
  722MOL0     H99571  10.383   9.400   3.859 -1.8303  0.4082  0.0283
  722MOL0     H99572  10.400   9.264   3.960 -3.4652 -0.8203  1.4877
  722MOL0     H99573  10.220   9.309   4.095  0.0289 -2.8311 -0.9229
  722MOL0     H99574  10.188   9.466   4.016 -1.2006 -0.1850 -2.6973
  722MOL0     H99575  10.105   9.375   3.807  1.1766 -0.1168  0.7048
  722MOL0     H99576  10.152   9.210   3.861 -2.6071 -1.2656  2.6721
  722MOL0     H99577   9.991   9.283   4.068  0.2246 -1.0754  0.1251
  722MOL0     H99578   9.926   9.204   3.928  0.4430 -1.3678  1.3036
  722MOL0     H99579   9.918   9.506   3.991 -2.3062  1.1943  1.0772
  722MOL0     H99580   9.896   9.428   3.835  1.7512  1.5528  0.3020
  722MOL0     H99581   9.720   9.316   4.047  1.8445 -0.7047  0.4836
  722MOL0     H99582   9.707   9.333   3.866 -1.4236  3.4813 -0.8347
  722MOL0     H99583   9.678   9.561   4.069  0.6482  1.8912 -1.3028
  722MOL0     H99584   9.671   9.586   3.904  0.8172  0.6348 -0.9534
  722MOL0     H99585   9.467   9.371   3.796  0.8331 -1.2873  1.0736
  722MOL0     H99586   9.099   9.301   3.930 -0.9323  3.1368 -1.9472
  722MOL0     H99587   9.235   9.207   3.842  1.6822  1.1214  1.2351
  722MOL0     H99588   9.247   9.364   3.668 -2.9662 -0.3104 -3.1856
  722MOL0     H99589   9.103   9.286   3.686  2.0291 -0.9251  0.7549
  722MOL0     H99590   9.021   9.492   3.647 -1.3441  2.3485  0.7182
  722MOL0     H99591   9.027   9.494   3.832  3.3081 -4.2778  2.6094
  722MOL0     H99592   9.132   9.720   3.728 -0.6696 -0.5828  1.2913
  722MOL0     H99593   9.231   9.611   3.823 -3.2888 -2.6781  0.9766
  722MOL0     H99594   9.404   9.535   3.430  1.3156  0.0522 -1.3842
  722MOL0     H99595   9.608   9.483   3.331 -1.3530 -0.4020  1.2297
  722MOL0     H99596   9.760   9.539   3.384 -0.9887 -4.5402 -2.5961
  722MOL0     H99597   9.665   9.649   3.282 -1.2355  2.7135  2.5226
  722MOL0     H99598  10.025   9.671   3.539 -2.2675  1.4475 -0.4415
  722MOL0     H99599  10.243   9.626   3.628 -0.8146 -1.5817  2.4256
  722MOL0     H99600  10.539   9.661   3.822  0.8087  0.4504  0.5535
  722MOL0     H99601  10.441   9.620   3.683 -0.8369  3.8683 -3.7645
  722MOL0     H99602  10.441   9.892   3.650  0.5382  0.5882  1.3508
  722MOL0     H99603  10.555   9.899   3.768 -0.7900 -0.0431  0.2205
  722MOL0     H99604  10.729   9.760   3.663  1.0233  0.8964 -0.7761
  722MOL0     H99605  10.672   9.898   3.563 -2.9507  1.1774  0.5609
  722MOL0     H99606  10.530   9.745   3.425  1.6689 -0.3461 -2.4689
  722MOL0     H99607  10.578   9.605   3.516  0.5725 -0.9226 -1.9398
  722MOL0     H99608  10.819   9.652   3.435  0.2233  1.5834  0.4295
  722MOL0     H99609  10.699   9.599   3.322  1.6653  1.1947 -2.0971
  722MOL0     H99610  10.843   9.859   3.349 -0.9734 -0.2159  1.6156
  722MOL0     H99611  10.675   9.861   3.281 -0.4057 -0.4163 -0.4032
  722MOL0     H99612  10.859   9.859   3.100 -3.4981  1.4738  1.0093
  722MOL0     H99613  10.722   9.747   3.092 -1.6756 -0.3008  0.4184
  722MOL0     H99614  10.947   9.663   3.026  0.7706 -3.6425  0.6522
  722MOL0     H99615  10.877   9.570   3.152  1.4950 -1.0145 -0.8599
  722MOL0     H99616  10.161   9.881   3.966 -1.9079  0.7307 -0.1277
  722MOL0     H99617   9.943   9.924   3.884 -0.7182  0.3081 -0.9974
  722MOL0     H99618   9.587   9.871   3.737 -0.2937  1.2031  0.4665
  722MOL0     H99619   9.359   9.792   3.743  0.3732 -3.0846  2.8715
  722MOL0     H99620  10.579   9.518   4.272 -0.0192 -4.7691 -1.4100
  722MOL0     H99621  10.752   9.658   4.386  0.3657 -0.1001  0.1033
  722MOL0     H99622  10.980   9.931   4.455 -0.7379 -1.2159  0.9780
  722MOL0     H99623  11.090  10.079   4.618  1.8285  1.3004  0.8998
  722MOL0     H99624  11.279  10.211   4.717  3.4808  4.3533  3.7358
  722MOL0     H99625  11.169  10.129   4.826 -1.0722  2.0778  0.0389
  722MOL0     H99626  11.464  10.208   4.891 -0.5317  0.2261  1.5675
  722MOL0     H99627  11.337  10.137   5.002 -0.0385 -0.9643 -0.3985
  722MOL0     H99628  11.315  10.395   4.848  1.6990 -0.9841 -0.4483
  722MOL0     H99629  11.193  10.337   4.964  0.2698  1.8590  0.5899
  722MOL0     H99630  11.347  10.497   5.075 -1.1994 -0.1935  2.2717
  722MOL0     H99631  11.489  10.399   5.004  0.1080 -2.4462 -3.1735
  722MOL0     H99632  11.393  10.221   5.376  1.0804 -2.8881 -2.1951
  722MOL0     H99633  11.338   9.760   4.730 -0.5870  1.2458  0.8695
  722MOL0     H99634  11.177   9.494   4.621  1.0045  0.4946  3.9591
  722MOL0     H99635  11.317   9.525   4.505  0.1892 -0.4096  1.1038
  722MOL0     H99636  11.332   9.556   4.676  2.8669 -2.3090 -0.2942
  723MOL0     O99637   8.891   3.759   5.049 -0.2814  0.1665 -0.3434
  723MOL0     C99638   8.861   3.650   5.004  0.3621 -1.0904 -0.0711
  723MOL0     O99639   8.890   3.610   4.882  0.4671  0.9381 -0.0759
  723MOL0     C99640   8.948   3.693   4.793 -0.8162 -0.4425  0.7614
  723MOL0     C99641   8.883   3.812   4.752 -0.4204  0.0541 -0.6297
  723MOL0     C99642   8.931   3.884   4.646  0.2149 -0.1633  0.1726
  723MOL0     C99643   9.030   3.827   4.567 -0.0318 -0.0043  0.7673
  723MOL0     O99644   9.083   3.888   4.455 -0.7343 -0.4676 -0.0615
  723MOL0     C99645   9.025   4.012   4.410  1.4195  0.5318 -0.8770
  723MOL0     C99646   9.103   4.070   4.295  0.8022 -0.3191 -0.3072
  723MOL0     C99647   9.079   4.223   4.289  0.2169 -0.3737  0.7197
  723MOL0     C99648   8.948   4.263   4.230 -0.0540  0.9354  0.9195
  723MOL0     C99649   8.916   4.412   4.223  0.4283  0.2445  0.3820
  723MOL0     C99650   9.002   4.498   4.133 -0.5175 -0.8737  0.1825
  723MOL0     C99651   8.979   4.647   4.134 -0.7964 -0.1508  0.0672
  723MOL0     C99652   8.844   4.690   4.082 -0.3262  0.0135 -0.6697
  723MOL0     N99653   8.823   4.836   4.094 -0.4699  0.4525 -0.3034
  723MOL0     C99654   8.873   4.926   4.006  0.3253  0.1427  0.1480
  723MOL0     C99655   8.873   5.041   4.073  0.4394 -0.1952 -0.2295
  723MOL0     C99656   8.918   5.182   4.021 -0.5029 -0.2627  0.0813
  723MOL0     C99657   9.065   5.194   3.968 -0.1843  0.1355 -0.3614
  723MOL0     C99658   9.175   5.167   4.076 -0.2639 -0.4056  0.1393
  723MOL0     C99659   9.317   5.217   4.025 -0.7774  0.2294 -0.2661
  723MOL0     O99660   9.395   5.103   3.992 -0.6577  0.1730 -0.0977
  723MOL0     C99661   9.527   5.122   3.955 -0.6182 -0.6270  0.0140
  723MOL0     C99662   9.592   5.017   3.904  0.4143  1.0460 -0.8320
  723MOL0     C99663   9.714   5.032   3.834  0.8994  0.7996 -0.5964
  723MOL0     C99664   9.792   4.916   3.784  0.7289  0.0550  0.3713
  723MOL0     C99665   9.774   5.151   3.828  0.1020  0.3506  0.0341
  723MOL0     C99666   9.904   5.181   3.757  0.8271 -0.2907  1.2782
  723MOL0     O99667   9.997   5.230   3.844 -0.9128  0.0664 -0.1690
  723MOL0     C99668  10.103   5.312   3.801  0.2445  0.6750 -0.4361
  723MOL0     C99669  10.091   5.404   3.697 -0.1716 -0.4480  0.8762
  723MOL0     C99670  10.204   5.464   3.647 -0.0232 -0.0596  1.4173
  723MOL0     C99671  10.336   5.449   3.711 -0.1480  1.3133  0.0865
  723MOL0     O99672  10.450   5.515   3.679  0.0418 -0.0198 -0.1773
  723MOL0     C99673  10.464   5.547   3.540 -0.8070  0.8391 -0.7382
  723MOL0     C99674  10.573   5.643   3.526  0.4201 -0.1135 -0.3496
  723MOL0     C99675  10.525   5.786   3.571 -1.4541  0.1104  0.3636
  723MOL0     C99676  10.623   5.899   3.548  0.6037 -0.2319  0.0426
  723MOL0     C99677  10.747   5.899   3.649  0.9125 -0.3907  0.2842
  723MOL0     C99678  10.728   5.998   3.772  1.2147 -0.7908  0.2779
  723MOL0     C99679  10.860   6.016   3.860  0.1165 -1.0148  0.7449
  723MOL0     C99680  10.917   5.893   3.903 -0.7446  0.4296 -0.2414
  723MOL0    Cl99681  11.065   5.915   3.986  0.2227 -0.2197 -0.7346
  723MOL0     C99682  10.340   5.365   3.820 -0.0188  0.7985  0.4750
  723MOL0     C99683  10.224   5.304   3.873  0.2203 -1.2357  0.3366
  723MOL0     O99684   9.909   5.173   3.633  0.4750 -0.5133 -0.9331
  723MOL0     C99685   9.705   5.262   3.872 -0.1889 -1.0297  0.1184
  723MOL0     C99686   9.582   5.255   3.939 -0.0141  0.1906  0.2221
  723MOL0     N99687   8.838   5.018   4.205  0.4215  0.7491  0.5781
  723MOL0     N99688   8.802   4.896   4.210  0.6554 -0.3027 -0.2099
  723MOL0     C99689   9.095   3.707   4.599 -0.7709 -0.5614 -0.3654
  723MOL0     C99690   9.060   3.642   4.716  0.9652 -0.0105  0.0220
  723MOL0     C99691   8.819   3.548   5.097 -0.0816 -0.0536 -0.4115
  723MOL0     C99692   8.818   3.414   5.052  0.1778  0.3319 -1.1081
  723MOL0     C99693   8.756   3.308   5.130 -0.0844 -0.9788 -0.1344
  723MOL0     C99694   8.695   3.348   5.254  0.4454  0.6872 -0.0217
  723MOL0     O99695   8.627   3.251   5.325 -0.0506  0.3330  0.0213
  723MOL0     C99696   8.634   3.239   5.468 -0.2404 -0.0133  0.0309
  723MOL0     C99697   8.498   3.164   5.486  0.2740 -1.0656  0.6535
  723MOL0     C99698   8.365   3.248   5.447  0.1277  0.5605  0.0040
  723MOL0     C99699   8.313   3.316   5.577  0.0509 -0.2016  0.5005
  723MOL0     C99700   8.404   3.423   5.624 -0.6031  0.1013  0.1443
  723MOL0     C99701   8.487   3.506   5.652 -0.5866 -0.1186  0.0400
  723MOL0     C99702   8.685   3.478   5.293  0.1744  0.2728  0.5365
  723MOL0     C99703   8.752   3.574   5.222 -0.4202  0.5555  0.0998
  723MOL0     C99704   8.737   3.710   5.276 -1.0000 -0.4587 -0.3428
  723MOL0     H99705   8.791   3.850   4.796 -1.5573 -3.1364 -0.0108
  723MOL0     H99706   8.876   3.971   4.611 -1.4844 -1.4638 -0.5852
  723MOL0     H99707   9.027   4.082   4.495 -0.0178 -0.9263  0.4299
  723MOL0     H99708   8.921   3.994   4.383  1.3091 -2.1870  0.9680
  723MOL0     H99709   9.207   4.037   4.308 -0.5362 -5.3528 -0.1430
  723MOL0     H99710   9.071   4.017   4.205  0.7489 -2.2762  0.7958
  723MOL0     H99711   9.093   4.270   4.387  2.3026 -1.8682  1.2062
  723MOL0     H99712   9.159   4.270   4.232 -1.0903  0.6182 -0.3757
  723MOL0     H99713   8.938   4.222   4.129 -1.5518 -1.3310  1.9118
  723MOL0     H99714   8.862   4.221   4.283 -2.2113  1.2034 -2.0686
  723MOL0     H99715   8.920   4.455   4.323  0.8675 -2.7930  1.7927
  723MOL0     H99716   8.810   4.421   4.195 -0.1926 -3.4086  1.0499
  723MOL0     H99717   9.097   4.485   4.185  0.2334 -2.9896 -1.5607
  723MOL0     H99718   9.015   4.453   4.034 -0.9408  0.4410 -0.5081
  723MOL0     H99719   9.056   4.695   4.073  0.6626  0.0311  1.9566
  723MOL0     H99720   8.982   4.690   4.234  1.1022  1.7021 -0.7092
  723MOL0     H99721   8.832   4.677   3.974  0.2064  0.5793 -0.8047
  723MOL0     H99722   8.762   4.637   4.130 -1.3394  0.1805 -2.1436
  723MOL0     H99723   8.904   4.901   3.905 -0.9251 -1.9674  0.2101
  723MOL0     H99724   8.909   5.269   4.087 -0.4551  1.1634 -1.6993
  723MOL0     H99725   8.852   5.212   3.939  0.9281  0.5922 -0.8101
  723MOL0     H99726   9.091   5.134   3.880 -0.3710 -1.5992  0.7231
  723MOL0     H99727   9.065   5.299   3.935  0.0513  0.9439  2.0457
  723MOL0     H99728   9.142   5.214   4.169 -1.1043 -1.3312  0.3253
  723MOL0     H99729   9.174   5.059   4.092 -0.4308 -0.4042  0.1351
  723MOL0     H99730   9.297   5.279   3.936 -0.8818  0.0398 -0.3747
  723MOL0     H99731   9.366   5.286   4.095 -0.8756  0.0802 -0.0495
  723MOL0     H99732   9.550   4.917   3.902  0.3904  1.0582 -0.9246
  723MOL0     H99733   9.894   4.931   3.821  2.2019 -0.3011 -3.1784
  723MOL0     H99734   9.792   4.919   3.675  0.9392 -0.3289  0.3587
  723MOL0     H99735   9.760   4.819   3.824  0.7782  0.9846  2.8420
  723MOL0     H99736   9.997   5.423   3.646 -0.1214  1.4844  1.4120
  723MOL0     H99737  10.191   5.538   3.568  0.9438 -1.2151  0.1353
  723MOL0     H99738  10.499   5.458   3.486 -1.2721 -0.2150  0.6199
  723MOL0     H99739  10.370   5.570   3.488 -1.1645 -1.9130 -1.4827
  723MOL0     H99740  10.660   5.611   3.583  0.8063 -0.2696 -1.0126
  723MOL0     H99741  10.603   5.656   3.422  1.5615  1.5641  0.1582
  723MOL0     H99742  10.509   5.778   3.679 -2.7329 -0.7868  0.1310
  723MOL0     H99743  10.426   5.811   3.532 -0.4516  2.6474 -0.7478
  723MOL0     H99744  10.563   5.990   3.546 -0.3021 -0.7356  1.8286
  723MOL0     H99745  10.647   5.874   3.445 -2.8715 -2.6530 -0.3428
  723MOL0     H99746  10.771   5.794   3.670  3.5776 -0.1726 -1.2367
  723MOL0     H99747  10.839   5.934   3.601 -0.8032  2.8864 -0.9381
  723MOL0     H99748  10.646   5.956   3.831 -0.9292  0.9043 -1.3297
  723MOL0     H99749  10.703   6.099   3.736 -0.2501 -1.0974  0.3741
  723MOL0     H99750  10.832   6.084   3.941 -2.6107 -0.1587 -0.7831
  723MOL0     H99751  10.934   6.068   3.798  0.1718 -2.2696 -0.3025
  723MOL0     H99752  10.954   5.821   3.829  1.4508  0.5000  0.7241
  723MOL0     H99753  10.840   5.839   3.959 -0.0712 -2.4014 -1.8768
  723MOL0     H99754  10.435   5.339   3.867  2.1017 -2.2009 -4.6088
  723MOL0     H99755  10.226   5.238   3.960 -1.6046 -3.1727 -0.9870
  723MOL0     H99756   9.753   5.359   3.875 -0.8693 -0.3403 -4.1735
  723MOL0     H99757   9.546   5.347   3.985 -0.8585  2.3552 -4.1907
  723MOL0     H99758   9.173   3.674   4.531 -3.4742 -2.1741 -2.9287
  723MOL0     H99759   9.123   3.559   4.745  3.2400  1.0467 -1.5072
  723MOL0     H99760   8.863   3.397   4.954 -1.5093  2.5941 -2.3921
  723MOL0     H99761   8.752   3.203   5.106 -2.3451 -0.8473 -0.5806
  723MOL0     H99762   8.709   3.166   5.501 -0.6343 -1.6590 -2.4281
  723MOL0     H99763   8.646   3.334   5.521  2.7743 -0.9837  1.3480
  723MOL0     H99764   8.490   3.134   5.591  2.1456  1.4927  1.6483
  723MOL0     H99765   8.502   3.069   5.432 -0.0001 -1.6635  1.6427
  723MOL0     H99766   8.370   3.320   5.365  1.4927  0.3817 -0.1057
  723MOL0     H99767   8.280   3.183   5.426  1.6249 -1.3890 -0.4353
  723MOL0     H99768   8.306   3.231   5.645 -0.0911 -0.3015  0.3583
  723MOL0     H99769   8.217   3.366   5.564 -1.1246 -2.9207 -2.3315
  723MOL0     H99770   8.561   3.580   5.674 -0.7380 -0.1017  0.4935
  723MOL0     H99771   8.619   3.498   5.377  1.2793 -0.2958  1.5765
  723MOL0     H99772   8.706   3.790   5.208  1.1658  1.5020  0.8122
  723MOL0     H99773   8.672   3.717   5.364  0.4683 -0.0380  0.7414
  723MOL0     H99774   8.832   3.740   5.320 -1.5780  0.7754  0.1137
  724MOL0     O99775   2.802   7.329   2.618  0.7186 -0.2910  0.3233
  724MOL0     C99776   2.911   7.352   2.681  0.6314  0.0332  0.3020
  724MOL0     O99777   2.974   7.266   2.753 -0.5592  0.7051  0.0926
  724MOL0     C99778   2.911   7.153   2.790  0.4982 -0.0221 -0.6541
  724MOL0     C99779   2.877   7.056   2.697  0.7204 -0.1083 -0.6460
  724MOL0     C99780   2.794   6.950   2.741 -0.7415 -0.5680  0.0272
  724MOL0     C99781   2.746   6.949   2.879 -0.3496 -0.5958 -0.2170
  724MOL0     O99782   2.659   6.870   2.940 -0.1505  0.2897 -0.5433
  724MOL0     C99783   2.642   6.745   2.878 -0.9319 -0.6506  0.1094
  724MOL0     C99784   2.667   6.649   2.990  0.4026  0.5805 -0.8561
  724MOL0     C99785   2.556   6.657   3.095 -0.3441  0.3332  0.3719
  724MOL0     C99786   2.590   6.606   3.236  0.4555  0.0628 -0.9501
  724MOL0     C99787   2.486   6.607   3.342  0.1378  0.3136 -0.2274
  724MOL0     C99788   2.543   6.568   3.482  0.3707  0.0154  0.3167
  724MOL0     C99789   2.429   6.524   3.566  0.0145  0.7507 -0.3699
  724MOL0     C99790   2.384   6.374   3.550  0.2432 -0.2789  0.6461
  724MOL0     N99791   2.271   6.359   3.650 -0.1202  0.6057  0.2122
  724MOL0     C99792   2.142   6.390   3.633  0.6389  0.0395  0.0416
  724MOL0     C99793   2.075   6.339   3.744 -0.6245  0.1243  0.8578
  724MOL0     C99794   1.935   6.297   3.755  0.3837  0.7534  0.2340
  724MOL0     C99795   1.889   6.189   3.645 -1.2100  0.1412  0.0475
  724MOL0     C99796   1.749   6.134   3.676 -0.2600 -0.9149 -1.2361
  724MOL0     C99797   1.692   6.071   3.555  0.1506  0.8915  0.4953
  724MOL0     O99798   1.680   6.166   3.446  0.1771 -0.0880  0.7458
  724MOL0     C99799   1.585   6.263   3.446 -0.6213 -0.2803  0.8109
  724MOL0     C99800   1.452   6.226   3.411 -0.4681 -0.0470  0.6620
  724MOL0     C99801   1.347   6.320   3.413  0.3996  0.1248  0.4009
  724MOL0     C99802   1.208   6.261   3.399  0.1425 -0.2327  0.2537
  724MOL0     C99803   1.373   6.455   3.438 -0.0743 -0.0839 -0.3443
  724MOL0     C99804   1.266   6.570   3.410 -1.0493  0.0386 -0.5925
  724MOL0     O99805   1.319   6.694   3.370  0.0415 -0.3466 -0.0520
  724MOL0     C99806   1.236   6.796   3.382  0.1342 -0.9042 -0.1197
  724MOL0     C99807   1.176   6.829   3.500  1.1309 -0.5023  0.6687
  724MOL0     C99808   1.081   6.931   3.495 -0.5541 -0.5991 -0.5473
  724MOL0     C99809   1.056   7.005   3.378 -0.5007  1.1423  0.2309
  724MOL0     O99810   0.960   7.098   3.380  0.6390  1.1895  0.3375
  724MOL0     C99811   0.906   7.119   3.247  0.7191 -1.0369  0.0898
  724MOL0     C99812   0.776   7.199   3.263  0.0633 -0.3509  0.7690
  724MOL0     C99813   0.699   7.200   3.124  0.1051  0.3662 -0.3874
  724MOL0     C99814   0.592   7.302   3.130 -0.8438  0.6014 -0.6602
  724MOL0     C99815   0.515   7.320   2.992 -1.2232  0.9491  0.2161
  724MOL0     C99816   0.388   7.406   3.005  0.0250 -1.0053 -0.7923
  724MOL0     C99817   0.424   7.552   3.030 -0.2459  0.3862  0.2210
  724MOL0     C99818   0.508   7.618   2.918 -0.2554  0.5743 -0.2023
  724MOL0    Cl99819   0.391   7.729   2.839 -0.2710 -0.0085  0.2271
  724MOL0     C99820   1.137   6.983   3.268 -0.0555  0.5879 -0.0457
  724MOL0     C99821   1.226   6.874   3.271  0.7050 -0.9129 -0.7639
  724MOL0     O99822   1.151   6.546   3.426  0.3206 -0.2726 -0.0757
  724MOL0     C99823   1.513   6.492   3.458  0.4881 -0.0917 -0.8270
  724MOL0     C99824   1.611   6.399   3.473  0.6130  0.6642 -0.0699
  724MOL0     N99825   2.166   6.284   3.825 -0.3027  0.2963  0.1806
  724MOL0     N99826   2.283   6.281   3.759 -0.4495 -0.8721 -0.0452
  724MOL0     C99827   2.798   7.043   2.970 -0.1121  1.1682 -0.5820
  724MOL0     C99828   2.883   7.136   2.925 -0.6477 -0.9816  0.4988
  724MOL0     C99829   2.972   7.491   2.683 -0.3432 -0.1131  0.1772
  724MOL0     C99830   3.075   7.524   2.772  0.5920  0.0006 -0.7574
  724MOL0     C99831   3.150   7.640   2.780  0.3386 -0.3893 -1.0523
  724MOL0     C99832   3.118   7.737   2.684 -0.3369 -0.1510  0.1392
  724MOL0     O99833   3.181   7.853   2.659 -0.2943  0.1152 -0.1350
  724MOL0     C99834   3.316   7.874   2.713 -0.2449 -0.0962 -0.4618
  724MOL0     C99835   3.298   7.973   2.824 -0.5440 -0.8867  0.0230
  724MOL0     C99836   3.422   7.986   2.922 -0.3133  0.0765  0.3023
  724MOL0     C99837   3.401   7.890   3.046 -0.8390 -0.4794 -1.0596
  724MOL0     C99838   3.417   7.745   3.019 -0.0577 -1.6403 -0.2894
  724MOL0     C99839   3.456   7.636   2.990  0.4593  0.2631 -0.9484
  724MOL0     C99840   3.016   7.716   2.593 -0.8026  0.3553  0.2508
  724MOL0     C99841   2.939   7.601   2.600 -1.6401  0.1181  0.8739
  724MOL0     C99842   2.833   7.590   2.496  0.4776 -0.1357 -0.2052
  724MOL0     H99843   2.906   7.061   2.592 -0.0437 -2.1122 -0.9852
  724MOL0     H99844   2.768   6.873   2.670 -0.3234 -2.7576  2.1284
  724MOL0     H99845   2.716   6.717   2.802  0.9942 -0.6341  1.8653
  724MOL0     H99846   2.540   6.728   2.843 -2.0645  2.0107  1.7671
  724MOL0     H99847   2.670   6.546   2.954  0.2823  0.4299 -0.4466
  724MOL0     H99848   2.766   6.655   3.035  0.0759 -1.8540  0.3674
  724MOL0     H99849   2.508   6.755   3.102 -0.6497  0.2824 -0.8252
  724MOL0     H99850   2.473   6.596   3.057 -1.2340 -0.8698  3.8346
  724MOL0     H99851   2.618   6.501   3.220 -0.7919 -0.8637  2.1471
  724MOL0     H99852   2.683   6.653   3.268  1.5548 -2.1644 -0.6315
  724MOL0     H99853   2.412   6.528   3.327 -3.2669  2.1075  4.6494
  724MOL0     H99854   2.427   6.699   3.338  1.7360  1.4167  0.3623
  724MOL0     H99855   2.613   6.484   3.488 -1.0131 -1.1580  5.8063
  724MOL0     H99856   2.601   6.652   3.522  1.8701 -1.4389  1.3091
  724MOL0     H99857   2.344   6.591   3.552  0.4190  1.2847 -0.2785
  724MOL0     H99858   2.454   6.538   3.671 -0.3966 -1.2576  0.0366
  724MOL0     H99859   2.339   6.351   3.453  0.7067 -1.5583  0.7184
  724MOL0     H99860   2.460   6.302   3.580  0.9011  0.8406  1.7401
  724MOL0     H99861   2.090   6.428   3.545 -0.8207 -1.2880  0.2822
  724MOL0     H99862   1.865   6.381   3.751 -0.6275 -0.0819 -0.1873
  724MOL0     H99863   1.913   6.253   3.852  3.1021 -0.0433  0.5593
  724MOL0     H99864   1.892   6.239   3.548  2.8472 -0.3360 -0.2521
  724MOL0     H99865   1.957   6.105   3.636 -2.0772 -0.5152 -0.4916
  724MOL0     H99866   1.755   6.072   3.766 -0.5182  2.4228  1.2908
  724MOL0     H99867   1.694   6.220   3.715  1.5023 -0.2547 -0.0281
  724MOL0     H99868   1.751   5.981   3.537  0.1741  1.2921 -1.7797
  724MOL0     H99869   1.591   6.036   3.577  0.9767 -1.9726  0.1367
  724MOL0     H99870   1.435   6.130   3.363  3.6738  1.1991 -4.3159
  724MOL0     H99871   1.151   6.295   3.486  0.5733 -1.5616  1.0843
  724MOL0     H99872   1.204   6.152   3.392 -1.3826 -0.1127 -1.7017
  724MOL0     H99873   1.152   6.304   3.315 -2.2021 -0.7848  1.4473
  724MOL0     H99874   1.198   6.786   3.597  0.5179  0.5288  1.2680
  724MOL0     H99875   1.021   6.968   3.577 -1.7559  1.1728 -2.1254
  724MOL0     H99876   0.967   7.176   3.177  2.0684 -1.5961  0.7776
  724MOL0     H99877   0.874   7.026   3.200 -5.0747 -0.4195  1.8951
  724MOL0     H99878   0.721   7.143   3.339  1.0602 -1.0831  0.9753
  724MOL0     H99879   0.788   7.303   3.294 -2.0122  0.5414 -1.1702
  724MOL0     H99880   0.660   7.099   3.109 -0.7827  0.7230 -0.4923
  724MOL0     H99881   0.766   7.216   3.039 -1.1832 -1.9228 -1.9258
  724MOL0     H99882   0.633   7.401   3.153 -1.1453  0.5073  0.3310
  724MOL0     H99883   0.522   7.272   3.209 -1.3642 -0.4263 -1.4787
  724MOL0     H99884   0.588   7.354   2.917 -1.2332  1.0129  0.2353
  724MOL0     H99885   0.471   7.224   2.967 -3.5358  1.6335  1.3729
  724MOL0     H99886   0.328   7.360   3.084 -0.3712  1.0071  0.1356
  724MOL0     H99887   0.325   7.388   2.917  1.7242  2.5506 -2.9703
  724MOL0     H99888   0.469   7.550   3.129 -2.0223 -0.2013  1.0466
  724MOL0     H99889   0.334   7.613   3.038  1.8440  3.7074  0.6154
  724MOL0     H99890   0.557   7.548   2.850  0.3119  0.2580  0.5156
  724MOL0     H99891   0.592   7.679   2.951 -0.9752  0.7426  1.4213
  724MOL0     H99892   1.144   7.031   3.171  2.5616 -2.2767 -1.4665
  724MOL0     H99893   1.288   6.828   3.194  3.6209  0.7543  0.4142
  724MOL0     H99894   1.545   6.595   3.465  0.1183  0.0939 -1.7739
  724MOL0     H99895   1.712   6.433   3.489 -0.3367  4.0364 -0.4818
  724MOL0     H99896   2.767   7.043   3.074  1.0764  0.7474 -0.2115
  724MOL0     H99897   2.928   7.208   2.993 -2.9158  0.9014  0.1017
  724MOL0     H99898   3.096   7.455   2.853  1.9913  0.2390 -0.8878
  724MOL0     H99899   3.219   7.664   2.861 -0.4090  2.8623 -1.2613
  724MOL0     H99900   3.365   7.778   2.731 -1.2227 -1.2263 -3.1566
  724MOL0     H99901   3.373   7.908   2.626  1.5217  0.9362  1.0319
  724MOL0     H99902   3.202   7.948   2.871 -2.2205  1.8914 -1.6185
  724MOL0     H99903   3.278   8.072   2.782 -1.2222 -0.0936  2.0734
  724MOL0     H99904   3.511   7.971   2.861 -0.5430  2.3205 -0.7112
  724MOL0     H99905   3.425   8.091   2.955 -2.8983  0.8640 -1.5993
  724MOL0     H99906   3.302   7.895   3.091  0.3232 -2.4776  2.0846
  724MOL0     H99907   3.478   7.924   3.116 -1.0240  3.4549 -2.5123
  724MOL0     H99908   3.488   7.536   2.969 -1.3113 -0.7388  0.7826
  724MOL0     H99909   2.995   7.787   2.513  1.3487 -0.5080 -1.1458
  724MOL0     H99910   2.828   7.684   2.439 -0.2484  1.0665  1.7497
  724MOL0     H99911   2.860   7.512   2.424  1.2311 -0.2897  0.2376
  724MOL0     H99912   2.740   7.552   2.539 -0.5046 -0.9059 -2.7938
  725MOL0     O99913   1.795   4.726   1.133  0.1171 -0.6742 -0.7505
  725MOL0     C99914   1.827   4.711   1.249 -0.7274  0.4156 -0.3244
  725MOL0     O99915   1.822   4.591   1.321 -0.6420 -0.1206 -0.1533
  725MOL0     C99916   1.755   4.489   1.269 -0.2305 -0.0796  0.5742
  725MOL0     C99917   1.812   4.359   1.270 -0.6081 -0.8670  0.3763
  725MOL0     C99918   1.740   4.245   1.227  0.0136 -0.6512 -0.2821
  725MOL0     C99919   1.606   4.261   1.191  0.0871 -0.4681  0.5534
  725MOL0     O99920   1.524   4.167   1.144  0.4815  0.6542  0.1132
  725MOL0     C99921   1.575   4.032   1.133 -0.2733 -0.1530  0.7158
  725MOL0     C99922   1.452   3.935   1.107 -0.3439 -0.4000  0.6047
  725MOL0     C99923   1.475   3.798   1.178 -0.3412 -0.0894  0.3855
  725MOL0     C99924   1.341   3.725   1.206 -0.3830 -0.6706 -0.2254
  725MOL0     C99925   1.362   3.598   1.279  0.2448  0.5530  0.1693
  725MOL0     C99926   1.416   3.475   1.199  0.5705  0.0333  0.0142
  725MOL0     C99927   1.430   3.345   1.282 -0.4007  0.5896  0.5817
  725MOL0     C99928   1.474   3.376   1.434 -0.0223 -1.0252 -0.2356
  725MOL0     N99929   1.472   3.252   1.506  0.1806  0.0650  0.7272
  725MOL0     C99930   1.541   3.139   1.464  0.1437  0.5110  0.4124
  725MOL0     C99931   1.497   3.049   1.551  0.1364  0.6018 -0.0401
  725MOL0     C99932   1.552   2.910   1.549 -0.1609 -0.0102  0.2760
  725MOL0     C99933   1.527   2.836   1.679  0.0772  0.2305  0.0590
  725MOL0     C99934   1.606   2.701   1.670  0.0759 -0.1270 -1.0765
  725MOL0     C99935   1.512   2.590   1.629  0.0013 -0.4181 -0.1031
  725MOL0     O99936   1.403   2.575   1.719 -0.0560 -0.5775  0.0683
  725MOL0     C99937   1.347   2.456   1.733 -0.1267  0.9280 -0.6089
  725MOL0     C99938   1.242   2.437   1.828 -0.7309  0.9294 -0.1733
  725MOL0     C99939   1.148   2.331   1.814 -0.6330  1.0297 -0.4503
  725MOL0     C99940   1.027   2.327   1.911 -0.4116 -0.8804 -0.4088
  725MOL0     C99941   1.166   2.233   1.722  0.0832 -0.0054 -0.2547
  725MOL0     C99942   1.076   2.125   1.714 -0.3571  0.5420 -1.0883
  725MOL0     O99943   0.971   2.145   1.631 -0.2444  0.0392 -0.2334
  725MOL0     C99944   0.893   2.043   1.596  1.0137 -0.2284 -0.8734
  725MOL0     C99945   0.943   1.925   1.549 -0.9453 -1.1813 -0.7872
  725MOL0     C99946   0.856   1.823   1.509  0.2727  0.5688  0.3876
  725MOL0     C99947   0.713   1.831   1.513  0.5945  0.0821  0.3607
  725MOL0     O99948   0.625   1.738   1.476  0.4596  0.6534 -0.5161
  725MOL0     C99949   0.587   1.755   1.347 -0.2730  1.3891 -0.7413
  725MOL0     C99950   0.611   1.633   1.267 -0.6520  0.4944  0.0686
  725MOL0     C99951   0.582   1.637   1.121 -0.1035  0.0056 -0.4925
  725MOL0     C99952   0.718   1.606   1.051 -0.1323  0.6360 -0.0680
  725MOL0     C99953   0.712   1.638   0.898 -0.8528 -0.4354 -0.0648
  725MOL0     C99954   0.824   1.557   0.823 -0.5442  1.1262  0.0888
  725MOL0     C99955   0.786   1.408   0.806 -0.1955  0.5124 -0.0885
  725MOL0     C99956   0.863   1.336   0.697  0.8308  0.0286 -0.9788
  725MOL0    Cl99957   1.040   1.348   0.714  0.3445 -0.1748 -0.0968
  725MOL0     C99958   0.663   1.956   1.570 -1.1709 -0.2661  0.8742
  725MOL0     C99959   0.753   2.058   1.604  0.6466 -0.2934  0.7706
  725MOL0     O99960   1.102   2.020   1.773  0.0476  0.3479  0.6145
  725MOL0     C99961   1.278   2.234   1.641 -1.0588 -1.0594  0.8025
  725MOL0     C99962   1.358   2.350   1.644 -0.9954  0.3608 -0.2440
  725MOL0     N99963   1.399   3.091   1.635  0.2736 -0.2615 -0.6510
  725MOL0     N99964   1.388   3.222   1.611  0.1736 -0.3154 -0.0545
  725MOL0     C99965   1.556   4.392   1.179  0.3721 -1.0084  0.2882
  725MOL0     C99966   1.622   4.506   1.220 -0.3108 -0.7975 -0.1704
  725MOL0     C99967   1.879   4.829   1.320 -1.0453  0.6202 -0.1802
  725MOL0     C99968   1.869   4.832   1.460  0.0024  0.2906 -0.7923
  725MOL0     C99969   1.902   4.949   1.530  0.0951  0.4182  0.5085
  725MOL0     C99970   1.974   5.055   1.472 -0.1684  0.4558  0.1181
  725MOL0     O99971   2.037   5.160   1.550 -0.4527  0.3471  0.1681
  725MOL0     C99972   1.963   5.208   1.665 -0.0463  0.1504 -0.7372
  725MOL0     C99973   2.020   5.355   1.701  0.5361 -1.0291  0.4061
  725MOL0     C99974   1.964   5.416   1.835 -0.7158 -0.1722  0.7768
  725MOL0     C99975   1.810   5.458   1.814  0.3952  0.0131  0.2653
  725MOL0     C99976   1.805   5.577   1.738  1.1211  0.3159 -0.2807
  725MOL0     C99977   1.818   5.680   1.678  1.1968  0.6988 -1.0842
  725MOL0     C99978   1.992   5.052   1.331  0.6479 -0.9698 -0.1603
  725MOL0     C99979   1.938   4.944   1.254 -0.4324  0.1956 -0.2229
  725MOL0     C99980   1.944   4.967   1.096  0.5828 -0.1911  0.2098
  725MOL0     H99981   1.909   4.333   1.312  0.3443 -0.2956 -1.3414
  725MOL0     H99982   1.785   4.147   1.217 -1.6667 -1.2982 -1.9484
  725MOL0     H99983   1.630   3.988   1.217  0.3614 -3.4147 -1.2422
  725MOL0     H99984   1.647   4.028   1.051  1.7448  1.7372  2.2616
  725MOL0     H99985   1.373   3.997   1.151  0.5821  2.2545 -1.1989
  725MOL0     H99986   1.421   3.920   1.003  1.2869 -1.7173  0.2702
  725MOL0     H99987   1.534   3.734   1.112 -0.1196 -0.2318  0.7234
  725MOL0     H99988   1.527   3.799   1.274 -1.3986 -0.5588  0.9866
  725MOL0     H99989   1.288   3.789   1.277  1.4511  0.4115  0.2393
  725MOL0     H99990   1.285   3.717   1.113 -1.0548  0.6553  0.0384
  725MOL0     H99991   1.268   3.563   1.323  0.3801  0.1371  0.1270
  725MOL0     H99992   1.422   3.620   1.368 -1.6759  2.4821  1.0742
  725MOL0     H99993   1.349   3.463   1.113 -0.7314 -1.5071  1.1805
  725MOL0     H99994   1.517   3.503   1.167  0.8230 -0.9943 -0.1051
  725MOL0     H99995   1.512   3.287   1.239 -2.7301 -0.7986 -2.3255
  725MOL0     H99996   1.347   3.274   1.276  1.0011 -1.0035 -1.2755
  725MOL0     H99997   1.573   3.423   1.442 -1.0194  0.9905  1.2019
  725MOL0     H99998   1.402   3.439   1.488  2.7962 -1.1961  4.1494
  725MOL0     H99999   1.608   3.129   1.380  0.6453 -1.0346  0.9500
  725MOL0     H    0   1.659   2.911   1.524 -0.3490 -0.0693 -0.5437
  725MOL0     H    1   1.500   2.865   1.464 -2.4487  0.3119  1.4194
  725MOL0     H    2   1.589   2.893   1.750 -0.1283 -0.7260  1.0227
  725MOL0     H    3   1.422   2.830   1.708 -0.3274 -2.5399 -1.5713
  725MOL0     H    4   1.688   2.691   1.598  0.0361  0.4461 -1.2065
  725MOL0     H    5   1.644   2.674   1.769  0.7400 -0.7659 -1.4917
  725MOL0     H    6   1.471   2.608   1.528 -2.6925 -0.7511  0.8528
  725MOL0     H    7   1.580   2.505   1.622  0.0689 -0.3872  0.1909
  725MOL0     H    8   1.222   2.515   1.901 -0.8591  0.0167  0.7939
  725MOL0     H    9   1.052   2.384   2.000 -0.4024 -1.7678  0.1675
  725MOL0     H   10   0.996   2.230   1.952 -3.0496  1.3197  3.3334
  725MOL0     H   11   0.939   2.380   1.874 -0.8564  1.1773  3.2279
  725MOL0     H   12   1.049   1.910   1.531 -0.3270  2.8061 -1.5892
  725MOL0     H   13   0.897   1.730   1.474  2.3611  2.0094 -1.2192
  725MOL0     H   14   0.480   1.778   1.340 -0.4953  1.8049  2.3465
  725MOL0     H   15   0.627   1.837   1.288 -1.7014  1.4850 -1.6271
  725MOL0     H   16   0.713   1.601   1.292  0.1254  3.7510  1.6968
  725MOL0     H   17   0.541   1.563   1.313 -0.2890  1.0593  1.5640
  725MOL0     H   18   0.542   1.735   1.093 -0.1470 -0.1469 -0.9618
  725MOL0     H   19   0.517   1.555   1.091 -0.7178  1.3881 -3.2657
  725MOL0     H   20   0.743   1.502   1.075 -2.4836  0.3720  1.5342
  725MOL0     H   21   0.796   1.671   1.090 -1.6537  2.0955  0.6530
  725MOL0     H   22   0.613   1.610   0.863 -0.3976 -1.9999 -0.1676
  725MOL0     H   23   0.729   1.745   0.882 -1.3486  0.0855  2.4626
  725MOL0     H   24   0.921   1.551   0.874 -0.8634 -0.2083  0.5832
  725MOL0     H   25   0.830   1.587   0.718 -2.3757 -1.9127 -1.0275
  725MOL0     H   26   0.685   1.407   0.764  0.5052  3.4366 -2.1854
  725MOL0     H   27   0.791   1.359   0.904 -3.7682  1.6051  0.8050
  725MOL0     H   28   0.837   1.381   0.600  2.8846  2.2810 -0.5762
  725MOL0     H   29   0.838   1.230   0.707 -0.3170  0.4368  1.2672
  725MOL0     H   30   0.555   1.966   1.570 -1.1580 -0.0962  0.4082
  725MOL0     H   31   0.720   2.156   1.635 -0.6045 -0.8089  1.1293
  725MOL0     H   32   1.303   2.148   1.580 -0.3828  0.5738 -1.3790
  725MOL0     H   33   1.438   2.358   1.570  2.0039  3.3495  2.9462
  725MOL0     H   34   1.455   4.408   1.144 -1.5150 -3.0303  4.0963
  725MOL0     H   35   1.564   4.597   1.217  0.6065 -0.0402  2.3290
  725MOL0     H   36   1.829   4.750   1.519  2.1979 -0.1963  0.1020
  725MOL0     H   37   1.900   4.935   1.637 -0.5576  1.1475  0.6028
  725MOL0     H   38   1.855   5.214   1.646 -0.0460 -0.4861 -0.9650
  725MOL0     H   39   1.978   5.147   1.754  0.8256 -0.5680 -1.3627
  725MOL0     H   40   1.992   5.431   1.627 -2.3703 -1.6350  0.7510
  725MOL0     H   41   2.128   5.349   1.718  0.7650  2.0975  0.5396
  725MOL0     H   42   1.962   5.352   1.923  2.8325  0.2844  1.3348
  725MOL0     H   43   2.023   5.504   1.860 -2.0035  0.3687  2.0079
  725MOL0     H   44   1.756   5.479   1.907  0.1311  0.0304  0.1093
  725MOL0     H   45   1.758   5.375   1.764  1.4800 -1.0034  0.7599
  725MOL0     H   46   1.823   5.784   1.657 -2.0855  1.3895  0.8410
  725MOL0     H   47   2.048   5.133   1.286  0.3009  0.2480  1.4798
  725MOL0     H   48   2.005   5.057   1.081 -1.9628  1.4919 -0.6444
  725MOL0     H   49   1.976   4.877   1.043 -3.3893 -0.8645 -1.4009
  725MOL0     H   50   1.843   4.982   1.057 -0.5300 -2.1145  2.1416
  726MOL0     O   51   1.202   6.306   6.894  0.3273  0.2964 -0.1536
  726MOL0     C   52   1.180   6.214   6.975  0.4780 -0.6007 -0.0482
  726MOL0     O   53   1.234   6.089   6.965  0.3551  1.0792  0.4498
  726MOL0     C   54   1.332   6.074   6.880  0.1832  0.0749  0.2018
  726MOL0     C   55   1.458   6.124   6.913  0.4286 -0.4131  1.0418
  726MOL0     C   56   1.566   6.095   6.840  0.0900 -0.4028 -0.3515
  726MOL0     C   57   1.555   6.011   6.730 -0.3286  0.1492 -0.7634
  726MOL0     O   58   1.677   5.992   6.663 -0.8301  0.7839 -0.0547
  726MOL0     C   59   1.657   5.978   6.524  0.2002  0.3521  0.0729
  726MOL0     C   60   1.789   6.016   6.458 -0.1722 -0.5365  1.3954
  726MOL0     C   61   1.901   5.909   6.480 -0.2822 -0.3979 -0.8827
  726MOL0     C   62   2.032   5.965   6.444 -0.1194  1.0714 -0.1332
  726MOL0     C   63   2.145   5.857   6.416 -1.0902 -0.4103 -0.3808
  726MOL0     C   64   2.281   5.910   6.451  0.0309 -0.6550 -0.8244
  726MOL0     C   65   2.397   5.804   6.442  0.1131 -0.3593 -0.1145
  726MOL0     C   66   2.530   5.877   6.452 -0.2447  0.1247  0.9340
  726MOL0     N   67   2.643   5.785   6.410  0.9168  0.4888 -0.1511
  726MOL0     C   68   2.746   5.765   6.496 -0.8788  0.3153  0.6578
  726MOL0     C   69   2.835   5.698   6.427 -1.2512  0.4038 -0.2201
  726MOL0     C   70   2.973   5.649   6.483  0.1949 -0.5773 -0.2691
  726MOL0     C   71   2.983   5.497   6.483  0.6613 -0.1535 -0.0496
  726MOL0     C   72   3.116   5.435   6.528  0.0899 -0.1359  0.1286
  726MOL0     C   73   3.101   5.289   6.507  0.5382  0.2640  0.4152
  726MOL0     O   74   3.212   5.233   6.582 -1.3707 -0.1007  0.3980
  726MOL0     C   75   3.315   5.177   6.508  1.0160  0.1977 -0.0100
  726MOL0     C   76   3.371   5.238   6.398  0.1273 -0.1934 -1.3674
  726MOL0     C   77   3.472   5.168   6.325  1.6200  0.0417 -0.5955
  726MOL0     C   78   3.508   5.237   6.191 -0.2274  0.2418 -0.1961
  726MOL0     C   79   3.513   5.040   6.364  0.1888  0.7213 -0.1120
  726MOL0     C   80   3.619   4.961   6.298 -0.2535 -1.1497 -0.2310
  726MOL0     O   81   3.649   4.829   6.343 -0.6691 -0.0547  0.5826
  726MOL0     C   82   3.738   4.760   6.260  0.4755  0.6095  0.5810
  726MOL0     C   83   3.679   4.678   6.166  0.3727 -0.7224  0.0351
  726MOL0     C   84   3.764   4.606   6.083  0.4793  0.5916  0.1684
  726MOL0     C   85   3.907   4.609   6.093  1.0476  1.3662 -0.5848
  726MOL0     O   86   3.991   4.517   6.029  0.4758 -0.5342 -0.7947
  726MOL0     C   87   3.946   4.421   5.933 -0.3683  0.1609 -0.0615
  726MOL0     C   88   4.070   4.372   5.848  0.5908 -1.2715 -0.7150
  726MOL0     C   89   4.039   4.263   5.741 -0.7544 -0.5608 -0.8675
  726MOL0     C   90   3.970   4.328   5.617 -0.2624  0.4670  0.9804
  726MOL0     C   91   3.844   4.272   5.563 -0.4093 -0.4880  0.0870
  726MOL0     C   92   3.718   4.312   5.636  0.4230 -0.2259  0.1390
  726MOL0     C   93   3.597   4.234   5.604  0.6869 -0.2487 -0.2174
  726MOL0     C   94   3.473   4.308   5.663 -0.1108  0.1779  0.0442
  726MOL0    Cl   95   3.450   4.240   5.823  0.1123  0.1237 -0.1014
  726MOL0     C   96   3.948   4.700   6.180  0.2503  0.1504 -0.3784
  726MOL0     C   97   3.875   4.780   6.266  0.6241  0.3114 -0.7796
  726MOL0     O   98   3.690   5.029   6.221  0.2907 -0.2913 -0.5490
  726MOL0     C   99   3.454   4.984   6.477  1.4155 -1.0581  0.0297
  726MOL0     C  100   3.350   5.051   6.548 -0.4721 -0.8034  1.4558
  726MOL0     N  101   2.783   5.695   6.294 -1.3656  0.5346 -1.0986
  726MOL0     N  102   2.668   5.742   6.289 -0.0055  0.9702 -0.1337
  726MOL0     C  103   1.434   5.942   6.706 -0.0622  0.1188  0.5642
  726MOL0     C  104   1.321   5.973   6.787 -0.0497 -0.1566  0.3102
  726MOL0     C  105   1.104   6.242   7.104 -0.3307  0.6449 -1.0748
  726MOL0     C  106   1.068   6.373   7.132 -0.1712 -0.6904  0.5608
  726MOL0     C  107   0.996   6.419   7.247 -0.2014  0.8274  0.2731
  726MOL0     C  108   0.944   6.320   7.331  0.2804 -0.0353 -0.3255
  726MOL0     O  109   0.865   6.362   7.430 -0.0490 -0.5411 -0.0766
  726MOL0     C  110   0.815   6.281   7.533 -0.5306  0.0447 -0.1480
  726MOL0     C  111   0.737   6.361   7.645  0.4325 -0.3568 -0.2140
  726MOL0     C  112   0.681   6.261   7.757 -0.4685 -0.7134 -0.2125
  726MOL0     C  113   0.639   6.330   7.889  0.3220 -0.0046  0.5291
  726MOL0     C  114   0.525   6.427   7.873 -0.0568  1.2768 -0.2829
  726MOL0     C  115   0.428   6.496   7.851 -0.8381 -0.4939  0.9684
  726MOL0     C  116   0.977   6.185   7.311  0.3206  0.0922 -0.2271
  726MOL0     C  117   1.054   6.146   7.198  0.5693 -1.0407  0.5463
  726MOL0     C  118   1.079   5.997   7.192 -0.2557 -0.1812  0.1495
  726MOL0     H  119   1.463   6.173   7.009 -1.7775  1.9022  0.0964
  726MOL0     H  120   1.666   6.126   6.867  0.9807 -0.6473 -3.0967
  726MOL0     H  121   1.574   6.041   6.491 -0.9898 -2.0371 -1.7341
  726MOL0     H  122   1.621   5.879   6.496 -4.2645  1.6907  0.2964
  726MOL0     H  123   1.784   6.020   6.349  0.6806 -2.3009  1.2542
  726MOL0     H  124   1.809   6.111   6.509  1.5209 -1.1566  1.9780
  726MOL0     H  125   1.900   5.864   6.580 -0.7564  2.3175  0.4332
  726MOL0     H  126   1.889   5.822   6.414  3.8479 -0.0542 -2.3793
  726MOL0     H  127   2.024   6.007   6.343 -0.7401  2.0491  0.3130
  726MOL0     H  128   2.059   6.032   6.526 -0.3442  0.0128  0.8297
  726MOL0     H  129   2.140   5.821   6.313 -1.5968 -3.0468  0.4881
  726MOL0     H  130   2.125   5.770   6.479  0.3331 -0.2337  0.3713
  726MOL0     H  131   2.295   5.993   6.380 -1.7745 -1.5019 -2.2598
  726MOL0     H  132   2.280   5.951   6.552  3.2856  4.0093 -2.3129
  726MOL0     H  133   2.389   5.761   6.342  0.5876 -1.4962  0.3226
  726MOL0     H  134   2.394   5.730   6.522 -0.0038  0.7047  0.8917
  726MOL0     H  135   2.528   5.969   6.391  1.3847 -1.0836 -1.0920
  726MOL0     H  136   2.541   5.915   6.554  0.6616  0.3344  0.7692
  726MOL0     H  137   2.751   5.810   6.595 -0.5867  1.1234  0.2891
  726MOL0     H  138   2.980   5.678   6.588  6.1752  2.7742 -1.1107
  726MOL0     H  139   3.065   5.686   6.435  0.8728 -3.4335 -1.3221
  726MOL0     H  140   2.907   5.459   6.551  0.5388  1.2444  0.6281
  726MOL0     H  141   2.951   5.462   6.384  3.7255 -1.9265 -0.5615
  726MOL0     H  142   3.192   5.476   6.462  0.0420  1.0440  0.7854
  726MOL0     H  143   3.147   5.458   6.631  1.9744 -2.6136  0.2159
  726MOL0     H  144   3.006   5.256   6.551  0.2243  0.8294  0.1741
  726MOL0     H  145   3.092   5.256   6.403 -0.3160 -2.1462  1.1794
  726MOL0     H  146   3.336   5.337   6.371  1.7272  1.3541  1.7201
  726MOL0     H  147   3.433   5.315   6.170  0.1839  1.1185  1.4027
  726MOL0     H  148   3.498   5.170   6.106 -1.3179  0.2666 -0.1128
  726MOL0     H  149   3.612   5.270   6.197 -0.3322  0.4490  0.6158
  726MOL0     H  150   3.571   4.674   6.169  0.1195  3.0606  0.3362
  726MOL0     H  151   3.721   4.530   6.018  0.6616 -0.9469  1.7560
  726MOL0     H  152   3.902   4.334   5.983 -1.6158 -0.4175 -2.0718
  726MOL0     H  153   3.874   4.471   5.869 -0.8942  3.2771  2.7020
  726MOL0     H  154   4.115   4.460   5.802 -3.8359  2.6998  1.6226
  726MOL0     H  155   4.146   4.333   5.916 -0.8348 -3.5188 -0.3026
  726MOL0     H  156   3.968   4.186   5.774 -2.8139  0.0045 -3.6111
  726MOL0     H  157   4.125   4.205   5.706 -0.7052 -2.2732  1.7985
  726MOL0     H  158   4.047   4.307   5.541  0.1233  1.8802  0.9427
  726MOL0     H  159   3.951   4.435   5.628 -1.9676  0.1123  1.6828
  726MOL0     H  160   3.834   4.294   5.456 -1.0469  0.1577  0.2705
  726MOL0     H  161   3.861   4.164   5.570 -0.6623 -0.9455 -3.8951
  726MOL0     H  162   3.703   4.416   5.606 -0.1410 -0.7717 -1.5428
  726MOL0     H  163   3.727   4.303   5.745 -2.0787 -0.0424  0.4024
  726MOL0     H  164   3.606   4.125   5.608 -3.5249 -0.7879 -0.4760
  726MOL0     H  165   3.572   4.253   5.499  0.2688 -0.4350 -0.1559
  726MOL0     H  166   3.381   4.286   5.609 -0.4412 -4.1005  2.0075
  726MOL0     H  167   3.487   4.415   5.682 -2.0337  0.2672  1.1933
  726MOL0     H  168   4.051   4.733   6.172 -0.6079  3.2524 -0.0911
  726MOL0     H  169   3.933   4.847   6.329 -1.9927  1.2578  0.7844
  726MOL0     H  170   3.487   4.889   6.517 -0.6015 -2.0268 -0.4608
  726MOL0     H  171   3.302   5.007   6.635 -2.5874 -2.7901 -0.5630
  726MOL0     H  172   1.410   5.855   6.644 -0.6149  0.4301  0.3328
  726MOL0     H  173   1.227   5.921   6.773 -0.9409  1.6914 -0.8709
  726MOL0     H  174   1.113   6.448   7.068  1.2384 -0.0400  2.2505
  726MOL0     H  175   0.977   6.521   7.280 -1.7229  0.3212  1.0600
  726MOL0     H  176   0.739   6.214   7.491 -1.5440 -0.4137  2.2482
  726MOL0     H  177   0.894   6.219   7.577  2.9586  1.1008 -4.2252
  726MOL0     H  178   0.657   6.424   7.605 -0.9297 -1.5694  0.5167
  726MOL0     H  179   0.810   6.423   7.698  2.0680  0.5525 -3.2639
  726MOL0     H  180   0.589   6.214   7.719 -0.5810 -0.4291 -0.2948
  726MOL0     H  181   0.771   6.204   7.778  2.1783  1.8127 -3.5240
  726MOL0     H  182   0.729   6.381   7.925 -0.1485  1.1346  0.1620
  726MOL0     H  183   0.624   6.258   7.970  1.6897 -0.8857  0.0168
  726MOL0     H  184   0.344   6.546   7.806  1.0150 -0.0241 -2.1871
  726MOL0     H  185   0.936   6.111   7.379 -0.5863  1.7459  1.1247
  726MOL0     H  186   1.054   5.951   7.287 -3.6242  0.2071 -0.4271
  726MOL0     H  187   1.008   5.968   7.113 -1.1070  2.5160 -0.1786
  726MOL0     H  188   1.185   5.985   7.168 -0.0326  3.1684 -0.9905
  727MOL0     O  189   1.654   6.899   9.721 -0.0619  0.6280 -0.2522
  727MOL0     C  190   1.619   6.938   9.833  1.2471 -1.0240  0.5870
  727MOL0     O  191   1.545   6.871   9.920 -0.1354  0.4870  0.4380
  727MOL0     C  192   1.508   6.742   9.883  0.2976 -0.1989  0.1886
  727MOL0     C  193   1.534   6.635   9.978 -0.0429 -0.1885  0.8024
  727MOL0     C  194   1.494   6.498   9.950  0.4749  0.4643  0.2678
  727MOL0     C  195   1.440   6.461   9.823  0.0913 -0.8165  0.4515
  727MOL0     O  196   1.398   6.335   9.786 -0.2183  0.7468  0.0793
  727MOL0     C  197   1.358   6.235   9.882  0.0327 -0.7536  0.2405
  727MOL0     C  198   1.250   6.145   9.829 -0.9200 -0.1510 -0.0665
  727MOL0     C  199   1.289   6.008   9.778 -0.0275 -0.4041 -0.4358
  727MOL0     C  200   1.161   5.931   9.719  0.4348  0.3437 -0.1361
  727MOL0     C  201   1.212   5.807   9.643 -0.5537  0.6740  0.1885
  727MOL0     C  202   1.102   5.701   9.613 -0.1075 -0.0385 -0.3426
  727MOL0     C  203   1.163   5.592   9.523 -0.2515  0.5676 -0.8237
  727MOL0     C  204   1.053   5.487   9.495  0.5677  0.2882 -0.3363
  727MOL0     N  205   1.103   5.389   9.396  0.1584 -0.7870  1.2053
  727MOL0     C  206   1.141   5.267   9.441  0.9713  0.0614  0.0112
  727MOL0     C  207   1.195   5.214   9.328 -0.1397 -0.3444  0.0666
  727MOL0     C  208   1.245   5.067   9.314 -0.2898  0.6490 -0.0832
  727MOL0     C  209   1.393   5.055   9.331  1.1684 -0.2183 -1.2159
  727MOL0     C  210   1.473   5.132   9.222 -0.5013 -0.1749  0.8106
  727MOL0     C  211   1.535   5.262   9.265 -0.4978 -0.8366  0.6771
  727MOL0     O  212   1.643   5.238   9.360 -0.0259  0.6800 -0.2006
  727MOL0     C  213   1.685   5.346   9.440  0.8288  0.7969  1.1713
  727MOL0     C  214   1.647   5.476   9.414  0.6854 -0.4974  0.2168
  727MOL0     C  215   1.662   5.589   9.505  1.1695  1.2016  1.0270
  727MOL0     C  216   1.585   5.714   9.476  0.5771  0.4448 -0.1084
  727MOL0     C  217   1.736   5.564   9.627  1.3166 -0.5756  0.5756
  727MOL0     C  218   1.763   5.664   9.736 -0.5693  0.4233 -0.5245
  727MOL0     O  219   1.670   5.761   9.734 -1.1350 -0.4408 -0.2558
  727MOL0     C  220   1.693   5.870   9.819  0.3477  0.2116 -0.9974
  727MOL0     C  221   1.790   5.968   9.797 -0.2533  0.6072  0.2399
  727MOL0     C  222   1.802   6.068   9.890  0.3284 -0.6696 -0.1394
  727MOL0     C  223   1.710   6.093   9.997 -0.1978  0.5427 -0.1942
  727MOL0     O  224   1.741   6.200  10.078  0.0264 -0.1651 -0.0449
  727MOL0     C  225   1.680   6.221  10.203 -0.3087  0.2457 -0.1764
  727MOL0     C  226   1.732   6.349  10.272 -0.6547 -0.3985  0.8541
  727MOL0     C  227   1.675   6.363  10.425  0.2795  0.4251  0.5187
  727MOL0     C  228   1.727   6.502  10.486 -0.1816 -0.1056  1.7227
  727MOL0     C  229   1.637   6.545  10.609 -0.2480  0.0370  0.4594
  727MOL0     C  230   1.607   6.421  10.695  0.1651 -0.2232 -0.7184
  727MOL0     C  231   1.544   6.454  10.827 -0.3363 -0.5205 -0.8061
  727MOL0     C  232   1.432   6.561  10.826  0.2070 -0.2063 -0.3723
  727MOL0    Cl  233   1.339   6.539  10.979  0.2385  0.1308 -0.1816
  727MOL0     C  234   1.613   5.996  10.016 -0.1015  0.1747 -0.1860
  727MOL0     C  235   1.598   5.889   9.922 -0.5110  0.1084  0.1274
  727MOL0     O  236   1.864   5.664   9.812  0.0554  0.1202 -0.3621
  727MOL0     C  237   1.773   5.429   9.656  0.7428  0.1744  0.2080
  727MOL0     C  238   1.751   5.321   9.566 -0.0524 -0.3925  0.4202
  727MOL0     N  239   1.187   5.299   9.219  0.6638  0.4061 -0.8782
  727MOL0     N  240   1.137   5.414   9.261 -0.1640  0.2065 -0.9193
  727MOL0     C  241   1.435   6.569   9.729  0.1874  0.2977 -0.5440
  727MOL0     C  242   1.441   6.706   9.764  0.6316  0.0171 -0.5269
  727MOL0     C  243   1.662   7.085   9.858  0.6965 -0.2268 -0.7598
  727MOL0     C  244   1.577   7.166   9.925  0.2494 -0.6457 -1.1288
  727MOL0     C  245   1.599   7.301   9.954 -0.4637 -0.6901 -0.8328
  727MOL0     C  246   1.725   7.354   9.909  0.8877  0.8841  0.2221
  727MOL0     O  247   1.765   7.484   9.941  0.3064  0.3210  0.4321
  727MOL0     C  248   1.678   7.577   9.990 -0.2043 -0.1817  0.0169
  727MOL0     C  249   1.749   7.703  10.035 -0.1373  0.0662 -0.2619
  727MOL0     C  250   1.823   7.700  10.177  0.6851  0.8589  1.0473
  727MOL0     C  251   1.936   7.806  10.166 -1.3766  0.4097 -0.5010
  727MOL0     C  252   1.985   7.828  10.309  0.3322 -0.1779  1.5088
  727MOL0     C  253   2.036   7.841  10.418 -0.0139 -0.5048  0.4398
  727MOL0     C  254   1.819   7.271   9.848 -0.6819  0.5515  0.1273
  727MOL0     C  255   1.789   7.135   9.835  0.6940  0.9338  0.3238
  727MOL0     C  256   1.916   7.061   9.789  0.3286 -0.6177 -0.3131
  727MOL0     H  257   1.600   6.677  10.052  1.1589  3.1813 -1.8977
  727MOL0     H  258   1.530   6.422  10.018  0.9206 -0.3426 -0.8448
  727MOL0     H  259   1.319   6.289   9.969  0.8408  0.4949 -0.1464
  727MOL0     H  260   1.448   6.180   9.913 -2.3311 -2.8500  4.2290
  727MOL0     H  261   1.189   6.128   9.918 -1.9754 -0.8544 -0.9115
  727MOL0     H  262   1.186   6.190   9.753  0.8542 -1.2476 -2.3418
  727MOL0     H  263   1.369   6.012   9.703  1.0975  0.3103  0.7569
  727MOL0     H  264   1.325   5.969   9.873  4.6380  2.1494 -0.8285
  727MOL0     H  265   1.080   5.910   9.790 -2.0306  0.8730 -2.5725
  727MOL0     H  266   1.116   5.997   9.644  2.6767 -0.2308 -2.0876
  727MOL0     H  267   1.285   5.749   9.700 -0.2816 -2.7168 -3.2117
  727MOL0     H  268   1.258   5.836   9.548 -2.3019  0.7031 -0.6884
  727MOL0     H  269   1.059   5.670   9.708 -0.0289  3.4154  0.9639
  727MOL0     H  270   1.025   5.753   9.555  0.8665 -0.5376 -2.1724
  727MOL0     H  271   1.239   5.540   9.582 -0.6885  1.5244  0.6413
  727MOL0     H  272   1.189   5.632   9.425  1.5674 -0.7309 -0.9114
  727MOL0     H  273   1.016   5.427   9.579  1.5271  1.0068  0.6165
  727MOL0     H  274   0.968   5.535   9.445  0.4965 -0.5693 -1.0635
  727MOL0     H  275   1.127   5.226   9.541 -2.3704 -2.4873 -1.3426
  727MOL0     H  276   1.208   5.026   9.220  0.4655 -2.5732  0.8964
  727MOL0     H  277   1.196   5.013   9.395  1.1765 -0.0329  0.3892
  727MOL0     H  278   1.414   5.082   9.435  3.3433  0.0442 -1.6687
  727MOL0     H  279   1.413   4.948   9.320  0.2100 -0.3220 -1.9922
  727MOL0     H  280   1.558   5.075   9.184 -1.6085 -0.9076 -0.6429
  727MOL0     H  281   1.403   5.147   9.139  2.1168  4.4745 -0.9151
  727MOL0     H  282   1.564   5.305   9.169  0.2748 -3.4918 -0.3529
  727MOL0     H  283   1.453   5.325   9.302 -2.0423 -0.8010 -2.4839
  727MOL0     H  284   1.581   5.509   9.335 -1.0919 -2.4450  0.8236
  727MOL0     H  285   1.645   5.803   9.455 -1.2937  2.3552  2.1912
  727MOL0     H  286   1.527   5.733   9.566  1.1941 -1.0257  0.6372
  727MOL0     H  287   1.510   5.690   9.400 -0.9727  1.1885  1.1430
  727MOL0     H  288   1.852   5.967   9.709 -1.3314  0.4008 -0.5417
  727MOL0     H  289   1.873   6.150   9.880 -0.1124 -0.0806  1.2396
  727MOL0     H  290   1.571   6.214  10.208 -0.5688  2.2755 -1.7273
  727MOL0     H  291   1.712   6.142  10.272 -1.6695  0.7320  1.0477
  727MOL0     H  292   1.841   6.356  10.283 -0.4315  0.1900 -1.2815
  727MOL0     H  293   1.695   6.431  10.210 -0.4186 -1.0420 -0.1674
  727MOL0     H  294   1.711   6.278  10.484  0.9087 -0.1198 -0.6131
  727MOL0     H  295   1.566   6.365  10.418  0.3397 -0.9512 -1.2335
  727MOL0     H  296   1.732   6.577  10.406  1.1538 -1.2820  0.6532
  727MOL0     H  297   1.827   6.487  10.528  0.4372 -0.5140  0.1693
  727MOL0     H  298   1.696   6.615  10.669  2.8611 -2.8920  1.1609
  727MOL0     H  299   1.542   6.586  10.575  1.8690  5.1337 -0.2755
  727MOL0     H  300   1.701   6.367  10.714 -0.9890 -1.7664  0.9438
  727MOL0     H  301   1.548   6.348  10.639  0.9398  0.2046 -2.1599
  727MOL0     H  302   1.623   6.505  10.883 -0.6417 -1.1890  0.2450
  727MOL0     H  303   1.506   6.366  10.878  2.3118 -0.1498  2.1385
  727MOL0     H  304   1.368   6.551  10.737  0.4146  1.2896 -0.7138
  727MOL0     H  305   1.485   6.655  10.810  1.0459 -0.8459 -1.4649
  727MOL0     H  306   1.533   6.017  10.086 -1.8577 -0.8524 -1.8058
  727MOL0     H  307   1.508   5.828   9.911 -2.6064  2.8859  0.7089
  727MOL0     H  308   1.832   5.409   9.745 -2.4305  0.6031  2.6127
  727MOL0     H  309   1.774   5.216   9.577 -3.3728 -1.3546 -0.5346
  727MOL0     H  310   1.394   6.545   9.631 -0.2197  1.2160 -0.6145
  727MOL0     H  311   1.406   6.779   9.692  0.5225  0.2774 -0.2151
  727MOL0     H  312   1.489   7.109   9.951 -1.2703  0.5971 -3.1844
  727MOL0     H  313   1.532   7.356  10.018 -0.1770 -2.3875  1.0191
  727MOL0     H  314   1.594   7.584   9.919 -0.8304 -1.1935  0.6238
  727MOL0     H  315   1.632   7.536  10.080 -1.0701  2.0598  0.6446
  727MOL0     H  316   1.689   7.792  10.054  1.2826  0.8626  0.6406
  727MOL0     H  317   1.811   7.740   9.953  2.4971 -2.1517  0.5683
  727MOL0     H  318   1.742   7.723  10.246 -1.6382  0.8292 -1.5000
  727MOL0     H  319   1.859   7.599  10.199  1.2864  1.1625  1.4983
  727MOL0     H  320   1.909   7.903  10.125  0.1758  2.3461  2.6852
  727MOL0     H  321   2.023   7.770  10.110  1.4898  0.5170  3.4526
  727MOL0     H  322   2.102   7.850  10.502  2.0086 -1.8496 -0.9273
  727MOL0     H  323   1.917   7.315   9.837 -0.0991  2.0352  6.9542
  727MOL0     H  324   1.911   6.955   9.816  3.3240 -0.7024  0.1840
  727MOL0     H  325   1.927   7.063   9.680 -0.6334 -2.6307 -0.4969
  727MOL0     H  326   2.004   7.098   9.840 -1.4583 -0.2674  2.7747
  728MOL0     O  327   6.483   9.882   9.311  0.1002 -0.2284 -0.1944
  728MOL0     C  328   6.583   9.817   9.342  0.7657 -1.2075 -0.0344
  728MOL0     O  329   6.581   9.693   9.403 -0.3747  0.0821  0.8272
  728MOL0     C  330   6.470   9.636   9.431  0.0244  1.4136  0.2857
  728MOL0     C  331   6.397   9.662   9.551 -0.5037 -0.3348 -0.9533
  728MOL0     C  332   6.271   9.611   9.568  0.3213 -0.7450  0.1573
  728MOL0     C  333   6.216   9.525   9.478  0.7622 -1.1358  0.4383
  728MOL0     O  334   6.089   9.464   9.492  0.1320  0.2502  0.2769
  728MOL0     C  335   6.021   9.491   9.616  0.2513  0.7612 -0.6611
  728MOL0     C  336   5.889   9.415   9.621  0.1057  0.6826  0.4800
  728MOL0     C  337   5.835   9.386   9.755  0.1232  0.1498 -0.1990
  728MOL0     C  338   5.694   9.345   9.755 -0.1887  0.5792 -0.0355
  728MOL0     C  339   5.625   9.310   9.886 -0.0974  0.3081  0.4370
  728MOL0     C  340   5.643   9.416   9.995  0.4407 -0.5038 -0.5710
  728MOL0     C  341   5.580   9.373  10.129 -0.2362 -1.3326 -0.2192
  728MOL0     C  342   5.684   9.295  10.216  0.4252  0.4117 -0.1198
  728MOL0     N  343   5.618   9.187  10.281  0.1801  0.1420  0.6790
  728MOL0     C  344   5.571   9.181  10.406  0.9860 -0.4027  0.2246
  728MOL0     C  345   5.545   9.049  10.437  0.1905  0.3538  0.1079
  728MOL0     C  346   5.505   9.007  10.577  0.0919  0.1567  0.1314
  728MOL0     C  347   5.353   8.977  10.578 -0.8781 -0.5792 -0.3667
  728MOL0     C  348   5.328   8.835  10.526 -0.0964 -1.4797 -0.6267
  728MOL0     C  349   5.261   8.751  10.631 -0.5700  0.1748 -0.3581
  728MOL0     O  350   5.338   8.705  10.746 -0.1420 -0.3617 -0.4710
  728MOL0     C  351   5.279   8.621  10.836  1.0545 -0.7615  0.6394
  728MOL0     C  352   5.345   8.603  10.955  0.4411 -0.1936 -0.3923
  728MOL0     C  353   5.283   8.563  11.073  0.5004  0.4983 -0.7835
  728MOL0     C  354   5.362   8.574  11.201 -0.1543 -0.2347  0.7770
  728MOL0     C  355   5.143   8.530  11.074  0.5662 -0.7991  0.1164
  728MOL0     C  356   5.045   8.510  11.187 -0.6532 -0.5537  0.4097
  728MOL0     O  357   4.907   8.482  11.162  0.4808 -0.0337 -0.8789
  728MOL0     C  358   4.810   8.523  11.252  0.0651 -1.1412 -1.1142
  728MOL0     C  359   4.815   8.632  11.343 -0.6005 -0.0130  0.8708
  728MOL0     C  360   4.704   8.681  11.429  0.6227  0.3542 -0.0257
  728MOL0     C  361   4.572   8.627  11.411  0.9961 -0.0841 -0.8244
  728MOL0     O  362   4.455   8.668  11.472 -0.3456  0.2802 -0.1448
  728MOL0     C  363   4.465   8.787  11.558 -0.7342  0.5696 -0.1461
  728MOL0     C  364   4.337   8.824  11.639 -0.5066 -0.2894  0.3507
  728MOL0     C  365   4.289   8.703  11.718  0.2461 -0.3728  0.1739
  728MOL0     C  366   4.385   8.669  11.835 -0.3170  0.2498 -0.4309
  728MOL0     C  367   4.359   8.533  11.896  0.4950 -0.4606 -0.3590
  728MOL0     C  368   4.237   8.533  11.985  0.8349  0.2872 -0.7970
  728MOL0     C  369   4.200   8.394  12.043  0.2686  0.3962 -0.1663
  728MOL0     C  370   4.049   8.327  12.037  0.5873  0.1371  0.2947
  728MOL0    Cl  371   3.941   8.454  12.112  0.5090  0.0505 -0.4293
  728MOL0     C  372   4.565   8.522  11.322 -0.0926  0.1012  0.3821
  728MOL0     C  373   4.680   8.473  11.245  1.1337  0.5677 -0.4558
  728MOL0     O  374   5.092   8.520  11.294  0.2897 -0.1336 -0.8128
  728MOL0     C  375   5.080   8.533  10.947  0.0675 -0.1474 -0.0819
  728MOL0     C  376   5.148   8.573  10.839 -0.3382 -0.1251  0.4901
  728MOL0     N  377   5.590   8.968  10.323  0.6342  0.4541 -0.3358
  728MOL0     N  378   5.628   9.060  10.236  0.6182 -0.1795 -0.3910
  728MOL0     C  379   6.287   9.483   9.374 -0.2212  0.3322  0.3280
  728MOL0     C  380   6.412   9.547   9.343  0.0419  0.5636 -1.6290
  728MOL0     C  381   6.716   9.865   9.316  0.0350  0.6386 -0.3029
  728MOL0     C  382   6.814   9.776   9.266 -0.7106 -0.0454 -0.0553
  728MOL0     C  383   6.947   9.819   9.244 -0.2425 -0.1620 -0.9394
  728MOL0     C  384   6.981   9.953   9.261 -0.5550 -0.1453  0.2616
  728MOL0     O  385   7.103  10.011   9.221 -0.3391  0.1974 -0.3907
  728MOL0     C  386   7.202   9.924   9.152 -0.3849 -0.1479  0.1564
  728MOL0     C  387   7.341   9.993   9.109 -0.4989  0.4057 -0.0215
  728MOL0     C  388   7.432  10.029   9.214  0.3376 -0.6728 -0.1240
  728MOL0     C  389   7.588  10.027   9.161  0.2370  0.5543  0.3424
  728MOL0     C  390   7.680  10.024   9.264 -0.0668 -0.3811  0.5632
  728MOL0     C  391   7.764  10.026   9.347  0.3676 -0.0720  0.5603
  728MOL0     C  392   6.886  10.039   9.316 -0.0376  0.4804 -0.4661
  728MOL0     C  393   6.757   9.996   9.342  0.1489 -0.5380 -0.0131
  728MOL0     C  394   6.658  10.099   9.398  0.0864  0.7278  0.3870
  728MOL0     H  395   6.443   9.724   9.627 -1.9790 -1.1582  0.6614
  728MOL0     H  396   6.217   9.652   9.652  0.5862  1.3790 -0.6602
  728MOL0     H  397   5.993   9.597   9.618 -6.1935 -0.5454  0.4871
  728MOL0     H  398   6.073   9.460   9.707 -0.8707  0.3070 -0.1489
  728MOL0     H  399   5.819   9.470   9.557 -0.4730  0.7185  1.1349
  728MOL0     H  400   5.907   9.317   9.578  3.1900 -0.3157  3.5859
  728MOL0     H  401   5.893   9.302   9.794 -0.5631 -1.2560 -2.0695
  728MOL0     H  402   5.835   9.473   9.821  2.9751  2.6745 -3.1333
  728MOL0     H  403   5.644   9.435   9.719  0.4857  0.9090 -0.1564
  728MOL0     H  404   5.690   9.253   9.696 -1.4644  0.9400 -0.5480
  728MOL0     H  405   5.674   9.216   9.914 -0.8929  1.0563  5.3493
  728MOL0     H  406   5.523   9.285   9.858  0.6968 -1.9280 -0.6738
  728MOL0     H  407   5.752   9.427  10.002  0.6268 -0.3716 -2.7931
  728MOL0     H  408   5.600   9.506   9.949  1.4702 -0.3050 -1.1875
  728MOL0     H  409   5.485   9.321  10.114 -0.5440 -1.3602  1.6436
  728MOL0     H  410   5.552   9.465  10.181  0.3703 -1.6162  0.6303
  728MOL0     H  411   5.754   9.246  10.148  1.2008 -0.9885  1.6119
  728MOL0     H  412   5.737   9.362  10.284  2.0699 -2.0529  1.1903
  728MOL0     H  413   5.579   9.266  10.473 -0.6032  2.2422 -2.6902
  728MOL0     H  414   5.528   9.078  10.657  0.6135 -1.1249  1.1420
  728MOL0     H  415   5.569   8.930  10.620  2.3819  1.7365 -0.2439
  728MOL0     H  416   5.306   8.978  10.677 -1.2091  0.0052 -0.5237
  728MOL0     H  417   5.307   9.051  10.512  1.5253  0.0981 -1.3895
  728MOL0     H  418   5.258   8.841  10.442  0.6812 -4.8509 -1.6607
  728MOL0     H  419   5.416   8.785  10.484  2.1856  1.8899 -0.2359
  728MOL0     H  420   5.180   8.815  10.668  1.0410  1.5095  1.0217
  728MOL0     H  421   5.216   8.662  10.586  2.2671 -2.4259  1.5416
  728MOL0     H  422   5.442   8.649  10.974  0.7537  1.7903 -5.2921
  728MOL0     H  423   5.465   8.535  11.202 -0.0418  0.0115  2.6569
  728MOL0     H  424   5.330   8.512  11.285 -0.0949  0.6932  1.5019
  728MOL0     H  425   5.368   8.679  11.230 -0.7902 -0.0314  0.1814
  728MOL0     H  426   4.912   8.680  11.356 -0.1113  0.4834 -3.1386
  728MOL0     H  427   4.715   8.761  11.500 -0.5481 -1.5213  2.4137
  728MOL0     H  428   4.545   8.779  11.632 -1.0266  0.9808  0.2157
  728MOL0     H  429   4.481   8.877  11.498  2.0856  0.2622 -0.0059
  728MOL0     H  430   4.357   8.909  11.705 -0.2059  0.4326 -0.6542
  728MOL0     H  431   4.260   8.859  11.570 -1.3035 -0.2581  1.2308
  728MOL0     H  432   4.284   8.611  11.658  3.8519 -2.5589  2.8355
  728MOL0     H  433   4.189   8.742  11.739 -0.1979  0.0745 -2.3985
  728MOL0     H  434   4.403   8.747  11.909  3.8014  0.3275 -1.2735
  728MOL0     H  435   4.482   8.645  11.791  0.3059 -2.1070  1.9676
  728MOL0     H  436   4.343   8.460  11.816  0.2958 -2.1034  1.1317
  728MOL0     H  437   4.445   8.505  11.958  2.9338  0.1128 -3.2397
  728MOL0     H  438   4.150   8.563  11.926 -1.1363 -1.3027  1.1197
  728MOL0     H  439   4.260   8.606  12.063  0.2644  0.9073 -1.1995
  728MOL0     H  440   4.215   8.406  12.151 -2.4535 -2.5991  0.7191
  728MOL0     H  441   4.265   8.313  12.010  1.2947  1.3503 -0.5614
  728MOL0     H  442   4.047   8.239  12.102  1.3278 -0.6453 -0.7075
  728MOL0     H  443   4.002   8.311  11.940 -0.7194  2.7833  0.3945
  728MOL0     H  444   4.465   8.482  11.320 -0.5278  0.7891  3.1641
  728MOL0     H  445   4.678   8.403  11.163  0.9135  0.7570 -0.6149
  728MOL0     H  446   4.974   8.515  10.934  0.2780 -1.9058  0.3742
  728MOL0     H  447   5.106   8.562  10.739  1.5985 -4.3579 -0.0724
  728MOL0     H  448   6.251   9.412   9.300  1.0274  0.8868 -0.8448
  728MOL0     H  449   6.454   9.527   9.245 -1.0966  0.0959 -2.0339
  728MOL0     H  450   6.799   9.669   9.253 -2.5126  0.3882 -1.9963
  728MOL0     H  451   7.026   9.748   9.224 -1.4491 -1.6551 -0.6379
  728MOL0     H  452   7.225   9.852   9.231  2.6430  1.5122  0.9376
  728MOL0     H  453   7.163   9.874   9.063  1.7982 -0.4032 -0.7102
  728MOL0     H  454   7.336  10.075   9.037  6.0152  0.5841 -0.8414
  728MOL0     H  455   7.377   9.915   9.042 -0.7347  1.7726 -1.8158
  728MOL0     H  456   7.403  10.131   9.240  1.9328 -0.2475  0.1347
  728MOL0     H  457   7.411   9.967   9.302  0.5100 -3.1228 -1.7020
  728MOL0     H  458   7.612  10.120   9.110  4.0079 -0.9882 -1.0761
  728MOL0     H  459   7.598   9.940   9.096 -3.3595  0.4865 -0.3395
  728MOL0     H  460   7.843  10.010   9.417  0.2795 -2.3847  0.2140
  728MOL0     H  461   6.909  10.145   9.325 -1.8766  0.7442  2.3172
  728MOL0     H  462   6.588  10.054   9.469 -0.0494  3.1953  1.9341
  728MOL0     H  463   6.725  10.167   9.452  0.9552 -0.1565  0.4512
  728MOL0     H  464   6.599  10.130   9.312  1.2132 -0.0783 -0.7183
  729MOL0     O  465   2.750   6.731   8.913 -0.8809  0.8031  0.4886
  729MOL0     C  466   2.644   6.659   8.927  0.3461  0.5504  0.0841
  729MOL0     O  467   2.647   6.526   8.967 -0.3405  0.0272 -0.2263
  729MOL0     C  468   2.766   6.455   8.955 -0.0837 -0.0230  0.6775
  729MOL0     C  469   2.832   6.424   9.065 -0.6700  0.8769  0.5407
  729MOL0     C  470   2.952   6.358   9.054  0.6362 -0.3344 -0.0655
  729MOL0     C  471   3.018   6.319   8.940  0.4140 -0.2882  0.8251
  729MOL0     O  472   3.123   6.226   8.935 -0.6992  0.3376 -0.3811
  729MOL0     C  473   3.188   6.185   8.811  0.3635  0.3677  0.7514
  729MOL0     C  474   3.271   6.058   8.811  0.1424  0.5304 -0.9335
  729MOL0     C  475   3.409   6.092   8.872 -0.4379  0.3718  0.1783
  729MOL0     C  476   3.530   5.984   8.865  0.5044 -0.0842 -0.2274
  729MOL0     C  477   3.566   5.922   8.732  1.1801  0.4797 -1.3453
  729MOL0     C  478   3.583   6.016   8.608 -0.5619 -0.2875 -1.4450
  729MOL0     C  479   3.697   6.112   8.622 -0.0665  0.7126  0.8998
  729MOL0     C  480   3.710   6.220   8.521 -0.0070  0.2399  1.3948
  729MOL0     N  481   3.793   6.161   8.415  0.7609 -0.4009 -0.5081
  729MOL0     C  482   3.931   6.169   8.404  0.0313  0.0416  0.4117
  729MOL0     C  483   3.962   6.143   8.271  0.3437 -0.0713  0.8048
  729MOL0     C  484   4.095   6.152   8.200 -0.9715 -0.2708 -0.3419
  729MOL0     C  485   4.129   6.282   8.139  0.6182 -0.2098  0.3860
  729MOL0     C  486   4.046   6.321   8.022 -0.5720 -0.0442 -0.3696
  729MOL0     C  487   4.093   6.449   7.958 -0.1950 -0.5054  0.1962
  729MOL0     O  488   4.101   6.564   8.050 -0.0670  0.1203 -0.4832
  729MOL0     C  489   4.149   6.683   8.004  0.5679  1.2941  0.5697
  729MOL0     C  490   4.269   6.684   7.930  0.3895 -0.6430 -0.6652
  729MOL0     C  491   4.332   6.802   7.885  0.4070 -1.1085 -1.0313
  729MOL0     C  492   4.466   6.785   7.823  0.2831  0.0141  0.8624
  729MOL0     C  493   4.276   6.931   7.912  0.5726  0.2289 -0.1174
  729MOL0     C  494   4.334   7.058   7.877 -0.1356  0.4239 -0.3947
  729MOL0     O  495   4.422   7.050   7.769  0.7092 -0.8270  0.3900
  729MOL0     C  496   4.432   7.166   7.693 -0.0065  0.5013 -1.0614
  729MOL0     C  497   4.560   7.222   7.666  0.7515 -0.6165 -0.5460
  729MOL0     C  498   4.564   7.354   7.597  0.0219  0.2509  0.3779
  729MOL0     C  499   4.448   7.404   7.546 -1.0712 -0.2864  0.0396
  729MOL0     O  500   4.460   7.516   7.474 -0.4383  0.1640  0.1258
  729MOL0     C  501   4.343   7.592   7.436  0.1877 -0.0213  0.0571
  729MOL0     C  502   4.397   7.706   7.353  0.7399  0.2470  0.1723
  729MOL0     C  503   4.438   7.663   7.214 -0.1454  0.0032  0.0326
  729MOL0     C  504   4.473   7.798   7.145  0.2200  0.0423 -0.1670
  729MOL0     C  505   4.513   7.786   7.002  0.6293 -0.1519  0.4764
  729MOL0     C  506   4.433   7.688   6.906 -0.5701 -0.5524 -0.8445
  729MOL0     C  507   4.453   7.686   6.749 -0.5364  0.5500  0.0689
  729MOL0     C  508   4.399   7.816   6.692  0.5022  0.5288 -0.3106
  729MOL0    Cl  509   4.390   7.813   6.517 -0.3838  0.2721 -0.3672
  729MOL0     C  510   4.326   7.336   7.557 -0.6276 -0.7674 -1.0431
  729MOL0     C  511   4.317   7.223   7.630  0.0320 -0.5794  0.2492
  729MOL0     O  512   4.285   7.163   7.918 -0.0805 -0.7949 -0.4399
  729MOL0     C  513   4.143   6.932   7.975 -1.0219 -0.1216 -0.0594
  729MOL0     C  514   4.088   6.810   8.019  0.9576 -0.0691 -0.1744
  729MOL0     N  515   3.840   6.116   8.213 -0.0701 -0.1985  0.3852
  729MOL0     N  516   3.744   6.123   8.297 -0.7562 -0.3820 -0.0685
  729MOL0     C  517   2.936   6.356   8.821 -0.5298  0.2680  0.8808
  729MOL0     C  518   2.821   6.432   8.824  0.3794 -0.1151 -0.9812
  729MOL0     C  519   2.505   6.722   8.917 -0.6470 -0.0554  0.0103
  729MOL0     C  520   2.399   6.649   8.977  0.1136 -0.0136  0.9199
  729MOL0     C  521   2.268   6.681   8.965 -0.3250  0.1267  0.0878
  729MOL0     C  522   2.227   6.792   8.888 -0.0036  0.8248 -0.1605
  729MOL0     O  523   2.097   6.827   8.873  0.0687 -0.3391  0.5039
  729MOL0     C  524   2.064   6.948   8.941 -0.0923  0.1318 -0.0895
  729MOL0     C  525   1.919   6.926   8.992 -0.7149  0.3377 -0.2455
  729MOL0     C  526   1.902   6.832   9.108 -0.4049 -0.6563 -0.5727
  729MOL0     C  527   1.755   6.786   9.101 -0.4379  0.4500 -0.0976
  729MOL0     C  528   1.718   6.781   9.241  0.2523  1.0239  1.1254
  729MOL0     C  529   1.692   6.788   9.360  0.5834 -0.7737  0.3845
  729MOL0     C  530   2.326   6.866   8.836 -0.1081 -1.3532  0.9716
  729MOL0     C  531   2.459   6.837   8.845 -1.1333 -0.4241 -0.1830
  729MOL0     C  532   2.556   6.941   8.779  1.2003  0.4313  0.3212
  729MOL0     H  533   2.790   6.439   9.163  4.0412  1.1769  2.8030
  729MOL0     H  534   3.000   6.326   9.146  3.0619  0.9718 -0.7955
  729MOL0     H  535   3.248   6.261   8.760  1.9871 -1.9441 -0.9786
  729MOL0     H  536   3.109   6.167   8.737  0.4426 -1.0982  1.0088
  729MOL0     H  537   3.219   5.978   8.867  1.8819 -0.8426 -1.1974
  729MOL0     H  538   3.278   6.020   8.709 -0.4767  0.5596 -0.9899
  729MOL0     H  539   3.442   6.188   8.831 -3.7001  1.2604 -0.6511
  729MOL0     H  540   3.403   6.106   8.980  0.4119 -0.9766  0.4371
  729MOL0     H  541   3.618   6.042   8.894  1.0018  0.8000 -3.1969
  729MOL0     H  542   3.513   5.904   8.938 -2.4112  1.1304  0.5891
  729MOL0     H  543   3.488   5.847   8.712 -0.7049  1.4785  1.5806
  729MOL0     H  544   3.658   5.864   8.731  0.8815 -0.1808  1.0624
  729MOL0     H  545   3.599   5.962   8.515  0.5814  0.1920 -1.5340
  729MOL0     H  546   3.494   6.080   8.604 -1.2235 -0.9656  0.8378
  729MOL0     H  547   3.780   6.041   8.632 -0.4637  0.4190  2.3838
  729MOL0     H  548   3.696   6.157   8.722  0.3791  1.2127  0.6808
  729MOL0     H  549   3.613   6.248   8.480 -0.4341 -3.0380 -0.1665
  729MOL0     H  550   3.760   6.311   8.556  0.1287  1.2989 -1.3379
  729MOL0     H  551   3.997   6.201   8.483  2.4552 -3.2235 -0.1046
  729MOL0     H  552   4.104   6.075   8.123  0.0464 -3.6359  2.8461
  729MOL0     H  553   4.162   6.141   8.286 -2.0257 -0.9784  0.4040
  729MOL0     H  554   4.114   6.360   8.214 -0.3919 -0.8897  0.9053
  729MOL0     H  555   4.235   6.281   8.109  0.2213  1.8823 -1.4125
  729MOL0     H  556   4.056   6.240   7.949 -0.9857  0.2572 -0.7585
  729MOL0     H  557   3.942   6.340   8.048 -0.2902  1.0500 -0.0034
  729MOL0     H  558   4.190   6.431   7.910  0.3297  0.1402  0.9927
  729MOL0     H  559   4.012   6.476   7.890  0.3755 -1.6075 -0.9668
  729MOL0     H  560   4.317   6.590   7.905 -0.1741 -1.1284  0.0548
  729MOL0     H  561   4.530   6.858   7.874 -1.1426  1.8749  0.0850
  729MOL0     H  562   4.462   6.818   7.719  1.9072  2.9362  1.6086
  729MOL0     H  563   4.511   6.687   7.841  0.3979  0.1658  1.4132
  729MOL0     H  564   4.654   7.177   7.694  1.9837  1.1230 -1.7017
  729MOL0     H  565   4.658   7.406   7.580  0.6998  0.6895  4.3115
  729MOL0     H  566   4.267   7.544   7.373  0.0462  1.5271 -1.0043
  729MOL0     H  567   4.288   7.644   7.514 -0.6424  0.3146 -0.7267
  729MOL0     H  568   4.304   7.763   7.343 -0.0310 -0.9507  0.2769
  729MOL0     H  569   4.470   7.778   7.391  1.8857 -0.1656 -1.1469
  729MOL0     H  570   4.349   7.627   7.163 -0.2230 -0.6639  0.6197
  729MOL0     H  571   4.506   7.577   7.215 -3.1358 -2.5747 -1.4027
  729MOL0     H  572   4.553   7.856   7.193  0.9023 -0.7365 -0.3408
  729MOL0     H  573   4.376   7.849   7.142 -0.3421 -1.0175 -0.5018
  729MOL0     H  574   4.482   7.888   6.974  0.5695  0.1863  1.7149
  729MOL0     H  575   4.619   7.761   6.989  1.4302  1.8209  2.4623
  729MOL0     H  576   4.329   7.711   6.930 -0.5553  0.2057 -1.4463
  729MOL0     H  577   4.458   7.587   6.940 -3.1625  0.0903  3.8073
  729MOL0     H  578   4.405   7.612   6.684  2.4979  0.0369 -1.7375
  729MOL0     H  579   4.560   7.677   6.730 -0.9940 -1.4109 -2.0523
  729MOL0     H  580   4.472   7.896   6.711 -1.6241  2.7526 -1.0595
  729MOL0     H  581   4.303   7.850   6.730  1.0428  0.9692  0.7015
  729MOL0     H  582   4.237   7.367   7.503  1.6727  3.9255 -2.6940
  729MOL0     H  583   4.225   7.168   7.615 -0.5294  0.3638  0.1551
  729MOL0     H  584   4.102   7.025   8.013  0.2071  0.9866 -1.3176
  729MOL0     H  585   3.998   6.811   8.079  0.5595  3.4281 -0.5959
  729MOL0     H  586   2.980   6.327   8.726  0.5726  2.4974  0.6496
  729MOL0     H  587   2.782   6.479   8.734  0.2265 -2.7786 -2.4150
  729MOL0     H  588   2.417   6.563   9.041 -1.9135 -0.4387  0.9606
  729MOL0     H  589   2.185   6.637   9.020  0.7635  0.9338  2.5263
  729MOL0     H  590   2.123   6.975   9.030 -1.5602  0.9707  0.6610
  729MOL0     H  591   2.058   7.037   8.877 -1.7070 -0.2430 -0.4970
  729MOL0     H  592   1.871   6.889   8.901 -0.2160  1.9070 -1.1841
  729MOL0     H  593   1.868   7.016   9.029 -0.8042  0.1182  0.1724
  729MOL0     H  594   1.974   6.754   9.084 -1.7107 -1.3833 -2.4071
  729MOL0     H  595   1.931   6.882   9.201  2.5290 -0.4196 -1.5191
  729MOL0     H  596   1.753   6.688   9.052 -0.2792  0.1513  0.4810
  729MOL0     H  597   1.688   6.859   9.054  0.8986  1.1126 -1.0564
  729MOL0     H  598   1.666   6.775   9.463 -3.4250 -0.0633 -0.3706
  729MOL0     H  599   2.283   6.950   8.783  1.4502 -2.1439 -1.7198
  729MOL0     H  600   2.547   6.934   8.670  4.1038 -2.1644  0.1027
  729MOL0     H  601   2.528   7.036   8.824 -0.0019  0.6093 -0.7418
  729MOL0     H  602   2.663   6.940   8.803  0.7373  2.5754  2.8740
  730MOL0     O  603  10.378   3.566   5.799  0.3065  0.0614 -0.5391
  730MOL0     C  604  10.363   3.468   5.872 -0.3838  0.4637 -0.5797
  730MOL0     O  605  10.376   3.469   6.009 -0.4064 -0.0211 -0.4065
  730MOL0     C  606  10.404   3.590   6.073 -0.3507 -0.4206  0.1730
  730MOL0     C  607  10.532   3.623   6.097 -0.7621 -0.7120 -0.6101
  730MOL0     C  608  10.573   3.753   6.149 -0.0574 -0.1405 -0.1458
  730MOL0     C  609  10.476   3.847   6.191  0.0298 -0.6058  0.0595
  730MOL0     O  610  10.497   3.962   6.253 -0.4772 -0.8442 -0.1810
  730MOL0     C  611  10.622   4.029   6.234  0.5361  0.7876  0.1586
  730MOL0     C  612  10.586   4.146   6.154 -0.0504  0.5116  0.6583
  730MOL0     C  613  10.716   4.232   6.152  0.0449 -0.7775  0.4349
  730MOL0     C  614  10.680   4.365   6.070 -0.4401  0.0334 -0.6972
  730MOL0     C  615  10.780   4.477   6.080  0.2777 -0.2427  0.1989
  730MOL0     C  616  10.920   4.431   6.095 -0.3916 -0.7840  1.1919
  730MOL0     C  617  11.022   4.535   6.060 -0.1596  0.2278 -0.8782
  730MOL0     C  618  11.162   4.473   6.045 -0.6829 -1.1627  0.9816
  730MOL0     N  619  11.258   4.559   5.971 -0.2329  0.1100 -0.4201
  730MOL0     C  620  11.257   4.695   5.954 -0.9688  0.0862  0.4264
  730MOL0     C  621  11.383   4.727   5.908  0.2700  0.5213 -0.1942
  730MOL0     C  622  11.419   4.860   5.850  1.1597  0.7218 -0.0082
  730MOL0     C  623  11.377   4.866   5.701 -0.6376  0.1485  0.0868
  730MOL0     C  624  11.274   4.984   5.679 -0.0714 -0.3869 -0.2326
  730MOL0     C  625  11.339   5.116   5.707 -0.1422  0.7959 -1.0047
  730MOL0     O  626  11.483   5.110   5.679  1.1969  0.1119 -0.2823
  730MOL0     C  627  11.544   5.229   5.680  0.0532 -1.6982 -0.0845
  730MOL0     C  628  11.504   5.338   5.771 -0.8873 -0.0563  0.2965
  730MOL0     C  629  11.570   5.459   5.761 -1.2123  0.0914  0.1466
  730MOL0     C  630  11.530   5.551   5.879 -0.2243 -0.5669 -0.3256
  730MOL0     C  631  11.667   5.486   5.658  0.6629  0.5379  0.2959
  730MOL0     C  632  11.733   5.612   5.638 -0.1845  0.3172 -0.1847
  730MOL0     O  633  11.822   5.611   5.535 -0.0053  0.3002  0.5142
  730MOL0     C  634  11.932   5.692   5.547  0.3757 -0.2907  0.8848
  730MOL0     C  635  11.973   5.739   5.676  0.1706  0.6090  0.0953
  730MOL0     C  636  12.080   5.830   5.689  0.8786 -0.1984  0.4396
  730MOL0     C  637  12.147   5.881   5.580  0.4983 -0.8436  0.3671
  730MOL0     O  638  12.245   5.979   5.573 -0.2958  0.5714 -0.7110
  730MOL0     C  639  12.235   6.082   5.681  0.7455  0.0705  0.6800
  730MOL0     C  640  12.329   6.195   5.658 -0.2181  0.0839  0.3400
  730MOL0     C  641  12.487   6.192   5.657  0.9096  0.8731  0.6137
  730MOL0     C  642  12.556   6.315   5.618  0.3823 -0.1806 -0.7456
  730MOL0     C  643  12.697   6.317   5.655 -0.3667 -0.0625  0.0189
  730MOL0     C  644  12.750   6.467   5.631 -0.2193 -0.3074  0.1484
  730MOL0     C  645  12.904   6.470   5.645  0.5801  0.6469 -0.8590
  730MOL0     C  646  12.973   6.582   5.561  0.1325 -0.3106  0.4065
  730MOL0    Cl  647  13.145   6.550   5.605  0.3180  0.6189 -0.4933
  730MOL0     C  648  12.110   5.823   5.457  0.1155 -0.4328  0.6444
  730MOL0     C  649  12.002   5.730   5.437  0.3528  0.0222  0.0321
  730MOL0     O  650  11.692   5.713   5.693 -0.1604 -0.4942 -0.6120
  730MOL0     C  651  11.696   5.380   5.570  0.7390 -0.0202 -0.9693
  730MOL0     C  652  11.646   5.252   5.582  0.7172  0.3122 -0.2502
  730MOL0     N  653  11.459   4.613   5.898 -0.2623 -0.1885  0.5745
  730MOL0     N  654  11.379   4.511   5.934 -0.0093 -0.8655 -0.5689
  730MOL0     C  655  10.341   3.803   6.177  0.3738 -0.1946 -0.0739
  730MOL0     C  656  10.304   3.681   6.114  1.0618  1.0622  0.0577
  730MOL0     C  657  10.341   3.335   5.807  0.8434 -0.2744  0.2489
  730MOL0     C  658  10.429   3.230   5.851  0.8239  0.0631  0.4263
  730MOL0     C  659  10.406   3.102   5.805  0.1951  0.0785 -0.7591
  730MOL0     C  660  10.307   3.071   5.719  0.2787 -0.1640  0.0291
  730MOL0     O  661  10.309   2.941   5.679  1.1327  0.3882 -0.2918
  730MOL0     C  662  10.195   2.890   5.634  0.8918 -0.3035  0.2750
  730MOL0     C  663  10.187   2.754   5.711  0.5309 -0.2778 -0.6622
  730MOL0     C  664  10.066   2.678   5.657  0.7065 -0.6862  0.0637
  730MOL0     C  665  10.074   2.532   5.686  0.3611  0.3147  0.6753
  730MOL0     C  666  10.076   2.505   5.831  0.4168 -0.4663 -0.4357
  730MOL0     C  667  10.065   2.491   5.949 -0.2999 -0.9905  0.0411
  730MOL0     C  668  10.221   3.171   5.673  0.0392 -0.6655  0.9016
  730MOL0     C  669  10.239   3.303   5.719 -0.5328 -0.4105  0.0526
  730MOL0     C  670  10.154   3.412   5.675  0.5544  0.8245  0.4599
  730MOL0     H  671  10.602   3.544   6.069 -1.0415 -1.4263  0.6387
  730MOL0     H  672  10.681   3.763   6.154 -0.0582 -0.5748  0.9752
  730MOL0     H  673  10.700   3.975   6.179  0.8404  0.8663  0.5116
  730MOL0     H  674  10.656   4.043   6.337 -0.1293  2.9963  0.1261
  730MOL0     H  675  10.557   4.104   6.057  1.3038 -2.1447  1.3315
  730MOL0     H  676  10.502   4.194   6.204 -0.1205  0.3941  0.6526
  730MOL0     H  677  10.736   4.250   6.258 -3.2293 -1.2052  1.2313
  730MOL0     H  678  10.796   4.183   6.096  0.3131 -2.7681  2.4028
  730MOL0     H  679  10.660   4.327   5.969  2.1255  1.5449 -1.8711
  730MOL0     H  680  10.587   4.411   6.104 -0.6667 -1.0824  0.2827
  730MOL0     H  681  10.763   4.546   6.163 -0.5071  0.1581 -0.2860
  730MOL0     H  682  10.761   4.547   5.998  0.5819  0.6458  0.8579
  730MOL0     H  683  10.944   4.394   6.195  1.9707  0.6352  1.2434
  730MOL0     H  684  10.931   4.337   6.040 -1.0813 -0.3633  0.3068
  730MOL0     H  685  11.017   4.612   6.138 -0.2717 -0.9822  0.3332
  730MOL0     H  686  11.005   4.583   5.963 -0.9261 -0.7252 -1.2337
  730MOL0     H  687  11.207   4.458   6.143 -0.0107 -2.0055  0.5600
  730MOL0     H  688  11.155   4.377   5.992 -0.2359 -0.6240 -0.1075
  730MOL0     H  689  11.183   4.773   5.971  0.8801  2.2044 -0.6666
  730MOL0     H  690  11.526   4.880   5.840  1.6769 -0.8703  1.7411
  730MOL0     H  691  11.383   4.944   5.910  2.2837 -0.2063  2.0843
  730MOL0     H  692  11.468   4.877   5.641 -0.2659 -1.7143  0.2627
  730MOL0     H  693  11.332   4.771   5.673 -0.7883  0.3198 -0.2673
  730MOL0     H  694  11.227   4.978   5.581 -0.2788 -0.2316 -0.1435
  730MOL0     H  695  11.185   4.963   5.739  0.3412 -2.9621 -0.3904
  730MOL0     H  696  11.295   5.190   5.639  1.0699  0.2101 -2.4834
  730MOL0     H  697  11.310   5.155   5.805  1.3326 -0.3416 -0.0815
  730MOL0     H  698  11.437   5.325   5.856  1.7537 -0.0291  2.5238
  730MOL0     H  699  11.453   5.617   5.839  1.7531  1.0257 -1.7531
  730MOL0     H  700  11.606   5.616   5.922 -3.0687  2.1772  0.9402
  730MOL0     H  701  11.484   5.487   5.955  0.8249 -0.9777 -0.0199
  730MOL0     H  702  11.913   5.711   5.762 -4.4659 -3.6464 -3.8863
  730MOL0     H  703  12.101   5.865   5.789  0.7501 -0.5381  0.5886
  730MOL0     H  704  12.135   6.126   5.681  0.4285 -0.5799 -0.9721
  730MOL0     H  705  12.252   6.048   5.783  2.4825  3.8573  1.8471
  730MOL0     H  706  12.298   6.240   5.563 -1.8214 -1.8299 -0.0904
  730MOL0     H  707  12.296   6.271   5.730  0.9199  0.2461  0.7156
  730MOL0     H  708  12.520   6.114   5.588  0.1749  3.1983 -2.5963
  730MOL0     H  709  12.520   6.159   5.756 -2.0022 -0.8528  1.1220
  730MOL0     H  710  12.512   6.403   5.667 -1.0788 -1.5000  0.3977
  730MOL0     H  711  12.556   6.328   5.509 -2.4211 -2.6980 -1.1672
  730MOL0     H  712  12.701   6.303   5.763 -1.1362 -3.0731 -0.2460
  730MOL0     H  713  12.756   6.244   5.598  0.2926  0.2564  0.2783
  730MOL0     H  714  12.707   6.538   5.702  1.2546  0.3186  0.4738
  730MOL0     H  715  12.720   6.492   5.529 -0.3814 -0.3521  0.1845
  730MOL0     H  716  12.942   6.373   5.612  1.5598  0.1892  1.4503
  730MOL0     H  717  12.933   6.458   5.750 -0.5156  0.8414 -0.5195
  730MOL0     H  718  12.946   6.686   5.582 -2.3735 -0.8645  0.1997
  730MOL0     H  719  12.964   6.564   5.454  0.8670 -1.2010  0.4755
  730MOL0     H  720  12.168   5.862   5.374 -1.0839  1.0343  0.4405
  730MOL0     H  721  11.972   5.699   5.338 -0.5893 -1.5311  0.7773
  730MOL0     H  722  11.771   5.397   5.493  0.9979 -1.0133 -0.9536
  730MOL0     H  723  11.673   5.170   5.517 -0.5076 -0.3604  0.0449
  730MOL0     H  724  10.264   3.866   6.221 -0.1543 -1.0639  0.2703
  730MOL0     H  725  10.203   3.649   6.092  1.4256  0.7160 -1.1871
  730MOL0     H  726  10.523   3.250   5.902  1.2516 -0.4038 -0.1618
  730MOL0     H  727  10.462   3.016   5.840  0.3508  0.3746 -0.2704
  730MOL0     H  728  10.108   2.952   5.657 -1.8704 -1.9653 -4.2004
  730MOL0     H  729  10.188   2.873   5.526 -0.5916 -0.7578  0.4247
  730MOL0     H  730  10.182   2.765   5.819 -1.0981 -1.6589 -0.5495
  730MOL0     H  731  10.280   2.702   5.686  1.8624  2.4352 -1.7943
  730MOL0     H  732   9.977   2.720   5.704 -0.9402  0.4799 -3.6512
  730MOL0     H  733  10.055   2.684   5.548 -1.2233 -0.2197  0.2573
  730MOL0     H  734  10.163   2.484   5.643 -0.2257 -0.0684 -0.1360
  730MOL0     H  735   9.990   2.470   5.653  0.9301 -1.3807  2.2269
  730MOL0     H  736  10.046   2.505   6.054 -0.5134  4.6096 -0.4789
  730MOL0     H  737  10.142   3.156   5.599 -0.0266  1.6846  0.4232
  730MOL0     H  738  10.062   3.371   5.633  1.0648  0.1877 -0.0512
  730MOL0     H  739  10.132   3.485   5.754  0.7896  2.4654 -0.9109
  730MOL0     H  740  10.209   3.462   5.595  2.0360  0.5434  1.2733
  731MOL0     O  741   0.705   5.816   5.156 -0.0051 -0.0495  0.0896
  731MOL0     C  742   0.691   5.862   5.040 -0.4530 -0.2073  0.0025
  731MOL0     O  743   0.634   5.793   4.931 -0.1518  0.5949  0.4955
  731MOL0     C  744   0.577   5.668   4.948  0.2418 -0.5451 -0.1039
  731MOL0     C  745   0.614   5.562   4.876 -1.0026 -0.1388  0.1947
  731MOL0     C  746   0.543   5.446   4.889  0.6237 -0.8350  0.7271
  731MOL0     C  747   0.428   5.430   4.969  0.2889 -0.1554  0.3760
  731MOL0     O  748   0.349   5.316   4.952  0.1295  0.1231 -0.2622
  731MOL0     C  749   0.280   5.281   4.827  0.1965  0.7753 -1.3246
  731MOL0     C  750   0.169   5.184   4.859 -0.5821 -0.3565  0.4886
  731MOL0     C  751   0.024   5.214   4.809 -0.0802 -0.2525 -0.2348
  731MOL0     C  752  -0.067   5.092   4.808  0.5431 -0.3988 -0.6714
  731MOL0     C  753  -0.216   5.128   4.775 -0.4544  0.7760 -0.2080
  731MOL0     C  754  -0.315   5.009   4.765  0.4853 -0.8927  0.4580
  731MOL0     C  755  -0.357   4.949   4.897  0.2510 -0.5140 -0.0490
  731MOL0     C  756  -0.456   4.834   4.895 -0.0834  0.4696  0.6889
  731MOL0     N  757  -0.569   4.857   4.820  0.6375 -0.7545  0.8954
  731MOL0     C  758  -0.660   4.957   4.829  0.4711 -0.2270  0.4778
  731MOL0     C  759  -0.769   4.919   4.758  0.8652  0.1291 -0.5175
  731MOL0     C  760  -0.898   4.980   4.725 -1.0394 -0.5449 -0.2270
  731MOL0     C  761  -0.865   5.099   4.643  1.2836  0.8751  0.9176
  731MOL0     C  762  -0.827   5.217   4.735 -0.4950 -0.3162 -0.4483
  731MOL0     C  763  -0.809   5.341   4.645 -0.2902  0.0328  0.5333
  731MOL0     O  764  -0.747   5.464   4.700 -0.3179 -0.3602  0.3647
  731MOL0     C  765  -0.830   5.546   4.783 -0.8430  0.4403  0.4456
  731MOL0     C  766  -0.868   5.498   4.901  0.5219  0.5900  0.7276
  731MOL0     C  767  -0.925   5.571   5.003 -0.5939  0.1548  0.4335
  731MOL0     C  768  -0.957   5.511   5.141  0.2306 -0.2105 -0.2251
  731MOL0     C  769  -0.964   5.702   4.970  1.2013  0.6182  0.7052
  731MOL0     C  770  -1.057   5.783   5.055  0.5223  0.4593  0.5816
  731MOL0     O  771  -1.147   5.866   4.991 -1.1344 -0.6442  0.5316
  731MOL0     C  772  -1.203   5.964   5.060  0.2347  0.0024 -0.0363
  731MOL0     C  773  -1.237   6.089   4.992 -0.5188 -0.0586  0.4618
  731MOL0     C  774  -1.319   6.182   5.044 -0.3699  0.5732  0.0229
  731MOL0     C  775  -1.361   6.172   5.173  0.6338  0.9015 -0.4945
  731MOL0     O  776  -1.434   6.274   5.222  0.6839 -0.0248 -0.1427
  731MOL0     C  777  -1.352   6.362   5.310  0.2605 -0.0204  0.2449
  731MOL0     C  778  -1.432   6.400   5.439  1.3026  0.1615 -0.5721
  731MOL0     C  779  -1.362   6.521   5.518 -0.4086  1.5872 -0.4164
  731MOL0     C  780  -1.403   6.658   5.460  0.6474  0.2851 -0.6858
  731MOL0     C  781  -1.329   6.786   5.512  0.0838  0.4069 -0.3697
  731MOL0     C  782  -1.187   6.774   5.523  0.7846  0.9566  0.3453
  731MOL0     C  783  -1.121   6.909   5.553  0.4568 -0.5726  0.7638
  731MOL0     C  784  -1.127   6.935   5.697 -0.2221 -1.0071 -0.9405
  731MOL0    Cl  785  -1.277   7.028   5.733  0.5981 -0.2900  0.0673
  731MOL0     C  786  -1.332   6.052   5.242 -0.6225  0.0663  0.3289
  731MOL0     C  787  -1.265   5.941   5.181  0.9573 -0.7401  0.1290
  731MOL0     O  788  -1.044   5.766   5.171  0.0636  0.4756 -0.8012
  731MOL0     C  789  -0.936   5.751   4.843 -0.0254 -0.5682  0.1499
  731MOL0     C  790  -0.852   5.678   4.756  0.9726  1.2213 -0.1097
  731MOL0     N  791  -0.741   4.796   4.707  0.4397  0.6615  0.9210
  731MOL0     N  792  -0.627   4.756   4.749  0.2834 -0.2430 -0.2081
  731MOL0     C  793   0.397   5.538   5.054  0.1261  0.8860  0.8811
  731MOL0     C  794   0.475   5.654   5.042  0.2087 -0.0113  0.2024
  731MOL0     C  795   0.731   5.995   5.010  0.4714 -0.7343  0.1122
  731MOL0     C  796   0.727   6.054   4.805  0.4697 -0.1540  0.9414
  731MOL0     C  797   0.804   6.248   4.746  0.4759 -0.3367 -1.0025
  731MOL0     C  798   0.884   6.373   4.895  0.2409 -0.4519  0.1893
  731MOL0     O  799   0.934   6.498   4.861  0.1823 -0.0336  0.0265
  731MOL0     C  800   0.941   6.515   4.723 -0.2073 -0.7266  0.3970
  731MOL0     C  801   1.011   6.645   4.687 -0.3814 -0.6636 -1.0670
  731MOL0     C  802   0.915   6.765   4.689 -0.1530  0.4201  0.8657
  731MOL0     C  803   0.987   6.898   4.648  0.7960 -0.0719 -0.2483
  731MOL0     C  804   1.046   6.913   4.515 -0.3384  1.3620  0.8552
  731MOL0     C  805   1.103   6.922   4.406 -0.9872  0.2907  1.2246
  731MOL0     C  806   0.882   6.312   5.099 -0.8534 -0.9303  0.6124
  731MOL0     C  807   0.808   6.122   5.154  0.0186 -0.7935  0.5338
  731MOL0     C  808   0.812   6.088   5.293 -0.3553 -0.5946 -0.4635
  731MOL0     H  809   0.703   5.577   4.817  0.0660 -0.7440  1.6058
  731MOL0     H  810   0.567   5.360   4.827  1.8198  0.5506 -0.8223
  731MOL0     H  811   0.335   5.229   4.748 -0.7530 -2.5762  0.0463
  731MOL0     H  812   0.237   5.370   4.782  2.0732  2.6448  0.3880
  731MOL0     H  813   0.208   5.096   4.808  0.9753  0.0017  1.0245
  731MOL0     H  814   0.166   5.169   4.967 -1.5027  3.7023  1.2269
  731MOL0     H  815  -0.021   5.290   4.874  2.6269 -0.2461  1.8034
  731MOL0     H  816   0.022   5.262   4.711  1.2871  2.2786  0.8678
  731MOL0     H  817  -0.032   5.026   4.728  1.5259 -1.9922  1.0109
  731MOL0     H  818  -0.057   5.048   4.907  3.5711  3.3051  0.9557
  731MOL0     H  819  -0.209   5.189   4.684 -0.9771  1.6274  0.3109
  731MOL0     H  820  -0.240   5.205   4.848  3.8482  3.2452 -1.0587
  731MOL0     H  821  -0.407   5.046   4.719  1.6908  0.1315 -1.2793
  731MOL0     H  822  -0.275   4.941   4.689  2.3305  1.9876 -1.3469
  731MOL0     H  823  -0.417   5.030   4.940  2.1697  0.2341  1.3706
  731MOL0     H  824  -0.275   4.914   4.961 -0.7638 -1.9496  0.5115
  731MOL0     H  825  -0.411   4.746   4.849  0.1659  0.5275  0.8192
  731MOL0     H  826  -0.482   4.796   4.995  3.3557 -2.3834  0.6848
  731MOL0     H  827  -0.652   5.047   4.888 -1.6253  0.5141 -0.2944
  731MOL0     H  828  -0.943   5.014   4.819 -1.5593 -3.6604  0.7707
  731MOL0     H  829  -0.965   4.905   4.682  0.3643 -2.3240  0.5106
  731MOL0     H  830  -0.795   5.083   4.561  1.8465  1.1671  1.3351
  731MOL0     H  831  -0.959   5.124   4.593  0.4871 -1.2660  1.2156
  731MOL0     H  832  -0.908   5.227   4.807 -0.4899  4.7393 -0.7957
  731MOL0     H  833  -0.731   5.200   4.786 -0.4109 -2.8439 -1.3239
  731MOL0     H  834  -0.758   5.310   4.553 -1.9308  0.6139 -0.6276
  731MOL0     H  835  -0.909   5.362   4.605 -0.3241  0.7518  0.9636
  731MOL0     H  836  -0.846   5.393   4.920 -0.6316  0.1370 -0.2781
  731MOL0     H  837  -0.937   5.564   5.235 -1.4849 -0.6493  0.4271
  731MOL0     H  838  -0.903   5.416   5.154 -0.2057 -0.7234 -1.9294
  731MOL0     H  839  -1.064   5.496   5.155 -0.3125  1.4646 -2.1699
  731MOL0     H  840  -1.205   6.110   4.891  1.1829  1.3722  1.2412
  731MOL0     H  841  -1.349   6.273   4.991 -1.2694 -0.9628 -2.2753
  731MOL0     H  842  -1.251   6.331   5.336 -0.5751 -4.2647 -0.8145
  731MOL0     H  843  -1.324   6.446   5.245  2.5890 -0.7386  0.2311
  731MOL0     H  844  -1.535   6.427   5.413 -0.1290 -1.7015  2.5910
  731MOL0     H  845  -1.452   6.308   5.494  0.2956 -1.1785 -3.0256
  731MOL0     H  846  -1.255   6.503   5.524 -0.9809 -2.8240 -0.4702
  731MOL0     H  847  -1.410   6.526   5.616 -2.5590  1.1381 -1.3883
  731MOL0     H  848  -1.511   6.673   5.466  0.8281  2.8284 -2.1684
  731MOL0     H  849  -1.390   6.652   5.352 -2.3979  0.3127 -1.1351
  731MOL0     H  850  -1.352   6.886   5.473  1.1055  0.0947 -1.8684
  731MOL0     H  851  -1.352   6.805   5.617  0.3870  0.3548 -0.2937
  731MOL0     H  852  -1.146   6.746   5.425 -0.1692 -1.3835  0.5497
  731MOL0     H  853  -1.165   6.705   5.604 -1.7320  1.0617  1.2013
  731MOL0     H  854  -1.165   6.993   5.499  0.4146 -0.4092  1.0528
  731MOL0     H  855  -1.016   6.903   5.523  0.5787 -1.2897  1.2876
  731MOL0     H  856  -1.041   6.997   5.727 -1.0638  1.5313 -3.3771
  731MOL0     H  857  -1.107   6.847   5.759  2.5144  1.7878  2.6761
  731MOL0     H  858  -1.392   6.043   5.332 -1.8832  1.7921 -0.2891
  731MOL0     H  859  -1.262   5.848   5.237 -1.3095 -0.5273  0.6792
  731MOL0     H  860  -0.958   5.853   4.814  1.3704  0.4566  2.4189
  731MOL0     H  861  -0.818   5.716   4.660  3.0814 -1.7498 -0.6662
  731MOL0     H  862   0.310   5.534   5.118 -0.9029  1.1387 -0.4492
  731MOL0     H  863   0.443   5.734   5.108 -0.0774 -0.6203  0.8195
  731MOL0     H  864   0.698   5.991   4.722  1.3720 -0.8793  1.1594
  731MOL0     H  865   0.806   6.287   4.644 -0.2455 -1.2668 -1.3841
  731MOL0     H  866   0.991   6.430   4.677 -2.8896 -1.3382 -1.6631
  731MOL0     H  867   0.840   6.511   4.681 -1.7103 -0.3376  3.6086
  731MOL0     H  868   1.072   6.633   4.598  2.1943 -4.0914  0.9160
  731MOL0     H  869   1.085   6.658   4.766  0.9904 -3.2740 -1.8283
  731MOL0     H  870   0.832   6.736   4.624 -1.4931  2.3710  1.6141
  731MOL0     H  871   0.872   6.782   4.788 -4.0424  1.5973 -0.8310
  731MOL0     H  872   1.068   6.923   4.716  1.4478 -3.5003  0.4439
  731MOL0     H  873   0.901   6.966   4.654  0.2146 -0.8994  5.1158
  731MOL0     H  874   1.148   6.944   4.312  0.9354  1.9405  2.4512
  731MOL0     H  875   0.931   6.378   5.169  0.2768  0.3681 -1.3058
  731MOL0     H  876   0.711   6.070   5.332 -0.4979  2.6570  0.9182
  731MOL0     H  877   0.870   5.995   5.293  0.0760 -0.3271 -0.2588
  731MOL0     H  878   0.862   6.172   5.341  1.4097 -1.5108 -0.5913
  732MOL0     O  879   5.245   9.968   5.919 -0.6388 -0.6823  0.5552
  732MOL0     C  880   5.356   9.990   5.979 -0.2327 -0.1567 -0.2883
  732MOL0     O  881   5.435   9.892   6.042  0.0050 -0.3767  0.0103
  732MOL0     C  882   5.427   9.755   6.022 -0.0136 -0.0927 -0.0189
  732MOL0     C  883   5.544   9.695   6.013  0.4093  2.3995  0.0690
  732MOL0     C  884   5.564   9.560   5.975 -0.5411 -0.9057 -0.2040
  732MOL0     C  885   5.451   9.484   5.953  1.4221 -0.6917  0.1337
  732MOL0     O  886   5.478   9.352   5.940 -0.1934  0.1318  0.1098
  732MOL0     C  887   5.376   9.274   5.891 -0.4010 -0.4150 -0.4986
  732MOL0     C  888   5.402   9.127   5.930 -0.1059 -0.2941 -0.2873
  732MOL0     C  889   5.291   9.034   5.865  0.4689  0.1246 -0.0707
  732MOL0     C  890   5.152   9.074   5.903  1.1638 -0.0432  0.3542
  732MOL0     C  891   5.062   8.956   5.878 -0.7881 -0.0379  0.0864
  732MOL0     C  892   4.940   8.995   5.810 -0.6043  0.5652  0.0442
  732MOL0     C  893   4.835   9.066   5.900  0.8392  0.1448  1.0750
  732MOL0     C  894   4.719   9.097   5.815  0.5197  0.0668  1.0924
  732MOL0     N  895   4.648   8.983   5.745 -1.8357  1.0585  0.0133
  732MOL0     C  896   4.619   8.861   5.797 -0.8048  0.1841 -0.2958
  732MOL0     C  897   4.599   8.768   5.696 -1.2821 -0.0028  0.5644
  732MOL0     C  898   4.570   8.624   5.723  0.6307 -1.4092 -0.0314
  732MOL0     C  899   4.685   8.531   5.710 -0.9232 -0.0700  0.6192
  732MOL0     C  900   4.727   8.464   5.837  0.7011  0.7771 -0.8994
  732MOL0     C  901   4.787   8.562   5.941 -0.0161 -1.0034 -0.4092
  732MOL0     O  902   4.687   8.628   6.018  0.2316  0.1804 -0.0690
  732MOL0     C  903   4.725   8.715   6.118 -0.0752  0.2350  0.7232
  732MOL0     C  904   4.857   8.734   6.149 -0.5843  0.2837  0.0582
  732MOL0     C  905   4.896   8.822   6.254  0.1057 -0.2833  0.9858
  732MOL0     C  906   5.050   8.819   6.271 -0.0984 -0.4558  0.2240
  732MOL0     C  907   4.803   8.894   6.326  0.7726  1.0698  0.1681
  732MOL0     C  908   4.824   8.972   6.448 -0.4243 -0.1018  0.1247
  732MOL0     O  909   4.804   9.107   6.443  0.0871  1.4496 -0.2686
  732MOL0     C  910   4.838   9.172   6.557  1.1124 -0.7881 -0.4233
  732MOL0     C  911   4.737   9.184   6.662 -0.3356  0.3593  0.0128
  732MOL0     C  912   4.773   9.246   6.783 -0.3708  0.2200  0.4682
  732MOL0     C  913   4.907   9.290   6.804  0.5062 -0.1407 -0.0795
  732MOL0     O  914   4.960   9.354   6.908  0.3593 -0.2628  0.0430
  732MOL0     C  915   4.889   9.384   7.020  0.2244 -0.4170 -1.5909
  732MOL0     C  916   4.982   9.463   7.106 -0.5344 -0.1861 -0.6012
  732MOL0     C  917   5.106   9.385   7.139  0.1640  0.6121  0.6383
  732MOL0     C  918   5.213   9.457   7.214 -0.5565  0.1784  0.2288
  732MOL0     C  919   5.317   9.368   7.275  0.2896 -0.0243 -0.1987
  732MOL0     C  920   5.400   9.446   7.376 -1.4337  0.2546 -0.8661
  732MOL0     C  921   5.451   9.349   7.490  0.4093  0.0754  0.3839
  732MOL0     C  922   5.582   9.284   7.453 -0.5563  0.3524  0.6374
  732MOL0    Cl  923   5.707   9.390   7.371 -0.0635 -0.1132 -0.3571
  732MOL0     C  924   5.002   9.255   6.711  0.0091 -0.8486 -0.8727
  732MOL0     C  925   4.973   9.196   6.586 -0.0385 -0.1086  0.7098
  732MOL0     O  926   4.856   8.910   6.545 -0.1106 -0.7293 -0.2789
  732MOL0     C  927   4.663   8.861   6.298  0.1674  0.4001  0.0847
  732MOL0     C  928   4.626   8.774   6.192  0.4044 -0.3034  0.1965
  732MOL0     N  929   4.629   8.839   5.571  0.5057 -0.0209  0.1299
  732MOL0     N  930   4.661   8.966   5.610 -0.1782  0.5743  1.0807
  732MOL0     C  931   5.325   9.553   5.965  0.5833 -0.7387  0.1876
  732MOL0     C  932   5.312   9.684   6.006 -0.1243  0.2488  0.5711
  732MOL0     C  933   5.395  10.127   5.986  0.6490  0.0622  0.0330
  732MOL0     C  934   5.298  10.227   5.995  0.1476 -0.3023  0.1577
  732MOL0     C  935   5.318  10.365   6.003 -0.5540 -0.6525  0.5273
  732MOL0     C  936   5.443  10.415   6.001 -0.6966 -0.4239 -0.7777
  732MOL0     O  937   5.463  10.551   6.030 -0.3088  0.1666  0.7984
  732MOL0     C  938   5.601  10.595   6.041  0.5247 -0.6018 -0.6948
  732MOL0     C  939   5.607  10.727   6.112  0.0274 -0.1090 -0.6289
  732MOL0     C  940   5.745  10.781   6.131 -1.1870 -0.2279  0.2709
  732MOL0     C  941   5.798  10.819   5.986 -0.0441 -0.1822 -0.2782
  732MOL0     C  942   5.947  10.822   5.993 -0.3304 -0.6761  0.5393
  732MOL0     C  943   6.062  10.837   6.007 -0.6315  0.4540  0.0562
  732MOL0     C  944   5.550  10.323   5.972 -0.6453  0.3633 -0.1002
  732MOL0     C  945   5.521  10.182   5.973 -0.3215  0.7447 -0.2887
  732MOL0     C  946   5.644  10.093   5.948 -0.7416  0.6617 -1.4075
  732MOL0     H  947   5.621   9.769   6.029  2.3111  0.2872  1.4137
  732MOL0     H  948   5.659   9.511   5.953 -1.6246 -3.1445 -0.1882
  732MOL0     H  949   5.385   9.295   5.784  0.2254  2.5491  0.0459
  732MOL0     H  950   5.277   9.304   5.928  0.6648  0.9497  1.3904
  732MOL0     H  951   5.506   9.102   5.908  0.1228  0.1173  0.3129
  732MOL0     H  952   5.373   9.103   6.033 -2.7035 -2.6892 -1.4245
  732MOL0     H  953   5.309   9.044   5.757  2.8371 -0.2657  0.2353
  732MOL0     H  954   5.311   8.929   5.888  0.0003 -0.6037 -2.6125
  732MOL0     H  955   5.142   9.109   6.006  0.6706 -0.8164  0.5763
  732MOL0     H  956   5.131   9.151   5.829  0.6978 -0.8760 -0.3941
  732MOL0     H  957   5.048   8.893   5.966  2.5826 -1.1570 -0.0351
  732MOL0     H  958   5.115   8.879   5.821 -1.7300 -2.1501  1.9336
  732MOL0     H  959   4.967   9.064   5.730 -2.0070  0.6778 -0.3602
  732MOL0     H  960   4.891   8.906   5.770  1.3734 -0.6296  0.1600
  732MOL0     H  961   4.874   9.158   5.945  0.5323 -0.5256  2.7812
  732MOL0     H  962   4.808   8.998   5.981  3.1881 -0.7511  1.1814
  732MOL0     H  963   4.653   9.150   5.884  0.6330  0.2395  1.0682
  732MOL0     H  964   4.754   9.167   5.739 -0.9086 -0.1560  0.1867
  732MOL0     H  965   4.615   8.842   5.904 -2.5455 -1.8384 -0.6523
  732MOL0     H  966   4.502   8.578   5.650  1.3045 -1.8798 -0.3703
  732MOL0     H  967   4.522   8.604   5.820  1.3968 -5.1057 -0.2675
  732MOL0     H  968   4.652   8.450   5.645 -1.2052 -0.6300  1.4421
  732MOL0     H  969   4.780   8.572   5.673 -0.2728 -2.0645 -0.0234
  732MOL0     H  970   4.647   8.403   5.879  0.4233 -0.0837 -2.5831
  732MOL0     H  971   4.809   8.399   5.803  0.7464  1.4860 -2.2082
  732MOL0     H  972   4.840   8.498   6.013 -1.6547  0.1065  1.8940
  732MOL0     H  973   4.854   8.635   5.894 -0.8308 -0.2358 -0.3945
  732MOL0     H  974   4.943   8.690   6.099 -0.2205  0.2574  0.6997
  732MOL0     H  975   5.087   8.920   6.293 -1.0444  0.1405 -0.7955
  732MOL0     H  976   5.105   8.782   6.184  0.0612 -3.8146  1.6346
  732MOL0     H  977   5.059   8.760   6.362 -0.3037  1.1759  1.3476
  732MOL0     H  978   4.636   9.153   6.639  0.4639  0.2133 -4.1312
  732MOL0     H  979   4.691   9.269   6.850 -0.5871  0.3367  0.1671
  732MOL0     H  980   4.803   9.450   7.002  2.1595  2.3364 -1.3271
  732MOL0     H  981   4.853   9.300   7.080 -1.5900  2.9934  2.5786
  732MOL0     H  982   5.010   9.554   7.052 -1.2864  0.9442  0.8469
  732MOL0     H  983   4.938   9.499   7.199  2.5236 -1.7981  1.6394
  732MOL0     H  984   5.151   9.319   7.064  1.8420 -0.8487  2.7871
  732MOL0     H  985   5.064   9.304   7.199  3.1121 -1.6775 -0.1372
  732MOL0     H  986   5.158   9.507   7.294  0.3925  2.5529 -0.4920
  732MOL0     H  987   5.264   9.531   7.152  3.6672 -1.5068  1.3375
  732MOL0     H  988   5.269   9.281   7.320 -3.1314  0.9227 -1.7547
  732MOL0     H  989   5.381   9.324   7.198 -0.0480 -0.0509 -0.4623
  732MOL0     H  990   5.336   9.524   7.418 -0.0912  2.1615 -2.1713
  732MOL0     H  991   5.484   9.509   7.344 -2.1851  1.2142 -1.0024
  732MOL0     H  992   5.379   9.276   7.527  0.8280  0.2427  1.5887
  732MOL0     H  993   5.476   9.410   7.577 -1.2319 -1.0224  1.6819
  732MOL0     H  994   5.564   9.199   7.386  2.3064  0.2518 -0.1135
  732MOL0     H  995   5.623   9.231   7.540 -1.2721  1.2824  1.5714
  732MOL0     H  996   5.107   9.278   6.727  0.5023 -2.0345 -2.1448
  732MOL0     H  997   5.060   9.186   6.523 -1.4790  0.0491 -1.4191
  732MOL0     H  998   4.582   8.890   6.364  0.8531 -1.8053  2.0294
  732MOL0     H  999   4.532   8.731   6.160  0.3246 -0.2832  0.4047
  732MOL0     H 1000   5.231   9.501   5.952 -0.6597  0.8890  1.9832
  732MOL0     H 1001   5.216   9.732   5.992 -0.0252  0.2807 -0.0428
  732MOL0     H 1002   5.198  10.186   5.989 -0.4803  1.3279 -3.1217
  732MOL0     H 1003   5.232  10.430   6.019 -3.0560 -2.7974 -2.8443
  732MOL0     H 1004   5.651  10.525   6.108 -2.7713 -2.7290 -0.2142
  732MOL0     H 1005   5.646  10.605   5.942  2.3006  1.4960  0.2372
  732MOL0     H 1006   5.560  10.710   6.209 -2.1609 -1.8401 -1.9191
  732MOL0     H 1007   5.553  10.810   6.065  0.9795 -0.0446 -1.6541
  732MOL0     H 1008   5.762  10.862   6.203  3.5196  1.2989 -2.1322
  732MOL0     H 1009   5.814  10.707   6.173  0.7575  1.5663  0.4155
  732MOL0     H 1010   5.772  10.917   5.945  3.2763  0.1305 -1.9084
  732MOL0     H 1011   5.781  10.747   5.905  1.3603  0.8884 -1.5789
  732MOL0     H 1012   6.168  10.852   6.018 -0.6567 -0.4152  1.7842
  732MOL0     H 1013   5.652  10.357   5.959 -0.2019 -0.6048  0.7429
  732MOL0     H 1014   5.700  10.094   6.042 -1.8855  2.0648 -0.6943
  732MOL0     H 1015   5.642   9.987   5.923  0.1130  0.4143 -0.4725
  732MOL0     H 1016   5.707  10.139   5.871  2.8719 -0.3887  0.6937
  733MOL0     O 1017   2.159  11.000   3.070 -0.5877 -0.0999 -1.0269
  733MOL0     C 1018   2.044  10.981   3.031 -0.9836  0.2563  1.0923
  733MOL0     O 1019   1.969  11.048   2.936 -0.8647 -0.2314 -0.4335
  733MOL0     C 1020   2.040  11.151   2.873 -0.5436 -0.3668 -0.8231
  733MOL0     C 1021   2.161  11.128   2.806 -0.5075  0.2866  0.9136
  733MOL0     C 1022   2.244  11.228   2.754 -0.2728 -0.3323 -0.5267
  733MOL0     C 1023   2.190  11.365   2.744  0.2634 -0.0774 -0.0808
  733MOL0     O 1024   2.269  11.475   2.710 -0.0288 -1.1490  0.0777
  733MOL0     C 1025   2.380  11.501   2.801  0.0317 -0.3361 -0.2968
  733MOL0     C 1026   2.455  11.620   2.766  0.0924 -0.3017 -0.1074
  733MOL0     C 1027   2.559  11.639   2.884 -0.5216  0.4935 -0.4709
  733MOL0     C 1028   2.509  11.756   2.970 -0.1037 -0.4440  0.0012
  733MOL0     C 1029   2.609  11.766   3.086 -0.3942 -0.2168  0.9562
  733MOL0     C 1030   2.601  11.907   3.156  0.2295 -0.4082  0.2420
  733MOL0     C 1031   2.730  11.955   3.220  0.6756 -0.5222  0.5334
  733MOL0     C 1032   2.735  12.093   3.287 -0.0855  0.8328  0.3857
  733MOL0     N 1033   2.704  12.201   3.189  0.1422  1.1509  0.2398
  733MOL0     C 1034   2.600  12.281   3.196  0.6330  0.6464  0.4454
  733MOL0     C 1035   2.588  12.340   3.074 -0.4914 -0.9018  0.9904
  733MOL0     C 1036   2.462  12.413   3.013 -0.9423  1.4819 -0.2012
  733MOL0     C 1037   2.465  12.414   2.863 -1.0761  0.1647 -0.2206
  733MOL0     C 1038   2.593  12.478   2.784 -0.1065  0.6477  0.3419
  733MOL0     C 1039   2.543  12.539   2.657  0.3232  0.5714  0.0020
  733MOL0     O 1040   2.644  12.578   2.562 -0.0146  0.1803 -0.3786
  733MOL0     C 1041   2.700  12.490   2.484 -1.1696  0.6193  0.4389
  733MOL0     C 1042   2.799  12.527   2.398  0.4139  0.5164 -0.0638
  733MOL0     C 1043   2.872  12.437   2.322  0.3506 -0.1453  0.5720
  733MOL0     C 1044   2.981  12.490   2.243  0.2011 -0.0899  0.1314
  733MOL0     C 1045   2.830  12.304   2.313 -0.0862  0.0458 -0.0895
  733MOL0     C 1046   2.900  12.202   2.231 -0.5491 -0.2423  0.0738
  733MOL0     O 1047   2.920  12.088   2.294 -0.6497 -0.3077  0.2689
  733MOL0     C 1048   3.006  11.988   2.238  0.8105 -0.0921 -1.0998
  733MOL0     C 1049   3.054  11.896   2.327  0.6091 -0.5304 -0.8423
  733MOL0     C 1050   3.133  11.790   2.298  0.6697  0.8406  0.2084
  733MOL0     C 1051   3.171  11.759   2.167  0.3673 -0.8462 -0.2482
  733MOL0     O 1052   3.251  11.660   2.133  0.1883 -0.2277  1.0787
  733MOL0     C 1053   3.370  11.627   2.210 -0.6123  0.3417 -0.6066
  733MOL0     C 1054   3.442  11.515   2.131  0.5450 -0.0630 -0.1680
  733MOL0     C 1055   3.528  11.591   2.020 -0.2686  0.4716  0.4902
  733MOL0     C 1056   3.640  11.511   1.958 -0.8914 -0.6994 -0.1674
  733MOL0     C 1057   3.752  11.589   1.885  0.2860 -0.1184 -1.1785
  733MOL0     C 1058   3.857  11.503   1.835  0.3922  0.8685  0.0692
  733MOL0     C 1059   3.957  11.454   1.939  0.3252  0.2466  0.7236
  733MOL0     C 1060   4.027  11.316   1.913  0.5169 -0.2458  0.0934
  733MOL0    Cl 1061   4.110  11.332   1.763  0.0835  0.5626  0.1437
  733MOL0     C 1062   3.106  11.836   2.066  0.0773  0.0039 -0.6196
  733MOL0     C 1063   3.029  11.951   2.101 -0.0014  0.5868  0.2457
  733MOL0     O 1064   2.948  12.230   2.118 -0.3504 -0.1312 -1.0929
  733MOL0     C 1065   2.733  12.252   2.404  0.0892 -0.4697 -0.0777
  733MOL0     C 1066   2.661  12.351   2.480  0.0017 -0.3914  0.4020
  733MOL0     N 1067   2.695  12.299   2.992  0.2239 -0.8032 -0.6175
  733MOL0     N 1068   2.756  12.216   3.073  0.8286 -0.0461  0.6816
  733MOL0     C 1069   2.069  11.389   2.808  0.0661  0.1473  0.0465
  733MOL0     C 1070   1.996  11.284   2.872 -0.2988 -0.1871  0.9440
  733MOL0     C 1071   1.958  10.884   3.101 -0.1586  0.3263  1.0221
  733MOL0     C 1072   1.911  10.773   3.027  0.7025 -0.1889 -0.0280
  733MOL0     C 1073   1.838  10.664   3.083  0.0398 -0.0616 -0.4562
  733MOL0     C 1074   1.821  10.651   3.214  0.4081 -0.7283  1.2087
  733MOL0     O 1075   1.754  10.545   3.274 -0.0471 -0.6730 -1.0508
  733MOL0     C 1076   1.711  10.570   3.410 -0.2471 -0.0888 -1.0508
  733MOL0     C 1077   1.630  10.450   3.461  0.0345  0.1156  0.2502
  733MOL0     C 1078   1.697  10.318   3.421 -0.9912 -0.7937 -0.6323
  733MOL0     C 1079   1.633  10.194   3.485  0.0746 -0.6783 -0.2188
  733MOL0     C 1080   1.685  10.074   3.424 -0.0052 -0.5988  0.2541
  733MOL0     C 1081   1.731   9.976   3.360 -0.0445 -0.7065  0.3248
  733MOL0     C 1082   1.885  10.755   3.293 -0.5417 -1.0055  1.0041
  733MOL0     C 1083   1.942  10.872   3.238 -0.0746 -0.4432 -0.4758
  733MOL0     C 1084   1.985  10.990   3.328  0.2333 -0.1315 -0.1466
  733MOL0     H 1085   2.192  11.024   2.809  2.0071  0.9598  0.6488
  733MOL0     H 1086   2.342  11.213   2.711  0.2008  2.7471 -0.7792
  733MOL0     H 1087   2.448  11.418   2.780 -0.5951 -0.3106 -2.7503
  733MOL0     H 1088   2.356  11.502   2.907  3.4933 -2.1506  0.6428
  733MOL0     H 1089   2.502  11.597   2.670 -3.7371 -3.1579 -1.5385
  733MOL0     H 1090   2.384  11.703   2.756  0.7932  0.3233 -0.0115
  733MOL0     H 1091   2.553  11.557   2.956  0.7189 -1.1537 -2.1603
  733MOL0     H 1092   2.655  11.666   2.839 -0.5255  0.0608 -0.7398
  733MOL0     H 1093   2.519  11.840   2.901  0.0077 -0.4346  0.0284
  733MOL0     H 1094   2.408  11.734   3.006 -0.6799  0.6471 -0.9002
  733MOL0     H 1095   2.709  11.745   3.048 -0.4292  1.9622 -0.5323
  733MOL0     H 1096   2.582  11.687   3.156  2.4897 -0.1903  2.2159
  733MOL0     H 1097   2.575  11.975   3.074 -0.4283 -0.8175  0.1018
  733MOL0     H 1098   2.514  11.907   3.223 -0.5578  1.2758 -0.7171
  733MOL0     H 1099   2.801  11.972   3.139 -0.4311  0.5217 -0.2427
  733MOL0     H 1100   2.777  11.883   3.289  1.3748  0.5763  1.2467
  733MOL0     H 1101   2.662  12.093   3.368 -2.0045  0.5117 -1.2756
  733MOL0     H 1102   2.839  12.096   3.322  0.6597 -1.4467 -1.3894
  733MOL0     H 1103   2.528  12.266   3.277  0.5966 -2.3723 -0.0523
  733MOL0     H 1104   2.448  12.512   3.059  1.4804  2.4695 -1.4299
  733MOL0     H 1105   2.376  12.354   3.046  1.1618 -1.4830  0.3961
  733MOL0     H 1106   2.457  12.307   2.839 -2.1832  0.2626 -0.3306
  733MOL0     H 1107   2.375  12.468   2.830 -0.3024  1.2294 -0.6329
  733MOL0     H 1108   2.646  12.549   2.848  0.4485 -0.4117  1.1153
  733MOL0     H 1109   2.658  12.393   2.758 -2.2168 -0.3350 -2.1884
  733MOL0     H 1110   2.467  12.479   2.606  1.5526 -0.7308 -0.3934
  733MOL0     H 1111   2.498  12.633   2.690  3.0539  1.1650  2.3820
  733MOL0     H 1112   2.834  12.629   2.406  1.4213  0.2573 -1.0768
  733MOL0     H 1113   2.937  12.520   2.147 -1.9721  1.1138  1.4074
  733MOL0     H 1114   3.064  12.420   2.235 -0.1520 -0.3551 -1.7863
  733MOL0     H 1115   3.023  12.582   2.285 -0.5650 -0.0563  0.8502
  733MOL0     H 1116   3.022  11.904   2.430  0.5177 -2.7749 -0.6419
  733MOL0     H 1117   3.170  11.736   2.385  4.0123  1.0330 -0.9112
  733MOL0     H 1118   3.429  11.719   2.210  1.2804 -0.7668  1.5401
  733MOL0     H 1119   3.345  11.588   2.309  1.2927  1.8601  0.5347
  733MOL0     H 1120   3.498  11.452   2.201 -2.2752 -0.1709  2.1983
  733MOL0     H 1121   3.364  11.452   2.086  1.3072 -0.6116 -0.7564
  733MOL0     H 1122   3.571  11.686   2.052  2.1927  0.0470 -1.3042
  733MOL0     H 1123   3.456  11.615   1.941  0.2736  2.4886  0.5531
  733MOL0     H 1124   3.587  11.440   1.894  1.2110  0.6033 -3.5955
  733MOL0     H 1125   3.683  11.445   2.033 -3.3897 -2.4960 -0.1665
  733MOL0     H 1126   3.692  11.639   1.808 -3.4366  0.4139  1.7846
  733MOL0     H 1127   3.790  11.667   1.952 -1.7840  0.2238 -0.3106
  733MOL0     H 1128   3.914  11.555   1.758 -2.5215  0.4229 -2.6072
  733MOL0     H 1129   3.803  11.418   1.793 -0.3821  1.1575  0.4526
  733MOL0     H 1130   3.909  11.445   2.037 -0.2119 -0.2725  0.4168
  733MOL0     H 1131   4.020  11.543   1.931 -3.2705  2.8841 -1.0052
  733MOL0     H 1132   3.952  11.240   1.892 -1.4278  2.3680 -3.3486
  733MOL0     H 1133   4.098  11.285   1.991 -0.3412  0.1290  1.0466
  733MOL0     H 1134   3.124  11.810   1.962 -0.8108 -0.5627 -0.6363
  733MOL0     H 1135   2.989  12.008   2.017  2.0452  2.0476  0.1839
  733MOL0     H 1136   2.709  12.146   2.395  2.3656 -0.9795 -0.7897
  733MOL0     H 1137   2.585  12.300   2.538 -1.6289 -0.5944 -1.7884
  733MOL0     H 1138   2.033  11.490   2.825 -2.7079 -1.2268  3.9517
  733MOL0     H 1139   1.907  11.321   2.921 -1.3360 -1.4536  0.0633
  733MOL0     H 1140   1.935  10.762   2.921 -1.3233  0.2537 -0.5701
  733MOL0     H 1141   1.796  10.594   3.011 -2.0189  1.1459 -0.5237
  733MOL0     H 1142   1.775  10.591   3.496 -5.7214  0.4466  3.4645
  733MOL0     H 1143   1.661  10.666   3.424  0.5231 -0.1491  4.5352
  733MOL0     H 1144   1.531  10.446   3.414 -0.5084  0.9868  1.2747
  733MOL0     H 1145   1.619  10.469   3.568 -1.7335  3.1473 -0.3467
  733MOL0     H 1146   1.681  10.311   3.313 -3.1846 -1.5218 -0.3061
  733MOL0     H 1147   1.803  10.323   3.450 -0.9787 -1.2746 -0.5833
  733MOL0     H 1148   1.525  10.209   3.474 -0.1982 -3.2911 -2.5987
  733MOL0     H 1149   1.659  10.197   3.591 -3.0556  1.5387  0.6203
  733MOL0     H 1150   1.767   9.881   3.326  1.1014  0.7048 -2.7337
  733MOL0     H 1151   1.904  10.747   3.399 -0.0883 -3.6377  0.8101
  733MOL0     H 1152   1.980  11.082   3.268 -1.4900  0.2626  0.5304
  733MOL0     H 1153   1.917  11.001   3.413  1.1551 -0.0528  0.5932
  733MOL0     H 1154   2.089  10.978   3.359  1.2062  0.7596 -2.8107
  734MOL0     O 1155   6.280   3.032   3.700  0.2341  0.5197  0.7336
  734MOL0     C 1156   6.400   3.030   3.733 -0.2179  0.7881 -0.3268
  734MOL0     O 1157   6.450   3.065   3.854  0.0112 -0.2987 -0.0571
  734MOL0     C 1158   6.373   3.152   3.928 -0.0943 -0.1824  0.3523
  734MOL0     C 1159   6.234   3.128   3.958 -0.3468  0.1454  1.3286
  734MOL0     C 1160   6.167   3.211   4.054 -0.1316 -0.2933 -0.4749
  734MOL0     C 1161   6.230   3.320   4.118  0.3777 -0.3444 -0.1781
  734MOL0     O 1162   6.171   3.407   4.203  0.3032  0.4831 -0.3959
  734MOL0     C 1163   6.249   3.503   4.269 -0.7648 -0.2180  0.8915
  734MOL0     C 1164   6.153   3.586   4.354  0.2256  0.1112 -0.3975
  734MOL0     C 1165   6.226   3.660   4.470 -0.4243 -0.1909  1.2336
  734MOL0     C 1166   6.324   3.774   4.426  0.6456  0.3975 -0.5471
  734MOL0     C 1167   6.424   3.810   4.532 -0.6626  0.8443  0.8718
  734MOL0     C 1168   6.382   3.800   4.671 -0.0264 -0.7361  0.0996
  734MOL0     C 1169   6.496   3.851   4.759  0.2737 -0.1411 -0.4883
  734MOL0     C 1170   6.443   3.861   4.904 -1.0998 -0.2736  0.0911
  734MOL0     N 1171   6.362   3.974   4.926  0.3963  0.3358 -0.6852
  734MOL0     C 1172   6.243   3.959   4.997  0.4448  0.1754 -0.8207
  734MOL0     C 1173   6.206   4.094   5.015 -0.6771  0.8729 -0.1829
  734MOL0     C 1174   6.093   4.128   5.113 -0.8548  0.1964  0.3101
  734MOL0     C 1175   6.124   4.214   5.232 -0.6303 -0.0527  0.2483
  734MOL0     C 1176   6.227   4.135   5.316  0.2586 -0.6041  0.5832
  734MOL0     C 1177   6.176   3.997   5.377  0.4430  1.1006 -1.0624
  734MOL0     O 1178   6.084   4.009   5.485 -0.7778 -0.4041  0.1458
  734MOL0     C 1179   6.138   4.022   5.608  0.1085  1.3029 -1.3792
  734MOL0     C 1180   6.264   4.069   5.639 -0.0157 -1.0458  0.2901
  734MOL0     C 1181   6.301   4.089   5.775 -0.9866 -0.5700 -0.0594
  734MOL0     C 1182   6.440   4.155   5.791 -0.4995 -0.6809 -0.0536
  734MOL0     C 1183   6.209   4.052   5.876  0.1432  0.0630  0.1307
  734MOL0     C 1184   6.236   4.074   6.019 -0.1971  0.6898  0.7928
  734MOL0     O 1185   6.242   3.961   6.101 -0.8103  0.0522  0.7044
  734MOL0     C 1186   6.235   3.835   6.051  0.5856 -0.5024 -0.3137
  734MOL0     C 1187   6.301   3.773   5.943  0.9607 -0.3200 -0.5166
  734MOL0     C 1188   6.275   3.641   5.905 -0.0512  0.0692 -0.6820
  734MOL0     C 1189   6.180   3.561   5.977 -1.2205  0.3112  1.5652
  734MOL0     O 1190   6.159   3.432   5.933 -0.0922  1.0013 -0.0362
  734MOL0     C 1191   6.209   3.330   6.021  0.9007 -0.3271  1.1241
  734MOL0     C 1192   6.104   3.259   6.097 -0.2323  1.1250  0.0474
  734MOL0     C 1193   6.159   3.138   6.172  0.4960  0.6677 -0.7198
  734MOL0     C 1194   6.038   3.064   6.249 -0.9588 -0.1384 -0.0511
  734MOL0     C 1195   6.092   2.924   6.302 -1.1329 -0.9129 -0.2896
  734MOL0     C 1196   6.095   2.809   6.204 -0.3671  0.4725 -0.1952
  734MOL0     C 1197   5.967   2.797   6.115 -0.4695  0.3569  1.2250
  734MOL0     C 1198   5.842   2.755   6.188  0.5844 -0.8930 -0.7347
  734MOL0    Cl 1199   5.722   2.674   6.085 -0.1145  0.6902  0.0426
  734MOL0     C 1200   6.120   3.619   6.093 -0.4958 -0.6302  0.3778
  734MOL0     C 1201   6.149   3.753   6.129  0.3286  0.7500  0.0987
  734MOL0     O 1202   6.275   4.182   6.049 -0.3728 -0.0990 -0.7564
  734MOL0     C 1203   6.084   3.996   5.846 -0.9547 -0.1491  1.1610
  734MOL0     C 1204   6.054   3.986   5.709  1.2969 -0.5191 -0.1710
  734MOL0     N 1205   6.297   4.182   4.954 -0.0089 -0.3157  0.3570
  734MOL0     N 1206   6.389   4.107   4.889  0.4083 -0.9691 -0.5062
  734MOL0     C 1207   6.365   3.336   4.072 -0.0485 -0.1912 -0.1301
  734MOL0     C 1208   6.430   3.261   3.977  0.2972  0.1042 -1.0906
  734MOL0     C 1209   6.494   2.979   3.628 -1.0122 -0.3151  0.1920
  734MOL0     C 1210   6.633   3.013   3.645 -0.0585  0.6460  0.5939
  734MOL0     C 1211   6.722   2.982   3.546  0.4978  0.1285  0.4555
  734MOL0     C 1212   6.691   2.900   3.439 -0.9823  0.8578  0.6626
  734MOL0     O 1213   6.787   2.864   3.348  1.0342 -0.0485 -0.1519
  734MOL0     C 1214   6.753   2.888   3.209 -0.3873 -0.3525  0.5185
  734MOL0     C 1215   6.872   2.935   3.120  0.1795  0.3203 -0.1671
  734MOL0     C 1216   6.926   3.070   3.185 -0.0164  0.2886 -0.1870
  734MOL0     C 1217   7.060   3.128   3.141  0.0502  0.0260  0.3399
  734MOL0     C 1218   7.070   3.193   3.014 -0.7461 -0.4005  0.2550
  734MOL0     C 1219   7.095   3.243   2.902 -0.5017  0.3645  0.3812
  734MOL0     C 1220   6.560   2.851   3.428  0.0021  0.7259 -0.5512
  734MOL0     C 1221   6.461   2.895   3.517 -0.1989  0.2715 -0.2220
  734MOL0     C 1222   6.320   2.824   3.498  0.2276 -0.2970  0.7403
  734MOL0     H 1223   6.193   3.041   3.908  2.1010  0.7825 -2.1371
  734MOL0     H 1224   6.060   3.211   4.069  0.0086 -0.2567  0.6308
  734MOL0     H 1225   6.303   3.566   4.197  0.3649 -1.7660  0.3279
  734MOL0     H 1226   6.316   3.451   4.338 -0.5582 -2.4594 -0.8891
  734MOL0     H 1227   6.088   3.648   4.290  1.6185 -0.4593 -2.4541
  734MOL0     H 1228   6.073   3.525   4.398 -1.6076  0.7320 -2.6162
  734MOL0     H 1229   6.153   3.701   4.541 -0.1818 -2.6230  3.0213
  734MOL0     H 1230   6.293   3.591   4.522  0.5441  1.5035  2.3211
  734MOL0     H 1231   6.379   3.734   4.340  0.6403 -3.4793  1.0924
  734MOL0     H 1232   6.269   3.863   4.393 -0.8301  0.2364  1.3173
  734MOL0     H 1233   6.459   3.910   4.505  1.7958 -0.2074 -0.1366
  734MOL0     H 1234   6.511   3.746   4.515 -0.7032  1.5490 -2.9289
  734MOL0     H 1235   6.296   3.866   4.685  1.7366  1.7373 -0.0890
  734MOL0     H 1236   6.354   3.696   4.688 -2.0391 -0.2640 -0.0981
  734MOL0     H 1237   6.539   3.944   4.722  0.7465  0.3471  1.2059
  734MOL0     H 1238   6.573   3.774   4.763 -1.0246 -1.4369  0.7806
  734MOL0     H 1239   6.389   3.770   4.929 -2.9242  1.0666  1.2869
  734MOL0     H 1240   6.536   3.865   4.962 -1.0678 -1.1862  0.1041
  734MOL0     H 1241   6.187   3.876   5.039  1.1618 -0.8562 -1.8457
  734MOL0     H 1242   6.037   4.039   5.143 -0.0724 -0.6572 -0.6766
  734MOL0     H 1243   6.015   4.182   5.059 -0.4732  1.0944  0.6501
  734MOL0     H 1244   6.153   4.318   5.213 -2.0305  1.4663  4.8964
  734MOL0     H 1245   6.032   4.220   5.291 -0.9770 -3.3181  0.2419
  734MOL0     H 1246   6.318   4.121   5.256 -1.4927  0.5518 -2.5524
  734MOL0     H 1247   6.250   4.202   5.399  0.7668 -1.4529  1.1400
  734MOL0     H 1248   6.129   3.934   5.301  1.3194  0.7409 -1.3148
  734MOL0     H 1249   6.261   3.938   5.415 -1.0023  0.0287  0.7093
  734MOL0     H 1250   6.332   4.104   5.561 -0.5679  0.4399  0.4355
  734MOL0     H 1251   6.515   4.082   5.824 -0.8089 -0.4612  1.1938
  734MOL0     H 1252   6.428   4.231   5.868 -2.0780  1.8648 -2.6279
  734MOL0     H 1253   6.468   4.219   5.708  1.1462 -0.0652  0.9419
  734MOL0     H 1254   6.378   3.818   5.881 -0.4284 -0.6708 -2.6044
  734MOL0     H 1255   6.333   3.600   5.823 -1.0418  1.0640 -1.9316
  734MOL0     H 1256   6.254   3.258   5.952 -0.5416  0.3409 -0.5913
  734MOL0     H 1257   6.290   3.372   6.082  2.4215 -0.1984 -0.8893
  734MOL0     H 1258   6.057   3.337   6.157 -1.2158  0.4213  0.2089
  734MOL0     H 1259   6.035   3.222   6.021 -0.5110 -1.0724  1.2837
  734MOL0     H 1260   6.250   3.160   6.228  1.6432 -0.9967 -1.8309
  734MOL0     H 1261   6.195   3.063   6.100  2.2723 -0.1067  0.8965
  734MOL0     H 1262   5.956   3.052   6.178 -2.8840  2.1413  1.6352
  734MOL0     H 1263   6.014   3.116   6.342  2.0990 -2.3660  2.2155
  734MOL0     H 1264   6.189   2.942   6.348  0.0063  1.8478 -3.3341
  734MOL0     H 1265   6.033   2.892   6.388 -0.4612  0.2611  0.6379
  734MOL0     H 1266   6.111   2.715   6.258 -1.9105  1.8288  2.8883
  734MOL0     H 1267   6.174   2.810   6.128 -0.0036  1.7081  0.1766
  734MOL0     H 1268   5.979   2.725   6.033 -2.7437  1.6950 -0.3893
  734MOL0     H 1269   5.951   2.890   6.061  3.0961  0.5351  0.2414
  734MOL0     H 1270   5.799   2.841   6.240  2.1347 -0.1856 -0.5730
  734MOL0     H 1271   5.875   2.683   6.264  2.6188  1.9156  1.2490
  734MOL0     H 1272   6.064   3.559   6.164  1.5775 -0.0713  2.6070
  734MOL0     H 1273   6.106   3.810   6.211  0.1220 -1.4466  1.5976
  734MOL0     H 1274   6.013   3.977   5.926 -1.4740  0.0092  0.7452
  734MOL0     H 1275   5.956   3.954   5.675 -0.9599  3.5437  1.8066
  734MOL0     H 1276   6.427   3.415   4.112  0.1226  0.4351 -1.5600
  734MOL0     H 1277   6.533   3.294   3.965  0.5130  0.1863  0.6613
  734MOL0     H 1278   6.669   3.076   3.725  3.3461 -1.4318  0.9271
  734MOL0     H 1279   6.828   3.005   3.553  1.5037 -2.1198 -3.6952
  734MOL0     H 1280   6.713   2.800   3.158  1.0068  0.2189 -1.6846
  734MOL0     H 1281   6.659   2.942   3.196 -1.4244 -1.6238  2.2600
  734MOL0     H 1282   6.844   2.959   3.017  2.4588  2.1781 -0.4152
  734MOL0     H 1283   6.964   2.876   3.125  0.7593  1.2489  3.3703
  734MOL0     H 1284   6.852   3.146   3.158 -1.0614 -1.1620 -1.5771
  734MOL0     H 1285   6.940   3.051   3.292  3.9372  0.1366 -0.5764
  734MOL0     H 1286   7.124   3.041   3.153 -0.4911 -0.8159 -2.4003
  734MOL0     H 1287   7.099   3.208   3.205 -1.8799  2.1358 -0.9563
  734MOL0     H 1288   7.091   3.290   2.805 -0.0969  0.1114  0.2381
  734MOL0     H 1289   6.546   2.777   3.350  1.2057 -0.3298  0.1871
  734MOL0     H 1290   6.326   2.725   3.450 -1.6080 -1.8996  3.5202
  734MOL0     H 1291   6.279   2.797   3.596 -0.2286 -0.7638  0.4263
  734MOL0     H 1292   6.248   2.881   3.438  0.6813  0.0317  0.5022
  735MOL0     O 1293   8.522   9.754   6.575  0.0937 -0.4347 -0.4276
  735MOL0     C 1294   8.425   9.671   6.584  0.1806 -0.0077 -0.3449
  735MOL0     O 1295   8.292   9.696   6.546 -0.9275  0.1528 -0.0917
  735MOL0     C 1296   8.262   9.812   6.483 -0.3084  1.2338  0.3398
  735MOL0     C 1297   8.262   9.932   6.555  1.4219  0.3650 -0.3331
  735MOL0     C 1298   8.191  10.046   6.495  0.4073  0.5019  0.2226
  735MOL0     C 1299   8.115  10.036   6.374 -0.5893  0.3726 -0.0145
  735MOL0     O 1300   8.072  10.151   6.317  0.2140 -1.0292  0.1394
  735MOL0     C 1301   7.994  10.159   6.201  0.7328 -0.0900  0.1007
  735MOL0     C 1302   7.923  10.308   6.182  0.0587  0.1041 -0.4965
  735MOL0     C 1303   7.849  10.304   6.049 -1.4302 -1.1144 -0.6180
  735MOL0     C 1304   7.957  10.292   5.944 -0.2981  0.2201  1.3476
  735MOL0     C 1305   7.933  10.391   5.825 -0.9809  0.1853 -0.9263
  735MOL0     C 1306   8.067  10.398   5.741 -0.1475  0.2747  0.3960
  735MOL0     C 1307   8.063  10.474   5.605 -0.3582  0.7167  0.1972
  735MOL0     C 1308   7.985  10.405   5.497  0.6161 -0.3205 -0.2515
  735MOL0     N 1309   7.955  10.474   5.364 -0.6262 -0.9202 -0.6707
  735MOL0     C 1310   7.923  10.403   5.246  0.0578 -0.7016  0.4655
  735MOL0     C 1311   7.925  10.500   5.151  0.4031 -0.9384  0.0374
  735MOL0     C 1312   7.892  10.464   5.006  0.2190 -1.0004  0.2461
  735MOL0     C 1313   7.818  10.585   4.944  0.8398 -0.1011  0.0814
  735MOL0     C 1314   7.748  10.541   4.812  1.2015  0.2985  0.6495
  735MOL0     C 1315   7.848  10.527   4.701 -1.2234 -0.7310  0.3264
  735MOL0     O 1316   7.922  10.655   4.670  0.4165  0.8994  0.0447
  735MOL0     C 1317   8.011  10.668   4.559  0.4221  0.5706 -0.5969
  735MOL0     C 1318   8.074  10.796   4.536 -0.7945  0.4004  0.2505
  735MOL0     C 1319   8.168  10.819   4.434  0.2736  1.4192  0.0602
  735MOL0     C 1320   8.220  10.953   4.415 -0.3071 -0.7383  0.1348
  735MOL0     C 1321   8.192  10.715   4.339 -0.2140  0.3327  0.5633
  735MOL0     C 1322   8.287  10.720   4.218 -0.2677 -0.1512 -0.1664
  735MOL0     O 1323   8.325  10.598   4.156 -0.3037 -0.0775 -0.3519
  735MOL0     C 1324   8.393  10.590   4.036  0.2506  0.2831 -0.2806
  735MOL0     C 1325   8.391  10.682   3.922 -0.6682 -0.1677 -0.2627
  735MOL0     C 1326   8.480  10.663   3.819  0.2699 -0.8000  0.7170
  735MOL0     C 1327   8.572  10.554   3.817 -0.7575  0.1264  0.1286
  735MOL0     O 1328   8.679  10.530   3.733  0.2109 -0.8813 -0.2442
  735MOL0     C 1329   8.730  10.640   3.660  0.7127 -0.6695  0.1334
  735MOL0     C 1330   8.802  10.752   3.739  0.4148 -0.1108  0.4944
  735MOL0     C 1331   8.866  10.875   3.658  0.5965 -0.5113  0.3135
  735MOL0     C 1332   8.928  10.853   3.522 -0.8466 -0.2717  0.9195
  735MOL0     C 1333   8.958  10.988   3.458 -0.2787  0.9684  0.2200
  735MOL0     C 1334   9.084  11.062   3.513  0.6325 -0.2262 -0.1140
  735MOL0     C 1335   9.218  10.988   3.512  0.5138  0.1358  0.7514
  735MOL0     C 1336   9.240  10.926   3.381 -0.1077 -0.1301 -0.0038
  735MOL0    Cl 1337   9.266  11.042   3.249 -0.2896  0.0184  0.6986
  735MOL0     C 1338   8.558  10.453   3.922  0.2504 -0.5788  0.6997
  735MOL0     C 1339   8.475  10.480   4.032 -1.0681 -0.3254  0.5058
  735MOL0     O 1340   8.301  10.828   4.168  0.2857  0.1086  0.3396
  735MOL0     C 1341   8.132  10.589   4.357  0.0345  0.0022 -0.8446
  735MOL0     C 1342   8.045  10.566   4.465 -0.3795 -0.1292  0.9637
  735MOL0     N 1343   7.953  10.625   5.213 -1.0015  0.2212  0.2060
  735MOL0     N 1344   7.967  10.607   5.336 -0.2480  0.4794 -0.4144
  735MOL0     C 1345   8.117   9.915   6.308 -0.0574 -0.5946  0.2801
  735MOL0     C 1346   8.190   9.809   6.361  0.6915  0.2830  0.0585
  735MOL0     C 1347   8.456   9.540   6.648  0.9832  0.5446  0.0484
  735MOL0     C 1348   8.567   9.479   6.592  0.4454  0.0328 -1.1827
  735MOL0     C 1349   8.618   9.367   6.661 -0.1238  0.2814  0.1710
  735MOL0     C 1350   8.559   9.307   6.767 -0.3365 -0.0288  0.0137
  735MOL0     O 1351   8.591   9.182   6.809  0.1847  0.4301  0.2141
  735MOL0     C 1352   8.673   9.189   6.928 -0.2908  0.5747  0.3859
  735MOL0     C 1353   8.828   9.161   6.916 -1.0588  0.7233  0.2205
  735MOL0     C 1354   8.906   9.195   7.043 -0.4132  0.8942  0.0230
  735MOL0     C 1355   8.977   9.326   7.020  0.6527 -0.4990 -1.2321
  735MOL0     C 1356   8.887   9.445   6.998 -0.1464  0.2553  0.4722
  735MOL0     C 1357   8.811   9.536   6.974  0.0420  0.1130  0.6044
  735MOL0     C 1358   8.447   9.369   6.812  0.3324  0.7099  0.9151
  735MOL0     C 1359   8.396   9.482   6.762 -0.1417 -0.2731  0.6055
  735MOL0     C 1360   8.288   9.557   6.839 -0.1373 -0.8424  0.3665
  735MOL0     H 1361   8.288   9.946   6.660 -3.2186  0.0770  1.1089
  735MOL0     H 1362   8.196  10.137   6.554 -1.4228  0.1316  1.0294
  735MOL0     H 1363   7.912  10.087   6.211  0.7319  0.1397  2.1060
  735MOL0     H 1364   8.056  10.131   6.115  0.3489 -0.9289  0.0906
  735MOL0     H 1365   7.850  10.316   6.263  1.1512  1.2737  0.4005
  735MOL0     H 1366   7.998  10.383   6.208  0.4512 -1.1268  2.2807
  735MOL0     H 1367   7.770  10.228   6.055 -1.1035 -1.4383 -0.3448
  735MOL0     H 1368   7.800  10.402   6.048 -0.8240 -0.8090 -0.6532
  735MOL0     H 1369   8.055  10.316   5.987  1.2124 -1.8805 -0.6604
  735MOL0     H 1370   7.981  10.190   5.913  2.5527  0.4874  2.3695
  735MOL0     H 1371   7.919  10.491   5.866 -0.5575  0.1003 -0.5703
  735MOL0     H 1372   7.848  10.354   5.766 -2.5373 -0.4607  1.5543
  735MOL0     H 1373   8.140  10.446   5.807  0.4816 -0.1945  0.0549
  735MOL0     H 1374   8.102  10.296   5.723  0.4369  0.6651 -0.8488
  735MOL0     H 1375   8.166  10.477   5.568 -0.4969 -1.6220 -0.5917
  735MOL0     H 1376   8.025  10.575   5.620  0.5013  0.6334  3.8604
  735MOL0     H 1377   8.041  10.314   5.475  0.4401  0.3078 -4.0473
  735MOL0     H 1378   7.884  10.379   5.531  0.7166 -3.3850 -1.8993
  735MOL0     H 1379   7.907  10.298   5.223  2.2344 -0.8238 -0.7321
  735MOL0     H 1380   7.845  10.366   4.992  0.9682 -1.8804  3.1505
  735MOL0     H 1381   7.995  10.463   4.968  0.6694 -0.2511  1.3867
  735MOL0     H 1382   7.738  10.621   5.008  1.8587 -1.3226  2.1527
  735MOL0     H 1383   7.893  10.661   4.922 -1.2929  1.4655 -2.4350
  735MOL0     H 1384   7.702  10.443   4.827  1.5872  0.2778  1.8277
  735MOL0     H 1385   7.671  10.616   4.791 -2.0828 -3.0397 -0.4324
  735MOL0     H 1386   7.913  10.440   4.713 -1.4555 -0.8383  0.8520
  735MOL0     H 1387   7.794  10.503   4.609  1.2860 -1.0139 -1.1698
  735MOL0     H 1388   8.049  10.866   4.616  0.0975  0.6451  0.3219
  735MOL0     H 1389   8.186  10.996   4.321  0.0279 -2.6792 -0.9245
  735MOL0     H 1390   8.329  10.959   4.404 -0.4554  0.8647 -0.7255
  735MOL0     H 1391   8.195  11.018   4.500  2.4212  1.1132 -0.3173
  735MOL0     H 1392   8.319  10.764   3.917  0.9267  1.2318 -1.9389
  735MOL0     H 1393   8.471  10.739   3.742 -5.4351 -0.7051  1.0940
  735MOL0     H 1394   8.809  10.600   3.597  1.8845 -1.4350  2.0262
  735MOL0     H 1395   8.648  10.684   3.602 -0.4583 -2.1633  0.5717
  735MOL0     H 1396   8.716  10.795   3.791 -0.4722  1.8829 -2.3918
  735MOL0     H 1397   8.874  10.711   3.811  1.1144  1.2164  0.5876
  735MOL0     H 1398   8.942  10.916   3.725 -1.7092  0.4443  2.5526
  735MOL0     H 1399   8.784  10.947   3.648  1.7559  0.7379 -0.5173
  735MOL0     H 1400   8.864  10.787   3.463 -0.4187  0.0515  0.0814
  735MOL0     H 1401   9.023  10.798   3.529  2.7715  4.9907 -0.5170
  735MOL0     H 1402   8.969  10.978   3.350  0.0351 -1.8079  0.4338
  735MOL0     H 1403   8.866  11.045   3.473 -1.2913 -0.6051  0.2173
  735MOL0     H 1404   9.064  11.084   3.618 -2.3196 -1.6658 -0.2561
  735MOL0     H 1405   9.094  11.157   3.461 -4.3226 -0.1815 -1.4767
  735MOL0     H 1406   9.210  10.901   3.578  0.9473 -0.5054 -0.0203
  735MOL0     H 1407   9.306  11.042   3.546  0.3215  2.0617 -1.5562
  735MOL0     H 1408   9.164  10.859   3.339  2.6856 -3.1092 -0.7312
  735MOL0     H 1409   9.323  10.855   3.394 -0.2670 -0.5336 -1.0689
  735MOL0     H 1410   8.635  10.381   3.949  1.2025 -0.3926 -1.3498
  735MOL0     H 1411   8.488  10.402   4.107 -0.7389 -0.1535  0.6292
  735MOL0     H 1412   8.145  10.506   4.289 -3.8291 -1.2393 -0.3464
  735MOL0     H 1413   8.000  10.468   4.477  0.3684 -0.2231  3.7689
  735MOL0     H 1414   8.072   9.911   6.209  3.2281 -0.0663 -1.3547
  735MOL0     H 1415   8.194   9.723   6.296 -0.6430  2.0468 -2.5597
  735MOL0     H 1416   8.625   9.506   6.504  1.7195 -1.4816 -0.8566
  735MOL0     H 1417   8.705   9.322   6.615 -0.1621 -1.1708  1.4388
  735MOL0     H 1418   8.662   9.289   6.969 -1.3312 -0.1069  1.8814
  735MOL0     H 1419   8.624   9.126   7.003  0.6357 -0.0520  0.4830
  735MOL0     H 1420   8.863   9.225   6.834  0.6005 -0.2352  0.1514
  735MOL0     H 1421   8.849   9.058   6.885 -1.3953  0.0447  2.1624
  735MOL0     H 1422   8.830   9.187   7.121 -0.4283 -3.3634 -0.1679
  735MOL0     H 1423   8.973   9.109   7.054 -3.2284 -2.1829 -3.8228
  735MOL0     H 1424   9.049   9.333   6.939  2.3273  1.2421  0.2795
  735MOL0     H 1425   9.048   9.337   7.103  2.6136  0.3718 -2.9444
  735MOL0     H 1426   8.739   9.616   6.972 -2.8886 -2.3753  0.1786
  735MOL0     H 1427   8.394   9.314   6.888  1.8821 -3.9457 -0.9775
  735MOL0     H 1428   8.224   9.474   6.870 -1.9064 -0.4904 -2.0494
  735MOL0     H 1429   8.326   9.595   6.935  2.3244 -0.8432 -0.5426
  735MOL0     H 1430   8.224   9.631   6.790 -0.2258 -1.8374 -1.0655
  736MOL0     O 1431   4.242  11.207   1.082 -0.1645  0.6226 -0.7192
  736MOL0     C 1432   4.257  11.088   1.110 -0.7753  0.2303 -0.3826
  736MOL0     O 1433   4.296  11.033   1.229  0.3915  0.4438  0.7737
  736MOL0     C 1434   4.357  11.122   1.312  1.2666  0.2695 -0.1124
  736MOL0     C 1435   4.496  11.140   1.312 -0.5402 -0.6653 -0.0379
  736MOL0     C 1436   4.546  11.252   1.379 -0.2968  0.2360 -1.0155
  736MOL0     C 1437   4.469  11.332   1.458  0.7436 -0.5262 -0.1721
  736MOL0     O 1438   4.509  11.422   1.552 -1.1055  0.9586  0.5253
  736MOL0     C 1439   4.647  11.409   1.597  0.8393 -0.0111 -0.0115
  736MOL0     C 1440   4.673  11.513   1.705 -0.5420  0.4771  0.6918
  736MOL0     C 1441   4.819  11.510   1.770  0.3603 -0.6634  0.2629
  736MOL0     C 1442   4.899  11.374   1.751  0.1941 -1.3551  0.9714
  736MOL0     C 1443   5.039  11.409   1.798 -0.7413 -0.8664 -0.3035
  736MOL0     C 1444   5.133  11.285   1.821  1.5140  0.3536  0.9560
  736MOL0     C 1445   5.267  11.320   1.876  0.0454 -0.0389  1.1124
  736MOL0     C 1446   5.352  11.425   1.800 -0.3992 -0.3544 -0.1545
  736MOL0     N 1447   5.410  11.372   1.679  0.1815 -0.0791 -0.1511
  736MOL0     C 1448   5.349  11.374   1.561  0.0613  0.5807  0.2029
  736MOL0     C 1449   5.444  11.326   1.475 -0.3389  0.1783  0.4209
  736MOL0     C 1450   5.403  11.300   1.329  0.1334  0.0810  0.4035
  736MOL0     C 1451   5.324  11.406   1.253  0.3038  0.3894  0.2853
  736MOL0     C 1452   5.412  11.520   1.212  0.1311  0.2540 -0.3055
  736MOL0     C 1453   5.339  11.613   1.114 -0.2357 -0.1969 -0.3485
  736MOL0     O 1454   5.231  11.674   1.191 -0.3208  0.2474 -0.1070
  736MOL0     C 1455   5.243  11.768   1.284 -1.3004  0.2694 -0.1431
  736MOL0     C 1456   5.152  11.781   1.386  0.4802  0.4476  0.1038
  736MOL0     C 1457   5.157  11.874   1.486  0.3787 -0.1659  0.7467
  736MOL0     C 1458   5.050  11.848   1.587 -0.6109  0.9038  0.0755
  736MOL0     C 1459   5.257  11.976   1.488 -1.2038 -0.2280  0.4304
  736MOL0     C 1460   5.265  12.080   1.590  0.6025  0.5872 -0.1816
  736MOL0     O 1461   5.378  12.144   1.606  0.7843  0.1845 -0.1483
  736MOL0     C 1462   5.386  12.242   1.704  0.3324  0.2604 -0.6816
  736MOL0     C 1463   5.390  12.202   1.834 -0.4243  0.1633 -1.1859
  736MOL0     C 1464   5.398  12.299   1.925 -0.5097  0.2521 -0.8013
  736MOL0     C 1465   5.403  12.436   1.895 -0.0863  0.3764  0.5124
  736MOL0     O 1466   5.401  12.526   2.005  0.5641 -1.1888 -0.0640
  736MOL0     C 1467   5.460  12.656   1.997 -0.1991 -1.1421  0.1633
  736MOL0     C 1468   5.508  12.687   2.141 -0.1933 -0.0827  0.7370
  736MOL0     C 1469   5.595  12.810   2.169 -0.3850  0.7914  0.0380
  736MOL0     C 1470   5.564  12.946   2.098 -0.3488 -0.0031  0.2357
  736MOL0     C 1471   5.649  13.057   2.161  0.9891  0.1850  0.6497
  736MOL0     C 1472   5.639  13.197   2.098  0.0083 -0.8328 -0.0858
  736MOL0     C 1473   5.716  13.207   1.974  0.3454 -0.1469  0.6472
  736MOL0     C 1474   5.730  13.350   1.911  0.8796  0.1479 -0.2881
  736MOL0    Cl 1475   5.816  13.461   2.033  0.2323  0.1839 -0.1188
  736MOL0     C 1476   5.408  12.472   1.761  0.0208  0.0304  0.8963
  736MOL0     C 1477   5.395  12.373   1.664 -0.5608 -0.9279 -0.2948
  736MOL0     O 1478   5.162  12.110   1.640 -0.0380 -0.0082  0.0718
  736MOL0     C 1479   5.355  11.973   1.388 -0.2191 -0.5651 -0.3458
  736MOL0     C 1480   5.356  11.863   1.293 -0.2494 -0.5905  0.6193
  736MOL0     N 1481   5.559  11.287   1.545  0.1974 -0.3819  0.5960
  736MOL0     N 1482   5.540  11.327   1.669  0.0906  0.7832  0.1149
  736MOL0     C 1483   4.328  11.307   1.459 -0.7594  0.4197 -0.6254
  736MOL0     C 1484   4.275  11.199   1.388 -0.2649 -0.9725 -0.6482
  736MOL0     C 1485   4.215  10.981   1.014  1.6570 -0.7793 -0.7639
  736MOL0     C 1486   4.236  10.844   1.044  0.3029 -0.1047 -0.3457
  736MOL0     C 1487   4.202  10.742   0.956 -0.3608  0.5738 -0.6515
  736MOL0     C 1488   4.148  10.775   0.826 -0.1921 -0.0461  0.2023
  736MOL0     O 1489   4.105  10.691   0.729 -0.6458  0.4530 -0.3005
  736MOL0     C 1490   4.183  10.575   0.710  1.2781  0.8705 -0.1615
  736MOL0     C 1491   4.102  10.459   0.775 -0.0707  0.2743  0.4830
  736MOL0     C 1492   4.185  10.322   0.760  0.0128  0.2595 -0.2590
  736MOL0     C 1493   4.303  10.306   0.864 -0.5166 -0.2315  0.5181
  736MOL0     C 1494   4.333  10.158   0.884 -0.3928 -0.3969 -0.0653
  736MOL0     C 1495   4.351  10.037   0.894 -0.4161  0.2254 -0.2980
  736MOL0     C 1496   4.100  10.901   0.809  0.4663 -0.0294 -0.2312
  736MOL0     C 1497   4.143  11.010   0.889  0.1213  0.0526 -0.4808
  736MOL0     C 1498   4.103  11.147   0.838  0.3880 -1.1754  0.0278
  736MOL0     H 1499   4.552  11.066   1.255 -0.7878  0.1080 -1.3376
  736MOL0     H 1500   4.655  11.247   1.374 -0.0888 -0.4178  2.3762
  736MOL0     H 1501   4.726  11.433   1.526 -0.6763 -1.2794 -2.2521
  736MOL0     H 1502   4.651  11.307   1.637  1.3487 -1.1387 -2.7071
  736MOL0     H 1503   4.662  11.613   1.662  3.6628  0.9270  0.2254
  736MOL0     H 1504   4.596  11.497   1.782 -2.7960  2.3624 -1.0251
  736MOL0     H 1505   4.858  11.605   1.731 -2.7324  0.7767  0.3798
  736MOL0     H 1506   4.796  11.530   1.875  0.2411 -4.8356  1.2146
  736MOL0     H 1507   4.865  11.287   1.809 -0.5567 -1.1601  0.8336
  736MOL0     H 1508   4.903  11.347   1.645  1.3808  1.9665  0.0448
  736MOL0     H 1509   5.037  11.456   1.897  0.1164 -1.4715  0.0139
  736MOL0     H 1510   5.075  11.487   1.730  0.2626  0.8017  1.9909
  736MOL0     H 1511   5.073  11.228   1.893 -0.2410  3.0005  1.7276
  736MOL0     H 1512   5.148  11.223   1.732 -2.4833  0.5244 -0.0370
  736MOL0     H 1513   5.324  11.227   1.887  2.7150  1.2078 -1.0158
  736MOL0     H 1514   5.246  11.357   1.977 -0.8604 -1.5275  1.5136
  736MOL0     H 1515   5.294  11.514   1.775 -1.5385 -1.0082  0.0667
  736MOL0     H 1516   5.436  11.459   1.861 -0.9307 -0.0828  0.4417
  736MOL0     H 1517   5.251  11.412   1.533 -0.9981 -2.4089 -0.4735
  736MOL0     H 1518   5.338  11.212   1.327 -1.6702  1.3041 -2.6950
  736MOL0     H 1519   5.482  11.268   1.259  1.8901  0.5052  2.1229
  736MOL0     H 1520   5.291  11.355   1.162  2.3420  1.6112 -1.2108
  736MOL0     H 1521   5.247  11.447   1.319  2.4378  3.6119  0.9747
  736MOL0     H 1522   5.447  11.563   1.307  1.0633 -0.4675 -0.3083
  736MOL0     H 1523   5.502  11.479   1.165 -0.3036 -0.9272 -0.1361
  736MOL0     H 1524   5.398  11.695   1.072 -3.1008  2.2222  0.0046
  736MOL0     H 1525   5.294  11.557   1.031 -3.6814  0.8831  0.6022
  736MOL0     H 1526   5.065  11.715   1.386  0.8661 -0.2177  3.4317
  736MOL0     H 1527   4.961  11.892   1.539 -1.6661 -3.0617 -1.9996
  736MOL0     H 1528   5.069  11.878   1.690 -1.0064 -0.3176  0.5191
  736MOL0     H 1529   5.019  11.746   1.610 -1.2190  1.3090  1.1259
  736MOL0     H 1530   5.396  12.103   1.879  0.6494  0.7381  0.0070
  736MOL0     H 1531   5.404  12.273   2.030  1.1173  3.1794 -0.0575
  736MOL0     H 1532   5.545  12.666   1.929 -1.6038  1.8359 -1.3806
  736MOL0     H 1533   5.383  12.727   1.964  1.0505  0.5573  0.7771
  736MOL0     H 1534   5.415  12.701   2.197 -0.9956 -1.4796 -0.1844
  736MOL0     H 1535   5.574  12.608   2.179  3.0102  1.4690 -1.1808
  736MOL0     H 1536   5.699  12.780   2.160 -0.1092  1.8136 -0.3634
  736MOL0     H 1537   5.593  12.831   2.277 -0.2442 -1.1142  0.4310
  736MOL0     H 1538   5.461  12.976   2.116 -0.0359  0.5589  1.1825
  736MOL0     H 1539   5.589  12.937   1.992  3.2110  1.7657  0.7658
  736MOL0     H 1540   5.623  13.065   2.266 -1.2571  1.5317  0.0503
  736MOL0     H 1541   5.757  13.040   2.155  0.6444 -1.8164 -1.4557
  736MOL0     H 1542   5.667  13.276   2.168  2.9989  1.1189 -3.1418
  736MOL0     H 1543   5.535  13.224   2.079  0.4989  0.6005 -0.8894
  736MOL0     H 1544   5.669  13.143   1.898  4.3259 -1.1517 -1.2431
  736MOL0     H 1545   5.815  13.165   1.995  0.5128 -0.4422 -0.6803
  736MOL0     H 1546   5.626  13.380   1.896  0.9577  0.5768  0.0163
  736MOL0     H 1547   5.780  13.368   1.815  0.7878 -0.5182 -0.4706
  736MOL0     H 1548   5.410  12.578   1.738 -2.6527  0.3404  1.7654
  736MOL0     H 1549   5.411  12.410   1.564  2.1794  0.5435  0.5861
  736MOL0     H 1550   5.441  12.038   1.398 -0.0676 -0.7072 -0.7087
  736MOL0     H 1551   5.429  11.853   1.213  1.5303 -1.3883  2.2637
  736MOL0     H 1552   4.257  11.375   1.507 -0.9949 -1.0107  1.1564
  736MOL0     H 1553   4.169  11.175   1.401  0.3865 -3.0828  1.5660
  736MOL0     H 1554   4.280  10.812   1.138 -4.5296 -1.7198  1.6328
  736MOL0     H 1555   4.205  10.637   0.985 -1.4638  1.2211  1.9845
  736MOL0     H 1556   4.184  10.554   0.602  0.0661 -1.6503  0.2530
  736MOL0     H 1557   4.280  10.587   0.760 -0.4853  2.7593  3.0851
  736MOL0     H 1558   4.009  10.448   0.718  0.1814  1.8318 -0.2759
  736MOL0     H 1559   4.083  10.483   0.880  3.5814 -0.8160  1.5332
  736MOL0     H 1560   4.108  10.245   0.761  0.4028 -0.1574 -1.0773
  736MOL0     H 1561   4.221  10.317   0.657  0.3913 -1.3417 -0.0705
  736MOL0     H 1562   4.282  10.351   0.961  1.7131  0.6137  0.6601
  736MOL0     H 1563   4.392  10.360   0.830 -0.1649 -0.9328  0.3046
  736MOL0     H 1564   4.367   9.932   0.903 -2.2394  0.1206  4.6663
  736MOL0     H 1565   4.046  10.920   0.717 -3.2320  2.8676  2.2431
  736MOL0     H 1566   4.059  11.138   0.738 -2.6194 -0.1597  1.1617
  736MOL0     H 1567   4.047  11.204   0.912  2.0673  1.0608 -0.3154
  736MOL0     H 1568   4.193  11.206   0.820  2.6889 -4.3075  0.4111
  737MOL0     O 1569  11.147   5.514   1.949 -0.1959  0.1555  0.5201
  737MOL0     C 1570  11.173   5.580   1.852  0.3894  1.2153  0.1792
  737MOL0     O 1571  11.087   5.620   1.750  0.6129  0.2981  0.2371
  737MOL0     C 1572  10.952   5.591   1.743 -1.0662  0.0927  1.1472
  737MOL0     C 1573  10.877   5.626   1.856 -0.0538 -0.0810  0.3024
  737MOL0     C 1574  10.744   5.585   1.863  0.4998  0.1763  0.1004
  737MOL0     C 1575  10.679   5.521   1.756  0.4185 -0.7257 -0.6544
  737MOL0     O 1576  10.538   5.512   1.762  0.6414 -0.5923 -0.1739
  737MOL0     C 1577  10.463   5.476   1.648 -1.1553  0.5402  0.1596
  737MOL0     C 1578  10.309   5.484   1.669 -0.5641  0.2368 -0.0342
  737MOL0     C 1579  10.265   5.633   1.685 -0.4020  0.2865  0.2430
  737MOL0     C 1580  10.103   5.621   1.685 -0.4315  0.0317 -0.2807
  737MOL0     C 1581  10.042   5.761   1.703 -0.3110 -0.1590 -0.9045
  737MOL0     C 1582   9.891   5.751   1.665  0.3597  0.9214  0.4519
  737MOL0     C 1583   9.840   5.892   1.666  0.2905 -1.0128 -0.6310
  737MOL0     C 1584   9.871   5.985   1.550 -1.0872 -0.0763  0.8919
  737MOL0     N 1585   9.827   6.123   1.586 -0.3336 -0.3939 -0.7890
  737MOL0     C 1586   9.736   6.198   1.513  0.4142 -0.1056 -0.0837
  737MOL0     C 1587   9.728   6.322   1.560 -0.0955 -0.2956  0.1008
  737MOL0     C 1588   9.629   6.427   1.506  0.2072 -0.0456 -0.1339
  737MOL0     C 1589   9.533   6.445   1.617 -0.2816  0.1005 -0.0081
  737MOL0     C 1590   9.544   6.588   1.672 -0.2940 -0.4060  0.3685
  737MOL0     C 1591   9.445   6.633   1.781  0.5586  0.2534  0.7172
  737MOL0     O 1592   9.318   6.676   1.720 -0.5988 -0.0811  0.3581
  737MOL0     C 1593   9.210   6.696   1.805  0.6212  0.4729 -0.2799
  737MOL0     C 1594   9.194   6.668   1.944 -0.2595  0.1173  0.4514
  737MOL0     C 1595   9.075   6.689   2.017  1.1597 -0.0566 -0.2202
  737MOL0     C 1596   9.083   6.637   2.167  0.2418  0.0321  0.3773
  737MOL0     C 1597   8.963   6.743   1.949 -0.5683 -0.1704  0.6653
  737MOL0     C 1598   8.819   6.761   2.005 -1.0332 -0.4699  0.5136
  737MOL0     O 1599   8.786   6.681   2.115  0.2974  0.3026 -0.4908
  737MOL0     C 1600   8.671   6.716   2.176 -0.5583  0.6209  0.4628
  737MOL0     C 1601   8.661   6.845   2.220  0.5678 -0.0102 -0.2025
  737MOL0     C 1602   8.560   6.886   2.297  0.5812 -0.2812 -1.3110
  737MOL0     C 1603   8.455   6.793   2.338 -0.0495 -0.3677  0.6462
  737MOL0     O 1604   8.386   6.838   2.445 -0.4142 -0.2102 -0.4124
  737MOL0     C 1605   8.267   6.764   2.492  0.9611 -0.8088 -0.2482
  737MOL0     C 1606   8.154   6.870   2.511  0.2783  0.8167  0.2299
  737MOL0     C 1607   8.218   6.989   2.575 -0.3932  0.9848  1.1580
  737MOL0     C 1608   8.116   7.089   2.624  1.0402  1.0046  0.2246
  737MOL0     C 1609   8.163   7.184   2.730  0.3319  0.7529  0.1524
  737MOL0     C 1610   8.144   7.122   2.874 -0.0412 -0.1425  0.2296
  737MOL0     C 1611   8.214   7.219   2.968 -0.0552  0.6265  0.1678
  737MOL0     C 1612   8.204   7.181   3.119  0.5408  0.5074 -0.1617
  737MOL0    Cl 1613   8.230   6.999   3.140  0.2432 -0.4461  0.0821
  737MOL0     C 1614   8.463   6.659   2.292 -0.7177  0.4286  0.4050
  737MOL0     C 1615   8.570   6.622   2.206 -0.6983 -0.6235 -0.2417
  737MOL0     O 1616   8.743   6.826   1.940 -0.5033 -0.1235  0.2999
  737MOL0     C 1617   8.981   6.783   1.815  0.2379 -0.0164  0.9299
  737MOL0     C 1618   9.102   6.755   1.744 -0.0860  0.3807 -0.9321
  737MOL0     N 1619   9.823   6.326   1.660  0.1744  0.7059 -0.7129
  737MOL0     N 1620   9.865   6.200   1.688 -0.1437 -0.9854  0.3138
  737MOL0     C 1621  10.768   5.484   1.646  1.1507  0.1135 -0.1626
  737MOL0     C 1622  10.898   5.529   1.633 -1.0336  0.2829 -0.0891
  737MOL0     C 1623  11.319   5.600   1.829  0.3271  0.6475  0.0996
  737MOL0     C 1624  11.365   5.595   1.698  0.5403  0.7829 -0.3509
  737MOL0     C 1625  11.504   5.606   1.673  0.0428  0.6301  1.0320
  737MOL0     C 1626  11.600   5.624   1.780  0.0784 -0.5425  1.0661
  737MOL0     O 1627  11.739   5.625   1.763  0.3807  0.3308  0.1407
  737MOL0     C 1628  11.798   5.594   1.637  1.0755  0.6205 -0.2619
  737MOL0     C 1629  11.944   5.568   1.651 -0.4671  0.4689  1.6000
  737MOL0     C 1630  12.024   5.698   1.670  1.4450 -0.2250  0.3605
  737MOL0     C 1631  12.173   5.673   1.638  0.3102  0.9921  0.5707
  737MOL0     C 1632  12.230   5.812   1.647 -0.4142  0.1513  0.4712
  737MOL0     C 1633  12.283   5.922   1.654 -0.0334 -0.2618  0.4222
  737MOL0     C 1634  11.546   5.635   1.910 -0.2494  0.3436 -0.4013
  737MOL0     C 1635  11.407   5.616   1.934 -0.3510  0.9993 -0.1330
  737MOL0     C 1636  11.357   5.626   2.086 -0.1778 -0.5904 -0.3113
  737MOL0     H 1637  10.915   5.689   1.936 -1.5694  0.2949  0.7603
  737MOL0     H 1638  10.688   5.629   1.945  0.3932 -0.2779  0.2746
  737MOL0     H 1639  10.485   5.372   1.621 -0.3990  1.4244 -2.9878
  737MOL0     H 1640  10.488   5.538   1.562 -0.2265 -1.3445 -0.9812
  737MOL0     H 1641  10.252   5.436   1.589 -3.1910 -0.8635  2.3246
  737MOL0     H 1642  10.293   5.414   1.752  1.2135 -2.8870 -2.1250
  737MOL0     H 1643  10.298   5.684   1.776 -0.4474  2.8195 -1.0851
  737MOL0     H 1644  10.302   5.685   1.597  1.0648 -1.4509 -0.2230
  737MOL0     H 1645  10.063   5.566   1.599 -1.2281 -1.6704  1.1353
  737MOL0     H 1646  10.062   5.572   1.773 -3.3031  2.3621 -0.1950
  737MOL0     H 1647  10.090   5.829   1.632 -1.0289 -0.8001 -2.0362
  737MOL0     H 1648  10.038   5.806   1.803 -2.6687 -3.4997  0.6867
  737MOL0     H 1649   9.876   5.711   1.564  0.1571 -0.1359  0.8837
  737MOL0     H 1650   9.843   5.684   1.737 -0.9909 -0.3696 -1.5444
  737MOL0     H 1651   9.861   5.937   1.764 -0.2687 -1.6510 -0.2026
  737MOL0     H 1652   9.731   5.880   1.662  0.0127  1.3801 -2.9355
  737MOL0     H 1653   9.979   5.987   1.535 -1.4691  0.4858 -2.7593
  737MOL0     H 1654   9.823   5.942   1.462  1.4690 -0.7436 -0.2709
  737MOL0     H 1655   9.673   6.149   1.439 -0.5994  0.3710  0.4458
  737MOL0     H 1656   9.580   6.401   1.412  0.8548  0.2041 -0.5490
  737MOL0     H 1657   9.673   6.524   1.483 -2.7346  0.9852 -1.9679
  737MOL0     H 1658   9.432   6.422   1.580 -0.5470  1.1412  0.0267
  737MOL0     H 1659   9.558   6.387   1.705  1.7757 -0.1000 -0.6699
  737MOL0     H 1660   9.637   6.591   1.731 -1.8013 -0.6468  2.9182
  737MOL0     H 1661   9.544   6.656   1.586  0.3642 -2.3107 -1.1993
  737MOL0     H 1662   9.425   6.548   1.847 -1.7297  1.0481  1.1384
  737MOL0     H 1663   9.487   6.712   1.844  0.0722 -0.7653  2.3811
  737MOL0     H 1664   9.275   6.612   1.990  0.7075 -0.6999 -2.0537
  737MOL0     H 1665   9.188   6.619   2.191  0.3315  2.1503  1.8033
  737MOL0     H 1666   9.021   6.548   2.185 -1.6653  1.5140  1.5237
  737MOL0     H 1667   9.055   6.723   2.228 -1.1699 -1.6576  2.2509
  737MOL0     H 1668   8.735   6.922   2.199  1.7044 -0.3564  2.2032
  737MOL0     H 1669   8.552   6.986   2.338 -1.2443 -0.7886 -0.2941
  737MOL0     H 1670   8.231   6.700   2.411  2.7703  0.5031 -2.2322
  737MOL0     H 1671   8.271   6.700   2.580  0.7120  1.5062  1.5636
  737MOL0     H 1672   8.123   6.916   2.417 -1.6820  0.3714  0.6242
  737MOL0     H 1673   8.071   6.831   2.571 -0.3955  1.2290 -0.4244
  737MOL0     H 1674   8.279   7.047   2.505 -1.2554  0.4567 -0.0810
  737MOL0     H 1675   8.278   6.947   2.656  0.5090  1.4209  0.7282
  737MOL0     H 1676   8.034   7.033   2.670  1.6910  0.1519  0.3647
  737MOL0     H 1677   8.074   7.126   2.530  0.6379 -1.8224 -0.8072
  737MOL0     H 1678   8.267   7.209   2.707  0.6175  0.9857  1.6285
  737MOL0     H 1679   8.096   7.267   2.707 -0.1817  0.4366  0.4813
  737MOL0     H 1680   8.190   7.023   2.873  1.8705  0.6901  1.0117
  737MOL0     H 1681   8.037   7.115   2.894 -0.8452  0.3681 -3.2044
  737MOL0     H 1682   8.183   7.323   2.958 -0.5481  0.4718  0.0858
  737MOL0     H 1683   8.318   7.221   2.932 -0.1957 -2.1000 -0.6500
  737MOL0     H 1684   8.101   7.202   3.149  0.4555  0.4445 -0.4086
  737MOL0     H 1685   8.274   7.236   3.183  2.4286 -0.8870 -0.9370
  737MOL0     H 1686   8.391   6.589   2.334 -0.4967 -1.0244 -1.4987
  737MOL0     H 1687   8.584   6.516   2.184  1.8534 -0.8468  2.0065
  737MOL0     H 1688   8.911   6.837   1.752 -0.2156  0.4868  1.8642
  737MOL0     H 1689   9.101   6.774   1.637 -3.2755  0.8186 -0.9348
  737MOL0     H 1690  10.718   5.424   1.570 -1.6977 -1.7503  2.9028
  737MOL0     H 1691  10.945   5.495   1.541 -2.7546 -0.1110 -0.8769
  737MOL0     H 1692  11.296   5.568   1.618 -1.5397  0.9253  1.3089
  737MOL0     H 1693  11.531   5.598   1.568 -2.1981 -1.4257  0.5153
  737MOL0     H 1694  11.741   5.518   1.581 -1.0332 -0.1859  2.7419
  737MOL0     H 1695  11.789   5.683   1.573 -0.8641 -1.0655 -2.5429
  737MOL0     H 1696  11.978   5.511   1.564 -1.2897 -0.9504  2.1848
  737MOL0     H 1697  11.963   5.500   1.735 -0.7967 -1.4663  0.1710
  737MOL0     H 1698  11.981   5.767   1.597 -0.5694  0.6694  2.2990
  737MOL0     H 1699  12.004   5.733   1.771  0.3175  2.2064 -0.6192
  737MOL0     H 1700  12.194   5.627   1.540  2.9842  2.0841  0.5317
  737MOL0     H 1701  12.220   5.603   1.708 -2.0473 -2.8131 -1.2719
  737MOL0     H 1702  12.346   6.007   1.671 -3.8593  2.4867  2.2074
  737MOL0     H 1703  11.610   5.643   1.998 -1.7321 -2.1758  1.0289
  737MOL0     H 1704  11.436   5.654   2.155 -0.0229  0.6922 -0.9752
  737MOL0     H 1705  11.285   5.708   2.093  0.0914 -0.4867  2.1992
  737MOL0     H 1706  11.321   5.529   2.122 -1.1137  0.5651  2.1003
  738MOL0     O 1707   0.814   8.592   9.247  0.4570 -0.0985  0.4423
  738MOL0     C 1708   0.823   8.550   9.362  0.5919  0.6500 -0.6606
  738MOL0     O 1709   0.940   8.501   9.416  0.4575  0.4275  0.0635
  738MOL0     C 1710   1.057   8.493   9.351 -0.4605  0.0118 -1.0433
  738MOL0     C 1711   1.150   8.396   9.407  0.2776  0.0066 -0.7972
  738MOL0     C 1712   1.270   8.374   9.340  0.0284 -0.0949  0.0798
  738MOL0     C 1713   1.321   8.461   9.246 -0.5452 -0.9921  0.1459
  738MOL0     O 1714   1.449   8.468   9.200 -0.3540 -0.1150 -0.6740
  738MOL0     C 1715   1.494   8.338   9.157 -1.5981 -0.2923  0.2081
  738MOL0     C 1716   1.625   8.366   9.080  0.5146 -0.5003 -1.6162
  738MOL0     C 1717   1.665   8.257   8.985  0.2435  0.3652 -0.0962
  738MOL0     C 1718   1.775   8.310   8.902  0.3427  0.0767  0.0841
  738MOL0     C 1719   1.818   8.193   8.810  0.3391  0.4587 -0.1295
  738MOL0     C 1720   1.949   8.238   8.740 -0.0092 -0.2187 -0.1756
  738MOL0     C 1721   2.006   8.144   8.627 -0.1334 -0.7338 -1.5443
  738MOL0     C 1722   2.144   8.188   8.592 -0.4886 -0.1250 -0.4852
  738MOL0     N 1723   2.218   8.100   8.496  0.7238 -0.1900 -0.4222
  738MOL0     C 1724   2.212   7.966   8.472  0.7069  0.6329  0.7036
  738MOL0     C 1725   2.287   7.948   8.361 -0.3697  0.7387 -0.6037
  738MOL0     C 1726   2.308   7.801   8.311 -0.3242  0.3570  0.1046
  738MOL0     C 1727   2.456   7.768   8.323 -0.0776  0.2509 -0.4966
  738MOL0     C 1728   2.493   7.766   8.476 -1.2009  0.2453  0.0473
  738MOL0     C 1729   2.625   7.702   8.509 -0.9790 -0.4220  0.2217
  738MOL0     O 1730   2.656   7.705   8.651 -0.7914  0.6410  0.8036
  738MOL0     C 1731   2.589   7.607   8.719 -0.8269 -0.1604 -0.2478
  738MOL0     C 1732   2.511   7.647   8.829  0.3959 -1.3411 -0.2705
  738MOL0     C 1733   2.430   7.551   8.898 -0.1009  0.1098 -0.2721
  738MOL0     C 1734   2.347   7.602   9.014  0.3324 -0.0890  0.5354
  738MOL0     C 1735   2.443   7.409   8.869  0.0615 -0.4140  0.3051
  738MOL0     C 1736   2.374   7.299   8.943 -0.2812 -1.0880 -0.0283
  738MOL0     O 1737   2.397   7.302   9.081  0.4590  0.4116  0.2935
  738MOL0     C 1738   2.342   7.192   9.145  1.0336 -0.1783 -0.7377
  738MOL0     C 1739   2.236   7.218   9.240  0.0709 -0.4046 -0.6959
  738MOL0     C 1740   2.185   7.120   9.325  1.0179 -0.0260 -0.1479
  738MOL0     C 1741   2.227   6.988   9.308  0.1297  0.3312 -0.0341
  738MOL0     O 1742   2.135   6.893   9.354  0.1541 -0.5385 -0.4566
  738MOL0     C 1743   2.187   6.770   9.394  0.0434  0.3079 -0.2039
  738MOL0     C 1744   2.083   6.693   9.467  0.0215  0.7164  0.2153
  738MOL0     C 1745   2.129   6.552   9.519  0.0609  0.1729 -1.1308
  738MOL0     C 1746   2.164   6.449   9.410  0.3302  0.0369  0.4547
  738MOL0     C 1747   2.217   6.321   9.480  0.2340  0.4222  0.2099
  738MOL0     C 1748   2.105   6.228   9.549 -0.3106 -0.0193  0.7665
  738MOL0     C 1749   2.172   6.122   9.642 -0.3409 -0.4879  0.4332
  738MOL0     C 1750   2.238   6.005   9.567  0.2427  1.3455 -0.1441
  738MOL0    Cl 1751   2.156   5.939   9.418 -0.1211  0.6163  0.2607
  738MOL0     C 1752   2.337   6.961   9.225 -0.2390  0.6450  0.3354
  738MOL0     C 1753   2.392   7.057   9.145  0.8143 -0.6435  0.0961
  738MOL0     O 1754   2.314   7.210   8.876  0.2893 -0.3084  0.3613
  738MOL0     C 1755   2.534   7.378   8.764  0.9953 -0.4309 -0.0742
  738MOL0     C 1756   2.597   7.476   8.683 -0.2319  0.4019 -0.4035
  738MOL0     N 1757   2.346   8.064   8.324  0.1900 -0.2093 -0.6656
  738MOL0     N 1758   2.308   8.151   8.410 -0.2723  0.1861 -0.0013
  738MOL0     C 1759   1.234   8.566   9.201 -0.1083  0.4453 -0.3704
  738MOL0     C 1760   1.103   8.578   9.249 -0.0101 -0.3292 -0.8436
  738MOL0     C 1761   0.712   8.582   9.452  0.9900  0.1411  0.6566
  738MOL0     C 1762   0.744   8.634   9.582 -0.5553  0.0586 -0.2536
  738MOL0     C 1763   0.649   8.684   9.664  0.3923  1.7920  0.0782
  738MOL0     C 1764   0.512   8.687   9.628  0.3756  0.0797 -0.1131
  738MOL0     O 1765   0.412   8.724   9.720 -0.3955  0.1833 -0.2774
  738MOL0     C 1766   0.327   8.611   9.751  0.2327 -0.4755  0.2849
  738MOL0     C 1767   0.312   8.624   9.905  0.3442  0.7968 -0.1781
  738MOL0     C 1768   0.454   8.592   9.966  0.9352 -0.2011 -1.5145
  738MOL0     C 1769   0.510   8.448   9.949  0.2677  0.2577  0.0095
  738MOL0     C 1770   0.407   8.349   9.982  0.2128 -0.3855  0.2329
  738MOL0     C 1771   0.320   8.266  10.000  1.1832  0.1276 -0.5717
  738MOL0     C 1772   0.488   8.653   9.490  0.0721  0.2889 -1.0817
  738MOL0     C 1773   0.584   8.607   9.402 -0.6893  1.1358  0.2260
  738MOL0     C 1774   0.540   8.586   9.258  0.8167 -0.5296  0.4555
  738MOL0     H 1775   1.112   8.324   9.478 -0.6113  1.6529  0.4620
  738MOL0     H 1776   1.325   8.291   9.383  3.7592  1.2915 -1.6063
  738MOL0     H 1777   1.418   8.289   9.095 -1.2927  0.8527 -1.1169
  738MOL0     H 1778   1.522   8.280   9.246  3.0748  2.5960  0.9885
  738MOL0     H 1779   1.616   8.462   9.028 -2.5543  0.6661  0.7654
  738MOL0     H 1780   1.702   8.384   9.155 -1.9387 -0.0853  0.9857
  738MOL0     H 1781   1.703   8.170   9.038 -1.5656 -3.9266 -4.9271
  738MOL0     H 1782   1.580   8.229   8.921 -1.5359 -2.7651  3.2680
  738MOL0     H 1783   1.741   8.401   8.853  0.9805  0.1553 -0.2319
  738MOL0     H 1784   1.858   8.336   8.969  1.9469 -0.1385 -1.7259
  738MOL0     H 1785   1.730   8.165   8.751  0.2852  0.1637  0.0909
  738MOL0     H 1786   1.844   8.107   8.871 -0.1691 -0.5960 -1.3616
  738MOL0     H 1787   1.947   8.336   8.692  3.0982 -1.8442 -4.1851
  738MOL0     H 1788   2.031   8.238   8.813 -0.3539  0.7435  0.2263
  738MOL0     H 1789   1.931   8.146   8.547  0.4092  0.8256 -2.0535
  738MOL0     H 1790   1.999   8.042   8.665 -1.4955 -0.5414 -1.2160
  738MOL0     H 1791   2.144   8.290   8.552 -0.8827  0.2858  0.5485
  738MOL0     H 1792   2.199   8.184   8.686 -1.6718  0.5740  0.2607
  738MOL0     H 1793   2.149   7.894   8.524 -0.4048  0.9378 -0.1748
  738MOL0     H 1794   2.287   7.797   8.204  1.9081  0.4227 -0.3847
  738MOL0     H 1795   2.245   7.727   8.363 -0.8935 -0.7946 -2.0975
  738MOL0     H 1796   2.475   7.681   8.261 -1.3746  1.3902 -2.6048
  738MOL0     H 1797   2.522   7.844   8.279 -0.1872 -0.8219 -2.6152
  738MOL0     H 1798   2.497   7.871   8.507  0.0247  0.4614 -0.7859
  738MOL0     H 1799   2.423   7.712   8.541  1.0315 -0.7502  1.7842
  738MOL0     H 1800   2.639   7.602   8.467  3.7047 -0.3879  1.1280
  738MOL0     H 1801   2.701   7.765   8.462 -2.9329 -0.1045 -2.7869
  738MOL0     H 1802   2.491   7.753   8.842 -1.8947 -2.0005  2.8104
  738MOL0     H 1803   2.250   7.553   8.998 -0.9796  2.1951  1.0547
  738MOL0     H 1804   2.333   7.710   9.020 -1.7613 -0.3600  1.5003
  738MOL0     H 1805   2.395   7.571   9.107 -1.3228 -0.6058  1.2561
  738MOL0     H 1806   2.189   7.315   9.238  2.3903  0.8565  0.9755
  738MOL0     H 1807   2.097   7.148   9.382  1.3808  2.2706 -0.6047
  738MOL0     H 1808   2.219   6.721   9.302  1.6361  0.4105  0.2677
  738MOL0     H 1809   2.269   6.784   9.466  0.7178 -2.2591 -0.3700
  738MOL0     H 1810   2.042   6.742   9.556 -0.8332 -0.4171  0.4725
  738MOL0     H 1811   1.999   6.681   9.397  2.6930  0.9850 -3.2938
  738MOL0     H 1812   2.039   6.510   9.565  1.2837 -1.0776  0.2383
  738MOL0     H 1813   2.201   6.572   9.599 -1.0075 -0.7744  0.1173
  738MOL0     H 1814   2.250   6.479   9.350  0.1051  1.6335  0.8987
  738MOL0     H 1815   2.080   6.417   9.346  0.8256 -1.3673  0.4800
  738MOL0     H 1816   2.272   6.255   9.413 -1.9253 -0.4544 -0.7791
  738MOL0     H 1817   2.299   6.347   9.549 -0.3768 -1.0752  1.5673
  738MOL0     H 1818   2.056   6.173   9.468 -3.3234  1.6665  1.3267
  738MOL0     H 1819   2.034   6.293   9.599 -2.3387 -1.2076 -0.4157
  738MOL0     H 1820   2.101   6.087   9.718  1.5546 -2.8855  1.2156
  738MOL0     H 1821   2.250   6.174   9.700  2.7341 -0.9745 -2.9082
  738MOL0     H 1822   2.262   5.933   9.646  0.0428  1.5075  0.0648
  738MOL0     H 1823   2.336   6.045   9.536  0.7534  1.2822  1.3249
  738MOL0     H 1824   2.361   6.855   9.222  1.9135  1.1085 -0.5811
  738MOL0     H 1825   2.475   7.016   9.089 -0.5699  0.1553 -2.7707
  738MOL0     H 1826   2.547   7.272   8.745  3.7150 -0.3175  0.7334
  738MOL0     H 1827   2.664   7.452   8.601  0.8830  1.6433  0.1239
  738MOL0     H 1828   1.286   8.627   9.128  1.4443 -1.1256 -0.6546
  738MOL0     H 1829   1.046   8.665   9.216 -1.3734 -0.9821 -0.2907
  738MOL0     H 1830   0.845   8.632   9.621 -1.0426 -1.3921  1.0029
  738MOL0     H 1831   0.671   8.740   9.755  0.8077  1.8001 -0.0252
  738MOL0     H 1832   0.241   8.639   9.690  1.2165  3.0862  0.2775
  738MOL0     H 1833   0.365   8.515   9.715 -1.0504  0.0060 -2.6697
  738MOL0     H 1834   0.241   8.552   9.946 -0.3100  1.8900  0.6493
  738MOL0     H 1835   0.280   8.725   9.928  0.2403  0.9628 -1.0228
  738MOL0     H 1836   0.520   8.670   9.925 -1.2501  2.3206 -0.5433
  738MOL0     H 1837   0.449   8.613  10.073  1.4479  3.6131 -2.0767
  738MOL0     H 1838   0.591   8.421  10.016 -0.3284 -0.6755  0.3725
  738MOL0     H 1839   0.521   8.440   9.840 -3.6008  0.0075 -0.5201
  738MOL0     H 1840   0.236   8.204  10.026  2.3200 -1.4966 -0.6072
  738MOL0     H 1841   0.384   8.658   9.459  0.3947  1.6368 -2.0453
  738MOL0     H 1842   0.599   8.510   9.206  3.0904  2.1155 -1.0979
  738MOL0     H 1843   0.436   8.551   9.258  1.8824 -4.0738  1.0877
  738MOL0     H 1844   0.571   8.683   9.220  1.0682  0.1660  2.3410
  739MOL0     O 1845   2.664   6.263   3.052  0.0629  0.6346  0.2325
  739MOL0     C 1846   2.692   6.166   2.978 -1.4585  0.0196 -0.2678
  739MOL0     O 1847   2.809   6.149   2.901  0.3980  0.5476 -0.2983
  739MOL0     C 1848   2.874   6.264   2.867  0.5225  0.0261  0.3252
  739MOL0     C 1849   2.952   6.310   2.966  0.0962 -0.3341  0.0384
  739MOL0     C 1850   3.023   6.426   2.940 -0.2354 -0.3754 -0.5042
  739MOL0     C 1851   3.020   6.493   2.820 -0.1037 -0.4450 -0.1227
  739MOL0     O 1852   3.094   6.605   2.810 -0.6725 -0.9201  0.1582
  739MOL0     C 1853   3.024   6.730   2.850 -0.8231 -0.2126 -0.4801
  739MOL0     C 1854   3.111   6.814   2.950  0.0841  0.5544 -0.7410
  739MOL0     C 1855   3.071   6.787   3.096 -0.9065 -1.0684 -0.2999
  739MOL0     C 1856   3.165   6.867   3.190 -0.3746 -0.2200  0.4923
  739MOL0     C 1857   3.098   6.925   3.316 -0.8965  0.6682  0.6054
  739MOL0     C 1858   3.017   7.043   3.283 -0.4370 -0.3735 -0.7390
  739MOL0     C 1859   2.933   7.089   3.406  0.6061 -0.2113 -1.2441
  739MOL0     C 1860   2.993   7.221   3.461 -0.5342 -0.2602 -0.6547
  739MOL0     N 1861   2.916   7.296   3.564 -0.0822 -0.4640 -0.2928
  739MOL0     C 1862   2.906   7.267   3.696  0.5962  0.2921 -0.0034
  739MOL0     C 1863   2.789   7.330   3.732 -0.6519  0.6575 -0.9689
  739MOL0     C 1864   2.726   7.306   3.863  0.2391 -0.3071 -0.1015
  739MOL0     C 1865   2.597   7.379   3.905 -0.0095  0.1936  0.1248
  739MOL0     C 1866   2.586   7.385   4.062  0.3741 -0.1941  0.8615
  739MOL0     C 1867   2.693   7.479   4.132  0.0224 -0.7771  0.6565
  739MOL0     O 1868   2.644   7.500   4.264 -1.1574 -0.1749 -1.0443
  739MOL0     C 1869   2.734   7.447   4.360 -0.6804  0.4170  1.0629
  739MOL0     C 1870   2.702   7.330   4.423  0.2724  0.5861  0.9508
  739MOL0     C 1871   2.787   7.275   4.510  0.9804 -0.8353  0.7585
  739MOL0     C 1872   2.748   7.139   4.571 -0.5494  1.0226 -0.0451
  739MOL0     C 1873   2.913   7.348   4.540  0.7293  0.2575 -0.3119
  739MOL0     C 1874   3.019   7.287   4.633  0.7538  0.6866 -0.5690
  739MOL0     O 1875   3.141   7.331   4.625 -0.3978  0.9214  0.0693
  739MOL0     C 1876   3.221   7.323   4.739  0.2459 -0.1411 -0.0633
  739MOL0     C 1877   3.274   7.198   4.790 -0.8707  0.2160  0.7806
  739MOL0     C 1878   3.362   7.202   4.898 -0.4798  0.0199  0.3330
  739MOL0     C 1879   3.402   7.323   4.957  0.4741  0.5728 -0.3633
  739MOL0     O 1880   3.491   7.341   5.065 -0.0309 -0.5334  0.0419
  739MOL0     C 1881   3.476   7.250   5.171 -0.1823 -0.3930 -0.5674
  739MOL0     C 1882   3.572   7.309   5.277  0.2742 -0.2259 -0.3680
  739MOL0     C 1883   3.562   7.240   5.415  0.1758 -0.6394 -0.9107
  739MOL0     C 1884   3.627   7.330   5.516  0.1417  0.2108 -0.5492
  739MOL0     C 1885   3.658   7.260   5.644  0.3056  0.9225 -0.0511
  739MOL0     C 1886   3.688   7.340   5.765  0.2246 -0.1015 -0.6996
  739MOL0     C 1887   3.780   7.461   5.732 -0.7469 -0.3429  1.1182
  739MOL0     C 1888   3.820   7.518   5.863  0.3882  0.9178  0.4178
  739MOL0    Cl 1889   3.671   7.602   5.920 -0.0105 -0.1380 -0.2543
  739MOL0     C 1890   3.336   7.439   4.906 -0.1813 -0.0120  0.1949
  739MOL0     C 1891   3.244   7.445   4.801 -0.2218  0.2548  0.1631
  739MOL0     O 1892   2.984   7.204   4.715  0.2229  0.5512  0.3657
  739MOL0     C 1893   2.941   7.470   4.484  0.0725 -0.7267  0.7744
  739MOL0     C 1894   2.860   7.513   4.384  0.0444 -0.1012 -0.0492
  739MOL0     N 1895   2.754   7.409   3.631  0.0080  0.6653  0.2275
  739MOL0     N 1896   2.840   7.401   3.529 -0.3097  0.4577  0.5468
  739MOL0     C 1897   2.922   6.453   2.728 -1.0331  0.3306 -0.0322
  739MOL0     C 1898   2.850   6.337   2.750 -0.0471  0.1578 -0.8206
  739MOL0     C 1899   2.604   6.051   2.986 -0.1461  0.0862  0.2163
  739MOL0     C 1900   2.612   5.955   2.882  0.3431  0.2930  0.2493
  739MOL0     C 1901   2.506   5.870   2.871  0.4143 -0.2882 -0.5350
  739MOL0     C 1902   2.404   5.861   2.969  0.7348 -0.0706  0.7155
  739MOL0     O 1903   2.307   5.765   2.943  0.5526  0.5339 -0.4213
  739MOL0     C 1904   2.194   5.753   3.031 -0.2127  0.7890  0.5429
  739MOL0     C 1905   2.118   5.628   2.992  0.4596 -0.1614  0.8211
  739MOL0     C 1906   2.070   5.635   2.844 -0.8695  0.3573  0.1156
  739MOL0     C 1907   2.135   5.544   2.734  0.4118  0.6517  0.0117
  739MOL0     C 1908   2.085   5.398   2.742  0.2108 -0.6208  0.4579
  739MOL0     C 1909   2.039   5.285   2.753 -0.0508  0.3916  0.2214
  739MOL0     C 1910   2.409   5.941   3.080  0.0299  0.8427 -0.2387
  739MOL0     C 1911   2.507   6.044   3.088  0.8505 -0.1366 -0.9724
  739MOL0     C 1912   2.489   6.125   3.218  0.2444 -0.2869  0.0754
  739MOL0     H 1913   2.967   6.264   3.063 -1.4771 -0.6856  0.1502
  739MOL0     H 1914   3.093   6.466   3.013 -1.8735 -1.5690  1.8576
  739MOL0     H 1915   2.930   6.706   2.900 -1.5444  1.9874 -0.6845
  739MOL0     H 1916   3.013   6.779   2.753  0.7530  1.6932  0.2294
  739MOL0     H 1917   3.218   6.815   2.931  0.8885 -0.0110  3.0357
  739MOL0     H 1918   3.085   6.918   2.926 -2.4570  0.2647  0.4389
  739MOL0     H 1919   2.962   6.798   3.100 -0.8160  0.0397 -0.4168
  739MOL0     H 1920   3.084   6.681   3.119 -0.2143 -0.8628  0.3103
  739MOL0     H 1921   3.222   6.786   3.237 -2.0812 -1.1903  0.9740
  739MOL0     H 1922   3.220   6.953   3.152  0.2779  0.5093  2.9268
  739MOL0     H 1923   3.167   6.949   3.397 -1.2489 -1.2933  1.5398
  739MOL0     H 1924   3.042   6.841   3.355  2.4475 -1.7804  0.5892
  739MOL0     H 1925   3.078   7.126   3.248 -0.0402 -0.6689 -0.7504
  739MOL0     H 1926   2.954   7.015   3.198  0.9655 -2.0362 -1.2941
  739MOL0     H 1927   2.934   7.013   3.484  0.3298 -0.2023 -1.2299
  739MOL0     H 1928   2.841   7.101   3.347 -0.0776 -1.6860 -0.5130
  739MOL0     H 1929   3.091   7.187   3.496 -1.3724 -1.7431  0.3080
  739MOL0     H 1930   2.998   7.271   3.363 -0.0612 -1.1981 -1.1186
  739MOL0     H 1931   2.959   7.189   3.751 -1.5905 -0.8257  0.6653
  739MOL0     H 1932   2.796   7.331   3.944  0.0541  3.7842 -1.0195
  739MOL0     H 1933   2.704   7.198   3.860 -1.3669 -0.0052 -3.3958
  739MOL0     H 1934   2.593   7.481   3.868  0.7713  0.2665  0.2269
  739MOL0     H 1935   2.521   7.322   3.850  1.1018 -1.3391  0.0855
  739MOL0     H 1936   2.487   7.407   4.104  1.4008  1.3862  2.6062
  739MOL0     H 1937   2.603   7.282   4.096 -1.1158 -1.0437 -0.7705
  739MOL0     H 1938   2.796   7.443   4.123  0.5803  0.2008  2.5486
  739MOL0     H 1939   2.708   7.571   4.073 -1.8088 -0.3460  0.8029
  739MOL0     H 1940   2.612   7.279   4.390  0.9144  1.6759 -2.9357
  739MOL0     H 1941   2.746   7.142   4.680  0.2114 -0.0050  0.0064
  739MOL0     H 1942   2.831   7.074   4.542  0.3648  1.8162  0.7261
  739MOL0     H 1943   2.649   7.108   4.535 -0.5890  1.8644 -0.6922
  739MOL0     H 1944   3.258   7.101   4.745  0.0427 -1.3144  3.5262
  739MOL0     H 1945   3.397   7.110   4.944 -0.8265 -0.4261 -0.2676
  739MOL0     H 1946   3.371   7.254   5.201 -0.2805 -0.7778 -0.8462
  739MOL0     H 1947   3.499   7.149   5.137 -0.5689 -0.2198 -1.3547
  739MOL0     H 1948   3.673   7.310   5.235  0.5674  1.3228  0.3208
  739MOL0     H 1949   3.555   7.416   5.291  1.9127  0.2401 -1.6802
  739MOL0     H 1950   3.606   7.140   5.412  0.7024 -0.5545  1.7157
  739MOL0     H 1951   3.456   7.229   5.441  0.5818  0.1486  1.2780
  739MOL0     H 1952   3.568   7.418   5.544 -0.0669  0.0608 -0.5212
  739MOL0     H 1953   3.720   7.373   5.476 -0.8240  3.3431  0.2737
  739MOL0     H 1954   3.564   7.212   5.673 -0.3985  3.0152  1.3876
  739MOL0     H 1955   3.745   7.200   5.616 -0.4762  0.8521 -2.5824
  739MOL0     H 1956   3.739   7.283   5.843 -1.2283 -2.1115 -1.1552
  739MOL0     H 1957   3.593   7.379   5.804 -0.2961 -0.5808 -1.4831
  739MOL0     H 1958   3.725   7.537   5.676 -0.1644 -1.2427 -0.7514
  739MOL0     H 1959   3.867   7.424   5.676 -2.3825 -3.3439  0.3335
  739MOL0     H 1960   3.898   7.593   5.846  1.1646  0.1368  0.4782
  739MOL0     H 1961   3.852   7.435   5.926  2.5987 -0.2974 -2.1133
  739MOL0     H 1962   3.360   7.542   4.933 -1.0708  0.9979 -2.5037
  739MOL0     H 1963   3.204   7.540   4.767  1.6091  0.7752 -0.6371
  739MOL0     H 1964   3.034   7.520   4.507 -0.5942  1.2492 -0.5902
  739MOL0     H 1965   2.850   7.613   4.342 -1.0314  0.2538  0.9982
  739MOL0     H 1966   2.916   6.506   2.633  0.2488  1.4822  0.5081
  739MOL0     H 1967   2.771   6.296   2.688  0.3502  0.7913 -1.7720
  739MOL0     H 1968   2.693   5.942   2.812  0.8520  4.8654 -0.3217
  739MOL0     H 1969   2.510   5.795   2.792 -0.1859 -2.9881  1.8450
  739MOL0     H 1970   2.224   5.742   3.136  0.5144 -0.2229  0.2458
  739MOL0     H 1971   2.132   5.842   3.017 -1.6126 -0.2354  0.1467
  739MOL0     H 1972   2.024   5.627   3.048 -0.5271 -2.9564 -0.6332
  739MOL0     H 1973   2.170   5.536   3.019  0.9085 -0.2949 -0.4379
  739MOL0     H 1974   1.961   5.625   2.841 -1.1959  2.4253  2.0351
  739MOL0     H 1975   2.090   5.741   2.826 -0.8098  0.4217  0.5448
  739MOL0     H 1976   2.244   5.537   2.737  0.4642  1.5672  2.7011
  739MOL0     H 1977   2.098   5.568   2.634 -3.0721 -0.5293  0.8690
  739MOL0     H 1978   2.019   5.182   2.775  2.5502  0.2604  2.5546
  739MOL0     H 1979   2.337   5.936   3.160  0.9408  1.5240  0.6469
  739MOL0     H 1980   2.477   6.052   3.298  3.8016 -2.8828 -1.4835
  739MOL0     H 1981   2.582   6.172   3.250  1.2794 -0.7880 -1.9873
  739MOL0     H 1982   2.410   6.199   3.201  0.8357  0.3070 -0.1152
  740MOL0     O 1983   7.963  10.517   7.748  0.5265 -0.7475  0.0176
  740MOL0     C 1984   7.950  10.430   7.661  0.3408  0.1105  0.5251
  740MOL0     O 1985   7.862  10.438   7.563  0.2731 -0.3617 -0.2149
  740MOL0     C 1986   7.788  10.560   7.549 -1.0857  0.1784 -0.8813
  740MOL0     C 1987   7.671  10.540   7.477 -0.2132 -0.2084  0.9629
  740MOL0     C 1988   7.573  10.644   7.467  0.5886  0.5107 -1.1921
  740MOL0     C 1989   7.588  10.765   7.537  0.1171 -0.4701 -0.0971
  740MOL0     O 1990   7.473  10.851   7.542  0.8912 -0.1031 -0.9337
  740MOL0     C 1991   7.439  10.910   7.666  0.3467  0.2831  0.0968
  740MOL0     C 1992   7.306  10.985   7.665  0.3389  0.0944  0.1305
  740MOL0     C 1993   7.296  11.096   7.773  0.0589  1.1323 -0.0396
  740MOL0     C 1994   7.184  11.214   7.768 -0.2864 -0.1315  0.2978
  740MOL0     C 1995   7.054  11.154   7.821  0.0804 -0.1489  1.0015
  740MOL0     C 1996   6.972  11.076   7.714 -0.6933 -0.0516 -0.6911
  740MOL0     C 1997   6.824  11.086   7.738  0.5018 -0.2193 -0.0566
  740MOL0     C 1998   6.742  11.037   7.614  0.8053  0.1850  0.3939
  740MOL0     N 1999   6.763  11.106   7.481 -0.6304  0.5945 -0.7002
  740MOL0     C 2000   6.689  11.209   7.433  0.0554  0.6773 -0.5422
  740MOL0     C 2001   6.729  11.220   7.305  0.1402  0.2621  0.0114
  740MOL0     C 2002   6.693  11.340   7.209  0.1529 -0.2710 -0.3619
  740MOL0     C 2003   6.542  11.361   7.212 -0.0608  1.2663 -0.8297
  740MOL0     C 2004   6.493  11.472   7.110 -0.4034 -0.5859 -0.1146
  740MOL0     C 2005   6.346  11.506   7.119  0.0466 -0.3793  0.6070
  740MOL0     O 2006   6.274  11.393   7.058 -0.0492 -0.4128  0.6495
  740MOL0     C 2007   6.141  11.400   7.010 -0.0303  0.6834 -0.5150
  740MOL0     C 2008   6.063  11.499   7.056 -0.6233 -0.5039  0.1530
  740MOL0     C 2009   5.929  11.503   7.035 -0.0361  0.4598  0.0150
  740MOL0     C 2010   5.857  11.629   7.083 -0.6000  0.8783 -0.5244
  740MOL0     C 2011   5.863  11.413   6.948 -0.3371 -0.5542 -0.7023
  740MOL0     C 2012   5.722  11.405   6.893  0.0139 -0.1986  0.6797
  740MOL0     O 2013   5.698  11.358   6.766  0.0418 -0.2106 -0.5740
  740MOL0     C 2014   5.570  11.325   6.741  1.6327  0.4086  0.7542
  740MOL0     C 2015   5.501  11.222   6.819 -0.7863 -0.3984  0.2511
  740MOL0     C 2016   5.368  11.188   6.788  0.9950 -0.1572 -0.7668
  740MOL0     C 2017   5.297  11.245   6.689  0.7820  0.7966  0.2972
  740MOL0     O 2018   5.180  11.197   6.651  0.2463 -0.0620 -0.7544
  740MOL0     C 2019   5.086  11.137   6.743 -0.3599  0.5687 -0.3264
  740MOL0     C 2020   4.944  11.165   6.684 -0.2144 -0.3125  0.6372
  740MOL0     C 2021   4.936  11.103   6.545 -0.5616  0.4691 -0.3084
  740MOL0     C 2022   4.916  10.953   6.536 -0.4555 -0.6773  0.5715
  740MOL0     C 2023   4.776  10.900   6.567  0.7374 -0.5749 -0.6832
  740MOL0     C 2024   4.750  10.746   6.569  0.5274 -0.2176  0.0045
  740MOL0     C 2025   4.780  10.680   6.435 -0.0380 -0.8310 -0.1656
  740MOL0     C 2026   4.931  10.641   6.427 -0.4974 -0.5581 -0.0210
  740MOL0    Cl 2027   4.974  10.534   6.290 -0.4525 -0.2271  0.6697
  740MOL0     C 2028   5.355  11.345   6.614 -1.0343  0.4376  0.4775
  740MOL0     C 2029   5.493  11.375   6.636 -0.1881  0.0891 -0.9651
  740MOL0     O 2030   5.639  11.439   6.973  0.3371 -0.5950  0.0451
  740MOL0     C 2031   5.944  11.312   6.901 -0.5696 -0.7631  0.0194
  740MOL0     C 2032   6.082  11.299   6.940 -0.5883  0.6785  1.2328
  740MOL0     N 2033   6.843  11.142   7.288 -0.0151  0.5606 -0.6398
  740MOL0     N 2034   6.857  11.069   7.387  0.4231  1.4368 -1.1546
  740MOL0     C 2035   7.709  10.792   7.601  0.7664  0.5070  0.1741
  740MOL0     C 2036   7.809  10.688   7.605 -0.0439 -0.3043  0.5534
  740MOL0     C 2037   7.998  10.295   7.688  0.1059  0.6956  0.6623
  740MOL0     C 2038   8.070  10.281   7.815  0.1329 -0.3792  0.0267
  740MOL0     C 2039   8.104  10.153   7.867 -0.2336 -0.3615  0.0599
  740MOL0     C 2040   8.085  10.043   7.786 -0.4863 -0.0667  0.8825
  740MOL0     O 2041   8.129   9.918   7.843  0.2522 -0.2791 -0.5191
  740MOL0     C 2042   8.069   9.799   7.779  0.1742 -1.0754 -0.1685
  740MOL0     C 2043   8.085   9.672   7.865  0.1856  0.8552 -0.0446
  740MOL0     C 2044   8.226   9.622   7.881  0.7475 -0.2296 -1.1677
  740MOL0     C 2045   8.298   9.597   7.750 -1.3181  1.0601  0.2980
  740MOL0     C 2046   8.404   9.506   7.769 -0.5919  1.1746  1.1123
  740MOL0     C 2047   8.501   9.430   7.760 -0.1153  0.1252  0.1156
  740MOL0     C 2048   8.032  10.058   7.663  1.1598  0.6336  0.9055
  740MOL0     C 2049   7.983  10.179   7.611 -0.1046  0.0303  0.0482
  740MOL0     C 2050   7.900  10.168   7.484 -0.2500  0.2254  0.3279
  740MOL0     H 2051   7.646  10.444   7.434 -1.8565  0.1823  0.9554
  740MOL0     H 2052   7.476  10.633   7.420  0.4714 -3.3311 -0.4141
  740MOL0     H 2053   7.519  10.971   7.707  1.0523 -0.3332 -0.3303
  740MOL0     H 2054   7.435  10.830   7.741  1.9825  0.1876  0.1218
  740MOL0     H 2055   7.300  11.035   7.567 -3.5274 -1.8742 -0.8230
  740MOL0     H 2056   7.215  10.926   7.678 -0.1754  1.0362  0.9686
  740MOL0     H 2057   7.289  11.045   7.869 -4.2730  0.6056 -0.4388
  740MOL0     H 2058   7.387  11.156   7.762 -1.0082  2.7712 -0.2490
  740MOL0     H 2059   7.214  11.305   7.821 -4.7332  1.3926  0.6203
  740MOL0     H 2060   7.163  11.257   7.670  1.0175 -1.0255 -0.4121
  740MOL0     H 2061   6.996  11.244   7.844 -1.5493 -0.3281 -1.8891
  740MOL0     H 2062   7.071  11.103   7.916 -2.4605 -0.3130  1.4492
  740MOL0     H 2063   6.994  11.109   7.612  0.6271  3.5085  0.5899
  740MOL0     H 2064   7.009  10.973   7.723  1.0613 -0.1537 -5.8099
  740MOL0     H 2065   6.789  11.184   7.772 -4.8673 -2.0671  0.7419
  740MOL0     H 2066   6.791  11.036   7.829  0.9131  2.3562  1.6003
  740MOL0     H 2067   6.767  10.931   7.600 -1.4111 -0.1214 -2.2007
  740MOL0     H 2068   6.637  11.056   7.636  0.7313  5.4024 -2.6513
  740MOL0     H 2069   6.606  11.267   7.473  1.3911  2.0986  0.2963
  740MOL0     H 2070   6.740  11.327   7.110  0.5008  1.0840 -0.4006
  740MOL0     H 2071   6.735  11.437   7.239  0.8158 -0.5846 -0.2575
  740MOL0     H 2072   6.491  11.268   7.184  3.1622 -0.3869 -1.7036
  740MOL0     H 2073   6.515  11.389   7.314  0.4563 -0.9994 -0.0297
  740MOL0     H 2074   6.550  11.565   7.115  0.1322 -0.8094 -1.5439
  740MOL0     H 2075   6.518  11.427   7.013 -1.8227 -1.4214 -0.1325
  740MOL0     H 2076   6.321  11.511   7.225 -1.0640 -1.8665  0.4417
  740MOL0     H 2077   6.323  11.596   7.060 -0.2882 -2.8395 -3.3802
  740MOL0     H 2078   6.110  11.578   7.114 -2.2181  0.8658 -0.3628
  740MOL0     H 2079   5.814  11.682   6.998  1.6552  3.3871 -0.2109
  740MOL0     H 2080   5.924  11.693   7.141 -1.6637  0.7558  0.9079
  740MOL0     H 2081   5.764  11.605   7.137  2.1477 -0.5881  4.1276
  740MOL0     H 2082   5.555  11.196   6.910  3.0621  0.4206 -1.5564
  740MOL0     H 2083   5.325  11.123   6.864  0.3469 -0.4684 -1.3876
  740MOL0     H 2084   5.102  11.030   6.757  1.3585  1.0688  2.1267
  740MOL0     H 2085   5.094  11.179   6.844 -1.8654  0.6951 -0.2295
  740MOL0     H 2086   4.858  11.129   6.742 -1.5291 -1.8868 -2.1025
  740MOL0     H 2087   4.938  11.274   6.672  0.7624 -0.2621  0.5396
  740MOL0     H 2088   5.029  11.120   6.492  0.5697  0.8096  1.6822
  740MOL0     H 2089   4.851  11.154   6.497 -1.4398 -2.1638 -1.7693
  740MOL0     H 2090   4.988  10.907   6.604  1.5477  2.6850  0.9319
  740MOL0     H 2091   4.923  10.926   6.430  0.7914  0.9653  0.2070
  740MOL0     H 2092   4.750  10.955   6.659  1.2341 -0.9044 -0.3386
  740MOL0     H 2093   4.701  10.943   6.500  1.8437  1.3372 -0.7901
  740MOL0     H 2094   4.647  10.715   6.586  0.2667 -0.7840 -2.2450
  740MOL0     H 2095   4.811  10.701   6.648 -0.9263  1.1036  1.9737
  740MOL0     H 2096   4.744  10.747   6.356 -1.8946  1.0386  2.1036
  740MOL0     H 2097   4.726  10.585   6.429  0.6796 -1.3606  1.3846
  740MOL0     H 2098   4.958  10.596   6.522 -0.0637 -1.1146 -0.4086
  740MOL0     H 2099   4.983  10.733   6.396 -2.9997  0.7259 -0.7357
  740MOL0     H 2100   5.292  11.399   6.544  1.3976  0.6982 -1.6488
  740MOL0     H 2101   5.553  11.441   6.574  2.5306 -1.2039  0.1712
  740MOL0     H 2102   5.904  11.237   6.833  1.0573 -0.5726 -1.1976
  740MOL0     H 2103   6.137  11.214   6.901 -2.2073  0.9962 -2.1191
  740MOL0     H 2104   7.723  10.882   7.661  0.0773 -0.3585  1.6894
  740MOL0     H 2105   7.903  10.704   7.658  0.6180 -1.2228 -0.3176
  740MOL0     H 2106   8.077  10.366   7.882 -0.4692 -0.0433 -0.3343
  740MOL0     H 2107   8.137  10.144   7.970  0.8907 -0.9916 -0.3335
  740MOL0     H 2108   7.960   9.810   7.774 -0.1707 -1.3908  3.4859
  740MOL0     H 2109   8.118   9.787   7.682 -0.4632 -2.0296 -0.3899
  740MOL0     H 2110   8.042   9.592   7.804  0.5064 -0.1865  1.0585
  740MOL0     H 2111   8.025   9.677   7.956 -2.3100 -3.3437 -1.1310
  740MOL0     H 2112   8.288   9.688   7.942  0.5798 -0.9880 -0.1327
  740MOL0     H 2113   8.202   9.530   7.935  0.1879  0.0698 -0.9075
  740MOL0     H 2114   8.344   9.690   7.715 -0.8501  1.1505  1.1187
  740MOL0     H 2115   8.226   9.554   7.680 -0.2527  4.2181 -3.0007
  740MOL0     H 2116   8.596   9.384   7.748  0.5645  1.2310  1.0581
  740MOL0     H 2117   8.019   9.961   7.617  2.5201  1.0897 -0.4928
  740MOL0     H 2118   7.942  10.237   7.411  1.1142 -1.9316 -1.0580
  740MOL0     H 2119   7.913  10.066   7.447  2.3162  0.8943 -0.7717
  740MOL0     H 2120   7.794  10.192   7.497  0.1454  1.3934  1.6361
  741MOL0     O 2121  10.860   2.178   3.802  0.1100  0.7371  0.8405
  741MOL0     C 2122  10.773   2.112   3.858 -0.2141  0.9697 -0.3910
  741MOL0     O 2123  10.785   1.982   3.887  0.0349  0.3256 -0.0002
  741MOL0     C 2124  10.877   1.907   3.826 -0.3868 -0.6567 -0.3613
  741MOL0     C 2125  10.935   1.932   3.701  0.1370 -0.3372 -0.1723
  741MOL0     C 2126  11.024   1.839   3.643  0.8311  0.0005  0.0787
  741MOL0     C 2127  11.065   1.730   3.717  0.4531  0.6204  0.6939
  741MOL0     O 2128  11.161   1.648   3.660  0.4232 -0.7368  0.9063
  741MOL0     C 2129  11.291   1.641   3.719  0.5304  0.4543 -1.1463
  741MOL0     C 2130  11.392   1.738   3.661 -0.0195 -1.0932 -0.3989
  741MOL0     C 2131  11.366   1.896   3.652  0.3844  0.0637  0.6630
  741MOL0     C 2132  11.346   1.970   3.793 -0.3912  0.0659  0.5321
  741MOL0     C 2133  11.475   1.978   3.882  0.3420  0.2421 -0.8396
  741MOL0     C 2134  11.455   2.061   3.999 -0.0637 -0.0086  0.0919
  741MOL0     C 2135  11.365   2.001   4.112  0.6415 -0.3932 -0.7198
  741MOL0     C 2136  11.267   2.103   4.171  0.4148  0.4465  0.4635
  741MOL0     N 2137  11.156   2.038   4.248  0.6949 -0.1598 -0.2860
  741MOL0     C 2138  11.018   2.047   4.228 -0.4038 -0.1344  0.8693
  741MOL0     C 2139  10.962   1.966   4.317  1.3216  0.4500  0.6074
  741MOL0     C 2140  10.809   1.933   4.332 -1.6604  0.5666  0.1664
  741MOL0     C 2141  10.717   2.023   4.243  0.6531 -0.5366 -0.6059
  741MOL0     C 2142  10.575   2.042   4.292  0.2332  0.1828  0.1248
  741MOL0     C 2143  10.498   1.910   4.302  0.1038  0.0054 -0.4950
  741MOL0     O 2144  10.482   1.849   4.169 -0.1452  0.8195 -0.9032
  741MOL0     C 2145  10.376   1.755   4.163  1.2823  0.2646 -0.4226
  741MOL0     C 2146  10.313   1.694   4.275 -0.5549 -0.7506 -0.0888
  741MOL0     C 2147  10.197   1.616   4.261 -0.4257  0.4735 -0.2824
  741MOL0     C 2148  10.159   1.539   4.388  0.3662 -0.4129 -0.1968
  741MOL0     C 2149  10.126   1.603   4.140 -0.6834 -0.3233  0.3377
  741MOL0     C 2150  10.004   1.530   4.114  0.1880  0.2588  1.3164
  741MOL0     O 2151   9.984   1.504   3.987 -0.3204 -0.0261  0.4099
  741MOL0     C 2152   9.905   1.405   3.948  0.8708 -0.6112 -0.5143
  741MOL0     C 2153   9.859   1.291   4.017 -0.0141 -1.1561 -0.5837
  741MOL0     C 2154   9.792   1.187   3.950  1.1459 -0.6033  0.4582
  741MOL0     C 2155   9.754   1.206   3.818  0.2058  0.0430 -0.9933
  741MOL0     O 2156   9.694   1.111   3.736  0.8271  0.1394 -0.0617
  741MOL0     C 2157   9.653   0.990   3.794  0.5443 -0.1881 -0.9483
  741MOL0     C 2158   9.567   0.904   3.706 -0.7097  0.7277 -0.1125
  741MOL0     C 2159   9.653   0.850   3.603 -1.1100  0.0395 -0.4288
  741MOL0     C 2160   9.572   0.746   3.519  0.2893  0.2734  0.1179
  741MOL0     C 2161   9.658   0.654   3.439 -0.1482  0.5622 -0.3040
  741MOL0     C 2162   9.568   0.598   3.325 -0.0123  0.2303 -0.2075
  741MOL0     C 2163   9.481   0.486   3.385 -0.2280 -0.1316  0.2604
  741MOL0     C 2164   9.424   0.411   3.274 -0.3050 -0.9774 -0.1900
  741MOL0    Cl 2165   9.260   0.488   3.243 -0.2134 -0.5757 -0.2058
  741MOL0     C 2166   9.807   1.312   3.745 -0.0865  0.0245 -0.1653
  741MOL0     C 2167   9.877   1.413   3.810 -0.1116 -0.5939  0.1732
  741MOL0     O 2168   9.913   1.525   4.198 -0.0342 -0.1355  0.1697
  741MOL0     C 2169  10.189   1.674   4.032  0.1876 -0.7439  0.5726
  741MOL0     C 2170  10.305   1.750   4.050 -0.4994  0.4376  0.9997
  741MOL0     N 2171  11.058   1.915   4.401 -0.2700 -0.3253  0.5203
  741MOL0     N 2172  11.177   1.950   4.350  0.0633 -0.8596  0.0266
  741MOL0     C 2173  10.998   1.701   3.842  0.3438  0.1208  0.0193
  741MOL0     C 2174  10.910   1.795   3.898  0.0759 -0.2697 -0.0640
  741MOL0     C 2175  10.651   2.179   3.911  0.2755  0.7087  0.1208
  741MOL0     C 2176  10.532   2.107   3.911 -0.2292 -0.6094 -0.4553
  741MOL0     C 2177  10.406   2.162   3.951  0.5824 -0.8326 -0.2676
  741MOL0     C 2178  10.406   2.299   3.992  0.4794 -0.8136 -0.0475
  741MOL0     O 2179  10.286   2.344   4.029  0.0170 -0.5543 -0.5002
  741MOL0     C 2180  10.270   2.489   4.048 -1.3660  0.3521  0.2216
  741MOL0     C 2181  10.131   2.519   4.088  0.8932  0.5429  0.4985
  741MOL0     C 2182  10.105   2.666   4.109 -0.4742  0.3103 -0.1477
  741MOL0     C 2183  10.186   2.726   4.231 -0.2911 -0.4207  0.8513
  741MOL0     C 2184  10.152   2.873   4.243  0.3101  0.2890  0.5246
  741MOL0     C 2185  10.120   2.991   4.263 -0.5183 -0.1828 -0.1893
  741MOL0     C 2186  10.530   2.370   4.007  0.5737  0.3307  0.1343
  741MOL0     C 2187  10.655   2.316   3.960  0.2204  1.3901 -0.3138
  741MOL0     C 2188  10.783   2.392   3.987  0.0950 -0.3407 -0.5976
  741MOL0     H 2189  10.893   2.007   3.635  0.3604  0.9543  1.0956
  741MOL0     H 2190  11.057   1.854   3.541 -1.5966  1.1781 -0.6037
  741MOL0     H 2191  11.337   1.543   3.705  0.6717  0.3178  0.1538
  741MOL0     H 2192  11.276   1.663   3.825 -0.3732  0.0371 -1.1838
  741MOL0     H 2193  11.483   1.739   3.722  0.3057  1.4204 -0.8138
  741MOL0     H 2194  11.420   1.697   3.564  3.1292 -1.5173  0.5839
  741MOL0     H 2195  11.456   1.940   3.607 -0.4284  2.2016  1.0044
  741MOL0     H 2196  11.281   1.925   3.589  0.4133 -2.2356 -0.5171
  741MOL0     H 2197  11.311   2.070   3.767  0.2628  0.0387 -0.5401
  741MOL0     H 2198  11.268   1.917   3.849  0.3760  0.9680  2.5283
  741MOL0     H 2199  11.549   2.022   3.815  1.0690 -0.7645 -0.7108
  741MOL0     H 2200  11.509   1.879   3.914  0.9019 -0.1694 -2.5918
  741MOL0     H 2201  11.555   2.076   4.042  0.0470 -0.9432  0.1803
  741MOL0     H 2202  11.434   2.167   3.985  3.2878  1.1525  2.5308
  741MOL0     H 2203  11.430   1.957   4.188  1.6534 -0.0193 -1.3472
  741MOL0     H 2204  11.325   1.907   4.074  3.3441 -2.5756  1.4292
  741MOL0     H 2205  11.317   2.169   4.242 -1.1131  2.0524  0.1141
  741MOL0     H 2206  11.223   2.170   4.097  3.0205  1.3190 -0.3849
  741MOL0     H 2207  10.962   2.115   4.164  2.4135  1.3150 -0.2212
  741MOL0     H 2208  10.788   1.945   4.439  1.2350  2.6021  0.5923
  741MOL0     H 2209  10.801   1.831   4.292 -4.9720  0.9146 -0.3886
  741MOL0     H 2210  10.767   2.121   4.246  3.3547 -1.8024  2.2669
  741MOL0     H 2211  10.712   1.985   4.141  0.8813 -3.3060  0.3273
  741MOL0     H 2212  10.581   2.088   4.392 -1.2594  0.7004  0.0014
  741MOL0     H 2213  10.526   2.123   4.237  3.6249  1.1156 -1.7957
  741MOL0     H 2214  10.545   1.842   4.374 -0.0701 -0.6082 -0.9495
  741MOL0     H 2215  10.410   1.941   4.359  0.6758  1.0995 -0.1827
  741MOL0     H 2216  10.360   1.694   4.373 -0.0857 -1.2504 -0.3065
  741MOL0     H 2217  10.072   1.474   4.376 -0.4964  0.5810  0.4712
  741MOL0     H 2218  10.129   1.595   4.477 -0.1316 -2.1129  0.7561
  741MOL0     H 2219  10.243   1.478   4.423 -2.4213 -2.5394  3.5590
  741MOL0     H 2220   9.873   1.284   4.125 -1.3069 -4.5126 -0.4938
  741MOL0     H 2221   9.766   1.098   4.008  0.9288 -1.1518 -0.4620
  741MOL0     H 2222   9.741   0.936   3.829 -1.3547 -3.0399 -0.2066
  741MOL0     H 2223   9.595   1.009   3.884  0.3344 -0.8040 -0.9506
  741MOL0     H 2224   9.525   0.823   3.765  1.1112 -0.8371 -0.8605
  741MOL0     H 2225   9.495   0.968   3.654  0.7019  2.7638  0.3062
  741MOL0     H 2226   9.737   0.802   3.654 -0.1349  1.4584 -0.6478
  741MOL0     H 2227   9.689   0.928   3.535 -1.3991 -1.5839 -2.5405
  741MOL0     H 2228   9.500   0.789   3.449 -0.4282  0.9954  1.2803
  741MOL0     H 2229   9.507   0.684   3.581 -0.2177 -0.3705 -1.0241
  741MOL0     H 2230   9.746   0.699   3.393 -1.6342  2.2812 -1.6001
  741MOL0     H 2231   9.689   0.575   3.508  1.2781  1.8049  0.5514
  741MOL0     H 2232   9.645   0.563   3.255  1.8566 -0.6097  2.1346
  741MOL0     H 2233   9.499   0.672   3.285 -0.6724  2.5755  4.5349
  741MOL0     H 2234   9.411   0.530   3.457  2.0458 -0.5890  2.9446
  741MOL0     H 2235   9.543   0.417   3.442 -1.3976 -0.1656  1.5394
  741MOL0     H 2236   9.407   0.308   3.307  0.6263 -1.4946 -1.2563
  741MOL0     H 2237   9.479   0.420   3.180 -0.1457  0.1236 -0.0096
  741MOL0     H 2238   9.782   1.320   3.640 -1.5978  3.1989  0.3031
  741MOL0     H 2239   9.911   1.492   3.744 -0.5314 -1.4438 -1.0913
  741MOL0     H 2240  10.138   1.676   3.936  2.1495  0.5097 -0.5040
  741MOL0     H 2241  10.353   1.798   3.965 -1.0772 -0.9353 -0.1584
  741MOL0     H 2242  11.026   1.606   3.887  0.2875 -0.1610 -0.5371
  741MOL0     H 2243  10.871   1.790   3.999  1.5330  4.0536  0.9341
  741MOL0     H 2244  10.538   2.002   3.883 -1.1085 -1.1400  1.2502
  741MOL0     H 2245  10.314   2.105   3.944 -0.5362  0.0873  4.1119
  741MOL0     H 2246  10.346   2.537   4.112 -1.1449  1.2859 -0.7241
  741MOL0     H 2247  10.297   2.539   3.955  3.2719  2.5589  2.4030
  741MOL0     H 2248  10.099   2.476   4.183  0.7315  0.1332  0.2578
  741MOL0     H 2249  10.059   2.482   4.015  2.0306 -0.5274 -0.1235
  741MOL0     H 2250  10.100   2.726   4.018  0.8266  0.6845  0.0088
  741MOL0     H 2251  10.001   2.665   4.145 -1.0866  1.5926 -1.7934
  741MOL0     H 2252  10.296   2.728   4.235 -0.3246  0.1773  1.9008
  741MOL0     H 2253  10.166   2.679   4.327  2.6504  0.4344  1.9994
  741MOL0     H 2254  10.089   3.092   4.276 -2.4814 -0.8616  0.7408
  741MOL0     H 2255  10.521   2.464   4.061 -2.2586  0.2761 -0.1175
  741MOL0     H 2256  10.846   2.360   4.071 -1.5528  1.5736  1.5058
  741MOL0     H 2257  10.852   2.419   3.906  2.4746  1.9211  1.9275
  741MOL0     H 2258  10.751   2.488   4.030  2.5806  0.0439  0.6118
  742MOL0     O 2259   6.355  10.515   9.392  0.0532 -0.3637 -0.5324
  742MOL0     C 2260   6.336  10.567   9.501  0.2362  0.3101  0.2177
  742MOL0     O 2261   6.346  10.707   9.534  0.5388 -0.0805 -0.0804
  742MOL0     C 2262   6.431  10.789   9.468  0.7338 -0.5535  0.7142
  742MOL0     C 2263   6.428  10.923   9.517 -0.2123  0.7666  0.0052
  742MOL0     C 2264   6.510  11.013   9.449 -0.3491 -0.6650  0.5909
  742MOL0     C 2265   6.588  10.976   9.338  0.6031 -0.5222  1.3165
  742MOL0     O 2266   6.659  11.071   9.260 -0.7244 -0.2103 -0.0461
  742MOL0     C 2267   6.745  11.160   9.334 -0.1794  0.8236  0.8199
  742MOL0     C 2268   6.834  11.256   9.247  0.9846 -0.3112  0.1828
  742MOL0     C 2269   6.875  11.381   9.331  0.2533  0.9376  0.0233
  742MOL0     C 2270   7.021  11.425   9.301 -0.3047  0.5029 -0.3315
  742MOL0     C 2271   7.033  11.496   9.162 -0.1771 -0.6283 -0.0601
  742MOL0     C 2272   6.974  11.638   9.160  0.4805  0.9508  0.0764
  742MOL0     C 2273   7.035  11.746   9.064  0.0645 -0.0884 -0.2557
  742MOL0     C 2274   6.967  11.873   9.041  0.0875 -0.4258 -0.4516
  742MOL0     N 2275   7.014  11.961   8.930 -0.5029 -0.3411  0.6942
  742MOL0     C 2276   7.030  11.916   8.801 -0.5353 -0.4716 -0.9223
  742MOL0     C 2277   7.106  12.011   8.737 -0.0612 -0.7761  0.1505
  742MOL0     C 2278   7.155  11.984   8.604  0.5622  0.2828  0.3591
  742MOL0     C 2279   7.307  11.961   8.618 -0.1560 -0.1495  0.7525
  742MOL0     C 2280   7.388  11.921   8.491 -0.2971 -0.2765  0.1287
  742MOL0     C 2281   7.361  11.785   8.446  1.3522 -0.6766 -0.0662
  742MOL0     O 2282   7.355  11.683   8.551 -0.2914  0.3028 -1.0980
  742MOL0     C 2283   7.353  11.548   8.504  0.4168  0.2302 -0.5317
  742MOL0     C 2284   7.308  11.510   8.375  0.2699  0.2321  1.0801
  742MOL0     C 2285   7.293  11.375   8.338  0.3309 -0.1214 -0.9841
  742MOL0     C 2286   7.216  11.346   8.212 -0.2719  0.2068 -0.4200
  742MOL0     C 2287   7.337  11.281   8.436 -0.4886  0.9448 -0.1720
  742MOL0     C 2288   7.324  11.132   8.418 -0.3115 -0.6801  0.1450
  742MOL0     O 2289   7.361  11.049   8.526 -0.4975 -0.3886 -0.3464
  742MOL0     C 2290   7.376  10.908   8.506  0.1167  0.0434 -0.0201
  742MOL0     C 2291   7.401  10.845   8.379  0.4382  0.8815 -0.1614
  742MOL0     C 2292   7.386  10.708   8.352  0.3163 -0.3100 -0.3882
  742MOL0     C 2293   7.352  10.627   8.466 -0.4566 -0.0933 -0.6146
  742MOL0     O 2294   7.340  10.490   8.464 -0.1713 -0.5468  1.0424
  742MOL0     C 2295   7.380  10.430   8.341 -0.0350  0.3840 -0.3131
  742MOL0     C 2296   7.356  10.275   8.355 -0.7030 -0.0170  0.6610
  742MOL0     C 2297   7.397  10.213   8.213 -0.0840  1.0316  0.1207
  742MOL0     C 2298   7.386  10.059   8.218 -0.2210  0.0523  0.2078
  742MOL0     C 2299   7.407   9.991   8.081  0.9183 -0.4019 -0.0849
  742MOL0     C 2300   7.407   9.833   8.076  0.0148  0.4012  0.2123
  742MOL0     C 2301   7.392   9.773   7.938  0.3644  0.5522  0.5613
  742MOL0     C 2302   7.504   9.802   7.848  0.5618  0.0906 -0.0602
  742MOL0    Cl 2303   7.654   9.718   7.902  0.0149  0.0439  0.3618
  742MOL0     C 2304   7.360  10.675   8.598 -0.2343  0.7728 -0.7535
  742MOL0     C 2305   7.371  10.814   8.617 -0.1785 -1.2094  0.3643
  742MOL0     O 2306   7.285  11.087   8.314  0.7839 -0.0326  0.1769
  742MOL0     C 2307   7.395  11.320   8.558  0.0754 -0.3709  0.9722
  742MOL0     C 2308   7.398  11.451   8.596  0.3109  0.0647  0.8015
  742MOL0     N 2309   7.129  12.117   8.822  0.1720 -0.2932 -0.8012
  742MOL0     N 2310   7.065  12.089   8.932  0.1352  0.1513  0.2410
  742MOL0     C 2311   6.577  10.845   9.282 -0.2364  0.2112 -0.4790
  742MOL0     C 2312   6.485  10.757   9.341  0.2641 -0.4672 -0.6584
  742MOL0     C 2313   6.312  10.466   9.605 -0.3058 -0.2166 -1.0523
  742MOL0     C 2314   6.266  10.531   9.723 -0.1644 -0.1596 -1.2735
  742MOL0     C 2315   6.252  10.450   9.836 -0.1911  0.3631 -0.9080
  742MOL0     C 2316   6.273  10.316   9.841  0.7875  0.5504  0.0078
  742MOL0     O 2317   6.271  10.237   9.950  0.1080  0.1012  0.0557
  742MOL0     C 2318   6.270  10.301  10.075 -0.6538  0.0002  0.1158
  742MOL0     C 2319   6.290  10.207  10.194 -0.1793  0.2292  0.4546
  742MOL0     C 2320   6.391  10.267  10.293  0.3342  0.4100  0.5534
  742MOL0     C 2321   6.353  10.204  10.428 -0.9853 -0.0158  0.8638
  742MOL0     C 2322   6.380  10.050  10.433 -0.6606 -1.2123  0.9052
  742MOL0     C 2323   6.392   9.937  10.463 -0.2070  0.2600 -0.6934
  742MOL0     C 2324   6.291  10.255   9.725 -0.3057 -0.0765  0.5907
  742MOL0     C 2325   6.307  10.326   9.607  0.4115  0.4588  0.1450
  742MOL0     C 2326   6.329  10.248   9.475  0.1423  0.7838 -0.2418
  742MOL0     H 2327   6.386  10.941   9.616  3.7416  1.0128  1.8499
  742MOL0     H 2328   6.514  11.116   9.485  1.3219 -0.8694  1.1128
  742MOL0     H 2329   6.816  11.098   9.390  0.7511  1.1438  0.0193
  742MOL0     H 2330   6.696  11.227   9.407  1.7356  0.7434  2.2600
  742MOL0     H 2331   6.920  11.203   9.205 -0.8366 -3.0882 -0.3315
  742MOL0     H 2332   6.778  11.303   9.166 -3.8270  1.8389  4.2267
  742MOL0     H 2333   6.809  11.462   9.298 -0.3911 -0.0190 -1.1174
  742MOL0     H 2334   6.864  11.374   9.440  2.9228  2.2501  0.4475
  742MOL0     H 2335   7.063  11.481   9.385  1.7581 -2.9689  1.1832
  742MOL0     H 2336   7.087  11.338   9.302 -0.7360  0.1249 -2.1147
  742MOL0     H 2337   6.985  11.435   9.084 -2.9081  1.2124  0.0514
  742MOL0     H 2338   7.139  11.505   9.140  0.5249 -2.9254  1.9179
  742MOL0     H 2339   6.868  11.629   9.135  1.0243  0.3183 -2.2811
  742MOL0     H 2340   6.987  11.686   9.257  4.9703  1.8896 -0.7388
  742MOL0     H 2341   7.043  11.705   8.963  0.6272  1.4604 -0.8605
  742MOL0     H 2342   7.137  11.764   9.099 -0.3672  0.0865  0.9558
  742MOL0     H 2343   6.860  11.856   9.027  0.0712 -0.8318  0.1125
  742MOL0     H 2344   6.971  11.940   9.128 -2.0313  0.5239 -1.0244
  742MOL0     H 2345   6.992  11.823   8.759 -1.3431 -0.5820  0.0107
  742MOL0     H 2346   7.146  12.068   8.534  3.2500  1.4736  1.3015
  742MOL0     H 2347   7.097  11.908   8.552  1.4787  0.2555 -0.6449
  742MOL0     H 2348   7.347  12.063   8.624  2.3468 -0.7911 -2.2097
  742MOL0     H 2349   7.327  11.899   8.706 -0.3815 -0.1040  0.8344
  742MOL0     H 2350   7.369  12.002   8.420 -1.2852 -2.2381 -1.9466
  742MOL0     H 2351   7.493  11.934   8.517 -1.0251  1.2529  2.7723
  742MOL0     H 2352   7.258  11.783   8.410  0.5901  1.2586  1.8029
  742MOL0     H 2353   7.438  11.749   8.377  0.6027  1.8663 -2.4110
  742MOL0     H 2354   7.277  11.577   8.295  2.7568 -2.6829 -2.6951
  742MOL0     H 2355   7.131  11.280   8.228 -1.3793  1.5668 -0.4667
  742MOL0     H 2356   7.285  11.300   8.141  0.1597  2.0206 -1.2455
  742MOL0     H 2357   7.163  11.430   8.166 -0.5162 -1.3946 -3.3468
  742MOL0     H 2358   7.424  10.897   8.286  0.2162 -1.4740 -1.6286
  742MOL0     H 2359   7.403  10.670   8.252  3.5561  0.0100 -0.0756
  742MOL0     H 2360   7.314  10.451   8.257  0.6774 -0.0405 -0.9917
  742MOL0     H 2361   7.486  10.449   8.319  0.1399 -0.9248 -0.7092
  742MOL0     H 2362   7.411  10.220   8.432  0.6202  0.5474  0.1394
  742MOL0     H 2363   7.250  10.257   8.375  0.0631 -1.8566  3.7866
  742MOL0     H 2364   7.496  10.251   8.185 -0.8551  1.7091 -1.8754
  742MOL0     H 2365   7.346  10.264   8.131 -0.3691 -0.7438 -0.8817
  742MOL0     H 2366   7.290  10.026   8.258 -0.9058 -0.0119 -1.3830
  742MOL0     H 2367   7.460  10.015   8.286 -2.9297 -3.1484  1.3608
  742MOL0     H 2368   7.325  10.024   8.016  0.6819  1.3108  1.0328
  742MOL0     H 2369   7.497  10.028   8.031 -0.4188  1.2159 -1.4299
  742MOL0     H 2370   7.320   9.794   8.128 -1.8842  1.2444 -2.1586
  742MOL0     H 2371   7.489   9.793   8.137 -0.8855  0.0246  1.2018
  742MOL0     H 2372   7.298   9.793   7.886  0.5995 -1.6843 -0.8715
  742MOL0     H 2373   7.382   9.667   7.963 -0.8072  0.3239 -0.7565
  742MOL0     H 2374   7.530   9.907   7.837  4.0547 -0.7463 -0.9318
  742MOL0     H 2375   7.483   9.758   7.749  1.6349 -0.5367 -0.0255
  742MOL0     H 2376   7.363  10.610   8.684  1.2792 -0.0356 -1.3809
  742MOL0     H 2377   7.366  10.861   8.715 -0.2592  2.1142 -1.0977
  742MOL0     H 2378   7.442  11.255   8.631 -0.3911 -1.9326 -0.0938
  742MOL0     H 2379   7.438  11.477   8.694 -0.7368  1.4970  0.8822
  742MOL0     H 2380   6.626  10.839   9.186  0.8275 -1.9924  0.1444
  742MOL0     H 2381   6.462  10.664   9.289  1.6139 -0.5721 -1.0972
  742MOL0     H 2382   6.245  10.637   9.733 -0.6397 -0.4528  1.5647
  742MOL0     H 2383   6.216  10.504   9.924  1.5327  0.2867 -0.1292
  742MOL0     H 2384   6.354  10.370  10.064 -0.9848  0.1640 -1.7115
  742MOL0     H 2385   6.183  10.366  10.088 -0.6441  0.1800 -0.6725
  742MOL0     H 2386   6.324  10.113  10.148  3.6292  2.0750 -0.9712
  742MOL0     H 2387   6.192  10.194  10.239 -0.8571  2.5867 -0.2273
  742MOL0     H 2388   6.497  10.249  10.273 -0.0746 -1.8261  0.1432
  742MOL0     H 2389   6.364  10.372  10.306  0.4554  0.3897  0.9739
  742MOL0     H 2390   6.248  10.229  10.442 -1.2131  1.2062 -2.1216
  742MOL0     H 2391   6.409  10.250  10.510 -0.7196  0.6027  0.3435
  742MOL0     H 2392   6.409   9.836  10.492 -3.8411 -0.2626  0.0496
  742MOL0     H 2393   6.313  10.149   9.729  0.7651  0.0829 -0.5037
  742MOL0     H 2394   6.424  10.280   9.432 -0.8341  0.3509 -2.8738
  742MOL0     H 2395   6.352  10.145   9.505 -0.9296 -0.0509 -2.1547
  742MOL0     H 2396   6.240  10.245   9.412 -0.8277 -2.4473  1.0590
  743MOL0     O 2397   0.048   8.435   9.206 -0.8826  0.7517 -0.4679
  743MOL0     C 2398   0.046   8.420   9.080 -0.7150 -0.0615 -0.2502
  743MOL0     O 2399   0.052   8.296   9.016  0.2728  0.8845  0.8336
  743MOL0     C 2400   0.103   8.175   9.059 -0.0050 -0.2093 -1.1019
  743MOL0     C 2401   0.146   8.139   9.193  0.6532 -0.0089 -0.3584
  743MOL0     C 2402   0.190   8.005   9.219 -0.9038  0.4055 -0.1243
  743MOL0     C 2403   0.203   7.917   9.114 -0.6362  0.7200 -0.3433
  743MOL0     O 2404   0.244   7.795   9.160 -0.1462 -0.0209 -0.6713
  743MOL0     C 2405   0.223   7.679   9.072 -0.0761  0.2183  0.5355
  743MOL0     C 2406   0.349   7.667   8.986  0.6107  0.0878 -0.4200
  743MOL0     C 2407   0.338   7.535   8.910 -0.2483 -0.1683 -0.7438
  743MOL0     C 2408   0.486   7.480   8.883 -0.2871  0.0157 -0.2630
  743MOL0     C 2409   0.475   7.350   8.807 -0.9435 -0.0094 -1.0165
  743MOL0     C 2410   0.610   7.262   8.804  0.3566 -0.1128  0.3251
  743MOL0     C 2411   0.720   7.326   8.717  0.2736 -0.2758 -0.4845
  743MOL0     C 2412   0.830   7.214   8.676  0.4458  0.6784 -0.3460
  743MOL0     N 2413   0.878   7.127   8.782  0.0145 -0.3669  0.6599
  743MOL0     C 2414   0.883   7.154   8.914 -0.7351 -0.5941  0.2323
  743MOL0     C 2415   0.946   7.050   8.976  0.9156  0.1969  1.1365
  743MOL0     C 2416   0.963   7.037   9.117 -0.1851  0.1625 -0.1957
  743MOL0     C 2417   1.102   7.082   9.168  0.1976 -0.1747  1.2627
  743MOL0     C 2418   1.227   7.024   9.092 -0.1763 -0.0488 -0.5076
  743MOL0     C 2419   1.357   7.073   9.152 -1.0207 -0.5973 -0.2266
  743MOL0     O 2420   1.372   7.215   9.139  0.0770 -0.2828 -0.3417
  743MOL0     C 2421   1.491   7.271   9.180  0.9047 -1.0823  0.8616
  743MOL0     C 2422   1.599   7.196   9.217 -0.2172 -0.6237  0.2659
  743MOL0     C 2423   1.714   7.254   9.268 -0.1261  0.3181 -0.4490
  743MOL0     C 2424   1.818   7.156   9.308 -0.1202  0.1592  0.2540
  743MOL0     C 2425   1.728   7.394   9.256  0.4405 -0.7665 -0.2194
  743MOL0     C 2426   1.854   7.460   9.314 -0.5367  0.0302 -0.2741
  743MOL0     O 2427   1.854   7.566   9.401  0.1835  0.0108 -0.0288
  743MOL0     C 2428   1.744   7.571   9.486  0.2874 -0.4043 -0.6550
  743MOL0     C 2429   1.715   7.455   9.555 -0.4751 -0.3263  0.6856
  743MOL0     C 2430   1.592   7.438   9.629  1.2440 -0.8944 -0.0798
  743MOL0     C 2431   1.503   7.548   9.629  0.1852  0.4977  0.2787
  743MOL0     O 2432   1.377   7.539   9.689  0.1620 -0.6148 -0.4811
  743MOL0     C 2433   1.320   7.412   9.703 -0.0864  0.3632  0.0888
  743MOL0     C 2434   1.294   7.335   9.571  0.7827  1.2487 -0.0084
  743MOL0     C 2435   1.204   7.213   9.575  0.3159 -0.3291 -0.6170
  743MOL0     C 2436   1.272   7.077   9.613  0.4211  0.3217 -0.2546
  743MOL0     C 2437   1.165   6.984   9.677 -0.4060 -0.1332  0.0564
  743MOL0     C 2438   1.158   6.973   9.825  0.6844 -0.2828 -0.4676
  743MOL0     C 2439   1.064   6.871   9.883  0.0866  0.2824 -0.3317
  743MOL0     C 2440   0.913   6.903   9.843 -0.7480 -0.2106 -0.9844
  743MOL0    Cl 2441   0.860   7.071   9.882  0.4295 -0.1529  0.1637
  743MOL0     C 2442   1.537   7.667   9.560  0.3732  0.1524 -0.5498
  743MOL0     C 2443   1.657   7.675   9.487  0.8943  0.8696  0.6087
  743MOL0     O 2444   1.958   7.428   9.252  0.3994  0.8077 -0.2585
  743MOL0     C 2445   1.616   7.466   9.201  0.3046 -0.9664 -0.3074
  743MOL0     C 2446   1.499   7.405   9.174  0.0850  0.0349 -0.8350
  743MOL0     N 2447   0.975   6.957   8.876 -0.4649  0.2019  0.5344
  743MOL0     N 2448   0.938   7.003   8.763  0.4138  0.2677 -0.2746
  743MOL0     C 2449   0.167   7.950   8.985 -0.2052  0.3277  0.3202
  743MOL0     C 2450   0.114   8.078   8.956  0.4317 -1.0640  0.4906
  743MOL0     C 2451   0.027   8.546   9.001  0.4775  0.1437  0.5181
  743MOL0     C 2452  -0.004   8.520   8.864 -0.0053  0.6518 -0.5857
  743MOL0     C 2453  -0.043   8.619   8.778 -0.5874  0.8925 -0.2351
  743MOL0     C 2454  -0.040   8.751   8.819  0.8927 -0.0784 -0.6055
  743MOL0     O 2455  -0.069   8.849   8.724  0.2505  0.2391 -0.5673
  743MOL0     C 2456  -0.004   8.974   8.730  0.1228 -0.2680  0.0702
  743MOL0     C 2457  -0.026   9.053   8.606  0.9367  0.2671  0.5091
  743MOL0     C 2458   0.039   8.995   8.486 -0.7169  0.1420 -0.5406
  743MOL0     C 2459   0.012   9.080   8.368 -0.4209 -0.1079  0.6094
  743MOL0     C 2460   0.079   9.025   8.249 -0.8217  0.3573  0.0416
  743MOL0     C 2461   0.141   8.992   8.157  0.7392  0.6918  0.5987
  743MOL0     C 2462  -0.020   8.778   8.956  0.4089 -0.1076  1.2507
  743MOL0     C 2463   0.022   8.681   9.047 -0.4482  0.1177 -0.1966
  743MOL0     C 2464   0.074   8.717   9.182 -0.6369  0.4036 -0.2287
  743MOL0     H 2465   0.139   8.215   9.271  1.9402 -0.6438  0.4090
  743MOL0     H 2466   0.200   7.968   9.320  1.1418 -1.0544 -0.7984
  743MOL0     H 2467   0.130   7.679   9.015 -0.7513  0.3808  1.6197
  743MOL0     H 2468   0.225   7.601   9.149 -0.0736 -0.7853 -0.4504
  743MOL0     H 2469   0.347   7.743   8.908  4.8202 -1.2178 -2.0912
  743MOL0     H 2470   0.435   7.674   9.055  0.3720 -5.3878  0.8968
  743MOL0     H 2471   0.273   7.459   8.956  1.3515 -1.0471  0.1707
  743MOL0     H 2472   0.298   7.566   8.813 -0.2765  4.2754  0.4841
  743MOL0     H 2473   0.537   7.554   8.821 -2.0349  0.3229 -1.4019
  743MOL0     H 2474   0.544   7.459   8.973  0.4285  0.2520 -0.6598
  743MOL0     H 2475   0.437   7.368   8.706 -0.8324 -2.7416 -1.6306
  743MOL0     H 2476   0.400   7.290   8.860 -1.0046  0.0159 -1.0747
  743MOL0     H 2477   0.653   7.241   8.902  2.8465  1.5701 -0.3092
  743MOL0     H 2478   0.595   7.164   8.758 -0.0141  0.8479 -1.7335
  743MOL0     H 2479   0.771   7.410   8.763  0.4293 -1.0653  0.8322
  743MOL0     H 2480   0.668   7.366   8.629 -1.5497  0.4813  0.8777
  743MOL0     H 2481   0.781   7.152   8.601  0.8691 -1.2529  0.9042
  743MOL0     H 2482   0.917   7.257   8.625  2.4552 -0.2436  2.1044
  743MOL0     H 2483   0.876   7.248   8.969  0.0033  0.3549 -1.2550
  743MOL0     H 2484   0.956   6.931   9.142  2.5105  0.4070  2.1858
  743MOL0     H 2485   0.885   7.093   9.170 -0.7299 -2.3634  1.8233
  743MOL0     H 2486   1.111   7.187   9.140 -1.0696 -1.3111 -5.0779
  743MOL0     H 2487   1.108   7.062   9.275 -1.2302 -0.7258  1.2559
  743MOL0     H 2488   1.226   6.915   9.088 -0.6080 -0.0058 -1.8481
  743MOL0     H 2489   1.227   7.062   8.990  3.7277  0.8456 -0.3298
  743MOL0     H 2490   1.361   7.043   9.257  1.7723 -1.9242 -0.6163
  743MOL0     H 2491   1.443   7.037   9.095  0.2213 -3.2787  3.0274
  743MOL0     H 2492   1.592   7.088   9.223  0.1947 -0.6609  0.1539
  743MOL0     H 2493   1.780   7.054   9.326  2.4689 -1.0071 -0.4514
  743MOL0     H 2494   1.859   7.204   9.397  0.9117  0.5900 -0.4416
  743MOL0     H 2495   1.899   7.140   9.237  1.3667 -0.7599  2.0810
  743MOL0     H 2496   1.783   7.371   9.559  0.1749  0.2322  1.7785
  743MOL0     H 2497   1.564   7.337   9.660 -0.5055 -1.2236 -2.4018
  743MOL0     H 2498   1.371   7.337   9.764 -0.1174  0.0920 -0.2182
  743MOL0     H 2499   1.223   7.438   9.746  1.0409 -0.3610  3.4162
  743MOL0     H 2500   1.236   7.407   9.511 -2.1753 -0.9097  0.0357
  743MOL0     H 2501   1.381   7.296   9.518 -0.5255 -6.6085  2.3201
  743MOL0     H 2502   1.156   7.205   9.477 -0.6019  2.5588 -0.4692
  743MOL0     H 2503   1.113   7.237   9.630  0.9188  1.9286 -0.5412
  743MOL0     H 2504   1.355   7.096   9.681  2.5693 -0.7630 -2.4155
  743MOL0     H 2505   1.316   7.025   9.528 -0.9765 -0.1945 -0.6899
  743MOL0     H 2506   1.071   7.015   9.630  0.6744  0.8687 -1.5172
  743MOL0     H 2507   1.180   6.882   9.640 -0.2979 -0.0476 -0.1363
  743MOL0     H 2508   1.139   7.072   9.867  1.9773 -1.3433  2.8824
  743MOL0     H 2509   1.258   6.950   9.863  0.2687  0.6131  1.2711
  743MOL0     H 2510   1.086   6.863   9.989  2.8510 -0.6883 -0.8848
  743MOL0     H 2511   1.091   6.773   9.843  1.3892  1.5825 -2.9691
  743MOL0     H 2512   0.846   6.825   9.879 -0.8823  0.0638 -0.6385
  743MOL0     H 2513   0.907   6.907   9.734  0.6427  0.9839 -1.0420
  743MOL0     H 2514   1.475   7.756   9.565  0.5268  0.2292  0.1378
  743MOL0     H 2515   1.674   7.762   9.425 -0.3034  0.8576  0.2312
  743MOL0     H 2516   1.619   7.573   9.184 -0.6983 -0.5763  1.6879
  743MOL0     H 2517   1.407   7.461   9.163  0.4118  0.6267 -0.6128
  743MOL0     H 2518   0.170   7.879   8.903 -1.6104  1.3325 -0.6665
  743MOL0     H 2519   0.086   8.118   8.859 -0.6778  0.6956  1.4866
  743MOL0     H 2520  -0.016   8.417   8.833  0.4937 -0.0514  1.3901
  743MOL0     H 2521  -0.091   8.580   8.688 -1.4103  2.1585 -0.3680
  743MOL0     H 2522  -0.036   9.043   8.809 -0.3665  2.1011 -2.0453
  743MOL0     H 2523   0.103   8.963   8.750  0.6853 -1.0615 -2.9225
  743MOL0     H 2524   0.017   9.152   8.625  0.8649 -0.1941  3.5412
  743MOL0     H 2525  -0.131   9.066   8.579  1.2946  1.6903 -0.2898
  743MOL0     H 2526   0.146   8.987   8.505 -1.0695  1.2286  2.3688
  743MOL0     H 2527   0.006   8.891   8.474 -0.3335 -0.0340 -0.0938
  743MOL0     H 2528   0.055   9.180   8.380  0.3440  0.0090 -2.3146
  743MOL0     H 2529  -0.095   9.093   8.348 -0.3556 -1.3835 -0.7852
  743MOL0     H 2530   0.205   8.944   8.085  0.1632  1.3536 -0.3853
  743MOL0     H 2531  -0.016   8.883   8.986  1.7425  0.8659 -1.8747
  743MOL0     H 2532   0.112   8.820   9.177 -0.6537  0.7218  3.4261
  743MOL0     H 2533  -0.008   8.718   9.254  0.2434 -0.9953  0.8493
  743MOL0     H 2534   0.154   8.660   9.230 -0.4040  1.3905  0.5883
  744MOL0     O 2535   0.010  11.060   5.641 -0.1576  0.1244  0.7206
  744MOL0     C 2536   0.004  10.960   5.565 -0.2948  0.5073 -0.5427
  744MOL0     O 2537   0.122  10.883   5.535  0.5138 -0.5348  0.1243
  744MOL0     C 2538   0.248  10.934   5.546 -0.3913 -0.5130 -0.3686
  744MOL0     C 2539   0.325  10.900   5.662 -0.1502  0.5050 -0.4505
  744MOL0     C 2540   0.458  10.946   5.680  0.1246  0.3377 -0.5143
  744MOL0     C 2541   0.513  11.027   5.579 -0.6492  0.3962  0.0802
  744MOL0     O 2542   0.637  11.075   5.583 -0.4634  0.6303  0.4278
  744MOL0     C 2543   0.745  11.002   5.622 -0.9271 -0.4524  0.2862
  744MOL0     C 2544   0.882  11.055   5.563  0.1872  0.3121 -0.1269
  744MOL0     C 2545   0.936  11.172   5.644  0.3629  0.4151 -0.2090
  744MOL0     C 2546   0.881  11.308   5.594  0.2101  0.4185 -0.0868
  744MOL0     C 2547   0.984  11.416   5.636 -0.3044  0.8688 -0.6145
  744MOL0     C 2548   0.937  11.560   5.603 -0.4249 -0.7096  0.0175
  744MOL0     C 2549   0.790  11.598   5.664  0.1394  0.1264  0.8973
  744MOL0     C 2550   0.775  11.589   5.811 -0.0168  0.3385 -0.6164
  744MOL0     N 2551   0.889  11.641   5.888 -0.5423 -0.3017 -0.4288
  744MOL0     C 2552   0.937  11.771   5.892 -0.1385 -0.9498  0.1900
  744MOL0     C 2553   1.045  11.767   5.975 -0.1528  0.2698  0.6369
  744MOL0     C 2554   1.148  11.867   6.019  0.8471  0.0437  0.4022
  744MOL0     C 2555   1.278  11.880   5.940  0.0588 -0.7201  0.6153
  744MOL0     C 2556   1.261  11.932   5.790  0.0228 -0.3541 -0.5269
  744MOL0     C 2557   1.278  12.087   5.781  0.0107  0.7264 -0.2346
  744MOL0     O 2558   1.157  12.163   5.810  0.0643  0.2915  0.3015
  744MOL0     C 2559   1.042  12.132   5.746  0.6274 -0.0494  0.4260
  744MOL0     C 2560   0.919  12.172   5.800  0.6874  0.1457  0.7613
  744MOL0     C 2561   0.795  12.146   5.746 -0.8596 -0.7297  0.7893
  744MOL0     C 2562   0.677  12.206   5.825  0.6475  0.3052  0.2309
  744MOL0     C 2563   0.792  12.067   5.626  0.2475 -0.4356 -0.9053
  744MOL0     C 2564   0.665  12.020   5.562 -0.4491  0.3531  0.6183
  744MOL0     O 2565   0.685  11.979   5.439  0.5298  0.2673 -0.0349
  744MOL0     C 2566   0.590  11.931   5.362  0.9674 -0.7480  0.6470
  744MOL0     C 2567   0.474  12.002   5.325  0.0425  0.2977 -0.6760
  744MOL0     C 2568   0.376  11.939   5.245  0.6101  0.2625  1.0181
  744MOL0     C 2569   0.391  11.814   5.196  0.0655 -0.4749  0.1926
  744MOL0     O 2570   0.275  11.773   5.131  0.1250  0.6056  0.0922
  744MOL0     C 2571   0.290  11.641   5.063 -0.5350 -0.3189 -0.6558
  744MOL0     C 2572   0.160  11.590   4.991  0.2377 -0.1739 -0.2833
  744MOL0     C 2573   0.188  11.446   4.950  0.8531 -1.1429 -0.1783
  744MOL0     C 2574   0.102  11.407   4.835  0.4059 -0.8450 -0.3343
  744MOL0     C 2575   0.099  11.253   4.818 -0.0470 -0.0430  0.0725
  744MOL0     C 2576   0.052  11.210   4.672 -0.3490  0.0214 -0.8028
  744MOL0     C 2577  -0.088  11.221   4.630 -0.6159  0.4566  0.1801
  744MOL0     C 2578  -0.111  11.206   4.479 -0.2098 -0.1477 -0.4173
  744MOL0    Cl 2579  -0.027  11.063   4.401  0.1240 -0.2519  0.2376
  744MOL0     C 2580   0.504  11.735   5.221  0.4201  0.3321  0.6745
  744MOL0     C 2581   0.598  11.803   5.310  0.5711 -0.7076  0.2851
  744MOL0     O 2582   0.569  11.992   5.626  0.4827  0.7241  0.2913
  744MOL0     C 2583   0.913  12.039   5.567 -0.5279 -0.5860 -0.3614
  744MOL0     C 2584   1.037  12.077   5.615  0.2683 -0.1083 -0.0947
  744MOL0     N 2585   1.073  11.638   6.015 -0.1315  1.0611  0.3567
  744MOL0     N 2586   0.967  11.571   5.972 -1.2837  0.0697 -0.5337
  744MOL0     C 2587   0.442  11.057   5.456 -1.3013  0.4496 -0.5779
  744MOL0     C 2588   0.314  11.002   5.440 -1.2994 -1.4836 -0.2971
  744MOL0     C 2589  -0.131  10.919   5.513  1.1005  0.5082  0.0712
  744MOL0     C 2590  -0.153  10.784   5.485 -0.2700  0.6187 -1.0164
  744MOL0     C 2591  -0.265  10.729   5.447 -0.3529 -0.5914  0.5244
  744MOL0     C 2592  -0.373  10.811   5.425 -0.0089 -0.2043 -0.9099
  744MOL0     O 2593  -0.500  10.771   5.405  0.1528  0.7554 -0.0909
  744MOL0     C 2594  -0.523  10.627   5.389  0.7903 -0.5908  0.3450
  744MOL0     C 2595  -0.656  10.616   5.309 -0.6650 -0.3490 -1.3312
  744MOL0     C 2596  -0.619  10.676   5.170  0.9102 -0.1064 -0.9505
  744MOL0     C 2597  -0.754  10.691   5.094  0.5584  0.1576 -0.8062
  744MOL0     C 2598  -0.797  10.563   5.040 -0.5769 -0.2636 -0.2974
  744MOL0     C 2599  -0.848  10.468   4.988 -0.1331  0.2465 -0.6417
  744MOL0     C 2600  -0.363  10.948   5.439  0.4602  0.1573  0.9030
  744MOL0     C 2601  -0.238  11.002   5.465 -0.3348 -0.1355  0.1299
  744MOL0     C 2602  -0.216  11.156   5.451 -0.0029  0.0696 -0.2161
  744MOL0     H 2603   0.280  10.825   5.727 -2.1501  0.2600 -2.0217
  744MOL0     H 2604   0.530  10.923   5.758  0.9033  0.0476 -1.3017
  744MOL0     H 2605   0.727  10.903   5.579 -0.2827  0.6289 -2.7186
  744MOL0     H 2606   0.756  11.006   5.731 -0.5388  2.9149  0.2231
  744MOL0     H 2607   0.956  10.977   5.588 -0.8640 -0.9295 -0.7897
  744MOL0     H 2608   0.877  11.090   5.460  0.0884 -0.0686 -0.2543
  744MOL0     H 2609   0.916  11.149   5.749  2.2079 -2.6269 -0.4007
  744MOL0     H 2610   1.044  11.170   5.629  0.7123  0.8800  1.9840
  744MOL0     H 2611   0.885  11.294   5.485  1.3920 -1.2774  0.1363
  744MOL0     H 2612   0.780  11.322   5.633 -0.1445 -1.9379 -0.0185
  744MOL0     H 2613   1.071  11.399   5.572 -0.5086  0.9832 -0.9265
  744MOL0     H 2614   1.016  11.417   5.741 -1.0930 -0.4458 -0.3408
  744MOL0     H 2615   1.010  11.631   5.642 -0.4302  0.2501 -1.6188
  744MOL0     H 2616   0.937  11.593   5.499 -0.6798  0.7552  0.4670
  744MOL0     H 2617   0.716  11.542   5.606  1.8791 -0.7963 -0.5582
  744MOL0     H 2618   0.775  11.706   5.652 -2.8728 -0.2975 -0.1488
  744MOL0     H 2619   0.677  11.635   5.829 -1.2201 -1.4081 -2.2897
  744MOL0     H 2620   0.762  11.483   5.835 -0.7050  0.7708  1.0466
  744MOL0     H 2621   0.898  11.860   5.843 -0.1213  0.1197  2.0371
  744MOL0     H 2622   1.178  11.839   6.121 -2.1645  2.0193  2.0003
  744MOL0     H 2623   1.087  11.958   6.019 -0.5459 -0.7492  3.7367
  744MOL0     H 2624   1.352  11.944   5.989 -0.2285 -1.5460  2.1709
  744MOL0     H 2625   1.331  11.785   5.938  0.2909 -0.6454 -2.5375
  744MOL0     H 2626   1.347  11.886   5.741 -1.2956 -1.7348 -1.6476
  744MOL0     H 2627   1.174  11.879   5.751  0.1599 -0.6769 -0.4004
  744MOL0     H 2628   1.349  12.132   5.851  2.2171  0.3567 -2.0931
  744MOL0     H 2629   1.318  12.115   5.683  0.7279  1.6725  0.3084
  744MOL0     H 2630   0.926  12.227   5.893  1.8771  2.0549 -0.3727
  744MOL0     H 2631   0.711  12.293   5.882 -0.7568  0.6143  0.6548
  744MOL0     H 2632   0.625  12.143   5.898 -0.5253  0.2605 -0.6121
  744MOL0     H 2633   0.602  12.226   5.747  0.9085 -1.4617 -0.5153
  744MOL0     H 2634   0.475  12.103   5.365  1.4277  0.5710 -1.3529
  744MOL0     H 2635   0.283  11.995   5.231  0.9993  0.3288 -1.8834
  744MOL0     H 2636   0.369  11.642   4.987 -0.1063  1.8978 -0.2388
  744MOL0     H 2637   0.310  11.565   5.138  0.3070 -0.2105 -0.7574
  744MOL0     H 2638   0.084  11.594   5.069  0.1572  3.0457 -0.4156
  744MOL0     H 2639   0.122  11.661   4.917  1.0271 -0.0474 -0.5721
  744MOL0     H 2640   0.178  11.375   5.033 -0.7883 -0.7389 -0.0073
  744MOL0     H 2641   0.294  11.442   4.923  0.1906  0.5804 -3.5727
  744MOL0     H 2642   0.140  11.448   4.742 -3.9737  1.4872 -1.3488
  744MOL0     H 2643   0.000  11.440   4.858  0.0256 -3.1580  1.8161
  744MOL0     H 2644   0.202  11.219   4.829 -0.2288  0.1473  3.3485
  744MOL0     H 2645   0.038  11.210   4.898 -1.9015  3.1175  0.5445
  744MOL0     H 2646   0.079  11.106   4.649 -2.9317 -0.8472 -0.1586
  744MOL0     H 2647   0.109  11.280   4.610 -1.5543  0.2647 -1.6583
  744MOL0     H 2648  -0.124  11.321   4.652 -1.2662  0.5770 -1.2869
  744MOL0     H 2649  -0.153  11.147   4.678  0.4707 -0.9071 -0.3608
  744MOL0     H 2650  -0.065  11.296   4.436  0.0692 -1.1998 -2.4530
  744MOL0     H 2651  -0.217  11.210   4.452  0.3546  0.8793 -2.7113
  744MOL0     H 2652   0.522  11.635   5.181  0.4574  2.0690 -4.4680
  744MOL0     H 2653   0.694  11.764   5.343  1.3441  1.6965  1.0375
  744MOL0     H 2654   0.915  11.971   5.482 -0.5410  2.3696 -2.8913
  744MOL0     H 2655   1.130  12.046   5.568  0.1871  1.4463 -1.3649
  744MOL0     H 2656   0.503  11.116   5.389 -0.5139  0.9409  0.5469
  744MOL0     H 2657   0.269  11.012   5.342 -1.3807  0.0886 -0.1187
  744MOL0     H 2658  -0.065  10.721   5.493  0.1771  1.4886  1.8942
  744MOL0     H 2659  -0.257  10.621   5.435  0.6791 -0.7968  2.5892
  744MOL0     H 2660  -0.440  10.580   5.335  0.1440 -4.0620  2.1288
  744MOL0     H 2661  -0.542  10.591   5.490 -1.2479  1.3551  0.7493
  744MOL0     H 2662  -0.731  10.678   5.360  0.7312 -0.5542  1.1601
  744MOL0     H 2663  -0.704  10.518   5.303 -1.7639 -0.1241  1.8231
  744MOL0     H 2664  -0.571  10.774   5.177  3.9456 -1.5501  0.5526
  744MOL0     H 2665  -0.550  10.607   5.120 -0.2692  1.2711 -4.8098
  744MOL0     H 2666  -0.737  10.758   5.009  1.0439  1.1124  0.0140
  744MOL0     H 2667  -0.836  10.733   5.155 -1.5038 -1.4895 -2.3179
  744MOL0     H 2668  -0.874  10.386   4.925  0.8188  0.1436 -0.9295
  744MOL0     H 2669  -0.449  11.011   5.422  0.7878  0.9326  1.9951
  744MOL0     H 2670  -0.127  11.193   5.398  1.0979 -0.8450  0.9185
  744MOL0     H 2671  -0.303  11.204   5.408  0.6131  1.9897  0.5581
  744MOL0     H 2672  -0.211  11.192   5.555  1.0280 -0.7951  0.0594
  745MOL0     O 2673   3.818   2.609   6.152  0.6401 -0.4108 -0.8835
  745MOL0     C 2674   3.781   2.503   6.094 -0.8384  0.1175  0.0502
  745MOL0     O 2675   3.817   2.471   5.964  0.5583 -0.2885  0.2687
  745MOL0     C 2676   3.888   2.560   5.887  0.0654 -0.0070  0.2874
  745MOL0     C 2677   4.028   2.568   5.905  0.2449 -0.3754  0.7098
  745MOL0     C 2678   4.107   2.641   5.810 -0.2280 -0.6088 -0.6733
  745MOL0     C 2679   4.045   2.715   5.704 -0.5618 -0.0244  0.5357
  745MOL0     O 2680   4.111   2.808   5.631 -0.4046 -0.1735 -0.8310
  745MOL0     C 2681   4.206   2.751   5.538 -0.1574  0.2627  0.6289
  745MOL0     C 2682   4.352   2.807   5.552  0.0609 -0.3190 -0.2415
  745MOL0     C 2683   4.444   2.772   5.664 -0.0585  0.3351 -0.5412
  745MOL0     C 2684   4.475   2.628   5.668 -0.9285  0.5606  0.3313
  745MOL0     C 2685   4.542   2.590   5.795  0.1951  0.3933 -0.0614
  745MOL0     C 2686   4.581   2.441   5.796  1.0984  0.0141 -0.3632
  745MOL0     C 2687   4.658   2.391   5.918 -0.2432 -0.9476 -0.1287
  745MOL0     C 2688   4.667   2.237   5.917  0.0802 -0.1237 -0.0853
  745MOL0     N 2689   4.720   2.165   5.812 -0.8306  0.8911  0.2677
  745MOL0     C 2690   4.640   2.091   5.731  0.1201  0.6084 -0.7699
  745MOL0     C 2691   4.727   2.041   5.633  0.7220 -0.3712  0.2495
  745MOL0     C 2692   4.680   1.963   5.515  0.2372  0.1461  0.0976
  745MOL0     C 2693   4.585   2.046   5.428 -0.0070  0.5920 -0.9660
  745MOL0     C 2694   4.660   2.162   5.364  0.8084  0.4819  0.3106
  745MOL0     C 2695   4.584   2.273   5.294  0.6999  1.2109  0.4229
  745MOL0     O 2696   4.517   2.345   5.404  0.7664 -0.6553  0.0009
  745MOL0     C 2697   4.397   2.393   5.363 -0.6574 -0.5085  0.8002
  745MOL0     C 2698   4.289   2.348   5.437 -0.0464 -0.1723  0.2233
  745MOL0     C 2699   4.157   2.395   5.420 -0.3202  0.5227 -0.0699
  745MOL0     C 2700   4.053   2.342   5.517  0.4741 -0.3079 -0.4136
  745MOL0     C 2701   4.133   2.487   5.315 -0.7969 -0.8038  0.4296
  745MOL0     C 2702   4.004   2.545   5.281 -0.5593 -0.1158  0.1674
  745MOL0     O 2703   3.891   2.470   5.279 -0.5975 -0.2725 -0.4111
  745MOL0     C 2704   3.771   2.531   5.258 -0.1733  0.5279  0.3533
  745MOL0     C 2705   3.708   2.511   5.135 -0.1571  0.2602  0.3487
  745MOL0     C 2706   3.587   2.570   5.110  0.6927 -0.8360 -0.0552
  745MOL0     C 2707   3.521   2.647   5.198 -0.1511 -0.2332 -0.1978
  745MOL0     O 2708   3.394   2.701   5.163 -0.0315  0.3236 -0.2401
  745MOL0     C 2709   3.344   2.821   5.222  0.0404  0.6174  0.5704
  745MOL0     C 2710   3.259   2.791   5.350 -0.2325 -0.5429  0.9686
  745MOL0     C 2711   3.259   2.910   5.443  0.5989 -0.2278 -0.7150
  745MOL0     C 2712   3.169   3.033   5.396  0.1922  0.1521  0.2318
  745MOL0     C 2713   3.019   3.002   5.393  0.3893  0.4590  1.5356
  745MOL0     C 2714   2.926   3.106   5.337  0.0641 -0.4588  0.2218
  745MOL0     C 2715   2.937   3.151   5.188  0.6825 -0.7180 -1.1843
  745MOL0     C 2716   2.843   3.269   5.150 -0.5468  0.2951  0.3352
  745MOL0    Cl 2717   2.676   3.226   5.206  0.3759 -0.0844 -0.2584
  745MOL0     C 2718   3.585   2.669   5.323 -0.1566  0.2945  0.6023
  745MOL0     C 2719   3.713   2.611   5.349  0.1726  0.1402 -0.8513
  745MOL0     O 2720   4.007   2.664   5.249  0.2232 -0.8580  0.1502
  745MOL0     C 2721   4.249   2.538   5.241 -0.2822  0.2724  0.6527
  745MOL0     C 2722   4.383   2.491   5.268 -0.3496  0.1557 -0.2782
  745MOL0     N 2723   4.855   2.091   5.664  0.0816 -0.0581  0.0092
  745MOL0     N 2724   4.848   2.170   5.766  0.5926 -0.6154  0.0839
  745MOL0     C 2725   3.903   2.711   5.698 -0.3166 -0.3924  0.0931
  745MOL0     C 2726   3.836   2.636   5.783  1.1437 -0.0544  0.0641
  745MOL0     C 2727   3.679   2.403   6.164 -0.0676 -0.7010 -0.0900
  745MOL0     C 2728   3.614   2.320   6.070  0.7892 -1.0302  1.0780
  745MOL0     C 2729   3.519   2.237   6.109  0.8187  0.3813  0.2063
  745MOL0     C 2730   3.474   2.235   6.246 -0.4324 -0.7276  0.1397
  745MOL0     O 2731   3.383   2.134   6.269  0.0217 -0.2360 -0.8981
  745MOL0     C 2732   3.384   2.092   6.410  0.6523  0.0843  0.5771
  745MOL0     C 2733   3.312   1.959   6.410 -0.0340 -0.1148  0.4737
  745MOL0     C 2734   3.389   1.834   6.368  0.6773 -0.0230 -0.3720
  745MOL0     C 2735   3.358   1.781   6.221 -0.9950  0.1023 -0.0055
  745MOL0     C 2736   3.231   1.717   6.206  0.7449  0.7720 -0.5085
  745MOL0     C 2737   3.125   1.660   6.204  0.6494 -1.0741 -0.1563
  745MOL0     C 2738   3.523   2.326   6.333 -0.5620 -0.4260  0.3586
  745MOL0     C 2739   3.630   2.411   6.297 -0.2330 -0.2395 -0.2294
  745MOL0     C 2740   3.692   2.506   6.398  0.2663 -0.5132  0.2080
  745MOL0     H 2741   4.074   2.513   5.986 -2.5245 -1.9280  1.3426
  745MOL0     H 2742   4.215   2.648   5.821 -0.1435 -2.7520  0.5840
  745MOL0     H 2743   4.169   2.779   5.439 -1.5573 -1.1110  0.7197
  745MOL0     H 2744   4.196   2.642   5.538 -0.9769  0.3284 -0.1729
  745MOL0     H 2745   4.395   2.793   5.452 -0.4682  1.0454 -0.6863
  745MOL0     H 2746   4.342   2.915   5.565 -3.2178 -0.5049 -0.4322
  745MOL0     H 2747   4.529   2.838   5.648 -0.1459 -0.1541 -3.6073
  745MOL0     H 2748   4.405   2.799   5.762 -0.9821 -0.9300 -0.5304
  745MOL0     H 2749   4.385   2.566   5.667  0.6267 -1.8512  0.4685
  745MOL0     H 2750   4.529   2.600   5.576 -1.8949  0.1692 -0.1345
  745MOL0     H 2751   4.460   2.611   5.863 -1.1901 -0.9689 -1.2197
  745MOL0     H 2752   4.616   2.664   5.827 -0.6747 -0.2997  4.0446
  745MOL0     H 2753   4.490   2.383   5.777  1.3101  0.2757 -2.3659
  745MOL0     H 2754   4.648   2.423   5.711  1.8920  2.8250 -0.4542
  745MOL0     H 2755   4.621   2.431   6.013  0.7438 -3.3110  1.3329
  745MOL0     H 2756   4.761   2.425   5.904 -1.1626  2.2429 -0.0258
  745MOL0     H 2757   4.709   2.199   6.011  0.8238  1.5820  0.3042
  745MOL0     H 2758   4.562   2.207   5.912  0.0341  0.2720 -2.1195
  745MOL0     H 2759   4.532   2.084   5.729  0.0610  1.0622  0.3086
  745MOL0     H 2760   4.622   1.879   5.555  2.6672 -0.0968  3.6543
  745MOL0     H 2761   4.757   1.911   5.458  1.1223  0.6786  0.7687
  745MOL0     H 2762   4.539   1.979   5.355 -0.4483  1.1133 -1.1806
  745MOL0     H 2763   4.507   2.081   5.497 -1.9592 -0.2657 -2.6322
  745MOL0     H 2764   4.710   2.214   5.446  2.6121 -0.3789 -0.1860
  745MOL0     H 2765   4.748   2.131   5.306 -0.6695  4.2646 -4.6210
  745MOL0     H 2766   4.650   2.335   5.233  0.9918 -1.5146 -2.2856
  745MOL0     H 2767   4.508   2.228   5.229  0.4088  0.7714  1.0622
  745MOL0     H 2768   4.310   2.282   5.520  3.0468  0.6298  0.1920
  745MOL0     H 2769   4.076   2.254   5.577 -1.3208 -1.6625 -1.6030
  745MOL0     H 2770   3.963   2.314   5.461  1.0858  1.1719 -2.2553
  745MOL0     H 2771   4.018   2.429   5.574 -0.1885 -0.8653  0.0398
  745MOL0     H 2772   3.758   2.445   5.064  1.7173 -0.7791  2.5283
  745MOL0     H 2773   3.543   2.535   5.017  0.8892  3.1424 -1.8805
  745MOL0     H 2774   3.422   2.897   5.233  2.4515 -1.5091 -0.7687
  745MOL0     H 2775   3.268   2.853   5.150 -0.6056  2.1488  1.8892
  745MOL0     H 2776   3.155   2.761   5.334 -0.2710  0.5690 -1.1838
  745MOL0     H 2777   3.309   2.713   5.408 -1.1031  0.5647  3.3417
  745MOL0     H 2778   3.361   2.945   5.426  0.6676 -1.8526 -5.0804
  745MOL0     H 2779   3.236   2.871   5.542 -0.8706 -0.1454 -1.0073
  745MOL0     H 2780   3.192   3.064   5.294 -1.1089 -0.7568 -0.3630
  745MOL0     H 2781   3.190   3.118   5.461  2.1579 -0.2689  0.2023
  745MOL0     H 2782   3.000   2.907   5.341  0.6282  0.9390  0.5495
  745MOL0     H 2783   2.979   2.989   5.494 -0.2187 -0.4860  1.1915
  745MOL0     H 2784   2.925   3.197   5.399 -0.6547  0.6283 -1.3156
  745MOL0     H 2785   2.827   3.062   5.349  0.8757 -2.4178  0.1313
  745MOL0     H 2786   2.912   3.069   5.121 -0.3899 -0.2961 -1.3211
  745MOL0     H 2787   3.036   3.193   5.168  1.2987 -1.0244  0.9708
  745MOL0     H 2788   2.841   3.302   5.046  2.6787  1.0708  0.4288
  745MOL0     H 2789   2.880   3.352   5.212 -0.3396 -1.4997  2.7500
  745MOL0     H 2790   3.541   2.740   5.392  0.7158  3.0964 -1.5013
  745MOL0     H 2791   3.757   2.642   5.443  2.0476  1.0643 -1.9712
  745MOL0     H 2792   4.238   2.611   5.162 -0.0931  1.0575  1.3376
  745MOL0     H 2793   4.462   2.538   5.210 -0.2263  0.2348 -0.0437
  745MOL0     H 2794   3.864   2.782   5.626 -1.5355 -2.6569 -1.5965
  745MOL0     H 2795   3.730   2.624   5.765  0.9479  1.7039 -0.1612
  745MOL0     H 2796   3.626   2.346   5.965 -0.9076  0.3393  1.1935
  745MOL0     H 2797   3.467   2.180   6.032 -0.4760  0.7009  0.8185
  745MOL0     H 2798   3.484   2.073   6.452 -0.2929 -2.6439  1.8272
  745MOL0     H 2799   3.330   2.163   6.473  1.6404 -0.3192  1.9316
  745MOL0     H 2800   3.216   1.959   6.357  0.7177 -1.1257 -0.9433
  745MOL0     H 2801   3.283   1.946   6.515 -1.3810 -1.1348  0.0127
  745MOL0     H 2802   3.495   1.861   6.372  0.7896 -0.6035  2.4687
  745MOL0     H 2803   3.388   1.753   6.442  0.0225  0.3871  0.0732
  745MOL0     H 2804   3.443   1.718   6.191 -1.2687  0.3665 -1.3992
  745MOL0     H 2805   3.365   1.857   6.143 -0.1081 -1.3740 -1.4394
  745MOL0     H 2806   3.042   1.592   6.204  2.1629 -3.0575 -0.7569
  745MOL0     H 2807   3.511   2.331   6.441  2.4503  0.2950  0.7524
  745MOL0     H 2808   3.652   2.488   6.499  0.4020  0.4762  0.4457
  745MOL0     H 2809   3.801   2.502   6.395  0.4975  2.8954  0.5235
  745MOL0     H 2810   3.663   2.608   6.375  0.6981 -0.1912  1.0343
  746MOL0     O 2811   6.238   8.753   8.480  0.1665  0.4324  0.1523
  746MOL0     C 2812   6.316   8.757   8.384 -0.4265  0.1769 -0.3667
  746MOL0     O 2813   6.336   8.647   8.310  0.1829  0.1591 -0.5037
  746MOL0     C 2814   6.286   8.517   8.323 -0.0438 -0.3636 -0.0567
  746MOL0     C 2815   6.283   8.440   8.209  0.3749  0.1525  0.7151
  746MOL0     C 2816   6.246   8.305   8.206  0.1118  0.4301 -1.0148
  746MOL0     C 2817   6.215   8.242   8.327 -0.5023 -0.2836  0.1320
  746MOL0     O 2818   6.180   8.109   8.326  0.1280  0.0391 -0.4731
  746MOL0     C 2819   6.052   8.070   8.374  1.1093 -0.2045  0.0658
  746MOL0     C 2820   6.052   7.916   8.385 -0.9404 -0.4535 -0.5796
  746MOL0     C 2821   5.934   7.870   8.474  0.5167 -0.0361 -0.2839
  746MOL0     C 2822   5.798   7.911   8.424 -0.2220 -0.0231  0.1458
  746MOL0     C 2823   5.696   7.871   8.534 -0.4017 -0.5046  0.0103
  746MOL0     C 2824   5.675   7.714   8.539 -1.1400 -0.4212 -0.7832
  746MOL0     C 2825   5.533   7.658   8.561  0.2186 -0.1600 -0.2812
  746MOL0     C 2826   5.446   7.710   8.677  0.1856 -0.2711 -1.1632
  746MOL0     N 2827   5.531   7.726   8.796 -0.8105 -0.6318  0.0519
  746MOL0     C 2828   5.541   7.632   8.898  0.1538  0.0320 -0.0643
  746MOL0     C 2829   5.630   7.684   8.982  0.9175  0.3780  0.3603
  746MOL0     C 2830   5.684   7.638   9.106  0.2430 -1.0840 -0.5331
  746MOL0     C 2831   5.586   7.553   9.197 -0.3523 -0.2661 -0.2581
  746MOL0     C 2832   5.599   7.414   9.150 -0.2059 -1.3534 -0.4010
  746MOL0     C 2833   5.496   7.317   9.200  0.3085 -0.6621  0.6918
  746MOL0     O 2834   5.518   7.302   9.333  0.6248  0.6011  0.3373
  746MOL0     C 2835   5.419   7.255   9.409  0.2995  1.1407 -0.0652
  746MOL0     C 2836   5.310   7.346   9.430  0.5103  0.2242 -0.0845
  746MOL0     C 2837   5.213   7.310   9.526  0.6997  0.7475 -1.1065
  746MOL0     C 2838   5.105   7.418   9.528  0.7762 -0.4426 -0.3179
  746MOL0     C 2839   5.219   7.184   9.593 -0.8347 -0.8495  0.9733
  746MOL0     C 2840   5.120   7.148   9.693 -0.4932  0.0436 -0.2155
  746MOL0     O 2841   5.141   7.025   9.742 -1.1822 -1.1015 -0.2132
  746MOL0     C 2842   5.044   6.967   9.815 -0.3329  0.6697 -0.5201
  746MOL0     C 2843   4.991   7.015   9.934  0.1156 -0.7193  0.3825
  746MOL0     C 2844   4.886   6.960  10.005 -0.3526 -0.7411 -0.3491
  746MOL0     C 2845   4.823   6.847   9.945  0.9282 -0.5625  0.0416
  746MOL0     O 2846   4.712   6.791   9.985  0.4146  0.2971 -0.2242
  746MOL0     C 2847   4.632   6.860  10.082 -0.4321 -1.0581 -0.3356
  746MOL0     C 2848   4.498   6.784  10.071  0.5364 -0.4684 -0.6588
  746MOL0     C 2849   4.483   6.666  10.159  0.0191 -0.2052 -0.2376
  746MOL0     C 2850   4.338   6.609  10.148  0.2049  0.5561 -0.1949
  746MOL0     C 2851   4.334   6.491  10.247 -0.3245  0.0646  0.6766
  746MOL0     C 2852   4.192   6.417  10.243  0.0388  0.3665 -0.3509
  746MOL0     C 2853   4.181   6.331  10.368  0.0247 -0.2952  0.0902
  746MOL0     C 2854   4.054   6.233  10.370 -1.3696  0.3180  0.2926
  746MOL0    Cl 2855   4.061   6.101  10.258  0.6358 -0.3352  0.0041
  746MOL0     C 2856   4.882   6.790   9.829  0.7122  0.1424  0.2333
  746MOL0     C 2857   5.001   6.849   9.766  0.0488 -0.0962 -0.3335
  746MOL0     O 2858   5.035   7.225   9.738 -0.7615 -0.0358  1.2454
  746MOL0     C 2859   5.328   7.109   9.571  0.2143  0.2703  0.6225
  746MOL0     C 2860   5.425   7.139   9.475 -0.6983 -0.2059  0.4632
  746MOL0     N 2861   5.669   7.811   8.943 -0.5235  0.5211  0.2495
  746MOL0     N 2862   5.610   7.837   8.839  0.3715 -0.3449  0.3288
  746MOL0     C 2863   6.213   8.320   8.441  0.7450 -0.1387  0.0126
  746MOL0     C 2864   6.254   8.456   8.444  0.4690 -1.3096 -0.8521
  746MOL0     C 2865   6.402   8.880   8.351 -0.5164 -0.5523  0.1463
  746MOL0     C 2866   6.467   8.886   8.221  0.8021 -0.2831  0.8609
  746MOL0     C 2867   6.540   8.994   8.173  0.3970 -1.0418 -0.8479
  746MOL0     C 2868   6.548   9.111   8.258  0.1980 -0.3547 -0.0329
  746MOL0     O 2869   6.636   9.217   8.250  0.0433 -0.1768 -0.7189
  746MOL0     C 2870   6.738   9.207   8.153 -0.6220  0.5141  0.2454
  746MOL0     C 2871   6.833   9.318   8.171 -0.1206  0.4676  0.0265
  746MOL0     C 2872   6.892   9.367   8.033  0.2652  0.4926 -0.0659
  746MOL0     C 2873   7.027   9.431   8.030  0.9181  0.1875 -0.5645
  746MOL0     C 2874   7.037   9.549   8.114 -0.0351  0.7955  0.1030
  746MOL0     C 2875   7.063   9.646   8.189  0.1806  0.5988 -0.4054
  746MOL0     C 2876   6.476   9.110   8.381 -0.2857  0.1856 -0.1453
  746MOL0     C 2877   6.420   8.992   8.436 -0.1471 -0.6597 -0.2364
  746MOL0     C 2878   6.383   8.989   8.585  0.1294 -0.2455  0.1309
  746MOL0     H 2879   6.320   8.493   8.121  4.3649 -1.5877  1.1513
  746MOL0     H 2880   6.247   8.235   8.123  0.1850 -1.3971  0.4405
  746MOL0     H 2881   5.965   8.108   8.320 -0.7443 -1.1985  2.1854
  746MOL0     H 2882   6.047   8.106   8.477  1.0238  0.6355 -0.2205
  746MOL0     H 2883   6.039   7.878   8.283  1.9115 -1.9666 -0.4567
  746MOL0     H 2884   6.142   7.870   8.425 -0.0649  2.0897  0.5630
  746MOL0     H 2885   5.937   7.761   8.479 -2.9832 -0.2413  0.1015
  746MOL0     H 2886   5.943   7.902   8.578  0.2004 -1.1288  0.0888
  746MOL0     H 2887   5.789   8.020   8.419 -1.7287 -0.0490  1.5222
  746MOL0     H 2888   5.771   7.884   8.321  0.1731  0.7009 -0.1574
  746MOL0     H 2889   5.606   7.928   8.510  0.6642  1.3366  0.2206
  746MOL0     H 2890   5.737   7.909   8.628  1.0211  0.4344 -0.9417
  746MOL0     H 2891   5.705   7.672   8.443  2.4182 -1.2230  0.5311
  746MOL0     H 2892   5.735   7.682   8.624 -2.5202 -2.7516 -0.5978
  746MOL0     H 2893   5.537   7.549   8.557  0.2654 -0.1530 -0.4136
  746MOL0     H 2894   5.473   7.677   8.472  0.4627 -1.7656 -0.8170
  746MOL0     H 2895   5.398   7.807   8.660  2.4124  1.0972 -0.0514
  746MOL0     H 2896   5.361   7.644   8.699 -1.1995  1.6270 -0.5195
  746MOL0     H 2897   5.496   7.534   8.882  0.5657 -0.0856 -0.5106
  746MOL0     H 2898   5.716   7.720   9.171 -1.0415  1.1712 -2.5694
  746MOL0     H 2899   5.770   7.572   9.089 -0.9971 -2.8411 -0.1854
  746MOL0     H 2900   5.597   7.570   9.305 -5.4803  0.0324  0.4846
  746MOL0     H 2901   5.481   7.583   9.190  0.0649  1.5796  0.6275
  746MOL0     H 2902   5.581   7.411   9.042  1.2973 -0.7952 -0.7026
  746MOL0     H 2903   5.701   7.382   9.174  0.2626  2.1750  3.2022
  746MOL0     H 2904   5.401   7.365   9.175 -0.6902 -3.0951 -0.5230
  746MOL0     H 2905   5.504   7.225   9.142  0.2640  0.6824 -1.5461
  746MOL0     H 2906   5.301   7.429   9.360 -2.1203  1.5999  1.7202
  746MOL0     H 2907   5.140   7.503   9.469  3.2491 -2.2180 -1.6676
  746MOL0     H 2908   5.082   7.445   9.631 -0.5857  3.5005 -1.4891
  746MOL0     H 2909   5.013   7.383   9.481  2.7887 -2.3859 -3.1479
  746MOL0     H 2910   5.022   7.112   9.971 -4.5780  1.6924 -1.2611
  746MOL0     H 2911   4.865   7.008  10.100  2.5637 -0.5407  0.2695
  746MOL0     H 2912   4.685   6.868  10.178  0.5103  3.0583 -1.0172
  746MOL0     H 2913   4.608   6.965  10.060  0.1087 -0.4074  1.9389
  746MOL0     H 2914   4.425   6.851  10.117  0.5950 -1.7324  1.3679
  746MOL0     H 2915   4.471   6.767   9.966  1.9532 -1.7635 -0.8494
  746MOL0     H 2916   4.497   6.706  10.260  0.4497  2.0841 -1.1472
  746MOL0     H 2917   4.553   6.583  10.146 -0.7385 -0.7686 -0.7996
  746MOL0     H 2918   4.318   6.559  10.053  0.9790  0.2487 -0.2063
  746MOL0     H 2919   4.254   6.678  10.158 -0.7700 -0.4022 -1.4053
  746MOL0     H 2920   4.407   6.412  10.228 -0.7092 -0.8236  2.5328
  746MOL0     H 2921   4.365   6.521  10.348  0.9107  1.6916 -0.1473
  746MOL0     H 2922   4.177   6.361  10.150 -0.9022  1.6109 -0.9735
  746MOL0     H 2923   4.110   6.489  10.235  2.1247  2.6995 -3.0800
  746MOL0     H 2924   4.175   6.388  10.461 -2.0780  0.1352 -0.2581
  746MOL0     H 2925   4.271   6.269  10.370  1.3266  1.5367  0.8092
  746MOL0     H 2926   3.958   6.284  10.358 -1.7241 -0.2754  0.5429
  746MOL0     H 2927   4.043   6.189  10.469  1.9231 -0.7145  0.3033
  746MOL0     H 2928   4.836   6.700   9.789  0.9784 -1.0344  2.4009
  746MOL0     H 2929   5.044   6.814   9.673  0.7778 -0.9006  0.2809
  746MOL0     H 2930   5.332   7.011   9.617 -0.3484  0.8740  2.0313
  746MOL0     H 2931   5.515   7.079   9.466  0.3390  1.0881  1.7599
  746MOL0     H 2932   6.165   8.272   8.525  2.2102  0.3278  1.1495
  746MOL0     H 2933   6.238   8.512   8.535  2.5754 -0.4152 -0.9665
  746MOL0     H 2934   6.461   8.795   8.161  0.1492  1.2807 -1.5830
  746MOL0     H 2935   6.573   8.997   8.069 -1.1376 -2.3824 -1.4194
  746MOL0     H 2936   6.796   9.118   8.178  0.4550  1.3324  0.7295
  746MOL0     H 2937   6.694   9.200   8.053  0.0561 -3.5827  0.0770
  746MOL0     H 2938   6.914   9.276   8.231  0.1086 -0.7414 -1.0968
  746MOL0     H 2939   6.783   9.403   8.219 -1.4718 -0.4708  0.3355
  746MOL0     H 2940   6.892   9.275   7.973  5.0539  0.0929  0.1332
  746MOL0     H 2941   6.828   9.441   7.985 -1.2847 -1.0753 -0.5546
  746MOL0     H 2942   7.062   9.443   7.927  4.7226 -1.5760  0.3411
  746MOL0     H 2943   7.093   9.359   8.080 -2.2656 -1.6453  1.3481
  746MOL0     H 2944   7.072   9.746   8.225 -1.2529  1.0360 -1.1834
  746MOL0     H 2945   6.491   9.191   8.451 -1.2851 -1.2488  1.8359
  746MOL0     H 2946   6.274   8.993   8.593  0.2390  0.1478  1.9408
  746MOL0     H 2947   6.423   8.897   8.627 -0.1774  0.6029  2.4429
  746MOL0     H 2948   6.423   9.077   8.636  1.9136 -0.4503 -0.8463
  747MOL0     O 2949   3.064   2.452   5.267  0.0856 -0.5963 -0.0646
  747MOL0     C 2950   3.025   2.526   5.358 -0.1026 -0.1892  1.4195
  747MOL0     O 2951   2.932   2.624   5.350 -0.5329 -0.1866 -1.0052
  747MOL0     C 2952   2.864   2.641   5.235  0.0636 -0.5696  0.3179
  747MOL0     C 2953   2.735   2.613   5.233  1.2374 -0.9477  0.6378
  747MOL0     C 2954   2.656   2.612   5.120  0.4060 -0.4076 -0.2027
  747MOL0     C 2955   2.717   2.645   4.996  0.1369 -0.2921 -0.4883
  747MOL0     O 2956   2.641   2.665   4.890  0.7254  0.0695  0.2970
  747MOL0     C 2957   2.580   2.794   4.884  0.3721 -0.3708  0.4531
  747MOL0     C 2958   2.678   2.902   4.815  0.6952 -0.1693 -0.7946
  747MOL0     C 2959   2.607   3.039   4.806 -1.1244  0.3162  0.6483
  747MOL0     C 2960   2.520   3.049   4.678  0.5230  0.1142  0.3576
  747MOL0     C 2961   2.606   3.060   4.548  0.1329 -1.3046 -0.5562
  747MOL0     C 2962   2.521   3.079   4.423  0.2793 -0.3833 -0.6474
  747MOL0     C 2963   2.585   3.074   4.286 -0.2328 -1.3394  0.8050
  747MOL0     C 2964   2.482   3.069   4.171  0.8561  1.0089  0.3623
  747MOL0     N 2965   2.521   2.967   4.078  0.0495 -0.9166  0.9746
  747MOL0     C 2966   2.475   2.836   4.081 -0.0761  1.1237  0.1812
  747MOL0     C 2967   2.518   2.782   3.966 -0.1104 -1.1623 -0.3914
  747MOL0     C 2968   2.493   2.656   3.907  0.4761 -0.4778 -0.1322
  747MOL0     C 2969   2.555   2.538   3.975  0.4500 -0.2593  0.1576
  747MOL0     C 2970   2.711   2.549   3.977  0.0484  0.1480  0.2761
  747MOL0     C 2971   2.772   2.428   4.041  0.3165  0.8341  0.2608
  747MOL0     O 2972   2.718   2.405   4.174 -0.4616  0.8010  0.4380
  747MOL0     C 2973   2.784   2.308   4.250 -0.5173 -0.1373  0.8410
  747MOL0     C 2974   2.832   2.196   4.187  0.7680 -0.4516  0.0309
  747MOL0     C 2975   2.867   2.085   4.268  0.0338  0.3407  0.0857
  747MOL0     C 2976   2.933   1.973   4.191 -1.0739  0.4924  0.4651
  747MOL0     C 2977   2.865   2.093   4.408  0.3233 -0.3462  0.0359
  747MOL0     C 2978   2.911   1.976   4.485  0.6786 -1.0645 -0.0095
  747MOL0     O 2979   2.949   2.005   4.610 -0.1416 -0.2286  0.4301
  747MOL0     C 2980   2.993   1.906   4.692  0.9463 -0.2889 -0.8043
  747MOL0     C 2981   2.907   1.793   4.716  0.2928  0.3204  0.3737
  747MOL0     C 2982   2.939   1.700   4.819  0.1042 -1.1533  0.3105
  747MOL0     C 2983   3.046   1.714   4.902 -0.2602 -0.1853  0.6923
  747MOL0     O 2984   3.060   1.620   5.006  0.3441 -0.1785 -0.1261
  747MOL0     C 2985   3.178   1.540   4.986  0.1659 -1.2055 -0.8598
  747MOL0     C 2986   3.192   1.450   5.109 -0.2508  0.2654  1.3608
  747MOL0     C 2987   3.150   1.517   5.243 -0.6666  0.0941 -0.3463
  747MOL0     C 2988   3.236   1.469   5.355 -0.4641  0.7573 -0.5896
  747MOL0     C 2989   3.185   1.494   5.497 -0.8210 -0.1875  0.1593
  747MOL0     C 2990   3.287   1.476   5.609 -0.1443  0.2757 -0.5776
  747MOL0     C 2991   3.317   1.329   5.641  0.7727  0.6441  0.6706
  747MOL0     C 2992   3.190   1.251   5.675  0.5589 -1.1541  0.9567
  747MOL0    Cl 2993   3.256   1.115   5.764  0.1075 -0.0628 -0.2745
  747MOL0     C 2994   3.118   1.835   4.891 -0.3434  0.4138  0.0410
  747MOL0     C 2995   3.096   1.928   4.786  0.5195  0.4544 -0.4281
  747MOL0     O 2996   2.875   1.863   4.443 -1.1170 -0.7826  0.2178
  747MOL0     C 2997   2.827   2.219   4.459 -0.1380 -0.5955 -0.5035
  747MOL0     C 2998   2.781   2.324   4.383  0.3475  0.5221 -0.0263
  747MOL0     N 2999   2.588   2.882   3.897  0.3830  0.3726 -0.1227
  747MOL0     N 3000   2.580   2.991   3.958  0.2561  0.1609 -0.5381
  747MOL0     C 3001   2.856   2.676   4.992 -0.6098 -0.1318 -0.4032
  747MOL0     C 3002   2.928   2.679   5.118  0.4957 -0.1876 -0.4425
  747MOL0     C 3003   3.096   2.502   5.492  0.1292  0.6383  0.2243
  747MOL0     C 3004   3.209   2.423   5.490 -0.8313  0.3605 -0.9907
  747MOL0     C 3005   3.267   2.391   5.614 -0.0446 -0.8642 -0.1296
  747MOL0     C 3006   3.214   2.432   5.738 -1.3978 -1.0664  0.2380
  747MOL0     O 3007   3.283   2.400   5.849  0.0892  0.1709 -0.3447
  747MOL0     C 3008   3.208   2.388   5.969 -0.1114  0.3380 -0.5421
  747MOL0     C 3009   3.134   2.247   5.988 -0.2834  0.5378  0.7529
  747MOL0     C 3010   2.993   2.240   5.936  0.3921  0.0836  1.2857
  747MOL0     C 3011   2.883   2.348   5.983  0.1174  0.4013 -0.3399
  747MOL0     C 3012   2.850   2.358   6.126 -0.5076 -0.4150 -0.4533
  747MOL0     C 3013   2.798   2.369   6.235 -0.4213  0.5237 -0.1527
  747MOL0     C 3014   3.107   2.518   5.739  0.2720  0.6804 -0.3490
  747MOL0     C 3015   3.047   2.555   5.620 -0.3051 -0.3060 -0.1893
  747MOL0     C 3016   2.927   2.642   5.642 -0.1121 -0.4558  0.1591
  747MOL0     H 3017   2.688   2.571   5.322 -0.7543 -0.6481 -0.2032
  747MOL0     H 3018   2.551   2.588   5.106  0.6452 -0.0605 -3.1103
  747MOL0     H 3019   2.544   2.833   4.980 -0.6194  0.8443 -0.3777
  747MOL0     H 3020   2.486   2.772   4.831 -1.5226  0.8266  3.0828
  747MOL0     H 3021   2.773   2.907   4.868 -0.8572 -2.3644  2.4913
  747MOL0     H 3022   2.694   2.858   4.716 -0.2572 -6.9870  1.5235
  747MOL0     H 3023   2.551   3.055   4.899 -2.7589  3.7741 -0.7623
  747MOL0     H 3024   2.689   3.111   4.801 -1.1908  0.3032 -1.2776
  747MOL0     H 3025   2.441   2.975   4.685  2.4677 -2.3383 -1.7940
  747MOL0     H 3026   2.476   3.148   4.695  4.6732  2.2584 -0.0194
  747MOL0     H 3027   2.655   2.962   4.547 -1.6006 -2.2566  0.8437
  747MOL0     H 3028   2.686   3.135   4.551 -0.4807 -0.6509  1.7647
  747MOL0     H 3029   2.446   2.999   4.417  0.9242 -1.6761  4.1770
  747MOL0     H 3030   2.464   3.173   4.430  0.8213 -0.0045 -1.1939
  747MOL0     H 3031   2.646   2.984   4.277  0.1850 -0.9237 -0.8506
  747MOL0     H 3032   2.653   3.157   4.269  0.6557 -1.4669  3.4043
  747MOL0     H 3033   2.383   3.047   4.210  0.4274 -4.5460 -2.8701
  747MOL0     H 3034   2.478   3.162   4.115 -1.3341  0.5992 -0.2519
  747MOL0     H 3035   2.415   2.781   4.153 -0.6852 -1.9791 -2.4973
  747MOL0     H 3036   2.511   2.661   3.800 -1.6863  0.2787 -0.5095
  747MOL0     H 3037   2.386   2.639   3.922  0.6032 -2.7585 -1.3766
  747MOL0     H 3038   2.522   2.527   4.078  2.2694  2.0847  1.0763
  747MOL0     H 3039   2.534   2.449   3.915  0.9865 -0.7821  0.7463
  747MOL0     H 3040   2.750   2.555   3.875 -1.4577 -0.1203 -0.3572
  747MOL0     H 3041   2.740   2.639   4.031  0.5694  1.1838 -1.6425
  747MOL0     H 3042   2.748   2.344   3.976  1.1605 -0.4250  1.5229
  747MOL0     H 3043   2.879   2.452   4.043  0.5406 -0.1554  0.3669
  747MOL0     H 3044   2.838   2.198   4.079  3.6739  2.6106  0.0769
  747MOL0     H 3045   2.866   1.887   4.181  2.8282 -2.6771 -1.2503
  747MOL0     H 3046   3.022   1.937   4.244 -0.9431  0.1939  0.0531
  747MOL0     H 3047   2.965   2.008   4.092 -0.8110  1.1240  0.7662
  747MOL0     H 3048   2.823   1.773   4.650  0.7468 -2.4488  0.5025
  747MOL0     H 3049   2.879   1.610   4.822 -2.8857  0.6500 -0.3866
  747MOL0     H 3050   3.178   1.464   4.907  1.1979 -1.6990 -0.4081
  747MOL0     H 3051   3.265   1.604   4.970 -2.4560  2.7808 -0.6146
  747MOL0     H 3052   3.134   1.361   5.083 -0.9942  1.4077 -1.1695
  747MOL0     H 3053   3.299   1.425   5.114 -0.3261 -0.2788  0.4298
  747MOL0     H 3054   3.043   1.515   5.265 -0.8907  3.3437 -0.6447
  747MOL0     H 3055   3.169   1.624   5.235 -2.8426  1.1961  5.2955
  747MOL0     H 3056   3.337   1.508   5.340 -0.0440 -0.2805 -0.5547
  747MOL0     H 3057   3.245   1.360   5.344 -0.2872  0.2541  3.2946
  747MOL0     H 3058   3.152   1.598   5.502  0.4948  0.2466  0.1262
  747MOL0     H 3059   3.096   1.432   5.514  0.4927 -2.7274 -1.6038
  747MOL0     H 3060   3.233   1.523   5.692  4.3422  2.4598  1.4117
  747MOL0     H 3061   3.379   1.533   5.598  0.5266 -1.0816 -2.4356
  747MOL0     H 3062   3.392   1.328   5.721 -2.0521 -0.0937  3.5117
  747MOL0     H 3063   3.364   1.285   5.553 -4.0415  0.7887 -2.3170
  747MOL0     H 3064   3.132   1.223   5.586 -0.2858  2.0007  0.3647
  747MOL0     H 3065   3.142   1.324   5.741 -0.8452 -1.5933  0.4466
  747MOL0     H 3066   3.203   1.860   4.952  1.5443  0.8331 -2.5946
  747MOL0     H 3067   3.161   2.015   4.785  0.2638  0.7989  2.8081
  747MOL0     H 3068   2.827   2.233   4.567  0.6320  2.0058 -0.7555
  747MOL0     H 3069   2.747   2.418   4.427  0.7630 -0.3907  2.3643
  747MOL0     H 3070   2.916   2.686   4.902  1.1508 -0.6683  0.6607
  747MOL0     H 3071   3.033   2.704   5.128 -0.2929  3.5352 -0.0452
  747MOL0     H 3072   3.257   2.378   5.404  2.8668 -0.1391  1.1046
  747MOL0     H 3073   3.368   2.352   5.613  0.2374 -0.1780  0.5191
  747MOL0     H 3074   3.287   2.398   6.044 -0.7836 -0.5453  0.3188
  747MOL0     H 3075   3.146   2.474   5.994  1.5146  0.9557  1.6664
  747MOL0     H 3076   3.123   2.225   6.094  2.3498  1.2611  1.2267
  747MOL0     H 3077   3.200   2.175   5.939  0.2020 -0.7257  3.1357
  747MOL0     H 3078   2.984   2.229   5.828 -1.2312 -2.2713  1.5789
  747MOL0     H 3079   2.959   2.141   5.968  0.3110  0.2094  1.5935
  747MOL0     H 3080   2.792   2.315   5.933 -0.4168  1.1211  0.1374
  747MOL0     H 3081   2.910   2.448   5.948 -0.6372  1.0660  0.9191
  747MOL0     H 3082   2.754   2.367   6.333  1.6745  0.0397  0.8360
  747MOL0     H 3083   3.073   2.567   5.830 -1.1210  0.4518 -0.7362
  747MOL0     H 3084   2.892   2.638   5.745  1.4439  0.4977  0.7594
  747MOL0     H 3085   2.957   2.744   5.617  2.1239 -0.7757  1.2562
  747MOL0     H 3086   2.839   2.611   5.585  0.8901  0.8194 -2.1976
  748MOL0     O 3087   3.783   7.153   0.537 -0.3213  0.0398  0.1652
  748MOL0     C 3088   3.769   7.098   0.429 -0.6629 -0.3061 -0.1475
  748MOL0     O 3089   3.706   7.147   0.321 -0.4564  0.3400  0.7273
  748MOL0     C 3090   3.670   7.280   0.316  0.2161 -0.3308  0.2235
  748MOL0     C 3091   3.536   7.324   0.330 -0.7559  0.1623  0.1002
  748MOL0     C 3092   3.499   7.455   0.313 -0.1037  0.9818 -0.1044
  748MOL0     C 3093   3.588   7.542   0.248 -0.0140  0.5417  1.5039
  748MOL0     O 3094   3.550   7.673   0.229 -0.0885 -0.2765  0.1367
  748MOL0     C 3095   3.601   7.740   0.118 -0.6319  1.3368 -0.1712
  748MOL0     C 3096   3.519   7.695   0.005 -0.7387 -1.0846  0.5135
  748MOL0     C 3097   3.576   7.730  -0.132  0.3776  0.4011 -0.0972
  748MOL0     C 3098   3.505   7.644  -0.248  0.5574  0.1078  0.0249
  748MOL0     C 3099   3.534   7.705  -0.383 -0.1902 -0.0647  1.0128
  748MOL0     C 3100   3.532   7.612  -0.503  0.2772 -0.1785 -0.3299
  748MOL0     C 3101   3.612   7.670  -0.625  0.7660 -0.5347 -0.2446
  748MOL0     C 3102   3.759   7.636  -0.601 -0.2230  0.2162  0.2737
  748MOL0     N 3103   3.807   7.499  -0.634  0.5005 -0.4937  0.4273
  748MOL0     C 3104   3.922   7.428  -0.601 -0.3340 -0.2441 -0.8324
  748MOL0     C 3105   3.917   7.314  -0.676  0.8829 -0.0554 -0.1888
  748MOL0     C 3106   4.019   7.200  -0.659  0.1182 -0.4941 -0.2002
  748MOL0     C 3107   3.944   7.066  -0.629 -0.3942  0.4901  0.3505
  748MOL0     C 3108   4.032   6.941  -0.602  0.0879  0.1235 -0.8997
  748MOL0     C 3109   4.119   6.894  -0.711 -0.0242  0.3353  0.5780
  748MOL0     O 3110   4.195   6.772  -0.678  0.4888 -0.1124 -0.1762
  748MOL0     C 3111   4.149   6.643  -0.695 -0.0964 -0.5360 -0.6363
  748MOL0     C 3112   4.052   6.606  -0.787  0.0583  0.5502 -0.2597
  748MOL0     C 3113   4.003   6.472  -0.800  0.8144 -0.1593 -0.2028
  748MOL0     C 3114   3.914   6.430  -0.920  0.3392 -0.3691  0.6053
  748MOL0     C 3115   4.037   6.376  -0.701 -1.0665 -0.2218  1.4580
  748MOL0     C 3116   3.994   6.240  -0.713 -0.6975  0.2400 -0.0161
  748MOL0     O 3117   3.915   6.186  -0.616  0.8106  0.6693 -0.4016
  748MOL0     C 3118   3.842   6.067  -0.626 -0.0613  0.0534  0.0350
  748MOL0     C 3119   3.751   6.035  -0.522 -0.0863 -0.2901 -0.3826
  748MOL0     C 3120   3.663   5.927  -0.534  0.1532 -0.5925 -0.0002
  748MOL0     C 3121   3.668   5.841  -0.646 -0.7622 -0.1411 -0.7513
  748MOL0     O 3122   3.587   5.735  -0.656  0.7132  0.3043  0.2622
  748MOL0     C 3123   3.494   5.755  -0.768  1.0026  0.2613 -0.6478
  748MOL0     C 3124   3.349   5.706  -0.744  0.3876 -1.0314  0.2473
  748MOL0     C 3125   3.281   5.771  -0.617  0.0344  0.3246 -0.5016
  748MOL0     C 3126   3.140   5.726  -0.584  0.6989  1.1572  0.3917
  748MOL0     C 3127   3.097   5.758  -0.431  0.4555  0.2045  0.0812
  748MOL0     C 3128   2.986   5.659  -0.382  0.6917 -0.9938  0.2994
  748MOL0     C 3129   3.049   5.509  -0.384  1.0478  0.9745  0.4008
  748MOL0     C 3130   2.994   5.443  -0.252  0.0899 -0.1720 -0.5554
  748MOL0    Cl 3131   2.802   5.429  -0.241  0.0940  0.1671 -0.0973
  748MOL0     C 3132   3.766   5.861  -0.739  0.6480 -0.4549  0.7715
  748MOL0     C 3133   3.844   5.979  -0.737  0.1169 -0.3681 -0.4940
  748MOL0     O 3134   4.025   6.184  -0.819 -0.5214  0.6829 -0.1005
  748MOL0     C 3135   4.126   6.415  -0.596  0.1245  0.6427 -0.6647
  748MOL0     C 3136   4.177   6.548  -0.592 -0.1916 -0.7828  0.0746
  748MOL0     N 3137   3.804   7.324  -0.766  0.5331 -0.0237 -0.4641
  748MOL0     N 3138   3.739   7.433  -0.734  0.2091 -0.6079 -0.7568
  748MOL0     C 3139   3.723   7.493   0.228 -0.2863 -1.1144 -0.5782
  748MOL0     C 3140   3.761   7.364   0.269  0.0620 -0.7793  0.2883
  748MOL0     C 3141   3.821   6.958   0.405 -0.0059  0.5467  0.0986
  748MOL0     C 3142   3.771   6.856   0.490 -0.3555 -0.3261 -0.0470
  748MOL0     C 3143   3.802   6.719   0.480 -0.4277  0.1011 -0.2998
  748MOL0     C 3144   3.879   6.686   0.370 -0.2174  0.2685  0.7603
  748MOL0     O 3145   3.925   6.557   0.341  0.9195 -0.1099  0.1118
  748MOL0     C 3146   3.939   6.440   0.418  0.1206  0.1504  0.0413
  748MOL0     C 3147   4.048   6.449   0.532 -0.0895  0.3028  0.1902
  748MOL0     C 3148   4.185   6.487   0.479  0.5962  0.0178 -0.0501
  748MOL0     C 3149   4.262   6.368   0.421  0.2196  0.4532  1.5533
  748MOL0     C 3150   4.398   6.398   0.391  0.4950 -0.5981 -0.8187
  748MOL0     C 3151   4.515   6.407   0.376 -0.0770  0.0844  0.7827
  748MOL0     C 3152   3.917   6.776   0.276  0.0231 -0.1817 -0.4950
  748MOL0     C 3153   3.888   6.913   0.290 -0.4216 -0.8848  0.5145
  748MOL0     C 3154   3.921   7.016   0.171 -0.1316 -0.4770 -0.4204
  748MOL0     H 3155   3.464   7.250   0.364 -2.0738  0.1429 -2.5290
  748MOL0     H 3156   3.400   7.486   0.344  0.8607  0.9105  3.6332
  748MOL0     H 3157   3.708   7.727   0.102 -0.5366  0.3653  1.0500
  748MOL0     H 3158   3.582   7.847   0.131  1.3127  1.8681 -1.3512
  748MOL0     H 3159   3.505   7.587   0.011  1.5945 -1.6565 -1.9880
  748MOL0     H 3160   3.428   7.752   0.020 -1.3926 -1.6443 -1.1142
  748MOL0     H 3161   3.563   7.838  -0.144  0.1107  0.4224  0.3539
  748MOL0     H 3162   3.681   7.700  -0.139  0.7517  1.7682 -0.5934
  748MOL0     H 3163   3.546   7.543  -0.243 -0.2536 -0.1658  2.5321
  748MOL0     H 3164   3.398   7.636  -0.227  0.4242 -1.0325 -0.9594
  748MOL0     H 3165   3.631   7.757  -0.381  1.6339 -3.1840 -0.1785
  748MOL0     H 3166   3.457   7.780  -0.404 -0.9551 -0.0481  3.5465
  748MOL0     H 3167   3.565   7.513  -0.471  2.6482  1.6204  3.5828
  748MOL0     H 3168   3.427   7.605  -0.534 -0.2188  0.1156  1.1555
  748MOL0     H 3169   3.601   7.779  -0.631  4.6809  0.1696  1.9317
  748MOL0     H 3170   3.578   7.621  -0.717  0.3100 -0.3719 -0.1625
  748MOL0     H 3171   3.823   7.707  -0.654  1.6517 -1.2834  0.3962
  748MOL0     H 3172   3.782   7.653  -0.495 -0.9167 -2.1737  0.8771
  748MOL0     H 3173   3.996   7.445  -0.524 -2.5130 -1.6803  1.7874
  748MOL0     H 3174   4.096   7.235  -0.589  3.1251 -2.9051 -2.0307
  748MOL0     H 3175   4.092   7.199  -0.740  1.5132  4.1165  0.7047
  748MOL0     H 3176   3.874   7.069  -0.544 -2.5295 -0.6117 -1.2614
  748MOL0     H 3177   3.877   7.043  -0.713  1.0956  1.5412 -1.1921
  748MOL0     H 3178   4.093   6.958  -0.513 -1.0615  1.1249 -0.2704
  748MOL0     H 3179   3.965   6.857  -0.581  2.9771 -2.1428 -0.2045
  748MOL0     H 3180   4.073   6.874  -0.808 -0.4288 -2.5165  1.2765
  748MOL0     H 3181   4.193   6.974  -0.724 -0.2485  0.8566  2.3143
  748MOL0     H 3182   4.008   6.678  -0.856 -3.2408 -1.6880 -0.7068
  748MOL0     H 3183   3.830   6.369  -0.884 -2.5214  0.5908 -3.6933
  748MOL0     H 3184   3.964   6.377  -1.001  1.0021  0.0693  0.7216
  748MOL0     H 3185   3.870   6.520  -0.965  0.3331 -1.6450 -2.1368
  748MOL0     H 3186   3.757   6.102  -0.436  1.6814 -0.4420 -0.3545
  748MOL0     H 3187   3.587   5.910  -0.458  1.6375 -0.2354  1.6395
  748MOL0     H 3188   3.476   5.859  -0.794  1.0372  0.0648 -1.5139
  748MOL0     H 3189   3.529   5.691  -0.850  2.3883 -2.0716  1.6066
  748MOL0     H 3190   3.304   5.744  -0.836  2.1914  1.6933  0.3683
  748MOL0     H 3191   3.346   5.597  -0.738 -0.8163 -1.0171  0.0783
  748MOL0     H 3192   3.275   5.880  -0.627 -0.5259  0.3170 -0.2910
  748MOL0     H 3193   3.350   5.751  -0.534  4.0490  0.9186 -3.3866
  748MOL0     H 3194   3.136   5.618  -0.599 -0.6551  1.1336  0.7481
  748MOL0     H 3195   3.064   5.767  -0.651  0.5089  0.8833  0.4370
  748MOL0     H 3196   3.188   5.748  -0.372 -0.7616 -1.4493  1.7761
  748MOL0     H 3197   3.070   5.863  -0.412  0.0825  0.3950 -1.3672
  748MOL0     H 3198   2.899   5.668  -0.449  0.9668 -2.1780 -0.2535
  748MOL0     H 3199   2.952   5.687  -0.282  1.4109 -1.2797  0.6324
  748MOL0     H 3200   3.159   5.508  -0.387  1.0898 -1.2147  0.8924
  748MOL0     H 3201   3.017   5.453  -0.472  4.2835  0.0042 -0.3117
  748MOL0     H 3202   3.014   5.492  -0.156  0.2522 -0.4151 -0.4654
  748MOL0     H 3203   3.055   5.353  -0.262  0.4090  0.1171 -1.2911
  748MOL0     H 3204   3.762   5.789  -0.821  0.3755 -0.7945  1.0828
  748MOL0     H 3205   3.895   6.010  -0.828 -1.3107  1.9637 -0.5560
  748MOL0     H 3206   4.147   6.345  -0.515 -2.2196 -0.0534 -0.5852
  748MOL0     H 3207   4.250   6.573  -0.516  0.0922 -3.2671  0.7005
  748MOL0     H 3208   3.803   7.557   0.190 -1.9252  1.5960  0.2909
  748MOL0     H 3209   3.865   7.334   0.265 -0.0125 -1.0361  0.2691
  748MOL0     H 3210   3.714   6.886   0.577  4.4402  0.1907  3.3331
  748MOL0     H 3211   3.762   6.647   0.551  3.2607 -0.6419  1.2645
  748MOL0     H 3212   3.837   6.430   0.457  0.6137  3.4878  2.6481
  748MOL0     H 3213   3.955   6.356   0.349  3.0113 -0.2079  1.0322
  748MOL0     H 3214   4.052   6.354   0.587 -2.6491 -0.0881 -0.1623
  748MOL0     H 3215   4.015   6.526   0.603  0.5817  1.0585 -0.2969
  748MOL0     H 3216   4.168   6.551   0.392 -3.0237 -0.8015 -0.1289
  748MOL0     H 3217   4.236   6.545   0.555 -1.7848 -0.5568  2.1218
  748MOL0     H 3218   4.207   6.342   0.330 -0.3171 -2.5025  2.6127
  748MOL0     H 3219   4.253   6.283   0.489 -0.9676 -0.2141  0.5909
  748MOL0     H 3220   4.621   6.420   0.377 -0.0435 -0.1146  0.0946
  748MOL0     H 3221   3.980   6.741   0.195  2.6730 -0.7085  1.6504
  748MOL0     H 3222   4.025   6.992   0.148  0.1592  0.3832 -0.0397
  748MOL0     H 3223   3.866   6.985   0.081 -0.5633 -0.3566 -0.2011
  748MOL0     H 3224   3.924   7.122   0.194  0.0845 -0.4119 -0.7380
  749MOL0     O 3225   4.458   4.406   0.916  0.4178  0.9522  0.3337
  749MOL0     C 3226   4.416   4.474   0.824 -0.4363 -0.3915 -0.6555
  749MOL0     O 3227   4.479   4.515   0.721  0.4326  0.0931  0.0539
  749MOL0     C 3228   4.611   4.482   0.707 -0.3245  0.5658 -0.8929
  749MOL0     C 3229   4.697   4.594   0.706  1.3341  0.3608  0.2587
  749MOL0     C 3230   4.830   4.570   0.681 -0.5676  0.0321  0.8406
  749MOL0     C 3231   4.891   4.444   0.669 -0.3547 -0.1284  1.7411
  749MOL0     O 3232   5.032   4.454   0.656 -0.2526 -0.2856 -0.0171
  749MOL0     C 3233   5.104   4.354   0.725 -0.2778 -0.6825  0.4646
  749MOL0     C 3234   5.173   4.269   0.618 -0.0227  0.2956  0.4519
  749MOL0     C 3235   5.100   4.134   0.604  0.4477 -0.0065  0.2753
  749MOL0     C 3236   5.160   4.026   0.504  0.3322 -0.5623 -0.2707
  749MOL0     C 3237   5.050   3.924   0.466 -1.0178 -0.0886 -0.0683
  749MOL0     C 3238   5.121   3.785   0.435  0.2902  0.5220  0.3019
  749MOL0     C 3239   5.013   3.686   0.375  0.7232 -0.9498  0.5401
  749MOL0     C 3240   5.075   3.540   0.365  1.5689  0.0547 -0.3516
  749MOL0     N 3241   5.169   3.528   0.258 -1.3411 -0.2720  0.0751
  749MOL0     C 3242   5.306   3.544   0.255  0.3725  0.7001  0.0004
  749MOL0     C 3243   5.349   3.517   0.132  0.1040  0.1380 -0.9318
  749MOL0     C 3244   5.493   3.509   0.103 -0.0601 -0.3355  0.6432
  749MOL0     C 3245   5.520   3.522  -0.056  0.7004  0.2037 -1.0743
  749MOL0     C 3246   5.669   3.508  -0.078  0.0026  0.4850  0.3042
  749MOL0     C 3247   5.673   3.441  -0.215 -0.3709 -0.0675  0.6051
  749MOL0     O 3248   5.798   3.479  -0.275 -0.4711  0.5450  0.1735
  749MOL0     C 3249   5.828   3.492  -0.410 -0.5323 -0.3475  0.4349
  749MOL0     C 3250   5.955   3.541  -0.446  0.7280  0.2705 -0.2832
  749MOL0     C 3251   5.997   3.543  -0.582  0.0892  0.4309 -0.7066
  749MOL0     C 3252   6.135   3.578  -0.626  0.0680  0.2247 -0.1484
  749MOL0     C 3253   5.905   3.508  -0.677  0.5411  0.6957 -0.1955
  749MOL0     C 3254   5.929   3.524  -0.821 -0.4319  0.1277 -0.2551
  749MOL0     O 3255   5.855   3.438  -0.901 -0.7036  1.1108 -0.3296
  749MOL0     C 3256   5.866   3.445  -1.038  0.9011 -0.9275 -0.7760
  749MOL0     C 3257   5.904   3.335  -1.112  0.0250 -0.5482 -0.0091
  749MOL0     C 3258   5.908   3.345  -1.253  0.5924  0.3663  0.0171
  749MOL0     C 3259   5.872   3.469  -1.324 -0.2541  0.1376  0.0351
  749MOL0     O 3260   5.900   3.500  -1.454  0.9896 -0.3290 -0.5678
  749MOL0     C 3261   5.939   3.390  -1.535 -0.2506  0.2337 -0.2666
  749MOL0     C 3262   5.931   3.426  -1.687 -0.4265 -0.4401  0.5589
  749MOL0     C 3263   6.057   3.503  -1.730  0.4199  0.4071 -0.6298
  749MOL0     C 3264   6.058   3.538  -1.877  0.2617 -0.0269  0.2747
  749MOL0     C 3265   6.207   3.553  -1.927 -0.7767 -0.4101 -0.7024
  749MOL0     C 3266   6.322   3.615  -1.840 -0.5966  0.7676 -0.1293
  749MOL0     C 3267   6.439   3.637  -1.943  0.1208  0.1766 -0.5106
  749MOL0     C 3268   6.574   3.674  -1.875 -0.2695 -0.7578 -0.0257
  749MOL0    Cl 3269   6.705   3.727  -1.991 -0.1796  0.1947 -0.1260
  749MOL0     C 3270   5.827   3.578  -1.241 -0.3714 -0.3541  0.4444
  749MOL0     C 3271   5.813   3.561  -1.107  0.6631  0.3405  0.1744
  749MOL0     O 3272   6.013   3.594  -0.863  0.1918  0.0399 -0.0835
  749MOL0     C 3273   5.770   3.461  -0.639  0.4138  0.0182  0.1144
  749MOL0     C 3274   5.735   3.452  -0.507 -0.3224  0.0715 -0.4045
  749MOL0     N 3275   5.240   3.484   0.060  0.7189  0.3821  0.0865
  749MOL0     N 3276   5.131   3.495   0.131  0.1585 -1.2036  0.3295
  749MOL0     C 3277   4.807   4.331   0.676 -0.7302 -0.2354  1.3338
  749MOL0     C 3278   4.668   4.354   0.688  0.3089 -0.3013 -0.8806
  749MOL0     C 3279   4.282   4.510   0.830  0.6307 -0.3464  0.5852
  749MOL0     C 3280   4.242   4.603   0.729 -0.5752 -0.7635  0.0207
  749MOL0     C 3281   4.114   4.649   0.727 -0.1530 -0.7849  0.4019
  749MOL0     C 3282   4.016   4.602   0.816  0.2540  0.7680  0.1697
  749MOL0     O 3283   3.894   4.644   0.809  0.7741  0.0827  1.0884
  749MOL0     C 3284   3.831   4.669   0.684  0.8445 -0.4387 -0.0054
  749MOL0     C 3285   3.687   4.731   0.710 -0.3011 -0.7904  0.7004
  749MOL0     C 3286   3.633   4.796   0.578  1.2581 -0.4838 -0.7156
  749MOL0     C 3287   3.616   4.683   0.478 -0.8494  0.4411  1.0311
  749MOL0     C 3288   3.554   4.736   0.357 -0.1519  0.8700 -0.0868
  749MOL0     C 3289   3.516   4.819   0.271 -0.0320  0.5345  0.0544
  749MOL0     C 3290   4.058   4.521   0.919 -0.3747  0.4416 -0.4639
  749MOL0     C 3291   4.189   4.475   0.926 -0.6172 -0.3863  0.4864
  749MOL0     C 3292   4.221   4.394   1.049  1.3575 -0.2114 -0.1821
  749MOL0     H 3293   4.653   4.692   0.719  1.2102  0.7352 -2.4769
  749MOL0     H 3294   4.898   4.655   0.678  0.1929 -0.4623  2.5251
  749MOL0     H 3295   5.055   4.289   0.798 -2.3858  0.2048 -0.0775
  749MOL0     H 3296   5.181   4.412   0.777 -1.2474  3.3909 -2.1226
  749MOL0     H 3297   5.166   4.309   0.516 -0.7235 -0.2825  0.2705
  749MOL0     H 3298   5.278   4.255   0.645 -0.4321 -1.2365  1.3620
  749MOL0     H 3299   5.099   4.094   0.706  1.3904 -0.5524  0.0751
  749MOL0     H 3300   4.999   4.152   0.566 -0.8375  2.1190  4.0914
  749MOL0     H 3301   5.193   4.074   0.411 -1.6156 -0.4868 -0.9804
  749MOL0     H 3302   5.244   3.982   0.559  1.2559  1.0717 -0.3145
  749MOL0     H 3303   4.999   3.965   0.378 -1.6653  1.1910  0.8686
  749MOL0     H 3304   4.970   3.916   0.540  1.8460  0.2205  3.3298
  749MOL0     H 3305   5.206   3.793   0.367  3.2002 -2.9684  3.1733
  749MOL0     H 3306   5.149   3.732   0.527  0.7785 -2.1411 -1.2910
  749MOL0     H 3307   4.970   3.720   0.280 -0.5743  1.2186  1.8230
  749MOL0     H 3308   4.927   3.702   0.441 -0.3597 -0.6176 -0.8982
  749MOL0     H 3309   5.122   3.519   0.462  1.7994 -1.2173 -0.7239
  749MOL0     H 3310   4.996   3.467   0.348  0.8187  0.2687  1.8359
  749MOL0     H 3311   5.370   3.565   0.340  0.3827  0.9071 -0.0581
  749MOL0     H 3312   5.537   3.415   0.139  0.4333  0.7996  3.2105
  749MOL0     H 3313   5.552   3.588   0.149 -0.7507 -0.2738  1.4323
  749MOL0     H 3314   5.452   3.456  -0.110 -0.1995  1.4213 -1.4971
  749MOL0     H 3315   5.496   3.624  -0.088  0.7922  0.4095 -0.5015
  749MOL0     H 3316   5.707   3.610  -0.080 -1.1550  0.9459  0.5918
  749MOL0     H 3317   5.717   3.461   0.008  0.0933  1.7496  0.9668
  749MOL0     H 3318   5.644   3.336  -0.220  1.8789 -0.9340  3.2271
  749MOL0     H 3319   5.595   3.489  -0.275 -0.9074 -2.4395 -0.6981
  749MOL0     H 3320   6.026   3.568  -0.368  0.1131  0.0841  0.3514
  749MOL0     H 3321   6.144   3.674  -0.677 -3.6057  1.5684  1.3923
  749MOL0     H 3322   6.172   3.492  -0.684 -0.9533 -0.3508  0.0182
  749MOL0     H 3323   6.196   3.582  -0.536 -0.3814 -2.3749  0.3612
  749MOL0     H 3324   5.955   3.249  -1.069  0.2723  0.1211  1.0714
  749MOL0     H 3325   5.935   3.257  -1.311  1.0171  2.0611 -2.5523
  749MOL0     H 3326   6.039   3.360  -1.501 -0.6803 -0.1770  0.6759
  749MOL0     H 3327   5.881   3.298  -1.528  2.8184 -1.9082 -0.8417
  749MOL0     H 3328   5.929   3.330  -1.740 -0.0776 -0.2898  0.2714
  749MOL0     H 3329   5.848   3.491  -1.716  0.4265 -0.6699 -2.7061
  749MOL0     H 3330   6.138   3.433  -1.706  1.0729  0.4965 -2.4262
  749MOL0     H 3331   6.066   3.590  -1.664  0.3080 -1.5560  2.1699
  749MOL0     H 3332   5.999   3.629  -1.895 -1.2053 -0.6378  1.6901
  749MOL0     H 3333   6.000   3.466  -1.934 -2.5851  0.6373  2.0900
  749MOL0     H 3334   6.248   3.457  -1.961  1.2736  0.4983 -0.9707
  749MOL0     H 3335   6.201   3.620  -2.013  1.1794  2.3712  1.1136
  749MOL0     H 3336   6.350   3.556  -1.752 -1.9310  1.6793  0.9559
  749MOL0     H 3337   6.293   3.704  -1.784  3.0558  0.4774  2.6624
  749MOL0     H 3338   6.403   3.708  -2.017 -1.7735  0.6922  0.8481
  749MOL0     H 3339   6.457   3.538  -1.987  0.5894  0.6608 -1.4288
  749MOL0     H 3340   6.600   3.579  -1.828 -1.1872 -0.6716  0.6932
  749MOL0     H 3341   6.563   3.756  -1.803 -1.5780 -0.2893 -0.7302
  749MOL0     H 3342   5.812   3.674  -1.289 -2.5999 -1.7452 -1.8189
  749MOL0     H 3343   5.765   3.629  -1.038 -1.0443  0.0502 -0.6718
  749MOL0     H 3344   5.711   3.437  -0.727  0.4975  2.3713 -0.6444
  749MOL0     H 3345   5.636   3.414  -0.483  0.0993 -0.8533 -0.0976
  749MOL0     H 3346   4.847   4.230   0.669 -3.6673 -1.4242  0.3161
  749MOL0     H 3347   4.594   4.274   0.689 -1.4419  1.2628 -0.7910
  749MOL0     H 3348   4.312   4.636   0.653  0.0049 -3.4114 -0.7202
  749MOL0     H 3349   4.093   4.715   0.644  0.1717 -1.1848 -0.0024
  749MOL0     H 3350   3.904   4.731   0.629 -0.0008  1.2726  0.7338
  749MOL0     H 3351   3.811   4.575   0.631  1.1443 -0.4093 -0.1753
  749MOL0     H 3352   3.687   4.813   0.783  2.5182  1.5002 -1.5950
  749MOL0     H 3353   3.623   4.650   0.745  0.1450 -0.4478  2.4034
  749MOL0     H 3354   3.542   4.857   0.582  1.3273 -0.3368 -1.2674
  749MOL0     H 3355   3.712   4.864   0.545  0.9061  0.3665  0.1569
  749MOL0     H 3356   3.554   4.608   0.527  0.4671 -0.1086  1.9146
  749MOL0     H 3357   3.706   4.645   0.430 -0.0705  4.3096 -1.0209
  749MOL0     H 3358   3.491   4.882   0.189 -2.3547 -2.5579 -1.8628
  749MOL0     H 3359   3.984   4.477   0.985 -0.0691 -1.2244 -1.1737
  749MOL0     H 3360   4.131   4.393   1.111  0.0030  1.7127 -1.9687
  749MOL0     H 3361   4.238   4.292   1.013 -4.2600 -0.7978 -2.2768
  749MOL0     H 3362   4.307   4.431   1.106  0.6373  0.4510  0.4953
  750MOL0     O 3363   2.153   5.071   0.453  0.5545 -0.2127 -0.0586
  750MOL0     C 3364   2.172   5.168   0.517 -0.0494 -0.2525  0.5407
  750MOL0     O 3365   2.157   5.300   0.474  0.5103  0.4831  0.0277
  750MOL0     C 3366   2.117   5.312   0.343 -0.4806  0.4372 -0.2362
  750MOL0     C 3367   1.989   5.345   0.310  0.1408 -0.0428  0.4589
  750MOL0     C 3368   1.960   5.408   0.183 -0.0258 -1.0237 -1.1571
  750MOL0     C 3369   2.063   5.443   0.104 -0.1156  0.1248  0.2173
  750MOL0     O 3370   2.032   5.532  -0.002  0.0946  0.9568 -0.2674
  750MOL0     C 3371   2.105   5.526  -0.126  0.3550 -0.1148 -0.0597
  750MOL0     C 3372   2.093   5.389  -0.199  0.8597  1.2990  0.4820
  750MOL0     C 3373   1.937   5.353  -0.224 -0.6978 -0.0133 -0.1805
  750MOL0     C 3374   1.926   5.221  -0.285  0.0738  0.9053  0.2138
  750MOL0     C 3375   1.780   5.171  -0.302  0.1445 -0.5096 -0.4171
  750MOL0     C 3376   1.765   5.052  -0.392  0.3454 -0.2467  0.0909
  750MOL0     C 3377   1.799   5.088  -0.541 -1.0681  0.0521  0.1205
  750MOL0     C 3378   1.775   4.981  -0.653  0.4489  0.9599 -0.2343
  750MOL0     N 3379   1.640   4.932  -0.645  0.2539  0.1825 -0.5072
  750MOL0     C 3380   1.591   4.818  -0.580 -0.4498  0.3276 -0.7568
  750MOL0     C 3381   1.460   4.810  -0.597 -0.0129 -0.2398  0.5142
  750MOL0     C 3382   1.357   4.721  -0.512  0.4456  0.4761 -0.3819
  750MOL0     C 3383   1.298   4.802  -0.404 -0.0759 -0.2948 -0.5366
  750MOL0     C 3384   1.385   4.816  -0.275 -0.0501  0.6485 -0.7898
  750MOL0     C 3385   1.314   4.907  -0.171  0.3277  0.5417  0.4670
  750MOL0     O 3386   1.405   4.937  -0.060  0.7050 -0.2799  0.0925
  750MOL0     C 3387   1.380   5.063  -0.001  0.2331  0.0031  1.0499
  750MOL0     C 3388   1.483   5.156   0.016 -1.4078 -0.3592 -0.4890
  750MOL0     C 3389   1.470   5.261   0.105  0.1332 -0.3300 -0.1769
  750MOL0     C 3390   1.588   5.336   0.134 -1.3012 -0.9948  0.4666
  750MOL0     C 3391   1.347   5.286   0.179  0.3048  1.3897  1.4598
  750MOL0     C 3392   1.326   5.393   0.277  0.9452  0.2079  0.5364
  750MOL0     O 3393   1.226   5.486   0.252  0.5819  0.2754 -0.6162
  750MOL0     C 3394   1.217   5.597   0.338 -0.4073  0.4902  0.5272
  750MOL0     C 3395   1.080   5.635   0.372  0.5127 -0.0283 -0.1382
  750MOL0     C 3396   1.056   5.753   0.446  0.5550  0.2687  0.1310
  750MOL0     C 3397   1.160   5.836   0.485 -0.7337 -0.5878  0.3859
  750MOL0     O 3398   1.147   5.948   0.569  0.6246 -0.3793  0.9153
  750MOL0     C 3399   1.056   5.922   0.686 -0.7327  0.4004 -0.3009
  750MOL0     C 3400   1.113   6.003   0.794  0.2115 -0.4305 -1.1554
  750MOL0     C 3401   1.140   6.154   0.759 -0.9051 -0.6903  0.6737
  750MOL0     C 3402   1.189   6.256   0.860  0.0097 -0.0659 -1.0071
  750MOL0     C 3403   1.171   6.230   1.019  1.1670 -0.7283 -0.6076
  750MOL0     C 3404   1.287   6.147   1.086  0.9876  0.2335  0.4267
  750MOL0     C 3405   1.240   6.086   1.216  0.1600  0.9843 -0.6270
  750MOL0     C 3406   1.368   6.056   1.292 -0.4666  0.0040  0.3658
  750MOL0    Cl 3407   1.476   5.928   1.209 -0.2488  0.0739  0.8466
  750MOL0     C 3408   1.286   5.797   0.444 -0.6693 -0.1094  0.0397
  750MOL0     C 3409   1.312   5.682   0.367 -0.4813 -0.1812 -0.3768
  750MOL0     O 3410   1.401   5.394   0.368  0.5816  1.2650 -0.1790
  750MOL0     C 3411   1.237   5.202   0.152 -0.6707  0.7752  0.9974
  750MOL0     C 3412   1.255   5.095   0.063 -0.0382 -0.1063  0.5100
  750MOL0     N 3413   1.425   4.916  -0.683 -0.4146  0.1640 -0.8717
  750MOL0     N 3414   1.533   4.987  -0.711 -0.0174  0.5231 -0.1987
  750MOL0     C 3415   2.194   5.394   0.124  0.1065  0.0891 -0.3198
  750MOL0     C 3416   2.218   5.330   0.244 -0.3252  1.1057  0.7877
  750MOL0     C 3417   2.208   5.141   0.657 -0.7127  1.1763 -0.3415
  750MOL0     C 3418   2.318   5.206   0.712  0.0564 -0.8912 -0.0883
  750MOL0     C 3419   2.373   5.169   0.835 -0.3686  0.2798  1.1638
  750MOL0     C 3420   2.316   5.065   0.903 -0.1124  0.5747 -1.3366
  750MOL0     O 3421   2.354   5.033   1.035 -0.6133  0.0888 -0.7475
  750MOL0     C 3422   2.463   4.944   1.058  0.6743 -0.5159  0.9878
  750MOL0     C 3423   2.417   4.826   1.146  0.3311  0.5393  0.3280
  750MOL0     C 3424   2.371   4.873   1.289 -0.1402 -0.3680 -1.2784
  750MOL0     C 3425   2.322   4.758   1.380  0.1618 -0.6742  0.8795
  750MOL0     C 3426   2.219   4.677   1.322 -0.6924 -0.8906 -0.8459
  750MOL0     C 3427   2.146   4.596   1.279  0.1796  0.4671  0.2248
  750MOL0     C 3428   2.209   4.991   0.853 -0.2017  0.0467  0.9880
  750MOL0     C 3429   2.156   5.030   0.725  0.5307 -0.1719  0.3281
  750MOL0     C 3430   2.028   4.958   0.682 -0.3830 -0.3685 -0.2259
  750MOL0     H 3431   1.916   5.332   0.389  1.0959  1.4064  1.6254
  750MOL0     H 3432   1.858   5.439   0.161  0.1158 -0.0007 -0.4087
  750MOL0     H 3433   2.213   5.538  -0.113  0.4099  0.8739 -1.2542
  750MOL0     H 3434   2.072   5.600  -0.199  3.4352  1.6100  0.0973
  750MOL0     H 3435   2.141   5.380  -0.297  0.0989 -2.4252  0.2899
  750MOL0     H 3436   2.133   5.307  -0.138 -2.9364 -1.2396 -0.0909
  750MOL0     H 3437   1.868   5.360  -0.140 -1.2033 -0.9234 -0.5078
  750MOL0     H 3438   1.902   5.426  -0.297  1.0137  0.7710 -0.2786
  750MOL0     H 3439   1.985   5.222  -0.377  0.8100  0.8342  0.6753
  750MOL0     H 3440   1.968   5.144  -0.219 -0.8547  3.4463  4.1470
  750MOL0     H 3441   1.715   5.251  -0.339  0.1084 -0.2637  0.1534
  750MOL0     H 3442   1.739   5.153  -0.202 -1.5877  0.2919 -0.9289
  750MOL0     H 3443   1.837   4.974  -0.364 -0.1504 -0.5165  0.6327
  750MOL0     H 3444   1.661   5.023  -0.375 -0.2509  2.2116  0.9355
  750MOL0     H 3445   1.907   5.102  -0.544 -0.8061 -1.8549 -0.2016
  750MOL0     H 3446   1.745   5.180  -0.566  0.5529  0.7194 -1.0781
  750MOL0     H 3447   1.810   5.016  -0.751 -2.3081 -1.7830 -2.3903
  750MOL0     H 3448   1.842   4.895  -0.642 -0.3216  0.3181 -0.4574
  750MOL0     H 3449   1.652   4.762  -0.510 -3.3007  0.6947  2.2460
  750MOL0     H 3450   1.413   4.634  -0.476 -3.1497 -1.2854  1.5314
  750MOL0     H 3451   1.274   4.701  -0.580  1.3089  1.5445 -1.8314
  750MOL0     H 3452   1.276   4.891  -0.462 -3.4202 -2.4107 -2.8575
  750MOL0     H 3453   1.203   4.752  -0.382  0.4273 -1.1158 -0.1703
  750MOL0     H 3454   1.408   4.721  -0.226  2.5881  2.4542  1.8085
  750MOL0     H 3455   1.477   4.872  -0.295  0.6283 -0.3497 -0.5062
  750MOL0     H 3456   1.282   4.998  -0.223 -0.9677  0.8714  1.7834
  750MOL0     H 3457   1.229   4.853  -0.128  0.2485 -0.3190 -0.7127
  750MOL0     H 3458   1.581   5.148  -0.030 -1.4178  1.2639 -0.8562
  750MOL0     H 3459   1.648   5.340   0.043 -3.3627  3.4366 -0.9695
  750MOL0     H 3460   1.649   5.304   0.220  1.3250  2.9588  0.3678
  750MOL0     H 3461   1.552   5.438   0.147 -1.6419 -1.4185  3.7176
  750MOL0     H 3462   1.001   5.564   0.353  1.9120 -2.3929  2.2431
  750MOL0     H 3463   0.952   5.777   0.464 -0.4833 -2.2912 -1.9180
  750MOL0     H 3464   0.953   5.959   0.678 -2.1507 -1.4920  4.8228
  750MOL0     H 3465   1.061   5.816   0.713 -0.4644  0.5969  0.4370
  750MOL0     H 3466   1.049   6.009   0.882  0.5922  0.3562 -0.9285
  750MOL0     H 3467   1.200   5.940   0.818  1.9430  1.2193 -2.7524
  750MOL0     H 3468   1.045   6.194   0.724 -0.7556 -0.3280  0.6738
  750MOL0     H 3469   1.208   6.149   0.674 -1.6294  3.6949 -0.3720
  750MOL0     H 3470   1.167   6.359   0.832  0.2295 -0.1870 -1.6289
  750MOL0     H 3471   1.298   6.253   0.849  0.3188 -0.3836  1.4982
  750MOL0     H 3472   1.171   6.327   1.070  0.8279 -0.6472 -0.7569
  750MOL0     H 3473   1.072   6.184   1.025  2.3238 -3.4790 -0.9261
  750MOL0     H 3474   1.364   6.218   1.115  2.5060 -1.0533 -0.2891
  750MOL0     H 3475   1.325   6.070   1.017 -2.7858 -0.5847 -1.0141
  750MOL0     H 3476   1.190   5.988   1.210  0.6363  0.7062 -0.1582
  750MOL0     H 3477   1.175   6.147   1.279 -0.8174  0.2400 -0.8847
  750MOL0     H 3478   1.346   6.020   1.393 -0.6604  0.5469  0.5163
  750MOL0     H 3479   1.429   6.146   1.300 -1.3325  0.5507  0.9386
  750MOL0     H 3480   1.367   5.861   0.477  0.2249 -0.4554 -1.3923
  750MOL0     H 3481   1.411   5.651   0.334 -0.5463  0.1376 -0.8859
  750MOL0     H 3482   1.151   5.213   0.217  0.4473 -0.4693  2.7829
  750MOL0     H 3483   1.185   5.013   0.069  1.0131 -0.9945  1.0896
  750MOL0     H 3484   2.283   5.408   0.063  0.0769  0.3707 -0.2999
  750MOL0     H 3485   2.321   5.310   0.271  0.6970 -0.0386 -3.3132
  750MOL0     H 3486   2.370   5.279   0.650 -1.9360 -0.2068 -1.0568
  750MOL0     H 3487   2.450   5.226   0.886  1.4849 -2.0569  1.1817
  750MOL0     H 3488   2.516   4.907   0.969 -0.0925 -0.8092  0.6417
  750MOL0     H 3489   2.539   5.002   1.110  2.6115 -0.4975 -1.6311
  750MOL0     H 3490   2.499   4.757   1.164 -1.6479 -1.9666  0.2518
  750MOL0     H 3491   2.328   4.779   1.104  0.9578 -0.3136 -0.0779
  750MOL0     H 3492   2.463   4.912   1.332  0.7911  1.1086 -4.3101
  750MOL0     H 3493   2.300   4.956   1.289 -1.9826 -1.7862  1.6745
  750MOL0     H 3494   2.291   4.809   1.472 -0.2885  0.1585  0.2811
  750MOL0     H 3495   2.402   4.688   1.407  1.3301  1.0639  2.1654
  750MOL0     H 3496   2.071   4.524   1.250  2.4689 -1.6578 -0.7631
  750MOL0     H 3497   2.163   4.909   0.908 -1.5638  1.5971  2.2927
  750MOL0     H 3498   1.956   5.030   0.642 -1.9089 -0.4509  2.1362
  750MOL0     H 3499   2.041   4.881   0.606  1.0454 -2.7434  2.2586
  750MOL0     H 3500   1.977   4.923   0.773 -0.7861  2.9916  0.9980
  751MOL0     O 3501  10.845   7.357   1.348 -0.3826  0.0320 -0.2318
  751MOL0     C 3502  10.865   7.287   1.444  1.1650  0.8866 -1.6882
  751MOL0     O 3503  10.939   7.323   1.560  0.9890  0.3372  0.2594
  751MOL0     C 3504  10.967   7.457   1.566  0.6093 -0.3599 -0.0065
  751MOL0     C 3505  11.091   7.510   1.512 -0.8272 -0.1966 -0.5016
  751MOL0     C 3506  11.108   7.646   1.523  0.4009 -1.2288  0.1043
  751MOL0     C 3507  10.995   7.736   1.566 -0.4691 -0.2808 -0.5776
  751MOL0     O 3508  11.004   7.868   1.578  0.0956 -0.5678 -0.6674
  751MOL0     C 3509  11.123   7.941   1.543  0.0530 -0.1457 -1.0474
  751MOL0     C 3510  11.091   8.094   1.568  0.2867  0.1501 -0.2319
  751MOL0     C 3511  11.067   8.153   1.721  0.5477  0.5590  0.2101
  751MOL0     C 3512  11.045   8.050   1.835 -0.8855  0.1314 -0.1988
  751MOL0     C 3513  11.030   8.113   1.974  1.3461 -0.0528  0.0471
  751MOL0     C 3514  11.003   8.007   2.073 -0.7348 -0.0685  0.0153
  751MOL0     C 3515  11.023   8.074   2.211 -0.4208 -0.0006 -0.2220
  751MOL0     C 3516  11.017   7.971   2.326  0.4411 -0.6629 -0.7398
  751MOL0     N 3517  10.870   7.948   2.361 -0.0356 -0.4253  0.1096
  751MOL0     C 3518  10.769   7.871   2.307  0.8119  0.7445 -0.4654
  751MOL0     C 3519  10.669   7.881   2.400 -0.4059  0.3842  0.0128
  751MOL0     C 3520  10.560   7.789   2.433  0.1048  0.4455 -0.1143
  751MOL0     C 3521  10.475   7.743   2.316 -0.2570  0.6389 -0.4799
  751MOL0     C 3522  10.383   7.615   2.341  0.9327  0.9356  0.6434
  751MOL0     C 3523  10.305   7.578   2.214 -0.3530  0.1334 -1.2799
  751MOL0     O 3524  10.252   7.687   2.148 -0.7541 -0.5760 -0.0824
  751MOL0     C 3525  10.208   7.653   2.022  1.2231  0.0486  0.7368
  751MOL0     C 3526  10.140   7.762   1.962  0.0528  0.5414  0.0177
  751MOL0     C 3527  10.083   7.760   1.830 -0.0918 -0.8968 -0.3493
  751MOL0     C 3528  10.014   7.894   1.800 -0.6298 -0.3085  0.0890
  751MOL0     C 3529  10.095   7.640   1.750  0.4437 -0.0850 -0.0697
  751MOL0     C 3530  10.017   7.628   1.628 -0.3906 -0.4683  0.3315
  751MOL0     O 3531  10.013   7.497   1.580 -0.2157  0.2739  0.2077
  751MOL0     C 3532  10.022   7.493   1.444  0.7987 -0.2059 -0.0841
  751MOL0     C 3533   9.917   7.465   1.356 -0.3435  1.0006  0.4451
  751MOL0     C 3534   9.943   7.443   1.223  0.4470  0.0162 -0.2227
  751MOL0     C 3535  10.068   7.449   1.170  0.1489 -0.0907  1.3080
  751MOL0     O 3536  10.097   7.442   1.038  0.0766 -0.1172  0.0806
  751MOL0     C 3537  10.002   7.468   0.931 -0.8088 -0.8479 -0.1624
  751MOL0     C 3538  10.059   7.403   0.808  0.9468  0.4475 -0.0560
  751MOL0     C 3539  10.049   7.252   0.794 -0.6168  0.5079  0.2530
  751MOL0     C 3540  10.122   7.193   0.673  0.0629  1.2436 -0.3175
  751MOL0     C 3541  10.120   7.034   0.673  0.2362 -0.8659 -0.5726
  751MOL0     C 3542  10.218   6.965   0.778  0.2295  0.1800 -0.0208
  751MOL0     C 3543  10.204   6.812   0.745  0.4157  0.3808 -0.0022
  751MOL0     C 3544  10.271   6.731   0.854 -0.7341  0.1911  0.4510
  751MOL0    Cl 3545  10.207   6.759   1.018 -0.1335  0.2300 -0.1061
  751MOL0     C 3546  10.175   7.475   1.263  0.2052 -0.5648  0.0321
  751MOL0     C 3547  10.148   7.494   1.398  0.5652  0.4565 -0.7275
  751MOL0     O 3548   9.989   7.732   1.564  0.5834  0.9819  0.2723
  751MOL0     C 3549  10.159   7.528   1.808  0.1878 -0.5959  1.7574
  751MOL0     C 3550  10.209   7.537   1.942 -1.0749 -0.5395 -0.0057
  751MOL0     N 3551  10.710   7.966   2.502 -0.2863 -0.7735 -0.0163
  751MOL0     N 3552  10.826   8.011   2.475 -0.2910 -0.3493 -1.3555
  751MOL0     C 3553  10.872   7.684   1.611  0.2685 -0.2357  0.4351
  751MOL0     C 3554  10.860   7.545   1.611 -0.9371 -0.8823  0.6044
  751MOL0     C 3555  10.814   7.152   1.441  0.3619  0.7176 -0.2139
  751MOL0     C 3556  10.775   7.088   1.563 -0.1047  0.3066  0.1412
  751MOL0     C 3557  10.719   6.965   1.561 -0.0123 -1.2254  0.1610
  751MOL0     C 3558  10.670   6.896   1.445  0.4321  0.1483 -0.7574
  751MOL0     O 3559  10.603   6.785   1.439 -0.2617 -0.8090  0.4187
  751MOL0     C 3560  10.642   6.685   1.542 -0.5971 -0.1318 -0.2716
  751MOL0     C 3561  10.608   6.544   1.495  0.2315  0.1793  0.3540
  751MOL0     C 3562  10.640   6.433   1.602 -0.0137 -0.7804  0.4730
  751MOL0     C 3563  10.783   6.432   1.657 -0.1441  0.7499 -0.4325
  751MOL0     C 3564  10.793   6.505   1.786  0.3359  0.1227 -0.6212
  751MOL0     C 3565  10.804   6.585   1.883 -0.7299  0.2633 -0.3820
  751MOL0     C 3566  10.708   6.957   1.320  0.0454 -0.8868 -0.5152
  751MOL0     C 3567  10.788   7.079   1.317  0.3155 -0.3964  0.0793
  751MOL0     C 3568  10.824   7.137   1.188 -0.1044  0.1588 -0.2266
  751MOL0     H 3569  11.163   7.445   1.464 -1.1286  0.9870 -2.7021
  751MOL0     H 3570  11.206   7.683   1.494  0.2825  0.3986  1.5792
  751MOL0     H 3571  11.156   7.919   1.441  0.6097  0.0913 -0.9245
  751MOL0     H 3572  11.205   7.902   1.605 -0.1966 -0.1221 -0.6973
  751MOL0     H 3573  11.168   8.152   1.518  0.6868  0.8802  1.1633
  751MOL0     H 3574  10.997   8.116   1.516  0.1048 -2.7753 -1.3409
  751MOL0     H 3575  11.153   8.210   1.755  2.0157 -1.6136  0.3705
  751MOL0     H 3576  10.973   8.209   1.720  0.3282  0.2523 -1.9290
  751MOL0     H 3577  10.961   7.981   1.821 -0.6338 -0.4896  1.1894
  751MOL0     H 3578  11.132   7.983   1.827  0.9149  2.2582  0.7293
  751MOL0     H 3579  10.946   8.183   1.971  1.6910  0.3486 -0.4923
  751MOL0     H 3580  11.118   8.175   1.995  0.2145  1.8954 -0.7333
  751MOL0     H 3581  10.911   7.949   2.061  0.5455 -1.8603 -1.9926
  751MOL0     H 3582  11.089   7.939   2.071 -0.1167  0.4884  3.0063
  751MOL0     H 3583  10.943   8.146   2.234 -0.6947 -1.2496  3.3458
  751MOL0     H 3584  11.124   8.116   2.211 -0.1659 -0.5960 -1.1872
  751MOL0     H 3585  11.063   7.874   2.305 -0.5582 -1.6514  1.3820
  751MOL0     H 3586  11.062   8.017   2.414 -0.2075 -3.2931  1.0833
  751MOL0     H 3587  10.764   7.790   2.234  0.0590 -0.8858  1.2838
  751MOL0     H 3588  10.482   7.832   2.497  0.5443  0.6821  0.2701
  751MOL0     H 3589  10.613   7.708   2.484 -2.6298 -0.7540  0.9825
  751MOL0     H 3590  10.406   7.823   2.285 -0.9293 -0.3535 -1.6071
  751MOL0     H 3591  10.541   7.727   2.231 -2.5218  0.8798 -2.3733
  751MOL0     H 3592  10.444   7.530   2.371  0.7037  0.9060  1.0333
  751MOL0     H 3593  10.321   7.645   2.426  0.0151 -2.1429  1.1514
  751MOL0     H 3594  10.371   7.524   2.145  2.5257  0.5164  1.0128
  751MOL0     H 3595  10.224   7.505   2.222  1.7789 -2.3615 -1.4309
  751MOL0     H 3596  10.127   7.846   2.030  0.1636 -1.8392  3.2371
  751MOL0     H 3597   9.910   7.875   1.771 -0.8644  1.2957 -0.2205
  751MOL0     H 3598  10.061   7.950   1.719 -2.6536  1.7755  0.2469
  751MOL0     H 3599  10.010   7.964   1.884 -0.8214 -0.1934 -0.0160
  751MOL0     H 3600   9.817   7.432   1.381 -0.8191  0.3655 -1.9654
  751MOL0     H 3601   9.855   7.422   1.163  0.6549 -0.5889 -0.3232
  751MOL0     H 3602   9.899   7.432   0.942 -0.7563 -1.9306 -2.6569
  751MOL0     H 3603   9.990   7.575   0.911 -0.0534 -0.4731  1.1969
  751MOL0     H 3604   9.995   7.449   0.733  1.7811  3.9791  1.2097
  751MOL0     H 3605  10.156   7.447   0.785  1.0030 -0.3890 -1.5414
  751MOL0     H 3606   9.947   7.213   0.786 -2.9463  5.8835 -0.8712
  751MOL0     H 3607  10.099   7.214   0.883  1.1366  2.6306  0.2626
  751MOL0     H 3608  10.227   7.225   0.668  1.0449 -1.7130 -0.9988
  751MOL0     H 3609  10.072   7.235   0.585  0.7658 -2.1545 -2.5663
  751MOL0     H 3610  10.015   7.005   0.682 -0.3040  1.5004  2.4505
  751MOL0     H 3611  10.154   6.999   0.575 -0.0182 -1.3671 -0.4848
  751MOL0     H 3612  10.205   6.991   0.884 -3.0425  1.3953 -0.5771
  751MOL0     H 3613  10.316   6.990   0.737 -0.3434 -1.9498 -2.9855
  751MOL0     H 3614  10.254   6.794   0.650 -1.8420 -0.2846 -1.1291
  751MOL0     H 3615  10.097   6.793   0.731  0.7491  0.4566 -3.4230
  751MOL0     H 3616  10.375   6.763   0.866 -1.0936  0.4820  3.7145
  751MOL0     H 3617  10.261   6.623   0.840  1.1662  0.1124 -0.5431
  751MOL0     H 3618  10.271   7.475   1.213  1.2424  0.2599  1.9228
  751MOL0     H 3619  10.226   7.514   1.471  0.7739  1.4477 -1.1995
  751MOL0     H 3620  10.185   7.436   1.756  7.4604  0.6169  2.2962
  751MOL0     H 3621  10.279   7.463   1.981  0.1706 -0.1891 -1.5180
  751MOL0     H 3622  10.792   7.746   1.650 -1.7179 -1.8290 -0.9143
  751MOL0     H 3623  10.776   7.502   1.666 -1.2951  1.9804  2.5502
  751MOL0     H 3624  10.786   7.140   1.658  0.7221  2.2968 -1.0101
  751MOL0     H 3625  10.677   6.911   1.646  1.3800 -1.1978  0.8862
  751MOL0     H 3626  10.750   6.688   1.554 -0.5507  0.0915 -0.6972
  751MOL0     H 3627  10.607   6.709   1.643 -1.4079 -0.4387 -0.4685
  751MOL0     H 3628  10.652   6.519   1.398 -0.8704 -2.1452  0.3775
  751MOL0     H 3629  10.498   6.542   1.488  0.1698  1.0471  0.9525
  751MOL0     H 3630  10.573   6.417   1.687  1.6450  1.0792  2.2457
  751MOL0     H 3631  10.637   6.342   1.541  5.6604  0.7528 -2.9129
  751MOL0     H 3632  10.853   6.466   1.580  0.3749 -4.0496 -2.4169
  751MOL0     H 3633  10.812   6.329   1.679  3.1283  1.6822  0.0957
  751MOL0     H 3634  10.818   6.640   1.973  0.3677 -1.9842  0.9146
  751MOL0     H 3635  10.679   6.912   1.225 -1.7191 -2.7167  0.7922
  751MOL0     H 3636  10.925   7.179   1.191  0.3364 -0.9159  1.3378
  751MOL0     H 3637  10.821   7.060   1.110 -2.1213 -1.1990  1.0774
  751MOL0     H 3638  10.753   7.217   1.164 -1.2899 -0.8972 -0.3375
  752MOL0     O 3639   4.469   1.078  10.713 -0.5431  0.3215 -0.5355
  752MOL0     C 3640   4.451   1.033  10.594 -0.9504 -0.9707  0.8623
  752MOL0     O 3641   4.495   0.910  10.544  0.0486 -0.3296  0.6857
  752MOL0     C 3642   4.476   0.812  10.633  0.0387  0.4867 -0.4145
  752MOL0     C 3643   4.353   0.784  10.685  0.1301 -0.5534 -0.5894
  752MOL0     C 3644   4.334   0.674  10.772  0.6024  0.5869 -0.3723
  752MOL0     C 3645   4.445   0.600  10.808  0.2161  0.4278  0.9634
  752MOL0     O 3646   4.425   0.499  10.898 -0.6828  0.0844 -0.5997
  752MOL0     C 3647   4.547   0.453  10.963 -0.0308 -0.7340  0.7325
  752MOL0     C 3648   4.488   0.350  11.071  0.5527 -0.7559  0.7683
  752MOL0     C 3649   4.421   0.447  11.178 -1.4765  1.2573 -0.2467
  752MOL0     C 3650   4.350   0.372  11.290 -0.1964 -0.2927 -0.4814
  752MOL0     C 3651   4.431   0.274  11.368 -0.4705  0.1628 -0.6371
  752MOL0     C 3652   4.359   0.209  11.495  0.2166  0.0996  0.1837
  752MOL0     C 3653   4.236   0.116  11.462 -0.4936 -0.5853  0.2858
  752MOL0     C 3654   4.302  -0.023  11.440  1.0687 -0.4300  0.0190
  752MOL0     N 3655   4.195  -0.110  11.393 -0.0305 -0.2449 -0.3735
  752MOL0     C 3656   4.144  -0.229  11.446 -0.3203 -0.0974 -0.7188
  752MOL0     C 3657   4.065  -0.279  11.351  0.1689 -0.6866  0.3788
  752MOL0     C 3658   3.972  -0.402  11.374 -0.2030 -0.3443  0.2598
  752MOL0     C 3659   3.910  -0.450  11.244  1.0648  0.1724  1.1703
  752MOL0     C 3660   3.799  -0.560  11.285 -0.5802 -0.0831 -0.6111
  752MOL0     C 3661   3.732  -0.633  11.171 -0.3166 -0.7403  0.0159
  752MOL0     O 3662   3.629  -0.559  11.098  0.5059 -0.2756 -0.1072
  752MOL0     C 3663   3.505  -0.531  11.151  0.9873 -0.7462  0.2599
  752MOL0     C 3664   3.439  -0.591  11.265  0.0724 -0.0176  0.0463
  752MOL0     C 3665   3.316  -0.539  11.314  0.4205  0.4716 -0.1023
  752MOL0     C 3666   3.266  -0.607  11.437  0.7106  0.5054  1.1730
  752MOL0     C 3667   3.249  -0.437  11.249 -0.7801 -0.6230  0.6382
  752MOL0     C 3668   3.124  -0.375  11.296 -0.3957 -0.3124 -0.1869
  752MOL0     O 3669   3.125  -0.237  11.300  0.6187 -0.5890 -0.4600
  752MOL0     C 3670   3.000  -0.170  11.312 -0.7144  0.4605 -1.3129
  752MOL0     C 3671   2.890  -0.197  11.237  0.7734  1.0171  0.6016
  752MOL0     C 3672   2.762  -0.130  11.266 -0.3962  0.3120 -0.1915
  752MOL0     C 3673   2.765  -0.030  11.362  1.2433 -0.1829 -0.0586
  752MOL0     O 3674   2.654   0.044  11.411 -0.8227 -0.0580 -0.2486
  752MOL0     C 3675   2.520   0.011  11.371  0.2307 -0.3846 -0.7707
  752MOL0     C 3676   2.411   0.108  11.430 -0.5949 -0.6006  1.3207
  752MOL0     C 3677   2.418   0.114  11.590 -0.2059 -0.6425  0.4385
  752MOL0     C 3678   2.329   0.221  11.655 -0.2309  0.3733 -0.0386
  752MOL0     C 3679   2.315   0.194  11.809 -0.2009  0.2286 -0.3275
  752MOL0     C 3680   2.236   0.064  11.846  0.1619  0.6503 -0.2504
  752MOL0     C 3681   2.084   0.050  11.793 -0.5010  0.0412 -1.1657
  752MOL0     C 3682   1.980   0.083  11.904 -0.8839  0.0806 -0.1067
  752MOL0    Cl 3683   1.823   0.029  11.837  0.2262  0.0994  0.1808
  752MOL0     C 3684   2.885   0.009  11.423  0.4951 -0.2676 -0.3567
  752MOL0     C 3685   3.003  -0.061  11.404  0.2782 -0.1044 -0.3382
  752MOL0     O 3686   3.024  -0.444  11.313  0.1243 -0.5701 -0.3615
  752MOL0     C 3687   3.304  -0.389  11.125 -0.2290  0.3837  0.3685
  752MOL0     C 3688   3.430  -0.431  11.081 -0.4383  0.7941  0.3784
  752MOL0     N 3689   4.062  -0.194  11.244  0.1155 -0.4160  0.1809
  752MOL0     N 3690   4.123  -0.086  11.284  0.2875  1.1144  0.3907
  752MOL0     C 3691   4.573   0.617  10.736 -0.4688 -0.7056 -0.0175
  752MOL0     C 3692   4.583   0.732  10.660 -0.3111  0.8757 -0.0827
  752MOL0     C 3693   4.380   1.116  10.487  0.6071 -0.4411 -0.1841
  752MOL0     C 3694   4.295   1.053  10.394 -0.3375  0.5375  0.2626
  752MOL0     C 3695   4.225   1.118  10.288  0.1162 -1.1917  0.1749
  752MOL0     C 3696   4.238   1.258  10.290 -0.4766  0.3432 -0.3156
  752MOL0     O 3697   4.167   1.313  10.183 -0.0753 -0.2776  0.2148
  752MOL0     C 3698   4.199   1.445  10.153 -0.2379  0.2381 -0.6322
  752MOL0     C 3699   4.153   1.496  10.018  0.2738 -0.2592 -0.9570
  752MOL0     C 3700   4.249   1.452   9.902  0.3979  0.7933  0.1089
  752MOL0     C 3701   4.216   1.327   9.815 -0.0972 -0.6922  0.0960
  752MOL0     C 3702   4.328   1.323   9.723  0.1210 -1.2671  0.4032
  752MOL0     C 3703   4.416   1.298   9.642 -0.0545 -0.4222 -0.0686
  752MOL0     C 3704   4.303   1.325  10.393  0.0025  0.1255 -0.1200
  752MOL0     C 3705   4.382   1.259  10.493  0.3536 -1.4172 -0.8800
  752MOL0     C 3706   4.464   1.335  10.594 -0.7637  1.3924  1.0550
  752MOL0     H 3707   4.275   0.855  10.658  0.6659  0.2434 -0.0759
  752MOL0     H 3708   4.244   0.653  10.828  0.1081  1.3582 -0.8564
  752MOL0     H 3709   4.604   0.536  11.004  0.1842 -0.3119 -0.3967
  752MOL0     H 3710   4.607   0.398  10.890 -2.5451  0.4298 -2.4925
  752MOL0     H 3711   4.430   0.265  11.034  0.5388 -1.4642  2.3296
  752MOL0     H 3712   4.572   0.298  11.119  1.4003 -1.3484 -1.2488
  752MOL0     H 3713   4.494   0.514  11.223 -0.8567  0.5597 -0.1884
  752MOL0     H 3714   4.344   0.503  11.124  0.7659  0.8840 -4.1212
  752MOL0     H 3715   4.309   0.446  11.359 -1.3945 -1.7458  0.4204
  752MOL0     H 3716   4.266   0.324  11.240 -0.7197  1.0266 -0.9106
  752MOL0     H 3717   4.518   0.327  11.409 -1.1151 -0.1952  1.2809
  752MOL0     H 3718   4.456   0.189  11.305  0.7304  1.7217 -2.3587
  752MOL0     H 3719   4.431   0.150  11.553  0.8809  2.4465  1.8978
  752MOL0     H 3720   4.316   0.288  11.557 -3.0978 -0.0999 -1.6604
  752MOL0     H 3721   4.179   0.146  11.374 -3.0743 -1.1099  1.6764
  752MOL0     H 3722   4.156   0.130  11.536  0.3349  2.0805  0.7853
  752MOL0     H 3723   4.381  -0.013  11.364  0.5403  2.3021 -0.2411
  752MOL0     H 3724   4.345  -0.067  11.531 -0.3436  0.0996  0.9781
  752MOL0     H 3725   4.151  -0.273  11.545  0.9676  1.2247 -0.1718
  752MOL0     H 3726   3.892  -0.367  11.441 -1.0063 -2.0847  0.2455
  752MOL0     H 3727   4.025  -0.487  11.419 -1.3601 -0.4528  1.4724
  752MOL0     H 3728   3.870  -0.363  11.192  0.9026  0.4161  1.7012
  752MOL0     H 3729   3.984  -0.497  11.178 -0.1894  0.3569 -0.4572
  752MOL0     H 3730   3.852  -0.630  11.351  0.5863  2.6668  1.5772
  752MOL0     H 3731   3.726  -0.521  11.357  1.5979 -0.8018  2.1861
  752MOL0     H 3732   3.807  -0.673  11.103  0.3140  0.7146 -0.1747
  752MOL0     H 3733   3.684  -0.719  11.219 -1.3323 -1.7075 -2.5347
  752MOL0     H 3734   3.478  -0.677  11.319 -2.4062 -1.1046  0.2330
  752MOL0     H 3735   3.346  -0.604  11.511  2.9721  0.1163 -1.1232
  752MOL0     H 3736   3.234  -0.711  11.421 -1.8175  0.9415  2.8233
  752MOL0     H 3737   3.176  -0.559  11.476  0.4533  2.5679 -1.7254
  752MOL0     H 3738   2.877  -0.285  11.175  0.9873  1.6208 -0.3212
  752MOL0     H 3739   2.687  -0.180  11.205  1.2317  0.3847 -2.3667
  752MOL0     H 3740   2.497   0.034  11.267  1.1184  3.9221 -0.2174
  752MOL0     H 3741   2.490  -0.083  11.420 -0.0169  1.2814  2.6058
  752MOL0     H 3742   2.422   0.210  11.390 -1.5613 -1.3747 -1.1284
  752MOL0     H 3743   2.318   0.057  11.405 -0.8763 -0.8333  2.7826
  752MOL0     H 3744   2.520   0.143  11.617 -1.2656  2.0496  1.9003
  752MOL0     H 3745   2.398   0.017  11.635 -2.9461  0.3102  1.4850
  752MOL0     H 3746   2.229   0.214  11.612  0.0208 -2.0129 -0.4013
  752MOL0     H 3747   2.373   0.320  11.639  0.6236 -0.1117 -0.7591
  752MOL0     H 3748   2.410   0.193  11.864  1.8412  2.9948 -3.4517
  752MOL0     H 3749   2.249   0.273  11.844 -3.4643 -1.8942 -1.2551
  752MOL0     H 3750   2.233   0.065  11.955  1.1196  0.4771 -0.2126
  752MOL0     H 3751   2.295  -0.024  11.816 -0.0304  0.3873  0.1296
  752MOL0     H 3752   2.071  -0.056  11.771  0.3483 -0.2947 -0.0969
  752MOL0     H 3753   2.082   0.116  11.705  2.6216 -0.8862 -2.0629
  752MOL0     H 3754   1.983   0.192  11.916 -3.0343  0.3692 -1.7034
  752MOL0     H 3755   2.002   0.041  12.003 -3.4547  0.7795  0.8416
  752MOL0     H 3756   2.911   0.092  11.487  2.4882 -0.6400 -0.6300
  752MOL0     H 3757   3.100  -0.044  11.449  0.2382  1.7321 -0.8410
  752MOL0     H 3758   3.261  -0.310  11.065  3.3482  1.9347 -0.4196
  752MOL0     H 3759   3.472  -0.388  10.990  1.0651 -0.6579  0.3405
  752MOL0     H 3760   4.653   0.546  10.753  1.6721  1.5084 -0.2950
  752MOL0     H 3761   4.681   0.758  10.620 -0.1519 -0.4912 -0.6639
  752MOL0     H 3762   4.295   0.944  10.399  3.4199  0.1278 -3.2489
  752MOL0     H 3763   4.191   1.060  10.203  0.2417 -0.0947 -0.6483
  752MOL0     H 3764   4.154   1.498  10.237 -2.8860 -1.0174 -1.1389
  752MOL0     H 3765   4.304   1.474  10.140 -0.0147  2.3253  4.0344
  752MOL0     H 3766   4.161   1.605  10.016  1.5993 -0.3404 -1.3272
  752MOL0     H 3767   4.048   1.468  10.005 -0.4195  1.8784 -0.3675
  752MOL0     H 3768   4.252   1.534   9.829  0.5215  0.4241 -0.3032
  752MOL0     H 3769   4.350   1.441   9.942  0.4837  1.5144  0.1138
  752MOL0     H 3770   4.119   1.333   9.765  0.9234  2.0973 -1.7824
  752MOL0     H 3771   4.208   1.235   9.874 -0.5527  0.4563  1.9106
  752MOL0     H 3772   4.479   1.287   9.556  1.8362  0.7555  1.0868
  752MOL0     H 3773   4.299   1.433  10.400  1.6837  0.1012  3.1177
  752MOL0     H 3774   4.416   1.301  10.686 -0.5993 -3.1179 -0.2457
  752MOL0     H 3775   4.569   1.304  10.589 -0.9496  0.8903 -0.2311
  752MOL0     H 3776   4.453   1.443  10.588  0.5022  1.4886  0.1182
  753MOL0     O 3777   4.493   4.661   6.108  0.3633  0.8888 -0.4007
  753MOL0     C 3778   4.466   4.583   6.019 -0.1250  0.4547  0.8355
  753MOL0     O 3779   4.448   4.609   5.888  0.4299  0.4683 -0.5051
  753MOL0     C 3780   4.429   4.739   5.851  0.7105  0.0223  0.0617
  753MOL0     C 3781   4.362   4.842   5.923  0.0776  0.2143 -0.5654
  753MOL0     C 3782   4.351   4.970   5.872 -0.9579  0.3755 -0.3943
  753MOL0     C 3783   4.392   5.001   5.743  0.2664  0.1102  0.5831
  753MOL0     O 3784   4.385   5.125   5.684 -0.3218  0.0994 -0.1883
  753MOL0     C 3785   4.347   5.149   5.553 -0.2718  0.2167 -0.0322
  753MOL0     C 3786   4.194   5.179   5.540 -0.9287  0.4430 -0.1064
  753MOL0     C 3787   4.132   5.284   5.638 -0.2826  0.5457  0.5011
  753MOL0     C 3788   4.146   5.431   5.588  0.2495  0.3088  0.8726
  753MOL0     C 3789   4.050   5.524   5.672  0.0240 -0.2422  0.7293
  753MOL0     C 3790   4.033   5.661   5.611  0.1323 -0.1352 -1.2949
  753MOL0     C 3791   3.913   5.738   5.673  0.4095  0.0729  0.1666
  753MOL0     C 3792   3.914   5.776   5.822  0.1702 -0.6442  0.1792
  753MOL0     N 3793   4.032   5.855   5.857  1.3220  0.0889 -0.1573
  753MOL0     C 3794   4.115   5.832   5.960  0.7957 -0.1475 -0.6083
  753MOL0     C 3795   4.202   5.933   5.966  0.5983  0.4985 -0.2087
  753MOL0     C 3796   4.320   5.928   6.048 -0.3816  1.1948  0.0155
  753MOL0     C 3797   4.438   6.002   5.983 -1.1091  0.5259 -0.1510
  753MOL0     C 3798   4.483   5.960   5.838  0.1926  0.1090  0.3319
  753MOL0     C 3799   4.507   5.812   5.821 -0.5437 -0.8523  0.5648
  753MOL0     O 3800   4.498   5.771   5.681  0.8383  0.6761 -0.4155
  753MOL0     C 3801   4.536   5.640   5.650  0.4481  0.5060 -0.6153
  753MOL0     C 3802   4.605   5.548   5.732  1.0553 -0.0617 -0.0690
  753MOL0     C 3803   4.659   5.425   5.687  0.1277  0.8182 -0.1217
  753MOL0     C 3804   4.698   5.335   5.805  0.8684  0.6494  0.5318
  753MOL0     C 3805   4.630   5.392   5.550 -0.7957 -0.2617 -0.6725
  753MOL0     C 3806   4.658   5.255   5.486  0.0595  0.6406 -0.1871
  753MOL0     O 3807   4.676   5.140   5.564  0.2743 -0.1421 -0.2864
  753MOL0     C 3808   4.737   5.026   5.515 -0.5720 -0.3839  0.3118
  753MOL0     C 3809   4.826   4.957   5.602  0.1039 -0.1915  0.0197
  753MOL0     C 3810   4.887   4.845   5.560 -0.6754  1.2424  0.0934
  753MOL0     C 3811   4.870   4.792   5.435 -0.4263 -0.3003 -0.5221
  753MOL0     O 3812   4.937   4.672   5.399  0.1677  0.0079  0.9462
  753MOL0     C 3813   4.897   4.605   5.274 -0.6784 -0.3627 -0.6803
  753MOL0     C 3814   5.007   4.496   5.240 -1.0568 -0.4394 -0.0313
  753MOL0     C 3815   5.076   4.520   5.105 -0.0935  0.5376 -0.2383
  753MOL0     C 3816   5.197   4.430   5.081 -0.6414  0.8884  1.0855
  753MOL0     C 3817   5.317   4.440   5.176 -0.2034 -0.1720  0.2130
  753MOL0     C 3818   5.393   4.576   5.153 -0.2735  1.2643  0.0415
  753MOL0     C 3819   5.539   4.565   5.210  0.7384  0.0679  0.6778
  753MOL0     C 3820   5.627   4.682   5.190 -0.7804 -0.3178  0.7755
  753MOL0    Cl 3821   5.587   4.828   5.299  0.2649 -0.1493  0.0684
  753MOL0     C 3822   4.789   4.860   5.345  0.8135 -0.2052 -0.4793
  753MOL0     C 3823   4.708   4.969   5.394 -0.2536 -0.5809  0.4812
  753MOL0     O 3824   4.672   5.264   5.361 -0.0744  0.1430  0.4966
  753MOL0     C 3825   4.572   5.484   5.462  0.5500  0.4509  0.1303
  753MOL0     C 3826   4.523   5.604   5.519  0.2881  0.1716  1.0024
  753MOL0     N 3827   4.166   6.019   5.870  0.3689 -0.6229  0.7677
  753MOL0     N 3828   4.072   5.968   5.799 -0.8267 -0.5049  0.8625
  753MOL0     C 3829   4.472   4.891   5.677  0.7885 -0.3984 -0.5136
  753MOL0     C 3830   4.492   4.766   5.737 -0.1089 -0.3254  0.3914
  753MOL0     C 3831   4.480   4.439   6.036  0.0853  0.1767 -0.1387
  753MOL0     C 3832   4.593   4.385   5.973 -0.3710  0.7162 -0.0119
  753MOL0     C 3833   4.624   4.246   5.975  0.1590 -0.2785 -0.9236
  753MOL0     C 3834   4.545   4.160   6.044  0.2042 -0.0914  0.2939
  753MOL0     O 3835   4.575   4.027   6.058  0.2174 -0.6088 -0.2072
  753MOL0     C 3836   4.700   3.975   6.031 -0.2140 -0.0576 -0.6416
  753MOL0     C 3837   4.713   3.838   6.111 -0.2167 -0.0248 -0.2433
  753MOL0     C 3838   4.610   3.730   6.054 -0.1156  0.2314 -0.5466
  753MOL0     C 3839   4.672   3.667   5.924  0.1618  0.3385  0.9971
  753MOL0     C 3840   4.774   3.566   5.950  0.6738 -0.5343 -0.5210
  753MOL0     C 3841   4.848   3.482   5.978 -0.1574 -0.4413  1.3622
  753MOL0     C 3842   4.431   4.209   6.105  0.0264 -0.2098 -0.8664
  753MOL0     C 3843   4.393   4.353   6.105 -1.4322  0.7732  0.9783
  753MOL0     C 3844   4.274   4.392   6.194  0.7001 -0.4633  0.4553
  753MOL0     H 3845   4.320   4.825   6.022 -0.3298 -0.4646 -0.8488
  753MOL0     H 3846   4.301   5.046   5.933 -1.5570 -0.0565 -0.3333
  753MOL0     H 3847   4.372   5.059   5.496 -4.6342 -2.3890  1.6560
  753MOL0     H 3848   4.397   5.239   5.517 -1.0865  1.3559  1.5618
  753MOL0     H 3849   4.184   5.218   5.439  1.9974 -2.2529 -1.6140
  753MOL0     H 3850   4.157   5.076   5.547  4.4736 -1.8558 -0.1376
  753MOL0     H 3851   4.024   5.270   5.653 -0.2385  1.0670  1.3405
  753MOL0     H 3852   4.181   5.273   5.735  2.4397 -1.5284 -0.9375
  753MOL0     H 3853   4.251   5.462   5.598  0.5121 -0.5378  0.8404
  753MOL0     H 3854   4.115   5.438   5.483 -2.3947 -3.0220  1.2768
  753MOL0     H 3855   4.084   5.545   5.774 -2.1248  3.5898  0.8339
  753MOL0     H 3856   3.951   5.477   5.672 -0.8793  1.5602  1.1083
  753MOL0     H 3857   4.131   5.708   5.625  0.2044 -0.8492  1.0514
  753MOL0     H 3858   4.011   5.661   5.504 -1.0058  1.9062 -1.1202
  753MOL0     H 3859   3.826   5.673   5.662  0.5934 -0.5863  2.1652
  753MOL0     H 3860   3.896   5.827   5.612 -0.2611 -1.1336 -1.4923
  753MOL0     H 3861   3.827   5.837   5.846 -1.2976 -1.8385 -1.8081
  753MOL0     H 3862   3.915   5.689   5.888 -1.8093  2.3365  4.6275
  753MOL0     H 3863   4.108   5.748   6.029 -0.4815  0.8645  0.5358
  753MOL0     H 3864   4.342   5.821   6.060 -0.6410  0.6967 -3.0959
  753MOL0     H 3865   4.296   5.953   6.152  1.5368  3.4893 -0.0272
  753MOL0     H 3866   4.422   6.110   5.970 -1.1805  0.6584  0.9748
  753MOL0     H 3867   4.517   5.989   6.057 -1.9228  0.1540  0.6790
  753MOL0     H 3868   4.414   5.988   5.758 -2.1009 -2.7408  1.1676
  753MOL0     H 3869   4.572   6.019   5.815 -0.4494  1.4370  1.1284
  753MOL0     H 3870   4.612   5.806   5.850  0.1804  0.6086 -1.5102
  753MOL0     H 3871   4.446   5.751   5.888  0.0252  1.1668  3.1073
  753MOL0     H 3872   4.633   5.583   5.830  1.4116 -0.5156 -0.0027
  753MOL0     H 3873   4.807   5.330   5.797  0.9445  3.4488 -1.4613
  753MOL0     H 3874   4.661   5.232   5.797  2.3257 -0.0408  2.0913
  753MOL0     H 3875   4.668   5.367   5.905 -0.7433 -1.4493  0.7952
  753MOL0     H 3876   4.850   4.990   5.703 -1.1137 -0.4387  0.4021
  753MOL0     H 3877   4.955   4.794   5.627 -1.3641  0.8087  0.4713
  753MOL0     H 3878   4.807   4.546   5.292 -0.6203 -1.0369 -2.4876
  753MOL0     H 3879   4.885   4.671   5.187  1.2983  0.0678 -0.6728
  753MOL0     H 3880   5.074   4.497   5.327  1.2893 -0.7698 -1.7269
  753MOL0     H 3881   4.966   4.395   5.235  1.8654 -1.8186  1.5555
  753MOL0     H 3882   5.122   4.620   5.104 -1.2145  1.1438 -3.1837
  753MOL0     H 3883   5.006   4.495   5.024 -0.4802 -0.7127  0.4598
  753MOL0     H 3884   5.228   4.457   4.980 -0.7302 -1.5111  0.3530
  753MOL0     H 3885   5.162   4.327   5.075  1.1165  0.3282 -0.6178
  753MOL0     H 3886   5.296   4.435   5.284 -2.1249  0.4696 -0.0875
  753MOL0     H 3887   5.374   4.350   5.153 -3.0058 -2.7826  2.5577
  753MOL0     H 3888   5.333   4.651   5.205 -1.5570  1.5420 -1.7242
  753MOL0     H 3889   5.388   4.589   5.044  2.5086  0.5793 -0.2224
  753MOL0     H 3890   5.589   4.484   5.156  1.9494  0.6995  0.8178
  753MOL0     H 3891   5.539   4.530   5.313 -2.6501 -4.2353 -0.5001
  753MOL0     H 3892   5.614   4.712   5.085 -4.7694  0.3753  1.2909
  753MOL0     H 3893   5.733   4.663   5.209  0.4439  4.2741 -0.1417
  753MOL0     H 3894   4.764   4.815   5.249  1.9850 -0.3686 -0.7151
  753MOL0     H 3895   4.645   5.025   5.325 -0.7672 -3.1865 -1.3519
  753MOL0     H 3896   4.538   5.458   5.362 -1.0879 -0.4776  0.8790
  753MOL0     H 3897   4.455   5.660   5.456  1.1979  0.5564  0.3465
  753MOL0     H 3898   4.517   4.900   5.578  2.7820 -1.0392  0.2807
  753MOL0     H 3899   4.559   4.686   5.705 -2.1385 -2.3526  0.9759
  753MOL0     H 3900   4.665   4.456   5.934  0.7059  2.0559  3.9658
  753MOL0     H 3901   4.711   4.205   5.924  1.2232 -2.0147  2.0076
  753MOL0     H 3902   4.703   3.969   5.922 -1.4968  1.4646 -0.7972
  753MOL0     H 3903   4.775   4.045   6.069 -1.7961  1.1275  0.4242
  753MOL0     H 3904   4.705   3.847   6.220  0.2535 -0.5044 -0.1641
  753MOL0     H 3905   4.818   3.808   6.101  0.0457  0.7293  0.1767
  753MOL0     H 3906   4.597   3.651   6.128  1.5478 -0.7127 -1.2022
  753MOL0     H 3907   4.513   3.776   6.031 -1.7098 -2.4652  0.2773
  753MOL0     H 3908   4.715   3.742   5.858 -0.4680  1.0995  1.4387
  753MOL0     H 3909   4.591   3.610   5.878 -0.3611  2.9599 -1.5359
  753MOL0     H 3910   4.923   3.407   5.992  1.6234  0.9791 -0.0516
  753MOL0     H 3911   4.365   4.136   6.151 -0.4894  0.1163 -1.0703
  753MOL0     H 3912   4.270   4.339   6.290 -0.6893  0.0267  0.6939
  753MOL0     H 3913   4.285   4.494   6.231 -0.5061 -1.1988  3.1167
  753MOL0     H 3914   4.180   4.403   6.141  2.2462 -3.6955 -3.4273
  754MOL0     O 3915  11.215  10.901   6.120 -0.6333  0.2890  1.0541
  754MOL0     C 3916  11.291  10.945   6.203 -0.0979  0.3405  0.1952
  754MOL0     O 3917  11.251  10.955   6.336 -0.1000  0.0474 -0.5673
  754MOL0     C 3918  11.140  10.896   6.386  0.1837  0.0021  0.0417
  754MOL0     C 3919  11.147  10.862   6.521 -0.6003  0.1772 -0.2108
  754MOL0     C 3920  11.038  10.792   6.583 -0.4191  0.3389  0.7190
  754MOL0     C 3921  10.921  10.766   6.526 -1.1080  0.1441  0.0720
  754MOL0     O 3922  10.814  10.715   6.586 -0.1301  0.6593  0.5991
  754MOL0     C 3923  10.806  10.636   6.700 -0.7631 -0.3001  0.0017
  754MOL0     C 3924  10.653  10.598   6.712 -0.0687  0.2225  1.1493
  754MOL0     C 3925  10.598  10.557   6.848  0.5793  0.2135  0.3661
  754MOL0     C 3926  10.452  10.503   6.830 -0.3024 -0.0542  0.0098
  754MOL0     C 3927  10.387  10.477   6.966 -0.2689  0.3228  0.3727
  754MOL0     C 3928  10.233  10.438   6.956  0.3198 -0.4884 -0.3805
  754MOL0     C 3929  10.208  10.319   6.869  0.3892  0.4723  0.4502
  754MOL0     C 3930  10.067  10.278   6.869  0.5475  0.5236 -1.2398
  754MOL0     N 3931   9.963  10.378   6.840  0.3122  1.2687 -0.2662
  754MOL0     C 3932   9.933  10.418   6.714 -0.0379 -0.3135 -0.2319
  754MOL0     C 3933   9.850  10.524   6.726 -0.3742 -0.0585 -0.5335
  754MOL0     C 3934   9.789  10.613   6.615  0.6480  0.7741  0.0986
  754MOL0     C 3935   9.707  10.732   6.668  0.0791 -0.5741  0.9280
  754MOL0     C 3936   9.666  10.834   6.560 -1.2791  0.2411  0.3128
  754MOL0     C 3937   9.771  10.946   6.536  0.0820 -0.1798 -1.0224
  754MOL0     O 3938   9.902  10.885   6.533  0.6665 -0.0287 -1.5814
  754MOL0     C 3939  10.017  10.958   6.541  0.5735  0.0966 -0.2579
  754MOL0     C 3940  10.138  10.894   6.552  1.0858  0.2008 -1.0009
  754MOL0     C 3941  10.265  10.962   6.552  0.3787 -0.2120 -0.6290
  754MOL0     C 3942  10.381  10.862   6.576 -0.2930  0.1598  0.5285
  754MOL0     C 3943  10.266  11.106   6.556 -0.9366 -0.3631 -0.7605
  754MOL0     C 3944  10.385  11.172   6.607  0.0896 -0.2384 -0.6060
  754MOL0     O 3945  10.510  11.118   6.575  0.3527 -0.6223 -0.7607
  754MOL0     C 3946  10.627  11.137   6.643 -0.2455 -0.4412 -0.0760
  754MOL0     C 3947  10.636  11.215   6.762 -0.1143  0.5910  0.0457
  754MOL0     C 3948  10.757  11.247   6.814  0.4375 -1.0361  0.0779
  754MOL0     C 3949  10.881  11.201   6.757 -0.3008 -0.3562  0.4369
  754MOL0     O 3950  10.997  11.253   6.810 -0.6933  0.0710 -0.4568
  754MOL0     C 3951  11.125  11.209   6.767 -0.0356  0.2094  0.2336
  754MOL0     C 3952  11.193  11.295   6.661  0.8118  0.1430  0.8285
  754MOL0     C 3953  11.315  11.219   6.603  0.1512  0.1257 -1.1290
  754MOL0     C 3954  11.389  11.282   6.487  0.3914  0.1921 -0.7830
  754MOL0     C 3955  11.317  11.289   6.352 -0.7547  0.4718 -0.8115
  754MOL0     C 3956  11.346  11.436   6.287 -0.3979  0.0847  0.3563
  754MOL0     C 3957  11.488  11.437   6.228  0.6850  0.0011 -0.8570
  754MOL0     C 3958  11.541  11.580   6.196  0.2873  1.1542 -0.2520
  754MOL0    Cl 3959  11.711  11.578   6.132  0.6862 -0.1527 -0.1317
  754MOL0     C 3960  10.872  11.116   6.646 -0.5571  0.4141  0.0236
  754MOL0     C 3961  10.745  11.088   6.591  0.9147  0.4655 -0.1033
  754MOL0     O 3962  10.366  11.265   6.681 -0.7892 -0.4093 -0.5929
  754MOL0     C 3963  10.139  11.165   6.538 -0.1542 -1.2392  0.4974
  754MOL0     C 3964  10.021  11.097   6.538 -0.5085  0.1843  0.4004
  754MOL0     N 3965   9.826  10.544   6.859  0.7907  0.9592 -0.3386
  754MOL0     N 3966   9.883  10.444   6.925 -0.7102 -0.6680  0.3102
  754MOL0     C 3967  10.903  10.811   6.397 -0.4326 -0.0343  0.2481
  754MOL0     C 3968  11.017  10.868   6.321  0.7659  0.6098 -0.9950
  754MOL0     C 3969  11.424  10.994   6.163  1.0609 -0.9381 -0.2042
  754MOL0     C 3970  11.537  10.995   6.260  0.0051  0.2258 -0.4209
  754MOL0     C 3971  11.664  11.021   6.225 -0.6367 -0.6370 -0.2699
  754MOL0     C 3972  11.693  11.077   6.100  0.7032 -0.2052  0.5964
  754MOL0     O 3973  11.825  11.107   6.069  0.1596 -0.1900  0.4369
  754MOL0     C 3974  11.865  11.145   5.938  0.3440  0.1030 -0.3330
  754MOL0     C 3975  11.847  11.301   5.933 -0.2179 -0.0903  1.2095
  754MOL0     C 3976  11.930  11.373   5.820 -0.2091  0.5357  0.5622
  754MOL0     C 3977  11.876  11.371   5.674  0.5206 -0.7566 -0.6221
  754MOL0     C 3978  11.956  11.455   5.591  0.0916 -0.3879  0.0739
  754MOL0     C 3979  12.005  11.524   5.513  0.6647 -0.4095  0.4169
  754MOL0     C 3980  11.593  11.087   6.008  1.2166  0.5066  0.7880
  754MOL0     C 3981  11.463  11.043   6.034  0.9912 -0.6710 -0.3389
  754MOL0     C 3982  11.365  11.062   5.920 -1.1230 -0.1659  0.3651
  754MOL0     H 3983  11.244  10.869   6.569  0.0662  1.6997 -1.6966
  754MOL0     H 3984  11.045  10.769   6.689  2.1590 -2.9066 -0.0015
  754MOL0     H 3985  10.845  10.679   6.793  1.0053 -0.7690 -0.4718
  754MOL0     H 3986  10.871  10.551   6.679  2.4011  1.9044  0.0591
  754MOL0     H 3987  10.600  10.684   6.671  1.7368  0.6097 -0.5416
  754MOL0     H 3988  10.632  10.513   6.646 -1.5510  2.4372 -1.4881
  754MOL0     H 3989  10.667  10.487   6.895  1.6888  1.9471  1.4141
  754MOL0     H 3990  10.592  10.641   6.917 -0.7341  0.3246  0.1472
  754MOL0     H 3991  10.392  10.574   6.772 -0.7553 -0.8985 -0.5652
  754MOL0     H 3992  10.458  10.414   6.766  0.9121 -0.4822  0.6825
  754MOL0     H 3993  10.404  10.565   7.028  2.3090  1.3637 -1.6245
  754MOL0     H 3994  10.439  10.395   7.015  0.4522  0.0672 -0.7774
  754MOL0     H 3995  10.202  10.407   7.056  3.8948 -2.7352  0.2195
  754MOL0     H 3996  10.174  10.520   6.914  2.9123  1.8931  0.3397
  754MOL0     H 3997  10.258  10.227   6.900  0.1166  1.0222  2.6848
  754MOL0     H 3998  10.244  10.335   6.767 -3.6630  0.9470 -1.0978
  754MOL0     H 3999  10.050  10.185   6.813 -1.6041 -0.4266  0.8224
  754MOL0     H 4000  10.050  10.233   6.967  0.7038 -1.6788 -2.1700
  754MOL0     H 4001   9.967  10.369   6.623  3.2275  1.6882 -0.2543
  754MOL0     H 4002   9.716  10.554   6.559 -0.6302  1.9807  0.4509
  754MOL0     H 4003   9.854  10.647   6.533 -0.2476  0.2542 -0.8606
  754MOL0     H 4004   9.619  10.692   6.719  0.0187 -1.4413  0.1702
  754MOL0     H 4005   9.753  10.791   6.748 -1.0741  0.0505  1.1525
  754MOL0     H 4006   9.642  10.782   6.467  0.5568 -3.7982  1.8563
  754MOL0     H 4007   9.584  10.895   6.600 -3.9811 -1.8500 -1.6572
  754MOL0     H 4008   9.730  11.003   6.452  0.2332  1.2273 -0.1695
  754MOL0     H 4009   9.764  11.014   6.621  0.7453 -0.0963 -1.0312
  754MOL0     H 4010  10.127  10.787   6.564 -2.4437  0.7869  3.8574
  754MOL0     H 4011  10.353  10.761   6.545 -0.0103  0.1096  0.4312
  754MOL0     H 4012  10.406  10.860   6.683 -0.6184 -0.9702  0.5918
  754MOL0     H 4013  10.478  10.890   6.534  1.9471  0.6843  5.3192
  754MOL0     H 4014  10.548  11.254   6.812 -0.6462  0.0893 -0.4846
  754MOL0     H 4015  10.753  11.313   6.900 -0.2359 -5.1442  3.5113
  754MOL0     H 4016  11.185  11.204   6.859 -0.6022 -1.3024  0.5368
  754MOL0     H 4017  11.123  11.107   6.728  0.5239  0.7468 -1.2603
  754MOL0     H 4018  11.120  11.307   6.581 -0.4173 -2.9806  1.3142
  754MOL0     H 4019  11.218  11.395   6.698  0.0550  0.5355  0.3131
  754MOL0     H 4020  11.277  11.125   6.563 -1.7898 -0.2839  1.3961
  754MOL0     H 4021  11.387  11.194   6.682 -1.9310 -0.8579  0.5595
  754MOL0     H 4022  11.489  11.245   6.464  1.9140  3.2816  0.2793
  754MOL0     H 4023  11.417  11.383   6.520 -0.0385 -0.1334  0.6543
  754MOL0     H 4024  11.355  11.226   6.271 -2.5896  0.0632 -1.4007
  754MOL0     H 4025  11.213  11.256   6.353 -0.9334  1.0252 -0.5689
  754MOL0     H 4026  11.334  11.520   6.356  1.0796  1.1340 -0.5857
  754MOL0     H 4027  11.274  11.439   6.205 -1.9259 -0.5427  1.6242
  754MOL0     H 4028  11.498  11.378   6.137 -1.7044  0.5744 -1.5896
  754MOL0     H 4029  11.553  11.393   6.304  0.7801  1.3333 -0.1295
  754MOL0     H 4030  11.537  11.631   6.293 -2.7969 -2.8094  2.0064
  754MOL0     H 4031  11.476  11.625   6.121  0.5591 -0.9130 -1.8265
  754MOL0     H 4032  10.958  11.076   6.594  0.8831 -0.9614  3.1805
  754MOL0     H 4033  10.739  11.032   6.499  0.3597 -2.8258  1.7930
  754MOL0     H 4034  10.131  11.273   6.529  1.7758 -1.2392 -2.7451
  754MOL0     H 4035   9.932  11.157   6.552  0.2950  2.0512 -1.7845
  754MOL0     H 4036  10.808  10.797   6.347  1.1072 -0.8760 -2.6819
  754MOL0     H 4037  10.990  10.896   6.220 -0.1763 -3.6161 -2.1257
  754MOL0     H 4038  11.518  10.964   6.362 -4.7903 -1.4356 -1.5606
  754MOL0     H 4039  11.741  10.996   6.297 -2.0709  1.3579  2.1338
  754MOL0     H 4040  11.971  11.124   5.921  0.3710  1.2952 -1.9149
  754MOL0     H 4041  11.808  11.088   5.863  0.6406  1.2847 -1.4948
  754MOL0     H 4042  11.888  11.345   6.025  0.6130  4.0298 -0.8911
  754MOL0     H 4043  11.742  11.332   5.930 -0.9818 -2.3668  2.0296
  754MOL0     H 4044  11.946  11.479   5.845  4.4445  0.4037 -0.8709
  754MOL0     H 4045  12.032  11.332   5.818  0.7008  2.5866  1.3854
  754MOL0     H 4046  11.779  11.422   5.680  1.0485  0.0943  2.4307
  754MOL0     H 4047  11.869  11.270   5.635  1.0158 -0.4968 -1.4050
  754MOL0     H 4048  12.060  11.583   5.442 -1.0071 -1.2290 -1.6759
  754MOL0     H 4049  11.614  11.113   5.905  0.3017  2.3434  1.0103
  754MOL0     H 4050  11.270  11.108   5.944 -1.8605 -1.2325 -0.4032
  754MOL0     H 4051  11.411  11.108   5.832  0.8832 -1.5907  0.5890
  754MOL0     H 4052  11.339  10.963   5.880 -0.8129 -1.0086  2.1384
  755MOL0     O 4053  11.509   8.654   6.810 -0.5198 -0.2111  0.2297
  755MOL0     C 4054  11.459   8.601   6.710  1.2492  0.0895  0.7933
  755MOL0     O 4055  11.502   8.484   6.648 -0.0974 -0.2942 -0.2776
  755MOL0     C 4056  11.567   8.397   6.726  0.0567  0.1882  0.0344
  755MOL0     C 4057  11.682   8.330   6.674 -0.1155 -0.8884  0.2828
  755MOL0     C 4058  11.751   8.227   6.741  0.1341 -0.3791 -0.0349
  755MOL0     C 4059  11.714   8.195   6.872  0.0894 -0.1850 -0.2387
  755MOL0     O 4060  11.773   8.096   6.952  0.0939 -0.4796 -0.5290
  755MOL0     C 4061  11.906   8.044   6.918  0.6776  0.7517 -0.0257
  755MOL0     C 4062  11.938   7.925   7.006 -0.3712  0.7482  0.6819
  755MOL0     C 4063  11.873   7.800   6.953  0.2354  0.5636 -0.1758
  755MOL0     C 4064  11.722   7.784   7.001  0.2973 -0.0203  0.2569
  755MOL0     C 4065  11.693   7.777   7.148 -0.6103  0.2425  0.3240
  755MOL0     C 4066  11.552   7.720   7.171 -0.4177 -0.2679  0.3274
  755MOL0     C 4067  11.441   7.790   7.088  0.6200 -0.0937 -0.3991
  755MOL0     C 4068  11.296   7.757   7.140  0.9206  0.2204 -0.0347
  755MOL0     N 4069  11.192   7.791   7.041 -0.5027  0.1592 -0.2368
  755MOL0     C 4070  11.163   7.916   6.994 -0.0313 -0.1892 -0.6484
  755MOL0     C 4071  11.067   7.888   6.899  0.8618 -0.0885  0.6214
  755MOL0     C 4072  10.985   7.984   6.813  0.0212 -0.4414  0.1808
  755MOL0     C 4073  10.833   7.968   6.840 -1.4795  0.0663 -1.1893
  755MOL0     C 4074  10.761   8.027   6.712 -0.9517 -0.6341 -0.3678
  755MOL0     C 4075  10.612   8.010   6.744  0.2126 -0.9526  0.3153
  755MOL0     O 4076  10.563   8.111   6.834  1.5793 -0.4983  0.3633
  755MOL0     C 4077  10.453   8.074   6.908  0.9255  0.1611 -0.1862
  755MOL0     C 4078  10.420   8.149   7.016  0.9254 -0.0479 -0.1243
  755MOL0     C 4079  10.321   8.104   7.109  0.3503 -0.8016 -0.4104
  755MOL0     C 4080  10.324   8.197   7.233  0.0756 -0.2340 -0.6249
  755MOL0     C 4081  10.238   7.996   7.090 -0.1965  0.0531 -0.6315
  755MOL0     C 4082  10.143   7.943   7.190  0.0209  0.2123 -0.8739
  755MOL0     O 4083  10.116   7.805   7.185  0.5338 -0.4990 -0.4325
  755MOL0     C 4084  10.008   7.760   7.268 -0.3989 -1.0423 -1.0814
  755MOL0     C 4085   9.900   7.685   7.220 -0.1792 -0.5781 -0.1704
  755MOL0     C 4086   9.804   7.623   7.296 -0.7968  0.5246  0.0791
  755MOL0     C 4087   9.814   7.624   7.430 -1.6523  0.5600 -0.2989
  755MOL0     O 4088   9.727   7.559   7.514  0.2514 -0.3631 -0.0043
  755MOL0     C 4089   9.593   7.526   7.460  0.3429 -0.0625 -0.3287
  755MOL0     C 4090   9.502   7.515   7.585 -0.3990 -0.0802  0.6359
  755MOL0     C 4091   9.492   7.660   7.656 -0.3042  0.1803 -0.1623
  755MOL0     C 4092   9.402   7.659   7.782 -0.3522 -0.3994  0.2211
  755MOL0     C 4093   9.392   7.809   7.832  0.2816  0.1832  0.0786
  755MOL0     C 4094   9.303   7.815   7.966 -0.0399  0.2015 -0.3952
  755MOL0     C 4095   9.338   7.940   8.045  1.2257  0.1152 -0.0181
  755MOL0     C 4096   9.309   8.078   7.973 -0.1527  0.4340  0.3001
  755MOL0    Cl 4097   9.431   8.196   8.028 -0.3658 -0.2677  0.2236
  755MOL0     C 4098   9.923   7.698   7.486 -0.4416  0.2551  0.3775
  755MOL0     C 4099  10.023   7.760   7.407  0.2851  1.5737 -0.3316
  755MOL0     O 4100  10.076   8.024   7.253 -0.6350 -0.2213 -0.2136
  755MOL0     C 4101  10.267   7.925   6.972  0.3659 -0.3760  0.1130
  755MOL0     C 4102  10.375   7.948   6.883 -0.5093 -0.2323 -0.3930
  755MOL0     N 4103  11.048   7.758   6.895  0.6242 -0.6540  0.1267
  755MOL0     N 4104  11.138   7.697   6.965 -0.6929  0.2539 -1.3014
  755MOL0     C 4105  11.592   8.252   6.926 -0.3029  0.3851 -0.4548
  755MOL0     C 4106  11.515   8.350   6.852 -0.9716 -0.3764 -0.0926
  755MOL0     C 4107  11.338   8.675   6.653 -0.4461  0.3815 -0.8534
  755MOL0     C 4108  11.242   8.731   6.749  0.7216  0.1629  0.5835
  755MOL0     C 4109  11.131   8.802   6.698 -0.6648 -0.4587  0.3253
  755MOL0     C 4110  11.098   8.801   6.557  0.9239  0.4790 -0.3435
  755MOL0     O 4111  10.999   8.876   6.501  0.2455 -0.1851 -0.4091
  755MOL0     C 4112  10.908   8.944   6.592 -0.1883  0.2027 -0.2608
  755MOL0     C 4113  10.810   9.008   6.502 -0.1639  0.7168 -0.7648
  755MOL0     C 4114  10.732   8.908   6.411  0.8444 -0.3632  0.3438
  755MOL0     C 4115  10.630   8.998   6.335  0.0970 -0.1539  0.3906
  755MOL0     C 4116  10.532   9.048   6.422  0.1743  0.3005  0.9810
  755MOL0     C 4117  10.442   9.096   6.484 -1.1418  0.3796 -0.3067
  755MOL0     C 4118  11.186   8.742   6.467  0.0779 -1.2488  0.6690
  755MOL0     C 4119  11.312   8.682   6.513 -0.5708  0.1872  0.7417
  755MOL0     C 4120  11.412   8.654   6.416 -0.8446 -0.7774 -0.5304
  755MOL0     H 4121  11.720   8.365   6.579  0.7267  1.8644  1.5211
  755MOL0     H 4122  11.837   8.177   6.698  0.7504 -0.3066  1.0877
  755MOL0     H 4123  11.978   8.126   6.921  1.1713  0.3675 -0.7840
  755MOL0     H 4124  11.899   8.017   6.812 -2.3691 -1.3473  0.5887
  755MOL0     H 4125  12.045   7.902   7.010 -0.8046 -1.8856 -0.2630
  755MOL0     H 4126  11.908   7.950   7.108 -1.0258 -1.0507  0.9675
  755MOL0     H 4127  11.886   7.802   6.845  0.0782  1.6929 -0.1889
  755MOL0     H 4128  11.931   7.718   6.997 -0.2531 -0.2122 -0.9469
  755MOL0     H 4129  11.669   7.869   6.955  2.9939  1.7135  0.1134
  755MOL0     H 4130  11.697   7.688   6.956 -0.0159  1.3736 -2.7683
  755MOL0     H 4131  11.703   7.879   7.185 -0.0025 -0.8454  3.4128
  755MOL0     H 4132  11.768   7.720   7.203 -0.6515  0.2425  0.3788
  755MOL0     H 4133  11.548   7.616   7.136 -0.7171  0.2026 -1.1096
  755MOL0     H 4134  11.531   7.718   7.278 -1.9814  2.4526  0.1571
  755MOL0     H 4135  11.435   7.762   6.983 -0.2063  0.5790 -0.5509
  755MOL0     H 4136  11.446   7.900   7.085 -3.7928  0.3311 -0.1408
  755MOL0     H 4137  11.278   7.651   7.156  0.8263  0.0080 -1.4022
  755MOL0     H 4138  11.279   7.799   7.239 -4.3662 -3.3647  0.9636
  755MOL0     H 4139  11.189   8.014   7.033 -0.0680 -0.6871  0.6784
  755MOL0     H 4140  11.008   7.954   6.710  2.8916  1.5459  0.0999
  755MOL0     H 4141  11.016   8.089   6.814  3.6973 -1.3610  2.1568
  755MOL0     H 4142  10.804   7.868   6.874  0.5639 -0.4176 -0.7300
  755MOL0     H 4143  10.826   8.022   6.934  3.0717  0.2993 -0.7333
  755MOL0     H 4144  10.782   8.133   6.695  1.5027 -1.1987 -1.2642
  755MOL0     H 4145  10.780   7.969   6.621 -2.2049 -1.3130 -0.2131
  755MOL0     H 4146  10.567   8.028   6.646  1.8906 -0.5264 -0.4134
  755MOL0     H 4147  10.601   7.905   6.771 -1.2860 -1.6480 -2.5849
  755MOL0     H 4148  10.485   8.233   7.038 -1.0336  1.7087 -0.6397
  755MOL0     H 4149  10.432   8.205   7.253  0.2926  2.3139 -2.2673
  755MOL0     H 4150  10.289   8.164   7.331  1.3653 -0.9889 -0.3899
  755MOL0     H 4151  10.292   8.300   7.213 -1.4827 -0.0906  2.1306
  755MOL0     H 4152   9.888   7.674   7.113  1.8646  2.4681 -0.8406
  755MOL0     H 4153   9.730   7.559   7.249  0.1886 -1.1452  0.7167
  755MOL0     H 4154   9.553   7.607   7.399 -0.3363  1.1489  1.6167
  755MOL0     H 4155   9.593   7.433   7.403  2.2057  1.2224 -2.5888
  755MOL0     H 4156   9.401   7.493   7.549  0.2642  1.2003 -2.3066
  755MOL0     H 4157   9.531   7.440   7.659 -3.3879 -2.6437 -0.5408
  755MOL0     H 4158   9.457   7.742   7.593 -1.0205 -0.6737 -0.9188
  755MOL0     H 4159   9.591   7.696   7.685  0.8036 -1.8444 -1.1741
  755MOL0     H 4160   9.462   7.603   7.854  1.2031 -0.3309 -0.9714
  755MOL0     H 4161   9.306   7.613   7.755 -1.6470  0.7954  2.5033
  755MOL0     H 4162   9.489   7.849   7.860  0.1250 -1.0406  2.6592
  755MOL0     H 4163   9.359   7.872   7.749 -1.9283  0.0896  0.8069
  755MOL0     H 4164   9.309   7.737   8.042  0.9188  2.9663  2.5870
  755MOL0     H 4165   9.198   7.825   7.937  0.0915  1.6102 -0.4721
  755MOL0     H 4166   9.444   7.929   8.067  1.6253 -3.7185 -2.8393
  755MOL0     H 4167   9.271   7.934   8.132  0.6033  1.3280 -0.4008
  755MOL0     H 4168   9.208   8.118   7.986 -1.7493 -2.0032 -3.2203
  755MOL0     H 4169   9.306   8.068   7.864  1.8548  2.6862 -0.0353
  755MOL0     H 4170   9.927   7.688   7.594  2.2240  0.4615  0.3589
  755MOL0     H 4171  10.103   7.816   7.454  0.5487  0.8595  0.0918
  755MOL0     H 4172  10.190   7.853   6.945  1.1997 -1.1053 -0.3877
  755MOL0     H 4173  10.371   7.880   6.798  0.7687 -0.3800 -0.3595
  755MOL0     H 4174  11.546   8.209   7.014  0.8702  2.2513  1.1431
  755MOL0     H 4175  11.438   8.417   6.888  0.0971  2.0853 -2.0777
  755MOL0     H 4176  11.262   8.737   6.855  1.9581 -2.0701  0.5331
  755MOL0     H 4177  11.076   8.845   6.782 -0.9791 -0.9240  0.3596
  755MOL0     H 4178  10.862   8.866   6.653  1.2828 -0.9912 -0.6070
  755MOL0     H 4179  10.957   9.017   6.656  2.2224 -1.0111 -0.6112
  755MOL0     H 4180  10.850   9.085   6.435 -3.7214  4.1286  0.6286
  755MOL0     H 4181  10.742   9.055   6.573  1.4808  2.2415 -0.1303
  755MOL0     H 4182  10.806   8.873   6.339  0.9069 -1.3363  0.8667
  755MOL0     H 4183  10.684   8.820   6.455 -4.1939  1.9482  0.2612
  755MOL0     H 4184  10.583   8.939   6.255 -1.9534  0.4247  1.1125
  755MOL0     H 4185  10.691   9.076   6.288  1.5457  0.2743  2.8408
  755MOL0     H 4186  10.357   9.113   6.546 -0.6963  1.2789  0.0723
  755MOL0     H 4187  11.163   8.736   6.362  1.0767  0.7176  0.2927
  755MOL0     H 4188  11.506   8.698   6.452 -1.1868 -0.6303  0.2165
  755MOL0     H 4189  11.428   8.546   6.414  4.8558 -0.2614  0.3024
  755MOL0     H 4190  11.389   8.683   6.313 -4.1455 -0.5854  0.1520
  756MOL0     O 4191   5.165   8.327   1.982 -0.1371 -0.0614  0.4566
  756MOL0     C 4192   5.080   8.244   1.971  1.2364  0.4948  0.2642
  756MOL0     O 4193   4.965   8.235   2.045 -0.2129  1.1202 -0.0402
  756MOL0     C 4194   4.938   8.317   2.151  0.3963  1.0550  1.3717
  756MOL0     C 4195   5.022   8.396   2.222 -0.4217 -0.3370 -1.0327
  756MOL0     C 4196   4.985   8.482   2.329 -0.1448 -0.0425 -0.0708
  756MOL0     C 4197   4.850   8.479   2.372  0.0102  0.4487 -0.5714
  756MOL0     O 4198   4.791   8.537   2.482 -0.2699 -0.5539 -0.7452
  756MOL0     C 4199   4.873   8.612   2.580 -0.3127 -0.1094 -0.0338
  756MOL0     C 4200   4.903   8.756   2.542  0.6619  0.1787 -0.0489
  756MOL0     C 4201   4.776   8.840   2.491 -0.1788  0.7713 -0.6604
  756MOL0     C 4202   4.803   8.931   2.373 -0.4755  0.0671 -1.0340
  756MOL0     C 4203   4.688   9.017   2.336  1.2677  0.7123  0.2766
  756MOL0     C 4204   4.668   9.129   2.434 -0.4563 -0.0781 -0.2117
  756MOL0     C 4205   4.774   9.242   2.427  0.2103 -1.0426 -0.6861
  756MOL0     C 4206   4.730   9.359   2.521  0.1990 -0.7825 -0.0225
  756MOL0     N 4207   4.795   9.484   2.475  0.6768  0.3040  0.2040
  756MOL0     C 4208   4.744   9.604   2.478  0.6304  1.0022 -1.1524
  756MOL0     C 4209   4.822   9.686   2.407  1.1638  0.0950 -1.2572
  756MOL0     C 4210   4.797   9.835   2.402 -0.6783  0.0290  0.2887
  756MOL0     C 4211   4.653   9.865   2.362  0.1337  0.3939  0.0233
  756MOL0     C 4212   4.604   9.819   2.230 -0.9021  0.1998 -0.0089
  756MOL0     C 4213   4.453   9.841   2.196  0.1951 -0.6142 -0.9171
  756MOL0     O 4214   4.422   9.792   2.071  0.0824 -0.1154 -0.1565
  756MOL0     C 4215   4.292   9.817   2.042 -0.2797  1.0205  0.2784
  756MOL0     C 4216   4.233   9.936   1.996 -0.6925 -0.4359 -0.0014
  756MOL0     C 4217   4.106   9.937   1.943  0.1926 -0.6048  0.4919
  756MOL0     C 4218   4.046  10.075   1.917 -1.0519 -0.2187 -0.6565
  756MOL0     C 4219   4.016   9.819   1.946  1.2117  0.3453 -0.2212
  756MOL0     C 4220   3.880   9.816   1.899  0.3422 -0.5325 -0.2927
  756MOL0     O 4221   3.841   9.897   1.797  0.5666  0.7117 -0.0652
  756MOL0     C 4222   3.707   9.891   1.776  0.3557 -0.6828  0.3056
  756MOL0     C 4223   3.627  10.009   1.807  0.1250 -0.6335 -0.8056
  756MOL0     C 4224   3.487  10.010   1.789 -0.0404  0.0154 -0.4620
  756MOL0     C 4225   3.429   9.898   1.730  0.2587  0.5134 -0.1216
  756MOL0     O 4226   3.289   9.896   1.707 -0.3727 -0.5017 -0.2178
  756MOL0     C 4227   3.221   9.776   1.753  0.1210 -1.6001  0.6499
  756MOL0     C 4228   3.095   9.803   1.841  0.0153  0.3100 -0.1596
  756MOL0     C 4229   3.148   9.875   1.964  0.4753 -0.1697 -1.0331
  756MOL0     C 4230   3.038   9.885   2.076 -0.7129 -0.2648  0.9652
  756MOL0     C 4231   3.085   9.923   2.212  0.9475  0.1960  0.5841
  756MOL0     C 4232   3.144  10.063   2.218 -0.0415 -0.2511  0.0779
  756MOL0     C 4233   3.040  10.175   2.174 -1.0416 -0.8954 -0.7523
  756MOL0     C 4234   3.108  10.315   2.159  0.1273  0.3298 -0.2218
  756MOL0    Cl 4235   3.173  10.354   2.324  0.3030  0.1909 -0.0187
  756MOL0     C 4236   3.509   9.791   1.688  0.0815 -0.5770 -0.1008
  756MOL0     C 4237   3.645   9.785   1.722  0.6640 -0.5929  0.4064
  756MOL0     O 4238   3.809   9.746   1.973  0.4108 -0.2204  0.0898
  756MOL0     C 4239   4.079   9.702   1.999 -0.2203 -0.4406 -0.3723
  756MOL0     C 4240   4.209   9.705   2.035  0.9912 -0.4875 -0.0546
  756MOL0     N 4241   4.923   9.609   2.351  0.0544  0.7812 -0.5297
  756MOL0     N 4242   4.907   9.493   2.392 -0.0115  0.1979  0.2225
  756MOL0     C 4243   4.761   8.400   2.303  0.1238 -0.3922  0.2970
  756MOL0     C 4244   4.808   8.308   2.208  0.5145 -0.8483 -0.3229
  756MOL0     C 4245   5.095   8.170   1.843  0.0609  0.3867 -0.3889
  756MOL0     C 4246   4.984   8.130   1.774  0.5637  1.6787 -0.3038
  756MOL0     C 4247   4.981   8.044   1.668 -0.2865  0.5533 -0.5163
  756MOL0     C 4248   5.096   7.983   1.627 -0.5250  0.1692 -0.1442
  756MOL0     O 4249   5.108   7.904   1.519  0.2318  0.5031 -0.1746
  756MOL0     C 4250   5.191   7.952   1.414 -0.0448  0.0359  0.2544
  756MOL0     C 4251   5.226   7.840   1.319 -0.1265 -0.2133  0.4170
  756MOL0     C 4252   5.281   7.719   1.394  0.1236 -0.2727 -0.2868
  756MOL0     C 4253   5.299   7.590   1.300  0.6578 -0.4000 -0.2104
  756MOL0     C 4254   5.406   7.627   1.217 -0.4212 -0.4416 -0.3593
  756MOL0     C 4255   5.493   7.682   1.155  0.1035  0.2612 -0.4929
  756MOL0     C 4256   5.215   8.014   1.689 -0.0116  0.3201 -0.0463
  756MOL0     C 4257   5.223   8.120   1.790  0.8171 -0.4284  0.5773
  756MOL0     C 4258   5.355   8.160   1.853  0.3080  0.6588 -0.0249
  756MOL0     H 4259   5.127   8.388   2.196  0.4151  3.6886  0.4860
  756MOL0     H 4260   5.057   8.542   2.385 -0.1439  1.5236 -1.6656
  756MOL0     H 4261   4.963   8.554   2.603 -0.4059 -0.4967 -0.6389
  756MOL0     H 4262   4.810   8.633   2.667 -1.4897  4.8057 -1.7683
  756MOL0     H 4263   4.963   8.798   2.623  0.9544 -1.2386  0.4996
  756MOL0     H 4264   4.976   8.753   2.461  1.9525 -2.2929  1.0822
  756MOL0     H 4265   4.697   8.771   2.458  1.4889 -1.5929  0.0401
  756MOL0     H 4266   4.738   8.904   2.571  2.3287  2.3043 -0.6103
  756MOL0     H 4267   4.899   8.981   2.389  1.0129 -2.7323 -0.6088
  756MOL0     H 4268   4.820   8.868   2.286  1.3513  2.4239 -2.4965
  756MOL0     H 4269   4.600   8.955   2.316  4.3376 -3.8298 -0.6110
  756MOL0     H 4270   4.719   9.055   2.239 -1.4137 -1.1982 -1.4944
  756MOL0     H 4271   4.564   9.161   2.422 -1.6647 -2.8147  1.9497
  756MOL0     H 4272   4.680   9.090   2.536  3.3085 -0.2682 -0.5702
  756MOL0     H 4273   4.766   9.271   2.322 -2.3641  4.7245  0.7241
  756MOL0     H 4274   4.875   9.209   2.455  0.2228 -0.4597 -0.0056
  756MOL0     H 4275   4.621   9.370   2.517  0.0764 -2.0764 -1.0286
  756MOL0     H 4276   4.768   9.339   2.622  3.0167  2.9953 -0.1164
  756MOL0     H 4277   4.655   9.636   2.531 -3.0485  0.1721 -6.0877
  756MOL0     H 4278   4.855   9.877   2.319 -2.1899  1.5417 -0.0291
  756MOL0     H 4279   4.830   9.889   2.491 -1.6319  0.3912  0.4320
  756MOL0     H 4280   4.595   9.820   2.444  4.5013 -2.5752  1.8654
  756MOL0     H 4281   4.639   9.973   2.371  0.7991  0.4970 -0.1082
  756MOL0     H 4282   4.655   9.880   2.155 -2.7106  1.3436 -0.3669
  756MOL0     H 4283   4.618   9.712   2.211  1.6592  0.0231  2.3405
  756MOL0     H 4284   4.392   9.794   2.273  0.5248 -0.3860 -0.5148
  756MOL0     H 4285   4.444   9.950   2.194 -0.9775 -0.7055 -2.4784
  756MOL0     H 4286   4.300  10.021   1.993  1.9983 -2.3132 -4.6040
  756MOL0     H 4287   4.106  10.146   1.975  1.4169 -2.2749 -0.4858
  756MOL0     H 4288   3.946  10.095   1.955 -0.8445  0.9584 -0.6711
  756MOL0     H 4289   4.045  10.103   1.811 -0.2888  3.7650  0.2336
  756MOL0     H 4290   3.672  10.098   1.851  3.1141 -1.2718 -2.2828
  756MOL0     H 4291   3.417  10.086   1.822 -0.1636 -0.8584  1.4681
  756MOL0     H 4292   3.201   9.711   1.667  1.8667 -0.6439 -0.5659
  756MOL0     H 4293   3.286   9.719   1.820 -0.0585  0.5198  2.7398
  756MOL0     H 4294   3.012   9.854   1.791  0.6866  2.4022  0.7491
  756MOL0     H 4295   3.042   9.712   1.871 -4.1130  1.8033 -2.1574
  756MOL0     H 4296   3.182   9.973   1.932  1.1711 -0.6178 -1.6962
  756MOL0     H 4297   3.229   9.813   2.004  0.8434  0.4501 -0.8233
  756MOL0     H 4298   2.989   9.790   2.097  0.5933 -0.6200  2.5508
  756MOL0     H 4299   2.970   9.961   2.036  1.9821  2.2897  0.8949
  756MOL0     H 4300   2.999   9.922   2.280  0.0587 -0.2375 -0.5188
  756MOL0     H 4301   3.156   9.845   2.240  1.7098 -1.2881 -4.4782
  756MOL0     H 4302   3.221  10.071   2.142  0.4410  0.4337  0.6213
  756MOL0     H 4303   3.181  10.084   2.319 -1.5002 -0.2322  0.6411
  756MOL0     H 4304   2.951  10.166   2.236 -0.4268  0.8982  0.4718
  756MOL0     H 4305   3.013  10.151   2.070  0.2065 -1.0346 -1.0622
  756MOL0     H 4306   3.028  10.384   2.132 -2.2668 -2.0971  0.2530
  756MOL0     H 4307   3.185  10.317   2.082 -0.0091  2.6699 -0.3637
  756MOL0     H 4308   3.466   9.711   1.629 -0.5734 -0.0087 -0.3987
  756MOL0     H 4309   3.706   9.703   1.685  3.8965  1.0884  1.5998
  756MOL0     H 4310   4.018   9.613   2.008  0.1309 -0.7266 -0.7576
  756MOL0     H 4311   4.263   9.620   2.076 -1.4966 -0.5371  3.5647
  756MOL0     H 4312   4.658   8.394   2.334  0.0531 -1.8006 -0.1505
  756MOL0     H 4313   4.732   8.242   2.166 -1.5930 -1.0425  3.3540
  756MOL0     H 4314   4.887   8.165   1.809  0.8840  2.0235  0.2480
  756MOL0     H 4315   4.887   8.031   1.614  1.2619 -1.4966 -2.9397
  756MOL0     H 4316   5.138   8.038   1.372  0.3991  0.3410  0.3090
  756MOL0     H 4317   5.286   7.993   1.450  0.8765 -2.2566  0.5835
  756MOL0     H 4318   5.312   7.872   1.260  1.1774 -0.4020  2.1615
  756MOL0     H 4319   5.138   7.804   1.264  0.3713 -1.1786  0.2240
  756MOL0     H 4320   5.381   7.749   1.428  0.4700 -0.3217 -1.2251
  756MOL0     H 4321   5.220   7.693   1.480 -0.0125 -2.0649 -0.8730
  756MOL0     H 4322   5.200   7.583   1.255 -0.0781 -0.0058  1.2648
  756MOL0     H 4323   5.311   7.493   1.349 -0.4615 -2.0466 -2.9544
  756MOL0     H 4324   5.565   7.738   1.099 -1.0165  4.0537  1.4586
  756MOL0     H 4325   5.314   7.980   1.664  0.4976  2.5072 -1.2498
  756MOL0     H 4326   5.430   8.090   1.816  0.1688  1.1342 -1.2555
  756MOL0     H 4327   5.376   8.267   1.837 -2.4421  1.4143  0.7937
  756MOL0     H 4328   5.338   8.148   1.960 -2.3731  0.2817 -0.4257
  757MOL0     O 4329   6.455   7.655   8.835 -0.5322 -0.2361 -0.0184
  757MOL0     C 4330   6.406   7.624   8.734 -0.5712  0.5653  0.0883
  757MOL0     O 4331   6.291   7.671   8.689  0.6471  0.0551  0.2478
  757MOL0     C 4332   6.219   7.746   8.772 -0.2850 -0.4835  0.3411
  757MOL0     C 4333   6.170   7.701   8.894  0.2947 -0.0270  0.5115
  757MOL0     C 4334   6.086   7.775   8.973 -0.1789 -1.0163 -0.2005
  757MOL0     C 4335   6.037   7.899   8.929  0.5250 -0.0354 -0.2678
  757MOL0     O 4336   5.945   7.963   9.019  0.0270 -0.9210  0.1734
  757MOL0     C 4337   5.879   8.061   8.946 -0.0259 -0.8265  0.3633
  757MOL0     C 4338   5.776   8.115   9.036 -0.5046  0.2782 -1.7949
  757MOL0     C 4339   5.829   8.196   9.154 -0.5884 -0.0552 -0.0524
  757MOL0     C 4340   5.703   8.255   9.230 -0.9529 -0.5580 -0.0333
  757MOL0     C 4341   5.732   8.311   9.373 -0.1502  0.7084 -0.0773
  757MOL0     C 4342   5.615   8.328   9.462  0.3296  0.4379  0.3173
  757MOL0     C 4343   5.652   8.379   9.602 -0.0427  0.6686 -0.0733
  757MOL0     C 4344   5.522   8.396   9.681  1.0437  0.2392  0.3283
  757MOL0     N 4345   5.536   8.411   9.826 -0.2996  0.4027 -0.9995
  757MOL0     C 4346   5.453   8.487   9.907  0.3829  0.3566 -0.2691
  757MOL0     C 4347   5.495   8.460  10.034  0.4502  0.0154 -0.9453
  757MOL0     C 4348   5.453   8.511  10.175 -0.9988  0.0830 -0.1135
  757MOL0     C 4349   5.542   8.628  10.224 -1.0449 -0.9048  0.2537
  757MOL0     C 4350   5.629   8.599  10.354 -0.5384 -0.6363  0.5451
  757MOL0     C 4351   5.716   8.475  10.346 -0.5388  0.3591 -0.2242
  757MOL0     O 4352   5.810   8.483  10.457  0.1641  0.4959 -0.5008
  757MOL0     C 4353   5.910   8.389  10.460  0.7384  0.0359 -0.5275
  757MOL0     C 4354   5.968   8.312  10.351  0.8414  1.2814 -0.8577
  757MOL0     C 4355   6.070   8.218  10.383 -0.2466 -0.5955  0.6231
  757MOL0     C 4356   6.137   8.155  10.260 -0.5235  0.9104 -0.6391
  757MOL0     C 4357   6.119   8.203  10.509 -0.4152 -0.5928  1.0363
  757MOL0     C 4358   6.243   8.126  10.534  1.1101  0.2254  0.0501
  757MOL0     O 4359   6.367   8.170  10.495 -0.2412 -0.3471  0.5013
  757MOL0     C 4360   6.401   8.295  10.436 -0.1065  0.1141  0.6285
  757MOL0     C 4361   6.475   8.289  10.323 -0.1520 -0.0155 -0.0332
  757MOL0     C 4362   6.512   8.406  10.258 -0.3237 -0.7623 -0.3500
  757MOL0     C 4363   6.469   8.533  10.308  0.9515  0.0345  0.0575
  757MOL0     O 4364   6.488   8.645  10.231 -0.0792  0.2159  0.1597
  757MOL0     C 4365   6.420   8.764  10.268  0.9253  0.3048  0.3775
  757MOL0     C 4366   6.388   8.846  10.143 -0.2374  0.2516 -0.0120
  757MOL0     C 4367   6.517   8.865  10.053  0.0129 -0.3915 -0.5472
  757MOL0     C 4368   6.499   8.977   9.948 -0.9439  0.1099 -0.9070
  757MOL0     C 4369   6.632   9.003   9.872  0.0090 -0.5627  0.3369
  757MOL0     C 4370   6.655   9.152   9.838  1.2460  0.0134  0.0392
  757MOL0     C 4371   6.773   9.188   9.737 -0.8374 -0.7636  0.1426
  757MOL0     C 4372   6.757   9.321   9.653  0.4891  0.9683 -0.2787
  757MOL0    Cl 4373   6.601   9.329   9.582  0.0735  0.1864  0.3147
  757MOL0     C 4374   6.413   8.535  10.433  0.8377 -0.2702  0.5979
  757MOL0     C 4375   6.373   8.416  10.495 -0.0161  0.6121  0.5260
  757MOL0     O 4376   6.213   8.036  10.612 -0.3874  0.9892 -0.1844
  757MOL0     C 4377   6.074   8.284  10.614  1.3902  0.4417  0.4213
  757MOL0     C 4378   5.964   8.376  10.588 -0.9369  0.8657 -0.4365
  757MOL0     N 4379   5.592   8.366  10.021 -0.7791  0.1498  0.8434
  757MOL0     N 4380   5.629   8.348   9.898 -0.2940 -0.2635 -0.2843
  757MOL0     C 4381   6.083   7.951   8.804  0.2657 -0.1095 -0.5296
  757MOL0     C 4382   6.185   7.875   8.733  0.1249 -0.1012 -0.1587
  757MOL0     C 4383   6.492   7.540   8.643 -0.2264 -0.7395  0.2835
  757MOL0     C 4384   6.451   7.521   8.509  0.2064 -1.6256 -0.4275
  757MOL0     C 4385   6.506   7.430   8.420  0.2906 -0.2239  0.1836
  757MOL0     C 4386   6.623   7.368   8.452 -0.3436  0.4371 -0.0982
  757MOL0     O 4387   6.705   7.289   8.369  0.2870  0.2956  0.4798
  757MOL0     C 4388   6.711   7.332   8.228  0.2848 -0.4503 -0.3504
  757MOL0     C 4389   6.849   7.278   8.178 -0.1627 -0.2098 -0.8171
  757MOL0     C 4390   6.963   7.352   8.260 -0.3985  0.2702  0.5069
  757MOL0     C 4391   7.008   7.481   8.190 -0.2805  0.1677  0.6009
  757MOL0     C 4392   6.927   7.592   8.229 -0.4875 -0.5628 -0.7571
  757MOL0     C 4393   6.842   7.680   8.254  0.1711  0.0955 -0.6049
  757MOL0     C 4394   6.675   7.392   8.581  0.1701 -0.6343 -0.0571
  757MOL0     C 4395   6.619   7.488   8.674 -1.0456 -0.1965 -0.1084
  757MOL0     C 4396   6.690   7.509   8.813  0.1875  0.1134 -0.3672
  757MOL0     H 4397   6.196   7.599   8.920  2.3419  0.9077  2.5900
  757MOL0     H 4398   6.043   7.732   9.062  0.4931 -0.6550  0.3078
  757MOL0     H 4399   5.826   8.014   8.863  0.6492 -1.1650  0.1216
  757MOL0     H 4400   5.943   8.143   8.913 -0.4083 -1.1285 -1.2138
  757MOL0     H 4401   5.715   8.186   8.979  0.0316  5.1384  2.8788
  757MOL0     H 4402   5.716   8.032   9.074 -0.1133 -0.4942 -2.8071
  757MOL0     H 4403   5.895   8.137   9.218  1.9607  3.7223  1.1096
  757MOL0     H 4404   5.897   8.276   9.123  0.0023 -0.9067 -1.0375
  757MOL0     H 4405   5.664   8.339   9.171  0.9725  0.6766  0.3657
  757MOL0     H 4406   5.632   8.172   9.236 -0.9222 -0.5342  0.7499
  757MOL0     H 4407   5.788   8.405   9.363  1.7357 -0.2021  1.3187
  757MOL0     H 4408   5.797   8.237   9.421 -0.4885  0.7179  0.3977
  757MOL0     H 4409   5.534   8.394   9.430 -1.2369 -2.0995 -1.3098
  757MOL0     H 4410   5.564   8.232   9.471  1.2811 -0.1230 -0.1336
  757MOL0     H 4411   5.705   8.475   9.608  1.4485 -0.0607 -0.9812
  757MOL0     H 4412   5.724   8.307   9.641 -0.8078  0.6499  1.3960
  757MOL0     H 4413   5.458   8.469   9.630  2.4734  0.4698 -1.2468
  757MOL0     H 4414   5.470   8.303   9.657  3.2365 -1.5915  2.1989
  757MOL0     H 4415   5.372   8.554   9.880 -0.1677 -0.7535 -1.5040
  757MOL0     H 4416   5.453   8.430  10.248  1.3465 -0.2644 -0.4176
  757MOL0     H 4417   5.348   8.542  10.174 -0.6057  1.5190 -1.2421
  757MOL0     H 4418   5.607   8.660  10.143  0.1410  0.4822  1.6928
  757MOL0     H 4419   5.486   8.720  10.243 -0.4531 -0.2624 -0.9782
  757MOL0     H 4420   5.690   8.689  10.363 -3.5731  1.3580  3.7584
  757MOL0     H 4421   5.567   8.593  10.444  1.1543  3.1599  2.1691
  757MOL0     H 4422   5.652   8.386  10.357  0.9271 -0.4569  2.7459
  757MOL0     H 4423   5.776   8.475  10.255  0.4775 -1.3420  0.4012
  757MOL0     H 4424   5.925   8.322  10.251 -1.8165  0.4673  0.0983
  757MOL0     H 4425   6.231   8.210  10.247  1.1637 -1.4659  0.6993
  757MOL0     H 4426   6.083   8.175  10.167 -3.3588  1.5246  1.0049
  757MOL0     H 4427   6.163   8.049  10.267 -3.1314  0.2754  1.0419
  757MOL0     H 4428   6.482   8.188  10.285  3.4222  0.4338 -0.9083
  757MOL0     H 4429   6.564   8.399  10.163 -1.5943 -0.1525 -1.1187
  757MOL0     H 4430   6.327   8.749  10.322 -0.5104 -2.4584 -2.5408
  757MOL0     H 4431   6.487   8.823  10.332  2.5896  1.2069 -2.0380
  757MOL0     H 4432   6.305   8.795  10.094 -1.3024  0.7304  1.2251
  757MOL0     H 4433   6.354   8.947  10.171 -1.3973  0.0106 -0.4979
  757MOL0     H 4434   6.539   8.772   9.999 -2.8106 -1.2914 -0.2975
  757MOL0     H 4435   6.592   8.898  10.126 -0.3726  2.5174 -1.3385
  757MOL0     H 4436   6.466   9.072   9.991 -0.1182  0.5183 -1.1649
  757MOL0     H 4437   6.428   8.945   9.871 -0.2957  0.1849 -1.5466
  757MOL0     H 4438   6.718   8.974   9.933 -1.4473 -3.8900  1.0391
  757MOL0     H 4439   6.648   8.939   9.784 -0.9639  1.1795 -1.1859
  757MOL0     H 4440   6.676   9.200   9.934 -2.4755  1.3013  0.3680
  757MOL0     H 4441   6.561   9.193   9.799  0.4796 -2.4467 -0.8998
  757MOL0     H 4442   6.796   9.099   9.678  2.2227 -0.7803  1.1710
  757MOL0     H 4443   6.861   9.195   9.803 -0.7039 -2.6900  0.2379
  757MOL0     H 4444   6.832   9.327   9.574 -1.6528  0.1940 -2.5061
  757MOL0     H 4445   6.768   9.410   9.716  0.8479  0.9608 -0.3313
  757MOL0     H 4446   6.414   8.630  10.484  2.0844  0.8728 -1.4370
  757MOL0     H 4447   6.336   8.417  10.597 -1.1646  1.1496  0.1182
  757MOL0     H 4448   6.120   8.262  10.710 -0.3163 -0.0983  1.1700
  757MOL0     H 4449   5.920   8.422  10.676  0.2695 -0.9516  1.2126
  757MOL0     H 4450   6.054   8.046   8.761 -0.6321  0.5441  1.3951
  757MOL0     H 4451   6.229   7.918   8.644 -1.6058  0.4681 -0.7753
  757MOL0     H 4452   6.354   7.564   8.488 -0.3009 -0.5949  3.3562
  757MOL0     H 4453   6.457   7.401   8.327  0.5398 -1.9700  0.5713
  757MOL0     H 4454   6.635   7.288   8.163 -0.6914 -0.4095  0.7363
  757MOL0     H 4455   6.713   7.441   8.217  2.4779  0.0963  3.6391
  757MOL0     H 4456   6.855   7.289   8.069 -0.8609  1.6754 -0.6886
  757MOL0     H 4457   6.855   7.172   8.205  2.1574  0.5999  2.3406
  757MOL0     H 4458   6.945   7.377   8.365  0.5461  0.5991  0.5994
  757MOL0     H 4459   7.040   7.274   8.259  0.9191  1.4802 -1.9451
  757MOL0     H 4460   7.019   7.468   8.082  2.1129 -2.2729  1.0112
  757MOL0     H 4461   7.105   7.513   8.228 -0.2281  2.4690 -1.2098
  757MOL0     H 4462   6.758   7.743   8.273  0.3536  0.6552 -1.5909
  757MOL0     H 4463   6.764   7.339   8.613  1.4639  0.2405 -2.0163
  757MOL0     H 4464   6.632   7.517   8.905  1.9622 -2.4575  1.1052
  757MOL0     H 4465   6.763   7.427   8.822 -1.8536 -1.5440  3.1119
  757MOL0     H 4466   6.752   7.598   8.801 -1.4232  1.6623  2.0327
  758MOL0     O 4467   7.638   1.087   0.782  0.0008  0.3883 -0.4768
  758MOL0     C 4468   7.754   1.133   0.766 -0.0602  0.4779 -1.2447
  758MOL0     O 4469   7.829   1.179   0.869 -0.1625 -0.7127 -0.1248
  758MOL0     C 4470   7.838   1.116   0.994  0.6414  0.0270  0.2593
  758MOL0     C 4471   7.924   1.178   1.081 -0.1898  0.5204 -0.3175
  758MOL0     C 4472   7.938   1.132   1.207 -1.1074 -0.6600 -0.4341
  758MOL0     C 4473   7.869   1.019   1.242 -1.1021  1.1264 -0.4082
  758MOL0     O 4474   7.869   0.973   1.366 -0.0857  0.1992 -0.4928
  758MOL0     C 4475   7.971   0.872   1.374 -0.0320  0.6885  0.2012
  758MOL0     C 4476   8.069   0.918   1.484  0.4512  0.0683 -0.6713
  758MOL0     C 4477   8.009   0.928   1.625  0.4576 -0.6786  0.1487
  758MOL0     C 4478   7.973   0.789   1.693 -0.2178  0.5470 -0.6047
  758MOL0     C 4479   7.933   0.823   1.827 -1.0722 -0.8889  0.0441
  758MOL0     C 4480   8.051   0.790   1.923  0.2208 -0.3708  0.8242
  758MOL0     C 4481   8.025   0.843   2.051 -0.3070 -0.7776 -0.1790
  758MOL0     C 4482   8.141   0.840   2.145 -0.7932 -0.2042 -1.0261
  758MOL0     N 4483   8.201   0.705   2.166 -0.5054  0.1287  0.8554
  758MOL0     C 4484   8.325   0.666   2.118  0.2946 -0.1551 -0.9032
  758MOL0     C 4485   8.355   0.545   2.177 -0.0488  0.2501 -0.0868
  758MOL0     C 4486   8.477   0.476   2.158 -0.0566 -0.9201 -0.9932
  758MOL0     C 4487   8.593   0.551   2.229 -0.5082 -0.8976 -1.3047
  758MOL0     C 4488   8.733   0.501   2.179  0.9083 -0.7131 -0.2712
  758MOL0     C 4489   8.839   0.605   2.211  1.0627 -0.3673  0.3110
  758MOL0     O 4490   8.807   0.725   2.132  0.1328  0.1193  0.8128
  758MOL0     C 4491   8.878   0.763   2.017 -0.2832 -0.0836 -0.3556
  758MOL0     C 4492   8.979   0.688   1.957 -0.4870  0.0707 -0.9094
  758MOL0     C 4493   9.066   0.741   1.867 -0.3024 -0.3329  0.1832
  758MOL0     C 4494   9.171   0.646   1.821 -0.8977  0.3442 -1.0829
  758MOL0     C 4495   9.039   0.868   1.814 -0.2414 -0.2472  0.5927
  758MOL0     C 4496   9.119   0.915   1.706 -0.0012  0.6937 -0.2779
  758MOL0     O 4497   9.252   0.872   1.708 -0.3926  0.0894 -0.0265
  758MOL0     C 4498   9.334   0.893   1.598 -0.4724 -0.9138 -0.0015
  758MOL0     C 4499   9.436   0.807   1.565 -0.7492 -0.0902 -0.0718
  758MOL0     C 4500   9.528   0.836   1.467 -0.0396 -0.9051  0.7081
  758MOL0     C 4501   9.519   0.955   1.391  0.2231  0.4428  0.5576
  758MOL0     O 4502   9.608   0.981   1.286  0.3561  0.5329 -0.8228
  758MOL0     C 4503   9.716   0.892   1.260 -0.1070 -0.0643 -0.2396
  758MOL0     C 4504   9.831   0.928   1.359  0.8153  0.1356 -0.5874
  758MOL0     C 4505   9.914   1.051   1.312  0.4291  0.3756  0.0542
  758MOL0     C 4506  10.005   1.010   1.191  0.2178  0.2826  0.1531
  758MOL0     C 4507  10.103   1.126   1.171 -1.1701 -0.1329  0.1500
  758MOL0     C 4508  10.200   1.116   1.052  0.8794  0.2216  0.5237
  758MOL0     C 4509  10.324   1.199   1.082 -0.4247 -0.3370 -0.9205
  758MOL0     C 4510  10.315   1.346   1.108 -0.3614  0.2598  0.5509
  758MOL0    Cl 4511  10.306   1.444   0.945 -0.4910  0.2279  0.3037
  758MOL0     C 4512   9.415   1.045   1.415 -0.5360 -0.4100 -0.3903
  758MOL0     C 4513   9.328   1.016   1.520  0.5943 -0.1411 -0.7976
  758MOL0     O 4514   9.058   0.982   1.622 -0.1995  0.9130 -0.0917
  758MOL0     C 4515   8.925   0.939   1.861 -0.0251  0.7209  0.0251
  758MOL0     C 4516   8.844   0.877   1.956  0.1565 -1.7523 -0.0867
  758MOL0     N 4517   8.244   0.520   2.264  0.3929 -0.3589  0.2369
  758MOL0     N 4518   8.156   0.618   2.248  0.0580 -0.0146  0.3772
  758MOL0     C 4519   7.794   0.949   1.150  0.1116  0.2095  0.4976
  758MOL0     C 4520   7.779   0.993   1.023 -0.1836  0.3875  0.6216
  758MOL0     C 4521   7.820   1.111   0.635 -0.8245 -0.3815 -0.3550
  758MOL0     C 4522   7.956   1.147   0.626 -0.9270  0.2538 -0.7041
  758MOL0     C 4523   8.031   1.113   0.511  0.2309  0.6684  0.4858
  758MOL0     C 4524   7.973   1.053   0.404  0.9359 -0.0550 -1.1047
  758MOL0     O 4525   8.048   1.015   0.292 -0.4032 -0.5496 -0.2625
  758MOL0     C 4526   8.123   1.129   0.239 -0.0474 -0.5778 -0.2594
  758MOL0     C 4527   8.134   1.111   0.094  0.5833  0.1174  0.5129
  758MOL0     C 4528   8.003   1.090   0.013 -0.2866 -0.4353  1.1256
  758MOL0     C 4529   8.046   1.079  -0.126  0.6738 -0.6247 -0.7393
  758MOL0     C 4530   7.929   1.042  -0.202  0.2882  0.8762  0.6380
  758MOL0     C 4531   7.824   1.015  -0.260  0.1900 -0.2681 -0.4176
  758MOL0     C 4532   7.841   1.016   0.409 -0.1920  0.2898 -0.4655
  758MOL0     C 4533   7.760   1.042   0.520 -1.5113  0.0994 -0.5299
  758MOL0     C 4534   7.625   1.003   0.511  0.0915 -0.0843 -0.3671
  758MOL0     H 4535   7.974   1.269   1.048 -4.1401  2.8602 -0.4194
  758MOL0     H 4536   8.010   1.178   1.275 -1.3802  0.3627 -0.8181
  758MOL0     H 4537   8.026   0.862   1.280  1.3750  1.0817  0.9538
  758MOL0     H 4538   7.918   0.780   1.403 -0.5189  0.9645  0.1893
  758MOL0     H 4539   8.161   0.859   1.484  0.8280  0.1979 -5.8692
  758MOL0     H 4540   8.108   1.014   1.449  2.3289  0.1150  1.3598
  758MOL0     H 4541   8.089   0.966   1.690  0.5999 -2.7445  1.2472
  758MOL0     H 4542   7.928   1.001   1.632  2.9586  2.3089  0.5284
  758MOL0     H 4543   7.880   0.758   1.645 -0.6392  0.9611 -0.0531
  758MOL0     H 4544   8.045   0.707   1.677  1.0444  1.0135  2.2345
  758MOL0     H 4545   7.853   0.758   1.864 -2.5513 -0.9939 -3.0115
  758MOL0     H 4546   7.890   0.923   1.841 -2.8621 -1.4991 -0.8815
  758MOL0     H 4547   8.044   0.683   1.941  1.0484 -0.5241  0.2390
  758MOL0     H 4548   8.144   0.830   1.882  0.7310 -2.3300 -0.0345
  758MOL0     H 4549   7.933   0.803   2.095 -1.7862  0.6572 -1.7929
  758MOL0     H 4550   7.992   0.946   2.040  1.2864  0.0069  1.7515
  758MOL0     H 4551   8.219   0.906   2.104 -1.6949  0.6095 -1.4717
  758MOL0     H 4552   8.106   0.882   2.239 -1.4188 -1.8731 -0.4770
  758MOL0     H 4553   8.389   0.719   2.049  0.1663 -1.2276 -1.8731
  758MOL0     H 4554   8.505   0.459   2.054  0.1069 -2.9143 -0.6503
  758MOL0     H 4555   8.464   0.373   2.192 -0.0905 -0.8249 -0.7099
  758MOL0     H 4556   8.585   0.656   2.197 -0.4632  0.3804  2.3425
  758MOL0     H 4557   8.583   0.544   2.338  3.6347 -1.1008 -0.7870
  758MOL0     H 4558   8.747   0.404   2.228 -1.3523 -0.1009  1.8113
  758MOL0     H 4559   8.725   0.488   2.071 -0.2957  3.7694 -0.9371
  758MOL0     H 4560   8.848   0.634   2.316  4.1915 -2.9298  0.8998
  758MOL0     H 4561   8.939   0.566   2.191  2.1058  2.2308  0.0468
  758MOL0     H 4562   9.002   0.586   1.986  0.1189  0.3094 -0.5066
  758MOL0     H 4563   9.173   0.637   1.712 -0.7064  1.1306 -1.1523
  758MOL0     H 4564   9.161   0.540   1.844 -0.6860  0.3072 -1.1661
  758MOL0     H 4565   9.268   0.678   1.859 -1.2184 -0.0148  0.0984
  758MOL0     H 4566   9.454   0.720   1.627  1.5744  1.8816  2.3082
  758MOL0     H 4567   9.612   0.768   1.475  0.3420 -0.6811 -0.9763
  758MOL0     H 4568   9.682   0.788   1.262 -1.1903  0.2519  2.5895
  758MOL0     H 4569   9.738   0.925   1.158 -2.2408  2.2681 -0.0516
  758MOL0     H 4570   9.791   0.953   1.458  1.7737  1.8438 -0.5977
  758MOL0     H 4571   9.896   0.843   1.384 -0.0086  0.2014  2.1474
  758MOL0     H 4572   9.985   1.084   1.389  1.9217  1.4223 -1.6886
  758MOL0     H 4573   9.846   1.132   1.284  1.5252  0.6929 -1.8312
  758MOL0     H 4574   9.932   0.987   1.112  0.9005 -3.8255  0.5185
  758MOL0     H 4575  10.053   0.914   1.210 -0.8635 -0.1683  0.7364
  758MOL0     H 4576  10.048   1.216   1.140  0.8232  1.8641  2.0425
  758MOL0     H 4577  10.162   1.133   1.262  2.5398 -4.2600 -1.5894
  758MOL0     H 4578  10.145   1.160   0.969 -1.5231 -1.0118  1.3707
  758MOL0     H 4579  10.227   1.013   1.026  3.1586  0.8502  0.1441
  758MOL0     H 4580  10.392   1.191   0.997  0.1282  0.2210 -0.5366
  758MOL0     H 4581  10.362   1.152   1.174  0.7802  3.0549  0.4552
  758MOL0     H 4582  10.398   1.384   1.169  1.1885  0.4864 -1.5697
  758MOL0     H 4583  10.226   1.362   1.168 -0.1174 -1.4445  1.4528
  758MOL0     H 4584   9.421   1.143   1.369 -0.2646  0.2290  0.9522
  758MOL0     H 4585   9.246   1.085   1.528 -0.2654 -1.3184  1.3670
  758MOL0     H 4586   8.899   1.036   1.820  1.6829  0.9454 -0.6302
  758MOL0     H 4587   8.754   0.922   1.998 -0.6131 -0.5003 -2.8558
  758MOL0     H 4588   7.742   0.858   1.178 -2.7308  1.2543 -0.9721
  758MOL0     H 4589   7.707   0.946   0.956  0.2529  0.4456  0.1065
  758MOL0     H 4590   8.003   1.191   0.714  0.5163 -3.0613  0.3327
  758MOL0     H 4591   8.137   1.133   0.524  0.9279 -3.1805  2.0211
  758MOL0     H 4592   8.077   1.226   0.261 -0.3482 -0.1869 -2.4371
  758MOL0     H 4593   8.219   1.137   0.290 -0.4939 -3.7736  1.3067
  758MOL0     H 4594   8.195   1.022   0.078  5.2452  3.3127 -1.5296
  758MOL0     H 4595   8.180   1.190   0.033  3.9006 -3.5687 -2.2426
  758MOL0     H 4596   7.947   1.001   0.045  0.2443 -1.3808 -0.4335
  758MOL0     H 4597   7.946   1.183   0.016  0.6570  0.1626  0.9623
  758MOL0     H 4598   8.122   1.002  -0.139  2.8994  1.4186 -0.4323
  758MOL0     H 4599   8.091   1.173  -0.159 -0.2574 -0.4989 -1.7080
  758MOL0     H 4600   7.741   0.991  -0.323 -2.0134 -1.7595  2.7677
  758MOL0     H 4601   7.808   0.942   0.336 -0.0682 -0.6623  0.4292
  758MOL0     H 4602   7.600   0.985   0.406 -2.3434  0.4155  0.0679
  758MOL0     H 4603   7.599   0.908   0.559 -0.0430  0.1742  0.0794
  758MOL0     H 4604   7.564   1.088   0.544  0.0392 -0.6808  1.1650
  759MOL0     O 4605   6.326   8.087   3.800 -0.2331 -0.4666 -0.3297
  759MOL0     C 4606   6.402   8.013   3.860 -0.7427  0.6151 -0.0343
  759MOL0     O 4607   6.436   7.887   3.803 -0.4096  0.2687  0.1213
  759MOL0     C 4608   6.346   7.823   3.722  0.0661 -0.1585 -0.4891
  759MOL0     C 4609   6.247   7.744   3.781 -1.4299  0.9799 -0.7889
  759MOL0     C 4610   6.151   7.688   3.711  0.4924 -0.0509  0.3012
  759MOL0     C 4611   6.122   7.712   3.579  0.0208 -0.0988 -0.5717
  759MOL0     O 4612   6.008   7.664   3.514  0.1301  0.0597 -0.1789
  759MOL0     C 4613   5.894   7.604   3.576  0.4996 -0.1325 -0.0080
  759MOL0     C 4614   5.822   7.692   3.677 -0.0061  1.0191 -0.6307
  759MOL0     C 4615   5.726   7.795   3.619 -1.6160 -0.4737  0.2598
  759MOL0     C 4616   5.783   7.906   3.517  0.8016 -0.2863 -0.4196
  759MOL0     C 4617   5.669   7.970   3.425  0.1981  0.1962 -0.1028
  759MOL0     C 4618   5.662   7.881   3.304  0.5200 -0.3927 -0.0225
  759MOL0     C 4619   5.530   7.791   3.292  0.7245  0.2865  0.2836
  759MOL0     C 4620   5.514   7.720   3.154  0.1520  0.6446  0.1521
  759MOL0     N 4621   5.383   7.642   3.150  0.2321 -0.3769  0.6742
  759MOL0     C 4622   5.375   7.512   3.190  0.1215 -0.0625  1.0251
  759MOL0     C 4623   5.248   7.483   3.207 -0.6039 -0.4589  0.1080
  759MOL0     C 4624   5.192   7.352   3.235 -0.1918  0.3800 -0.1418
  759MOL0     C 4625   5.116   7.286   3.113  0.4466 -0.1344 -0.9886
  759MOL0     C 4626   5.209   7.288   2.989 -0.2250 -0.4209 -0.3273
  759MOL0     C 4627   5.141   7.254   2.857  0.2742  0.5429  0.4076
  759MOL0     O 4628   5.161   7.114   2.824  0.4996  0.6857  0.5035
  759MOL0     C 4629   5.171   7.086   2.687  0.2629 -0.5017  0.1939
  759MOL0     C 4630   5.113   7.158   2.587  0.1503 -0.3065 -0.1459
  759MOL0     C 4631   5.113   7.111   2.451 -0.1942 -0.2166 -0.1655
  759MOL0     C 4632   5.031   7.202   2.355  1.1800  0.1185  0.2568
  759MOL0     C 4633   5.185   6.999   2.417  0.0522 -0.3238 -0.2865
  759MOL0     C 4634   5.206   6.929   2.283 -0.2825 -0.4927 -1.2164
  759MOL0     O 4635   5.302   6.828   2.279  0.0172 -0.6796 -0.2856
  759MOL0     C 4636   5.356   6.806   2.153 -0.2929  0.1163  0.2584
  759MOL0     C 4637   5.417   6.680   2.121  1.2493 -0.2109  0.1406
  759MOL0     C 4638   5.466   6.660   1.990  0.0430 -0.2962  0.3955
  759MOL0     C 4639   5.488   6.752   1.897 -0.2891  0.0234 -0.5443
  759MOL0     O 4640   5.547   6.724   1.770  0.4845 -0.3300 -0.3143
  759MOL0     C 4641   5.477   6.763   1.647  0.3599 -0.0821 -1.7099
  759MOL0     C 4642   5.565   6.718   1.533 -0.0143  0.6442 -0.2338
  759MOL0     C 4643   5.695   6.816   1.526  0.4126  0.0527 -1.2093
  759MOL0     C 4644   5.781   6.792   1.406 -0.6624  0.3444  1.0778
  759MOL0     C 4645   5.852   6.918   1.378 -0.4420  0.2633  0.1488
  759MOL0     C 4646   5.979   6.891   1.296  0.2287  0.5323  0.4153
  759MOL0     C 4647   5.952   6.905   1.145 -0.0579  0.3781  0.2516
  759MOL0     C 4648   5.874   6.787   1.082  0.6958 -0.5385 -0.0467
  759MOL0    Cl 4649   5.989   6.653   1.070 -0.5038 -0.1310  0.0682
  759MOL0     C 4650   5.427   6.871   1.922 -0.4710 -1.2541 -0.5921
  759MOL0     C 4651   5.368   6.901   2.039  0.3693  0.7139 -0.2711
  759MOL0     O 4652   5.129   6.953   2.199  0.7908  0.5257  0.6914
  759MOL0     C 4653   5.229   6.923   2.526  1.0849 -0.6114 -1.1119
  759MOL0     C 4654   5.232   6.973   2.659  0.2459  0.1234  0.9093
  759MOL0     N 4655   5.177   7.600   3.191  0.7826  0.4995 -0.2373
  759MOL0     N 4656   5.258   7.698   3.160 -0.1399 -0.9052  0.5057
  759MOL0     C 4657   6.217   7.793   3.514  0.4721 -0.2043 -0.0039
  759MOL0     C 4658   6.319   7.865   3.588 -0.0707  1.2162 -0.5265
  759MOL0     C 4659   6.486   8.072   3.967  0.6381  0.1653 -0.5151
  759MOL0     C 4660   6.541   7.982   4.062  0.7761 -1.7235  1.4554
  759MOL0     C 4661   6.631   8.021   4.156  0.1844 -0.5262 -0.5894
  759MOL0     C 4662   6.663   8.157   4.178 -0.8380 -0.7687 -0.0864
  759MOL0     O 4663   6.755   8.208   4.265  0.3697 -0.6952 -0.5827
  759MOL0     C 4664   6.846   8.117   4.314 -1.1045  0.3702  0.0843
  759MOL0     C 4665   6.962   8.185   4.389 -0.8894  0.3816  1.1028
  759MOL0     C 4666   6.895   8.238   4.516 -0.0801  0.0642 -0.4332
  759MOL0     C 4667   7.015   8.288   4.598 -0.1218  0.7435 -0.8253
  759MOL0     C 4668   6.976   8.328   4.740 -0.1152  0.2240 -0.1657
  759MOL0     C 4669   6.934   8.367   4.847 -0.2598  0.0488  0.0069
  759MOL0     C 4670   6.600   8.256   4.093 -0.3742 -0.0164  1.0633
  759MOL0     C 4671   6.508   8.215   3.983 -0.7712 -0.8420 -0.2546
  759MOL0     C 4672   6.451   8.328   3.897  0.5524  0.1580  0.3258
  759MOL0     H 4673   6.250   7.711   3.884  0.7009  0.2123 -1.0323
  759MOL0     H 4674   6.086   7.623   3.768  0.4397 -0.3904 -0.1397
  759MOL0     H 4675   5.935   7.515   3.624  2.9816 -1.4303 -4.0079
  759MOL0     H 4676   5.819   7.570   3.503 -1.8955  0.4402  2.0736
  759MOL0     H 4677   5.771   7.616   3.737  0.5337  0.6436 -0.6403
  759MOL0     H 4678   5.900   7.737   3.740  1.4653 -2.8791  0.6245
  759MOL0     H 4679   5.655   7.739   3.558 -2.2827 -0.4110  0.9614
  759MOL0     H 4680   5.671   7.840   3.702  1.1571  1.2469  1.3032
  759MOL0     H 4681   5.821   7.987   3.580 -0.4178 -0.4822  0.6086
  759MOL0     H 4682   5.874   7.876   3.463  1.0920  2.1456 -1.4578
  759MOL0     H 4683   5.708   8.070   3.403 -1.6276  0.9460 -0.0387
  759MOL0     H 4684   5.576   7.983   3.481 -0.1915  1.7879 -1.0621
  759MOL0     H 4685   5.673   7.940   3.212  0.1320  1.0460  0.8247
  759MOL0     H 4686   5.753   7.820   3.300 -0.7466 -2.3268 -0.8302
  759MOL0     H 4687   5.436   7.846   3.296  0.0936 -0.6591 -0.7741
  759MOL0     H 4688   5.535   7.715   3.371  2.4476 -0.3332 -0.3689
  759MOL0     H 4689   5.492   7.795   3.077 -0.7481 -1.8847 -2.2104
  759MOL0     H 4690   5.603   7.658   3.138  0.2410  0.3912  1.5417
  759MOL0     H 4691   5.460   7.449   3.213  1.0549  0.8281  0.1104
  759MOL0     H 4692   5.126   7.359   3.321  1.9690  2.5737  1.4521
  759MOL0     H 4693   5.280   7.290   3.258 -1.2362 -2.3977 -2.9175
  759MOL0     H 4694   5.090   7.186   3.149  1.6352  0.4915  1.9169
  759MOL0     H 4695   5.026   7.345   3.094  0.3428  0.2105  0.4824
  759MOL0     H 4696   5.248   7.387   2.962 -0.3537  0.5005  2.5817
  759MOL0     H 4697   5.287   7.214   3.008 -3.6355 -3.7512  2.3351
  759MOL0     H 4698   5.032   7.264   2.856  0.2993  0.8632 -0.6936
  759MOL0     H 4699   5.187   7.319   2.783  1.0800 -2.4837 -1.9776
  759MOL0     H 4700   5.069   7.256   2.602  1.9447  0.6496 -0.8200
  759MOL0     H 4701   5.067   7.194   2.252 -0.9384 -1.3602 -0.4317
  759MOL0     H 4702   5.032   7.309   2.380 -0.9211 -0.2849  2.5249
  759MOL0     H 4703   4.923   7.181   2.354  0.7618  1.9643  1.3108
  759MOL0     H 4704   5.406   6.595   2.187 -1.2977 -0.3652 -0.3766
  759MOL0     H 4705   5.509   6.565   1.962  0.5153  0.1887 -0.5715
  759MOL0     H 4706   5.382   6.709   1.645  0.4193 -0.1839 -1.7501
  759MOL0     H 4707   5.477   6.872   1.642  4.4709  0.0207 -3.1663
  759MOL0     H 4708   5.589   6.611   1.535 -0.1024  0.6359  1.5053
  759MOL0     H 4709   5.510   6.735   1.440  0.6644  2.4976 -0.3447
  759MOL0     H 4710   5.751   6.803   1.619  2.3946 -2.2161 -2.5827
  759MOL0     H 4711   5.653   6.916   1.522 -0.5489 -0.3290 -0.7793
  759MOL0     H 4712   5.722   6.754   1.322 -0.3689 -2.6016  2.1123
  759MOL0     H 4713   5.852   6.713   1.429 -0.4251  0.3752  0.4699
  759MOL0     H 4714   5.792   6.986   1.317 -1.4052 -0.9238 -0.2658
  759MOL0     H 4715   5.885   6.962   1.473 -2.8384  1.4299  0.5206
  759MOL0     H 4716   6.030   6.797   1.319 -0.0487  0.6764  1.7192
  759MOL0     H 4717   6.061   6.953   1.332  0.1762 -0.1281  1.7528
  759MOL0     H 4718   6.051   6.899   1.098 -0.7362 -0.7373 -1.1082
  759MOL0     H 4719   5.903   7.001   1.126 -0.1532 -0.1915 -2.9428
  759MOL0     H 4720   5.847   6.817   0.980 -0.4466  2.3330  1.0106
  759MOL0     H 4721   5.784   6.757   1.136  0.1239  0.6489 -0.3075
  759MOL0     H 4722   5.432   6.953   1.851 -4.1521 -1.8405 -1.7477
  759MOL0     H 4723   5.338   7.001   2.069 -0.6292  0.6627 -1.0539
  759MOL0     H 4724   5.261   6.820   2.518 -0.6636 -1.5615  2.3222
  759MOL0     H 4725   5.270   6.913   2.741 -2.6380 -0.6197  1.8225
  759MOL0     H 4726   6.184   7.842   3.423 -1.7182  0.7528  1.2054
  759MOL0     H 4727   6.380   7.947   3.552  0.4820 -0.0996 -2.7755
  759MOL0     H 4728   6.518   7.878   4.040  4.8921 -1.9719 -3.5699
  759MOL0     H 4729   6.679   7.945   4.217 -0.1815 -0.4572 -0.2129
  759MOL0     H 4730   6.789   8.055   4.384 -0.5670 -1.0388 -0.6849
  759MOL0     H 4731   6.891   8.047   4.243 -2.4698 -1.1280  0.6173
  759MOL0     H 4732   7.015   8.256   4.324  0.6203 -0.9223  0.8378
  759MOL0     H 4733   7.036   8.105   4.396 -0.0653  0.4768 -3.2622
  759MOL0     H 4734   6.833   8.327   4.502  0.1486  0.2381 -0.3419
  759MOL0     H 4735   6.838   8.156   4.559 -2.0186  2.0829  1.1011
  759MOL0     H 4736   7.074   8.369   4.553  0.4309 -0.0497 -1.5513
  759MOL0     H 4737   7.093   8.214   4.618  0.2316  1.6960  1.7104
  759MOL0     H 4738   6.892   8.391   4.943  0.1574 -1.3100  0.5569
  759MOL0     H 4739   6.622   8.362   4.102 -1.9051  0.3403  0.8773
  759MOL0     H 4740   6.356   8.361   3.941 -0.8642  0.6376 -2.8555
  759MOL0     H 4741   6.514   8.417   3.906  1.0570 -0.0915 -0.6551
  759MOL0     H 4742   6.437   8.299   3.793  1.2275 -2.3023  0.8526
  760MOL0     O 4743  10.028   5.184   2.699 -0.4594  0.7301 -0.3573
  760MOL0     C 4744   9.912   5.176   2.659 -0.5788  0.4014 -0.0918
  760MOL0     O 4745   9.816   5.110   2.718 -0.0233  1.0179  0.8305
  760MOL0     C 4746   9.855   5.026   2.829 -0.2278 -0.3313  0.4111
  760MOL0     C 4747   9.808   5.059   2.958 -0.0164  0.2253 -0.5686
  760MOL0     C 4748   9.823   4.968   3.056  0.5982  0.7935 -0.3878
  760MOL0     C 4749   9.893   4.845   3.039  0.5890 -0.4136 -0.3203
  760MOL0     O 4750   9.931   4.773   3.156  0.2689 -0.0110  0.9855
  760MOL0     C 4751   9.920   4.833   3.286  0.0949 -0.6444 -0.8918
  760MOL0     C 4752   9.990   4.765   3.406  0.3087  0.6403  0.4158
  760MOL0     C 4753   9.927   4.633   3.442 -0.7559 -0.8791 -0.5188
  760MOL0     C 4754  10.005   4.528   3.530 -0.3382 -0.0058 -0.2025
  760MOL0     C 4755  10.044   4.567   3.666 -0.3388  0.0055 -0.0079
  760MOL0     C 4756   9.984   4.489   3.771 -0.4881 -0.2908 -0.1362
  760MOL0     C 4757  10.028   4.541   3.907 -0.1813  0.0604  0.7035
  760MOL0     C 4758   9.988   4.443   4.026  0.3552  0.1596  0.5823
  760MOL0     N 4759  10.062   4.490   4.144 -0.3688 -0.2093 -1.0698
  760MOL0     C 4760  10.020   4.587   4.234 -0.3990  0.2846 -0.4985
  760MOL0     C 4761  10.131   4.594   4.325  0.0827 -0.0968 -0.2632
  760MOL0     C 4762  10.142   4.687   4.443 -0.3709 -0.6253  0.0146
  760MOL0     C 4763  10.193   4.611   4.576  0.2996 -1.1426  0.6668
  760MOL0     C 4764  10.335   4.625   4.601  0.2783 -0.4535  0.5133
  760MOL0     C 4765  10.373   4.732   4.706  0.3807  0.6944  0.4983
  760MOL0     O 4766  10.325   4.860   4.675  0.1283  0.4490 -0.1738
  760MOL0     C 4767  10.370   4.928   4.567  0.6113 -0.5857 -0.6551
  760MOL0     C 4768  10.289   5.039   4.529  0.4948 -0.3845  1.0810
  760MOL0     C 4769  10.327   5.115   4.408  0.1424 -0.1272  0.0745
  760MOL0     C 4770  10.229   5.220   4.368 -0.8785 -0.3305  0.1144
  760MOL0     C 4771  10.439   5.079   4.327  0.2808 -0.1461 -0.9278
  760MOL0     C 4772  10.479   5.136   4.203 -0.4381  0.3319  0.9769
  760MOL0     O 4773  10.589   5.078   4.141  0.3519 -0.2463  0.0166
  760MOL0     C 4774  10.669   5.141   4.047  0.5972  0.3944 -0.4505
  760MOL0     C 4775  10.767   5.060   3.989 -0.7421  0.5201 -0.5790
  760MOL0     C 4776  10.857   5.116   3.900 -0.0079 -0.6763  0.2241
  760MOL0     C 4777  10.842   5.252   3.862  0.1595  0.2092  0.7196
  760MOL0     O 4778  10.918   5.336   3.780 -0.0827 -0.5661  0.6061
  760MOL0     C 4779  11.039   5.277   3.719 -0.2399  0.5070 -0.0570
  760MOL0     C 4780  11.123   5.382   3.645 -0.1045 -0.3793 -0.1203
  760MOL0     C 4781  11.050   5.510   3.599  0.5839 -1.2295  0.6867
  760MOL0     C 4782  11.155   5.610   3.539  0.0698  0.2362 -0.4812
  760MOL0     C 4783  11.098   5.752   3.513  0.9784 -0.2038  0.3003
  760MOL0     C 4784  11.179   5.846   3.421  0.1742 -1.0029  0.4865
  760MOL0     C 4785  11.098   5.978   3.403  0.0105  0.3860  0.7827
  760MOL0     C 4786  11.129   6.054   3.276  0.4282 -0.7112  0.6896
  760MOL0    Cl 4787  11.297   6.114   3.305 -0.1239  0.5243  0.1909
  760MOL0     C 4788  10.744   5.333   3.918  0.9582 -0.4449  0.2906
  760MOL0     C 4789  10.653   5.272   4.002  0.4712  0.3894 -0.2411
  760MOL0     O 4790  10.398   5.205   4.137 -0.5277 -0.9086 -1.1693
  760MOL0     C 4791  10.509   4.966   4.373 -0.2270  0.6004  0.4123
  760MOL0     C 4792  10.470   4.896   4.484 -0.8156 -0.4317  0.0579
  760MOL0     N 4793  10.223   4.493   4.290  0.1406 -0.7482  0.1381
  760MOL0     N 4794  10.181   4.429   4.193 -0.5301  0.6356  0.9313
  760MOL0     C 4795   9.938   4.817   2.906 -0.6792 -0.1675  0.6733
  760MOL0     C 4796   9.913   4.909   2.801 -0.1733 -0.7253 -0.2217
  760MOL0     C 4797   9.881   5.248   2.530 -0.9697  0.9072  0.0636
  760MOL0     C 4798   9.770   5.197   2.452  0.3499 -0.7558 -0.2171
  760MOL0     C 4799   9.746   5.247   2.326  0.1276  0.1274 -0.7880
  760MOL0     C 4800   9.810   5.357   2.270 -0.3170  0.1310  0.3346
  760MOL0     O 4801   9.764   5.417   2.156 -0.1988 -0.6457  0.3724
  760MOL0     C 4802   9.794   5.361   2.022 -0.4999  0.6460 -0.3873
  760MOL0     C 4803   9.707   5.242   1.995 -0.2606 -0.0788  0.6015
  760MOL0     C 4804   9.738   5.183   1.850 -0.7910  0.0707  0.8094
  760MOL0     C 4805   9.628   5.080   1.823 -0.5178  0.0381 -0.7011
  760MOL0     C 4806   9.653   4.960   1.903  0.4399  0.2041  0.2877
  760MOL0     C 4807   9.680   4.865   1.975  0.5174 -0.8091  0.4527
  760MOL0     C 4808   9.915   5.409   2.350 -0.4144 -0.2149 -0.5328
  760MOL0     C 4809   9.955   5.354   2.476 -0.0912  0.3641 -1.0041
  760MOL0     C 4810  10.083   5.405   2.538  0.6725  0.9296  0.4701
  760MOL0     H 4811   9.746   5.147   2.972 -3.3860 -1.4627 -3.3671
  760MOL0     H 4812   9.786   5.001   3.152 -3.9161 -5.0531  0.4722
  760MOL0     H 4813   9.814   4.839   3.310  0.1270 -2.5528 -0.1258
  760MOL0     H 4814   9.945   4.939   3.281  1.4532 -0.8993 -0.0104
  760MOL0     H 4815  10.097   4.760   3.387 -0.2185 -1.1826 -2.6304
  760MOL0     H 4816   9.971   4.826   3.495 -0.2527 -2.7557  2.8290
  760MOL0     H 4817   9.838   4.640   3.504  1.7631 -0.8460  3.4788
  760MOL0     H 4818   9.911   4.564   3.358 -4.4137 -2.0625  0.9646
  760MOL0     H 4819   9.940   4.441   3.545 -0.1897  0.4084  4.0912
  760MOL0     H 4820  10.104   4.524   3.483  1.0657  0.1064  2.5344
  760MOL0     H 4821  10.018   4.671   3.689 -1.0239  0.0163 -0.7729
  760MOL0     H 4822  10.151   4.550   3.679 -0.2548  0.6621  0.2025
  760MOL0     H 4823   9.875   4.490   3.766 -0.5268 -0.7986  0.5781
  760MOL0     H 4824  10.008   4.383   3.772 -0.9156 -0.3917 -0.3553
  760MOL0     H 4825   9.980   4.639   3.918 -1.2533 -0.4655  0.8498
  760MOL0     H 4826  10.137   4.540   3.905 -0.1576 -2.0302  1.1665
  760MOL0     H 4827   9.883   4.440   4.055  1.5325  0.2179  6.0699
  760MOL0     H 4828  10.019   4.341   4.003  1.1421 -0.4617  3.9116
  760MOL0     H 4829   9.926   4.641   4.244 -0.0242  0.5945  2.2246
  760MOL0     H 4830  10.041   4.725   4.461 -0.0018 -0.0450  0.9315
  760MOL0     H 4831  10.209   4.771   4.423 -0.1337 -0.9131 -0.4207
  760MOL0     H 4832  10.142   4.649   4.666  1.9970  0.8543  0.8793
  760MOL0     H 4833  10.161   4.510   4.550  1.0341 -0.5860 -2.9901
  760MOL0     H 4834  10.365   4.525   4.634  1.9303 -0.2456 -0.2427
  760MOL0     H 4835  10.380   4.649   4.504  0.1452  2.4965  1.1020
  760MOL0     H 4836  10.330   4.699   4.801 -0.9031 -3.7628 -1.3634
  760MOL0     H 4837  10.480   4.726   4.726  0.3709  1.4860  0.8245
  760MOL0     H 4838  10.200   5.066   4.585 -0.2895  1.3509 -0.8811
  760MOL0     H 4839  10.180   5.250   4.461  2.1447  0.0107  1.6983
  760MOL0     H 4840  10.155   5.181   4.296  1.0697  2.3913 -3.7101
  760MOL0     H 4841  10.268   5.315   4.331 -2.9355  0.0120 -1.3885
  760MOL0     H 4842  10.778   4.954   4.010  1.0355  1.2208  2.8363
  760MOL0     H 4843  10.938   5.051   3.867  0.7062  0.6720 -0.7904
  760MOL0     H 4844  11.095   5.231   3.801  0.1768  1.2659  0.0899
  760MOL0     H 4845  11.019   5.200   3.644  1.8691 -0.0336 -0.1050
  760MOL0     H 4846  11.207   5.408   3.711 -0.0716  1.4276 -0.8121
  760MOL0     H 4847  11.154   5.336   3.551 -5.8147 -2.2406 -1.4486
  760MOL0     H 4848  11.003   5.566   3.680 -0.6064  0.1151 -0.8431
  760MOL0     H 4849  10.979   5.475   3.524 -0.3871 -0.3319  1.1627
  760MOL0     H 4850  11.202   5.572   3.447  3.0085  0.7443  0.7010
  760MOL0     H 4851  11.239   5.620   3.609 -0.1795  0.7106 -0.2477
  760MOL0     H 4852  11.002   5.742   3.462  1.3755  1.5192 -0.8668
  760MOL0     H 4853  11.086   5.793   3.614  1.8652 -2.5185  1.4130
  760MOL0     H 4854  11.190   5.801   3.322 -1.8095 -0.4643 -0.0191
  760MOL0     H 4855  11.279   5.868   3.461  1.7217 -1.5806 -2.7914
  760MOL0     H 4856  11.120   6.049   3.483  1.4550 -0.0968  0.8459
  760MOL0     H 4857  10.991   5.959   3.415 -0.2294 -0.4500 -1.9546
  760MOL0     H 4858  11.069   6.145   3.275  2.3734  0.6456  0.4022
  760MOL0     H 4859  11.115   6.003   3.181 -1.1356  0.8633  0.0231
  760MOL0     H 4860  10.728   5.437   3.896 -0.3993 -0.4123  1.3269
  760MOL0     H 4861  10.587   5.337   4.058  4.7355  3.0433  2.3260
  760MOL0     H 4862  10.598   4.932   4.321  1.0665  0.5978  2.5180
  760MOL0     H 4863  10.523   4.804   4.506  0.3774 -0.1922 -1.6535
  760MOL0     H 4864   9.999   4.732   2.878  0.3619  1.6898 -3.4059
  760MOL0     H 4865   9.946   4.877   2.703  2.8831 -3.9837  1.5986
  760MOL0     H 4866   9.714   5.112   2.491  0.8671 -0.5917  0.9274
  760MOL0     H 4867   9.665   5.200   2.271  2.4358 -3.2882 -1.5539
  760MOL0     H 4868   9.770   5.435   1.944 -2.5418 -0.2188 -0.6584
  760MOL0     H 4869   9.898   5.330   2.029 -1.0648 -0.9496  2.0512
  760MOL0     H 4870   9.606   5.283   1.995 -0.7420 -0.8893 -3.2264
  760MOL0     H 4871   9.710   5.166   2.074 -1.9448 -2.7649 -1.7621
  760MOL0     H 4872   9.739   5.268   1.781 -0.7337 -0.4985  0.1121
  760MOL0     H 4873   9.836   5.138   1.833 -0.9660 -0.5111  1.3136
  760MOL0     H 4874   9.630   5.051   1.718 -2.3502  0.5077 -0.9066
  760MOL0     H 4875   9.526   5.117   1.838 -0.4907 -0.5117  1.0978
  760MOL0     H 4876   9.720   4.782   2.030  1.0530 -0.6454  0.3151
  760MOL0     H 4877   9.978   5.492   2.319  1.9415 -0.1532  3.6396
  760MOL0     H 4878  10.074   5.421   2.646 -3.1631  0.0307  0.4429
  760MOL0     H 4879  10.163   5.336   2.510  0.5073 -0.7613  3.6654
  760MOL0     H 4880  10.108   5.503   2.496  2.0771 -0.2656 -1.7053
  761MOL0     O 4881   3.126   3.404   5.010 -0.3833 -0.1987 -1.0806
  761MOL0     C 4882   3.203   3.312   4.988 -0.3464 -0.8563  0.2657
  761MOL0     O 4883   3.306   3.283   5.072  0.0825  0.0641  0.0146
  761MOL0     C 4884   3.335   3.358   5.181  0.4083 -0.1101 -0.1560
  761MOL0     C 4885   3.475   3.376   5.221 -0.1479 -0.9435 -0.4518
  761MOL0     C 4886   3.503   3.440   5.347 -0.0936  0.3800  0.5140
  761MOL0     C 4887   3.396   3.479   5.431  0.4251 -0.4545  0.4092
  761MOL0     O 4888   3.411   3.553   5.541  0.1234 -0.3380  1.0604
  761MOL0     C 4889   3.421   3.694   5.508  0.5628 -0.3091 -0.2245
  761MOL0     C 4890   3.284   3.781   5.528 -1.3977 -0.4185 -0.2153
  761MOL0     C 4891   3.262   3.797   5.673  0.7125  0.0625 -0.0809
  761MOL0     C 4892   3.135   3.890   5.704  0.5461 -0.0060 -0.1997
  761MOL0     C 4893   3.150   3.972   5.834  0.3274  0.4824  0.3539
  761MOL0     C 4894   3.194   3.891   5.955 -0.0634 -0.3876  0.3023
  761MOL0     C 4895   3.192   3.970   6.080 -0.6468  0.1314  0.7828
  761MOL0     C 4896   3.254   3.898   6.200  1.1194  0.5030  0.1955
  761MOL0     N 4897   3.157   3.795   6.251 -0.0341 -0.8580  0.0384
  761MOL0     C 4898   3.129   3.675   6.199 -0.7298  0.4719 -0.1146
  761MOL0     C 4899   3.043   3.614   6.292 -0.7559  0.6419 -0.0849
  761MOL0     C 4900   2.974   3.489   6.273  0.6865  1.2175 -0.2138
  761MOL0     C 4901   2.933   3.443   6.129  0.2978  0.0167  0.5358
  761MOL0     C 4902   2.834   3.547   6.085 -0.2448 -0.4255 -0.3391
  761MOL0     C 4903   2.753   3.509   5.969  0.9366  0.4022 -0.4576
  761MOL0     O 4904   2.615   3.450   5.990  0.6229 -0.1784 -0.0773
  761MOL0     C 4905   2.611   3.343   6.074 -0.4841  0.1307 -0.1447
  761MOL0     C 4906   2.613   3.356   6.214  0.2317 -0.1746 -0.5075
  761MOL0     C 4907   2.596   3.252   6.302  0.3012  0.2484  0.3513
  761MOL0     C 4908   2.594   3.281   6.456  0.3273  0.9714  0.8852
  761MOL0     C 4909   2.601   3.124   6.247 -0.0041 -0.4580  1.3575
  761MOL0     C 4910   2.598   2.996   6.330  0.4212  0.6604 -1.0912
  761MOL0     O 4911   2.627   3.001   6.462  0.2498  0.5135 -0.2350
  761MOL0     C 4912   2.623   2.896   6.539 -0.9471  1.6888 -0.3512
  761MOL0     C 4913   2.589   2.912   6.676  0.8039  0.6359  0.2081
  761MOL0     C 4914   2.585   2.806   6.764  1.0001 -0.6024 -0.5906
  761MOL0     C 4915   2.623   2.688   6.716  0.1477  0.3538 -0.0482
  761MOL0     O 4916   2.613   2.580   6.793 -0.3430  0.4017 -0.3509
  761MOL0     C 4917   2.531   2.557   6.916  0.0232  0.0617  1.3132
  761MOL0     C 4918   2.597   2.615   7.041 -0.2857  0.4144  0.6987
  761MOL0     C 4919   2.482   2.650   7.148  0.2604  1.2122  0.3965
  761MOL0     C 4920   2.550   2.686   7.273  0.1906 -0.2983 -0.2524
  761MOL0     C 4921   2.453   2.756   7.377 -0.7863  0.6638  0.9421
  761MOL0     C 4922   2.542   2.767   7.500 -0.0887  1.0816  0.2828
  761MOL0     C 4923   2.488   2.869   7.611  0.1956  0.7514  0.3356
  761MOL0     C 4924   2.574   2.982   7.662  0.1815  0.7789 -0.4446
  761MOL0    Cl 4925   2.492   3.043   7.814 -0.0285  0.2436 -0.2010
  761MOL0     C 4926   2.669   2.669   6.594 -0.4005 -0.5695 -0.2253
  761MOL0     C 4927   2.669   2.763   6.506 -0.6194 -0.7113  0.0300
  761MOL0     O 4928   2.566   2.898   6.273  0.7323  0.4572  0.2288
  761MOL0     C 4929   2.611   3.108   6.105 -0.0276 -0.4917  0.9871
  761MOL0     C 4930   2.613   3.213   6.021 -0.7450 -0.4869 -0.1610
  761MOL0     N 4931   3.016   3.700   6.393 -0.8256  0.4239 -0.2351
  761MOL0     N 4932   3.093   3.806   6.373 -1.0977 -0.7600  0.2935
  761MOL0     C 4933   3.264   3.447   5.399 -0.2048 -0.4447 -0.8699
  761MOL0     C 4934   3.239   3.396   5.276 -0.4362 -0.2647 -0.8082
  761MOL0     C 4935   3.150   3.225   4.873 -0.7143 -0.0438  0.4736
  761MOL0     C 4936   3.188   3.097   4.880  0.3479 -0.9492  0.5596
  761MOL0     C 4937   3.134   3.004   4.786 -0.0715  0.3889 -0.4521
  761MOL0     C 4938   3.039   3.041   4.699 -0.5096  0.1852  1.2122
  761MOL0     O 4939   2.967   2.947   4.620 -0.5153 -0.0894  0.3479
  761MOL0     C 4940   3.023   2.813   4.614  0.1826  0.0689  0.2008
  761MOL0     C 4941   2.935   2.730   4.530 -0.9201 -0.0567  0.0685
  761MOL0     C 4942   2.943   2.770   4.385  0.3659 -0.1736 -0.1660
  761MOL0     C 4943   2.840   2.696   4.301  0.8575 -0.9271 -0.6375
  761MOL0     C 4944   2.711   2.698   4.366  1.1409 -0.5938  1.0663
  761MOL0     C 4945   2.595   2.696   4.403 -0.2675  0.1834 -0.6828
  761MOL0     C 4946   3.014   3.180   4.682 -0.3798 -0.0012  0.4285
  761MOL0     C 4947   3.072   3.270   4.764  0.4490 -0.6054 -0.3794
  761MOL0     C 4948   3.045   3.416   4.731  0.2526  0.0674 -0.7654
  761MOL0     H 4949   3.559   3.358   5.153  1.0561  0.6823  0.5407
  761MOL0     H 4950   3.603   3.465   5.380 -0.5198  3.3134 -0.1815
  761MOL0     H 4951   3.453   3.709   5.404 -1.4477  0.5565 -0.7623
  761MOL0     H 4952   3.498   3.730   5.577  3.1974 -0.8511 -2.6849
  761MOL0     H 4953   3.301   3.877   5.478  1.1766 -0.6797  0.0198
  761MOL0     H 4954   3.200   3.737   5.474 -3.5492  1.6277  1.2713
  761MOL0     H 4955   3.254   3.692   5.703  2.4919 -0.7905 -2.3050
  761MOL0     H 4956   3.352   3.848   5.711 -0.2557  0.3461  1.9975
  761MOL0     H 4957   3.128   3.948   5.611  1.5088  0.1054 -0.2195
  761MOL0     H 4958   3.043   3.831   5.707  0.5212 -0.1044 -2.1896
  761MOL0     H 4959   3.055   4.024   5.841 -0.9396 -1.4661 -1.1510
  761MOL0     H 4960   3.234   4.039   5.813  0.4233  0.9334  2.0451
  761MOL0     H 4961   3.131   3.802   5.968  1.4646 -1.8354 -1.4423
  761MOL0     H 4962   3.291   3.840   5.947  1.0218  1.2187  2.3477
  761MOL0     H 4963   3.089   3.989   6.109 -0.9789  0.8576 -0.7599
  761MOL0     H 4964   3.249   4.062   6.067 -0.9070  0.3565  1.2274
  761MOL0     H 4965   3.344   3.842   6.174 -0.0839 -2.2221  1.4610
  761MOL0     H 4966   3.276   3.975   6.274 -1.6737  2.7137 -1.0463
  761MOL0     H 4967   3.180   3.634   6.112  1.4917  1.8362  0.4665
  761MOL0     H 4968   2.881   3.478   6.330 -2.9056 -2.3380 -5.6655
  761MOL0     H 4969   3.040   3.410   6.310  1.3213  2.0499  0.4412
  761MOL0     H 4970   3.020   3.438   6.064  1.6315  2.3156  2.0153
  761MOL0     H 4971   2.895   3.340   6.131 -1.0200  0.4567 -0.4526
  761MOL0     H 4972   2.773   3.582   6.169 -0.4186  0.2101 -0.7261
  761MOL0     H 4973   2.893   3.630   6.044 -0.4982 -0.2634 -0.3762
  761MOL0     H 4974   2.745   3.600   5.909  2.5340  1.2346  0.5210
  761MOL0     H 4975   2.813   3.439   5.910  1.7832  1.0464 -0.3698
  761MOL0     H 4976   2.620   3.456   6.255 -1.1072 -0.3049  0.0947
  761MOL0     H 4977   2.697   3.291   6.493  0.9119  2.1073 -0.8901
  761MOL0     H 4978   2.522   3.209   6.496  0.8088 -1.5665 -2.3428
  761MOL0     H 4979   2.545   3.379   6.464  1.0285  1.2693  1.6777
  761MOL0     H 4980   2.576   3.016   6.701  3.9881  2.0318 -3.0444
  761MOL0     H 4981   2.581   2.826   6.871  0.2168  2.9146 -1.1297
  761MOL0     H 4982   2.437   2.612   6.906 -0.1124 -0.2959  0.5570
  761MOL0     H 4983   2.510   2.450   6.921 -2.5788  0.3914 -0.4203
  761MOL0     H 4984   2.667   2.538   7.078 -0.2196  0.7622  1.3044
  761MOL0     H 4985   2.655   2.706   7.024 -1.5737  0.8201 -1.9965
  761MOL0     H 4986   2.426   2.560   7.176 -0.0936  1.8420  1.8215
  761MOL0     H 4987   2.413   2.724   7.108 -2.8381 -0.0129  3.0147
  761MOL0     H 4988   2.631   2.754   7.245  1.2572 -0.9919  1.0425
  761MOL0     H 4989   2.591   2.598   7.324  0.7103  0.9661  1.5792
  761MOL0     H 4990   2.411   2.852   7.346 -0.5469  0.3393 -0.4252
  761MOL0     H 4991   2.367   2.698   7.410 -0.3473 -1.7415 -1.8238
  761MOL0     H 4992   2.650   2.774   7.487  0.4566 -1.6727  2.4720
  761MOL0     H 4993   2.531   2.664   7.536  3.0514  0.6045  0.1470
  761MOL0     H 4994   2.445   2.813   7.695 -0.9944  1.2053  0.0484
  761MOL0     H 4995   2.394   2.914   7.578 -0.2697  0.6402  1.4532
  761MOL0     H 4996   2.588   3.066   7.594  2.4853  1.9736  1.3480
  761MOL0     H 4997   2.671   2.940   7.692 -0.2162 -1.3046 -1.8757
  761MOL0     H 4998   2.704   2.568   6.573 -3.6055 -3.1421  4.7330
  761MOL0     H 4999   2.709   2.749   6.406  1.8676  4.1381  0.0418
  761MOL0     H 5000   2.619   3.007   6.066 -0.8295 -0.8671  1.7732
  761MOL0     H 5001   2.632   3.189   5.917  1.5847  0.4774 -0.0217
  761MOL0     H 5002   3.176   3.474   5.456 -0.1517  1.8576 -1.8131
  761MOL0     H 5003   3.135   3.374   5.253 -0.3512  0.1403 -1.6308
  761MOL0     H 5004   3.261   3.055   4.949  2.7764 -0.2370 -1.4316
  761MOL0     H 5005   3.172   2.903   4.797 -1.7093 -0.6146 -3.1096
  761MOL0     H 5006   3.128   2.821   4.583  0.1222  1.1574  0.2457
  761MOL0     H 5007   3.020   2.766   4.713 -2.2606 -1.7340 -0.6476
  761MOL0     H 5008   2.841   2.739   4.584 -0.2635 -2.3723  1.7592
  761MOL0     H 5009   2.962   2.627   4.553  0.1959  0.6608  2.3258
  761MOL0     H 5010   2.925   2.877   4.371 -1.6826 -0.2110  1.6846
  761MOL0     H 5011   3.041   2.746   4.342 -0.1863 -0.5047 -1.2942
  761MOL0     H 5012   2.863   2.590   4.288 -0.7537 -1.0655 -3.0845
  761MOL0     H 5013   2.834   2.751   4.206  2.0876  3.4907  1.5434
  761MOL0     H 5014   2.493   2.670   4.422 -0.3457 -0.1391 -1.4764
  761MOL0     H 5015   2.937   3.209   4.611  1.4441  1.8819 -0.9200
  761MOL0     H 5016   3.142   3.468   4.730  0.9973 -1.1375  1.1761
  761MOL0     H 5017   2.998   3.435   4.634  1.6184 -3.0510 -2.1674
  761MOL0     H 5018   2.972   3.454   4.803  0.1745  0.5558 -1.1023
  762MOL0     O 5019  10.618   6.296   7.462 -0.5016 -0.1421 -0.0059
  762MOL0     C 5020  10.711   6.279   7.385  0.3319  0.7227  0.6153
  762MOL0     O 5021  10.769   6.152   7.359  0.4036 -0.2303  0.3357
  762MOL0     C 5022  10.695   6.036   7.378 -0.3305 -0.4134 -0.5720
  762MOL0     C 5023  10.755   5.933   7.449 -0.6451  0.8053 -0.6851
  762MOL0     C 5024  10.692   5.821   7.500  0.2447  0.8562 -0.1799
  762MOL0     C 5025  10.556   5.812   7.470 -0.2777  0.2496  1.0991
  762MOL0     O 5026  10.472   5.711   7.514  0.2303  0.0142 -1.3151
  762MOL0     C 5027  10.452   5.698   7.650 -0.0998  0.2944  0.5931
  762MOL0     C 5028  10.467   5.821   7.745 -0.1898  0.1840  0.4779
  762MOL0     C 5029  10.385   5.793   7.875 -0.1525  0.1885  0.0403
  762MOL0     C 5030  10.441   5.818   8.004 -0.3980 -0.2278 -0.3904
  762MOL0     C 5031  10.334   5.787   8.104 -0.0001 -0.4939 -0.6233
  762MOL0     C 5032  10.374   5.833   8.239 -0.0859 -0.1228  0.3294
  762MOL0     C 5033  10.256   5.833   8.342 -1.4546 -0.1444  0.1014
  762MOL0     C 5034  10.301   5.897   8.474  0.5282  0.5414  0.1195
  762MOL0     N 5035  10.398   5.817   8.549 -0.4359 -0.0997 -0.2071
  762MOL0     C 5036  10.525   5.862   8.589  0.8627  0.2388  0.9132
  762MOL0     C 5037  10.579   5.780   8.682 -0.5010 -0.0540 -0.8365
  762MOL0     C 5038  10.710   5.780   8.759  0.8487 -0.1154  0.8823
  762MOL0     C 5039  10.769   5.648   8.778 -0.4618  1.1370 -0.0338
  762MOL0     C 5040  10.882   5.633   8.888  0.3067 -0.9972 -0.2836
  762MOL0     C 5041  10.927   5.498   8.920 -0.1338 -0.0854  0.5108
  762MOL0     O 5042  10.969   5.430   8.797  0.1156  1.2948  0.6643
  762MOL0     C 5043  11.001   5.296   8.806  0.1440 -0.5947  0.3744
  762MOL0     C 5044  11.066   5.239   8.693 -0.3515  0.3784 -0.6845
  762MOL0     C 5045  11.079   5.101   8.689 -0.3146  0.4950  0.7182
  762MOL0     C 5046  11.139   5.050   8.557  0.5933 -0.2677 -0.4777
  762MOL0     C 5047  11.046   5.022   8.802 -0.5273 -0.1015 -0.5234
  762MOL0     C 5048  11.082   4.886   8.818  0.4865 -0.1898 -1.2786
  762MOL0     O 5049  11.136   4.863   8.941 -0.0158 -0.3499 -0.0251
  762MOL0     C 5050  11.164   4.731   8.981  0.5768 -0.2220  0.3957
  762MOL0     C 5051  11.182   4.611   8.916 -0.6928  0.2889  1.4051
  762MOL0     C 5052  11.239   4.497   8.976  0.1867  1.2184 -0.1436
  762MOL0     C 5053  11.257   4.494   9.111 -0.3569 -0.7574 -0.0675
  762MOL0     O 5054  11.284   4.381   9.198  0.2591  0.3940 -0.1700
  762MOL0     C 5055  11.285   4.247   9.137  0.8052 -0.0878 -0.0931
  762MOL0     C 5056  11.283   4.133   9.244  0.2918  0.1902 -0.4347
  762MOL0     C 5057  11.150   4.140   9.327  0.7190 -0.8233  0.1326
  762MOL0     C 5058  11.031   4.094   9.240 -0.2157  0.4300  1.0630
  762MOL0     C 5059  10.899   4.119   9.314  0.2619 -1.5089 -0.2192
  762MOL0     C 5060  10.779   4.083   9.218 -0.3034  0.2703 -0.5500
  762MOL0     C 5061  10.644   4.120   9.283  0.5981 -0.3587  0.9141
  762MOL0     C 5062  10.604   4.012   9.389  0.3949  0.4026  1.1802
  762MOL0    Cl 5063  10.458   4.070   9.468 -0.2205 -0.2139 -0.1409
  762MOL0     C 5064  11.230   4.612   9.183  0.7437  1.5047 -1.2532
  762MOL0     C 5065  11.181   4.726   9.122 -0.6270 -0.8959 -0.0936
  762MOL0     O 5066  11.076   4.810   8.726  0.2432  0.3869  0.1625
  762MOL0     C 5067  10.993   5.087   8.917 -1.4246  0.7175  1.4465
  762MOL0     C 5068  10.963   5.217   8.919 -0.1827 -0.1200 -1.0874
  762MOL0     N 5069  10.486   5.672   8.678 -0.4109 -0.6226 -0.1085
  762MOL0     N 5070  10.388   5.692   8.607 -0.6522  0.0691 -0.4507
  762MOL0     C 5071  10.496   5.910   7.394 -0.3686  0.0102 -0.0526
  762MOL0     C 5072  10.564   6.026   7.351 -0.7507  0.1776 -0.6013
  762MOL0     C 5073  10.776   6.400   7.328 -0.0201  0.1221 -0.2050
  762MOL0     C 5074  10.911   6.392   7.292 -0.1412  0.0744  0.2986
  762MOL0     C 5075  10.993   6.503   7.277 -0.1936  0.2150 -1.7565
  762MOL0     C 5076  10.937   6.622   7.274 -0.1994  0.1272  0.6274
  762MOL0     O 5077  11.014   6.735   7.256  0.2084  0.1743 -0.7106
  762MOL0     C 5078  10.977   6.854   7.328  0.2077  0.2405 -0.3656
  762MOL0     C 5079  11.089   6.956   7.297  1.2311 -0.5413 -0.9689
  762MOL0     C 5080  11.116   6.962   7.147 -0.6269 -1.0731 -0.1063
  762MOL0     C 5081  11.007   7.019   7.055 -0.5596 -0.6684  0.0913
  762MOL0     C 5082  11.036   6.998   6.912  0.3996  0.2859 -0.1401
  762MOL0     C 5083  11.040   7.015   6.795  0.0664  0.8438  0.0511
  762MOL0     C 5084  10.799   6.633   7.291 -0.0995  0.1118  0.0031
  762MOL0     C 5085  10.709   6.524   7.312 -0.4041 -0.0548 -0.5864
  762MOL0     C 5086  10.556   6.549   7.306  0.5584 -0.4541 -0.0699
  762MOL0     H 5087  10.860   5.948   7.473 -0.3336 -1.6046 -0.3145
  762MOL0     H 5088  10.745   5.739   7.548  1.2861  1.1321 -0.7991
  762MOL0     H 5089  10.512   5.617   7.692 -1.3142  0.2871  2.4138
  762MOL0     H 5090  10.345   5.672   7.649 -0.2576  0.9061  1.3061
  762MOL0     H 5091  10.570   5.854   7.759  0.0226  1.4039 -3.0002
  762MOL0     H 5092  10.433   5.912   7.694  3.6950  0.2550 -2.4337
  762MOL0     H 5093  10.292   5.850   7.872 -0.6525 -0.6499 -1.5804
  762MOL0     H 5094  10.381   5.684   7.870  1.5145  0.0989  0.0078
  762MOL0     H 5095  10.538   5.769   8.017  1.6242  2.9359 -2.1834
  762MOL0     H 5096  10.460   5.926   8.001 -0.1920 -0.2355  0.3938
  762MOL0     H 5097  10.311   5.680   8.103 -1.7112 -0.1529 -0.6107
  762MOL0     H 5098  10.237   5.834   8.083  0.2826 -0.6783 -2.4378
  762MOL0     H 5099  10.456   5.780   8.290  1.0111  0.0937 -1.1537
  762MOL0     H 5100  10.398   5.939   8.235 -1.3137  0.1361 -0.6196
  762MOL0     H 5101  10.222   5.731   8.361  0.7228 -1.0104 -0.3474
  762MOL0     H 5102  10.173   5.889   8.296 -0.8209 -0.4385 -1.4808
  762MOL0     H 5103  10.342   5.998   8.466  1.9527  0.0246  0.4980
  762MOL0     H 5104  10.215   5.901   8.541  0.4163 -0.9474  0.0965
  762MOL0     H 5105  10.571   5.953   8.552  0.7272 -0.9858 -2.6674
  762MOL0     H 5106  10.684   5.822   8.857 -0.0142 -0.2669  0.7180
  762MOL0     H 5107  10.782   5.846   8.709 -1.9250  1.5995 -1.1102
  762MOL0     H 5108  10.693   5.573   8.800  1.4667  0.3458  5.5687
  762MOL0     H 5109  10.801   5.631   8.675 -5.3973  2.4396 -2.0402
  762MOL0     H 5110  10.974   5.682   8.855 -0.5909 -0.5772 -2.3406
  762MOL0     H 5111  10.840   5.690   8.971  0.9271  0.9241 -1.2173
  762MOL0     H 5112  11.007   5.500   8.995  1.5376 -1.4119 -1.1132
  762MOL0     H 5113  10.845   5.444   8.968 -0.4972  1.4396  1.6830
  762MOL0     H 5114  11.098   5.299   8.609 -0.8315 -1.1037 -1.9706
  762MOL0     H 5115  11.160   5.130   8.485 -0.2665 -1.3648 -2.0093
  762MOL0     H 5116  11.071   4.981   8.507 -1.1148  3.6789 -4.2896
  762MOL0     H 5117  11.238   5.012   8.586  0.7508  0.5193  0.0523
  762MOL0     H 5118  11.162   4.605   8.809  0.1351 -1.4191  1.2997
  762MOL0     H 5119  11.252   4.406   8.918 -2.0258  0.6015  0.2372
  762MOL0     H 5120  11.201   4.234   9.069  1.9027 -0.6859 -1.3959
  762MOL0     H 5121  11.375   4.238   9.074  0.7422 -0.5902 -0.1118
  762MOL0     H 5122  11.288   4.039   9.188  0.2871 -1.1280  1.6766
  762MOL0     H 5123  11.364   4.152   9.314 -0.7999  0.0013  0.9153
  762MOL0     H 5124  11.136   4.245   9.353 -3.0593 -0.5948 -2.0745
  762MOL0     H 5125  11.157   4.079   9.418 -1.2147  1.5541  2.0028
  762MOL0     H 5126  11.046   3.991   9.206  3.3574  1.9966 -2.9423
  762MOL0     H 5127  11.042   4.144   9.144  2.5237 -0.6176  0.7401
  762MOL0     H 5128  10.906   4.057   9.404 -2.8400 -0.3337  0.9605
  762MOL0     H 5129  10.887   4.225   9.338 -1.8138 -1.6073 -0.6259
  762MOL0     H 5130  10.784   3.976   9.196  0.0528  0.1148  0.2557
  762MOL0     H 5131  10.784   4.140   9.125  0.0832  1.5764  0.2346
  762MOL0     H 5132  10.577   4.144   9.200 -0.0571 -2.3127  0.8400
  762MOL0     H 5133  10.665   4.219   9.324 -0.3826  1.0989 -1.8434
  762MOL0     H 5134  10.690   4.014   9.457  0.5381  0.0476  1.0109
  762MOL0     H 5135  10.574   3.915   9.348  0.1645  0.0553  2.1311
  762MOL0     H 5136  11.259   4.597   9.286  2.4332 -1.3797 -2.0189
  762MOL0     H 5137  11.189   4.820   9.176 -0.3321 -0.1019 -1.4645
  762MOL0     H 5138  10.983   5.034   9.011 -2.4007  1.1034  1.5684
  762MOL0     H 5139  10.920   5.257   9.010 -0.6300 -2.0786 -0.3852
  762MOL0     H 5140  10.393   5.901   7.361  0.2638  1.8092 -2.7925
  762MOL0     H 5141  10.518   6.109   7.297 -0.9349  1.2376  1.1047
  762MOL0     H 5142  10.963   6.298   7.274 -1.0618  0.0896 -3.0642
  762MOL0     H 5143  11.098   6.492   7.255  0.4628  0.5320  0.8445
  762MOL0     H 5144  10.882   6.894   7.290 -0.6034 -0.4448  0.8959
  762MOL0     H 5145  10.958   6.831   7.433 -0.6252 -0.9455 -0.7503
  762MOL0     H 5146  11.178   6.921   7.349  0.7632 -1.5945 -0.8444
  762MOL0     H 5147  11.071   7.053   7.345  2.9132 -1.3555  1.5249
  762MOL0     H 5148  11.211   7.014   7.134  0.4157 -3.3222 -2.7057
  762MOL0     H 5149  11.140   6.862   7.107 -3.0537 -1.9095  0.3564
  762MOL0     H 5150  10.997   7.127   7.071  0.2145  0.4766 -5.2072
  762MOL0     H 5151  10.916   6.967   7.088  0.5660 -1.3147  2.4285
  762MOL0     H 5152  11.042   7.029   6.689  2.6723  1.8636  0.1590
  762MOL0     H 5153  10.760   6.733   7.277  3.4892  1.7982  0.7564
  762MOL0     H 5154  10.513   6.543   7.206  0.3737 -0.7008  0.0236
  762MOL0     H 5155  10.503   6.473   7.364 -1.8882  1.3469  0.2006
  762MOL0     H 5156  10.526   6.649   7.341 -2.1031  0.0909 -3.3970
  763MOL0     O 5157   2.850   6.919   9.286  0.2380  0.0201 -0.7751
  763MOL0     C 5158   2.739   6.967   9.321 -0.3007 -0.0891  0.4847
  763MOL0     O 5159   2.692   7.087   9.273 -0.0771 -0.7082  0.1369
  763MOL0     C 5160   2.741   7.146   9.160 -0.0799  0.3958 -0.3488
  763MOL0     C 5161   2.755   7.281   9.150 -0.4714  0.3952  0.2004
  763MOL0     C 5162   2.803   7.348   9.037  0.3672  1.0354  0.6377
  763MOL0     C 5163   2.837   7.270   8.930  0.5203 -0.8778 -1.1453
  763MOL0     O 5164   2.905   7.310   8.820  0.1852 -0.1148 -0.3015
  763MOL0     C 5165   3.000   7.416   8.838 -0.3159  0.5166  0.5438
  763MOL0     C 5166   2.988   7.516   8.715  0.1100  0.9190  0.0265
  763MOL0     C 5167   3.108   7.613   8.693  0.1227  0.1067  0.1525
  763MOL0     C 5168   3.067   7.686   8.563  0.5728 -0.2333 -0.0515
  763MOL0     C 5169   3.096   7.617   8.422  0.4522 -0.7192 -0.0366
  763MOL0     C 5170   3.028   7.699   8.315  0.2135  0.4078 -0.3620
  763MOL0     C 5171   3.021   7.633   8.170 -0.5681  0.0957 -0.4398
  763MOL0     C 5172   2.905   7.523   8.164  0.0745  0.1266 -0.5538
  763MOL0     N 5173   2.776   7.580   8.113 -1.0961 -1.2666 -0.0937
  763MOL0     C 5174   2.660   7.513   8.094  0.4926 -0.4127  0.4488
  763MOL0     C 5175   2.573   7.610   8.050 -0.8908  1.1639  0.4126
  763MOL0     C 5176   2.441   7.597   7.986  0.4117  1.2500  0.1113
  763MOL0     C 5177   2.452   7.510   7.861  0.6066  0.0539 -0.4960
  763MOL0     C 5178   2.541   7.574   7.762  0.5124 -0.0787 -0.6540
  763MOL0     C 5179   2.515   7.528   7.614 -0.1139 -0.7049 -0.3161
  763MOL0     O 5180   2.561   7.396   7.576 -0.7225 -0.2150 -0.9516
  763MOL0     C 5181   2.579   7.376   7.442 -0.5913  0.8992 -0.0906
  763MOL0     C 5182   2.681   7.433   7.358  0.5329  1.1471  0.5529
  763MOL0     C 5183   2.704   7.407   7.221 -0.1188 -0.1461  0.0493
  763MOL0     C 5184   2.806   7.491   7.135  0.3254 -0.7020 -0.4893
  763MOL0     C 5185   2.628   7.307   7.160  0.0346  1.2697 -0.4132
  763MOL0     C 5186   2.644   7.253   7.015 -0.7472  0.1209  0.0267
  763MOL0     O 5187   2.773   7.280   6.954 -0.3641 -0.0105  0.0161
  763MOL0     C 5188   2.788   7.237   6.827  0.7750 -0.2159 -0.4470
  763MOL0     C 5189   2.887   7.142   6.809  0.6341  0.4738  0.1566
  763MOL0     C 5190   2.897   7.084   6.683 -0.8635 -0.7634 -0.1851
  763MOL0     C 5191   2.819   7.126   6.573 -0.7815 -0.0851  0.6795
  763MOL0     O 5192   2.832   7.071   6.444  0.2355  0.5041 -0.3213
  763MOL0     C 5193   2.819   6.927   6.444 -0.0766 -0.2376  1.4089
  763MOL0     C 5194   2.857   6.869   6.305 -0.1245  0.0953 -0.7735
  763MOL0     C 5195   2.744   6.882   6.196  0.0231 -0.5478  1.2736
  763MOL0     C 5196   2.746   7.017   6.122 -0.7064  0.0120  0.7660
  763MOL0     C 5197   2.624   7.059   6.048  0.4843 -0.6127  0.3201
  763MOL0     C 5198   2.650   7.174   5.950  0.6083  0.1661  0.3840
  763MOL0     C 5199   2.766   7.144   5.852  0.3076 -0.0905  0.7974
  763MOL0     C 5200   2.753   7.204   5.717 -0.2054  0.0022 -0.1134
  763MOL0    Cl 5201   2.645   7.102   5.612  0.0698  0.3481  0.2038
  763MOL0     C 5202   2.736   7.233   6.597 -0.1450 -0.4774 -0.5373
  763MOL0     C 5203   2.717   7.290   6.725  0.4087  0.3362 -0.4699
  763MOL0     O 5204   2.536   7.207   6.961 -0.5471  0.0900  0.0499
  763MOL0     C 5205   2.520   7.250   7.249 -0.1988 -0.0622  0.1484
  763MOL0     C 5206   2.507   7.275   7.388  0.0509 -0.7729  0.5260
  763MOL0     N 5207   2.639   7.730   8.042 -0.6777 -0.7306 -0.9723
  763MOL0     N 5208   2.763   7.714   8.091  0.5363  0.1876  0.0665
  763MOL0     C 5209   2.813   7.132   8.928  0.0970 -1.3004  0.0692
  763MOL0     C 5210   2.770   7.069   9.047  0.6749 -0.7693  0.1829
  763MOL0     C 5211   2.656   6.897   9.413  0.2371  0.4317 -0.3674
  763MOL0     C 5212   2.606   6.964   9.527  1.0158 -1.6087 -0.7367
  763MOL0     C 5213   2.552   6.901   9.635  1.3640 -0.2870 -0.0385
  763MOL0     C 5214   2.518   6.771   9.622 -0.1904  0.8809  0.2184
  763MOL0     O 5215   2.479   6.688   9.728 -0.2929  0.5427  0.7134
  763MOL0     C 5216   2.456   6.733   9.856 -0.9631  0.0396 -1.1048
  763MOL0     C 5217   2.313   6.794   9.866 -0.0060  0.5372  0.5250
  763MOL0     C 5218   2.321   6.915   9.964 -0.2280  0.5157 -0.4368
  763MOL0     C 5219   2.294   6.854  10.100 -0.5640 -0.5472 -0.7315
  763MOL0     C 5220   2.287   6.974  10.191 -0.6000 -0.4056  0.1245
  763MOL0     C 5221   2.313   7.078  10.260  0.6627 -0.1209  0.7173
  763MOL0     C 5222   2.536   6.700   9.501  0.6636  0.0416 -0.1897
  763MOL0     C 5223   2.607   6.762   9.394 -0.5849  0.1354 -0.3123
  763MOL0     C 5224   2.634   6.694   9.266 -0.8070  0.1986  0.2303
  763MOL0     H 5225   2.732   7.344   9.235 -0.5942  0.1916  0.3198
  763MOL0     H 5226   2.798   7.456   9.026 -3.7878  0.8816 -0.9633
  763MOL0     H 5227   3.100   7.376   8.824 -0.9897 -2.0893  2.3521
  763MOL0     H 5228   2.994   7.478   8.928  1.1785  0.2900  0.8160
  763MOL0     H 5229   2.971   7.457   8.625  0.4300  1.0340 -0.1115
  763MOL0     H 5230   2.897   7.577   8.725  0.5733  2.1944 -2.5950
  763MOL0     H 5231   3.122   7.682   8.777 -0.0613 -0.3170  0.5422
  763MOL0     H 5232   3.202   7.559   8.676 -0.3259 -0.4296 -0.6843
  763MOL0     H 5233   2.964   7.720   8.573  0.0231 -1.9233  0.4262
  763MOL0     H 5234   3.132   7.774   8.562 -0.4948  0.6872  2.6354
  763MOL0     H 5235   3.066   7.512   8.420  1.3559 -0.9930  0.2555
  763MOL0     H 5236   3.201   7.620   8.390 -0.4195 -2.9816 -3.6021
  763MOL0     H 5237   2.922   7.706   8.344 -0.6880  0.2913 -3.3090
  763MOL0     H 5238   3.078   7.796   8.317 -1.2352  1.1750  0.4072
  763MOL0     H 5239   3.121   7.591   8.156 -0.4549 -0.3443  1.4469
  763MOL0     H 5240   3.007   7.709   8.092 -1.1489  0.7125  0.2444
  763MOL0     H 5241   2.927   7.431   8.109 -2.1790  0.2007 -1.6822
  763MOL0     H 5242   2.878   7.492   8.266  2.0838 -2.2004 -0.6405
  763MOL0     H 5243   2.640   7.408   8.113 -1.7122 -0.2844 -0.8814
  763MOL0     H 5244   2.410   7.699   7.961  2.0839  2.0663  1.2155
  763MOL0     H 5245   2.356   7.571   8.050  0.6681  2.5245  1.0196
  763MOL0     H 5246   2.486   7.410   7.889  0.0767  0.2934  1.0689
  763MOL0     H 5247   2.355   7.508   7.811 -0.4962  0.2135  1.5501
  763MOL0     H 5248   2.532   7.683   7.768 -1.4941 -0.2575  0.2009
  763MOL0     H 5249   2.648   7.551   7.772  0.7190  1.2201  0.4558
  763MOL0     H 5250   2.408   7.539   7.595  0.3354  3.6547 -1.3744
  763MOL0     H 5251   2.561   7.609   7.556 -0.7196 -0.0731  0.0634
  763MOL0     H 5252   2.737   7.505   7.417  1.5082 -0.0991  1.1863
  763MOL0     H 5253   2.848   7.582   7.179  1.4437 -0.5873 -1.7431
  763MOL0     H 5254   2.762   7.530   7.043  0.2636  2.2128  0.6624
  763MOL0     H 5255   2.890   7.429   7.104 -0.0465 -1.9272  0.8470
  763MOL0     H 5256   2.954   7.108   6.887  0.6079  0.7369  0.2942
  763MOL0     H 5257   2.978   7.014   6.667  1.5000  1.2022  2.1165
  763MOL0     H 5258   2.880   6.878   6.521 -2.4709 -1.4487  2.6531
  763MOL0     H 5259   2.716   6.893   6.459 -1.2641 -0.9749 -5.2925
  763MOL0     H 5260   2.943   6.931   6.278 -1.3787  1.1873 -2.5116
  763MOL0     H 5261   2.884   6.764   6.315 -2.6793 -0.5179  0.5995
  763MOL0     H 5262   2.643   6.859   6.228 -0.9035 -0.7895 -1.5106
  763MOL0     H 5263   2.762   6.796   6.130  1.8189 -0.2095  1.2566
  763MOL0     H 5264   2.833   7.020   6.056 -1.2659 -0.0401  0.0115
  763MOL0     H 5265   2.744   7.091   6.203 -0.8152 -0.7243  1.4572
  763MOL0     H 5266   2.586   6.975   5.988 -1.3949  0.3677  0.0536
  763MOL0     H 5267   2.540   7.077   6.116 -1.2110 -1.9347 -1.3163
  763MOL0     H 5268   2.672   7.271   5.995  0.4654  1.0550 -1.3782
  763MOL0     H 5269   2.562   7.196   5.889 -1.2165 -2.8387  1.7002
  763MOL0     H 5270   2.777   7.036   5.836  0.4994  0.0018  0.3052
  763MOL0     H 5271   2.864   7.177   5.889  0.3758  0.0811  0.4573
  763MOL0     H 5272   2.854   7.215   5.677 -0.8365  1.5926 -1.3455
  763MOL0     H 5273   2.711   7.304   5.718  0.5519  0.3312  1.3193
  763MOL0     H 5274   2.660   7.262   6.525 -3.3040 -0.2686  2.5910
  763MOL0     H 5275   2.627   7.346   6.750 -1.6867 -3.0610  0.2669
  763MOL0     H 5276   2.448   7.176   7.213  1.1941 -1.1293 -0.5188
  763MOL0     H 5277   2.436   7.215   7.442 -0.0080 -2.8635 -1.7224
  763MOL0     H 5278   2.841   7.073   8.841 -2.2134 -0.6112 -1.2202
  763MOL0     H 5279   2.743   6.964   9.033  1.6444 -0.7590 -2.2877
  763MOL0     H 5280   2.626   7.070   9.532 -1.8318 -0.8820 -2.5890
  763MOL0     H 5281   2.518   6.963   9.717  2.1600  0.6105 -0.3579
  763MOL0     H 5282   2.479   6.653   9.927  1.9744  3.2402  1.9943
  763MOL0     H 5283   2.522   6.807   9.903  1.7722 -1.7161 -1.9262
  763MOL0     H 5284   2.237   6.726   9.905 -0.6032  2.2152  2.4505
  763MOL0     H 5285   2.287   6.846   9.773 -0.3205 -0.1403  0.2235
  763MOL0     H 5286   2.412   6.975   9.953 -0.4562  1.1628  1.0280
  763MOL0     H 5287   2.234   6.979   9.945 -0.9353 -0.5205 -0.8081
  763MOL0     H 5288   2.371   6.781  10.127  1.0893  1.4311  0.2377
  763MOL0     H 5289   2.193   6.814  10.095 -1.3976  1.4159 -0.6592
  763MOL0     H 5290   2.333   7.162  10.323  1.1575  0.0357  0.3593
  763MOL0     H 5291   2.502   6.598   9.487 -1.0412  0.7883 -1.9126
  763MOL0     H 5292   2.562   6.615   9.247 -0.3228 -0.6680  1.8213
  763MOL0     H 5293   2.619   6.761   9.181  1.4851 -1.8376 -1.9588
  763MOL0     H 5294   2.735   6.653   9.256  0.1163  2.2844  0.3105
  764MOL0     O 5295   3.089   6.543  11.243 -0.6825 -0.3006  0.0219
  764MOL0     C 5296   3.015   6.487  11.328 -0.1719  0.4467  0.2010
  764MOL0     O 5297   2.992   6.349  11.343  0.1767 -0.0927 -0.1510
  764MOL0     C 5298   3.088   6.248  11.320  0.6266  0.6549 -0.1222
  764MOL0     C 5299   3.061   6.121  11.376 -0.4074 -0.7277  0.2153
  764MOL0     C 5300   3.147   6.015  11.368  1.0384  0.9884  0.0619
  764MOL0     C 5301   3.261   6.030  11.289  0.6642  0.0493 -0.0231
  764MOL0     O 5302   3.364   5.945  11.280 -0.4263 -0.5372 -0.0800
  764MOL0     C 5303   3.398   5.865  11.400  0.3596  0.0388  0.1484
  764MOL0     C 5304   3.544   5.822  11.405 -0.3962  0.5814 -0.6654
  764MOL0     C 5305   3.567   5.757  11.544 -0.4552 -0.3529 -0.7404
  764MOL0     C 5306   3.670   5.648  11.533 -0.3742  0.6891  0.2092
  764MOL0     C 5307   3.612   5.521  11.460 -0.0635  0.1472 -0.4628
  764MOL0     C 5308   3.735   5.414  11.461  0.0604 -0.3559 -0.6776
  764MOL0     C 5309   3.685   5.269  11.470  0.2531  0.1373 -0.0910
  764MOL0     C 5310   3.604   5.233  11.346 -0.0684  0.1536  0.4135
  764MOL0     N 5311   3.602   5.092  11.324 -0.7038 -0.3115 -0.3748
  764MOL0     C 5312   3.650   5.040  11.205 -0.1853 -0.0919  0.9134
  764MOL0     C 5313   3.600   4.912  11.210 -0.3419  0.3703  0.6834
  764MOL0     C 5314   3.604   4.827  11.090  0.7690 -0.1742  0.4690
  764MOL0     C 5315   3.542   4.685  11.116 -0.8000  0.0875  0.1247
  764MOL0     C 5316   3.525   4.622  10.984  0.0425  0.3019 -0.0573
  764MOL0     C 5317   3.418   4.516  10.996  0.1451  0.5940  0.4603
  764MOL0     O 5318   3.390   4.458  10.867  0.2370 -0.1264 -0.5185
  764MOL0     C 5319   3.457   4.346  10.827  0.7277 -0.1388 -0.5243
  764MOL0     C 5320   3.407   4.302  10.707 -0.4053  0.6296 -0.4180
  764MOL0     C 5321   3.449   4.182  10.649  0.3106 -0.2814 -0.1949
  764MOL0     C 5322   3.379   4.134  10.525 -0.5252 -0.0324  0.5317
  764MOL0     C 5323   3.556   4.110  10.704 -0.2089 -0.5750 -0.1488
  764MOL0     C 5324   3.625   3.992  10.640 -0.9225 -0.3681  0.3741
  764MOL0     O 5325   3.700   3.918  10.725  0.0352 -0.5952 -0.2093
  764MOL0     C 5326   3.768   3.817  10.659  0.2883 -0.1588 -0.2558
  764MOL0     C 5327   3.699   3.694  10.628 -0.7202 -0.4782 -0.0328
  764MOL0     C 5328   3.761   3.579  10.570 -0.8258 -0.7957  0.3340
  764MOL0     C 5329   3.893   3.588  10.528  0.8477 -0.5074  0.0458
  764MOL0     O 5330   3.957   3.485  10.475  0.3199 -0.1930 -0.1766
  764MOL0     C 5331   4.010   3.388  10.570  0.5395  0.3986 -0.5013
  764MOL0     C 5332   4.112   3.285  10.505  0.5073 -0.1532  0.4939
  764MOL0     C 5333   4.049   3.148  10.481  0.1820  0.1530  0.2138
  764MOL0     C 5334   3.937   3.154  10.372 -0.4286 -0.7280  0.3994
  764MOL0     C 5335   3.938   3.027  10.285  0.4849  0.1996 -1.0061
  764MOL0     C 5336   3.891   2.902  10.372 -0.4963 -0.4441  0.2780
  764MOL0     C 5337   3.888   2.777  10.291  1.3454 -0.3013  0.4449
  764MOL0     C 5338   3.860   2.655  10.377  0.9448 -0.2618 -0.1829
  764MOL0    Cl 5339   3.976   2.614  10.503  0.1460  0.0527 -0.0212
  764MOL0     C 5340   3.970   3.696  10.558  0.6203 -0.4094  1.3510
  764MOL0     C 5341   3.909   3.808  10.627 -0.1461  0.3710 -0.0270
  764MOL0     O 5342   3.612   3.971  10.520 -0.5065 -0.4495  0.8834
  764MOL0     C 5343   3.617   4.169  10.819  0.6253  0.2959 -0.6809
  764MOL0     C 5344   3.568   4.283  10.883  0.1966 -0.1262  0.5377
  764MOL0     N 5345   3.546   4.887  11.335 -0.8442 -0.7458 -1.7692
  764MOL0     N 5346   3.538   5.000  11.404  0.0402 -0.3518  0.4619
  764MOL0     C 5347   3.286   6.154  11.225 -0.1790  0.0962  0.1462
  764MOL0     C 5348   3.197   6.262  11.239 -0.5964  0.0924  0.0710
  764MOL0     C 5349   2.944   6.578  11.420 -1.0367  0.1802 -0.4288
  764MOL0     C 5350   2.806   6.577  11.421  0.3219  0.3810 -0.8709
  764MOL0     C 5351   2.734   6.669  11.496  0.0466  0.5730  0.1163
  764MOL0     C 5352   2.794   6.756  11.579 -0.2483  0.2101  0.1909
  764MOL0     O 5353   2.708   6.824  11.658 -0.0062  0.1892  0.7869
  764MOL0     C 5354   2.770   6.912  11.761  0.3510  0.0591  0.7438
  764MOL0     C 5355   2.826   6.861  11.888 -0.2495 -0.0779 -0.0018
  764MOL0     C 5356   2.889   6.977  11.960 -0.5632 -0.5352 -0.1636
  764MOL0     C 5357   2.946   6.932  12.094 -0.1902 -0.2386  0.0274
  764MOL0     C 5358   3.030   7.043  12.145 -0.0200 -0.0987  0.2011
  764MOL0     C 5359   3.100   7.142  12.180  0.7177  0.2848 -0.7529
  764MOL0     C 5360   2.933   6.754  11.590 -0.9238 -0.4419 -0.0917
  764MOL0     C 5361   3.004   6.671  11.505 -0.4616  0.2449 -1.2116
  764MOL0     C 5362   3.155   6.686  11.513 -0.3219 -0.6041  0.0645
  764MOL0     H 5363   2.966   6.109  11.427  0.5876 -1.5055  1.9755
  764MOL0     H 5364   3.129   5.915  11.408  1.2304  0.4568 -1.1243
  764MOL0     H 5365   3.331   5.779  11.396  2.0338 -1.2942 -0.6698
  764MOL0     H 5366   3.373   5.917  11.493 -2.6943 -1.4801  0.2949
  764MOL0     H 5367   3.560   5.768  11.312  0.4926  0.5035 -0.4748
  764MOL0     H 5368   3.598   5.917  11.408 -1.1420  0.9990  1.3826
  764MOL0     H 5369   3.596   5.831  11.620 -0.5866  1.2778 -2.2120
  764MOL0     H 5370   3.477   5.717  11.593  0.2999 -0.5226  0.5607
  764MOL0     H 5371   3.751   5.676  11.465  1.5243  0.8338  2.4412
  764MOL0     H 5372   3.711   5.632  11.632  0.6014 -1.7065 -0.5247
  764MOL0     H 5373   3.581   5.562  11.363 -0.0533 -0.6497 -0.8038
  764MOL0     H 5374   3.522   5.484  11.510 -0.0536  1.9369  1.0201
  764MOL0     H 5375   3.794   5.430  11.370  1.2852 -0.0545  0.1483
  764MOL0     H 5376   3.799   5.435  11.547  1.5639  0.1454 -1.8745
  764MOL0     H 5377   3.632   5.254  11.564 -1.1296  0.9031 -0.7201
  764MOL0     H 5378   3.768   5.199  11.459 -1.0553 -1.5919  0.6448
  764MOL0     H 5379   3.500   5.263  11.356 -1.6585 -3.4263 -3.0584
  764MOL0     H 5380   3.647   5.293  11.265 -1.5903  2.4816  1.2343
  764MOL0     H 5381   3.672   5.089  11.110 -1.5736  1.0475  1.1452
  764MOL0     H 5382   3.708   4.817  11.055  0.3396 -0.9154 -0.6621
  764MOL0     H 5383   3.557   4.877  11.005  0.3196 -1.2270  0.0806
  764MOL0     H 5384   3.615   4.626  11.172  1.3250  1.4785 -1.0576
  764MOL0     H 5385   3.446   4.684  11.168 -0.6546  0.7453  0.4179
  764MOL0     H 5386   3.501   4.693  10.903  1.7332 -0.0423 -0.9139
  764MOL0     H 5387   3.609   4.558  10.956 -1.9700 -0.6844 -4.9346
  764MOL0     H 5388   3.449   4.433  11.060 -1.6672  0.0419  0.6796
  764MOL0     H 5389   3.329   4.560  11.043 -0.9992 -0.5829 -0.5137
  764MOL0     H 5390   3.316   4.348  10.669 -0.9138  0.6101  0.7273
  764MOL0     H 5391   3.299   4.198  10.485 -1.7594 -2.1908 -0.6340
  764MOL0     H 5392   3.332   4.036  10.540  1.3007 -1.4040 -1.9603
  764MOL0     H 5393   3.456   4.126  10.448  0.8674  2.0134  1.6317
  764MOL0     H 5394   3.592   3.703  10.642 -0.6819  0.5254 -0.3206
  764MOL0     H 5395   3.705   3.490  10.544 -0.6034 -1.0751  0.8056
  764MOL0     H 5396   4.068   3.443  10.645  0.2043  1.3073 -0.8905
  764MOL0     H 5397   3.930   3.333  10.620  0.6419 -0.0606 -0.8427
  764MOL0     H 5398   4.154   3.325  10.412 -0.7457 -1.9624 -0.9329
  764MOL0     H 5399   4.191   3.278  10.581 -1.5150 -0.6676  2.6478
  764MOL0     H 5400   4.007   3.095  10.567 -0.8142  0.1509 -0.2632
  764MOL0     H 5401   4.126   3.078  10.448 -0.8841 -0.6745 -0.5860
  764MOL0     H 5402   3.961   3.236  10.304 -2.8389  1.0306  1.5471
  764MOL0     H 5403   3.839   3.182  10.411 -0.2748 -0.1213  0.3584
  764MOL0     H 5404   3.874   3.033  10.196  0.9941  1.4531 -1.3087
  764MOL0     H 5405   4.038   3.007  10.244 -0.9257 -1.3530 -4.0598
  764MOL0     H 5406   3.797   2.913  10.428 -0.3481 -3.8440  1.3887
  764MOL0     H 5407   3.967   2.888  10.450  3.2903  0.9591 -2.8599
  764MOL0     H 5408   3.984   2.768  10.240 -0.8619  0.3394 -4.3293
  764MOL0     H 5409   3.809   2.783  10.216  1.1047 -0.7712  0.6551
  764MOL0     H 5410   3.882   2.570  10.312 -0.6898 -1.3528  0.6041
  764MOL0     H 5411   3.758   2.659  10.417  1.6019  2.5958  1.4985
  764MOL0     H 5412   4.073   3.691  10.526  0.1327  2.5668 -1.2199
  764MOL0     H 5413   3.970   3.894  10.653 -0.7867  1.1754 -1.0859
  764MOL0     H 5414   3.707   4.116  10.849  0.0102 -2.8030 -3.7074
  764MOL0     H 5415   3.611   4.312  10.978 -1.4922  1.0046  1.0088
  764MOL0     H 5416   3.378   6.174  11.171 -1.3077 -0.1284 -1.9423
  764MOL0     H 5417   3.214   6.358  11.191 -0.6708  2.3050  4.0230
  764MOL0     H 5418   2.752   6.503  11.363 -0.5142 -0.6039  1.0600
  764MOL0     H 5419   2.626   6.672  11.498 -0.2699 -2.3582 -2.9451
  764MOL0     H 5420   2.853   6.964  11.712  0.4598 -0.2503  0.5959
  764MOL0     H 5421   2.684   6.975  11.783 -1.9705 -2.2536 -1.0309
  764MOL0     H 5422   2.898   6.781  11.868  0.8778  1.1446 -0.9932
  764MOL0     H 5423   2.745   6.830  11.955 -0.8398  1.6410  0.1178
  764MOL0     H 5424   2.967   7.028  11.903  0.9654 -1.0737  1.3878
  764MOL0     H 5425   2.805   7.047  11.971 -1.4880 -1.6729  0.2508
  764MOL0     H 5426   3.005   6.841  12.088 -2.5216 -1.9543  1.4054
  764MOL0     H 5427   2.866   6.898  12.161  0.4905 -3.0968 -0.5126
  764MOL0     H 5428   3.158   7.221  12.223 -1.8926  1.8138  0.1496
  764MOL0     H 5429   2.993   6.813  11.659  1.1492 -1.5790 -0.8619
  764MOL0     H 5430   3.186   6.751  11.430  1.7127 -2.1381 -0.4546
  764MOL0     H 5431   3.185   6.743  11.601  0.4869  0.1756 -0.6917
  764MOL0     H 5432   3.208   6.591  11.501 -0.7729 -0.5221 -4.6690
  765MOL0     O 5433   0.264   2.842   5.907 -0.2364  0.8030  0.5102
  765MOL0     C 5434   0.167   2.915   5.935  0.6348  1.1366  0.6959
  765MOL0     O 5435   0.145   3.042   5.891  0.5891 -0.0103  0.0518
  765MOL0     C 5436   0.266   3.113   5.881  0.4749 -0.2714  0.4903
  765MOL0     C 5437   0.378   3.100   5.965 -0.1774 -0.5447 -0.0645
  765MOL0     C 5438   0.476   3.206   5.960  0.0804 -0.0264  0.5912
  765MOL0     C 5439   0.473   3.304   5.854 -0.0161  0.4360  0.9783
  765MOL0     O 5440   0.561   3.403   5.829 -0.8605 -0.4350  0.3775
  765MOL0     C 5441   0.673   3.417   5.927  0.0199 -0.3296 -0.8921
  765MOL0     C 5442   0.758   3.533   5.878 -0.2347 -0.4691 -0.3906
  765MOL0     C 5443   0.674   3.668   5.893 -0.2315 -0.1358 -0.2245
  765MOL0     C 5444   0.658   3.741   5.760  0.6840  0.3068 -0.2516
  765MOL0     C 5445   0.553   3.855   5.765 -0.3095  0.1979 -0.6144
  765MOL0     C 5446   0.523   3.901   5.617  0.7269  1.0657 -0.7436
  765MOL0     C 5447   0.427   4.022   5.605  0.5114  0.3615 -0.4060
  765MOL0     C 5448   0.504   4.142   5.634  0.1890 -0.7879  0.2608
  765MOL0     N 5449   0.435   4.268   5.586  0.3790  1.0440  0.2347
  765MOL0     C 5450   0.341   4.327   5.667 -0.0902 -0.1645  0.5191
  765MOL0     C 5451   0.284   4.429   5.587 -0.5267 -0.1678 -1.1116
  765MOL0     C 5452   0.194   4.537   5.643  0.6933  1.0355 -0.1980
  765MOL0     C 5453   0.111   4.612   5.539 -0.0306  0.7593 -1.4787
  765MOL0     C 5454   0.012   4.519   5.462  0.0503 -0.0649 -0.5551
  765MOL0     C 5455  -0.092   4.460   5.563  0.1808  0.2413 -0.3398
  765MOL0     O 5456  -0.170   4.376   5.477 -0.1074 -0.1993  0.2195
  765MOL0     C 5457  -0.287   4.326   5.519  0.3028 -0.1334 -0.1330
  765MOL0     C 5458  -0.382   4.286   5.423 -0.0465 -0.2459 -0.9676
  765MOL0     C 5459  -0.517   4.267   5.461 -0.7647  0.4222 -0.5176
  765MOL0     C 5460  -0.626   4.231   5.347 -0.2323  0.6053 -0.5936
  765MOL0     C 5461  -0.558   4.299   5.593  0.3804  1.3964 -0.1747
  765MOL0     C 5462  -0.703   4.294   5.618 -0.1968  0.8044  0.0316
  765MOL0     O 5463  -0.772   4.397   5.558  0.3804  0.2123 -0.6471
  765MOL0     C 5464  -0.913   4.385   5.555  1.7457 -0.2317 -0.0967
  765MOL0     C 5465  -0.993   4.368   5.669 -0.7569 -0.6500  0.0290
  765MOL0     C 5466  -1.129   4.367   5.663 -0.3532  0.1457  0.7829
  765MOL0     C 5467  -1.190   4.373   5.530 -0.7038 -0.0834 -0.1744
  765MOL0     O 5468  -1.319   4.378   5.504  0.5470 -0.6488 -0.0593
  765MOL0     C 5469  -1.405   4.425   5.610 -0.0553 -0.5038  0.1840
  765MOL0     C 5470  -1.552   4.390   5.577 -0.2476 -0.8745 -0.3365
  765MOL0     C 5471  -1.651   4.399   5.694 -1.0422  0.6043  0.5293
  765MOL0     C 5472  -1.610   4.337   5.824  0.9092 -0.5277  0.3904
  765MOL0     C 5473  -1.717   4.384   5.931  0.4244  0.4576  0.0494
  765MOL0     C 5474  -1.703   4.298   6.064 -0.4188 -0.1691  0.1299
  765MOL0     C 5475  -1.817   4.326   6.162  0.4640  0.3709  0.2635
  765MOL0     C 5476  -1.808   4.229   6.286 -1.2077  0.0361  0.1538
  765MOL0    Cl 5477  -1.802   4.062   6.231 -0.1172  0.2804  0.1420
  765MOL0     C 5478  -1.111   4.382   5.416 -0.3947  0.0779 -0.8637
  765MOL0     C 5479  -0.975   4.384   5.430 -0.2047 -0.0905 -0.0035
  765MOL0     O 5480  -0.740   4.217   5.704  0.2559 -0.3296 -0.0896
  765MOL0     C 5481  -0.463   4.336   5.686  0.8954 -0.2610 -0.0865
  765MOL0     C 5482  -0.335   4.345   5.655 -0.6426 -0.2025  0.7112
  765MOL0     N 5483   0.337   4.411   5.459  0.2661 -0.1788  0.6592
  765MOL0     N 5484   0.419   4.319   5.458 -0.5042 -0.0648 -0.0612
  765MOL0     C 5485   0.362   3.304   5.768 -0.7311  0.0079 -0.0317
  765MOL0     C 5486   0.251   3.224   5.794 -0.1627  0.2522 -0.9370
  765MOL0     C 5487   0.038   2.862   6.000  0.0764 -1.1038 -0.0090
  765MOL0     C 5488  -0.071   2.945   6.023  0.6652 -0.2105  0.7745
  765MOL0     C 5489  -0.187   2.902   6.074  0.2275  0.5751  0.3276
  765MOL0     C 5490  -0.201   2.774   6.120  0.3758  0.6751 -0.4748
  765MOL0     O 5491  -0.320   2.745   6.187  0.6952 -0.1040  0.4649
  765MOL0     C 5492  -0.345   2.638   6.280  0.1555  0.2472 -0.8660
  765MOL0     C 5493  -0.228   2.609   6.373  0.4029 -0.2995 -0.3017
  765MOL0     C 5494  -0.274   2.579   6.515  0.4251  0.6002  0.3079
  765MOL0     C 5495  -0.153   2.537   6.613  0.2151 -0.3054  0.4184
  765MOL0     C 5496  -0.118   2.402   6.568 -0.4426  0.1820 -0.8388
  765MOL0     C 5497  -0.097   2.290   6.528  0.3481  0.1344  0.2451
  765MOL0     C 5498  -0.096   2.678   6.098  0.9914 -0.2594 -0.5223
  765MOL0     C 5499   0.026   2.726   6.040 -1.0943 -0.8838  0.5572
  765MOL0     C 5500   0.122   2.618   6.005  0.0595  0.1531 -0.2905
  765MOL0     H 5501   0.382   3.024   6.043 -0.3734  1.7009  2.2892
  765MOL0     H 5502   0.566   3.178   6.014  0.1346 -0.2363  0.3976
  765MOL0     H 5503   0.727   3.323   5.943 -1.6855 -1.3415 -0.7700
  765MOL0     H 5504   0.619   3.443   6.019 -0.4650  1.1901 -1.5678
  765MOL0     H 5505   0.844   3.532   5.945 -0.0022  1.5858 -0.5861
  765MOL0     H 5506   0.799   3.507   5.780  1.6870 -0.2666  0.3300
  765MOL0     H 5507   0.579   3.643   5.940 -0.7812  1.3120 -0.5307
  765MOL0     H 5508   0.708   3.746   5.963 -2.2684  2.9133 -2.4057
  765MOL0     H 5509   0.758   3.767   5.725  2.4771 -2.7690  2.0468
  765MOL0     H 5510   0.616   3.669   5.689 -3.4074 -0.3593  2.5223
  765MOL0     H 5511   0.607   3.927   5.828  0.1993 -2.0385  1.6868
  765MOL0     H 5512   0.470   3.814   5.822 -0.7107 -1.6943 -2.4434
  765MOL0     H 5513   0.621   3.919   5.572  1.9934  1.8583  2.1552
  765MOL0     H 5514   0.475   3.822   5.558  0.4012 -0.5637  1.5904
  765MOL0     H 5515   0.344   4.015   5.675 -1.5383  5.1357 -1.9485
  765MOL0     H 5516   0.380   4.013   5.507  0.3918  1.3730 -0.4489
  765MOL0     H 5517   0.525   4.163   5.739 -0.1436  2.9590 -0.2512
  765MOL0     H 5518   0.593   4.144   5.570  0.1643  0.9211  0.2179
  765MOL0     H 5519   0.330   4.309   5.773 -2.1604 -1.7878  0.1024
  765MOL0     H 5520   0.263   4.612   5.682  0.0235  1.1284  0.8406
  765MOL0     H 5521   0.128   4.506   5.725  0.0429 -0.7728 -1.3376
  765MOL0     H 5522   0.054   4.690   5.590 -1.3265 -0.9604 -0.1526
  765MOL0     H 5523   0.179   4.657   5.466  2.1298  0.3556  0.1779
  765MOL0     H 5524  -0.039   4.587   5.393 -1.2795  2.4726  2.6343
  765MOL0     H 5525   0.073   4.444   5.411  0.3709 -0.9338  1.0341
  765MOL0     H 5526  -0.054   4.404   5.649 -1.3022  2.9541  2.2748
  765MOL0     H 5527  -0.153   4.540   5.606  1.2508  1.6078 -1.2577
  765MOL0     H 5528  -0.362   4.274   5.317 -0.9087  2.0163 -1.4526
  765MOL0     H 5529  -0.713   4.297   5.343 -1.2795 -0.7661 -1.4054
  765MOL0     H 5530  -0.662   4.129   5.364 -2.2613  1.4388  0.3766
  765MOL0     H 5531  -0.574   4.230   5.250  0.0518 -0.9420 -0.4550
  765MOL0     H 5532  -0.940   4.375   5.764  1.5944  2.1160 -1.3406
  765MOL0     H 5533  -1.202   4.343   5.740 -3.6715  0.5614 -1.9741
  765MOL0     H 5534  -1.378   4.377   5.704 -2.3208  3.4520  3.1956
  765MOL0     H 5535  -1.400   4.533   5.630 -2.6365 -0.4861  1.2102
  765MOL0     H 5536  -1.582   4.437   5.484  3.5295  0.0269 -1.2595
  765MOL0     H 5537  -1.551   4.282   5.556 -1.0303 -0.7473 -1.0620
  765MOL0     H 5538  -1.750   4.368   5.660 -0.6084 -0.4461  0.1695
  765MOL0     H 5539  -1.651   4.508   5.699 -0.0878  0.8328 -2.3039
  765MOL0     H 5540  -1.508   4.375   5.839  0.8817 -0.8700  1.4950
  765MOL0     H 5541  -1.613   4.228   5.810 -2.0319 -0.6073  1.1281
  765MOL0     H 5542  -1.695   4.489   5.953 -1.3215  1.3201 -1.9813
  765MOL0     H 5543  -1.817   4.382   5.887 -0.3686  3.0557  1.5075
  765MOL0     H 5544  -1.610   4.300   6.123 -1.1446  1.6915  1.2858
  765MOL0     H 5545  -1.699   4.192   6.035  0.0539  0.4444 -2.2320
  765MOL0     H 5546  -1.909   4.311   6.105  1.6033  0.7099 -1.7549
  765MOL0     H 5547  -1.814   4.433   6.184  1.5589  0.1690  1.2045
  765MOL0     H 5548  -1.904   4.241   6.338 -1.5344 -0.6559 -0.2709
  765MOL0     H 5549  -1.715   4.253   6.339  1.6616 -0.5122 -4.1096
  765MOL0     H 5550  -1.139   4.380   5.311 -1.9780 -0.6400 -0.4618
  765MOL0     H 5551  -0.915   4.394   5.340  0.8432  4.0500  0.9751
  765MOL0     H 5552  -0.500   4.369   5.782  0.3165  1.7982 -0.9391
  765MOL0     H 5553  -0.253   4.377   5.720  2.5383  0.8852 -3.4019
  765MOL0     H 5554   0.365   3.361   5.676  1.0698  0.8648  0.5184
  765MOL0     H 5555   0.154   3.240   5.748 -1.2514  1.6252  1.6288
  765MOL0     H 5556  -0.062   3.051   6.007 -2.5891  0.3706  1.9038
  765MOL0     H 5557  -0.265   2.975   6.090 -0.7225 -0.5448  1.0389
  765MOL0     H 5558  -0.436   2.658   6.337  0.8399 -0.0274  0.3374
  765MOL0     H 5559  -0.377   2.553   6.219  0.2032 -0.2133 -0.2530
  765MOL0     H 5560  -0.167   2.698   6.384  0.2090 -0.0175 -1.3942
  765MOL0     H 5561  -0.157   2.532   6.342  1.0711  0.3518 -0.3898
  765MOL0     H 5562  -0.335   2.660   6.557 -0.3007  0.3348 -0.2061
  765MOL0     H 5563  -0.342   2.493   6.514  0.8145  0.1515  3.2894
  765MOL0     H 5564  -0.191   2.534   6.715  0.4908 -0.8276  0.5082
  765MOL0     H 5565  -0.077   2.615   6.624 -1.2737  1.0338  1.8228
  765MOL0     H 5566  -0.075   2.190   6.495  0.6685  1.0858 -2.6653
  765MOL0     H 5567  -0.093   2.572   6.121 -1.1397 -0.6598 -1.7822
  765MOL0     H 5568   0.218   2.621   6.057 -1.2136 -0.7177  2.2484
  765MOL0     H 5569   0.076   2.522   6.027  2.1031  0.0098  4.5676
  765MOL0     H 5570   0.153   2.623   5.900 -1.4450  2.0677 -0.7088
  766MOL0     O 5571   9.816   3.015   5.414 -0.4956  0.3707  0.3619
  766MOL0     C 5572   9.707   2.963   5.423  0.5388 -0.0693 -0.4113
  766MOL0     O 5573   9.660   2.857   5.348  0.1803  0.0400 -0.5160
  766MOL0     C 5574   9.744   2.780   5.279 -0.0776  0.5929  0.8106
  766MOL0     C 5575   9.739   2.778   5.139 -0.9989  0.1883  0.0319
  766MOL0     C 5576   9.822   2.676   5.077 -0.0425  0.9269  0.7342
  766MOL0     C 5577   9.906   2.585   5.153 -0.4287  0.5267  0.8654
  766MOL0     O 5578   9.993   2.488   5.103  0.4417  0.4421 -1.1474
  766MOL0     C 5579  10.075   2.542   4.996  0.5339  0.4188  0.7874
  766MOL0     C 5580  10.217   2.491   5.017 -0.5080  0.7721  0.2256
  766MOL0     C 5581  10.303   2.495   4.892  0.1055  0.3763  0.2831
  766MOL0     C 5582  10.303   2.626   4.824  0.7727 -0.2785 -0.2924
  766MOL0     C 5583  10.380   2.614   4.695  1.1123 -0.2995  0.1731
  766MOL0     C 5584  10.420   2.759   4.646  0.1410  0.6937 -0.3166
  766MOL0     C 5585  10.487   2.743   4.504  0.8510  0.4569 -0.0694
  766MOL0     C 5586  10.553   2.879   4.472  0.6032  0.9277 -0.4261
  766MOL0     N 5587  10.617   2.883   4.339  0.0190  0.0098  0.0845
  766MOL0     C 5588  10.699   2.787   4.285 -0.0893  0.1247 -0.0425
  766MOL0     C 5589  10.747   2.835   4.169  0.3158  0.1926  0.7464
  766MOL0     C 5590  10.834   2.765   4.065  0.5458 -0.5255 -0.4279
  766MOL0     C 5591  10.937   2.854   3.996 -0.0312  0.0990  0.7150
  766MOL0     C 5592  10.985   2.799   3.862 -0.8001 -0.0918  0.0429
  766MOL0     C 5593  11.115   2.871   3.822 -0.6054 -0.4401 -0.4720
  766MOL0     O 5594  11.223   2.804   3.883  0.0534 -0.3775  0.1569
  766MOL0     C 5595  11.351   2.847   3.870  0.7411 -0.1441  0.5659
  766MOL0     C 5596  11.389   2.954   3.791 -0.4280 -0.3045  0.2712
  766MOL0     C 5597  11.523   2.981   3.766  0.2359  0.7366  0.4391
  766MOL0     C 5598  11.557   3.095   3.670 -0.3835  0.4130 -0.0309
  766MOL0     C 5599  11.623   2.902   3.827 -0.4774 -0.9163  0.1256
  766MOL0     C 5600  11.776   2.932   3.809 -0.4342  0.0038 -0.9265
  766MOL0     O 5601  11.816   3.059   3.838 -0.4459  0.1248 -0.0897
  766MOL0     C 5602  11.949   3.079   3.817  0.1382 -0.1278  0.1075
  766MOL0     C 5603  12.024   3.126   3.932  0.5422 -0.2090  0.9010
  766MOL0     C 5604  12.162   3.142   3.918  0.2745  0.6552 -1.0216
  766MOL0     C 5605  12.217   3.136   3.791 -0.7908 -0.0512 -0.6234
  766MOL0     O 5606  12.348   3.175   3.754  0.0717  1.1783 -0.1841
  766MOL0     C 5607  12.435   3.235   3.858  0.4694  0.3701  0.3848
  766MOL0     C 5608  12.565   3.292   3.809 -0.0111  0.5700  0.8162
  766MOL0     C 5609  12.539   3.419   3.722 -0.8407 -0.0783 -0.5217
  766MOL0     C 5610  12.663   3.465   3.647 -0.9001 -0.6727  0.2054
  766MOL0     C 5611  12.658   3.619   3.619  0.1342  0.1201  0.4316
  766MOL0     C 5612  12.574   3.641   3.495 -0.0360  0.7394 -0.2451
  766MOL0     C 5613  12.580   3.788   3.465  0.2241  0.4652  0.3592
  766MOL0     C 5614  12.499   3.877   3.562  0.3432  0.2261  0.1326
  766MOL0    Cl 5615  12.326   3.866   3.518  0.3602 -0.0378  0.0902
  766MOL0     C 5616  12.145   3.100   3.684 -0.0863 -0.1506 -0.0850
  766MOL0     C 5617  12.004   3.075   3.692 -0.3608 -0.3065  0.8631
  766MOL0     O 5618  11.849   2.841   3.784  0.0921 -0.2033  0.3826
  766MOL0     C 5619  11.581   2.794   3.899  0.2352 -0.3184 -0.2402
  766MOL0     C 5620  11.453   2.765   3.920 -0.3565 -0.7232 -0.6985
  766MOL0     N 5621  10.690   2.963   4.157 -0.3488  0.3783 -0.4505
  766MOL0     N 5622  10.611   2.988   4.258  0.8888 -0.4797  0.9631
  766MOL0     C 5623   9.908   2.597   5.293  0.2400  0.7948 -0.0100
  766MOL0     C 5624   9.829   2.695   5.350 -0.8607  0.5804 -0.6108
  766MOL0     C 5625   9.604   3.032   5.515 -0.0206 -0.1512  0.5147
  766MOL0     C 5626   9.500   3.104   5.459 -0.3445 -0.5863 -0.3568
  766MOL0     C 5627   9.404   3.172   5.542 -0.7273 -0.9965 -0.1454
  766MOL0     C 5628   9.409   3.158   5.676  0.9083  0.2512  0.0492
  766MOL0     O 5629   9.314   3.216   5.765 -0.2959  0.7678  0.4536
  766MOL0     C 5630   9.246   3.334   5.725 -0.7886 -0.2464  0.1780
  766MOL0     C 5631   9.330   3.459   5.747 -0.1404  0.2649  0.3703
  766MOL0     C 5632   9.415   3.470   5.871  0.3915  0.3046  0.7888
  766MOL0     C 5633   9.348   3.445   6.003 -0.3192 -0.4125  0.3021
  766MOL0     C 5634   9.247   3.554   6.036 -0.5124  0.5213 -0.7161
  766MOL0     C 5635   9.167   3.638   6.056  0.3280  0.2889  0.5592
  766MOL0     C 5636   9.517   3.077   5.728  0.4195 -1.3202 -1.2066
  766MOL0     C 5637   9.616   3.019   5.655 -0.3505  0.3193  0.1008
  766MOL0     C 5638   9.720   2.941   5.712 -0.3021  0.4569  0.3444
  766MOL0     H 5639   9.680   2.839   5.072 -1.5121 -1.3039 -0.9212
  766MOL0     H 5640   9.828   2.660   4.969  2.2230 -1.2245  1.0871
  766MOL0     H 5641  10.076   2.652   4.994  3.4802  0.4752  0.7874
  766MOL0     H 5642  10.038   2.514   4.896  0.3976  0.1701  0.9073
  766MOL0     H 5643  10.262   2.547   5.099  1.4209 -0.8905  0.3830
  766MOL0     H 5644  10.211   2.384   5.040 -2.2062  0.4359 -1.5262
  766MOL0     H 5645  10.403   2.457   4.917 -0.2283  1.3545  3.5733
  766MOL0     H 5646  10.264   2.418   4.824 -0.1838  0.6913  0.0882
  766MOL0     H 5647  10.201   2.663   4.808  0.4542 -1.4245 -1.0806
  766MOL0     H 5648  10.361   2.697   4.883  2.4610  1.8456 -4.1174
  766MOL0     H 5649  10.332   2.562   4.612  2.5011 -0.8845 -0.2856
  766MOL0     H 5650  10.473   2.558   4.704  2.5660  2.1441  1.7197
  766MOL0     H 5651  10.334   2.823   4.625  1.0299  2.0196 -0.0056
  766MOL0     H 5652  10.493   2.807   4.712  0.3677  1.7810 -1.3391
  766MOL0     H 5653  10.424   2.731   4.416  3.6888  0.5316 -2.2723
  766MOL0     H 5654  10.549   2.653   4.510  0.0697  0.0029  2.0460
  766MOL0     H 5655  10.488   2.968   4.470 -1.3611 -0.4622 -1.1405
  766MOL0     H 5656  10.623   2.900   4.554 -0.1667  0.9752  0.2279
  766MOL0     H 5657  10.713   2.687   4.324 -4.1113 -0.7318 -0.3514
  766MOL0     H 5658  10.768   2.726   3.986 -1.6378 -0.3784  1.2274
  766MOL0     H 5659  10.890   2.684   4.113  0.8926  0.7882  1.4881
  766MOL0     H 5660  10.907   2.958   3.981  2.2183  0.8542  1.1356
  766MOL0     H 5661  11.025   2.855   4.061  1.8523  0.6361 -1.6845
  766MOL0     H 5662  11.002   2.693   3.884  3.8781  0.9420  2.8240
  766MOL0     H 5663  10.907   2.806   3.786 -1.6787 -0.5063  0.8883
  766MOL0     H 5664  11.135   2.862   3.715 -0.6240 -0.8608 -0.4389
  766MOL0     H 5665  11.107   2.973   3.860 -1.0729 -1.3272  1.9741
  766MOL0     H 5666  11.314   3.021   3.749 -0.1416  0.4536  0.9299
  766MOL0     H 5667  11.605   3.062   3.578 -2.5585 -0.9241 -0.7561
  766MOL0     H 5668  11.619   3.175   3.712 -1.1346 -0.4216  2.8949
  766MOL0     H 5669  11.469   3.150   3.634  1.7077  1.8514 -3.4342
  766MOL0     H 5670  11.980   3.121   4.031  1.9909 -1.8738  1.5210
  766MOL0     H 5671  12.234   3.145   4.000  0.2625 -0.8417 -0.9445
  766MOL0     H 5672  12.378   3.309   3.916 -0.3397 -0.0368  0.1293
  766MOL0     H 5673  12.459   3.155   3.929  2.4529 -0.6732 -1.3838
  766MOL0     H 5674  12.640   3.320   3.883 -3.7037 -0.2387  5.2863
  766MOL0     H 5675  12.608   3.211   3.750  3.7452  2.1114  1.1422
  766MOL0     H 5676  12.505   3.495   3.792 -3.9659 -0.2726 -1.6532
  766MOL0     H 5677  12.461   3.407   3.646 -0.4718  1.0800 -1.1141
  766MOL0     H 5678  12.689   3.403   3.561 -2.3617 -2.0319  0.6859
  766MOL0     H 5679  12.739   3.455   3.725 -1.2955  1.6965  0.9798
  766MOL0     H 5680  12.612   3.670   3.705 -0.8891 -1.5135  0.9113
  766MOL0     H 5681  12.758   3.658   3.599  0.0089 -0.1020 -0.7012
  766MOL0     H 5682  12.470   3.608   3.506 -0.2625 -0.3152 -4.2459
  766MOL0     H 5683  12.626   3.583   3.418  1.3979 -0.9158  1.8471
  766MOL0     H 5684  12.541   3.820   3.368 -0.4838  1.6700  1.0150
  766MOL0     H 5685  12.682   3.826   3.457  0.3176 -0.2410 -3.3389
  766MOL0     H 5686  12.544   3.975   3.539  2.8701 -1.3379 -2.2751
  766MOL0     H 5687  12.515   3.854   3.667  0.6536  1.8944  0.4806
  766MOL0     H 5688  12.192   3.109   3.586  0.8622  1.8983  0.5123
  766MOL0     H 5689  11.941   3.063   3.604 -2.0702  1.7442  1.7283
  766MOL0     H 5690  11.658   2.732   3.943  0.1081  0.5552  1.2373
  766MOL0     H 5691  11.401   2.680   3.962 -1.0703 -1.4263 -2.8838
  766MOL0     H 5692   9.985   2.535   5.339 -0.6920 -1.7093 -1.6073
  766MOL0     H 5693   9.831   2.694   5.459  1.2775 -0.8756 -0.6122
  766MOL0     H 5694   9.479   3.096   5.353  1.2092 -0.3832 -0.7085
  766MOL0     H 5695   9.328   3.234   5.494 -0.0809  1.2266  1.5548
  766MOL0     H 5696   9.200   3.340   5.626 -0.6096  0.9761  0.1558
  766MOL0     H 5697   9.162   3.339   5.795 -0.5074  3.0585  0.4396
  766MOL0     H 5698   9.266   3.545   5.728 -2.2804 -1.5384 -1.1039
  766MOL0     H 5699   9.407   3.464   5.670 -2.3003  0.4976 -1.8849
  766MOL0     H 5700   9.495   3.398   5.850  1.0938  0.7031  2.0038
  766MOL0     H 5701   9.452   3.572   5.859 -2.9491  1.4806 -0.9472
  766MOL0     H 5702   9.419   3.439   6.086  0.0006 -1.5027 -0.0330
  766MOL0     H 5703   9.288   3.355   6.022  2.8541 -2.6886  0.2969
  766MOL0     H 5704   9.088   3.709   6.066 -1.7253 -1.8394  0.3342
  766MOL0     H 5705   9.517   3.062   5.836  0.7675 -2.3111 -1.3286
  766MOL0     H 5706   9.724   2.839   5.672 -3.0844  0.3795  0.0090
  766MOL0     H 5707   9.816   2.991   5.698  0.7546 -1.0273  1.8863
  766MOL0     H 5708   9.704   2.934   5.820  0.3174 -0.7025  0.3842
  767MOL0     O 5709   7.163   2.037   0.410  0.1402 -0.4307  0.9865
  767MOL0     C 5710   7.164   2.097   0.300  0.1855  0.1613  0.0916
  767MOL0     O 5711   7.122   2.040   0.181 -0.6623  0.4217 -0.0883
  767MOL0     C 5712   7.081   1.909   0.186  0.0190 -0.1025  1.5593
  767MOL0     C 5713   6.955   1.880   0.156 -0.0001  0.7830 -1.3671
  767MOL0     C 5714   6.905   1.749   0.151  0.0222  0.2809  0.5362
  767MOL0     C 5715   6.994   1.641   0.164  0.0361 -0.0975 -0.1712
  767MOL0     O 5716   6.960   1.510   0.153  0.6768 -0.1643 -0.0416
  767MOL0     C 5717   6.822   1.471   0.154  0.1653  0.2781 -0.6601
  767MOL0     C 5718   6.797   1.330   0.209  0.2639 -0.1966  0.6789
  767MOL0     C 5719   6.649   1.289   0.237  1.7109 -0.4197 -0.3676
  767MOL0     C 5720   6.594   1.200   0.125 -0.0746 -0.4889  0.8969
  767MOL0     C 5721   6.579   1.283   0.001 -0.0447  0.2006 -0.4718
  767MOL0     C 5722   6.527   1.197  -0.114  1.4323  0.3161  0.2150
  767MOL0     C 5723   6.377   1.213  -0.146 -0.8633 -0.1051  0.0012
  767MOL0     C 5724   6.273   1.194  -0.039 -0.3320  0.4984  0.5081
  767MOL0     N 5725   6.136   1.208  -0.095  0.7106 -0.5453  0.3757
  767MOL0     C 5726   6.036   1.118  -0.073 -0.4611  0.3084 -0.9656
  767MOL0     C 5727   5.928   1.185  -0.127  0.5778  1.0224 -0.6929
  767MOL0     C 5728   5.785   1.133  -0.134  0.8324 -0.7097 -0.1122
  767MOL0     C 5729   5.683   1.249  -0.153 -0.2298  0.9799 -0.7094
  767MOL0     C 5730   5.545   1.185  -0.155 -1.3574  0.0812  0.5561
  767MOL0     C 5731   5.445   1.290  -0.147  0.9417  0.0306 -0.0495
  767MOL0     O 5732   5.308   1.238  -0.148  0.8702 -0.7077 -0.5847
  767MOL0     C 5733   5.216   1.341  -0.175 -0.5412  0.1709 -0.8625
  767MOL0     C 5734   5.230   1.479  -0.145 -0.0828 -1.2207 -0.0538
  767MOL0     C 5735   5.118   1.567  -0.160 -0.0860  0.2308  0.6173
  767MOL0     C 5736   5.138   1.712  -0.114 -0.3154  0.4529  0.1702
  767MOL0     C 5737   5.000   1.530  -0.231  0.2565 -0.0446 -0.8243
  767MOL0     C 5738   4.886   1.621  -0.259  1.1815  0.6241 -0.8748
  767MOL0     O 5739   4.919   1.746  -0.305 -0.2924  0.3502  0.1283
  767MOL0     C 5740   4.811   1.830  -0.310  0.1474  1.0519 -0.1633
  767MOL0     C 5741   4.823   1.945  -0.228 -0.1461 -0.2146 -0.5405
  767MOL0     C 5742   4.716   2.037  -0.220  0.3728 -0.0510  0.9716
  767MOL0     C 5743   4.605   2.023  -0.305 -0.2560 -0.6016 -0.2293
  767MOL0     O 5744   4.504   2.113  -0.293 -0.3380 -0.4945  0.2482
  767MOL0     C 5745   4.551   2.249  -0.317  0.6487  0.0515 -0.0417
  767MOL0     C 5746   4.420   2.336  -0.318 -0.5424 -0.2100 -0.1703
  767MOL0     C 5747   4.360   2.345  -0.177  0.4719 -0.4588  0.0628
  767MOL0     C 5748   4.432   2.432  -0.072  0.3490 -0.8204  0.5484
  767MOL0     C 5749   4.381   2.411   0.070  0.7546  0.3558  0.0239
  767MOL0     C 5750   4.439   2.534   0.163 -0.2132 -0.0061 -0.1463
  767MOL0     C 5751   4.452   2.491   0.310  1.0495 -0.9233  0.2099
  767MOL0     C 5752   4.547   2.591   0.377 -0.4341 -0.2797  0.1750
  767MOL0    Cl 5753   4.544   2.563   0.556 -0.5930  0.2912  0.0974
  767MOL0     C 5754   4.601   1.920  -0.394  0.4157  0.1089  0.2145
  767MOL0     C 5755   4.701   1.820  -0.399 -0.2742 -0.0047 -0.2481
  767MOL0     O 5756   4.780   1.564  -0.283  0.5120 -0.3493  0.3462
  767MOL0     C 5757   4.996   1.390  -0.270 -0.4469  0.3084 -0.1720
  767MOL0     C 5758   5.105   1.298  -0.239  1.1445  0.3318  0.2426
  767MOL0     N 5759   5.962   1.297  -0.184  0.2057  0.4803 -0.0370
  767MOL0     N 5760   6.091   1.313  -0.170  0.4707 -0.1352  1.1315
  767MOL0     C 5761   7.129   1.679   0.178  0.0546  0.7535  1.5304
  767MOL0     C 5762   7.178   1.811   0.189  0.0218 -0.3092  0.1481
  767MOL0     C 5763   7.218   2.236   0.291  0.4777  0.0331  0.0135
  767MOL0     C 5764   7.182   2.309   0.174 -0.4990 -0.0090 -0.8569
  767MOL0     C 5765   7.225   2.442   0.160  0.4230 -0.1128  0.4137
  767MOL0     C 5766   7.294   2.516   0.267  0.6134 -0.1905 -0.0049
  767MOL0     O 5767   7.324   2.652   0.268  0.4832  0.5327  0.0790
  767MOL0     C 5768   7.245   2.738   0.173 -0.5804  0.4348 -0.3272
  767MOL0     C 5769   7.093   2.749   0.174  0.1384  1.2024 -0.6418
  767MOL0     C 5770   7.026   2.755   0.312 -0.3011  0.5250  0.2544
  767MOL0     C 5771   6.880   2.802   0.315 -0.0744 -0.1943 -0.0775
  767MOL0     C 5772   6.873   2.952   0.276 -0.4726  0.1204  0.5330
  767MOL0     C 5773   6.861   3.073   0.253 -0.1361  0.1530 -0.9187
  767MOL0     C 5774   7.329   2.440   0.373 -0.0275  0.1953  0.4103
  767MOL0     C 5775   7.285   2.308   0.392 -0.2567 -0.2819  0.5871
  767MOL0     C 5776   7.332   2.245   0.528  0.0813 -0.2767 -0.2693
  767MOL0     H 5777   6.884   1.961   0.143  0.8818  1.4312 -2.2613
  767MOL0     H 5778   6.798   1.734   0.140  0.0974 -0.3638  0.6499
  767MOL0     H 5779   6.801   1.473   0.047 -1.4307  0.2753 -0.3693
  767MOL0     H 5780   6.747   1.532   0.203 -0.9757 -2.3331  1.0637
  767MOL0     H 5781   6.845   1.264   0.136 -0.1498 -1.1687  1.2542
  767MOL0     H 5782   6.845   1.326   0.307  0.1669 -0.9257  0.7073
  767MOL0     H 5783   6.644   1.236   0.333 -0.9100  1.9008  0.9284
  767MOL0     H 5784   6.575   1.369   0.246  0.7157 -1.4963  2.0134
  767MOL0     H 5785   6.655   1.113   0.098  2.9761  1.7533 -0.0114
  767MOL0     H 5786   6.490   1.177   0.151 -1.3183  0.9140 -2.3502
  767MOL0     H 5787   6.674   1.324  -0.037 -0.2306 -1.4917 -2.9683
  767MOL0     H 5788   6.505   1.362   0.018 -1.7284 -1.3818 -0.1185
  767MOL0     H 5789   6.587   1.210  -0.205 -1.1209 -4.0735 -2.4350
  767MOL0     H 5790   6.536   1.091  -0.088 -1.0948 -0.5215 -1.9011
  767MOL0     H 5791   6.354   1.142  -0.226 -0.4553  1.3160 -1.4361
  767MOL0     H 5792   6.370   1.314  -0.188 -4.9976 -0.8567 -1.6740
  767MOL0     H 5793   6.281   1.094   0.005 -0.6312 -0.1463 -0.8679
  767MOL0     H 5794   6.293   1.257   0.048 -0.1426  2.3497 -0.8365
  767MOL0     H 5795   6.041   1.029  -0.012 -1.8923 -0.8340 -2.4271
  767MOL0     H 5796   5.763   1.084  -0.038  4.9012  1.3255  2.1358
  767MOL0     H 5797   5.770   1.052  -0.206  1.3242 -2.2837  1.4758
  767MOL0     H 5798   5.690   1.317  -0.068  1.2070 -0.5018  0.4312
  767MOL0     H 5799   5.706   1.312  -0.239  0.9413 -0.0215 -1.1604
  767MOL0     H 5800   5.545   1.130  -0.250 -1.8624  0.0952  0.5451
  767MOL0     H 5801   5.543   1.119  -0.068 -0.1440  2.0179  2.1604
  767MOL0     H 5802   5.456   1.339  -0.051  1.6804  0.4309 -0.3388
  767MOL0     H 5803   5.460   1.358  -0.231 -2.1489  0.5282 -0.3081
  767MOL0     H 5804   5.321   1.494  -0.088 -1.4990 -3.0929  2.9802
  767MOL0     H 5805   5.132   1.776  -0.203 -1.2397  2.1095  1.3579
  767MOL0     H 5806   5.240   1.731  -0.079  0.4813 -1.9648 -0.6469
  767MOL0     H 5807   5.070   1.747  -0.036 -1.3784  1.2390 -1.0705
  767MOL0     H 5808   4.911   1.955  -0.165 -2.3934 -2.8552  3.4864
  767MOL0     H 5809   4.712   2.105  -0.135  0.7681 -0.4939  1.3462
  767MOL0     H 5810   4.621   2.284  -0.240  2.0931  0.7660 -1.5877
  767MOL0     H 5811   4.599   2.272  -0.413 -2.4372  3.0432 -1.0806
  767MOL0     H 5812   4.445   2.437  -0.353 -2.0359  1.1390  2.4098
  767MOL0     H 5813   4.349   2.290  -0.387 -0.8288 -1.0104  0.6551
  767MOL0     H 5814   4.355   2.244  -0.134 -1.8342 -0.0490  0.8800
  767MOL0     H 5815   4.255   2.376  -0.184 -0.1984 -2.0990  1.6940
  767MOL0     H 5816   4.418   2.539  -0.092  1.2557  0.5883  5.7776
  767MOL0     H 5817   4.539   2.407  -0.071  0.8175  0.7444 -1.7203
  767MOL0     H 5818   4.271   2.410   0.076  0.4855 -1.0517 -3.2215
  767MOL0     H 5819   4.421   2.315   0.104 -2.0618 -1.5324 -1.5819
  767MOL0     H 5820   4.385   2.628   0.154  0.7726  0.8515  2.1577
  767MOL0     H 5821   4.543   2.552   0.136 -0.2425 -0.7625 -0.7800
  767MOL0     H 5822   4.487   2.387   0.317  1.1042 -1.0523 -1.6646
  767MOL0     H 5823   4.357   2.509   0.362  2.6736  1.3931  2.6092
  767MOL0     H 5824   4.512   2.694   0.367  0.3470 -0.0711 -0.4731
  767MOL0     H 5825   4.644   2.571   0.332 -0.9060 -3.0391  0.1593
  767MOL0     H 5826   4.520   1.897  -0.463 -0.6976  1.1735  1.1303
  767MOL0     H 5827   4.705   1.744  -0.476  3.1577  2.0305 -2.3673
  767MOL0     H 5828   4.910   1.349  -0.322  0.9391 -2.7575 -0.2952
  767MOL0     H 5829   5.097   1.195  -0.273 -0.2088  0.2693  0.6916
  767MOL0     H 5830   7.198   1.598   0.159 -1.1540  0.3057 -1.7266
  767MOL0     H 5831   7.282   1.841   0.188  0.2567 -1.0534 -1.7169
  767MOL0     H 5832   7.115   2.275   0.096 -2.7953  1.9079  0.1537
  767MOL0     H 5833   7.192   2.488   0.068 -2.1885 -3.7547 -0.7098
  767MOL0     H 5834   7.290   2.836   0.189 -1.1765  0.4163  1.7105
  767MOL0     H 5835   7.289   2.713   0.076  3.7680  1.6234  1.1132
  767MOL0     H 5836   7.043   2.677   0.108 -0.1519  1.9123 -1.2151
  767MOL0     H 5837   7.062   2.839   0.120 -1.2070  2.0668  1.4467
  767MOL0     H 5838   7.027   2.661   0.369  2.3387  0.3995  0.1273
  767MOL0     H 5839   7.079   2.833   0.368 -1.1027  0.0013  1.7836
  767MOL0     H 5840   6.838   2.791   0.415  1.3203  0.0010  0.5539
  767MOL0     H 5841   6.813   2.739   0.256  1.2766 -0.4996 -1.3526
  767MOL0     H 5842   6.862   3.178   0.235  0.4986  0.0379 -1.5907
  767MOL0     H 5843   7.396   2.485   0.446 -0.6008 -0.2914  1.2530
  767MOL0     H 5844   7.399   2.315   0.580  0.9718  1.6575 -3.6953
  767MOL0     H 5845   7.250   2.220   0.596  0.4006  1.4026  0.7969
  767MOL0     H 5846   7.389   2.153   0.510 -0.4771 -0.6486 -0.1751
  768MOL0     O 5847   7.070   6.616   2.304  0.5940  0.0782 -0.2351
  768MOL0     C 5848   7.076   6.632   2.182  0.6710 -0.0384 -1.4205
  768MOL0     O 5849   7.120   6.759   2.137  0.0757 -0.8952 -0.5707
  768MOL0     C 5850   7.115   6.784   2.005  0.5359  0.0149 -0.2222
  768MOL0     C 5851   7.231   6.814   1.921  0.7677 -0.0034  0.4635
  768MOL0     C 5852   7.216   6.859   1.794  0.2253  0.4483 -0.2487
  768MOL0     C 5853   7.086   6.882   1.739 -1.8914 -0.2617 -0.1637
  768MOL0     O 5854   7.065   6.960   1.622  0.2461 -0.4201 -0.6967
  768MOL0     C 5855   7.182   6.982   1.532  0.7073  0.4469 -0.0381
  768MOL0     C 5856   7.131   7.070   1.432  0.4811 -0.6211 -0.2882
  768MOL0     C 5857   7.151   7.214   1.488  0.0077  0.3676  0.2676
  768MOL0     C 5858   7.291   7.275   1.463  0.6642  0.1225  0.2872
  768MOL0     C 5859   7.285   7.423   1.488  0.2427 -0.4448  0.1441
  768MOL0     C 5860   7.421   7.484   1.453 -0.1909  0.6722 -0.6004
  768MOL0     C 5861   7.431   7.572   1.334 -0.0139 -0.3954  0.9168
  768MOL0     C 5862   7.562   7.539   1.259 -0.6270 -0.6139 -0.9570
  768MOL0     N 5863   7.671   7.631   1.292 -0.8500  0.5341  0.5291
  768MOL0     C 5864   7.672   7.766   1.265 -1.0507  0.9149 -0.3237
  768MOL0     C 5865   7.790   7.810   1.309  0.1981  0.1880  0.3995
  768MOL0     C 5866   7.853   7.946   1.289 -0.2294 -0.2837 -0.4218
  768MOL0     C 5867   7.939   7.946   1.152 -0.5604  0.4716 -1.0106
  768MOL0     C 5868   8.002   8.081   1.109  0.1276  0.1202 -0.8251
  768MOL0     C 5869   8.093   8.137   1.227 -0.1829  0.5261 -0.8490
  768MOL0     O 5870   8.162   8.250   1.202 -0.5766  0.2775 -1.0227
  768MOL0     C 5871   8.222   8.293   1.320  0.8550 -1.0955  0.6171
  768MOL0     C 5872   8.353   8.272   1.342 -0.6344  0.1302 -0.5022
  768MOL0     C 5873   8.417   8.310   1.465 -0.1229  0.6559 -0.1466
  768MOL0     C 5874   8.555   8.255   1.491 -0.6192  0.6882 -0.8285
  768MOL0     C 5875   8.339   8.382   1.561 -0.4828 -0.2959  0.3662
  768MOL0     C 5876   8.389   8.433   1.692 -0.0093  0.0404 -0.4055
  768MOL0     O 5877   8.336   8.545   1.737  0.1823 -0.2828 -0.1477
  768MOL0     C 5878   8.361   8.599   1.861 -0.3670  0.6543 -0.3569
  768MOL0     C 5879   8.357   8.537   1.989  0.6817 -0.0512  0.0115
  768MOL0     C 5880   8.341   8.600   2.107  0.8261 -0.1488 -0.5169
  768MOL0     C 5881   8.336   8.735   2.119 -0.3975  0.4704 -0.5204
  768MOL0     O 5882   8.329   8.792   2.249 -0.3070  0.2480  0.4079
  768MOL0     C 5883   8.247   8.903   2.265  0.4455  0.5877  0.0509
  768MOL0     C 5884   8.093   8.891   2.230 -0.3103 -0.2372  1.3712
  768MOL0     C 5885   8.010   8.821   2.336  0.0933  0.2942 -0.0614
  768MOL0     C 5886   7.863   8.853   2.320  0.2349  0.1314 -0.5687
  768MOL0     C 5887   7.772   8.804   2.428 -0.3145 -1.0113 -0.4553
  768MOL0     C 5888   7.817   8.860   2.561  0.4670  0.6407 -0.2955
  768MOL0     C 5889   7.821   9.005   2.589 -1.0116 -0.0027  0.7462
  768MOL0     C 5890   7.690   9.068   2.624  0.0503 -0.0393  0.8900
  768MOL0    Cl 5891   7.606   8.979   2.759 -0.5730  0.7317 -0.1872
  768MOL0     C 5892   8.347   8.805   1.994 -0.1457 -0.1645  0.8158
  768MOL0     C 5893   8.353   8.734   1.866 -0.0017 -0.2651 -0.1283
  768MOL0     O 5894   8.468   8.362   1.763  0.1530  0.0528  0.7560
  768MOL0     C 5895   8.199   8.391   1.543  0.2358 -0.6554  0.8687
  768MOL0     C 5896   8.142   8.347   1.423 -0.2417 -0.0414  1.2619
  768MOL0     N 5897   7.856   7.709   1.374  0.2533  0.2846  0.4226
  768MOL0     N 5898   7.782   7.605   1.365 -0.8706  0.6342  0.7354
  768MOL0     C 5899   6.974   6.866   1.820 -0.1002 -0.0507 -0.5248
  768MOL0     C 5900   6.989   6.801   1.947  0.4705 -1.4114  0.5312
  768MOL0     C 5901   7.038   6.518   2.096 -0.1384  0.4477 -0.8826
  768MOL0     C 5902   7.140   6.455   2.035 -0.3462  0.7939  1.4313
  768MOL0     C 5903   7.120   6.349   1.940 -0.5226 -0.2571  0.4453
  768MOL0     C 5904   6.995   6.297   1.928  0.5122 -0.9127  0.0664
  768MOL0     O 5905   6.960   6.187   1.851  0.1040  0.1665 -0.2012
  768MOL0     C 5906   6.978   6.200   1.704 -0.4030  0.0261 -0.5525
  768MOL0     C 5907   7.035   6.068   1.655 -0.8202  0.5135  0.1708
  768MOL0     C 5908   6.979   5.947   1.722 -0.2831  0.5045  0.3219
  768MOL0     C 5909   6.999   5.822   1.647  0.0399  1.5700  0.9316
  768MOL0     C 5910   6.923   5.819   1.521 -0.8659  0.0366 -0.2837
  768MOL0     C 5911   6.840   5.806   1.430 -1.9538 -0.6633 -0.4200
  768MOL0     C 5912   6.887   6.360   1.993 -0.1472  0.2595  0.1934
  768MOL0     C 5913   6.907   6.470   2.075 -0.9160 -0.5574 -0.3431
  768MOL0     C 5914   6.804   6.516   2.180 -0.6158 -0.0350 -0.5213
  768MOL0     H 5915   7.332   6.812   1.961  0.8751  3.5913  0.7645
  768MOL0     H 5916   7.311   6.887   1.748 -0.0243  3.0929  0.6953
  768MOL0     H 5917   7.218   6.885   1.495  0.3109  0.7979 -1.4151
  768MOL0     H 5918   7.268   7.021   1.587 -0.5383  1.7907  1.0404
  768MOL0     H 5919   7.186   7.039   1.343  2.0333 -1.2382  0.8274
  768MOL0     H 5920   7.029   7.049   1.401  0.5856 -2.1779  0.2939
  768MOL0     H 5921   7.075   7.281   1.448 -0.2784  0.0313  0.2490
  768MOL0     H 5922   7.137   7.215   1.597  4.0091  0.5132  0.9646
  768MOL0     H 5923   7.370   7.227   1.521  1.0795  0.6358  0.1546
  768MOL0     H 5924   7.314   7.249   1.359  0.0350 -2.1363  0.6578
  768MOL0     H 5925   7.258   7.453   1.590 -2.6322 -1.4458 -0.2310
  768MOL0     H 5926   7.216   7.473   1.419  1.3793  2.8598  1.2085
  768MOL0     H 5927   7.456   7.543   1.539 -1.4148 -0.7392  0.9249
  768MOL0     H 5928   7.489   7.399   1.445 -0.9195 -0.0395  0.4841
  768MOL0     H 5929   7.413   7.676   1.361 -3.1395 -0.5958 -0.0016
  768MOL0     H 5930   7.349   7.545   1.267  0.3285  1.2739 -0.2301
  768MOL0     H 5931   7.601   7.442   1.292  0.5067  0.6129  1.5894
  768MOL0     H 5932   7.558   7.535   1.150  0.9821  0.0539 -1.0718
  768MOL0     H 5933   7.588   7.819   1.221 -1.4407  1.9410  1.5641
  768MOL0     H 5934   7.914   7.984   1.372  2.3216  0.5557 -2.5125
  768MOL0     H 5935   7.772   8.017   1.273 -1.0862 -0.9230  0.9007
  768MOL0     H 5936   8.013   7.866   1.143 -1.4764 -0.3235 -1.7026
  768MOL0     H 5937   7.862   7.921   1.078 -0.9984  1.7828 -1.0328
  768MOL0     H 5938   8.069   8.079   1.022  2.9088  1.9573  1.0823
  768MOL0     H 5939   7.923   8.156   1.101 -1.6363 -1.3432  1.4529
  768MOL0     H 5940   8.020   8.158   1.305 -0.6450 -2.2369 -0.4356
  768MOL0     H 5941   8.160   8.058   1.262  0.6929  1.7027  0.2283
  768MOL0     H 5942   8.422   8.227   1.271  2.7152 -0.3837  2.7311
  768MOL0     H 5943   8.538   8.182   1.571 -1.9485  1.2986 -0.5259
  768MOL0     H 5944   8.629   8.325   1.532  1.3889 -1.4849 -0.5666
  768MOL0     H 5945   8.599   8.212   1.401 -0.3123  0.8329 -0.7520
  768MOL0     H 5946   8.367   8.429   1.977  2.5040  0.3027 -2.4514
  768MOL0     H 5947   8.322   8.553   2.203  4.3271  2.2839  1.5973
  768MOL0     H 5948   8.253   8.938   2.369 -1.4728 -1.2139  0.8307
  768MOL0     H 5949   8.286   8.985   2.204 -0.4095 -0.0014 -1.3500
  768MOL0     H 5950   8.054   8.990   2.203  1.5348  0.6033  1.6103
  768MOL0     H 5951   8.080   8.840   2.134 -0.7176  2.8498 -0.3474
  768MOL0     H 5952   8.037   8.854   2.437 -1.8418 -2.1936  1.4041
  768MOL0     H 5953   8.025   8.712   2.339  0.2108  0.2119 -2.0699
  768MOL0     H 5954   7.817   8.813   2.229 -2.1837  1.2463  0.0991
  768MOL0     H 5955   7.840   8.959   2.308 -1.7653 -0.4791 -2.7451
  768MOL0     H 5956   7.666   8.829   2.420  0.1713  0.8799 -1.4783
  768MOL0     H 5957   7.780   8.695   2.430 -1.5879 -1.1230  1.6911
  768MOL0     H 5958   7.914   8.815   2.581  0.5269  0.6075 -0.6614
  768MOL0     H 5959   7.755   8.822   2.643  1.4783  0.3669  0.3607
  768MOL0     H 5960   7.855   9.048   2.494 -0.8058  0.7213  1.1421
  768MOL0     H 5961   7.896   9.036   2.662 -0.7974 -2.4046  1.6575
  768MOL0     H 5962   7.620   9.072   2.540 -1.2779  1.9755  2.0018
  768MOL0     H 5963   7.700   9.173   2.653  0.3640  0.5133 -1.0403
  768MOL0     H 5964   8.323   8.910   1.997  0.7157  0.0899 -0.4677
  768MOL0     H 5965   8.345   8.796   1.777 -0.0931 -0.2383 -0.1016
  768MOL0     H 5966   8.144   8.437   1.624 -4.6815 -0.4503 -2.2145
  768MOL0     H 5967   8.034   8.339   1.418 -0.6996  3.7952  1.3851
  768MOL0     H 5968   6.876   6.885   1.777 -0.9375 -0.2757  1.1876
  768MOL0     H 5969   6.896   6.786   2.001 -0.8496  2.2168 -0.4491
  768MOL0     H 5970   7.244   6.471   2.063  0.7540  0.4312 -1.9560
  768MOL0     H 5971   7.204   6.293   1.899 -1.1964 -1.2557  0.3852
  768MOL0     H 5972   6.877   6.207   1.663 -0.1351 -3.5879 -2.2831
  768MOL0     H 5973   7.046   6.281   1.677  2.7422 -0.9984  3.3653
  768MOL0     H 5974   7.144   6.070   1.641 -0.7198 -0.7399  0.6136
  768MOL0     H 5975   6.997   6.070   1.553 -0.5436  1.3958  0.0774
  768MOL0     H 5976   7.035   5.935   1.815  1.3899  0.9428 -0.5969
  768MOL0     H 5977   6.873   5.965   1.746 -0.6714  0.4097 -1.2198
  768MOL0     H 5978   6.955   5.741   1.707  1.0465 -2.3963 -3.1507
  768MOL0     H 5979   7.105   5.803   1.633 -0.3196 -1.5067  1.5975
  768MOL0     H 5980   6.769   5.804   1.350 -1.0438  2.2315 -1.4277
  768MOL0     H 5981   6.795   6.304   2.011  1.7674 -2.4345  2.5215
  768MOL0     H 5982   6.811   6.623   2.206  0.0143 -0.4196  1.0446
  768MOL0     H 5983   6.707   6.482   2.146 -0.1152 -1.3118 -0.7053
  768MOL0     H 5984   6.800   6.463   2.276 -1.3215 -0.5346 -0.8252
  769MOL0     O 5985   1.413   2.149   5.481  0.0095  0.1469 -0.1020
  769MOL0     C 5986   1.456   2.205   5.582 -0.1809  0.3735 -0.3886
  769MOL0     O 5987   1.526   2.311   5.587  0.6847 -0.1806 -0.2571
  769MOL0     C 5988   1.517   2.405   5.486 -0.1900  0.6293 -0.5994
  769MOL0     C 5989   1.417   2.415   5.386  0.8707 -0.1838 -0.0844
  769MOL0     C 5990   1.423   2.510   5.285  0.3756 -0.1188 -0.6604
  769MOL0     C 5991   1.540   2.582   5.272 -0.2717  0.7407  0.3650
  769MOL0     O 5992   1.563   2.668   5.171  0.4702  0.1595 -0.5413
  769MOL0     C 5993   1.609   2.807   5.191  0.0868  0.1366 -0.2908
  769MOL0     C 5994   1.593   2.888   5.060  0.1775 -0.4933  0.5859
  769MOL0     C 5995   1.454   2.859   4.990  0.2363  0.8467 -0.3820
  769MOL0     C 5996   1.347   2.939   5.066 -0.6128 -0.4869 -1.1045
  769MOL0     C 5997   1.273   3.044   4.984  0.4314  0.2618 -0.0412
  769MOL0     C 5998   1.128   3.054   5.029  0.4448 -0.3551  0.2272
  769MOL0     C 5999   1.056   3.129   4.913  0.3932  0.9869  0.1702
  769MOL0     C 6000   0.917   3.170   4.976 -0.7452 -0.0956  0.1278
  769MOL0     N 6001   0.858   3.274   4.894 -0.0585 -0.1366 -1.3706
  769MOL0     C 6002   0.743   3.257   4.820 -1.5045 -0.1534  0.6095
  769MOL0     C 6003   0.736   3.368   4.741 -0.3479 -0.5446  0.4908
  769MOL0     C 6004   0.623   3.400   4.645 -0.5486 -0.5686 -0.1378
  769MOL0     C 6005   0.596   3.552   4.661 -0.1565  0.1073  0.0739
  769MOL0     C 6006   0.465   3.594   4.598  0.0067 -0.8198  0.5062
  769MOL0     C 6007   0.431   3.742   4.623 -1.0436  0.0415  0.5419
  769MOL0     O 6008   0.545   3.825   4.612  0.0217  0.5626 -0.0131
  769MOL0     C 6009   0.535   3.969   4.610  0.5629 -0.2316 -0.2720
  769MOL0     C 6010   0.429   4.042   4.656  0.0836  0.3920 -0.6933
  769MOL0     C 6011   0.424   4.184   4.653 -0.3732 -0.7159 -0.5356
  769MOL0     C 6012   0.299   4.265   4.702  0.1620  0.5193  0.6800
  769MOL0     C 6013   0.543   4.251   4.617  0.9081  0.0300  0.5845
  769MOL0     C 6014   0.569   4.396   4.635 -0.3425 -0.1896 -0.3184
  769MOL0     O 6015   0.701   4.422   4.633 -0.1311 -0.7381  0.9925
  769MOL0     C 6016   0.734   4.551   4.619 -0.0540  0.0189 -0.4877
  769MOL0     C 6017   0.690   4.651   4.705 -0.1124 -0.6477 -0.5491
  769MOL0     C 6018   0.767   4.770   4.713 -0.7671  0.4145 -0.2184
  769MOL0     C 6019   0.865   4.798   4.622  0.4103  0.0544 -0.6346
  769MOL0     O 6020   0.944   4.910   4.626  0.6941  0.4011  0.1659
  769MOL0     C 6021   0.923   5.005   4.731 -0.2656  0.0181 -0.9917
  769MOL0     C 6022   1.034   5.101   4.731  0.2093  0.9446  1.1406
  769MOL0     C 6023   1.035   5.202   4.844 -0.4583 -0.5802 -0.0084
  769MOL0     C 6024   1.169   5.276   4.868  0.0202  0.5423 -0.1191
  769MOL0     C 6025   1.299   5.181   4.847  0.2013 -0.3627  0.0759
  769MOL0     C 6026   1.343   5.191   4.704  0.7274 -0.5545  0.1071
  769MOL0     C 6027   1.437   5.079   4.666  0.5517 -0.5367 -0.8701
  769MOL0     C 6028   1.502   5.102   4.537 -0.4188  0.1637 -1.1061
  769MOL0    Cl 6029   1.385   5.138   4.405 -0.0907  0.1311 -0.0811
  769MOL0     C 6030   0.884   4.708   4.519 -0.0111  0.5372 -0.0836
  769MOL0     C 6031   0.828   4.581   4.524 -0.2753 -0.3998 -0.3801
  769MOL0     O 6032   0.481   4.479   4.640 -0.3160  0.2772  0.0947
  769MOL0     C 6033   0.656   4.175   4.580 -0.4152  0.0626 -0.4075
  769MOL0     C 6034   0.645   4.038   4.575 -1.0960 -0.7773 -0.9174
  769MOL0     N 6035   0.835   3.454   4.786 -0.6877 -0.1879 -0.4264
  769MOL0     N 6036   0.915   3.393   4.878  1.2038  0.0159  1.8702
  769MOL0     C 6037   1.637   2.574   5.369 -1.4019  0.4603 -1.2627
  769MOL0     C 6038   1.625   2.488   5.476 -0.5426  0.7201  0.3435
  769MOL0     C 6039   1.445   2.150   5.720  0.3997 -0.4341 -0.0426
  769MOL0     C 6040   1.316   2.107   5.773 -0.6375 -0.8743  0.0589
  769MOL0     C 6041   1.307   2.047   5.905  0.6095  0.0854 -0.0342
  769MOL0     C 6042   1.418   2.025   5.985  0.3854  0.4109  0.1154
  769MOL0     O 6043   1.409   1.966   6.103 -0.0913 -0.3248  0.0694
  769MOL0     C 6044   1.478   1.995   6.216 -0.0611  0.8175  0.3523
  769MOL0     C 6045   1.461   2.136   6.262  0.4759 -0.3167  0.2453
  769MOL0     C 6046   1.486   2.155   6.404 -0.4204 -0.4450 -0.5333
  769MOL0     C 6047   1.423   2.289   6.457 -0.4092 -1.2126 -0.2830
  769MOL0     C 6048   1.470   2.415   6.394 -0.4799 -0.6571 -0.2902
  769MOL0     C 6049   1.508   2.506   6.325 -0.5112 -0.4187 -0.0000
  769MOL0     C 6050   1.542   2.067   5.929 -0.7107 -0.0208 -0.1533
  769MOL0     C 6051   1.563   2.133   5.803  0.0757  0.5559  0.2860
  769MOL0     C 6052   1.705   2.161   5.743  0.0782  0.4100 -0.3118
  769MOL0     H 6053   1.334   2.346   5.383  2.3747 -2.4108  3.1561
  769MOL0     H 6054   1.349   2.509   5.206 -1.0329 -0.1395  0.6164
  769MOL0     H 6055   1.713   2.813   5.225  0.3415 -3.3547 -0.0710
  769MOL0     H 6056   1.556   2.855   5.274  1.4232 -1.2611  1.4613
  769MOL0     H 6057   1.604   2.990   5.099  2.4541 -1.3815  2.5352
  769MOL0     H 6058   1.670   2.876   4.984 -1.1205  1.1448 -1.0877
  769MOL0     H 6059   1.478   2.891   4.888  0.4884  1.7336 -0.0591
  769MOL0     H 6060   1.433   2.752   4.994 -1.3056  1.1183 -0.6661
  769MOL0     H 6061   1.273   2.865   5.100 -1.4011  1.0708  0.7556
  769MOL0     H 6062   1.391   2.989   5.153  0.5310 -0.5472 -1.6364
  769MOL0     H 6063   1.284   3.029   4.876  0.0347 -1.2313  0.1029
  769MOL0     H 6064   1.317   3.141   5.009 -0.1020  0.3988  0.3904
  769MOL0     H 6065   1.078   2.957   5.034  0.6422 -0.3865  2.1739
  769MOL0     H 6066   1.109   3.095   5.128 -1.1707 -1.9819  0.6333
  769MOL0     H 6067   1.046   3.066   4.823  3.3786  0.9666 -0.2530
  769MOL0     H 6068   1.112   3.212   4.870  2.6452 -0.8846 -0.7565
  769MOL0     H 6069   0.848   3.086   4.965 -3.8041  1.9658  2.1301
  769MOL0     H 6070   0.925   3.208   5.079 -1.9069  0.4841  0.0235
  769MOL0     H 6071   0.672   3.175   4.826  0.0014 -1.6828 -1.1872
  769MOL0     H 6072   0.531   3.341   4.642 -3.0915  3.0895 -0.8214
  769MOL0     H 6073   0.666   3.389   4.545 -1.9885  1.2717 -1.0413
  769MOL0     H 6074   0.593   3.591   4.763 -1.7844  1.8049 -0.5479
  769MOL0     H 6075   0.679   3.608   4.616  2.3372 -0.5001  3.5200
  769MOL0     H 6076   0.471   3.568   4.491  1.8198  0.9099  0.1351
  769MOL0     H 6077   0.383   3.533   4.637  1.2919 -3.0605 -0.0856
  769MOL0     H 6078   0.355   3.785   4.557 -0.8436  3.5484  2.3680
  769MOL0     H 6079   0.391   3.741   4.725 -1.9273 -1.5477  0.2018
  769MOL0     H 6080   0.343   3.984   4.689 -0.2647  0.0812 -2.0545
  769MOL0     H 6081   0.321   4.320   4.794  0.1028  0.1751  0.9003
  769MOL0     H 6082   0.206   4.208   4.703 -1.2388  2.5736 -1.3457
  769MOL0     H 6083   0.282   4.354   4.641  1.6298 -0.6472 -1.5573
  769MOL0     H 6084   0.610   4.628   4.774 -1.3437 -0.2243 -1.7990
  769MOL0     H 6085   0.743   4.837   4.795 -2.3054  0.6391 -0.8169
  769MOL0     H 6086   0.827   5.057   4.734 -0.4500 -0.1443  3.5574
  769MOL0     H 6087   0.921   4.946   4.823 -3.0004 -3.5463 -3.0954
  769MOL0     H 6088   1.129   5.047   4.725 -0.7780 -1.0235  2.3843
  769MOL0     H 6089   1.039   5.145   4.631  0.1001 -0.7882  0.3383
  769MOL0     H 6090   1.003   5.149   4.935 -0.2951 -1.1100 -0.2627
  769MOL0     H 6091   0.955   5.272   4.818  0.8361  0.9469 -0.0115
  769MOL0     H 6092   1.152   5.310   4.970 -2.2063  4.5293 -1.5963
  769MOL0     H 6093   1.184   5.368   4.811  0.2322 -0.3394 -1.5353
  769MOL0     H 6094   1.377   5.228   4.907 -0.0677  0.3869 -0.1515
  769MOL0     H 6095   1.280   5.078   4.880 -1.4978 -0.9807 -2.5173
  769MOL0     H 6096   1.396   5.284   4.682 -2.0557  0.8683 -1.1409
  769MOL0     H 6097   1.258   5.179   4.636  0.1539 -1.8522  1.0082
  769MOL0     H 6098   1.387   4.981   4.671 -2.2008  0.8367  1.4649
  769MOL0     H 6099   1.514   5.076   4.744  0.3872 -0.1947 -0.6950
  769MOL0     H 6100   1.559   5.013   4.509 -3.6750 -2.1073 -0.9620
  769MOL0     H 6101   1.563   5.190   4.560 -0.7395 -0.2938  1.8088
  769MOL0     H 6102   0.959   4.732   4.444  0.3447 -0.3533 -0.0190
  769MOL0     H 6103   0.875   4.506   4.461  1.3397 -0.6664  1.0642
  769MOL0     H 6104   0.753   4.221   4.565 -0.4766  0.3262 -0.0149
  769MOL0     H 6105   0.734   3.980   4.553 -0.3224  0.6108 -1.6399
  769MOL0     H 6106   1.733   2.623   5.362 -1.8583  1.3867 -1.1419
  769MOL0     H 6107   1.712   2.483   5.542  0.6592 -0.7841 -1.2458
  769MOL0     H 6108   1.225   2.124   5.717  0.9561  0.8022 -2.2468
  769MOL0     H 6109   1.206   2.017   5.933  1.1494 -2.5673 -0.6054
  769MOL0     H 6110   1.423   1.933   6.289 -0.3391 -1.4552 -1.6517
  769MOL0     H 6111   1.579   1.959   6.195 -0.7638  0.0544 -2.0866
  769MOL0     H 6112   1.353   2.154   6.252  0.2530 -2.2671 -1.6140
  769MOL0     H 6113   1.523   2.199   6.198  2.9131 -1.5142  1.3012
  769MOL0     H 6114   1.461   2.066   6.461  3.1250 -2.1634 -1.3536
  769MOL0     H 6115   1.595   2.168   6.410 -0.0401 -2.1934 -2.4190
  769MOL0     H 6116   1.430   2.302   6.566 -0.4265  1.0406 -0.4935
  769MOL0     H 6117   1.315   2.292   6.440 -1.2660  3.0468  3.6604
  769MOL0     H 6118   1.547   2.586   6.265  0.1173 -2.0662 -1.9211
  769MOL0     H 6119   1.636   2.032   5.971  0.1452  1.4658 -0.7334
  769MOL0     H 6120   1.730   2.265   5.721  3.1897 -0.4134 -1.2541
  769MOL0     H 6121   1.780   2.122   5.814 -1.9222  0.9313  2.2298
  769MOL0     H 6122   1.721   2.104   5.651  0.1362 -1.7363  0.9588
  770MOL0     O 6123   2.221   2.802   1.091 -0.4191  0.5439 -0.1170
  770MOL0     C 6124   2.302   2.727   1.046  0.3552 -0.4155  0.3838
  770MOL0     O 6125   2.439   2.760   1.027 -0.0969  1.1125  0.0568
  770MOL0     C 6126   2.517   2.836   1.113 -0.2970  0.0719  0.2901
  770MOL0     C 6127   2.480   2.877   1.246  0.1344 -0.5670 -0.3704
  770MOL0     C 6128   2.574   2.935   1.335  0.2689  0.3802  0.0759
  770MOL0     C 6129   2.704   2.948   1.305 -0.0290  0.0556  0.5094
  770MOL0     O 6130   2.783   3.023   1.385 -0.2200 -0.5007  0.2937
  770MOL0     C 6131   2.870   2.944   1.467  0.2462 -0.6559  0.3789
  770MOL0     C 6132   2.960   3.007   1.579  0.8521 -0.4347 -0.3400
  770MOL0     C 6133   3.040   2.915   1.665 -0.3702  0.1952 -0.1152
  770MOL0     C 6134   3.125   3.018   1.741  0.3543  0.0305 -0.7703
  770MOL0     C 6135   3.224   2.930   1.823  0.0473  0.8352  1.2601
  770MOL0     C 6136   3.316   3.025   1.906 -0.2949  0.7891  0.9931
  770MOL0     C 6137   3.453   2.977   1.949 -0.1965  0.5172  1.1084
  770MOL0     C 6138   3.517   3.083   2.044 -0.0360  0.6922  0.0808
  770MOL0     N 6139   3.666   3.088   2.011  0.4296 -0.6482 -0.1992
  770MOL0     C 6140   3.771   3.042   2.084 -0.2327  0.6833  0.3402
  770MOL0     C 6141   3.886   3.060   2.015  0.1931 -1.0019  0.2164
  770MOL0     C 6142   4.027   3.002   2.058  1.1897  0.3851  0.5297
  770MOL0     C 6143   4.145   3.055   1.980  0.0785  0.5161  0.2988
  770MOL0     C 6144   4.225   2.946   1.905 -0.3334  0.6214  0.6010
  770MOL0     C 6145   4.347   3.016   1.839 -0.1411 -0.5407 -0.4689
  770MOL0     O 6146   4.393   2.967   1.714  0.4322  0.0181  0.6923
  770MOL0     C 6147   4.467   2.848   1.718  0.6466  0.2146 -0.4813
  770MOL0     C 6148   4.591   2.855   1.655  0.1677 -0.1485 -0.8771
  770MOL0     C 6149   4.684   2.756   1.670  0.1464 -0.1613 -0.2188
  770MOL0     C 6150   4.813   2.775   1.593 -0.6324  0.4459 -0.5320
  770MOL0     C 6151   4.654   2.649   1.758  0.1400 -0.2624 -0.3942
  770MOL0     C 6152   4.752   2.531   1.784 -0.5167  0.1668 -0.2752
  770MOL0     O 6153   4.716   2.432   1.874 -0.3006 -0.0566 -0.3059
  770MOL0     C 6154   4.805   2.335   1.918 -0.2970 -0.0211  0.5457
  770MOL0     C 6155   4.757   2.209   1.934  0.0598 -0.0900 -0.2995
  770MOL0     C 6156   4.827   2.104   1.976  0.0944  0.4305 -0.2263
  770MOL0     C 6157   4.967   2.121   2.008 -1.0418 -0.2278 -0.6616
  770MOL0     O 6158   5.046   2.021   2.060 -0.2987  0.0153 -0.1863
  770MOL0     C 6159   4.990   1.888   2.085 -0.8961 -1.5296 -0.3951
  770MOL0     C 6160   5.104   1.797   2.111 -0.6588  0.3460  0.2798
  770MOL0     C 6161   5.186   1.837   2.241 -0.4801 -0.3268  0.5538
  770MOL0     C 6162   5.322   1.765   2.259  0.0604  0.6792 -0.3425
  770MOL0     C 6163   5.384   1.817   2.385 -0.4789 -0.1318  0.5592
  770MOL0     C 6164   5.464   1.719   2.470  0.0287  0.4001 -0.3809
  770MOL0     C 6165   5.496   1.768   2.615 -0.1606  0.2434  0.7040
  770MOL0     C 6166   5.602   1.880   2.609  0.0784 -0.0596  0.0482
  770MOL0    Cl 6167   5.517   2.039   2.635 -0.3750  0.0876  0.3774
  770MOL0     C 6168   5.023   2.255   1.982 -0.1433  0.6037  1.1881
  770MOL0     C 6169   4.942   2.357   1.940 -0.4315  0.1193 -0.9312
  770MOL0     O 6170   4.851   2.526   1.715  0.5985  0.3322  0.1918
  770MOL0     C 6171   4.529   2.646   1.823  0.7205  0.0191 -0.6518
  770MOL0     C 6172   4.426   2.741   1.804 -0.0496 -0.4926  0.8530
  770MOL0     N 6173   3.847   3.125   1.904 -0.1470  0.2188 -0.5270
  770MOL0     N 6174   3.715   3.136   1.894 -0.9856  0.1603 -0.4691
  770MOL0     C 6175   2.745   2.906   1.174  0.7395 -0.1040 -0.3507
  770MOL0     C 6176   2.649   2.855   1.077 -0.5924 -0.0249 -1.0784
  770MOL0     C 6177   2.265   2.605   0.988 -0.8782 -0.2075  0.1396
  770MOL0     C 6178   2.336   2.566   0.871  0.1228 -0.0893  0.4524
  770MOL0     C 6179   2.287   2.469   0.782 -0.0407 -0.7511  0.2992
  770MOL0     C 6180   2.186   2.382   0.825 -0.1098 -0.3021  0.9766
  770MOL0     O 6181   2.134   2.287   0.741  1.0800  0.0410 -0.8588
  770MOL0     C 6182   2.122   2.158   0.816 -0.8700  0.5413 -0.3972
  770MOL0     C 6183   2.036   2.062   0.742 -0.8097  0.1730  0.7149
  770MOL0     C 6184   2.117   2.007   0.623 -0.5777  0.0134  0.6815
  770MOL0     C 6185   2.034   2.013   0.490  0.1713 -0.0665  0.2508
  770MOL0     C 6186   2.112   2.017   0.365  0.7726  0.2413 -0.6828
  770MOL0     C 6187   2.166   2.015   0.261  0.0003  0.6109  0.1979
  770MOL0     C 6188   2.125   2.411   0.955  0.5946 -0.1927  0.9052
  770MOL0     C 6189   2.163   2.519   1.034  1.1027 -0.0428  0.4501
  770MOL0     C 6190   2.083   2.551   1.155  0.6469 -0.0138 -0.4716
  770MOL0     H 6191   2.378   2.855   1.274  0.4597 -1.9864 -0.2123
  770MOL0     H 6192   2.526   2.989   1.416 -2.6597 -0.0982 -1.1870
  770MOL0     H 6193   2.932   2.879   1.404  2.3827 -0.3727  2.0501
  770MOL0     H 6194   2.812   2.874   1.528 -0.9308 -1.2179 -1.3104
  770MOL0     H 6195   3.021   3.085   1.531  1.0474  1.3256  2.5167
  770MOL0     H 6196   2.900   3.076   1.640  0.9412  0.7785 -1.5773
  770MOL0     H 6197   2.976   2.851   1.727  0.8650 -3.2072 -2.1025
  770MOL0     H 6198   3.100   2.850   1.601  2.3773  0.1038  2.3139
  770MOL0     H 6199   3.177   3.083   1.670  0.1389  0.9785 -0.0777
  770MOL0     H 6200   3.058   3.089   1.791 -1.1304  0.0186 -2.6527
  770MOL0     H 6201   3.287   2.885   1.747 -1.0737  0.5453  0.4757
  770MOL0     H 6202   3.160   2.861   1.879 -0.4689 -0.8936 -1.3207
  770MOL0     H 6203   3.345   3.109   1.842  3.3018  0.2267  1.6516
  770MOL0     H 6204   3.256   3.052   1.993 -0.4205  1.0906  0.8121
  770MOL0     H 6205   3.522   2.951   1.868  1.1885  3.2841  1.2578
  770MOL0     H 6206   3.446   2.882   2.003  4.6970 -0.2080  0.9009
  770MOL0     H 6207   3.467   3.180   2.040 -0.6842  0.3124 -1.7897
  770MOL0     H 6208   3.516   3.039   2.145 -1.0077 -0.1701 -0.2867
  770MOL0     H 6209   3.758   2.995   2.180  0.9104  2.2296  1.3006
  770MOL0     H 6210   4.015   2.893   2.054  2.3983  0.1936  1.5238
  770MOL0     H 6211   4.044   3.019   2.165  1.1237  6.6375 -0.0851
  770MOL0     H 6212   4.116   3.138   1.915 -4.2482 -0.3399  0.8581
  770MOL0     H 6213   4.208   3.101   2.057 -0.2857  3.9326 -1.2273
  770MOL0     H 6214   4.240   2.860   1.971  1.1898 -0.1670 -0.7076
  770MOL0     H 6215   4.162   2.913   1.821 -1.7218  0.5835  1.6176
  770MOL0     H 6216   4.328   3.120   1.811  1.7681 -0.5848 -2.1654
  770MOL0     H 6217   4.432   3.023   1.908 -0.6944  3.7709  0.0057
  770MOL0     H 6218   4.614   2.939   1.591  0.5023  1.2909  1.0310
  770MOL0     H 6219   4.819   2.867   1.535 -3.8619  0.9862 -0.1566
  770MOL0     H 6220   4.840   2.702   1.515 -1.9393  0.8123 -1.3576
  770MOL0     H 6221   4.895   2.769   1.666 -1.7443 -1.4967  0.6371
  770MOL0     H 6222   4.654   2.203   1.900  0.9668  1.3783 -3.7047
  770MOL0     H 6223   4.768   2.014   1.991  1.1102 -0.0469  1.0561
  770MOL0     H 6224   4.927   1.891   2.174  0.0675  2.3818  0.3759
  770MOL0     H 6225   4.932   1.859   1.997 -1.1816  0.0860 -0.7791
  770MOL0     H 6226   5.065   1.695   2.122 -3.3296  1.5360  3.3206
  770MOL0     H 6227   5.169   1.807   2.024 -4.2190 -0.1835 -2.6498
  770MOL0     H 6228   5.134   1.826   2.336 -0.6150  2.7729  0.9428
  770MOL0     H 6229   5.203   1.945   2.248 -0.6442 -0.3433  1.2923
  770MOL0     H 6230   5.385   1.784   2.171  2.7740 -1.6974  0.9095
  770MOL0     H 6231   5.299   1.659   2.274 -0.4038  0.1884 -3.6621
  770MOL0     H 6232   5.446   1.904   2.363  1.1160 -1.4269 -0.3179
  770MOL0     H 6233   5.301   1.847   2.449 -2.1682 -0.6770 -1.2977
  770MOL0     H 6234   5.545   1.687   2.403 -0.0341 -1.5597  0.4029
  770MOL0     H 6235   5.397   1.633   2.483 -0.6450  0.9658 -0.0690
  770MOL0     H 6236   5.536   1.685   2.672 -0.2378 -0.3044 -0.0207
  770MOL0     H 6237   5.402   1.801   2.661 -0.5507  0.7844 -0.4268
  770MOL0     H 6238   5.654   1.884   2.513  0.4142 -1.5714  0.1439
  770MOL0     H 6239   5.674   1.872   2.692 -2.2905  0.9879  2.3549
  770MOL0     H 6240   5.127   2.273   2.007  0.2426  1.4371 -0.8485
  770MOL0     H 6241   4.987   2.455   1.936  0.7397 -0.0542  3.4985
  770MOL0     H 6242   4.510   2.570   1.899 -0.9863 -0.2930 -1.3310
  770MOL0     H 6243   4.343   2.748   1.874  0.3939  2.5163  1.2254
  770MOL0     H 6244   2.850   2.913   1.145  0.8839  0.2668  0.2373
  770MOL0     H 6245   2.682   2.824   0.979 -0.5410  0.0612 -1.0889
  770MOL0     H 6246   2.419   2.623   0.829 -1.6191  0.4043 -2.6525
  770MOL0     H 6247   2.335   2.448   0.687 -1.1036 -1.0148 -0.2008
  770MOL0     H 6248   2.220   2.116   0.836 -2.3788 -3.1478  0.0447
  770MOL0     H 6249   2.081   2.172   0.916  1.3391  0.7282  0.5354
  770MOL0     H 6250   1.941   2.110   0.715 -0.2258  1.3178  0.6167
  770MOL0     H 6251   2.007   1.985   0.815  0.5559 -1.5425 -0.4748
  770MOL0     H 6252   2.203   2.071   0.603 -1.4398  1.7155  2.1404
  770MOL0     H 6253   2.149   1.904   0.639  1.0850  0.1794 -1.2610
  770MOL0     H 6254   1.967   2.099   0.492 -0.2018 -0.3647  1.0402
  770MOL0     H 6255   1.972   1.923   0.482 -1.1679  0.6777  1.6576
  770MOL0     H 6256   2.220   2.025   0.169 -0.7024 -0.0383 -0.3064
  770MOL0     H 6257   2.040   2.354   0.991 -1.1911  1.9827  0.3280
  770MOL0     H 6258   2.027   2.458   1.169  4.9931 -2.7724  0.8558
  770MOL0     H 6259   2.151   2.552   1.242  1.0157 -1.0499 -0.7357
  770MOL0     H 6260   2.027   2.644   1.146  4.3059  2.3321 -1.0898
  771MOL0     O 6261   8.608   4.815   0.020 -1.3102 -1.0068  0.0672
  771MOL0     C 6262   8.700   4.831  -0.058 -0.0272 -0.2853 -0.2685
  771MOL0     O 6263   8.764   4.730  -0.126  0.5515  0.8626  0.8832
  771MOL0     C 6264   8.717   4.604  -0.125  0.3573  1.0203 -0.0788
  771MOL0     C 6265   8.709   4.528  -0.243 -0.1377 -0.4024  0.8576
  771MOL0     C 6266   8.674   4.391  -0.245 -0.2067  0.1191  0.8001
  771MOL0     C 6267   8.631   4.328  -0.124  0.4105  0.1454  0.2304
  771MOL0     O 6268   8.591   4.193  -0.129 -0.4233 -0.4716 -0.4323
  771MOL0     C 6269   8.555   4.123  -0.006  0.4357  0.4563 -0.5653
  771MOL0     C 6270   8.589   3.972  -0.025 -0.1749 -0.4527 -0.5493
  771MOL0     C 6271   8.729   3.953  -0.074  0.1498 -0.1549 -0.5012
  771MOL0     C 6272   8.754   3.808  -0.090  0.4763 -0.5329  0.8014
  771MOL0     C 6273   8.903   3.790  -0.123  0.1835 -0.0657  0.1983
  771MOL0     C 6274   8.938   3.644  -0.176  0.1379  0.9469 -0.0140
  771MOL0     C 6275   9.081   3.624  -0.223  0.2538  0.3041 -0.0161
  771MOL0     C 6276   9.121   3.472  -0.201  0.8028  0.4352  0.6458
  771MOL0     N 6277   9.265   3.458  -0.206 -0.1945 -0.1761  0.0514
  771MOL0     C 6278   9.359   3.517  -0.123 -0.5276  0.9030 -0.1989
  771MOL0     C 6279   9.479   3.468  -0.187 -0.6244  0.1050 -1.0144
  771MOL0     C 6280   9.613   3.503  -0.125  0.2929  0.3828  0.7679
  771MOL0     C 6281   9.666   3.366  -0.069 -0.3152 -0.0470  0.1589
  771MOL0     C 6282   9.824   3.356  -0.056 -0.2387 -0.9414  0.8966
  771MOL0     C 6283   9.865   3.224   0.023 -0.5299 -0.6403  0.0953
  771MOL0     O 6284   9.805   3.229   0.151 -0.9157 -0.2314 -0.1111
  771MOL0     C 6285   9.893   3.226   0.255  1.2142 -0.8630  0.6452
  771MOL0     C 6286   9.855   3.149   0.360 -0.4880  0.1451  0.8149
  771MOL0     C 6287   9.931   3.142   0.473 -0.5883  0.3017  0.2445
  771MOL0     C 6288   9.901   3.040   0.579 -0.1190 -0.7659  0.4644
  771MOL0     C 6289  10.042   3.237   0.493  0.3564 -0.2876 -0.6940
  771MOL0     C 6290  10.132   3.248   0.607 -0.5381 -0.7199 -0.2794
  771MOL0     O 6291  10.256   3.313   0.586  0.5389  0.4790  0.3070
  771MOL0     C 6292  10.324   3.362   0.701  0.7753 -1.6274 -0.1601
  771MOL0     C 6293  10.463   3.355   0.696  0.1830  0.5284  0.0832
  771MOL0     C 6294  10.548   3.408   0.790  0.3007  0.3934 -0.1109
  771MOL0     C 6295  10.491   3.459   0.910  0.1849 -0.2346  0.1654
  771MOL0     O 6296  10.563   3.527   1.002 -0.2990 -0.5860 -0.1590
  771MOL0     C 6297  10.705   3.505   1.009 -0.0811 -0.3141 -0.0795
  771MOL0     C 6298  10.759   3.578   1.127 -0.2279  0.0569  0.8326
  771MOL0     C 6299  10.914   3.587   1.114  1.4570 -0.1407  0.3666
  771MOL0     C 6300  10.968   3.687   1.205 -0.7153 -0.4141  0.0552
  771MOL0     C 6301  11.118   3.719   1.202 -0.8679  0.2654  1.2573
  771MOL0     C 6302  11.159   3.840   1.283 -0.2447  0.2619  0.0230
  771MOL0     C 6303  11.302   3.894   1.231  0.8054 -0.1238 -0.1512
  771MOL0     C 6304  11.330   4.017   1.312  1.2500  0.7439 -0.3666
  771MOL0    Cl 6305  11.404   3.975   1.473 -0.0959  0.4854  0.5089
  771MOL0     C 6306  10.355   3.466   0.919  0.0510  0.4213 -0.1599
  771MOL0     C 6307  10.271   3.409   0.816 -0.3796 -0.0504 -0.8624
  771MOL0     O 6308  10.091   3.204   0.716 -0.7299 -0.0913  0.1099
  771MOL0     C 6309  10.070   3.317   0.386  0.3582 -0.0889 -0.2970
  771MOL0     C 6310  10.006   3.308   0.264 -0.4503  0.4703  0.5546
  771MOL0     N 6311   9.450   3.392  -0.298  0.1406 -0.4002 -0.4342
  771MOL0     N 6312   9.325   3.393  -0.311  0.4652  0.0890  0.5673
  771MOL0     C 6313   8.633   4.404  -0.007 -1.1208 -0.0691  0.1871
  771MOL0     C 6314   8.676   4.534  -0.004  0.1434  0.8000  0.2301
  771MOL0     C 6315   8.757   4.976  -0.055  0.6208 -0.3586 -0.4209
  771MOL0     C 6316   8.895   4.993  -0.092  0.1758  0.9646  0.5335
  771MOL0     C 6317   8.969   5.112  -0.115 -0.1685 -0.4364  0.6071
  771MOL0     C 6318   8.883   5.227  -0.101  1.6401  0.4030  0.6149
  771MOL0     O 6319   8.934   5.346  -0.118 -0.5454 -0.9609  0.2670
  771MOL0     C 6320   9.024   5.382  -0.010  0.7439  0.2162  0.6670
  771MOL0     C 6321   9.100   5.509  -0.044 -0.6022 -0.0578 -0.2524
  771MOL0     C 6322   9.211   5.530   0.059  0.2701 -0.4606  0.6465
  771MOL0     C 6323   9.353   5.539   0.006  0.2184  0.1595 -0.8506
  771MOL0     C 6324   9.445   5.562   0.122  0.1536 -0.4234 -0.6984
  771MOL0     C 6325   9.507   5.586   0.225 -0.0093  0.0171  0.7417
  771MOL0     C 6326   8.751   5.227  -0.052  0.3473  0.3812  0.2422
  771MOL0     C 6327   8.685   5.105  -0.037 -0.5571 -0.4544 -0.5327
  771MOL0     C 6328   8.536   5.116  -0.018  0.2487  0.7365  0.1154
  771MOL0     H 6329   8.751   4.565  -0.337 -1.9689 -0.0089  0.1656
  771MOL0     H 6330   8.692   4.339  -0.339 -2.6658  1.8709 -0.7409
  771MOL0     H 6331   8.447   4.123   0.010  0.6113 -1.9857  1.1204
  771MOL0     H 6332   8.610   4.156   0.083 -1.1049 -2.0279  1.4177
  771MOL0     H 6333   8.570   3.911   0.065 -1.8580  0.2690 -0.3696
  771MOL0     H 6334   8.517   3.932  -0.097  1.4817 -2.6924 -1.0576
  771MOL0     H 6335   8.723   3.987  -0.178  0.7845 -0.8365 -0.7725
  771MOL0     H 6336   8.803   4.005  -0.013  0.0758 -0.4626 -0.1456
  771MOL0     H 6337   8.721   3.758   0.001  0.2043 -0.5385  0.7010
  771MOL0     H 6338   8.694   3.761  -0.168  0.9180 -1.0606  0.7651
  771MOL0     H 6339   8.973   3.823  -0.045  1.1041 -2.1316  0.3240
  771MOL0     H 6340   8.917   3.867  -0.199 -1.6489  1.8298  1.6556
  771MOL0     H 6341   8.928   3.588  -0.082  1.8651  0.1392 -0.2675
  771MOL0     H 6342   8.861   3.596  -0.238 -0.9592 -0.5202  2.3351
  771MOL0     H 6343   9.134   3.695  -0.158  1.0999 -2.5651  2.6361
  771MOL0     H 6344   9.083   3.653  -0.329 -1.5161 -1.6769 -0.6635
  771MOL0     H 6345   9.093   3.449  -0.098 -0.4847 -1.4429 -0.0772
  771MOL0     H 6346   9.065   3.401  -0.261  2.2676  1.6862 -2.4469
  771MOL0     H 6347   9.340   3.578  -0.035 -3.2148 -2.2519  1.6661
  771MOL0     H 6348   9.597   3.572  -0.042 -0.5719  0.8535  0.2287
  771MOL0     H 6349   9.677   3.539  -0.206  1.1234  0.1064  1.2898
  771MOL0     H 6350   9.610   3.348   0.023  1.6328  1.5050  1.7711
  771MOL0     H 6351   9.649   3.287  -0.143  1.6008 -0.0748 -0.3015
  771MOL0     H 6352   9.853   3.346  -0.161  2.0404 -0.8655  1.4585
  771MOL0     H 6353   9.868   3.440  -0.002  2.3685 -2.2444  0.9871
  771MOL0     H 6354   9.851   3.133  -0.036  3.0621 -1.1961 -0.1241
  771MOL0     H 6355   9.974   3.218   0.023 -0.5294 -0.7382  0.7544
  771MOL0     H 6356   9.770   3.081   0.352 -2.5016  2.6542 -0.5189
  771MOL0     H 6357   9.923   3.062   0.684 -0.3711 -2.0458  0.7951
  771MOL0     H 6358   9.959   2.950   0.560 -1.3301 -0.8755 -3.7977
  771MOL0     H 6359   9.798   3.003   0.569 -0.5447  0.5331 -0.2006
  771MOL0     H 6360  10.498   3.298   0.610  1.6579 -1.2390  1.7912
  771MOL0     H 6361  10.654   3.409   0.765 -0.3464  0.8737 -3.2801
  771MOL0     H 6362  10.731   3.399   1.008  0.0962 -0.2701 -0.5440
  771MOL0     H 6363  10.754   3.554   0.924  2.8545 -0.0827  1.6161
  771MOL0     H 6364  10.713   3.676   1.136 -3.6065 -1.4300  1.2979
  771MOL0     H 6365  10.733   3.511   1.210  1.3324 -1.2365  0.3476
  771MOL0     H 6366  10.940   3.596   1.008  2.0284 -2.2492  0.2765
  771MOL0     H 6367  10.951   3.490   1.149  0.7442 -0.1145  1.2140
  771MOL0     H 6368  10.952   3.651   1.307 -1.9808 -2.4612 -0.7960
  771MOL0     H 6369  10.917   3.782   1.185 -1.7641 -0.6666  1.3502
  771MOL0     H 6370  11.180   3.637   1.241  0.9028  2.6236  3.7383
  771MOL0     H 6371  11.151   3.722   1.098  0.9465 -2.8293  1.6070
  771MOL0     H 6372  11.167   3.815   1.389  1.7405 -0.7529 -0.3160
  771MOL0     H 6373  11.080   3.915   1.272 -0.3422 -0.1066 -2.0493
  771MOL0     H 6374  11.302   3.921   1.125  1.7045  2.0507  0.3458
  771MOL0     H 6375  11.380   3.820   1.252 -1.8767 -2.5782  1.9533
  771MOL0     H 6376  11.236   4.066   1.339  1.3294  0.8515 -0.2845
  771MOL0     H 6377  11.392   4.082   1.249 -0.9755  0.6432 -2.8300
  771MOL0     H 6378  10.299   3.506   1.003  0.9576  0.5641  0.3971
  771MOL0     H 6379  10.164   3.406   0.833 -0.4316  2.1214 -0.5963
  771MOL0     H 6380  10.153   3.387   0.394 -0.0149  0.1865  1.5157
  771MOL0     H 6381  10.025   3.379   0.183  1.4761  2.0195  2.2280
  771MOL0     H 6382   8.603   4.366   0.090  0.1047  0.1112  0.6593
  771MOL0     H 6383   8.677   4.583   0.093 -0.6979 -2.1196  1.8187
  771MOL0     H 6384   8.951   4.900  -0.096 -3.7112 -1.7203  2.0858
  771MOL0     H 6385   9.068   5.108  -0.160 -0.3147 -0.5841  0.2952
  771MOL0     H 6386   8.963   5.403   0.078 -0.0351 -0.9995  0.4372
  771MOL0     H 6387   9.080   5.292   0.014 -1.2320 -2.1918 -2.7883
  771MOL0     H 6388   9.032   5.594  -0.033 -0.2604  0.0822  0.8706
  771MOL0     H 6389   9.142   5.494  -0.144  2.8698  2.8562  0.5743
  771MOL0     H 6390   9.185   5.615   0.123 -0.5233  0.1126 -0.3941
  771MOL0     H 6391   9.204   5.440   0.121 -0.4415 -1.4547 -0.8396
  771MOL0     H 6392   9.358   5.617  -0.071  1.3097  3.7404  2.5137
  771MOL0     H 6393   9.384   5.448  -0.046 -3.7364 -1.4122 -0.8181
  771MOL0     H 6394   9.575   5.619   0.301  2.1757 -0.6188 -0.8395
  771MOL0     H 6395   8.701   5.316  -0.017 -1.8987  0.6081 -3.1063
  771MOL0     H 6396   8.487   5.060  -0.097  2.7227 -0.0534 -0.9447
  771MOL0     H 6397   8.516   5.062   0.075  1.4586  0.1323  0.0419
  771MOL0     H 6398   8.509   5.222  -0.028 -2.2172  0.0182 -1.6924
  772MOL0     O 6399   0.358   7.017   6.815  0.3818  0.4183 -0.4251
  772MOL0     C 6400   0.274   7.016   6.722  0.1192 -0.3162  0.0582
  772MOL0     O 6401   0.236   6.899   6.657  0.3841  0.1189  0.2788
  772MOL0     C 6402   0.286   6.775   6.699 -0.6844 -0.1816 -0.4558
  772MOL0     C 6403   0.350   6.678   6.617  0.3132 -0.1810 -0.6444
  772MOL0     C 6404   0.410   6.566   6.665  0.0841 -0.2528 -0.3795
  772MOL0     C 6405   0.396   6.537   6.801 -0.2493  0.0248  0.4486
  772MOL0     O 6406   0.414   6.413   6.847 -0.0739  0.2081  1.3897
  772MOL0     C 6407   0.480   6.326   6.752 -0.8240 -0.2858  0.4421
  772MOL0     C 6408   0.512   6.189   6.811 -0.0865  0.4615 -0.4121
  772MOL0     C 6409   0.386   6.104   6.800 -0.7624 -0.2624 -0.5900
  772MOL0     C 6410   0.423   5.953   6.787 -0.1947  0.4327  0.7346
  772MOL0     C 6411   0.291   5.875   6.762  0.3114  0.2030 -0.3817
  772MOL0     C 6412   0.300   5.724   6.760 -0.0053 -0.6630 -1.0233
  772MOL0     C 6413   0.374   5.658   6.639  0.4341 -0.4693  0.0082
  772MOL0     C 6414   0.326   5.523   6.606 -0.4193  0.0126  0.4109
  772MOL0     N 6415   0.434   5.434   6.559  0.3800  0.7425 -0.0342
  772MOL0     C 6416   0.489   5.449   6.437  0.2979 -0.5451 -0.2524
  772MOL0     C 6417   0.589   5.352   6.442  0.8220  0.3232 -0.8153
  772MOL0     C 6418   0.695   5.325   6.333  0.6691 -0.2212  0.2099
  772MOL0     C 6419   0.798   5.436   6.313  0.1444  1.0449  0.3561
  772MOL0     C 6420   0.877   5.411   6.182  0.8594 -0.3078 -0.5465
  772MOL0     C 6421   0.955   5.536   6.134 -0.2258 -0.5568  0.5596
  772MOL0     O 6422   1.073   5.569   6.219  0.3086  0.5448 -0.6426
  772MOL0     C 6423   1.184   5.486   6.185  0.1492 -0.4510  0.6230
  772MOL0     C 6424   1.207   5.373   6.254 -0.7145  0.1483 -0.4387
  772MOL0     C 6425   1.312   5.292   6.214  0.1072 -0.8739  0.0494
  772MOL0     C 6426   1.318   5.151   6.255  0.8650 -0.2669  0.5083
  772MOL0     C 6427   1.398   5.340   6.110 -0.2395 -0.5087 -0.8790
  772MOL0     C 6428   1.508   5.259   6.057  0.5569 -0.4255 -0.2004
  772MOL0     O 6429   1.608   5.222   6.143  1.0408 -0.0621  0.8712
  772MOL0     C 6430   1.726   5.154   6.105  0.5319  0.4461  0.1327
  772MOL0     C 6431   1.815   5.122   6.203 -0.5441 -0.7406 -0.4727
  772MOL0     C 6432   1.932   5.052   6.170  0.7005  0.5702 -0.5118
  772MOL0     C 6433   1.955   4.999   6.043 -0.3749  0.8969  0.2894
  772MOL0     O 6434   2.078   4.947   6.026  0.4817  0.0596 -0.1194
  772MOL0     C 6435   2.110   4.904   5.896  0.2306  0.0952 -0.0309
  772MOL0     C 6436   2.249   4.829   5.905  0.0271  0.2116  1.0995
  772MOL0     C 6437   2.278   4.748   6.026 -0.3030  0.0221  0.0287
  772MOL0     C 6438   2.177   4.642   6.050 -0.0560 -0.2953  0.4966
  772MOL0     C 6439   2.198   4.572   6.178 -0.5245  1.3126 -0.2318
  772MOL0     C 6440   2.113   4.457   6.221  1.0560 -0.8798  0.5461
  772MOL0     C 6441   2.101   4.347   6.111 -0.9857  0.0814 -0.0964
  772MOL0     C 6442   2.103   4.203   6.172  0.3307 -0.3952  0.7043
  772MOL0    Cl 6443   1.959   4.180   6.267 -0.0021  0.4518  0.0496
  772MOL0     C 6444   1.863   5.042   5.941 -0.2301 -0.1354 -0.0234
  772MOL0     C 6445   1.748   5.108   5.977 -0.7778  0.2154  0.6168
  772MOL0     O 6446   1.492   5.229   5.939 -0.2777 -0.1979  0.5041
  772MOL0     C 6447   1.389   5.466   6.059  0.0791  0.0277  0.7618
  772MOL0     C 6448   1.268   5.530   6.086 -0.0763  0.0036 -0.0879
  772MOL0     N 6449   0.600   5.308   6.572 -0.1841  1.2246  0.1595
  772MOL0     N 6450   0.501   5.350   6.632  0.3738  0.7150 -0.5624
  772MOL0     C 6451   0.334   6.624   6.886  0.5251  0.6723  0.2022
  772MOL0     C 6452   0.276   6.737   6.832 -0.0316  1.1574  0.3568
  772MOL0     C 6453   0.220   7.144   6.668  0.3681 -0.2071  0.1699
  772MOL0     C 6454   0.150   7.148   6.545  0.4430 -0.6952  0.1047
  772MOL0     C 6455   0.116   7.269   6.485 -0.3743  0.4016 -0.5250
  772MOL0     C 6456   0.134   7.391   6.548 -0.1285  0.0553  0.2983
  772MOL0     O 6457   0.110   7.511   6.477 -0.4932 -0.3091  0.2798
  772MOL0     C 6458   0.129   7.637   6.549 -0.2591 -0.2098 -0.8168
  772MOL0     C 6459   0.087   7.749   6.459 -0.9241 -0.0654  0.4774
  772MOL0     C 6460   0.087   7.875   6.541  0.6079 -0.5324  0.6367
  772MOL0     C 6461   0.093   7.997   6.450  1.2635  0.6586  0.7921
  772MOL0     C 6462   0.231   8.039   6.429  0.4337  0.3956 -0.0356
  772MOL0     C 6463   0.342   8.076   6.451  0.7918  0.3977 -0.7236
  772MOL0     C 6464   0.185   7.380   6.679 -0.1494 -0.2190 -0.1194
  772MOL0     C 6465   0.244   7.266   6.733  0.9288 -0.6548 -0.7947
  772MOL0     C 6466   0.308   7.292   6.866  0.1785 -0.4468 -0.6235
  772MOL0     H 6467   0.357   6.711   6.514  2.3881  2.2160  0.1754
  772MOL0     H 6468   0.450   6.504   6.585 -1.1041 -3.2143  1.1325
  772MOL0     H 6469   0.572   6.368   6.713 -2.9385  5.3256  0.5772
  772MOL0     H 6470   0.411   6.319   6.667 -2.5640  1.9172  1.5633
  772MOL0     H 6471   0.596   6.149   6.754 -0.1328  1.8147 -1.4882
  772MOL0     H 6472   0.536   6.215   6.915 -2.5768  1.1770  0.0667
  772MOL0     H 6473   0.311   6.114   6.878 -1.5379 -1.3977 -1.1751
  772MOL0     H 6474   0.323   6.138   6.717  1.0265 -1.1536 -2.4021
  772MOL0     H 6475   0.493   5.931   6.706 -0.3155 -0.6211  0.8956
  772MOL0     H 6476   0.470   5.920   6.880  0.6151  2.9507  1.2877
  772MOL0     H 6477   0.228   5.909   6.679 -1.1076  0.3270  0.7125
  772MOL0     H 6478   0.228   5.899   6.848 -1.0797 -2.4248 -0.5544
  772MOL0     H 6479   0.356   5.701   6.851 -1.8053  1.7181  0.8177
  772MOL0     H 6480   0.196   5.688   6.758 -1.9476  4.1125 -2.2923
  772MOL0     H 6481   0.480   5.659   6.668  0.3769 -1.3894  0.2661
  772MOL0     H 6482   0.373   5.722   6.550  2.3661 -0.6034 -0.1665
  772MOL0     H 6483   0.291   5.475   6.698 -0.9017  0.8939  0.7008
  772MOL0     H 6484   0.241   5.527   6.538 -0.8003  2.3111  0.9280
  772MOL0     H 6485   0.475   5.519   6.355  0.8579 -1.3723 -1.0640
  772MOL0     H 6486   0.633   5.293   6.248  0.2055  2.0371 -0.3734
  772MOL0     H 6487   0.749   5.239   6.373  1.0210  1.5136  3.8158
  772MOL0     H 6488   0.750   5.534   6.314  2.1679  2.1032 -0.8693
  772MOL0     H 6489   0.860   5.440   6.404 -0.1159 -0.4960  0.6393
  772MOL0     H 6490   0.948   5.329   6.197  0.7647 -0.1970  0.6244
  772MOL0     H 6491   0.805   5.373   6.109 -2.5173  0.4817  2.1043
  772MOL0     H 6492   0.983   5.515   6.031  3.8900  1.7647  0.9613
  772MOL0     H 6493   0.880   5.615   6.131 -0.8224 -1.0504  1.7669
  772MOL0     H 6494   1.131   5.339   6.323 -2.7139 -2.6234 -3.6430
  772MOL0     H 6495   1.352   5.089   6.172  2.0546  0.2584  0.5808
  772MOL0     H 6496   1.220   5.113   6.285 -1.0402  2.6794 -1.3457
  772MOL0     H 6497   1.405   5.130   6.318  2.0815 -1.6201 -1.4943
  772MOL0     H 6498   1.789   5.161   6.301  1.6144  0.8650 -0.4704
  772MOL0     H 6499   2.005   5.043   6.250  1.9489  1.3154 -1.5276
  772MOL0     H 6500   2.046   4.821   5.864  1.6521 -1.7647  1.6670
  772MOL0     H 6501   2.123   4.988   5.827  4.0018 -0.4219 -0.2105
  772MOL0     H 6502   2.253   4.763   5.818 -0.3676 -1.1195  2.0641
  772MOL0     H 6503   2.330   4.901   5.894 -0.8190  0.9339 -0.9546
  772MOL0     H 6504   2.275   4.821   6.107 -0.2525  3.8144 -3.1249
  772MOL0     H 6505   2.381   4.713   6.021 -0.1715  0.3501  0.4037
  772MOL0     H 6506   2.183   4.572   5.966  2.3899  1.6314 -1.1061
  772MOL0     H 6507   2.076   4.684   6.053 -0.0749 -0.2980 -0.0411
  772MOL0     H 6508   2.303   4.541   6.170 -0.8736  0.0269  0.0154
  772MOL0     H 6509   2.219   4.640   6.261  0.9162 -1.0850  1.4693
  772MOL0     H 6510   2.015   4.496   6.248  1.2422  0.3250 -0.4655
  772MOL0     H 6511   2.153   4.420   6.316 -0.9176 -1.9996  0.9944
  772MOL0     H 6512   2.181   4.350   6.036 -1.2193 -1.8996 -0.4963
  772MOL0     H 6513   2.010   4.373   6.057  0.3287  1.5213 -1.7300
  772MOL0     H 6514   2.190   4.190   6.237 -0.7554  2.7263  3.0490
  772MOL0     H 6515   2.099   4.131   6.090 -1.2837 -2.0619  2.1442
  772MOL0     H 6516   1.875   5.028   5.834 -0.3707  3.9401 -0.7009
  772MOL0     H 6517   1.684   5.134   5.894  0.9432  0.6649 -0.6410
  772MOL0     H 6518   1.458   5.508   5.987 -3.2510  0.0051 -2.7216
  772MOL0     H 6519   1.246   5.630   6.050 -0.1471  0.4726  1.2139
  772MOL0     H 6520   0.303   6.590   6.985  1.2718 -1.8942 -0.3798
  772MOL0     H 6521   0.219   6.799   6.901 -0.4466 -2.5663  3.6757
  772MOL0     H 6522   0.132   7.050   6.502  1.7196 -2.5350  3.3495
  772MOL0     H 6523   0.086   7.259   6.381  1.1320  0.0973 -0.9568
  772MOL0     H 6524   0.062   7.643   6.635 -1.2249 -0.0328 -1.5645
  772MOL0     H 6525   0.231   7.652   6.585 -0.5971  0.0325  0.0517
  772MOL0     H 6526  -0.017   7.733   6.429 -0.5221 -1.4763 -0.1962
  772MOL0     H 6527   0.143   7.742   6.366 -2.2752 -0.8851 -0.2948
  772MOL0     H 6528   0.000   7.885   6.607 -0.1776 -0.0736 -0.4388
  772MOL0     H 6529   0.178   7.884   6.601  0.9539  1.0713 -0.0719
  772MOL0     H 6530   0.042   8.082   6.498  0.6460  0.5116  0.4044
  772MOL0     H 6531   0.045   7.970   6.355 -1.6006  1.3845  1.9024
  772MOL0     H 6532   0.442   8.096   6.483 -0.3368  0.3861  3.3569
  772MOL0     H 6533   0.194   7.473   6.734  3.3526 -0.4539 -0.0608
  772MOL0     H 6534   0.407   7.245   6.879  1.3389  2.0925  0.3228
  772MOL0     H 6535   0.316   7.397   6.895 -1.6245 -0.9136  1.9854
  772MOL0     H 6536   0.249   7.247   6.946  1.2209 -1.1387 -0.2118
  773MOL0     O 6537   1.079   3.467   0.921  0.8395  0.3532  0.2610
  773MOL0     C 6538   1.041   3.350   0.906 -0.2612  0.5763  1.2215
  773MOL0     O 6539   0.974   3.299   0.800 -0.3689  0.2976 -0.9750
  773MOL0     C 6540   0.990   3.348   0.672 -0.3350 -0.9898  0.0929
  773MOL0     C 6541   0.934   3.478   0.635 -0.2289 -0.3000 -0.3191
  773MOL0     C 6542   0.958   3.536   0.512 -0.0184 -0.3862  0.5187
  773MOL0     C 6543   1.025   3.457   0.415  0.0974 -0.5997  0.9738
  773MOL0     O 6544   1.064   3.508   0.295 -0.2956 -0.5711  0.1951
  773MOL0     C 6545   1.085   3.653   0.278 -0.5057  0.4087 -0.2709
  773MOL0     C 6546   0.983   3.725   0.183 -0.0172 -0.3301  0.2830
  773MOL0     C 6547   0.995   3.874   0.172 -0.0608 -0.1275 -0.2024
  773MOL0     C 6548   1.035   3.944   0.308  0.3982 -0.0998  1.3549
  773MOL0     C 6549   1.053   4.097   0.270  0.5339  0.2980  0.0164
  773MOL0     C 6550   1.162   4.132   0.168  0.1900  0.4623  0.2097
  773MOL0     C 6551   1.299   4.094   0.219 -0.2946 -0.0534  1.0860
  773MOL0     C 6552   1.372   3.977   0.143 -0.1721 -0.5424  0.4356
  773MOL0     N 6553   1.362   3.991  -0.004 -0.8126  0.0036  0.9540
  773MOL0     C 6554   1.427   4.085  -0.089 -1.1381  0.4657 -0.2019
  773MOL0     C 6555   1.400   4.048  -0.220  0.8282 -0.0409 -0.1345
  773MOL0     C 6556   1.438   4.105  -0.355  0.3638 -0.2957 -0.1100
  773MOL0     C 6557   1.357   4.248  -0.373  0.3215  0.1936 -0.1017
  773MOL0     C 6558   1.200   4.245  -0.361  0.0363  0.4608 -0.1714
  773MOL0     C 6559   1.137   4.169  -0.482  1.2118 -0.6548  0.3823
  773MOL0     O 6560   1.142   4.242  -0.609  0.3288 -0.6144 -0.1396
  773MOL0     C 6561   1.049   4.335  -0.639  0.9051 -0.0012  0.2909
  773MOL0     C 6562   1.099   4.445  -0.699  0.0058  1.4044  0.5959
  773MOL0     C 6563   1.027   4.565  -0.716  0.7653 -0.2971  0.4700
  773MOL0     C 6564   1.088   4.668  -0.808  0.2361  0.1067 -0.1138
  773MOL0     C 6565   0.889   4.558  -0.689 -0.9649 -0.4155 -0.4335
  773MOL0     C 6566   0.793   4.658  -0.740  0.0964 -0.9275  0.1174
  773MOL0     O 6567   0.668   4.609  -0.762 -0.3377 -0.2945 -0.7273
  773MOL0     C 6568   0.573   4.679  -0.822 -0.7599 -0.4082 -1.1682
  773MOL0     C 6569   0.458   4.713  -0.741 -0.4853  0.5658 -0.3886
  773MOL0     C 6570   0.340   4.760  -0.802  0.0884 -0.0301 -1.4061
  773MOL0     C 6571   0.331   4.789  -0.937  0.1937 -0.2892  0.3020
  773MOL0     O 6572   0.226   4.856  -0.984  0.3053  1.0043 -0.3861
  773MOL0     C 6573   0.248   4.966  -1.076 -0.5224  1.3172 -0.0540
  773MOL0     C 6574   0.136   5.062  -1.077  0.3587  1.4022 -0.6110
  773MOL0     C 6575   0.006   4.983  -1.104 -0.0505  0.4284  0.0849
  773MOL0     C 6576  -0.111   5.074  -1.114 -0.6256 -0.0855  0.3241
  773MOL0     C 6577  -0.236   5.001  -1.156  0.4501  0.4310 -0.5330
  773MOL0     C 6578  -0.270   4.889  -1.058  0.3018 -0.1961  0.1159
  773MOL0     C 6579  -0.410   4.842  -1.083  0.1450  1.0019  0.1509
  773MOL0     C 6580  -0.452   4.732  -0.976  0.2481  0.2467 -0.1637
  773MOL0    Cl 6581  -0.422   4.773  -0.806  0.3701  0.0378 -0.4440
  773MOL0     C 6582   0.447   4.760  -1.010 -0.3760  0.4398 -0.4943
  773MOL0     C 6583   0.568   4.711  -0.958 -0.0530 -0.3376  0.7133
  773MOL0     O 6584   0.819   4.781  -0.757  0.2437 -0.1766 -0.6189
  773MOL0     C 6585   0.838   4.436  -0.639 -0.0370  0.5567  0.0733
  773MOL0     C 6586   0.918   4.333  -0.599 -0.4649 -0.1805 -0.7649
  773MOL0     N 6587   1.307   3.940  -0.216 -0.4131 -0.4506 -0.5404
  773MOL0     N 6588   1.296   3.902  -0.093 -0.6118  0.3310  0.2451
  773MOL0     C 6589   1.062   3.328   0.443  0.1886  0.0629 -0.2716
  773MOL0     C 6590   1.043   3.277   0.571  0.7505 -0.0867 -0.1154
  773MOL0     C 6591   1.078   3.245   0.998  1.3541  0.6937  0.5569
  773MOL0     C 6592   1.130   3.122   0.957 -0.4810 -0.8188  0.9841
  773MOL0     C 6593   1.152   3.019   1.045  0.6797  0.3821 -0.0493
  773MOL0     C 6594   1.131   3.036   1.183 -0.7253  0.5544 -0.2922
  773MOL0     O 6595   1.157   2.926   1.267  0.5798 -0.2022  0.0562
  773MOL0     C 6596   1.108   2.928   1.399 -0.4491  0.0978 -0.8055
  773MOL0     C 6597   1.163   2.817   1.494 -0.3716 -0.2994 -0.4055
  773MOL0     C 6598   1.190   2.683   1.428 -0.0613 -0.0663  0.4117
  773MOL0     C 6599   1.065   2.621   1.369  0.0723  0.5391  0.4758
  773MOL0     C 6600   0.995   2.563   1.489 -0.2044  0.5615 -0.0684
  773MOL0     C 6601   0.942   2.536   1.597 -0.7562  0.3866  1.2617
  773MOL0     C 6602   1.084   3.152   1.222  0.1000  0.4011 -0.5438
  773MOL0     C 6603   1.065   3.257   1.137  0.0228  0.7520  0.3230
  773MOL0     C 6604   1.022   3.384   1.193 -0.4766  1.1577 -0.2906
  773MOL0     H 6605   0.884   3.537   0.711  1.5836 -0.7702  1.3410
  773MOL0     H 6606   0.924   3.637   0.491  2.0211  0.8224  2.5881
  773MOL0     H 6607   1.184   3.659   0.231 -1.4287  2.9221 -2.1364
  773MOL0     H 6608   1.091   3.707   0.373  2.4123 -3.5950  2.1302
  773MOL0     H 6609   0.984   3.680   0.084 -1.0101 -0.9953  0.5535
  773MOL0     H 6610   0.881   3.711   0.220 -0.6487  2.2438 -0.3496
  773MOL0     H 6611   1.063   3.906   0.093  1.9828  1.3798  2.0383
  773MOL0     H 6612   0.908   3.933   0.141  0.6867  1.9154  1.3618
  773MOL0     H 6613   0.960   3.941   0.388 -0.8479 -1.5107  0.1928
  773MOL0     H 6614   1.129   3.909   0.351  1.2345  1.7775  1.1680
  773MOL0     H 6615   1.075   4.162   0.355  0.0030  0.2571  0.1884
  773MOL0     H 6616   0.958   4.141   0.238  0.8753  0.9984 -0.0526
  773MOL0     H 6617   1.134   4.104   0.066  2.9936  0.4974 -0.6595
  773MOL0     H 6618   1.165   4.241   0.173 -1.5713  0.5183  0.7667
  773MOL0     H 6619   1.301   4.075   0.327  2.1660 -0.5694  1.0194
  773MOL0     H 6620   1.356   4.183   0.191 -1.3645  1.0697  2.3274
  773MOL0     H 6621   1.477   3.973   0.175  0.2678  1.3514 -0.6438
  773MOL0     H 6622   1.325   3.880   0.164 -3.6162  0.4056 -2.0706
  773MOL0     H 6623   1.490   4.166  -0.054  0.2538 -0.8220  0.4205
  773MOL0     H 6624   1.412   4.047  -0.445  2.2790  0.1865 -1.0280
  773MOL0     H 6625   1.546   4.121  -0.361  0.7250 -2.4018  0.0293
  773MOL0     H 6626   1.382   4.311  -0.287 -0.8398  1.7602 -0.8519
  773MOL0     H 6627   1.395   4.291  -0.466  2.5591 -0.1165  0.6188
  773MOL0     H 6628   1.164   4.213  -0.263 -0.7588 -2.2748 -1.2844
  773MOL0     H 6629   1.164   4.349  -0.367 -3.1298 -0.5208 -0.1359
  773MOL0     H 6630   1.193   4.077  -0.499  5.0709  1.5200 -0.0469
  773MOL0     H 6631   1.033   4.151  -0.453  0.9263  0.7219  0.3134
  773MOL0     H 6632   1.202   4.430  -0.730  0.1226  0.1033  1.5338
  773MOL0     H 6633   1.194   4.641  -0.814  0.5139  0.6052  1.7241
  773MOL0     H 6634   1.097   4.769  -0.767  0.5645  1.0317 -2.3512
  773MOL0     H 6635   1.040   4.675  -0.906 -0.6933  1.1566  0.3957
  773MOL0     H 6636   0.466   4.698  -0.634 -2.4559  1.5226 -0.0580
  773MOL0     H 6637   0.262   4.802  -0.738  1.4374 -0.6582  0.7675
  773MOL0     H 6638   0.335   5.017  -1.032  2.0111 -3.4859  1.1646
  773MOL0     H 6639   0.254   4.934  -1.180 -3.6785  1.1034 -0.2475
  773MOL0     H 6640   0.118   5.110  -0.980 -1.8751 -1.2919  0.4344
  773MOL0     H 6641   0.135   5.136  -1.158 -2.7314  5.8274  2.9494
  773MOL0     H 6642  -0.008   4.916  -1.019  0.8560 -0.2338 -0.2671
  773MOL0     H 6643   0.024   4.932  -1.199  0.9622  1.4332 -0.2870
  773MOL0     H 6644  -0.093   5.138  -1.201 -0.3082  0.5772  0.8769
  773MOL0     H 6645  -0.121   5.124  -1.018 -1.8681  1.2223 -0.4550
  773MOL0     H 6646  -0.316   5.076  -1.158  1.8447  1.9501 -1.9763
  773MOL0     H 6647  -0.234   4.955  -1.255  1.7090 -2.9484  0.9165
  773MOL0     H 6648  -0.260   4.921  -0.954 -0.8411  1.2137 -0.1720
  773MOL0     H 6649  -0.220   4.795  -1.082 -1.6076 -0.7417 -2.1643
  773MOL0     H 6650  -0.423   4.810  -1.187  0.7925  2.6720 -0.4840
  773MOL0     H 6651  -0.482   4.921  -1.058 -1.0475 -0.2588  0.8112
  773MOL0     H 6652  -0.424   4.628  -0.996 -1.8915 -0.4029  0.0168
  773MOL0     H 6653  -0.561   4.735  -0.979  0.2656  2.0685 -1.9512
  773MOL0     H 6654   0.461   4.804  -1.108  0.1423 -1.6696 -1.4221
  773MOL0     H 6655   0.659   4.733  -1.012  0.4205 -0.7945  1.3096
  773MOL0     H 6656   0.733   4.411  -0.629  0.3463 -1.3140 -0.1367
  773MOL0     H 6657   0.879   4.251  -0.538  1.1733  0.1723  0.8565
  773MOL0     H 6658   1.106   3.268   0.365 -0.6950  1.3336 -1.8038
  773MOL0     H 6659   1.082   3.185   0.613  0.0124  1.3275  4.1715
  773MOL0     H 6660   1.152   3.111   0.851 -2.1747 -1.7557  0.6918
  773MOL0     H 6661   1.193   2.922   1.020  2.0875  0.4354  1.7988
  773MOL0     H 6662   1.128   3.026   1.445 -0.0798 -0.2853 -0.1167
  773MOL0     H 6663   0.999   2.916   1.403 -0.3390 -1.0338  2.5597
  773MOL0     H 6664   1.092   2.807   1.576 -1.2760  1.9448 -0.8340
  773MOL0     H 6665   1.261   2.840   1.537  0.4506  4.3298 -3.9833
  773MOL0     H 6666   1.258   2.699   1.343  1.9368 -1.4209  1.6825
  773MOL0     H 6667   1.240   2.612   1.495 -1.0033 -1.6162 -0.4661
  773MOL0     H 6668   1.105   2.539   1.309 -2.1330  0.0405 -0.4037
  773MOL0     H 6669   1.006   2.687   1.305 -0.3878 -0.3317 -0.0044
  773MOL0     H 6670   0.912   2.490   1.689  3.5465 -0.2228  2.5981
  773MOL0     H 6671   1.064   3.176   1.326  1.6975  0.4991 -0.2387
  773MOL0     H 6672   1.034   3.378   1.302 -1.0082  0.4458 -0.2653
  773MOL0     H 6673   1.084   3.468   1.159  0.6295 -0.2217 -1.8002
  773MOL0     H 6674   0.919   3.396   1.158 -1.2403  0.6983  1.6466
  774MOL0     O 6675   9.206   2.869  10.132  0.4512 -0.3543  0.1246
  774MOL0     C 6676   9.269   2.878  10.236  1.1020 -0.9455 -0.3527
  774MOL0     O 6677   9.242   2.819  10.358  0.0180 -0.8641 -0.3585
  774MOL0     C 6678   9.138   2.731  10.379 -0.0366 -0.6034  1.6657
  774MOL0     C 6679   9.081   2.643  10.281 -0.7068  0.3237 -0.1188
  774MOL0     C 6680   8.975   2.558  10.308  0.6043  0.6410  0.5183
  774MOL0     C 6681   8.930   2.554  10.437  0.8113  0.1651  0.1929
  774MOL0     O 6682   8.817   2.479  10.458  0.1015  0.3414 -1.0091
  774MOL0     C 6683   8.728   2.499  10.571  0.0530 -0.5168 -0.3272
  774MOL0     C 6684   8.671   2.648  10.543  0.2957 -0.3396 -0.0160
  774MOL0     C 6685   8.591   2.670  10.417  0.9788 -0.1514  0.6271
  774MOL0     C 6686   8.479   2.559  10.389 -0.8515 -0.3319  0.4907
  774MOL0     C 6687   8.479   2.476  10.256 -0.6974  0.0452 -0.0825
  774MOL0     C 6688   8.367   2.371  10.264  0.3516 -0.0319 -0.7579
  774MOL0     C 6689   8.225   2.417  10.217  0.4766  1.0300  1.2209
  774MOL0     C 6690   8.113   2.312  10.214  0.0119  0.0498 -0.3820
  774MOL0     N 6691   8.020   2.344  10.106 -0.8246 -0.4576 -0.2872
  774MOL0     C 6692   7.941   2.452  10.100  0.5676 -0.3844 -0.6231
  774MOL0     C 6693   7.849   2.419  10.007 -0.5116 -0.5025 -0.0085
  774MOL0     C 6694   7.724   2.496   9.973 -0.5803 -0.1074 -1.0095
  774MOL0     C 6695   7.742   2.627   9.903 -0.0851 -0.8280  1.0746
  774MOL0     C 6696   7.615   2.696   9.859  0.9896 -0.2695  0.2080
  774MOL0     C 6697   7.529   2.743   9.979 -0.8262 -0.7580  0.8385
  774MOL0     O 6698   7.603   2.853  10.054  0.0143  0.3500  0.0802
  774MOL0     C 6699   7.678   2.823  10.162 -0.3680 -0.5799 -0.3500
  774MOL0     C 6700   7.810   2.872  10.177  0.4147  0.1507 -0.3929
  774MOL0     C 6701   7.895   2.838  10.287  0.2468  0.9636  0.3765
  774MOL0     C 6702   8.034   2.892  10.276 -0.3964  0.4121  0.1598
  774MOL0     C 6703   7.852   2.748  10.391 -0.0632  0.4470  1.3182
  774MOL0     C 6704   7.940   2.720  10.504 -1.0011  0.9859 -0.2196
  774MOL0     O 6705   8.077   2.685  10.485 -0.3277  0.2607  0.0134
  774MOL0     C 6706   8.137   2.666  10.605 -1.1087  0.3867 -0.2342
  774MOL0     C 6707   8.108   2.564  10.689 -0.4774  0.8288  0.4071
  774MOL0     C 6708   8.173   2.545  10.810 -1.2419  0.2110 -1.6551
  774MOL0     C 6709   8.274   2.634  10.851  0.1955  0.4859 -0.2850
  774MOL0     O 6710   8.348   2.631  10.969  0.4344  0.5668  0.0860
  774MOL0     C 6711   8.376   2.508  11.039 -0.5280  0.1443 -0.8505
  774MOL0     C 6712   8.515   2.475  11.009 -0.3632  0.7200 -0.0970
  774MOL0     C 6713   8.587   2.389  11.114  0.0760  0.4941 -0.5683
  774MOL0     C 6714   8.731   2.347  11.063 -0.5027  0.5581 -0.0353
  774MOL0     C 6715   8.734   2.226  10.962 -0.6825  0.0007  0.7438
  774MOL0     C 6716   8.861   2.216  10.868  0.4273  0.4891 -0.3741
  774MOL0     C 6717   8.990   2.220  10.962  0.1927 -0.6084 -0.4665
  774MOL0     C 6718   9.119   2.209  10.884 -0.3296  0.1053  1.4202
  774MOL0    Cl 6719   9.147   2.332  10.754 -0.3364  0.5606 -0.2115
  774MOL0     C 6720   8.298   2.743  10.772 -0.6463 -0.4671  0.5428
  774MOL0     C 6721   8.240   2.756  10.644  0.0835  0.2943  0.1933
  774MOL0     O 6722   7.875   2.723  10.611  0.4172 -0.6158  0.6430
  774MOL0     C 6723   7.708   2.701  10.378 -0.3950 -0.2634 -0.6956
  774MOL0     C 6724   7.636   2.726  10.259 -0.5347  0.2329 -0.2679
  774MOL0     N 6725   7.872   2.290   9.964 -0.4227  0.9242  0.3360
  774MOL0     N 6726   7.981   2.253  10.013 -0.6112  0.3127  0.8657
  774MOL0     C 6727   9.002   2.627  10.544 -1.3571 -0.1505  0.9862
  774MOL0     C 6728   9.104   2.710  10.506 -0.1406 -1.2368  0.0323
  774MOL0     C 6729   9.378   2.984  10.237  0.5614  0.4872  0.2203
  774MOL0     C 6730   9.488   2.933  10.309  0.8538 -1.0859 -0.2430
  774MOL0     C 6731   9.587   3.030  10.336  0.5932 -0.0098  0.8048
  774MOL0     C 6732   9.603   3.151  10.277  0.4573 -0.4478  0.0903
  774MOL0     O 6733   9.709   3.239  10.289 -0.4874 -0.6645  0.5727
  774MOL0     C 6734   9.807   3.197  10.386  0.2205 -0.7272 -0.7314
  774MOL0     C 6735   9.937   3.291  10.389 -0.0691  0.7476  0.4170
  774MOL0     C 6736  10.045   3.231  10.478  0.2621  0.1892 -0.5392
  774MOL0     C 6737  10.175   3.312  10.477  0.0710  0.2240 -0.6073
  774MOL0     C 6738  10.268   3.300  10.363  0.5487 -0.1238 -0.5114
  774MOL0     C 6739  10.348   3.299  10.271  1.0235 -1.0361  0.4930
  774MOL0     C 6740   9.499   3.178  10.184 -0.2027  0.6057  0.4263
  774MOL0     C 6741   9.379   3.106  10.172 -0.5538  0.8824 -0.0449
  774MOL0     C 6742   9.262   3.162  10.100 -0.2262  0.1966  0.0120
  774MOL0     H 6743   9.115   2.643  10.178 -0.0126  0.4333  0.1027
  774MOL0     H 6744   8.940   2.494  10.227 -0.2017  0.1261  1.2602
  774MOL0     H 6745   8.777   2.496  10.669  0.6851 -1.8760 -0.6576
  774MOL0     H 6746   8.652   2.420  10.570 -1.2754  0.7089 -1.9949
  774MOL0     H 6747   8.601   2.654  10.627 -0.0006 -1.2343 -0.1916
  774MOL0     H 6748   8.756   2.718  10.547  1.4275 -1.7422  2.5087
  774MOL0     H 6749   8.564   2.776  10.422 -2.6581 -0.9574  1.0139
  774MOL0     H 6750   8.665   2.665  10.338  1.3740 -1.4506  1.0393
  774MOL0     H 6751   8.496   2.478  10.461  2.2562  0.0166  0.3024
  774MOL0     H 6752   8.385   2.614  10.393  0.2729  1.6887  0.2574
  774MOL0     H 6753   8.582   2.439  10.246 -0.7707  0.1865 -1.5105
  774MOL0     H 6754   8.463   2.535  10.166 -1.1988  0.1818  0.0960
  774MOL0     H 6755   8.403   2.292  10.197  1.0935 -2.3704  2.1671
  774MOL0     H 6756   8.362   2.318  10.359  1.5345  3.5738  1.5192
  774MOL0     H 6757   8.236   2.453  10.114 -1.8178 -3.0546 -0.6906
  774MOL0     H 6758   8.193   2.506  10.271 -1.5452  2.2135 -1.6652
  774MOL0     H 6759   8.144   2.208  10.200  0.7267 -0.2223  2.6426
  774MOL0     H 6760   8.066   2.320  10.312  1.1713  1.3456  0.0944
  774MOL0     H 6761   7.945   2.537  10.167 -2.0605 -0.6514 -0.0111
  774MOL0     H 6762   7.665   2.525  10.061 -0.9186  0.0089 -1.2681
  774MOL0     H 6763   7.650   2.433   9.921 -1.3159 -0.2734  0.2040
  774MOL0     H 6764   7.785   2.703   9.969  0.8601 -1.4949  1.2488
  774MOL0     H 6765   7.802   2.611   9.813 -2.1774 -1.4136 -0.2783
  774MOL0     H 6766   7.635   2.781   9.794 -3.0425 -0.5817 -1.7487
  774MOL0     H 6767   7.546   2.627   9.809  1.2038 -0.0970 -0.3285
  774MOL0     H 6768   7.439   2.794   9.945  0.4407 -0.0545 -1.7366
  774MOL0     H 6769   7.500   2.668  10.052 -0.6325  1.5533  3.4638
  774MOL0     H 6770   7.858   2.927  10.096  1.2668 -1.0192 -0.7109
  774MOL0     H 6771   8.040   2.976  10.206  2.9701  0.6898  0.5973
  774MOL0     H 6772   8.095   2.811  10.235 -2.8943 -1.3947 -0.2050
  774MOL0     H 6773   8.076   2.937  10.367 -0.8570  3.4963 -1.0358
  774MOL0     H 6774   8.039   2.486  10.661  0.0588  0.9425 -1.3529
  774MOL0     H 6775   8.157   2.459  10.873  2.8859  0.5971  0.2310
  774MOL0     H 6776   8.362   2.547  11.141  0.2089  0.1400 -0.7408
  774MOL0     H 6777   8.314   2.419  11.025  1.6216 -1.9177  1.6021
  774MOL0     H 6778   8.511   2.424  10.912  1.2255  2.1416 -0.9665
  774MOL0     H 6779   8.569   2.568  10.990  3.2323 -1.4095 -1.4592
  774MOL0     H 6780   8.518   2.304  11.114 -0.6645  1.0848 -0.8715
  774MOL0     H 6781   8.595   2.429  11.216 -0.5415 -0.3125 -0.1926
  774MOL0     H 6782   8.788   2.303  11.145  0.7136 -1.2290 -1.7194
  774MOL0     H 6783   8.778   2.432  11.012  0.4424  0.6132  0.8861
  774MOL0     H 6784   8.717   2.132  11.014 -3.4668 -0.7339 -1.2440
  774MOL0     H 6785   8.640   2.237  10.907 -1.2343 -0.7940  1.5113
  774MOL0     H 6786   8.860   2.308  10.809  1.2743  0.2530 -0.7641
  774MOL0     H 6787   8.860   2.133  10.798  1.7580  2.2427 -2.5986
  774MOL0     H 6788   8.989   2.137  11.033  2.3941  1.3184  2.0219
  774MOL0     H 6789   8.986   2.319  11.008  0.9374 -1.3079  1.1713
  774MOL0     H 6790   9.119   2.110  10.838  2.1572  0.0852  1.3418
  774MOL0     H 6791   9.203   2.217  10.954 -0.0851  0.8497  1.0581
  774MOL0     H 6792   8.362   2.822  10.810 -1.7853  0.9023 -0.2801
  774MOL0     H 6793   8.278   2.830  10.574  2.5765 -1.2118 -0.1872
  774MOL0     H 6794   7.674   2.632  10.453  1.6526  0.2761  0.8257
  774MOL0     H 6795   7.556   2.654  10.246 -0.4239  0.2143 -0.8865
  774MOL0     H 6796   8.964   2.640  10.645  1.3463  0.9375  1.9352
  774MOL0     H 6797   9.148   2.769  10.586 -3.4816  1.6372 -0.0123
  774MOL0     H 6798   9.485   2.842  10.368 -2.5315 -0.7479  0.2605
  774MOL0     H 6799   9.656   3.008  10.417 -0.9978  0.9339  2.5028
  774MOL0     H 6800   9.754   3.199  10.482 -2.1914 -0.7007 -1.9902
  774MOL0     H 6801   9.838   3.094  10.370 -1.5271 -1.3404 -0.3345
  774MOL0     H 6802   9.902   3.387  10.427 -3.8992 -0.6704  0.9483
  774MOL0     H 6803   9.983   3.300  10.290  0.8696  1.1048  0.8717
  774MOL0     H 6804  10.007   3.226  10.580  0.5833 -0.8408 -0.4565
  774MOL0     H 6805  10.069   3.127  10.454  0.8536  0.6496 -2.0494
  774MOL0     H 6806  10.231   3.298  10.570  0.7790  2.2472 -0.6730
  774MOL0     H 6807  10.148   3.418  10.485 -0.2697  0.1115 -0.1854
  774MOL0     H 6808  10.421   3.287  10.193  0.8027 -4.9463  0.6477
  774MOL0     H 6809   9.496   3.275  10.135 -0.5740  0.3234 -0.1342
  774MOL0     H 6810   9.266   3.271  10.097 -1.1228  0.2142 -1.1236
  774MOL0     H 6811   9.270   3.134   9.994  1.7603 -0.0330  0.1776
  774MOL0     H 6812   9.164   3.139  10.143 -1.3563  4.7164  0.3262
  775MOL0     O 6813   8.887   7.935   0.240  0.4151  0.2484  0.0306
  775MOL0     C 6814   8.945   7.892   0.133 -0.3102 -0.8300 -0.1967
  775MOL0     O 6815   8.936   7.953   0.010  0.1863  0.0381  0.4494
  775MOL0     C 6816   8.864   8.063  -0.026 -0.7396 -0.3441 -0.1608
  775MOL0     C 6817   8.864   8.112  -0.162 -1.0959 -0.1043  0.0214
  775MOL0     C 6818   8.784   8.216  -0.205 -0.3227 -0.6019  0.2377
  775MOL0     C 6819   8.694   8.283  -0.115  0.7888 -0.1048  0.4638
  775MOL0     O 6820   8.616   8.380  -0.155  0.3168 -0.6554 -0.1723
  775MOL0     C 6821   8.577   8.400  -0.291  0.2168 -0.0745  0.5640
  775MOL0     C 6822   8.467   8.499  -0.284 -0.0250  0.9200  0.6121
  775MOL0     C 6823   8.404   8.516  -0.422 -0.4260  0.1020  0.2182
  775MOL0     C 6824   8.275   8.429  -0.432 -0.9695  0.0844 -0.9972
  775MOL0     C 6825   8.200   8.449  -0.564 -0.5264 -0.0392  0.3757
  775MOL0     C 6826   8.072   8.365  -0.579  0.2399  0.2306 -0.1819
  775MOL0     C 6827   8.007   8.325  -0.717 -1.4371 -0.9702  0.2775
  775MOL0     C 6828   7.982   8.451  -0.804 -0.9318 -0.2380 -0.1321
  775MOL0     N 6829   7.929   8.416  -0.933  0.4929 -0.2168 -0.8396
  775MOL0     C 6830   7.988   8.422  -1.051 -0.3196  0.2524 -0.1594
  775MOL0     C 6831   7.891   8.376  -1.140 -0.0605 -0.4739 -0.9485
  775MOL0     C 6832   7.935   8.355  -1.276 -0.2236  0.0338  0.3183
  775MOL0     C 6833   7.949   8.194  -1.299  0.4707  0.7026  1.2886
  775MOL0     C 6834   8.050   8.125  -1.210  0.7900  0.6874  0.8976
  775MOL0     C 6835   8.192   8.172  -1.211  0.8362  0.0864  0.3545
  775MOL0     O 6836   8.266   8.143  -1.335  0.3713 -0.8678  0.0493
  775MOL0     C 6837   8.399   8.154  -1.324  0.0401  0.0469 -1.0197
  775MOL0     C 6838   8.480   8.072  -1.399 -0.3904  0.2601 -0.5385
  775MOL0     C 6839   8.618   8.082  -1.410 -0.6945 -0.1626  0.2543
  775MOL0     C 6840   8.696   7.963  -1.477  0.0121 -0.2914  0.7040
  775MOL0     C 6841   8.687   8.183  -1.340 -0.0588  0.9687  0.5194
  775MOL0     C 6842   8.832   8.186  -1.317 -0.5607  0.3701 -0.6484
  775MOL0     O 6843   8.878   8.203  -1.193  0.9319  0.6392 -0.4468
  775MOL0     C 6844   9.007   8.246  -1.167 -0.3661 -0.2162  0.3766
  775MOL0     C 6845   9.126   8.219  -1.236 -0.5817  0.1492 -1.4764
  775MOL0     C 6846   9.250   8.249  -1.174  0.0277 -0.7577 -0.1841
  775MOL0     C 6847   9.249   8.339  -1.064 -0.5659  0.7188  0.8565
  775MOL0     O 6848   9.372   8.365  -1.009 -0.4150  0.0686  0.9538
  775MOL0     C 6849   9.402   8.373  -0.872 -0.2947  0.0275  0.1145
  775MOL0     C 6850   9.422   8.231  -0.812 -0.0527 -0.4099  0.3434
  775MOL0     C 6851   9.559   8.180  -0.829  0.6921 -0.1262  0.3622
  775MOL0     C 6852   9.572   8.039  -0.776 -0.4661  1.2048  0.7130
  775MOL0     C 6853   9.725   8.000  -0.771 -0.4201 -0.3462 -0.0225
  775MOL0     C 6854   9.812   8.049  -0.898  0.0152 -1.2657  0.0299
  775MOL0     C 6855   9.958   8.017  -0.864 -0.3285  0.6069 -0.2851
  775MOL0     C 6856  10.041   8.139  -0.906 -0.2505  0.3974  0.0737
  775MOL0    Cl 6857  10.047   8.139  -1.087  0.4182  0.3612  0.1101
  775MOL0     C 6858   9.130   8.366  -1.005  0.0856  0.8488  0.9977
  775MOL0     C 6859   9.012   8.321  -1.050 -0.2541 -0.0075 -0.3690
  775MOL0     O 6860   8.907   8.175  -1.417 -0.2012 -0.3877 -0.6270
  775MOL0     C 6861   8.601   8.287  -1.283 -0.2768  0.3718 -0.3893
  775MOL0     C 6862   8.466   8.269  -1.270 -0.4636 -0.7001  0.5662
  775MOL0     N 6863   7.781   8.340  -1.065  0.9340  0.2744 -0.0965
  775MOL0     N 6864   7.804   8.369  -0.943 -0.8851 -0.4362 -0.1000
  775MOL0     C 6865   8.693   8.239   0.017  0.5256 -0.0947 -0.2089
  775MOL0     C 6866   8.779   8.135   0.059  0.5092  0.0926  0.8979
  775MOL0     C 6867   9.025   7.770   0.149  0.3008  0.2387 -0.0530
  775MOL0     C 6868   9.160   7.763   0.121  0.0954 -0.4606  0.0636
  775MOL0     C 6869   9.231   7.654   0.163 -0.0393 -0.7880 -0.2800
  775MOL0     C 6870   9.172   7.541   0.216  0.7955 -0.6684  0.5907
  775MOL0     O 6871   9.254   7.451   0.267  0.0891  0.1504  0.6612
  775MOL0     C 6872   9.209   7.410   0.396 -0.1540  0.1621 -0.4875
  775MOL0     C 6873   9.201   7.533   0.497  0.9292  0.6545  0.9574
  775MOL0     C 6874   9.199   7.503   0.647 -0.8258 -0.4166  0.2209
  775MOL0     C 6875   9.196   7.647   0.709  0.4815 -0.4906  1.4679
  775MOL0     C 6876   9.062   7.714   0.699 -0.1615  0.1683 -0.3600
  775MOL0     C 6877   8.973   7.799   0.683  1.1056 -0.0982  0.2210
  775MOL0     C 6878   9.036   7.538   0.225  0.5097 -0.8806  0.4848
  775MOL0     C 6879   8.963   7.654   0.205  0.7127  0.1648  0.9602
  775MOL0     C 6880   8.812   7.653   0.250 -0.5387  0.5316 -0.1817
  775MOL0     H 6881   8.932   8.049  -0.219  1.8723 -1.0164  4.0794
  775MOL0     H 6882   8.808   8.245  -0.306  0.9306 -0.3523  0.5908
  775MOL0     H 6883   8.538   8.310  -0.340 -0.3001  1.1874 -1.4833
  775MOL0     H 6884   8.664   8.440  -0.343  0.0081  0.8300  0.8934
  775MOL0     H 6885   8.395   8.470  -0.207  0.3436  2.4415  1.5732
  775MOL0     H 6886   8.514   8.594  -0.257  0.3160  0.7892  0.4829
  775MOL0     H 6887   8.377   8.622  -0.424 -2.9024 -0.4683 -0.1527
  775MOL0     H 6888   8.464   8.478  -0.505 -0.1279  1.0833 -0.0298
  775MOL0     H 6889   8.316   8.327  -0.439 -1.2035  0.0529 -2.0598
  775MOL0     H 6890   8.203   8.435  -0.350 -2.0964  2.0424 -2.0779
  775MOL0     H 6891   8.269   8.430  -0.647 -2.5618 -0.4276 -1.3148
  775MOL0     H 6892   8.170   8.554  -0.562 -1.9080 -0.4316  1.5677
  775MOL0     H 6893   8.091   8.272  -0.526  0.3032  1.9604  3.1120
  775MOL0     H 6894   7.997   8.425  -0.525  1.1656 -0.7355  2.3290
  775MOL0     H 6895   7.913   8.273  -0.698 -1.1866 -0.5672  2.9271
  775MOL0     H 6896   8.070   8.251  -0.768 -0.0332  0.6036 -0.3989
  775MOL0     H 6897   7.919   8.523  -0.750  0.3930  0.9313 -0.0770
  775MOL0     H 6898   8.079   8.500  -0.820 -0.3079 -1.3492  0.1150
  775MOL0     H 6899   8.092   8.453  -1.058 -0.4079  1.6521  2.9679
  775MOL0     H 6900   8.030   8.405  -1.298  0.2299 -2.1585 -3.6667
  775MOL0     H 6901   7.859   8.403  -1.337  0.0572  0.9011  0.6319
  775MOL0     H 6902   7.850   8.147  -1.295  1.1264 -0.9818 -0.5428
  775MOL0     H 6903   8.003   8.176  -1.392  0.9012  3.2365  0.9796
  775MOL0     H 6904   7.998   8.123  -1.113 -2.0314  0.6033 -0.5036
  775MOL0     H 6905   8.055   8.024  -1.250  0.6529  1.5645 -1.5373
  775MOL0     H 6906   8.175   8.280  -1.203 -1.4402 -0.3520  3.7512
  775MOL0     H 6907   8.243   8.140  -1.120  1.0826  0.8904  0.5066
  775MOL0     H 6908   8.417   7.997  -1.447 -0.9734 -0.4915  1.3261
  775MOL0     H 6909   8.730   7.978  -1.580 -0.7509 -0.9770  0.3403
  775MOL0     H 6910   8.624   7.881  -1.488  2.5884 -2.7575  0.8178
  775MOL0     H 6911   8.782   7.931  -1.417  0.2158  0.5294  0.8622
  775MOL0     H 6912   9.120   8.159  -1.327 -0.2656 -1.5998 -0.3864
  775MOL0     H 6913   9.348   8.212  -1.203  0.8092  1.2550 -0.2751
  775MOL0     H 6914   9.490   8.436  -0.857  0.4728 -1.5704  3.2281
  775MOL0     H 6915   9.322   8.416  -0.812  1.5066  1.6838  1.4494
  775MOL0     H 6916   9.417   8.240  -0.704  3.7452 -0.0404  0.5971
  775MOL0     H 6917   9.338   8.167  -0.842 -1.7697  1.6666  0.4041
  775MOL0     H 6918   9.622   8.252  -0.774  1.4289 -0.1784 -0.3928
  775MOL0     H 6919   9.588   8.183  -0.934  3.2116 -3.1134  0.8338
  775MOL0     H 6920   9.530   7.971  -0.851 -0.8505  1.5665  0.5939
  775MOL0     H 6921   9.515   8.022  -0.684  2.4978 -1.2486  2.2833
  775MOL0     H 6922   9.772   8.050  -0.686  2.6775  1.1825 -2.4302
  775MOL0     H 6923   9.743   7.895  -0.748 -1.4232  0.0083  2.6958
  775MOL0     H 6924   9.789   8.156  -0.906  0.4110 -1.1704  0.1745
  775MOL0     H 6925   9.785   8.001  -0.993  0.2670 -2.8301  0.7220
  775MOL0     H 6926   9.999   7.937  -0.927 -0.1156 -0.2895  0.9588
  775MOL0     H 6927   9.973   7.987  -0.760 -0.7655  0.9087 -0.1316
  775MOL0     H 6928  10.144   8.137  -0.868 -0.5421  1.9985  1.0505
  775MOL0     H 6929   9.993   8.229  -0.868  2.2327  1.1852  1.6384
  775MOL0     H 6930   9.138   8.423  -0.914 -0.2902  1.0166  0.9280
  775MOL0     H 6931   8.924   8.322  -0.988  1.5213  1.4088  2.3440
  775MOL0     H 6932   8.669   8.368  -1.255  0.9335 -0.8004  0.1837
  775MOL0     H 6933   8.427   8.358  -1.220  0.1249  0.6231 -1.2235
  775MOL0     H 6934   8.627   8.288   0.087  2.3658  0.0683  1.5226
  775MOL0     H 6935   8.776   8.122   0.167 -3.7737  1.5683  1.1621
  775MOL0     H 6936   9.216   7.849   0.086  2.2137 -2.4612 -1.8002
  775MOL0     H 6937   9.338   7.658   0.147 -0.2561  2.6691 -1.9145
  775MOL0     H 6938   9.119   7.349   0.384  1.6360 -2.3724 -2.3708
  775MOL0     H 6939   9.278   7.329   0.422 -0.7582 -0.9854 -2.1860
  775MOL0     H 6940   9.103   7.580   0.487  2.0725  3.0510  0.2802
  775MOL0     H 6941   9.277   7.606   0.468  2.0075 -0.5504  0.6589
  775MOL0     H 6942   9.107   7.453   0.678 -0.8153 -0.1443  0.6994
  775MOL0     H 6943   9.296   7.462   0.676 -1.0881 -2.3168 -1.4118
  775MOL0     H 6944   9.266   7.717   0.663 -3.7223  1.6125 -2.4855
  775MOL0     H 6945   9.219   7.621   0.813  2.3084 -3.6695  0.3996
  775MOL0     H 6946   8.893   7.868   0.667  0.1945  0.4882  5.4836
  775MOL0     H 6947   8.982   7.452   0.262  1.2824 -1.1928  0.9195
  775MOL0     H 6948   8.797   7.655   0.358 -1.7995  1.0744 -0.3571
  775MOL0     H 6949   8.749   7.732   0.208  1.4274  0.3689 -3.8192
  775MOL0     H 6950   8.771   7.561   0.207 -1.0973  0.2816  0.8621
  776MOL0     O 6951   5.557   0.714   7.974  0.4953 -0.7973  0.1303
  776MOL0     C 6952   5.474   0.649   7.910 -0.2043  1.2578  0.5746
  776MOL0     O 6953   5.501   0.524   7.868  0.5386  0.0993  0.2880
  776MOL0     C 6954   5.590   0.455   7.955 -0.0157  0.1879  0.4840
  776MOL0     C 6955   5.722   0.501   7.958 -0.1318  0.2545  0.5131
  776MOL0     C 6956   5.814   0.436   8.039 -0.6593 -0.6859 -0.6635
  776MOL0     C 6957   5.771   0.334   8.128  0.0867  0.7736  0.0482
  776MOL0     O 6958   5.870   0.279   8.212 -0.2466  0.2700  0.2739
  776MOL0     C 6959   5.859   0.159   8.285  0.2726  0.5012  0.3430
  776MOL0     C 6960   5.898   0.034   8.211  0.8364  1.0472 -0.2295
  776MOL0     C 6961   6.052   0.041   8.193  0.4400  0.3044 -1.1419
  776MOL0     C 6962   6.115  -0.031   8.074  0.7549 -0.3721  0.4909
  776MOL0     C 6963   6.131   0.064   7.952  0.8130 -1.3125 -0.5923
  776MOL0     C 6964   6.245   0.166   7.951 -0.5484  0.1573 -0.2009
  776MOL0     C 6965   6.375   0.091   7.927  0.1643  0.5158  0.2488
  776MOL0     C 6966   6.489   0.175   7.873  0.6803 -0.2780 -0.1102
  776MOL0     N 6967   6.599   0.080   7.846 -0.5819  0.3071  0.6511
  776MOL0     C 6968   6.720   0.124   7.802  0.0465  0.5100  0.4178
  776MOL0     C 6969   6.808   0.028   7.842 -0.2540 -0.1350 -0.4823
  776MOL0     C 6970   6.955   0.025   7.802  0.5660  0.1617  0.3140
  776MOL0     C 6971   7.034   0.130   7.880 -0.2144  0.5296  0.4190
  776MOL0     C 6972   7.175   0.140   7.809  0.1622  0.3829  0.3934
  776MOL0     C 6973   7.178   0.192   7.658  0.2303 -1.0265  0.0426
  776MOL0     O 6974   7.313   0.182   7.610  0.3271 -0.9311  0.4506
  776MOL0     C 6975   7.344   0.188   7.475 -0.2486 -0.4213  0.6197
  776MOL0     C 6976   7.255   0.245   7.388 -0.6815 -0.2085 -0.3890
  776MOL0     C 6977   7.278   0.263   7.253 -0.0904  0.2550  0.2605
  776MOL0     C 6978   7.165   0.314   7.162 -0.2864  0.1094 -0.3804
  776MOL0     C 6979   7.407   0.228   7.201  0.7215 -0.4791 -1.6243
  776MOL0     C 6980   7.445   0.260   7.062 -0.8729  0.2320  0.3761
  776MOL0     O 6981   7.584   0.285   7.040 -0.1155 -1.0091 -1.0964
  776MOL0     C 6982   7.631   0.301   6.912  0.7596  0.3996 -0.6528
  776MOL0     C 6983   7.650   0.430   6.863 -0.8256 -1.0595 -0.5098
  776MOL0     C 6984   7.708   0.450   6.733  1.2389 -0.6843  0.2421
  776MOL0     C 6985   7.738   0.341   6.661  0.3343  0.9360  0.5496
  776MOL0     O 6986   7.784   0.360   6.533 -0.1549  0.1244 -0.6534
  776MOL0     C 6987   7.854   0.248   6.471  0.0282  0.3716  0.6305
  776MOL0     C 6988   7.972   0.305   6.386  0.4590 -0.0660 -0.1340
  776MOL0     C 6989   7.930   0.379   6.264  0.2749  0.2186 -0.0814
  776MOL0     C 6990   7.887   0.279   6.144 -0.2770  0.9231 -2.2382
  776MOL0     C 6991   7.852   0.370   6.017  0.4735 -0.1336 -0.3367
  776MOL0     C 6992   7.983   0.383   5.939  0.4034 -1.2297  0.1255
  776MOL0     C 6993   7.960   0.501   5.832  0.7982 -0.7558  0.4362
  776MOL0     C 6994   8.089   0.546   5.761  0.8514  0.7467  0.0114
  776MOL0    Cl 6995   8.188   0.645   5.877 -0.5389 -0.0061 -0.5117
  776MOL0     C 6996   7.699   0.212   6.698  0.5497 -0.5236 -0.1079
  776MOL0     C 6997   7.653   0.193   6.829 -0.4586  0.7204  0.6955
  776MOL0     O 6998   7.363   0.256   6.968 -0.8578 -0.3802  0.0359
  776MOL0     C 6999   7.493   0.158   7.287 -0.4239 -0.4640 -0.6111
  776MOL0     C 7000   7.466   0.137   7.422  0.7009  0.4616 -0.1402
  776MOL0     N 7001   6.748  -0.060   7.932 -0.0824  0.3337 -0.6301
  776MOL0     N 7002   6.626  -0.018   7.940  0.0373 -0.0959 -0.1799
  776MOL0     C 7003   5.640   0.288   8.124  0.4558 -0.3966 -0.4253
  776MOL0     C 7004   5.549   0.358   8.045 -0.6627  0.1217 -0.4188
  776MOL0     C 7005   5.344   0.707   7.868  0.3089 -0.0977  0.1823
  776MOL0     C 7006   5.249   0.614   7.825 -0.2025 -0.1153  1.0303
  776MOL0     C 7007   5.119   0.660   7.797  0.0019  0.6003 -0.4963
  776MOL0     C 7008   5.093   0.797   7.777 -1.0672  0.0358  0.4694
  776MOL0     O 7009   4.971   0.820   7.712 -0.5173  1.0006  0.4149
  776MOL0     C 7010   4.959   0.939   7.637 -0.4105 -0.6458  0.1092
  776MOL0     C 7011   4.845   0.934   7.529  0.4378  0.1418 -0.0337
  776MOL0     C 7012   4.821   0.796   7.465  0.7986  0.7127 -0.7003
  776MOL0     C 7013   4.946   0.756   7.386 -0.6957  0.1647 -0.7845
  776MOL0     C 7014   4.908   0.623   7.334  0.4895  0.8590  0.4521
  776MOL0     C 7015   4.898   0.506   7.298  0.3255  0.3957 -0.0660
  776MOL0     C 7016   5.195   0.883   7.809  0.9586 -1.2397 -0.7848
  776MOL0     C 7017   5.320   0.849   7.863  0.1108 -0.0114  0.3960
  776MOL0     C 7018   5.401   0.960   7.919  1.0379 -0.3968 -0.1210
  776MOL0     H 7019   5.750   0.584   7.894 -0.8038  0.5954  0.6427
  776MOL0     H 7020   5.913   0.479   8.051 -2.2542  2.8924  1.4997
  776MOL0     H 7021   5.756   0.145   8.317 -0.0660 -3.5614 -1.8899
  776MOL0     H 7022   5.914   0.164   8.380  0.1367  1.2170  0.3916
  776MOL0     H 7023   5.870  -0.063   8.254 -0.7561  1.3757 -0.4458
  776MOL0     H 7024   5.878   0.042   8.104  1.7398  1.6857 -0.3633
  776MOL0     H 7025   6.094   0.141   8.180  1.4760  0.0311 -0.0549
  776MOL0     H 7026   6.098   0.003   8.285 -0.0167  1.0299 -0.6005
  776MOL0     H 7027   6.214  -0.065   8.106  1.0472 -3.3243 -2.8884
  776MOL0     H 7028   6.049  -0.112   8.043 -3.6892  3.5529 -1.6479
  776MOL0     H 7029   6.038   0.121   7.942  1.3259  0.3000  2.5459
  776MOL0     H 7030   6.146   0.011   7.858  0.4563 -1.1752 -0.7279
  776MOL0     H 7031   6.223   0.232   7.867 -1.1256  0.5157  0.2241
  776MOL0     H 7032   6.254   0.223   8.045 -2.4746  2.0047 -1.0551
  776MOL0     H 7033   6.352   0.018   7.849 -0.5845  1.5936 -0.5631
  776MOL0     H 7034   6.412   0.043   8.018  2.2822  0.3861 -0.6101
  776MOL0     H 7035   6.459   0.227   7.782  1.6249 -0.4561 -0.5307
  776MOL0     H 7036   6.509   0.252   7.948 -0.9299  0.8617 -0.7848
  776MOL0     H 7037   6.738   0.181   7.711  1.7414 -1.8639 -0.8217
  776MOL0     H 7038   6.964   0.043   7.695  2.3758 -3.1035 -0.1920
  776MOL0     H 7039   7.002  -0.073   7.813  0.5474  0.0460 -0.5849
  776MOL0     H 7040   6.973   0.221   7.874 -0.6402  0.3453  1.7050
  776MOL0     H 7041   7.053   0.110   7.986  1.4532  0.3873  0.1189
  776MOL0     H 7042   7.248   0.191   7.872 -1.2768  3.5565 -0.3085
  776MOL0     H 7043   7.209   0.037   7.794  1.2174  0.7133  0.4510
  776MOL0     H 7044   7.132   0.111   7.601  3.4458 -0.5996 -3.5605
  776MOL0     H 7045   7.136   0.288   7.623 -2.9434 -3.3586 -3.3334
  776MOL0     H 7046   7.160   0.287   7.421 -1.5047 -1.3954 -1.1834
  776MOL0     H 7047   7.141   0.241   7.083 -0.6804 -0.6849  0.4548
  776MOL0     H 7048   7.193   0.410   7.119 -1.1942  2.0708  3.0874
  776MOL0     H 7049   7.080   0.343   7.224 -0.3107 -1.1002  0.1792
  776MOL0     H 7050   7.646   0.518   6.926  4.2875  2.1271 -3.9292
  776MOL0     H 7051   7.733   0.545   6.688 -0.9036  1.0846  2.5038
  776MOL0     H 7052   7.907   0.180   6.539  1.5697  2.1052  1.2218
  776MOL0     H 7053   7.780   0.188   6.417 -1.6889 -1.1258  4.2478
  776MOL0     H 7054   8.022   0.380   6.448  0.7881  0.6739 -1.2704
  776MOL0     H 7055   8.043   0.224   6.365  2.0672  1.8516 -2.5316
  776MOL0     H 7056   7.998   0.463   6.242 -0.5405  0.7820 -0.4934
  776MOL0     H 7057   7.844   0.438   6.296 -0.4265 -1.9516  2.3247
  776MOL0     H 7058   7.819   0.204   6.186  0.9535  1.1655  0.4225
  776MOL0     H 7059   7.982   0.232   6.120 -0.2298 -1.6378  1.9574
  776MOL0     H 7060   7.771   0.319   5.964  1.6657 -1.0054 -1.3883
  776MOL0     H 7061   7.818   0.466   6.058  1.2843  0.0269 -0.0343
  776MOL0     H 7062   8.005   0.294   5.880 -0.4736 -0.2944 -1.7344
  776MOL0     H 7063   8.059   0.397   6.017 -4.1936  2.1464  4.6706
  776MOL0     H 7064   7.893   0.570   5.884 -0.0033 -1.0345 -0.2238
  776MOL0     H 7065   7.914   0.449   5.749  1.4254  1.3234 -1.3074
  776MOL0     H 7066   8.077   0.591   5.662  1.1131 -0.0318 -0.3844
  776MOL0     H 7067   8.151   0.457   5.744  2.2692  1.6130  0.4423
  776MOL0     H 7068   7.710   0.131   6.627  0.1572 -1.0260  0.3884
  776MOL0     H 7069   7.630   0.091   6.860 -5.7597  1.4823  0.1927
  776MOL0     H 7070   7.587   0.115   7.253 -0.9172 -1.7676 -0.3852
  776MOL0     H 7071   7.536   0.099   7.496  2.0694 -0.4876 -1.8431
  776MOL0     H 7072   5.605   0.209   8.189  0.3403  0.5870  0.7506
  776MOL0     H 7073   5.445   0.326   8.044 -0.3113 -1.0396 -0.9794
  776MOL0     H 7074   5.261   0.506   7.829  0.1840 -0.2241 -1.6171
  776MOL0     H 7075   5.051   0.580   7.769  1.6090 -0.9755 -0.1365
  776MOL0     H 7076   4.944   1.028   7.698  1.8900  2.1821 -3.0375
  776MOL0     H 7077   5.050   0.952   7.576 -0.0621 -0.9450  0.5625
  776MOL0     H 7078   4.865   1.006   7.448 -1.4096 -0.8197 -1.4228
  776MOL0     H 7079   4.748   0.966   7.568  0.6201  0.4535  0.1668
  776MOL0     H 7080   4.799   0.730   7.549  1.6953  3.4330  1.8197
  776MOL0     H 7081   4.728   0.797   7.407 -2.9249  0.6874  4.5086
  776MOL0     H 7082   5.041   0.751   7.441 -0.0118  4.5609 -1.2041
  776MOL0     H 7083   4.970   0.835   7.315 -1.0872  0.6077 -0.4270
  776MOL0     H 7084   4.872   0.406   7.270 -2.4418 -0.3835  4.3258
  776MOL0     H 7085   5.181   0.988   7.787 -1.6992 -1.4774 -0.6170
  776MOL0     H 7086   5.508   0.939   7.918  0.5011 -3.9138  1.5970
  776MOL0     H 7087   5.389   1.057   7.869  0.0788  0.3034  1.3905
  776MOL0     H 7088   5.377   0.972   8.026  1.2384  1.0615 -0.2210
  777MOL0     O 7089   3.728   0.312   1.858 -0.2620  0.6568 -0.3547
  777MOL0     C 7090   3.724   0.429   1.834  0.0459 -0.7980 -1.0088
  777MOL0     O 7091   3.663   0.525   1.904 -0.6665  0.1171 -0.2651
  777MOL0     C 7092   3.613   0.490   2.027 -0.0860 -0.6360  0.1437
  777MOL0     C 7093   3.511   0.413   2.053  0.0742 -0.1305 -0.5502
  777MOL0     C 7094   3.464   0.394   2.182  0.1733  0.3227  0.1580
  777MOL0     C 7095   3.532   0.455   2.286 -0.3960 -0.4130  0.5113
  777MOL0     O 7096   3.485   0.446   2.410 -0.2214  0.3555  0.0968
  777MOL0     C 7097   3.349   0.487   2.432  0.1946 -0.0554  0.5642
  777MOL0     C 7098   3.359   0.613   2.512 -0.5844 -0.1120 -0.0136
  777MOL0     C 7099   3.212   0.654   2.574 -0.6859 -0.0390  0.7361
  777MOL0     C 7100   3.220   0.760   2.684  0.2070 -0.2790 -0.5278
  777MOL0     C 7101   3.274   0.892   2.638 -0.4794  0.4695  0.4775
  777MOL0     C 7102   3.187   1.008   2.675  0.4830  0.6690  0.3452
  777MOL0     C 7103   3.251   1.138   2.623 -0.2519 -0.6312 -0.0349
  777MOL0     C 7104   3.268   1.240   2.739  0.0805 -0.2291  0.7150
  777MOL0     N 7105   3.337   1.189   2.852 -0.0429  0.5893 -0.4970
  777MOL0     C 7106   3.462   1.142   2.845  0.2475  0.8091  0.7016
  777MOL0     C 7107   3.491   1.108   2.973 -1.0232  0.4586 -0.5759
  777MOL0     C 7108   3.618   1.038   3.005  0.1881  0.9275  0.1727
  777MOL0     C 7109   3.597   0.952   3.132 -1.0317  0.3907  0.7321
  777MOL0     C 7110   3.712   0.868   3.187  0.2474 -0.6583  1.1667
  777MOL0     C 7111   3.831   0.959   3.222  0.6587 -0.5059  0.1234
  777MOL0     O 7112   3.942   0.865   3.220 -0.4519  0.9641 -0.6958
  777MOL0     C 7113   4.059   0.916   3.291  1.0568 -0.8349 -0.1918
  777MOL0     C 7114   4.084   1.054   3.299 -0.2708 -0.1926  0.8252
  777MOL0     C 7115   4.191   1.113   3.379  0.4642 -0.1742  1.1120
  777MOL0     C 7116   4.224   1.264   3.374  0.1370 -0.4641 -0.1364
  777MOL0     C 7117   4.274   1.029   3.450  0.0455  0.2257 -0.5437
  777MOL0     C 7118   4.382   1.061   3.542 -0.2725  0.4032 -0.3398
  777MOL0     O 7119   4.444   0.961   3.613  0.0468 -0.1414  0.1413
  777MOL0     C 7120   4.539   0.984   3.708 -0.2985 -0.5093 -0.2013
  777MOL0     C 7121   4.653   1.068   3.687 -0.4662 -0.4103  0.5504
  777MOL0     C 7122   4.759   1.057   3.775 -0.1902  0.0905  0.8749
  777MOL0     C 7123   4.751   1.002   3.903 -1.2995 -0.0814  0.6509
  777MOL0     O 7124   4.861   0.998   3.998 -0.2586  0.7296  0.3347
  777MOL0     C 7125   4.997   1.024   3.948  0.6763  0.2322 -0.1305
  777MOL0     C 7126   5.083   0.984   4.064 -1.3996  0.0166 -1.5222
  777MOL0     C 7127   5.225   1.017   4.027 -0.7807  0.1589 -0.6756
  777MOL0     C 7128   5.321   0.974   4.139 -0.7592 -0.2774  0.2503
  777MOL0     C 7129   5.468   1.002   4.092 -0.3484 -0.6508 -0.3866
  777MOL0     C 7130   5.506   0.901   3.985  0.4144  0.2009  0.3545
  777MOL0     C 7131   5.658   0.899   3.954  0.0409  0.5185  0.3855
  777MOL0     C 7132   5.690   0.764   3.882 -0.5535 -0.9915  0.0230
  777MOL0    Cl 7133   5.582   0.739   3.746 -0.3552  0.1316  0.4249
  777MOL0     C 7134   4.635   0.943   3.933  0.5170  0.2945  0.2736
  777MOL0     C 7135   4.526   0.934   3.845  0.8790 -0.8841  0.8426
  777MOL0     O 7136   4.401   1.181   3.566 -0.6640  0.2342 -0.7436
  777MOL0     C 7137   4.266   0.885   3.431  0.0580 -1.0212  0.7332
  777MOL0     C 7138   4.157   0.832   3.349 -0.4022 -0.7850  0.1807
  777MOL0     N 7139   3.387   1.133   3.053 -0.0099  0.3321  0.6074
  777MOL0     N 7140   3.295   1.196   2.984  0.2908 -0.1745 -0.3217
  777MOL0     C 7141   3.646   0.531   2.268  0.5653  0.4949  0.3747
  777MOL0     C 7142   3.681   0.546   2.133 -0.5974  0.1073  0.4897
  777MOL0     C 7143   3.785   0.472   1.709 -0.4430 -1.6579 -0.7152
  777MOL0     C 7144   3.893   0.399   1.670 -0.2027  0.0283  0.1107
  777MOL0     C 7145   3.939   0.406   1.538 -0.5868 -0.2547 -0.6269
  777MOL0     C 7146   3.896   0.501   1.450 -0.3206 -1.5436  0.0844
  777MOL0     O 7147   3.954   0.525   1.332  0.4546  1.0830  0.4225
  777MOL0     C 7148   4.070   0.610   1.325  0.6971  0.1611 -0.2602
  777MOL0     C 7149   4.095   0.609   1.172 -0.0414  0.2679  0.6934
  777MOL0     C 7150   4.204   0.696   1.127  0.8610 -0.3954  0.3296
  777MOL0     C 7151   4.339   0.644   1.176  1.0327 -0.3186 -0.2539
  777MOL0     C 7152   4.378   0.513   1.127 -0.5756 -0.0153  0.1200
  777MOL0     C 7153   4.399   0.406   1.071 -0.1400 -0.3494 -0.5806
  777MOL0     C 7154   3.797   0.592   1.496  0.3259 -0.8634  0.0887
  777MOL0     C 7155   3.733   0.581   1.621 -1.3607  0.8733 -0.3610
  777MOL0     C 7156   3.624   0.677   1.668 -0.0422  0.3263 -0.8998
  777MOL0     H 7157   3.471   0.373   1.960  0.9698  1.8472 -1.8778
  777MOL0     H 7158   3.370   0.341   2.193  0.1847  0.7676  3.4166
  777MOL0     H 7159   3.306   0.413   2.501 -0.1652  1.1525  1.6720
  777MOL0     H 7160   3.296   0.504   2.338  0.6037 -0.2713  0.2927
  777MOL0     H 7161   3.416   0.610   2.606 -2.1750 -0.5801  0.9767
  777MOL0     H 7162   3.404   0.694   2.455  0.3202 -1.4648 -1.2823
  777MOL0     H 7163   3.166   0.691   2.482 -0.6689 -1.3911  0.1574
  777MOL0     H 7164   3.171   0.558   2.609  1.2580 -0.5331  1.7868
  777MOL0     H 7165   3.123   0.776   2.733  0.8111  1.2241  0.2289
  777MOL0     H 7166   3.276   0.728   2.773 -0.2919  2.4217  0.8471
  777MOL0     H 7167   3.291   0.888   2.530 -2.0970 -3.2106  0.2180
  777MOL0     H 7168   3.376   0.903   2.675 -0.8254  1.1972  1.2681
  777MOL0     H 7169   3.089   0.990   2.630 -0.2019  0.5046  1.8603
  777MOL0     H 7170   3.160   1.005   2.781  1.1241  0.0138  0.4940
  777MOL0     H 7171   3.188   1.178   2.543 -1.4190  0.3639  1.3608
  777MOL0     H 7172   3.356   1.130   2.592 -0.6430 -0.0297 -1.6292
  777MOL0     H 7173   3.319   1.329   2.703  0.9033 -0.8989  0.1971
  777MOL0     H 7174   3.173   1.290   2.759  1.8164  3.8984 -0.3869
  777MOL0     H 7175   3.530   1.134   2.761 -2.2149 -2.6999 -1.2190
  777MOL0     H 7176   3.694   1.112   3.034  1.0175  0.1468  0.0559
  777MOL0     H 7177   3.651   0.974   2.922 -0.1083 -0.7187  1.2606
  777MOL0     H 7178   3.557   1.014   3.213  0.8202  2.6029  0.0568
  777MOL0     H 7179   3.514   0.885   3.108 -0.6220  0.3435 -0.5895
  777MOL0     H 7180   3.679   0.806   3.271 -1.2884 -0.2109  0.9144
  777MOL0     H 7181   3.739   0.815   3.094 -1.5176  3.3798 -1.9450
  777MOL0     H 7182   3.843   1.035   3.144 -1.1698  1.0507  1.2430
  777MOL0     H 7183   3.800   1.002   3.318  0.9236 -0.4201  0.1728
  777MOL0     H 7184   4.018   1.131   3.261 -1.4457 -0.6679  1.8697
  777MOL0     H 7185   4.187   1.318   3.462 -0.6993 -1.3668  0.0865
  777MOL0     H 7186   4.170   1.305   3.288 -1.1933 -2.3542 -0.2504
  777MOL0     H 7187   4.331   1.277   3.362 -0.0804  3.3193  0.7572
  777MOL0     H 7188   4.660   1.113   3.589 -3.2079 -2.0687 -0.5414
  777MOL0     H 7189   4.856   1.098   3.748  0.2081 -0.6933  1.0705
  777MOL0     H 7190   5.005   0.956   3.863 -2.0735  1.0673 -1.1577
  777MOL0     H 7191   4.997   1.129   3.918 -0.5576 -0.1163 -1.4489
  777MOL0     H 7192   5.054   1.024   4.161 -0.5394 -0.2419 -1.1542
  777MOL0     H 7193   5.068   0.875   4.066 -3.1113  0.1914  1.5092
  777MOL0     H 7194   5.230   1.122   3.997 -1.1578  0.0717 -1.0476
  777MOL0     H 7195   5.243   0.955   3.938  0.9771 -0.8367  0.3184
  777MOL0     H 7196   5.308   0.873   4.178 -0.5320 -0.7184 -0.7963
  777MOL0     H 7197   5.311   1.037   4.228  1.1529 -1.5571  1.4458
  777MOL0     H 7198   5.467   1.101   4.046 -3.5389  0.5351  1.8637
  777MOL0     H 7199   5.536   0.995   4.177 -2.3064  2.7692  1.6831
  777MOL0     H 7200   5.465   0.918   3.885 -1.4785 -0.2941  1.0092
  777MOL0     H 7201   5.474   0.801   4.015  2.7830 -0.3122  1.3934
  777MOL0     H 7202   5.712   0.916   4.048  3.3593 -2.6736 -0.7365
  777MOL0     H 7203   5.676   0.981   3.884 -0.6295 -0.8377 -1.4587
  777MOL0     H 7204   5.684   0.686   3.959  2.0782 -1.6674 -0.3537
  777MOL0     H 7205   5.787   0.789   3.840 -0.3682 -0.3806  0.7898
  777MOL0     H 7206   4.627   0.910   4.035  1.7812 -1.1530 -0.0738
  777MOL0     H 7207   4.439   0.875   3.871  0.9051 -0.2675  2.5053
  777MOL0     H 7208   4.334   0.812   3.472  1.0282 -0.5732 -0.0496
  777MOL0     H 7209   4.137   0.726   3.345  3.0397 -1.5521  0.0009
  777MOL0     H 7210   3.702   0.566   2.354  0.6942  1.3090 -0.0267
  777MOL0     H 7211   3.769   0.598   2.097  0.2576 -3.1417 -2.8068
  777MOL0     H 7212   3.936   0.322   1.733  0.7918  0.0713 -0.4862
  777MOL0     H 7213   4.024   0.351   1.498 -1.5073 -0.5024 -2.3889
  777MOL0     H 7214   4.056   0.710   1.368 -1.8725 -0.8490  1.4759
  777MOL0     H 7215   4.153   0.562   1.377 -0.3139 -1.1168  0.2210
  777MOL0     H 7216   4.002   0.628   1.116 -0.4323 -0.6848  0.9980
  777MOL0     H 7217   4.128   0.510   1.140 -0.4440 -0.8074  3.2978
  777MOL0     H 7218   4.210   0.688   1.018 -0.1137 -1.8169  0.3543
  777MOL0     H 7219   4.170   0.797   1.150 -1.6064  0.1654 -4.5085
  777MOL0     H 7220   4.345   0.636   1.285  4.3903  0.5414 -0.2808
  777MOL0     H 7221   4.412   0.723   1.156  0.7691  0.7891  2.6459
  777MOL0     H 7222   4.442   0.319   1.026  0.7796 -0.9351  1.3157
  777MOL0     H 7223   3.773   0.673   1.427 -0.6787 -1.5544 -0.4105
  777MOL0     H 7224   3.604   0.758   1.597 -1.0469 -0.1504 -1.1893
  777MOL0     H 7225   3.531   0.620   1.678 -0.2443  0.9717  1.1508
  777MOL0     H 7226   3.653   0.719   1.764 -1.9974 -1.1961  0.4554
  778MOL0     O 7227   6.304   8.707  10.713  0.3214 -0.3595 -0.3512
  778MOL0     C 7228   6.230   8.802  10.699 -0.0259  0.4061  0.3408
  778MOL0     O 7229   6.182   8.877  10.802 -0.3100 -0.3541 -0.5664
  778MOL0     C 7230   6.211   8.828  10.927 -0.7147 -0.2672  0.4585
  778MOL0     C 7231   6.321   8.870  11.001 -0.6914  0.1324  1.0474
  778MOL0     C 7232   6.356   8.822  11.127  0.3007  0.4415  0.3550
  778MOL0     C 7233   6.280   8.714  11.184 -0.9155 -0.9170  1.0048
  778MOL0     O 7234   6.308   8.662  11.306  0.3984  0.5381  0.3397
  778MOL0     C 7235   6.220   8.714  11.412 -0.3379 -0.0357 -0.5872
  778MOL0     C 7236   6.316   8.769  11.508 -0.7701  0.2835  0.1562
  778MOL0     C 7237   6.349   8.687  11.629  0.4774 -0.1765 -0.3776
  778MOL0     C 7238   6.466   8.596  11.595  0.1519 -0.2833 -0.3458
  778MOL0     C 7239   6.475   8.488  11.704  0.6596 -0.6201 -0.0837
  778MOL0     C 7240   6.606   8.400  11.694 -0.6265 -1.1037 -0.1374
  778MOL0     C 7241   6.611   8.279  11.787  0.0522 -0.4043  0.3614
  778MOL0     C 7242   6.504   8.162  11.750 -0.0590 -0.8306 -0.0634
  778MOL0     N 7243   6.522   8.057  11.848 -0.0143  0.1983 -0.1914
  778MOL0     C 7244   6.426   8.038  11.948  0.9576  0.4357  0.0397
  778MOL0     C 7245   6.489   7.941  12.028  0.1251  0.0049  0.5576
  778MOL0     C 7246   6.425   7.879  12.152  0.2574 -0.1385 -0.0375
  778MOL0     C 7247   6.388   7.984  12.251  1.1088  0.5447 -0.3421
  778MOL0     C 7248   6.501   8.047  12.321 -0.5477 -1.1813 -0.3052
  778MOL0     C 7249   6.469   8.178  12.404  0.7080 -0.2921  0.8201
  778MOL0     O 7250   6.402   8.136  12.518 -0.1181 -0.9374  0.4262
  778MOL0     C 7251   6.445   8.191  12.637  0.0063 -0.0584 -0.8196
  778MOL0     C 7252   6.470   8.097  12.736  1.2969 -0.1850 -0.0238
  778MOL0     C 7253   6.512   8.136  12.867 -0.3496  0.2312 -0.4684
  778MOL0     C 7254   6.559   8.025  12.954 -0.7728 -0.2862  0.7802
  778MOL0     C 7255   6.526   8.275  12.902 -0.7560  0.7280 -0.4913
  778MOL0     C 7256   6.565   8.326  13.044  0.6141 -0.1875  0.8501
  778MOL0     O 7257   6.528   8.250  13.156  0.0001 -0.6677  0.4235
  778MOL0     C 7258   6.560   8.280  13.285  0.2526  0.0805  0.1614
  778MOL0     C 7259   6.670   8.232  13.347 -1.1480 -0.3671  0.3411
  778MOL0     C 7260   6.693   8.259  13.481 -0.0622  0.6066 -0.2741
  778MOL0     C 7261   6.603   8.335  13.558  0.3116 -0.3874  0.3804
  778MOL0     O 7262   6.628   8.351  13.691  0.1737  0.7297  0.0746
  778MOL0     C 7263   6.549   8.270  13.779  0.7463  0.0327 -0.4465
  778MOL0     C 7264   6.549   8.317  13.924 -0.6623  0.0848  0.0726
  778MOL0     C 7265   6.489   8.463  13.922 -0.0421  0.3751 -0.0763
  778MOL0     C 7266   6.502   8.529  14.055  0.6989 -0.3747  0.4249
  778MOL0     C 7267   6.379   8.605  14.109 -0.0497  0.5132  0.0690
  778MOL0     C 7268   6.407   8.642  14.259 -0.4891  0.3062 -0.4816
  778MOL0     C 7269   6.297   8.726  14.316 -0.2786 -0.4744 -0.0685
  778MOL0     C 7270   6.315   8.756  14.465 -0.8231 -0.0118 -0.3736
  778MOL0    Cl 7271   6.166   8.723  14.560 -0.3237 -0.5386 -0.3703
  778MOL0     C 7272   6.493   8.396  13.493  0.1439  0.3903  0.1110
  778MOL0     C 7273   6.466   8.351  13.362  0.0418  0.7472 -0.0960
  778MOL0     O 7274   6.633   8.425  13.051 -0.0717 -0.1563 -0.8785
  778MOL0     C 7275   6.506   8.363  12.795  0.7204 -1.0719  0.2034
  778MOL0     C 7276   6.468   8.326  12.662  0.8551  0.4601  0.0154
  778MOL0     N 7277   6.615   7.920  11.973 -0.3757 -0.6087  0.0121
  778MOL0     N 7278   6.632   7.994  11.877 -0.9903 -0.6453  0.2218
  778MOL0     C 7279   6.176   8.661  11.106 -0.0328  0.4148 -0.1386
  778MOL0     C 7280   6.135   8.723  10.989 -0.0742 -0.0527 -0.5278
  778MOL0     C 7281   6.188   8.836  10.558  0.3954 -0.3405 -0.4091
  778MOL0     C 7282   6.092   8.750  10.495 -0.0580 -0.6142 -0.3756
  778MOL0     C 7283   6.034   8.792  10.376 -0.1332  0.0067 -0.4101
  778MOL0     C 7284   6.084   8.903  10.302  0.6050 -0.1230 -0.4436
  778MOL0     O 7285   6.049   8.922  10.174 -0.5450  0.4219  0.0702
  778MOL0     C 7286   5.937   9.009  10.159  0.8061  0.2114  0.3244
  778MOL0     C 7287   5.951   9.069  10.016 -0.2046 -0.1640  0.0809
  778MOL0     C 7288   5.993   8.978   9.904 -0.8586  0.1472  0.0660
  778MOL0     C 7289   6.027   9.062   9.773 -1.2834  0.5372 -0.0172
  778MOL0     C 7290   6.140   9.158   9.794 -0.1237  0.3886  0.4460
  778MOL0     C 7291   6.226   9.238   9.804 -0.0984 -0.1308  0.0373
  778MOL0     C 7292   6.164   8.993  10.375  0.1525  0.0336  0.9185
  778MOL0     C 7293   6.225   8.953  10.492  0.5596 -0.6499  0.2192
  778MOL0     C 7294   6.315   9.054  10.560 -0.7206  0.0082 -1.0592
  778MOL0     H 7295   6.390   8.942  10.957  0.2460 -1.3722 -0.0239
  778MOL0     H 7296   6.444   8.868  11.170  1.0135 -0.5734  0.0140
  778MOL0     H 7297   6.154   8.635  11.449 -1.1800  0.1211 -1.7254
  778MOL0     H 7298   6.159   8.796  11.376  0.5129  2.3033  2.7843
  778MOL0     H 7299   6.415   8.787  11.465 -1.3824  0.3524 -1.2663
  778MOL0     H 7300   6.276   8.866  11.538 -2.3861 -1.0682  2.7530
  778MOL0     H 7301   6.380   8.739  11.720 -2.4964 -0.3987  0.8433
  778MOL0     H 7302   6.260   8.632  11.659  0.5133 -0.4498 -0.7673
  778MOL0     H 7303   6.462   8.546  11.498  3.7887 -0.1676 -0.7265
  778MOL0     H 7304   6.554   8.661  11.592  0.0278 -0.1335 -1.4060
  778MOL0     H 7305   6.386   8.425  11.691 -0.2161  0.6880 -0.6107
  778MOL0     H 7306   6.476   8.543  11.799 -2.9287 -1.2284  0.4565
  778MOL0     H 7307   6.610   8.364  11.591  0.0631  0.3366 -0.6434
  778MOL0     H 7308   6.688   8.465  11.727 -0.2302 -2.4227  1.6157
  778MOL0     H 7309   6.579   8.325  11.881 -5.1984  0.5220 -1.5858
  778MOL0     H 7310   6.705   8.222  11.788 -1.4149 -2.9559  0.3061
  778MOL0     H 7311   6.406   8.209  11.762 -1.1399 -1.1802 -5.0586
  778MOL0     H 7312   6.524   8.108  11.657  1.0537 -3.0108  1.3715
  778MOL0     H 7313   6.325   8.078  11.947 -0.2463 -2.3316 -1.4387
  778MOL0     H 7314   6.485   7.796  12.190 -0.4858 -0.9621 -0.6090
  778MOL0     H 7315   6.330   7.838  12.116  0.9893 -1.3070 -0.7208
  778MOL0     H 7316   6.337   8.054  12.183  0.0650 -3.2669 -3.8556
  778MOL0     H 7317   6.304   7.953  12.314 -0.1837  0.3777 -2.0633
  778MOL0     H 7318   6.542   7.967  12.383 -0.4388 -1.2995 -0.5295
  778MOL0     H 7319   6.580   8.078  12.252 -1.8845  1.2765 -0.8259
  778MOL0     H 7320   6.571   8.209  12.426  1.3602 -3.1750  2.2904
  778MOL0     H 7321   6.411   8.256  12.353 -0.2886 -2.4619 -1.5660
  778MOL0     H 7322   6.461   7.995  12.698  1.2020  0.6638 -2.4838
  778MOL0     H 7323   6.656   8.064  12.984 -1.2794  1.6766 -0.0229
  778MOL0     H 7324   6.553   7.934  12.893 -0.7090  1.1442 -1.4502
  778MOL0     H 7325   6.502   8.015  13.047  0.6887  1.0805  1.8794
  778MOL0     H 7326   6.747   8.173  13.296  0.8536  0.0463  2.6956
  778MOL0     H 7327   6.781   8.217  13.530  0.8028 -0.2459 -2.4463
  778MOL0     H 7328   6.444   8.281  13.749  0.5791  1.0660  0.4464
  778MOL0     H 7329   6.571   8.166  13.756  1.7771 -0.3628  2.0586
  778MOL0     H 7330   6.496   8.246  13.988 -1.4645  1.1547  0.6398
  778MOL0     H 7331   6.653   8.326  13.956 -0.5289  3.6489 -0.9072
  778MOL0     H 7332   6.383   8.462  13.896 -0.6497  0.4679  2.1913
  778MOL0     H 7333   6.535   8.530  13.849 -0.1564  0.7141  0.1615
  778MOL0     H 7334   6.592   8.590  14.066  1.4913 -1.8341  3.0840
  778MOL0     H 7335   6.522   8.456  14.134 -2.4934  1.0569  2.8293
  778MOL0     H 7336   6.362   8.695  14.050  0.6471  0.7071  0.1478
  778MOL0     H 7337   6.299   8.531  14.104  0.9975 -0.9559  2.8720
  778MOL0     H 7338   6.502   8.695  14.267 -0.4722  0.1021  1.0858
  778MOL0     H 7339   6.425   8.554  14.321  0.1486 -0.0342 -1.1390
  778MOL0     H 7340   6.201   8.673  14.310  0.3992 -2.0533  1.9386
  778MOL0     H 7341   6.292   8.823  14.265  0.8031 -0.6232 -0.4832
  778MOL0     H 7342   6.341   8.863  14.469  0.2733 -0.2359 -0.9551
  778MOL0     H 7343   6.402   8.700  14.503 -0.9859 -0.4262 -0.6060
  778MOL0     H 7344   6.419   8.459  13.541 -0.9408  1.7104 -3.0314
  778MOL0     H 7345   6.376   8.386  13.311 -1.5809 -3.7298 -0.7340
  778MOL0     H 7346   6.515   8.468  12.820 -1.2324 -0.2596 -2.0895
  778MOL0     H 7347   6.459   8.405  12.589 -0.0261  0.6876  0.3573
  778MOL0     H 7348   6.119   8.572  11.132  0.9750 -0.2444 -0.1293
  778MOL0     H 7349   6.045   8.688  10.939 -2.1460 -0.4130  3.1401
  778MOL0     H 7350   6.058   8.663  10.550 -0.5086  0.9483  1.9312
  778MOL0     H 7351   5.964   8.721  10.333 -0.2630  0.8285 -1.6220
  778MOL0     H 7352   5.844   8.953  10.161  1.3066 -0.6407  2.2325
  778MOL0     H 7353   5.933   9.090  10.234 -2.8849  0.6040 -0.1353
  778MOL0     H 7354   6.016   9.155  10.033 -2.1465  1.0834  1.6393
  778MOL0     H 7355   5.852   9.108   9.990  0.6177  0.5593 -2.1644
  778MOL0     H 7356   6.083   8.920   9.928 -0.7532 -0.1185 -0.9144
  778MOL0     H 7357   5.921   8.901   9.875 -0.1596 -2.0190  3.5753
  778MOL0     H 7358   5.946   9.115   9.723 -1.6411 -0.4895 -0.5502
  778MOL0     H 7359   6.067   8.996   9.695  1.1626  0.8887  0.8503
  778MOL0     H 7360   6.304   9.311   9.796 -0.5094  0.5158  1.6488
  778MOL0     H 7361   6.194   9.085  10.326 -1.3782 -0.5985 -1.3365
  778MOL0     H 7362   6.266   9.094  10.649  1.6002 -2.2520  1.4133
  778MOL0     H 7363   6.412   9.009  10.581 -0.9412  0.1014  0.2563
  778MOL0     H 7364   6.352   9.137  10.499  2.3802 -0.6752 -0.2910
  779MOL0     O 7365  10.877   7.598  11.524  0.4860  0.9104 -0.2808
  779MOL0     C 7366  10.792   7.639  11.442 -0.1110  1.0816  0.3123
  779MOL0     O 7367  10.675   7.700  11.476 -0.0219 -0.9534 -0.3487
  779MOL0     C 7368  10.658   7.758  11.595  0.5621 -0.6262 -0.4579
  779MOL0     C 7369  10.649   7.901  11.601  0.4126  0.0419 -0.2871
  779MOL0     C 7370  10.634   7.962  11.728  0.4222 -0.0214 -1.0559
  779MOL0     C 7371  10.640   7.884  11.850  0.0112  0.2099  0.0619
  779MOL0     O 7372  10.657   7.936  11.974 -0.6530  0.2273 -0.6745
  779MOL0     C 7373  10.717   8.062  11.975 -0.8435  0.6785  0.0992
  779MOL0     C 7374  10.760   8.096  12.115  0.5029 -0.7057 -0.1891
  779MOL0     C 7375  10.844   8.222  12.119 -0.2411  0.3789  0.1956
  779MOL0     C 7376  10.934   8.246  12.247  0.0189 -0.7964 -0.3365
  779MOL0     C 7377  11.036   8.140  12.282 -0.2840  1.0463  0.8393
  779MOL0     C 7378  11.137   8.107  12.167  0.2474 -0.3026 -0.4440
  779MOL0     C 7379  11.251   8.041  12.221 -0.2263  0.3462 -0.2537
  779MOL0     C 7380  11.346   7.994  12.109 -0.5429 -0.4848 -0.1597
  779MOL0     N 7381  11.379   8.096  12.004 -0.0255  0.4008  0.6482
  779MOL0     C 7382  11.483   8.187  12.005 -0.2932 -0.0614  0.7029
  779MOL0     C 7383  11.471   8.267  11.902  0.1773  0.3989 -0.0172
  779MOL0     C 7384  11.571   8.375  11.865 -0.7686  0.9298  1.0506
  779MOL0     C 7385  11.547   8.504  11.939 -0.1425 -0.1115  0.4356
  779MOL0     C 7386  11.593   8.626  11.865 -0.5730  0.1750  0.0239
  779MOL0     C 7387  11.497   8.669  11.746  0.5095 -0.0449  1.0286
  779MOL0     O 7388  11.496   8.800  11.694  0.2315 -0.1351 -0.1953
  779MOL0     C 7389  11.605   8.833  11.624 -1.1514 -0.4643  0.1134
  779MOL0     C 7390  11.677   8.946  11.676  0.0255  0.1382  0.1605
  779MOL0     C 7391  11.785   8.996  11.603  1.0968  0.3495 -0.3748
  779MOL0     C 7392  11.874   9.100  11.671  0.7015 -0.2596 -0.6531
  779MOL0     C 7393  11.818   8.945  11.473  0.3058  0.2516 -0.0773
  779MOL0     C 7394  11.934   8.988  11.383  0.4935  0.7917 -0.4376
  779MOL0     O 7395  11.965   8.917  11.264  0.5018  0.7486  0.0477
  779MOL0     C 7396  12.054   8.977  11.181 -0.2863  0.2974  0.6934
  779MOL0     C 7397  12.029   9.106  11.122 -0.7011 -0.7183 -0.1313
  779MOL0     C 7398  12.109   9.143  11.014 -1.0541 -0.0288  0.1835
  779MOL0     C 7399  12.210   9.061  10.943  0.4175  0.0775  0.4917
  779MOL0     O 7400  12.276   9.123  10.833 -0.0962  0.4050 -0.5416
  779MOL0     C 7401  12.318   9.031  10.731 -0.7582 -0.4291  0.6470
  779MOL0     C 7402  12.396   9.114  10.625 -0.1642  0.9800  0.2251
  779MOL0     C 7403  12.544   9.110  10.625 -1.1565  0.6336 -0.2930
  779MOL0     C 7404  12.606   9.198  10.748  0.8817 -1.0247  0.5631
  779MOL0     C 7405  12.754   9.210  10.744  0.4556  0.7942  0.1180
  779MOL0     C 7406  12.828   9.079  10.785  0.1681  0.1291  0.2157
  779MOL0     C 7407  12.964   9.083  10.725 -0.5776 -0.7372 -0.1274
  779MOL0     C 7408  13.038   8.948  10.720 -1.1600  0.9178 -1.2645
  779MOL0    Cl 7409  13.053   8.874  10.889  0.0478 -0.2852  0.3458
  779MOL0     C 7410  12.224   8.928  10.994 -0.5691  1.0429 -0.0878
  779MOL0     C 7411  12.141   8.889  11.109 -0.4886 -0.4540  0.1371
  779MOL0     O 7412  11.996   9.086  11.427  0.9120  0.1993  0.8871
  779MOL0     C 7413  11.736   8.841  11.417 -0.2097 -0.4699 -0.0555
  779MOL0     C 7414  11.639   8.780  11.497  0.0379  0.9537  0.2184
  779MOL0     N 7415  11.361   8.227  11.834  0.1075 -0.2964  0.6023
  779MOL0     N 7416  11.306   8.133  11.890  1.2508 -0.4780 -0.8618
  779MOL0     C 7417  10.652   7.744  11.835  0.3360  0.4102 -0.7093
  779MOL0     C 7418  10.667   7.694  11.714  0.0100  0.1157  0.1045
  779MOL0     C 7419  10.809   7.607  11.300  0.3929 -0.5201 -0.0453
  779MOL0     C 7420  10.706   7.532  11.246  0.5031  0.1107  0.0447
  779MOL0     C 7421  10.714   7.507  11.107  0.3776  0.7570 -0.6435
  779MOL0     C 7422  10.826   7.541  11.033 -0.3779  0.4885  1.6937
  779MOL0     O 7423  10.858   7.495  10.908  0.2666  0.0117 -0.8035
  779MOL0     C 7424  10.768   7.413  10.835  0.3352 -0.1125  0.1800
  779MOL0     C 7425  10.813   7.397  10.689 -0.6934  0.6020 -0.2657
  779MOL0     C 7426  10.839   7.518  10.604  0.4790 -0.3229 -0.1960
  779MOL0     C 7427  10.721   7.620  10.602  0.8385 -1.2481  0.1876
  779MOL0     C 7428  10.709   7.686  10.469  0.2662  1.0763 -0.4268
  779MOL0     C 7429  10.691   7.731  10.365 -0.9661 -0.5389  0.5118
  779MOL0     C 7430  10.922   7.625  11.091  0.2604 -0.2379 -0.6404
  779MOL0     C 7431  10.918   7.660  11.223  0.4574  1.2945  0.2322
  779MOL0     C 7432  11.026   7.746  11.284  0.2623  0.8777  0.2552
  779MOL0     H 7433  10.647   7.958  11.508 -1.5365  1.8439  0.7629
  779MOL0     H 7434  10.607   8.066  11.744 -2.5286 -0.8068 -0.1658
  779MOL0     H 7435  10.651   8.141  11.937 -0.0710  3.2772  3.6605
  779MOL0     H 7436  10.803   8.065  11.908 -2.1981  1.6039 -1.6708
  779MOL0     H 7437  10.665   8.107  12.167  1.3869 -2.0526  1.8572
  779MOL0     H 7438  10.810   8.016  12.170 -0.2766 -0.2894  1.1551
  779MOL0     H 7439  10.907   8.228  12.030 -0.7687  2.1945 -0.0982
  779MOL0     H 7440  10.769   8.302  12.132 -0.2294  0.9387 -2.5481
  779MOL0     H 7441  10.991   8.338  12.231 -1.0473 -0.1646 -0.5930
  779MOL0     H 7442  10.870   8.265  12.334 -1.8295  1.9655 -2.1369
  779MOL0     H 7443  10.987   8.043  12.299  0.0557  1.3011  3.7323
  779MOL0     H 7444  11.095   8.158  12.372  2.4741 -0.8266 -0.4425
  779MOL0     H 7445  11.087   8.051  12.087  0.4314 -2.6329  0.9697
  779MOL0     H 7446  11.178   8.203  12.135 -3.2075  1.2626 -0.7092
  779MOL0     H 7447  11.227   7.947  12.273  1.9166  0.1493  0.4635
  779MOL0     H 7448  11.298   8.109  12.292  2.4517 -3.6664  2.2666
  779MOL0     H 7449  11.422   7.930  12.155 -0.1787  1.0079  1.4126
  779MOL0     H 7450  11.291   7.918  12.052  3.3148 -0.9945 -3.6011
  779MOL0     H 7451  11.575   8.184  12.062  1.7509  1.9264 -2.1611
  779MOL0     H 7452  11.557   8.400  11.759  0.7121  1.5035  0.9571
  779MOL0     H 7453  11.679   8.358  11.875 -0.8201  0.5428  0.9639
  779MOL0     H 7454  11.438   8.512  11.933 -0.3965 -3.3714 -2.3441
  779MOL0     H 7455  11.593   8.494  12.038  2.0950 -0.4724 -0.5984
  779MOL0     H 7456  11.586   8.703  11.943 -0.3902 -0.4949  0.7043
  779MOL0     H 7457  11.698   8.625  11.834  0.1754 -0.8445  2.4156
  779MOL0     H 7458  11.531   8.608  11.662  0.1293  1.6916 -0.4617
  779MOL0     H 7459  11.394   8.646  11.773 -1.0873  2.0150 -2.5856
  779MOL0     H 7460  11.643   8.994  11.767 -1.3341  0.6571 -0.6017
  779MOL0     H 7461  11.851   9.108  11.777 -1.4426 -0.8661 -1.0313
  779MOL0     H 7462  11.853   9.196  11.622 -0.8054  1.1906  2.5294
  779MOL0     H 7463  11.980   9.074  11.667  1.4401  2.3852 -0.4332
  779MOL0     H 7464  11.966   9.185  11.160 -0.6989 -1.7530  2.1961
  779MOL0     H 7465  12.094   9.247  10.989  2.6251  0.4256 -0.6360
  779MOL0     H 7466  12.378   8.955  10.783 -1.5293 -0.6235  1.2681
  779MOL0     H 7467  12.238   8.978  10.680 -1.3715  0.9282  0.1536
  779MOL0     H 7468  12.387   9.067  10.527 -2.4370  2.5787 -0.4189
  779MOL0     H 7469  12.365   9.219  10.627 -1.0153  0.7394 -0.0166
  779MOL0     H 7470  12.587   9.146  10.531 -0.7872  1.7056  0.2676
  779MOL0     H 7471  12.579   9.007  10.635  2.7506  1.7997 -0.1789
  779MOL0     H 7472  12.571   9.161  10.845 -2.0986  0.9822  0.3822
  779MOL0     H 7473  12.548   9.289  10.733  0.9088 -1.1568 -0.4525
  779MOL0     H 7474  12.785   9.248  10.646  1.5849 -1.6595 -0.5529
  779MOL0     H 7475  12.782   9.282  10.821 -2.5170  0.3084  1.8054
  779MOL0     H 7476  12.774   8.990  10.753  0.2867  0.9335 -2.4133
  779MOL0     H 7477  12.828   9.069  10.894 -0.1442  3.9027  0.7258
  779MOL0     H 7478  13.023   9.155  10.783 -1.8968  1.5557 -1.4950
  779MOL0     H 7479  12.968   9.115  10.620 -0.1110 -1.3943 -0.3148
  779MOL0     H 7480  13.138   8.961  10.675  0.3251 -0.1638  1.5154
  779MOL0     H 7481  12.972   8.871  10.681 -0.5519 -1.1926  1.5443
  779MOL0     H 7482  12.298   8.862  10.951 -0.5609  0.6474  0.5392
  779MOL0     H 7483  12.146   8.787  11.147 -0.7103  0.4120  2.6716
  779MOL0     H 7484  11.751   8.792  11.321 -1.8837 -0.8491 -0.1458
  779MOL0     H 7485  11.573   8.705  11.455  1.6829 -0.3441 -0.1352
  779MOL0     H 7486  10.669   7.690  11.928  0.8736 -0.5120 -1.3420
  779MOL0     H 7487  10.675   7.586  11.716 -3.2045 -0.1896  1.0407
  779MOL0     H 7488  10.621   7.489  11.297  0.0383  2.4381  1.3688
  779MOL0     H 7489  10.630   7.462  11.055 -0.2059  0.3124  0.6422
  779MOL0     H 7490  10.747   7.316  10.882  0.2899 -0.2211 -0.0605
  779MOL0     H 7491  10.664   7.446  10.831  0.5129  0.6773  1.4556
  779MOL0     H 7492  10.738   7.334  10.640  1.1396 -0.7577 -1.4692
  779MOL0     H 7493  10.907   7.341  10.698 -1.5007 -0.4509  2.7072
  779MOL0     H 7494  10.933   7.566  10.631 -0.6935  1.5926  0.7116
  779MOL0     H 7495  10.855   7.489  10.500  1.1866  2.1240 -0.8228
  779MOL0     H 7496  10.741   7.694  10.680  1.7904 -0.0438 -1.1403
  779MOL0     H 7497  10.634   7.559  10.625  0.4940 -1.5959 -1.8537
  779MOL0     H 7498  10.675   7.776  10.269 -2.4629 -1.9984  0.0313
  779MOL0     H 7499  11.013   7.647  11.034  2.0264 -1.7950  1.4264
  779MOL0     H 7500  11.107   7.677  11.305  1.3337  1.3078 -2.1371
  779MOL0     H 7501  11.052   7.828  11.217  0.0054  0.2461 -0.6481
  779MOL0     H 7502  10.988   7.791  11.376 -1.4726  1.6255 -0.7657
  780MOL0     O 7503   1.950   1.506   0.025 -0.1062 -0.6176 -0.7942
  780MOL0     C 7504   1.978   1.590   0.112 -0.1396  0.2445 -0.5862
  780MOL0     O 7505   1.937   1.721   0.118  0.4722  0.4049 -0.6761
  780MOL0     C 7506   1.818   1.752   0.056  0.1110 -0.1823  0.0876
  780MOL0     C 7507   1.712   1.665   0.037  0.0731 -0.0779 -1.1070
  780MOL0     C 7508   1.590   1.712  -0.013  0.4434 -0.4470 -0.0005
  780MOL0     C 7509   1.577   1.843  -0.068 -0.9960 -0.1189  0.1987
  780MOL0     O 7510   1.461   1.893  -0.121  0.5046  0.3768 -0.0618
  780MOL0     C 7511   1.433   1.826  -0.251 -0.2989  0.4109 -0.2589
  780MOL0     C 7512   1.288   1.826  -0.268 -0.0223  0.8381 -1.0212
  780MOL0     C 7513   1.232   1.750  -0.393 -0.0198  0.4374  0.7319
  780MOL0     C 7514   1.088   1.771  -0.398 -0.0870  0.7551  0.3880
  780MOL0     C 7515   1.040   1.911  -0.457 -0.0162 -0.9791  0.2492
  780MOL0     C 7516   1.026   1.905  -0.609 -0.6234  0.3624  0.4116
  780MOL0     C 7517   1.090   2.020  -0.677  0.9728  0.3432  0.8391
  780MOL0     C 7518   1.162   1.990  -0.811 -1.1112  0.4781 -0.6601
  780MOL0     N 7519   1.062   1.985  -0.923 -0.2978 -0.0290 -0.3420
  780MOL0     C 7520   1.074   2.070  -1.029 -0.2156  0.1790 -0.4444
  780MOL0     C 7521   0.987   2.025  -1.117 -0.2648  0.1140  0.2672
  780MOL0     C 7522   0.972   2.079  -1.255  0.6410 -0.1814  0.0122
  780MOL0     C 7523   1.031   1.984  -1.367  1.3017 -0.0030 -0.9764
  780MOL0     C 7524   1.004   2.041  -1.506  0.1376 -0.0245 -0.7397
  780MOL0     C 7525   1.114   2.132  -1.552 -0.1048  0.0529 -0.9741
  780MOL0     O 7526   1.106   2.147  -1.692  0.2360 -0.3219  0.1123
  780MOL0     C 7527   1.164   2.257  -1.759  0.3472  0.2329 -0.4905
  780MOL0     C 7528   1.283   2.309  -1.722 -0.6165 -0.5144  0.2052
  780MOL0     C 7529   1.338   2.414  -1.797 -0.1528 -0.1536 -0.3961
  780MOL0     C 7530   1.473   2.459  -1.747 -1.3675  0.0241 -0.5073
  780MOL0     C 7531   1.264   2.488  -1.894 -0.3425 -0.4958 -0.8956
  780MOL0     C 7532   1.312   2.623  -1.966 -0.0141  0.8255  0.0279
  780MOL0     O 7533   1.243   2.653  -2.081 -0.0332  0.2087 -0.7632
  780MOL0     C 7534   1.270   2.770  -2.143 -0.6441 -0.9804 -0.0978
  780MOL0     C 7535   1.170   2.870  -2.154  0.4508  0.0332  0.5999
  780MOL0     C 7536   1.173   2.972  -2.245 -0.0962  0.2665 -0.8184
  780MOL0     C 7537   1.298   2.998  -2.303  0.0983  0.5333  0.9361
  780MOL0     O 7538   1.319   3.097  -2.396  0.1789 -0.4446 -0.0456
  780MOL0     C 7539   1.268   3.224  -2.355 -0.1655  0.3596 -0.1245
  780MOL0     C 7540   1.309   3.316  -2.463  0.1818 -0.3885 -0.6631
  780MOL0     C 7541   1.224   3.297  -2.584  0.3711 -0.2076 -1.0782
  780MOL0     C 7542   1.272   3.387  -2.691 -0.2120  0.3721  0.1521
  780MOL0     C 7543   1.192   3.404  -2.830  0.3610  0.5726 -0.4321
  780MOL0     C 7544   1.226   3.304  -2.938  0.7683 -0.1903 -0.8127
  780MOL0     C 7545   1.364   3.310  -2.985  0.5151 -0.1891 -0.0761
  780MOL0     C 7546   1.379   3.409  -3.096 -0.3522  0.3599  1.3631
  780MOL0    Cl 7547   1.527   3.359  -3.177  0.0659 -0.1803  0.3358
  780MOL0     C 7548   1.404   2.910  -2.291  0.3760 -0.4261 -0.0724
  780MOL0     C 7549   1.384   2.794  -2.213 -0.0008 -0.0730  0.2441
  780MOL0     O 7550   1.394   2.694  -1.911 -0.2453 -0.2672 -0.2622
  780MOL0     C 7551   1.140   2.437  -1.920  0.7433 -0.3062 -0.3015
  780MOL0     C 7552   1.098   2.314  -1.862  0.4360 -0.5563  0.3974
  780MOL0     N 7553   0.917   1.922  -1.062 -0.5157 -0.2187 -0.3299
  780MOL0     N 7554   0.976   1.886  -0.955  0.1907  0.4338  0.8088
  780MOL0     C 7555   1.694   1.920  -0.069  0.3520  0.5182  0.4682
  780MOL0     C 7556   1.808   1.887   0.004 -0.6082  0.5307 -0.1967
  780MOL0     C 7557   2.079   1.559   0.213  0.0903  0.1102  1.2942
  780MOL0     C 7558   2.088   1.644   0.322  0.3303 -0.3036 -0.1041
  780MOL0     C 7559   2.171   1.626   0.426  0.6287  0.0250  0.2723
  780MOL0     C 7560   2.245   1.507   0.436  0.3925 -0.0232 -0.2891
  780MOL0     O 7561   2.307   1.493   0.556 -0.1576  0.4323  0.0112
  780MOL0     C 7562   2.372   1.368   0.583  0.1436  1.2196 -0.2464
  780MOL0     C 7563   2.509   1.386   0.540 -0.0848  1.2190 -0.3063
  780MOL0     C 7564   2.591   1.257   0.519  0.0601 -0.0400  0.1521
  780MOL0     C 7565   2.731   1.295   0.471  0.3553 -0.1232 -0.7725
  780MOL0     C 7566   2.818   1.173   0.465  0.0514 -0.2763 -0.8172
  780MOL0     C 7567   2.870   1.065   0.444  0.6802  0.1861  0.1027
  780MOL0     C 7568   2.260   1.432   0.322 -0.0953 -0.5334  1.1355
  780MOL0     C 7569   2.176   1.454   0.205 -0.1751 -0.6395  0.5845
  780MOL0     C 7570   2.193   1.365   0.083 -0.3516  0.1761 -0.2611
  780MOL0     H 7571   1.714   1.568   0.086 -0.4280  0.1888 -0.5428
  780MOL0     H 7572   1.495   1.661  -0.020 -0.5657  1.1329  1.4052
  780MOL0     H 7573   1.479   1.727  -0.257  1.8376  1.1961  1.7536
  780MOL0     H 7574   1.470   1.893  -0.330 -0.4257 -0.0133 -0.6805
  780MOL0     H 7575   1.247   1.785  -0.175  0.3307  1.1348 -0.7335
  780MOL0     H 7576   1.240   1.924  -0.262 -4.6909 -1.2579  1.2998
  780MOL0     H 7577   1.283   1.781  -0.484  0.5061  0.1140  0.9115
  780MOL0     H 7578   1.252   1.644  -0.376 -1.0043  0.6814  4.3369
  780MOL0     H 7579   1.032   1.689  -0.444 -2.2459  0.2173  3.6704
  780MOL0     H 7580   1.051   1.764  -0.296  2.2826  1.5924  1.3662
  780MOL0     H 7581   1.112   1.985  -0.419 -0.2117 -2.1754  3.2145
  780MOL0     H 7582   0.946   1.933  -0.406  0.2288 -1.2431  0.8261
  780MOL0     H 7583   1.054   1.816  -0.666 -1.0753  0.4471  0.0515
  780MOL0     H 7584   0.919   1.904  -0.631 -0.4494 -1.1971 -0.5162
  780MOL0     H 7585   1.153   2.085  -0.616 -0.5968 -0.8768  4.0088
  780MOL0     H 7586   1.012   2.088  -0.711  1.3043  0.0390 -0.5920
  780MOL0     H 7587   1.231   2.073  -0.832  0.2442 -0.2203  0.7987
  780MOL0     H 7588   1.218   1.898  -0.793 -0.9130  1.1066  2.4125
  780MOL0     H 7589   1.141   2.155  -1.035  1.7761 -1.2699  0.1077
  780MOL0     H 7590   1.017   2.178  -1.266 -0.4669  0.6345  2.2343
  780MOL0     H 7591   0.864   2.090  -1.268  0.8413 -0.8004 -2.8023
  780MOL0     H 7592   1.136   1.965  -1.341  1.4560  3.3391  1.4748
  780MOL0     H 7593   0.972   1.892  -1.361  0.9560  0.1652 -1.6530
  780MOL0     H 7594   0.983   1.960  -1.577 -1.6313 -2.9382  2.7625
  780MOL0     H 7595   0.914   2.103  -1.505  2.3002  3.3731  0.3221
  780MOL0     H 7596   1.104   2.226  -1.498 -1.4666 -0.4627 -0.2622
  780MOL0     H 7597   1.208   2.084  -1.524  1.2673  4.4588  3.3281
  780MOL0     H 7598   1.330   2.257  -1.639  0.8401 -0.0019 -0.2686
  780MOL0     H 7599   1.454   2.529  -1.664 -0.4160 -0.0028 -0.2551
  780MOL0     H 7600   1.534   2.515  -1.818 -0.6753  0.1916  0.2058
  780MOL0     H 7601   1.534   2.384  -1.696  0.3119  2.0853  0.7150
  780MOL0     H 7602   1.087   2.857  -2.085 -1.8093  0.4034 -1.8750
  780MOL0     H 7603   1.090   3.042  -2.247 -2.9361 -2.5786  2.7259
  780MOL0     H 7604   1.161   3.223  -2.335  0.0350  2.3905  1.3590
  780MOL0     H 7605   1.317   3.255  -2.262 -1.1120  0.0973  0.4735
  780MOL0     H 7606   1.330   3.418  -2.429  1.1731 -0.1767 -1.8446
  780MOL0     H 7607   1.408   3.296  -2.505 -1.3566 -3.0829 -3.4354
  780MOL0     H 7608   1.117   3.323  -2.582  0.5328  1.1226 -4.3192
  780MOL0     H 7609   1.246   3.198  -2.624  2.7389  0.6404 -1.9798
  780MOL0     H 7610   1.378   3.368  -2.706 -0.3517  1.0135 -1.9906
  780MOL0     H 7611   1.257   3.481  -2.636 -0.6816 -1.6204  3.7207
  780MOL0     H 7612   1.088   3.393  -2.800  0.7794 -1.0555  0.5476
  780MOL0     H 7613   1.219   3.504  -2.865  0.9021  1.0724  1.3057
  780MOL0     H 7614   1.149   3.300  -3.015  1.4352 -0.1923 -1.4968
  780MOL0     H 7615   1.231   3.201  -2.902  0.0004  1.0919  3.5702
  780MOL0     H 7616   1.410   3.214  -3.010  2.3379  0.4925  0.5051
  780MOL0     H 7617   1.427   3.346  -2.904  3.0587  1.5730 -2.6244
  780MOL0     H 7618   1.390   3.515  -3.069  4.1587  1.0508 -2.0292
  780MOL0     H 7619   1.301   3.405  -3.172 -0.2953 -1.6476  1.3729
  780MOL0     H 7620   1.503   2.930  -2.331  0.2106 -0.6680 -0.6077
  780MOL0     H 7621   1.466   2.726  -2.194 -0.3813 -0.3807  0.7886
  780MOL0     H 7622   1.069   2.478  -1.991 -0.1531 -1.5606 -0.1734
  780MOL0     H 7623   1.004   2.272  -1.897 -0.5847  2.3924 -0.7042
  780MOL0     H 7624   1.697   2.013  -0.124 -4.3988  0.0662 -1.0599
  780MOL0     H 7625   1.890   1.949   0.038  2.2448 -3.0659  0.1160
  780MOL0     H 7626   2.020   1.728   0.329  1.7879  0.9414 -0.3113
  780MOL0     H 7627   2.164   1.694   0.510 -2.2007  1.5227 -1.0303
  780MOL0     H 7628   2.362   1.348   0.689 -1.3536 -0.8149 -0.7227
  780MOL0     H 7629   2.336   1.283   0.525 -0.5183  1.4766 -0.2160
  780MOL0     H 7630   2.555   1.459   0.607 -1.0735  1.4734  0.1155
  780MOL0     H 7631   2.515   1.433   0.442  3.9405 -2.9616 -2.4169
  780MOL0     H 7632   2.592   1.199   0.612 -0.2212  0.9914  0.8080
  780MOL0     H 7633   2.544   1.195   0.442  1.4735  0.2728 -1.0211
  780MOL0     H 7634   2.780   1.366   0.538  1.2652 -1.8965  0.5045
  780MOL0     H 7635   2.720   1.341   0.372  0.0335 -1.9752 -1.6390
  780MOL0     H 7636   2.932   0.990   0.401  0.1856  0.7477 -1.6694
  780MOL0     H 7637   2.332   1.351   0.331  1.2891  0.7301  1.8281
  780MOL0     H 7638   2.184   1.425  -0.008 -0.6212 -0.0539 -0.3873
  780MOL0     H 7639   2.295   1.326   0.088 -0.4465 -0.0269  4.3703
  780MOL0     H 7640   2.120   1.284   0.077 -0.5683  0.2272  1.3500
  781MOL0     O 7641  11.377   7.322   5.103 -0.7144  0.0120  0.0507
  781MOL0     C 7642  11.286   7.377   5.149 -0.1759  0.2335  0.6695
  781MOL0     O 7643  11.188   7.312   5.201  0.1807 -0.5033 -0.2796
  781MOL0     C 7644  11.196   7.177   5.228 -0.2001  0.8625 -0.4374
  781MOL0     C 7645  11.091   7.101   5.183 -0.0197 -1.5981 -1.2229
  781MOL0     C 7646  11.084   6.962   5.206  0.4980 -0.6230 -1.0493
  781MOL0     C 7647  11.186   6.904   5.291  0.0178 -0.6587  0.5872
  781MOL0     O 7648  11.175   6.768   5.314 -1.1628 -0.5489 -0.1628
  781MOL0     C 7649  11.292   6.692   5.359 -0.6282 -0.5601  0.0047
  781MOL0     C 7650  11.277   6.543   5.350  0.3780  0.3998 -0.4615
  781MOL0     C 7651  11.305   6.489   5.216  0.2951 -0.0037 -0.1030
  781MOL0     C 7652  11.283   6.339   5.209  0.0258  0.4638 -0.3914
  781MOL0     C 7653  11.293   6.285   5.064  0.7036  0.3057  0.2109
  781MOL0     C 7654  11.244   6.142   5.067 -0.3690  0.0883  0.3515
  781MOL0     C 7655  11.203   6.086   4.926 -0.4921 -0.6245  1.7334
  781MOL0     C 7656  11.053   6.114   4.909 -0.5836  0.4725 -0.0553
  781MOL0     N 7657  10.986   6.054   4.792  0.9194  0.0721 -0.6414
  781MOL0     C 7658  11.038   6.060   4.667  0.1947 -0.1890  0.5339
  781MOL0     C 7659  10.946   5.987   4.601  0.5445 -0.4901  0.4582
  781MOL0     C 7660  10.983   5.924   4.467 -0.4046 -0.2331 -0.2553
  781MOL0     C 7661  11.004   6.037   4.357 -1.2256 -0.6929 -0.6066
  781MOL0     C 7662  10.880   6.105   4.318  0.0571  0.6452 -0.4276
  781MOL0     C 7663  10.910   6.218   4.232 -0.3045 -0.3429  0.1984
  781MOL0     O 7664  10.805   6.298   4.182  0.3328 -0.3629 -0.2906
  781MOL0     C 7665  10.746   6.399   4.261 -0.7310  0.4003  0.7064
  781MOL0     C 7666  10.638   6.467   4.214  0.4242  0.5782  0.3192
  781MOL0     C 7667  10.582   6.575   4.285  0.5389  0.6213  0.1209
  781MOL0     C 7668  10.473   6.670   4.228  0.2025  0.4380 -0.2078
  781MOL0     C 7669  10.626   6.598   4.420  0.8670  1.9529 -0.4038
  781MOL0     C 7670  10.562   6.702   4.502 -0.1325  0.0794  0.0447
  781MOL0     O 7671  10.524   6.821   4.448 -0.5287  0.1866 -0.1345
  781MOL0     C 7672  10.478   6.920   4.537  0.5758 -0.4469 -0.0928
  781MOL0     C 7673  10.555   7.040   4.531  0.6040  0.0611 -0.3429
  781MOL0     C 7674  10.532   7.142   4.621  0.0708  0.4870 -1.1957
  781MOL0     C 7675  10.420   7.137   4.713  0.4020 -0.3338  0.2882
  781MOL0     O 7676  10.400   7.236   4.800 -0.3723 -0.0317  0.3131
  781MOL0     C 7677  10.289   7.249   4.882 -0.0641  0.4338 -0.1098
  781MOL0     C 7678  10.302   7.389   4.932 -0.1232 -0.3733  0.0105
  781MOL0     C 7679  10.412   7.412   5.026  0.4830  0.6616 -0.3367
  781MOL0     C 7680  10.411   7.553   5.055  0.6717  0.5429  0.4038
  781MOL0     C 7681  10.539   7.592   5.132  0.1439 -0.3964 -0.5204
  781MOL0     C 7682  10.511   7.727   5.185 -0.5606 -0.1799 -0.5083
  781MOL0     C 7683  10.625   7.762   5.295 -0.5724 -0.1407 -0.0429
  781MOL0     C 7684  10.772   7.764   5.232 -0.4451 -0.4594  0.1206
  781MOL0    Cl 7685  10.787   7.903   5.109  0.1336  0.1380 -0.3753
  781MOL0     C 7686  10.337   7.019   4.704 -0.2903 -0.9982  0.5944
  781MOL0     C 7687  10.370   6.914   4.627 -0.7281  0.0909  0.0499
  781MOL0     O 7688  10.561   6.673   4.620 -0.0694 -0.2763 -0.7122
  781MOL0     C 7689  10.745   6.532   4.466  0.0430 -0.0667  0.5695
  781MOL0     C 7690  10.803   6.439   4.383  0.0167  0.2231  0.2575
  781MOL0     N 7691  10.844   5.956   4.690 -0.4788 -0.5408 -0.4301
  781MOL0     N 7692  10.871   5.985   4.814 -0.6523  1.4091  0.3369
  781MOL0     C 7693  11.301   6.980   5.331  0.0405 -0.3839 -0.2632
  781MOL0     C 7694  11.300   7.115   5.302  0.5855 -1.0021 -0.4025
  781MOL0     C 7695  11.287   7.526   5.148 -0.3198 -0.0194 -0.0510
  781MOL0     C 7696  11.198   7.599   5.231  0.3605  0.9180  0.5564
  781MOL0     C 7697  11.186   7.734   5.230  0.6522 -0.2759 -0.3978
  781MOL0     C 7698  11.280   7.807   5.156  1.1425  0.0793  0.4604
  781MOL0     O 7699  11.271   7.944   5.145 -0.4980  0.1998  0.1643
  781MOL0     C 7700  11.205   7.981   5.023  0.1724 -0.2689 -0.0710
  781MOL0     C 7701  11.206   8.126   5.016 -0.0908 -0.1979 -0.8458
  781MOL0     C 7702  11.079   8.175   5.099 -0.7381 -0.0902  0.2447
  781MOL0     C 7703  10.959   8.208   5.011  0.9335  0.3394 -0.8088
  781MOL0     C 7704  10.992   8.310   4.906 -0.7220 -0.6980 -0.7896
  781MOL0     C 7705  11.011   8.396   4.822  0.9461 -0.2742  0.2312
  781MOL0     C 7706  11.391   7.739   5.103  0.5984  0.3942 -0.2461
  781MOL0     C 7707  11.383   7.604   5.083 -0.0009  0.2566  0.2284
  781MOL0     C 7708  11.512   7.546   5.017 -0.0855  0.3583  0.2972
  781MOL0     H 7709  11.011   7.154   5.133  0.2791  1.9244  1.6259
  781MOL0     H 7710  11.006   6.891   5.180  0.9892 -1.9604  0.9338
  781MOL0     H 7711  11.315   6.721   5.462 -0.8033  0.2951 -0.1872
  781MOL0     H 7712  11.382   6.725   5.305 -0.7362 -0.8022 -0.3242
  781MOL0     H 7713  11.355   6.501   5.414  0.5543 -1.6503 -1.9258
  781MOL0     H 7714  11.177   6.518   5.388  0.1163 -1.2731 -2.1215
  781MOL0     H 7715  11.234   6.541   5.152  1.8844  1.1552 -1.0170
  781MOL0     H 7716  11.405   6.522   5.185 -0.5038  1.5995 -1.1068
  781MOL0     H 7717  11.366   6.295   5.263 -0.6527  1.1342  1.2545
  781MOL0     H 7718  11.181   6.323   5.246  0.4871 -0.9341  0.3274
  781MOL0     H 7719  11.392   6.289   5.016 -0.0277 -0.1466 -1.4072
  781MOL0     H 7720  11.219   6.342   5.006 -1.5260  1.1296  3.6004
  781MOL0     H 7721  11.329   6.082   5.102 -1.0893 -0.0685  1.9043
  781MOL0     H 7722  11.160   6.138   5.136  1.7246  0.9404  3.1516
  781MOL0     H 7723  11.229   5.980   4.920 -2.0738 -1.0274  1.3227
  781MOL0     H 7724  11.253   6.134   4.842 -1.4434  0.6215  1.8399
  781MOL0     H 7725  11.010   6.068   4.998  1.9547  1.0206  1.5633
  781MOL0     H 7726  11.036   6.222   4.903 -1.6645  0.2906 -0.6813
  781MOL0     H 7727  11.136   6.096   4.637  1.6840 -1.0330  3.8594
  781MOL0     H 7728  10.902   5.856   4.439 -0.4331 -0.1577 -0.3576
  781MOL0     H 7729  11.074   5.864   4.473 -1.1416 -1.5620 -1.7891
  781MOL0     H 7730  11.089   6.099   4.389 -3.1264  1.2790  0.9790
  781MOL0     H 7731  11.035   5.992   4.263  2.9353  2.1291 -0.8927
  781MOL0     H 7732  10.824   6.030   4.261 -0.4628  0.1353  0.7146
  781MOL0     H 7733  10.818   6.131   4.405 -2.2186 -1.5974 -1.2400
  781MOL0     H 7734  10.991   6.286   4.261 -0.4513  0.0777 -0.3770
  781MOL0     H 7735  10.947   6.159   4.147 -0.4173  0.4767 -0.4289
  781MOL0     H 7736  10.601   6.440   4.116 -0.0347  0.1718  0.5978
  781MOL0     H 7737  10.392   6.683   4.300 -0.2883  1.0029 -0.8438
  781MOL0     H 7738  10.429   6.620   4.141 -3.8878 -1.0129  2.4025
  781MOL0     H 7739  10.526   6.757   4.188  1.6527 -1.6560 -3.2137
  781MOL0     H 7740  10.633   7.032   4.457  0.4277 -3.5923 -0.3321
  781MOL0     H 7741  10.601   7.224   4.605 -2.6774  3.1858 -0.2325
  781MOL0     H 7742  10.196   7.239   4.825  0.7485 -4.8622 -1.0291
  781MOL0     H 7743  10.291   7.180   4.966 -2.3189 -1.6457 -1.6169
  781MOL0     H 7744  10.301   7.449   4.841  0.4491 -2.5391 -1.5127
  781MOL0     H 7745  10.205   7.401   4.981  0.4850 -0.8471  1.3831
  781MOL0     H 7746  10.506   7.376   4.983  1.7019  4.3071 -1.0192
  781MOL0     H 7747  10.388   7.356   5.117  0.4327  2.2301  0.6401
  781MOL0     H 7748  10.315   7.588   5.094  0.2280  0.0994 -0.2552
  781MOL0     H 7749  10.419   7.609   4.961  1.8515  1.0180  0.7645
  781MOL0     H 7750  10.560   7.523   5.214 -0.2824 -1.1410 -1.0231
  781MOL0     H 7751  10.623   7.591   5.063 -0.8921 -0.8575 -1.7963
  781MOL0     H 7752  10.412   7.722   5.231 -0.2964 -0.7990  0.0236
  781MOL0     H 7753  10.501   7.809   5.114 -5.2512 -1.6487 -1.9452
  781MOL0     H 7754  10.635   7.686   5.374 -2.3376 -1.5996 -1.1387
  781MOL0     H 7755  10.623   7.863   5.336  0.1395  0.5108 -1.5165
  781MOL0     H 7756  10.811   7.678   5.177 -0.3750  0.9084 -2.0697
  781MOL0     H 7757  10.843   7.792   5.310  1.8840 -1.3589 -1.5677
  781MOL0     H 7758  10.256   7.019   4.776 -2.4781  1.5092 -1.6186
  781MOL0     H 7759  10.312   6.827   4.656  1.6826 -0.1796  5.0624
  781MOL0     H 7760  10.776   6.548   4.569  2.4698 -1.1712  0.0883
  781MOL0     H 7761  10.884   6.385   4.433  0.2701 -0.5416 -0.9350
  781MOL0     H 7762  11.387   6.939   5.384  0.1148 -0.9819 -0.8310
  781MOL0     H 7763  11.380   7.175   5.345  0.7452 -1.2011 -0.4232
  781MOL0     H 7764  11.148   7.531   5.300  1.6876 -1.0351 -0.3225
  781MOL0     H 7765  11.113   7.784   5.292 -0.5750 -1.2682 -0.9807
  781MOL0     H 7766  11.259   7.934   4.940  0.2223 -0.4503  0.0625
  781MOL0     H 7767  11.101   7.951   5.007  0.3924  0.2643 -2.9317
  781MOL0     H 7768  11.198   8.161   4.913  2.9951  1.5174 -0.6025
  781MOL0     H 7769  11.299   8.168   5.055 -0.1562  1.2319 -2.1099
  781MOL0     H 7770  11.060   8.094   5.170  0.0093  0.4390  1.0734
  781MOL0     H 7771  11.103   8.263   5.160 -2.5660 -1.2471  2.8341
  781MOL0     H 7772  10.865   8.242   5.055  0.0593  0.4854 -2.6823
  781MOL0     H 7773  10.929   8.119   4.954  1.5722 -0.1916 -0.3225
  781MOL0     H 7774  11.028   8.460   4.737  0.1117 -0.5149 -0.1284
  781MOL0     H 7775  11.471   7.797   5.059 -0.4700  1.2515 -1.1045
  781MOL0     H 7776  11.591   7.622   5.010 -1.1045  1.3050 -3.5644
  781MOL0     H 7777  11.553   7.471   5.086 -0.5608  0.7117  0.9726
  781MOL0     H 7778  11.502   7.506   4.916 -0.0214  2.0702 -0.4211
  782MOL0     O 7779   7.084   1.237   1.953 -0.3658  0.1952  0.3638
  782MOL0     C 7780   7.167   1.147   1.935  0.4417 -0.6185 -0.3994
  782MOL0     O 7781   7.301   1.159   1.956 -0.1166 -0.6821 -0.0651
  782MOL0     C 7782   7.368   1.262   2.017  0.2730  0.7656 -0.1166
  782MOL0     C 7783   7.440   1.344   1.931 -0.8568  0.1342  0.1315
  782MOL0     C 7784   7.494   1.465   1.976  0.6680  0.0403 -0.0394
  782MOL0     C 7785   7.483   1.502   2.105 -0.2688  0.2662 -0.7705
  782MOL0     O 7786   7.547   1.622   2.130  0.3972 -0.6970 -0.0640
  782MOL0     C 7787   7.500   1.674   2.256  0.2629  0.1838  0.6038
  782MOL0     C 7788   7.562   1.814   2.286 -0.1682 -0.7404  0.7348
  782MOL0     C 7789   7.537   1.876   2.427  0.5000 -0.0383  0.2661
  782MOL0     C 7790   7.423   1.966   2.445 -0.1208 -0.4347 -0.3113
  782MOL0     C 7791   7.437   2.057   2.574 -0.2568 -0.1375 -0.5669
  782MOL0     C 7792   7.419   1.978   2.707  0.6102 -0.2323  0.0837
  782MOL0     C 7793   7.303   2.030   2.790 -0.0388 -0.1280  0.6514
  782MOL0     C 7794   7.167   1.966   2.765  0.4604  0.0480  0.4714
  782MOL0     N 7795   7.056   2.026   2.836  0.9014  0.3582  0.3153
  782MOL0     C 7796   7.019   2.036   2.963  0.9143 -0.2691 -0.6881
  782MOL0     C 7797   6.899   2.113   2.969 -0.2242  0.0960  0.4889
  782MOL0     C 7798   6.831   2.179   3.094  0.1977  1.5706 -0.0049
  782MOL0     C 7799   6.781   2.333   3.078 -1.3775  0.7452 -0.2615
  782MOL0     C 7800   6.792   2.411   3.213 -0.3742  0.0983 -0.6010
  782MOL0     C 7801   6.941   2.438   3.241  0.5540 -0.3315 -0.3219
  782MOL0     O 7802   6.967   2.546   3.338  0.1921 -0.4155 -0.3695
  782MOL0     C 7803   7.090   2.613   3.328  0.5679  0.4021  0.5072
  782MOL0     C 7804   7.200   2.548   3.285 -0.0356 -0.5817  0.9955
  782MOL0     C 7805   7.320   2.607   3.261 -0.0751 -0.0380 -0.8960
  782MOL0     C 7806   7.433   2.522   3.191  0.4849 -0.0020  0.2268
  782MOL0     C 7807   7.340   2.745   3.301 -0.8062  0.5040 -1.0495
  782MOL0     C 7808   7.458   2.821   3.258 -0.3162 -0.3237 -0.2129
  782MOL0     O 7809   7.581   2.758   3.249  1.0634  0.0061 -0.0258
  782MOL0     C 7810   7.686   2.834   3.217 -0.3043  0.1454  0.0440
  782MOL0     C 7811   7.722   2.858   3.082  1.1630  0.0294 -0.6328
  782MOL0     C 7812   7.837   2.926   3.053  0.2842 -0.7101 -0.8753
  782MOL0     C 7813   7.909   2.987   3.160 -0.0095 -1.0263  0.2416
  782MOL0     O 7814   8.008   3.076   3.113  0.3692 -0.6407 -0.5360
  782MOL0     C 7815   8.008   3.209   3.166  0.3379 -0.5411 -0.3757
  782MOL0     C 7816   8.135   3.252   3.228  0.1122 -0.5401  0.9878
  782MOL0     C 7817   8.130   3.399   3.262 -0.0200 -0.4889  0.2294
  782MOL0     C 7818   8.276   3.455   3.295  1.0827 -0.6340 -0.7353
  782MOL0     C 7819   8.279   3.539   3.413 -0.0808  0.0876  0.4881
  782MOL0     C 7820   8.197   3.669   3.408 -0.0011 -1.3537 -1.0363
  782MOL0     C 7821   8.049   3.674   3.465 -0.5081  0.8695 -1.0532
  782MOL0     C 7822   8.012   3.802   3.537  0.3917 -0.0751  0.5443
  782MOL0    Cl 7823   8.098   3.827   3.691 -0.0140  0.3519  0.2689
  782MOL0     C 7824   7.876   2.970   3.296 -1.2716 -0.2834  0.0241
  782MOL0     C 7825   7.765   2.888   3.318  0.4453  0.2154 -0.0231
  782MOL0     O 7826   7.430   2.938   3.230  0.1880 -0.6675 -1.2320
  782MOL0     C 7827   7.226   2.814   3.346  0.1369  0.6458  0.3339
  782MOL0     C 7828   7.104   2.745   3.362  0.0072 -0.7887 -0.3931
  782MOL0     N 7829   6.863   2.135   2.837 -0.2680  0.4756  0.4435
  782MOL0     N 7830   6.944   2.067   2.768 -1.3208 -0.3733 -0.2077
  782MOL0     C 7831   7.407   1.413   2.191  0.1885 -0.0040 -1.0314
  782MOL0     C 7832   7.347   1.288   2.149 -1.2806  0.0160 -0.4807
  782MOL0     C 7833   7.114   1.015   1.894  0.6406 -0.4813 -0.4084
  782MOL0     C 7834   7.197   0.948   1.810 -0.0205  0.2648 -0.4269
  782MOL0     C 7835   7.163   0.817   1.759  1.2261  0.4869  0.4951
  782MOL0     C 7836   7.041   0.766   1.803 -0.7513  0.2910 -0.5984
  782MOL0     O 7837   6.996   0.647   1.746  0.1466  0.3302 -0.2490
  782MOL0     C 7838   6.963   0.544   1.842  0.5468  1.3333  0.9148
  782MOL0     C 7839   6.839   0.485   1.777 -0.1544  0.1534 -0.5369
  782MOL0     C 7840   6.702   0.549   1.826  0.2514 -0.2334  0.6496
  782MOL0     C 7841   6.573   0.475   1.776 -0.3986  0.0308 -0.3106
  782MOL0     C 7842   6.575   0.338   1.819  0.5016 -0.5198  1.0644
  782MOL0     C 7843   6.560   0.223   1.840 -0.3667 -0.4312 -0.3023
  782MOL0     C 7844   6.966   0.829   1.911 -0.1587  1.3351  0.0465
  782MOL0     C 7845   7.002   0.954   1.951  1.2688  0.4995 -1.3598
  782MOL0     C 7846   6.921   1.027   2.060  0.6255 -0.4732  0.0119
  782MOL0     H 7847   7.440   1.322   1.825 -0.2231  0.1075  0.1380
  782MOL0     H 7848   7.530   1.528   1.896  1.3270 -0.8814 -0.4826
  782MOL0     H 7849   7.539   1.607   2.332 -0.3560  1.0030  1.6717
  782MOL0     H 7850   7.392   1.683   2.269 -0.0196  0.9288 -1.6761
  782MOL0     H 7851   7.665   1.780   2.275 -0.9752 -2.5987 -2.3756
  782MOL0     H 7852   7.529   1.875   2.202  1.8926  2.4040  2.0442
  782MOL0     H 7853   7.535   1.793   2.498 -3.3675  0.1095  0.5723
  782MOL0     H 7854   7.624   1.940   2.447  0.5033  0.8361 -2.1350
  782MOL0     H 7855   7.413   2.035   2.361 -4.7334  1.2705  1.3238
  782MOL0     H 7856   7.327   1.913   2.452 -2.8103  3.9108 -0.2611
  782MOL0     H 7857   7.360   2.129   2.545 -2.1032 -3.0278 -3.6550
  782MOL0     H 7858   7.523   2.123   2.582  0.7594 -1.6215  4.9833
  782MOL0     H 7859   7.392   1.875   2.680 -1.0605  0.1233  0.2996
  782MOL0     H 7860   7.509   1.980   2.770 -0.6547 -1.1080  2.0171
  782MOL0     H 7861   7.298   2.139   2.781  2.2522  0.0529  1.0178
  782MOL0     H 7862   7.317   2.008   2.897 -1.1278  0.2242  0.8845
  782MOL0     H 7863   7.144   1.973   2.659 -0.8013 -2.5025  0.4965
  782MOL0     H 7864   7.175   1.860   2.791 -1.2003 -0.2507 -0.1328
  782MOL0     H 7865   7.078   2.016   3.052 -1.0216 -1.3046  0.4481
  782MOL0     H 7866   6.908   2.172   3.171 -1.4819 -0.0749  1.6231
  782MOL0     H 7867   6.749   2.117   3.131 -0.3290  2.2444 -0.0149
  782MOL0     H 7868   6.846   2.376   3.001  0.3408 -0.8123  0.2435
  782MOL0     H 7869   6.681   2.325   3.034 -1.5173  0.1006  0.1615
  782MOL0     H 7870   6.746   2.510   3.200  0.7833  0.6867 -0.2952
  782MOL0     H 7871   6.758   2.348   3.296 -0.3373 -3.3527 -3.0115
  782MOL0     H 7872   6.983   2.349   3.289  1.8955 -0.1077 -1.0351
  782MOL0     H 7873   6.999   2.459   3.151 -1.3266  0.5263 -1.3947
  782MOL0     H 7874   7.181   2.443   3.262 -1.6933  0.4212 -3.2431
  782MOL0     H 7875   7.524   2.497   3.247  1.9921  5.6782  0.9717
  782MOL0     H 7876   7.468   2.581   3.105  0.7507  2.4422  1.9212
  782MOL0     H 7877   7.391   2.430   3.149  2.8753 -1.7554  1.4001
  782MOL0     H 7878   7.651   2.834   3.004  1.7210 -2.3790 -0.4950
  782MOL0     H 7879   7.858   2.944   2.949 -0.1747  0.7957 -0.7197
  782MOL0     H 7880   7.978   3.270   3.081  1.0601  0.9850  0.4270
  782MOL0     H 7881   7.923   3.234   3.231  0.9796  4.1079 -1.0384
  782MOL0     H 7882   8.149   3.201   3.324  2.9021  2.4107  2.3606
  782MOL0     H 7883   8.221   3.233   3.164  0.1660 -0.0142  0.8976
  782MOL0     H 7884   8.066   3.419   3.349 -0.8775  0.8521 -0.6761
  782MOL0     H 7885   8.103   3.459   3.175  4.1367  1.3968  0.0175
  782MOL0     H 7886   8.314   3.509   3.207 -0.0028  0.4072 -0.5969
  782MOL0     H 7887   8.352   3.377   3.309 -0.5213 -2.0248  0.7088
  782MOL0     H 7888   8.264   3.487   3.508  1.8762 -0.0210  0.7751
  782MOL0     H 7889   8.383   3.569   3.430 -0.6470  0.9295  2.8895
  782MOL0     H 7890   8.200   3.714   3.309 -1.6431  1.9040  0.2391
  782MOL0     H 7891   8.245   3.746   3.470  2.0686 -1.6363 -2.1808
  782MOL0     H 7892   8.045   3.592   3.537  0.2403 -0.6749 -2.7115
  782MOL0     H 7893   7.975   3.646   3.390 -2.8225 -2.4101  2.0901
  782MOL0     H 7894   7.907   3.794   3.569  0.4185 -2.0971  0.2213
  782MOL0     H 7895   8.040   3.892   3.482 -2.8501 -0.3428 -1.8612
  782MOL0     H 7896   7.933   3.019   3.375 -1.0696  3.6306 -2.2617
  782MOL0     H 7897   7.734   2.870   3.420  1.9785 -0.0802  0.4170
  782MOL0     H 7898   7.237   2.920   3.368  0.3243  0.2598  2.2587
  782MOL0     H 7899   7.019   2.795   3.408  2.1549  0.7958  2.1472
  782MOL0     H 7900   7.386   1.443   2.293  1.7115  0.1533 -0.7445
  782MOL0     H 7901   7.293   1.216   2.210  2.4779 -0.4012  2.8251
  782MOL0     H 7902   7.288   0.995   1.772  1.8277 -0.7301  2.4380
  782MOL0     H 7903   7.226   0.757   1.695  0.1646  0.4734 -0.5608
  782MOL0     H 7904   7.049   0.479   1.821 -0.9158  0.5381 -3.9106
  782MOL0     H 7905   6.960   0.573   1.947 -1.5411 -0.5806  1.4414
  782MOL0     H 7906   6.839   0.381   1.812 -0.1651 -0.5964 -2.6136
  782MOL0     H 7907   6.842   0.484   1.668  0.5577 -0.4307 -0.5222
  782MOL0     H 7908   6.706   0.550   1.935 -1.5989 -1.0814  0.7662
  782MOL0     H 7909   6.701   0.651   1.786 -2.3964 -0.6281 -0.5261
  782MOL0     H 7910   6.571   0.477   1.666 -0.3094 -0.3681 -0.3222
  782MOL0     H 7911   6.500   0.545   1.816 -0.4585  1.0931 -2.1426
  782MOL0     H 7912   6.551   0.120   1.869 -0.6062 -0.8727 -1.8024
  782MOL0     H 7913   6.876   0.784   1.952 -0.5066 -0.2762 -2.2416
  782MOL0     H 7914   6.984   1.072   2.137  1.4288 -0.6380 -0.5388
  782MOL0     H 7915   6.875   1.114   2.012  0.5567  0.9970  2.5590
  782MOL0     H 7916   6.846   0.968   2.114 -0.5954 -0.5495 -1.6730
  783MOL0     O 7917   0.650   8.833   1.828 -0.1249  0.2024 -0.8661
  783MOL0     C 7918   0.707   8.848   1.718 -0.4405 -0.0882 -0.1023
  783MOL0     O 7919   0.810   8.767   1.663  0.4999  0.5095 -0.2570
  783MOL0     C 7920   0.845   8.663   1.735  0.3237  0.3829  0.3937
  783MOL0     C 7921   0.762   8.551   1.740 -0.3532 -0.1538 -0.0654
  783MOL0     C 7922   0.803   8.436   1.817  0.1758  0.5262  0.1121
  783MOL0     C 7923   0.932   8.432   1.877  0.3137  0.3983  0.0937
  783MOL0     O 7924   0.972   8.314   1.930 -1.2540  0.6148  0.2089
  783MOL0     C 7925   1.101   8.309   1.996  0.3570 -0.7569  0.0611
  783MOL0     C 7926   1.136   8.181   2.065  0.4780 -0.7141 -0.2740
  783MOL0     C 7927   1.269   8.185   2.144 -0.7106 -0.0971  0.3772
  783MOL0     C 7928   1.278   8.083   2.246 -0.2904 -0.5933 -0.1762
  783MOL0     C 7929   1.406   8.082   2.332  0.8264 -0.6612  0.2156
  783MOL0     C 7930   1.424   7.949   2.399 -0.0522 -0.2956  0.9298
  783MOL0     C 7931   1.552   7.957   2.504  0.8743  0.2306  0.7333
  783MOL0     C 7932   1.572   7.843   2.592 -0.7640  0.2749 -1.6335
  783MOL0     N 7933   1.489   7.842   2.718 -0.5319  0.0189  0.8858
  783MOL0     C 7934   1.535   7.882   2.843 -0.6941  0.1073 -0.0338
  783MOL0     C 7935   1.431   7.844   2.928 -0.4565  0.3650 -0.8102
  783MOL0     C 7936   1.439   7.851   3.073  0.0598 -0.6497  0.1804
  783MOL0     C 7937   1.327   7.947   3.122  1.2446  0.1730  0.4355
  783MOL0     C 7938   1.339   7.993   3.273  0.6597 -0.2518 -0.6859
  783MOL0     C 7939   1.204   8.039   3.331  0.3264  0.4878  0.8543
  783MOL0     O 7940   1.157   8.159   3.259  0.4136  0.0028  0.4402
  783MOL0     C 7941   1.229   8.279   3.278 -1.4665  0.6218 -0.2909
  783MOL0     C 7942   1.278   8.355   3.179  0.8443  0.2091  0.7323
  783MOL0     C 7943   1.348   8.477   3.192  0.0657  0.6983  0.4230
  783MOL0     C 7944   1.380   8.557   3.069  0.1261 -0.1412  0.0985
  783MOL0     C 7945   1.361   8.521   3.330 -0.8103 -0.2733  0.3433
  783MOL0     C 7946   1.435   8.641   3.367 -0.3491  0.3860 -0.3928
  783MOL0     O 7947   1.468   8.663   3.490  0.8058  0.3575 -0.5399
  783MOL0     C 7948   1.510   8.786   3.525  0.7336 -0.1397  1.2149
  783MOL0     C 7949   1.434   8.849   3.620  0.0678 -0.9361  0.4146
  783MOL0     C 7950   1.467   8.966   3.676 -0.1755  0.5970 -0.9644
  783MOL0     C 7951   1.576   9.041   3.634  0.6799  0.2841 -0.2165
  783MOL0     O 7952   1.592   9.156   3.708 -0.0408 -0.5648 -1.2739
  783MOL0     C 7953   1.733   9.196   3.728 -0.4863  0.0704  0.1011
  783MOL0     C 7954   1.747   9.340   3.801  0.3822  0.2740  0.1084
  783MOL0     C 7955   1.685   9.337   3.946 -0.1308 -0.0838  0.9191
  783MOL0     C 7956   1.607   9.464   3.964  0.3794  0.4955 -0.6332
  783MOL0     C 7957   1.525   9.477   4.089 -0.2605 -0.2525 -0.2612
  783MOL0     C 7958   1.593   9.444   4.223 -1.1624 -0.1970  0.2048
  783MOL0     C 7959   1.492   9.467   4.333  1.4172 -0.2666 -0.5131
  783MOL0     C 7960   1.555   9.423   4.471 -0.2389  0.1874 -0.0664
  783MOL0    Cl 7961   1.537   9.248   4.483  0.4791  0.6320 -0.5309
  783MOL0     C 7962   1.662   8.981   3.540  0.0207  0.6666 -0.4527
  783MOL0     C 7963   1.623   8.854   3.488 -0.3624 -0.5759  1.0093
  783MOL0     O 7964   1.468   8.719   3.272 -0.2780 -0.1666 -0.0756
  783MOL0     C 7965   1.306   8.442   3.435  0.1634 -0.3594  0.8094
  783MOL0     C 7966   1.240   8.318   3.410 -0.1496 -0.0706 -0.1254
  783MOL0     N 7967   1.335   7.784   2.855 -0.1897  0.4157 -0.8494
  783MOL0     N 7968   1.370   7.776   2.731 -1.1630 -0.1096  0.0792
  783MOL0     C 7969   1.011   8.550   1.872  0.4885  0.3235  0.6031
  783MOL0     C 7970   0.965   8.663   1.809 -0.1996  0.0914  1.7210
  783MOL0     C 7971   0.679   8.967   1.634  0.1185  0.8676  0.2155
  783MOL0     C 7972   0.769   8.989   1.520 -0.4910 -0.6881  0.1802
  783MOL0     C 7973   0.736   9.075   1.419  0.1279  0.0401 -0.5029
  783MOL0     C 7974   0.633   9.154   1.440  0.3237 -0.0848  0.5935
  783MOL0     O 7975   0.607   9.237   1.339  0.3539 -0.8993 -0.0732
  783MOL0     C 7976   0.505   9.179   1.256  1.0476  0.0471 -0.3384
  783MOL0     C 7977   0.427   9.287   1.180  0.1520  0.3412  0.5777
  783MOL0     C 7978   0.269   9.266   1.185  1.1486  0.8121 -0.0768
  783MOL0     C 7979   0.175   9.374   1.149 -0.4583 -0.6785 -0.1838
  783MOL0     C 7980   0.104   9.439   1.261 -0.5148  0.6601 -0.5871
  783MOL0     C 7981   0.039   9.497   1.350 -0.1704  0.2612 -0.7556
  783MOL0     C 7982   0.552   9.152   1.556  0.1648 -0.8127 -0.1302
  783MOL0     C 7983   0.570   9.046   1.645  0.4733  0.4143 -0.2634
  783MOL0     C 7984   0.463   9.031   1.759  0.0386  0.4564  0.8153
  783MOL0     H 7985   0.668   8.549   1.686 -0.6467  3.5678  0.0475
  783MOL0     H 7986   0.732   8.355   1.825  1.5791 -0.7559 -0.0350
  783MOL0     H 7987   1.127   8.395   2.058  4.5660 -2.1873  0.6629
  783MOL0     H 7988   1.170   8.313   1.911 -1.6064 -1.6298 -1.6519
  783MOL0     H 7989   1.055   8.155   2.134 -0.6924  2.7906 -0.1679
  783MOL0     H 7990   1.146   8.090   2.006 -0.5906 -2.7142  2.4009
  783MOL0     H 7991   1.364   8.182   2.089 -1.0090 -0.4085 -0.1274
  783MOL0     H 7992   1.279   8.284   2.189  1.3860  0.0522 -0.2852
  783MOL0     H 7993   1.184   8.082   2.303 -0.7619  1.2992 -0.8760
  783MOL0     H 7994   1.290   7.991   2.188 -1.6863 -0.7936 -0.1981
  783MOL0     H 7995   1.396   8.173   2.391  3.2917 -0.3929  0.3173
  783MOL0     H 7996   1.494   8.108   2.272  0.3366  4.0198  1.1450
  783MOL0     H 7997   1.328   7.929   2.447 -0.4339 -2.6434 -0.6218
  783MOL0     H 7998   1.453   7.862   2.338  0.4242 -0.0738  0.8389
  783MOL0     H 7999   1.564   8.052   2.558  1.6858  1.1857 -1.0466
  783MOL0     H 8000   1.636   7.947   2.435  1.0590  1.9516  0.6680
  783MOL0     H 8001   1.566   7.745   2.543 -0.7671 -0.1763 -0.7669
  783MOL0     H 8002   1.671   7.848   2.638 -1.6231 -0.3413  0.4172
  783MOL0     H 8003   1.627   7.930   2.874 -1.6805  1.1641  1.4207
  783MOL0     H 8004   1.535   7.896   3.099  0.2833 -0.4373 -0.9464
  783MOL0     H 8005   1.424   7.751   3.117  1.7159 -1.9365 -1.9769
  783MOL0     H 8006   1.324   8.040   3.064 -1.7132 -0.0827  0.0666
  783MOL0     H 8007   1.233   7.899   3.094  1.8514 -0.2182 -1.0253
  783MOL0     H 8008   1.365   7.904   3.331 -0.1654 -1.4077 -2.0072
  783MOL0     H 8009   1.412   8.070   3.296  1.2614 -1.1481  0.4802
  783MOL0     H 8010   1.139   7.959   3.295  1.1858  0.1111  0.1116
  783MOL0     H 8011   1.209   8.040   3.440 -0.5475  3.1370  0.9347
  783MOL0     H 8012   1.245   8.332   3.078  1.1451  0.5622  0.5517
  783MOL0     H 8013   1.331   8.655   3.064  0.3979  0.0209  0.5421
  783MOL0     H 8014   1.349   8.511   2.975  1.3609 -0.7688 -0.0125
  783MOL0     H 8015   1.486   8.582   3.057 -0.3092  1.7875 -0.1435
  783MOL0     H 8016   1.337   8.803   3.633 -1.3379  1.2457 -1.4800
  783MOL0     H 8017   1.399   8.993   3.757 -0.6526 -2.6311 -0.1517
  783MOL0     H 8018   1.781   9.133   3.804  1.8615  0.5817 -0.8861
  783MOL0     H 8019   1.794   9.200   3.638 -0.6424 -0.3761 -0.0278
  783MOL0     H 8020   1.851   9.371   3.809  1.0686 -2.2041  2.0473
  783MOL0     H 8021   1.687   9.408   3.740 -1.4745 -0.9003  0.5290
  783MOL0     H 8022   1.774   9.347   4.009  2.1417 -0.6200 -1.9823
  783MOL0     H 8023   1.616   9.251   3.949  0.7615 -0.7966  1.7258
  783MOL0     H 8024   1.542   9.491   3.881 -0.4706 -0.1205 -0.1956
  783MOL0     H 8025   1.679   9.545   3.975  0.8985 -0.0668  0.2951
  783MOL0     H 8026   1.470   9.570   4.104 -1.2675 -0.6938 -1.0971
  783MOL0     H 8027   1.437   9.414   4.076  0.4107 -0.9910 -1.4244
  783MOL0     H 8028   1.683   9.503   4.244  1.1421 -3.4781  0.2498
  783MOL0     H 8029   1.622   9.339   4.214 -1.0696 -0.0217 -2.1799
  783MOL0     H 8030   1.394   9.425   4.309 -0.1907  1.8777  1.8414
  783MOL0     H 8031   1.477   9.575   4.342 -0.3095 -0.5561  0.3983
  783MOL0     H 8032   1.491   9.458   4.553  0.3595 -1.4866  1.1502
  783MOL0     H 8033   1.658   9.460   4.480 -0.8953  2.1389  0.0846
  783MOL0     H 8034   1.758   9.024   3.513  1.6954 -1.2642  1.9175
  783MOL0     H 8035   1.687   8.814   3.410  0.1132  0.3138  0.9311
  783MOL0     H 8036   1.332   8.479   3.534  1.4404 -1.0240  0.7458
  783MOL0     H 8037   1.188   8.263   3.488 -1.6952 -1.3680 -1.9693
  783MOL0     H 8038   1.102   8.564   1.929  0.1310  1.8685  0.8216
  783MOL0     H 8039   1.023   8.754   1.814 -4.8004  3.4601  0.5063
  783MOL0     H 8040   0.861   8.931   1.523 -3.0838 -5.2904  0.4844
  783MOL0     H 8041   0.794   9.107   1.333 -0.8991  4.0758  0.1017
  783MOL0     H 8042   0.550   9.113   1.182  1.3276  0.1340 -0.2438
  783MOL0     H 8043   0.440   9.116   1.319 -0.4917  0.4968 -1.4098
  783MOL0     H 8044   0.464   9.296   1.077 -3.3127  3.0490 -0.6782
  783MOL0     H 8045   0.442   9.388   1.220 -2.3390 -0.2778  3.4358
  783MOL0     H 8046   0.245   9.181   1.121  0.2629  1.2440 -0.3386
  783MOL0     H 8047   0.255   9.241   1.290  1.6985  1.2813  0.1145
  783MOL0     H 8048   0.098   9.316   1.097 -2.8037  0.9581  1.2756
  783MOL0     H 8049   0.221   9.447   1.081  1.5274 -2.0375 -0.3929
  783MOL0     H 8050  -0.010   9.551   1.429 -1.6870 -1.6933 -0.2739
  783MOL0     H 8051   0.463   9.213   1.569 -0.2134  0.1630 -5.1494
  783MOL0     H 8052   0.518   9.036   1.853 -0.0283  1.3437  0.8177
  783MOL0     H 8053   0.383   9.105   1.757  0.5128  1.0227  1.8953
  783MOL0     H 8054   0.414   8.933   1.749 -0.9417  0.9619  0.5050
  784MOL0     O 8055   5.634   7.931   9.623 -0.3897  0.2294 -0.4497
  784MOL0     C 8056   5.691   7.905   9.519 -0.4572  0.7099  0.0979
  784MOL0     O 8057   5.636   7.905   9.399 -0.7101  0.0412 -0.6557
  784MOL0     C 8058   5.509   7.851   9.383  0.0254  0.9210 -0.5457
  784MOL0     C 8059   5.419   7.778   9.475 -0.1122 -0.2613  0.4122
  784MOL0     C 8060   5.297   7.737   9.437 -0.7248 -1.2671  0.7988
  784MOL0     C 8061   5.257   7.750   9.306  0.4123  0.5576  0.4530
  784MOL0     O 8062   5.145   7.682   9.274 -0.9218  0.2523 -0.6712
  784MOL0     C 8063   5.118   7.673   9.130  0.3954  0.2248  0.2126
  784MOL0     C 8064   5.030   7.557   9.084 -0.4200  0.0327 -0.4645
  784MOL0     C 8065   5.088   7.417   9.130 -0.2966 -0.2955 -0.1527
  784MOL0     C 8066   4.999   7.308   9.069 -1.1875 -0.0186  0.6630
  784MOL0     C 8067   4.979   7.205   9.172 -0.2368  0.5410  0.4237
  784MOL0     C 8068   5.102   7.107   9.194 -0.1068  0.4146 -0.8926
  784MOL0     C 8069   5.080   6.957   9.229 -0.6030 -0.4561  0.7629
  784MOL0     C 8070   4.974   6.931   9.336 -0.8209 -0.2130  0.3015
  784MOL0     N 8071   4.989   6.786   9.377 -0.9563  0.2367  0.2940
  784MOL0     C 8072   5.092   6.740   9.456 -0.0788 -0.2687 -0.0303
  784MOL0     C 8073   5.064   6.609   9.474 -0.3133 -0.7299  0.4711
  784MOL0     C 8074   5.164   6.513   9.549 -0.2747 -0.1650 -0.4586
  784MOL0     C 8075   5.192   6.383   9.468 -0.2676  0.1284 -0.1853
  784MOL0     C 8076   5.249   6.414   9.331  0.9689 -0.0120  0.8219
  784MOL0     C 8077   5.401   6.450   9.346 -0.0879  0.4663 -0.4466
  784MOL0     O 8078   5.475   6.477   9.225  0.0423  0.3926 -0.6493
  784MOL0     C 8079   5.430   6.586   9.149 -0.6452  0.6844  0.5465
  784MOL0     C 8080   5.444   6.715   9.199  0.1288 -0.1516  1.2459
  784MOL0     C 8081   5.403   6.815   9.101  0.1844  0.4343  0.8531
  784MOL0     C 8082   5.454   6.956   9.136  0.5178 -0.4430  0.2244
  784MOL0     C 8083   5.333   6.791   8.975 -0.0231 -0.5118  0.5965
  784MOL0     C 8084   5.254   6.897   8.888  0.2678  0.5024  0.1967
  784MOL0     O 8085   5.162   6.844   8.793 -0.2347  0.0050 -0.2373
  784MOL0     C 8086   5.085   6.935   8.722 -0.6124  0.1714  0.6931
  784MOL0     C 8087   4.997   7.026   8.782  0.2267 -0.0905  0.3265
  784MOL0     C 8088   4.915   7.110   8.706 -1.0060  0.3841 -0.2709
  784MOL0     C 8089   4.924   7.112   8.571 -0.6482  0.1069  0.9561
  784MOL0     O 8090   4.851   7.196   8.489  0.7222 -0.2508  0.7355
  784MOL0     C 8091   4.724   7.227   8.538 -0.3297 -0.4614 -0.1479
  784MOL0     C 8092   4.638   7.307   8.433  0.8042  0.7948  0.4094
  784MOL0     C 8093   4.511   7.360   8.497  0.2603 -0.1574  0.4364
  784MOL0     C 8094   4.415   7.409   8.397  1.1181 -0.8882  0.0621
  784MOL0     C 8095   4.290   7.476   8.482  0.3729 -0.2438  0.6840
  784MOL0     C 8096   4.213   7.365   8.562 -0.0481  0.0139  1.1053
  784MOL0     C 8097   4.085   7.428   8.619 -0.5942  1.0070 -0.2301
  784MOL0     C 8098   4.035   7.357   8.750 -0.0515  0.0352 -0.3507
  784MOL0    Cl 8099   4.057   7.182   8.743 -0.5924  0.3458 -0.3540
  784MOL0     C 8100   5.017   7.026   8.511  0.5477 -0.0755 -0.0940
  784MOL0     C 8101   5.089   6.931   8.586  0.2403  0.7952 -0.2277
  784MOL0     O 8102   5.283   7.018   8.888  0.0070  0.1231 -0.1864
  784MOL0     C 8103   5.314   6.653   8.944 -0.6008  0.6440  0.1652
  784MOL0     C 8104   5.365   6.553   9.025  0.2219 -0.4857 -0.7724
  784MOL0     N 8105   4.948   6.578   9.407 -0.8946 -0.1370  0.3338
  784MOL0     N 8106   4.898   6.687   9.354 -0.2099  0.1595 -0.0368
  784MOL0     C 8107   5.338   7.819   9.216 -0.2910 -0.1586 -1.8738
  784MOL0     C 8108   5.464   7.862   9.258 -0.1761 -0.0871  0.8383
  784MOL0     C 8109   5.835   7.862   9.520 -0.0364 -0.1239 -0.2088
  784MOL0     C 8110   5.890   7.848   9.392  0.3721 -0.9131 -0.1234
  784MOL0     C 8111   6.026   7.810   9.368  0.1551 -0.1163 -0.4056
  784MOL0     C 8112   6.102   7.773   9.480 -0.1540  0.4101  0.8157
  784MOL0     O 8113   6.238   7.734   9.479  0.1271  0.6683  0.7853
  784MOL0     C 8114   6.300   7.724   9.348 -0.7352 -0.6310 -1.1311
  784MOL0     C 8115   6.414   7.629   9.368  0.5152 -0.8075 -0.0498
  784MOL0     C 8116   6.477   7.606   9.226 -0.2642 -0.6647 -0.1568
  784MOL0     C 8117   6.594   7.506   9.241  0.1704  0.2260  0.4005
  784MOL0     C 8118   6.538   7.376   9.259  0.2261 -0.4492  0.5802
  784MOL0     C 8119   6.500   7.258   9.264  0.5810  0.0315 -0.3257
  784MOL0     C 8120   6.051   7.794   9.606  0.2851  0.0888 -0.2878
  784MOL0     C 8121   5.925   7.849   9.626  0.1578 -0.4173 -0.8169
  784MOL0     C 8122   5.885   7.863   9.774  0.3284 -0.4906 -0.7025
  784MOL0     H 8123   5.462   7.767   9.574 -1.2577  2.1431  1.2557
  784MOL0     H 8124   5.236   7.682   9.508 -1.3882 -0.4757  0.8667
  784MOL0     H 8125   5.213   7.659   9.078 -0.0332  2.5517 -1.3704
  784MOL0     H 8126   5.074   7.769   9.102 -0.0441 -0.4647 -1.5871
  784MOL0     H 8127   4.928   7.565   9.124  0.6244 -2.1885  3.1289
  784MOL0     H 8128   5.020   7.564   8.975 -2.3391 -0.8543 -0.3921
  784MOL0     H 8129   5.190   7.399   9.093 -0.2754 -1.0927  0.2690
  784MOL0     H 8130   5.089   7.404   9.239 -1.6454  0.4824 -0.0229
  784MOL0     H 8131   4.906   7.363   9.050 -0.4847  2.0941  2.9001
  784MOL0     H 8132   5.039   7.262   8.978 -0.1955 -2.2001  2.1117
  784MOL0     H 8133   4.907   7.132   9.135  1.8754 -1.8909  0.7740
  784MOL0     H 8134   4.951   7.242   9.271  2.3850  2.4884  0.5556
  784MOL0     H 8135   5.158   7.112   9.101 -2.0805  4.8120 -2.1031
  784MOL0     H 8136   5.169   7.151   9.269  1.0060  1.1299 -2.2751
  784MOL0     H 8137   5.172   6.918   9.274 -1.1105 -2.1747  0.3712
  784MOL0     H 8138   5.064   6.895   9.140 -0.0647  1.3896 -0.7011
  784MOL0     H 8139   4.992   7.006   9.414  0.7299 -1.2193  0.9685
  784MOL0     H 8140   4.869   6.946   9.308 -2.5363 -1.6441  4.9899
  784MOL0     H 8141   5.165   6.800   9.510 -1.5385  1.4677  0.1145
  784MOL0     H 8142   5.133   6.493   9.652  1.7035  1.6364  0.5557
  784MOL0     H 8143   5.259   6.565   9.557 -0.4813  0.6603 -2.7292
  784MOL0     H 8144   5.268   6.324   9.520  1.8182  1.8729 -1.1069
  784MOL0     H 8145   5.096   6.333   9.454 -1.1232  1.3455  1.0736
  784MOL0     H 8146   5.240   6.334   9.258  0.4198 -1.4573  2.3993
  784MOL0     H 8147   5.205   6.505   9.288  0.9434 -0.0005  0.8712
  784MOL0     H 8148   5.412   6.537   9.412 -2.7382  0.4026  0.1830
  784MOL0     H 8149   5.444   6.369   9.405  0.2956  0.1582 -1.1312
  784MOL0     H 8150   5.514   6.733   9.280  2.0991 -1.2114 -0.1312
  784MOL0     H 8151   5.372   7.018   9.174 -1.3153 -3.1827  1.0059
  784MOL0     H 8152   5.504   7.018   9.060  0.1541  0.4100  0.6678
  784MOL0     H 8153   5.532   6.947   9.212  0.7764 -1.0486 -0.1079
  784MOL0     H 8154   4.990   7.041   8.890 -1.7323  5.2592 -0.2463
  784MOL0     H 8155   4.882   7.191   8.770 -0.5610 -2.7857  4.5074
  784MOL0     H 8156   4.669   7.135   8.560  1.1437 -1.6365 -1.1710
  784MOL0     H 8157   4.731   7.300   8.619  1.5755  0.4834 -1.0756
  784MOL0     H 8158   4.691   7.394   8.395 -1.7438  1.3872 -2.1920
  784MOL0     H 8159   4.622   7.235   8.352  4.7919 -0.5563  0.6329
  784MOL0     H 8160   4.525   7.442   8.568  0.6223  0.4204 -0.2842
  784MOL0     H 8161   4.471   7.271   8.547 -2.1450 -0.6989 -2.2354
  784MOL0     H 8162   4.382   7.324   8.336  0.8190 -1.4855  1.0264
  784MOL0     H 8163   4.462   7.488   8.337  2.2624  0.1455  2.1894
  784MOL0     H 8164   4.330   7.561   8.538 -3.8061  1.7815  0.9916
  784MOL0     H 8165   4.231   7.517   8.400  1.8292 -1.3720 -1.0319
  784MOL0     H 8166   4.272   7.322   8.644  2.8862 -2.0156 -1.8581
  784MOL0     H 8167   4.187   7.291   8.486  0.4108  0.9237  0.0321
  784MOL0     H 8168   4.003   7.421   8.547  1.0237 -4.1424 -2.0520
  784MOL0     H 8169   4.122   7.523   8.657  6.3912 -1.2213 -0.0898
  784MOL0     H 8170   3.927   7.371   8.762  0.4438  2.3764  2.8196
  784MOL0     H 8171   4.090   7.390   8.839  0.2812  0.5914 -0.7495
  784MOL0     H 8172   5.022   7.016   8.403  1.0788 -1.1539  0.0224
  784MOL0     H 8173   5.147   6.851   8.541 -1.3806  0.2986 -1.5820
  784MOL0     H 8174   5.256   6.639   8.853  3.5641 -3.6421 -2.2780
  784MOL0     H 8175   5.345   6.453   8.989 -0.2396 -0.5244 -0.4201
  784MOL0     H 8176   5.317   7.835   9.111 -0.4704  0.5579 -1.7381
  784MOL0     H 8177   5.526   7.917   9.188 -0.8974  0.4396  0.5936
  784MOL0     H 8178   5.834   7.873   9.303 -0.5083 -0.3685  0.5640
  784MOL0     H 8179   6.060   7.803   9.265  0.9296  2.4138 -0.3865
  784MOL0     H 8180   6.236   7.688   9.267 -1.9273 -2.0590  0.3781
  784MOL0     H 8181   6.346   7.820   9.325  0.2955 -0.7662  0.2672
  784MOL0     H 8182   6.375   7.535   9.410 -3.1471  0.5263 -0.1729
  784MOL0     H 8183   6.487   7.681   9.431  0.0249  1.2818 -1.1385
  784MOL0     H 8184   6.394   7.579   9.161 -2.4180  2.6447  0.9307
  784MOL0     H 8185   6.520   7.699   9.188  1.9837 -0.2431  3.0220
  784MOL0     H 8186   6.660   7.544   9.319 -1.7553 -2.4627  3.6001
  784MOL0     H 8187   6.652   7.496   9.149 -0.2593  2.6378 -0.2083
  784MOL0     H 8188   6.472   7.156   9.282  0.3947 -0.0879 -1.2489
  784MOL0     H 8189   6.116   7.757   9.685  1.4161  1.0758 -0.7237
  784MOL0     H 8190   5.847   7.963   9.798  0.1054 -1.3135  2.8700
  784MOL0     H 8191   5.799   7.796   9.781  1.2335 -1.6951 -0.9505
  784MOL0     H 8192   5.961   7.855   9.852  0.2365  5.9009  0.6346
  785MOL0     O 8193   5.181  10.890   7.767 -0.1651 -0.4313 -0.2420
  785MOL0     C 8194   5.223  10.772   7.759 -0.0485  0.4937 -0.3031
  785MOL0     O 8195   5.188  10.668   7.672  0.0219 -0.8768 -0.7942
  785MOL0     C 8196   5.169  10.686   7.537  0.3100 -0.1168  1.4769
  785MOL0     C 8197   5.165  10.811   7.471  0.1425 -0.0632 -0.5087
  785MOL0     C 8198   5.168  10.834   7.334  0.2016  0.2842 -0.0594
  785MOL0     C 8199   5.167  10.718   7.254  0.5059 -0.8479 -0.3179
  785MOL0     O 8200   5.180  10.708   7.115 -0.0135 -0.3342 -0.0980
  785MOL0     C 8201   5.220  10.830   7.052 -0.7645  0.8475  0.4428
  785MOL0     C 8202   5.269  10.783   6.906  0.5040  0.1596  0.2052
  785MOL0     C 8203   5.397  10.709   6.908 -1.1103  0.0523 -0.6462
  785MOL0     C 8204   5.453  10.676   6.771 -0.4812 -0.1624  0.3134
  785MOL0     C 8205   5.583  10.590   6.779  0.1589 -0.0827  0.0597
  785MOL0     C 8206   5.550  10.442   6.807  0.2569 -0.3043 -0.0864
  785MOL0     C 8207   5.680  10.358   6.797  0.1811 -0.0050 -1.1150
  785MOL0     C 8208   5.660  10.222   6.750  0.4573 -0.2319  0.3306
  785MOL0     N 8209   5.637  10.133   6.863 -0.9758 -0.3679 -0.4037
  785MOL0     C 8210   5.742  10.060   6.921  0.7832 -0.1755 -1.0839
  785MOL0     C 8211   5.676   9.969   7.002 -0.7073  0.0578 -0.1778
  785MOL0     C 8212   5.749   9.873   7.092  0.4606 -0.4858  0.1812
  785MOL0     C 8213   5.723   9.920   7.241 -1.0475  0.4355  0.7358
  785MOL0     C 8214   5.740   9.804   7.335 -0.0717  0.2174  0.5269
  785MOL0     C 8215   5.874   9.735   7.324 -0.4324  0.5721  0.5785
  785MOL0     O 8216   5.986   9.818   7.362 -0.8733 -1.1683  0.0981
  785MOL0     C 8217   6.114   9.775   7.326 -0.6287  0.5823  0.9621
  785MOL0     C 8218   6.225   9.842   7.382  0.0831 -0.7289  0.3936
  785MOL0     C 8219   6.348   9.786   7.379  0.1478  0.7971 -0.9046
  785MOL0     C 8220   6.451   9.854   7.463 -0.8736 -0.2525  0.3003
  785MOL0     C 8221   6.377   9.671   7.306  0.7099  0.0674  0.1545
  785MOL0     C 8222   6.504   9.613   7.292 -0.2311  0.5348 -0.1945
  785MOL0     O 8223   6.548   9.600   7.163  0.1133  0.5737  0.1058
  785MOL0     C 8224   6.671   9.549   7.147 -0.3697  0.1453  1.0624
  785MOL0     C 8225   6.702   9.463   7.040 -0.0983  1.0013 -0.1930
  785MOL0     C 8226   6.828   9.404   7.025  0.1231  0.0512  0.2624
  785MOL0     C 8227   6.930   9.437   7.099 -0.0727 -0.8707  0.2400
  785MOL0     O 8228   7.054   9.394   7.067 -0.1344 -0.4277  0.3485
  785MOL0     C 8229   7.102   9.384   6.937  0.3976 -0.2494 -0.2382
  785MOL0     C 8230   7.249   9.447   6.941  0.1418  0.9659  0.1914
  785MOL0     C 8231   7.323   9.369   6.835 -0.1755  1.7480  1.2038
  785MOL0     C 8232   7.468   9.419   6.816  0.1184 -0.2539 -0.1304
  785MOL0     C 8233   7.550   9.351   6.711 -1.2291  0.7930  1.0564
  785MOL0     C 8234   7.538   9.419   6.567 -0.2437  0.0946  0.0038
  785MOL0     C 8235   7.645   9.371   6.473 -0.6487 -0.1659 -0.1487
  785MOL0     C 8236   7.695   9.456   6.368  0.2273  0.0019  0.6326
  785MOL0    Cl 8237   7.559   9.533   6.282  0.0247  0.5648 -0.1229
  785MOL0     C 8238   6.909   9.523   7.214 -0.5390 -0.0155 -0.0705
  785MOL0     C 8239   6.782   9.580   7.230 -0.5763  0.4779  0.0050
  785MOL0     O 8240   6.571   9.573   7.392  1.1764  0.5198  0.1918
  785MOL0     C 8241   6.269   9.602   7.246 -0.4102  0.9140  0.3054
  785MOL0     C 8242   6.140   9.646   7.264 -1.1174  0.3268 -0.1195
  785MOL0     N 8243   5.540   9.978   6.980  0.2625 -0.5919  0.6497
  785MOL0     N 8244   5.523  10.071   6.900  0.1110 -0.5212 -0.0040
  785MOL0     C 8245   5.160  10.589   7.308  0.1255 -0.9512 -0.4221
  785MOL0     C 8246   5.165  10.576   7.447 -0.5979 -1.1208 -0.0021
  785MOL0     C 8247   5.292  10.716   7.882 -0.8881  0.8105  0.2417
  785MOL0     C 8248   5.247  10.774   8.003 -1.0399  0.5258 -0.4560
  785MOL0     C 8249   5.325  10.753   8.119  0.2568 -0.0696 -0.8861
  785MOL0     C 8250   5.428  10.665   8.121 -0.1403  0.3602 -0.5014
  785MOL0     O 8251   5.505  10.640   8.236  0.2386 -0.4131  0.2592
  785MOL0     C 8252   5.458  10.529   8.314 -0.6183 -0.5456 -0.1154
  785MOL0     C 8253   5.565  10.423   8.307 -0.5781  0.7771 -0.1868
  785MOL0     C 8254   5.705  10.475   8.304  0.1359  0.8627  0.6983
  785MOL0     C 8255   5.808  10.367   8.324 -0.8851 -0.1205 -0.5496
  785MOL0     C 8256   5.934  10.436   8.328  0.0867 -0.0141  0.1148
  785MOL0     C 8257   6.029  10.497   8.341 -0.6047  0.0590 -0.4747
  785MOL0     C 8258   5.466  10.600   7.999 -0.6027 -0.4717  0.3482
  785MOL0     C 8259   5.398  10.627   7.882  0.2932  0.3766  0.8000
  785MOL0     C 8260   5.443  10.567   7.741 -0.6617  0.1918  0.0021
  785MOL0     H 8261   5.151  10.904   7.525 -2.6916  0.8823 -2.6351
  785MOL0     H 8262   5.177  10.934   7.292  2.7301  1.2230  2.3980
  785MOL0     H 8263   5.302  10.887   7.097  1.8299 -1.3963 -1.1685
  785MOL0     H 8264   5.133  10.896   7.039  0.1962  2.4114  1.5824
  785MOL0     H 8265   5.188  10.720   6.867 -0.2684  2.3157 -1.9222
  785MOL0     H 8266   5.277  10.871   6.842 -2.9837  0.4208 -0.0907
  785MOL0     H 8267   5.468  10.763   6.970  0.3647 -1.8578 -0.6027
  785MOL0     H 8268   5.386  10.616   6.964  1.9686  1.8195  3.3414
  785MOL0     H 8269   5.383  10.630   6.701 -1.8891  0.1822  1.4550
  785MOL0     H 8270   5.480  10.768   6.718  0.4715  1.3099  3.1072
  785MOL0     H 8271   5.646  10.626   6.860 -1.1304  1.4621  0.4352
  785MOL0     H 8272   5.642  10.602   6.688  0.8008  1.2352  0.6358
  785MOL0     H 8273   5.508  10.428   6.907  0.8324  3.0347  0.7292
  785MOL0     H 8274   5.480  10.421   6.726 -2.8286  0.8279  2.0742
  785MOL0     H 8275   5.735  10.363   6.891 -0.2151  2.1676 -0.9576
  785MOL0     H 8276   5.748  10.409   6.728  0.3233 -0.9091 -1.6637
  785MOL0     H 8277   5.577  10.225   6.678  0.0685 -1.3618  0.7042
  785MOL0     H 8278   5.744  10.190   6.687  1.5375 -0.9982  2.0867
  785MOL0     H 8279   5.847  10.086   6.911  1.1561  0.7652  3.2450
  785MOL0     H 8280   5.854   9.883   7.064  0.1999 -1.0758 -1.0986
  785MOL0     H 8281   5.711   9.772   7.075 -0.0556 -0.3606  0.5618
  785MOL0     H 8282   5.800   9.995   7.263  1.1645 -1.6740  0.6607
  785MOL0     H 8283   5.620   9.951   7.256 -1.4477 -1.0917  1.3276
  785MOL0     H 8284   5.748   9.845   7.436  1.7865  1.0058  0.1038
  785MOL0     H 8285   5.658   9.733   7.324 -1.0208  1.2766  0.5531
  785MOL0     H 8286   5.876   9.651   7.395  1.1455  1.3447  1.5169
  785MOL0     H 8287   5.885   9.702   7.221 -2.1508  1.1796  0.1686
  785MOL0     H 8288   6.192   9.922   7.448 -2.3858 -4.1279  3.7400
  785MOL0     H 8289   6.547   9.867   7.413 -0.1296 -1.4645  1.3861
  785MOL0     H 8290   6.462   9.803   7.559 -2.4633  2.2211  1.9410
  785MOL0     H 8291   6.419   9.952   7.499 -2.0838 -0.1867 -0.8590
  785MOL0     H 8292   6.624   9.424   6.975  0.6146  1.0963 -1.1293
  785MOL0     H 8293   6.845   9.336   6.942  0.8579 -0.7461  1.0489
  785MOL0     H 8294   7.109   9.281   6.902  1.8438 -0.9856  1.9921
  785MOL0     H 8295   7.042   9.452   6.875  1.9456  1.9231  0.5160
  785MOL0     H 8296   7.253   9.555   6.927 -0.8261  1.2010  1.5223
  785MOL0     H 8297   7.305   9.433   7.034  2.3177  0.2136 -1.1753
  785MOL0     H 8298   7.269   9.367   6.740  0.9746  0.1964  0.5436
  785MOL0     H 8299   7.324   9.269   6.879 -1.8203  0.3675 -1.6626
  785MOL0     H 8300   7.522   9.385   6.905  1.0124  0.6424 -0.3089
  785MOL0     H 8301   7.458   9.528   6.810 -1.8826 -0.4546 -1.3059
  785MOL0     H 8302   7.655   9.348   6.741  0.2468  2.3350 -3.2514
  785MOL0     H 8303   7.528   9.244   6.701  1.4963  0.3104 -0.8544
  785MOL0     H 8304   7.546   9.528   6.576 -3.9425  0.3508  2.2798
  785MOL0     H 8305   7.443   9.391   6.521 -0.7951  0.2406  1.0269
  785MOL0     H 8306   7.606   9.279   6.428 -0.6848 -0.8926  1.2761
  785MOL0     H 8307   7.736   9.345   6.529  0.5816  1.9629 -1.0557
  785MOL0     H 8308   7.750   9.387   6.303  2.0988  0.0142  2.1094
  785MOL0     H 8309   7.750   9.540   6.411 -0.2851 -0.0756  1.4545
  785MOL0     H 8310   6.995   9.554   7.273  1.1503 -2.3612 -1.1771
  785MOL0     H 8311   6.782   9.648   7.315 -4.6653  1.1364 -0.3066
  785MOL0     H 8312   6.285   9.508   7.195  2.5675  1.7089 -0.4496
  785MOL0     H 8313   6.061   9.578   7.230  0.2931 -0.6349 -1.6266
  785MOL0     H 8314   5.160  10.510   7.233  2.4786 -0.9253 -0.5130
  785MOL0     H 8315   5.162  10.470   7.471  2.8276 -1.3394 -0.0590
  785MOL0     H 8316   5.158  10.837   8.005 -0.6582  1.0602  0.0227
  785MOL0     H 8317   5.294  10.795   8.214 -1.3486 -1.5717 -0.6920
  785MOL0     H 8318   5.437  10.569   8.414 -3.7386  1.0479 -1.2616
  785MOL0     H 8319   5.364  10.490   8.275  0.2544 -1.7565 -1.0792
  785MOL0     H 8320   5.538  10.365   8.218 -2.5820  1.5506 -0.1422
  785MOL0     H 8321   5.551  10.356   8.392  1.2109 -0.5617 -0.8691
  785MOL0     H 8322   5.713  10.510   8.200 -0.2930  0.8685  0.6652
  785MOL0     H 8323   5.705  10.559   8.374 -4.3437  0.5343  1.4043
  785MOL0     H 8324   5.813  10.292   8.244 -0.2046 -0.0119 -0.6149
  785MOL0     H 8325   5.805  10.310   8.417  2.0548 -0.6388 -0.6795
  785MOL0     H 8326   6.123  10.546   8.356 -0.6650 -0.1469  0.6532
  785MOL0     H 8327   5.544  10.526   7.984  0.3743  0.4717  0.7162
  785MOL0     H 8328   5.430  10.633   7.655  1.0153 -0.6343 -0.9271
  785MOL0     H 8329   5.548  10.539   7.755 -0.6726 -0.7210 -1.5101
  785MOL0     H 8330   5.378  10.479   7.730  0.0198 -0.2185 -0.7971
  786MOL0     O 8331   8.656   0.950   0.772 -0.1813  0.6583  0.1578
  786MOL0     C 8332   8.765   0.897   0.814 -0.5894  0.0484  0.2372
  786MOL0     O 8333   8.881   0.905   0.740  0.2056  0.0892  0.2594
  786MOL0     C 8334   8.878   0.907   0.604 -0.5818  0.4323  0.6227
  786MOL0     C 8335   8.786   0.835   0.528  0.8167  0.6730  0.2501
  786MOL0     C 8336   8.798   0.836   0.388  0.2037  0.1265  0.9275
  786MOL0     C 8337   8.903   0.906   0.323 -0.1650 -1.3996  0.3820
  786MOL0     O 8338   8.934   0.927   0.195 -0.1482  0.0804 -0.6804
  786MOL0     C 8339   8.847   0.902   0.091  1.1353  0.1393 -0.4279
  786MOL0     C 8340   8.904   0.785   0.015  0.9539  0.3254  0.2933
  786MOL0     C 8341   8.921   0.656   0.097  0.4544  0.9367  1.5637
  786MOL0     C 8342   9.010   0.552   0.019 -0.1341  0.3672  0.0964
  786MOL0     C 8343   9.000   0.416   0.090  0.0108  0.5846 -1.2496
  786MOL0     C 8344   9.105   0.310   0.066 -0.4194 -0.9261 -0.3909
  786MOL0     C 8345   9.062   0.161   0.105  1.0142  0.2424  0.1738
  786MOL0     C 8346   9.181   0.066   0.141  0.2952 -0.6218 -0.4129
  786MOL0     N 8347   9.243   0.111   0.272 -1.0456 -0.9551  1.0090
  786MOL0     C 8348   9.332   0.217   0.298 -0.7601  0.0820  0.1046
  786MOL0     C 8349   9.339   0.228   0.434 -0.5143  0.1546 -0.5155
  786MOL0     C 8350   9.416   0.331   0.518  0.4056 -1.0054 -0.4561
  786MOL0     C 8351   9.521   0.415   0.434 -0.3801  0.1613 -0.2153
  786MOL0     C 8352   9.664   0.352   0.423 -1.0701 -0.4050  0.1887
  786MOL0     C 8353   9.757   0.441   0.349 -0.6935 -0.6102  0.6293
  786MOL0     O 8354   9.851   0.367   0.276  0.7186 -0.0707  0.0651
  786MOL0     C 8355   9.915   0.446   0.177 -0.0508  0.1349  0.5274
  786MOL0     C 8356   9.925   0.589   0.183 -0.1210 -1.2774 -1.3926
  786MOL0     C 8357   9.986   0.660   0.082 -0.3899 -0.3219  0.1187
  786MOL0     C 8358   9.997   0.806   0.093 -0.3723  0.0695  0.3867
  786MOL0     C 8359  10.022   0.595  -0.042  1.0801 -0.4697  0.0878
  786MOL0     C 8360  10.080   0.675  -0.156 -0.4258  0.2978  0.2613
  786MOL0     O 8361  10.166   0.773  -0.137  0.1524 -0.1218 -0.1157
  786MOL0     C 8362  10.191   0.866  -0.235 -0.4538 -0.1304  0.0184
  786MOL0     C 8363  10.321   0.859  -0.298  1.3296  0.0451  1.2629
  786MOL0     C 8364  10.348   0.961  -0.400 -0.4094  0.9180 -0.7914
  786MOL0     C 8365  10.262   1.061  -0.435  0.4195  0.6990 -0.8875
  786MOL0     O 8366  10.294   1.126  -0.543 -0.4832  0.0742 -0.0900
  786MOL0     C 8367  10.338   1.256  -0.499 -0.9065 -0.3924 -0.1375
  786MOL0     C 8368  10.491   1.277  -0.485  0.3682 -0.1028  0.2392
  786MOL0     C 8369  10.566   1.297  -0.620 -0.0703  0.0061 -0.0307
  786MOL0     C 8370  10.711   1.339  -0.581  0.3040 -0.9925 -0.4439
  786MOL0     C 8371  10.764   1.453  -0.665 -0.6087 -1.1465  1.2263
  786MOL0     C 8372  10.714   1.587  -0.610 -0.1162 -0.4789 -0.3789
  786MOL0     C 8373  10.784   1.694  -0.696 -0.0355  0.5498 -0.3044
  786MOL0     C 8374  10.730   1.709  -0.842 -0.6327  0.6976  0.6311
  786MOL0    Cl 8375  10.551   1.727  -0.850  0.3863  0.1959  0.4458
  786MOL0     C 8376  10.135   1.059  -0.371 -1.0555  0.3529  0.2776
  786MOL0     C 8377  10.096   0.965  -0.274  0.7937 -0.5762  0.2413
  786MOL0     O 8378  10.052   0.640  -0.266  0.2722 -0.1079  0.4557
  786MOL0     C 8379  10.008   0.459  -0.040 -0.4044  0.3858  1.0081
  786MOL0     C 8380   9.963   0.380   0.064  0.3314 -0.3910 -0.0296
  786MOL0     N 8381   9.250   0.129   0.490 -0.1603  0.2303 -1.5023
  786MOL0     N 8382   9.195   0.075   0.387  0.0541  0.5265 -0.0107
  786MOL0     C 8383   9.002   0.972   0.404  0.1143  0.0043 -0.5484
  786MOL0     C 8384   8.980   0.979   0.541 -0.0535 -0.4595  0.8832
  786MOL0     C 8385   8.775   0.855   0.956 -0.3547  0.2823 -0.9323
  786MOL0     C 8386   8.746   0.952   1.052 -0.3830  0.1155  0.0930
  786MOL0     C 8387   8.771   0.915   1.182  0.2321  0.1492 -0.1527
  786MOL0     C 8388   8.805   0.787   1.223 -0.7651  0.2397  0.2007
  786MOL0     O 8389   8.824   0.743   1.354 -0.7901  0.4352  0.0291
  786MOL0     C 8390   8.846   0.832   1.468 -0.0775 -0.1958 -0.5890
  786MOL0     C 8391   8.717   0.829   1.557  0.6616  0.0023  0.1151
  786MOL0     C 8392   8.706   0.699   1.624  0.2172 -0.1950  0.6840
  786MOL0     C 8393   8.617   0.708   1.753 -0.3167  0.0825  0.2880
  786MOL0     C 8394   8.478   0.696   1.714  0.0511  0.1342  0.5391
  786MOL0     C 8395   8.360   0.721   1.702 -0.7493 -0.1498  0.2912
  786MOL0     C 8396   8.821   0.694   1.124  0.1032 -0.0847 -0.1557
  786MOL0     C 8397   8.825   0.722   0.992 -0.3696 -0.3083 -0.6811
  786MOL0     C 8398   8.866   0.614   0.892  0.3778 -0.8378  0.2271
  786MOL0     H 8399   8.704   0.792   0.584  0.2758 -2.9704 -2.9182
  786MOL0     H 8400   8.726   0.771   0.340 -0.2627  0.5167  1.0839
  786MOL0     H 8401   8.839   0.986   0.022  1.8350 -1.3899 -2.4965
  786MOL0     H 8402   8.746   0.878   0.124  0.3146  3.0944 -0.4848
  786MOL0     H 8403   8.842   0.766  -0.073 -1.4689  0.3495  1.9065
  786MOL0     H 8404   9.008   0.808  -0.010  0.7181  1.9465  0.6948
  786MOL0     H 8405   8.959   0.680   0.196  0.1999 -0.1328  1.9382
  786MOL0     H 8406   8.823   0.606   0.101  0.6651  0.4113  0.4967
  786MOL0     H 8407   8.979   0.548  -0.086  2.0780 -1.2295 -0.5600
  786MOL0     H 8408   9.116   0.575   0.010  0.9651 -3.8028  0.3169
  786MOL0     H 8409   8.902   0.376   0.061 -0.9666  2.1916 -0.2874
  786MOL0     H 8410   8.992   0.439   0.196 -0.3602 -1.7431 -0.7248
  786MOL0     H 8411   9.113   0.311  -0.043 -4.5150  0.0844 -0.8459
  786MOL0     H 8412   9.199   0.352   0.103 -1.6621  3.3826 -1.5921
  786MOL0     H 8413   8.999   0.106   0.035  1.0374 -1.7085  1.6197
  786MOL0     H 8414   8.996   0.160   0.192 -0.0749 -0.3712 -0.6381
  786MOL0     H 8415   9.137  -0.034   0.149  2.8726 -1.7069  2.8522
  786MOL0     H 8416   9.256   0.060   0.061  1.3112 -4.7646  0.5596
  786MOL0     H 8417   9.378   0.279   0.222 -0.5694  0.5535  0.5957
  786MOL0     H 8418   9.476   0.284   0.597  0.1917 -0.1870  0.2146
  786MOL0     H 8419   9.338   0.392   0.564 -1.2769 -1.6917 -2.2903
  786MOL0     H 8420   9.490   0.431   0.330  0.2702 -3.3245 -1.0859
  786MOL0     H 8421   9.522   0.513   0.483 -1.6121  0.5059 -0.8481
  786MOL0     H 8422   9.684   0.333   0.529 -0.5237  0.3041  0.2173
  786MOL0     H 8423   9.665   0.254   0.374  1.2897 -1.9857  3.0514
  786MOL0     H 8424   9.700   0.503   0.278 -1.8472 -0.8951  1.2908
  786MOL0     H 8425   9.810   0.498   0.426 -2.1810  0.5284  0.8587
  786MOL0     H 8426   9.887   0.639   0.271  1.6385 -2.7754  0.3268
  786MOL0     H 8427   9.920   0.832   0.167  0.6102 -1.1604  1.9040
  786MOL0     H 8428   9.982   0.860  -0.001 -3.1503 -0.0224  0.6791
  786MOL0     H 8429  10.097   0.833   0.128 -0.6230 -0.2907  1.4087
  786MOL0     H 8430  10.393   0.786  -0.261  1.8079 -0.4019 -0.4451
  786MOL0     H 8431  10.438   0.961  -0.460 -2.9535  2.3623 -5.1264
  786MOL0     H 8432  10.286   1.327  -0.565  3.7533  2.2217 -1.4188
  786MOL0     H 8433  10.289   1.286  -0.405 -0.6172  0.8444 -0.3656
  786MOL0     H 8434  10.507   1.363  -0.419  1.5375 -0.8484  0.9755
  786MOL0     H 8435  10.538   1.197  -0.427  1.9854 -0.9454 -2.0511
  786MOL0     H 8436  10.519   1.360  -0.696  3.3258  1.7013 -0.9014
  786MOL0     H 8437  10.584   1.200  -0.668  0.5388 -1.0412  2.1726
  786MOL0     H 8438  10.777   1.252  -0.575 -0.7635 -1.7124  2.3626
  786MOL0     H 8439  10.716   1.371  -0.477 -0.6142  1.2548 -1.0293
  786MOL0     H 8440  10.874   1.451  -0.662 -0.5801 -1.9969  0.0962
  786MOL0     H 8441  10.744   1.433  -0.770 -1.0478 -1.9806  1.4633
  786MOL0     H 8442  10.740   1.611  -0.507 -0.6996 -0.1124 -0.3114
  786MOL0     H 8443  10.607   1.602  -0.630  0.3343  0.6118 -2.3169
  786MOL0     H 8444  10.891   1.674  -0.688 -0.5073 -1.9561  0.6659
  786MOL0     H 8445  10.750   1.787  -0.648  0.7934  0.6926  0.0072
  786MOL0     H 8446  10.750   1.624  -0.908 -4.2633  0.8326 -0.8586
  786MOL0     H 8447  10.780   1.792  -0.893  1.9108 -1.3118 -0.3849
  786MOL0     H 8448  10.058   1.123  -0.413  0.8609  2.2044 -0.6306
  786MOL0     H 8449   9.993   0.963  -0.243  0.5932 -1.0263 -0.4223
  786MOL0     H 8450  10.008   0.417  -0.140 -1.3688  1.7343  0.4151
  786MOL0     H 8451   9.943   0.274   0.060  2.7846 -0.9241  0.0597
  786MOL0     H 8452   9.090   1.015   0.359 -1.0374  1.2506 -1.7179
  786MOL0     H 8453   9.060   1.021   0.602  1.2201 -2.0169  0.3410
  786MOL0     H 8454   8.702   1.047   1.024 -1.5306  0.5279  2.9369
  786MOL0     H 8455   8.738   0.990   1.253  0.0702 -0.4813  0.4516
  786MOL0     H 8456   8.932   0.778   1.508 -1.7821 -3.6114 -1.1652
  786MOL0     H 8457   8.870   0.935   1.441 -1.9224  0.0413 -1.4989
  786MOL0     H 8458   8.622   0.842   1.505  0.8107  1.8202  0.2409
  786MOL0     H 8459   8.727   0.913   1.626 -0.0638  2.1576 -2.2202
  786MOL0     H 8460   8.677   0.613   1.562  3.9944 -1.2830  0.1452
  786MOL0     H 8461   8.800   0.679   1.677  0.5698  0.7248  0.4217
  786MOL0     H 8462   8.631   0.805   1.802 -2.1443  0.4768  0.1296
  786MOL0     H 8463   8.646   0.633   1.826  1.7012 -0.5788 -1.1172
  786MOL0     H 8464   8.255   0.736   1.688 -1.1179 -0.2415  2.5149
  786MOL0     H 8465   8.855   0.594   1.146 -5.4440 -1.9399  1.4615
  786MOL0     H 8466   8.963   0.571   0.917 -1.0067 -4.3705  0.1312
  786MOL0     H 8467   8.791   0.535   0.899 -2.1837  1.5098  1.8507
  786MOL0     H 8468   8.882   0.657   0.793  0.0331  1.8397  1.2328
  787MOL0     O 8469   6.686   0.704   8.597  0.5466 -0.6241  0.0240
  787MOL0     C 8470   6.578   0.717   8.669 -0.6399  0.1551  0.6827
  787MOL0     O 8471   6.464   0.779   8.628  1.2212 -0.4610  0.1361
  787MOL0     C 8472   6.472   0.853   8.511  1.0171 -0.3363  0.5446
  787MOL0     C 8473   6.483   0.784   8.382 -0.2541  0.2350  0.2013
  787MOL0     C 8474   6.488   0.847   8.262  0.3988 -0.0963  0.2190
  787MOL0     C 8475   6.496   0.984   8.264  1.8329  0.1700  0.7790
  787MOL0     O 8476   6.489   1.039   8.144  0.7986 -0.1696 -0.3883
  787MOL0     C 8477   6.592   1.119   8.104  0.1077  0.2547 -0.5570
  787MOL0     C 8478   6.527   1.239   8.034 -0.2368  0.4982  0.4411
  787MOL0     C 8479   6.629   1.337   7.967  0.2284 -0.8241 -1.3956
  787MOL0     C 8480   6.567   1.407   7.852 -0.1648  0.6332 -0.2115
  787MOL0     C 8481   6.469   1.525   7.885  0.1431 -0.7887 -0.2663
  787MOL0     C 8482   6.539   1.655   7.934 -0.2827 -0.4394  0.2585
  787MOL0     C 8483   6.439   1.766   7.949 -0.3750  0.8687  0.5037
  787MOL0     C 8484   6.485   1.874   8.050 -0.1517  0.4728  0.9478
  787MOL0     N 8485   6.590   1.954   7.985 -0.3050  0.2486 -0.7573
  787MOL0     C 8486   6.627   2.077   8.042 -1.1203 -0.7503  0.5046
  787MOL0     C 8487   6.725   2.134   7.958 -0.8634  1.2029  0.4424
  787MOL0     C 8488   6.798   2.263   7.964  0.1178 -0.8599  0.2685
  787MOL0     C 8489   6.832   2.304   8.104 -0.4619 -0.5131  0.1299
  787MOL0     C 8490   6.897   2.206   8.196  0.7571  1.0303  0.1505
  787MOL0     C 8491   6.878   2.245   8.350 -0.0362  0.0643 -0.2668
  787MOL0     O 8492   6.750   2.292   8.391  0.2292  0.9191  0.3490
  787MOL0     C 8493   6.640   2.212   8.409 -0.5620 -0.3738 -0.5367
  787MOL0     C 8494   6.518   2.269   8.440 -0.3001 -0.5445  0.3873
  787MOL0     C 8495   6.397   2.196   8.462 -0.3263 -0.0063  0.0197
  787MOL0     C 8496   6.279   2.277   8.522 -0.1968 -0.8860  0.2010
  787MOL0     C 8497   6.399   2.060   8.435 -0.4864  0.0318 -0.4016
  787MOL0     C 8498   6.269   1.981   8.420  0.0949  0.0994  0.5596
  787MOL0     O 8499   6.143   2.039   8.442  0.7697 -0.0023  0.0947
  787MOL0     C 8500   6.028   1.965   8.431 -0.3593 -0.2849 -0.9596
  787MOL0     C 8501   5.913   1.978   8.523 -0.2225 -0.0447 -0.0861
  787MOL0     C 8502   5.798   1.896   8.527  0.5299  0.0966  0.3084
  787MOL0     C 8503   5.798   1.794   8.423  1.4842  0.1813  0.0532
  787MOL0     O 8504   5.692   1.706   8.395 -0.1566  0.3463 -1.4359
  787MOL0     C 8505   5.588   1.706   8.488  0.5277  0.2298  1.0214
  787MOL0     C 8506   5.511   1.578   8.456  0.4354  0.0682  0.3079
  787MOL0     C 8507   5.368   1.584   8.510  0.0086  0.7054 -0.6491
  787MOL0     C 8508   5.361   1.583   8.665  0.1221  0.4512  0.1228
  787MOL0     C 8509   5.212   1.548   8.710 -0.1776 -0.0895 -1.0629
  787MOL0     C 8510   5.203   1.527   8.862  0.0292  0.3155  0.9277
  787MOL0     C 8511   5.059   1.528   8.919 -1.1388  0.3633 -0.0467
  787MOL0     C 8512   4.957   1.443   8.851 -0.4065 -0.3362  0.3817
  787MOL0    Cl 8513   5.020   1.271   8.848  0.4149 -0.3964  0.1175
  787MOL0     C 8514   5.893   1.791   8.320 -0.2161 -0.0800  0.1796
  787MOL0     C 8515   5.996   1.891   8.317 -0.5372 -0.0690 -0.1905
  787MOL0     O 8516   6.291   1.861   8.391  0.0968 -0.3922 -0.4512
  787MOL0     C 8517   6.527   2.001   8.392  0.1320 -0.0442  0.0372
  787MOL0     C 8518   6.638   2.072   8.380 -0.5666  0.7435 -0.9384
  787MOL0     N 8519   6.730   2.042   7.846  0.0123 -0.6707 -0.2581
  787MOL0     N 8520   6.649   1.943   7.865  0.2864 -0.5313 -0.1984
  787MOL0     C 8521   6.485   1.055   8.380  0.2260  0.3624 -0.9691
  787MOL0     C 8522   6.467   0.993   8.506  0.4093  0.2536  0.5957
  787MOL0     C 8523   6.589   0.653   8.812 -0.3276  0.6153  0.5225
  787MOL0     C 8524   6.474   0.596   8.867  0.5585  0.3226 -0.4588
  787MOL0     C 8525   6.488   0.544   8.996 -0.2285 -0.4554  1.1138
  787MOL0     C 8526   6.600   0.559   9.074  0.8883 -0.1395 -0.0829
  787MOL0     O 8527   6.595   0.517   9.206  0.4059 -0.0590  0.6599
  787MOL0     C 8528   6.660   0.595   9.303  0.2190  0.8003  0.7866
  787MOL0     C 8529   6.624   0.548   9.448 -0.4128 -0.0292  0.6200
  787MOL0     C 8530   6.602   0.405   9.473  0.3054  0.3651 -0.5059
  787MOL0     C 8531   6.732   0.318   9.452  0.0720 -0.5550  0.4408
  787MOL0     C 8532   6.827   0.339   9.564  0.4787  0.4180  0.1160
  787MOL0     C 8533   6.904   0.361   9.658  0.3600 -0.2833  0.6881
  787MOL0     C 8534   6.712   0.612   9.017  0.3795  0.0735  0.4862
  787MOL0     C 8535   6.710   0.659   8.886  0.7937 -1.3630  0.2020
  787MOL0     C 8536   6.845   0.708   8.834  0.0527 -0.3634 -0.2287
  787MOL0     H 8537   6.482   0.676   8.390  2.0892  0.0285 -1.4747
  787MOL0     H 8538   6.483   0.801   8.164  2.7898  2.4186 -1.2114
  787MOL0     H 8539   6.661   1.071   8.034  1.7280 -0.9444  1.7193
  787MOL0     H 8540   6.645   1.164   8.188 -1.1585 -1.7521  1.4277
  787MOL0     H 8541   6.461   1.209   7.953 -0.6413  3.9923 -0.6789
  787MOL0     H 8542   6.459   1.289   8.104 -0.9359  1.4771 -0.9155
  787MOL0     H 8543   6.665   1.415   8.034  1.4095 -1.6175 -1.0809
  787MOL0     H 8544   6.718   1.288   7.927  0.0545 -1.0775 -1.4730
  787MOL0     H 8545   6.650   1.438   7.787 -0.8829 -0.8032 -1.8930
  787MOL0     H 8546   6.510   1.334   7.794 -0.2794  0.5538 -0.0017
  787MOL0     H 8547   6.379   1.489   7.934  0.1074 -2.1063 -1.2417
  787MOL0     H 8548   6.442   1.556   7.783  1.6026  1.4724 -0.0426
  787MOL0     H 8549   6.596   1.632   8.024 -0.2045  0.1617  0.3686
  787MOL0     H 8550   6.611   1.695   7.862  0.7705 -0.6741  1.1559
  787MOL0     H 8551   6.349   1.725   7.997  0.9757  2.9085  5.4328
  787MOL0     H 8552   6.412   1.806   7.851 -3.0831  3.1469  2.0187
  787MOL0     H 8553   6.398   1.932   8.080  0.1368  2.1863 -1.2338
  787MOL0     H 8554   6.531   1.828   8.138  0.9681 -0.4114 -0.0563
  787MOL0     H 8555   6.596   2.112   8.140  1.2115 -0.1653  1.0904
  787MOL0     H 8556   6.745   2.351   7.927  2.4702  0.0098 -1.2440
  787MOL0     H 8557   6.885   2.262   7.898  0.7523  0.5847  1.0410
  787MOL0     H 8558   6.880   2.402   8.097 -3.6842  1.3161  1.2468
  787MOL0     H 8559   6.735   2.320   8.152 -0.2663 -4.2161  2.1190
  787MOL0     H 8560   6.865   2.103   8.174  0.1191  0.6146  2.7268
  787MOL0     H 8561   7.003   2.206   8.170  0.6046 -1.9350 -0.8536
  787MOL0     H 8562   6.911   2.160   8.411 -2.7185 -2.2270 -1.7700
  787MOL0     H 8563   6.950   2.325   8.370  1.9513 -2.1617  2.3689
  787MOL0     H 8564   6.511   2.377   8.442 -0.6773 -0.5448 -0.3194
  787MOL0     H 8565   6.191   2.277   8.456  1.5746  1.5875 -2.4391
  787MOL0     H 8566   6.295   2.385   8.533 -1.8998 -0.6801  0.9869
  787MOL0     H 8567   6.240   2.235   8.615  1.6515 -1.0427  0.9455
  787MOL0     H 8568   5.928   2.032   8.616 -0.2776 -0.5287  0.2049
  787MOL0     H 8569   5.735   1.893   8.615 -0.2455 -0.2204 -0.2498
  787MOL0     H 8570   5.626   1.713   8.590  0.3491  2.7460  0.9813
  787MOL0     H 8571   5.526   1.794   8.469 -0.3354 -0.7375 -0.8355
  787MOL0     H 8572   5.518   1.564   8.347 -0.7653  2.7094 -0.1812
  787MOL0     H 8573   5.578   1.502   8.497  3.3239  1.0892 -2.1628
  787MOL0     H 8574   5.315   1.497   8.468 -2.5741  1.8164  0.0822
  787MOL0     H 8575   5.310   1.667   8.470 -0.0437  0.7776 -0.4207
  787MOL0     H 8576   5.386   1.679   8.711 -1.8309  2.3627 -2.5215
  787MOL0     H 8577   5.435   1.506   8.690 -0.2333  1.0423  3.5427
  787MOL0     H 8578   5.145   1.630   8.682 -1.2293 -0.7725 -0.5765
  787MOL0     H 8579   5.180   1.459   8.656 -0.5024  0.3964 -1.6853
  787MOL0     H 8580   5.257   1.605   8.916 -0.9900  0.9082  1.1228
  787MOL0     H 8581   5.235   1.424   8.880 -3.9046 -1.1427  0.6455
  787MOL0     H 8582   5.010   1.625   8.909 -1.2353  0.4072  0.7400
  787MOL0     H 8583   5.071   1.496   9.024  1.9141  0.6841 -0.2140
  787MOL0     H 8584   4.946   1.470   8.746  2.7612  1.7767  0.4554
  787MOL0     H 8585   4.856   1.444   8.893 -0.2466  2.8622  0.8837
  787MOL0     H 8586   5.891   1.719   8.239 -1.4821  2.0638 -1.8110
  787MOL0     H 8587   6.057   1.905   8.229 -0.2274  0.6309  0.1243
  787MOL0     H 8588   6.530   1.896   8.366  0.6951 -0.0105 -0.0477
  787MOL0     H 8589   6.733   2.023   8.356  0.6755  2.4828  0.2212
  787MOL0     H 8590   6.469   1.162   8.382 -0.6392  0.2652  1.4325
  787MOL0     H 8591   6.461   1.047   8.600 -0.7875  2.3092 -0.5853
  787MOL0     H 8592   6.376   0.594   8.819  2.1591  3.2802 -4.4377
  787MOL0     H 8593   6.404   0.485   9.031 -2.2278  1.7033  0.2306
  787MOL0     H 8594   6.767   0.591   9.279 -0.7993  3.0895 -6.3134
  787MOL0     H 8595   6.629   0.697   9.279 -1.5712  0.0168 -0.4527
  787MOL0     H 8596   6.531   0.591   9.485 -0.7681 -2.4248  2.7577
  787MOL0     H 8597   6.708   0.584   9.508  1.6351 -0.2538 -1.9134
  787MOL0     H 8598   6.573   0.398   9.578  1.9926  1.5001  0.0689
  787MOL0     H 8599   6.516   0.366   9.418  0.5879 -1.8237  0.4837
  787MOL0     H 8600   6.782   0.346   9.359 -0.0326 -0.7448  0.3273
  787MOL0     H 8601   6.720   0.209   9.452 -1.0336 -0.4879 -1.9374
  787MOL0     H 8602   6.976   0.389   9.733  2.3796 -1.3740 -0.7713
  787MOL0     H 8603   6.799   0.618   9.082  1.1295 -1.7511 -0.2865
  787MOL0     H 8604   6.830   0.803   8.783  0.1422  0.5692  1.4230
  787MOL0     H 8605   6.921   0.712   8.913  0.7851 -1.3248 -0.8527
  787MOL0     H 8606   6.868   0.628   8.763 -1.3431  0.5950 -1.8283
  788MOL0     O 8607   8.168   4.121   6.786 -0.1460 -0.4099 -0.4601
  788MOL0     C 8608   8.108   4.021   6.752  0.3198  0.4001 -0.1512
  788MOL0     O 8609   8.158   3.891   6.732  0.6591  0.3285  0.1665
  788MOL0     C 8610   8.291   3.891   6.758  0.1457  0.3131  0.6778
  788MOL0     C 8611   8.335   3.866   6.888 -0.0594 -0.0411  1.0275
  788MOL0     C 8612   8.475   3.882   6.913 -0.1992  0.0849  0.4138
  788MOL0     C 8613   8.567   3.913   6.811 -0.0828 -0.6742 -0.5577
  788MOL0     O 8614   8.701   3.924   6.851 -0.1187 -0.0055 -0.4885
  788MOL0     C 8615   8.799   3.873   6.752 -0.5559 -0.5296 -0.8126
  788MOL0     C 8616   8.924   3.815   6.826  0.3013 -0.2669 -1.1141
  788MOL0     C 8617   9.008   3.917   6.895 -0.3836  0.1384  0.2904
  788MOL0     C 8618   9.022   4.050   6.814  0.8169  0.4658  0.1396
  788MOL0     C 8619   9.082   4.136   6.912 -0.0012 -1.1115 -1.1267
  788MOL0     C 8620   9.124   4.263   6.858 -0.1647 -0.7657 -0.3310
  788MOL0     C 8621   9.017   4.356   6.809 -0.2122  0.4360  0.8413
  788MOL0     C 8622   8.999   4.343   6.658  0.6093  0.6319  0.2720
  788MOL0     N 8623   8.916   4.458   6.605 -0.8663  0.5603  0.1724
  788MOL0     C 8624   8.898   4.469   6.465 -0.0781 -0.1545 -0.0263
  788MOL0     C 8625   8.824   4.579   6.445 -0.1364  0.2757 -0.4300
  788MOL0     C 8626   8.758   4.627   6.312  0.1669 -0.6199  0.3460
  788MOL0     C 8627   8.676   4.517   6.242  0.9736 -0.1146 -0.5523
  788MOL0     C 8628   8.595   4.579   6.126  0.0639  0.2145 -0.4085
  788MOL0     C 8629   8.501   4.492   6.040  0.2013  0.0189  0.9554
  788MOL0     O 8630   8.579   4.400   5.963 -0.6581 -0.1534  0.7444
  788MOL0     C 8631   8.631   4.444   5.843 -0.0140  0.5719 -0.4228
  788MOL0     C 8632   8.621   4.565   5.781 -0.7530 -0.1640  0.7377
  788MOL0     C 8633   8.693   4.595   5.671 -0.2798 -0.7589  0.1540
  788MOL0     C 8634   8.658   4.727   5.600  1.1800  0.0600 -0.0445
  788MOL0     C 8635   8.799   4.512   5.627  0.0009 -0.1044 -0.8146
  788MOL0     C 8636   8.887   4.538   5.518 -0.6956 -0.0466 -0.5008
  788MOL0     O 8637   8.824   4.547   5.397  1.1356 -0.0323 -0.2116
  788MOL0     C 8638   8.899   4.591   5.292 -0.5733 -0.3605 -0.1287
  788MOL0     C 8639   8.947   4.497   5.200  0.8059 -0.2031 -0.1219
  788MOL0     C 8640   9.031   4.523   5.090  0.4560 -0.7245 -0.2061
  788MOL0     C 8641   9.074   4.655   5.075  0.1929  0.7103  0.0102
  788MOL0     O 8642   9.166   4.663   4.972 -0.7643  0.0059 -0.5165
  788MOL0     C 8643   9.209   4.779   4.918 -0.6124  0.1919  0.3219
  788MOL0     C 8644   9.277   4.749   4.785  0.4981 -1.0299  0.8110
  788MOL0     C 8645   9.428   4.760   4.802 -0.3804  0.7901 -1.1552
  788MOL0     C 8646   9.513   4.739   4.678  1.1517 -0.4976  0.0783
  788MOL0     C 8647   9.543   4.594   4.661 -0.9670  0.6967  0.1851
  788MOL0     C 8648   9.628   4.585   4.536  0.1046 -0.1630 -0.3103
  788MOL0     C 8649   9.637   4.428   4.495 -0.2252  0.5336 -0.8783
  788MOL0     C 8650   9.744   4.426   4.386 -0.4204  0.6634 -0.1830
  788MOL0    Cl 8651   9.744   4.253   4.330 -0.5447 -0.1820 -0.2017
  788MOL0     C 8652   9.029   4.754   5.170 -0.0687 -0.3657  0.0659
  788MOL0     C 8653   8.935   4.723   5.266 -0.5146 -0.5794 -0.2028
  788MOL0     O 8654   9.004   4.562   5.549 -0.1253  0.2964 -0.5511
  788MOL0     C 8655   8.813   4.392   5.694 -0.3250  0.4166  0.7071
  788MOL0     C 8656   8.730   4.357   5.800 -0.0734 -0.6868  0.3910
  788MOL0     N 8657   8.811   4.635   6.573 -0.5307  0.7729 -0.5345
  788MOL0     N 8658   8.853   4.561   6.664 -0.0007  0.2918 -0.7553
  788MOL0     C 8659   8.524   3.931   6.676 -0.2154 -1.1679 -0.8102
  788MOL0     C 8660   8.394   3.920   6.653 -0.3400 -0.3433 -0.9054
  788MOL0     C 8661   7.968   4.036   6.723  0.6261  0.4777 -0.4099
  788MOL0     C 8662   7.918   4.029   6.589 -0.2811  0.0443 -0.4283
  788MOL0     C 8663   7.783   4.054   6.570  0.5402 -0.0652 -0.1954
  788MOL0     C 8664   7.690   4.077   6.673  0.0221  0.1462 -0.6475
  788MOL0     O 8665   7.550   4.088   6.653 -0.2567  0.4065  0.3431
  788MOL0     C 8666   7.482   4.005   6.553  0.6951  0.5863 -0.3652
  788MOL0     C 8667   7.495   3.854   6.583 -0.4395  0.3459  0.4782
  788MOL0     C 8668   7.433   3.767   6.477  0.2356  0.2612 -0.0113
  788MOL0     C 8669   7.293   3.805   6.422  0.1519  0.7804 -0.4774
  788MOL0     C 8670   7.194   3.797   6.534 -0.0724  0.3225 -0.6903
  788MOL0     C 8671   7.119   3.778   6.624 -0.8358  0.1297  1.6298
  788MOL0     C 8672   7.746   4.094   6.801 -0.0829 -0.4300 -0.3589
  788MOL0     C 8673   7.883   4.068   6.834  0.2388  0.5769  0.0599
  788MOL0     C 8674   7.917   4.070   6.985  1.2923  0.5531 -0.1414
  788MOL0     H 8675   8.271   3.853   6.975 -0.1087  3.5911  1.6938
  788MOL0     H 8676   8.528   3.872   7.007  1.2943 -0.8361 -0.4927
  788MOL0     H 8677   8.829   3.933   6.665 -0.9786  1.5944  0.4376
  788MOL0     H 8678   8.749   3.788   6.706  3.8030 -3.3955 -0.8850
  788MOL0     H 8679   8.897   3.735   6.895 -0.6155 -1.2702 -2.5685
  788MOL0     H 8680   8.983   3.762   6.751  0.4718 -2.0462  0.2192
  788MOL0     H 8681   8.970   3.940   6.995 -0.5276  2.5726 -0.2633
  788MOL0     H 8682   9.112   3.881   6.899 -1.1937 -2.4734  4.7577
  788MOL0     H 8683   9.085   4.033   6.726  1.1569  1.9062  0.0953
  788MOL0     H 8684   8.924   4.093   6.789  0.3222 -1.0085 -0.5980
  788MOL0     H 8685   9.175   4.094   6.953  0.2045  0.2222 -0.1538
  788MOL0     H 8686   9.013   4.157   6.995 -0.2333  2.1294 -1.9999
  788MOL0     H 8687   9.175   4.326   6.931  0.2882 -0.2112 -1.1106
  788MOL0     H 8688   9.196   4.236   6.780 -1.2564 -2.4811 -0.7942
  788MOL0     H 8689   9.038   4.461   6.829 -1.5611  1.1610 -1.2371
  788MOL0     H 8690   8.934   4.338   6.878  0.8744 -1.6472  1.6901
  788MOL0     H 8691   9.096   4.331   6.609  0.1221  0.4651 -0.6681
  788MOL0     H 8692   8.946   4.250   6.636  1.2341  0.5442 -0.9255
  788MOL0     H 8693   8.934   4.403   6.386 -0.3005  1.7483 -1.8005
  788MOL0     H 8694   8.835   4.668   6.246  0.8985 -0.9218  0.9893
  788MOL0     H 8695   8.691   4.707   6.345  0.1436 -1.8494  3.6184
  788MOL0     H 8696   8.749   4.443   6.209  1.8921 -0.7722  2.6216
  788MOL0     H 8697   8.605   4.481   6.317  2.3879  0.5193  1.1479
  788MOL0     H 8698   8.532   4.657   6.170  0.4842  1.5344 -2.0366
  788MOL0     H 8699   8.670   4.629   6.064 -0.5460  0.2191 -1.1613
  788MOL0     H 8700   8.444   4.423   6.104  0.2762 -0.5232  0.4467
  788MOL0     H 8701   8.423   4.543   5.983 -1.3279 -3.5896 -0.5488
  788MOL0     H 8702   8.534   4.623   5.810 -1.3021 -0.3415 -0.4908
  788MOL0     H 8703   8.749   4.779   5.567  2.6843 -2.4639 -0.1288
  788MOL0     H 8704   8.591   4.783   5.666  1.0147  1.5033 -1.3855
  788MOL0     H 8705   8.603   4.700   5.510  0.6221 -0.2237  0.3728
  788MOL0     H 8706   8.878   4.414   5.191 -0.8221  1.1936 -1.4570
  788MOL0     H 8707   9.054   4.444   5.020 -1.4389 -2.1279  0.6480
  788MOL0     H 8708   9.124   4.842   4.890 -1.1568  0.4737  2.4790
  788MOL0     H 8709   9.274   4.843   4.979  0.9410 -0.5028 -0.5278
  788MOL0     H 8710   9.236   4.659   4.738 -0.4043  0.3903 -1.2534
  788MOL0     H 8711   9.238   4.827   4.718  3.1721 -1.9078 -1.9915
  788MOL0     H 8712   9.457   4.687   4.878  0.8068 -1.4268 -3.5957
  788MOL0     H 8713   9.452   4.856   4.847 -2.3104 -0.0050  1.9457
  788MOL0     H 8714   9.597   4.806   4.699 -0.0805  1.4624 -0.9098
  788MOL0     H 8715   9.465   4.788   4.593  2.2229 -0.0318 -0.2813
  788MOL0     H 8716   9.610   4.568   4.744 -0.2247  1.8521 -0.0197
  788MOL0     H 8717   9.455   4.530   4.657  0.6429 -1.5484 -2.1936
  788MOL0     H 8718   9.732   4.615   4.550  0.7640 -0.2635 -4.0193
  788MOL0     H 8719   9.585   4.644   4.455 -0.5492 -0.9822 -0.5747
  788MOL0     H 8720   9.542   4.404   4.445 -0.0294  4.3407 -3.4985
  788MOL0     H 8721   9.661   4.363   4.580  1.6708 -1.1732 -2.6363
  788MOL0     H 8722   9.839   4.475   4.408 -0.7661  2.3685 -2.1677
  788MOL0     H 8723   9.711   4.481   4.297 -0.9877 -0.9172 -0.9910
  788MOL0     H 8724   9.075   4.853   5.168  1.3812 -1.0265 -0.9588
  788MOL0     H 8725   8.898   4.794   5.339 -1.1587  1.2029 -2.1725
  788MOL0     H 8726   8.893   4.322   5.671 -0.1141 -0.2488  3.2121
  788MOL0     H 8727   8.747   4.261   5.848  1.0015 -0.5959  0.2237
  788MOL0     H 8728   8.580   3.936   6.583 -3.6155 -3.1200 -3.1950
  788MOL0     H 8729   8.359   3.921   6.550 -0.5142  2.2005 -0.8897
  788MOL0     H 8730   7.977   3.999   6.503 -2.2267  2.9034 -2.9822
  788MOL0     H 8731   7.732   4.040   6.475 -6.2095  2.7495  2.3785
  788MOL0     H 8732   7.377   4.029   6.536  0.4937 -1.4243 -2.4878
  788MOL0     H 8733   7.533   4.023   6.458  1.0535  0.0202 -0.2880
  788MOL0     H 8734   7.457   3.839   6.685  1.4754  0.5464  1.2638
  788MOL0     H 8735   7.599   3.826   6.599 -0.1062  0.3519 -1.4757
  788MOL0     H 8736   7.506   3.760   6.395 -1.3402  1.6619 -1.6102
  788MOL0     H 8737   7.423   3.667   6.520  0.8995 -0.1720 -0.8262
  788MOL0     H 8738   7.271   3.733   6.342  1.5988 -0.8974  0.5625
  788MOL0     H 8739   7.305   3.905   6.379 -0.9992  0.9676 -0.4182
  788MOL0     H 8740   7.050   3.772   6.706 -4.3263  0.6125 -1.0387
  788MOL0     H 8741   7.678   4.117   6.882  0.6873  4.4958 -0.8379
  788MOL0     H 8742   7.934   3.971   7.029 -0.2239 -0.0073 -0.7644
  788MOL0     H 8743   8.006   4.131   7.005  1.5399  0.8361 -1.9315
  788MOL0     H 8744   7.838   4.116   7.046  1.1765 -0.3098  0.3790
  789MOL0     O 8745   9.939   2.627  11.336 -0.1703  0.0883 -0.2599
  789MOL0     C 8746   9.835   2.694  11.358  0.4593  0.9322  0.6172
  789MOL0     O 8747   9.713   2.636  11.395  0.9187 -0.4476 -0.1597
  789MOL0     C 8748   9.709   2.527  11.486 -0.0602 -0.8293  0.3469
  789MOL0     C 8749   9.583   2.460  11.493 -0.5389  1.0344  0.0138
  789MOL0     C 8750   9.557   2.366  11.594 -1.4926  1.0460 -0.4774
  789MOL0     C 8751   9.667   2.331  11.686  0.2907  0.6871 -0.2443
  789MOL0     O 8752   9.652   2.246  11.795  0.1051 -0.0902 -0.3434
  789MOL0     C 8753   9.529   2.178  11.802  0.8557  0.4227  0.2145
  789MOL0     C 8754   9.526   2.088  11.931  0.3923 -0.0694  0.0851
  789MOL0     C 8755   9.412   1.992  11.943  0.3560 -0.0168  0.2065
  789MOL0     C 8756   9.403   1.900  12.066 -0.9478  0.7392 -0.3020
  789MOL0     C 8757   9.292   1.805  12.043  0.0341 -0.5465  0.0538
  789MOL0     C 8758   9.288   1.715  12.165 -0.1379  0.3981 -0.8305
  789MOL0     C 8759   9.209   1.774  12.284  0.0297 -0.1026  1.1808
  789MOL0     C 8760   9.072   1.839  12.241  0.3927  0.5119  0.2791
  789MOL0     N 8761   8.981   1.854  12.357  0.0442  0.9344  0.9116
  789MOL0     C 8762   9.017   1.856  12.484  0.6940 -0.3174  0.4603
  789MOL0     C 8763   8.910   1.828  12.557  0.8109  0.5872 -0.2112
  789MOL0     C 8764   8.889   1.822  12.709 -0.3497 -0.9608 -0.1367
  789MOL0     C 8765   8.931   1.696  12.777 -0.3233 -0.3425 -0.8050
  789MOL0     C 8766   8.923   1.712  12.928  0.5904 -0.1056  0.5601
  789MOL0     C 8767   8.939   1.580  13.004  0.7693 -1.1418  0.3144
  789MOL0     O 8768   8.956   1.627  13.141  1.0034 -0.6253 -0.9188
  789MOL0     C 8769   9.017   1.546  13.232  0.1278  0.3596 -0.8894
  789MOL0     C 8770   9.039   1.601  13.354 -0.0303  0.4111 -0.4263
  789MOL0     C 8771   9.064   1.513  13.461 -0.9448  0.9943  0.0060
  789MOL0     C 8772   9.089   1.580  13.598  0.1452 -1.1836 -0.6524
  789MOL0     C 8773   9.071   1.371  13.457  1.2143  0.8336  0.3821
  789MOL0     C 8774   9.107   1.274  13.572 -0.1212 -0.7321  0.0162
  789MOL0     O 8775   9.100   1.305  13.707 -0.1429 -0.2127  0.3402
  789MOL0     C 8776   9.142   1.210  13.787  1.2103  0.1212  0.5335
  789MOL0     C 8777   9.269   1.217  13.835 -0.1704 -0.3569  0.6702
  789MOL0     C 8778   9.315   1.121  13.924 -0.8423 -0.2708  0.1119
  789MOL0     C 8779   9.231   1.005  13.960  0.5570 -0.6911 -0.0753
  789MOL0     O 8780   9.265   0.908  14.042  0.5943  0.1501  1.0773
  789MOL0     C 8781   9.405   0.884  14.064 -0.9782  0.1203 -0.4387
  789MOL0     C 8782   9.435   0.745  14.127  0.5125 -0.6383  0.1422
  789MOL0     C 8783   9.351   0.725  14.259 -0.5310 -0.8222  0.6261
  789MOL0     C 8784   9.381   0.837  14.367 -0.8071 -0.2617 -1.0838
  789MOL0     C 8785   9.342   0.773  14.503  0.1260  0.0121 -0.4310
  789MOL0     C 8786   9.327   0.869  14.620  0.7922 -0.0434 -0.0085
  789MOL0     C 8787   9.459   0.940  14.644  0.2546  0.0534 -0.3377
  789MOL0     C 8788   9.471   1.008  14.786 -0.0100  0.6143  0.1198
  789MOL0    Cl 8789   9.634   1.071  14.812 -0.2582  0.3191 -0.1624
  789MOL0     C 8790   9.107   0.994  13.907  0.9982 -0.3944 -0.2732
  789MOL0     C 8791   9.054   1.099  13.825 -0.0727 -0.4552  0.5646
  789MOL0     O 8792   9.164   1.174  13.526 -0.3709  0.1384  0.3396
  789MOL0     C 8793   9.050   1.317  13.325  0.0848 -0.5760  0.3094
  789MOL0     C 8794   9.032   1.405  13.217  0.0956  0.3255  0.4380
  789MOL0     N 8795   8.800   1.803  12.471 -0.5716 -0.4029 -0.3632
  789MOL0     N 8796   8.849   1.826  12.350  0.2062  0.4877  0.8743
  789MOL0     C 8797   9.797   2.391  11.669 -0.3936  0.3359 -0.2972
  789MOL0     C 8798   9.810   2.493  11.580 -0.2801 -0.0762 -0.1813
  789MOL0     C 8799   9.829   2.833  11.304  0.9652  0.1540 -1.0156
  789MOL0     C 8800   9.705   2.897  11.277  0.2073 -0.6069 -0.5047
  789MOL0     C 8801   9.688   3.017  11.212 -0.2599  0.1164  0.0147
  789MOL0     C 8802   9.798   3.097  11.188 -0.5820  0.0901  0.4181
  789MOL0     O 8803   9.805   3.217  11.117  0.2767 -0.2664  0.3747
  789MOL0     C 8804   9.678   3.282  11.083 -0.5310  0.8746  0.1465
  789MOL0     C 8805   9.696   3.431  11.070 -0.2469 -0.2025  0.5738
  789MOL0     C 8806   9.760   3.462  10.928 -0.1877 -0.3918 -0.1323
  789MOL0     C 8807   9.895   3.409  10.894 -0.9783  0.5700  0.4352
  789MOL0     C 8808   9.970   3.492  10.808  0.2453  0.8204  0.5931
  789MOL0     C 8809  10.043   3.555  10.744 -0.3837  0.2407 -0.2160
  789MOL0     C 8810   9.921   3.048  11.236  0.4347  0.6084  0.0028
  789MOL0     C 8811   9.941   2.922  11.295  0.0093  1.4095 -0.3283
  789MOL0     C 8812  10.086   2.889  11.349  0.9872 -0.1448 -0.7703
  789MOL0     H 8813   9.502   2.485  11.426  0.3641  1.6251 -0.8826
  789MOL0     H 8814   9.454   2.340  11.615 -0.0794 -3.6316  2.0646
  789MOL0     H 8815   9.511   2.118  11.712  1.5053  1.3752 -0.5718
  789MOL0     H 8816   9.439   2.241  11.798  2.3543  2.6072 -1.2629
  789MOL0     H 8817   9.620   2.032  11.926 -0.5816 -1.8653  0.7540
  789MOL0     H 8818   9.516   2.142  12.026  0.5540 -0.1776  0.1642
  789MOL0     H 8819   9.313   2.038  11.934 -1.1275 -3.2781 -1.9267
  789MOL0     H 8820   9.426   1.929  11.855  0.4940  1.5691 -0.9341
  789MOL0     H 8821   9.501   1.854  12.081 -0.3100  2.2085  0.1617
  789MOL0     H 8822   9.379   1.958  12.156  0.1575  0.1859  0.3689
  789MOL0     H 8823   9.310   1.742  11.955 -1.6788 -0.3611 -0.4668
  789MOL0     H 8824   9.192   1.847  12.025  0.2447 -0.0434  0.0250
  789MOL0     H 8825   9.238   1.625  12.128 -0.8362  1.1756 -1.8127
  789MOL0     H 8826   9.387   1.690  12.205  1.2530  4.0815 -1.5653
  789MOL0     H 8827   9.261   1.864  12.318 -5.1599  2.9681  2.0923
  789MOL0     H 8828   9.206   1.696  12.360 -2.4007 -0.8422  0.4306
  789MOL0     H 8829   9.094   1.938  12.201  0.6684  0.8832  1.3213
  789MOL0     H 8830   9.005   1.787  12.171  0.6146 -0.6496  0.9040
  789MOL0     H 8831   9.114   1.880  12.527  1.3139 -0.7837 -0.6456
  789MOL0     H 8832   8.782   1.830  12.732  0.1670 -0.1049  2.1996
  789MOL0     H 8833   8.938   1.905  12.759  0.7644 -2.5104  1.4549
  789MOL0     H 8834   8.865   1.617  12.742 -2.2654  0.8915 -0.0574
  789MOL0     H 8835   9.036   1.664  12.768 -0.5092 -1.3199  0.2653
  789MOL0     H 8836   9.001   1.779  12.965  1.3826 -0.3666 -0.5764
  789MOL0     H 8837   8.827   1.758  12.953 -0.2113 -2.7470  2.7595
  789MOL0     H 8838   8.849   1.522  12.983  0.7325 -0.6912 -0.7982
  789MOL0     H 8839   9.025   1.530  12.958  0.0389  0.3723 -2.9778
  789MOL0     H 8840   9.033   1.709  13.360 -1.0830  0.3739 -0.5728
  789MOL0     H 8841   9.107   1.688  13.592 -0.9936 -0.9417 -0.1073
  789MOL0     H 8842   9.174   1.549  13.659 -0.9088 -0.8916  1.0505
  789MOL0     H 8843   8.993   1.573  13.650 -0.4369  0.9389 -1.3215
  789MOL0     H 8844   9.335   1.299  13.811 -1.2144  0.6486  1.1375
  789MOL0     H 8845   9.411   1.133  13.973 -0.4245 -2.2309 -0.1404
  789MOL0     H 8846   9.460   0.897  13.970  0.3690  0.5103  0.3882
  789MOL0     H 8847   9.453   0.952  14.134 -0.1351 -0.9193  0.0113
  789MOL0     H 8848   9.407   0.678  14.045 -0.8455 -0.5545  0.5056
  789MOL0     H 8849   9.538   0.740  14.162  0.7062  1.1636 -0.1087
  789MOL0     H 8850   9.385   0.631  14.305 -0.1901 -0.2995  1.4587
  789MOL0     H 8851   9.242   0.722  14.247 -0.5357  1.5735 -0.2856
  789MOL0     H 8852   9.329   0.932  14.355  0.9262  0.8132 -0.3740
  789MOL0     H 8853   9.488   0.855  14.373 -0.8694 -0.2328  0.2520
  789MOL0     H 8854   9.244   0.723  14.501 -0.9649  1.7959  2.0212
  789MOL0     H 8855   9.419   0.702  14.535 -0.0070 -0.7434 -1.7209
  789MOL0     H 8856   9.295   0.815  14.709 -1.9549  1.1187 -0.1840
  789MOL0     H 8857   9.249   0.944  14.601  1.3558  0.4481 -0.4044
  789MOL0     H 8858   9.468   1.025  14.574 -3.4836 -1.0732 -2.4643
  789MOL0     H 8859   9.547   0.878  14.627 -1.8807 -4.1787  2.3601
  789MOL0     H 8860   9.452   0.937  14.867  1.1237  0.2798  0.1095
  789MOL0     H 8861   9.406   1.095  14.791 -0.4797  0.2513  0.3942
  789MOL0     H 8862   9.045   0.906  13.919  1.5093 -1.1381 -2.4541
  789MOL0     H 8863   8.956   1.087  13.782  0.2062 -2.5905  0.3939
  789MOL0     H 8864   9.059   1.209  13.313 -1.0363 -0.7696  1.1186
  789MOL0     H 8865   9.018   1.364  13.118 -1.3173  0.8227  0.4053
  789MOL0     H 8866   9.884   2.367  11.729  1.6396  0.6940 -2.9035
  789MOL0     H 8867   9.900   2.552  11.567 -1.7066  1.9153 -1.4739
  789MOL0     H 8868   9.615   2.850  11.316  0.4476  0.5776  1.6217
  789MOL0     H 8869   9.587   3.053  11.194  0.2216  2.9045  2.1769
  789MOL0     H 8870   9.644   3.244  10.986  2.1037 -0.1652 -0.4625
  789MOL0     H 8871   9.601   3.258  11.156 -2.1742  1.4921 -1.2986
  789MOL0     H 8872   9.766   3.451  11.151  0.5705 -0.8321  0.0541
  789MOL0     H 8873   9.599   3.477  11.086 -1.9442 -2.9209 -1.1787
  789MOL0     H 8874   9.688   3.435  10.852 -2.3512 -1.1163  2.0571
  789MOL0     H 8875   9.773   3.571  10.933 -0.8551 -0.2453 -1.3327
  789MOL0     H 8876   9.881   3.307  10.857 -1.5415  0.1443  1.7534
  789MOL0     H 8877   9.955   3.397  10.985 -0.5064  1.5250  0.2552
  789MOL0     H 8878  10.114   3.599  10.677 -0.5213 -3.4459 -3.0671
  789MOL0     H 8879  10.007   3.111  11.215 -0.6018  2.1297  0.1750
  789MOL0     H 8880  10.157   2.891  11.266  0.9543  1.4641 -0.7930
  789MOL0     H 8881  10.110   2.975  11.412 -3.5954 -0.4152  1.8417
  789MOL0     H 8882  10.100   2.794  11.401  2.6505 -0.5971 -1.9796
  790MOL0     O 8883   9.491   8.592   4.900 -0.0600 -1.3074  0.2991
  790MOL0     C 8884   9.491   8.489   4.832 -0.1011 -0.8789 -0.5765
  790MOL0     O 8885   9.575   8.469   4.733 -0.9712  0.0518  0.1114
  790MOL0     C 8886   9.665   8.573   4.710 -0.3905  0.2120  0.1702
  790MOL0     C 8887   9.776   8.603   4.798  1.8227  0.9101 -0.8535
  790MOL0     C 8888   9.873   8.697   4.763 -0.1463 -0.5845 -0.2910
  790MOL0     C 8889   9.853   8.786   4.658 -0.3153 -0.0919  1.2478
  790MOL0     O 8890   9.931   8.892   4.626 -0.5054  0.5046  0.5673
  790MOL0     C 8891  10.052   8.909   4.706  0.0381 -0.3055 -0.5484
  790MOL0     C 8892  10.129   9.034   4.665 -0.8809  0.0066 -0.2647
  790MOL0     C 8893  10.284   9.005   4.681  0.6905 -0.0279  0.5169
  790MOL0     C 8894  10.331   8.911   4.560 -0.0594 -0.0918 -0.0269
  790MOL0     C 8895  10.481   8.879   4.582  0.0154 -0.1122 -0.2257
  790MOL0     C 8896  10.531   8.810   4.463 -0.5914 -0.9486  1.1419
  790MOL0     C 8897  10.659   8.733   4.499 -1.2553 -0.2413 -0.3815
  790MOL0     C 8898  10.752   8.698   4.375 -0.2868  0.6272 -0.7363
  790MOL0     N 8899  10.881   8.674   4.434 -0.3820 -0.1751  0.1903
  790MOL0     C 8900  10.977   8.777   4.462  0.8653  0.0957  0.1735
  790MOL0     C 8901  11.083   8.707   4.500 -0.4993 -0.0014 -0.0912
  790MOL0     C 8902  11.218   8.765   4.543  0.0434 -0.1400 -0.9541
  790MOL0     C 8903  11.205   8.791   4.700  0.4974 -0.4402 -0.3696
  790MOL0     C 8904  11.346   8.773   4.752 -0.5416  0.1959 -0.3461
  790MOL0     C 8905  11.343   8.798   4.902  0.8155 -0.9928  0.6667
  790MOL0     O 8906  11.342   8.940   4.915  0.8826  0.5327  0.4763
  790MOL0     C 8907  11.360   9.006   5.030  0.3352  1.2611 -0.5486
  790MOL0     C 8908  11.396   8.934   5.148 -0.0874 -0.1102  0.0043
  790MOL0     C 8909  11.395   8.996   5.272  0.6969  0.4747 -0.0624
  790MOL0     C 8910  11.416   8.896   5.386 -0.4109  0.1981 -0.5952
  790MOL0     C 8911  11.367   9.131   5.289  0.7446 -1.3217  0.3267
  790MOL0     C 8912  11.332   9.194   5.413  0.6840  0.2232  0.7394
  790MOL0     O 8913  11.257   9.119   5.498 -0.1049  0.4322 -0.0771
  790MOL0     C 8914  11.238   9.156   5.631  0.4047  1.5628 -0.4047
  790MOL0     C 8915  11.118   9.106   5.693 -0.5955 -0.2635  0.1869
  790MOL0     C 8916  11.096   9.126   5.827  0.4142 -0.4481  0.7599
  790MOL0     C 8917  11.195   9.197   5.908  0.9760  0.3904  1.0228
  790MOL0     O 8918  11.187   9.207   6.040 -0.5641 -0.3588  0.4984
  790MOL0     C 8919  11.101   9.133   6.121  0.0737 -0.1069  0.2905
  790MOL0     C 8920  11.145   9.135   6.268 -0.2448 -0.0968  0.3122
  790MOL0     C 8921  11.273   9.068   6.289 -0.0346 -0.4431 -0.4668
  790MOL0     C 8922  11.330   9.086   6.430  0.5096 -0.7189 -0.9453
  790MOL0     C 8923  11.481   9.040   6.443  0.8590  0.2789 -0.4537
  790MOL0     C 8924  11.534   9.044   6.589 -0.2205  0.4291  0.5766
  790MOL0     C 8925  11.549   9.184   6.646 -0.6926  0.6254  0.7481
  790MOL0     C 8926  11.669   9.259   6.599 -0.1265  0.1134 -1.2062
  790MOL0    Cl 8927  11.731   9.375   6.727  0.6647 -0.2274  0.3589
  790MOL0     C 8928  11.308   9.256   5.846 -0.5070 -0.8379  0.8546
  790MOL0     C 8929  11.329   9.230   5.708 -0.0218  0.0580 -0.0918
  790MOL0     O 8930  11.338   9.315   5.411 -0.8076 -0.3240 -0.7607
  790MOL0     C 8931  11.350   9.209   5.172  0.2138 -0.3251  0.5186
  790MOL0     C 8932  11.333   9.139   5.042 -1.4692  0.0965  0.0017
  790MOL0     N 8933  11.042   8.574   4.523 -1.1141  0.3275 -0.5890
  790MOL0     N 8934  10.922   8.557   4.484 -0.3274  0.0741  0.0370
  790MOL0     C 8935   9.742   8.758   4.571 -1.1092 -0.1063  0.3479
  790MOL0     C 8936   9.654   8.658   4.595  0.2898  0.4846 -0.0720
  790MOL0     C 8937   9.407   8.377   4.866  0.3698 -0.6015 -0.8535
  790MOL0     C 8938   9.399   8.263   4.784  0.5718 -0.9867 -0.1314
  790MOL0     C 8939   9.334   8.143   4.811 -1.0758  0.1429  0.0804
  790MOL0     C 8940   9.270   8.122   4.933  0.3829 -0.8083 -0.3617
  790MOL0     O 8941   9.225   7.997   4.958 -0.4302  0.5055  0.2385
  790MOL0     C 8942   9.128   7.964   5.058  0.3726  0.2348  0.5092
  790MOL0     C 8943   9.128   7.811   5.077  0.3374  0.0152 -0.3312
  790MOL0     C 8944   9.261   7.762   5.141 -0.1306 -0.8468  0.3277
  790MOL0     C 8945   9.286   7.811   5.285  0.6803  0.2259  0.1256
  790MOL0     C 8946   9.432   7.810   5.328  0.2644 -0.6667 -0.0679
  790MOL0     C 8947   9.611   7.800   5.406 -0.4066 -0.6268  0.3015
  790MOL0     C 8948   9.257   8.239   5.021 -0.4532 -0.4705  0.4721
  790MOL0     C 8949   9.326   8.359   4.985  0.6221  0.0982 -0.5314
  790MOL0     C 8950   9.303   8.464   5.086 -1.0314  0.4492 -0.8335
  790MOL0     H 8951   9.777   8.537   4.883 -2.2051 -0.2241 -1.4434
  790MOL0     H 8952   9.950   8.710   4.839 -1.2840 -3.5855  1.5572
  790MOL0     H 8953  10.123   8.828   4.687  3.9427  2.1311  2.1911
  790MOL0     H 8954  10.029   8.913   4.812 -1.8596  0.0845 -0.9341
  790MOL0     H 8955  10.105   9.073   4.566 -1.9048  2.2977  0.8320
  790MOL0     H 8956  10.118   9.107   4.746 -1.5071  2.1354 -2.1748
  790MOL0     H 8957  10.351   9.092   4.685  1.6971 -0.8167  1.5524
  790MOL0     H 8958  10.311   8.953   4.774 -0.6663 -3.3626 -0.8302
  790MOL0     H 8959  10.278   8.815   4.559 -0.4108  0.0971  0.0811
  790MOL0     H 8960  10.309   8.958   4.464 -2.3168 -0.5978  0.1831
  790MOL0     H 8961  10.492   8.812   4.667  2.2075 -0.0477 -0.4032
  790MOL0     H 8962  10.538   8.969   4.606  0.9765 -0.4567 -1.1571
  790MOL0     H 8963  10.459   8.739   4.423 -1.3895  0.5713 -0.2154
  790MOL0     H 8964  10.551   8.883   4.384 -0.1034 -3.5141 -1.2514
  790MOL0     H 8965  10.649   8.647   4.566  1.3850 -0.7285 -0.5004
  790MOL0     H 8966  10.716   8.804   4.560  1.1229 -1.6176 -0.8653
  790MOL0     H 8967  10.722   8.605   4.326 -1.6122 -2.2497  4.7734
  790MOL0     H 8968  10.765   8.780   4.304 -1.2808  1.0273 -0.4611
  790MOL0     H 8969  10.973   8.884   4.445  2.4553  0.1401 -0.1393
  790MOL0     H 8970  11.242   8.861   4.495 -1.7099  0.2023 -1.2096
  790MOL0     H 8971  11.298   8.692   4.530 -1.2519 -2.1838  1.5845
  790MOL0     H 8972  11.179   8.892   4.731  2.3022  0.4114 -1.4394
  790MOL0     H 8973  11.123   8.738   4.748 -1.7510  2.4754 -0.7102
  790MOL0     H 8974  11.381   8.671   4.736 -1.5988 -0.7065  2.4936
  790MOL0     H 8975  11.420   8.834   4.699  0.1423  0.2221  0.6076
  790MOL0     H 8976  11.260   8.742   4.945 -1.2927  2.1227  0.9084
  790MOL0     H 8977  11.441   8.759   4.932  0.8913 -1.3294  0.0191
  790MOL0     H 8978  11.427   8.830   5.146 -1.6245 -0.5875 -1.5278
  790MOL0     H 8979  11.318   8.853   5.414  1.3094 -2.9185  1.2757
  790MOL0     H 8980  11.462   8.940   5.475  1.1284  0.1266 -1.3374
  790MOL0     H 8981  11.485   8.815   5.361 -1.8492 -0.7470 -1.6951
  790MOL0     H 8982  11.053   9.033   5.645 -1.3128 -1.0675  2.2589
  790MOL0     H 8983  11.004   9.088   5.871  0.2992 -0.1942  0.7426
  790MOL0     H 8984  11.002   9.178   6.116  0.2408  0.5023  1.8023
  790MOL0     H 8985  11.082   9.031   6.084  1.4949 -0.2240 -0.1806
  790MOL0     H 8986  11.170   9.237   6.298  1.9457 -0.1529 -1.0600
  790MOL0     H 8987  11.071   9.097   6.339  0.5783  2.2446  2.5726
  790MOL0     H 8988  11.337   9.119   6.216 -3.1064  0.0047 -3.0920
  790MOL0     H 8989  11.260   8.961   6.267  0.2105 -0.2141 -1.8279
  790MOL0     H 8990  11.274   9.022   6.500  0.0861  2.1638  1.5513
  790MOL0     H 8991  11.323   9.185   6.475  0.8986 -0.8387 -0.6057
  790MOL0     H 8992  11.490   8.941   6.398  0.1344 -0.6575  1.3230
  790MOL0     H 8993  11.538   9.110   6.382 -3.2329  3.2062 -1.3269
  790MOL0     H 8994  11.634   9.000   6.598  1.2324  3.5509  1.1204
  790MOL0     H 8995  11.475   8.985   6.659 -0.2010 -0.9321 -0.5157
  790MOL0     H 8996  11.559   9.183   6.755 -0.7275  0.7825  0.7538
  790MOL0     H 8997  11.459   9.244   6.632 -2.3034 -1.7055  0.5525
  790MOL0     H 8998  11.640   9.309   6.506 -1.0709 -2.0045 -2.1027
  790MOL0     H 8999  11.745   9.190   6.562 -0.6476 -1.7915  1.0506
  790MOL0     H 9000  11.381   9.322   5.893  0.9037 -0.2634 -1.9279
  790MOL0     H 9001  11.420   9.269   5.663  0.1080 -0.2683 -0.1157
  790MOL0     H 9002  11.339   9.316   5.179 -2.8713 -0.6021  1.0647
  790MOL0     H 9003  11.303   9.200   4.958  0.3156 -2.6943 -2.8698
  790MOL0     H 9004   9.734   8.811   4.477  0.3093  1.4974  1.0558
  790MOL0     H 9005   9.573   8.645   4.524  0.6549 -0.4146 -0.3488
  790MOL0     H 9006   9.444   8.278   4.687  0.8819  0.9986  0.2834
  790MOL0     H 9007   9.347   8.066   4.735 -0.3332 -0.6577  0.9958
  790MOL0     H 9008   9.138   8.020   5.152 -2.7629  0.0728  1.0823
  790MOL0     H 9009   9.024   7.981   5.026 -0.3803 -1.8484  1.6463
  790MOL0     H 9010   9.110   7.745   4.991 -1.7805  2.5123 -1.9479
  790MOL0     H 9011   9.046   7.783   5.143  0.1493  3.1966  0.9407
  790MOL0     H 9012   9.265   7.654   5.127  3.4546 -0.8259  0.2536
  790MOL0     H 9013   9.339   7.798   5.073  0.0586 -2.8520 -0.5921
  790MOL0     H 9014   9.229   7.744   5.350  0.6523 -2.0914 -2.1226
  790MOL0     H 9015   9.241   7.909   5.306 -2.7677 -1.0889 -0.4446
  790MOL0     H 9016   9.699   7.799   5.468  0.5822  0.0896 -1.0350
  790MOL0     H 9017   9.207   8.234   5.118  4.3404 -1.2659  3.2134
  790MOL0     H 9018   9.237   8.439   5.169  0.8355 -2.4350 -0.0898
  790MOL0     H 9019   9.395   8.503   5.130  0.6440 -1.0524 -2.7962
  790MOL0     H 9020   9.259   8.551   5.035  1.1139  1.2482 -1.4609
  791MOL0     O 9021  10.486   9.930   2.798 -0.5011  0.2556 -0.0566
  791MOL0     C 9022  10.540   9.967   2.694  0.0339 -0.1968  0.0165
  791MOL0     O 9023  10.475   9.968   2.566  0.3999  0.0347 -0.3160
  791MOL0     C 9024  10.355   9.912   2.551  0.2759  0.2243 -0.1426
  791MOL0     C 9025  10.333   9.829   2.442 -0.9389  0.4522 -0.0851
  791MOL0     C 9026  10.207   9.795   2.398  0.2390  0.3777  0.1971
  791MOL0     C 9027  10.089   9.840   2.467  0.1264 -0.0225  0.6738
  791MOL0     O 9028   9.973   9.813   2.398  0.3828 -0.4502 -0.0370
  791MOL0     C 9029   9.856   9.863   2.453 -0.1581 -0.6194 -0.0164
  791MOL0     C 9030   9.731   9.786   2.391 -0.1506  0.1314  0.6815
  791MOL0     C 9031   9.599   9.819   2.455 -0.3091  0.1852  0.4626
  791MOL0     C 9032   9.499   9.866   2.352  0.3589 -0.7420  0.1518
  791MOL0     C 9033   9.376   9.928   2.431  0.6251  0.4401 -0.1783
  791MOL0     C 9034   9.286   9.986   2.331  0.5712  0.7328 -0.5453
  791MOL0     C 9035   9.170  10.063   2.389  0.5712 -0.9365  0.2704
  791MOL0     C 9036   9.073  10.115   2.277  0.3723 -0.4482 -0.1180
  791MOL0     N 9037   8.993  10.228   2.325  0.3873  0.0163 -0.1637
  791MOL0     C 9038   8.886  10.225   2.412 -0.3259  0.0007 -0.3075
  791MOL0     C 9039   8.848  10.355   2.433 -0.6953  0.8416 -0.7048
  791MOL0     C 9040   8.722  10.422   2.490 -0.7191 -0.0766  0.6789
  791MOL0     C 9041   8.720  10.573   2.480  0.6515 -0.5300 -0.1270
  791MOL0     C 9042   8.574  10.608   2.523  0.6791  0.0355  0.0164
  791MOL0     C 9043   8.566  10.765   2.520 -0.0197  0.1118  0.4041
  791MOL0     O 9044   8.650  10.793   2.630 -0.6374  0.2216 -0.0299
  791MOL0     C 9045   8.743  10.894   2.636 -0.0755 -0.9360 -0.3727
  791MOL0     C 9046   8.746  10.999   2.545 -0.2632  0.4470 -0.1174
  791MOL0     C 9047   8.818  11.120   2.577 -0.4409  0.4070 -0.1870
  791MOL0     C 9048   8.821  11.221   2.472  0.8560 -0.3082  0.0357
  791MOL0     C 9049   8.904  11.129   2.696  0.7949  0.4153 -0.1660
  791MOL0     C 9050   8.980  11.254   2.736  0.5931  0.3782 -0.0234
  791MOL0     O 9051   9.035  11.262   2.863  1.0419 -0.1964  0.4619
  791MOL0     C 9052   9.096  11.384   2.898 -0.1277  0.6916 -0.4970
  791MOL0     C 9053   9.031  11.504   2.919  0.0009 -0.4809 -0.3155
  791MOL0     C 9054   9.107  11.618   2.945 -0.2242  0.8537 -0.2887
  791MOL0     C 9055   9.247  11.619   2.952  0.0208 -0.6269 -0.3843
  791MOL0     O 9056   9.319  11.727   2.984  0.9857 -0.0597 -0.6665
  791MOL0     C 9057   9.295  11.850   2.927  0.7610  0.1460  0.2028
  791MOL0     C 9058   9.401  11.870   2.817 -0.0770 -0.6533  0.1485
  791MOL0     C 9059   9.546  11.852   2.873  0.6932  0.1711  0.2468
  791MOL0     C 9060   9.630  11.975   2.838  0.3178  0.3361  0.3179
  791MOL0     C 9061   9.766  11.955   2.883 -0.0190  0.2489  0.4357
  791MOL0     C 9062   9.857  11.867   2.791  0.4459 -0.3681  0.3337
  791MOL0     C 9063   9.999  11.872   2.830 -0.2832 -0.5616 -0.0088
  791MOL0     C 9064  10.028  11.847   2.977 -1.1412 -0.0381 -0.2534
  791MOL0    Cl 9065  10.197  11.893   3.017  0.0349 -0.5631  0.3383
  791MOL0     C 9066   9.312  11.492   2.942  0.0258  0.5396 -0.8366
  791MOL0     C 9067   9.235  11.375   2.924  0.2346 -0.4243  0.7159
  791MOL0     O 9068   8.982  11.344   2.659  0.2128 -0.7015 -0.1164
  791MOL0     C 9069   8.906  11.005   2.766  0.1811  0.7599  0.2048
  791MOL0     C 9070   8.822  10.891   2.747  0.3202 -0.0602  0.5164
  791MOL0     N 9071   8.942  10.437   2.381  0.3988 -0.1732 -0.0019
  791MOL0     N 9072   9.019  10.362   2.315 -0.0955  0.1044 -0.0939
  791MOL0     C 9073  10.108   9.939   2.561  0.8769  0.0323 -0.0500
  791MOL0     C 9074  10.236   9.970   2.611 -0.6373  0.0575 -0.6851
  791MOL0     C 9075  10.675  10.037   2.703  0.5820  0.2432  0.6324
  791MOL0     C 9076  10.741  10.070   2.584  0.5034  0.1786 -0.8287
  791MOL0     C 9077  10.869  10.121   2.582  0.1768  1.0499  0.2316
  791MOL0     C 9078  10.930  10.149   2.702  0.0967  0.1636  0.6291
  791MOL0     O 9079  11.050  10.218   2.729  0.0294  0.1909  0.6699
  791MOL0     C 9080  11.115  10.289   2.614 -1.0941 -0.3440 -0.2349
  791MOL0     C 9081  11.225  10.186   2.590 -0.1561 -0.4924  0.1085
  791MOL0     C 9082  11.325  10.182   2.719  0.3356 -0.2356 -0.7416
  791MOL0     C 9083  11.470  10.159   2.669 -0.8046 -0.0287  0.2598
  791MOL0     C 9084  11.544  10.289   2.633  1.0532 -0.4095 -0.2751
  791MOL0     C 9085  11.616  10.379   2.599  0.0671 -0.4468  0.3534
  791MOL0     C 9086  10.874  10.113   2.819 -0.4436  0.3325 -0.4514
  791MOL0     C 9087  10.739  10.073   2.822  0.7734 -1.1278  0.3537
  791MOL0     C 9088  10.658  10.089   2.951 -0.9857  0.1136 -0.0912
  791MOL0     H 9089  10.419   9.783   2.397 -0.9603 -0.1780  0.5018
  791MOL0     H 9090  10.199   9.725   2.315 -1.1038  1.0011 -0.2338
  791MOL0     H 9091   9.846   9.969   2.427  0.0926 -1.2475 -3.0893
  791MOL0     H 9092   9.846   9.844   2.560 -0.8117 -1.3086 -0.1844
  791MOL0     H 9093   9.729   9.792   2.282  1.7692 -1.1125  0.5347
  791MOL0     H 9094   9.754   9.680   2.406  0.7578 -0.0054 -1.3606
  791MOL0     H 9095   9.554   9.729   2.499  1.0723  0.0571  1.6971
  791MOL0     H 9096   9.625   9.879   2.542 -1.1567  1.4467 -0.1246
  791MOL0     H 9097   9.546   9.940   2.287 -0.2521  0.9373  1.5598
  791MOL0     H 9098   9.460   9.781   2.294  1.0775 -0.6407 -0.4878
  791MOL0     H 9099   9.409  10.016   2.488 -1.4692  0.6243  0.8541
  791MOL0     H 9100   9.319   9.852   2.486 -1.8718  0.4502 -2.5371
  791MOL0     H 9101   9.348  10.056   2.273  1.1460  1.1383  0.5125
  791MOL0     H 9102   9.248   9.906   2.268 -1.5464 -0.7618  2.4295
  791MOL0     H 9103   9.205  10.156   2.435 -0.2099 -1.0788  1.1725
  791MOL0     H 9104   9.117  10.003   2.463 -1.5234  0.2752 -0.1866
  791MOL0     H 9105   9.138  10.171   2.209  0.0626  1.8056  1.3203
  791MOL0     H 9106   9.012  10.031   2.245  2.3058 -1.1866 -2.1049
  791MOL0     H 9107   8.840  10.134   2.450  1.1911  0.0652  1.8880
  791MOL0     H 9108   8.726  10.398   2.596  2.5958 -0.7558  0.5298
  791MOL0     H 9109   8.632  10.376   2.449  0.4553 -1.6535 -0.2760
  791MOL0     H 9110   8.796  10.622   2.542 -0.6376  3.2000 -1.1842
  791MOL0     H 9111   8.738  10.604   2.377  0.0586  0.0926 -0.0511
  791MOL0     H 9112   8.501  10.574   2.449 -2.5289  0.0555  2.9324
  791MOL0     H 9113   8.545  10.583   2.625 -1.0362  5.6421  1.2387
  791MOL0     H 9114   8.598  10.807   2.424  1.3552 -1.5396  0.0757
  791MOL0     H 9115   8.464  10.800   2.536  0.1416  0.0135  1.7448
  791MOL0     H 9116   8.682  10.998   2.457 -1.0411  1.9399  0.3965
  791MOL0     H 9117   8.771  11.316   2.494  0.0884 -1.2765  3.0568
  791MOL0     H 9118   8.774  11.187   2.379 -2.9887  0.8404  1.3800
  791MOL0     H 9119   8.924  11.244   2.443  1.1600 -0.7281  0.7508
  791MOL0     H 9120   8.923  11.516   2.919 -0.0449  1.3930  4.3889
  791MOL0     H 9121   9.046  11.707   2.962 -0.9063  0.5060 -0.8396
  791MOL0     H 9122   9.194  11.831   2.889  0.5319  0.5983  0.5717
  791MOL0     H 9123   9.296  11.930   3.001  0.5794 -1.2646  1.8053
  791MOL0     H 9124   9.376  11.802   2.735  1.5567 -2.7185  1.2571
  791MOL0     H 9125   9.388  11.971   2.778  1.2143 -0.2190  0.7803
  791MOL0     H 9126   9.596  11.766   2.826  0.7900  0.5878 -0.4234
  791MOL0     H 9127   9.534  11.841   2.981 -0.1501  0.7072  0.2153
  791MOL0     H 9128   9.600  12.065   2.892  1.8017  0.9394  0.1755
  791MOL0     H 9129   9.626  11.997   2.731  1.5936 -1.6416 -0.2030
  791MOL0     H 9130   9.823  12.048   2.882  1.3103 -0.5360  0.1630
  791MOL0     H 9131   9.752  11.911   2.983 -0.2111  0.2763  0.4210
  791MOL0     H 9132   9.859  11.899   2.687  0.7633 -0.6747  0.2418
  791MOL0     H 9133   9.817  11.765   2.791 -4.0962  1.2346  0.5904
  791MOL0     H 9134  10.036  11.974   2.815 -0.7492 -0.1615  1.3948
  791MOL0     H 9135  10.053  11.801   2.766 -0.0775 -1.2882  0.9542
  791MOL0     H 9136  10.016  11.741   3.000  2.4042 -0.4876  0.1372
  791MOL0     H 9137   9.971  11.900   3.054 -0.4809 -1.2240  1.1029
  791MOL0     H 9138   9.417  11.487   2.968  0.0005  1.4488 -0.5298
  791MOL0     H 9139   9.271  11.273   2.921 -3.6309 -1.9573  1.0794
  791MOL0     H 9140   8.968  10.996   2.854 -1.1352 -1.3115  0.9785
  791MOL0     H 9141   8.820  10.800   2.807  0.0950  0.3254  1.1035
  791MOL0     H 9142  10.016   9.977   2.605  0.4965 -0.3719 -0.4873
  791MOL0     H 9143  10.253  10.026   2.702  4.0725 -0.9857 -0.6595
  791MOL0     H 9144  10.696  10.061   2.486  0.1084  0.8518 -0.7129
  791MOL0     H 9145  10.901  10.160   2.486 -0.8446 -0.6839 -0.8661
  791MOL0     H 9146  11.058  10.311   2.524 -3.1627  1.3585  1.3901
  791MOL0     H 9147  11.155  10.386   2.642 -0.3611  0.0542 -2.4686
  791MOL0     H 9148  11.287  10.198   2.500  0.4702  0.2992  0.6274
  791MOL0     H 9149  11.171  10.092   2.575  0.5028 -0.7319 -0.8306
  791MOL0     H 9150  11.331  10.283   2.761  0.2480 -0.4704 -0.1506
  791MOL0     H 9151  11.296  10.106   2.792 -1.4356  3.4261  2.7660
  791MOL0     H 9152  11.481  10.086   2.587 -2.3153 -0.6817  0.6075
  791MOL0     H 9153  11.515  10.110   2.756 -4.0069  1.4203  2.9526
  791MOL0     H 9154  11.675  10.460   2.562  0.1437  0.3883  2.2242
  791MOL0     H 9155  10.925  10.138   2.912  3.7051  1.5799 -2.8141
  791MOL0     H 9156  10.691  10.177   3.008 -2.4208  0.2251  0.6067
  791MOL0     H 9157  10.553  10.111   2.936 -0.0346  2.3021 -5.8033
  791MOL0     H 9158  10.669  10.000   3.013 -2.3304 -0.6319 -0.8880
  792MOL0     O 9159   7.380   2.350  10.420 -0.1936 -0.3100 -0.1646
  792MOL0     C 9160   7.354   2.463  10.374  0.5542  0.1467 -0.5205
  792MOL0     O 9161   7.322   2.569  10.446  0.6103  0.4789  0.0852
  792MOL0     C 9162   7.322   2.548  10.580 -0.3816 -0.0264  0.8549
  792MOL0     C 9163   7.223   2.466  10.648 -0.7815  0.0650  0.8280
  792MOL0     C 9164   7.246   2.431  10.774  0.1111  0.2932  0.3443
  792MOL0     C 9165   7.358   2.477  10.844  0.2155  0.4958  0.5802
  792MOL0     O 9166   7.374   2.418  10.970 -0.5513 -0.2317 -0.5617
  792MOL0     C 9167   7.490   2.343  10.996  0.5578 -0.6230  0.5177
  792MOL0     C 9168   7.467   2.250  11.124 -0.6072 -0.4097 -0.4473
  792MOL0     C 9169   7.346   2.172  11.119  0.2666 -0.6788 -1.2853
  792MOL0     C 9170   7.324   2.117  11.260  0.4823  0.5717 -0.0417
  792MOL0     C 9171   7.265   1.981  11.252 -0.2048 -0.1658 -0.0244
  792MOL0     C 9172   7.251   1.908  11.379 -0.2205 -0.8471  0.5399
  792MOL0     C 9173   7.203   1.776  11.349  0.0759 -0.6656 -0.1140
  792MOL0     C 9174   7.320   1.669  11.348  0.2758  0.3798  0.2688
  792MOL0     N 9175   7.258   1.534  11.303  0.3189  0.0934 -0.4966
  792MOL0     C 9176   7.245   1.402  11.372  0.1816 -1.2476  0.0558
  792MOL0     C 9177   7.199   1.320  11.279 -0.0203  0.8645  0.5194
  792MOL0     C 9178   7.169   1.169  11.303 -0.9070 -0.4951  0.4350
  792MOL0     C 9179   7.022   1.164  11.352 -0.1309 -0.4513  0.1605
  792MOL0     C 9180   6.978   1.033  11.411  0.2517  0.0119 -0.0771
  792MOL0     C 9181   6.991   0.912  11.307  0.1251 -1.1707 -0.5726
  792MOL0     O 9182   6.877   0.903  11.219  0.6157  0.4596  0.0622
  792MOL0     C 9183   6.876   0.793  11.130  0.4132 -0.0607  0.5594
  792MOL0     C 9184   6.968   0.683  11.122  0.2550  0.2228  0.4999
  792MOL0     C 9185   6.962   0.586  11.018 -0.3764  0.0996  0.1252
  792MOL0     C 9186   7.063   0.470  11.028  0.6916 -0.1345  0.2149
  792MOL0     C 9187   6.856   0.595  10.930 -0.7168  0.3059 -0.3348
  792MOL0     C 9188   6.835   0.487  10.824 -0.9729  0.6714 -0.1634
  792MOL0     O 9189   6.921   0.486  10.717  0.4316  0.7979 -0.1922
  792MOL0     C 9190   6.933   0.379  10.638 -0.9181 -0.6108 -0.0561
  792MOL0     C 9191   6.981   0.391  10.507 -0.0453  0.4043 -0.5022
  792MOL0     C 9192   7.019   0.279  10.431 -0.0193 -0.4248 -0.1267
  792MOL0     C 9193   6.988   0.154  10.473 -0.6468 -0.1803  0.6199
  792MOL0     O 9194   7.010   0.049  10.383  0.5306 -0.0809 -0.0465
  792MOL0     C 9195   6.898  -0.032  10.360 -0.3103 -0.4639  0.0026
  792MOL0     C 9196   6.927  -0.113  10.236 -0.2844  0.2042 -0.1745
  792MOL0     C 9197   7.015  -0.048  10.126 -0.2985  0.2859 -0.7532
  792MOL0     C 9198   7.042  -0.128  10.008 -0.9692 -0.6493  0.6304
  792MOL0     C 9199   7.142  -0.062   9.909  0.1181  0.1761 -0.3305
  792MOL0     C 9200   7.069   0.044   9.813 -0.4823 -0.2584 -1.3086
  792MOL0     C 9201   7.165   0.099   9.701  0.5750 -0.0098  1.5373
  792MOL0     C 9202   7.263   0.205   9.765 -1.2144  0.7208 -0.0965
  792MOL0    Cl 9203   7.386   0.249   9.638  0.2423 -0.2760  0.1906
  792MOL0     C 9204   6.936   0.136  10.594 -1.0602 -0.1702 -1.4786
  792MOL0     C 9205   6.914   0.248  10.679  0.3053 -0.0583  0.5505
  792MOL0     O 9206   6.745   0.406  10.844  0.4923 -0.3907  0.5470
  792MOL0     C 9207   6.771   0.704  10.933 -1.1363  0.1336 -0.4055
  792MOL0     C 9208   6.778   0.801  11.028  0.1036  0.7076  0.0241
  792MOL0     N 9209   7.196   1.391  11.156  0.1391  0.8333 -0.7630
  792MOL0     N 9210   7.231   1.517  11.172 -0.4808 -0.4225  0.5121
  792MOL0     C 9211   7.446   2.568  10.787  0.6891 -0.0015 -0.3352
  792MOL0     C 9212   7.426   2.607  10.654 -0.0537 -1.0431 -0.1373
  792MOL0     C 9213   7.325   2.481  10.227 -0.6666  0.4700  1.0964
  792MOL0     C 9214   7.247   2.592  10.172  0.0976  0.4366  0.3845
  792MOL0     C 9215   7.219   2.614  10.032 -0.3368  0.4874 -0.1576
  792MOL0     C 9216   7.262   2.526   9.936 -0.3626  0.4091 -0.2657
  792MOL0     O 9217   7.228   2.516   9.807  0.2313 -0.7376  0.4214
  792MOL0     C 9218   7.129   2.620   9.764 -0.2055  0.1752 -0.5440
  792MOL0     C 9219   7.093   2.596   9.618 -0.1014 -0.1352 -0.1121
  792MOL0     C 9220   7.039   2.720   9.542  0.1817  0.6595  0.0332
  792MOL0     C 9221   6.996   2.687   9.399 -0.1671 -0.2516 -0.4780
  792MOL0     C 9222   7.100   2.699   9.294 -0.4474 -0.0324 -0.6009
  792MOL0     C 9223   7.170   2.740   9.197 -0.1718  0.1364 -0.3068
  792MOL0     C 9224   7.341   2.418   9.980 -1.2442  0.9415  0.7684
  792MOL0     C 9225   7.376   2.400  10.119 -0.2150  0.2729  0.7435
  792MOL0     C 9226   7.479   2.288  10.136  0.3744 -0.7589 -1.0454
  792MOL0     H 9227   7.152   2.417  10.582 -1.6398 -0.1497  1.8862
  792MOL0     H 9228   7.183   2.356  10.820  2.9366 -0.2977  3.7696
  792MOL0     H 9229   7.572   2.413  11.015 -0.2251  0.7522 -0.9001
  792MOL0     H 9230   7.509   2.278  10.910 -0.5866 -2.7666  1.7880
  792MOL0     H 9231   7.555   2.187  11.138 -0.1116  0.2054 -0.7418
  792MOL0     H 9232   7.464   2.318  11.210 -0.7975  1.6151 -1.9533
  792MOL0     H 9233   7.269   2.240  11.083 -0.5835 -1.1166 -0.3519
  792MOL0     H 9234   7.360   2.106  11.032  3.4208  0.5379 -1.8523
  792MOL0     H 9235   7.415   2.106  11.320  2.1251 -2.9815 -2.8068
  792MOL0     H 9236   7.261   2.174  11.329 -0.0987  0.9722 -0.8890
  792MOL0     H 9237   7.339   1.927  11.192  0.1621  1.6095 -1.2495
  792MOL0     H 9238   7.171   1.992  11.197 -1.7448  2.6674  2.8714
  792MOL0     H 9239   7.345   1.898  11.434  0.2508 -0.9278 -0.2645
  792MOL0     H 9240   7.188   1.970  11.442  0.2118 -1.5860  1.7393
  792MOL0     H 9241   7.150   1.777  11.253  1.4580  1.3033 -0.9313
  792MOL0     H 9242   7.142   1.737  11.431  2.8491  0.9746  2.9669
  792MOL0     H 9243   7.391   1.694  11.269  2.5616  1.1344  2.4608
  792MOL0     H 9244   7.360   1.659  11.449  3.3177 -3.6869 -1.0993
  792MOL0     H 9245   7.264   1.396  11.479 -0.2879  1.7331  0.3988
  792MOL0     H 9246   7.237   1.128  11.378  1.8937  2.5212 -0.2136
  792MOL0     H 9247   7.182   1.107  11.214  2.0071  0.2882  0.1969
  792MOL0     H 9248   7.011   1.250  11.419  0.0590  0.2052 -0.6292
  792MOL0     H 9249   6.966   1.201  11.266 -0.4105 -0.3421  0.3877
  792MOL0     H 9250   7.026   1.014  11.507  2.0526  1.1053 -0.6900
  792MOL0     H 9251   6.873   1.051  11.435  0.4714  4.1838 -1.3053
  792MOL0     H 9252   7.085   0.922  11.254  0.2917  2.5453  0.1509
  792MOL0     H 9253   7.001   0.814  11.356  2.9812 -0.1220  1.1610
  792MOL0     H 9254   7.049   0.691  11.194 -0.0521  4.5424  0.6292
  792MOL0     H 9255   7.108   0.477  10.929 -0.6842  3.2473 -0.3229
  792MOL0     H 9256   7.005   0.378  11.041 -1.0823  1.0500  1.1425
  792MOL0     H 9257   7.135   0.478  11.109  1.0352 -1.3736  0.0533
  792MOL0     H 9258   6.983   0.490  10.465 -0.7194 -0.0526 -1.6489
  792MOL0     H 9259   7.059   0.292  10.331 -2.0035 -3.2950 -1.4250
  792MOL0     H 9260   6.890  -0.099  10.446  1.8930  1.7752  2.0727
  792MOL0     H 9261   6.799   0.012  10.349  0.0218  0.4346  0.5839
  792MOL0     H 9262   6.990  -0.195  10.271 -0.4398  0.4797  0.7691
  792MOL0     H 9263   6.834  -0.147  10.189  1.1384 -3.2623 -0.7434
  792MOL0     H 9264   7.117  -0.032  10.161  0.3249 -0.1823 -2.2560
  792MOL0     H 9265   6.975   0.046  10.088  1.2502  0.1602 -2.9230
  792MOL0     H 9266   6.951  -0.138   9.948 -0.5063 -0.3568 -0.1337
  792MOL0     H 9267   7.070  -0.228  10.041 -1.1807 -1.2344 -0.9185
  792MOL0     H 9268   7.232  -0.020   9.955 -1.4704  2.1740  1.1400
  792MOL0     H 9269   7.183  -0.145   9.851  1.5178  1.6674 -1.5726
  792MOL0     H 9270   7.041   0.130   9.874 -0.6699 -0.7719 -0.6503
  792MOL0     H 9271   6.977  -0.007   9.781 -1.9375  0.2322  1.7681
  792MOL0     H 9272   7.101   0.146   9.626 -2.1808  1.3758  4.5192
  792MOL0     H 9273   7.207   0.008   9.656 -0.6876  0.7413 -1.4042
  792MOL0     H 9274   7.313   0.153   9.847 -3.2021  0.7722  1.2331
  792MOL0     H 9275   7.209   0.296   9.795 -0.7484  0.0410  3.2017
  792MOL0     H 9276   6.916   0.036  10.630 -1.5932 -0.2792 -2.0641
  792MOL0     H 9277   6.893   0.213  10.779  1.9430 -1.2748  0.5036
  792MOL0     H 9278   6.687   0.718  10.866 -0.2517 -1.6694 -1.9955
  792MOL0     H 9279   6.697   0.873  11.032 -2.3983 -1.7549 -1.9011
  792MOL0     H 9280   7.535   2.596  10.842 -0.1100  1.9670  0.0553
  792MOL0     H 9281   7.493   2.672  10.600 -2.0654  0.6182 -0.7710
  792MOL0     H 9282   7.201   2.655  10.248  2.7766  0.3647  2.2023
  792MOL0     H 9283   7.156   2.702  10.035 -3.1377 -1.4205  0.6023
  792MOL0     H 9284   7.029   2.613   9.810  1.3917  1.1902  3.5656
  792MOL0     H 9285   7.158   2.725   9.778  1.5131 -0.4324  0.8741
  792MOL0     H 9286   7.025   2.511   9.623 -2.0620  1.4011  1.2673
  792MOL0     H 9287   7.185   2.575   9.563 -1.3648  1.1829 -2.9479
  792MOL0     H 9288   6.946   2.753   9.589 -2.0714 -0.0086 -3.5125
  792MOL0     H 9289   7.107   2.805   9.538  1.4553 -0.3224  0.1546
  792MOL0     H 9290   6.912   2.753   9.375  1.4467  2.1783  0.1723
  792MOL0     H 9291   6.955   2.585   9.398  1.4478 -0.9540  0.6579
  792MOL0     H 9292   7.224   2.752   9.106  1.1600  1.7917  0.6408
  792MOL0     H 9293   7.366   2.342   9.906 -0.7631  0.1947  1.6691
  792MOL0     H 9294   7.508   2.241  10.042  1.0412 -0.9241 -0.7650
  792MOL0     H 9295   7.574   2.315  10.184 -0.5542 -1.3260  1.2773
  792MOL0     H 9296   7.439   2.216  10.208  2.4352  1.5227  2.7641
  793MOL0     O 9297  10.529   7.168   5.219  0.3341 -0.0786 -0.2029
  793MOL0     C 9298  10.546   7.087   5.124 -0.5819 -0.2567 -0.9865
  793MOL0     O 9299  10.645   7.098   5.027  0.7713  0.0176 -0.4715
  793MOL0     C 9300  10.739   7.200   5.025  0.1565 -0.1472  0.4856
  793MOL0     C 9301  10.765   7.313   5.114 -0.0200  1.5043  0.4256
  793MOL0     C 9302  10.868   7.406   5.084 -0.0830  0.1593 -0.3107
  793MOL0     C 9303  10.934   7.398   4.957  0.9740  0.2108  0.8242
  793MOL0     O 9304  11.024   7.497   4.931  0.4607 -0.9403  0.1858
  793MOL0     C 9305  11.003   7.573   4.815  0.5605 -0.5633  0.1042
  793MOL0     C 9306  11.079   7.705   4.805  0.2525 -0.2987  0.0269
  793MOL0     C 9307  11.059   7.792   4.684 -0.1803 -0.6821 -0.2557
  793MOL0     C 9308  11.125   7.933   4.703 -0.1868  0.5019  0.9546
  793MOL0     C 9309  11.127   8.024   4.573 -0.0778 -0.1557  0.3102
  793MOL0     C 9310  10.988   8.074   4.544  0.6305  0.2836 -1.0643
  793MOL0     C 9311  10.980   8.204   4.462 -0.0747 -0.0216 -0.0081
  793MOL0     C 9312  10.840   8.261   4.441  0.5942 -0.2250  0.5614
  793MOL0     N 9313  10.727   8.178   4.391 -0.2938  0.7165 -0.6008
  793MOL0     C 9314  10.723   8.139   4.255 -0.0658  0.5859  0.0356
  793MOL0     C 9315  10.609   8.070   4.255  0.2424 -0.8231 -0.4869
  793MOL0     C 9316  10.564   7.975   4.134 -0.2110 -0.3810  0.4604
  793MOL0     C 9317  10.530   7.830   4.167  0.0536  0.7952  0.3842
  793MOL0     C 9318  10.494   7.749   4.038  0.0401  0.5531  0.6499
  793MOL0     C 9319  10.542   7.603   4.044 -0.4554 -0.4131  0.1460
  793MOL0     O 9320  10.535   7.548   4.185 -0.6207  0.0471  0.5822
  793MOL0     C 9321  10.431   7.449   4.219 -0.3313 -0.7886  0.2366
  793MOL0     C 9322  10.354   7.368   4.132 -0.5809 -0.8157  0.5061
  793MOL0     C 9323  10.269   7.270   4.169  0.0117 -0.6297  0.5183
  793MOL0     C 9324  10.233   7.172   4.058 -0.2799  0.8469  0.3998
  793MOL0     C 9325  10.244   7.260   4.309  0.4229 -0.1703  0.1379
  793MOL0     C 9326  10.144   7.163   4.366  0.6837 -0.2834  0.6502
  793MOL0     O 9327  10.142   7.139   4.503  0.0030  0.3034 -0.5797
  793MOL0     C 9328  10.016   7.129   4.567 -0.1814 -0.0389 -0.2277
  793MOL0     C 9329   9.999   7.026   4.668 -0.1637  0.0463  0.7329
  793MOL0     C 9330   9.883   7.016   4.737  0.3037  0.3569 -0.2562
  793MOL0     C 9331   9.773   7.085   4.701  0.4855  0.7557 -0.8734
  793MOL0     O 9332   9.656   7.068   4.767  0.0662 -0.1752  0.5044
  793MOL0     C 9333   9.578   6.949   4.743 -0.3887 -0.3720 -0.3192
  793MOL0     C 9334   9.466   6.922   4.839 -0.0505 -0.7741  0.2468
  793MOL0     C 9335   9.325   6.943   4.786  0.5349  0.7477 -0.5098
  793MOL0     C 9336   9.225   6.897   4.893 -0.2349 -0.3883  0.4678
  793MOL0     C 9337   9.082   6.931   4.843 -0.5941  0.3126 -0.2578
  793MOL0     C 9338   8.960   6.893   4.927 -0.1035  0.8371 -0.3333
  793MOL0     C 9339   8.839   6.911   4.839  0.0412  0.1499 -0.6320
  793MOL0     C 9340   8.707   6.932   4.905 -0.1593  0.3847 -0.1441
  793MOL0    Cl 9341   8.725   7.089   4.996 -0.0198 -0.1736  0.2805
  793MOL0     C 9342   9.781   7.176   4.593  0.0004 -0.8248 -0.2225
  793MOL0     C 9343   9.908   7.208   4.537  0.1109  0.1553 -0.3621
  793MOL0     O 9344  10.058   7.128   4.291  0.7959  0.6723  0.0303
  793MOL0     C 9345  10.317   7.340   4.395  0.5025  0.8122  0.0763
  793MOL0     C 9346  10.407   7.439   4.355  0.7937  0.9534 -0.5395
  793MOL0     N 9347  10.537   8.074   4.379 -0.3415 -0.2130  0.1118
  793MOL0     N 9348  10.616   8.133   4.458 -0.7151 -0.1332  0.2149
  793MOL0     C 9349  10.905   7.292   4.871  0.4009  1.2116  0.6376
  793MOL0     C 9350  10.805   7.201   4.897  0.1846  0.6258 -0.6458
  793MOL0     C 9351  10.464   6.973   5.129 -0.3442 -0.8617 -0.6273
  793MOL0     C 9352  10.493   6.866   5.046  0.4601  0.8292  0.2130
  793MOL0     C 9353  10.413   6.755   5.033 -0.9072 -0.1912  0.3365
  793MOL0     C 9354  10.297   6.750   5.107 -0.3155  0.3199 -0.0212
  793MOL0     O 9355  10.208   6.643   5.093  0.5695 -0.4536  0.5618
  793MOL0     C 9356  10.204   6.544   4.993 -0.3508 -0.7636 -0.5332
  793MOL0     C 9357  10.166   6.606   4.850  1.5305 -1.0095 -0.4625
  793MOL0     C 9358  10.166   6.510   4.728 -0.0758 -0.0084 -0.7089
  793MOL0     C 9359  10.071   6.392   4.739  0.1038  0.7827 -0.0515
  793MOL0     C 9360  10.053   6.335   4.595  0.4801  0.2716 -0.6715
  793MOL0     C 9361  10.039   6.274   4.486  0.6308 -0.3542  0.6377
  793MOL0     C 9362  10.261   6.856   5.190 -0.1997 -0.2383  0.1082
  793MOL0     C 9363  10.337   6.972   5.199 -0.9174 -0.0342  0.7295
  793MOL0     C 9364  10.279   7.085   5.281  0.2245 -0.0704 -0.9289
  793MOL0     H 9365  10.708   7.316   5.206 -0.2166  0.2530  0.3626
  793MOL0     H 9366  10.909   7.465   5.166 -0.2944  1.5822 -1.2007
  793MOL0     H 9367  10.897   7.602   4.812  1.0076  1.4113 -4.1236
  793MOL0     H 9368  11.026   7.519   4.723  2.5603  2.7864 -1.5147
  793MOL0     H 9369  11.068   7.760   4.899 -0.9326 -1.2835  0.4911
  793MOL0     H 9370  11.181   7.666   4.800  0.6290  0.6819 -0.2613
  793MOL0     H 9371  11.097   7.739   4.596  0.0204 -2.3217  0.7628
  793MOL0     H 9372  10.953   7.815   4.668  0.0291  2.8046  2.2785
  793MOL0     H 9373  11.085   7.981   4.793 -1.6471  0.4538  0.3589
  793MOL0     H 9374  11.224   7.895   4.729  0.1945 -3.4456 -4.4566
  793MOL0     H 9375  11.169   7.971   4.486  0.0241  1.6740 -0.8062
  793MOL0     H 9376  11.184   8.116   4.587 -1.4696  1.2744 -2.4267
  793MOL0     H 9377  10.935   8.001   4.483 -5.3627  2.0715  1.2970
  793MOL0     H 9378  10.927   8.096   4.632 -0.3158 -1.7391 -1.1712
  793MOL0     H 9379  11.030   8.183   4.367  2.2669 -0.0987  1.1652
  793MOL0     H 9380  11.056   8.268   4.506  1.7092 -1.0449 -1.4653
  793MOL0     H 9381  10.818   8.314   4.534  0.6187  0.7566  0.0221
  793MOL0     H 9382  10.849   8.335   4.361 -2.0265  0.1438  0.5036
  793MOL0     H 9383  10.787   8.173   4.174  0.3496 -0.4462 -0.0878
  793MOL0     H 9384  10.640   7.976   4.055  0.2056 -2.5182  0.7775
  793MOL0     H 9385  10.475   8.019   4.088  1.0582  0.5687 -1.2285
  793MOL0     H 9386  10.624   7.794   4.209  0.9520  0.2449 -1.9466
  793MOL0     H 9387  10.454   7.829   4.246  0.8360  0.6698  1.1521
  793MOL0     H 9388  10.384   7.741   4.038  0.0812 -0.1153 -0.2411
  793MOL0     H 9389  10.536   7.798   3.950 -0.5718  3.1424  1.7011
  793MOL0     H 9390  10.484   7.555   3.964 -1.2183 -0.2090  0.5595
  793MOL0     H 9391  10.647   7.590   4.020 -1.0409 -1.8416 -1.9676
  793MOL0     H 9392  10.396   7.373   4.032 -0.6761  0.3909  0.5150
  793MOL0     H 9393  10.323   7.145   4.003 -0.4190 -0.5111  0.8172
  793MOL0     H 9394  10.149   7.206   3.997  0.0915 -1.4836 -1.5608
  793MOL0     H 9395  10.219   7.075   4.106  1.7207  0.1498 -0.3228
  793MOL0     H 9396  10.079   6.961   4.701  1.5082  2.0544  0.8180
  793MOL0     H 9397   9.891   6.951   4.823  0.1272  2.3534  1.3708
  793MOL0     H 9398   9.542   6.957   4.640 -1.6557 -2.9195 -0.1522
  793MOL0     H 9399   9.648   6.865   4.734  0.2529 -0.3644  3.2116
  793MOL0     H 9400   9.471   6.817   4.868 -1.5398 -0.6751  0.9641
  793MOL0     H 9401   9.482   6.990   4.924  3.8837  1.1280 -1.7252
  793MOL0     H 9402   9.319   6.890   4.690  2.4662 -0.4635 -0.0196
  793MOL0     H 9403   9.306   7.050   4.783 -1.8425  0.3621 -0.9201
  793MOL0     H 9404   9.238   6.959   4.982  3.4564 -1.4610  0.8304
  793MOL0     H 9405   9.230   6.791   4.920  2.7978  0.2842  3.1671
  793MOL0     H 9406   9.057   7.036   4.826 -1.6886 -0.0196 -0.8197
  793MOL0     H 9407   9.065   6.882   4.747  0.4089 -2.3790  0.8499
  793MOL0     H 9408   8.950   6.950   5.020 -1.5393  0.0223  0.0304
  793MOL0     H 9409   8.966   6.789   4.960  3.1315  1.1894  0.5546
  793MOL0     H 9410   8.824   6.821   4.777 -2.5272  0.3950 -0.4661
  793MOL0     H 9411   8.848   6.999   4.774 -0.6156  2.6241  2.4288
  793MOL0     H 9412   8.674   6.855   4.975 -0.7149  1.0349  0.3343
  793MOL0     H 9413   8.630   6.942   4.827  2.0612  1.2429 -2.3697
  793MOL0     H 9414   9.693   7.226   4.553  0.1479 -0.4891 -0.1378
  793MOL0     H 9415   9.913   7.288   4.464 -0.7588 -2.0473 -2.9985
  793MOL0     H 9416  10.303   7.329   4.502  0.2802 -2.1383 -0.1819
  793MOL0     H 9417  10.474   7.501   4.413  1.2016  4.6043 -4.3907
  793MOL0     H 9418  10.976   7.280   4.790  0.7253 -1.7409  1.2454
  793MOL0     H 9419  10.781   7.124   4.825 -0.6091 -0.6616  0.9221
  793MOL0     H 9420  10.568   6.857   4.968  0.7378 -1.9233  0.7121
  793MOL0     H 9421  10.439   6.686   4.955  2.0484 -0.8496  1.7810
  793MOL0     H 9422  10.293   6.480   4.994  0.5673  0.2800  3.6951
  793MOL0     H 9423  10.133   6.475   5.040  0.9952 -1.2402  0.8900
  793MOL0     H 9424  10.232   6.684   4.811  1.6304 -2.1436 -2.6878
  793MOL0     H 9425  10.067   6.651   4.862  2.0340  1.0833 -3.0828
  793MOL0     H 9426  10.141   6.569   4.639  2.2046 -0.0895 -1.4503
  793MOL0     H 9427  10.271   6.485   4.714  0.1189  0.1280  0.4783
  793MOL0     H 9428   9.979   6.442   4.772  1.2228  3.0524 -0.1671
  793MOL0     H 9429  10.114   6.315   4.803  0.5771  1.1864  0.1249
  793MOL0     H 9430  10.024   6.238   4.386 -0.7432  0.5116  0.5155
  793MOL0     H 9431  10.166   6.858   5.242  1.5032  0.1744  3.4959
  793MOL0     H 9432  10.183   7.054   5.321  0.6831 -0.6666 -0.2697
  793MOL0     H 9433  10.346   7.133   5.353  0.1302  2.0724 -2.1710
  793MOL0     H 9434  10.250   7.167   5.214 -1.0195  0.3196  0.0550
  794MOL0     O 9435   4.119   3.129   8.092  0.0487 -0.0895 -0.3715
  794MOL0     C 9436   4.163   3.238   8.053 -0.8599  0.0022 -0.5473
  794MOL0     O 9437   4.139   3.290   7.927 -0.9478 -0.6632 -1.1780
  794MOL0     C 9438   4.066   3.219   7.838 -0.1207 -0.5291 -0.4067
  794MOL0     C 9439   3.937   3.268   7.794 -0.5095 -0.7342 -0.6292
  794MOL0     C 9440   3.875   3.211   7.681 -0.5014 -0.0824  0.5202
  794MOL0     C 9441   3.934   3.095   7.628  0.4846 -0.8704 -0.2329
  794MOL0     O 9442   3.880   3.021   7.522 -0.0979 -0.2773 -0.4507
  794MOL0     C 9443   3.784   3.081   7.428 -0.3159  0.7555 -0.0492
  794MOL0     C 9444   3.634   3.056   7.476 -0.4847 -0.1041 -0.0012
  794MOL0     C 9445   3.542   3.080   7.359  0.6903  0.1629  0.5058
  794MOL0     C 9446   3.393   3.042   7.397 -0.4482 -0.3759  0.6053
  794MOL0     C 9447   3.299   3.069   7.285 -0.0972 -0.2544  0.3105
  794MOL0     C 9448   3.173   2.996   7.280  0.9544 -0.3543 -0.9491
  794MOL0     C 9449   3.106   3.006   7.145 -0.4618 -0.3164  0.2967
  794MOL0     C 9450   3.037   3.140   7.127  0.8491 -0.0767 -0.1027
  794MOL0     N 9451   2.986   3.140   6.986  0.4674 -0.1700 -0.5754
  794MOL0     C 9452   3.027   3.225   6.887 -0.0928 -0.3267 -0.8609
  794MOL0     C 9453   2.943   3.197   6.780  0.6112  0.7414  0.0494
  794MOL0     C 9454   2.937   3.247   6.643  0.0209  0.1951 -0.6260
  794MOL0     C 9455   3.084   3.256   6.595  0.6792 -0.5045 -0.5930
  794MOL0     C 9456   3.144   3.391   6.609 -0.3946 -0.1464 -0.6475
  794MOL0     C 9457   3.286   3.386   6.548 -0.1392 -0.4607 -0.0648
  794MOL0     O 9458   3.342   3.515   6.543 -0.1142  0.6635  0.4146
  794MOL0     C 9459   3.473   3.524   6.516 -0.5242  0.4941  0.2838
  794MOL0     C 9460   3.537   3.634   6.563 -1.4537  0.5860  0.0981
  794MOL0     C 9461   3.677   3.643   6.554  0.0223 -0.8590 -0.0275
  794MOL0     C 9462   3.747   3.769   6.615 -0.2979 -0.7109  0.9321
  794MOL0     C 9463   3.754   3.540   6.496 -0.1085 -0.4349 -0.2182
  794MOL0     C 9464   3.904   3.529   6.513  0.4615 -0.6750 -0.5311
  794MOL0     O 9465   3.934   3.480   6.642  0.1445 -0.2878  0.1963
  794MOL0     C 9466   4.072   3.482   6.676  0.7990  0.9806  0.4067
  794MOL0     C 9467   4.163   3.384   6.652 -0.2516  0.0428 -1.0504
  794MOL0     C 9468   4.295   3.388   6.709 -0.4625  0.0353 -0.7608
  794MOL0     C 9469   4.334   3.508   6.788 -0.4249 -0.0655 -0.4942
  794MOL0     O 9470   4.449   3.500   6.876  0.4922  0.0642  0.3968
  794MOL0     C 9471   4.557   3.423   6.833 -0.8673  0.3822  0.1113
  794MOL0     C 9472   4.662   3.427   6.946 -0.9371  0.3524 -0.6489
  794MOL0     C 9473   4.623   3.325   7.036  0.3777  0.1552 -0.3141
  794MOL0     C 9474   4.722   3.301   7.154 -1.6281 -0.5751 -0.6276
  794MOL0     C 9475   4.696   3.201   7.271 -0.0650  0.4894  0.2774
  794MOL0     C 9476   4.688   3.054   7.233 -0.5426 -0.1305  0.0079
  794MOL0     C 9477   4.745   2.951   7.332 -0.3955 -0.1005  0.0542
  794MOL0     C 9478   4.670   2.945   7.462  0.1703 -0.0009 -0.0559
  794MOL0    Cl 9479   4.538   2.817   7.441 -0.1191  0.0789  0.0139
  794MOL0     C 9480   4.241   3.608   6.807 -0.2598  0.3993  1.1904
  794MOL0     C 9481   4.109   3.592   6.748 -0.5847 -0.8385  0.8811
  794MOL0     O 9482   3.979   3.557   6.424 -0.5657  0.2188  0.3744
  794MOL0     C 9483   3.693   3.430   6.442  0.7072  0.8971  0.1785
  794MOL0     C 9484   3.551   3.425   6.447 -0.2595 -0.6951 -0.3656
  794MOL0     N 9485   2.861   3.088   6.826 -0.3810  0.4055  0.6674
  794MOL0     N 9486   2.891   3.052   6.946 -0.2505 -0.6337 -0.6272
  794MOL0     C 9487   4.059   3.039   7.677 -0.2311 -0.3045  0.2417
  794MOL0     C 9488   4.128   3.105   7.776 -1.1810 -0.8150  0.3928
  794MOL0     C 9489   4.256   3.324   8.134  0.2670  0.9814 -0.6687
  794MOL0     C 9490   4.351   3.409   8.063 -0.7709  0.7970  0.1141
  794MOL0     C 9491   4.458   3.467   8.118  0.0107 -0.1511  0.1950
  794MOL0     C 9492   4.444   3.493   8.260 -0.3902  0.9629 -0.2209
  794MOL0     O 9493   4.543   3.560   8.323 -0.6417 -0.9561  0.6469
  794MOL0     C 9494   4.504   3.661   8.417  1.0797 -0.1232 -0.4099
  794MOL0     C 9495   4.459   3.786   8.338 -0.3101  0.7974  0.3353
  794MOL0     C 9496   4.509   3.918   8.396  0.4490 -0.5939  0.4759
  794MOL0     C 9497   4.428   3.950   8.522  0.4662  0.1480  0.0510
  794MOL0     C 9498   4.282   3.941   8.526 -0.2047  1.2936 -0.3281
  794MOL0     C 9499   4.168   3.922   8.527  0.7859  0.0629  0.5960
  794MOL0     C 9500   4.341   3.423   8.330 -0.0035 -0.1346 -0.2500
  794MOL0     C 9501   4.248   3.339   8.273 -0.1205  0.3481 -0.8755
  794MOL0     C 9502   4.144   3.274   8.361  0.4520 -0.8481 -0.1442
  794MOL0     H 9503   3.909   3.351   7.858  2.8739  0.3310 -0.3465
  794MOL0     H 9504   3.791   3.259   7.633 -2.3352 -2.9608  0.6095
  794MOL0     H 9505   3.801   3.021   7.338  2.1725 -0.3387  1.0456
  794MOL0     H 9506   3.806   3.185   7.401 -0.4346  0.2615 -2.1818
  794MOL0     H 9507   3.634   2.955   7.518 -0.5223 -0.3693 -0.6165
  794MOL0     H 9508   3.611   3.120   7.562  0.9625  0.8575 -0.2928
  794MOL0     H 9509   3.550   3.188   7.343 -0.1968  0.4642  1.9252
  794MOL0     H 9510   3.583   3.025   7.274 -1.2206  1.8059 -1.6496
  794MOL0     H 9511   3.398   2.937   7.425  1.9981 -0.5571 -0.3137
  794MOL0     H 9512   3.359   3.097   7.486 -0.5933  1.6598 -0.6402
  794MOL0     H 9513   3.349   3.039   7.193  2.3874  4.0581 -0.0532
  794MOL0     H 9514   3.274   3.175   7.278  2.1145  0.2212 -1.6223
  794MOL0     H 9515   3.194   2.895   7.317  1.7266  0.1653  0.1098
  794MOL0     H 9516   3.104   3.034   7.356  1.5485  3.1178 -1.9488
  794MOL0     H 9517   3.023   2.936   7.147 -0.6703 -0.0660  0.6393
  794MOL0     H 9518   3.170   2.976   7.062 -0.5460  0.1283  0.0697
  794MOL0     H 9519   2.954   3.153   7.197 -0.1527 -1.2268 -1.0225
  794MOL0     H 9520   3.098   3.229   7.139 -0.4414  0.7376  0.6274
  794MOL0     H 9521   3.099   3.306   6.898 -3.7260  3.5169 -2.8277
  794MOL0     H 9522   2.883   3.343   6.643 -0.2595  0.2158  3.8326
  794MOL0     H 9523   2.882   3.175   6.581  1.6506 -1.6257 -0.0229
  794MOL0     H 9524   3.144   3.187   6.656 -2.3391 -3.0298 -0.2320
  794MOL0     H 9525   3.078   3.225   6.491 -0.3371  0.0563 -0.7090
  794MOL0     H 9526   3.089   3.470   6.556  2.4357  1.1537 -1.8314
  794MOL0     H 9527   3.146   3.402   6.718  0.3815  2.1202 -0.8530
  794MOL0     H 9528   3.348   3.313   6.602  2.3177  1.1533 -0.5241
  794MOL0     H 9529   3.286   3.355   6.443  3.4017  1.0803 -0.6618
  794MOL0     H 9530   3.479   3.701   6.625 -1.6013  1.0259 -0.5038
  794MOL0     H 9531   3.697   3.795   6.709  1.6834  2.4906  1.2523
  794MOL0     H 9532   3.733   3.858   6.553 -1.2376 -0.3591  1.6134
  794MOL0     H 9533   3.855   3.764   6.629  0.6410  2.1555 -3.4288
  794MOL0     H 9534   4.129   3.289   6.614 -1.3257  0.1331 -0.3569
  794MOL0     H 9535   4.354   3.299   6.690  2.9052  1.3075  2.5289
  794MOL0     H 9536   4.541   3.318   6.806  0.3499  0.4265 -0.8494
  794MOL0     H 9537   4.593   3.480   6.747 -1.1569  0.5932  0.1303
  794MOL0     H 9538   4.758   3.396   6.903 -1.5652  0.1024 -1.9290
  794MOL0     H 9539   4.681   3.524   6.993  1.2369 -0.1074 -0.4360
  794MOL0     H 9540   4.596   3.230   6.989  0.4004 -1.6509  2.9705
  794MOL0     H 9541   4.534   3.366   7.085 -0.1998 -0.8357 -0.5049
  794MOL0     H 9542   4.747   3.396   7.202 -0.8590 -2.4385  3.0316
  794MOL0     H 9543   4.818   3.273   7.110 -0.5960  2.8554 -0.8636
  794MOL0     H 9544   4.771   3.208   7.351  2.0562  1.1322 -1.6531
  794MOL0     H 9545   4.599   3.231   7.311 -0.1484 -0.3955  0.7790
  794MOL0     H 9546   4.746   3.050   7.140  1.3799  1.9821  1.0140
  794MOL0     H 9547   4.583   3.030   7.213 -1.2026  2.9144 -0.7668
  794MOL0     H 9548   4.850   2.967   7.359 -1.0025 -1.4714  3.9571
  794MOL0     H 9549   4.753   2.852   7.286  3.7008 -0.9278  2.0575
  794MOL0     H 9550   4.640   3.044   7.500  0.0722 -0.8115  2.1166
  794MOL0     H 9551   4.739   2.915   7.541  2.0875 -0.1043 -1.6876
  794MOL0     H 9552   4.275   3.696   6.861  2.0552  0.9518 -0.9563
  794MOL0     H 9553   4.030   3.665   6.760 -0.0179  0.0377 -0.3898
  794MOL0     H 9554   3.754   3.359   6.387  2.2246  2.6628 -0.5508
  794MOL0     H 9555   3.509   3.344   6.387 -2.6623 -0.7988  1.3121
  794MOL0     H 9556   4.092   2.945   7.635 -0.2871 -0.2333  0.0390
  794MOL0     H 9557   4.230   3.074   7.798 -1.0514 -2.6773 -2.3265
  794MOL0     H 9558   4.358   3.403   7.955 -0.2506 -1.1026  0.2117
  794MOL0     H 9559   4.531   3.509   8.049 -2.8285  1.4350 -2.0608
  794MOL0     H 9560   4.423   3.628   8.483  1.1860 -0.6803 -0.5548
  794MOL0     H 9561   4.602   3.675   8.464  1.1356  2.5369 -1.1432
  794MOL0     H 9562   4.350   3.789   8.329 -0.3669  3.0645  1.3474
  794MOL0     H 9563   4.516   3.772   8.245 -1.4196 -2.8088  0.0551
  794MOL0     H 9564   4.611   3.901   8.430 -0.4281 -1.1757  3.0280
  794MOL0     H 9565   4.513   3.998   8.321 -1.6634 -0.8707 -0.0016
  794MOL0     H 9566   4.451   4.054   8.550  0.8197 -0.0210  0.3868
  794MOL0     H 9567   4.461   3.880   8.598 -2.1316 -2.3250 -0.9113
  794MOL0     H 9568   4.061   3.916   8.524  0.5823 -0.2009  4.2705
  794MOL0     H 9569   4.350   3.424   8.438  0.8282  1.1055 -0.3062
  794MOL0     H 9570   4.046   3.316   8.333  0.1411 -1.0832  0.5664
  794MOL0     H 9571   4.144   3.166   8.344  0.0697 -0.6967 -1.1894
  794MOL0     H 9572   4.165   3.282   8.468 -1.4051  0.0756  0.2017
  795MOL0     O 9573   1.204   9.299   7.462 -0.6847  0.5951  0.2027
  795MOL0     C 9574   1.277   9.317   7.563  0.2853 -0.3595  0.3681
  795MOL0     O 9575   1.272   9.428   7.646 -0.0847  1.1979 -0.5328
  795MOL0     C 9576   1.174   9.527   7.633 -0.0792  0.2481 -0.0032
  795MOL0     C 9577   1.139   9.595   7.752  0.1149 -0.2120 -0.0755
  795MOL0     C 9578   1.034   9.686   7.745 -0.0658 -0.6275  0.5977
  795MOL0     C 9579   0.965   9.710   7.628  0.1046 -0.2712 -0.2120
  795MOL0     O 9580   0.858   9.793   7.630  0.3818 -0.8477 -0.9625
  795MOL0     C 9581   0.762   9.790   7.733 -0.2221 -0.6955 -1.2465
  795MOL0     C 9582   0.644   9.885   7.701 -0.2660  0.3153 -0.1223
  795MOL0     C 9583   0.683  10.031   7.738 -0.8525  0.7851  0.1115
  795MOL0     C 9584   0.570  10.141   7.736 -0.9126  1.1119 -1.2837
  795MOL0     C 9585   0.542  10.188   7.598 -0.5315 -0.1527  0.3173
  795MOL0     C 9586   0.408  10.260   7.583  0.9475 -0.7376  0.6096
  795MOL0     C 9587   0.302  10.163   7.529  0.1983 -0.4316 -0.3948
  795MOL0     C 9588   0.161  10.205   7.566 -0.2291 -0.4142 -0.4993
  795MOL0     N 9589   0.134  10.353   7.546  1.0108  0.1036  0.4416
  795MOL0     C 9590   0.180  10.431   7.442  0.6691  0.1024  0.4606
  795MOL0     C 9591   0.147  10.565   7.467  0.6079  0.9684  0.2000
  795MOL0     C 9592   0.206  10.680   7.397  0.4052  0.6230  0.5580
  795MOL0     C 9593   0.106  10.754   7.310 -0.3183  0.7386  0.7488
  795MOL0     C 9594   0.077  10.687   7.172 -1.0118 -0.9766 -1.0108
  795MOL0     C 9595  -0.033  10.588   7.183 -0.1576  0.4719 -0.4495
  795MOL0     O 9596  -0.140  10.658   7.236 -0.2985 -0.2363 -0.2475
  795MOL0     C 9597  -0.182  10.629   7.363  0.1581  0.1327  0.7251
  795MOL0     C 9598  -0.242  10.743   7.433  0.9255 -0.3534 -0.3110
  795MOL0     C 9599  -0.273  10.725   7.569 -0.2264 -0.5212  0.4942
  795MOL0     C 9600  -0.310  10.852   7.644  0.4967 -0.4447  0.1421
  795MOL0     C 9601  -0.280  10.603   7.627  0.1016  0.5595 -0.6297
  795MOL0     C 9602  -0.305  10.582   7.769 -0.0002  0.2604 -1.6110
  795MOL0     O 9603  -0.259  10.667   7.862 -0.2830 -0.7082 -0.2086
  795MOL0     C 9604  -0.199  10.610   7.976  0.0143  0.8255 -0.1532
  795MOL0     C 9605  -0.086  10.528   7.957  0.0797  0.1307 -0.0216
  795MOL0     C 9606  -0.016  10.493   8.077  0.4530 -0.3105  0.7326
  795MOL0     C 9607  -0.066  10.520   8.208  0.0800 -0.9268 -0.2674
  795MOL0     O 9608  -0.005  10.479   8.324 -0.0688  0.0980  0.1526
  795MOL0     C 9609   0.086  10.373   8.309 -0.6970  0.9337  0.5702
  795MOL0     C 9610   0.086  10.280   8.424 -0.3623 -0.4074 -0.2457
  795MOL0     C 9611   0.139  10.133   8.393  0.2678 -0.3693  0.6170
  795MOL0     C 9612   0.076  10.054   8.266  0.2335 -0.9614 -1.0648
  795MOL0     C 9613   0.169  10.056   8.139  0.1419 -0.7195 -0.7293
  795MOL0     C 9614   0.104   9.967   8.030  0.6025 -0.3361 -0.2423
  795MOL0     C 9615   0.178   9.977   7.897 -0.0074 -0.5344 -0.5011
  795MOL0     C 9616   0.269   9.856   7.865 -0.2267  0.0241 -0.2041
  795MOL0    Cl 9617   0.354   9.794   8.015 -0.0293 -0.0299 -0.1413
  795MOL0     C 9618  -0.182  10.598   8.222 -0.6493 -0.1192  0.0127
  795MOL0     C 9619  -0.245  10.646   8.103  0.1130 -0.2707  0.0710
  795MOL0     O 9620  -0.372  10.482   7.796  0.2339 -1.0668  0.1282
  795MOL0     C 9621  -0.232  10.496   7.554  0.1264  0.3148 -0.8550
  795MOL0     C 9622  -0.187  10.504   7.423 -0.5009 -0.5298 -0.4206
  795MOL0     N 9623   0.094  10.560   7.595  0.5507 -0.0540 -0.7470
  795MOL0     N 9624   0.094  10.442   7.638  0.2950  0.5633 -0.2087
  795MOL0     C 9625   1.012   9.661   7.507  0.4092 -0.0516 -0.7755
  795MOL0     C 9626   1.117   9.570   7.511 -0.0350 -0.6737  0.3551
  795MOL0     C 9627   1.381   9.215   7.595  0.6087  0.6911 -0.5120
  795MOL0     C 9628   1.483   9.253   7.686 -0.3290  0.0233  0.5835
  795MOL0     C 9629   1.568   9.154   7.733  0.1802  0.1579  0.4835
  795MOL0     C 9630   1.568   9.025   7.683  0.7143 -0.3080 -0.5688
  795MOL0     O 9631   1.657   8.931   7.713  0.5075  0.4192 -0.2732
  795MOL0     C 9632   1.788   8.968   7.760 -0.7781 -0.1564 -0.5081
  795MOL0     C 9633   1.877   9.028   7.651  0.0997  0.1013 -0.1808
  795MOL0     C 9634   1.891   8.929   7.533 -0.0717 -0.5102  0.3994
  795MOL0     C 9635   1.988   8.979   7.422 -0.3963 -0.3306  0.3905
  795MOL0     C 9636   2.126   8.970   7.459 -0.0446  0.2462  0.1402
  795MOL0     C 9637   2.232   8.966   7.511 -0.1026  0.1793 -0.7316
  795MOL0     C 9638   1.472   8.990   7.597  0.1552  0.3613 -0.9652
  795MOL0     C 9639   1.374   9.083   7.554  0.5577  0.6417  0.2276
  795MOL0     C 9640   1.269   9.019   7.476  0.5684  1.1028  0.5698
  795MOL0     H 9641   1.189   9.584   7.848  0.2456  0.0420 -0.1135
  795MOL0     H 9642   1.009   9.735   7.838  1.8632  1.0514  0.3006
  795MOL0     H 9643   0.805   9.829   7.827 -2.8467 -0.9411  0.1438
  795MOL0     H 9644   0.718   9.691   7.745  1.3743 -1.2915  0.2919
  795MOL0     H 9645   0.631   9.876   7.593  0.2221  2.0119 -0.3634
  795MOL0     H 9646   0.554   9.846   7.750  0.5810 -0.3587  0.9447
  795MOL0     H 9647   0.724  10.027   7.839  2.1556  1.2224 -1.0117
  795MOL0     H 9648   0.764  10.055   7.669  0.3881  1.0257  1.6063
  795MOL0     H 9649   0.475  10.098   7.768 -1.5121  0.9870 -3.1040
  795MOL0     H 9650   0.598  10.231   7.792  1.3598 -0.5471  0.4182
  795MOL0     H 9651   0.538  10.096   7.540 -1.4997  0.1807 -0.1635
  795MOL0     H 9652   0.625  10.249   7.562 -0.5696 -1.3650 -2.0110
  795MOL0     H 9653   0.398  10.304   7.683  3.7167 -1.1408  1.1604
  795MOL0     H 9654   0.435  10.342   7.515  0.8643  0.3872  1.8837
  795MOL0     H 9655   0.326  10.059   7.552 -0.0028  0.2628  3.5268
  795MOL0     H 9656   0.305  10.166   7.419  4.8855 -0.4007 -0.4723
  795MOL0     H 9657   0.086  10.134   7.530  0.2303  0.0635 -2.5105
  795MOL0     H 9658   0.154  10.205   7.675 -0.8807 -0.8894 -0.5352
  795MOL0     H 9659   0.236  10.399   7.355  1.8637 -2.0888  1.9323
  795MOL0     H 9660   0.288  10.647   7.333 -0.3893  0.9004 -0.6638
  795MOL0     H 9661   0.243  10.751   7.471  0.4897  1.3275 -0.1467
  795MOL0     H 9662   0.020  10.773   7.374  0.0032 -0.9662  1.7532
  795MOL0     H 9663   0.149  10.849   7.276 -0.6084  0.4766 -0.3784
  795MOL0     H 9664   0.047  10.769   7.106 -3.8303 -0.3312  0.9293
  795MOL0     H 9665   0.171  10.639   7.141  1.5999  2.4804  0.8075
  795MOL0     H 9666  -0.066  10.555   7.084 -0.7191 -3.5502  0.9329
  795MOL0     H 9667  -0.019  10.492   7.233 -4.9121 -1.2123 -1.8246
  795MOL0     H 9668  -0.243  10.839   7.383  0.1842 -0.8203 -1.2111
  795MOL0     H 9669  -0.247  10.860   7.733  1.6603 -2.7248 -0.4020
  795MOL0     H 9670  -0.413  10.851   7.680  0.1235 -2.9160 -0.7682
  795MOL0     H 9671  -0.295  10.943   7.585  1.3147  0.6245  1.9150
  795MOL0     H 9672  -0.036  10.516   7.861 -2.6406 -1.7360 -1.3325
  795MOL0     H 9673   0.079  10.444   8.056 -0.4281 -1.1039 -1.6835
  795MOL0     H 9674   0.055  10.318   8.219 -0.2477  2.6262 -0.6685
  795MOL0     H 9675   0.191  10.404   8.303  0.8203 -2.7043  4.1721
  795MOL0     H 9676   0.146  10.330   8.501  1.0395  0.7879 -2.0291
  795MOL0     H 9677  -0.009  10.263   8.476  0.6855 -5.4140  0.5828
  795MOL0     H 9678   0.118  10.073   8.482 -5.1639 -0.2028 -0.2201
  795MOL0     H 9679   0.248  10.129   8.389  0.3859  1.6343  0.9305
  795MOL0     H 9680  -0.026  10.088   8.244  0.4445  2.0281  1.8391
  795MOL0     H 9681   0.060   9.949   8.295  0.3281 -0.9521 -0.9754
  795MOL0     H 9682   0.172  10.157   8.098 -1.0815 -0.7815 -1.0051
  795MOL0     H 9683   0.272  10.025   8.162 -0.1169 -1.4251 -0.4902
  795MOL0     H 9684   0.004  10.011   8.026 -0.9993 -3.0413  3.5937
  795MOL0     H 9685   0.093   9.860   8.051  0.2322  0.3311  3.8027
  795MOL0     H 9686   0.237  10.068   7.896 -1.2768  0.3424 -2.9213
  795MOL0     H 9687   0.096   9.994   7.826  0.6100  2.7527 -0.5594
  795MOL0     H 9688   0.338   9.873   7.782 -1.0501 -1.8470 -1.3228
  795MOL0     H 9689   0.212   9.766   7.840 -0.9394  0.5144 -0.3766
  795MOL0     H 9690  -0.207  10.620   8.325  1.1394  0.4335  0.3572
  795MOL0     H 9691  -0.325  10.719   8.114  2.2198  2.6988 -2.4373
  795MOL0     H 9692  -0.231  10.397   7.600 -1.5349  0.7612  0.2256
  795MOL0     H 9693  -0.144  10.419   7.371  3.2580 -0.4943  2.2304
  795MOL0     H 9694   0.968   9.686   7.411  0.3901  1.6644 -0.3469
  795MOL0     H 9695   1.130   9.522   7.414 -3.1471 -2.5716  0.7440
  795MOL0     H 9696   1.504   9.357   7.712  0.9204 -0.2954  0.9282
  795MOL0     H 9697   1.647   9.185   7.801  2.1052  0.0261 -1.5909
  795MOL0     H 9698   1.770   9.041   7.839 -3.1793 -1.8192  0.5918
  795MOL0     H 9699   1.835   8.877   7.797  1.7710  0.7267 -1.3453
  795MOL0     H 9700   1.980   9.034   7.686  0.4688 -2.8323 -0.5229
  795MOL0     H 9701   1.834   9.126   7.626 -2.8622 -1.0624 -0.0130
  795MOL0     H 9702   1.907   8.826   7.568 -0.2456 -0.0318  1.9621
  795MOL0     H 9703   1.795   8.921   7.480  1.0830 -0.3393 -1.8577
  795MOL0     H 9704   1.976   9.085   7.398  3.3153 -0.0336 -0.7023
  795MOL0     H 9705   1.977   8.925   7.328 -0.5232  0.4420 -0.0453
  795MOL0     H 9706   2.335   8.956   7.537 -0.3391 -1.2247 -0.2468
  795MOL0     H 9707   1.462   8.885   7.575  2.0270 -0.1183  0.2128
  795MOL0     H 9708   1.251   8.915   7.505 -1.7446  0.6779 -1.9531
  795MOL0     H 9709   1.177   9.069   7.506 -2.2386 -0.7768 -3.8607
  795MOL0     H 9710   1.282   9.022   7.367  1.7977 -0.4948  0.6439
  796MOL0     O 9711   0.890   6.106   2.218 -1.1482 -0.3500 -1.6538
  796MOL0     C 9712   0.869   6.034   2.124  0.1391  0.9889 -0.2075
  796MOL0     O 9713   0.942   6.029   2.007  0.1544  1.0449  0.0528
  796MOL0     C 9714   1.036   6.124   1.971 -0.7776  0.4997 -0.2458
  796MOL0     C 9715   1.032   6.253   2.007 -0.4082 -0.4215 -0.1091
  796MOL0     C 9716   1.116   6.341   1.947 -0.3226 -0.3557  0.1520
  796MOL0     C 9717   1.233   6.301   1.882 -0.2026 -1.3742  0.5169
  796MOL0     O 9718   1.320   6.393   1.822  0.8802  0.4074  0.8167
  796MOL0     C 9719   1.444   6.347   1.769  0.3855  0.4203  0.0355
  796MOL0     C 9720   1.516   6.456   1.693 -1.1934  0.7201  0.7623
  796MOL0     C 9721   1.628   6.401   1.611 -0.6357 -0.1867  0.2181
  796MOL0     C 9722   1.597   6.357   1.468 -0.6447  0.6096  0.4034
  796MOL0     C 9723   1.710   6.271   1.408  0.2598 -0.3499 -0.5465
  796MOL0     C 9724   1.695   6.254   1.252  0.7879  0.4417 -0.4666
  796MOL0     C 9725   1.825   6.234   1.176  0.0743  0.9481 -0.2659
  796MOL0     C 9726   1.810   6.250   1.027 -0.7320  0.7239 -0.2780
  796MOL0     N 9727   1.786   6.111   0.970  0.4479  0.6086 -0.0568
  796MOL0     C 9728   1.669   6.081   0.909 -0.2583 -0.4809 -0.7072
  796MOL0     C 9729   1.683   5.968   0.854  1.4771  0.9362 -0.4140
  796MOL0     C 9730   1.570   5.888   0.793 -0.5922  0.0471 -0.1109
  796MOL0     C 9731   1.551   5.743   0.850 -0.2381 -0.1380  0.0575
  796MOL0     C 9732   1.430   5.673   0.811  0.5684 -0.0469 -0.0399
  796MOL0     C 9733   1.426   5.531   0.872  0.5301  0.2533 -1.1299
  796MOL0     O 9734   1.424   5.526   1.017  0.5728  0.2901 -0.1220
  796MOL0     C 9735   1.315   5.486   1.081 -0.1474  0.0662  0.6060
  796MOL0     C 9736   1.227   5.580   1.135 -1.0361  0.3171 -0.0504
  796MOL0     C 9737   1.104   5.536   1.190  0.3089 -0.7763 -0.0695
  796MOL0     C 9738   0.996   5.631   1.217  1.0154  0.2888  0.8089
  796MOL0     C 9739   1.070   5.399   1.207 -0.4976  0.6297  0.0672
  796MOL0     C 9740   0.947   5.350   1.266  0.4492 -0.1887  0.2935
  796MOL0     O 9741   0.916   5.397   1.395 -0.5706  0.1753  0.7285
  796MOL0     C 9742   0.818   5.337   1.465 -1.0902 -0.6961 -0.3444
  796MOL0     C 9743   0.688   5.311   1.416 -0.0033  1.2513 -0.2900
  796MOL0     C 9744   0.589   5.271   1.499  0.8316 -0.1194 -0.7365
  796MOL0     C 9745   0.608   5.279   1.633  1.2066  0.0207  0.9958
  796MOL0     O 9746   0.494   5.246   1.709  0.1051  0.4838  0.5117
  796MOL0     C 9747   0.527   5.210   1.841  0.1413  0.4091 -0.1836
  796MOL0     C 9748   0.581   5.068   1.832 -1.0460 -0.0399  0.4827
  796MOL0     C 9749   0.591   5.019   1.974  0.1681 -1.0166  0.0229
  796MOL0     C 9750   0.634   4.873   1.976 -0.0351  0.0662 -0.3937
  796MOL0     C 9751   0.678   4.818   2.118 -1.3118 -0.1496  0.7072
  796MOL0     C 9752   0.828   4.817   2.153 -0.1931  0.5569 -0.0191
  796MOL0     C 9753   0.858   4.736   2.279 -0.3828  0.8842 -0.1868
  796MOL0     C 9754   0.843   4.829   2.402 -0.0620  1.2952  0.0071
  796MOL0    Cl 9755   0.842   4.731   2.552  0.5032  0.5627  0.4649
  796MOL0     C 9756   0.730   5.313   1.687  0.7318  0.6556  0.3204
  796MOL0     C 9757   0.839   5.326   1.599 -0.5683  0.0908 -0.1673
  796MOL0     O 9758   0.874   5.282   1.193  0.1859 -0.5225  0.3596
  796MOL0     C 9759   1.165   5.304   1.156 -0.0347 -0.1152  0.3493
  796MOL0     C 9760   1.284   5.351   1.094  0.3897 -0.3469  0.3360
  796MOL0     N 9761   1.817   5.926   0.867 -0.4505  0.8058  0.9828
  796MOL0     N 9762   1.880   6.017   0.933 -0.1636 -0.2765  0.2792
  796MOL0     C 9763   1.253   6.162   1.861 -0.2604  0.2463  0.1427
  796MOL0     C 9764   1.149   6.075   1.900 -0.1898  0.8879  0.3177
  796MOL0     C 9765   0.766   5.932   2.150 -1.2197  0.5015  0.2177
  796MOL0     C 9766   0.731   5.848   2.040 -0.0943  0.2340  0.3788
  796MOL0     C 9767   0.639   5.749   2.055  0.5216 -0.6782 -0.4017
  796MOL0     C 9768   0.593   5.714   2.182 -0.2849  0.6411  0.2321
  796MOL0     O 9769   0.515   5.605   2.200 -0.2076 -0.7226 -0.5055
  796MOL0     C 9770   0.560   5.478   2.167 -0.8714 -0.1339  0.1867
  796MOL0     C 9771   0.548   5.393   2.296  0.2637 -0.8372  0.0161
  796MOL0     C 9772   0.409   5.384   2.346  0.6143  0.9093  0.1147
  796MOL0     C 9773   0.417   5.387   2.500  0.1615 -0.0442 -0.0239
  796MOL0     C 9774   0.292   5.343   2.559  0.1871  0.3195 -0.1307
  796MOL0     C 9775   0.192   5.308   2.612  0.5026  0.0750  0.2501
  796MOL0     C 9776   0.613   5.799   2.289  0.2145 -0.3132  0.7764
  796MOL0     C 9777   0.705   5.910   2.275  0.7225 -0.0360  0.0453
  796MOL0     C 9778   0.733   5.984   2.403 -0.4822  0.6299  0.2563
  796MOL0     H 9779   0.945   6.295   2.057 -1.1857 -1.0762 -0.8950
  796MOL0     H 9780   1.092   6.447   1.959 -1.8457 -0.8971  2.4257
  796MOL0     H 9781   1.426   6.275   1.689 -2.3070  1.0417 -0.0062
  796MOL0     H 9782   1.493   6.304   1.856  0.3222  1.7395  0.7550
  796MOL0     H 9783   1.447   6.522   1.639  0.7859  1.5915 -0.7879
  796MOL0     H 9784   1.561   6.523   1.767  2.0639  1.8505 -1.9949
  796MOL0     H 9785   1.705   6.479   1.619 -0.8028 -0.0731  0.7798
  796MOL0     H 9786   1.677   6.318   1.662  1.9961  0.2263 -1.4673
  796MOL0     H 9787   1.499   6.308   1.461 -1.2910  1.7509  1.2133
  796MOL0     H 9788   1.581   6.443   1.403 -0.9223  0.7539  0.6604
  796MOL0     H 9789   1.710   6.172   1.454  2.9841 -0.1188  0.1470
  796MOL0     H 9790   1.813   6.302   1.428  0.1614 -0.1116 -0.3964
  796MOL0     H 9791   1.629   6.170   1.230 -0.9965  1.3602  0.9964
  796MOL0     H 9792   1.643   6.335   1.200  2.9448  3.6494  1.9472
  796MOL0     H 9793   1.860   6.134   1.203 -4.6120 -0.5424  1.2499
  796MOL0     H 9794   1.899   6.309   1.205 -1.7368  2.3399  0.9241
  796MOL0     H 9795   1.726   6.317   1.005 -0.0874  1.5190 -0.3474
  796MOL0     H 9796   1.898   6.299   0.986 -1.1783  3.0074  1.2830
  796MOL0     H 9797   1.574   6.132   0.926  0.7252  0.6240  1.9571
  796MOL0     H 9798   1.587   5.877   0.685 -0.9246 -0.2851 -0.1327
  796MOL0     H 9799   1.465   5.919   0.796 -1.4739 -2.3721 -2.1800
  796MOL0     H 9800   1.638   5.687   0.814 -0.6648 -1.8451  1.5295
  796MOL0     H 9801   1.553   5.756   0.959 -0.8885  1.3953 -0.0918
  796MOL0     H 9802   1.342   5.726   0.849  0.1306 -1.0840  0.4636
  796MOL0     H 9803   1.418   5.672   0.703  1.5687 -0.7238 -0.1663
  796MOL0     H 9804   1.342   5.475   0.830  0.2645  0.8970 -1.4757
  796MOL0     H 9805   1.510   5.468   0.840 -0.6011 -1.2002 -1.3672
  796MOL0     H 9806   1.253   5.684   1.115  2.7653 -0.7767 -1.6593
  796MOL0     H 9807   1.026   5.735   1.204  0.5591  0.1683 -1.7009
  796MOL0     H 9808   0.961   5.625   1.320 -0.4462 -1.2430  0.2600
  796MOL0     H 9809   0.923   5.606   1.140 -1.3728  0.4148  2.9280
  796MOL0     H 9810   0.679   5.335   1.310  0.6105 -2.5696 -1.3595
  796MOL0     H 9811   0.495   5.235   1.458 -0.3115 -0.4283  1.8792
  796MOL0     H 9812   0.594   5.286   1.882 -0.1507  2.0975 -2.5955
  796MOL0     H 9813   0.435   5.203   1.900 -0.2829 -1.0388 -0.9583
  796MOL0     H 9814   0.519   5.007   1.767 -0.5959 -0.7852  0.7394
  796MOL0     H 9815   0.682   5.069   1.789 -1.2033  1.4469  0.0815
  796MOL0     H 9816   0.502   5.027   2.037  1.9658  1.1449  2.5000
  796MOL0     H 9817   0.669   5.080   2.020 -0.3687  0.8623 -1.4522
  796MOL0     H 9818   0.728   4.857   1.922 -0.4771 -0.3023 -1.0618
  796MOL0     H 9819   0.555   4.808   1.937  1.0506 -1.1801 -0.5744
  796MOL0     H 9820   0.633   4.868   2.204 -0.0640 -3.1781  3.3395
  796MOL0     H 9821   0.645   4.713   2.114 -0.1013 -0.5223  0.1808
  796MOL0     H 9822   0.841   4.925   2.168  0.1454  0.7675 -1.5923
  796MOL0     H 9823   0.887   4.791   2.064  1.4993  0.1641  1.1659
  796MOL0     H 9824   0.964   4.714   2.261 -0.7216  0.8157 -2.4293
  796MOL0     H 9825   0.812   4.638   2.288  3.0118 -1.0786 -2.1982
  796MOL0     H 9826   0.745   4.877   2.392  0.4474  2.0458 -1.6066
  796MOL0     H 9827   0.927   4.899   2.408  1.1791 -0.0774 -0.6273
  796MOL0     H 9828   0.764   5.299   1.789 -2.0198 -1.0545  1.1128
  796MOL0     H 9829   0.941   5.330   1.634 -0.2142 -1.2799 -0.9636
  796MOL0     H 9830   1.155   5.196   1.147  2.8931 -0.4644  0.4425
  796MOL0     H 9831   1.344   5.273   1.047 -0.0905 -0.7759  0.4256
  796MOL0     H 9832   1.341   6.116   1.816 -1.7117 -2.0745 -0.4857
  796MOL0     H 9833   1.160   5.973   1.865 -2.1554  2.0204 -4.1929
  796MOL0     H 9834   0.761   5.857   1.936  4.5143  1.6865  1.5831
  796MOL0     H 9835   0.606   5.700   1.964  1.0550  0.3247 -1.1600
  796MOL0     H 9836   0.498   5.438   2.087 -0.4935 -2.2508  0.8826
  796MOL0     H 9837   0.661   5.480   2.125 -1.1883  1.4912 -0.5756
  796MOL0     H 9838   0.607   5.453   2.365  0.3288  0.5242 -1.1561
  796MOL0     H 9839   0.590   5.292   2.294  0.9636 -0.6849  2.8092
  796MOL0     H 9840   0.350   5.472   2.321 -1.2465 -0.7218 -1.5135
  796MOL0     H 9841   0.352   5.300   2.305 -0.2865  0.0283  2.9003
  796MOL0     H 9842   0.457   5.482   2.536  1.0813 -0.4935  0.1742
  796MOL0     H 9843   0.481   5.301   2.522 -2.7052 -1.5892  3.3304
  796MOL0     H 9844   0.108   5.272   2.668 -0.0329 -1.9465 -1.6937
  796MOL0     H 9845   0.562   5.765   2.378 -3.8359 -1.5918 -1.7593
  796MOL0     H 9846   0.837   5.953   2.417 -0.5401  0.5861  0.5908
  796MOL0     H 9847   0.716   6.092   2.393 -2.0838  0.5698  1.7881
  796MOL0     H 9848   0.677   5.964   2.495  0.9207  3.0214  1.7366
  797MOL0     O 9849   2.369   5.204   4.469  0.5215 -0.0365 -0.7235
  797MOL0     C 9850   2.423   5.194   4.360 -0.0783  0.2269  0.0071
  797MOL0     O 9851   2.368   5.137   4.243  0.5536  0.0447 -0.1501
  797MOL0     C 9852   2.261   5.063   4.272  0.2055  0.0324  0.7239
  797MOL0     C 9853   2.132   5.125   4.272  0.6560  0.2776  0.1854
  797MOL0     C 9854   2.031   5.036   4.305  0.6796  0.8164 -0.7118
  797MOL0     C 9855   2.048   4.903   4.343 -0.0964  0.7902  0.9374
  797MOL0     O 9856   1.927   4.844   4.370 -1.0749  0.6873 -0.3539
  797MOL0     C 9857   1.937   4.699   4.402  0.9585 -1.0015 -0.6879
  797MOL0     C 9858   1.796   4.630   4.441  0.1886  0.3734  0.0146
  797MOL0     C 9859   1.760   4.668   4.585  0.1362  0.0973 -1.2475
  797MOL0     C 9860   1.655   4.567   4.649 -1.0880  0.1651  0.4541
  797MOL0     C 9861   1.647   4.587   4.802  0.5040 -0.0438  1.3982
  797MOL0     C 9862   1.713   4.463   4.870  0.1539  0.6621  0.1433
  797MOL0     C 9863   1.712   4.486   5.017 -0.3476  0.0408 -1.2722
  797MOL0     C 9864   1.781   4.385   5.115  0.1830  0.6115 -0.3527
  797MOL0     N 9865   1.918   4.374   5.102 -0.3388  0.0047 -0.4398
  797MOL0     C 9866   1.978   4.307   4.999 -0.9896 -0.9669 -0.7518
  797MOL0     C 9867   2.110   4.323   5.026  0.1448  0.3219 -1.3146
  797MOL0     C 9868   2.228   4.280   4.941  0.0590 -0.5135  0.8614
  797MOL0     C 9869   2.193   4.267   4.792 -0.5927 -0.2467  0.5386
  797MOL0     C 9870   2.149   4.392   4.716  0.1105 -0.5296  0.0651
  797MOL0     C 9871   2.152   4.367   4.562  0.3408  0.0753 -0.2381
  797MOL0     O 9872   2.039   4.295   4.513  0.3449 -0.1783 -0.8363
  797MOL0     C 9873   2.036   4.220   4.397 -0.1206  0.1064 -1.2911
  797MOL0     C 9874   2.144   4.206   4.308  0.1185 -0.8905  0.2879
  797MOL0     C 9875   2.141   4.161   4.178  0.9244  0.5356  0.2403
  797MOL0     C 9876   2.275   4.164   4.112 -0.4677  0.3902 -0.6017
  797MOL0     C 9877   2.023   4.108   4.123 -0.7703  0.2605  0.2098
  797MOL0     C 9878   2.006   4.067   3.984 -0.1110  0.5666 -0.3509
  797MOL0     O 9879   1.874   4.024   3.946  0.4222  0.3336  0.2761
  797MOL0     C 9880   1.842   3.925   3.851 -0.9630 -0.1045 -0.3322
  797MOL0     C 9881   1.734   3.846   3.876  0.6249  1.1524 -0.0987
  797MOL0     C 9882   1.700   3.743   3.789 -0.1106 -0.0927 -1.0294
  797MOL0     C 9883   1.767   3.724   3.667 -0.0289 -0.4287 -0.2508
  797MOL0     O 9884   1.731   3.622   3.579 -0.8497 -0.7002  0.1698
  797MOL0     C 9885   1.600   3.566   3.586 -0.9197 -0.1049 -0.2530
  797MOL0     C 9886   1.550   3.494   3.452  0.2125  0.2502  0.6448
  797MOL0     C 9887   1.547   3.580   3.327 -1.0137  0.0208  1.4122
  797MOL0     C 9888   1.514   3.486   3.203  0.5447  0.2272  0.6777
  797MOL0     C 9889   1.371   3.524   3.149  0.1682  0.6945  0.9692
  797MOL0     C 9890   1.251   3.455   3.217 -0.2093  0.7155 -0.4771
  797MOL0     C 9891   1.124   3.462   3.137 -0.1888 -1.5863 -0.0882
  797MOL0     C 9892   1.081   3.611   3.110 -0.3523  1.3401  0.0198
  797MOL0    Cl 9893   0.955   3.601   2.983 -0.2809  0.0443 -0.2221
  797MOL0     C 9894   1.876   3.803   3.650  0.6001 -0.3470  0.6319
  797MOL0     C 9895   1.923   3.902   3.740  0.3460  0.0912  1.1934
  797MOL0     O 9896   2.093   4.072   3.899  0.1647  0.0627 -1.1315
  797MOL0     C 9897   1.904   4.116   4.208  0.4808  0.3172 -0.1729
  797MOL0     C 9898   1.916   4.167   4.342 -0.3488 -1.3537  0.1432
  797MOL0     N 9899   2.137   4.378   5.150 -0.4628  1.0335  0.0726
  797MOL0     N 9900   2.018   4.407   5.191  0.1787 -0.0724  0.2910
  797MOL0     C 9901   2.176   4.845   4.341 -1.0185 -1.0814 -0.5701
  797MOL0     C 9902   2.287   4.925   4.301  0.5516 -1.1703  0.2568
  797MOL0     C 9903   2.567   5.239   4.340  0.6451 -1.8270  0.3978
  797MOL0     C 9904   2.613   5.278   4.214 -0.7010  0.4391 -0.0077
  797MOL0     C 9905   2.734   5.348   4.205 -0.1019  0.3366  0.0260
  797MOL0     C 9906   2.823   5.375   4.312  1.1212  0.7499  0.5214
  797MOL0     O 9907   2.938   5.443   4.286 -0.8306 -0.0326 -0.1307
  797MOL0     C 9908   3.031   5.469   4.393  0.4055  0.0852 -0.0394
  797MOL0     C 9909   3.144   5.555   4.332  0.3485 -0.3859  0.6922
  797MOL0     C 9910   3.233   5.465   4.245 -0.5862 -0.4032  0.3067
  797MOL0     C 9911   3.372   5.521   4.208 -0.1098 -0.7218  0.1504
  797MOL0     C 9912   3.355   5.627   4.110 -0.3778  0.1206 -0.3174
  797MOL0     C 9913   3.317   5.714   4.039  0.0633 -0.2009 -1.0258
  797MOL0     C 9914   2.779   5.332   4.437 -0.5298  0.2582  0.5555
  797MOL0     C 9915   2.654   5.264   4.460 -1.0570 -0.6834  0.7423
  797MOL0     C 9916   2.622   5.225   4.594  0.1503 -0.0332 -0.4867
  797MOL0     H 9917   2.123   5.233   4.259  1.5613  0.5837  1.8107
  797MOL0     H 9918   1.930   5.075   4.320  0.4841  0.0316  0.1200
  797MOL0     H 9919   2.013   4.690   4.480  1.5144  2.7525 -0.6165
  797MOL0     H 9920   1.967   4.638   4.317  0.7101 -2.5441  0.2756
  797MOL0     H 9921   1.716   4.649   4.370 -1.4521 -2.1572  1.0347
  797MOL0     H 9922   1.820   4.524   4.428 -0.2602  0.5711 -3.1280
  797MOL0     H 9923   1.848   4.673   4.649 -0.9075  1.1692  0.1806
  797MOL0     H 9924   1.714   4.767   4.593 -0.5315 -0.3473  2.7369
  797MOL0     H 9925   1.559   4.591   4.604 -0.1230  0.0122 -1.8028
  797MOL0     H 9926   1.675   4.462   4.629 -4.2838 -0.3880 -0.2837
  797MOL0     H 9927   1.544   4.583   4.838  0.7998 -0.0661  2.2686
  797MOL0     H 9928   1.685   4.687   4.824  0.5430  1.0397 -2.7614
  797MOL0     H 9929   1.652   4.377   4.840 -1.0388  0.8585  1.8793
  797MOL0     H 9930   1.818   4.450   4.841  0.8729 -1.6221  3.3215
  797MOL0     H 9931   1.606   4.493   5.042 -0.0444 -0.7592  0.3022
  797MOL0     H 9932   1.756   4.586   5.028 -0.6752  0.1151 -0.5856
  797MOL0     H 9933   1.755   4.419   5.215 -3.5705 -0.0515 -0.9350
  797MOL0     H 9934   1.740   4.283   5.116 -0.3226  0.7700  2.3506
  797MOL0     H 9935   1.934   4.264   4.910  0.2352 -2.7294 -0.5494
  797MOL0     H 9936   2.264   4.186   4.984  4.3316  0.1046 -0.8645
  797MOL0     H 9937   2.315   4.345   4.944  3.0940 -4.1309 -1.0983
  797MOL0     H 9938   2.286   4.243   4.740 -0.7806 -1.3547  0.6773
  797MOL0     H 9939   2.125   4.183   4.774 -0.2782 -0.7609  1.6615
  797MOL0     H 9940   2.045   4.411   4.742 -0.0852 -1.5367  0.0630
  797MOL0     H 9941   2.217   4.474   4.742 -1.1208  0.7923 -0.7774
  797MOL0     H 9942   2.170   4.459   4.505 -4.3656  0.8709 -0.8031
  797MOL0     H 9943   2.251   4.323   4.548  1.9244  3.7360 -1.9090
  797MOL0     H 9944   2.237   4.245   4.347 -2.1868  1.8572  3.6434
  797MOL0     H 9945   2.333   4.249   4.149 -0.1984 -0.6228  1.4480
  797MOL0     H 9946   2.272   4.200   4.009 -2.2679  2.7047  0.1697
  797MOL0     H 9947   2.339   4.077   4.131 -1.1195  0.2790  1.2365
  797MOL0     H 9948   1.672   3.878   3.959 -1.9737  2.6789 -2.5004
  797MOL0     H 9949   1.615   3.678   3.808  1.7673 -2.6833 -1.0181
  797MOL0     H 9950   1.591   3.497   3.670 -0.2194 -1.1859 -1.0305
  797MOL0     H 9951   1.530   3.650   3.592 -1.8728 -0.9260  0.4741
  797MOL0     H 9952   1.608   3.402   3.436  0.9831  0.7976  0.2524
  797MOL0     H 9953   1.447   3.462   3.468 -0.0015  0.0181 -1.0202
  797MOL0     H 9954   1.652   3.603   3.307 -1.6483 -0.0511 -2.7342
  797MOL0     H 9955   1.490   3.673   3.334 -2.4298 -0.8553  1.9189
  797MOL0     H 9956   1.526   3.378   3.217  0.1346 -0.0016 -0.5929
  797MOL0     H 9957   1.583   3.515   3.122  0.7323 -0.0967  0.7189
  797MOL0     H 9958   1.351   3.631   3.161 -2.8178  0.0024  3.4366
  797MOL0     H 9959   1.355   3.484   3.049  2.0318 -0.4128  1.0839
  797MOL0     H 9960   1.221   3.511   3.306 -0.8994  0.8645 -0.8014
  797MOL0     H 9961   1.267   3.348   3.233  3.3461  1.1952  0.1293
  797MOL0     H 9962   1.045   3.406   3.187 -2.1261  0.1241 -1.1095
  797MOL0     H 9963   1.141   3.435   3.032 -0.5220  1.7706 -1.1104
  797MOL0     H 9964   1.161   3.669   3.063  0.1894  1.4657  1.0601
  797MOL0     H 9965   1.048   3.666   3.199  2.1126 -0.2037  2.0195
  797MOL0     H 9966   1.939   3.792   3.562  0.2048 -1.2237  0.4454
  797MOL0     H 9967   2.008   3.963   3.710 -2.5703  2.4140 -3.4731
  797MOL0     H 9968   1.809   4.074   4.177  2.2628 -3.2038 -1.4163
  797MOL0     H 9969   1.821   4.183   4.392 -1.7741  0.2181 -2.7980
  797MOL0     H 9970   2.201   4.747   4.379 -0.0144  0.0670  1.9612
  797MOL0     H 9971   2.387   4.885   4.288  0.3439 -1.2763 -1.1968
  797MOL0     H 9972   2.562   5.260   4.120 -0.8725 -2.9020  0.5809
  797MOL0     H 9973   2.752   5.389   4.106 -1.7603 -0.8471 -0.8268
  797MOL0     H 9974   2.988   5.535   4.469  0.4606  0.4895 -0.3530
  797MOL0     H 9975   3.074   5.380   4.440  0.4902  1.1510  1.9879
  797MOL0     H 9976   3.201   5.610   4.408  0.0690 -0.8925  1.2759
  797MOL0     H 9977   3.113   5.631   4.259  3.0290  1.2295  1.0853
  797MOL0     H 9978   3.257   5.372   4.299 -0.8332  0.5705  2.1608
  797MOL0     H 9979   3.168   5.434   4.163  1.0689  0.6350 -1.4554
  797MOL0     H 9980   3.436   5.444   4.165 -1.0258 -1.7951  0.6655
  797MOL0     H 9981   3.433   5.576   4.280 -2.1961  3.9953 -1.2569
  797MOL0     H 9982   3.285   5.807   3.997 -1.5499  0.9554  2.4429
  797MOL0     H 9983   2.846   5.355   4.520  4.2601 -3.1427 -1.8957
  797MOL0     H 9984   2.565   5.132   4.600  4.1543 -2.7240 -0.3729
  797MOL0     H 9985   2.715   5.206   4.650 -0.6352 -2.2033  0.1905
  797MOL0     H 9986   2.565   5.304   4.643 -2.1372 -0.6485 -1.9780
  798MOL0     O 9987  11.367   9.164   1.894  0.4206  0.3340  0.7423
  798MOL0     C 9988  11.331   9.093   1.797  0.6573 -0.1164  0.5342
  798MOL0     O 9989  11.202   9.058   1.772 -0.0440 -0.5352  0.3887
  798MOL0     C 9990  11.118   9.049   1.879  0.6589 -0.0545  0.3379
  798MOL0     C 9991  11.082   9.156   1.959  0.6777  0.4092  0.1496
  798MOL0     C 9992  10.977   9.139   2.053 -0.3779  1.1540 -0.8170
  798MOL0     C 9993  10.906   9.012   2.066  0.4477  0.7175  0.9181
  798MOL0     O 9994  10.796   9.005   2.152  1.0094 -1.2474 -0.4615
  798MOL0     C 9995  10.740   8.880   2.169 -1.0247  1.1429  0.7998
  798MOL0     C 9996  10.634   8.877   2.275 -0.2762 -0.5489  0.1792
  798MOL0     C 9997  10.551   8.748   2.296  0.4912  0.1604  0.2490
  798MOL0     C 9998  10.489   8.741   2.441  0.1192  0.0207 -0.3173
  798MOL0     C 9999  10.420   8.599   2.468 -0.1656 -0.1735 -0.4974
  798MOL0     C10000  10.497   8.475   2.421  0.2631  0.2660 -0.4764
  798MOL0     C10001  10.425   8.347   2.441  0.4944  0.0164  0.2314
  798MOL0     C10002  10.492   8.216   2.417 -0.1650  0.0076  0.1233
  798MOL0     N10003  10.466   8.151   2.282 -0.1219 -0.2903  0.2089
  798MOL0     C10004  10.562   8.091   2.196  0.5532  1.4287 -0.1183
  798MOL0     C10005  10.485   8.048   2.097 -0.4148  1.2801  0.5259
  798MOL0     C10006  10.527   7.979   1.963 -0.6175 -0.2661 -0.2063
  798MOL0     C10007  10.597   8.088   1.884  1.2519 -0.0235 -0.8386
  798MOL0     C10008  10.505   8.138   1.772  0.6888 -0.1976  0.6561
  798MOL0     C10009  10.572   8.224   1.660  0.4809  0.2040 -0.5644
  798MOL0     O10010  10.511   8.355   1.646 -0.1589  0.6761  0.3792
  798MOL0     C10011  10.528   8.441   1.543  0.2155  0.2675  1.3385
  798MOL0     C10012  10.434   8.541   1.519 -0.0132 -1.3690 -0.1455
  798MOL0     C10013  10.453   8.633   1.413 -0.8406 -0.0667  0.0824
  798MOL0     C10014  10.331   8.720   1.389 -0.3468 -0.1496  0.8991
  798MOL0     C10015  10.571   8.631   1.330  0.3012  0.1629 -0.1020
  798MOL0     C10016  10.603   8.724   1.215  0.3703 -0.9934  0.6311
  798MOL0     O10017  10.506   8.824   1.187 -0.1445  0.0380 -0.8704
  798MOL0     C10018  10.515   8.901   1.076 -0.4064  0.5327  0.7930
  798MOL0     C10019  10.392   8.921   1.002  0.0023  0.5551  0.7396
  798MOL0     C10020  10.392   9.000   0.882 -0.0825 -0.2330 -0.5055
  798MOL0     C10021  10.514   9.050   0.837 -0.3779 -0.2434 -0.1813
  798MOL0     O10022  10.521   9.128   0.727 -0.6441  0.0517 -0.3417
  798MOL0     C10023  10.413   9.110   0.629  0.2519 -0.0960  0.2622
  798MOL0     C10024  10.469   9.155   0.492  1.0214 -0.0393 -0.6174
  798MOL0     C10025  10.346   9.162   0.398  0.0036 -0.5729  1.0065
  798MOL0     C10026  10.386   9.207   0.256 -1.1672 -0.6373  0.4185
  798MOL0     C10027  10.258   9.216   0.165 -0.2245 -0.4262  0.4274
  798MOL0     C10028  10.272   9.334   0.070 -0.2107 -0.3632 -0.3912
  798MOL0     C10029  10.401   9.337  -0.009 -0.4745 -0.2972 -0.3763
  798MOL0     C10030  10.440   9.212  -0.084 -0.3738  0.3272 -0.2794
  798MOL0    Cl10031  10.307   9.131  -0.161 -0.4288  0.0418  0.0531
  798MOL0     C10032  10.634   9.028   0.908 -0.3466 -0.3127 -0.2087
  798MOL0     C10033  10.632   8.953   1.027 -0.3740  0.0748 -0.4811
  798MOL0     O10034  10.697   8.696   1.143  0.7722 -0.2810  0.4538
  798MOL0     C10035  10.658   8.517   1.353  0.5584 -0.8774  0.0381
  798MOL0     C10036  10.636   8.433   1.460  0.1665  0.6336  0.7093
  798MOL0     N10037  10.344   8.059   2.134 -1.1493 -0.7781 -0.7260
  798MOL0     N10038  10.341   8.135   2.236  0.0999 -0.4161  0.5032
  798MOL0     C10039  10.950   8.907   1.986 -0.1797 -0.0180  0.0291
  798MOL0     C10040  11.054   8.926   1.899 -0.0405 -0.2924  0.0124
  798MOL0     C10041  11.425   9.067   1.701 -0.8523  0.1213  0.0352
  798MOL0     C10042  11.509   9.159   1.661 -1.3757  0.2489 -0.5031
  798MOL0     C10043  11.618   9.129   1.577 -0.2584 -0.4443  0.1783
  798MOL0     C10044  11.646   8.996   1.538 -0.3762  0.1005  0.6155
  798MOL0     O10045  11.757   8.977   1.457  0.6998  0.1015 -0.1295
  798MOL0     C10046  11.790   8.842   1.425 -0.1816 -0.3045  0.5202
  798MOL0     C10047  11.896   8.789   1.525  0.6546 -0.4217  0.0171
  798MOL0     C10048  11.928   8.640   1.496  0.9108 -0.5787  0.2914
  798MOL0     C10049  12.044   8.589   1.581  0.2470 -0.4016 -0.0328
  798MOL0     C10050  12.044   8.439   1.601 -0.5553 -0.6340 -0.6483
  798MOL0     C10051  12.056   8.317   1.595  0.3464 -0.6327  0.1770
  798MOL0     C10052  11.560   8.895   1.586  0.0817  0.4358  0.1946
  798MOL0     C10053  11.449   8.935   1.658 -0.6194  0.7318 -0.0530
  798MOL0     C10054  11.372   8.815   1.705 -0.1567  0.6345 -0.5192
  798MOL0     H10055  11.125   9.249   1.924  4.8315 -1.6410 -0.8024
  798MOL0     H10056  10.954   9.225   2.115 -1.2967  1.3063 -1.3392
  798MOL0     H10057  10.817   8.814   2.209 -0.0736 -0.1640 -2.8067
  798MOL0     H10058  10.691   8.837   2.081 -0.3193  2.1567 -0.1158
  798MOL0     H10059  10.698   8.906   2.359 -0.0006 -3.3945  1.0638
  798MOL0     H10060  10.557   8.955   2.271  0.3213  0.0347 -0.2907
  798MOL0     H10061  10.473   8.740   2.220  0.5081  3.2731 -0.2234
  798MOL0     H10062  10.611   8.657   2.288 -2.7189 -2.0060 -1.6205
  798MOL0     H10063  10.568   8.749   2.516 -0.3860 -1.3859  0.4136
  798MOL0     H10064  10.416   8.822   2.452 -0.2487 -0.4010  0.4244
  798MOL0     H10065  10.321   8.606   2.420  0.4981  0.6554 -1.8217
  798MOL0     H10066  10.403   8.603   2.576  2.9856  0.1388  0.0805
  798MOL0     H10067  10.507   8.481   2.312  0.1581 -0.1016 -0.5098
  798MOL0     H10068  10.599   8.466   2.459  1.4903 -0.0474 -3.5278
  798MOL0     H10069  10.340   8.349   2.372  3.2051 -0.8653 -3.4352
  798MOL0     H10070  10.409   8.349   2.549  2.4540  2.0910  0.5724
  798MOL0     H10071  10.598   8.228   2.442 -0.6810  1.2401  1.8482
  798MOL0     H10072  10.462   8.138   2.488 -0.9888  0.9726  0.8552
  798MOL0     H10073  10.667   8.079   2.220  0.6536  1.0784 -0.7037
  798MOL0     H10074  10.429   7.958   1.919 -0.5628  1.4026 -1.2012
  798MOL0     H10075  10.586   7.888   1.973  2.7145  1.6418 -0.8632
  798MOL0     H10076  10.605   8.183   1.937  4.1342 -1.0860  0.8700
  798MOL0     H10077  10.696   8.049   1.859  2.0815 -1.0612  3.3046
  798MOL0     H10078  10.474   8.047   1.720 -0.6163  1.3823 -1.5212
  798MOL0     H10079  10.402   8.170   1.791  0.2709  1.7874 -3.6954
  798MOL0     H10080  10.679   8.231   1.679  0.0394  2.1218  1.7673
  798MOL0     H10081  10.556   8.171   1.566 -3.4248  0.1016 -0.0128
  798MOL0     H10082  10.344   8.541   1.578  0.4395  1.4319  0.7140
  798MOL0     H10083  10.366   8.824   1.385 -1.4197  0.1989  0.1424
  798MOL0     H10084  10.261   8.713   1.473  1.1728 -1.2881  2.1261
  798MOL0     H10085  10.287   8.685   1.295  1.0896  0.5358 -0.0767
  798MOL0     H10086  10.303   8.873   1.042 -1.2805  0.7535 -1.6512
  798MOL0     H10087  10.292   9.017   0.845 -0.9521 -1.4365  1.1541
  798MOL0     H10088  10.382   9.005   0.631  1.1591 -0.3643  1.4014
  798MOL0     H10089  10.338   9.181   0.664 -0.6051 -0.3359 -1.0146
  798MOL0     H10090  10.510   9.255   0.509 -1.0342  0.3522  2.9861
  798MOL0     H10091  10.554   9.092   0.463  2.0884  0.6103  0.9646
  798MOL0     H10092  10.271   9.226   0.446 -0.5791 -1.4550  1.3197
  798MOL0     H10093  10.307   9.060   0.387  0.6919 -0.8292  0.9047
  798MOL0     H10094  10.459   9.133   0.220  2.3794  2.1923  1.2420
  798MOL0     H10095  10.441   9.301   0.259 -4.9579  1.8603 -0.9029
  798MOL0     H10096  10.241   9.121   0.115  3.0972 -1.0518  0.2677
  798MOL0     H10097  10.170   9.242   0.225 -2.4124 -2.7611 -1.5549
  798MOL0     H10098  10.268   9.425   0.131  1.3059 -0.6449  0.1753
  798MOL0     H10099  10.192   9.345  -0.004  1.0359  3.5742 -1.4297
  798MOL0     H10100  10.483   9.373   0.054 -2.3060  1.7944  0.9558
  798MOL0     H10101  10.394   9.409  -0.091  2.6945  1.9442  1.1325
  798MOL0     H10102  10.487   9.140  -0.016  0.3152  1.9873  1.0590
  798MOL0     H10103  10.512   9.225  -0.166  0.4698 -2.2637 -0.0636
  798MOL0     H10104  10.725   9.067   0.864 -0.3442 -0.9528 -0.7852
  798MOL0     H10105  10.720   8.923   1.084 -1.9924 -0.9187  1.6066
  798MOL0     H10106  10.751   8.530   1.299  0.6405  0.7713  0.5255
  798MOL0     H10107  10.705   8.356   1.493 -1.0054  0.7032  3.6827
  798MOL0     H10108  10.908   8.807   1.995 -0.0339 -0.3979 -2.7441
  798MOL0     H10109  11.079   8.840   1.838  0.8775  1.2875 -1.9182
  798MOL0     H10110  11.496   9.264   1.687 -0.2353  0.7517 -1.8409
  798MOL0     H10111  11.686   9.206   1.541 -0.4472  1.1198  2.8256
  798MOL0     H10112  11.706   8.774   1.411  0.7768 -1.3227 -0.5902
  798MOL0     H10113  11.831   8.840   1.323  0.4662  2.2662  0.6466
  798MOL0     H10114  11.864   8.786   1.629 -0.6804 -1.4999 -0.3940
  798MOL0     H10115  11.991   8.844   1.519  0.7328 -0.6665 -1.4032
  798MOL0     H10116  11.842   8.577   1.517  1.9532 -2.1965 -0.1015
  798MOL0     H10117  11.958   8.628   1.392 -2.1170  2.8187 -1.1494
  798MOL0     H10118  12.036   8.627   1.683  2.1801  0.5790 -0.2023
  798MOL0     H10119  12.130   8.631   1.528 -0.0786  0.5068  0.1570
  798MOL0     H10120  12.068   8.211   1.604 -3.1676 -1.4798 -2.7800
  798MOL0     H10121  11.580   8.793   1.555 -0.6947  0.0332  0.9868
  798MOL0     H10122  11.314   8.780   1.619  0.8644 -0.2508 -0.8664
  798MOL0     H10123  11.437   8.736   1.743  0.0623  0.9184 -0.2968
  798MOL0     H10124  11.308   8.826   1.794 -0.8056 -1.3027 -0.6921
  799MOL0     O10125   7.469   0.358   3.413  0.2075  0.8423  0.1112
  799MOL0     C10126   7.460   0.367   3.534  0.6851 -0.3978 -0.5335
  799MOL0     O10127   7.448   0.483   3.593 -0.6919  0.1405  0.5773
  799MOL0     C10128   7.439   0.599   3.511  0.1189  0.2911  0.2657
  799MOL0     C10129   7.560   0.652   3.464 -0.3335  0.3371  0.1243
  799MOL0     C10130   7.549   0.766   3.387 -0.5814 -0.0179 -0.7144
  799MOL0     C10131   7.426   0.817   3.344 -0.3737 -0.9149  0.5932
  799MOL0     O10132   7.437   0.920   3.262  0.3959 -0.0583  0.3969
  799MOL0     C10133   7.314   0.975   3.202 -0.3074  1.1852  0.3193
  799MOL0     C10134   7.256   1.080   3.306 -0.3978 -0.2972 -0.4701
  799MOL0     C10135   7.176   1.202   3.237 -0.5245 -0.3955  1.3926
  799MOL0     C10136   7.066   1.257   3.331 -0.1686 -0.2232 -0.6967
  799MOL0     C10137   7.023   1.398   3.295  0.1277 -0.2251 -0.3976
  799MOL0     C10138   6.910   1.466   3.386 -0.1795  0.7037 -0.1067
  799MOL0     C10139   6.992   1.510   3.511  0.1935 -0.3646  0.9319
  799MOL0     C10140   6.914   1.610   3.599  0.1782  0.1151  0.0960
  799MOL0     N10141   6.862   1.723   3.527  0.2464 -0.2375  0.1187
  799MOL0     C10142   6.739   1.746   3.511  0.3242 -0.3486 -0.5280
  799MOL0     C10143   6.725   1.865   3.441 -0.8428  1.7781  0.0249
  799MOL0     C10144   6.599   1.947   3.409 -0.1194  0.4716  1.2700
  799MOL0     C10145   6.533   1.923   3.269  0.4406 -1.0145  0.6774
  799MOL0     C10146   6.457   1.803   3.243  0.0086  0.3323  0.6677
  799MOL0     C10147   6.319   1.815   3.305  0.2962  0.4586 -0.1160
  799MOL0     O10148   6.229   1.713   3.250  0.1196 -0.1751 -0.0682
  799MOL0     C10149   6.109   1.707   3.314  0.2534 -0.0542 -0.3514
  799MOL0     C10150   6.046   1.790   3.408  0.0739  0.0118  1.7370
  799MOL0     C10151   5.933   1.757   3.483 -0.8979 -0.6097  0.0740
  799MOL0     C10152   5.889   1.869   3.572 -0.1097  0.6725  0.8623
  799MOL0     C10153   5.863   1.636   3.459  0.7422  0.7864  0.4195
  799MOL0     C10154   5.749   1.581   3.520  1.2772  0.2025 -0.8205
  799MOL0     O10155   5.687   1.469   3.475  0.5447  0.0196 -0.5078
  799MOL0     C10156   5.561   1.446   3.536 -0.0831  0.8533 -0.2224
  799MOL0     C10157   5.553   1.384   3.670  0.1282 -0.0650  0.3357
  799MOL0     C10158   5.425   1.382   3.737  0.1220 -0.8204 -0.1108
  799MOL0     C10159   5.314   1.424   3.671  0.9404 -0.3982 -0.2386
  799MOL0     O10160   5.192   1.451   3.738 -0.0110 -0.2317  0.6006
  799MOL0     C10161   5.172   1.386   3.868  0.2021  0.5147  0.7441
  799MOL0     C10162   5.025   1.423   3.908 -0.8568  0.3579  0.4239
  799MOL0     C10163   5.002   1.386   4.050 -0.0216 -0.1365 -0.9393
  799MOL0     C10164   4.852   1.409   4.085 -0.0371 -0.0197 -0.8016
  799MOL0     C10165   4.825   1.325   4.208 -0.1095 -0.7894  0.0723
  799MOL0     C10166   4.667   1.321   4.231  0.2477 -0.5140 -0.2181
  799MOL0     C10167   4.590   1.209   4.150 -0.5770  0.1876 -0.4609
  799MOL0     C10168   4.465   1.266   4.072 -0.1702  1.4085  0.8105
  799MOL0    Cl10169   4.363   1.126   4.076 -0.0649  0.2522  0.1778
  799MOL0     C10170   5.322   1.456   3.530 -0.4379 -0.4452  0.0487
  799MOL0     C10171   5.440   1.480   3.469 -0.5849 -0.3592  0.8732
  799MOL0     O10172   5.706   1.643   3.616  0.1260 -0.0289 -0.0783
  799MOL0     C10173   5.930   1.552   3.365 -0.5724 -0.1655 -0.1753
  799MOL0     C10174   6.045   1.588   3.301  0.5272 -0.1907  0.1931
  799MOL0     N10175   6.849   1.900   3.408  0.2371 -0.4842  0.0736
  799MOL0     N10176   6.934   1.817   3.460  0.3383 -0.0192 -0.7535
  799MOL0     C10177   7.306   0.758   3.390  0.2337  0.1663 -0.1652
  799MOL0     C10178   7.310   0.649   3.477 -0.3486 -0.3942  0.8115
  799MOL0     C10179   7.469   0.247   3.622 -0.4232  0.3468 -0.2119
  799MOL0     C10180   7.503   0.278   3.758  0.7893 -0.3393 -0.3453
  799MOL0     C10181   7.491   0.183   3.856  0.2393 -0.0923 -0.4777
  799MOL0     C10182   7.467   0.053   3.820 -0.2602  0.0090  0.5032
  799MOL0     O10183   7.442  -0.036   3.927  0.2114  0.0217  0.9691
  799MOL0     C10184   7.517  -0.157   3.938  0.1990 -0.1016 -1.0353
  799MOL0     C10185   7.655  -0.118   3.990  1.0008 -1.1725  0.0571
  799MOL0     C10186   7.632  -0.080   4.136 -0.6503 -0.2524 -0.0923
  799MOL0     C10187   7.758  -0.001   4.173 -0.5090  0.3145 -0.1446
  799MOL0     C10188   7.761   0.029   4.320  0.2810 -0.3166 -0.4172
  799MOL0     C10189   7.745   0.072   4.436 -0.3313  0.9962 -0.1609
  799MOL0     C10190   7.436   0.017   3.687  1.1733  0.2491 -0.4240
  799MOL0     C10191   7.441   0.110   3.584  0.1745 -0.0798 -0.5100
  799MOL0     C10192   7.415   0.073   3.437 -0.2833  0.3527 -0.8367
  799MOL0     H10193   7.654   0.620   3.509 -0.1793  0.4710 -0.0986
  799MOL0     H10194   7.628   0.837   3.366 -1.7138  1.7028  0.6451
  799MOL0     H10195   7.237   0.898   3.186  0.2446  0.7345 -0.2242
  799MOL0     H10196   7.333   1.033   3.111  0.1857  0.6315  0.0606
  799MOL0     H10197   7.191   1.028   3.377  1.3376 -0.3028  1.1945
  799MOL0     H10198   7.333   1.129   3.366  1.6949  0.1970 -3.3275
  799MOL0     H10199   7.247   1.279   3.205 -0.6592 -1.0665 -0.5851
  799MOL0     H10200   7.140   1.172   3.139  1.6360 -0.0146  0.4400
  799MOL0     H10201   6.980   1.191   3.318  0.8026 -1.6423 -0.1844
  799MOL0     H10202   7.090   1.255   3.437 -2.0768 -1.6721 -0.2206
  799MOL0     H10203   6.990   1.394   3.191  3.0607 -3.0241 -1.3924
  799MOL0     H10204   7.110   1.462   3.279 -0.6909  1.0772  0.2105
  799MOL0     H10205   6.869   1.546   3.323 -0.4139 -0.0446 -0.9329
  799MOL0     H10206   6.838   1.390   3.416  1.7747 -0.6318  1.4638
  799MOL0     H10207   7.093   1.548   3.494 -0.2649  1.3993  1.9390
  799MOL0     H10208   7.005   1.428   3.582 -0.6536  0.1411  1.6998
  799MOL0     H10209   6.836   1.549   3.645 -0.5016 -2.5680 -4.0901
  799MOL0     H10210   6.992   1.647   3.666  1.6033 -2.4273 -0.0473
  799MOL0     H10211   6.653   1.700   3.558  0.0752 -2.0269 -2.4803
  799MOL0     H10212   6.625   2.053   3.417 -0.4136  0.6492 -0.0141
  799MOL0     H10213   6.522   1.928   3.484 -0.9898 -1.0638  0.0444
  799MOL0     H10214   6.468   2.011   3.267  2.3353  0.4423  0.9188
  799MOL0     H10215   6.614   1.926   3.196  0.7304  0.5021  1.0293
  799MOL0     H10216   6.449   1.800   3.134  1.8425  2.5145  0.4046
  799MOL0     H10217   6.521   1.725   3.286 -0.7257  0.2381  1.6299
  799MOL0     H10218   6.318   1.816   3.415 -2.9856 -0.2336 -0.0113
  799MOL0     H10219   6.264   1.905   3.276  3.4041  2.7655  0.6110
  799MOL0     H10220   6.093   1.885   3.433 -0.2781  0.6713  0.0825
  799MOL0     H10221   5.807   1.915   3.516 -0.9461 -0.0269  1.4705
  799MOL0     H10222   5.973   1.936   3.590 -0.5366  1.2325  0.7965
  799MOL0     H10223   5.856   1.838   3.671 -1.5213  0.4561  0.3632
  799MOL0     H10224   5.648   1.361   3.718 -0.9072  2.1547  3.8005
  799MOL0     H10225   5.440   1.349   3.840  3.3713  1.6903  0.3964
  799MOL0     H10226   5.181   1.279   3.846 -2.1726 -0.2901  3.1424
  799MOL0     H10227   5.242   1.428   3.941  1.0837 -0.1655  0.3063
  799MOL0     H10228   5.006   1.529   3.890 -0.3132  0.7340  1.8603
  799MOL0     H10229   4.958   1.373   3.838 -0.9288 -0.2102  0.8882
  799MOL0     H10230   5.066   1.457   4.104  1.1801 -1.0840 -1.0952
  799MOL0     H10231   5.033   1.284   4.071 -3.9831 -1.2957  0.1512
  799MOL0     H10232   4.784   1.383   4.004 -1.5028  2.5864 -0.4940
  799MOL0     H10233   4.838   1.513   4.116 -2.2500 -0.2236 -0.9523
  799MOL0     H10234   4.865   1.225   4.186 -1.6586 -1.4149 -0.0058
  799MOL0     H10235   4.888   1.369   4.286  2.0008 -2.7012 -0.4462
  799MOL0     H10236   4.622   1.417   4.206  0.5262  0.3063  2.1734
  799MOL0     H10237   4.649   1.293   4.336 -0.4396  0.6421 -0.0010
  799MOL0     H10238   4.547   1.136   4.219 -0.3331  1.5800  1.2600
  799MOL0     H10239   4.660   1.161   4.081  0.2325  0.4735  0.1319
  799MOL0     H10240   4.489   1.302   3.971  0.0915 -2.3513 -0.6559
  799MOL0     H10241   4.420   1.351   4.123 -0.4045  0.3771  2.4017
  799MOL0     H10242   5.231   1.476   3.474 -0.8830  1.6742  1.3979
  799MOL0     H10243   5.431   1.526   3.371  2.9343  1.6647  1.3175
  799MOL0     H10244   5.880   1.460   3.337  2.0600 -1.9510  0.6145
  799MOL0     H10245   6.072   1.513   3.228 -3.6197 -1.6623 -0.1318
  799MOL0     H10246   7.209   0.804   3.373 -0.3947 -1.5118 -1.4263
  799MOL0     H10247   7.225   0.583   3.488  0.9538 -2.3468 -0.2933
  799MOL0     H10248   7.528   0.380   3.788  0.6325 -0.1226 -0.9235
  799MOL0     H10249   7.499   0.203   3.963  3.8602  0.7631 -0.7900
  799MOL0     H10250   7.461  -0.221   4.007 -1.1849  2.8526  0.7587
  799MOL0     H10251   7.521  -0.214   3.845 -2.0526 -4.7644  1.3911
  799MOL0     H10252   7.710  -0.042   3.933  0.1426 -0.7891 -0.2873
  799MOL0     H10253   7.715  -0.208   3.977  1.7339 -0.8631  1.1824
  799MOL0     H10254   7.553  -0.006   4.150 -1.7630 -1.7654  2.1264
  799MOL0     H10255   7.619  -0.164   4.205 -3.1802 -0.6452 -0.9430
  799MOL0     H10256   7.755   0.098   4.127  2.6764 -1.2466 -4.2850
  799MOL0     H10257   7.855  -0.044   4.147 -0.9982  0.3878 -2.1898
  799MOL0     H10258   7.718   0.112   4.532 -2.4278 -1.8104  0.5538
  799MOL0     H10259   7.407  -0.085   3.664 -0.2020  0.8531 -1.4886
  799MOL0     H10260   7.324   0.115   3.395 -1.4714 -0.7715  0.4861
  799MOL0     H10261   7.488   0.103   3.362 -0.5812  1.1246 -0.8273
  799MOL0     H10262   7.408  -0.036   3.439  2.6001  0.0850 -0.3423
  800MOL0     O10263   5.807   6.818  10.417 -0.2152  0.1989 -0.2063
  800MOL0     C10264   5.775   6.723  10.344 -0.9543 -0.1915 -0.1833
  800MOL0     O10265   5.869   6.673  10.258 -0.4951  0.6820  0.3821
  800MOL0     C10266   5.999   6.728  10.261  0.0193  0.3460  0.5666
  800MOL0     C10267   6.023   6.848  10.199  0.1158  0.0289 -0.5868
  800MOL0     C10268   6.153   6.885  10.166  0.0273  0.6810  0.5260
  800MOL0     C10269   6.259   6.808  10.190  0.0595  0.3978  0.4592
  800MOL0     O10270   6.386   6.863  10.169  0.2112  0.1241 -0.1111
  800MOL0     C10271   6.477   6.765  10.124  0.2426 -0.1057  0.2118
  800MOL0     C10272   6.604   6.824  10.065  0.6475  0.7826 -0.3068
  800MOL0     C10273   6.588   6.928   9.967  0.1585  0.4904 -0.8200
  800MOL0     C10274   6.732   6.961   9.932  0.2041 -0.9619 -0.5818
  800MOL0     C10275   6.757   7.068   9.824  0.5330 -0.5398  0.5222
  800MOL0     C10276   6.909   7.094   9.816 -0.9234  0.1521  0.7505
  800MOL0     C10277   6.957   7.174   9.689  0.5557  0.1478 -0.2670
  800MOL0     C10278   6.901   7.320   9.678 -0.4576  0.0897 -0.2596
  800MOL0     N10279   6.955   7.383   9.558  0.1153  0.0129  0.0654
  800MOL0     C10280   7.035   7.337   9.460  0.6497  0.3558 -0.5017
  800MOL0     C10281   7.025   7.422   9.360  0.1155 -0.9299 -0.3845
  800MOL0     C10282   7.060   7.413   9.218  1.0911  0.1741  0.3927
  800MOL0     C10283   6.951   7.371   9.114 -0.7074  1.1923 -0.3869
  800MOL0     C10284   6.886   7.231   9.138 -0.2506 -0.4261 -0.7650
  800MOL0     C10285   6.775   7.213   9.033 -0.1348  0.1003  0.6479
  800MOL0     O10286   6.832   7.126   8.936 -0.2037  0.4193 -0.3916
  800MOL0     C10287   6.759   7.092   8.818  0.4742 -0.7082  0.2160
  800MOL0     C10288   6.835   7.028   8.716 -0.2686  1.1514 -0.1111
  800MOL0     C10289   6.786   6.989   8.594  1.0788  0.2181 -0.8493
  800MOL0     C10290   6.867   6.938   8.483  0.4517 -0.2062 -0.0756
  800MOL0     C10291   6.644   7.019   8.582 -0.2682 -0.3764  0.5074
  800MOL0     C10292   6.581   6.985   8.444 -0.0095  0.2768  0.1179
  800MOL0     O10293   6.503   7.080   8.387  1.0091 -0.2810 -0.6198
  800MOL0     C10294   6.440   7.050   8.263  0.2399  0.2481 -0.3787
  800MOL0     C10295   6.523   7.016   8.149  0.5529  0.2176 -1.1319
  800MOL0     C10296   6.464   6.987   8.028  0.9311  0.9030  0.2812
  800MOL0     C10297   6.321   7.003   8.006  0.3797 -0.7662  0.4879
  800MOL0     O10298   6.275   6.964   7.882  0.0750 -0.1524  0.4310
  800MOL0     C10299   6.131   6.961   7.860 -0.6901  0.5168 -0.3992
  800MOL0     C10300   6.079   7.098   7.835 -0.3416 -0.1265 -2.1592
  800MOL0     C10301   6.106   7.148   7.691  0.3338  0.0289  0.0905
  800MOL0     C10302   6.052   7.295   7.701  0.2795  0.6036 -0.7601
  800MOL0     C10303   6.033   7.370   7.569  0.2204  0.7323 -0.3874
  800MOL0     C10304   5.886   7.409   7.548  0.0143  0.0309 -0.0232
  800MOL0     C10305   5.849   7.524   7.656 -1.3520  0.6688 -0.2659
  800MOL0     C10306   5.703   7.550   7.637 -1.5293  0.4318 -0.8460
  800MOL0    Cl10307   5.634   7.639   7.770  0.2904 -0.1581  0.0599
  800MOL0     C10308   6.245   7.056   8.116  0.4713  0.1306  0.2218
  800MOL0     C10309   6.302   7.068   8.244 -0.4789  0.1518 -1.0748
  800MOL0     O10310   6.584   6.866   8.404 -0.2579 -0.5984  0.7755
  800MOL0     C10311   6.562   7.070   8.678 -0.9957  1.0626  0.0591
  800MOL0     C10312   6.622   7.106   8.801 -0.5661 -0.1644 -0.3754
  800MOL0     N10313   6.968   7.532   9.412 -0.3392  0.1035 -0.1788
  800MOL0     N10314   6.927   7.516   9.530  0.3214 -0.4027  0.9528
  800MOL0     C10315   6.238   6.679  10.242 -0.2794 -0.3589 -0.5295
  800MOL0     C10316   6.105   6.645  10.273 -0.1641  1.2334 -0.0258
  800MOL0     C10317   5.636   6.678  10.349 -0.3168  1.1519  0.4603
  800MOL0     C10318   5.594   6.603  10.238  0.3343  0.6517  0.1694
  800MOL0     C10319   5.475   6.520  10.234  0.4488  0.5762 -0.1621
  800MOL0     C10320   5.374   6.540  10.324 -0.2291 -0.4430 -0.2058
  800MOL0     O10321   5.261   6.473  10.311  0.0769  0.1238  0.1076
  800MOL0     C10322   5.268   6.338  10.356 -0.2539  0.7626 -0.6320
  800MOL0     C10323   5.310   6.327  10.509 -0.6197 -0.0729  0.2146
  800MOL0     C10324   5.346   6.179  10.541 -0.5954  0.0254  0.3317
  800MOL0     C10325   5.472   6.118  10.469  0.5941 -0.0882 -0.9478
  800MOL0     C10326   5.583   6.209  10.455 -0.1054  0.0980  0.2982
  800MOL0     C10327   5.670   6.291  10.445  0.7489 -0.1949  0.4458
  800MOL0     C10328   5.408   6.628  10.425  0.2163  0.2662 -1.0354
  800MOL0     C10329   5.536   6.688  10.449 -1.2331 -0.0972  0.1574
  800MOL0     C10330   5.570   6.757  10.574  0.6299  0.2435 -0.2219
  800MOL0     H10331   5.938   6.904  10.161 -1.0195 -1.8044 -0.8564
  800MOL0     H10332   6.162   6.981  10.118 -0.5149 -0.0491 -1.1197
  800MOL0     H10333   6.435   6.699  10.048 -0.0306 -1.1136  1.2021
  800MOL0     H10334   6.503   6.700  10.209 -0.1957  1.6848  1.7857
  800MOL0     H10335   6.664   6.858  10.150 -0.8075 -3.8042  2.9718
  800MOL0     H10336   6.653   6.738  10.017 -3.3556  0.4512 -4.4390
  800MOL0     H10337   6.526   6.895   9.883  2.9243 -2.4365 -1.9014
  800MOL0     H10338   6.532   7.014  10.005 -0.7188 -0.0190 -0.9371
  800MOL0     H10339   6.786   6.997  10.021 -0.8009  0.2822 -0.4442
  800MOL0     H10340   6.781   6.869   9.901 -1.1766 -1.0748 -2.5764
  800MOL0     H10341   6.704   7.151   9.871  0.9779 -0.2770  0.5602
  800MOL0     H10342   6.714   7.046   9.726  1.6091  0.1887 -0.1344
  800MOL0     H10343   6.951   7.118   9.915 -1.7821 -4.2132  2.3803
  800MOL0     H10344   6.954   6.995   9.812 -2.4743 -0.5402 -0.4688
  800MOL0     H10345   6.923   7.112   9.605  0.8031  0.0711 -0.3120
  800MOL0     H10346   7.066   7.169   9.691  0.5078 -0.9714  1.7696
  800MOL0     H10347   6.793   7.329   9.663  0.0578  1.1251 -5.0597
  800MOL0     H10348   6.939   7.368   9.768  4.5441  1.1436 -2.5845
  800MOL0     H10349   7.075   7.237   9.448  0.9611  0.3500  0.5661
  800MOL0     H10350   7.150   7.351   9.204  0.2748 -1.3519  1.5744
  800MOL0     H10351   7.094   7.516   9.206  1.3448  0.4783  3.1422
  800MOL0     H10352   6.874   7.448   9.104 -0.9477  1.1201  0.7802
  800MOL0     H10353   7.005   7.370   9.020 -1.9156  1.4905 -1.1071
  800MOL0     H10354   6.962   7.154   9.122  0.7216  0.3847 -0.1732
  800MOL0     H10355   6.851   7.224   9.242  2.4372  2.2723  0.4764
  800MOL0     H10356   6.694   7.153   9.075 -1.9525 -1.1272 -3.9557
  800MOL0     H10357   6.736   7.305   8.988 -2.0037 -1.3489 -0.8796
  800MOL0     H10358   6.939   7.017   8.743 -0.9936 -2.4167  1.9508
  800MOL0     H10359   6.952   6.885   8.528 -0.9554  0.1337  3.3175
  800MOL0     H10360   6.910   7.018   8.423  0.0930  0.1992  0.2043
  800MOL0     H10361   6.806   6.874   8.419  1.7458 -1.5827  0.0014
  800MOL0     H10362   6.631   7.011   8.166 -0.0124 -0.2033  4.2823
  800MOL0     H10363   6.520   6.947   7.944  2.0364  0.1384  1.3482
  800MOL0     H10364   6.103   6.904   7.770  2.2399  2.1302 -2.5104
  800MOL0     H10365   6.095   6.919   7.954  3.6780  3.2635  2.8792
  800MOL0     H10366   5.973   7.114   7.853  0.4499  0.8045  3.9023
  800MOL0     H10367   6.135   7.167   7.900 -1.2073  0.1294 -1.6726
  800MOL0     H10368   6.052   7.093   7.614  0.3486 -1.3295  1.0176
  800MOL0     H10369   6.210   7.142   7.658  0.3296  1.5323 -0.2598
  800MOL0     H10370   6.130   7.343   7.761  0.3848  0.2456 -0.6046
  800MOL0     H10371   5.957   7.298   7.754  1.4971  1.3566  1.5217
  800MOL0     H10372   6.092   7.462   7.571 -1.1038  1.7551 -3.1539
  800MOL0     H10373   6.074   7.309   7.488  3.6856 -0.5480  2.1036
  800MOL0     H10374   5.816   7.326   7.553 -0.9026  0.8299  0.5536
  800MOL0     H10375   5.876   7.457   7.450 -1.0499  0.3355  0.2290
  800MOL0     H10376   5.908   7.616   7.648 -1.1818  0.6135  0.3821
  800MOL0     H10377   5.848   7.478   7.754 -1.1609 -1.5923 -1.2648
  800MOL0     H10378   5.655   7.452   7.641 -2.2901  0.8449  1.8862
  800MOL0     H10379   5.675   7.589   7.539  0.1688  1.6831 -0.8720
  800MOL0     H10380   6.138   7.072   8.110  0.4202 -0.3149 -0.0886
  800MOL0     H10381   6.233   7.098   8.322  0.4249 -3.1813  1.2003
  800MOL0     H10382   6.457   7.089   8.659 -1.8440 -3.7608 -1.3062
  800MOL0     H10383   6.563   7.151   8.881  0.9394 -1.7245  1.6975
  800MOL0     H10384   6.321   6.609  10.252  0.0564  0.1195  0.1316
  800MOL0     H10385   6.087   6.543  10.307  2.5127  0.3901 -0.9376
  800MOL0     H10386   5.659   6.600  10.151 -2.5428 -0.3499 -2.0847
  800MOL0     H10387   5.456   6.462  10.144 -3.9302  0.7045  0.4564
  800MOL0     H10388   5.172   6.291  10.332  0.8198 -1.6256 -0.5098
  800MOL0     H10389   5.335   6.283  10.290  1.0614 -0.2249  1.4288
  800MOL0     H10390   5.232   6.367  10.575 -1.0554 -0.5729  0.0010
  800MOL0     H10391   5.408   6.375  10.522  0.8091 -1.8544 -2.8811
  800MOL0     H10392   5.353   6.160  10.648  2.3169  1.9158  0.6095
  800MOL0     H10393   5.263   6.124  10.496 -1.0721  0.1866  1.0047
  800MOL0     H10394   5.437   6.079  10.374  0.6588 -1.8301 -0.2912
  800MOL0     H10395   5.509   6.034  10.529 -0.2738 -0.7581 -1.3372
  800MOL0     H10396   5.751   6.360  10.436 -0.6720  1.2376 -3.9477
  800MOL0     H10397   5.339   6.649  10.507 -0.5341  1.3824 -1.9100
  800MOL0     H10398   5.585   6.863  10.554  1.2954  0.7160  2.4152
  800MOL0     H10399   5.491   6.734  10.646  0.9922  1.3100  0.5369
  800MOL0     H10400   5.656   6.721  10.632  0.7532  2.2895  0.9535
  801MOL0     O10401   3.950   9.430   8.077  0.1348 -0.2940  0.1424
  801MOL0     C10402   3.904   9.373   8.180 -0.7234 -0.2632  0.1895
  801MOL0     O10403   3.968   9.383   8.298  0.4059 -0.2142 -0.7883
  801MOL0     C10404   4.086   9.454   8.295 -0.3666 -0.0160  0.3162
  801MOL0     C10405   4.087   9.594   8.294 -0.7965 -0.8508  0.3364
  801MOL0     C10406   4.211   9.657   8.298 -0.0754 -0.2475 -0.4274
  801MOL0     C10407   4.328   9.586   8.321 -0.4268 -0.0870 -0.1741
  801MOL0     O10408   4.440   9.659   8.337 -0.3478 -0.9669  0.2697
  801MOL0     C10409   4.548   9.600   8.413  0.6840 -0.1134 -0.3438
  801MOL0     C10410   4.677   9.679   8.400  0.7788 -0.2011 -0.1544
  801MOL0     C10411   4.739   9.637   8.260  1.0999  0.0888 -0.5693
  801MOL0     C10412   4.866   9.698   8.218  0.1694 -0.8752  0.9123
  801MOL0     C10413   4.994   9.643   8.279 -0.4730 -0.4399 -0.2281
  801MOL0     C10414   5.118   9.716   8.232  0.7110 -0.3548  0.7312
  801MOL0     C10415   5.170   9.667   8.093  0.1317 -0.4631 -0.1888
  801MOL0     C10416   5.289   9.743   8.052 -1.3048 -0.2681 -0.0847
  801MOL0     N10417   5.421   9.701   8.117  0.3579  0.1360  0.4819
  801MOL0     C10418   5.507   9.612   8.073 -0.5054  0.2647 -0.1093
  801MOL0     C10419   5.595   9.582   8.172 -0.3988  1.1284 -1.3116
  801MOL0     C10420   5.699   9.467   8.162  0.4429 -0.1304  0.0611
  801MOL0     C10421   5.685   9.374   8.282 -0.1693  0.3982  0.2157
  801MOL0     C10422   5.552   9.287   8.285  0.1416 -0.2298  1.1005
  801MOL0     C10423   5.563   9.180   8.398  0.8014 -0.4888 -0.2419
  801MOL0     O10424   5.470   9.079   8.357  0.2744 -0.1024  0.1648
  801MOL0     C10425   5.335   9.086   8.376 -0.3753 -0.9851 -0.0524
  801MOL0     C10426   5.265   8.972   8.345  0.0684  0.8923 -0.8960
  801MOL0     C10427   5.130   8.963   8.388 -0.0096  0.6810 -0.2012
  801MOL0     C10428   5.061   8.831   8.363  0.5298 -0.8493 -0.4509
  801MOL0     C10429   5.058   9.075   8.433 -0.6739 -0.0186 -0.5868
  801MOL0     C10430   4.928   9.074   8.477 -0.0163  0.3224 -0.2526
  801MOL0     O10431   4.835   9.128   8.402  0.6632 -0.2419  0.4319
  801MOL0     C10432   4.708   9.091   8.419  0.3652  0.2880  0.0470
  801MOL0     C10433   4.662   8.957   8.392 -0.2794 -0.1932  0.9579
  801MOL0     C10434   4.530   8.913   8.397 -1.0642 -0.6547 -0.5382
  801MOL0     C10435   4.436   8.999   8.458  0.5491 -0.1003 -0.6632
  801MOL0     O10436   4.302   8.952   8.461  0.7902 -0.6134  0.4419
  801MOL0     C10437   4.204   9.025   8.537 -0.2395  0.2596  0.0493
  801MOL0     C10438   4.079   8.944   8.494  0.6043  0.7951  1.6012
  801MOL0     C10439   3.979   8.931   8.606 -0.2798  1.0425 -0.1008
  801MOL0     C10440   3.912   9.068   8.632 -0.0274  0.1692 -0.1685
  801MOL0     C10441   3.807   9.065   8.738  0.1852  0.6012 -0.1956
  801MOL0     C10442   3.858   9.024   8.873  0.0051  1.7527 -0.7706
  801MOL0     C10443   3.734   8.989   8.961 -0.5333  0.0589  0.3109
  801MOL0     C10444   3.786   8.994   9.108 -0.0111 -0.1060 -0.7726
  801MOL0    Cl10445   3.655   8.947   9.216  0.4955 -0.2876 -0.0879
  801MOL0     C10446   4.484   9.129   8.505 -0.6397  0.3924  0.3002
  801MOL0     C10447   4.618   9.173   8.477 -0.5047 -0.2472  0.5878
  801MOL0     O10448   4.917   9.036   8.592  0.0385  0.0840 -0.3749
  801MOL0     C10449   5.130   9.197   8.448  0.4506  0.2679 -0.1064
  801MOL0     C10450   5.265   9.201   8.432 -0.4775  0.3562 -0.3883
  801MOL0     N10451   5.563   9.669   8.277 -0.7395  0.2940 -0.2915
  801MOL0     N10452   5.456   9.727   8.241  0.2280 -0.0094  0.3983
  801MOL0     C10453   4.330   9.447   8.318  0.7694  0.6719  0.2484
  801MOL0     C10454   4.208   9.382   8.310 -0.0617 -0.0354  0.6250
  801MOL0     C10455   3.784   9.286   8.186 -0.7063 -0.5479 -0.7555
  801MOL0     C10456   3.739   9.252   8.322  0.5873 -0.7008  0.4021
  801MOL0     C10457   3.627   9.165   8.332 -0.2668  0.1957 -0.2113
  801MOL0     C10458   3.573   9.104   8.213  0.3299 -0.2035 -0.8455
  801MOL0     O10459   3.471   9.003   8.210 -0.4259  0.7668  0.1069
  801MOL0     C10460   3.409   8.974   8.334  0.1686 -0.6588 -0.2750
  801MOL0     C10461   3.306   9.086   8.376 -0.1520 -0.3565  1.0129
  801MOL0     C10462   3.173   9.095   8.297 -0.1734  0.7080  0.5038
  801MOL0     C10463   3.105   8.958   8.280 -0.2107 -0.5789 -0.4541
  801MOL0     C10464   3.055   8.916   8.418 -0.4420  0.2139 -0.5650
  801MOL0     C10465   3.011   8.882   8.522  0.0586 -0.6602 -0.7012
  801MOL0     C10466   3.608   9.156   8.088 -0.6364 -0.8652 -1.0200
  801MOL0     C10467   3.719   9.239   8.076 -0.3062  1.1274 -0.0582
  801MOL0     C10468   3.740   9.311   7.944 -0.1676 -0.1474 -0.2558
  801MOL0     H10469   3.994   9.650   8.301  1.5548  3.2877  2.4583
  801MOL0     H10470   4.208   9.765   8.307 -0.7180 -0.3740  1.1574
  801MOL0     H10471   4.566   9.500   8.371  1.5457 -0.3501  0.5540
  801MOL0     H10472   4.509   9.595   8.515 -2.6402 -0.3590 -1.5073
  801MOL0     H10473   4.660   9.787   8.392  3.8800  0.4711  0.9190
  801MOL0     H10474   4.746   9.668   8.485  2.2357 -0.5155 -1.3414
  801MOL0     H10475   4.743   9.530   8.243 -0.8432  0.3060 -2.9291
  801MOL0     H10476   4.665   9.671   8.186  1.3404  0.9214 -0.4452
  801MOL0     H10477   4.867   9.685   8.109 -1.2293  1.7235  0.5266
  801MOL0     H10478   4.863   9.807   8.227  1.5041 -0.0791 -4.5485
  801MOL0     H10479   5.002   9.539   8.244  2.9415 -0.5440  0.5304
  801MOL0     H10480   4.993   9.638   8.388  2.3140 -0.4717 -0.1335
  801MOL0     H10481   5.095   9.823   8.237 -0.2087 -0.5431  0.7583
  801MOL0     H10482   5.195   9.700   8.308  1.3391 -0.1715  0.1345
  801MOL0     H10483   5.091   9.680   8.019  0.4242 -4.0837 -1.3341
  801MOL0     H10484   5.193   9.560   8.090  1.5773 -0.1883  0.4482
  801MOL0     H10485   5.289   9.726   7.944  1.7200 -1.5394  0.0168
  801MOL0     H10486   5.264   9.849   8.067  2.3174  1.0231 -1.8058
  801MOL0     H10487   5.513   9.562   7.976 -0.3764 -3.2076  1.5250
  801MOL0     H10488   5.800   9.499   8.135 -0.3294  0.1509 -2.8596
  801MOL0     H10489   5.668   9.399   8.082  1.3225  0.0227 -0.4274
  801MOL0     H10490   5.771   9.306   8.284 -0.0783  0.5083  2.2338
  801MOL0     H10491   5.693   9.436   8.372  1.0553 -0.6329  0.8583
  801MOL0     H10492   5.468   9.356   8.294  0.4273  0.5272 -1.4280
  801MOL0     H10493   5.538   9.235   8.190  0.7227  2.7205 -0.7369
  801MOL0     H10494   5.664   9.143   8.419  0.1155 -1.0244  2.3885
  801MOL0     H10495   5.539   9.208   8.501 -0.5274 -2.0639 -0.0832
  801MOL0     H10496   5.312   8.879   8.317 -0.0406  0.7064 -0.4790
  801MOL0     H10497   5.132   8.749   8.379 -0.4476 -1.3171  1.8420
  801MOL0     H10498   5.020   8.829   8.261 -0.7238  0.9247 -0.0217
  801MOL0     H10499   4.981   8.812   8.435 -2.4604  0.6060 -3.1130
  801MOL0     H10500   4.732   8.899   8.333  1.9960  2.6206  0.6801
  801MOL0     H10501   4.486   8.816   8.374  0.0392 -1.3121  0.0568
  801MOL0     H10502   4.225   8.998   8.641 -0.8708 -5.2572 -0.9496
  801MOL0     H10503   4.203   9.132   8.518 -1.0758 -0.2166 -3.2372
  801MOL0     H10504   4.044   8.976   8.396  0.4167 -1.9278  0.7103
  801MOL0     H10505   4.109   8.845   8.460 -0.3419  1.3700 -1.1346
  801MOL0     H10506   4.031   8.893   8.695 -3.0588  1.4710  1.8395
  801MOL0     H10507   3.901   8.861   8.574  1.4835 -1.6659  1.1014
  801MOL0     H10508   3.869   9.090   8.534  0.0951 -4.4458 -1.5217
  801MOL0     H10509   3.990   9.144   8.643  0.8038 -0.5681 -0.7262
  801MOL0     H10510   3.773   9.166   8.764  1.0106  0.1131  3.0966
  801MOL0     H10511   3.722   9.001   8.714  1.4499 -0.5324 -1.8662
  801MOL0     H10512   3.922   9.103   8.912  0.9752  0.5028  0.2910
  801MOL0     H10513   3.917   8.933   8.856  0.9823  2.6078 -2.1670
  801MOL0     H10514   3.714   8.883   8.939  4.4324 -0.8322 -1.1993
  801MOL0     H10515   3.646   9.052   8.948 -1.3847 -0.9776  0.8084
  801MOL0     H10516   3.828   9.090   9.136  2.2768 -0.8358 -1.5290
  801MOL0     H10517   3.867   8.922   9.120  0.0154  0.1262  0.5129
  801MOL0     H10518   4.416   9.188   8.566 -2.4865 -1.8761  0.5914
  801MOL0     H10519   4.649   9.262   8.530 -1.3562 -0.6594  1.8165
  801MOL0     H10520   5.075   9.278   8.495  1.2644 -0.2160  1.7777
  801MOL0     H10521   5.305   9.297   8.466 -0.6322 -0.0453  1.0171
  801MOL0     H10522   4.416   9.382   8.326 -0.7989 -1.6181 -0.2973
  801MOL0     H10523   4.205   9.274   8.302 -3.8565  0.0894 -3.0418
  801MOL0     H10524   3.782   9.292   8.414 -1.4819  0.0563  1.1107
  801MOL0     H10525   3.596   9.143   8.434 -0.6821  0.8366 -0.1905
  801MOL0     H10526   3.359   8.877   8.340 -0.4859 -0.2472  2.7043
  801MOL0     H10527   3.483   8.970   8.415  1.5751  0.4078 -1.4462
  801MOL0     H10528   3.351   9.185   8.374 -2.7315  0.8915  0.6595
  801MOL0     H10529   3.275   9.066   8.479 -2.2708  2.5004  1.0631
  801MOL0     H10530   3.107   9.170   8.340  2.7900  4.8004 -1.3172
  801MOL0     H10531   3.196   9.133   8.197  0.9778  2.4571  1.3779
  801MOL0     H10532   3.172   8.880   8.242  0.0101 -0.6589  0.1035
  801MOL0     H10533   3.021   8.972   8.211 -0.0700 -1.1607 -0.7493
  801MOL0     H10534   2.987   8.853   8.623  0.8082 -0.7522 -0.5469
  801MOL0     H10535   3.542   9.123   8.009 -3.8590 -0.6444  1.3689
  801MOL0     H10536   3.670   9.279   7.866  1.0444 -3.5384 -0.1310
  801MOL0     H10537   3.717   9.413   7.976 -1.2745 -0.4940  0.0758
  801MOL0     H10538   3.845   9.298   7.914  1.3380  2.4905  3.1925
  802MOL0     O10539   2.344   6.936   3.293 -0.5171  0.7410  0.6319
  802MOL0     C10540   2.281   7.028   3.246  0.7295  0.1570  0.3705
  802MOL0     O10541   2.173   7.013   3.163 -0.3488 -1.4387 -1.1901
  802MOL0     C10542   2.159   6.896   3.102  0.6953  0.1986 -0.8094
  802MOL0     C10543   2.043   6.820   3.120  0.1372 -0.5908 -0.3130
  802MOL0     C10544   2.024   6.702   3.044 -0.2575  0.7530  0.5215
  802MOL0     C10545   2.115   6.660   2.951  0.0916 -0.4547  0.1826
  802MOL0     O10546   2.123   6.551   2.878  0.5566 -0.2424  0.1024
  802MOL0     C10547   2.112   6.424   2.941  0.3669  0.2785  0.1686
  802MOL0     C10548   2.116   6.305   2.844 -0.1715 -0.7720 -0.9449
  802MOL0     C10549   2.265   6.285   2.816  0.4852  0.6786 -0.6183
  802MOL0     C10550   2.313   6.227   2.688  0.5560  0.7920  1.3846
  802MOL0     C10551   2.285   6.080   2.679  0.1034  0.7350  0.8599
  802MOL0     C10552   2.364   6.015   2.574 -0.5507  0.4468  1.2408
  802MOL0     C10553   2.301   5.887   2.534 -0.9530 -0.0098  0.3013
  802MOL0     C10554   2.374   5.838   2.415 -0.7979  0.3808 -0.3857
  802MOL0     N10555   2.301   5.726   2.361  0.1236  0.1590  0.5455
  802MOL0     C10556   2.316   5.599   2.411  0.0027 -0.1867  0.4525
  802MOL0     C10557   2.232   5.526   2.330  0.2596  0.1654  0.1883
  802MOL0     C10558   2.212   5.373   2.347  0.0799 -0.2631 -0.8197
  802MOL0     C10559   2.148   5.322   2.220 -0.8961  0.7326  1.2119
  802MOL0     C10560   2.129   5.168   2.231  0.8018 -0.2635 -0.5023
  802MOL0     C10561   2.020   5.113   2.326 -0.2037 -0.2963 -0.4204
  802MOL0     O10562   1.887   5.143   2.275  0.0768 -0.6965  0.3016
  802MOL0     C10563   1.834   5.097   2.157  0.4199 -0.2492 -0.1881
  802MOL0     C10564   1.851   4.976   2.097  0.0100  0.7508  0.6801
  802MOL0     C10565   1.796   4.934   1.979 -0.3678  0.1763  0.2359
  802MOL0     C10566   1.827   4.789   1.942  0.2009 -0.7072  0.0870
  802MOL0     C10567   1.721   5.025   1.900  0.7296 -0.3284 -0.5759
  802MOL0     C10568   1.646   4.978   1.776 -0.7312 -0.4227  0.5741
  802MOL0     O10569   1.601   5.073   1.687 -0.1278  0.5399  0.0342
  802MOL0     C10570   1.543   5.027   1.563  0.2419  0.3253 -0.0419
  802MOL0     C10571   1.420   4.963   1.559  0.9276  0.3792 -0.1483
  802MOL0     C10572   1.350   4.932   1.433 -0.0624  0.0563  0.4085
  802MOL0     C10573   1.412   4.965   1.319 -0.7018 -0.1420 -0.2467
  802MOL0     O10574   1.341   4.939   1.214 -0.1318 -0.2013  0.0276
  802MOL0     C10575   1.394   4.882   1.092 -0.1818 -0.4756 -0.0664
  802MOL0     C10576   1.324   4.931   0.963  0.6310 -0.1855  0.5872
  802MOL0     C10577   1.368   4.859   0.834  0.1080  0.5682  0.3788
  802MOL0     C10578   1.325   4.725   0.827  0.5655  0.5605 -0.0226
  802MOL0     C10579   1.400   4.649   0.705 -0.6920 -0.3672  0.1258
  802MOL0     C10580   1.345   4.512   0.695  1.4337 -1.0769  0.3442
  802MOL0     C10581   1.399   4.451   0.567  0.4733  0.1988  0.3824
  802MOL0     C10582   1.349   4.310   0.549  0.3254  0.5879 -0.8049
  802MOL0    Cl10583   1.398   4.187   0.677  0.8756 -0.0026 -0.0761
  802MOL0     C10584   1.533   5.031   1.326 -0.0141  0.1710  0.2197
  802MOL0     C10585   1.604   5.062   1.442  0.5313 -0.2662 -0.3250
  802MOL0     O10586   1.640   4.860   1.761  0.4243 -0.0119  0.3612
  802MOL0     C10587   1.688   5.150   1.960 -0.7576 -0.0165 -0.1979
  802MOL0     C10588   1.748   5.185   2.084  0.5196  0.6011  0.2902
  802MOL0     N10589   2.160   5.613   2.253  0.8258 -0.5263  0.5514
  802MOL0     N10590   2.196   5.731   2.276  0.6317 -0.2552  0.0605
  802MOL0     C10591   2.226   6.744   2.930  0.2825  0.1609 -0.5934
  802MOL0     C10592   2.249   6.858   3.002 -0.6128 -0.9011 -0.3321
  802MOL0     C10593   2.300   7.160   3.316 -0.3604  0.2744  0.2186
  802MOL0     C10594   2.193   7.235   3.349  0.6624 -0.1624  0.7461
  802MOL0     C10595   2.204   7.357   3.408 -0.3080 -0.1092  0.8546
  802MOL0     C10596   2.334   7.398   3.454  0.2474  0.3662  0.0802
  802MOL0     O10597   2.326   7.516   3.522 -0.4998 -1.1542 -0.2024
  802MOL0     C10598   2.455   7.550   3.587 -0.9302  0.2037 -0.5245
  802MOL0     C10599   2.446   7.690   3.656 -0.0635 -0.1015  0.4084
  802MOL0     C10600   2.381   7.800   3.579  0.0768  0.6799 -0.4886
  802MOL0     C10601   2.370   7.940   3.636 -0.0871  1.1325 -0.1985
  802MOL0     C10602   2.280   8.005   3.544 -0.7654 -0.3186 -0.1290
  802MOL0     C10603   2.195   8.068   3.483 -0.1571 -0.6189  0.5288
  802MOL0     C10604   2.451   7.327   3.422  0.3265  0.4748  0.6920
  802MOL0     C10605   2.432   7.199   3.366 -0.3029 -0.1968 -0.7738
  802MOL0     C10606   2.567   7.137   3.321  0.5715  0.0406  0.3206
  802MOL0     H10607   1.962   6.875   3.168  3.2723  6.3427 -1.7334
  802MOL0     H10608   1.936   6.643   3.069  1.4937 -2.0132  0.6443
  802MOL0     H10609   2.030   6.416   3.013  1.6377  1.4077  1.8193
  802MOL0     H10610   2.199   6.415   3.006  0.1391  2.4370  0.8612
  802MOL0     H10611   2.065   6.217   2.884 -0.3013 -0.7729 -1.1066
  802MOL0     H10612   2.073   6.341   2.750  4.4670  2.3041 -2.2479
  802MOL0     H10613   2.307   6.385   2.804  1.0095  0.2157 -3.2690
  802MOL0     H10614   2.328   6.247   2.898 -0.0956  0.3095 -0.3396
  802MOL0     H10615   2.289   6.287   2.600 -0.4993 -1.9743 -0.3645
  802MOL0     H10616   2.421   6.240   2.700  1.0909 -1.4966 -0.3052
  802MOL0     H10617   2.177   6.069   2.663  0.5847  1.1621 -3.7903
  802MOL0     H10618   2.306   6.037   2.778 -2.5187  3.0845  2.6134
  802MOL0     H10619   2.375   6.084   2.490 -0.3231  1.0531  1.7612
  802MOL0     H10620   2.463   5.991   2.613  0.2708 -3.6123 -2.4947
  802MOL0     H10621   2.198   5.894   2.498 -0.9828 -0.8720  0.2016
  802MOL0     H10622   2.314   5.810   2.611 -0.3184  1.6234  1.9303
  802MOL0     H10623   2.382   5.907   2.330  0.8590 -2.4160 -2.6825
  802MOL0     H10624   2.477   5.808   2.435 -1.2848 -0.5168  0.9855
  802MOL0     H10625   2.381   5.567   2.491  1.7566  2.2718  0.1207
  802MOL0     H10626   2.142   5.357   2.429 -0.1158 -1.8131 -1.2712
  802MOL0     H10627   2.309   5.325   2.366 -1.2698 -2.3354  1.3165
  802MOL0     H10628   2.049   5.366   2.206 -1.7532  0.1573  4.5477
  802MOL0     H10629   2.208   5.341   2.131 -1.3246 -2.6104  0.0695
  802MOL0     H10630   2.101   5.124   2.135 -1.0040  0.2009 -0.2331
  802MOL0     H10631   2.214   5.108   2.264  1.1076  1.0680  1.3205
  802MOL0     H10632   2.027   5.005   2.343  1.4679 -0.0414  0.8174
  802MOL0     H10633   2.008   5.166   2.421 -0.8646  2.0759 -1.7427
  802MOL0     H10634   1.926   4.913   2.143 -1.7836 -1.6638  0.5389
  802MOL0     H10635   1.850   4.789   1.835 -0.9109  0.2652 -0.1846
  802MOL0     H10636   1.744   4.721   1.962 -0.6506  0.4563  0.6662
  802MOL0     H10637   1.912   4.743   1.992  1.0485 -0.1773 -0.8150
  802MOL0     H10638   1.369   4.933   1.650  4.7737 -0.7307  1.8350
  802MOL0     H10639   1.248   4.896   1.442 -0.6727  2.1248  3.3497
  802MOL0     H10640   1.497   4.915   1.079 -0.8104  1.4329 -0.6904
  802MOL0     H10641   1.396   4.773   1.090  3.1770 -0.5021 -1.1234
  802MOL0     H10642   1.217   4.922   0.984  0.7479  1.4871  2.1804
  802MOL0     H10643   1.339   5.040   0.958  4.1601 -0.5292  0.9506
  802MOL0     H10644   1.477   4.856   0.830  0.0970 -0.4718  0.6324
  802MOL0     H10645   1.341   4.910   0.741 -1.5155  0.4959  0.7793
  802MOL0     H10646   1.218   4.723   0.802  0.2305 -1.2496  1.3476
  802MOL0     H10647   1.333   4.679   0.926  1.1169  4.0926  1.7203
  802MOL0     H10648   1.399   4.707   0.612 -2.3978 -0.6786 -0.0780
  802MOL0     H10649   1.504   4.630   0.731 -0.7609  0.5300  1.1263
  802MOL0     H10650   1.236   4.504   0.707  1.7171 -3.9601  1.7597
  802MOL0     H10651   1.379   4.450   0.778 -0.9103 -1.1384  1.3286
  802MOL0     H10652   1.504   4.459   0.539  0.3762  1.9942  0.3989
  802MOL0     H10653   1.339   4.503   0.492 -1.0374 -1.4273  0.3867
  802MOL0     H10654   1.371   4.280   0.447 -3.1809 -5.3761 -0.2802
  802MOL0     H10655   1.241   4.315   0.533  0.0326  0.6689  0.9214
  802MOL0     H10656   1.554   5.068   1.226  0.4166  3.5031  1.4278
  802MOL0     H10657   1.690   5.128   1.441  0.7614 -0.3815  2.5891
  802MOL0     H10658   1.620   5.220   1.913 -3.3168 -3.0784 -1.4889
  802MOL0     H10659   1.717   5.279   2.128 -1.6298  0.4257 -0.7256
  802MOL0     H10660   2.291   6.713   2.848 -0.2473 -2.4995 -0.1032
  802MOL0     H10661   2.336   6.921   2.986 -1.6189  0.5412 -0.3295
  802MOL0     H10662   2.096   7.201   3.315  0.8303 -1.6723  1.6867
  802MOL0     H10663   2.126   7.431   3.420  1.8349  2.4241  0.1414
  802MOL0     H10664   2.476   7.467   3.655  0.3874  1.4010  0.6082
  802MOL0     H10665   2.540   7.551   3.517 -1.3208 -0.1892 -1.0058
  802MOL0     H10666   2.543   7.718   3.699  0.4263  0.4042 -0.9534
  802MOL0     H10667   2.367   7.678   3.731 -2.0487 -1.8946 -1.8361
  802MOL0     H10668   2.424   7.800   3.478  0.1983 -3.4454 -0.5991
  802MOL0     H10669   2.279   7.767   3.559  0.0387  0.4124  0.1280
  802MOL0     H10670   2.468   7.988   3.637  0.8535 -0.6878 -1.3091
  802MOL0     H10671   2.333   7.934   3.739 -1.7457 -1.4617 -0.8547
  802MOL0     H10672   2.120   8.123   3.430  2.9595  0.2834 -3.5112
  802MOL0     H10673   2.554   7.363   3.422  0.3982  0.2821  1.2195
  802MOL0     H10674   2.559   7.038   3.277 -1.6273  0.0045  0.6721
  802MOL0     H10675   2.622   7.211   3.263  3.3728  1.1375  4.0306
  802MOL0     H10676   2.648   7.117   3.392  0.9735 -1.8659 -0.6193
  803MOL0     O10677   8.766   6.852   7.973 -0.3465  0.1475  0.1497
  803MOL0     C10678   8.796   6.969   7.946  0.0669  1.6683  0.1826
  803MOL0     O10679   8.927   7.005   7.914 -0.2343 -0.0010 -0.0178
  803MOL0     C10680   9.019   6.906   7.913  0.1603  0.9415  0.6773
  803MOL0     C10681   9.068   6.834   8.032 -0.2260 -0.5963  0.5584
  803MOL0     C10682   9.172   6.745   8.028  0.5500  0.3461  0.6707
  803MOL0     C10683   9.226   6.718   7.897  0.5954  0.5962 -0.2560
  803MOL0     O10684   9.323   6.624   7.896 -0.1645 -0.2422 -0.1453
  803MOL0     C10685   9.404   6.599   7.778  0.1628 -0.4760 -0.4804
  803MOL0     C10686   9.486   6.474   7.780  0.4813  0.4100  0.2235
  803MOL0     C10687   9.605   6.463   7.888 -1.0126 -0.7677 -0.9896
  803MOL0     C10688   9.602   6.345   7.985  0.6177  0.2619 -1.0004
  803MOL0     C10689   9.475   6.373   8.074 -0.0379  0.4615 -0.4818
  803MOL0     C10690   9.464   6.267   8.179 -0.5886  0.2293  0.0702
  803MOL0     C10691   9.463   6.127   8.129  0.2074  0.6358 -0.4147
  803MOL0     C10692   9.415   6.042   8.244  0.2870 -0.7593 -0.0454
  803MOL0     N10693   9.394   5.901   8.214  0.2273 -0.2719  0.2530
  803MOL0     C10694   9.303   5.848   8.127  0.4384  0.2120 -0.9777
  803MOL0     C10695   9.325   5.710   8.133  0.1029  0.5771  0.7113
  803MOL0     C10696   9.259   5.608   8.052  0.2919  0.8473  0.2753
  803MOL0     C10697   9.163   5.531   8.129 -0.3540  0.5107 -1.0686
  803MOL0     C10698   9.113   5.417   8.049  0.0377  0.1861 -0.9805
  803MOL0     C10699   9.020   5.334   8.144  0.9203 -0.3101  0.1267
  803MOL0     O10700   8.978   5.225   8.072  0.3442  0.6723  0.3101
  803MOL0     C10701   8.848   5.221   8.012  0.2752  0.4739 -0.0483
  803MOL0     C10702   8.752   5.328   8.000  0.0725  0.5659 -0.2545
  803MOL0     C10703   8.624   5.300   7.931  0.1231 -0.2251  0.2223
  803MOL0     C10704   8.538   5.416   7.898 -0.4879 -0.0534 -0.7896
  803MOL0     C10705   8.605   5.178   7.878 -0.4206 -0.1446 -0.1624
  803MOL0     C10706   8.495   5.135   7.793 -0.2033  0.3447 -0.4413
  803MOL0     O10707   8.536   5.079   7.676  0.3156 -0.1412 -0.4608
  803MOL0     C10708   8.455   4.999   7.598 -0.5325 -0.3962 -0.2203
  803MOL0     C10709   8.367   4.906   7.649 -0.5505  0.2586 -0.3001
  803MOL0     C10710   8.271   4.842   7.566 -0.7301 -0.3209  0.6060
  803MOL0     C10711   8.286   4.853   7.424 -0.9234 -0.0849 -1.1052
  803MOL0     O10712   8.188   4.812   7.342  0.0884  0.1647  0.0276
  803MOL0     C10713   8.178   4.860   7.212 -0.4542 -0.6434  0.0162
  803MOL0     C10714   8.036   4.808   7.162 -0.7035 -0.2311 -1.1131
  803MOL0     C10715   8.035   4.644   7.150  0.5487 -0.0043 -0.1914
  803MOL0     C10716   7.913   4.608   7.074 -0.4481  0.0569  0.5039
  803MOL0     C10717   7.885   4.461   7.078 -0.5388 -0.3111 -0.7692
  803MOL0     C10718   7.856   4.396   7.213  0.6744 -0.8828  0.2840
  803MOL0     C10719   7.755   4.481   7.293  0.2144  1.0134  0.5583
  803MOL0     C10720   7.618   4.501   7.222 -0.2240 -0.1005  0.1306
  803MOL0    Cl10721   7.527   4.349   7.232 -0.0893 -0.5469  0.1242
  803MOL0     C10722   8.393   4.924   7.372 -1.4428 -0.2662 -0.5480
  803MOL0     C10723   8.475   4.998   7.461  0.0560  0.1960  0.3483
  803MOL0     O10724   8.374   5.158   7.818 -0.9552 -0.4509  0.2618
  803MOL0     C10725   8.699   5.076   7.898  0.7752 -0.6633  0.5757
  803MOL0     C10726   8.817   5.096   7.960  0.1445  0.5384  0.5085
  803MOL0     N10727   9.425   5.689   8.224 -0.6247  0.9037 -0.2166
  803MOL0     N10728   9.471   5.803   8.269  1.1235 -0.6050  0.2158
  803MOL0     C10729   9.177   6.776   7.778 -0.1310  0.0125 -0.2750
  803MOL0     C10730   9.073   6.870   7.788  0.1852  0.7147  0.2241
  803MOL0     C10731   8.691   7.061   7.966 -0.0099  0.1291  0.9740
  803MOL0     C10732   8.720   7.188   7.930  0.6492 -0.2193  0.6359
  803MOL0     C10733   8.624   7.296   7.942 -0.1817  0.8880  0.5028
  803MOL0     C10734   8.496   7.268   7.976 -0.4068  1.3357 -0.8054
  803MOL0     O10735   8.406   7.372   7.961  0.6880 -0.0021 -0.2093
  803MOL0     C10736   8.274   7.351   8.004  0.4558 -0.7629 -0.1272
  803MOL0     C10737   8.206   7.482   7.999  0.3508  0.4166 -0.0979
  803MOL0     C10738   8.246   7.566   7.884  1.4340  0.0332  0.6261
  803MOL0     C10739   8.212   7.502   7.748 -0.9686  0.1830  0.0169
  803MOL0     C10740   8.308   7.402   7.686 -0.8373 -0.5501  1.0255
  803MOL0     C10741   8.394   7.324   7.641  0.5168 -0.9363 -0.3415
  803MOL0     C10742   8.461   7.135   8.006 -0.2192 -0.7407  1.4710
  803MOL0     C10743   8.559   7.029   8.018 -0.9299  0.3876 -0.4211
  803MOL0     C10744   8.499   6.907   8.079 -0.0646 -0.5185  0.6930
  803MOL0     H10745   9.025   6.860   8.128 -2.1787 -0.1782 -0.3703
  803MOL0     H10746   9.210   6.689   8.112  1.1308  0.7171  0.6663
  803MOL0     H10747   9.483   6.672   7.763  0.4490 -0.5388  0.6498
  803MOL0     H10748   9.343   6.602   7.687  0.0353 -0.0701 -0.3793
  803MOL0     H10749   9.412   6.398   7.805 -0.2265  1.9711  3.6018
  803MOL0     H10750   9.532   6.468   7.681  1.7272 -0.2971  0.8229
  803MOL0     H10751   9.702   6.453   7.840 -0.6843 -0.1746 -0.4665
  803MOL0     H10752   9.602   6.548   7.957 -3.5383 -2.6742  1.5048
  803MOL0     H10753   9.592   6.252   7.928  4.8477 -0.0541 -1.5378
  803MOL0     H10754   9.689   6.342   8.051 -2.2343 -3.0553  3.2090
  803MOL0     H10755   9.384   6.380   8.013 -0.7006 -2.6452 -0.0010
  803MOL0     H10756   9.497   6.474   8.109  3.1667 -0.8558  1.8178
  803MOL0     H10757   9.556   6.274   8.237  0.3668 -0.1916 -1.3410
  803MOL0     H10758   9.377   6.283   8.243 -1.2459 -3.2622  0.2740
  803MOL0     H10759   9.562   6.092   8.098  1.0504  2.7916 -0.3066
  803MOL0     H10760   9.394   6.113   8.045 -3.4812 -0.5593  2.5366
  803MOL0     H10761   9.486   6.035   8.326 -1.6079  0.3704  1.7982
  803MOL0     H10762   9.322   6.064   8.297 -0.6001  0.5733 -2.0427
  803MOL0     H10763   9.220   5.899   8.079 -0.7789  0.1034  0.8699
  803MOL0     H10764   9.349   5.549   8.030 -0.8751 -0.6758 -0.6170
  803MOL0     H10765   9.207   5.644   7.963 -1.2167 -5.0106 -1.6893
  803MOL0     H10766   9.203   5.494   8.224 -0.2380 -1.6259 -1.8993
  803MOL0     H10767   9.083   5.599   8.157 -0.9484  0.1255 -1.8184
  803MOL0     H10768   9.057   5.454   7.962 -0.4861  0.8095 -0.3816
  803MOL0     H10769   9.198   5.354   8.017  0.3627  0.2492 -0.2480
  803MOL0     H10770   9.074   5.299   8.232  2.0575 -0.8432 -0.7530
  803MOL0     H10771   8.934   5.390   8.182  1.8196 -0.3572  2.3946
  803MOL0     H10772   8.760   5.432   8.031  1.8368  0.1464  0.8257
  803MOL0     H10773   8.600   5.505   7.886 -0.9416 -0.0848 -5.4496
  803MOL0     H10774   8.455   5.438   7.966 -0.7507 -1.3805 -0.6516
  803MOL0     H10775   8.510   5.407   7.792 -0.9921 -1.4191 -0.5605
  803MOL0     H10776   8.370   4.901   7.757  0.3417  3.2000 -0.1057
  803MOL0     H10777   8.191   4.781   7.605 -0.7903 -0.6565 -0.0327
  803MOL0     H10778   8.173   4.969   7.218  3.0584 -0.3836  0.5364
  803MOL0     H10779   8.265   4.843   7.147 -0.5300  1.7545 -0.8257
  803MOL0     H10780   7.962   4.839   7.236  0.1985 -2.5964  0.9379
  803MOL0     H10781   8.021   4.862   7.068  0.1724  2.1626  0.0435
  803MOL0     H10782   8.036   4.612   7.254 -2.7398  1.1534  0.2956
  803MOL0     H10783   8.118   4.598   7.096  2.7078  1.8222  1.3955
  803MOL0     H10784   7.943   4.633   6.972  1.9955  0.6392  1.2942
  803MOL0     H10785   7.833   4.682   7.089  0.8635  1.9087 -1.0982
  803MOL0     H10786   7.817   4.420   7.003 -0.8048  0.8713 -1.2079
  803MOL0     H10787   7.980   4.419   7.044  0.1847  0.8150 -0.2170
  803MOL0     H10788   7.945   4.372   7.271 -0.3425  0.1849  2.4418
  803MOL0     H10789   7.800   4.304   7.193 -0.3482 -0.0693 -0.7647
  803MOL0     H10790   7.801   4.580   7.301 -1.1357  1.5896  1.6296
  803MOL0     H10791   7.732   4.451   7.396 -0.1020  2.9396  1.0726
  803MOL0     H10792   7.630   4.527   7.117 -0.6148 -0.4391 -0.0028
  803MOL0     H10793   7.548   4.568   7.273 -1.6849 -3.2587  2.6425
  803MOL0     H10794   8.404   4.942   7.265  1.3295 -1.5245 -0.5783
  803MOL0     H10795   8.546   5.060   7.408  3.3718 -1.3366  2.6622
  803MOL0     H10796   8.683   4.976   7.858  1.3849 -1.3278  1.9383
  803MOL0     H10797   8.875   5.005   7.969 -2.9515 -1.6511 -0.1001
  803MOL0     H10798   9.209   6.771   7.674  0.8054  0.6060 -0.0250
  803MOL0     H10799   9.035   6.928   7.705 -0.6953  0.3717  0.3747
  803MOL0     H10800   8.813   7.219   7.882  0.1010 -0.0171 -0.3121
  803MOL0     H10801   8.638   7.398   7.909 -4.1732  1.0264 -1.4603
  803MOL0     H10802   8.226   7.303   7.919  0.3457  4.4976 -3.4912
  803MOL0     H10803   8.270   7.295   8.098  3.2144 -3.0338 -1.2050
  803MOL0     H10804   8.224   7.531   8.096 -2.1715 -1.0464  1.2158
  803MOL0     H10805   8.097   7.469   8.000  0.5891 -2.9193  2.9734
  803MOL0     H10806   8.188   7.658   7.884 -0.0346 -0.8566  1.7447
  803MOL0     H10807   8.352   7.592   7.890  1.2555  0.8497  0.3880
  803MOL0     H10808   8.208   7.584   7.677  1.8353  2.6537  2.4055
  803MOL0     H10809   8.112   7.458   7.756  0.4381 -3.1271  1.7478
  803MOL0     H10810   8.459   7.255   7.591  1.0080  1.2089 -2.8822
  803MOL0     H10811   8.361   7.097   8.025 -0.1536 -0.7348  1.8318
  803MOL0     H10812   8.428   6.862   8.009 -3.1239  1.3276  2.3808
  803MOL0     H10813   8.574   6.832   8.106  1.3546  1.3768  2.3640
  803MOL0     H10814   8.440   6.929   8.168 -0.1996 -0.7195  0.6530
  804MOL0     O10815   8.939  10.074   4.010  0.4916 -0.1020 -0.1104
  804MOL0     C10816   8.885  10.132   3.919  0.5778 -0.5854  0.4188
  804MOL0     O10817   8.748  10.150   3.906 -0.3485  0.5591 -0.6548
  804MOL0     C10818   8.660  10.102   4.004 -0.8593 -0.1167 -1.8119
  804MOL0     C10819   8.561  10.012   3.969  0.1999  0.7066  0.3414
  804MOL0     C10820   8.479   9.960   4.072 -0.3734 -0.2508  0.3976
  804MOL0     C10821   8.497  10.010   4.210 -0.5026  0.2549 -0.7372
  804MOL0     O10822   8.427   9.965   4.321  0.8171  0.2417 -0.1420
  804MOL0     C10823   8.491   9.862   4.395 -0.0260 -0.1489  0.5399
  804MOL0     C10824   8.408   9.834   4.525  0.3133 -0.5552 -0.4201
  804MOL0     C10825   8.473   9.907   4.650  0.7646  0.8012  0.2854
  804MOL0     C10826   8.373   9.888   4.765 -0.0208  0.0475 -0.8293
  804MOL0     C10827   8.423   9.979   4.875  0.1720 -0.3609  0.2983
  804MOL0     C10828   8.341   9.966   5.005  1.0416  0.8405  0.2175
  804MOL0     C10829   8.336  10.095   5.083 -0.0874  1.1832  0.7760
  804MOL0     C10830   8.282  10.077   5.230 -0.6466  0.7767  0.0146
  804MOL0     N10831   8.148  10.018   5.243 -0.2865 -0.0318 -0.5387
  804MOL0     C10832   8.120   9.890   5.285 -0.0537  0.5116  0.2334
  804MOL0     C10833   7.990   9.863   5.255 -0.1862 -0.0152 -0.4300
  804MOL0     C10834   7.905   9.740   5.297  0.5022  0.3654  0.0502
  804MOL0     C10835   7.862   9.748   5.439 -0.7221  0.4499  0.4718
  804MOL0     C10836   7.793   9.613   5.489 -1.1087  0.1716 -0.0150
  804MOL0     C10837   7.663   9.549   5.429 -0.0747 -0.1444  0.3405
  804MOL0     O10838   7.691   9.482   5.305  0.1577 -0.2766  1.0389
  804MOL0     C10839   7.593   9.471   5.212 -0.0704 -0.4174  0.5429
  804MOL0     C10840   7.459   9.502   5.218 -0.1247  0.3610 -0.4314
  804MOL0     C10841   7.377   9.502   5.108  0.5682 -0.4086  0.2730
  804MOL0     C10842   7.239   9.537   5.147  0.2883 -1.4605 -0.3417
  804MOL0     C10843   7.430   9.460   4.979  0.0750  0.3602 -1.3228
  804MOL0     C10844   7.355   9.448   4.854 -0.3744  0.3832 -0.2955
  804MOL0     O10845   7.407   9.354   4.762  0.2035 -0.1258  0.0773
  804MOL0     C10846   7.363   9.354   4.631 -1.2417 -0.3598 -0.3018
  804MOL0     C10847   7.293   9.240   4.585  0.8292 -0.2483 -0.5388
  804MOL0     C10848   7.255   9.236   4.446 -0.0905  1.3747  0.0391
  804MOL0     C10849   7.292   9.344   4.368  0.2284 -0.6827 -0.2353
  804MOL0     O10850   7.250   9.347   4.237 -0.6142  0.0023  0.6296
  804MOL0     C10851   7.307   9.245   4.162 -0.2055 -0.1340  0.5035
  804MOL0     C10852   7.313   9.288   4.020 -0.3374 -0.3878 -0.6316
  804MOL0     C10853   7.434   9.383   3.994  0.7260  0.6196  0.3559
  804MOL0     C10854   7.421   9.444   3.849  0.5102 -0.7434 -0.3660
  804MOL0     C10855   7.553   9.518   3.811  1.2557 -1.1418  0.5431
  804MOL0     C10856   7.544   9.666   3.854  0.4127  0.3104  0.1905
  804MOL0     C10857   7.655   9.701   3.958 -0.3956  0.1451  0.7134
  804MOL0     C10858   7.632   9.824   4.039  0.6075  0.5306 -0.5338
  804MOL0    Cl10859   7.592   9.951   3.925 -0.0110  0.5227 -0.0571
  804MOL0     C10860   7.363   9.456   4.412  1.2400 -0.8474 -0.7724
  804MOL0     C10861   7.402   9.457   4.544  0.2222 -0.4470 -0.1400
  804MOL0     O10862   7.261   9.519   4.835 -0.0570  0.0403  0.6657
  804MOL0     C10863   7.563   9.418   4.979  0.2544  0.5405 -0.1385
  804MOL0     C10864   7.649   9.425   5.091 -0.4203 -0.0612  1.4728
  804MOL0     N10865   7.947   9.974   5.182  0.2544  0.2716 -0.0425
  804MOL0     N10866   8.035  10.067   5.186  0.0840 -0.0828  0.3914
  804MOL0     C10867   8.591  10.121   4.232  0.0853 -1.0959 -0.3350
  804MOL0     C10868   8.671  10.162   4.127  0.7320 -0.0193 -0.4767
  804MOL0     C10869   8.977  10.196   3.829  1.4183 -0.6676 -0.0523
  804MOL0     C10870   8.915  10.260   3.717  0.3054 -0.1364  0.5272
  804MOL0     C10871   8.986  10.325   3.622  0.1829 -0.0513 -0.3383
  804MOL0     C10872   9.129  10.332   3.628 -0.2161  1.1767 -0.4344
  804MOL0     O10873   9.218  10.387   3.535 -0.0773 -0.7034  0.4131
  804MOL0     C10874   9.164  10.450   3.416  0.6798  0.0497  0.5203
  804MOL0     C10875   9.267  10.434   3.306 -0.1158 -0.4567 -0.1406
  804MOL0     C10876   9.378  10.525   3.332  0.7500 -1.1416 -0.0379
  804MOL0     C10877   9.484  10.551   3.221 -0.9014 -0.4269 -0.5467
  804MOL0     C10878   9.425  10.589   3.094 -0.1233  0.5111  0.5418
  804MOL0     C10879   9.363  10.625   2.998  0.6170  0.4284  0.3670
  804MOL0     C10880   9.191  10.271   3.730 -0.3877 -0.1166  0.4317
  804MOL0     C10881   9.121  10.209   3.840  0.7658  0.8071  0.4060
  804MOL0     C10882   9.218  10.164   3.948  0.3076 -0.5551  0.6453
  804MOL0     H10883   8.567   9.971   3.868  1.2013 -2.3693  1.5356
  804MOL0     H10884   8.408   9.886   4.038 -0.2936 -0.4371  0.6378
  804MOL0     H10885   8.596   9.885   4.415  0.5661 -2.1063 -0.1272
  804MOL0     H10886   8.492   9.772   4.333 -0.1282  0.6891 -0.7264
  804MOL0     H10887   8.310   9.883   4.518  1.8898  2.7693 -1.2221
  804MOL0     H10888   8.405   9.730   4.557 -1.2163 -0.5552 -0.4779
  804MOL0     H10889   8.565   9.850   4.666  1.1365  0.8985 -1.4133
  804MOL0     H10890   8.499  10.010   4.626  1.5821  0.1365 -1.9225
  804MOL0     H10891   8.269   9.905   4.736  0.5762  1.0249 -2.5713
  804MOL0     H10892   8.392   9.784   4.793 -0.8299  0.1618  0.2111
  804MOL0     H10893   8.418  10.080   4.835 -4.2613  0.3172  1.9210
  804MOL0     H10894   8.530   9.965   4.895  0.3780  0.4869 -0.1615
  804MOL0     H10895   8.240   9.932   4.980  1.1309 -1.1516  2.3113
  804MOL0     H10896   8.391   9.881   5.052  1.3478  0.6035 -0.5208
  804MOL0     H10897   8.270  10.165   5.031 -0.2374  0.5372  0.0808
  804MOL0     H10898   8.437  10.139   5.082  0.4461  0.0045  1.4604
  804MOL0     H10899   8.363  10.015   5.271  0.9475  1.4761 -1.9195
  804MOL0     H10900   8.282  10.175   5.278 -1.1085 -0.2533  2.2916
  804MOL0     H10901   8.201   9.831   5.327 -0.6423 -1.1658 -0.8973
  804MOL0     H10902   7.972   9.657   5.271  3.1425  2.8380 -1.7095
  804MOL0     H10903   7.816   9.735   5.233  1.4980 -1.3187 -1.2824
  804MOL0     H10904   7.948   9.758   5.506  0.5459 -0.0354 -1.0227
  804MOL0     H10905   7.793   9.832   5.453  0.3090  1.1561  1.5437
  804MOL0     H10906   7.872   9.537   5.479  1.7566  2.9484 -0.1409
  804MOL0     H10907   7.772   9.632   5.594  0.3148  1.3501  0.0859
  804MOL0     H10908   7.635   9.470   5.499 -2.1890  1.4716  1.4433
  804MOL0     H10909   7.592   9.631   5.418  1.3558  0.9714 -1.0771
  804MOL0     H10910   7.416   9.528   5.314  1.2686  2.8723 -0.4071
  804MOL0     H10911   7.162   9.533   5.069 -3.3585  2.3442  2.5649
  804MOL0     H10912   7.233   9.641   5.182  1.1805 -1.3218 -0.5747
  804MOL0     H10913   7.196   9.474   5.225  1.1811 -3.8832 -1.6804
  804MOL0     H10914   7.288   9.147   4.640  1.2487 -1.6599 -2.7661
  804MOL0     H10915   7.206   9.146   4.411  0.5499  1.2383 -0.5489
  804MOL0     H10916   7.409   9.223   4.194 -0.3031 -0.9030  0.2943
  804MOL0     H10917   7.262   9.146   4.176 -0.6507 -0.9012 -4.5925
  804MOL0     H10918   7.340   9.200   3.962  0.9328 -0.9338  0.7357
  804MOL0     H10919   7.220   9.333   3.985  0.1330  4.5634  3.2687
  804MOL0     H10920   7.525   9.322   3.997  0.9139  0.8020 -1.0371
  804MOL0     H10921   7.445   9.459   4.072 -0.2657  1.4683 -0.3123
  804MOL0     H10922   7.338   9.515   3.849  1.3088  0.2127 -0.8866
  804MOL0     H10923   7.408   9.367   3.772 -0.1199 -2.4880  1.4039
  804MOL0     H10924   7.644   9.468   3.845  1.4018  1.2931  4.3061
  804MOL0     H10925   7.548   9.509   3.702  2.4711 -1.5884  0.5141
  804MOL0     H10926   7.449   9.683   3.906  0.0676  1.3818 -0.7309
  804MOL0     H10927   7.547   9.729   3.764  2.7304  1.8043  1.2170
  804MOL0     H10928   7.749   9.714   3.904  0.1581 -1.1276  1.3118
  804MOL0     H10929   7.665   9.613   4.023  0.5314 -2.9537 -3.2648
  804MOL0     H10930   7.717   9.847   4.103  0.9161 -0.2111 -0.6710
  804MOL0     H10931   7.543   9.807   4.101 -0.5559 -0.2200 -2.3217
  804MOL0     H10932   7.403   9.537   4.352  1.4108 -0.1598  0.2377
  804MOL0     H10933   7.462   9.544   4.569  3.7626 -2.5899 -0.4743
  804MOL0     H10934   7.606   9.370   4.891  0.2151 -0.5488  0.4195
  804MOL0     H10935   7.756   9.408   5.082 -0.2342  1.6269 -0.4035
  804MOL0     H10936   8.613  10.154   4.333  1.4722 -1.2018 -0.5919
  804MOL0     H10937   8.739  10.246   4.137  2.0071 -1.2089  1.7207
  804MOL0     H10938   8.808  10.247   3.708  0.4513  0.0621 -2.7827
  804MOL0     H10939   8.938  10.367   3.534 -0.4411 -2.1987 -1.0799
  804MOL0     H10940   9.082  10.390   3.374  2.7163 -0.8950 -2.3679
  804MOL0     H10941   9.138  10.553   3.443  3.1233  0.5068  1.3877
  804MOL0     H10942   9.240  10.441   3.200  4.2255 -0.7347 -1.4344
  804MOL0     H10943   9.312  10.334   3.310  3.1536  0.9071 -0.3619
  804MOL0     H10944   9.339  10.624   3.357 -0.4828 -0.9380 -2.4699
  804MOL0     H10945   9.427  10.488   3.422  0.1940  1.3871  1.3929
  804MOL0     H10946   9.542  10.460   3.202 -0.6394 -0.7236  1.4369
  804MOL0     H10947   9.533  10.642   3.254 -1.9182  0.1572 -0.6024
  804MOL0     H10948   9.297  10.673   2.929  2.2301 -0.6723 -2.0796
  804MOL0     H10949   9.299  10.285   3.728 -0.3685  0.3136 -3.3175
  804MOL0     H10950   9.184  10.076   4.003 -0.7658 -2.5596 -2.8790
  804MOL0     H10951   9.311  10.135   3.898 -0.7204 -1.0309 -1.1046
  804MOL0     H10952   9.231  10.246   4.019 -2.9280  0.0108  0.7127
  805MOL0     O10953   2.122   1.524   3.482  0.0205  0.0497 -1.1771
  805MOL0     C10954   2.003   1.527   3.515  1.2033 -0.1199  0.7925
  805MOL0     O10955   1.911   1.608   3.452  0.4924  0.4519 -0.5138
  805MOL0     C10956   1.943   1.717   3.377 -0.3663 -0.5429 -1.4405
  805MOL0     C10957   2.073   1.774   3.364  0.8784 -0.8041 -0.4447
  805MOL0     C10958   2.093   1.881   3.281 -0.5661 -0.6068 -0.3995
  805MOL0     C10959   1.993   1.929   3.206 -0.2106  0.4968  0.6913
  805MOL0     O10960   2.015   2.030   3.117 -0.1610  0.2507 -0.3192
  805MOL0     C10961   2.108   2.135   3.148 -0.1723  0.7355  0.0262
  805MOL0     C10962   2.130   2.222   3.032 -0.1313 -0.3145  0.7381
  805MOL0     C10963   2.261   2.190   2.942  0.2227  0.3573  0.4028
  805MOL0     C10964   2.263   2.058   2.878  0.1222 -0.5822 -0.2171
  805MOL0     C10965   2.167   2.055   2.756 -0.1960 -1.2341 -0.3740
  805MOL0     C10966   2.202   1.932   2.679 -0.4015 -0.2649 -0.4130
  805MOL0     C10967   2.128   1.915   2.543 -0.3642 -0.2759 -0.5150
  805MOL0     C10968   2.133   1.771   2.491  0.1113 -0.2892  0.1841
  805MOL0     N10969   2.004   1.695   2.507 -0.3570  0.1510  0.1374
  805MOL0     C10970   1.956   1.655   2.632 -0.5887 -0.0602 -0.1167
  805MOL0     C10971   1.830   1.603   2.605 -0.7508  0.7403  0.0289
  805MOL0     C10972   1.743   1.533   2.700  0.1472  0.0777 -0.1212
  805MOL0     C10973   1.749   1.379   2.720 -0.2663  0.4180 -0.0537
  805MOL0     C10974   1.734   1.305   2.589  1.1032 -0.1557  0.4905
  805MOL0     C10975   1.581   1.281   2.554  0.0756 -0.8707 -0.6418
  805MOL0     O10976   1.562   1.200   2.445 -0.5626  0.5204 -0.3662
  805MOL0     C10977   1.439   1.141   2.454  0.7911  0.5184  1.3350
  805MOL0     C10978   1.313   1.206   2.471 -0.4624  0.5591  0.5573
  805MOL0     C10979   1.186   1.143   2.471  1.0632  0.2705  0.3540
  805MOL0     C10980   1.069   1.241   2.491  1.4033 -0.0958  0.7028
  805MOL0     C10981   1.191   1.003   2.469  0.3748  1.0103  0.0206
  805MOL0     C10982   1.075   0.915   2.486  0.5069 -0.0536 -0.0597
  805MOL0     O10983   1.087   0.783   2.464 -0.0011 -0.3234  0.2112
  805MOL0     C10984   0.979   0.705   2.448  0.7083  0.9707 -0.8941
  805MOL0     C10985   0.955   0.595   2.531  0.1395 -1.0616 -0.3422
  805MOL0     C10986   0.847   0.508   2.506  0.4554  0.2830  0.0540
  805MOL0     C10987   0.764   0.533   2.396  0.3790  0.3167  0.5060
  805MOL0     O10988   0.658   0.449   2.402 -0.1259  0.1337  0.4086
  805MOL0     C10989   0.530   0.515   2.396 -0.2723 -0.6659 -0.4905
  805MOL0     C10990   0.416   0.414   2.400 -0.4257  0.0655 -0.1528
  805MOL0     C10991   0.381   0.387   2.552  0.6765  0.1258  0.0190
  805MOL0     C10992   0.317   0.245   2.572  0.2876 -0.4368 -0.7743
  805MOL0     C10993   0.283   0.221   2.717 -0.8236 -0.3150 -1.0201
  805MOL0     C10994   0.219   0.085   2.748 -0.9819 -0.7676 -0.1422
  805MOL0     C10995   0.232   0.037   2.895 -0.8928 -0.2530 -0.0668
  805MOL0     C10996   0.220  -0.111   2.909  1.2080 -0.3467 -0.3179
  805MOL0    Cl10997   0.046  -0.144   2.890  0.2861 -0.1224  0.0098
  805MOL0     C10998   0.783   0.635   2.312 -0.8264 -0.4005  0.3652
  805MOL0     C10999   0.889   0.729   2.340 -0.4442  1.1202  0.5276
  805MOL0     O11000   0.976   0.970   2.524  0.9433 -0.1381  1.3174
  805MOL0     C11001   1.316   0.938   2.430  0.0171  0.3901 -0.4044
  805MOL0     C11002   1.439   1.004   2.432  0.0940  0.7339 -0.3592
  805MOL0     N11003   1.803   1.634   2.472  0.4788  0.1153 -0.8553
  805MOL0     N11004   1.905   1.685   2.419  0.8609 -0.4078  0.3954
  805MOL0     C11005   1.868   1.874   3.216 -0.0795  0.2114  0.4424
  805MOL0     C11006   1.837   1.766   3.297 -0.5992  0.3593  0.1665
  805MOL0     C11007   1.947   1.442   3.627 -0.0671 -0.0363  0.3668
  805MOL0     C11008   1.815   1.454   3.667  0.5198  0.1361  0.3891
  805MOL0     C11009   1.759   1.386   3.774 -0.1087  0.6292 -0.7094
  805MOL0     C11010   1.844   1.297   3.845 -0.0431 -0.5372  0.0681
  805MOL0     O11011   1.784   1.234   3.954 -0.0969 -0.5794  0.4393
  805MOL0     C11012   1.867   1.232   4.070 -0.4156  0.1889 -1.4266
  805MOL0     C11013   1.818   1.276   4.205  0.2145  0.7491  0.3954
  805MOL0     C11014   1.812   1.428   4.227 -0.2701 -0.7065  0.4133
  805MOL0     C11015   1.840   1.479   4.366  1.0862 -0.1891  1.2528
  805MOL0     C11016   1.778   1.375   4.459  1.3983 -0.7169  0.7533
  805MOL0     C11017   1.743   1.307   4.545  0.9743  0.9287  0.6429
  805MOL0     C11018   1.976   1.281   3.813 -0.5630 -0.3954  0.0505
  805MOL0     C11019   2.022   1.342   3.696  0.0132 -0.6177  0.6202
  805MOL0     C11020   2.171   1.327   3.672  0.3126 -0.0289 -0.2400
  805MOL0     H11021   2.160   1.750   3.423 -0.0990  0.2867  1.5431
  805MOL0     H11022   2.192   1.926   3.281 -1.0348  0.5612  1.5708
  805MOL0     H11023   2.203   2.088   3.174 -0.7738  0.0201  1.0544
  805MOL0     H11024   2.085   2.191   3.239  1.5804  1.7341 -0.1124
  805MOL0     H11025   2.043   2.231   2.966  0.7323  0.2266 -0.3435
  805MOL0     H11026   2.150   2.322   3.072 -2.4317  0.5190 -0.0202
  805MOL0     H11027   2.259   2.265   2.862 -0.3848  0.0843  0.1470
  805MOL0     H11028   2.352   2.198   3.002  3.1932 -2.6362 -3.2219
  805MOL0     H11029   2.362   2.036   2.836  0.6745 -2.4219  1.8591
  805MOL0     H11030   2.241   1.976   2.946 -4.0478  0.3758 -0.1555
  805MOL0     H11031   2.189   2.138   2.688  1.6914 -1.4969 -0.1540
  805MOL0     H11032   2.063   2.065   2.786 -0.5175 -2.8977 -0.8361
  805MOL0     H11033   2.310   1.929   2.666 -0.4671  0.8782 -1.3856
  805MOL0     H11034   2.165   1.846   2.735  0.7804 -1.1545 -0.9720
  805MOL0     H11035   2.159   1.989   2.470  0.8581 -0.8689 -0.6293
  805MOL0     H11036   2.023   1.936   2.563 -0.5671 -2.6087  1.3961
  805MOL0     H11037   2.150   1.787   2.384 -0.0347  1.7676  0.4282
  805MOL0     H11038   2.217   1.712   2.530  2.5900 -0.5341 -4.7269
  805MOL0     H11039   1.992   1.664   2.734 -2.9075  3.2173  0.5660
  805MOL0     H11040   1.641   1.555   2.670  0.1744 -1.7435 -1.7552
  805MOL0     H11041   1.763   1.581   2.797 -0.5097  0.1971 -0.0422
  805MOL0     H11042   1.849   1.360   2.761 -1.2071  0.3057  2.3419
  805MOL0     H11043   1.670   1.350   2.789 -0.3032  1.8677  0.5351
  805MOL0     H11044   1.776   1.366   2.509 -0.0116 -0.0009  0.0008
  805MOL0     H11045   1.800   1.219   2.601  1.3153  0.0725  0.9803
  805MOL0     H11046   1.532   1.230   2.638 -2.1565 -0.2782 -1.5172
  805MOL0     H11047   1.531   1.374   2.526  1.5549 -0.7300 -3.0111
  805MOL0     H11048   1.304   1.313   2.484 -2.8074  0.5608 -0.5248
  805MOL0     H11049   1.032   1.241   2.594  1.4053  3.9735  0.8619
  805MOL0     H11050   0.998   1.202   2.417  3.3243 -0.0914 -1.2518
  805MOL0     H11051   1.108   1.342   2.473  1.7161 -0.2569  0.4689
  805MOL0     H11052   1.025   0.593   2.614  1.3356  1.4754 -1.2075
  805MOL0     H11053   0.848   0.421   2.570 -0.1032  0.7818  0.7607
  805MOL0     H11054   0.512   0.587   2.476 -0.2569 -1.3089  0.1059
  805MOL0     H11055   0.533   0.569   2.301 -0.7919 -0.8818 -0.6344
  805MOL0     H11056   0.329   0.461   2.354 -0.6289  0.8686  1.0188
  805MOL0     H11057   0.450   0.323   2.349 -1.0388 -0.1348 -0.2162
  805MOL0     H11058   0.321   0.467   2.595  0.1692 -2.3231  4.4834
  805MOL0     H11059   0.464   0.401   2.621  0.4897 -2.3775  0.8689
  805MOL0     H11060   0.392   0.170   2.546  0.9173 -0.6109  1.3987
  805MOL0     H11061   0.224   0.240   2.513 -0.3366 -0.7806  0.2177
  805MOL0     H11062   0.382   0.238   2.760 -1.0828  0.0966 -0.5697
  805MOL0     H11063   0.216   0.300   2.754  1.5098  1.3547 -0.0514
  805MOL0     H11064   0.270   0.009   2.689 -1.4741 -1.4059  0.2454
  805MOL0     H11065   0.112   0.093   2.729 -1.4599  0.9302  2.6773
  805MOL0     H11066   0.167   0.082   2.971 -0.1172  2.1426 -0.7276
  805MOL0     H11067   0.334   0.063   2.926 -1.9082 -0.7927  4.4677
  805MOL0     H11068   0.269  -0.139   3.003  2.3805  1.7862 -0.2361
  805MOL0     H11069   0.267  -0.171   2.830 -0.5624 -3.6961  0.9686
  805MOL0     H11070   0.711   0.669   2.237  0.4129  2.4508  0.3409
  805MOL0     H11071   0.903   0.818   2.280  1.0373  1.1061  0.8284
  805MOL0     H11072   1.301   0.833   2.406 -5.2523  0.0323  2.7983
  805MOL0     H11073   1.536   0.965   2.404 -0.0281 -0.2575  0.5349
  805MOL0     H11074   1.784   1.905   3.154  0.1750 -2.5090 -1.4504
  805MOL0     H11075   1.734   1.732   3.311 -0.1308 -1.2883 -0.1124
  805MOL0     H11076   1.745   1.528   3.629 -1.9955 -0.8243  2.7268
  805MOL0     H11077   1.657   1.394   3.812 -0.9796  1.4068 -3.0002
  805MOL0     H11078   1.901   1.128   4.080 -1.5276  0.0019  1.6644
  805MOL0     H11079   1.965   1.278   4.056  0.2049 -1.4357 -2.7643
  805MOL0     H11080   1.884   1.224   4.274 -1.5780 -4.1127 -1.1483
  805MOL0     H11081   1.716   1.236   4.210 -0.0877  1.5596  1.1596
  805MOL0     H11082   1.889   1.484   4.173  0.5145 -1.3427  0.8476
  805MOL0     H11083   1.711   1.459   4.202  0.2815  2.4092  1.6278
  805MOL0     H11084   1.793   1.578   4.377 -0.7209 -0.8059 -0.4160
  805MOL0     H11085   1.948   1.475   4.379  1.5288 -0.3912 -1.8849
  805MOL0     H11086   1.692   1.277   4.634  0.1551  2.0202  0.5580
  805MOL0     H11087   2.042   1.217   3.870 -0.9223  1.1403  2.3166
  805MOL0     H11088   2.222   1.419   3.703 -1.0253  1.2118 -1.5511
  805MOL0     H11089   2.207   1.248   3.739  0.6408 -0.2620 -0.6912
  805MOL0     H11090   2.195   1.310   3.567  0.7314  1.3751 -0.3940
  806MOL0     O11091   7.181  10.477   3.151  0.2871 -0.2159  0.0211
  806MOL0     C11092   7.100  10.518   3.069  0.9467  0.5346  0.3108
  806MOL0     O11093   7.015  10.429   2.997 -0.6510 -0.2895 -0.2835
  806MOL0     C11094   6.989  10.300   3.035 -0.2847  0.6121  0.7197
  806MOL0     C11095   6.943  10.212   2.929 -0.2196  0.9674  0.0367
  806MOL0     C11096   6.888  10.092   2.961  0.2895  0.5667 -0.7638
  806MOL0     C11097   6.898  10.044   3.094  0.3721  0.1208 -0.8964
  806MOL0     O11098   6.839   9.926   3.142  0.6717 -0.6048  0.0475
  806MOL0     C11099   6.751   9.855   3.056 -0.0934  0.6733 -0.2330
  806MOL0     C11100   6.678   9.746   3.134  0.1153  0.4607  1.1225
  806MOL0     C11101   6.554   9.701   3.066  0.4019 -0.1062  0.1156
  806MOL0     C11102   6.479   9.596   3.151  0.3354 -0.0428 -0.6353
  806MOL0     C11103   6.343   9.551   3.079  0.6044 -0.3084  0.4750
  806MOL0     C11104   6.232   9.659   3.089  0.4753 -0.6976  0.0451
  806MOL0     C11105   6.103   9.625   3.011 -0.5439 -0.5039  0.6255
  806MOL0     C11106   6.116   9.625   2.853  0.5968  0.2147 -0.5263
  806MOL0     N11107   6.137   9.489   2.803 -0.4379 -0.1320  0.3418
  806MOL0     C11108   6.035   9.392   2.791 -0.7676  0.2218  0.9109
  806MOL0     C11109   6.097   9.288   2.727  0.7532  0.9027  0.2320
  806MOL0     C11110   6.053   9.144   2.694 -0.4235 -1.5752 -0.8909
  806MOL0     C11111   5.971   9.065   2.804  0.1478  0.3691  0.1573
  806MOL0     C11112   5.912   8.943   2.731  0.1879  0.5647 -0.0372
  806MOL0     C11113   5.836   8.854   2.829 -0.3432 -0.9516  0.0913
  806MOL0     O11114   5.791   8.733   2.768  0.2374 -0.5702 -0.5129
  806MOL0     C11115   5.666   8.687   2.807  0.2702 -0.3778  0.1134
  806MOL0     C11116   5.584   8.624   2.705 -0.2257 -0.7973 -0.7903
  806MOL0     C11117   5.458   8.581   2.731 -0.1092 -1.0222 -0.1081
  806MOL0     C11118   5.395   8.502   2.623  0.2849  0.1052 -0.0783
  806MOL0     C11119   5.392   8.616   2.853  0.4108 -0.0961  0.0053
  806MOL0     C11120   5.255   8.581   2.899 -0.1366 -0.8402  0.4347
  806MOL0     O11121   5.233   8.603   3.033 -0.5997 -0.6165  0.1246
  806MOL0     C11122   5.112   8.590   3.094  0.0772 -0.7199  0.0597
  806MOL0     C11123   5.001   8.658   3.044 -0.0167  0.1989  0.0617
  806MOL0     C11124   4.888   8.664   3.126  0.9747  0.1945  0.6426
  806MOL0     C11125   4.877   8.583   3.239 -0.2358 -0.4115 -0.3223
  806MOL0     O11126   4.758   8.591   3.305 -0.0837  0.0845 -0.2416
  806MOL0     C11127   4.762   8.552   3.443  0.3431 -0.4646 -1.3396
  806MOL0     C11128   4.647   8.628   3.524  0.2572 -0.1378  0.4449
  806MOL0     C11129   4.510   8.603   3.462 -0.1100  0.3331 -0.7681
  806MOL0     C11130   4.421   8.489   3.519  0.4723  0.6800 -0.4110
  806MOL0     C11131   4.495   8.355   3.520 -0.7196 -0.1952  0.7137
  806MOL0     C11132   4.512   8.288   3.382 -0.2183 -0.6815 -0.4751
  806MOL0     C11133   4.597   8.160   3.387  0.2123 -0.1954  0.2750
  806MOL0     C11134   4.547   8.018   3.444  0.7079 -0.0264  0.1058
  806MOL0    Cl11135   4.400   7.977   3.349  0.0987 -0.7571  0.3443
  806MOL0     C11136   4.993   8.509   3.287  0.0191 -0.0617  0.6864
  806MOL0     C11137   5.109   8.523   3.209 -1.8882  0.0962 -0.5873
  806MOL0     O11138   5.172   8.535   2.822  0.0887  0.2938  0.6474
  806MOL0     C11139   5.472   8.674   2.954  0.1221 -0.5258 -0.6166
  806MOL0     C11140   5.610   8.701   2.933 -0.8585 -0.0591 -0.6084
  806MOL0     N11141   6.232   9.319   2.710  0.9102  0.0858 -0.8986
  806MOL0     N11142   6.252   9.441   2.742 -0.2855  0.1907 -0.4075
  806MOL0     C11143   6.971  10.122   3.188 -0.3748 -0.0331 -0.5705
  806MOL0     C11144   7.011  10.251   3.163  0.1774  0.8264 -0.8671
  806MOL0     C11145   7.069  10.657   3.039  1.0200 -0.6311 -0.2567
  806MOL0     C11146   6.959  10.691   2.957 -0.4609  0.3323  0.2509
  806MOL0     C11147   6.923  10.825   2.947  0.7923 -0.1825 -0.2017
  806MOL0     C11148   7.004  10.931   2.995  0.4227 -0.1841  0.1014
  806MOL0     O11149   6.973  11.065   2.981 -0.1715 -0.0694 -0.1831
  806MOL0     C11150   6.881  11.099   2.872 -0.8722 -0.8362  0.2830
  806MOL0     C11151   6.917  11.213   2.773 -0.3161  1.3468  0.4513
  806MOL0     C11152   6.910  11.355   2.829  0.0840  0.0517  1.4852
  806MOL0     C11153   7.012  11.391   2.944 -0.6373  0.0568 -0.4302
  806MOL0     C11154   7.148  11.418   2.881 -0.1988 -0.1288  0.0860
  806MOL0     C11155   7.255  11.435   2.836  0.8188  0.8443 -0.6957
  806MOL0     C11156   7.119  10.896   3.062  0.3932 -0.9208  0.2458
  806MOL0     C11157   7.155  10.760   3.088  0.6382 -0.5031 -0.3894
  806MOL0     C11158   7.281  10.735   3.173 -0.1922  0.6447 -0.9720
  806MOL0     H11159   6.917  10.231   2.825 -2.4984 -3.4814 -0.4271
  806MOL0     H11160   6.835  10.037   2.884  1.3954 -1.3592 -0.2326
  806MOL0     H11161   6.811   9.809   2.977  0.0698 -1.2598  0.9546
  806MOL0     H11162   6.673   9.914   3.006 -1.5849 -0.4604  0.7011
  806MOL0     H11163   6.745   9.660   3.142 -1.9761 -1.5284 -1.1273
  806MOL0     H11164   6.637   9.772   3.232 -2.6454 -2.7474  1.0081
  806MOL0     H11165   6.505   9.798   3.049  2.1655  1.9680  5.0450
  806MOL0     H11166   6.575   9.661   2.967  0.8374 -1.1053  0.6011
  806MOL0     H11167   6.544   9.508   3.156 -2.0513 -1.8727  0.4018
  806MOL0     H11168   6.455   9.632   3.252  0.3068 -1.9921  0.1015
  806MOL0     H11169   6.316   9.454   3.121  1.7354 -0.2467  1.3816
  806MOL0     H11170   6.365   9.530   2.974  1.3191  0.9792  0.3403
  806MOL0     H11171   6.194   9.683   3.189  2.5234  3.5377  0.0167
  806MOL0     H11172   6.261   9.761   3.061 -1.7071  0.4183  1.5709
  806MOL0     H11173   6.021   9.694   3.033  0.2751 -0.0528  2.4622
  806MOL0     H11174   6.068   9.527   3.044 -1.8293  0.1712  1.3368
  806MOL0     H11175   6.014   9.641   2.819 -0.4076 -3.4525  0.2467
  806MOL0     H11176   6.194   9.692   2.816 -1.0517  1.5804 -1.6931
  806MOL0     H11177   5.933   9.390   2.829 -1.6275  0.4080 -1.2328
  806MOL0     H11178   6.141   9.083   2.671  0.4542  0.7480 -4.6846
  806MOL0     H11179   5.995   9.139   2.601 -0.3975  2.1419 -1.2360
  806MOL0     H11180   6.033   9.026   2.885 -1.3840  2.7879  2.6981
  806MOL0     H11181   5.893   9.118   2.860  1.4109 -0.1075  2.5262
  806MOL0     H11182   5.843   8.972   2.651 -1.9412 -0.5877  1.3201
  806MOL0     H11183   5.994   8.889   2.683  0.1960  0.6715 -0.1447
  806MOL0     H11184   5.914   8.835   2.904  2.8506 -0.9973 -3.0055
  806MOL0     H11185   5.748   8.908   2.866  0.1234 -0.7069  0.8831
  806MOL0     H11186   5.631   8.629   2.608  1.8309  0.2909  0.1914
  806MOL0     H11187   5.337   8.580   2.571 -0.7723 -0.2859  0.4947
  806MOL0     H11188   5.334   8.422   2.664  0.4521 -1.7379 -3.0939
  806MOL0     H11189   5.457   8.463   2.542 -2.2755 -1.3889 -1.4547
  806MOL0     H11190   5.006   8.709   2.948  1.2372  2.8932  1.4417
  806MOL0     H11191   4.804   8.715   3.081  0.5007  0.5824  1.9084
  806MOL0     H11192   4.741   8.444   3.448 -4.9369  0.3470  0.3940
  806MOL0     H11193   4.847   8.599   3.493 -2.5309  2.2434  1.5032
  806MOL0     H11194   4.644   8.594   3.628 -1.1487 -2.3517 -0.2524
  806MOL0     H11195   4.663   8.736   3.513 -3.3463  0.3879 -0.7979
  806MOL0     H11196   4.518   8.588   3.354 -0.6863  0.6479 -0.8569
  806MOL0     H11197   4.459   8.700   3.470 -2.1757 -0.6975 -0.9738
  806MOL0     H11198   4.331   8.478   3.458  0.8285  1.1288 -1.0349
  806MOL0     H11199   4.395   8.522   3.620 -1.3268 -0.9599 -0.2774
  806MOL0     H11200   4.596   8.367   3.562 -0.2009 -0.5124 -0.4029
  806MOL0     H11201   4.451   8.279   3.585  3.6566 -3.2403  0.5460
  806MOL0     H11202   4.552   8.361   3.311 -0.7882  0.8888  0.7660
  806MOL0     H11203   4.411   8.265   3.346 -0.1197 -0.3610 -0.9751
  806MOL0     H11204   4.694   8.181   3.433 -0.7144  2.1967  1.2649
  806MOL0     H11205   4.624   8.136   3.283  1.7018  1.1259  0.3244
  806MOL0     H11206   4.515   8.033   3.547  1.6562  4.5612 -0.0838
  806MOL0     H11207   4.624   7.942   3.423  1.8397  1.4401 -1.3429
  806MOL0     H11208   4.993   8.437   3.368  2.1945 -1.2547 -0.3001
  806MOL0     H11209   5.197   8.475   3.252 -1.4863  1.8020  0.6223
  806MOL0     H11210   5.438   8.690   3.056  3.6897 -1.1326  0.8111
  806MOL0     H11211   5.661   8.732   3.023  0.0681  2.2767 -1.8548
  806MOL0     H11212   6.958  10.091   3.291 -1.6385 -0.1283 -0.7441
  806MOL0     H11213   7.067  10.296   3.244  1.6456 -2.2050 -0.0423
  806MOL0     H11214   6.892  10.607   2.944 -1.5452  1.3785 -1.2590
  806MOL0     H11215   6.831  10.837   2.890 -0.8413 -1.8364  1.8910
  806MOL0     H11216   6.901  11.015   2.805  1.6888  0.5406 -0.7915
  806MOL0     H11217   6.778  11.111   2.907 -0.1489  0.9862  1.9530
  806MOL0     H11218   6.846  11.197   2.692  1.3380 -3.6835 -0.3247
  806MOL0     H11219   7.016  11.188   2.733 -0.5385 -1.5269  1.4696
  806MOL0     H11220   6.914  11.430   2.750  1.0425 -0.1101  1.3723
  806MOL0     H11221   6.809  11.360   2.871 -0.8734  0.3530 -0.7042
  806MOL0     H11222   7.025  11.308   3.015  0.5162  1.2381  0.7942
  806MOL0     H11223   6.969  11.474   3.002 -0.8726 -1.6615  2.0540
  806MOL0     H11224   7.350  11.443   2.787  2.0099  2.6080  1.6802
  806MOL0     H11225   7.177  10.970   3.116  1.9107 -1.4139 -0.6449
  806MOL0     H11226   7.339  10.658   3.120 -2.3154 -0.7400 -1.4021
  806MOL0     H11227   7.338  10.828   3.179  0.2402  0.2899  0.7253
  806MOL0     H11228   7.251  10.710   3.275 -3.5027  2.8771 -1.2521
  807MOL0     O11229   5.632   5.473   3.559 -0.6664 -0.4924  0.5334
  807MOL0     C11230   5.669   5.493   3.442  0.3186  0.6902  0.1233
  807MOL0     O11231   5.745   5.597   3.411  0.4527  0.4367  0.4356
  807MOL0     C11232   5.734   5.714   3.483  0.0027  0.6852  0.0205
  807MOL0     C11233   5.660   5.815   3.432  0.0259 -0.3292 -0.5401
  807MOL0     C11234   5.670   5.947   3.494 -0.2289 -0.7399 -0.1211
  807MOL0     C11235   5.741   5.961   3.616  1.6496 -0.0834  0.5568
  807MOL0     O11236   5.739   6.088   3.680 -0.4377 -0.2206  0.1894
  807MOL0     C11237   5.841   6.111   3.781 -0.5367  0.0277 -0.2172
  807MOL0     C11238   5.981   6.146   3.724 -0.6079 -0.3629  0.2557
  807MOL0     C11239   6.000   6.299   3.691  1.1687  0.4161  0.1664
  807MOL0     C11240   6.144   6.323   3.655 -0.3352  0.1500  0.5807
  807MOL0     C11241   6.179   6.463   3.592 -0.0974 -0.2996 -0.5022
  807MOL0     C11242   6.327   6.474   3.592  0.9308 -0.9180  1.1593
  807MOL0     C11243   6.380   6.601   3.532 -1.2341 -0.8055  0.2501
  807MOL0     C11244   6.347   6.736   3.585  0.0295  0.0280  1.4215
  807MOL0     N11245   6.326   6.731   3.726  1.3275 -0.2347  0.1775
  807MOL0     C11246   6.415   6.714   3.822 -0.1307  0.2351 -0.1770
  807MOL0     C11247   6.345   6.710   3.936  0.4486  0.8806 -0.1751
  807MOL0     C11248   6.409   6.709   4.071 -0.4626  0.5853  0.3247
  807MOL0     C11249   6.500   6.590   4.084  0.3703 -0.2981 -0.0883
  807MOL0     C11250   6.428   6.451   4.079  0.2135  0.6779  0.1695
  807MOL0     C11251   6.508   6.333   4.023  0.1629 -0.6581  0.3185
  807MOL0     O11252   6.429   6.218   4.037  0.5582  0.0088 -0.2227
  807MOL0     C11253   6.406   6.142   3.928  0.6301  0.5764 -0.0682
  807MOL0     C11254   6.332   6.030   3.963  0.1261  0.1928  0.4721
  807MOL0     C11255   6.280   5.940   3.872  0.0517  1.3810 -0.1117
  807MOL0     C11256   6.193   5.833   3.922 -0.0688 -0.7339  0.4803
  807MOL0     C11257   6.307   5.960   3.733  0.3368 -0.1702 -0.8213
  807MOL0     C11258   6.260   5.868   3.632 -0.4058 -0.6789  0.0424
  807MOL0     O11259   6.261   5.925   3.507 -0.3009 -0.6590  0.5452
  807MOL0     C11260   6.223   5.842   3.410  0.5873 -0.0881  0.3844
  807MOL0     C11261   6.305   5.797   3.306  0.2800 -0.2219  0.7077
  807MOL0     C11262   6.263   5.710   3.198 -0.9601  0.9981 -0.5916
  807MOL0     C11263   6.122   5.681   3.181  0.6096  0.2758 -0.2433
  807MOL0     O11264   6.064   5.600   3.092  0.2120 -0.2186  0.1975
  807MOL0     C11265   6.145   5.535   2.993  0.1939  0.2513 -0.9433
  807MOL0     C11266   6.054   5.454   2.898 -0.4695 -0.4627  0.4448
  807MOL0     C11267   5.983   5.334   2.963  0.2378 -0.8829 -0.2127
  807MOL0     C11268   6.069   5.207   2.989  0.4340  1.0954 -0.2610
  807MOL0     C11269   5.972   5.098   3.053 -0.0630 -0.8322  0.6895
  807MOL0     C11270   6.058   4.987   3.125 -1.0234  0.2632  0.4039
  807MOL0     C11271   5.968   4.892   3.201  0.4935  0.0459  1.1458
  807MOL0     C11272   5.893   4.948   3.317  0.1679  0.5493 -0.7366
  807MOL0    Cl11273   5.856   4.819   3.440 -0.1287 -0.1876  0.2208
  807MOL0     C11274   6.035   5.740   3.285 -0.9221  0.3214  0.0855
  807MOL0     C11275   6.083   5.819   3.392  0.5599 -0.1131 -0.1124
  807MOL0     O11276   6.231   5.753   3.651  0.2342  0.0358  0.1290
  807MOL0     C11277   6.397   6.063   3.694 -0.2813  1.2770  0.0681
  807MOL0     C11278   6.449   6.147   3.794 -0.7246 -0.6485 -0.1767
  807MOL0     N11279   6.208   6.729   3.912 -0.4040 -0.5518  0.4896
  807MOL0     N11280   6.200   6.731   3.784 -0.5012  0.3635 -0.2316
  807MOL0     C11281   5.816   5.857   3.658 -0.9839  0.9730 -0.3981
  807MOL0     C11282   5.818   5.733   3.593 -0.0964  0.0240  0.0726
  807MOL0     C11283   5.625   5.411   3.329 -0.1764  0.2804  1.0957
  807MOL0     C11284   5.585   5.472   3.205 -0.7220 -0.0602  1.0736
  807MOL0     C11285   5.533   5.397   3.099  0.9316  0.2405 -0.3029
  807MOL0     C11286   5.523   5.260   3.106  0.8335 -0.1932  0.4017
  807MOL0     O11287   5.460   5.183   3.007  0.2059  0.1257  1.0439
  807MOL0     C11288   5.498   5.205   2.876  0.0653 -0.7214  0.4438
  807MOL0     C11289   5.626   5.128   2.840 -0.6882 -0.5482 -0.0707
  807MOL0     C11290   5.644   5.101   2.697  0.1866  0.2663 -0.7104
  807MOL0     C11291   5.785   5.060   2.648  0.1428 -0.5424 -1.0200
  807MOL0     C11292   5.881   5.172   2.654 -0.9982 -0.1723  0.2317
  807MOL0     C11293   5.970   5.247   2.620 -0.3115 -0.9256  0.3635
  807MOL0     C11294   5.569   5.199   3.221 -1.2869  0.3496  0.3008
  807MOL0     C11295   5.625   5.272   3.331  0.1967 -0.1246 -0.3212
  807MOL0     C11296   5.667   5.199   3.460 -0.7221 -0.4926  0.4293
  807MOL0     H11297   5.608   5.799   3.338  0.4340  0.5752 -0.9297
  807MOL0     H11298   5.627   6.036   3.447 -1.0633 -0.9557  0.2026
  807MOL0     H11299   5.858   6.031   3.854  0.7069 -0.3839 -0.9201
  807MOL0     H11300   5.821   6.201   3.841 -0.9538 -1.2892  1.7169
  807MOL0     H11301   6.061   6.109   3.789 -0.9464 -0.2221  0.7637
  807MOL0     H11302   5.995   6.089   3.632  3.3859 -1.3141  1.2655
  807MOL0     H11303   5.931   6.321   3.609 -0.0428 -0.5759  0.8826
  807MOL0     H11304   5.974   6.359   3.779 -0.0791 -0.4628  0.4322
  807MOL0     H11305   6.199   6.316   3.749  0.3851 -2.8360  0.0165
  807MOL0     H11306   6.178   6.236   3.597 -2.3103 -1.5627  1.8800
  807MOL0     H11307   6.132   6.534   3.661  0.4766 -0.0809 -0.3324
  807MOL0     H11308   6.150   6.475   3.487  1.0344 -0.7729 -0.8799
  807MOL0     H11309   6.353   6.465   3.698  0.4151 -0.0445  1.3677
  807MOL0     H11310   6.369   6.386   3.542 -2.0873 -1.4594 -0.6645
  807MOL0     H11311   6.370   6.602   3.423  1.2910  0.6889 -0.0630
  807MOL0     H11312   6.489   6.600   3.548 -0.9967  2.0703 -0.6511
  807MOL0     H11313   6.426   6.807   3.562  2.6811 -2.5142  2.1324
  807MOL0     H11314   6.248   6.766   3.547  0.4721  0.2091  0.3726
  807MOL0     H11315   6.523   6.719   3.807 -0.3505 -0.3946 -2.3104
  807MOL0     H11316   6.343   6.719   4.158 -2.0200  1.2400 -0.8914
  807MOL0     H11317   6.472   6.798   4.075  2.8210 -1.5819  1.6422
  807MOL0     H11318   6.568   6.592   3.998  0.9680 -0.3661  0.3680
  807MOL0     H11319   6.562   6.585   4.174  2.5597  2.1390 -1.3243
  807MOL0     H11320   6.404   6.420   4.181 -0.5885  3.0299  0.7699
  807MOL0     H11321   6.337   6.459   4.019 -0.3695 -2.6664  0.4352
  807MOL0     H11322   6.531   6.369   3.923  0.1520 -0.6803  0.3079
  807MOL0     H11323   6.600   6.313   4.080 -0.3712 -2.7105  0.5717
  807MOL0     H11324   6.290   6.023   4.063  1.5597  3.3947  1.4321
  807MOL0     H11325   6.233   5.732   3.913  1.6836 -0.2906  2.5291
  807MOL0     H11326   6.095   5.845   3.876 -2.8301  0.0947  5.7813
  807MOL0     H11327   6.181   5.833   4.031 -3.7035  0.0874  0.2181
  807MOL0     H11328   6.405   5.838   3.312 -0.2159  0.8622  2.2202
  807MOL0     H11329   6.330   5.686   3.116  0.2797 -3.0225  1.3126
  807MOL0     H11330   6.199   5.601   2.924 -1.0487  0.8386 -1.3821
  807MOL0     H11331   6.217   5.473   3.047 -0.6473 -0.8842 -1.1051
  807MOL0     H11332   5.978   5.520   2.856 -0.9914 -2.2660 -1.6316
  807MOL0     H11333   6.113   5.419   2.812 -0.8822 -1.7920  0.6854
  807MOL0     H11334   5.906   5.304   2.891  0.5804 -0.5558 -0.7190
  807MOL0     H11335   5.940   5.371   3.057  3.6145  0.9002  0.7770
  807MOL0     H11336   6.157   5.236   3.048  0.7923  3.0424 -1.6416
  807MOL0     H11337   6.099   5.181   2.887 -2.6699  3.3745 -1.9516
  807MOL0     H11338   5.910   5.145   3.130  0.5622  2.1117 -0.4785
  807MOL0     H11339   5.910   5.069   2.968  0.9975  1.0218 -0.7695
  807MOL0     H11340   6.133   5.033   3.190 -0.7119 -0.0551  0.2713
  807MOL0     H11341   6.108   4.925   3.050 -4.1968 -0.3863 -1.3957
  807MOL0     H11342   6.029   4.808   3.233  0.9009  0.0317  0.3440
  807MOL0     H11343   5.895   4.850   3.130  2.3154 -1.9548  0.3563
  807MOL0     H11344   5.802   5.007   3.298 -2.0871 -1.5000  2.5660
  807MOL0     H11345   5.960   5.016   3.370  1.2209  0.7286 -2.2466
  807MOL0     H11346   5.928   5.729   3.274 -0.7105 -0.5034 -1.5075
  807MOL0     H11347   6.019   5.865   3.467  0.8286 -2.5942  1.7404
  807MOL0     H11348   6.436   6.070   3.593  0.7676 -1.2698  0.2180
  807MOL0     H11349   6.520   6.226   3.771 -2.6070  1.8923  2.1512
  807MOL0     H11350   5.883   5.861   3.744 -0.8453 -1.8266 -0.2738
  807MOL0     H11351   5.880   5.646   3.615  0.1714  0.1980  0.0033
  807MOL0     H11352   5.590   5.579   3.190  1.6537  0.2872  3.5058
  807MOL0     H11353   5.482   5.437   3.012 -1.0390 -2.6063 -0.5970
  807MOL0     H11354   5.413   5.163   2.822 -1.0911  1.0950  0.7761
  807MOL0     H11355   5.507   5.308   2.842 -0.4205 -1.7387 -3.1719
  807MOL0     H11356   5.621   5.031   2.890  2.9610 -1.3894 -1.0054
  807MOL0     H11357   5.716   5.178   2.875 -2.2745  2.1431  0.4283
  807MOL0     H11358   5.566   5.028   2.674  2.2591 -2.1501 -0.4632
  807MOL0     H11359   5.599   5.185   2.642 -0.1835 -0.8542 -2.1797
  807MOL0     H11360   5.766   5.022   2.548 -0.0426 -0.8382 -0.8744
  807MOL0     H11361   5.798   4.973   2.713 -5.8636 -3.3129 -2.7955
  807MOL0     H11362   6.063   5.297   2.607  0.7875 -2.8828  0.2426
  807MOL0     H11363   5.580   5.092   3.210 -1.4975  0.1537  1.7931
  807MOL0     H11364   5.654   5.090   3.458  0.7124 -0.8071  3.3378
  807MOL0     H11365   5.776   5.215   3.464 -0.7927  1.0020 -1.7767
  807MOL0     H11366   5.611   5.242   3.543 -2.2800  0.9698 -1.3081
  808MOL0     O11367   6.734   1.018   9.008  0.3036 -0.6576 -0.3115
  808MOL0     C11368   6.699   1.027   9.123  0.7783  0.0641  0.2494
  808MOL0     O11369   6.574   1.079   9.161 -0.0084 -0.1099 -0.4813
  808MOL0     C11370   6.478   1.101   9.068 -0.3267  0.0174  0.7593
  808MOL0     C11371   6.421   1.214   9.036 -0.1102 -0.7719 -0.0582
  808MOL0     C11372   6.321   1.234   8.946  0.6046  0.4915  1.5033
  808MOL0     C11373   6.283   1.129   8.866  0.6113 -0.2260  0.0908
  808MOL0     O11374   6.195   1.150   8.760  0.2029 -0.0055 -0.0547
  808MOL0     C11375   6.084   1.059   8.746 -0.3242  0.2914 -0.1578
  808MOL0     C11376   5.999   1.070   8.883  0.0146 -0.1809 -0.1695
  808MOL0     C11377   5.866   0.993   8.873 -0.4263  0.8708  0.3256
  808MOL0     C11378   5.885   0.840   8.847 -0.4667 -0.4446  0.7151
  808MOL0     C11379   5.756   0.753   8.851  0.2965  0.3870  0.0670
  808MOL0     C11380   5.771   0.614   8.782  0.8372 -0.5655  0.4129
  808MOL0     C11381   5.880   0.531   8.854 -0.1620  0.2211  0.3750
  808MOL0     C11382   5.889   0.387   8.792  0.5799 -1.1268 -0.2621
  808MOL0     N11383   5.775   0.305   8.842 -0.2634  1.2258 -0.1621
  808MOL0     C11384   5.685   0.234   8.760 -0.6872  0.2828 -0.2058
  808MOL0     C11385   5.593   0.186   8.856  0.4858  0.0966 -0.3847
  808MOL0     C11386   5.471   0.116   8.815  0.4120  0.6565  0.2380
  808MOL0     C11387   5.387   0.053   8.925  0.6541  0.0949  0.1966
  808MOL0     C11388   5.462  -0.042   9.015  1.0426  0.2321 -0.4914
  808MOL0     C11389   5.371  -0.155   9.069 -0.6850 -0.9006  0.0406
  808MOL0     O11390   5.341  -0.239   8.961 -0.1502  0.0987  0.3399
  808MOL0     C11391   5.209  -0.252   8.916  0.5962  1.2307  0.3930
  808MOL0     C11392   5.190  -0.379   8.858  1.2004  0.0585  0.6648
  808MOL0     C11393   5.063  -0.418   8.812 -0.1756  0.2028  0.0053
  808MOL0     C11394   5.047  -0.557   8.756  0.1096  0.2322  0.0348
  808MOL0     C11395   4.955  -0.334   8.815  0.4981 -0.6762 -0.8915
  808MOL0     C11396   4.818  -0.361   8.768  0.8026 -0.0921  0.9422
  808MOL0     O11397   4.770  -0.251   8.699 -0.4177 -0.4371 -0.1394
  808MOL0     C11398   4.650  -0.265   8.629 -0.1561 -0.4543 -0.4655
  808MOL0     C11399   4.549  -0.180   8.663  0.3525 -0.0933  0.6300
  808MOL0     C11400   4.421  -0.202   8.599 -0.4383  0.3302 -0.0955
  808MOL0     C11401   4.408  -0.296   8.498  0.0911  0.0002  0.1452
  808MOL0     O11402   4.282  -0.302   8.447 -0.8605 -0.2762  0.4753
  808MOL0     C11403   4.250  -0.378   8.329 -0.0388 -0.1769  0.4751
  808MOL0     C11404   4.106  -0.369   8.281  0.9827 -0.7055  0.8273
  808MOL0     C11405   4.078  -0.234   8.213 -0.5661  0.6142 -0.6186
  808MOL0     C11406   3.931  -0.220   8.180 -1.2328 -0.0520 -0.3056
  808MOL0     C11407   3.841  -0.211   8.302 -0.2152  0.9773 -0.2416
  808MOL0     C11408   3.869  -0.122   8.421 -0.2828 -0.0504 -0.3564
  808MOL0     C11409   3.747  -0.083   8.504 -0.2091  0.4433  0.6560
  808MOL0     C11410   3.770   0.036   8.593 -0.9379 -0.4410  0.2561
  808MOL0    Cl11411   3.791   0.188   8.490  0.0692  0.0123  0.0855
  808MOL0     C11412   4.513  -0.378   8.463  0.4637  0.0517 -0.5078
  808MOL0     C11413   4.633  -0.366   8.531 -0.2100  0.0614 -0.4070
  808MOL0     O11414   4.758  -0.465   8.780  1.2432  0.3728 -0.2862
  808MOL0     C11415   4.985  -0.194   8.859  0.8110  0.4243 -0.7492
  808MOL0     C11416   5.105  -0.157   8.913 -0.1688  0.0231 -0.8079
  808MOL0     N11417   5.638   0.226   8.978 -0.0942 -0.0785  0.5401
  808MOL0     N11418   5.748   0.296   8.975  0.1632 -0.4380  0.3356
  808MOL0     C11419   6.335   1.003   8.893 -0.3946  0.6272 -0.7644
  808MOL0     C11420   6.429   0.987   9.003  0.4060  0.6150 -0.4942
  808MOL0     C11421   6.805   0.994   9.230 -1.1278 -0.5534 -0.4751
  808MOL0     C11422   6.938   0.976   9.187 -0.4376 -0.0945 -1.0573
  808MOL0     C11423   7.042   0.952   9.275 -0.1805  1.2770  0.6065
  808MOL0     C11424   7.007   0.912   9.409  0.3586  0.1739  0.0774
  808MOL0     O11425   7.099   0.856   9.503  0.1601 -0.2417  0.6273
  808MOL0     C11426   7.235   0.838   9.469  0.5209 -0.9103  0.6671
  808MOL0     C11427   7.317   0.746   9.562  0.3883  0.5322 -0.6180
  808MOL0     C11428   7.462   0.726   9.525 -0.8518  0.1494 -0.0461
  808MOL0     C11429   7.560   0.843   9.583 -1.1505 -0.3132  0.1050
  808MOL0     C11430   7.577   0.812   9.729 -0.0830 -0.6553 -0.2161
  808MOL0     C11431   7.582   0.788   9.849 -0.0436 -0.8840 -0.2312
  808MOL0     C11432   6.877   0.930   9.456  0.3037  0.1322 -0.1268
  808MOL0     C11433   6.775   0.970   9.369 -0.0767  0.2096  0.7095
  808MOL0     C11434   6.632   0.961   9.439  0.6368  0.1548 -0.0740
  808MOL0     H11435   6.449   1.295   9.103  2.4797 -2.2060  0.7345
  808MOL0     H11436   6.277   1.331   8.928  0.6556 -0.0903 -2.4508
  808MOL0     H11437   6.125   0.962   8.716  2.1428  0.6509  1.6823
  808MOL0     H11438   6.025   1.088   8.659  0.1039  1.8709  0.0457
  808MOL0     H11439   6.051   1.025   8.969  4.3911 -1.0241 -2.8966
  808MOL0     H11440   5.984   1.177   8.901  0.2307 -0.2419  0.4080
  808MOL0     H11441   5.805   1.006   8.963 -0.4894 -1.0014  0.6102
  808MOL0     H11442   5.809   1.037   8.791  0.2704  2.5865  0.7159
  808MOL0     H11443   5.951   0.824   8.761 -0.6374 -0.2011  0.5401
  808MOL0     H11444   5.943   0.799   8.930  2.4747 -2.0949 -1.9306
  808MOL0     H11445   5.667   0.792   8.801  0.0157 -1.8697 -1.3661
  808MOL0     H11446   5.722   0.727   8.952  0.0294  0.9617  0.1291
  808MOL0     H11447   5.677   0.561   8.766  0.7820 -0.2773 -0.2463
  808MOL0     H11448   5.809   0.644   8.683  0.3995  1.3376  0.7812
  808MOL0     H11449   5.867   0.537   8.962  0.2553 -0.0027  0.4379
  808MOL0     H11450   5.982   0.569   8.846 -0.4437  0.6744 -2.0210
  808MOL0     H11451   5.885   0.381   8.683  1.9390 -1.3308 -0.3194
  808MOL0     H11452   5.977   0.329   8.824  1.6228  0.4535 -0.1501
  808MOL0     H11453   5.682   0.227   8.652  1.3514 -0.7633 -0.2387
  808MOL0     H11454   5.502   0.037   8.745 -2.0031  0.4572 -0.7047
  808MOL0     H11455   5.406   0.193   8.774  0.7578  0.5849 -0.4679
  808MOL0     H11456   5.331   0.120   8.991  0.6556 -2.2495  2.7712
  808MOL0     H11457   5.316  -0.007   8.867  1.4538 -0.3837 -0.2945
  808MOL0     H11458   5.541  -0.093   8.959 -1.1283 -2.3430 -1.4241
  808MOL0     H11459   5.503   0.027   9.089  1.2252 -1.3632  0.9703
  808MOL0     H11460   5.421  -0.212   9.148  1.8604 -0.8861 -1.4392
  808MOL0     H11461   5.285  -0.097   9.104 -0.6550  0.2085 -1.6130
  808MOL0     H11462   5.260  -0.462   8.865 -0.8611 -1.7583  0.7835
  808MOL0     H11463   5.144  -0.591   8.717 -0.6525 -2.6115  0.4098
  808MOL0     H11464   4.980  -0.547   8.671 -0.1375 -0.3887  0.1544
  808MOL0     H11465   5.001  -0.622   8.831 -0.6800  2.3909  1.5597
  808MOL0     H11466   4.580  -0.111   8.741 -0.8792  3.1586 -1.5760
  808MOL0     H11467   4.334  -0.142   8.622 -0.0271  1.2849 -0.9562
  808MOL0     H11468   4.319  -0.344   8.251 -0.0524  0.2775  0.6526
  808MOL0     H11469   4.267  -0.484   8.345 -3.0409 -0.6474  1.2213
  808MOL0     H11470   4.090  -0.446   8.205 -2.2198  1.5487 -1.0098
  808MOL0     H11471   4.039  -0.379   8.367  0.4622  0.3262  0.5523
  808MOL0     H11472   4.146  -0.213   8.130  1.1605 -1.6444  0.0906
  808MOL0     H11473   4.110  -0.160   8.287  1.5084  2.2823 -2.9977
  808MOL0     H11474   3.899  -0.295   8.106 -3.0305  1.0898 -0.7523
  808MOL0     H11475   3.919  -0.128   8.123  0.1742  0.7172  0.5971
  808MOL0     H11476   3.740  -0.191   8.265  0.1266  0.0336 -1.7579
  808MOL0     H11477   3.829  -0.308   8.351 -2.4460  1.2297 -0.1744
  808MOL0     H11478   3.904  -0.026   8.382 -1.9681  0.9719  0.4966
  808MOL0     H11479   3.944  -0.167   8.488 -1.0774 -0.8472  0.0125
  808MOL0     H11480   3.721  -0.169   8.567 -0.4128  1.3423  1.8232
  808MOL0     H11481   3.663  -0.072   8.435  1.7134  1.2477 -1.6961
  808MOL0     H11482   3.865   0.021   8.645 -0.9007 -0.9752  0.0392
  808MOL0     H11483   3.687   0.044   8.665 -0.1627 -1.2185  1.2610
  808MOL0     H11484   4.492  -0.454   8.388  0.3934 -0.4969  0.0528
  808MOL0     H11485   4.717  -0.421   8.491  1.5870  0.4671  2.4803
  808MOL0     H11486   4.904  -0.123   8.850 -1.1452 -1.0824  2.9130
  808MOL0     H11487   5.124  -0.059   8.955  1.9348 -0.0957 -1.3646
  808MOL0     H11488   6.318   0.911   8.838  2.5500 -1.1036  0.9346
  808MOL0     H11489   6.459   0.884   9.021  0.4695  0.4099 -1.6784
  808MOL0     H11490   6.949   1.009   9.084 -0.5223  1.8865 -0.4587
  808MOL0     H11491   7.142   0.968   9.235  0.3855 -1.4607  0.7744
  808MOL0     H11492   7.243   0.801   9.366 -1.1885  0.7454 -0.1200
  808MOL0     H11493   7.285   0.935   9.464  3.0485 -2.1025  1.0230
  808MOL0     H11494   7.272   0.648   9.581  2.8230 -1.1021 -2.6309
  808MOL0     H11495   7.309   0.793   9.660 -1.1870  0.2238 -0.5713
  808MOL0     H11496   7.497   0.633   9.569 -2.7731 -0.0830  1.1378
  808MOL0     H11497   7.459   0.707   9.417 -0.3682 -0.6629  0.0808
  808MOL0     H11498   7.515   0.941   9.567  1.1494  0.5395 -1.6605
  808MOL0     H11499   7.656   0.840   9.530 -1.4923  1.1339 -0.6622
  808MOL0     H11500   7.586   0.784   9.956  0.9142  0.9930 -0.1497
  808MOL0     H11501   6.838   0.917   9.557 -2.2513  0.1049 -1.0355
  808MOL0     H11502   6.542   0.984   9.381 -1.4644 -1.3473  2.3940
  808MOL0     H11503   6.611   0.860   9.474  1.3394 -0.2017 -0.6560
  808MOL0     H11504   6.644   1.035   9.519 -0.7009  2.3952 -1.7999
  809MOL0     O11505   8.533   3.734  11.027 -0.3699 -0.9126 -0.1137
  809MOL0     C11506   8.650   3.729  11.063  0.6939 -0.0547 -0.5301
  809MOL0     O11507   8.720   3.844  11.086 -0.1219 -0.8320 -0.8157
  809MOL0     C11508   8.636   3.960  11.110 -0.1975 -1.0612  0.3883
  809MOL0     C11509   8.535   3.960  11.204  0.6292  0.0835  0.6718
  809MOL0     C11510   8.446   4.066  11.220 -0.7148 -0.4560 -0.7105
  809MOL0     C11511   8.461   4.186  11.150 -0.4899 -0.4000 -1.1133
  809MOL0     O11512   8.379   4.294  11.184  0.1973  1.0401  0.1813
  809MOL0     C11513   8.393   4.413  11.106  0.6070  0.1413 -0.2098
  809MOL0     C11514   8.304   4.532  11.145 -0.0461  0.0590 -0.7324
  809MOL0     C11515   8.339   4.581  11.287  0.3491 -0.5540  0.4952
  809MOL0     C11516   8.275   4.722  11.312  0.2001  0.0823 -0.0617
  809MOL0     C11517   8.284   4.767  11.458 -0.7131 -0.2035  0.1376
  809MOL0     C11518   8.205   4.904  11.491  0.7440  1.3307 -0.4110
  809MOL0     C11519   8.165   4.911  11.638  0.1408  0.0555  0.7097
  809MOL0     C11520   8.115   5.048  11.670 -0.4762 -0.8116 -0.6583
  809MOL0     N11521   8.059   5.046  11.804  0.0642 -0.6877 -0.4190
  809MOL0     C11522   8.114   4.989  11.917  0.7980  0.1419 -0.0582
  809MOL0     C11523   8.018   5.010  12.007 -0.0140 -0.2303  1.2526
  809MOL0     C11524   8.028   4.977  12.152 -0.2990 -0.0160  0.4164
  809MOL0     C11525   8.067   4.835  12.197  0.2725 -0.1047  0.6760
  809MOL0     C11526   7.948   4.736  12.186  0.2530 -1.3704  0.6629
  809MOL0     C11527   7.915   4.692  12.026 -0.5568 -0.5483  0.8699
  809MOL0     O11528   7.782   4.636  12.026 -0.1005 -0.3639  0.3951
  809MOL0     C11529   7.769   4.502  12.009 -0.1348 -0.3687  0.1815
  809MOL0     C11530   7.640   4.470  11.965 -0.3756  0.1531  0.2901
  809MOL0     C11531   7.601   4.344  11.925  0.0653  0.7950 -0.6084
  809MOL0     C11532   7.451   4.316  11.880 -1.0045 -0.7898  0.1975
  809MOL0     C11533   7.696   4.236  11.947  0.2911 -0.1031  0.6566
  809MOL0     C11534   7.672   4.100  11.903  0.6180  0.5455 -0.0620
  809MOL0     O11535   7.741   4.005  11.978  0.9822 -0.3016 -0.1688
  809MOL0     C11536   7.738   3.868  11.955  0.8035 -0.0855  0.6014
  809MOL0     C11537   7.766   3.779  12.060  0.1710 -0.3847 -0.2409
  809MOL0     C11538   7.770   3.644  12.048  0.9132  0.9467  1.1077
  809MOL0     C11539   7.748   3.589  11.917  0.2591  0.8198 -0.4657
  809MOL0     O11540   7.725   3.450  11.908  0.5860 -0.5030  0.4825
  809MOL0     C11541   7.714   3.393  11.776 -1.0832  0.2708  0.5455
  809MOL0     C11542   7.651   3.256  11.780  0.4880 -0.6083 -0.5657
  809MOL0     C11543   7.741   3.160  11.854  0.1405  0.8542  0.0617
  809MOL0     C11544   7.687   3.013  11.854 -0.0190 -0.2216 -0.0495
  809MOL0     C11545   7.802   2.922  11.908  0.9294 -0.7872 -0.0904
  809MOL0     C11546   7.751   2.773  11.918 -0.3810 -0.1908  0.4699
  809MOL0     C11547   7.858   2.672  11.950 -0.5847  0.1158 -0.6744
  809MOL0     C11548   7.913   2.698  12.090  0.7439  0.1301  0.8148
  809MOL0    Cl11549   8.043   2.597  12.134  0.3598  0.1002  0.0802
  809MOL0     C11550   7.726   3.674  11.811 -0.3470  0.0356  0.1421
  809MOL0     C11551   7.718   3.810  11.828 -0.8096 -0.1240  1.1308
  809MOL0     O11552   7.605   4.074  11.805 -0.2734  0.1897  0.5570
  809MOL0     C11553   7.828   4.263  11.991  0.3398  0.3237 -0.2161
  809MOL0     C11554   7.868   4.398  12.020  0.2645 -0.4682  0.9009
  809MOL0     N11555   7.915   5.086  11.957  0.5614 -0.0897  0.3144
  809MOL0     N11556   7.942   5.113  11.835  0.3738  1.0892  0.1092
  809MOL0     C11557   8.573   4.188  11.067  0.2432 -0.5236  0.0099
  809MOL0     C11558   8.659   4.080  11.047  0.6503 -1.9505  0.0689
  809MOL0     C11559   8.727   3.592  11.053  1.3379 -0.0208  0.0422
  809MOL0     C11560   8.868   3.591  11.068 -0.3152  0.3210 -0.3015
  809MOL0     C11561   8.948   3.474  11.068  0.2946 -0.4610  0.2185
  809MOL0     C11562   8.890   3.343  11.056  1.4583 -0.6643 -0.1132
  809MOL0     O11563   8.954   3.224  11.060 -0.0583  0.6636 -0.1825
  809MOL0     C11564   9.103   3.206  11.067 -0.1663 -1.0482 -0.0036
  809MOL0     C11565   9.181   3.253  10.933  0.7145 -0.2913 -0.0854
  809MOL0     C11566   9.330   3.203  10.946 -0.1262  0.3345  0.7240
  809MOL0     C11567   9.350   3.057  10.923 -0.2775 -0.4594 -0.6780
  809MOL0     C11568   9.318   3.017  10.786  0.4304  0.9095  0.7518
  809MOL0     C11569   9.304   2.985  10.671  0.5149  0.5699 -0.3550
  809MOL0     C11570   8.751   3.349  11.041  0.6354  1.0368 -0.6442
  809MOL0     C11571   8.663   3.463  11.037 -0.2760  0.1928 -0.3525
  809MOL0     C11572   8.515   3.459  11.013 -0.6267  0.9404  0.6211
  809MOL0     H11573   8.532   3.866  11.260 -0.5672  0.2590  0.9423
  809MOL0     H11574   8.369   4.077  11.296  0.0824  3.0944 -0.2333
  809MOL0     H11575   8.363   4.390  11.003 -3.6432  0.7743  0.6802
  809MOL0     H11576   8.495   4.452  11.111  0.3859  0.5596  2.5716
  809MOL0     H11577   8.318   4.616  11.077  1.5838  1.6974  1.4942
  809MOL0     H11578   8.195   4.523  11.145 -0.2827  2.0974  0.9174
  809MOL0     H11579   8.286   4.517  11.359 -4.8442  3.3879  0.8091
  809MOL0     H11580   8.446   4.578  11.307  0.9447  1.9248 -1.7919
  809MOL0     H11581   8.317   4.802  11.251  0.5278  2.8904  3.4713
  809MOL0     H11582   8.169   4.702  11.292  0.6306 -1.3792 -1.0576
  809MOL0     H11583   8.390   4.782  11.475 -0.4225 -1.5401 -0.3552
  809MOL0     H11584   8.249   4.687  11.524  0.1459 -1.8511 -1.3107
  809MOL0     H11585   8.274   4.982  11.458  1.4848  1.3727  1.1202
  809MOL0     H11586   8.112   4.901  11.434 -0.8760 -1.6325  2.0631
  809MOL0     H11587   8.258   4.890  11.693  1.7222 -2.3427 -2.5158
  809MOL0     H11588   8.090   4.838  11.670  0.5515 -2.0555 -2.6186
  809MOL0     H11589   8.197   5.119  11.668 -1.4623  0.3654 -2.5711
  809MOL0     H11590   8.042   5.081  11.595 -0.2718  3.1244  0.6685
  809MOL0     H11591   8.203   4.926  11.917  0.3958 -0.5477 -2.6381
  809MOL0     H11592   7.940   5.005  12.210 -0.6339 -0.2848  0.0391
  809MOL0     H11593   8.094   5.052  12.195 -0.6951  0.4240  0.2626
  809MOL0     H11594   8.152   4.804  12.136  0.1540 -2.6435  1.6527
  809MOL0     H11595   8.107   4.832  12.299 -0.7000  0.7095  1.0971
  809MOL0     H11596   7.978   4.656  12.254  1.6300 -0.2904  1.3744
  809MOL0     H11597   7.856   4.780  12.225  0.2237  1.9149 -2.5593
  809MOL0     H11598   7.922   4.780  11.962  5.0660  0.2269  2.0607
  809MOL0     H11599   7.987   4.620  11.987 -0.5681  0.0979 -0.3988
  809MOL0     H11600   7.567   4.551  11.964  1.0701  1.4952 -1.0615
  809MOL0     H11601   7.387   4.404  11.891  1.6672  1.2169  0.7849
  809MOL0     H11602   7.402   4.236  11.935  0.8674 -4.7857 -3.3816
  809MOL0     H11603   7.450   4.281  11.776 -3.1133 -1.3716  0.3682
  809MOL0     H11604   7.783   3.810  12.162  2.0489 -3.7288  0.6032
  809MOL0     H11605   7.773   3.586  12.140 -0.1251 -1.0899 -0.0736
  809MOL0     H11606   7.644   3.458  11.722 -1.5419 -0.2150  0.5496
  809MOL0     H11607   7.811   3.383  11.725 -0.9462 -0.4141  0.9418
  809MOL0     H11608   7.558   3.263  11.837 -1.0708  1.0248 -3.1150
  809MOL0     H11609   7.620   3.225  11.680 -0.3782  0.7843 -0.7508
  809MOL0     H11610   7.758   3.186  11.958  0.1963  1.9199 -0.1948
  809MOL0     H11611   7.840   3.154  11.809  0.0087 -2.9101 -0.0198
  809MOL0     H11612   7.663   2.975  11.755  3.1312 -0.0002 -0.9882
  809MOL0     H11613   7.595   2.998  11.913 -0.3859 -1.1991 -0.8447
  809MOL0     H11614   7.883   2.936  11.835 -0.5932  1.9415 -1.4121
  809MOL0     H11615   7.826   2.962  12.007 -0.4254 -0.8202  0.2619
  809MOL0     H11616   7.716   2.750  11.818  0.2663  1.3601 -0.1464
  809MOL0     H11617   7.664   2.769  11.985 -0.9702  0.2560 -0.2589
  809MOL0     H11618   7.939   2.665  11.877 -0.8193 -3.2018 -0.7824
  809MOL0     H11619   7.815   2.571  11.953  0.2470 -0.2208  0.5068
  809MOL0     H11620   7.842   2.687  12.172  0.7742  2.5035  1.2430
  809MOL0     H11621   7.938   2.805  12.095 -0.4669  0.4203  0.9787
  809MOL0     H11622   7.717   3.636  11.709  0.9258 -0.6135  0.2536
  809MOL0     H11623   7.694   3.855  11.732 -1.9538 -0.4417  1.2525
  809MOL0     H11624   7.904   4.188  12.008  2.0612  1.8437 -0.9573
  809MOL0     H11625   7.964   4.423  12.065  0.8478 -0.1910 -0.4396
  809MOL0     H11626   8.585   4.280  11.011  1.2748  0.5061  1.8413
  809MOL0     H11627   8.742   4.089  10.977  2.6547  1.1210  2.5692
  809MOL0     H11628   8.909   3.688  11.096  1.5266 -0.7743  1.0310
  809MOL0     H11629   9.052   3.479  11.099 -0.4672 -1.7838  3.3208
  809MOL0     H11630   9.158   3.223  11.160 -0.3708 -2.0692  0.3160
  809MOL0     H11631   9.109   3.096  11.062  1.6588 -1.0612  1.3830
  809MOL0     H11632   9.180   3.361  10.951 -3.1911  0.0731 -1.6764
  809MOL0     H11633   9.132   3.224  10.840  0.3731 -5.1342  1.3138
  809MOL0     H11634   9.391   3.256  10.871 -1.7630 -0.7230 -1.4833
  809MOL0     H11635   9.365   3.220  11.048  0.2001  2.6720  0.2627
  809MOL0     H11636   9.287   3.000  10.992 -1.0767  0.5064 -0.5926
  809MOL0     H11637   9.455   3.027  10.932 -1.1179 -3.3707  0.6189
  809MOL0     H11638   9.300   2.968  10.565  3.3561 -1.9798 -0.2020
  809MOL0     H11639   8.711   3.249  11.023  0.6293  0.9044  0.0752
  809MOL0     H11640   8.492   3.354  10.997 -4.1946  1.6349  0.3524
  809MOL0     H11641   8.448   3.485  11.095 -1.9024  0.2486 -0.1676
  809MOL0     H11642   8.494   3.506  10.916  0.7410 -1.3430 -0.8652
  810MOL0     O11643   9.335   2.952   6.805 -0.4581 -0.0606  1.0715
  810MOL0     C11644   9.225   2.994   6.841 -0.2048 -0.8068  0.2015
  810MOL0     O11645   9.159   2.952   6.954  0.8707 -0.5199 -0.1603
  810MOL0     C11646   9.205   2.839   7.020  0.7786  0.8558 -1.3165
  810MOL0     C11647   9.105   2.739   7.050 -0.6780  0.0827  0.3212
  810MOL0     C11648   9.147   2.624   7.113 -0.4967 -0.8034  0.1133
  810MOL0     C11649   9.280   2.607   7.155 -0.8193  0.2060  0.1803
  810MOL0     O11650   9.323   2.493   7.226 -0.3352  0.0056  0.3451
  810MOL0     C11651   9.287   2.364   7.167  0.1529 -1.0039 -0.7352
  810MOL0     C11652   9.327   2.344   7.019 -0.1313 -0.4002  0.7889
  810MOL0     C11653   9.472   2.295   7.002 -0.3426 -0.3986  0.7771
  810MOL0     C11654   9.573   2.406   7.033 -0.5211 -0.4722  0.5256
  810MOL0     C11655   9.715   2.359   7.044  0.7339 -1.0200  0.0111
  810MOL0     C11656   9.810   2.481   7.048 -0.2922  0.3852 -0.3333
  810MOL0     C11657   9.962   2.440   7.073  0.3457  0.1476 -0.2684
  810MOL0     C11658  10.023   2.533   7.186 -0.5754 -0.3645 -0.3726
  810MOL0     N11659  10.109   2.458   7.274  0.1109  0.2823 -0.8119
  810MOL0     C11660  10.245   2.430   7.251  0.5768 -0.6253  0.0908
  810MOL0     C11661  10.277   2.354   7.353 -0.0051  1.3913 -0.1674
  810MOL0     C11662  10.405   2.292   7.378  0.3870 -0.6860  0.2766
  810MOL0     C11663  10.496   2.390   7.456  0.0034 -0.0392  0.9352
  810MOL0     C11664  10.429   2.443   7.585 -0.1825 -1.1665  0.6655
  810MOL0     C11665  10.402   2.343   7.697  0.9235 -0.4518 -0.6662
  810MOL0     O11666  10.366   2.417   7.816  0.7646  0.3986  0.7724
  810MOL0     C11667  10.401   2.404   7.941  0.2214  0.2039  0.3389
  810MOL0     C11668  10.446   2.287   7.992  0.8278  0.1121 -0.1123
  810MOL0     C11669  10.492   2.271   8.124  0.6684 -0.3025  0.2307
  810MOL0     C11670  10.526   2.130   8.170 -0.3853 -1.0987 -0.1417
  810MOL0     C11671  10.481   2.386   8.204  0.0542  0.0267  0.6781
  810MOL0     C11672  10.524   2.388   8.342  0.3462  0.5626  0.8014
  810MOL0     O11673  10.603   2.284   8.392  0.2199 -0.3190 -0.0024
  810MOL0     C11674  10.623   2.278   8.524 -0.4208  0.3410 -0.3430
  810MOL0     C11675  10.757   2.258   8.558 -0.1383  0.6478  0.2938
  810MOL0     C11676  10.783   2.217   8.687  0.7894  0.0133 -0.5980
  810MOL0     C11677  10.678   2.215   8.785 -1.2649 -0.4469 -0.3052
  810MOL0     O11678  10.702   2.171   8.916 -0.6823 -0.3073 -0.2346
  810MOL0     C11679  10.674   2.031   8.944 -0.0969 -0.0096 -0.2855
  810MOL0     C11680  10.543   2.031   9.025 -0.3092  0.3130 -0.3923
  810MOL0     C11681  10.520   1.894   9.093  0.0857  0.1558  0.2142
  810MOL0     C11682  10.379   1.879   9.150 -0.4890  0.1451 -0.9596
  810MOL0     C11683  10.355   1.758   9.247  0.9532 -0.1375  0.7340
  810MOL0     C11684  10.421   1.631   9.202  0.3343  1.2747  0.2719
  810MOL0     C11685  10.380   1.501   9.259  0.7984 -0.0145 -0.1486
  810MOL0     C11686  10.381   1.506   9.416  0.3210  0.4049 -0.0565
  810MOL0    Cl11687  10.558   1.539   9.465 -0.0690  0.0393  0.0432
  810MOL0     C11688  10.550   2.240   8.753  0.4869 -0.0134  0.0513
  810MOL0     C11689  10.516   2.263   8.616 -0.4585  0.4869  0.4925
  810MOL0     O11690  10.471   2.470   8.409 -0.4002 -0.6618  0.2345
  810MOL0     C11691  10.427   2.509   8.150 -0.2242 -0.2105  0.2516
  810MOL0     C11692  10.394   2.515   8.017 -0.6868  0.1597  0.8791
  810MOL0     N11693  10.167   2.330   7.434  0.0031  0.5572  1.0722
  810MOL0     N11694  10.072   2.399   7.392  0.3083  0.3156  0.0286
  810MOL0     C11695   9.371   2.709   7.128  0.3845 -0.1946 -0.9043
  810MOL0     C11696   9.340   2.820   7.058  0.7776 -0.7717 -0.9741
  810MOL0     C11697   9.156   3.107   6.765  0.5741 -0.0443  0.8661
  810MOL0     C11698   9.206   3.125   6.628  0.1670 -0.5200  0.2541
  810MOL0     C11699   9.162   3.234   6.551 -0.0197 -0.6678 -0.2543
  810MOL0     C11700   9.051   3.308   6.599 -0.4062 -1.3748 -1.0388
  810MOL0     O11701   8.999   3.424   6.539 -0.3290  0.1139 -0.6704
  810MOL0     C11702   9.074   3.477   6.430 -1.1672 -0.1946  0.9386
  810MOL0     C11703   9.024   3.612   6.407 -1.4214 -0.7500 -1.4488
  810MOL0     C11704   8.878   3.631   6.384  0.0574 -0.8067  1.0023
  810MOL0     C11705   8.849   3.649   6.240  0.9792 -0.0175  0.2730
  810MOL0     C11706   8.858   3.517   6.172  0.2864 -0.1494  0.2434
  810MOL0     C11707   8.880   3.406   6.123  0.6577  0.1560  0.4776
  810MOL0     C11708   8.992   3.279   6.722  0.2690 -0.1731 -0.3926
  810MOL0     C11709   9.034   3.173   6.805  0.5208  0.6369  0.6500
  810MOL0     C11710   8.957   3.158   6.939 -0.1677  0.4663  0.9800
  810MOL0     H11711   9.001   2.738   7.021 -0.0049  0.3740 -2.3356
  810MOL0     H11712   9.077   2.546   7.141 -2.9151 -0.5067 -4.1926
  810MOL0     H11713   9.179   2.346   7.172 -0.1655  1.0178  2.1602
  810MOL0     H11714   9.334   2.279   7.218  0.8905 -0.0358  0.2277
  810MOL0     H11715   9.265   2.270   6.968 -0.4391  0.3227  0.0945
  810MOL0     H11716   9.313   2.438   6.965 -0.0835  0.0073  1.4779
  810MOL0     H11717   9.489   2.208   7.066  1.0444 -1.3763 -0.8446
  810MOL0     H11718   9.480   2.251   6.903  2.5288 -0.5130  0.9730
  810MOL0     H11719   9.551   2.488   6.964 -0.9500 -0.7342  0.3448
  810MOL0     H11720   9.551   2.451   7.130  1.5411  1.7263  0.0641
  810MOL0     H11721   9.726   2.289   6.960 -0.8603 -0.2415 -0.8825
  810MOL0     H11722   9.712   2.307   7.140 -2.8624  0.0786  0.6222
  810MOL0     H11723   9.804   2.533   6.952  3.4900  0.7162 -0.5380
  810MOL0     H11724   9.778   2.547   7.130  3.6396  2.1270 -0.0089
  810MOL0     H11725  10.010   2.477   6.982  0.7813  1.9552  0.6383
  810MOL0     H11726   9.968   2.333   7.092 -2.8538  0.0308  0.5599
  810MOL0     H11727  10.076   2.621   7.149  0.1954 -0.0696  1.3223
  810MOL0     H11728   9.945   2.573   7.252  1.6062  0.0914  2.1039
  810MOL0     H11729  10.320   2.443   7.173  0.7637  0.8970  0.5078
  810MOL0     H11730  10.459   2.274   7.284 -0.6149  1.1145 -0.7205
  810MOL0     H11731  10.398   2.195   7.426  0.5916 -2.9141 -3.7406
  810MOL0     H11732  10.595   2.345   7.472  1.8408  3.1516 -0.4615
  810MOL0     H11733  10.522   2.479   7.399  1.7083 -0.1242  1.5141
  810MOL0     H11734  10.494   2.519   7.629 -2.2446  1.0478  0.1005
  810MOL0     H11735  10.338   2.500   7.565  0.1024 -1.5457 -2.1401
  810MOL0     H11736  10.324   2.270   7.675  0.5477 -0.9361  1.9523
  810MOL0     H11737  10.489   2.278   7.711 -0.1132 -1.6327  0.5377
  810MOL0     H11738  10.441   2.194   7.936  0.4487  0.0583  0.0078
  810MOL0     H11739  10.634   2.117   8.172  0.0426  1.7355  2.7062
  810MOL0     H11740  10.490   2.057   8.096 -0.4272 -1.2835  0.0596
  810MOL0     H11741  10.486   2.111   8.270  0.4868 -1.5048  0.1346
  810MOL0     H11742  10.824   2.263   8.473 -2.2115  0.6194 -1.4472
  810MOL0     H11743  10.885   2.204   8.723  0.0558 -2.5385  0.7596
  810MOL0     H11744  10.648   1.972   8.856 -1.4382  0.3783 -0.1633
  810MOL0     H11745  10.751   1.976   8.999  1.6302  0.3758 -2.1873
  810MOL0     H11746  10.551   2.105   9.105  3.3904 -1.7389  1.3664
  810MOL0     H11747  10.455   2.069   8.971 -0.1790 -0.3527 -1.0904
  810MOL0     H11748  10.585   1.895   9.181 -0.7835 -0.1942  0.8675
  810MOL0     H11749  10.558   1.807   9.038  1.4997  0.0683  1.2765
  810MOL0     H11750  10.323   1.866   9.058  0.7504  2.5047 -2.1543
  810MOL0     H11751  10.352   1.975   9.197 -1.1714  0.8900 -2.7928
  810MOL0     H11752  10.397   1.793   9.342  0.1733  1.0474  0.6547
  810MOL0     H11753  10.249   1.737   9.263 -0.0634  2.0817 -2.1968
  810MOL0     H11754  10.530   1.628   9.205  0.3587  1.0309 -0.5177
  810MOL0     H11755  10.406   1.609   9.096 -0.7170 -1.3369  0.8838
  810MOL0     H11756  10.434   1.418   9.213 -1.9861 -1.0924 -1.6983
  810MOL0     H11757  10.273   1.496   9.234  1.1274  3.6617 -3.0678
  810MOL0     H11758  10.338   1.417   9.463 -3.1397  2.1639  0.3541
  810MOL0     H11759  10.320   1.587   9.457  2.0106  0.1479  3.3146
  810MOL0     H11760  10.483   2.241   8.838  1.6711  0.6499  1.0096
  810MOL0     H11761  10.418   2.290   8.579  0.1148  2.9998  0.6269
  810MOL0     H11762  10.423   2.603   8.203  0.4067 -0.6732  1.1404
  810MOL0     H11763  10.364   2.605   7.963 -0.1555 -0.5351 -0.6055
  810MOL0     H11764   9.477   2.690   7.142  0.7554  2.5373  0.7914
  810MOL0     H11765   9.420   2.890   7.034  1.9816 -2.1021 -0.9648
  810MOL0     H11766   9.285   3.058   6.595  0.3135 -1.1132  1.7138
  810MOL0     H11767   9.205   3.252   6.452 -0.1742 -2.2093 -0.6221
  810MOL0     H11768   9.182   3.469   6.448 -0.8905 -0.2897 -0.6295
  810MOL0     H11769   9.064   3.428   6.333  0.2515  0.3469  0.4868
  810MOL0     H11770   9.079   3.664   6.327 -0.6920  0.0765 -0.4380
  810MOL0     H11771   9.055   3.672   6.493  1.0755 -0.6814 -2.3318
  810MOL0     H11772   8.825   3.552   6.439  5.3833 -2.3684  4.6668
  810MOL0     H11773   8.853   3.724   6.435 -0.7634 -0.9839  0.9445
  810MOL0     H11774   8.916   3.731   6.211  1.3292  0.6278  2.7456
  810MOL0     H11775   8.749   3.682   6.209  0.9587 -0.5910 -0.2906
  810MOL0     H11776   8.892   3.310   6.077  0.5461  0.4642 -0.2221
  810MOL0     H11777   8.902   3.337   6.743 -0.4198 -1.8207  1.4580
  810MOL0     H11778   9.017   3.150   7.030 -0.8809  1.4298  1.5596
  810MOL0     H11779   8.884   3.238   6.956 -1.8593 -1.2380  2.1472
  810MOL0     H11780   8.894   3.070   6.924  0.7727  0.0892 -1.0559
  811MOL0     O11781   6.517  10.832   8.503 -0.6654  0.5935 -0.5921
  811MOL0     C11782   6.457  10.723   8.515  0.9963 -0.3154  0.8721
  811MOL0     O11783   6.373  10.670   8.418 -0.3058 -0.3875 -0.5554
  811MOL0     C11784   6.299  10.754   8.339 -0.0922 -0.1130  0.2451
  811MOL0     C11785   6.275  10.718   8.208  0.2998 -0.7146 -0.8326
  811MOL0     C11786   6.189  10.804   8.130 -0.9547  0.4597  0.5050
  811MOL0     C11787   6.138  10.923   8.183 -0.0089 -0.4364  0.1181
  811MOL0     O11788   6.055  10.982   8.094 -0.3980  1.1747 -0.7308
  811MOL0     C11789   6.048  11.124   8.103 -0.9912 -0.7758 -0.2382
  811MOL0     C11790   5.990  11.181   7.966 -0.2321 -0.1367 -0.1247
  811MOL0     C11791   5.842  11.153   7.961 -0.2921 -0.1048 -0.4322
  811MOL0     C11792   5.797  11.195   7.812 -0.2876 -0.9079 -0.2030
  811MOL0     C11793   5.645  11.184   7.790 -0.4529  0.0657  0.3685
  811MOL0     C11794   5.602  11.283   7.686  0.0725  0.8386  0.9199
  811MOL0     C11795   5.466  11.233   7.631  0.1307  0.2239  0.7506
  811MOL0     C11796   5.397  11.326   7.532  0.1119  0.1218  0.0242
  811MOL0     N11797   5.276  11.260   7.482  0.0816  0.1658 -0.8072
  811MOL0     C11798   5.156  11.294   7.538  0.3883  0.8268  0.5835
  811MOL0     C11799   5.070  11.249   7.440  0.7189  0.0207  0.7493
  811MOL0     C11800   4.928  11.254   7.405  0.1760  0.6721  0.2656
  811MOL0     C11801   4.869  11.124   7.455  0.1401  0.4776  0.2835
  811MOL0     C11802   4.891  11.093   7.613  0.1005 -0.5081  0.1247
  811MOL0     C11803   4.824  10.966   7.655  0.4687 -0.3236 -0.0485
  811MOL0     O11804   4.682  10.951   7.604 -0.9425  0.2702 -0.2792
  811MOL0     C11805   4.581  10.976   7.689 -0.3516 -0.5850 -1.4285
  811MOL0     C11806   4.580  11.063   7.807  1.5792  0.4772  0.2815
  811MOL0     C11807   4.466  11.080   7.885  1.0412  0.1573 -0.3123
  811MOL0     C11808   4.463  11.183   7.993  0.1096  0.3650  0.0825
  811MOL0     C11809   4.344  11.004   7.842 -0.1274 -0.1424 -1.2390
  811MOL0     C11810   4.207  11.013   7.899  0.7805 -0.5763 -0.0349
  811MOL0     O11811   4.122  10.917   7.865  0.2616 -0.4785 -0.6290
  811MOL0     C11812   3.994  10.924   7.913  0.3045  0.9323 -0.2315
  811MOL0     C11813   3.953  10.923   8.046  0.4520  0.3109  0.1846
  811MOL0     C11814   3.817  10.912   8.081  0.7605 -0.5034 -0.1588
  811MOL0     C11815   3.722  10.889   7.982  0.6729  0.1613  0.3245
  811MOL0     O11816   3.587  10.881   8.016  0.3206 -0.1216  0.8843
  811MOL0     C11817   3.506  10.777   7.952 -0.1422  0.4085 -0.2346
  811MOL0     C11818   3.415  10.717   8.058  1.0623  0.2351 -1.5579
  811MOL0     C11819   3.286  10.640   7.999 -1.0025  0.5225  0.3733
  811MOL0     C11820   3.162  10.698   8.045 -0.2790  0.9817 -0.1335
  811MOL0     C11821   3.126  10.836   7.988  0.3717 -0.7565 -0.2541
  811MOL0     C11822   3.107  10.835   7.839 -0.3097 -0.6335  0.3478
  811MOL0     C11823   3.114  10.980   7.791  0.1569 -0.7156 -1.0193
  811MOL0     C11824   3.012  11.076   7.865 -0.5672  0.3438 -0.3732
  811MOL0    Cl11825   2.852  11.019   7.839 -0.0804  0.0907 -0.3171
  811MOL0     C11826   3.769  10.873   7.849  0.0178  0.9458 -0.5393
  811MOL0     C11827   3.899  10.884   7.813 -0.1899 -0.8160  0.6419
  811MOL0     O11828   4.179  11.113   7.965  0.5567 -0.9201 -0.0167
  811MOL0     C11829   4.355  10.921   7.739 -0.0977 -0.4988  1.0525
  811MOL0     C11830   4.468  10.909   7.662 -0.0237  0.2518 -0.4234
  811MOL0     N11831   5.139  11.193   7.335  0.3167  0.1834 -0.3230
  811MOL0     N11832   5.264  11.196   7.365  1.0961 -1.1220  0.2424
  811MOL0     C11833   6.171  10.959   8.312  0.0043 -0.6823 -0.6853
  811MOL0     C11834   6.255  10.875   8.391  0.5488  0.1693 -0.6395
  811MOL0     C11835   6.464  10.650   8.645 -0.2723 -0.4893 -0.0096
  811MOL0     C11836   6.454  10.512   8.639 -0.7100  0.7223 -0.0822
  811MOL0     C11837   6.496  10.426   8.741 -0.2006  0.0687  0.6392
  811MOL0     C11838   6.540  10.483   8.861  0.3391  1.1934 -0.3480
  811MOL0     O11839   6.575  10.394   8.954  0.5067 -0.3409 -0.0120
  811MOL0     C11840   6.505  10.408   9.082  0.2782  0.2054 -1.3103
  811MOL0     C11841   6.349  10.407   9.083 -0.1860  0.1339 -0.4893
  811MOL0     C11842   6.296  10.284   9.015  1.3585  0.7884 -0.0196
  811MOL0     C11843   6.144  10.267   8.999 -0.3095  0.3594  0.1234
  811MOL0     C11844   6.119  10.222   8.859  0.5059  0.1390 -0.9392
  811MOL0     C11845   6.090  10.188   8.753  0.2595  1.0054 -0.1822
  811MOL0     C11846   6.537  10.623   8.875  0.4549  0.2810 -0.1542
  811MOL0     C11847   6.499  10.710   8.768 -0.6493  0.5192  0.4927
  811MOL0     C11848   6.498  10.863   8.790 -0.6594  0.3374 -0.4697
  811MOL0     H11849   6.320  10.623   8.181 -1.0038 -2.2437  1.9491
  811MOL0     H11850   6.162  10.762   8.033  2.2935  0.8664 -0.6882
  811MOL0     H11851   6.147  11.165   8.123 -1.6896 -0.0183  1.8745
  811MOL0     H11852   5.975  11.141   8.182 -0.7092 -2.6555  0.4897
  811MOL0     H11853   6.015  11.287   7.961  0.5187 -0.2550  0.8162
  811MOL0     H11854   6.040  11.134   7.881 -0.6617  3.6295 -2.6779
  811MOL0     H11855   5.829  11.051   7.998 -1.2443  0.2478  0.2750
  811MOL0     H11856   5.790  11.222   8.029 -0.1689 -2.5952  2.4205
  811MOL0     H11857   5.835  11.297   7.803 -0.2714 -0.6243  2.4389
  811MOL0     H11858   5.839  11.137   7.729  2.2450 -0.6881  0.8394
  811MOL0     H11859   5.590  11.208   7.882 -2.5772  3.6133 -1.6376
  811MOL0     H11860   5.615  11.081   7.769 -1.0046 -0.0236  1.5015
  811MOL0     H11861   5.605  11.382   7.731  2.5405  0.7745  1.0635
  811MOL0     H11862   5.672  11.283   7.602  0.2004 -0.6215  0.9881
  811MOL0     H11863   5.398  11.195   7.709 -2.6060  1.3254 -0.9251
  811MOL0     H11864   5.482  11.148   7.564 -2.7265  1.6479 -1.9897
  811MOL0     H11865   5.373  11.421   7.580  0.0285 -0.4412  1.1222
  811MOL0     H11866   5.473  11.346   7.456 -3.2493  5.1884 -2.5827
  811MOL0     H11867   5.125  11.346   7.628 -2.1747 -3.5541  2.5896
  811MOL0     H11868   4.912  11.267   7.298 -3.2321 -1.1810  0.3971
  811MOL0     H11869   4.878  11.336   7.457 -0.9839 -0.6435  1.3211
  811MOL0     H11870   4.763  11.119   7.431  0.7476 -2.4645 -2.4898
  811MOL0     H11871   4.922  11.045   7.401  1.1402 -0.2772  2.2485
  811MOL0     H11872   4.997  11.095   7.643  0.3348  0.0946 -0.6891
  811MOL0     H11873   4.839  11.167   7.675  0.0965  0.6010 -1.1536
  811MOL0     H11874   4.891  10.892   7.611  1.6597 -3.0241  5.4367
  811MOL0     H11875   4.847  10.953   7.761  3.6189  2.6761 -0.1804
  811MOL0     H11876   4.669  11.115   7.840  4.5806 -0.0208 -5.6981
  811MOL0     H11877   4.409  11.143   8.080 -0.4564  2.5367  0.7984
  811MOL0     H11878   4.412  11.274   7.959  0.5734  0.4187 -0.4861
  811MOL0     H11879   4.563  11.213   8.026  0.0870  1.8735 -1.1190
  811MOL0     H11880   4.023  10.931   8.129 -1.4567 -2.6238  2.3036
  811MOL0     H11881   3.798  10.938   8.185  2.1679  2.4597 -0.5550
  811MOL0     H11882   3.444  10.820   7.872 -1.1014 -1.8819 -0.8075
  811MOL0     H11883   3.572  10.699   7.913 -0.0501  0.0590  0.6071
  811MOL0     H11884   3.481  10.660   8.125  0.7796  3.1478  1.4549
  811MOL0     H11885   3.386  10.796   8.128  2.0951 -0.9169  0.2883
  811MOL0     H11886   3.298  10.535   8.026 -2.9014  0.0526 -0.4819
  811MOL0     H11887   3.306  10.643   7.891 -0.4449  0.4775  0.4710
  811MOL0     H11888   3.174  10.691   8.154  4.5903 -0.0729 -0.5218
  811MOL0     H11889   3.075  10.638   8.017 -0.8754  2.1289 -0.8219
  811MOL0     H11890   3.039  10.874   8.043  1.3278  3.4552 -1.2717
  811MOL0     H11891   3.207  10.902   8.021 -1.0103 -0.0368  1.8613
  811MOL0     H11892   3.012  10.791   7.807 -0.0214 -0.2943 -1.0474
  811MOL0     H11893   3.189  10.785   7.787  0.1100  0.3114  0.0671
  811MOL0     H11894   3.092  10.978   7.683  2.7205 -0.2856 -1.6146
  811MOL0     H11895   3.215  11.020   7.798  0.0794 -0.7815  0.8542
  811MOL0     H11896   3.024  11.172   7.813  2.4662 -1.3056 -2.9791
  811MOL0     H11897   3.026  11.099   7.971 -3.5178 -3.7093  1.1539
  811MOL0     H11898   3.697  10.843   7.772 -0.6633  2.8115 -0.6673
  811MOL0     H11899   3.935  10.870   7.711 -0.0224  1.1156  0.4005
  811MOL0     H11900   4.266  10.875   7.696 -0.5294  0.2025  1.1763
  811MOL0     H11901   4.456  10.853   7.570  2.2081 -0.7882 -0.1392
  811MOL0     H11902   6.129  11.045   8.363  0.8235 -1.2124  0.9550
  811MOL0     H11903   6.281  10.898   8.494  0.0397  0.0214 -0.4763
  811MOL0     H11904   6.436  10.465   8.543 -1.2558  1.4786 -0.3621
  811MOL0     H11905   6.504  10.319   8.727  1.4933  0.2434  0.0048
  811MOL0     H11906   6.534  10.316   9.134  0.7918  0.1899 -1.6119
  811MOL0     H11907   6.538  10.501   9.129  0.1410 -0.6323  0.5528
  811MOL0     H11908   6.311  10.503   9.046 -0.7808  0.7497  1.5628
  811MOL0     H11909   6.318  10.400   9.188 -1.8349  4.9126 -0.3952
  811MOL0     H11910   6.337  10.267   8.915 -0.9995 -1.6555 -0.7036
  811MOL0     H11911   6.331  10.197   9.071 -1.7333 -1.8632 -1.7807
  811MOL0     H11912   6.087  10.360   9.007 -1.4497 -0.1923 -1.2129
  811MOL0     H11913   6.112  10.199   9.078  1.1789  1.1704  1.4674
  811MOL0     H11914   6.058  10.175   8.651 -1.4735  0.9354  0.3429
  811MOL0     H11915   6.559  10.654   8.977  2.6944  1.1300 -0.8511
  811MOL0     H11916   6.584  10.904   8.736  1.5193  2.5518  4.0984
  811MOL0     H11917   6.405  10.910   8.755 -1.0137 -0.2109 -0.2722
  811MOL0     H11918   6.519  10.887   8.894  1.2472  4.5041 -1.5955
  812MOL0     O11919   3.418   1.003   4.394 -0.1149  0.2181 -0.4168
  812MOL0     C11920   3.477   1.077   4.473  1.4005 -0.1117  0.0606
  812MOL0     O11921   3.506   1.053   4.600  0.2805  0.6647  0.2967
  812MOL0     C11922   3.419   0.972   4.672  0.1822  0.0709  0.5863
  812MOL0     C11923   3.286   1.022   4.706 -0.7339 -0.7171 -0.5068
  812MOL0     C11924   3.190   0.930   4.751  0.1796 -1.5546 -0.7478
  812MOL0     C11925   3.212   0.801   4.781  0.0703  0.6087  0.3625
  812MOL0     O11926   3.106   0.733   4.837 -0.2556  0.0861  0.5677
  812MOL0     C11927   3.093   0.601   4.874  0.2014  0.3494 -0.4407
  812MOL0     C11928   2.955   0.550   4.913  0.0927  0.7387  0.3689
  812MOL0     C11929   2.905   0.603   5.052 -0.0264  0.3891  0.3725
  812MOL0     C11930   2.760   0.603   5.052 -0.2304  0.2170  0.2380
  812MOL0     C11931   2.696   0.612   5.194  0.8628 -0.8255  0.0156
  812MOL0     C11932   2.724   0.741   5.277  0.0691  0.5809  0.1251
  812MOL0     C11933   2.598   0.783   5.351 -0.8018 -0.0289 -0.6762
  812MOL0     C11934   2.518   0.678   5.431 -0.1478 -0.4424 -0.0757
  812MOL0     N11935   2.596   0.597   5.524 -0.0469  0.9967  0.1649
  812MOL0     C11936   2.648   0.644   5.641  0.6565  0.4100  0.6825
  812MOL0     C11937   2.716   0.541   5.692  0.2433 -0.4893  0.1110
  812MOL0     C11938   2.797   0.561   5.820 -0.9781  0.2736 -0.1657
  812MOL0     C11939   2.728   0.509   5.947 -0.4473 -0.0712  0.3284
  812MOL0     C11940   2.811   0.406   6.013  1.2682  0.6233 -0.1263
  812MOL0     C11941   2.934   0.461   6.089  0.7303  0.4338  0.4153
  812MOL0     O11942   3.023   0.348   6.115 -0.5456  0.1241  0.2088
  812MOL0     C11943   3.129   0.377   6.205  0.2581 -0.5055  0.0033
  812MOL0     C11944   3.206   0.269   6.249  0.0103  0.0632  0.3528
  812MOL0     C11945   3.329   0.286   6.321  0.0473  0.5478  0.8162
  812MOL0     C11946   3.404   0.152   6.361  0.0492 -0.4593  0.2644
  812MOL0     C11947   3.371   0.409   6.364  1.1353 -0.3401  0.1397
  812MOL0     C11948   3.497   0.447   6.437  0.5017  0.0561 -0.6356
  812MOL0     O11949   3.604   0.377   6.414  0.4130 -0.1431 -0.5248
  812MOL0     C11950   3.719   0.409   6.472 -0.8736  0.1675  0.6207
  812MOL0     C11951   3.834   0.423   6.391  0.6062 -0.2755  0.9105
  812MOL0     C11952   3.958   0.444   6.447 -0.1175 -0.5108 -0.2723
  812MOL0     C11953   3.970   0.445   6.589 -0.1312 -0.0086  1.2067
  812MOL0     O11954   4.098   0.455   6.634  0.2578  0.0486  0.5992
  812MOL0     C11955   4.132   0.590   6.664 -0.4197  0.3918  0.4684
  812MOL0     C11956   4.222   0.591   6.788 -0.0809  0.1044  0.5778
  812MOL0     C11957   4.284   0.726   6.820 -0.8133  0.7889  0.0403
  812MOL0     C11958   4.399   0.757   6.726 -0.2903 -0.1372 -0.7434
  812MOL0     C11959   4.502   0.861   6.789  0.4256 -0.1486 -0.6018
  812MOL0     C11960   4.613   0.911   6.692 -0.8165  0.6997 -0.5629
  812MOL0     C11961   4.721   0.986   6.768  0.2055 -0.0075  0.2002
  812MOL0     C11962   4.779   1.112   6.686 -0.7774  0.1673  0.1731
  812MOL0    Cl11963   4.652   1.225   6.646 -0.5914  0.2019 -0.3682
  812MOL0     C11964   3.856   0.435   6.669 -0.1489  0.5363 -0.1328
  812MOL0     C11965   3.727   0.416   6.615 -0.7663  0.8179  0.6456
  812MOL0     O11966   3.482   0.540   6.524  0.2250  1.0408 -0.0036
  812MOL0     C11967   3.281   0.520   6.340 -0.3354  0.3114  0.0775
  812MOL0     C11968   3.170   0.500   6.256  0.3823 -0.0652 -0.0948
  812MOL0     N11969   2.702   0.434   5.621 -0.3562 -0.1470 -0.2113
  812MOL0     N11970   2.619   0.461   5.515  0.3728  0.4245  0.3791
  812MOL0     C11971   3.343   0.753   4.757  0.1669 -0.2512 -1.1820
  812MOL0     C11972   3.447   0.837   4.703  0.4140  0.0343  0.9552
  812MOL0     C11973   3.526   1.211   4.428 -0.5332 -0.5191 -0.4147
  812MOL0     C11974   3.570   1.301   4.528 -0.5193 -0.7263 -0.0675
  812MOL0     C11975   3.617   1.432   4.490 -0.6375  1.7523  0.2881
  812MOL0     C11976   3.627   1.474   4.356  0.4969 -0.6273  0.7489
  812MOL0     O11977   3.655   1.609   4.320 -0.2087 -0.2087  0.2764
  812MOL0     C11978   3.766   1.678   4.378 -0.2168  0.6697 -0.0184
  812MOL0     C11979   3.897   1.593   4.384  0.4904  0.0536 -0.2637
  812MOL0     C11980   3.939   1.532   4.246  0.3803  0.3681 -0.4187
  812MOL0     C11981   4.054   1.434   4.276 -0.2865  0.5233  0.0638
  812MOL0     C11982   4.172   1.503   4.324  0.4055  0.3916  0.0296
  812MOL0     C11983   4.273   1.571   4.348  0.2487 -0.2323  0.0773
  812MOL0     C11984   3.577   1.386   4.261 -0.6878  1.1075  0.9487
  812MOL0     C11985   3.540   1.252   4.288  0.3385  0.1133 -0.5039
  812MOL0     C11986   3.496   1.167   4.176  0.2544 -0.1301 -0.0683
  812MOL0     H11987   3.251   1.122   4.682 -0.7554 -0.8439 -1.0040
  812MOL0     H11988   3.089   0.967   4.766  0.0518 -2.9551  3.2675
  812MOL0     H11989   3.159   0.569   4.955  0.3133 -1.4188 -1.1878
  812MOL0     H11990   3.130   0.534   4.796 -0.2023  1.3321 -1.4879
  812MOL0     H11991   2.888   0.564   4.828  0.1680 -0.1919  0.1461
  812MOL0     H11992   2.962   0.441   4.919  3.2458  0.8195  0.0022
  812MOL0     H11993   2.947   0.545   5.135  0.2672 -2.9783 -1.9517
  812MOL0     H11994   2.930   0.704   5.087  0.2911  0.0335  1.1929
  812MOL0     H11995   2.722   0.678   4.982  2.8453  1.4403 -0.2817
  812MOL0     H11996   2.725   0.508   5.011 -1.1872 -0.3707  2.2496
  812MOL0     H11997   2.722   0.526   5.256  1.8422 -0.7017 -0.2146
  812MOL0     H11998   2.591   0.608   5.163  0.4420  3.3806  0.2201
  812MOL0     H11999   2.806   0.737   5.350 -0.8538  0.8765  1.2052
  812MOL0     H12000   2.743   0.828   5.213  1.8991  1.4063  1.6785
  812MOL0     H12001   2.529   0.825   5.278 -1.1834  0.6208  0.0541
  812MOL0     H12002   2.626   0.871   5.409  2.1526  0.2827 -2.3720
  812MOL0     H12003   2.437   0.725   5.486  1.6990  0.9924  1.5617
  812MOL0     H12004   2.467   0.616   5.357 -0.5474  0.6152 -0.7111
  812MOL0     H12005   2.644   0.748   5.671 -0.1816  0.1534  1.5401
  812MOL0     H12006   2.817   0.667   5.833  0.1919 -0.0067  0.4879
  812MOL0     H12007   2.895   0.516   5.798 -1.9207 -0.4891 -3.4612
  812MOL0     H12008   2.712   0.590   6.018 -0.3800  0.1985  0.0405
  812MOL0     H12009   2.637   0.457   5.915 -2.1301  2.5474  0.5508
  812MOL0     H12010   2.755   0.368   6.098 -0.1499  2.2619 -0.2842
  812MOL0     H12011   2.830   0.325   5.941  0.2152 -0.6196  0.9543
  812MOL0     H12012   2.975   0.526   6.011 -0.9898 -0.0068 -0.9279
  812MOL0     H12013   2.912   0.527   6.174 -0.5659 -1.5967  1.7717
  812MOL0     H12014   3.200   0.167   6.215 -0.1600  0.1435  0.1388
  812MOL0     H12015   3.511   0.151   6.338 -0.3143 -0.1825 -1.5847
  812MOL0     H12016   3.367   0.058   6.318 -1.9947  1.1044 -1.6529
  812MOL0     H12017   3.401   0.137   6.469  3.2252 -2.0898  0.2365
  812MOL0     H12018   3.812   0.420   6.285 -2.0319  1.8584  1.2891
  812MOL0     H12019   4.044   0.446   6.382  0.8766  1.9215  1.0025
  812MOL0     H12020   4.185   0.630   6.577  0.0213 -1.2702 -0.0566
  812MOL0     H12021   4.048   0.659   6.677  0.6784  1.5811  1.7057
  812MOL0     H12022   4.156   0.568   6.873  0.1436  1.4645  1.1412
  812MOL0     H12023   4.306   0.521   6.786  2.4548  3.0003  0.1865
  812MOL0     H12024   4.347   0.722   6.909  1.5195  0.1272 -1.5527
  812MOL0     H12025   4.202   0.799   6.822 -2.1679 -0.6838  0.2447
  812MOL0     H12026   4.367   0.804   6.632  1.9853  1.8761 -0.6049
  812MOL0     H12027   4.449   0.662   6.705 -1.1851 -0.8701  0.2947
  812MOL0     H12028   4.451   0.951   6.825  0.6053 -0.4365  0.4196
  812MOL0     H12029   4.536   0.820   6.885 -2.9085  3.3470  2.4063
  812MOL0     H12030   4.567   0.988   6.629  1.2863  2.9422  0.4878
  812MOL0     H12031   4.646   0.828   6.628  0.9440  1.1502 -0.2673
  812MOL0     H12032   4.799   0.913   6.791  1.5905  1.3568 -0.0284
  812MOL0     H12033   4.674   1.021   6.861 -0.8090  0.0448 -0.3113
  812MOL0     H12034   4.804   1.078   6.586 -2.4496 -1.6370  0.3186
  812MOL0     H12035   4.855   1.161   6.748  0.6495 -0.8533 -0.7443
  812MOL0     H12036   3.843   0.431   6.776 -6.3708  1.8503 -0.5054
  812MOL0     H12037   3.637   0.408   6.676  0.3969  3.0661  2.8445
  812MOL0     H12038   3.295   0.621   6.377 -3.4355  0.7815  0.1558
  812MOL0     H12039   3.102   0.583   6.238 -1.8259 -1.1530  2.4929
  812MOL0     H12040   3.378   0.651   4.769  2.6910  0.1009 -4.2058
  812MOL0     H12041   3.541   0.794   4.669  1.3215  1.8431  1.0848
  812MOL0     H12042   3.567   1.292   4.636 -1.8507  2.4074  0.2627
  812MOL0     H12043   3.653   1.498   4.568  1.0173 -0.9906  2.0224
  812MOL0     H12044   3.786   1.778   4.339  1.3991  1.1949  2.0112
  812MOL0     H12045   3.745   1.694   4.484  4.4603 -1.4310  1.4784
  812MOL0     H12046   3.877   1.516   4.459  2.0248  2.6712  3.0766
  812MOL0     H12047   3.973   1.656   4.431 -0.3518 -2.0227  4.5290
  812MOL0     H12048   3.855   1.475   4.204 -0.5846  1.8814 -0.6231
  812MOL0     H12049   3.968   1.614   4.180  1.3561  0.4169  0.0675
  812MOL0     H12050   4.078   1.374   4.187 -0.6626 -0.9525  0.9306
  812MOL0     H12051   4.028   1.360   4.352  1.5891  2.1955  2.4880
  812MOL0     H12052   4.353   1.639   4.366 -0.1637  1.6826 -4.0199
  812MOL0     H12053   3.564   1.420   4.159 -1.8399  0.3402  0.8253
  812MOL0     H12054   3.501   1.228   4.086 -0.7764  0.6584  0.3818
  812MOL0     H12055   3.577   1.095   4.165 -0.9669 -1.3901 -1.4366
  812MOL0     H12056   3.399   1.116   4.188  1.4234 -1.9782  2.2778
  813MOL0     O12057   4.113   7.880  10.026 -0.5373  0.3502  0.2950
  813MOL0     C12058   4.061   7.987  10.060  0.7102 -0.3941 -0.3871
  813MOL0     O12059   3.988   8.013  10.178  0.3610  0.0500  0.2820
  813MOL0     C12060   3.920   7.919  10.244 -0.1598  0.4691 -0.3095
  813MOL0     C12061   3.809   7.965  10.322  0.0552 -0.8684 -1.4934
  813MOL0     C12062   3.734   7.882  10.398 -0.7088 -1.1327 -0.4868
  813MOL0     C12063   3.769   7.746  10.399  0.6139 -0.0130  0.2212
  813MOL0     O12064   3.684   7.658  10.470  0.2260 -0.4742 -0.7322
  813MOL0     C12065   3.711   7.517  10.503 -0.0283 -0.4425 -0.1314
  813MOL0     C12066   3.664   7.432  10.390 -0.2364  0.1799  0.8649
  813MOL0     C12067   3.743   7.305  10.384 -0.0416 -0.7380 -0.1580
  813MOL0     C12068   3.671   7.207  10.493  0.5975  0.1305  0.1320
  813MOL0     C12069   3.746   7.075  10.526  0.3164  0.2798  0.6968
  813MOL0     C12070   3.685   6.993  10.640  0.8101 -0.5288  0.5217
  813MOL0     C12071   3.762   6.869  10.665  0.1098  0.2370  0.5156
  813MOL0     C12072   3.682   6.756  10.737 -0.3879  0.2783 -0.7322
  813MOL0     N12073   3.579   6.811  10.837 -0.8436  0.1049 -0.3445
  813MOL0     C12074   3.446   6.818  10.813  0.3962 -0.6635 -0.5273
  813MOL0     C12075   3.393   6.850  10.939  0.6234  0.6565  0.5068
  813MOL0     C12076   3.247   6.855  10.973  0.5467  0.6765 -0.6591
  813MOL0     C12077   3.183   6.985  11.014 -1.1859 -0.3065 -0.7571
  813MOL0     C12078   3.198   7.015  11.170 -0.1580  0.1759 -0.1380
  813MOL0     C12079   3.203   7.170  11.195  0.7092 -0.0252  0.6932
  813MOL0     O12080   3.323   7.227  11.151  0.3483  0.0688 -0.9008
  813MOL0     C12081   3.441   7.223  11.216 -0.7623  0.5104  0.0794
  813MOL0     C12082   3.465   7.254  11.353  0.3655  0.0157 -0.8675
  813MOL0     C12083   3.592   7.265  11.405  0.1687 -0.3347  0.5723
  813MOL0     C12084   3.608   7.307  11.553 -0.0887  0.1583 -0.0007
  813MOL0     C12085   3.699   7.250  11.311 -0.4020  0.6430  0.2159
  813MOL0     C12086   3.845   7.259  11.354  0.6763  0.5309 -0.8109
  813MOL0     O12087   3.877   7.333  11.458  0.6160 -0.6975 -0.3138
  813MOL0     C12088   3.996   7.339  11.530  0.5702 -0.5150  0.7353
  813MOL0     C12089   4.013   7.454  11.601  0.2061  0.4554  0.5097
  813MOL0     C12090   4.137   7.477  11.650 -0.7050 -0.1785 -0.6868
  813MOL0     C12091   4.245   7.383  11.653 -0.5983  1.0174 -0.2070
  813MOL0     O12092   4.362   7.398  11.730 -0.3634  0.3097 -0.3781
  813MOL0     C12093   4.405   7.524  11.771 -0.7913 -0.9244 -0.2544
  813MOL0     C12094   4.525   7.513  11.874 -0.2377  0.4424 -0.5906
  813MOL0     C12095   4.488   7.435  12.005 -0.6598 -0.1188 -0.2681
  813MOL0     C12096   4.615   7.375  12.072 -1.1811 -0.1139  0.1456
  813MOL0     C12097   4.586   7.236  12.147 -0.0942 -0.5903  0.1373
  813MOL0     C12098   4.713   7.217  12.231 -0.4100 -0.0403 -0.1423
  813MOL0     C12099   4.694   7.086  12.301  0.4106  0.0556  0.2087
  813MOL0     C12100   4.814   7.031  12.386  0.5961  0.1968 -0.1153
  813MOL0    Cl12101   4.884   7.146  12.503  0.4641  0.1683  0.0715
  813MOL0     C12102   4.216   7.262  11.591 -0.2092  0.8480 -0.4459
  813MOL0     C12103   4.096   7.248  11.525 -0.9459  0.6656 -0.0043
  813MOL0     O12104   3.929   7.195  11.289  0.4853 -0.1797  0.7775
  813MOL0     C12105   3.679   7.224  11.174  0.4437 -0.0295 -0.5986
  813MOL0     C12106   3.553   7.201  11.129  0.0268  0.3272  0.0463
  813MOL0     N12107   3.490   6.870  11.029  0.0033  0.4881  0.3021
  813MOL0     N12108   3.602   6.846  10.966 -0.0295  0.4943 -0.0018
  813MOL0     C12109   3.877   7.699  10.326  1.5009 -0.2799 -0.1612
  813MOL0     C12110   3.959   7.784  10.248  0.9028 -0.7227  0.1439
  813MOL0     C12111   4.115   8.105   9.994 -0.3354  0.3387  0.4819
  813MOL0     C12112   4.230   8.090   9.908  0.5545 -0.0472  0.3326
  813MOL0     C12113   4.294   8.205   9.854 -0.1442  0.3021  0.3297
  813MOL0     C12114   4.240   8.332   9.872  0.5924 -0.6783 -0.3860
  813MOL0     O12115   4.304   8.427   9.796  0.6806  0.1917  0.5715
  813MOL0     C12116   4.411   8.498   9.860 -0.0007  0.2096 -0.7870
  813MOL0     C12117   4.456   8.613   9.767  0.7741 -1.2198  0.6123
  813MOL0     C12118   4.529   8.540   9.655  0.6585 -0.4420  0.3885
  813MOL0     C12119   4.616   8.634   9.567  0.3169 -0.3320  0.6937
  813MOL0     C12120   4.725   8.704   9.638  0.0883  0.1160  0.1538
  813MOL0     C12121   4.819   8.768   9.682  0.0668 -0.3115  0.1048
  813MOL0     C12122   4.124   8.348   9.954 -0.4961  0.1815 -0.9799
  813MOL0     C12123   4.068   8.236  10.015  2.1002 -0.6848  1.3151
  813MOL0     C12124   3.948   8.258  10.107 -1.0374  0.2787  0.0791
  813MOL0     H12125   3.791   8.072  10.325 -1.1222 -1.0671 -0.4880
  813MOL0     H12126   3.662   7.927  10.466  5.0329  2.7646  4.1482
  813MOL0     H12127   3.658   7.487  10.594 -0.4006  1.3594  0.2860
  813MOL0     H12128   3.818   7.519  10.522  0.0640  2.3359 -0.5470
  813MOL0     H12129   3.557   7.411  10.404 -0.4785 -0.0212 -1.0213
  813MOL0     H12130   3.689   7.480  10.295  0.6697 -2.3147 -0.2376
  813MOL0     H12131   3.744   7.273  10.280  3.3514 -0.7699 -0.2315
  813MOL0     H12132   3.849   7.319  10.408  0.4470 -3.1483 -0.6632
  813MOL0     H12133   3.661   7.259  10.589  0.1028 -0.8478  0.6215
  813MOL0     H12134   3.568   7.185  10.464  1.0929 -1.2070 -0.6745
  813MOL0     H12135   3.851   7.094  10.546  1.3788 -2.8525 -1.1838
  813MOL0     H12136   3.753   7.003  10.443 -0.3187 -1.7524  2.3093
  813MOL0     H12137   3.673   7.060  10.726 -0.6134 -2.0499  1.5940
  813MOL0     H12138   3.584   6.966  10.607  0.6769  0.9435 -0.3821
  813MOL0     H12139   3.842   6.892  10.736  1.1746 -0.8293 -0.2943
  813MOL0     H12140   3.809   6.817  10.581 -2.1807 -1.7147  0.3279
  813MOL0     H12141   3.645   6.671  10.679  0.1510 -0.3776 -0.1333
  813MOL0     H12142   3.762   6.706  10.792  3.5048  1.1786 -4.9707
  813MOL0     H12143   3.401   6.797  10.717  0.3369  1.8728 -1.1355
  813MOL0     H12144   3.224   6.779  11.048  1.6477  0.3942 -0.5852
  813MOL0     H12145   3.205   6.833  10.874  0.0939 -1.6156 -0.0128
  813MOL0     H12146   3.231   7.068  10.963 -1.3829  0.1377 -0.2260
  813MOL0     H12147   3.079   6.994  10.982 -0.0410  0.1626 -4.9299
  813MOL0     H12148   3.108   6.986  11.223  2.7490 -2.9213  3.6730
  813MOL0     H12149   3.289   6.965  11.204 -0.2543 -0.2371 -0.4907
  813MOL0     H12150   3.113   7.208  11.145 -0.0453 -1.4447  0.8884
  813MOL0     H12151   3.176   7.183  11.300 -1.7754  2.5330 -0.1543
  813MOL0     H12152   3.381   7.265  11.421  1.4969 -2.4172  1.1061
  813MOL0     H12153   3.668   7.397  11.560 -2.2474  2.1300 -3.5284
  813MOL0     H12154   3.664   7.227  11.602  1.5010 -0.4837 -2.6278
  813MOL0     H12155   3.510   7.334  11.595  1.0135  1.3430  1.9277
  813MOL0     H12156   3.942   7.535  11.603 -0.3814 -0.0482  0.4556
  813MOL0     H12157   4.146   7.570  11.705 -0.5694 -1.2998  1.3110
  813MOL0     H12158   4.433   7.567  11.675  0.2085 -3.2534 -1.0890
  813MOL0     H12159   4.330   7.584  11.823  0.7912  0.3131  0.6858
  813MOL0     H12160   4.612   7.473  11.821 -0.4142  0.4092 -0.8568
  813MOL0     H12161   4.560   7.610  11.909 -0.6914  0.0852  0.9055
  813MOL0     H12162   4.402   7.369  11.992 -0.5076  0.2589 -4.2727
  813MOL0     H12163   4.442   7.511  12.070  1.5694  0.1726  1.0735
  813MOL0     H12164   4.659   7.448  12.141  1.3002 -0.3723 -1.0477
  813MOL0     H12165   4.687   7.374  11.990 -1.4909 -0.0494 -0.1263
  813MOL0     H12166   4.494   7.247  12.205 -0.2204  2.0051 -0.4354
  813MOL0     H12167   4.571   7.170  12.060  2.1242  1.3642 -1.8842
  813MOL0     H12168   4.727   7.292  12.310 -0.0273  1.3892 -1.5179
  813MOL0     H12169   4.802   7.212  12.168  1.4312  0.4009  2.2412
  813MOL0     H12170   4.661   7.009  12.231  2.6526  0.9070 -1.9202
  813MOL0     H12171   4.603   7.099  12.361 -0.5360  1.1550 -1.3963
  813MOL0     H12172   4.887   6.983  12.320 -1.6221 -2.2608 -0.9661
  813MOL0     H12173   4.771   6.946  12.440  0.8235  1.2707  1.8301
  813MOL0     H12174   4.288   7.180  11.596 -1.8877 -0.6247  0.9057
  813MOL0     H12175   4.082   7.160  11.463 -0.1696  0.9427 -0.5875
  813MOL0     H12176   3.758   7.227  11.099  0.1065  1.2514 -0.9261
  813MOL0     H12177   3.537   7.180  11.024  1.6723 -1.6513  0.1458
  813MOL0     H12178   3.904   7.594  10.334  1.2543 -0.3863 -0.6666
  813MOL0     H12179   4.041   7.739  10.194  1.4959 -2.3767  2.2675
  813MOL0     H12180   4.275   7.996   9.881  0.0325  0.2140 -1.5631
  813MOL0     H12181   4.379   8.189   9.789 -0.3449 -1.1941  0.4043
  813MOL0     H12182   4.377   8.542   9.954 -1.6644 -0.0309 -1.2350
  813MOL0     H12183   4.498   8.432   9.871  0.7453  1.1147 -1.1880
  813MOL0     H12184   4.509   8.689   9.825 -1.7271  1.1187  0.0119
  813MOL0     H12185   4.366   8.658   9.724 -1.5823 -1.9224  4.3975
  813MOL0     H12186   4.600   8.462   9.682 -0.0532 -2.7258 -3.5779
  813MOL0     H12187   4.450   8.497   9.592 -2.1257  3.0086  1.1987
  813MOL0     H12188   4.552   8.694   9.502  2.0814  4.2263  2.7553
  813MOL0     H12189   4.678   8.573   9.501  0.8086  0.9108 -0.0273
  813MOL0     H12190   4.889   8.826   9.738  0.2373  1.1476 -1.5226
  813MOL0     H12191   4.092   8.449   9.975  0.4353  0.3030 -0.0592
  813MOL0     H12192   3.874   8.183  10.077  1.4745 -3.6497  2.6774
  813MOL0     H12193   3.973   8.242  10.213 -0.4119 -0.7243 -0.2016
  813MOL0     H12194   3.916   8.362  10.101 -1.6948  0.2193  1.7842
  814MOL0     O12195   7.392   8.997   9.642 -0.5466  0.1832  0.2666
  814MOL0     C12196   7.326   9.011   9.539 -0.2081 -0.0833 -1.0739
  814MOL0     O12197   7.198   8.960   9.525  0.1191 -1.3932 -0.0356
  814MOL0     C12198   7.158   8.886   9.629  0.9328 -0.2278  0.2514
  814MOL0     C12199   7.234   8.769   9.668 -0.3283  0.5177 -0.9323
  814MOL0     C12200   7.190   8.697   9.782 -0.3308  0.3550  0.6567
  814MOL0     C12201   7.068   8.711   9.843 -0.0239 -0.7712 -0.3133
  814MOL0     O12202   7.029   8.645   9.956  0.2781 -0.8661  0.4479
  814MOL0     C12203   6.916   8.555   9.948  0.6738  0.9941  0.6450
  814MOL0     C12204   6.959   8.428   9.874 -0.4586  0.7911  0.0764
  814MOL0     C12205   7.095   8.368   9.901  0.6114 -0.1232 -0.2087
  814MOL0     C12206   7.126   8.373  10.058 -0.4562 -0.2126 -0.2248
  814MOL0     C12207   7.242   8.296  10.089 -0.6084 -0.1208 -0.1619
  814MOL0     C12208   7.314   8.351  10.213 -1.0261 -0.7782 -0.2795
  814MOL0     C12209   7.436   8.278  10.262  0.3264  0.3922  0.3869
  814MOL0     C12210   7.445   8.269  10.415 -0.3845  0.0614  0.0172
  814MOL0     N12211   7.384   8.148  10.475 -1.4097  0.1306  0.1954
  814MOL0     C12212   7.459   8.031  10.513  0.3030 -0.8879  1.2839
  814MOL0     C12213   7.376   7.968  10.597  0.0016 -1.2227  0.0587
  814MOL0     C12214   7.404   7.838  10.670  0.0901 -1.2096  0.3356
  814MOL0     C12215   7.353   7.714  10.606 -0.5017 -0.2795 -0.4435
  814MOL0     C12216   7.411   7.674  10.463  0.1231 -0.2754  0.0542
  814MOL0     C12217   7.547   7.596  10.467 -0.2254 -1.0602 -0.3673
  814MOL0     O12218   7.664   7.668  10.503  0.4812 -0.1603  0.4393
  814MOL0     C12219   7.750   7.628  10.599 -0.3193  0.0582 -0.4168
  814MOL0     C12220   7.703   7.575  10.719 -0.6155  0.9719  0.7907
  814MOL0     C12221   7.794   7.514  10.813  0.2678 -0.7780  0.7430
  814MOL0     C12222   7.728   7.448  10.922 -0.5715  0.1008  0.7830
  814MOL0     C12223   7.937   7.533  10.790  0.1009  0.7920  0.5246
  814MOL0     C12224   8.035   7.468  10.867  0.0398 -0.1411  0.6610
  814MOL0     O12225   8.111   7.552  10.944  0.6815  0.4758 -0.0042
  814MOL0     C12226   8.209   7.494  11.029 -0.1298 -0.4603 -0.5277
  814MOL0     C12227   8.272   7.373  11.018  0.3658 -0.2204  0.4466
  814MOL0     C12228   8.361   7.319  11.114 -0.6952 -0.0069 -0.2237
  814MOL0     C12229   8.419   7.411  11.208 -0.3932 -0.2666  0.1059
  814MOL0     O12230   8.512   7.385  11.309 -0.3329  0.1177  0.2573
  814MOL0     C12231   8.542   7.252  11.336  0.0024 -0.4468 -0.8444
  814MOL0     C12232   8.586   7.231  11.478  0.0123  0.0146  0.6939
  814MOL0     C12233   8.629   7.080  11.499 -0.4985 -0.2115  0.7490
  814MOL0     C12234   8.672   7.068  11.639 -0.2319 -1.5302  0.0772
  814MOL0     C12235   8.653   6.925  11.695 -0.9210  0.3604  0.0651
  814MOL0     C12236   8.700   6.920  11.849 -0.5190 -0.6611  0.0291
  814MOL0     C12237   8.850   6.926  11.881  0.7854  0.0117  1.1392
  814MOL0     C12238   8.898   6.870  12.005 -0.2876  0.7357 -0.4441
  814MOL0    Cl12239   9.053   6.926  12.056 -0.1601  0.1569  0.5491
  814MOL0     C12240   8.362   7.533  11.225  0.5810  0.1673 -0.0886
  814MOL0     C12241   8.258   7.571  11.136 -0.5957  0.6252  0.3607
  814MOL0     O12242   8.029   7.342  10.861  0.2112 -0.1207  0.4612
  814MOL0     C12243   7.977   7.602  10.673 -1.1320  1.1619  0.2114
  814MOL0     C12244   7.886   7.634  10.568  0.2007 -0.5190  0.3645
  814MOL0     N12245   7.257   8.040  10.606 -0.5642  0.5457  0.6189
  814MOL0     N12246   7.261   8.141  10.525  0.2298 -0.3187 -0.6261
  814MOL0     C12247   6.993   8.825   9.804  1.0692 -0.0769  1.2379
  814MOL0     C12248   7.042   8.909   9.701  0.0287  0.4984  0.8691
  814MOL0     C12249   7.386   9.086   9.418 -0.2482  0.1612  0.2775
  814MOL0     C12250   7.323   9.070   9.289  0.1617  0.4935  0.4844
  814MOL0     C12251   7.379   9.121   9.176 -0.2303  0.1479 -0.1477
  814MOL0     C12252   7.505   9.178   9.180  0.6895 -0.0791  0.1607
  814MOL0     O12253   7.571   9.236   9.073  0.4793  0.2292 -0.2173
  814MOL0     C12254   7.554   9.181   8.947  0.3096  0.6949  0.0607
  814MOL0     C12255   7.581   9.025   8.926 -0.4437 -0.6079 -0.0992
  814MOL0     C12256   7.664   8.993   8.799  0.7248 -0.5869  0.0570
  814MOL0     C12257   7.602   9.055   8.677 -0.8495  0.0315 -1.1694
  814MOL0     C12258   7.463   9.018   8.651 -0.6052 -0.0822  0.6766
  814MOL0     C12259   7.346   8.968   8.635  0.1565  0.1584 -0.7198
  814MOL0     C12260   7.556   9.222   9.308  0.1538  0.4281  1.1528
  814MOL0     C12261   7.499   9.177   9.428  0.0717  0.5316  0.7101
  814MOL0     C12262   7.552   9.226   9.562 -0.1832  0.3023 -0.4945
  814MOL0     H12263   7.333   8.748   9.628  0.1079  0.9947 -0.1496
  814MOL0     H12264   7.258   8.616   9.810  3.0301  3.0512  0.9738
  814MOL0     H12265   6.829   8.598   9.897  0.9578  3.4875  2.1355
  814MOL0     H12266   6.872   8.517  10.040 -2.2787  0.9537 -0.6515
  814MOL0     H12267   6.887   8.351   9.900  2.0478 -1.2515  1.4414
  814MOL0     H12268   6.964   8.461   9.769 -0.8076 -0.9332 -0.5055
  814MOL0     H12269   7.093   8.269   9.855 -2.0999  0.8350 -2.4367
  814MOL0     H12270   7.180   8.419   9.854 -0.0266  3.0058  1.7130
  814MOL0     H12271   7.135   8.479  10.083 -1.8562 -0.5689  2.1219
  814MOL0     H12272   7.045   8.337  10.122 -2.0304  2.0205 -0.8607
  814MOL0     H12273   7.316   8.306  10.008  2.0940  3.0109  2.3979
  814MOL0     H12274   7.225   8.188  10.101 -1.3405 -0.2025 -1.6442
  814MOL0     H12275   7.337   8.455  10.188 -1.2619 -0.7152 -0.2422
  814MOL0     H12276   7.240   8.361  10.294 -0.8325  2.9667 -0.3852
  814MOL0     H12277   7.534   8.309  10.225  1.9958 -4.7952 -0.4767
  814MOL0     H12278   7.431   8.172  10.233  0.9702  0.9227 -1.8224
  814MOL0     H12279   7.552   8.274  10.438 -0.5345 -1.3153  1.1443
  814MOL0     H12280   7.394   8.353  10.463 -1.3729 -0.2800 -0.4159
  814MOL0     H12281   7.560   8.001  10.485 -0.5966 -1.6014 -1.6412
  814MOL0     H12282   7.353   7.846  10.766 -3.1910 -0.5738 -1.3458
  814MOL0     H12283   7.513   7.830  10.684 -0.1144 -1.8291  1.7747
  814MOL0     H12284   7.358   7.634  10.681 -0.2464 -1.1361 -1.3541
  814MOL0     H12285   7.248   7.724  10.579 -0.3497  1.5943 -0.4458
  814MOL0     H12286   7.340   7.609  10.412 -0.7227  2.3674 -2.3478
  814MOL0     H12287   7.424   7.769  10.411  1.6205  1.7430  3.7027
  814MOL0     H12288   7.533   7.500  10.519  0.5707 -0.4678  0.9791
  814MOL0     H12289   7.572   7.564  10.365 -1.6820  0.3441 -1.2115
  814MOL0     H12290   7.596   7.571  10.731 -0.7383  1.0022 -0.2057
  814MOL0     H12291   7.781   7.467  11.016  1.6324 -3.4782  0.4823
  814MOL0     H12292   7.722   7.339  10.914  1.4404  0.0142 -0.2142
  814MOL0     H12293   7.625   7.484  10.931 -0.5516  0.0666  1.1387
  814MOL0     H12294   8.238   7.296  10.950 -1.3754  1.9085 -1.2670
  814MOL0     H12295   8.388   7.216  11.093 -2.6201  0.0807 -4.2110
  814MOL0     H12296   8.451   7.194  11.315 -2.4981  2.4936  0.9856
  814MOL0     H12297   8.624   7.221  11.272  1.0913 -0.1621  0.3705
  814MOL0     H12298   8.664   7.300  11.511 -0.9261  1.7522 -0.5885
  814MOL0     H12299   8.501   7.242  11.546  0.8311 -1.1641  1.9795
  814MOL0     H12300   8.709   7.056  11.428  0.0095  0.4017  1.1057
  814MOL0     H12301   8.548   7.012  11.471  0.4956 -0.0968 -3.0397
  814MOL0     H12302   8.626   7.141  11.706 -0.3010 -0.9746 -0.5684
  814MOL0     H12303   8.779   7.089  11.646 -0.9695  2.4573  2.2564
  814MOL0     H12304   8.546   6.902  11.704 -1.3178  1.7118 -0.9936
  814MOL0     H12305   8.703   6.849  11.635  0.2053  1.1387 -0.0079
  814MOL0     H12306   8.671   6.830  11.905  0.3622 -0.7950  0.2860
  814MOL0     H12307   8.649   7.003  11.898 -1.1510 -0.7712 -0.4312
  814MOL0     H12308   8.871   7.033  11.880  1.6379 -0.1446 -0.1340
  814MOL0     H12309   8.910   6.882  11.801 -3.1014 -3.0979 -0.3736
  814MOL0     H12310   8.890   6.761  12.004 -0.3212  0.7033  1.1846
  814MOL0     H12311   8.834   6.905  12.087 -0.3758 -2.5433  1.0140
  814MOL0     H12312   8.398   7.602  11.300 -1.7987  1.9586 -0.4766
  814MOL0     H12313   8.217   7.669  11.160 -0.2861  0.0970  3.4859
  814MOL0     H12314   8.083   7.606  10.653 -0.7201  1.2638  2.1977
  814MOL0     H12315   7.922   7.690  10.483  3.2348  1.0159  2.4415
  814MOL0     H12316   6.899   8.859   9.845  1.0831  3.4325 -1.1813
  814MOL0     H12317   6.971   8.977   9.656  1.9736  4.1616  2.8456
  814MOL0     H12318   7.232   9.011   9.286  0.2192  0.3883 -2.4237
  814MOL0     H12319   7.337   9.100   9.078  0.6927 -0.5829 -0.4072
  814MOL0     H12320   7.460   9.211   8.899 -0.8988  0.3790  2.1142
  814MOL0     H12321   7.636   9.226   8.890 -1.9075  0.4770 -3.5675
  814MOL0     H12322   7.488   8.968   8.913  1.6355 -3.8992 -2.0978
  814MOL0     H12323   7.636   8.988   9.012 -0.6755 -3.0200 -0.9105
  814MOL0     H12324   7.765   9.034   8.807  0.2873  0.5123  0.1263
  814MOL0     H12325   7.680   8.885   8.788  1.3183 -0.3692 -1.4837
  814MOL0     H12326   7.657   9.017   8.590  2.0759 -2.1423  1.4176
  814MOL0     H12327   7.607   9.164   8.691 -0.0020 -0.3515  2.4180
  814MOL0     H12328   7.254   8.916   8.619  1.6305 -2.4049 -1.5229
  814MOL0     H12329   7.646   9.284   9.305 -1.4116  2.8145  0.0438
  814MOL0     H12330   7.474   9.236   9.639 -2.6144  2.5774 -3.0340
  814MOL0     H12331   7.628   9.163   9.609  1.8883  3.9604  1.5832
  814MOL0     H12332   7.605   9.321   9.550  0.2992  0.0783 -0.1615
  815MOL0     O12333   5.301   1.943   8.412  0.7166 -0.6047  0.1055
  815MOL0     C12334   5.260   2.053   8.364  1.1485  0.5839 -0.2448
  815MOL0     O12335   5.247   2.080   8.231 -0.1564 -0.9863  0.5902
  815MOL0     C12336   5.259   1.991   8.122 -0.0121 -0.3342 -0.2448
  815MOL0     C12337   5.185   2.031   8.016 -1.0060  0.4159  0.6403
  815MOL0     C12338   5.201   1.969   7.894 -0.8839  0.1082 -1.2041
  815MOL0     C12339   5.298   1.860   7.883 -0.7185  0.4919  0.6732
  815MOL0     O12340   5.315   1.791   7.762  0.4578 -0.3761 -0.4468
  815MOL0     C12341   5.353   1.884   7.657 -0.2969  0.7076  0.2781
  815MOL0     C12342   5.380   1.805   7.529  0.0077  1.3155 -0.4682
  815MOL0     C12343   5.259   1.726   7.468  0.5480 -0.5605  0.5145
  815MOL0     C12344   5.158   1.814   7.395  0.4029 -0.3447  0.0234
  815MOL0     C12345   5.045   1.735   7.316 -0.0120 -1.5118  0.3079
  815MOL0     C12346   4.924   1.705   7.406  0.4430 -0.1656 -0.8910
  815MOL0     C12347   4.805   1.637   7.338  0.5366  0.3615 -0.4601
  815MOL0     C12348   4.715   1.569   7.447  0.2510  0.2804 -0.4655
  815MOL0     N12349   4.606   1.489   7.394  0.1124 -0.2468  0.9149
  815MOL0     C12350   4.622   1.385   7.315 -0.3243 -0.9794 -1.7078
  815MOL0     C12351   4.498   1.354   7.264  0.1434 -0.3608  0.6240
  815MOL0     C12352   4.471   1.245   7.168  0.9158  0.1804 -1.1426
  815MOL0     C12353   4.435   1.110   7.234 -0.9974  1.1058 -0.8793
  815MOL0     C12354   4.354   1.021   7.135 -1.2381  0.2341 -0.7370
  815MOL0     C12355   4.215   1.076   7.122  0.3311 -0.9045  0.0614
  815MOL0     O12356   4.161   0.973   7.039 -0.3173 -0.4210  0.1054
  815MOL0     C12357   4.028   0.983   7.006 -0.4604 -0.4593  0.1577
  815MOL0     C12358   3.969   0.876   6.941 -0.6467 -0.2549 -0.9733
  815MOL0     C12359   3.837   0.882   6.891  0.4729 -1.5316 -0.1731
  815MOL0     C12360   3.775   0.763   6.818 -0.3355 -0.9403 -0.2468
  815MOL0     C12361   3.759   0.998   6.925  0.0353 -0.6107 -0.1019
  815MOL0     C12362   3.616   1.021   6.891 -0.6286  0.3179 -0.0970
  815MOL0     O12363   3.571   0.991   6.768 -1.0913 -0.4488  0.1422
  815MOL0     C12364   3.443   0.959   6.754 -0.7315 -0.1405 -0.3281
  815MOL0     C12365   3.398   0.831   6.714 -0.9856  0.0579  0.4405
  815MOL0     C12366   3.262   0.798   6.697 -0.1058 -0.3173 -0.5657
  815MOL0     C12367   3.166   0.896   6.692  0.0088  0.2667  0.7002
  815MOL0     O12368   3.033   0.883   6.680  1.4552  0.2114 -0.2985
  815MOL0     C12369   2.955   0.948   6.582  0.7104  0.0847 -0.0723
  815MOL0     C12370   2.954   0.843   6.468  0.8445 -0.2658  0.0651
  815MOL0     C12371   2.849   0.872   6.356 -0.4604 -0.2435  0.1671
  815MOL0     C12372   2.716   0.810   6.379  0.2942 -0.1881  0.0458
  815MOL0     C12373   2.595   0.854   6.299 -0.1678 -0.0373  0.7197
  815MOL0     C12374   2.463   0.808   6.351 -0.3118 -0.7292  1.4191
  815MOL0     C12375   2.340   0.858   6.270  0.2547  0.2210 -0.9974
  815MOL0     C12376   2.347   0.812   6.120  0.0661  0.0033 -0.2614
  815MOL0    Cl12377   2.413   0.655   6.096  0.6086  0.1909 -0.3179
  815MOL0     C12378   3.205   1.022   6.738 -0.7264  0.1028 -1.1522
  815MOL0     C12379   3.340   1.058   6.758  0.9334  0.7688  0.1499
  815MOL0     O12380   3.546   1.080   6.973  0.1598  0.3304 -0.0616
  815MOL0     C12381   3.823   1.110   6.995 -0.6900 -0.2313  0.4815
  815MOL0     C12382   3.960   1.112   7.014 -0.2806 -0.1816 -0.6180
  815MOL0     N12383   4.410   1.442   7.321  0.6914  0.2070  0.8048
  815MOL0     N12384   4.471   1.523   7.399  0.5661  0.6079  0.1038
  815MOL0     C12385   5.377   1.825   7.985  0.4191  0.1869 -0.0525
  815MOL0     C12386   5.359   1.893   8.110  0.1529  0.7104 -0.0970
  815MOL0     C12387   5.222   2.168   8.447  0.7707 -0.4159  0.2379
  815MOL0     C12388   5.129   2.261   8.385 -0.2140 -1.4186 -0.0429
  815MOL0     C12389   5.086   2.372   8.459  0.0363  0.3179 -0.0508
  815MOL0     C12390   5.114   2.382   8.594 -0.5771  0.2015  0.2203
  815MOL0     O12391   5.065   2.476   8.682 -0.5718 -0.2360  0.3148
  815MOL0     C12392   5.000   2.599   8.631 -0.7304  0.3535  0.3422
  815MOL0     C12393   5.097   2.680   8.550 -0.3817  0.4199  0.0654
  815MOL0     C12394   5.203   2.744   8.645 -0.0508  0.0919  1.1476
  815MOL0     C12395   5.150   2.858   8.726  0.6495  0.0533  0.0434
  815MOL0     C12396   5.127   2.979   8.646 -0.1253  0.0859 -0.8474
  815MOL0     C12397   5.085   3.074   8.592 -0.5242 -0.9609  0.3306
  815MOL0     C12398   5.206   2.289   8.649  0.6740  0.3538 -0.1953
  815MOL0     C12399   5.268   2.189   8.583  0.3806  0.8161  0.3887
  815MOL0     C12400   5.380   2.113   8.646  0.9275  0.5233  0.0361
  815MOL0     H12401   5.119   2.117   8.012 -2.4433 -0.6791 -2.7640
  815MOL0     H12402   5.135   1.975   7.809 -2.4734 -2.3856 -0.2729
  815MOL0     H12403   5.435   1.954   7.679  0.0524  0.5898 -0.5932
  815MOL0     H12404   5.274   1.950   7.621  2.0984  2.7066 -1.7200
  815MOL0     H12405   5.410   1.878   7.453 -0.9979  2.5900  0.3159
  815MOL0     H12406   5.457   1.736   7.563 -0.1982  1.8995  1.2655
  815MOL0     H12407   5.299   1.665   7.386  0.0446 -0.6598  0.3329
  815MOL0     H12408   5.200   1.676   7.546 -2.8032  1.0495 -0.7764
  815MOL0     H12409   5.104   1.880   7.463  1.4153  1.0894 -0.5293
  815MOL0     H12410   5.212   1.880   7.326  1.3974  0.6683  1.7211
  815MOL0     H12411   5.079   1.638   7.278 -1.5979 -1.6099 -0.9672
  815MOL0     H12412   5.011   1.793   7.230 -1.2137 -1.6708  0.6634
  815MOL0     H12413   4.955   1.646   7.493 -0.8496  0.5857  0.1111
  815MOL0     H12414   4.881   1.801   7.436  2.6528  0.3901  0.8239
  815MOL0     H12415   4.843   1.550   7.283 -1.0254  1.5014 -3.5629
  815MOL0     H12416   4.759   1.710   7.271  0.5419  0.6424 -0.1612
  815MOL0     H12417   4.771   1.515   7.524 -0.1079 -0.4432 -0.7012
  815MOL0     H12418   4.672   1.657   7.497 -0.8781 -0.7559  0.4418
  815MOL0     H12419   4.713   1.337   7.281  0.5613  1.1562 -2.5518
  815MOL0     H12420   4.554   1.240   7.096 -1.1705  2.8665 -4.0037
  815MOL0     H12421   4.399   1.288   7.098  1.2480 -0.4529 -1.8861
  815MOL0     H12422   4.520   1.045   7.254 -1.6804 -0.4685 -2.8137
  815MOL0     H12423   4.370   1.129   7.320 -0.2692  0.5265 -0.1890
  815MOL0     H12424   4.411   1.021   7.042  0.4837 -0.9635  0.2584
  815MOL0     H12425   4.348   0.923   7.183 -1.8943  0.4649 -0.3258
  815MOL0     H12426   4.157   1.093   7.213 -0.2556  2.7179 -0.8375
  815MOL0     H12427   4.231   1.168   7.064  1.4864 -2.5910 -2.4699
  815MOL0     H12428   4.013   0.778   6.927  2.4549  1.1828 -2.2947
  815MOL0     H12429   3.749   0.785   6.714 -1.1159 -1.6929 -0.2207
  815MOL0     H12430   3.676   0.753   6.864  0.5085 -0.5777  1.7526
  815MOL0     H12431   3.836   0.673   6.822 -0.3603 -0.9336  0.4676
  815MOL0     H12432   3.466   0.750   6.691 -1.5177  0.5467 -3.7281
  815MOL0     H12433   3.232   0.696   6.675  0.5954 -0.8177  0.6888
  815MOL0     H12434   2.855   0.956   6.625  1.8363  3.1115  2.3781
  815MOL0     H12435   2.999   1.044   6.553 -1.4774  0.7062 -1.5810
  815MOL0     H12436   3.059   0.836   6.435  2.0412  0.1554  3.3834
  815MOL0     H12437   2.932   0.749   6.519  1.1389  0.7102  2.0832
  815MOL0     H12438   2.876   0.833   6.258 -2.6817  5.0886 -2.9825
  815MOL0     H12439   2.843   0.981   6.351 -2.0904 -0.2343  1.4957
  815MOL0     H12440   2.694   0.814   6.486  1.4257 -1.4168  0.3516
  815MOL0     H12441   2.735   0.703   6.362 -2.1613 -1.1106  2.4761
  815MOL0     H12442   2.582   0.961   6.279 -0.2909 -0.4250 -1.6463
  815MOL0     H12443   2.633   0.815   6.204  0.5750  0.3741  0.8379
  815MOL0     H12444   2.449   0.847   6.452 -2.3771  4.8192 -0.6149
  815MOL0     H12445   2.470   0.699   6.361  0.4313 -0.8957 -0.4951
  815MOL0     H12446   2.329   0.967   6.272 -0.3757  0.1689 -1.1268
  815MOL0     H12447   2.256   0.810   6.321  0.6339 -1.4699 -1.8910
  815MOL0     H12448   2.408   0.885   6.066  1.1152 -1.4582 -1.1179
  815MOL0     H12449   2.247   0.815   6.074  0.7075 -5.7986 -2.8570
  815MOL0     H12450   3.128   1.097   6.752 -2.6014 -1.7007 -1.4244
  815MOL0     H12451   3.360   1.164   6.772  0.9039  0.8821 -0.6476
  815MOL0     H12452   3.764   1.200   7.014 -0.8164 -0.7410  2.7969
  815MOL0     H12453   4.003   1.203   7.054  0.2542 -0.6805 -0.0450
  815MOL0     H12454   5.441   1.739   7.965 -1.0047 -0.2739 -3.0500
  815MOL0     H12455   5.422   1.875   8.197  2.6647 -0.6193 -2.0467
  815MOL0     H12456   5.107   2.259   8.279  0.3095 -0.6358 -0.1786
  815MOL0     H12457   5.014   2.445   8.423 -1.2831  0.9060  3.3774
  815MOL0     H12458   4.925   2.575   8.555 -0.4260 -1.3750  0.5400
  815MOL0     H12459   4.966   2.651   8.720 -1.0506  2.3068 -0.8557
  815MOL0     H12460   5.036   2.763   8.515 -3.6642 -1.9614 -0.4095
  815MOL0     H12461   5.139   2.630   8.462 -1.6746  1.7278 -1.3379
  815MOL0     H12462   5.236   2.668   8.715 -0.0684 -2.7614 -1.7189
  815MOL0     H12463   5.288   2.784   8.587 -1.1658 -0.1371 -0.7302
  815MOL0     H12464   5.206   2.893   8.813 -0.9216 -1.0519  1.5726
  815MOL0     H12465   5.052   2.834   8.768  1.0647  1.6306  2.0830
  815MOL0     H12466   5.059   3.165   8.540  2.0659  0.1919  0.8713
  815MOL0     H12467   5.229   2.306   8.754  2.8505  0.5761 -0.6664
  815MOL0     H12468   5.355   2.015   8.687  4.2339 -0.6172 -0.3371
  815MOL0     H12469   5.473   2.109   8.588  2.1593  2.7252  1.7043
  815MOL0     H12470   5.415   2.171   8.732 -1.9599 -0.0723  1.7389
  816MOL0     O12471   1.657   1.060   0.056  0.3360  0.4517 -0.1949
  816MOL0     C12472   1.639   0.984   0.151 -0.9882  1.1375 -0.1910
  816MOL0     O12473   1.574   0.858   0.158 -0.3015  0.5078 -0.2616
  816MOL0     C12474   1.474   0.831   0.064  0.4432 -0.1509  0.1202
  816MOL0     C12475   1.374   0.759   0.125  0.9115  0.1147  1.4320
  816MOL0     C12476   1.251   0.729   0.059 -0.0605 -0.1776  0.6113
  816MOL0     C12477   1.251   0.748  -0.079 -0.9858 -0.3227 -0.2710
  816MOL0     O12478   1.130   0.717  -0.135  0.1224 -0.2846 -0.1771
  816MOL0     C12479   1.057   0.835  -0.181 -0.2689 -1.4517 -0.5894
  816MOL0     C12480   0.926   0.806  -0.273 -1.0143  0.5769 -0.0156
  816MOL0     C12481   0.961   0.768  -0.412 -0.2405  0.0637  0.3047
  816MOL0     C12482   0.991   0.616  -0.411  0.3842  0.1903 -0.3937
  816MOL0     C12483   1.025   0.552  -0.551  0.4511 -0.6982  0.0893
  816MOL0     C12484   1.119   0.634  -0.636  0.3738  0.1440  0.0815
  816MOL0     C12485   1.141   0.552  -0.775  0.7393 -0.1892 -0.4936
  816MOL0     C12486   1.198   0.641  -0.885  0.2750  0.0538 -0.0378
  816MOL0     N12487   1.229   0.557  -1.000  0.2772 -0.5388 -0.3129
  816MOL0     C12488   1.327   0.470  -1.021  0.3686 -0.0369  0.7355
  816MOL0     C12489   1.313   0.413  -1.139  0.1691 -0.4965 -0.5923
  816MOL0     C12490   1.409   0.314  -1.211 -0.5452  0.7780  0.2464
  816MOL0     C12491   1.367   0.169  -1.178  0.4833 -0.3886  0.4338
  816MOL0     C12492   1.247   0.125  -1.255  0.6893 -0.2315 -0.0274
  816MOL0     C12493   1.279   0.078  -1.394  0.4607  0.8058  0.5812
  816MOL0     O12494   1.162   0.045  -1.469 -0.2880  0.5247 -0.3316
  816MOL0     C12495   1.174  -0.029  -1.584 -0.1603 -0.9626  0.1690
  816MOL0     C12496   1.293  -0.063  -1.641 -0.8187 -0.8172  0.0178
  816MOL0     C12497   1.309  -0.147  -1.757  0.0561  0.7154  0.3877
  816MOL0     C12498   1.446  -0.167  -1.811 -0.8525 -1.4010 -0.1655
  816MOL0     C12499   1.186  -0.199  -1.805 -0.1599 -0.0461 -0.3229
  816MOL0     C12500   1.175  -0.266  -1.945 -0.4249 -0.2811 -0.5715
  816MOL0     O12501   1.047  -0.299  -1.991  0.2976 -1.1017 -0.1624
  816MOL0     C12502   1.019  -0.331  -2.120  0.7289 -1.1451 -0.3848
  816MOL0     C12503   1.091  -0.284  -2.226  0.2276 -0.9960  0.0355
  816MOL0     C12504   1.059  -0.308  -2.358  0.6536  0.6804  0.0647
  816MOL0     C12505   0.942  -0.382  -2.396  0.2988  1.0929 -0.1631
  816MOL0     O12506   0.909  -0.424  -2.526  0.7175 -0.3086  0.4287
  816MOL0     C12507   0.840  -0.549  -2.555 -0.6822  0.5449  0.1303
  816MOL0     C12508   0.917  -0.676  -2.505  0.3426  0.0243  0.0125
  816MOL0     C12509   0.985  -0.741  -2.631 -0.0345 -0.0241 -0.5309
  816MOL0     C12510   1.095  -0.826  -2.558 -0.4606  0.0132 -0.3259
  816MOL0     C12511   1.217  -0.863  -2.645 -0.4399  0.5270  0.7982
  816MOL0     C12512   1.326  -0.920  -2.552  0.6112 -0.0331 -0.1732
  816MOL0     C12513   1.306  -1.057  -2.489 -0.5280  0.4463  1.2594
  816MOL0     C12514   1.247  -1.168  -2.581 -0.6962 -0.3052 -0.4648
  816MOL0    Cl12515   1.238  -1.334  -2.500  0.0547  0.3785  0.0273
  816MOL0     C12516   0.866  -0.425  -2.280 -1.1412  0.6230 -0.4125
  816MOL0     C12517   0.905  -0.406  -2.148 -0.6047  0.4650 -0.1482
  816MOL0     O12518   1.277  -0.289  -2.013 -0.1242  0.1677 -0.5418
  816MOL0     C12519   1.061  -0.175  -1.736 -0.3599 -0.8156  0.6180
  816MOL0     C12520   1.060  -0.094  -1.624  0.2406  0.1407 -0.5259
  816MOL0     N12521   1.216   0.482  -1.202  0.8745 -0.1042  0.9862
  816MOL0     N12522   1.165   0.563  -1.121  0.2248  0.3706 -0.0895
  816MOL0     C12523   1.353   0.805  -0.153 -0.4368 -0.4723  0.9323
  816MOL0     C12524   1.465   0.853  -0.077  0.0417 -1.1332  0.0074
  816MOL0     C12525   1.737   1.015   0.264 -0.2831 -0.6264 -0.2086
  816MOL0     C12526   1.791   0.897   0.325  0.0488 -0.7483  0.9380
  816MOL0     C12527   1.903   0.888   0.406  0.4143 -1.2001 -0.0250
  816MOL0     C12528   1.985   1.002   0.413  0.5099 -0.2462 -0.3665
  816MOL0     O12529   2.090   1.024   0.486 -0.2858  0.0443  0.4532
  816MOL0     C12530   2.140   0.925   0.567  0.7340 -0.6764  0.5818
  816MOL0     C12531   2.241   0.987   0.668  0.0770  0.0776  0.5345
  816MOL0     C12532   2.301   0.874   0.751 -0.0857  0.5975 -0.3266
  816MOL0     C12533   2.453   0.902   0.773  1.0701 -0.4619  0.2841
  816MOL0     C12534   2.531   0.883   0.651 -0.0293 -0.7997  0.3142
  816MOL0     C12535   2.588   0.858   0.548  0.6639  0.0128  0.0200
  816MOL0     C12536   1.924   1.126   0.366  0.3023  1.0045  0.0533
  816MOL0     C12537   1.802   1.140   0.285  0.4166  0.4080  0.0754
  816MOL0     C12538   1.773   1.278   0.225  0.3100  0.1434  0.1625
  816MOL0     H12539   1.367   0.746   0.233 -0.5941 -2.0129  1.1664
  816MOL0     H12540   1.157   0.689   0.095 -1.3563  0.4250 -1.8863
  816MOL0     H12541   1.121   0.895  -0.247 -2.7788 -0.0704 -1.9154
  816MOL0     H12542   1.037   0.906  -0.100  0.7282  1.8794 -3.0443
  816MOL0     H12543   0.857   0.730  -0.235  1.9713 -1.9650  0.7101
  816MOL0     H12544   0.862   0.893  -0.257  0.7253  1.9110 -0.0432
  816MOL0     H12545   0.878   0.779  -0.484  0.7924 -2.5938 -1.4507
  816MOL0     H12546   1.050   0.824  -0.440 -0.2651  0.6366  1.3379
  816MOL0     H12547   1.076   0.595  -0.345 -0.8358 -0.5246  1.0260
  816MOL0     H12548   0.908   0.553  -0.376  2.6550 -3.9267 -1.6966
  816MOL0     H12549   0.932   0.549  -0.609  2.7592 -2.8678 -4.0323
  816MOL0     H12550   1.057   0.449  -0.535  0.4462 -0.4674  1.6577
  816MOL0     H12551   1.076   0.733  -0.652 -2.2205 -1.2130 -2.4229
  816MOL0     H12552   1.213   0.638  -0.580 -1.1950  0.4146  2.8579
  816MOL0     H12553   1.053   0.496  -0.807  1.2211 -2.6532  2.0168
  816MOL0     H12554   1.214   0.475  -0.746  0.9496  0.0499 -0.3806
  816MOL0     H12555   1.117   0.713  -0.902  0.1862  0.9622  3.5068
  816MOL0     H12556   1.283   0.702  -0.851  0.6970 -0.4832 -0.1204
  816MOL0     H12557   1.407   0.461  -0.948  2.6098 -1.6023 -1.7339
  816MOL0     H12558   1.508   0.331  -1.167  0.1577  0.5304 -1.2003
  816MOL0     H12559   1.419   0.340  -1.317 -3.1199 -0.8262 -0.4911
  816MOL0     H12560   1.447   0.100  -1.210  0.3542 -0.9582  1.3133
  816MOL0     H12561   1.354   0.157  -1.070  2.5280  1.1409  0.9106
  816MOL0     H12562   1.213   0.049  -1.184  0.8152 -0.9000 -0.6735
  816MOL0     H12563   1.160   0.191  -1.258  0.3168 -0.7500 -2.3392
  816MOL0     H12564   1.318   0.158  -1.457 -1.5722 -1.8173 -4.6598
  816MOL0     H12565   1.351  -0.004  -1.384  0.1660  0.3763 -0.6246
  816MOL0     H12566   1.382  -0.017  -1.600 -1.1128  0.1934 -0.4631
  816MOL0     H12567   1.516  -0.120  -1.741 -2.3581  0.7384 -0.0031
  816MOL0     H12568   1.460  -0.126  -1.912 -1.3662  0.9917  0.6835
  816MOL0     H12569   1.473  -0.273  -1.814  1.7930 -0.8003 -1.0809
  816MOL0     H12570   1.181  -0.224  -2.215 -1.2704  1.0041  2.9320
  816MOL0     H12571   1.128  -0.289  -2.440 -0.7443 -2.6257 -2.1289
  816MOL0     H12572   0.741  -0.536  -2.510 -1.8603 -2.8664 -1.1225
  816MOL0     H12573   0.828  -0.553  -2.664  3.5720  0.3238 -0.4800
  816MOL0     H12574   0.984  -0.637  -2.428  1.0338  0.5552 -0.8301
  816MOL0     H12575   0.858  -0.755  -2.459  0.1348 -0.5107 -1.1330
  816MOL0     H12576   1.016  -0.661  -2.699 -0.8361 -0.7219 -1.7510
  816MOL0     H12577   0.911  -0.809  -2.674 -1.6575 -0.2490  2.3782
  816MOL0     H12578   1.055  -0.916  -2.511 -1.6599  1.4059  1.4458
  816MOL0     H12579   1.150  -0.768  -2.483 -0.3674 -0.2760 -0.1683
  816MOL0     H12580   1.208  -0.938  -2.725  1.1398  3.8653 -2.8686
  816MOL0     H12581   1.252  -0.772  -2.694  0.4635 -0.3815 -0.3275
  816MOL0     H12582   1.340  -0.848  -2.471  1.2425 -2.3047  1.8819
  816MOL0     H12583   1.423  -0.921  -2.601  1.1834 -0.3084  0.9334
  816MOL0     H12584   1.247  -1.052  -2.397  1.8445 -2.6553  3.1561
  816MOL0     H12585   1.407  -1.074  -2.451 -1.1135 -3.1713  1.5548
  816MOL0     H12586   1.308  -1.172  -2.671 -0.4031  1.8408 -0.4225
  816MOL0     H12587   1.150  -1.135  -2.619  0.9369  5.4719 -0.5404
  816MOL0     H12588   0.770  -0.469  -2.303 -0.5220 -1.4055  0.6583
  816MOL0     H12589   0.866  -0.441  -2.053 -0.4052  0.4390 -0.0772
  816MOL0     H12590   0.971  -0.218  -1.781 -1.0845  0.8716  0.3762
  816MOL0     H12591   0.975  -0.073  -1.560  1.9562 -0.2799  2.0231
  816MOL0     H12592   1.352   0.813  -0.261 -2.2958 -4.2782  0.5082
  816MOL0     H12593   1.551   0.900  -0.123 -0.3075  0.3501  0.8213
  816MOL0     H12594   1.729   0.808   0.316 -4.4463  2.2102 -1.8223
  816MOL0     H12595   1.920   0.791   0.452 -0.4816 -0.6369  1.5702
  816MOL0     H12596   2.052   0.889   0.621 -1.1967  1.2499 -1.0692
  816MOL0     H12597   2.179   0.841   0.509 -2.0894 -0.6395 -1.5796
  816MOL0     H12598   2.175   1.046   0.732 -2.3497 -0.3648 -1.4270
  816MOL0     H12599   2.312   1.054   0.618 -1.8678  1.8787  0.0477
  816MOL0     H12600   2.247   0.867   0.846 -0.8835 -3.5477 -0.9202
  816MOL0     H12601   2.287   0.784   0.692  0.8051 -1.2289  2.0727
  816MOL0     H12602   2.484   0.819   0.838  0.6253 -1.1749 -0.3961
  816MOL0     H12603   2.480   1.003   0.806 -1.0845  0.1319  0.3878
  816MOL0     H12604   2.642   0.824   0.461 -0.6141  0.5441 -1.0197
  816MOL0     H12605   1.974   1.216   0.401  0.4876  1.1748 -0.6466
  816MOL0     H12606   1.716   1.271   0.132 -0.4689  5.8249 -0.1254
  816MOL0     H12607   1.710   1.341   0.288 -0.6667 -0.2514 -0.4055
  816MOL0     H12608   1.867   1.329   0.202 -0.5212  1.5444 -0.1961
  817MOL0     O12609   9.017   2.470   4.678  0.1214  0.3872  0.2996
  817MOL0     C12610   8.921   2.517   4.742  0.5026  0.4407 -0.2947
  817MOL0     O12611   8.805   2.545   4.696  0.2459 -0.6054  0.7195
  817MOL0     C12612   8.797   2.567   4.562  0.1126 -0.4819 -0.0595
  817MOL0     C12613   8.697   2.506   4.488  0.5839  0.0841 -0.2905
  817MOL0     C12614   8.676   2.528   4.345  0.1395  0.9351 -1.2009
  817MOL0     C12615   8.767   2.609   4.284  0.9563  0.1353 -0.0622
  817MOL0     O12616   8.764   2.632   4.146 -0.3745  0.4278  0.4523
  817MOL0     C12617   8.772   2.514   4.070 -0.0094  0.1502  0.3760
  817MOL0     C12618   8.723   2.525   3.931  0.5284 -0.0654  0.1223
  817MOL0     C12619   8.798   2.643   3.862 -0.0906 -0.1163 -0.3463
  817MOL0     C12620   8.783   2.623   3.711 -0.6092  0.0718  0.6197
  817MOL0     C12621   8.843   2.748   3.636 -0.2636  0.0172 -0.0870
  817MOL0     C12622   8.794   2.768   3.494 -0.3492  0.0915 -0.8040
  817MOL0     C12623   8.802   2.650   3.402  0.5608  0.5342 -1.1113
  817MOL0     C12624   8.931   2.625   3.330 -0.5544  0.4401  0.3109
  817MOL0     N12625   9.032   2.578   3.422 -0.1813 -0.5469  0.0329
  817MOL0     C12626   9.026   2.460   3.502  0.3761 -0.3592 -0.5076
  817MOL0     C12627   9.136   2.465   3.576 -0.5968  0.1121  0.5540
  817MOL0     C12628   9.166   2.368   3.688  0.3527  0.0861 -0.2531
  817MOL0     C12629   9.072   2.390   3.808  0.5622 -0.1639  0.1343
  817MOL0     C12630   9.137   2.341   3.941 -0.3125 -0.0173  0.6156
  817MOL0     C12631   9.229   2.437   4.005  0.7924  0.2693  0.2280
  817MOL0     O12632   9.233   2.411   4.149 -0.0619  0.7841  0.5182
  817MOL0     C12633   9.244   2.515   4.233  0.1945 -1.5096  0.7045
  817MOL0     C12634   9.285   2.645   4.195 -1.0111 -0.3540  0.7290
  817MOL0     C12635   9.314   2.747   4.285  0.6743 -0.9825 -0.2562
  817MOL0     C12636   9.348   2.882   4.224 -0.2035 -0.1704 -0.6060
  817MOL0     C12637   9.280   2.729   4.426  0.5680  0.0324  0.9700
  817MOL0     C12638   9.284   2.838   4.532  0.5476  0.7199  0.9308
  817MOL0     O12639   9.180   2.841   4.622  0.1974  0.0187 -0.1856
  817MOL0     C12640   9.153   2.948   4.701 -0.0370  0.2266 -0.0969
  817MOL0     C12641   9.114   2.931   4.839  0.5142  0.6017  0.5549
  817MOL0     C12642   9.085   3.048   4.908  0.0451 -0.1483 -0.8430
  817MOL0     C12643   9.104   3.173   4.857  1.1215  0.0962  0.9511
  817MOL0     O12644   9.101   3.288   4.935  0.4762 -0.1819  0.9679
  817MOL0     C12645   9.232   3.341   4.933  0.0996 -0.2774  0.5002
  817MOL0     C12646   9.236   3.460   5.027 -0.5793 -0.9053 -0.4824
  817MOL0     C12647   9.226   3.419   5.172 -0.9646  0.0101 -0.0484
  817MOL0     C12648   9.188   3.543   5.253  0.8479 -0.6665 -0.1173
  817MOL0     C12649   9.113   3.488   5.375 -0.3128  1.5518 -1.1595
  817MOL0     C12650   9.064   3.596   5.465 -0.4271 -0.2944 -0.5032
  817MOL0     C12651   8.964   3.535   5.568 -0.9195 -0.3220 -0.5819
  817MOL0     C12652   8.958   3.611   5.700 -0.1835 -0.0046 -0.9696
  817MOL0    Cl12653   8.852   3.529   5.814 -0.0204 -0.4497  0.3858
  817MOL0     C12654   9.138   3.190   4.718 -0.3237  0.5913  0.2124
  817MOL0     C12655   9.170   3.073   4.647  0.3174 -0.9423 -0.5532
  817MOL0     O12656   9.392   2.895   4.545  0.6216 -0.4782 -0.4668
  817MOL0     C12657   9.238   2.596   4.460  0.2185 -0.1849 -0.2627
  817MOL0     C12658   9.216   2.500   4.365 -1.0392  0.4264  0.5824
  817MOL0     N12659   9.199   2.586   3.555  0.0019  0.6842 -0.3907
  817MOL0     N12660   9.139   2.653   3.463  0.3415 -0.5426 -0.1739
  817MOL0     C12661   8.866   2.673   4.352  0.4939  0.0435 -1.2279
  817MOL0     C12662   8.880   2.661   4.495 -0.0953 -0.1977  0.0070
  817MOL0     C12663   8.935   2.538   4.883  0.3636  0.5574 -0.1304
  817MOL0     C12664   9.012   2.450   4.956 -0.7488 -0.1483  0.2929
  817MOL0     C12665   9.031   2.454   5.097  0.7127  0.0635  0.3275
  817MOL0     C12666   8.975   2.560   5.167  0.0349  0.4192  0.4988
  817MOL0     O12667   8.994   2.564   5.302 -0.0192 -1.1457  0.1734
  817MOL0     C12668   8.868   2.566   5.371  0.3807 -0.9200 -0.3836
  817MOL0     C12669   8.873   2.539   5.516  0.5659  0.3393  0.7754
  817MOL0     C12670   8.946   2.636   5.613  0.4999  0.3961  0.4520
  817MOL0     C12671   8.948   2.599   5.756  0.6445 -0.2397  0.0725
  817MOL0     C12672   9.009   2.702   5.844  0.3520  0.3369 -0.0041
  817MOL0     C12673   9.067   2.769   5.925 -0.0604 -0.3103 -0.5280
  817MOL0     C12674   8.901   2.659   5.097 -0.1880  0.1207  0.3619
  817MOL0     C12675   8.884   2.646   4.955  0.2880 -0.6330 -0.2238
  817MOL0     C12676   8.809   2.759   4.895 -0.6553  0.9379  0.0003
  817MOL0     H12677   8.628   2.439   4.537 -0.1765 -1.0847 -2.7624
  817MOL0     H12678   8.594   2.477   4.295 -1.8512  1.0616  1.6763
  817MOL0     H12679   8.727   2.431   4.126  1.8219  0.2189  2.0226
  817MOL0     H12680   8.874   2.475   4.063 -1.2326 -3.6684  1.2078
  817MOL0     H12681   8.741   2.430   3.880  2.6907 -0.1050  0.8655
  817MOL0     H12682   8.617   2.541   3.956  0.0469  0.1063 -1.8327
  817MOL0     H12683   8.753   2.739   3.887  4.5311  3.0943 -2.8396
  817MOL0     H12684   8.903   2.639   3.892 -1.0005 -3.3561  3.1292
  817MOL0     H12685   8.832   2.534   3.671 -5.1598 -1.4920 -2.2760
  817MOL0     H12686   8.674   2.616   3.697 -0.2246 -3.4493 -1.8721
  817MOL0     H12687   8.952   2.757   3.636 -0.3794  1.8095 -0.8659
  817MOL0     H12688   8.811   2.842   3.683 -2.3823 -0.5332 -0.3334
  817MOL0     H12689   8.687   2.783   3.511 -0.4584 -1.6918  0.3315
  817MOL0     H12690   8.848   2.850   3.447  0.6859  0.5415  1.0596
  817MOL0     H12691   8.730   2.668   3.322  0.1971 -0.1697 -0.9493
  817MOL0     H12692   8.767   2.560   3.453 -1.8203  1.9410 -0.0984
  817MOL0     H12693   8.917   2.544   3.259  3.4803 -1.9013  1.8447
  817MOL0     H12694   8.966   2.718   3.283  0.3847 -0.6600 -1.2372
  817MOL0     H12695   8.951   2.382   3.489 -1.6901  1.8708 -3.2094
  817MOL0     H12696   9.266   2.398   3.722 -0.2678  0.0941  1.6571
  817MOL0     H12697   9.161   2.267   3.647  4.3845  0.7842 -3.0620
  817MOL0     H12698   9.034   2.491   3.825 -0.3065 -0.6468  1.1951
  817MOL0     H12699   8.987   2.327   3.781 -0.7039  0.9000  1.4182
  817MOL0     H12700   9.047   2.327   4.002 -0.6201 -0.8056  0.0122
  817MOL0     H12701   9.169   2.238   3.923 -0.0526  0.1637  0.0256
  817MOL0     H12702   9.329   2.413   3.967  1.7578 -0.8442  3.1657
  817MOL0     H12703   9.199   2.540   3.985 -2.5226 -0.5152  0.5967
  817MOL0     H12704   9.317   2.664   4.093  1.3325  0.0188  1.4778
  817MOL0     H12705   9.271   2.941   4.274  0.6266  0.4373 -0.0361
  817MOL0     H12706   9.345   2.894   4.115  2.2422  2.5419 -0.5087
  817MOL0     H12707   9.449   2.900   4.262 -1.5570  1.0005  2.7735
  817MOL0     H12708   9.099   2.835   4.886  3.6406 -0.5636 -0.5257
  817MOL0     H12709   9.047   3.045   5.010  0.9458  0.5177 -0.4817
  817MOL0     H12710   9.315   3.278   4.966  1.8543  2.3795  1.4981
  817MOL0     H12711   9.261   3.367   4.831 -1.2948  0.2011  0.2061
  817MOL0     H12712   9.337   3.503   5.020  0.7707 -3.1652  2.8802
  817MOL0     H12713   9.158   3.533   5.007  0.7330  0.0486 -2.5836
  817MOL0     H12714   9.319   3.372   5.206 -1.7939 -0.9982  0.9358
  817MOL0     H12715   9.145   3.346   5.175 -0.1126 -0.9988 -0.7069
  817MOL0     H12716   9.118   3.615   5.210  0.5144  0.8366  2.7276
  817MOL0     H12717   9.275   3.599   5.289 -0.8142  0.8591  1.7544
  817MOL0     H12718   9.027   3.431   5.338 -0.3054  2.1488 -2.1315
  817MOL0     H12719   9.179   3.420   5.429  0.9399  2.7082 -1.1992
  817MOL0     H12720   9.017   3.667   5.396 -3.3964 -1.6402 -0.0209
  817MOL0     H12721   9.146   3.646   5.517  0.2674  2.5352 -3.9403
  817MOL0     H12722   9.004   3.437   5.594  0.3833  0.8274  2.2515
  817MOL0     H12723   8.865   3.519   5.525 -0.7855  0.5442 -1.2334
  817MOL0     H12724   8.928   3.716   5.687  2.5359  0.7268 -1.9750
  817MOL0     H12725   9.055   3.631   5.747 -1.6196  1.3334  1.6775
  817MOL0     H12726   9.160   3.287   4.675  3.0039  1.0802  2.5861
  817MOL0     H12727   9.202   3.081   4.544  1.3339  1.8788 -0.0935
  817MOL0     H12728   9.228   2.577   4.567  2.3265 -0.0179  0.0165
  817MOL0     H12729   9.187   2.400   4.395  3.3261 -1.4848 -0.6640
  817MOL0     H12730   8.923   2.748   4.297  2.3781 -0.3981  0.0624
  817MOL0     H12731   8.962   2.713   4.542  1.2748  0.4734 -2.8988
  817MOL0     H12732   9.064   2.370   4.905  2.1976  0.1994  2.4552
  817MOL0     H12733   9.113   2.392   5.134  1.9639  2.3410  1.5711
  817MOL0     H12734   8.830   2.667   5.352  0.7674 -0.5448  0.7225
  817MOL0     H12735   8.808   2.503   5.305  1.8909 -0.3184 -2.4302
  817MOL0     H12736   8.910   2.438   5.538 -2.2603 -2.0555 -3.9973
  817MOL0     H12737   8.768   2.534   5.547 -0.5074  2.9777 -1.9297
  817MOL0     H12738   9.053   2.628   5.591  1.0622  4.9898  0.5291
  817MOL0     H12739   8.914   2.737   5.585 -1.9214 -1.1583 -3.2453
  817MOL0     H12740   9.003   2.506   5.770  2.1843  0.9026  2.0707
  817MOL0     H12741   8.844   2.584   5.788  0.6252  1.4272  0.9049
  817MOL0     H12742   9.124   2.837   5.985 -2.6021  0.1429  1.5757
  817MOL0     H12743   8.859   2.742   5.154 -0.1729 -0.4667  1.2478
  817MOL0     H12744   8.824   2.843   4.964  2.5707 -0.6274  1.3912
  817MOL0     H12745   8.844   2.777   4.793  0.6761 -0.9024  0.0832
  817MOL0     H12746   8.703   2.734   4.880 -0.4975  0.8736 -1.0571
  818MOL0     O12747  10.926   9.731   6.809  0.4047 -0.0216 -0.2821
  818MOL0     C12748  10.890   9.768   6.921 -0.5013  0.4010  0.1553
  818MOL0     O12749  10.780   9.734   6.990 -0.4658 -0.4922  0.7027
  818MOL0     C12750  10.706   9.626   6.959  0.4470 -0.2486 -0.0178
  818MOL0     C12751  10.736   9.517   6.876  0.8898 -0.3039 -0.6547
  818MOL0     C12752  10.634   9.427   6.843 -0.7432 -0.7974  0.6073
  818MOL0     C12753  10.515   9.425   6.910  0.9971 -0.2707  0.5904
  818MOL0     O12754  10.429   9.320   6.888  0.3595  0.2140 -0.6157
  818MOL0     C12755  10.291   9.347   6.894 -0.2941  0.0656 -0.2086
  818MOL0     C12756  10.223   9.273   6.785 -0.6562  0.0319  0.8165
  818MOL0     C12757  10.217   9.116   6.811 -0.5987  0.1061  0.0384
  818MOL0     C12758  10.128   9.035   6.709  0.0479 -0.4508 -0.4750
  818MOL0     C12759   9.979   9.056   6.740 -1.4023 -0.2013  0.2409
  818MOL0     C12760   9.881   8.981   6.656  0.2885  0.2529  0.3732
  818MOL0     C12761   9.742   9.016   6.717 -0.3126 -0.1359  0.3530
  818MOL0     C12762   9.642   8.935   6.640 -0.0206  0.0577 -0.3978
  818MOL0     N12763   9.636   8.942   6.494  0.3172  0.8117 -0.1585
  818MOL0     C12764   9.567   9.042   6.428 -0.5065  0.3535 -0.7937
  818MOL0     C12765   9.579   9.012   6.290 -0.7918  0.2341 -0.3904
  818MOL0     C12766   9.531   9.099   6.182  0.1070  0.3589  0.0642
  818MOL0     C12767   9.385   9.110   6.165 -0.6945  0.6229  1.0828
  818MOL0     C12768   9.323   8.988   6.091 -0.0625  0.0272 -0.6932
  818MOL0     C12769   9.170   8.996   6.074 -0.2418  0.6990  0.7916
  818MOL0     O12770   9.117   9.091   5.985  0.0667 -0.9637 -0.1864
  818MOL0     C12771   8.985   9.076   5.946  0.0187 -0.0205  0.2055
  818MOL0     C12772   8.891   8.987   5.999  0.3700 -0.1750  0.0926
  818MOL0     C12773   8.758   8.981   5.952  0.0186  0.9978 -0.3366
  818MOL0     C12774   8.668   8.874   6.016  1.6698  1.1465  0.3745
  818MOL0     C12775   8.726   9.061   5.839 -0.1032 -0.3768  0.1937
  818MOL0     C12776   8.589   9.053   5.789  0.8371 -0.0671  0.6613
  818MOL0     O12777   8.482   9.089   5.867  0.0642 -0.2223  0.2875
  818MOL0     C12778   8.363   9.027   5.874  1.0307  0.7595 -1.2052
  818MOL0     C12779   8.296   8.986   5.760  0.8426  0.0253 -0.1292
  818MOL0     C12780   8.167   8.931   5.761 -0.0473  1.3524 -0.5488
  818MOL0     C12781   8.105   8.911   5.887  0.6364 -0.0944 -0.1848
  818MOL0     O12782   7.974   8.853   5.889 -0.5094 -0.6726 -0.1422
  818MOL0     C12783   7.961   8.734   5.976  0.1951  0.3028  0.1940
  818MOL0     C12784   7.850   8.646   5.916  0.9154  0.1362 -0.6218
  818MOL0     C12785   7.719   8.722   5.894 -0.6084 -0.6926 -0.3519
  818MOL0     C12786   7.612   8.614   5.845  0.7057 -1.0337  0.4833
  818MOL0     C12787   7.482   8.693   5.823 -0.8643  0.6994  0.3726
  818MOL0     C12788   7.360   8.614   5.786  0.8051  0.1064 -0.0876
  818MOL0     C12789   7.365   8.515   5.669  0.1916 -0.1670 -0.3316
  818MOL0     C12790   7.323   8.578   5.538 -0.4911  0.2705 -0.2922
  818MOL0    Cl12791   7.370   8.485   5.400  0.2435 -0.2142  0.5359
  818MOL0     C12792   8.181   8.935   6.001  0.8193 -0.9426 -0.1988
  818MOL0     C12793   8.303   8.995   6.004  0.6309  0.0944  0.2874
  818MOL0     O12794   8.582   9.023   5.662 -0.3652  0.0339 -0.1046
  818MOL0     C12795   8.815   9.159   5.788  0.5212 -1.8881  0.6568
  818MOL0     C12796   8.943   9.157   5.842  0.4484  0.1361 -0.4502
  818MOL0     N12797   9.660   8.886   6.284  0.5846 -1.0076  0.2046
  818MOL0     N12798   9.679   8.851   6.407 -0.4098  0.4529  0.2715
  818MOL0     C12799  10.488   9.525   7.008  0.5534 -0.1524  1.0938
  818MOL0     C12800  10.582   9.626   7.027  0.0379  0.5703 -0.9586
  818MOL0     C12801  10.973   9.875   6.995  0.2407 -0.5529  0.0577
  818MOL0     C12802  10.943   9.888   7.124 -0.5720 -0.6455 -0.6156
  818MOL0     C12803  11.004   9.994   7.206  0.3966  0.1647 -0.4830
  818MOL0     C12804  11.100  10.086   7.155  0.4142  1.4245 -0.3450
  818MOL0     O12805  11.158  10.195   7.218 -0.3368 -0.4266  0.8037
  818MOL0     C12806  11.110  10.255   7.334 -0.1993  0.3911  0.6325
  818MOL0     C12807  11.002  10.351   7.292 -0.2593  0.2324 -0.2283
  818MOL0     C12808  11.054  10.483   7.228  0.5391  0.8979 -0.5536
  818MOL0     C12809  10.947  10.569   7.166 -0.0908  0.6762  0.2628
  818MOL0     C12810  11.018  10.654   7.070 -0.4125 -0.0609  0.2747
  818MOL0     C12811  11.071  10.737   6.993 -0.7625 -0.9313 -0.3058
  818MOL0     C12812  11.143  10.055   7.026 -0.7090 -0.2191 -0.0718
  818MOL0     C12813  11.080   9.957   6.949 -0.0817 -0.7662  0.3079
  818MOL0     C12814  11.125   9.950   6.813 -0.4301  0.4821 -0.1499
  818MOL0     H12815  10.826   9.518   6.815  0.4801 -0.1154 -1.2709
  818MOL0     H12816  10.645   9.352   6.764  0.2406 -1.0006  0.9185
  818MOL0     H12817  10.267   9.453   6.885 -2.1930 -0.4449 -1.7385
  818MOL0     H12818  10.247   9.313   6.988 -0.9855 -0.4760 -0.7218
  818MOL0     H12819  10.123   9.317   6.781 -0.1247  1.3122  1.2268
  818MOL0     H12820  10.268   9.284   6.686 -0.6284 -0.1244  0.8118
  818MOL0     H12821  10.314   9.065   6.804  1.6314  3.8709  0.8978
  818MOL0     H12822  10.175   9.097   6.910  0.7081  2.2174  1.0684
  818MOL0     H12823  10.158   9.065   6.608 -0.2555 -1.4547 -0.8760
  818MOL0     H12824  10.152   8.928   6.710 -2.7475 -1.1492  0.5837
  818MOL0     H12825   9.964   9.164   6.736 -2.0226 -0.2917  0.0224
  818MOL0     H12826   9.972   9.008   6.838 -0.5615 -1.1069 -0.1284
  818MOL0     H12827   9.884   9.003   6.549  2.6649 -1.0220  0.1152
  818MOL0     H12828   9.901   8.874   6.664 -2.3581 -0.6028 -2.6054
  818MOL0     H12829   9.727   9.124   6.706  0.5446 -0.0155  0.2671
  818MOL0     H12830   9.739   8.982   6.820 -0.3059 -0.6199  0.1964
  818MOL0     H12831   9.657   8.831   6.670  0.3878  0.3852  0.5999
  818MOL0     H12832   9.545   8.964   6.682 -0.4638  0.3688 -1.6111
  818MOL0     H12833   9.538   9.139   6.468 -1.8674  0.2013 -1.3757
  818MOL0     H12834   9.580   9.063   6.091 -2.3862 -1.2579 -0.7638
  818MOL0     H12835   9.571   9.199   6.198 -0.5560  1.0156 -2.1126
  818MOL0     H12836   9.341   9.122   6.265 -0.9652 -1.2715  1.2414
  818MOL0     H12837   9.353   9.195   6.104 -3.1449 -2.3488 -2.2303
  818MOL0     H12838   9.359   8.973   5.989  1.2587 -1.7751 -0.0306
  818MOL0     H12839   9.359   8.895   6.136  0.8272  1.3987  1.5836
  818MOL0     H12840   9.142   8.892   6.052 -3.1367  1.3163  1.0838
  818MOL0     H12841   9.118   9.013   6.169  3.0779  0.6454  2.7833
  818MOL0     H12842   8.923   8.918   6.076  0.0945 -0.5827 -0.1572
  818MOL0     H12843   8.573   8.840   5.976  2.0308  2.2799 -1.5859
  818MOL0     H12844   8.635   8.909   6.114 -1.1423 -1.2408  0.4103
  818MOL0     H12845   8.721   8.781   6.035 -2.2032 -1.0251  1.5264
  818MOL0     H12846   8.357   9.002   5.672  2.9106 -2.0984  0.8078
  818MOL0     H12847   8.110   8.922   5.669 -1.2261  0.5552  0.2399
  818MOL0     H12848   8.046   8.666   5.985  0.5929  0.9719  1.8254
  818MOL0     H12849   7.940   8.764   6.080 -2.9511  2.8692 -0.9897
  818MOL0     H12850   7.877   8.607   5.818 -0.7427 -0.9610 -0.6757
  818MOL0     H12851   7.819   8.557   5.972  0.3586 -0.0700 -1.2449
  818MOL0     H12852   7.735   8.801   5.820 -2.5022  1.1792  1.1093
  818MOL0     H12853   7.688   8.769   5.987  1.1478 -0.1961  0.0174
  818MOL0     H12854   7.587   8.534   5.915 -1.7060  0.4737  1.4868
  818MOL0     H12855   7.629   8.573   5.745 -3.6506  1.3155 -1.5446
  818MOL0     H12856   7.458   8.737   5.921 -1.2735  0.1132  0.5405
  818MOL0     H12857   7.490   8.776   5.752  1.2915 -0.7880 -1.2470
  818MOL0     H12858   7.271   8.678   5.776 -0.9861 -2.1263  0.7889
  818MOL0     H12859   7.332   8.557   5.875 -1.2916  2.3813  0.8340
  818MOL0     H12860   7.307   8.429   5.702  1.3936  0.0701  2.6713
  818MOL0     H12861   7.468   8.491   5.643  0.0773  0.8056 -1.8415
  818MOL0     H12862   7.350   8.682   5.519 -1.4699  0.1307 -2.7249
  818MOL0     H12863   7.214   8.576   5.524 -0.2669  1.6506 -2.6164
  818MOL0     H12864   8.149   8.915   6.102 -0.8588 -2.3257 -0.9398
  818MOL0     H12865   8.349   9.023   6.098 -2.0166 -0.4412  1.8654
  818MOL0     H12866   8.776   9.234   5.721  4.1355  0.4707  0.9063
  818MOL0     H12867   9.007   9.238   5.809  0.1988  0.3495 -0.4178
  818MOL0     H12868  10.406   9.516   7.079  0.8568  0.5915  1.5567
  818MOL0     H12869  10.568   9.707   7.098 -1.4073  1.5263 -2.2852
  818MOL0     H12870  10.881   9.827   7.189  1.7229 -2.8356 -0.3434
  818MOL0     H12871  10.978  10.011   7.310  0.7464 -0.0880 -0.3498
  818MOL0     H12872  11.058  10.186   7.401 -0.9950  2.1112  1.8633
  818MOL0     H12873  11.190  10.313   7.381  1.4769 -0.2707 -1.2591
  818MOL0     H12874  10.945  10.375   7.383  1.7140  3.5454  0.2940
  818MOL0     H12875  10.932  10.298   7.226 -2.7683  1.6630  1.1155
  818MOL0     H12876  11.101  10.541   7.309 -1.8961  1.5777  0.4842
  818MOL0     H12877  11.116  10.448   7.145  0.0597  2.0785 -1.4333
  818MOL0     H12878  10.886  10.627   7.237 -0.1744 -0.1796  0.9141
  818MOL0     H12879  10.885  10.501   7.106  0.8956 -0.3454  0.3603
  818MOL0     H12880  11.117  10.802   6.921  1.9608 -1.1538  1.1056
  818MOL0     H12881  11.222  10.124   6.998  2.9514 -2.3560  3.9516
  818MOL0     H12882  11.141   9.850   6.772 -0.2305 -0.3456  1.8775
  818MOL0     H12883  11.037   9.985   6.757 -0.1654 -2.1359 -2.4493
  818MOL0     H12884  11.212  10.015   6.800  0.7885 -0.7295  1.6408
  819MOL0     O12885   5.211  10.561   0.950  0.0520 -0.5192 -0.1735
  819MOL0     C12886   5.235  10.541   1.070 -0.4412 -0.2335 -0.6385
  819MOL0     O12887   5.200  10.420   1.134 -0.6907 -0.5517  0.5360
  819MOL0     C12888   5.135  10.314   1.070  0.1686  0.3843  0.2041
  819MOL0     C12889   5.195  10.182   1.076 -1.1753 -0.2786  0.6525
  819MOL0     C12890   5.158  10.074   0.990  0.2458 -1.1438 -0.1117
  819MOL0     C12891   5.039  10.095   0.905 -1.2230  0.0486 -0.6592
  819MOL0     O12892   4.984   9.993   0.830  0.1490 -0.2747  0.6583
  819MOL0     C12893   5.074   9.892   0.784  0.6169 -0.2398  0.0928
  819MOL0     C12894   5.028   9.815   0.667 -0.4825 -0.3163 -0.0941
  819MOL0     C12895   5.127   9.698   0.636  1.5851  0.3560  0.4623
  819MOL0     C12896   5.067   9.593   0.549 -0.7275  0.0442  0.7624
  819MOL0     C12897   4.969   9.492   0.629  0.7888 -0.1724  0.3177
  819MOL0     C12898   4.848   9.442   0.545 -0.1772 -0.7901  0.4752
  819MOL0     C12899   4.876   9.379   0.419  0.0189  0.5916  0.5488
  819MOL0     C12900   4.753   9.309   0.366 -0.2440  0.5759  0.0492
  819MOL0     N12901   4.777   9.239   0.239  0.1928 -0.1527  0.0146
  819MOL0     C12902   4.703   9.236   0.121 -0.7255 -0.3888 -0.7096
  819MOL0     C12903   4.770   9.151   0.044  0.6359 -0.1204 -0.1576
  819MOL0     C12904   4.721   9.116  -0.092  0.1624  0.2826 -0.0861
  819MOL0     C12905   4.721   9.248  -0.176  0.7016  1.6216  0.4748
  819MOL0     C12906   4.715   9.211  -0.326  0.2078 -0.2469 -0.6898
  819MOL0     C12907   4.721   9.337  -0.412 -1.4108  0.1648  0.1140
  819MOL0     O12908   4.618   9.433  -0.386 -0.1591  0.6337 -0.3640
  819MOL0     C12909   4.591   9.522  -0.486 -0.2458 -0.1855  0.1263
  819MOL0     C12910   4.458   9.585  -0.485 -0.6181 -0.2903  0.5928
  819MOL0     C12911   4.430   9.687  -0.579 -0.2815  0.5266  0.5184
  819MOL0     C12912   4.293   9.758  -0.562  0.0316 -0.3061  0.0837
  819MOL0     C12913   4.528   9.708  -0.684 -0.2245  0.2480 -0.7432
  819MOL0     C12914   4.514   9.816  -0.782  0.1803  0.0795 -0.2972
  819MOL0     O12915   4.627   9.861  -0.849 -0.1399  0.4045  0.2588
  819MOL0     C12916   4.608   9.936  -0.965  1.1429 -0.3032  0.5229
  819MOL0     C12917   4.614  10.072  -0.951 -0.1010 -0.3375 -0.3311
  819MOL0     C12918   4.588  10.162  -1.060  0.3734  0.6254  0.0689
  819MOL0     C12919   4.568  10.107  -1.191 -0.1556 -0.0868 -0.2648
  819MOL0     O12920   4.551  10.195  -1.283  0.1838 -0.6030  0.8014
  819MOL0     C12921   4.452  10.179  -1.391  0.0763  0.0297 -0.4941
  819MOL0     C12922   4.496  10.276  -1.509  0.0582  0.3845 -0.4039
  819MOL0     C12923   4.612  10.234  -1.580  0.0675  0.9856 -0.6690
  819MOL0     C12924   4.653  10.331  -1.693  0.3147 -0.6666 -0.5478
  819MOL0     C12925   4.770  10.274  -1.772 -1.6872 -1.5151 -0.0695
  819MOL0     C12926   4.810  10.346  -1.906  0.4374 -0.3865  0.9132
  819MOL0     C12927   4.833  10.492  -1.894  0.1715 -0.1478 -0.6712
  819MOL0     C12928   4.931  10.553  -1.993  0.4099  0.4124 -0.0300
  819MOL0    Cl12929   4.839  10.619  -2.130 -0.1876  0.0353 -0.4840
  819MOL0     C12930   4.558   9.963  -1.203  0.0346 -0.3241  0.4077
  819MOL0     C12931   4.581   9.883  -1.093  0.4984  0.4156 -1.0800
  819MOL0     O12932   4.400   9.864  -0.806 -0.2675 -0.0869  0.2304
  819MOL0     C12933   4.647   9.634  -0.690 -0.3262  0.2746  0.0177
  819MOL0     C12934   4.672   9.548  -0.587  0.3741  0.8618  0.3522
  819MOL0     N12935   4.891   9.124   0.103 -0.4892  0.9288 -0.4435
  819MOL0     N12936   4.886   9.170   0.223 -0.7185 -0.1488  0.1579
  819MOL0     C12937   4.978  10.224   0.904 -0.7440 -0.3529 -0.1415
  819MOL0     C12938   5.022  10.325   0.987  0.4147 -0.2198 -0.0896
  819MOL0     C12939   5.304  10.636   1.153 -0.4269 -0.4261  0.0725
  819MOL0     C12940   5.244  10.661   1.278 -0.0579 -0.1683 -0.3786
  819MOL0     C12941   5.298  10.755   1.373  0.0248  0.3304 -0.1976
  819MOL0     C12942   5.410  10.826   1.336 -0.5469 -0.0850  0.5120
  819MOL0     O12943   5.455  10.912   1.430 -0.8167 -0.3679 -0.2440
  819MOL0     C12944   5.601  10.908   1.425 -0.4864  0.3744 -0.2343
  819MOL0     C12945   5.665  10.945   1.565 -0.4010 -0.0643 -0.1031
  819MOL0     C12946   5.692  10.832   1.665  0.4610 -0.4615  0.4103
  819MOL0     C12947   5.746  10.904   1.790  0.3845  0.2901  0.5281
  819MOL0     C12948   5.798  10.803   1.884  0.1851 -0.5116 -0.2379
  819MOL0     C12949   5.812  10.722   1.973 -0.1458  1.3037  0.2398
  819MOL0     C12950   5.459  10.819   1.202 -0.5773 -0.1197  0.5718
  819MOL0     C12951   5.409  10.720   1.119  0.3927 -0.1848 -0.3460
  819MOL0     C12952   5.484  10.717   0.988 -0.4746  0.4280 -0.9768
  819MOL0     H12953   5.286  10.171   1.134  0.3025 -0.9800 -1.6612
  819MOL0     H12954   5.206   9.977   0.988  0.8667 -0.8914  1.4586
  819MOL0     H12955   5.093   9.821   0.865 -3.0748  0.7111  2.0617
  819MOL0     H12956   5.169   9.938   0.755 -0.2297  1.3224 -0.3632
  819MOL0     H12957   4.925   9.786   0.689 -1.0030 -0.2143 -2.1929
  819MOL0     H12958   5.022   9.881   0.580 -0.1475  0.8935  0.7705
  819MOL0     H12959   5.210   9.737   0.576  1.4368  1.5865  1.0228
  819MOL0     H12960   5.157   9.649   0.729  0.0723 -2.4763 -0.4218
  819MOL0     H12961   4.997   9.644   0.481 -0.3507  0.2547  0.5298
  819MOL0     H12962   5.148   9.537   0.502  1.1939  0.8378  2.9955
  819MOL0     H12963   4.931   9.549   0.715 -1.6760 -0.7139 -0.3209
  819MOL0     H12964   5.034   9.410   0.657  1.3664  1.2692  3.7397
  819MOL0     H12965   4.797   9.371   0.609 -0.3822 -1.5969 -0.5514
  819MOL0     H12966   4.779   9.521   0.514 -1.0331 -1.5697  0.3650
  819MOL0     H12967   4.949   9.302   0.448 -1.0400 -0.7337 -0.1894
  819MOL0     H12968   4.917   9.444   0.341  1.3054 -0.5538  0.2192
  819MOL0     H12969   4.737   9.228   0.438  0.4333  2.2084  2.1330
  819MOL0     H12970   4.667   9.376   0.351  0.7669  1.4434 -2.2163
  819MOL0     H12971   4.611   9.287   0.093 -0.5710  0.7381  0.6883
  819MOL0     H12972   4.620   9.076  -0.082  0.3755 -0.5927 -1.2561
  819MOL0     H12973   4.778   9.039  -0.145 -0.7068 -0.9013  0.6341
  819MOL0     H12974   4.630   9.298  -0.141 -1.1540 -1.1548  0.0143
  819MOL0     H12975   4.821   9.289  -0.167  0.3278  2.4824  0.7453
  819MOL0     H12976   4.796   9.141  -0.349  0.3136  0.3522 -2.3317
  819MOL0     H12977   4.620   9.163  -0.348 -0.2400  0.9652 -1.4908
  819MOL0     H12978   4.815   9.391  -0.397 -1.3605 -0.2398  1.3147
  819MOL0     H12979   4.715   9.291  -0.512  3.4239 -0.1435 -0.2540
  819MOL0     H12980   4.392   9.536  -0.414  0.7454 -0.5756  1.7016
  819MOL0     H12981   4.240   9.743  -0.468  0.0657  2.9596  0.7291
  819MOL0     H12982   4.232   9.740  -0.651 -0.8054 -1.4553  0.8573
  819MOL0     H12983   4.324   9.863  -0.559  4.1888 -1.3604  0.8963
  819MOL0     H12984   4.645  10.116  -0.857  3.0189  2.4597 -2.4230
  819MOL0     H12985   4.593  10.268  -1.038  3.4978  0.6192 -0.1249
  819MOL0     H12986   4.451  10.077  -1.429  1.5768 -1.1858  2.4399
  819MOL0     H12987   4.349  10.206  -1.368 -0.1428  1.6474 -2.9057
  819MOL0     H12988   4.410  10.278  -1.577 -3.0303 -0.7107  3.1363
  819MOL0     H12989   4.503  10.374  -1.461 -2.1462  0.1041  0.6258
  819MOL0     H12990   4.592  10.133  -1.618  2.6949 -0.9750  2.6212
  819MOL0     H12991   4.688  10.232  -1.502  0.4222 -1.0201 -0.9946
  819MOL0     H12992   4.675  10.430  -1.651  2.4851  0.1554 -3.3334
  819MOL0     H12993   4.571  10.341  -1.765  2.0870 -0.7809 -2.6878
  819MOL0     H12994   4.860  10.292  -1.712 -0.0790 -0.1058 -2.7073
  819MOL0     H12995   4.768  10.171  -1.808  1.2990  0.0388 -6.0088
  819MOL0     H12996   4.731  10.331  -1.980  0.5552  1.5736  0.3372
  819MOL0     H12997   4.894  10.308  -1.965  0.4684  3.4127 -1.8803
  819MOL0     H12998   4.878  10.507  -1.796  0.2775  2.7826 -1.0670
  819MOL0     H12999   4.735  10.539  -1.895  0.3530  0.3047 -3.0472
  819MOL0     H13000   5.002  10.476  -2.025  0.2004  1.1897 -2.6219
  819MOL0     H13001   4.991  10.633  -1.950  2.5994  1.2241 -4.0340
  819MOL0     H13002   4.553   9.917  -1.302  2.3140 -1.1332  0.6168
  819MOL0     H13003   4.576   9.774  -1.093 -0.2859  0.4360 -0.1699
  819MOL0     H13004   4.721   9.627  -0.769 -0.0987 -3.2234  0.3858
  819MOL0     H13005   4.768   9.498  -0.586 -0.1260 -0.1207  0.5543
  819MOL0     H13006   4.885  10.222   0.848 -1.1225 -0.1027  0.4698
  819MOL0     H13007   4.965  10.417   0.979 -0.4592 -0.7850 -0.4985
  819MOL0     H13008   5.166  10.595   1.316  1.1771 -1.2929  0.2962
  819MOL0     H13009   5.269  10.765   1.477  3.8544 -0.7729  1.1589
  819MOL0     H13010   5.648  10.815   1.390 -0.2521  0.4951 -0.2396
  819MOL0     H13011   5.629  10.979   1.347 -2.1472  1.0750 -0.2445
  819MOL0     H13012   5.600  11.018   1.613 -1.0184 -0.7249  0.0809
  819MOL0     H13013   5.760  10.991   1.536  0.6767 -0.6585  2.2472
  819MOL0     H13014   5.594  10.799   1.700  0.6656  0.5771  2.0610
  819MOL0     H13015   5.745  10.750   1.616  2.6235  1.3554 -0.4717
  819MOL0     H13016   5.662  10.963   1.826 -0.6006  0.2792 -1.6330
  819MOL0     H13017   5.832  10.967   1.764 -0.9587  2.8917  2.0287
  819MOL0     H13018   5.832  10.666   2.062  2.0342  2.8204  0.7963
  819MOL0     H13019   5.530  10.893   1.166 -1.8433  1.3536  1.0095
  819MOL0     H13020   5.454  10.802   0.927  0.7247  0.4012 -1.6498
  819MOL0     H13021   5.588  10.722   1.022 -1.1060  1.5359  0.9065
  819MOL0     H13022   5.469  10.627   0.928 -4.2899  1.9317 -2.5735
  820MOL0     O13023   2.604   3.645   8.985 -0.0035 -0.4705  0.1336
  820MOL0     C13024   2.518   3.737   8.997  0.2075  0.2890  0.3203
  820MOL0     O13025   2.411   3.729   9.085  0.0427  0.1045  0.6362
  820MOL0     C13026   2.411   3.624   9.174  0.2973  0.0272 -1.2168
  820MOL0     C13027   2.468   3.641   9.296  0.3130  0.2331  0.1838
  820MOL0     C13028   2.453   3.542   9.392  0.0813  0.3703  0.4778
  820MOL0     C13029   2.382   3.422   9.367  0.0323  0.8031 -0.0425
  820MOL0     O13030   2.363   3.312   9.446  0.0539  0.1061 -0.3748
  820MOL0     C13031   2.459   3.289   9.550  0.5866 -0.0367 -0.3785
  820MOL0     C13032   2.450   3.147   9.601  0.5728  0.3646 -0.9167
  820MOL0     C13033   2.334   3.125   9.691  0.9425  0.1811  0.0218
  820MOL0     C13034   2.259   3.000   9.628 -0.4051 -0.5206 -0.3284
  820MOL0     C13035   2.125   2.960   9.690  0.7951 -0.3489  1.1822
  820MOL0     C13036   2.086   2.827   9.615 -0.6410  0.0444  0.9364
  820MOL0     C13037   1.963   2.766   9.686  0.4866 -0.2493  0.7859
  820MOL0     C13038   1.831   2.801   9.613  0.0692 -0.4960  0.3625
  820MOL0     N13039   1.812   2.743   9.485 -0.4654  0.1546 -0.1763
  820MOL0     C13040   1.808   2.607   9.466  0.1939  0.5151 -0.3148
  820MOL0     C13041   1.798   2.591   9.334  0.7959  0.4355 -0.4256
  820MOL0     C13042   1.777   2.458   9.268 -0.0960 -0.3622 -0.8409
  820MOL0     C13043   1.662   2.425   9.172  1.3251 -0.4294  0.4781
  820MOL0     C13044   1.682   2.282   9.104  0.1056 -0.9459 -0.1048
  820MOL0     C13045   1.566   2.241   9.014  0.4863  0.3811 -0.2138
  820MOL0     O13046   1.449   2.220   9.094  0.1663  0.2107 -0.2761
  820MOL0     C13047   1.344   2.285   9.037  0.3383  0.4568  0.8530
  820MOL0     C13048   1.271   2.382   9.122  0.1008 -0.0353  0.1517
  820MOL0     C13049   1.148   2.438   9.087 -0.9400  0.8270  0.1047
  820MOL0     C13050   1.086   2.526   9.199 -0.2234  0.5073 -0.4377
  820MOL0     C13051   1.097   2.413   8.959 -0.1555  0.2496  0.1247
  820MOL0     C13052   0.970   2.477   8.908  0.1689 -0.3081 -0.6797
  820MOL0     O13053   0.919   2.426   8.795  0.4943  0.7243  0.0911
  820MOL0     C13054   0.798   2.468   8.755  0.1070 -0.6807  0.9988
  820MOL0     C13055   0.687   2.381   8.772  0.3852 -1.1560  0.0407
  820MOL0     C13056   0.563   2.422   8.718  0.2057  0.8356  0.0901
  820MOL0     C13057   0.546   2.547   8.650 -0.0085 -0.3278  0.4761
  820MOL0     O13058   0.429   2.604   8.591  0.1218 -0.7219  0.7404
  820MOL0     C13059   0.316   2.517   8.560 -0.2068 -0.0011  0.1303
  820MOL0     C13060   0.204   2.595   8.498  0.2209 -0.6577 -0.5837
  820MOL0     C13061   0.104   2.503   8.430 -0.3983 -0.3386  0.4884
  820MOL0     C13062  -0.000   2.587   8.336 -0.7747 -0.0427  0.0137
  820MOL0     C13063  -0.083   2.717   8.386 -0.8666 -0.0678  0.1536
  820MOL0     C13064  -0.179   2.687   8.493 -0.1632  0.5990  0.4482
  820MOL0     C13065  -0.241   2.813   8.560 -0.3782 -0.2992 -0.2132
  820MOL0     C13066  -0.352   2.878   8.464 -0.2969  0.6359 -0.1764
  820MOL0    Cl13067  -0.287   3.023   8.378  0.6003 -0.3492  0.0364
  820MOL0     C13068   0.659   2.629   8.633 -0.0845  0.6292 -0.0237
  820MOL0     C13069   0.790   2.598   8.682  0.0409  0.5270 -0.0465
  820MOL0     O13070   0.907   2.556   8.983 -0.8212  0.5525 -0.0659
  820MOL0     C13071   1.169   2.328   8.876  0.5486  0.8177  0.1778
  820MOL0     C13072   1.295   2.269   8.907  0.9850  0.6913  0.0538
  820MOL0     N13073   1.791   2.710   9.270  0.1279 -0.1395 -0.1921
  820MOL0     N13074   1.810   2.799   9.362  0.3501  0.7838  0.6325
  820MOL0     C13075   2.327   3.405   9.243 -0.0401  0.4547 -0.2842
  820MOL0     C13076   2.332   3.511   9.152  0.1061 -0.1841  0.1664
  820MOL0     C13077   2.529   3.872   8.924 -0.5380 -0.0202 -0.5110
  820MOL0     C13078   2.418   3.953   8.925 -0.2135 -0.1650 -0.0461
  820MOL0     C13079   2.420   4.077   8.871 -0.6322 -0.4221  0.3417
  820MOL0     C13080   2.543   4.131   8.815  0.0790 -0.5237 -0.0892
  820MOL0     O13081   2.547   4.267   8.783  0.6054  0.6124  0.2781
  820MOL0     C13082   2.449   4.345   8.845 -0.6625  1.0750  0.0935
  820MOL0     C13083   2.507   4.478   8.820 -0.0511 -0.5720 -0.0483
  820MOL0     C13084   2.470   4.534   8.677  0.7233 -0.6481  0.2735
  820MOL0     C13085   2.319   4.539   8.646  0.3821  0.1728  0.6490
  820MOL0     C13086   2.292   4.607   8.523  0.7627 -0.6237  0.0128
  820MOL0     C13087   2.257   4.666   8.423  0.7142 -0.8181 -0.2147
  820MOL0     C13088   2.649   4.048   8.803 -0.3527 -0.4152  0.9495
  820MOL0     C13089   2.654   3.922   8.869 -0.5136  0.5578  0.2082
  820MOL0     C13090   2.789   3.854   8.865  0.5300  0.2573 -0.3560
  820MOL0     H13091   2.532   3.728   9.306  0.3358  0.2134  0.2061
  820MOL0     H13092   2.512   3.537   9.483 -0.8538 -0.5480  1.0585
  820MOL0     H13093   2.449   3.349   9.642  1.4130 -1.4910  0.7025
  820MOL0     H13094   2.560   3.315   9.515  1.4341  1.8151  2.9232
  820MOL0     H13095   2.458   3.074   9.520 -1.6793  1.0714 -1.8379
  820MOL0     H13096   2.546   3.139   9.654  0.5096  1.0248 -0.6923
  820MOL0     H13097   2.361   3.095   9.793  6.1355 -1.5197 -1.5431
  820MOL0     H13098   2.266   3.209   9.675  0.6590 -0.3526 -1.7789
  820MOL0     H13099   2.246   3.024   9.522 -0.4100  1.9863  0.1837
  820MOL0     H13100   2.313   2.905   9.634 -1.4177 -1.0615  0.5750
  820MOL0     H13101   2.050   3.035   9.665  1.1441 -0.4017 -0.0897
  820MOL0     H13102   2.129   2.936   9.796 -3.9411 -1.0361  1.4449
  820MOL0     H13103   2.068   2.840   9.507 -0.5920 -2.2778  0.6037
  820MOL0     H13104   2.154   2.743   9.630  0.7192  1.1030  0.8842
  820MOL0     H13105   1.949   2.807   9.786 -4.3525  0.3540  0.1132
  820MOL0     H13106   1.981   2.659   9.685  1.8580 -0.2312 -3.8244
  820MOL0     H13107   1.752   2.760   9.676 -4.2700 -1.0727 -4.7037
  820MOL0     H13108   1.835   2.910   9.614 -0.0381 -0.4868  2.3070
  820MOL0     H13109   1.815   2.541   9.553  0.7316  0.9891  0.0124
  820MOL0     H13110   1.772   2.384   9.348  2.9540  0.2572  0.0167
  820MOL0     H13111   1.865   2.443   9.206 -0.8994 -0.7708 -1.9281
  820MOL0     H13112   1.575   2.436   9.238  1.8794  1.3510  0.9816
  820MOL0     H13113   1.653   2.503   9.096  1.5968 -2.3449 -1.6259
  820MOL0     H13114   1.771   2.288   9.040 -0.1312  2.3864 -0.2783
  820MOL0     H13115   1.693   2.214   9.189  1.2302  1.3255  1.6706
  820MOL0     H13116   1.553   2.324   8.943  2.7299  2.3086  1.4518
  820MOL0     H13117   1.598   2.146   8.971 -0.8700 -0.7855  1.2385
  820MOL0     H13118   1.314   2.375   9.221 -0.0357 -3.1675  0.0981
  820MOL0     H13119   1.007   2.478   9.257 -0.0909  3.7683  2.7701
  820MOL0     H13120   1.029   2.614   9.169 -1.0100  0.8608  1.9290
  820MOL0     H13121   1.156   2.551   9.279 -2.2850  1.1565  1.2372
  820MOL0     H13122   0.694   2.284   8.820  0.2240  0.4588  3.6449
  820MOL0     H13123   0.480   2.353   8.724  1.0762 -0.5405 -2.2380
  820MOL0     H13124   0.358   2.431   8.506 -0.5397 -1.0066  1.4186
  820MOL0     H13125   0.285   2.471   8.654 -0.0877 -0.2329  0.0577
  820MOL0     H13126   0.151   2.644   8.580 -1.0367  1.2549 -2.4157
  820MOL0     H13127   0.251   2.668   8.431  2.3838 -2.9801 -1.7758
  820MOL0     H13128   0.049   2.455   8.511 -1.9404  3.3085  1.7935
  820MOL0     H13129   0.164   2.428   8.377 -1.9669 -0.3886 -1.3388
  820MOL0     H13130  -0.070   2.515   8.294 -0.7319 -0.1021  0.0461
  820MOL0     H13131   0.068   2.619   8.257 -1.0620 -1.5159 -0.8569
  820MOL0     H13132  -0.004   2.784   8.420 -1.3671  0.3865  0.4350
  820MOL0     H13133  -0.151   2.749   8.306 -1.0108 -1.4679 -0.3174
  820MOL0     H13134  -0.118   2.640   8.570 -0.3057 -0.7655 -0.2397
  820MOL0     H13135  -0.255   2.619   8.454  1.5696 -1.1205 -0.0799
  820MOL0     H13136  -0.162   2.888   8.571  0.0568 -0.6614 -0.7987
  820MOL0     H13137  -0.278   2.768   8.653  2.3204 -0.2840  0.9574
  820MOL0     H13138  -0.431   2.935   8.515  2.3351  2.8723  1.7246
  820MOL0     H13139  -0.392   2.808   8.390 -0.5410  0.0296  0.5178
  820MOL0     H13140   0.640   2.723   8.582 -1.4003  0.6403  0.4626
  820MOL0     H13141   0.877   2.663   8.678 -0.1381  1.0131  2.3168
  820MOL0     H13142   1.140   2.312   8.772  2.3542 -2.0656  0.0230
  820MOL0     H13143   1.361   2.224   8.833 -1.6758  0.3650 -2.3002
  820MOL0     H13144   2.257   3.323   9.229 -2.1037  2.3293 -1.7211
  820MOL0     H13145   2.268   3.508   9.064  1.7842 -0.2260 -1.1042
  820MOL0     H13146   2.325   3.919   8.971  0.7524 -1.1040  1.2741
  820MOL0     H13147   2.328   4.133   8.878  1.1550  3.1604 -1.9131
  820MOL0     H13148   2.350   4.339   8.801  0.3891  1.1724 -2.4568
  820MOL0     H13149   2.451   4.312   8.950  0.4610 -0.0978 -0.2628
  820MOL0     H13150   2.614   4.474   8.841 -0.7186 -2.0839  4.1321
  820MOL0     H13151   2.467   4.544   8.898 -2.4890  2.7882 -3.7529
  820MOL0     H13152   2.507   4.637   8.671 -1.3703  0.0779 -1.8227
  820MOL0     H13153   2.520   4.478   8.597 -0.9582 -4.2906  1.5772
  820MOL0     H13154   2.268   4.598   8.723  0.6242  0.4939  0.5651
  820MOL0     H13155   2.268   4.442   8.650 -0.0471  0.4255  1.5647
  820MOL0     H13156   2.216   4.712   8.336  1.2199 -0.6256 -0.3584
  820MOL0     H13157   2.744   4.096   8.779  1.3556 -1.2481  5.1243
  820MOL0     H13158   2.868   3.929   8.855  3.4455 -2.5766 -0.2688
  820MOL0     H13159   2.803   3.815   8.966  0.2211  0.9290 -0.0426
  820MOL0     H13160   2.792   3.783   8.782  1.5887  0.8100 -0.8118
  821MOL0     O13161   3.360   4.242   9.714  0.2064 -0.5582 -0.9965
  821MOL0     C13162   3.422   4.137   9.709 -0.8570  0.0208 -0.0922
  821MOL0     O13163   3.557   4.120   9.678  0.3671  0.0280  0.0617
  821MOL0     C13164   3.615   4.224   9.617 -0.4928 -0.1574  0.1220
  821MOL0     C13165   3.593   4.243   9.484 -0.1046  0.6873 -0.3081
  821MOL0     C13166   3.626   4.371   9.430  0.2437 -0.3332  0.7990
  821MOL0     C13167   3.685   4.472   9.506 -0.2054 -0.7705  0.0390
  821MOL0     O13168   3.705   4.601   9.455 -0.5607  0.7490 -0.1953
  821MOL0     C13169   3.769   4.611   9.325  0.2280 -0.2239 -0.7303
  821MOL0     C13170   3.665   4.644   9.212  0.2452 -0.4943 -0.9899
  821MOL0     C13171   3.747   4.664   9.085  0.8271  0.3627  1.2109
  821MOL0     C13172   3.650   4.694   8.968 -1.1900  0.2697  0.6389
  821MOL0     C13173   3.727   4.765   8.848 -0.6527 -0.8589 -0.0348
  821MOL0     C13174   3.621   4.795   8.735 -0.5901  0.0686  0.2347
  821MOL0     C13175   3.564   4.667   8.666 -0.0876 -0.1079  0.3373
  821MOL0     C13176   3.521   4.695   8.526 -0.0182  0.0642 -0.3147
  821MOL0     N13177   3.479   4.582   8.443  0.9648 -0.2021 -0.4992
  821MOL0     C13178   3.554   4.478   8.409 -0.3039  1.4139 -1.0948
  821MOL0     C13179   3.470   4.383   8.376 -0.0685 -0.0209  0.0163
  821MOL0     C13180   3.502   4.241   8.333  0.1199  0.6720  0.1616
  821MOL0     C13181   3.628   4.228   8.257  0.1988 -0.2055  0.3059
  821MOL0     C13182   3.602   4.263   8.111 -0.4467 -0.6893 -0.5390
  821MOL0     C13183   3.720   4.302   8.029 -0.0141 -0.2789  0.1300
  821MOL0     O13184   3.807   4.404   8.085  0.8746 -0.7540  0.3706
  821MOL0     C13185   3.907   4.458   8.013  1.0409  0.0006 -0.0960
  821MOL0     C13186   3.977   4.566   8.071  0.7473 -0.0648  0.6863
  821MOL0     C13187   4.081   4.635   8.007 -0.0799  0.1821 -0.3368
  821MOL0     C13188   4.150   4.744   8.085  0.7317  0.5287 -0.3276
  821MOL0     C13189   4.113   4.602   7.872  0.2753  0.2314 -0.6340
  821MOL0     C13190   4.220   4.673   7.792  0.1682 -0.6332 -0.5148
  821MOL0     O13191   4.206   4.653   7.659 -0.6273  0.2305 -0.0278
  821MOL0     C13192   4.297   4.721   7.578  0.3362 -0.2627 -0.0901
  821MOL0     C13193   4.272   4.856   7.546 -0.5438  0.4786 -0.1961
  821MOL0     C13194   4.329   4.924   7.434 -0.9478  0.3504  0.3899
  821MOL0     C13195   4.423   4.848   7.352  0.6948 -0.7766 -0.3591
  821MOL0     O13196   4.477   4.917   7.241 -0.1087 -0.0414 -0.2523
  821MOL0     C13197   4.482   5.059   7.234  0.3096  0.0469  0.2785
  821MOL0     C13198   4.574   5.105   7.114 -0.2235 -0.5276 -0.1394
  821MOL0     C13199   4.550   5.255   7.079  0.2654 -0.4811 -0.0531
  821MOL0     C13200   4.643   5.317   6.979 -1.0493  0.2300 -0.4290
  821MOL0     C13201   4.659   5.472   6.968  0.2269  0.7822 -0.2405
  821MOL0     C13202   4.737   5.526   7.091 -0.6397 -0.1071 -0.9296
  821MOL0     C13203   4.773   5.675   7.069  0.1331 -1.7274  0.0480
  821MOL0     C13204   4.884   5.720   7.160  0.0293 -0.0756 -0.1745
  821MOL0    Cl13205   4.890   5.902   7.150  0.2347  0.3356  0.2594
  821MOL0     C13206   4.443   4.716   7.380 -0.0827  0.5128 -0.0618
  821MOL0     C13207   4.389   4.656   7.499  0.6113 -0.3641  0.5160
  821MOL0     O13208   4.295   4.753   7.838 -0.3578 -0.3688 -0.3081
  821MOL0     C13209   4.039   4.496   7.820  0.2020  0.4147 -0.3677
  821MOL0     C13210   3.937   4.430   7.881  0.4456  0.6417  0.4908
  821MOL0     N13211   3.337   4.427   8.397  0.3620 -0.2117  0.3917
  821MOL0     N13212   3.347   4.550   8.436  0.1308 -0.2048  0.3770
  821MOL0     C13213   3.698   4.450   9.641  0.7882  0.3555  0.2871
  821MOL0     C13214   3.669   4.322   9.699 -0.4191 -0.4101 -0.2293
  821MOL0     C13215   3.355   4.015   9.773  0.5247 -0.3626 -0.2712
  821MOL0     C13216   3.415   3.890   9.738  0.1349  0.5505 -0.3653
  821MOL0     C13217   3.359   3.762   9.778  0.4850 -0.3859  0.3148
  821MOL0     C13218   3.264   3.761   9.878 -0.9765  0.6215  0.1809
  821MOL0     O13219   3.213   3.640   9.918  0.1763 -0.3161  0.2032
  821MOL0     C13220   3.254   3.597  10.045 -0.1173  0.7796 -0.9664
  821MOL0     C13221   3.207   3.455  10.082 -0.7937  0.4447  0.5438
  821MOL0     C13222   3.059   3.456  10.089  0.9097  0.4081  0.8460
  821MOL0     C13223   2.985   3.316  10.104  0.1851 -0.2273  0.7488
  821MOL0     C13224   3.048   3.232  10.204  0.3849 -0.8821 -0.5415
  821MOL0     C13225   3.096   3.150  10.282 -0.2404  0.0782  0.0482
  821MOL0     C13226   3.201   3.885   9.912 -0.0947 -0.0527  0.3292
  821MOL0     C13227   3.238   4.007   9.858 -0.4830  0.6339  0.6996
  821MOL0     C13228   3.146   4.116   9.899  0.1385 -0.9132  0.3112
  821MOL0     H13229   3.546   4.162   9.429 -2.9897  0.8551  1.6908
  821MOL0     H13230   3.620   4.376   9.322  0.8726  1.5843  0.8142
  821MOL0     H13231   3.817   4.518   9.291  1.4804  1.0500 -2.6760
  821MOL0     H13232   3.847   4.688   9.322  0.2689 -0.2313  0.0530
  821MOL0     H13233   3.577   4.579   9.209 -2.3567  2.7700 -0.5528
  821MOL0     H13234   3.607   4.734   9.233 -1.9378 -1.7718 -1.2185
  821MOL0     H13235   3.808   4.754   9.097 -2.1081  2.7923 -0.4923
  821MOL0     H13236   3.813   4.580   9.061 -1.6406 -1.4980  0.4723
  821MOL0     H13237   3.610   4.597   8.934  2.0166 -0.3381 -1.8569
  821MOL0     H13238   3.562   4.749   9.003 -1.4475 -0.9352  2.0468
  821MOL0     H13239   3.807   4.700   8.812 -2.4389 -2.1024 -2.0258
  821MOL0     H13240   3.762   4.859   8.890  1.6830 -1.2561 -0.9556
  821MOL0     H13241   3.529   4.842   8.773 -0.6011 -0.9459  1.5331
  821MOL0     H13242   3.669   4.862   8.663 -3.8163 -1.7740 -4.0832
  821MOL0     H13243   3.482   4.631   8.729 -2.3049  1.2619 -1.6151
  821MOL0     H13244   3.637   4.586   8.673 -0.6943 -0.5402  3.3046
  821MOL0     H13245   3.447   4.776   8.533 -0.9401 -0.7959  0.0427
  821MOL0     H13246   3.612   4.728   8.475  0.0561 -2.6162 -2.0891
  821MOL0     H13247   3.662   4.476   8.403 -0.1037 -2.3200  0.9907
  821MOL0     H13248   3.412   4.218   8.275 -2.1836  3.2956  2.3902
  821MOL0     H13249   3.507   4.178   8.422 -1.6920  0.0931 -0.1061
  821MOL0     H13250   3.700   4.296   8.303 -0.2757 -0.2125  1.0821
  821MOL0     H13251   3.674   4.129   8.265 -1.4706 -0.9718  1.0386
  821MOL0     H13252   3.552   4.181   8.059 -4.1698  0.6702  0.5567
  821MOL0     H13253   3.532   4.345   8.097  1.7321  1.7605  1.7609
  821MOL0     H13254   3.783   4.217   7.999  0.4248 -0.2421  0.9373
  821MOL0     H13255   3.678   4.334   7.933  0.3363 -0.0453  0.0500
  821MOL0     H13256   3.948   4.604   8.168  3.5868  1.1944  1.1570
  821MOL0     H13257   4.104   4.765   8.183  3.0112  1.4963  0.5976
  821MOL0     H13258   4.146   4.840   8.033  2.6025  1.2968  0.8559
  821MOL0     H13259   4.248   4.698   8.098  0.0178 -0.5522  1.7504
  821MOL0     H13260   4.195   4.908   7.601  0.0424  1.2012 -0.0451
  821MOL0     H13261   4.302   5.028   7.417 -3.1602 -0.2403 -0.0357
  821MOL0     H13262   4.381   5.101   7.223 -1.2397 -1.3979  5.5477
  821MOL0     H13263   4.535   5.096   7.322  0.0301  1.8699 -0.2859
  821MOL0     H13264   4.679   5.100   7.142  0.2230 -0.4539 -1.7038
  821MOL0     H13265   4.563   5.044   7.024  0.3799 -1.3682  0.3462
  821MOL0     H13266   4.548   5.316   7.170  0.0227  0.2098 -0.5128
  821MOL0     H13267   4.446   5.268   7.049  0.4380 -0.9664 -0.9017
  821MOL0     H13268   4.623   5.275   6.880  0.9221  0.7382 -1.0883
  821MOL0     H13269   4.745   5.280   6.986 -0.9210  0.0735 -2.6926
  821MOL0     H13270   4.712   5.486   6.874 -2.2216  1.8432 -1.5675
  821MOL0     H13271   4.562   5.521   6.961  1.1099  2.4891 -0.8927
  821MOL0     H13272   4.833   5.480   7.116 -0.3128 -0.7942 -3.1341
  821MOL0     H13273   4.664   5.495   7.166 -0.0279 -2.6943 -1.2819
  821MOL0     H13274   4.689   5.745   7.073 -0.7034 -2.7607  1.3167
  821MOL0     H13275   4.813   5.684   6.967  0.1143 -1.0181  0.0956
  821MOL0     H13276   4.978   5.669   7.136 -0.7773 -1.5297 -0.3907
  821MOL0     H13277   4.863   5.694   7.265 -4.7546 -1.2161 -1.1489
  821MOL0     H13278   4.511   4.659   7.317  1.7233  2.1474  0.3099
  821MOL0     H13279   4.400   4.553   7.532  1.1594 -0.2067  0.8427
  821MOL0     H13280   4.069   4.463   7.721  3.4619  0.0078  0.6250
  821MOL0     H13281   3.889   4.359   7.814  1.7776 -0.8545  1.0499
  821MOL0     H13282   3.708   4.526   9.718 -3.2531  0.5002  0.8494
  821MOL0     H13283   3.668   4.307   9.806 -1.1672  0.9095 -0.0393
  821MOL0     H13284   3.490   3.886   9.659  1.3452  0.6067  0.7560
  821MOL0     H13285   3.394   3.675   9.724 -0.6781  0.7750 -2.4906
  821MOL0     H13286   3.363   3.599  10.040 -0.0046  2.1873  1.0063
  821MOL0     H13287   3.225   3.657  10.132 -0.3358 -1.5436  0.6635
  821MOL0     H13288   3.244   3.423  10.180 -2.7225 -1.0292  0.8441
  821MOL0     H13289   3.245   3.387  10.005  1.3552 -0.4441  2.2930
  821MOL0     H13290   3.031   3.516  10.177 -1.1265 -0.6979  1.0097
  821MOL0     H13291   3.018   3.512  10.005  2.6923  1.4873  0.6515
  821MOL0     H13292   2.987   3.269  10.005 -0.5274 -2.3564  1.6680
  821MOL0     H13293   2.880   3.320  10.135  0.7034  0.8008  2.5138
  821MOL0     H13294   3.142   3.065  10.328  0.6035 -0.4131 -1.6294
  821MOL0     H13295   3.110   3.884   9.971  0.4798  0.4799  1.2480
  821MOL0     H13296   3.140   4.195   9.823  0.5161 -0.9502  0.2387
  821MOL0     H13297   3.043   4.086   9.916 -1.8676  2.4199 -3.9014
  821MOL0     H13298   3.188   4.146   9.996 -0.1599  1.4862 -0.2329
  822MOL0     O13299   2.883   5.042   1.575 -0.8924  0.0694 -0.1855
  822MOL0     C13300   2.834   5.139   1.512  0.8537  0.9418 -0.1795
  822MOL0     O13301   2.796   5.255   1.570 -0.7763  0.8160  0.1318
  822MOL0     C13302   2.872   5.291   1.683  0.1350  0.0413 -0.0508
  822MOL0     C13303   3.003   5.336   1.671  0.0375 -0.7440  0.7816
  822MOL0     C13304   3.077   5.375   1.782 -0.7668  0.7467 -0.0892
  822MOL0     C13305   3.021   5.370   1.908  0.5018  0.4226  0.1995
  822MOL0     O13306   3.089   5.406   2.013  0.3189  0.2529  0.9344
  822MOL0     C13307   3.071   5.338   2.134 -0.4843  0.0010 -0.0468
  822MOL0     C13308   3.176   5.352   2.244  0.7121 -1.0785  0.2712
  822MOL0     C13309   3.217   5.496   2.276  0.8980 -0.0905 -0.3939
  822MOL0     C13310   3.184   5.514   2.428  0.1035 -0.6317  0.2969
  822MOL0     C13311   3.201   5.662   2.472 -0.3329 -0.1862 -0.4512
  822MOL0     C13312   3.349   5.701   2.485  0.2419  0.3250  0.0801
  822MOL0     C13313   3.377   5.811   2.579 -0.9326 -0.4177 -0.0139
  822MOL0     C13314   3.528   5.828   2.617  0.9613 -0.0208 -0.1165
  822MOL0     N13315   3.618   5.858   2.500  0.7144 -0.1720 -0.8648
  822MOL0     C13316   3.708   5.771   2.443  0.2696 -0.4744  0.0164
  822MOL0     C13317   3.782   5.848   2.363  0.0605 -0.0909 -1.4466
  822MOL0     C13318   3.864   5.802   2.243 -0.4567 -0.4488  0.2094
  822MOL0     C13319   3.904   5.653   2.265 -0.5496  0.4902  0.3314
  822MOL0     C13320   4.018   5.605   2.163 -0.4894  0.1833 -0.5395
  822MOL0     C13321   3.949   5.581   2.035 -0.6458  0.6223  0.1307
  822MOL0     O13322   4.036   5.553   1.932  0.3158 -0.0926  0.4376
  822MOL0     C13323   4.006   5.606   1.813 -0.2215  0.4151  0.1643
  822MOL0     C13324   3.958   5.521   1.713 -0.9259  0.8536  0.5194
  822MOL0     C13325   3.949   5.570   1.579  1.0734  0.7561 -0.1248
  822MOL0     C13326   3.902   5.452   1.484 -0.0978 -0.1925 -0.7332
  822MOL0     C13327   3.978   5.707   1.545  0.4928  0.5469  1.0691
  822MOL0     C13328   3.956   5.778   1.413  0.3715  0.3024  0.7344
  822MOL0     O13329   3.982   5.910   1.411  0.4738  0.3590 -0.0930
  822MOL0     C13330   3.970   5.970   1.290  0.1523 -0.2739  0.3305
  822MOL0     C13331   4.032   5.917   1.175 -0.9973 -0.7441  0.2322
  822MOL0     C13332   4.021   5.980   1.053  0.1003 -0.8766 -1.0406
  822MOL0     C13333   3.962   6.104   1.045  0.9387 -0.5773  0.4863
  822MOL0     O13334   3.952   6.160   0.921  0.2762 -0.1091  0.6069
  822MOL0     C13335   3.848   6.123   0.834  0.8273  0.1813 -0.2389
  822MOL0     C13336   3.899   6.069   0.697 -0.1131 -0.1802 -0.2749
  822MOL0     C13337   3.788   6.033   0.606 -0.0758  0.3023 -0.3549
  822MOL0     C13338   3.856   5.989   0.481 -0.2355 -0.2610 -0.7738
  822MOL0     C13339   3.742   5.979   0.376  0.0781  1.0322  0.0073
  822MOL0     C13340   3.812   5.941   0.239  0.5548 -0.3160 -0.8455
  822MOL0     C13341   3.876   6.060   0.160 -0.7804 -1.8469 -0.5364
  822MOL0     C13342   3.945   6.007   0.031  0.0238 -1.0281 -0.4507
  822MOL0    Cl13343   4.071   5.888   0.069 -0.4203 -0.3539  0.1331
  822MOL0     C13344   3.902   6.152   1.161 -0.6532 -0.6742  0.5345
  822MOL0     C13345   3.903   6.086   1.287 -0.7654  0.4685  0.0379
  822MOL0     O13346   3.911   5.713   1.315 -0.0405 -0.4330 -0.1058
  822MOL0     C13347   4.022   5.789   1.654 -0.4562  0.5584  0.5564
  822MOL0     C13348   4.036   5.737   1.786  0.3611 -0.8320  0.2468
  822MOL0     N13349   3.733   5.980   2.376 -0.1952  1.2505 -0.2411
  822MOL0     N13350   3.631   5.982   2.450 -0.3502  1.1336  0.3587
  822MOL0     C13351   2.890   5.311   1.924 -0.4021  0.4038  1.0601
  822MOL0     C13352   2.819   5.277   1.812 -0.2118  0.2307  0.0995
  822MOL0     C13353   2.820   5.122   1.358 -0.8516  0.3291 -0.6168
  822MOL0     C13354   2.845   5.230   1.274  0.8340 -0.6839  0.3842
  822MOL0     C13355   2.865   5.220   1.140 -0.0195  0.1575  1.2521
  822MOL0     C13356   2.844   5.089   1.085  0.1832  0.3808 -0.3196
  822MOL0     O13357   2.877   5.066   0.954  0.0972  0.2390  0.3885
  822MOL0     C13358   2.832   5.172   0.846  0.1652 -0.0072 -0.4349
  822MOL0     C13359   2.841   5.116   0.707  0.2872 -0.1604 -0.3987
  822MOL0     C13360   2.707   5.142   0.639 -0.7121  0.5613 -0.3496
  822MOL0     C13361   2.729   5.075   0.508 -0.7843 -0.2395 -0.0918
  822MOL0     C13362   2.619   5.089   0.416 -0.8205  0.2815 -0.8179
  822MOL0     C13363   2.515   5.090   0.364 -0.2637 -0.1203 -1.1842
  822MOL0     C13364   2.803   4.987   1.165  0.2507  0.3025 -0.5774
  822MOL0     C13365   2.794   4.998   1.305 -0.2131  1.1555 -0.3379
  822MOL0     C13366   2.751   4.869   1.377 -0.4124  0.8614 -0.3028
  822MOL0     H13367   3.042   5.348   1.570 -0.5273 -0.5517  0.5825
  822MOL0     H13368   3.171   5.422   1.753 -1.4211  2.6356  0.6913
  822MOL0     H13369   3.046   5.233   2.122 -3.9451  0.8238 -1.1325
  822MOL0     H13370   2.982   5.382   2.181  1.2270  1.4042  2.1113
  822MOL0     H13371   3.137   5.306   2.335 -3.0449  1.5120  0.2070
  822MOL0     H13372   3.261   5.299   2.200  0.8001  0.5288 -1.6298
  822MOL0     H13373   3.323   5.509   2.252  0.7027 -1.8996 -2.5993
  822MOL0     H13374   3.171   5.566   2.205 -1.5750 -0.8269  0.3795
  822MOL0     H13375   3.083   5.482   2.453  0.2378 -1.3869 -0.0820
  822MOL0     H13376   3.246   5.445   2.486  1.6219 -0.3839 -0.9582
  822MOL0     H13377   3.165   5.668   2.575 -0.0240  2.3499 -0.4386
  822MOL0     H13378   3.141   5.733   2.415 -0.3407  0.1530 -0.0315
  822MOL0     H13379   3.398   5.608   2.515 -2.8290 -1.9265 -1.2361
  822MOL0     H13380   3.379   5.736   2.385 -2.8500  1.2024 -0.6635
  822MOL0     H13381   3.313   5.802   2.668  1.2245  1.1126  1.8040
  822MOL0     H13382   3.338   5.905   2.540 -2.5096 -1.8154 -2.0085
  822MOL0     H13383   3.535   5.903   2.697  0.7054 -2.2979  2.1694
  822MOL0     H13384   3.566   5.740   2.669  2.2815  1.3154  1.2973
  822MOL0     H13385   3.710   5.662   2.442  0.6064 -0.5221  2.2037
  822MOL0     H13386   3.952   5.867   2.244  0.7314 -1.9832  1.3089
  822MOL0     H13387   3.806   5.817   2.152 -1.3753 -1.5038  0.5908
  822MOL0     H13388   3.938   5.647   2.368 -0.3464 -0.8153  0.2024
  822MOL0     H13389   3.811   5.598   2.252 -0.7338  0.6318  1.0126
  822MOL0     H13390   4.102   5.675   2.171 -0.1143 -0.2863 -0.3426
  822MOL0     H13391   4.056   5.510   2.202 -0.6464  0.8523  1.3237
  822MOL0     H13392   3.871   5.505   2.040 -1.0698  0.8658 -2.0059
  822MOL0     H13393   3.891   5.667   1.999 -1.1197  0.9782  1.6543
  822MOL0     H13394   3.933   5.419   1.742 -1.3820  1.4631  2.3930
  822MOL0     H13395   3.973   5.441   1.401 -1.2870 -0.1977 -1.7858
  822MOL0     H13396   3.811   5.480   1.431  2.2832  0.5292 -4.9138
  822MOL0     H13397   3.908   5.357   1.538  2.6527  0.6574  0.6248
  822MOL0     H13398   4.095   5.829   1.186  2.1250  1.4204  1.1328
  822MOL0     H13399   4.058   5.929   0.965  1.6156 -3.8777  1.1639
  822MOL0     H13400   3.786   6.044   0.876  1.4604 -2.5655 -3.9193
  822MOL0     H13401   3.785   6.210   0.818 -3.5935 -2.3723  1.4339
  822MOL0     H13402   3.957   6.151   0.655  0.6444 -0.5853 -0.0407
  822MOL0     H13403   3.960   5.980   0.718 -1.3546 -0.8064  0.8770
  822MOL0     H13404   3.737   6.126   0.580  2.4343  1.3695 -1.9695
  822MOL0     H13405   3.722   5.962   0.656  0.4862  0.9218  1.3457
  822MOL0     H13406   3.917   5.898   0.484 -0.6289 -0.6220 -2.5942
  822MOL0     H13407   3.930   6.067   0.458 -1.6933  0.9808 -1.3883
  822MOL0     H13408   3.676   5.895   0.398 -1.8588  1.8842 -2.1611
  822MOL0     H13409   3.681   6.070   0.380  3.3973  3.4446  1.7246
  822MOL0     H13410   3.741   5.893   0.171  0.9435 -1.1759 -0.6580
  822MOL0     H13411   3.886   5.864   0.260 -1.5441 -2.5222 -1.0490
  822MOL0     H13412   3.947   6.121   0.217 -0.8825 -1.5862 -0.6849
  822MOL0     H13413   3.801   6.133   0.128 -1.9006 -2.5425  0.4155
  822MOL0     H13414   3.985   6.093  -0.024  1.5257 -0.5759  1.2371
  822MOL0     H13415   3.866   5.966  -0.031 -0.1391  2.4033 -2.7776
  822MOL0     H13416   3.857   6.251   1.156  0.7405 -0.0787 -1.3880
  822MOL0     H13417   3.861   6.132   1.376  1.2044  1.4055  0.5606
  822MOL0     H13418   4.037   5.895   1.636  0.5476  0.1334 -1.3575
  822MOL0     H13419   4.086   5.790   1.866  0.0275  1.1680 -0.7933
  822MOL0     H13420   2.838   5.302   2.019 -2.9311 -1.0606 -0.3577
  822MOL0     H13421   2.718   5.238   1.820  0.1181 -0.5983  0.4026
  822MOL0     H13422   2.867   5.325   1.321 -0.7205 -0.8185  1.4638
  822MOL0     H13423   2.889   5.299   1.069  1.9170  2.6921  4.4875
  822MOL0     H13424   2.732   5.208   0.872  0.1599  1.0372 -1.7822
  822MOL0     H13425   2.904   5.255   0.853 -0.0713  0.2729 -1.2452
  822MOL0     H13426   2.849   5.008   0.719  0.3510 -0.0352  0.8177
  822MOL0     H13427   2.925   5.148   0.644 -1.3170  1.3989 -1.8859
  822MOL0     H13428   2.628   5.099   0.701  1.9817 -1.1268  2.2363
  822MOL0     H13429   2.685   5.247   0.619 -0.6109 -0.2987 -7.5256
  822MOL0     H13430   2.759   4.973   0.530  2.9143  0.6372 -0.4122
  822MOL0     H13431   2.812   5.129   0.461 -2.8823  4.2072  0.6960
  822MOL0     H13432   2.418   5.083   0.320  0.7015  0.8378 -3.6566
  822MOL0     H13433   2.807   4.896   1.105  2.8433  1.1075 -1.7798
  822MOL0     H13434   2.836   4.799   1.380 -3.0018 -2.5776 -0.6705
  822MOL0     H13435   2.717   4.885   1.480 -1.1861 -0.1776 -0.3723
  822MOL0     H13436   2.678   4.806   1.325 -3.1923  1.8094  2.1634
  823MOL0     O13437   5.309  11.094   3.129  0.1386  0.5282  0.5382
  823MOL0     C13438   5.377  10.998   3.174 -0.3150 -0.5947 -0.3264
  823MOL0     O13439   5.454  11.003   3.288  0.2884 -0.0256  0.2477
  823MOL0     C13440   5.459  11.117   3.356 -0.3492 -0.2441 -0.3684
  823MOL0     C13441   5.427  11.114   3.492 -0.4671 -0.8743  0.4111
  823MOL0     C13442   5.442  11.226   3.570 -0.6620  0.2970 -0.0025
  823MOL0     C13443   5.494  11.348   3.513 -0.0220 -0.3776  0.4121
  823MOL0     O13444   5.504  11.460   3.606  0.2947 -0.0919  0.0412
  823MOL0     C13445   5.618  11.547   3.571 -0.3637  0.0823 -0.5284
  823MOL0     C13446   5.618  11.657   3.680 -0.7231  0.2609 -0.0319
  823MOL0     C13447   5.748  11.745   3.680  0.3580 -0.6084 -0.2499
  823MOL0     C13448   5.730  11.860   3.774  0.0462 -0.3016 -0.0293
  823MOL0     C13449   5.857  11.936   3.790  0.2848  1.0709 -0.5192
  823MOL0     C13450   5.836  12.018   3.921 -1.3068  1.3502  0.3915
  823MOL0     C13451   5.967  12.071   3.971 -0.6763  0.7407  0.1508
  823MOL0     C13452   5.931  12.166   4.086  0.2436  0.3247 -0.0198
  823MOL0     N13453   6.052  12.250   4.110 -0.8872 -0.0995  0.3219
  823MOL0     C13454   6.182  12.203   4.125  0.7114  0.0477  1.4517
  823MOL0     C13455   6.255  12.315   4.102  0.3503  0.2380 -0.9142
  823MOL0     C13456   6.404  12.302   4.123 -1.2702  0.2202 -0.1916
  823MOL0     C13457   6.460  12.425   4.206  0.0393  0.6303 -0.4632
  823MOL0     C13458   6.452  12.569   4.149 -0.0332 -0.0000  0.8365
  823MOL0     C13459   6.489  12.587   4.003  0.5934  0.6229 -0.8191
  823MOL0     O13460   6.629  12.595   4.000 -0.1023 -0.8758  1.0503
  823MOL0     C13461   6.692  12.562   3.882  0.0613 -0.1895 -0.1694
  823MOL0     C13462   6.825  12.509   3.883  0.9180 -1.2183 -0.2268
  823MOL0     C13463   6.883  12.459   3.768 -0.3890  0.5615 -0.4867
  823MOL0     C13464   7.028  12.405   3.776  0.3864 -0.9257 -0.0917
  823MOL0     C13465   6.818  12.453   3.640  0.0227 -0.1811 -0.5908
  823MOL0     C13466   6.879  12.386   3.523  0.1886 -0.4301  0.1981
  823MOL0     O13467   6.868  12.441   3.398 -0.1485  0.3354 -0.1656
  823MOL0     C13468   6.901  12.382   3.277  0.5374  0.0579 -0.2520
  823MOL0     C13469   6.930  12.473   3.175  0.7514  0.3099 -0.0258
  823MOL0     C13470   6.994  12.427   3.049 -0.0088 -0.4167 -0.2037
  823MOL0     C13471   7.006  12.286   3.038 -0.0414  0.3014  0.4038
  823MOL0     O13472   7.062  12.226   2.925 -0.0850  0.5516  0.0370
  823MOL0     C13473   7.105  12.307   2.817  0.2981  0.3024  0.0848
  823MOL0     C13474   7.143  12.221   2.691  1.0353 -0.1071  0.3754
  823MOL0     C13475   7.211  12.286   2.574  0.3480  0.0180  0.8299
  823MOL0     C13476   7.118  12.347   2.467 -0.2535 -1.0665  0.3229
  823MOL0     C13477   7.182  12.434   2.352  0.1063  0.6480  0.3372
  823MOL0     C13478   7.151  12.592   2.362 -0.1443 -0.1074  0.7623
  823MOL0     C13479   7.249  12.633   2.463  0.4462 -0.5050 -0.3469
  823MOL0     C13480   7.201  12.737   2.564 -0.4477  0.1986 -0.4371
  823MOL0    Cl13481   7.070  12.660   2.664 -0.1446  0.2897 -0.4934
  823MOL0     C13482   6.965  12.192   3.139 -0.1387  0.1050 -0.0890
  823MOL0     C13483   6.911  12.244   3.256 -0.5880  0.6832  0.2910
  823MOL0     O13484   6.924  12.273   3.543  0.0740 -0.4363  0.0689
  823MOL0     C13485   6.696  12.520   3.636 -0.2065 -0.0291 -0.5883
  823MOL0     C13486   6.630  12.560   3.756 -0.1447  0.5426  1.1033
  823MOL0     N13487   6.179  12.428   4.073 -0.1522 -0.2863  0.4483
  823MOL0     N13488   6.058  12.390   4.073  0.0319  1.2991  0.3700
  823MOL0     C13489   5.501  11.354   3.377  0.4016 -0.3779 -0.2476
  823MOL0     C13490   5.490  11.240   3.300 -0.0181  0.7570  0.1234
  823MOL0     C13491   5.385  10.874   3.090 -0.2404  0.2049 -0.2584
  823MOL0     C13492   5.499  10.790   3.116 -0.3337  0.1570  0.1235
  823MOL0     C13493   5.526  10.672   3.048  0.6825 -0.3327  0.1011
  823MOL0     C13494   5.421  10.623   2.964 -0.1909  0.9247  0.4064
  823MOL0     O13495   5.455  10.508   2.898  0.3915 -0.3841  0.3596
  823MOL0     C13496   5.416  10.494   2.767 -0.0056  0.6150 -0.4570
  823MOL0     C13497   5.351  10.360   2.734 -0.6659  0.6534  0.0572
  823MOL0     C13498   5.427  10.238   2.785 -0.4211  0.0795 -0.5681
  823MOL0     C13499   5.571  10.205   2.716  0.6881  0.1959  0.8001
  823MOL0     C13500   5.536  10.141   2.589  0.0514 -0.8625  0.4923
  823MOL0     C13501   5.511  10.097   2.479  0.3113 -0.8880  0.3862
  823MOL0     C13502   5.302  10.700   2.949 -0.2980  0.8738 -0.1852
  823MOL0     C13503   5.288  10.827   3.005  0.6842 -0.2350 -1.4585
  823MOL0     C13504   5.151  10.886   2.979  0.2588 -0.3749  0.3757
  823MOL0     H13505   5.410  11.021   3.545  1.0716  0.5276  3.6272
  823MOL0     H13506   5.430  11.223   3.678 -0.0054  1.0878  0.1033
  823MOL0     H13507   5.604  11.586   3.470 -1.7491 -0.2498 -0.4747
  823MOL0     H13508   5.718  11.503   3.571 -0.2336  0.3328  0.6972
  823MOL0     H13509   5.530  11.720   3.663 -1.6919 -1.4607 -1.6893
  823MOL0     H13510   5.608  11.613   3.780  0.0738  1.9125  0.8220
  823MOL0     H13511   5.827  11.678   3.716 -2.5018 -2.2617  3.6815
  823MOL0     H13512   5.760  11.784   3.579 -1.1613 -3.2914 -1.5533
  823MOL0     H13513   5.647  11.926   3.747 -1.1662 -0.5107  2.8390
  823MOL0     H13514   5.705  11.823   3.874 -0.2254  1.7787  0.7263
  823MOL0     H13515   5.870  11.996   3.700 -1.5197 -1.4206 -2.5958
  823MOL0     H13516   5.943  11.869   3.791 -1.5870 -1.6985 -3.8620
  823MOL0     H13517   5.774  12.103   3.892 -0.0312  3.4674  3.3749
  823MOL0     H13518   5.787  11.963   4.002 -1.4654 -0.8790 -1.1199
  823MOL0     H13519   6.013  12.124   3.887 -2.0395  0.9229 -0.5127
  823MOL0     H13520   6.029  11.988   4.006  1.0715  2.9465  2.6763
  823MOL0     H13521   5.858  12.240   4.051  1.4491  1.7758  0.4033
  823MOL0     H13522   5.900  12.109   4.173  0.6015 -1.5374 -1.0564
  823MOL0     H13523   6.219  12.102   4.140  2.1296  0.0755 -1.1844
  823MOL0     H13524   6.459  12.293   4.029  1.3401  1.4475  1.1248
  823MOL0     H13525   6.424  12.212   4.183  0.3875 -1.0865 -2.5480
  823MOL0     H13526   6.423  12.430   4.309  0.3768  2.7940 -0.3989
  823MOL0     H13527   6.568  12.421   4.220  0.0098  2.0240  0.3546
  823MOL0     H13528   6.349  12.605   4.154  0.8228  2.9909 -0.8311
  823MOL0     H13529   6.516  12.640   4.203  1.7577  0.7329 -2.0170
  823MOL0     H13530   6.466  12.494   3.950  0.7449  0.5062 -0.6819
  823MOL0     H13531   6.429  12.666   3.958 -0.7074  1.8963  2.7706
  823MOL0     H13532   6.883  12.507   3.974 -0.4528  0.0071  0.7285
  823MOL0     H13533   7.087  12.440   3.861 -1.0561  1.2359  0.0924
  823MOL0     H13534   7.073  12.446   3.686 -0.1842 -0.7696 -0.3082
  823MOL0     H13535   7.034  12.296   3.778  2.6864 -0.8481  1.7782
  823MOL0     H13536   6.904  12.578   3.182 -2.2060 -0.4678  4.0289
  823MOL0     H13537   7.034  12.498   2.977  2.5310 -0.6478  0.8835
  823MOL0     H13538   7.016  12.365   2.789 -1.3204 -0.9870  2.2026
  823MOL0     H13539   7.192  12.370   2.834  0.6013 -0.3658  1.1133
  823MOL0     H13540   7.221  12.154   2.730  2.8992  2.1891  0.8303
  823MOL0     H13541   7.049  12.176   2.657  1.1143  0.3418 -0.4553
  823MOL0     H13542   7.266  12.208   2.521 -0.8087 -1.0910  1.2256
  823MOL0     H13543   7.290  12.350   2.616 -0.7035  1.8025  0.2043
  823MOL0     H13544   7.052  12.414   2.522 -1.2076  0.5956 -2.5979
  823MOL0     H13545   7.048  12.268   2.436  0.2685 -1.7370  0.8215
  823MOL0     H13546   7.288  12.413   2.338 -0.3900 -0.7015 -1.7320
  823MOL0     H13547   7.134  12.398   2.261 -3.9156  1.5884  1.8632
  823MOL0     H13548   7.048  12.613   2.393 -0.9806 -2.6796 -0.0074
  823MOL0     H13549   7.167  12.635   2.263 -0.5358  0.1892  0.8239
  823MOL0     H13550   7.326  12.681   2.401 -0.5776 -0.4820 -1.6465
  823MOL0     H13551   7.296  12.551   2.520 -1.1170 -1.0399  0.2215
  823MOL0     H13552   7.180  12.829   2.510  0.1690  0.3933 -0.3478
  823MOL0     H13553   7.285  12.767   2.628 -1.8831 -1.0383  2.2435
  823MOL0     H13554   6.989  12.087   3.130  2.5413  0.4717  1.5968
  823MOL0     H13555   6.903  12.165   3.331 -1.0629 -1.3109 -1.7536
  823MOL0     H13556   6.648  12.525   3.539 -1.4824  0.3275  0.0409
  823MOL0     H13557   6.536  12.613   3.739  0.8304  1.5450 -1.8442
  823MOL0     H13558   5.512  11.454   3.337 -1.1773 -0.7610 -1.7079
  823MOL0     H13559   5.508  11.251   3.194 -5.8766  0.1392 -1.3118
  823MOL0     H13560   5.577  10.826   3.181  1.8186 -3.0261 -0.4491
  823MOL0     H13561   5.621  10.621   3.042  0.1405 -1.2551 -1.2893
  823MOL0     H13562   5.356  10.575   2.725  1.0690 -0.3319 -4.2233
  823MOL0     H13563   5.505  10.493   2.704 -2.1239  0.6189 -3.7345
  823MOL0     H13564   5.342  10.355   2.625 -0.8015 -0.9906  0.1232
  823MOL0     H13565   5.249  10.367   2.773 -1.2741  0.4243 -1.4091
  823MOL0     H13566   5.445  10.236   2.893 -3.1069 -3.0231 -0.0103
  823MOL0     H13567   5.364  10.153   2.758 -0.3413 -0.3652  0.5892
  823MOL0     H13568   5.629  10.131   2.773  0.1637 -0.9570 -0.1284
  823MOL0     H13569   5.628  10.299   2.709  2.7411 -1.0219  0.2673
  823MOL0     H13570   5.496  10.037   2.393  2.1768  1.0404 -1.4199
  823MOL0     H13571   5.233  10.644   2.887  1.8085 -1.9142 -0.1609
  823MOL0     H13572   5.086  10.872   3.066 -0.9633 -2.4684 -0.7901
  823MOL0     H13573   5.171  10.990   2.954 -1.6545  0.1471  0.8790
  823MOL0     H13574   5.100  10.831   2.899  2.9445 -0.7063 -1.2391
  824MOL0     O13575   0.272   1.652   0.794  0.1141 -0.6216 -0.0671
  824MOL0     C13576   0.369   1.707   0.737 -0.4256  0.1606 -0.4660
  824MOL0     O13577   0.413   1.839   0.759 -0.8307 -0.6900 -0.3746
  824MOL0     C13578   0.400   1.891   0.884 -0.1295  0.4850  0.8129
  824MOL0     C13579   0.507   1.951   0.946  0.8538  1.0533 -0.6194
  824MOL0     C13580   0.502   2.013   1.074 -0.6234  0.9106  0.7843
  824MOL0     C13581   0.386   2.007   1.148  0.7606  0.2804  0.6221
  824MOL0     O13582   0.361   2.042   1.279  0.7109 -0.1385 -0.3595
  824MOL0     C13583   0.435   2.158   1.328  0.6545  0.6339 -0.6529
  824MOL0     C13584   0.365   2.222   1.449 -0.5978  0.1024  1.1183
  824MOL0     C13585   0.216   2.228   1.422 -0.0750 -0.2876  0.4385
  824MOL0     C13586   0.155   2.325   1.520 -0.7171  0.1459 -0.6190
  824MOL0     C13587   0.015   2.285   1.574  0.7632 -0.1156 -0.1409
  824MOL0     C13588  -0.014   2.350   1.711  0.4502  0.2474 -0.4181
  824MOL0     C13589  -0.147   2.301   1.775 -0.6814 -0.4230  0.5768
  824MOL0     C13590  -0.265   2.352   1.697 -0.4654  0.0094  0.2482
  824MOL0     N13591  -0.287   2.490   1.722  0.5704  0.1149 -0.5634
  824MOL0     C13592  -0.285   2.585   1.627 -0.2050  0.4379  0.2929
  824MOL0     C13593  -0.302   2.694   1.704  0.4306 -0.3287 -0.2485
  824MOL0     C13594  -0.302   2.838   1.657  0.2214  0.0569 -0.9079
  824MOL0     C13595  -0.451   2.863   1.620 -0.6255 -0.4443  0.8087
  824MOL0     C13596  -0.490   3.010   1.642  0.5672 -0.6873 -0.5555
  824MOL0     C13597  -0.511   3.041   1.791  0.3869 -0.4385  0.2830
  824MOL0     O13598  -0.499   3.181   1.826  0.5139 -0.6227  0.5197
  824MOL0     C13599  -0.594   3.279   1.786  0.2433  1.0797  0.0158
  824MOL0     C13600  -0.554   3.410   1.787 -0.5299  0.0487 -0.1418
  824MOL0     C13601  -0.633   3.516   1.746  0.3930  0.4324 -0.0417
  824MOL0     C13602  -0.560   3.645   1.733  0.7498  0.0164  0.7631
  824MOL0     C13603  -0.762   3.483   1.693  0.6487 -0.6005  0.0495
  824MOL0     C13604  -0.854   3.590   1.626  0.7194  0.6190 -0.5091
  824MOL0     O13605  -0.985   3.570   1.632  0.2215  0.1746  0.0499
  824MOL0     C13606  -1.059   3.648   1.548 -0.2971  0.0437 -0.1068
  824MOL0     C13607  -1.073   3.617   1.418  0.2514 -0.8308  0.1023
  824MOL0     C13608  -1.141   3.704   1.322 -0.4318  0.8212 -0.8476
  824MOL0     C13609  -1.226   3.810   1.365 -0.5102  0.7793 -0.0492
  824MOL0     O13610  -1.315   3.879   1.294  0.6146  0.2271 -0.0206
  824MOL0     C13611  -1.389   3.815   1.186  0.6116  0.9595 -0.0289
  824MOL0     C13612  -1.522   3.885   1.150 -0.6338 -0.3655 -0.2668
  824MOL0     C13613  -1.586   3.833   1.023 -0.0211 -0.1331 -0.1553
  824MOL0     C13614  -1.513   3.863   0.889 -0.1684  0.1501 -0.4195
  824MOL0     C13615  -1.536   3.752   0.795  0.6012  0.7691 -0.4653
  824MOL0     C13616  -1.481   3.782   0.654  0.8622 -0.1399  0.2913
  824MOL0     C13617  -1.520   3.686   0.551 -0.1894  0.1934  0.0403
  824MOL0     C13618  -1.449   3.735   0.419 -0.5130 -0.8162  0.2340
  824MOL0    Cl13619  -1.487   3.628   0.290  0.3631 -0.8390 -0.5496
  824MOL0     C13620  -1.217   3.829   1.505 -0.2738  0.1978  0.6541
  824MOL0     C13621  -1.133   3.758   1.591  0.2709  0.8796 -0.4141
  824MOL0     O13622  -0.797   3.681   1.566 -0.7143 -0.1932  0.7984
  824MOL0     C13623  -0.808   3.348   1.702 -0.2452 -0.1998  0.2082
  824MOL0     C13624  -0.723   3.246   1.743  0.3500  0.0615 -0.5281
  824MOL0     N13625  -0.315   2.665   1.839  0.0059  0.2244  0.1721
  824MOL0     N13626  -0.308   2.540   1.851 -0.0395  0.3627 -0.0372
  824MOL0     C13627   0.275   1.952   1.076 -0.3779  0.0334 -1.2205
  824MOL0     C13628   0.276   1.902   0.948 -0.2825 -0.5368  0.7352
  824MOL0     C13629   0.432   1.633   0.624  0.1620  0.5492 -0.9091
  824MOL0     C13630   0.514   1.691   0.529  1.1320 -0.9129  0.0694
  824MOL0     C13631   0.593   1.628   0.438  0.3500  0.2344 -1.0059
  824MOL0     C13632   0.598   1.484   0.448 -0.2370 -1.1590  0.4460
  824MOL0     O13633   0.675   1.424   0.360 -0.1881  0.4402 -0.1287
  824MOL0     C13634   0.662   1.279   0.336 -0.4497  0.5631  0.4515
  824MOL0     C13635   0.771   1.221   0.243 -0.7560  0.3298  0.6282
  824MOL0     C13636   0.768   1.296   0.100 -0.0183 -0.1317 -0.9726
  824MOL0     C13637   0.830   1.210  -0.008 -0.4230  0.9964 -0.1986
  824MOL0     C13638   0.874   1.280  -0.129 -0.8439 -0.6105 -0.6353
  824MOL0     C13639   0.918   1.333  -0.226  0.6373 -0.6926  0.6926
  824MOL0     C13640   0.527   1.420   0.546 -0.1495 -0.2063 -0.0481
  824MOL0     C13641   0.439   1.488   0.631  0.0333 -0.1360 -0.1914
  824MOL0     C13642   0.384   1.407   0.740  0.2771  0.4171 -0.3610
  824MOL0     H13643   0.596   1.943   0.885  0.0872  0.9451 -1.7532
  824MOL0     H13644   0.593   2.052   1.118  1.5263  2.6951 -4.5205
  824MOL0     H13645   0.446   2.230   1.247  0.8071 -0.2941 -1.4712
  824MOL0     H13646   0.535   2.131   1.363  0.3728  0.8967  0.3856
  824MOL0     H13647   0.394   2.169   1.540 -0.2042  0.6821  1.3391
  824MOL0     H13648   0.415   2.318   1.467 -1.0354  1.2620 -2.8833
  824MOL0     H13649   0.203   2.271   1.322  2.5107  0.1458  0.2363
  824MOL0     H13650   0.168   2.129   1.425 -1.5354  0.3899  0.4717
  824MOL0     H13651   0.222   2.333   1.606 -1.1636 -0.1759 -0.2429
  824MOL0     H13652   0.141   2.424   1.476 -0.1231  0.8831  0.7777
  824MOL0     H13653  -0.004   2.178   1.583 -2.9705  0.4384  0.5989
  824MOL0     H13654  -0.051   2.322   1.494  0.7683  0.0656 -0.0629
  824MOL0     H13655   0.063   2.332   1.787  3.3496  5.1599 -1.7080
  824MOL0     H13656  -0.020   2.459   1.704 -0.2827  0.4048  1.9334
  824MOL0     H13657  -0.157   2.318   1.882 -2.3877  3.2009 -0.0265
  824MOL0     H13658  -0.133   2.193   1.762 -0.9825 -0.1250 -3.6096
  824MOL0     H13659  -0.262   2.335   1.589  2.7134  1.0762  0.0885
  824MOL0     H13660  -0.349   2.298   1.741 -1.3555 -0.1381 -1.5244
  824MOL0     H13661  -0.273   2.602   1.520  0.8875  2.5114  0.6895
  824MOL0     H13662  -0.234   2.838   1.572  1.9802  2.1351  0.3856
  824MOL0     H13663  -0.265   2.904   1.736  1.6179  0.0816 -1.5624
  824MOL0     H13664  -0.449   2.838   1.514  1.6611 -2.1676  1.1784
  824MOL0     H13665  -0.513   2.786   1.667  1.3764 -2.3807  0.4304
  824MOL0     H13666  -0.417   3.083   1.605 -0.9186 -0.2942 -2.9909
  824MOL0     H13667  -0.583   3.031   1.589  0.0147 -1.9302 -0.1168
  824MOL0     H13668  -0.601   2.982   1.813  0.6506 -1.0362 -0.2048
  824MOL0     H13669  -0.436   3.000   1.859  1.4180 -0.5559 -0.8897
  824MOL0     H13670  -0.452   3.415   1.824 -0.7907  1.8229  0.4112
  824MOL0     H13671  -0.624   3.727   1.770  0.7140  1.0582 -1.4593
  824MOL0     H13672  -0.534   3.659   1.628 -3.0651 -0.9847 -0.4738
  824MOL0     H13673  -0.475   3.659   1.801  1.5445  0.2919 -0.2681
  824MOL0     H13674  -1.014   3.529   1.394 -1.2988 -2.0432  0.5573
  824MOL0     H13675  -1.139   3.672   1.218 -2.7782  0.3029 -0.7969
  824MOL0     H13676  -1.325   3.831   1.099  2.5984 -1.7886  0.7867
  824MOL0     H13677  -1.398   3.709   1.211 -0.7187  0.8797 -0.7994
  824MOL0     H13678  -1.587   3.877   1.238 -0.2038 -1.9969 -0.0652
  824MOL0     H13679  -1.499   3.992   1.145 -0.8820 -0.2544  0.6708
  824MOL0     H13680  -1.684   3.883   1.025 -0.1253 -0.2169 -1.6652
  824MOL0     H13681  -1.610   3.727   1.039  0.1479 -0.0090  0.9488
  824MOL0     H13682  -1.405   3.869   0.910  0.8652 -3.2658 -3.6182
  824MOL0     H13683  -1.558   3.952   0.845  2.4250  1.8421  0.1225
  824MOL0     H13684  -1.498   3.656   0.831 -0.8456  1.2070  2.5383
  824MOL0     H13685  -1.645   3.744   0.790  0.6314  0.2725 -0.3958
  824MOL0     H13686  -1.372   3.788   0.664  0.7529  2.6376  0.6095
  824MOL0     H13687  -1.516   3.878   0.616  1.6042 -0.8234 -2.3596
  824MOL0     H13688  -1.628   3.684   0.536  0.1775 -0.3074 -3.3875
  824MOL0     H13689  -1.489   3.582   0.566 -3.3481 -0.7210  1.0006
  824MOL0     H13690  -1.341   3.728   0.432  0.3134 -1.4484 -4.9597
  824MOL0     H13691  -1.479   3.836   0.388 -0.2118 -0.8116 -0.0533
  824MOL0     H13692  -1.278   3.910   1.544 -1.8395 -0.1606 -0.9197
  824MOL0     H13693  -1.119   3.805   1.687  0.2194 -2.8525  1.5948
  824MOL0     H13694  -0.910   3.316   1.682 -0.8932  1.7815  0.1837
  824MOL0     H13695  -0.768   3.148   1.731 -1.0972  0.1666  2.8952
  824MOL0     H13696   0.183   1.959   1.133 -0.4450  0.5965 -1.3979
  824MOL0     H13697   0.187   1.870   0.894  0.0063  0.0644 -0.1227
  824MOL0     H13698   0.512   1.799   0.525  0.2901 -0.8876  0.8482
  824MOL0     H13699   0.649   1.683   0.363  2.2039 -0.4220 -0.1583
  824MOL0     H13700   0.680   1.230   0.431 -2.2076 -1.0000  0.0381
  824MOL0     H13701   0.560   1.263   0.299 -0.3079  0.7182 -0.0206
  824MOL0     H13702   0.743   1.116   0.230 -0.6018  0.1096  1.8967
  824MOL0     H13703   0.869   1.234   0.290 -1.3297  3.5059  1.1185
  824MOL0     H13704   0.665   1.324   0.079 -0.4194  0.1740  1.1774
  824MOL0     H13705   0.820   1.392   0.112  2.2808 -1.3939 -0.0888
  824MOL0     H13706   0.769   1.129  -0.049 -1.1035  1.8655 -0.9313
  824MOL0     H13707   0.911   1.159   0.044 -0.1190 -0.1064 -1.7100
  824MOL0     H13708   0.937   1.388  -0.317  2.6254 -1.7001  0.4504
  824MOL0     H13709   0.535   1.316   0.574 -0.5059 -0.4947 -0.9694
  824MOL0     H13710   0.455   1.414   0.823 -0.0553  1.9339 -0.1725
  824MOL0     H13711   0.285   1.433   0.777 -0.1729 -2.0945  0.3634
  824MOL0     H13712   0.377   1.302   0.711  0.3580 -0.7294  3.2709
  825MOL0     O13713   7.611   6.087   4.193 -0.0654 -0.4766  0.3885
  825MOL0     C13714   7.630   6.203   4.224 -0.5933 -0.8914  0.4072
  825MOL0     O13715   7.704   6.294   4.150  0.2176  0.1384 -0.7863
  825MOL0     C13716   7.768   6.256   4.035  0.5797  0.6173  0.8512
  825MOL0     C13717   7.895   6.192   4.042 -0.3735  0.4716 -0.7019
  825MOL0     C13718   7.962   6.160   3.921  0.1149 -0.4702 -0.0784
  825MOL0     C13719   7.912   6.192   3.795  0.6600  0.5558  0.8734
  825MOL0     O13720   7.975   6.135   3.683  1.0494  0.9014 -0.0426
  825MOL0     C13721   7.936   6.168   3.544  0.1283 -0.0040  0.7889
  825MOL0     C13722   8.042   6.111   3.440  0.0982  0.1896  0.1210
  825MOL0     C13723   8.014   6.155   3.294  0.0212 -0.0287 -0.7701
  825MOL0     C13724   8.073   6.290   3.248 -1.0182 -0.9089 -0.3378
  825MOL0     C13725   8.031   6.328   3.110 -0.5650 -0.5789 -0.2272
  825MOL0     C13726   8.081   6.464   3.044 -0.1118  0.0844  0.7969
  825MOL0     C13727   8.063   6.460   2.890 -0.1723  1.7087 -0.1895
  825MOL0     C13728   8.120   6.579   2.808 -0.2017  0.2497  0.6447
  825MOL0     N13729   8.024   6.690   2.833  0.2720  0.0883  0.4577
  825MOL0     C13730   8.032   6.777   2.938 -0.9089 -0.3270 -0.2978
  825MOL0     C13731   7.909   6.834   2.953 -0.5758 -0.7813 -0.0095
  825MOL0     C13732   7.885   6.924   3.063  0.2186  0.3612  0.1695
  825MOL0     C13733   7.889   6.833   3.191 -0.0771 -0.5420  0.6740
  825MOL0     C13734   7.890   6.926   3.314  0.4232 -0.7602 -0.4906
  825MOL0     C13735   7.776   7.016   3.340 -1.3576  0.5193 -0.5117
  825MOL0     O13736   7.656   6.939   3.344  0.5493 -0.1136  0.1008
  825MOL0     C13737   7.577   6.972   3.452  0.3871 -0.1700  0.1529
  825MOL0     C13738   7.533   7.097   3.475 -0.1374  0.0251 -0.6757
  825MOL0     C13739   7.462   7.143   3.595  0.5225  0.7693  0.1904
  825MOL0     C13740   7.449   7.283   3.628  0.5159 -0.7009  0.0877
  825MOL0     C13741   7.413   7.034   3.680 -0.3101  0.2471  0.3826
  825MOL0     C13742   7.334   7.055   3.799  0.2538  0.4017  0.2227
  825MOL0     O13743   7.246   7.164   3.787 -0.9190  0.0993 -0.2097
  825MOL0     C13744   7.164   7.196   3.896  0.3601  0.2694 -0.1555
  825MOL0     C13745   7.198   7.192   4.035  0.1404 -0.5499  0.1229
  825MOL0     C13746   7.102   7.232   4.132  0.1068  0.0509  1.0591
  825MOL0     C13747   6.968   7.260   4.091 -0.1521  0.1577  0.5403
  825MOL0     O13748   6.860   7.250   4.176  0.1690 -0.9630  0.6655
  825MOL0     C13749   6.884   7.194   4.302  0.6530 -0.3572 -0.1475
  825MOL0     C13750   6.751   7.141   4.367 -0.0110 -0.9676 -0.2185
  825MOL0     C13751   6.693   7.252   4.453 -0.4610  0.5430 -0.0680
  825MOL0     C13752   6.560   7.212   4.519  0.3429 -0.4748 -0.0630
  825MOL0     C13753   6.503   7.328   4.594 -0.2005 -0.2424 -0.4783
  825MOL0     C13754   6.354   7.317   4.642  0.2682 -0.5694  0.1894
  825MOL0     C13755   6.308   7.425   4.748 -1.2029 -0.2549 -0.1376
  825MOL0     C13756   6.329   7.572   4.711 -0.2787 -1.1719  1.0058
  825MOL0    Cl13757   6.238   7.609   4.557 -0.0003 -0.8174 -0.1050
  825MOL0     C13758   6.944   7.277   3.958  0.1312 -0.5159 -0.3115
  825MOL0     C13759   7.037   7.245   3.861  0.7234  0.5064  0.1473
  825MOL0     O13760   7.338   6.982   3.899 -0.7906  0.2130  0.4034
  825MOL0     C13761   7.450   6.901   3.650 -0.1393  0.5081 -0.5523
  825MOL0     C13762   7.517   6.867   3.533 -0.0521  0.2017 -0.3238
  825MOL0     N13763   7.827   6.776   2.858  0.3101 -0.7115  0.4543
  825MOL0     N13764   7.895   6.700   2.781 -0.3534  0.1013  0.5815
  825MOL0     C13765   7.789   6.254   3.790  0.8636  0.2638  0.0171
  825MOL0     C13766   7.725   6.296   3.903  0.2524  0.5803 -0.0115
  825MOL0     C13767   7.603   6.252   4.361  0.6774 -1.3801  0.3118
  825MOL0     C13768   7.673   6.358   4.418 -0.9962 -0.9428 -0.6213
  825MOL0     C13769   7.643   6.417   4.542 -1.2301 -0.7300  0.7644
  825MOL0     C13770   7.533   6.362   4.617 -0.3407  0.2579  0.8172
  825MOL0     O13771   7.505   6.402   4.750 -0.5398  0.2453 -0.0582
  825MOL0     C13772   7.621   6.454   4.827 -0.8700  0.4174  0.4355
  825MOL0     C13773   7.606   6.436   4.983  0.5128  0.6996  0.6657
  825MOL0     C13774   7.586   6.291   5.038 -0.5807  0.1015  0.4857
  825MOL0     C13775   7.460   6.229   4.983 -0.7876  0.4487  0.2614
  825MOL0     C13776   7.422   6.119   5.077  0.0567 -0.1408  0.0877
  825MOL0     C13777   7.396   6.049   5.167  0.0926  0.9719 -0.4814
  825MOL0     C13778   7.450   6.269   4.554 -0.3770 -0.0176 -0.3115
  825MOL0     C13779   7.487   6.203   4.437  0.5684 -0.2895  0.3421
  825MOL0     C13780   7.395   6.094   4.388  0.5684 -0.6320  0.3044
  825MOL0     H13781   7.943   6.180   4.138  1.9238 -1.1050 -1.9442
  825MOL0     H13782   8.048   6.094   3.918 -0.5885 -1.8003  3.3343
  825MOL0     H13783   7.923   6.276   3.538  1.1646  0.0475 -2.4668
  825MOL0     H13784   7.837   6.128   3.520  0.4222  0.6647 -1.8461
  825MOL0     H13785   8.145   6.129   3.472  0.7509 -2.7655 -0.0703
  825MOL0     H13786   8.033   6.002   3.449  4.9892 -0.3952  0.9592
  825MOL0     H13787   8.044   6.071   3.230 -0.9314  0.9727 -2.6118
  825MOL0     H13788   7.906   6.159   3.283 -0.3631 -1.8054  1.5087
  825MOL0     H13789   8.037   6.361   3.323 -1.1204  1.2489 -2.3101
  825MOL0     H13790   8.182   6.291   3.255 -0.9534 -0.5881 -1.2544
  825MOL0     H13791   7.923   6.334   3.100 -0.4200  4.8785 -1.6222
  825MOL0     H13792   8.065   6.243   3.051 -4.3857 -2.3036 -0.2289
  825MOL0     H13793   8.026   6.548   3.087  1.2982  1.8533 -0.6634
  825MOL0     H13794   8.190   6.474   3.057  0.6900  0.3615 -4.2486
  825MOL0     H13795   7.955   6.445   2.875 -0.1265 -2.6653  2.1593
  825MOL0     H13796   8.111   6.375   2.841 -2.7970  1.3399 -2.3502
  825MOL0     H13797   8.213   6.602   2.861 -1.0328 -0.1351  2.3239
  825MOL0     H13798   8.127   6.561   2.701 -2.6662 -0.8041  0.6083
  825MOL0     H13799   8.123   6.789   2.996  0.5447  1.7903 -2.8154
  825MOL0     H13800   7.793   6.981   3.052  0.5447  1.1179  1.1998
  825MOL0     H13801   7.965   6.999   3.061 -0.2901  0.9494 -2.5637
  825MOL0     H13802   7.794   6.779   3.191 -1.4485  1.6986 -0.5111
  825MOL0     H13803   7.981   6.774   3.193  0.7702  0.5697 -1.3820
  825MOL0     H13804   7.903   6.866   3.404  2.4876  0.2745 -0.0593
  825MOL0     H13805   7.982   6.984   3.323 -0.0677 -0.3037  2.8804
  825MOL0     H13806   7.791   7.056   3.441 -1.0170 -2.5123  0.7413
  825MOL0     H13807   7.768   7.102   3.272 -0.4397  0.5555 -0.5866
  825MOL0     H13808   7.571   7.178   3.414  3.1835 -2.3388 -2.1337
  825MOL0     H13809   7.447   7.305   3.735  0.9873  2.5720 -0.4467
  825MOL0     H13810   7.358   7.331   3.589  1.6807  1.4342 -0.1922
  825MOL0     H13811   7.534   7.337   3.584  0.4527 -0.5435  0.1578
  825MOL0     H13812   7.295   7.153   4.064  0.0889  1.5776  3.9068
  825MOL0     H13813   7.125   7.228   4.238  1.3674  0.8328  0.8381
  825MOL0     H13814   6.955   7.111   4.292  1.4118  0.3397 -0.6374
  825MOL0     H13815   6.926   7.262   4.376 -2.3515 -0.8261  2.1797
  825MOL0     H13816   6.686   7.128   4.280  0.4624 -0.6704 -0.6231
  825MOL0     H13817   6.758   7.043   4.415 -4.0822 -0.7052  1.3152
  825MOL0     H13818   6.696   7.337   4.384  1.0281  1.1694  0.7176
  825MOL0     H13819   6.760   7.280   4.535 -0.5464  0.2589  0.0978
  825MOL0     H13820   6.561   7.123   4.583 -1.6051 -0.9279 -0.5797
  825MOL0     H13821   6.493   7.192   4.434 -2.2954  1.4376  1.4030
  825MOL0     H13822   6.565   7.354   4.680  1.9980  0.4261 -2.1673
  825MOL0     H13823   6.511   7.416   4.529 -2.3150  0.5586  0.2571
  825MOL0     H13824   6.325   7.215   4.668 -3.3700  0.5612  1.1709
  825MOL0     H13825   6.284   7.339   4.561 -0.1531 -1.6769  0.2414
  825MOL0     H13826   6.370   7.402   4.835 -1.6338 -0.9619 -0.0120
  825MOL0     H13827   6.208   7.407   4.788 -0.1798 -1.6444  2.0137
  825MOL0     H13828   6.437   7.586   4.701 -0.4462 -1.7773 -3.6591
  825MOL0     H13829   6.292   7.649   4.780 -1.6970  0.2206 -1.1897
  825MOL0     H13830   6.840   7.300   3.935  0.6555  2.9811  0.2451
  825MOL0     H13831   7.012   7.244   3.756  2.3327 -0.2537 -0.2596
  825MOL0     H13832   7.397   6.822   3.702  0.2420 -0.7795 -2.0453
  825MOL0     H13833   7.523   6.760   3.512  2.3624  0.5110 -1.5561
  825MOL0     H13834   7.741   6.277   3.695  1.0244 -1.5468 -0.5539
  825MOL0     H13835   7.627   6.343   3.904 -1.0501 -1.9906  0.2924
  825MOL0     H13836   7.763   6.393   4.368 -0.2644  0.9356  1.8117
  825MOL0     H13837   7.712   6.488   4.586 -0.6070  0.5504 -2.0383
  825MOL0     H13838   7.715   6.403   4.801 -0.1541  2.0607 -0.3142
  825MOL0     H13839   7.631   6.562   4.811 -1.7587  0.4212 -0.1858
  825MOL0     H13840   7.526   6.502   5.019  0.9122  1.0671  0.8899
  825MOL0     H13841   7.699   6.479   5.023  1.1173  0.3375 -0.3220
  825MOL0     H13842   7.681   6.244   5.011 -1.4265 -0.7217 -1.1948
  825MOL0     H13843   7.578   6.306   5.146  1.2238  0.5524  0.5921
  825MOL0     H13844   7.468   6.188   4.882  0.2431  0.5402  0.2884
  825MOL0     H13845   7.375   6.297   4.978  0.3552  2.0549  1.5272
  825MOL0     H13846   7.372   5.989   5.252 -0.5977  3.0695  0.8807
  825MOL0     H13847   7.375   6.218   4.614 -1.5621  1.5525 -0.3713
  825MOL0     H13848   7.364   6.104   4.284 -0.1387 -1.7284  0.3840
  825MOL0     H13849   7.460   6.006   4.389  2.3172  0.6138  1.2544
  825MOL0     H13850   7.308   6.086   4.454 -0.1721  0.1200 -0.5645
  826MOL0     O13851   8.770   5.744   1.680 -0.5466 -0.9877 -0.6545
  826MOL0     C13852   8.734   5.792   1.572  1.1927  1.0273  0.0413
  826MOL0     O13853   8.613   5.760   1.507 -0.4670 -0.8872  0.0609
  826MOL0     C13854   8.542   5.641   1.498  0.0415  0.3609  0.6290
  826MOL0     C13855   8.411   5.640   1.449 -0.3045  0.4107 -0.4820
  826MOL0     C13856   8.348   5.521   1.423 -0.0799  1.3511 -0.9017
  826MOL0     C13857   8.409   5.392   1.442 -0.6675 -0.5867 -0.4782
  826MOL0     O13858   8.358   5.269   1.400  1.1734 -0.2962 -0.6389
  826MOL0     C13859   8.207   5.267   1.392 -0.7036  1.0520 -0.7217
  826MOL0     C13860   8.146   5.124   1.419 -0.2135  0.7312  0.3543
  826MOL0     C13861   8.200   5.075   1.547 -0.4502 -0.4216 -0.6592
  826MOL0     C13862   8.121   5.128   1.667 -0.5924 -0.0275 -0.9495
  826MOL0     C13863   8.197   5.085   1.797  0.1543  0.1854 -0.0925
  826MOL0     C13864   8.182   5.180   1.916 -0.2320 -0.5931 -0.5380
  826MOL0     C13865   8.274   5.136   2.037 -0.3374 -0.7340  0.2590
  826MOL0     C13866   8.262   5.223   2.169 -0.4407 -0.0333  0.2131
  826MOL0     N13867   8.134   5.277   2.196  0.7323 -0.4248 -0.1086
  826MOL0     C13868   8.105   5.413   2.179 -0.2195  0.7022 -0.7753
  826MOL0     C13869   7.983   5.426   2.241 -0.4611  0.8148  0.8218
  826MOL0     C13870   7.903   5.550   2.248 -0.3520  1.0317  0.5844
  826MOL0     C13871   7.929   5.622   2.379 -0.4768  0.2144 -0.2633
  826MOL0     C13872   7.815   5.731   2.401 -0.5112  0.3118  1.2755
  826MOL0     C13873   7.813   5.817   2.528  0.0826 -1.0167 -0.0182
  826MOL0     O13874   7.818   5.721   2.637  0.2945  0.0774  0.5885
  826MOL0     C13875   7.807   5.762   2.770  0.5468 -0.7467  0.3108
  826MOL0     C13876   7.761   5.892   2.809  0.3193 -0.3222 -0.9668
  826MOL0     C13877   7.763   5.940   2.943 -0.1482 -0.7278  0.6655
  826MOL0     C13878   7.752   6.083   2.965  1.2079  0.4551 -0.4447
  826MOL0     C13879   7.786   5.838   3.044 -0.0835 -0.2267 -0.9217
  826MOL0     C13880   7.763   5.846   3.198 -0.1943  0.0391 -0.2673
  826MOL0     O13881   7.790   5.734   3.267 -0.7457 -0.6863  0.3184
  826MOL0     C13882   7.804   5.740   3.399 -0.2445 -0.1506 -0.2971
  826MOL0     C13883   7.902   5.663   3.461  0.1838  0.1414 -0.4278
  826MOL0     C13884   7.943   5.654   3.595 -0.2042 -0.8197 -0.0285
  826MOL0     C13885   7.867   5.730   3.689 -0.6731 -0.7492 -0.4248
  826MOL0     O13886   7.906   5.725   3.826 -0.0509 -0.4409  0.2016
  826MOL0     C13887   7.826   5.799   3.927  0.4782  0.4308  1.1449
  826MOL0     C13888   7.885   5.781   4.070 -0.0640  0.0332  1.0039
  826MOL0     C13889   7.800   5.853   4.165  0.5607  0.2075 -0.9472
  826MOL0     C13890   7.863   5.857   4.305 -0.2093  0.8842  0.4480
  826MOL0     C13891   7.768   5.913   4.407 -0.7162 -0.4292  0.3414
  826MOL0     C13892   7.833   5.897   4.549 -0.8569 -0.1133  0.7860
  826MOL0     C13893   7.741   5.963   4.653 -0.6822 -0.5332 -0.8959
  826MOL0     C13894   7.805   6.073   4.735  0.1028 -0.7904  0.0152
  826MOL0    Cl13895   7.863   6.194   4.622 -0.1434 -0.0559 -0.2387
  826MOL0     C13896   7.762   5.811   3.640 -0.1363  0.1185  0.2541
  826MOL0     C13897   7.728   5.811   3.498 -0.2503 -0.1090 -0.4442
  826MOL0     O13898   7.730   5.948   3.254  0.4564 -0.6285 -0.2525
  826MOL0     C13899   7.830   5.711   3.002 -0.0940  0.3427 -0.5591
  826MOL0     C13900   7.835   5.669   2.877  0.0885  1.4557  0.7269
  826MOL0     N13901   7.947   5.310   2.302 -0.7050  0.2374  0.1411
  826MOL0     N13902   8.033   5.220   2.272 -1.3053 -0.1904  0.7694
  826MOL0     C13903   8.539   5.404   1.493  0.6417 -0.2141  0.1095
  826MOL0     C13904   8.604   5.525   1.537  0.1722  0.6589  0.9980
  826MOL0     C13905   8.814   5.909   1.518  0.4554  0.1061 -0.3140
  826MOL0     C13906   8.749   5.993   1.432  0.4698  0.6654 -0.1178
  826MOL0     C13907   8.814   6.107   1.374 -0.5650 -0.0882 -0.4279
  826MOL0     C13908   8.950   6.136   1.408  0.4253  0.6246 -0.3248
  826MOL0     O13909   9.008   6.248   1.353  0.4779 -0.1132  0.0491
  826MOL0     C13910   9.126   6.298   1.404  0.1231  0.2343 -0.4392
  826MOL0     C13911   9.182   6.409   1.325  0.5231 -0.1766 -0.0616
  826MOL0     C13912   9.088   6.530   1.302 -0.4155 -0.1329  0.2544
  826MOL0     C13913   9.156   6.631   1.208 -0.1178 -0.8415  0.4617
  826MOL0     C13914   9.275   6.708   1.264  0.2266 -0.4442 -0.5230
  826MOL0     C13915   9.370   6.767   1.311  0.3673 -1.1652 -0.3553
  826MOL0     C13916   9.017   6.045   1.495 -0.7326 -1.0668  0.2257
  826MOL0     C13917   8.957   5.932   1.544  0.0504  0.4201  0.4636
  826MOL0     C13918   9.059   5.843   1.618  0.2571 -0.1639  0.2584
  826MOL0     H13919   8.359   5.736   1.447  0.0605  0.5986 -1.7662
  826MOL0     H13920   8.245   5.513   1.388 -0.3528 -0.2284  0.1671
  826MOL0     H13921   8.188   5.298   1.289 -0.0533 -3.2357 -2.3413
  826MOL0     H13922   8.163   5.337   1.463  0.7504  0.6681  0.6174
  826MOL0     H13923   8.037   5.129   1.413 -0.4054  0.4204  2.6203
  826MOL0     H13924   8.192   5.057   1.346 -2.1584 -0.0586 -0.2259
  826MOL0     H13925   8.179   4.968   1.547 -4.0242  0.0612  2.1121
  826MOL0     H13926   8.308   5.083   1.558 -0.3830 -1.0610 -0.8669
  826MOL0     H13927   8.129   5.236   1.655 -2.1501 -0.0305 -2.3006
  826MOL0     H13928   8.015   5.101   1.672 -1.2370  2.3799 -0.2040
  826MOL0     H13929   8.305   5.074   1.789  0.1124 -2.1550  1.4461
  826MOL0     H13930   8.165   4.984   1.825  1.9388 -1.4249 -3.3853
  826MOL0     H13931   8.204   5.286   1.898  1.0674 -0.5212  1.2355
  826MOL0     H13932   8.083   5.184   1.961 -1.0514  1.9181 -2.3077
  826MOL0     H13933   8.375   5.153   1.998 -1.5868 -0.1278 -3.0450
  826MOL0     H13934   8.258   5.030   2.057  1.0918 -0.8411  0.9143
  826MOL0     H13935   8.285   5.155   2.251  1.6647 -1.4130 -1.4030
  826MOL0     H13936   8.342   5.297   2.179  1.8616 -2.0691 -1.6220
  826MOL0     H13937   8.151   5.487   2.115 -0.0060 -0.6455 -2.2462
  826MOL0     H13938   7.802   5.509   2.249  1.2185 -3.8148 -2.3102
  826MOL0     H13939   7.930   5.613   2.162 -2.3036 -0.5982 -1.3425
  826MOL0     H13940   7.926   5.549   2.461  0.1882 -0.6111 -0.9526
  826MOL0     H13941   8.028   5.666   2.389 -0.6963  0.4098  1.2078
  826MOL0     H13942   7.824   5.806   2.322 -0.0768  1.0451  2.0051
  826MOL0     H13943   7.717   5.685   2.385  0.6991 -2.2241  0.5498
  826MOL0     H13944   7.901   5.880   2.543  1.3029 -2.5917 -0.4334
  826MOL0     H13945   7.725   5.882   2.527 -0.1619 -1.2555  1.9695
  826MOL0     H13946   7.745   5.961   2.726  3.3713  1.0330 -0.5667
  826MOL0     H13947   7.653   6.112   3.001  1.3112 -0.2567  0.4509
  826MOL0     H13948   7.773   6.126   2.867 -0.5301 -1.7208 -1.8857
  826MOL0     H13949   7.822   6.113   3.043  0.2948 -2.3857  1.6223
  826MOL0     H13950   7.953   5.590   3.399  1.7584 -0.7986  1.8355
  826MOL0     H13951   8.022   5.589   3.631 -0.5836 -0.9617  0.5663
  826MOL0     H13952   7.825   5.903   3.895 -2.1479 -0.5012 -2.3781
  826MOL0     H13953   7.721   5.769   3.935 -0.5912  3.8864  1.6383
  826MOL0     H13954   7.893   5.675   4.097 -0.7764 -0.9699 -2.2439
  826MOL0     H13955   7.986   5.823   4.074 -0.6193  1.9153 -1.8566
  826MOL0     H13956   7.697   5.818   4.168 -0.9517  4.1466  1.3741
  826MOL0     H13957   7.786   5.956   4.132 -0.4670 -0.1803 -1.7482
  826MOL0     H13958   7.953   5.920   4.301  1.2966 -1.2393 -0.9568
  826MOL0     H13959   7.904   5.761   4.336  0.8544  1.6150  1.4238
  826MOL0     H13960   7.758   6.021   4.397  1.2283 -0.3379 -1.3337
  826MOL0     H13961   7.671   5.866   4.389 -1.2654  0.5877  0.5671
  826MOL0     H13962   7.936   5.934   4.553 -1.4109  1.4488  1.8695
  826MOL0     H13963   7.838   5.793   4.583 -0.2137  0.2147  1.7389
  826MOL0     H13964   7.710   5.882   4.719 -2.0444  0.6920  0.0458
  826MOL0     H13965   7.650   6.008   4.613  0.4390  1.8633 -0.9107
  826MOL0     H13966   7.889   6.047   4.801  0.9017  2.3750  0.4392
  826MOL0     H13967   7.734   6.122   4.802  1.3771 -0.2419  1.0203
  826MOL0     H13968   7.707   5.877   3.706  1.5191  0.3862  1.4543
  826MOL0     H13969   7.642   5.869   3.467 -1.9136 -1.1292  1.9475
  826MOL0     H13970   7.863   5.641   3.078  2.9500  1.6090 -0.5416
  826MOL0     H13971   7.876   5.574   2.845  1.1358  1.0196  3.1321
  826MOL0     H13972   8.591   5.310   1.505  1.9481  0.2824 -1.2786
  826MOL0     H13973   8.702   5.526   1.583 -0.3983  4.0822  2.4239
  826MOL0     H13974   8.644   5.988   1.405 -0.1690  0.1079  2.2427
  826MOL0     H13975   8.765   6.176   1.307  1.3280  2.5935  0.7898
  826MOL0     H13976   9.098   6.347   1.498 -1.1145  1.3116 -1.3301
  826MOL0     H13977   9.201   6.219   1.418  0.3263  0.4425 -0.3526
  826MOL0     H13978   9.231   6.370   1.235  1.3512 -0.5582  0.5368
  826MOL0     H13979   9.257   6.441   1.398 -1.0147  0.3698  1.3277
  826MOL0     H13980   8.998   6.493   1.252  0.4258 -0.9641 -0.7116
  826MOL0     H13981   9.080   6.576   1.400  4.3908 -0.1634  0.9120
  826MOL0     H13982   9.072   6.699   1.194 -1.4927 -2.0987  2.1917
  826MOL0     H13983   9.183   6.588   1.110  2.6343 -1.0030  1.2068
  826MOL0     H13984   9.440   6.835   1.354 -1.3176  0.1190  0.4670
  826MOL0     H13985   9.120   6.065   1.521 -1.0956  0.1905  0.7855
  826MOL0     H13986   9.087   5.755   1.559 -0.0440 -1.0186  1.3476
  826MOL0     H13987   9.144   5.904   1.648 -3.2238  4.5529  1.6103
  826MOL0     H13988   9.041   5.795   1.715  3.5942  1.0850  1.6310
  827MOL0     O13989   2.061   5.232   9.472  0.0693 -0.5740  0.5498
  827MOL0     C13990   2.095   5.351   9.504  0.8357  0.9114  0.6377
  827MOL0     O13991   2.127   5.436   9.413 -0.3408 -0.3851 -0.4818
  827MOL0     C13992   2.135   5.401   9.288  0.7225 -0.2271 -0.0845
  827MOL0     C13993   2.018   5.376   9.211 -0.1205  0.2528  0.7497
  827MOL0     C13994   2.034   5.335   9.074  0.2916 -1.7649 -0.3776
  827MOL0     C13995   2.165   5.329   9.024 -0.1762  0.1220  1.0211
  827MOL0     O13996   2.190   5.285   8.897  0.4674 -0.5994  0.0738
  827MOL0     C13997   2.075   5.237   8.818  0.1580 -0.8643 -0.1768
  827MOL0     C13998   2.123   5.168   8.699 -0.4082 -0.3833 -0.7986
  827MOL0     C13999   2.187   5.274   8.608  0.4950  0.3403 -0.2112
  827MOL0     C14000   2.233   5.224   8.486  0.7399 -0.2708  0.7596
  827MOL0     C14001   2.353   5.131   8.498  0.7721 -0.6236  0.3226
  827MOL0     C14002   2.484   5.168   8.572 -0.7525  0.2494 -0.9922
  827MOL0     C14003   2.555   5.294   8.516 -0.0776  0.6201 -0.9327
  827MOL0     C14004   2.653   5.248   8.405 -0.2496 -0.0039 -0.4722
  827MOL0     N14005   2.648   5.333   8.286  0.1140  0.6793  0.7280
  827MOL0     C14006   2.708   5.457   8.273  0.6695 -0.2034 -0.8722
  827MOL0     C14007   2.689   5.490   8.137 -0.8233  0.1744 -0.2817
  827MOL0     C14008   2.752   5.616   8.076 -0.0551 -0.9599  0.3372
  827MOL0     C14009   2.870   5.585   7.986 -0.1336 -0.4582 -0.4417
  827MOL0     C14010   2.835   5.499   7.869 -0.6431  0.4678  0.4438
  827MOL0     C14011   2.953   5.396   7.830  0.1145 -0.5428  0.4628
  827MOL0     O14012   2.970   5.298   7.941 -0.5755 -0.5020  0.1912
  827MOL0     C14013   2.906   5.179   7.945 -0.2035  0.2368 -0.1278
  827MOL0     C14014   2.903   5.106   8.064 -0.1741 -1.2932 -0.1588
  827MOL0     C14015   2.854   4.973   8.062  0.2106  0.7611 -0.5328
  827MOL0     C14016   2.841   4.923   8.218 -0.1200 -0.6265  0.0257
  827MOL0     C14017   2.809   4.901   7.951 -0.1114 -0.9171  0.8993
  827MOL0     C14018   2.773   4.756   7.940 -0.8139 -0.4804  0.5811
  827MOL0     O14019   2.773   4.693   7.824  0.2725  0.6137 -0.2238
  827MOL0     C14020   2.724   4.569   7.818  0.1890 -0.4808  0.4217
  827MOL0     C14021   2.796   4.458   7.859 -0.2861  0.7130  0.8782
  827MOL0     C14022   2.760   4.327   7.811  0.4484 -0.6256  0.0457
  827MOL0     C14023   2.645   4.310   7.739  0.0630  0.5561 -0.4253
  827MOL0     O14024   2.607   4.180   7.706 -0.3145 -0.2877 -0.2294
  827MOL0     C14025   2.644   4.063   7.789  0.0369  0.5277 -0.0487
  827MOL0     C14026   2.524   3.971   7.776  0.0818 -0.0827  0.4356
  827MOL0     C14027   2.501   3.855   7.866 -0.2077 -0.1225 -1.1408
  827MOL0     C14028   2.456   3.912   8.010  0.2988  0.2704 -0.9574
  827MOL0     C14029   2.471   3.808   8.121  0.7365 -0.5506  0.7574
  827MOL0     C14030   2.611   3.793   8.160  0.5451 -0.4285 -0.6800
  827MOL0     C14031   2.603   3.726   8.302 -0.0093 -0.2030  0.7141
  827MOL0     C14032   2.740   3.717   8.370  0.4412  0.3188  0.0994
  827MOL0    Cl14033   2.823   3.879   8.354 -0.5899  0.1578 -0.2936
  827MOL0     C14034   2.562   4.416   7.716 -0.6231 -1.2299 -0.7273
  827MOL0     C14035   2.601   4.550   7.758 -0.2369 -0.6839 -0.7643
  827MOL0     O14036   2.764   4.699   8.045 -0.4039 -1.1261 -1.0266
  827MOL0     C14037   2.811   4.979   7.830  0.4080 -0.0519  0.0151
  827MOL0     C14038   2.868   5.108   7.828  0.2562 -0.0266 -0.4735
  827MOL0     N14039   2.608   5.396   8.086  0.6184  0.2601 -0.5424
  827MOL0     N14040   2.579   5.306   8.172  0.0346 -0.0165  0.0741
  827MOL0     C14041   2.278   5.350   9.101  1.3303 -0.9251 -0.3510
  827MOL0     C14042   2.264   5.384   9.240 -0.1706 -0.1248  0.0417
  827MOL0     C14043   2.117   5.380   9.643 -0.6095  0.3582  0.2841
  827MOL0     C14044   2.106   5.284   9.737 -0.4363 -0.3521 -0.2111
  827MOL0     C14045   2.135   5.318   9.869  0.9466 -0.4188 -0.2788
  827MOL0     C14046   2.169   5.443   9.908  0.3612 -0.1883 -0.4202
  827MOL0     O14047   2.205   5.458  10.039 -0.3170 -0.0644 -0.0244
  827MOL0     C14048   2.260   5.586  10.089 -0.8554  0.3564  0.1397
  827MOL0     C14049   2.405   5.607  10.053  0.5361 -0.0870 -0.0857
  827MOL0     C14050   2.448   5.756  10.062  0.1333 -0.1075 -0.4483
  827MOL0     C14051   2.527   5.778  10.183  0.2174  0.0641 -0.5984
  827MOL0     C14052   2.667   5.750  10.150 -0.5414 -0.2156  0.6957
  827MOL0     C14053   2.775   5.742  10.100 -0.1373 -0.2145 -0.8563
  827MOL0     C14054   2.175   5.542   9.812  0.6640 -0.1431 -0.1742
  827MOL0     C14055   2.150   5.516   9.675 -0.2869  0.0109 -0.7300
  827MOL0     C14056   2.128   5.640   9.598  0.8729  0.6975  0.1528
  827MOL0     H14057   1.917   5.362   9.249 -1.4136 -2.6276 -3.0342
  827MOL0     H14058   1.946   5.312   9.015  0.3579 -0.1977 -1.1494
  827MOL0     H14059   2.009   5.316   8.782 -0.8461 -1.3470  0.5772
  827MOL0     H14060   2.012   5.164   8.869 -0.0724 -1.9059 -1.8755
  827MOL0     H14061   2.191   5.087   8.726  0.4017  1.9929  6.2816
  827MOL0     H14062   2.038   5.123   8.647 -0.6288 -1.7291  0.6634
  827MOL0     H14063   2.108   5.345   8.582 -2.2652 -3.3867 -3.0617
  827MOL0     H14064   2.268   5.329   8.658  2.5934 -2.6106 -0.1419
  827MOL0     H14065   2.152   5.162   8.446 -0.8427  2.1197  0.0108
  827MOL0     H14066   2.260   5.309   8.422  0.3726  0.3768  1.4538
  827MOL0     H14067   2.374   5.100   8.395 -0.4973 -2.4744  0.5721
  827MOL0     H14068   2.315   5.043   8.552 -1.2815 -1.5547 -2.3421
  827MOL0     H14069   2.456   5.198   8.674  5.1714 -0.7229  1.3587
  827MOL0     H14070   2.555   5.088   8.595 -0.7756  0.4750 -0.1111
  827MOL0     H14071   2.597   5.348   8.601 -1.0853 -1.7527  1.2103
  827MOL0     H14072   2.477   5.357   8.472 -0.5237  0.0244 -1.0057
  827MOL0     H14073   2.748   5.276   8.449 -0.8944  0.3568  0.7233
  827MOL0     H14074   2.636   5.144   8.376 -4.0474  0.5520 -0.8221
  827MOL0     H14075   2.778   5.504   8.340  1.0394 -2.7254  0.6542
  827MOL0     H14076   2.785   5.687   8.153  0.0187  0.4001 -0.8996
  827MOL0     H14077   2.677   5.674   8.021  0.3027  1.2264  1.9744
  827MOL0     H14078   2.908   5.683   7.955  1.2626 -0.6712  0.4728
  827MOL0     H14079   2.955   5.549   8.045  0.7518  2.0027 -0.0866
  827MOL0     H14080   2.747   5.435   7.879  0.0768 -0.7995 -0.8155
  827MOL0     H14081   2.799   5.562   7.787  1.0153  1.1482  0.1821
  827MOL0     H14082   2.917   5.344   7.740 -1.3805 -0.9216  1.2340
  827MOL0     H14083   3.047   5.447   7.806  0.0072 -0.0721  1.0208
  827MOL0     H14084   2.940   5.154   8.154 -2.0412  2.0854 -1.0060
  827MOL0     H14085   2.738   4.891   8.233  0.3388 -2.3248 -0.1334
  827MOL0     H14086   2.883   4.983   8.299 -0.9080 -1.5867  1.1851
  827MOL0     H14087   2.901   4.833   8.237  1.4673 -0.4205 -3.2798
  827MOL0     H14088   2.880   4.490   7.920 -0.7434  0.9725  1.3742
  827MOL0     H14089   2.839   4.254   7.823  3.4220  2.1435 -1.1302
  827MOL0     H14090   2.734   4.010   7.755 -0.8543 -1.0864  0.0011
  827MOL0     H14091   2.662   4.096   7.892 -1.7827 -1.2739  0.9075
  827MOL0     H14092   2.443   4.044   7.779  1.2439  1.4294 -1.7179
  827MOL0     H14093   2.521   3.927   7.676  0.8931 -1.2873  0.9275
  827MOL0     H14094   2.588   3.789   7.878  0.1347  0.3076 -1.2561
  827MOL0     H14095   2.420   3.793   7.826 -0.0796 -2.8391  2.2974
  827MOL0     H14096   2.351   3.942   8.006  0.3664  0.4462 -1.3858
  827MOL0     H14097   2.512   3.995   8.055 -0.0609  0.4464 -0.8273
  827MOL0     H14098   2.405   3.848   8.198  0.5974 -0.3329  0.5279
  827MOL0     H14099   2.438   3.708   8.090  0.2963 -0.0917 -0.3332
  827MOL0     H14100   2.658   3.891   8.172  1.7387 -1.1683  1.0277
  827MOL0     H14101   2.673   3.740   8.088 -2.4498 -4.8805 -0.3657
  827MOL0     H14102   2.564   3.624   8.300  2.6040 -1.2607  0.0972
  827MOL0     H14103   2.547   3.792   8.369  1.3530  0.1189  1.5604
  827MOL0     H14104   2.803   3.644   8.318  1.6003  2.2020 -1.2579
  827MOL0     H14105   2.722   3.714   8.478 -0.7856  1.2865 -0.0606
  827MOL0     H14106   2.457   4.416   7.688 -0.6843  3.0956 -1.1494
  827MOL0     H14107   2.548   4.641   7.732  0.2954 -0.6102 -1.6602
  827MOL0     H14108   2.786   4.941   7.732  0.1824  0.0100  0.0496
  827MOL0     H14109   2.873   5.143   7.725 -1.3355 -0.0248 -0.5684
  827MOL0     H14110   2.371   5.335   9.046 -0.0423 -2.4042 -2.3990
  827MOL0     H14111   2.351   5.388   9.305  0.2537  2.3971 -0.5919
  827MOL0     H14112   2.084   5.180   9.716  4.3655 -1.3851 -1.4053
  827MOL0     H14113   2.108   5.245   9.945 -1.0325  0.6085  0.0900
  827MOL0     H14114   2.209   5.673  10.047  2.0335  1.2398 -1.9158
  827MOL0     H14115   2.237   5.572  10.195  2.6730 -1.0004  0.8652
  827MOL0     H14116   2.434   5.562   9.958 -0.9064 -2.5973  0.5499
  827MOL0     H14117   2.464   5.545  10.121  2.2559  3.4412  1.8743
  827MOL0     H14118   2.517   5.781   9.981  3.3220 -3.3531  0.9750
  827MOL0     H14119   2.355   5.813  10.064 -1.1787 -2.0404  3.0566
  827MOL0     H14120   2.482   5.726  10.267 -0.9809 -1.6274 -2.2108
  827MOL0     H14121   2.518   5.887  10.192  1.4399  0.0311  2.0964
  827MOL0     H14122   2.876   5.732  10.063  0.4108  1.4277  0.1080
  827MOL0     H14123   2.207   5.642   9.840  0.8894  0.2734 -1.8397
  827MOL0     H14124   2.199   5.658   9.517 -0.8537  1.1208 -1.3288
  827MOL0     H14125   2.025   5.633   9.561  0.7409  0.0244  0.6335
  827MOL0     H14126   2.137   5.732   9.656 -1.4613  0.2607  1.3160
  828MOL0     O14127  10.987   7.363   8.973  0.3767 -0.0678 -0.5531
  828MOL0     C14128  10.871   7.353   8.933  0.2905 -1.0883 -0.6970
  828MOL0     O14129  10.759   7.335   9.002 -0.6414  0.4624 -0.1838
  828MOL0     C14130  10.773   7.253   9.116  0.5424 -0.8671 -0.1563
  828MOL0     C14131  10.862   7.157   9.137 -0.5441  0.4527 -0.7356
  828MOL0     C14132  10.866   7.090   9.264 -0.3854 -0.4070 -1.0070
  828MOL0     C14133  10.766   7.115   9.361 -0.4074 -0.0090 -0.1923
  828MOL0     O14134  10.746   7.015   9.457  0.9684  0.8366  0.7172
  828MOL0     C14135  10.709   6.884   9.403  0.4913 -0.7419 -1.1781
  828MOL0     C14136  10.563   6.864   9.457 -0.0141 -0.1660  0.2765
  828MOL0     C14137  10.551   6.875   9.612 -0.1013 -0.1046  0.0686
  828MOL0     C14138  10.646   6.772   9.676  0.1438  0.6342 -0.0957
  828MOL0     C14139  10.632   6.751   9.830  0.4293 -0.1470  0.1417
  828MOL0     C14140  10.615   6.892   9.891 -0.0201 -0.1429  0.3983
  828MOL0     C14141  10.590   6.884  10.045  0.1784 -0.4288  0.0570
  828MOL0     C14142  10.586   7.032  10.097 -0.1498  0.8878  0.2599
  828MOL0     N14143  10.586   7.035  10.251 -0.6107 -1.1203 -0.2037
  828MOL0     C14144  10.487   7.009  10.335 -0.2864  0.0154 -0.7837
  828MOL0     C14145  10.518   7.051  10.456 -1.3096  0.0796  0.7017
  828MOL0     C14146  10.437   7.032  10.566 -0.0306 -0.7695 -0.5116
  828MOL0     C14147  10.463   6.907  10.645  0.7981  1.1864  0.0664
  828MOL0     C14148  10.594   6.910  10.717  0.3467 -0.2573 -0.4311
  828MOL0     C14149  10.622   6.790  10.814  0.0906 -0.9315  0.3307
  828MOL0     O14150  10.577   6.819  10.947  0.1404  0.2022  0.0125
  828MOL0     C14151  10.573   6.728  11.043 -0.4674  0.7648  0.1303
  828MOL0     C14152  10.501   6.767  11.163  0.3853  0.8130 -0.0594
  828MOL0     C14153  10.497   6.676  11.275 -0.0311  0.6831  0.7543
  828MOL0     C14154  10.429   6.740  11.392 -0.4813 -0.3078  0.1607
  828MOL0     C14155  10.551   6.544  11.259 -0.8895 -0.1848 -0.0070
  828MOL0     C14156  10.523   6.425  11.358 -0.1838 -0.9761  0.0561
  828MOL0     O14157  10.542   6.306  11.307 -0.3346 -0.5016  0.2673
  828MOL0     C14158  10.511   6.200  11.377  0.3646  0.7044 -0.3133
  828MOL0     C14159  10.614   6.113  11.403 -0.5622 -0.1661  0.5980
  828MOL0     C14160  10.584   6.000  11.487  0.8377 -0.6304  0.2370
  828MOL0     C14161  10.457   5.985  11.545 -0.2769 -0.0879  0.6706
  828MOL0     O14162  10.412   5.893  11.629  0.2049  0.5098 -0.0153
  828MOL0     C14163  10.502   5.837  11.727 -0.3942 -0.3382  0.2103
  828MOL0     C14164  10.530   5.941  11.832 -0.2415 -0.7704  0.0503
  828MOL0     C14165  10.406   5.999  11.895 -0.0693  0.0353  0.0450
  828MOL0     C14166  10.404   6.149  11.880 -0.7232  0.7619  0.4948
  828MOL0     C14167  10.275   6.210  11.926  0.5993 -0.5223  0.7472
  828MOL0     C14168  10.272   6.356  11.916 -0.0558 -0.3901 -0.7399
  828MOL0     C14169  10.343   6.437  12.024  1.0184 -0.7402 -0.6791
  828MOL0     C14170  10.314   6.593  12.016 -0.5154 -0.5778  0.4991
  828MOL0    Cl14171  10.351   6.660  11.858 -0.2726  0.2147  0.0629
  828MOL0     C14172  10.356   6.082  11.510 -0.1426 -0.7671  0.2155
  828MOL0     C14173  10.376   6.186  11.426 -0.2482 -0.3611  0.3081
  828MOL0     O14174  10.506   6.448  11.476 -0.0296  0.6343 -0.6022
  828MOL0     C14175  10.609   6.505  11.133  0.0328 -1.1356 -0.0734
  828MOL0     C14176  10.620   6.602  11.026  0.9378 -0.1252 -1.7366
  828MOL0     N14177  10.632   7.128  10.443 -0.1225  0.1538 -1.1266
  828MOL0     N14178  10.671   7.109  10.320  0.0539 -1.0891  0.5572
  828MOL0     C14179  10.682   7.221   9.338  0.1588  0.0364 -0.3462
  828MOL0     C14180  10.690   7.292   9.217 -0.4788 -0.0801 -0.3059
  828MOL0     C14181  10.844   7.357   8.786  0.0635  0.9160 -0.5662
  828MOL0     C14182  10.861   7.471   8.714  0.5117 -0.0672  0.2865
  828MOL0     C14183  10.835   7.489   8.579  0.6130 -0.2598 -0.7474
  828MOL0     C14184  10.788   7.375   8.509 -0.4889  1.1634  0.6580
  828MOL0     O14185  10.773   7.373   8.371  1.4681  0.4593 -0.0682
  828MOL0     C14186  10.734   7.505   8.311 -0.0826  0.1671  0.6850
  828MOL0     C14187  10.856   7.587   8.264  0.3374 -1.0306  0.2504
  828MOL0     C14188  10.900   7.536   8.124  0.6651  0.2105 -0.1708
  828MOL0     C14189  10.988   7.632   8.057 -0.2689 -0.0821 -0.5582
  828MOL0     C14190  10.921   7.737   7.986 -0.6147 -0.6989 -0.0175
  828MOL0     C14191  10.852   7.817   7.932  0.8213 -0.5079 -0.1852
  828MOL0     C14192  10.771   7.252   8.578  1.3140 -0.6820  0.2638
  828MOL0     C14193  10.785   7.247   8.716  0.0550 -0.0217 -0.4289
  828MOL0     C14194  10.752   7.119   8.777  0.3360  0.5881  0.3930
  828MOL0     H14195  10.944   7.123   9.074  0.9128 -0.4463  1.5047
  828MOL0     H14196  10.942   7.016   9.284 -0.4166 -0.1104  0.3465
  828MOL0     H14197  10.786   6.814   9.437  2.4268  2.2827  1.2876
  828MOL0     H14198  10.700   6.873   9.295 -1.1943 -0.6713 -1.0708
  828MOL0     H14199  10.501   6.947   9.420  1.2094  1.1934  1.1609
  828MOL0     H14200  10.531   6.766   9.420  0.2643 -0.2492  0.2531
  828MOL0     H14201  10.585   6.974   9.642 -0.7555  0.1936 -0.1485
  828MOL0     H14202  10.448   6.859   9.646  1.1397 -2.4879  3.1194
  828MOL0     H14203  10.631   6.675   9.629 -0.2577  0.6673 -0.0448
  828MOL0     H14204  10.744   6.813   9.651  0.3740 -0.5672 -1.2763
  828MOL0     H14205  10.723   6.700   9.864 -1.0310 -2.1028  1.3377
  828MOL0     H14206  10.549   6.684   9.852  2.6377 -2.4278  2.3272
  828MOL0     H14207  10.707   6.948   9.872  0.3511 -0.0980  2.1681
  828MOL0     H14208  10.535   6.946   9.840 -0.2491 -1.4486 -0.6848
  828MOL0     H14209  10.667   6.826  10.096 -0.3779 -2.0623 -0.8923
  828MOL0     H14210  10.493   6.836  10.063 -0.6232 -0.1459 -3.0475
  828MOL0     H14211  10.664   7.104  10.069 -1.8325  1.9732 -1.9561
  828MOL0     H14212  10.495   7.085  10.065 -1.4789 -0.7209  1.1917
  828MOL0     H14213  10.400   6.946  10.323  0.3934 -1.0615 -0.2199
  828MOL0     H14214  10.332   7.029  10.533 -0.8263 -0.4842  1.8433
  828MOL0     H14215  10.452   7.123  10.624 -1.5070  0.8178 -2.4523
  828MOL0     H14216  10.377   6.905  10.713  0.6421  0.1858 -0.1401
  828MOL0     H14217  10.463   6.815  10.586 -3.5670  0.4286  0.8911
  828MOL0     H14218  10.676   6.923  10.646  0.3347 -0.0095 -0.3973
  828MOL0     H14219  10.583   7.000  10.778 -1.0184 -0.0462 -0.9729
  828MOL0     H14220  10.575   6.702  10.770 -0.4359 -0.1787 -0.6627
  828MOL0     H14221  10.728   6.763  10.811  0.8877  1.6763 -3.7881
  828MOL0     H14222  10.454   6.865  11.166  0.2798  0.7331  1.5528
  828MOL0     H14223  10.493   6.790  11.466  0.0231 -2.1389  1.0081
  828MOL0     H14224  10.397   6.660  11.459 -0.4216  0.0377  0.6022
  828MOL0     H14225  10.343   6.795  11.354  0.4972 -0.6846 -2.8543
  828MOL0     H14226  10.714   6.117  11.362 -0.9896 -0.5647 -0.5188
  828MOL0     H14227  10.665   5.931  11.508  1.4193 -0.9889 -2.7648
  828MOL0     H14228  10.465   5.746  11.775 -1.5293 -0.7465 -1.3539
  828MOL0     H14229  10.586   5.794  11.671 -1.0127  0.4736 -1.4239
  828MOL0     H14230  10.583   5.889  11.912 -0.2357 -2.4971 -1.0194
  828MOL0     H14231  10.592   6.021  11.792  0.1731 -1.3073 -0.4007
  828MOL0     H14232  10.413   5.978  12.002 -2.8543 -2.3656 -0.1233
  828MOL0     H14233  10.317   5.954  11.849 -0.0479  0.0160  0.0217
  828MOL0     H14234  10.420   6.183  11.778 -0.0300 -3.0777 -0.8247
  828MOL0     H14235  10.488   6.195  11.934  0.7421  1.8665 -2.5324
  828MOL0     H14236  10.196   6.160  11.869  1.5472  0.9834 -2.0915
  828MOL0     H14237  10.265   6.181  12.031 -0.1621 -0.6783  0.6409
  828MOL0     H14238  10.167   6.387  11.914 -0.9957 -2.9082  2.1930
  828MOL0     H14239  10.307   6.374  11.814 -2.1949  0.6622 -1.3402
  828MOL0     H14240  10.447   6.415  11.999  1.6863 -1.9673  2.6607
  828MOL0     H14241  10.320   6.387  12.118  0.6694 -0.5824 -0.6794
  828MOL0     H14242  10.357   6.650  12.099 -0.5147 -0.8265  0.6717
  828MOL0     H14243  10.205   6.599  12.013 -0.4030  1.6276 -0.5045
  828MOL0     H14244  10.264   6.074  11.568  0.4148 -0.4018  1.1710
  828MOL0     H14245  10.304   6.265  11.407 -2.0036 -1.2723  2.7397
  828MOL0     H14246  10.640   6.408  11.097  2.1839  0.0034 -1.5505
  828MOL0     H14247  10.643   6.570  10.925  1.5203  1.3510 -2.0974
  828MOL0     H14248  10.586   7.236   9.386  0.0265  0.7150 -0.8129
  828MOL0     H14249  10.614   7.369   9.214  0.5110  0.9165 -0.5874
  828MOL0     H14250  10.864   7.563   8.772  1.7891 -0.5606  1.0402
  828MOL0     H14251  10.839   7.590   8.538  0.5113  0.1043  0.1283
  828MOL0     H14252  10.675   7.473   8.225 -0.9753 -1.0672  1.7085
  828MOL0     H14253  10.664   7.553   8.381  0.5546  0.1711  1.3315
  828MOL0     H14254  10.941   7.582   8.332 -0.4315  0.2182  1.3707
  828MOL0     H14255  10.823   7.691   8.251  1.3383 -0.6202  0.8695
  828MOL0     H14256  10.938   7.435   8.142  0.1420  0.0478  0.0351
  828MOL0     H14257  10.821   7.513   8.052  0.4991  2.7565 -0.9183
  828MOL0     H14258  11.040   7.573   7.982  0.0068 -0.3192 -0.1815
  828MOL0     H14259  11.070   7.672   8.117 -0.4915  0.1151 -0.3847
  828MOL0     H14260  10.775   7.866   7.875  1.6359 -2.0573 -2.7509
  828MOL0     H14261  10.736   7.169   8.517 -0.1783  1.3492 -1.8504
  828MOL0     H14262  10.731   7.046   8.699  0.4409  0.5268  0.4222
  828MOL0     H14263  10.839   7.088   8.835 -0.3271  0.4163  1.3102
  828MOL0     H14264  10.667   7.127   8.845  1.9751  3.1597  2.3741
  829MOL0     O14265   1.858   5.149   8.175 -0.8421  0.0178 -0.4254
  829MOL0     C14266   1.836   5.240   8.254  0.1181  0.6150  0.1301
  829MOL0     O14267   1.728   5.243   8.335  0.2132  0.0930 -0.6647
  829MOL0     C14268   1.660   5.122   8.350 -0.1327 -0.1894  0.6131
  829MOL0     C14269   1.673   5.035   8.458 -0.2819 -0.4465  0.3108
  829MOL0     C14270   1.601   4.912   8.452 -0.3272 -0.3860 -1.1155
  829MOL0     C14271   1.510   4.888   8.357  1.2234  0.0928 -0.4456
  829MOL0     O14272   1.469   4.764   8.362  0.9578 -0.1638 -0.2987
  829MOL0     C14273   1.330   4.735   8.335 -0.8410  0.0588 -0.6589
  829MOL0     C14274   1.339   4.596   8.268  0.0280 -0.0276 -0.4970
  829MOL0     C14275   1.207   4.512   8.279  0.3842  0.1575 -0.3222
  829MOL0     C14276   1.080   4.573   8.224  0.8647 -0.4591  0.2839
  829MOL0     C14277   1.066   4.592   8.073 -0.1672 -0.0955  0.3448
  829MOL0     C14278   0.942   4.674   8.037  0.4605 -0.0960 -0.0656
  829MOL0     C14279   0.937   4.684   7.884  0.2447  0.8833  1.0638
  829MOL0     C14280   0.841   4.786   7.825  0.3816  0.2141  0.0270
  829MOL0     N14281   0.690   4.757   7.860  0.4230 -0.8491 -0.0666
  829MOL0     C14282   0.616   4.648   7.810  0.6996  0.2611 -0.1641
  829MOL0     C14283   0.493   4.668   7.871  0.2153 -0.1587 -0.0196
  829MOL0     C14284   0.371   4.569   7.851  0.3965  0.0837  1.4994
  829MOL0     C14285   0.293   4.586   7.716  0.6415 -0.2549  0.6062
  829MOL0     C14286   0.169   4.487   7.725  0.4433  0.8486 -0.6901
  829MOL0     C14287   0.208   4.334   7.731  0.9537 -0.3357  0.3240
  829MOL0     O14288   0.103   4.251   7.685  0.2309 -0.7766  0.6291
  829MOL0     C14289   0.100   4.121   7.731  0.9346  0.3791  0.2921
  829MOL0     C14290  -0.021   4.048   7.722 -0.0880  0.6363  0.7005
  829MOL0     C14291  -0.034   3.923   7.785 -0.4068  0.6076 -0.3266
  829MOL0     C14292  -0.169   3.853   7.767 -0.3271  0.7686  0.1143
  829MOL0     C14293   0.070   3.862   7.857  0.4059  0.1375 -0.5371
  829MOL0     C14294   0.072   3.723   7.918 -0.3334  0.6611 -0.6312
  829MOL0     O14295   0.191   3.660   7.939 -0.4990 -0.9119  0.2778
  829MOL0     C14296   0.200   3.565   8.034  1.3648  0.3359  0.4461
  829MOL0     C14297   0.284   3.456   7.999 -0.0431  0.1591  0.9932
  829MOL0     C14298   0.309   3.365   8.103  0.4505  0.7853  0.4996
  829MOL0     C14299   0.243   3.366   8.228 -0.8961 -1.1571  0.2570
  829MOL0     O14300   0.251   3.276   8.330  0.2870 -0.3749 -0.1241
  829MOL0     C14301   0.302   3.141   8.305 -0.2782 -0.3745 -1.1303
  829MOL0     C14302   0.292   3.062   8.436  0.3702 -0.2023  0.6487
  829MOL0     C14303   0.152   3.074   8.501  0.2648 -0.0389 -0.4188
  829MOL0     C14304   0.128   3.200   8.581  1.5142 -0.6074  0.0856
  829MOL0     C14305   0.005   3.187   8.674  0.4016  0.5955 -0.6894
  829MOL0     C14306   0.008   3.289   8.798  0.2037 -0.3318 -0.4731
  829MOL0     C14307  -0.130   3.319   8.840  0.9506 -0.0972 -1.2856
  829MOL0     C14308  -0.147   3.445   8.926  0.0772 -0.2794  0.6122
  829MOL0    Cl14309  -0.099   3.591   8.829 -0.2705  0.1543 -0.0296
  829MOL0     C14310   0.164   3.484   8.253 -0.2173  1.6236 -0.3609
  829MOL0     C14311   0.149   3.584   8.160 -0.8994  0.0645 -0.2581
  829MOL0     O14312  -0.033   3.669   7.948  0.3398 -0.0967  0.0197
  829MOL0     C14313   0.193   3.927   7.859  0.0519  0.1335  0.0708
  829MOL0     C14314   0.207   4.057   7.806 -0.1980  0.0903 -0.8945
  829MOL0     N14315   0.495   4.789   7.941  0.2816 -0.9253  0.6520
  829MOL0     N14316   0.617   4.841   7.951  0.4320  0.3671  0.3323
  829MOL0     C14317   1.480   4.979   8.264  0.0914  0.0384 -0.1851
  829MOL0     C14318   1.563   5.089   8.258 -0.4088 -0.4382  0.0833
  829MOL0     C14319   1.925   5.353   8.261 -0.4766  0.1265  1.0872
  829MOL0     C14320   2.013   5.372   8.150  0.0664 -0.2864 -0.0925
  829MOL0     C14321   2.116   5.469   8.164 -0.4782  0.1980  1.0688
  829MOL0     C14322   2.129   5.557   8.267  0.2558 -0.1333 -1.4362
  829MOL0     O14323   2.227   5.664   8.284  0.0308  0.9687  0.1181
  829MOL0     C14324   2.357   5.621   8.290 -0.6160 -0.0080 -0.0924
  829MOL0     C14325   2.435   5.736   8.346  0.6625 -0.8447 -0.7164
  829MOL0     C14326   2.391   5.792   8.484 -0.8107  1.3300 -0.5909
  829MOL0     C14327   2.434   5.709   8.608  0.0889  0.4115 -1.1293
  829MOL0     C14328   2.569   5.656   8.617  0.0205 -0.2499  0.2435
  829MOL0     C14329   2.675   5.597   8.625 -0.7259 -0.4911  0.0386
  829MOL0     C14330   2.038   5.552   8.376  0.0341  0.7743  0.8762
  829MOL0     C14331   1.942   5.448   8.376  0.3456 -0.0416  0.0451
  829MOL0     C14332   1.849   5.428   8.494  0.1347 -0.4415 -0.9063
  829MOL0     H14333   1.749   5.051   8.534 -1.3956 -0.6531  1.5058
  829MOL0     H14334   1.635   4.841   8.527 -0.2106 -0.1406 -0.9342
  829MOL0     H14335   1.284   4.795   8.256 -0.5311  0.8738 -0.2360
  829MOL0     H14336   1.258   4.737   8.417 -2.6082  3.7982 -2.0621
  829MOL0     H14337   1.376   4.612   8.166 -0.3504 -2.7737 -1.1412
  829MOL0     H14338   1.418   4.540   8.319 -1.0676 -0.4152  0.8449
  829MOL0     H14339   1.237   4.419   8.228  0.5129 -0.5666  1.0264
  829MOL0     H14340   1.174   4.466   8.372 -1.1549 -2.0300 -1.8611
  829MOL0     H14341   1.002   4.497   8.240 -0.0269 -0.5621 -3.4688
  829MOL0     H14342   1.055   4.664   8.279  1.7533 -1.7198  2.9556
  829MOL0     H14343   1.055   4.490   8.035 -1.0927 -0.5156  1.6641
  829MOL0     H14344   1.154   4.637   8.026 -0.7559 -1.2888 -2.0348
  829MOL0     H14345   0.846   4.642   8.077  0.6263  1.4662  1.7467
  829MOL0     H14346   0.960   4.778   8.065  0.8551  0.0276 -0.7560
  829MOL0     H14347   0.913   4.587   7.841  4.3744 -1.0248  2.5787
  829MOL0     H14348   1.038   4.700   7.846 -0.2783 -0.9346 -1.3201
  829MOL0     H14349   0.872   4.887   7.853  1.7494  0.2880 -1.5512
  829MOL0     H14350   0.843   4.786   7.715 -2.6108  0.8912 -0.1205
  829MOL0     H14351   0.641   4.560   7.751  0.2721  1.5076 -2.3055
  829MOL0     H14352   0.305   4.577   7.938  2.5703 -0.8163  3.3512
  829MOL0     H14353   0.415   4.469   7.861  1.7871  0.4929 -0.1275
  829MOL0     H14354   0.244   4.684   7.705  0.4954 -0.3395  0.5053
  829MOL0     H14355   0.357   4.566   7.630 -3.1391 -0.3023 -2.4320
  829MOL0     H14356   0.118   4.513   7.818 -0.3017 -0.6019 -0.6726
  829MOL0     H14357   0.090   4.512   7.654  1.2263  1.4902 -1.3684
  829MOL0     H14358   0.296   4.319   7.668  2.0264 -1.1480  1.9300
  829MOL0     H14359   0.249   4.313   7.831  1.0316  0.5230  0.4873
  829MOL0     H14360  -0.109   4.082   7.668 -0.5940 -2.3970 -0.6450
  829MOL0     H14361  -0.246   3.878   7.841  0.0859 -0.1021  0.8612
  829MOL0     H14362  -0.156   3.745   7.760 -0.0232  0.6600  1.8972
  829MOL0     H14363  -0.199   3.888   7.668 -0.5984  1.9057  0.5825
  829MOL0     H14364   0.332   3.451   7.901 -2.2354 -2.0314 -0.0853
  829MOL0     H14365   0.372   3.280   8.080  0.1400  0.3204  1.3308
  829MOL0     H14366   0.249   3.103   8.217  0.6562 -0.8094 -1.5213
  829MOL0     H14367   0.410   3.142   8.288  0.9312 -2.4195  4.4780
  829MOL0     H14368   0.324   2.959   8.417  1.8915  0.2385  0.7473
  829MOL0     H14369   0.363   3.108   8.505  0.6038  1.2460 -0.5220
  829MOL0     H14370   0.146   2.994   8.574  0.5463 -1.7699 -2.2081
  829MOL0     H14371   0.068   3.060   8.431 -2.2793  2.5464  1.8307
  829MOL0     H14372   0.099   3.275   8.508  0.9407  0.6702  1.5715
  829MOL0     H14373   0.226   3.224   8.625  2.2535  1.9755 -2.6202
  829MOL0     H14374  -0.091   3.190   8.621 -0.6154 -1.3167  0.8916
  829MOL0     H14375  -0.019   3.084   8.704 -2.5768  1.8945  1.9497
  829MOL0     H14376   0.051   3.385   8.768 -1.7997  0.5158 -0.7804
  829MOL0     H14377   0.064   3.252   8.885 -2.1420  1.0584  1.7730
  829MOL0     H14378  -0.163   3.226   8.886 -0.2710  2.8688  4.7884
  829MOL0     H14379  -0.187   3.346   8.751  0.2199  0.8201 -0.5521
  829MOL0     H14380  -0.090   3.441   9.019  0.9915  0.8344  0.1261
  829MOL0     H14381  -0.252   3.452   8.957 -1.0376 -0.8012 -2.6340
  829MOL0     H14382   0.112   3.497   8.348  0.1519 -0.7135  0.2318
  829MOL0     H14383   0.083   3.668   8.180 -3.9949 -1.4213 -3.2170
  829MOL0     H14384   0.284   3.891   7.906  0.3024  0.7880  0.0977
  829MOL0     H14385   0.305   4.102   7.817 -1.3631  2.8356 -0.8228
  829MOL0     H14386   1.421   4.949   8.177  0.5960 -0.4953 -0.3500
  829MOL0     H14387   1.555   5.149   8.168  0.3389  0.3861  0.5442
  829MOL0     H14388   2.009   5.317   8.056  1.6270 -0.2138 -0.2209
  829MOL0     H14389   2.188   5.487   8.085 -1.5249 -1.0417 -0.2078
  829MOL0     H14390   2.350   5.543   8.366 -2.4526  1.2053  1.0438
  829MOL0     H14391   2.400   5.581   8.197  0.8719 -0.0728  0.5969
  829MOL0     H14392   2.430   5.811   8.267  2.8074  1.2684  1.0072
  829MOL0     H14393   2.540   5.706   8.350  0.9752 -0.2747 -3.1772
  829MOL0     H14394   2.438   5.890   8.495 -0.5853  1.0225  1.8082
  829MOL0     H14395   2.283   5.809   8.488 -1.7462 -3.3268  2.4361
  829MOL0     H14396   2.362   5.627   8.616  0.3747  0.3401  2.0890
  829MOL0     H14397   2.407   5.771   8.694 -1.6145 -0.7558 -0.7687
  829MOL0     H14398   2.768   5.544   8.618 -0.1628  0.5550 -0.6343
  829MOL0     H14399   2.039   5.633   8.447 -2.3215  1.4715  0.2021
  829MOL0     H14400   1.838   5.327   8.534  2.2659 -1.7089 -3.2034
  829MOL0     H14401   1.887   5.485   8.579 -4.8052 -0.8808  1.9211
  829MOL0     H14402   1.750   5.473   8.494  0.6684  1.0858  2.7874
  830MOL0     O14403   4.651   9.665   7.651  0.4216  0.7749  0.1486
  830MOL0     C14404   4.694   9.573   7.725  1.3532 -0.7236  0.3000
  830MOL0     O14405   4.679   9.570   7.863 -0.3366  0.0937  0.1647
  830MOL0     C14406   4.629   9.678   7.920  0.5793  0.7967 -0.6330
  830MOL0     C14407   4.700   9.793   7.933  0.7639  0.4882 -0.1805
  830MOL0     C14408   4.639   9.906   7.989 -0.3148  0.2465 -0.6491
  830MOL0     C14409   4.506   9.903   8.038  0.0108 -1.3671  0.1261
  830MOL0     O14410   4.459  10.026   8.089 -0.3053 -0.3805  0.2235
  830MOL0     C14411   4.336  10.019   8.164  1.4094  0.0382 -0.3269
  830MOL0     C14412   4.302  10.164   8.174  0.9259 -0.3472 -0.6817
  830MOL0     C14413   4.414  10.252   8.233 -0.5273  1.1191 -0.0216
  830MOL0     C14414   4.487  10.198   8.354  0.3081  0.1042 -0.5515
  830MOL0     C14415   4.586  10.308   8.398 -0.2167  0.8150  0.3848
  830MOL0     C14416   4.668  10.273   8.527  0.8245  0.7828 -0.3922
  830MOL0     C14417   4.747  10.398   8.562 -0.0531 -0.4889  0.9857
  830MOL0     C14418   4.806  10.399   8.704  0.2209  0.5640 -0.4319
  830MOL0     N14419   4.916  10.307   8.716  0.7903 -0.0502 -0.1456
  830MOL0     C14420   5.049  10.342   8.717 -0.4807  0.6562  0.4818
  830MOL0     C14421   5.102  10.221   8.752 -0.5763  1.0874 -0.0786
  830MOL0     C14422   5.248  10.197   8.777  0.0982  0.1620  0.4961
  830MOL0     C14423   5.291  10.208   8.926 -0.1169  0.8292 -0.5714
  830MOL0     C14424   5.252  10.089   9.016  0.2334 -0.0738 -0.7519
  830MOL0     C14425   5.290   9.948   8.966  0.5946  0.2239 -0.4627
  830MOL0     O14426   5.270   9.851   9.068  1.3764  0.1250 -0.1976
  830MOL0     C14427   5.138   9.838   9.125 -0.6013  0.8528 -0.6913
  830MOL0     C14428   5.128   9.772   9.249  1.2025  0.1823  0.2354
  830MOL0     C14429   5.006   9.761   9.313  0.4336  0.3677  0.0029
  830MOL0     C14430   5.018   9.703   9.448  0.8902  0.3563  0.0467
  830MOL0     C14431   4.885   9.798   9.254 -0.5934 -0.1824  0.3572
  830MOL0     C14432   4.760   9.763   9.315 -0.0038 -0.9546 -0.0928
  830MOL0     O14433   4.671   9.673   9.262 -0.4751 -0.1740 -0.7596
  830MOL0     C14434   4.571   9.626   9.346  0.1149 -0.0614 -0.1505
  830MOL0     C14435   4.485   9.724   9.411 -0.3048  0.7080  0.6532
  830MOL0     C14436   4.375   9.680   9.488 -0.8079  0.0632  0.1280
  830MOL0     C14437   4.365   9.541   9.521 -0.6141 -0.2747  1.0685
  830MOL0     O14438   4.273   9.498   9.612  0.4643 -0.6581  0.0232
  830MOL0     C14439   4.214   9.593   9.696  0.9268 -0.7339  0.1340
  830MOL0     C14440   4.160   9.528   9.824 -0.1255 -0.2337 -0.2923
  830MOL0     C14441   4.035   9.599   9.882 -0.5091  0.8811 -0.0996
  830MOL0     C14442   3.984   9.538  10.014  0.3162  0.3096 -0.9555
  830MOL0     C14443   3.866   9.623  10.061 -0.3852 -0.1122 -0.1203
  830MOL0     C14444   3.827   9.591  10.212 -0.6846 -0.0427 -0.5222
  830MOL0     C14445   3.711   9.686  10.247  0.1937 -0.9321  0.3160
  830MOL0     C14446   3.591   9.709  10.159 -0.0788  0.4024 -1.3993
  830MOL0    Cl14447   3.520   9.553  10.112 -0.0605 -0.5616 -0.6077
  830MOL0     C14448   4.452   9.448   9.458 -0.2560 -0.7621  0.8434
  830MOL0     C14449   4.557   9.495   9.381  0.3869 -0.4137  0.3736
  830MOL0     O14450   4.747   9.814   9.425  0.3614  0.1589  0.8609
  830MOL0     C14451   4.900   9.870   9.133  0.6538  0.3441 -1.4468
  830MOL0     C14452   5.022   9.880   9.071  0.0780 -0.2232  1.1435
  830MOL0     N14453   5.003  10.118   8.770 -0.4081 -0.4211  0.9168
  830MOL0     N14454   4.893  10.175   8.754 -0.3094 -0.3249 -0.0856
  830MOL0     C14455   4.430   9.796   8.013  0.5283 -0.6180 -0.1068
  830MOL0     C14456   4.490   9.677   7.954  0.0790  0.2024  0.3162
  830MOL0     C14457   4.737   9.451   7.657  0.5148  0.5435 -0.3011
  830MOL0     C14458   4.651   9.330   7.653 -0.6549 -0.2622 -0.7595
  830MOL0     C14459   4.697   9.222   7.578  0.2704  0.3962 -0.9224
  830MOL0     C14460   4.808   9.227   7.500 -0.4113 -0.7276  0.3479
  830MOL0     O14461   4.846   9.117   7.425 -0.1784  0.0992 -0.5974
  830MOL0     C14462   4.972   9.060   7.471 -1.0379 -0.0193  0.0694
  830MOL0     C14463   4.986   9.041   7.623 -0.2710 -0.7261 -0.0127
  830MOL0     C14464   5.048   8.905   7.658  0.1765  1.2518  0.4922
  830MOL0     C14465   4.973   8.776   7.651  0.1518 -0.2326 -0.0321
  830MOL0     C14466   5.066   8.655   7.625  0.6829 -0.4680 -0.0573
  830MOL0     C14467   5.142   8.563   7.611 -0.0880 -0.0381  0.1455
  830MOL0     C14468   4.889   9.334   7.505 -0.7154  0.7106 -0.6838
  830MOL0     C14469   4.862   9.449   7.585  0.0613  0.9344  0.0815
  830MOL0     C14470   4.948   9.578   7.573 -0.6592 -0.3936 -0.1086
  830MOL0     H14471   4.795   9.787   7.882  2.1584 -1.0510  2.3890
  830MOL0     H14472   4.697   9.995   8.008 -0.3798  0.3359 -0.8697
  830MOL0     H14473   4.352   9.980   8.265 -0.5186  2.6973  1.1060
  830MOL0     H14474   4.251   9.970   8.116  0.3963  0.5849  0.8507
  830MOL0     H14475   4.272  10.202   8.076 -2.2733  0.8337  0.6387
  830MOL0     H14476   4.215  10.156   8.239  2.4527 -0.7919  1.4250
  830MOL0     H14477   4.491  10.273   8.159 -0.5932  0.0024 -0.4274
  830MOL0     H14478   4.368  10.344   8.268 -1.3158  0.9647 -0.6171
  830MOL0     H14479   4.422  10.174   8.439  2.4485 -3.7304  0.1829
  830MOL0     H14480   4.537  10.102   8.337  1.4466  0.8181 -1.4305
  830MOL0     H14481   4.518  10.392   8.417  0.5085  1.5585 -0.2344
  830MOL0     H14482   4.649  10.336   8.313 -1.4119  3.7857  0.3627
  830MOL0     H14483   4.597  10.233   8.600 -1.7992 -1.1780 -3.7176
  830MOL0     H14484   4.734  10.187   8.512  0.3249  0.3610 -0.1990
  830MOL0     H14485   4.691  10.492   8.566 -1.1829 -1.0088 -1.2502
  830MOL0     H14486   4.825  10.402   8.485 -1.6221 -1.6332 -0.7372
  830MOL0     H14487   4.842  10.495   8.742 -1.3269  1.0879 -0.2498
  830MOL0     H14488   4.737  10.355   8.777  1.5909  0.0911  0.6381
  830MOL0     H14489   5.104  10.432   8.688  0.2166  0.6160  1.6091
  830MOL0     H14490   5.299  10.255   8.699 -1.3264  0.1301 -0.5054
  830MOL0     H14491   5.282  10.098   8.749 -0.4023 -0.3681  1.6929
  830MOL0     H14492   5.397  10.234   8.937 -0.5697  2.6234 -0.1503
  830MOL0     H14493   5.248  10.298   8.970  0.6487 -0.5086  3.3126
  830MOL0     H14494   5.305  10.105   9.110  0.4313 -0.5539 -0.7770
  830MOL0     H14495   5.143  10.093   9.021  0.1780  0.1487 -1.8661
  830MOL0     H14496   5.233   9.915   8.879  0.5981 -0.9151 -0.0544
  830MOL0     H14497   5.392   9.964   8.930  0.8001 -1.0349 -0.4886
  830MOL0     H14498   5.217   9.728   9.293  0.7863  0.2377  1.1678
  830MOL0     H14499   5.117   9.665   9.477  0.2676 -2.1503 -0.9156
  830MOL0     H14500   4.948   9.621   9.461  2.1478 -0.7171  0.3045
  830MOL0     H14501   4.992   9.772   9.529  2.1744 -1.7520  2.4039
  830MOL0     H14502   4.483   9.829   9.381  1.2513 -0.1059 -2.7980
  830MOL0     H14503   4.314   9.763   9.522  0.7142  1.6916 -0.9106
  830MOL0     H14504   4.273   9.668   9.750 -2.6398  1.1486  1.8071
  830MOL0     H14505   4.134   9.648   9.645  3.3520  3.8307  0.7039
  830MOL0     H14506   4.147   9.420   9.819  0.0797 -0.3244  0.8022
  830MOL0     H14507   4.242   9.540   9.896 -0.0123 -1.7656 -0.1221
  830MOL0     H14508   3.952   9.605   9.810 -0.3029 -4.1642 -1.0862
  830MOL0     H14509   4.068   9.703   9.895 -0.3594  0.6911  1.0821
  830MOL0     H14510   4.063   9.533  10.089 -1.2550 -2.3005  0.7094
  830MOL0     H14511   3.940   9.438  10.004 -1.5883  0.9382  0.5275
  830MOL0     H14512   3.877   9.731  10.050 -1.5206  0.1589  1.1783
  830MOL0     H14513   3.789   9.574  10.001  1.8654 -1.8211 -1.8193
  830MOL0     H14514   3.915   9.607  10.276  0.4079  3.0651 -2.5815
  830MOL0     H14515   3.791   9.489  10.228  2.4312 -1.0502  0.8115
  830MOL0     H14516   3.756   9.782  10.274  1.1883 -1.9968  2.6648
  830MOL0     H14517   3.667   9.638  10.335 -2.0433  2.9722  1.5932
  830MOL0     H14518   3.607   9.776  10.074 -3.4965  2.7154 -0.4553
  830MOL0     H14519   3.510   9.752  10.219  0.3106 -3.2935  2.2605
  830MOL0     H14520   4.458   9.343   9.481 -1.5951 -1.7378 -2.5610
  830MOL0     H14521   4.623   9.415   9.349 -0.7743 -2.0779  1.9744
  830MOL0     H14522   4.816   9.901   9.071 -0.2732 -0.6769 -0.7468
  830MOL0     H14523   5.014   9.920   8.970 -0.4624 -0.1383  1.2181
  830MOL0     H14524   4.324   9.802   8.035  0.3609 -0.8745 -0.8227
  830MOL0     H14525   4.436   9.588   7.921  1.3360  0.5608 -3.0757
  830MOL0     H14526   4.556   9.342   7.704  1.0094  2.3419  2.1294
  830MOL0     H14527   4.634   9.134   7.565  1.7745 -0.8930  0.0474
  830MOL0     H14528   4.993   8.966   7.420 -1.5574 -0.3631  0.4801
  830MOL0     H14529   5.058   9.123   7.444 -1.6773  1.3082  1.0337
  830MOL0     H14530   4.885   9.048   7.665 -0.5146  0.5566 -0.7639
  830MOL0     H14531   5.038   9.131   7.657 -1.5492  0.3334 -0.7248
  830MOL0     H14532   5.144   8.884   7.611 -1.4152 -0.9366 -2.0484
  830MOL0     H14533   5.083   8.908   7.761 -1.1202  3.4286  0.9496
  830MOL0     H14534   4.891   8.766   7.579 -1.3269  0.0178  1.5458
  830MOL0     H14535   4.924   8.763   7.748  0.1576  1.8182  0.2939
  830MOL0     H14536   5.201   8.474   7.619  0.3076  0.3156  1.3430
  830MOL0     H14537   4.987   9.338   7.459 -0.0334 -1.2862  0.4783
  830MOL0     H14538   4.922   9.649   7.652 -2.1229 -0.7829 -0.2136
  830MOL0     H14539   5.055   9.555   7.574 -0.7285 -0.8335 -1.1802
  830MOL0     H14540   4.932   9.624   7.475  0.8523 -0.3522 -0.3504
  831MOL0     O14541   3.514   6.323   4.087 -1.2055  0.4761 -0.1377
  831MOL0     C14542   3.622   6.325   4.126 -0.5461 -0.0408 -0.2272
  831MOL0     O14543   3.716   6.235   4.086  0.1501  0.0480 -0.6358
  831MOL0     C14544   3.679   6.124   4.014  0.6894 -0.7922 -0.1733
  831MOL0     C14545   3.637   6.009   4.077 -0.3978  0.3570  0.7938
  831MOL0     C14546   3.613   5.895   3.997  0.4657  0.6150  0.7788
  831MOL0     C14547   3.646   5.898   3.861  0.2927  0.7351  0.5636
  831MOL0     O14548   3.639   5.779   3.786 -0.3934 -0.3611 -0.7790
  831MOL0     C14549   3.714   5.661   3.826  0.0949  0.0112  0.2946
  831MOL0     C14550   3.715   5.582   3.691  0.0150 -1.0978 -0.8877
  831MOL0     C14551   3.794   5.654   3.586 -0.9114  0.2366 -0.3048
  831MOL0     C14552   3.922   5.584   3.538 -0.0274 -0.9201  0.0534
  831MOL0     C14553   3.922   5.569   3.381 -0.7238 -0.0466  1.0770
  831MOL0     C14554   4.058   5.535   3.317  0.6121  0.4078 -0.1367
  831MOL0     C14555   4.050   5.527   3.172 -0.1782 -0.0756 -0.3264
  831MOL0     C14556   4.045   5.665   3.109 -0.8885  0.0229 -0.8323
  831MOL0     N14557   4.170   5.744   3.102  0.0985  0.3852 -0.2908
  831MOL0     C14558   4.286   5.679   3.097  0.4427  0.5760  0.7672
  831MOL0     C14559   4.381   5.766   3.132 -0.2660 -0.0134  0.1933
  831MOL0     C14560   4.523   5.727   3.151  0.0026  0.3380 -0.1271
  831MOL0     C14561   4.560   5.721   3.297 -0.1690  0.3566  1.2534
  831MOL0     C14562   4.692   5.655   3.320  0.4760 -0.4706  0.2741
  831MOL0     C14563   4.754   5.675   3.455  0.5491 -0.2364 -0.9217
  831MOL0     O14564   4.709   5.580   3.552 -0.0985 -0.3392 -0.0049
  831MOL0     C14565   4.764   5.569   3.674 -0.4276  0.4229 -1.0196
  831MOL0     C14566   4.715   5.474   3.762  0.3204  1.0359 -1.1758
  831MOL0     C14567   4.762   5.447   3.896  0.0180 -0.0475 -0.4962
  831MOL0     C14568   4.671   5.352   3.988 -0.2272  0.4608  0.0436
  831MOL0     C14569   4.867   5.518   3.943  0.8954 -0.8740 -0.2193
  831MOL0     C14570   4.913   5.521   4.086 -0.2051 -0.1632  1.0972
  831MOL0     O14571   5.025   5.595   4.092 -0.1155 -0.7860 -0.7363
  831MOL0     C14572   5.101   5.602   4.209 -0.1951 -0.5226 -0.2900
  831MOL0     C14573   5.048   5.605   4.337  0.3229 -1.4683 -0.9420
  831MOL0     C14574   5.134   5.630   4.449  0.6363  0.9090  0.0553
  831MOL0     C14575   5.269   5.657   4.436 -0.5458 -0.7798  0.6355
  831MOL0     O14576   5.340   5.698   4.540  0.5040 -0.6937  0.3140
  831MOL0     C14577   5.320   5.837   4.561  0.5250 -0.4793 -0.2407
  831MOL0     C14578   5.438   5.938   4.548 -0.3420 -0.0751  0.2683
  831MOL0     C14579   5.553   5.892   4.639 -0.2924  0.1871 -0.8066
  831MOL0     C14580   5.662   6.003   4.665 -0.1685 -0.8087 -1.4348
  831MOL0     C14581   5.777   5.955   4.761  0.5555  0.2773  0.1836
  831MOL0     C14582   5.717   5.888   4.890 -0.3873  0.3684  0.3877
  831MOL0     C14583   5.823   5.861   5.000  0.1876  0.7729  0.3746
  831MOL0     C14584   5.961   5.921   4.982  0.1285 -0.5068  0.1246
  831MOL0    Cl14585   6.066   5.919   5.132 -0.0734 -0.1528 -0.0827
  831MOL0     C14586   5.317   5.658   4.306 -0.8232 -0.0487 -0.6563
  831MOL0     C14587   5.239   5.634   4.198 -0.5292 -0.6330 -0.1732
  831MOL0     O14588   4.877   5.435   4.160 -0.0009  0.3718  0.8731
  831MOL0     C14589   4.925   5.614   3.845  1.2043 -0.1901 -0.1625
  831MOL0     C14590   4.877   5.635   3.717  0.0767  0.3919 -0.0963
  831MOL0     N14591   4.319   5.890   3.148 -0.3953  0.1666 -0.0593
  831MOL0     N14592   4.191   5.877   3.140 -0.2543  0.1917  0.7347
  831MOL0     C14593   3.664   6.015   3.794 -0.1661 -0.1341 -0.0585
  831MOL0     C14594   3.675   6.131   3.873  0.5149 -0.1824 -0.1972
  831MOL0     C14595   3.670   6.449   4.191  0.5949  0.1394  0.1416
  831MOL0     C14596   3.605   6.496   4.303 -0.4469 -0.5513  0.0489
  831MOL0     C14597   3.635   6.621   4.365 -0.1794 -0.8001 -0.2753
  831MOL0     C14598   3.741   6.694   4.320 -0.3854 -0.6809 -0.1941
  831MOL0     O14599   3.788   6.806   4.381 -0.3556  0.0761 -0.1431
  831MOL0     C14600   3.737   6.858   4.502  1.0401  0.1559  0.7660
  831MOL0     C14601   3.821   6.975   4.550  0.4744 -0.5067 -0.5784
  831MOL0     C14602   3.761   7.039   4.680  0.0539  0.4904  0.1286
  831MOL0     C14603   3.611   7.064   4.681 -0.0664  0.0696 -0.8468
  831MOL0     C14604   3.564   7.149   4.570  0.5336 -0.1174  0.5833
  831MOL0     C14605   3.526   7.217   4.476  0.2728 -0.5255  0.4794
  831MOL0     C14606   3.801   6.649   4.201  0.2525  0.1036 -0.8743
  831MOL0     C14607   3.760   6.536   4.135 -0.1760 -1.6987  0.9042
  831MOL0     C14608   3.829   6.504   4.008 -1.0030  0.2709 -0.9770
  831MOL0     H14609   3.663   5.986   4.180  2.0940 -2.6249 -0.3177
  831MOL0     H14610   3.587   5.799   4.041 -0.3471  1.2523  1.7479
  831MOL0     H14611   3.659   5.608   3.904 -0.7608 -0.6166 -0.7069
  831MOL0     H14612   3.814   5.701   3.848  1.8064 -3.4578 -0.5326
  831MOL0     H14613   3.745   5.480   3.716  0.4446 -0.1392  3.2270
  831MOL0     H14614   3.610   5.571   3.661 -0.5559  0.2618  0.4487
  831MOL0     H14615   3.735   5.667   3.494 -0.5078  1.2053 -0.4330
  831MOL0     H14616   3.831   5.751   3.618 -0.9554  0.1758 -0.0742
  831MOL0     H14617   4.010   5.641   3.569 -1.5725  0.2992  2.6346
  831MOL0     H14618   3.938   5.483   3.579 -0.0188  0.0584  2.6867
  831MOL0     H14619   3.899   5.661   3.325  0.2211 -2.1059 -3.0731
  831MOL0     H14620   3.845   5.500   3.345 -1.3665  0.7527  0.8663
  831MOL0     H14621   4.134   5.607   3.352 -0.4372  0.9717  1.0203
  831MOL0     H14622   4.084   5.438   3.361 -1.4460  0.0316  0.3107
  831MOL0     H14623   3.961   5.480   3.130  1.6658 -2.8477 -1.4040
  831MOL0     H14624   4.122   5.456   3.131 -0.8750 -1.7330  1.1654
  831MOL0     H14625   3.999   5.654   3.011 -0.5289  2.4053 -1.3268
  831MOL0     H14626   3.980   5.736   3.161  0.7358  0.7296  0.3266
  831MOL0     H14627   4.291   5.570   3.091 -1.2028  0.5394 -1.0465
  831MOL0     H14628   4.585   5.808   3.110  2.7158 -1.6276 -0.1891
  831MOL0     H14629   4.548   5.632   3.102 -2.1435  0.1778 -1.0106
  831MOL0     H14630   4.565   5.823   3.336 -1.2196  0.5897  0.8009
  831MOL0     H14631   4.476   5.668   3.342 -1.0378  1.2356  0.6787
  831MOL0     H14632   4.689   5.545   3.319  2.4030 -0.5659  1.0105
  831MOL0     H14633   4.761   5.679   3.239 -0.9376 -1.8685 -1.4385
  831MOL0     H14634   4.863   5.667   3.447  1.2363  3.0032  2.7256
  831MOL0     H14635   4.740   5.779   3.485  3.7089  0.1692 -0.4689
  831MOL0     H14636   4.628   5.425   3.719 -0.1353  2.9212 -2.5384
  831MOL0     H14637   4.733   5.270   4.025 -1.1321 -0.0231  0.5259
  831MOL0     H14638   4.586   5.304   3.938  0.6941 -3.4441  1.8564
  831MOL0     H14639   4.632   5.402   4.077 -0.6291  3.5579 -1.7186
  831MOL0     H14640   4.942   5.588   4.354 -0.4153  2.9107  0.2568
  831MOL0     H14641   5.091   5.639   4.549 -0.5988 -0.1121 -0.3633
  831MOL0     H14642   5.242   5.874   4.495  2.8899  2.0509 -1.8629
  831MOL0     H14643   5.280   5.862   4.660 -2.6225 -1.1727 -1.2606
  831MOL0     H14644   5.475   5.947   4.446 -0.5374  0.3664  0.2348
  831MOL0     H14645   5.416   6.041   4.578  1.6685  0.1242  1.2452
  831MOL0     H14646   5.600   5.804   4.593  0.7846  0.9451 -1.1832
  831MOL0     H14647   5.503   5.851   4.727 -1.1411 -3.0773 -2.6355
  831MOL0     H14648   5.610   6.087   4.711 -0.7401 -1.9408  0.0951
  831MOL0     H14649   5.704   6.040   4.571  1.8070 -0.9188 -0.6546
  831MOL0     H14650   5.837   5.878   4.711  1.3051 -0.8563  2.6856
  831MOL0     H14651   5.845   6.038   4.779  2.7446 -1.5553  0.7405
  831MOL0     H14652   5.665   5.794   4.867  1.8454 -0.7261 -0.5131
  831MOL0     H14653   5.645   5.962   4.924 -1.1462 -0.0058 -0.3756
  831MOL0     H14654   5.848   5.755   5.004  1.5601  1.1138  3.2795
  831MOL0     H14655   5.777   5.901   5.091 -1.7268  2.0429 -1.0597
  831MOL0     H14656   5.950   6.022   4.942 -0.3565  0.0622  1.6336
  831MOL0     H14657   6.028   5.877   4.907  3.8153  0.0981  2.7964
  831MOL0     H14658   5.424   5.663   4.286 -0.2741  0.0313  1.9671
  831MOL0     H14659   5.287   5.641   4.101  1.4939 -2.0668  0.6642
  831MOL0     H14660   5.010   5.679   3.868  1.4868 -1.5879  3.5173
  831MOL0     H14661   4.916   5.710   3.648 -3.4979  0.2836 -2.4933
  831MOL0     H14662   3.652   6.011   3.686 -2.8649  1.2838  0.0913
  831MOL0     H14663   3.692   6.226   3.824  1.3130 -0.1670  0.0951
  831MOL0     H14664   3.524   6.435   4.344 -0.1984  0.3923  2.0874
  831MOL0     H14665   3.576   6.658   4.448 -0.7142 -1.0852 -0.5233
  831MOL0     H14666   3.637   6.891   4.472  1.0848  0.0947  0.5481
  831MOL0     H14667   3.735   6.774   4.572 -1.7080 -0.8718 -0.3775
  831MOL0     H14668   3.805   7.056   4.478 -2.8825 -1.3796 -0.9613
  831MOL0     H14669   3.926   6.949   4.568  0.0482 -2.2275 -0.4701
  831MOL0     H14670   3.783   6.984   4.772 -1.7708 -0.1148  0.2580
  831MOL0     H14671   3.814   7.133   4.700  0.8994 -0.3766  2.2681
  831MOL0     H14672   3.583   7.119   4.772 -3.5329 -2.3054 -0.3102
  831MOL0     H14673   3.573   6.962   4.674  1.1534 -0.6603  1.7335
  831MOL0     H14674   3.485   7.260   4.387 -1.4536 -1.1074  0.9559
  831MOL0     H14675   3.892   6.699   4.170 -0.4710  0.4317 -2.6209
  831MOL0     H14676   3.839   6.398   3.985 -1.6914  0.3713 -1.7510
  831MOL0     H14677   3.774   6.545   3.923 -3.4952 -1.4596 -0.3190
  831MOL0     H14678   3.924   6.557   4.004 -0.6817 -0.2587 -0.5490
  832MOL0     O14679   5.686   7.676   1.510 -0.1474  0.9225  0.2460
  832MOL0     C14680   5.742   7.695   1.408  0.0280  0.9820  0.2671
  832MOL0     O14681   5.733   7.806   1.340  0.3088  0.0173 -0.4390
  832MOL0     C14682   5.661   7.912   1.385 -0.3986 -0.2022  0.4861
  832MOL0     C14683   5.610   7.992   1.281  0.5091  0.0238 -0.1794
  832MOL0     C14684   5.555   8.124   1.307 -0.6972 -0.7982  0.6872
  832MOL0     C14685   5.541   8.166   1.436 -0.1024 -0.4678  0.4279
  832MOL0     O14686   5.475   8.290   1.444 -0.9142 -0.1999 -0.9459
  832MOL0     C14687   5.500   8.360   1.577  0.1639 -0.5495  0.9537
  832MOL0     C14688   5.405   8.478   1.592  0.2049  0.5546  0.3490
  832MOL0     C14689   5.259   8.428   1.564 -0.2277  0.6230 -0.7700
  832MOL0     C14690   5.171   8.492   1.662  0.1088 -0.0912  0.4169
  832MOL0     C14691   5.026   8.454   1.665 -0.8405 -0.3312 -0.6453
  832MOL0     C14692   4.924   8.527   1.583 -0.8047 -1.4566 -0.6179
  832MOL0     C14693   4.787   8.466   1.591  0.8545  1.0988  0.7933
  832MOL0     C14694   4.677   8.538   1.676 -0.1467 -0.9178  0.9439
  832MOL0     N14695   4.649   8.681   1.638 -0.4196  0.2017  0.3620
  832MOL0     C14696   4.610   8.727   1.511  0.4400  0.7851  0.1282
  832MOL0     C14697   4.648   8.852   1.513 -0.7760  0.4782 -0.5517
  832MOL0     C14698   4.629   8.937   1.394 -0.3218  0.6437 -0.5429
  832MOL0     C14699   4.704   8.896   1.253  0.1633 -0.5911 -0.2297
  832MOL0     C14700   4.655   8.957   1.126  0.4448  0.1897 -0.7814
  832MOL0     C14701   4.519   8.918   1.064  0.4434  0.2413 -0.4278
  832MOL0     O14702   4.530   8.780   1.017 -0.0882 -0.1199  1.2317
  832MOL0     C14703   4.477   8.667   1.081 -0.1535 -0.4717  0.7311
  832MOL0     C14704   4.367   8.679   1.172 -0.1443 -0.4143  0.4535
  832MOL0     C14705   4.326   8.568   1.255  0.6549 -0.5970 -0.3266
  832MOL0     C14706   4.219   8.588   1.359  0.8253  0.4010  1.0563
  832MOL0     C14707   4.396   8.450   1.246 -0.1729  0.0476 -0.4741
  832MOL0     C14708   4.357   8.336   1.328 -0.1755 -0.3034 -0.3797
  832MOL0     O14709   4.429   8.331   1.443 -0.1018 -0.1405  0.3276
  832MOL0     C14710   4.390   8.256   1.553  0.6733  0.1783 -0.7193
  832MOL0     C14711   4.266   8.257   1.631 -0.2300 -0.4250  1.5026
  832MOL0     C14712   4.248   8.181   1.744  1.5807  0.1666  0.3449
  832MOL0     C14713   4.348   8.096   1.794  0.2224  1.2740  0.2422
  832MOL0     O14714   4.331   8.020   1.906 -0.2841 -0.4162 -0.1802
  832MOL0     C14715   4.314   8.096   2.032  0.2359 -0.3379 -0.2664
  832MOL0     C14716   4.443   8.167   2.065  0.4510  0.3265  0.5281
  832MOL0     C14717   4.436   8.319   2.041 -0.2871 -0.4047  0.7447
  832MOL0     C14718   4.360   8.382   2.161  0.6610  0.6630 -0.4675
  832MOL0     C14719   4.294   8.513   2.110 -1.1200  0.1604 -0.5565
  832MOL0     C14720   4.160   8.477   2.047  0.6807  0.4653  0.8979
  832MOL0     C14721   4.042   8.558   2.116 -0.0701  0.6773  0.7388
  832MOL0     C14722   3.892   8.512   2.071 -0.0297  0.1838  0.5267
  832MOL0    Cl14723   3.850   8.347   2.124  0.0741 -0.3015  0.2113
  832MOL0     C14724   4.462   8.087   1.723 -0.5736 -0.4190  0.7917
  832MOL0     C14725   4.486   8.173   1.609 -0.0866 -0.6798  0.0844
  832MOL0     O14726   4.263   8.256   1.299 -0.1005  0.0868  0.5716
  832MOL0     C14727   4.508   8.430   1.156  0.3004 -0.5919 -0.2922
  832MOL0     C14728   4.542   8.546   1.073 -0.4596  0.7960 -0.0710
  832MOL0     N14729   4.695   8.888   1.635  0.1010  0.5673  0.9304
  832MOL0     N14730   4.704   8.784   1.712  0.3990  0.0791  0.6800
  832MOL0     C14731   5.587   8.090   1.539 -0.7980  0.6427  0.2406
  832MOL0     C14732   5.635   7.954   1.518  0.8517  0.4197 -0.4199
  832MOL0     C14733   5.814   7.583   1.338  0.2371 -0.0812 -0.3613
  832MOL0     C14734   5.903   7.617   1.237 -0.5940 -0.3078  0.0181
  832MOL0     C14735   5.978   7.523   1.172  0.1555  0.4498 -0.5625
  832MOL0     C14736   5.973   7.389   1.204 -0.4697  0.0116 -0.2824
  832MOL0     O14737   6.039   7.285   1.129  0.6469  0.0221 -0.4501
  832MOL0     C14738   6.083   7.306   0.993 -0.3534  0.3731 -0.9907
  832MOL0     C14739   5.973   7.336   0.888 -0.2120 -0.4817  0.4994
  832MOL0     C14740   5.855   7.237   0.883  0.0159 -0.7499  0.5308
  832MOL0     C14741   5.739   7.281   0.964 -0.5393 -0.2345 -0.6570
  832MOL0     C14742   5.632   7.188   0.938 -0.3209 -0.1586 -0.9034
  832MOL0     C14743   5.544   7.100   0.932  0.7770 -0.1089 -0.2129
  832MOL0     C14744   5.893   7.351   1.314 -0.8517 -0.2348  0.4627
  832MOL0     C14745   5.811   7.445   1.386  0.0685 -0.3671 -0.1038
  832MOL0     C14746   5.740   7.392   1.510 -0.0199  0.7564  0.6277
  832MOL0     H14747   5.626   7.970   1.176  0.0895  2.1707 -0.7450
  832MOL0     H14748   5.528   8.185   1.221  3.3444  0.7320  0.2935
  832MOL0     H14749   5.606   8.375   1.599  0.2401 -2.9355  2.6285
  832MOL0     H14750   5.472   8.299   1.663 -2.4642  1.3411  1.5825
  832MOL0     H14751   5.414   8.517   1.694 -1.5043 -0.6547  1.0228
  832MOL0     H14752   5.429   8.556   1.520 -0.6186  1.9672  1.5384
  832MOL0     H14753   5.241   8.467   1.463  1.8265 -0.2937 -1.5376
  832MOL0     H14754   5.248   8.319   1.561  2.1386  0.3069  0.1670
  832MOL0     H14755   5.217   8.473   1.760 -2.2230 -0.3310  1.5343
  832MOL0     H14756   5.183   8.600   1.646  1.8663 -0.4447 -0.8698
  832MOL0     H14757   4.988   8.462   1.768 -1.8553 -2.3202 -0.8043
  832MOL0     H14758   5.017   8.347   1.643 -0.5888 -0.6143  0.5281
  832MOL0     H14759   4.917   8.634   1.607 -2.5771 -1.3740 -1.3577
  832MOL0     H14760   4.952   8.520   1.477 -1.8575  1.9387 -1.2587
  832MOL0     H14761   4.797   8.375   1.650 -3.5022  0.1364  0.4119
  832MOL0     H14762   4.744   8.436   1.494 -2.3402  0.0010  2.4019
  832MOL0     H14763   4.583   8.483   1.668  1.1114 -2.9552 -1.0296
  832MOL0     H14764   4.719   8.543   1.777  0.6632  0.6755  0.5590
  832MOL0     H14765   4.587   8.662   1.427 -2.4572  1.8361 -0.0142
  832MOL0     H14766   4.643   9.044   1.413 -0.4560  0.4346  0.8183
  832MOL0     H14767   4.521   8.924   1.386 -0.1403 -0.9672 -0.7227
  832MOL0     H14768   4.809   8.927   1.258 -0.2122  1.9367 -3.8077
  832MOL0     H14769   4.695   8.787   1.249 -3.3722 -0.4432  0.4847
  832MOL0     H14770   4.656   9.065   1.144  1.6593  0.3184 -1.5184
  832MOL0     H14771   4.724   8.939   1.043 -0.7988  0.0589 -1.8157
  832MOL0     H14772   4.444   8.932   1.142 -0.6959  0.1212 -1.4575
  832MOL0     H14773   4.504   8.985   0.978 -0.0138 -1.6357 -1.8812
  832MOL0     H14774   4.324   8.778   1.189  0.7099 -0.1683  1.3341
  832MOL0     H14775   4.160   8.496   1.361 -1.8343  1.9836  2.8292
  832MOL0     H14776   4.155   8.674   1.335  1.5205  0.6992  0.2447
  832MOL0     H14777   4.256   8.597   1.462 -1.4317 -0.8242  2.0438
  832MOL0     H14778   4.177   8.312   1.599  1.7902  0.6866 -3.0553
  832MOL0     H14779   4.164   8.179   1.814  0.8108  0.4235 -0.5486
  832MOL0     H14780   4.227   8.160   2.046  0.0584 -0.9054  1.3146
  832MOL0     H14781   4.312   8.017   2.108  0.8447  1.7843  2.0821
  832MOL0     H14782   4.463   8.145   2.171  0.1341  0.7284  0.6744
  832MOL0     H14783   4.524   8.118   2.009  0.4585  1.8240 -0.8354
  832MOL0     H14784   4.386   8.339   1.946  0.4465  3.4264  0.9994
  832MOL0     H14785   4.537   8.360   2.033  0.2479 -1.9131 -0.8546
  832MOL0     H14786   4.436   8.412   2.234 -1.2800  4.2966  0.2985
  832MOL0     H14787   4.294   8.307   2.204  1.5451 -1.2939 -2.3244
  832MOL0     H14788   4.294   8.585   2.192  0.9551 -0.4212  0.0163
  832MOL0     H14789   4.355   8.565   2.034 -2.1969  3.3951  0.6240
  832MOL0     H14790   4.143   8.370   2.063  3.3010 -0.9741 -3.9668
  832MOL0     H14791   4.164   8.492   1.939 -1.1504  2.4361  1.0462
  832MOL0     H14792   4.050   8.662   2.082  1.0664 -0.1298 -1.6813
  832MOL0     H14793   4.055   8.553   2.225  2.4133 -0.9867  0.4503
  832MOL0     H14794   3.863   8.539   1.969  0.7553 -0.6940  0.0534
  832MOL0     H14795   3.839   8.584   2.133  0.9314  0.9676  0.4596
  832MOL0     H14796   4.546   8.022   1.747 -0.8360 -1.4359 -0.8451
  832MOL0     H14797   4.580   8.167   1.556 -0.4065  5.2006 -1.8889
  832MOL0     H14798   4.568   8.341   1.143  2.1729  0.3266  1.5650
  832MOL0     H14799   4.627   8.538   1.005 -0.9915  2.8362 -1.0693
  832MOL0     H14800   5.581   8.118   1.644  1.7431 -1.6568  1.1142
  832MOL0     H14801   5.645   7.905   1.615  0.8626 -0.3337 -0.7961
  832MOL0     H14802   5.909   7.717   1.197 -0.4992  0.2700  1.4271
  832MOL0     H14803   6.049   7.546   1.094 -0.9517 -0.7326 -1.9793
  832MOL0     H14804   6.157   7.386   0.980 -0.0994 -0.1820 -3.5966
  832MOL0     H14805   6.139   7.218   0.960 -0.2343  1.0950 -2.8350
  832MOL0     H14806   6.028   7.333   0.794  1.3748 -0.2420  1.3951
  832MOL0     H14807   5.931   7.437   0.897 -0.1101 -0.2967 -0.8783
  832MOL0     H14808   5.827   7.240   0.777 -0.6046 -0.0935  0.7072
  832MOL0     H14809   5.900   7.141   0.911  2.0090  0.0625  0.3296
  832MOL0     H14810   5.707   7.382   0.937  0.9049  0.1707 -0.9146
  832MOL0     H14811   5.763   7.283   1.071  3.0333  4.0596 -1.2645
  832MOL0     H14812   5.470   7.023   0.919  2.8162 -2.3373  0.5811
  832MOL0     H14813   5.894   7.245   1.339 -1.5085 -0.9860 -2.3314
  832MOL0     H14814   5.766   7.287   1.524  1.8909  1.0918 -0.1543
  832MOL0     H14815   5.775   7.440   1.602  0.3963 -0.9988  1.4169
  832MOL0     H14816   5.632   7.393   1.491  0.3170  2.0325 -1.6725
  833MOL0     O14817   3.744   1.763   1.994  0.2243 -0.5852  0.2877
  833MOL0     C14818   3.858   1.779   2.044 -0.4514 -0.1037  0.5316
  833MOL0     O14819   3.889   1.859   2.149 -0.1878  1.0819  0.1807
  833MOL0     C14820   3.799   1.914   2.230 -0.1086  0.9419 -0.3944
  833MOL0     C14821   3.685   1.841   2.283 -0.4427  0.4338  0.5841
  833MOL0     C14822   3.605   1.904   2.379 -0.5722  0.0541  0.5798
  833MOL0     C14823   3.635   2.029   2.429  0.1624  1.1091 -0.2548
  833MOL0     O14824   3.559   2.076   2.525  0.0343  0.1699 -0.0240
  833MOL0     C14825   3.549   2.216   2.565  0.0220  1.8562  0.5529
  833MOL0     C14826   3.631   2.243   2.694  0.1154 -0.5050  0.3607
  833MOL0     C14827   3.618   2.135   2.798 -0.6431  0.5416  0.6536
  833MOL0     C14828   3.673   2.197   2.928 -0.1670  0.5346  0.0514
  833MOL0     C14829   3.630   2.101   3.043 -0.2036 -0.0309 -1.0844
  833MOL0     C14830   3.651   2.170   3.184 -0.3088 -0.7013  0.5274
  833MOL0     C14831   3.554   2.116   3.289  0.0292  0.5298 -1.0159
  833MOL0     C14832   3.558   2.190   3.427  0.1832  0.7832 -1.0799
  833MOL0     N14833   3.452   2.288   3.445 -0.1785 -0.7645 -0.3587
  833MOL0     C14834   3.472   2.422   3.418 -0.7543  0.5844 -0.5309
  833MOL0     C14835   3.364   2.472   3.482  1.0737 -0.3042 -0.7897
  833MOL0     C14836   3.331   2.625   3.483 -0.4667 -0.5012  1.2943
  833MOL0     C14837   3.314   2.688   3.630 -0.5818 -0.4379  0.7503
  833MOL0     C14838   3.333   2.840   3.614  0.2507  0.5340 -0.1926
  833MOL0     C14839   3.370   2.896   3.739 -0.5784  1.2431  0.0785
  833MOL0     O14840   3.381   3.040   3.735 -0.4456  0.1848 -0.0758
  833MOL0     C14841   3.501   3.087   3.793  0.4724  0.3568  0.8455
  833MOL0     C14842   3.511   3.159   3.910  0.6438 -0.2135 -0.9825
  833MOL0     C14843   3.628   3.211   3.970  0.7698  0.2516  0.1050
  833MOL0     C14844   3.621   3.277   4.104 -0.3272 -0.7735  0.0563
  833MOL0     C14845   3.747   3.191   3.895 -0.8896  0.2941 -0.8012
  833MOL0     C14846   3.882   3.251   3.929 -0.3110  0.6185  0.3516
  833MOL0     O14847   3.994   3.205   3.860  0.0996 -0.6368  0.6155
  833MOL0     C14848   4.117   3.234   3.914  0.8413  0.9495  0.6461
  833MOL0     C14849   4.178   3.141   3.993 -0.1100  0.1833 -0.1124
  833MOL0     C14850   4.309   3.156   4.054  0.5937 -0.3151  0.4934
  833MOL0     C14851   4.376   3.282   4.035 -0.5520 -0.3535 -0.1046
  833MOL0     O14852   4.484   3.324   4.108 -0.5262  0.4501 -0.7593
  833MOL0     C14853   4.589   3.228   4.138 -0.3423  0.4186  0.9189
  833MOL0     C14854   4.708   3.299   4.189 -1.4187  0.0181  0.8990
  833MOL0     C14855   4.803   3.208   4.264  0.7767  0.2147 -0.0585
  833MOL0     C14856   4.946   3.252   4.274 -0.5177  0.3185  0.1249
  833MOL0     C14857   5.046   3.148   4.322  0.5370 -0.2479  0.3932
  833MOL0     C14858   5.185   3.218   4.346 -0.4774  0.0290  1.2949
  833MOL0     C14859   5.292   3.112   4.405  0.5186 -0.2940  0.1315
  833MOL0     C14860   5.353   3.024   4.297 -0.3157  0.2939 -0.3654
  833MOL0    Cl14861   5.418   3.094   4.147 -0.0243 -0.0955 -0.0794
  833MOL0     C14862   4.315   3.376   3.952  0.1461 -0.2377  0.5337
  833MOL0     C14863   4.182   3.353   3.895 -0.6892  0.0584  0.0696
  833MOL0     O14864   3.881   3.346   4.012 -1.0105  0.4493 -0.0673
  833MOL0     C14865   3.744   3.123   3.770  0.4415 -1.1659  0.2629
  833MOL0     C14866   3.631   3.070   3.715  0.2648 -0.5785 -1.1375
  833MOL0     N14867   3.277   2.378   3.535  0.4933  0.6837 -0.7608
  833MOL0     N14868   3.340   2.263   3.517  0.9706  0.0126  0.0820
  833MOL0     C14869   3.747   2.102   2.381  0.7891 -0.4104 -0.4001
  833MOL0     C14870   3.832   2.048   2.277  0.0890  0.4570  0.8732
  833MOL0     C14871   3.965   1.699   1.985  0.5326 -0.6800  0.2133
  833MOL0     C14872   3.919   1.591   1.908 -0.6980 -0.5487  0.0550
  833MOL0     C14873   4.004   1.499   1.852 -0.1300  1.3572  0.0569
  833MOL0     C14874   4.143   1.503   1.884  0.9745 -0.3433 -0.0771
  833MOL0     O14875   4.231   1.413   1.834  0.0107  0.6000 -0.2903
  833MOL0     C14876   4.195   1.333   1.718 -0.5300 -0.2792  0.2867
  833MOL0     C14877   4.315   1.357   1.629 -0.7101  0.8878 -0.1571
  833MOL0     C14878   4.442   1.267   1.646 -0.0219  0.0137 -0.6926
  833MOL0     C14879   4.549   1.311   1.549 -1.0672 -0.4475 -0.1124
  833MOL0     C14880   4.650   1.200   1.535 -0.3914 -0.6885 -0.0155
  833MOL0     C14881   4.739   1.123   1.524 -0.2757  0.2719 -0.8329
  833MOL0     C14882   4.188   1.608   1.963  0.1734 -0.1465  0.4221
  833MOL0     C14883   4.103   1.715   2.010 -0.7629 -0.4128 -0.7561
  833MOL0     C14884   4.162   1.822   2.092  0.7453 -0.8075  0.5339
  833MOL0     H14885   3.670   1.742   2.241 -1.1176  1.0699 -0.7115
  833MOL0     H14886   3.510   1.857   2.404 -1.7003  1.4000 -0.9140
  833MOL0     H14887   3.444   2.230   2.593 -1.0106 -2.6968 -0.2148
  833MOL0     H14888   3.582   2.292   2.494 -2.2138  1.4042 -1.0736
  833MOL0     H14889   3.733   2.272   2.666 -0.8246  0.4046 -2.5114
  833MOL0     H14890   3.594   2.337   2.735  2.9383  2.2334 -2.8337
  833MOL0     H14891   3.512   2.110   2.803 -0.0906 -2.5489 -0.4537
  833MOL0     H14892   3.671   2.042   2.776  3.1577  2.5433  0.5278
  833MOL0     H14893   3.779   2.218   2.913 -0.7432  4.1309  0.2608
  833MOL0     H14894   3.613   2.288   2.941 -3.0579 -1.2381  0.1508
  833MOL0     H14895   3.689   2.009   3.040  1.6846  1.0437  0.5320
  833MOL0     H14896   3.527   2.075   3.021 -0.0142 -0.9035 -0.9705
  833MOL0     H14897   3.753   2.150   3.216  0.9728 -1.0061 -3.2776
  833MOL0     H14898   3.639   2.277   3.165  0.5001 -1.0659 -2.4651
  833MOL0     H14899   3.567   2.012   3.319  1.0677  1.7058  3.1716
  833MOL0     H14900   3.457   2.114   3.238  1.4367 -1.2751 -3.8969
  833MOL0     H14901   3.535   2.107   3.495 -0.4852  1.7159 -0.1450
  833MOL0     H14902   3.657   2.232   3.447  0.1822  0.3796 -0.1875
  833MOL0     H14903   3.555   2.469   3.367 -1.2198 -1.1756 -3.0910
  833MOL0     H14904   3.240   2.644   3.425 -0.0565 -3.1328 -0.3839
  833MOL0     H14905   3.412   2.673   3.427 -1.1307 -0.3751  0.4301
  833MOL0     H14906   3.212   2.671   3.666 -2.0808 -0.0635 -2.8156
  833MOL0     H14907   3.384   2.649   3.703 -0.7769 -1.7942  0.2326
  833MOL0     H14908   3.414   2.858   3.543  2.0050  0.6867  1.7626
  833MOL0     H14909   3.235   2.887   3.602 -1.4415 -2.0219  2.3048
  833MOL0     H14910   3.296   2.860   3.811  0.6059 -2.3303 -0.3251
  833MOL0     H14911   3.463   2.854   3.777  0.3119  3.6434  0.7581
  833MOL0     H14912   3.417   3.186   3.957  0.3007  0.1986 -1.8847
  833MOL0     H14913   3.685   3.223   4.174 -0.6750 -1.6928 -0.3232
  833MOL0     H14914   3.521   3.276   4.149  0.2116 -0.2715  1.3025
  833MOL0     H14915   3.662   3.377   4.089  1.4225 -1.8862 -3.8588
  833MOL0     H14916   4.120   3.051   4.013  1.0747 -0.3436  1.1196
  833MOL0     H14917   4.363   3.077   4.105  0.5681 -0.1519  0.7733
  833MOL0     H14918   4.557   3.144   4.201 -0.8559  1.3761  1.9696
  833MOL0     H14919   4.617   3.182   4.042  0.5818 -0.0634  1.4007
  833MOL0     H14920   4.770   3.345   4.111 -0.0041 -1.4119  1.1067
  833MOL0     H14921   4.675   3.377   4.257 -0.5988  1.6360 -0.4714
  833MOL0     H14922   4.799   3.115   4.207 -1.8429  0.5487 -0.5508
  833MOL0     H14923   4.766   3.174   4.362 -0.1072  2.2777  0.3827
  833MOL0     H14924   4.953   3.342   4.336  0.8852  0.7792 -0.6783
  833MOL0     H14925   4.977   3.285   4.175  0.5210  0.2774  0.4256
  833MOL0     H14926   5.003   3.095   4.407 -0.1695 -2.0335 -1.0096
  833MOL0     H14927   5.051   3.071   4.244 -0.1002 -1.8782  1.9021
  833MOL0     H14928   5.173   3.296   4.422 -0.3273  1.2354  0.1014
  833MOL0     H14929   5.235   3.267   4.262 -0.9137 -3.1605 -1.0181
  833MOL0     H14930   5.255   3.053   4.489  3.1009 -2.8638 -0.3500
  833MOL0     H14931   5.375   3.173   4.441 -0.9490  0.7436  1.9213
  833MOL0     H14932   5.277   2.953   4.264  0.2479 -0.7678  0.5466
  833MOL0     H14933   5.435   2.965   4.339  0.0040  2.2419  1.9920
  833MOL0     H14934   4.362   3.473   3.948 -0.0123 -0.1925 -0.9354
  833MOL0     H14935   4.139   3.434   3.838  0.7764  3.7746  3.7781
  833MOL0     H14936   3.834   3.106   3.711 -0.1655 -2.4756 -0.3193
  833MOL0     H14937   3.649   3.009   3.628  2.2977 -0.1446 -1.0547
  833MOL0     H14938   3.783   2.184   2.443  1.8717 -0.9294 -0.3217
  833MOL0     H14939   3.921   2.100   2.243 -0.7205  1.8179  0.7515
  833MOL0     H14940   3.814   1.568   1.892 -1.8116 -0.0648  4.9409
  833MOL0     H14941   3.956   1.422   1.792 -0.7855 -1.2860  3.5942
  833MOL0     H14942   4.166   1.228   1.734  1.3278 -0.7184  1.0579
  833MOL0     H14943   4.109   1.379   1.669 -0.2130  0.6160  0.5667
  833MOL0     H14944   4.355   1.459   1.624 -3.1399  2.0110  1.4652
  833MOL0     H14945   4.282   1.327   1.529 -0.0704 -1.5720  0.2859
  833MOL0     H14946   4.485   1.257   1.746  3.5148  2.3375 -1.7893
  833MOL0     H14947   4.420   1.162   1.621  0.2727  0.4606 -3.0785
  833MOL0     H14948   4.597   1.404   1.583  1.6993 -0.9738 -2.2357
  833MOL0     H14949   4.499   1.342   1.457  2.2499  1.1837 -1.5598
  833MOL0     H14950   4.812   1.045   1.514  2.2605  2.4743 -0.5882
  833MOL0     H14951   4.295   1.609   1.984  0.0645 -0.8938  1.0717
  833MOL0     H14952   4.121   1.923   2.078  1.7896 -0.3636  0.5140
  833MOL0     H14953   4.161   1.809   2.200 -0.5726  0.1557  0.6646
  833MOL0     H14954   4.267   1.833   2.064  0.5674  2.4469  0.7507
  834MOL0     O14955   5.004   8.261   4.736 -0.6316  0.8247  0.1351
  834MOL0     C14956   5.054   8.180   4.824 -0.8164 -0.3864 -0.0014
  834MOL0     O14957   5.187   8.143   4.829 -0.0209  0.3687 -0.5201
  834MOL0     C14958   5.266   8.247   4.796  0.6007 -0.2542 -0.5758
  834MOL0     C14959   5.325   8.324   4.903  0.3778  0.5515  0.2361
  834MOL0     C14960   5.398   8.441   4.875  0.2617 -0.2269  0.0400
  834MOL0     C14961   5.418   8.478   4.745 -0.4797  0.4521 -0.3800
  834MOL0     O14962   5.514   8.576   4.719  0.4531 -0.1319 -0.0591
  834MOL0     C14963   5.502   8.709   4.770  0.2735 -1.1258  0.0991
  834MOL0     C14964   5.591   8.794   4.670  0.3250  0.0639 -0.4621
  834MOL0     C14965   5.536   8.795   4.533  0.3531 -0.1139  0.6680
  834MOL0     C14966   5.627   8.849   4.429 -0.3531 -0.9093  0.2024
  834MOL0     C14967   5.566   8.834   4.294 -0.7048 -0.8739 -0.2627
  834MOL0     C14968   5.680   8.859   4.190  0.2303 -0.3573  0.4955
  834MOL0     C14969   5.629   8.836   4.047  0.1842  0.0422  0.1642
  834MOL0     C14970   5.750   8.858   3.948 -0.1143 -0.3025  0.4942
  834MOL0     N14971   5.724   8.837   3.804  0.0779  0.2037  0.2556
  834MOL0     C14972   5.812   8.806   3.705 -0.2835 -0.7818 -0.3842
  834MOL0     C14973   5.755   8.839   3.592 -0.0638  0.5592  0.0653
  834MOL0     C14974   5.824   8.834   3.458 -0.9883  0.6762  0.4121
  834MOL0     C14975   5.808   8.700   3.389 -0.6522  0.1588  0.0928
  834MOL0     C14976   5.860   8.722   3.246  0.4622 -0.2387 -0.5590
  834MOL0     C14977   5.889   8.594   3.179  0.7848 -0.2553  0.1833
  834MOL0     O14978   6.027   8.562   3.215 -0.9102  0.0713  0.2203
  834MOL0     C14979   6.066   8.432   3.201 -0.6635 -0.6747  0.6583
  834MOL0     C14980   6.002   8.327   3.254  0.1705  0.3260 -0.8106
  834MOL0     C14981   6.047   8.193   3.243 -0.0066 -0.6564  1.3429
  834MOL0     C14982   5.974   8.078   3.310  0.5233 -0.2324  0.3193
  834MOL0     C14983   6.175   8.165   3.184  0.6199  0.0549 -0.6559
  834MOL0     C14984   6.225   8.033   3.138  0.5181  0.8829  0.0404
  834MOL0     O14985   6.141   7.926   3.105  1.5030 -0.0630 -0.6047
  834MOL0     C14986   6.207   7.817   3.042 -0.0819  0.0159  0.1063
  834MOL0     C14987   6.238   7.823   2.907  0.2395  0.6729 -0.2189
  834MOL0     C14988   6.289   7.708   2.841 -0.1687 -0.4134  0.3257
  834MOL0     C14989   6.340   7.601   2.914  0.6960 -0.6065  0.3567
  834MOL0     O14990   6.381   7.475   2.864  0.4126  0.6587 -0.3784
  834MOL0     C14991   6.435   7.485   2.734 -0.8065 -0.7865  0.0478
  834MOL0     C14992   6.316   7.459   2.639 -0.0696 -0.2136  0.0268
  834MOL0     C14993   6.353   7.359   2.532 -1.0700  0.0692  0.2567
  834MOL0     C14994   6.464   7.402   2.430  0.1951  0.7724 -0.1337
  834MOL0     C14995   6.478   7.306   2.323 -0.8281 -0.8726 -0.0004
  834MOL0     C14996   6.512   7.170   2.372  0.4554 -0.0930  0.1637
  834MOL0     C14997   6.654   7.156   2.416 -0.1297 -0.0133 -0.0829
  834MOL0     C14998   6.708   7.017   2.446  0.8624  0.5092  0.1807
  834MOL0    Cl14999   6.635   6.970   2.608  0.0363  0.7049  0.0305
  834MOL0     C15000   6.324   7.610   3.055  0.2082  0.2768  0.3627
  834MOL0     C15001   6.253   7.711   3.113 -0.1402 -0.2059  0.0518
  834MOL0     O15002   6.345   8.021   3.145 -0.0036  0.0852 -0.1389
  834MOL0     C15003   6.249   8.280   3.158 -0.0751 -0.0936  0.1837
  834MOL0     C15004   6.203   8.410   3.165 -0.1234 -0.5705 -0.2119
  834MOL0     N15005   5.629   8.873   3.608  0.9197 -0.5581 -0.0396
  834MOL0     N15006   5.610   8.881   3.731  0.3620 -0.9788  0.1633
  834MOL0     C15007   5.354   8.406   4.642 -0.9117  0.7125 -0.1922
  834MOL0     C15008   5.277   8.289   4.673  0.1552  0.1433  0.2466
  834MOL0     C15009   4.955   8.093   4.882 -0.3757 -0.0584 -0.6975
  834MOL0     C15010   4.983   7.957   4.876  0.4536  0.1021  0.1858
  834MOL0     C15011   4.894   7.875   4.943  0.4275  0.9059  0.3269
  834MOL0     C15012   4.780   7.915   5.021 -0.8985  0.3557  0.4030
  834MOL0     O15013   4.714   7.817   5.099 -0.3360 -0.8466  0.0660
  834MOL0     C15014   4.589   7.847   5.152  0.2557 -0.8381 -0.2115
  834MOL0     C15015   4.595   7.901   5.296 -0.3665 -0.1683  0.2397
  834MOL0     C15016   4.663   7.809   5.394 -0.8130  0.9651 -0.3212
  834MOL0     C15017   4.819   7.826   5.401  0.1340  0.0893 -0.3566
  834MOL0     C15018   4.876   7.746   5.513  0.1848 -0.0764 -0.5964
  834MOL0     C15019   4.911   7.663   5.596  1.1400  0.7552 -1.0609
  834MOL0     C15020   4.752   8.048   5.010 -1.0200  0.3417  0.2845
  834MOL0     C15021   4.842   8.145   4.951  0.3515  0.1258 -0.0080
  834MOL0     C15022   4.790   8.290   4.948  0.9746 -0.0122 -0.0155
  834MOL0     H15023   5.300   8.292   5.004  0.0666  1.4133  0.4400
  834MOL0     H15024   5.424   8.517   4.948  0.9445 -1.2167  0.8554
  834MOL0     H15025   5.552   8.727   4.865 -0.8976  0.8076  0.4125
  834MOL0     H15026   5.406   8.761   4.781  0.7156 -0.4050  0.6420
  834MOL0     H15027   5.612   8.893   4.713  3.7878 -0.5413 -0.5230
  834MOL0     H15028   5.685   8.739   4.671  0.1330 -0.2722 -0.7195
  834MOL0     H15029   5.525   8.689   4.507  2.4632  0.0864 -1.3787
  834MOL0     H15030   5.443   8.852   4.534 -1.1847 -1.7993 -5.2599
  834MOL0     H15031   5.631   8.954   4.459  0.2550 -0.2053 -2.1461
  834MOL0     H15032   5.727   8.805   4.432 -0.4565 -1.1418  0.2591
  834MOL0     H15033   5.469   8.885   4.291 -1.0791 -1.5733 -0.3187
  834MOL0     H15034   5.540   8.730   4.271  1.8634 -1.1574 -2.4032
  834MOL0     H15035   5.722   8.960   4.199  2.6144 -1.3186  0.9471
  834MOL0     H15036   5.762   8.788   4.201 -1.7621 -3.0110 -0.6495
  834MOL0     H15037   5.550   8.907   4.022 -1.9180 -1.5863  1.7589
  834MOL0     H15038   5.591   8.735   4.030 -0.3226  0.3440 -0.5070
  834MOL0     H15039   5.779   8.959   3.977 -2.8329  0.4511  0.8978
  834MOL0     H15040   5.829   8.784   3.966 -0.4389 -1.5497 -2.7247
  834MOL0     H15041   5.912   8.767   3.717 -0.6348 -2.7020 -2.9448
  834MOL0     H15042   5.932   8.849   3.469  0.1433 -4.0139 -1.8342
  834MOL0     H15043   5.787   8.923   3.406 -0.9601 -0.5846 -1.9192
  834MOL0     H15044   5.864   8.616   3.431 -0.3341 -1.7908 -3.7675
  834MOL0     H15045   5.703   8.671   3.384 -0.8957  1.1779 -2.9363
  834MOL0     H15046   5.782   8.769   3.185  1.0391  0.4066 -0.8118
  834MOL0     H15047   5.951   8.783   3.241 -1.5253  2.9013 -1.6154
  834MOL0     H15048   5.817   8.517   3.206 -0.0428  0.8605  1.2665
  834MOL0     H15049   5.883   8.608   3.071  0.0491 -1.3863  0.0583
  834MOL0     H15050   5.919   8.342   3.323  0.8576  1.3411 -0.1774
  834MOL0     H15051   6.039   7.991   3.322 -0.3679 -1.9447 -4.8604
  834MOL0     H15052   5.889   8.053   3.245  0.6594  3.8018 -1.7334
  834MOL0     H15053   5.953   8.122   3.408  3.2777 -1.8202  1.7380
  834MOL0     H15054   6.210   7.911   2.850 -1.2280  0.7032  0.4828
  834MOL0     H15055   6.288   7.720   2.733 -0.8278 -1.6026  0.1861
  834MOL0     H15056   6.482   7.580   2.707  0.4200 -1.9110 -2.0481
  834MOL0     H15057   6.517   7.413   2.723 -0.8434 -0.6668 -1.0865
  834MOL0     H15058   6.223   7.429   2.688 -0.5030  1.7382  0.4479
  834MOL0     H15059   6.285   7.553   2.592  0.0287 -2.1451 -4.4759
  834MOL0     H15060   6.260   7.331   2.483 -2.6122  0.5798  2.7334
  834MOL0     H15061   6.393   7.272   2.586 -1.5891 -1.5146 -1.8210
  834MOL0     H15062   6.556   7.407   2.488  0.9817 -0.0939 -1.2653
  834MOL0     H15063   6.449   7.505   2.396  1.5297  1.2117  0.5617
  834MOL0     H15064   6.377   7.307   2.281 -0.1574 -0.2508 -1.7053
  834MOL0     H15065   6.554   7.343   2.253  1.3337 -2.6833  1.2518
  834MOL0     H15066   6.482   7.096   2.296 -3.7803 -0.3122  1.8091
  834MOL0     H15067   6.453   7.139   2.458 -1.0296  2.3881  0.1059
  834MOL0     H15068   6.675   7.213   2.507 -2.1657  0.1340  0.3340
  834MOL0     H15069   6.721   7.195   2.339  1.7831  0.0536  1.5206
  834MOL0     H15070   6.815   7.022   2.465  1.0233  0.0539 -0.5652
  834MOL0     H15071   6.680   6.941   2.371  0.8888  1.2891 -0.6368
  834MOL0     H15072   6.354   7.522   3.111  2.6131  0.5409 -0.4018
  834MOL0     H15073   6.234   7.715   3.220  2.9019 -0.9051  0.7080
  834MOL0     H15074   6.353   8.262   3.135  0.8858  0.7412  3.4104
  834MOL0     H15075   6.262   8.501   3.150 -2.7662  0.9769 -2.0428
  834MOL0     H15076   5.370   8.426   4.536 -2.3216  3.4238  0.0269
  834MOL0     H15077   5.238   8.228   4.593 -0.0247 -0.5875  0.8790
  834MOL0     H15078   5.066   7.915   4.818  1.2111  1.2155  0.4361
  834MOL0     H15079   4.909   7.768   4.936  2.0708  1.2009 -1.7668
  834MOL0     H15080   4.534   7.927   5.101 -0.9279 -2.0536 -0.8819
  834MOL0     H15081   4.537   7.751   5.143 -0.3330 -0.3679 -2.8375
  834MOL0     H15082   4.493   7.914   5.332  0.4621  0.4369  2.5081
  834MOL0     H15083   4.637   8.002   5.295 -2.3991  0.7863 -2.5478
  834MOL0     H15084   4.622   7.822   5.495  0.2113 -0.0748  0.2619
  834MOL0     H15085   4.654   7.704   5.367  0.1703  0.6761  0.4013
  834MOL0     H15086   4.846   7.932   5.405 -2.1937  0.6914  0.7415
  834MOL0     H15087   4.883   7.794   5.318  4.2644  2.2391  1.6534
  834MOL0     H15088   4.946   7.585   5.661  0.6153  1.2361 -0.1796
  834MOL0     H15089   4.665   8.094   5.055  0.2696  2.0319  1.1477
  834MOL0     H15090   4.799   8.331   5.050  1.7692  0.3383 -0.2168
  834MOL0     H15091   4.838   8.354   4.873 -2.2195  0.7730 -1.5442
  834MOL0     H15092   4.682   8.285   4.930  0.6980 -0.6370  1.6276
  835MOL0     O15093   9.239   1.172   7.053 -0.1237  0.0629  0.4236
  835MOL0     C15094   9.249   1.091   6.958  0.3189  0.9117 -0.4714
  835MOL0     O15095   9.191   0.968   6.964 -0.2189  0.9721 -0.3536
  835MOL0     C15096   9.065   0.949   7.017 -0.5616 -0.2310  0.2647
  835MOL0     C15097   9.051   0.926   7.155 -0.0996  0.0194  0.2427
  835MOL0     C15098   8.924   0.902   7.214 -1.3558 -0.3535 -0.1369
  835MOL0     C15099   8.813   0.888   7.131 -0.6422 -0.6291  0.7961
  835MOL0     O15100   8.692   0.857   7.193 -0.0571 -0.4721  0.0160
  835MOL0     C15101   8.564   0.866   7.125 -0.3435 -0.2189  0.0735
  835MOL0     C15102   8.470   0.828   7.236  1.1258  0.8253 -0.0944
  835MOL0     C15103   8.456   0.681   7.265  0.4771  0.5020  0.5382
  835MOL0     C15104   8.372   0.613   7.158 -0.1220  1.7467  0.8808
  835MOL0     C15105   8.410   0.462   7.164  1.3357 -0.1850  0.4565
  835MOL0     C15106   8.308   0.375   7.066  0.7595 -0.6036 -0.9780
  835MOL0     C15107   8.347   0.400   6.923 -0.0596  0.3473  0.3460
  835MOL0     C15108   8.267   0.304   6.839  0.3905 -0.2552  0.4055
  835MOL0     N15109   8.299   0.319   6.698  0.0260  0.1332  0.9049
  835MOL0     C15110   8.277   0.431   6.614 -0.3646 -0.2969 -0.3875
  835MOL0     C15111   8.294   0.394   6.485 -0.3840  0.1650  0.2880
  835MOL0     C15112   8.282   0.479   6.368  0.2202 -0.1775 -0.0969
  835MOL0     C15113   8.383   0.596   6.365 -0.7219 -0.0946  0.3652
  835MOL0     C15114   8.400   0.669   6.223  1.5398  0.1931  0.0744
  835MOL0     C15115   8.462   0.806   6.203 -0.7652 -0.5161 -0.2815
  835MOL0     O15116   8.435   0.861   6.066 -0.6792  0.4713 -0.5475
  835MOL0     C15117   8.523   0.815   5.965 -0.1099  0.1353  0.6416
  835MOL0     C15118   8.630   0.725   5.972  1.7116 -0.1652 -0.0254
  835MOL0     C15119   8.705   0.668   5.863 -0.1552  0.0116 -0.0285
  835MOL0     C15120   8.823   0.582   5.903 -0.2151 -0.3053  0.5323
  835MOL0     C15121   8.668   0.706   5.732 -0.0747  0.1721  0.4300
  835MOL0     C15122   8.734   0.644   5.606  1.0134  1.0277 -0.6128
  835MOL0     O15123   8.817   0.535   5.621  0.3068 -0.5706  0.5036
  835MOL0     C15124   8.831   0.465   5.503  0.1534 -0.5902 -0.2617
  835MOL0     C15125   8.894   0.523   5.390 -0.4331 -0.7190  0.6740
  835MOL0     C15126   8.955   0.440   5.283  0.3455  0.5805 -1.0350
  835MOL0     C15127   8.929   0.304   5.299  0.0015  0.8694  0.5048
  835MOL0     O15128   8.964   0.210   5.206 -0.0062 -0.2678 -0.4986
  835MOL0     C15129   9.087   0.231   5.127  0.0541 -0.6815  0.3816
  835MOL0     C15130   9.050   0.289   4.995  0.4502  0.1308  0.5304
  835MOL0     C15131   8.927   0.234   4.922 -0.6755  1.0087 -0.2679
  835MOL0     C15132   8.900   0.304   4.789 -0.1721  0.4196 -0.2073
  835MOL0     C15133   8.835   0.445   4.813 -0.2952 -0.6898 -0.0401
  835MOL0     C15134   8.727   0.485   4.711  0.0158  0.1770  0.3387
  835MOL0     C15135   8.690   0.634   4.726 -0.7709 -0.4722 -1.4222
  835MOL0     C15136   8.576   0.672   4.623 -0.3144 -0.0936 -0.5152
  835MOL0    Cl15137   8.533   0.841   4.636 -0.1916  0.1120 -0.2056
  835MOL0     C15138   8.853   0.244   5.405 -0.0924  0.3333 -0.6184
  835MOL0     C15139   8.804   0.328   5.500 -0.8294  0.0163  0.2761
  835MOL0     O15140   8.693   0.690   5.498 -0.0580 -0.0049 -0.1128
  835MOL0     C15141   8.554   0.795   5.714 -0.5166  0.4707  0.1920
  835MOL0     C15142   8.486   0.853   5.827  1.1638  0.5324 -0.5731
  835MOL0     N15143   8.322   0.261   6.488 -0.2689  0.4449 -0.4727
  835MOL0     N15144   8.327   0.218   6.615 -0.6889  1.1861 -0.1803
  835MOL0     C15145   8.829   0.915   6.996  0.2893  0.2458 -0.2950
  835MOL0     C15146   8.950   0.946   6.937 -0.5526 -0.8726 -0.3481
  835MOL0     C15147   9.334   1.120   6.839 -0.6575 -0.4887  0.5109
  835MOL0     C15148   9.339   1.035   6.728 -0.1323  0.4579 -0.5014
  835MOL0     C15149   9.429   1.063   6.620  0.5322  0.7701  0.0947
  835MOL0     C15150   9.529   1.150   6.632  0.2172  0.8283 -0.0442
  835MOL0     O15151   9.621   1.146   6.526  0.4265  0.5202 -0.2983
  835MOL0     C15152   9.674   1.266   6.468  0.1363 -0.1165 -0.7736
  835MOL0     C15153   9.666   1.254   6.308 -0.3155 -0.8271  0.2733
  835MOL0     C15154   9.786   1.181   6.257 -0.6570  0.3320 -0.0927
  835MOL0     C15155   9.804   1.138   6.107 -0.2297  0.6510  0.2883
  835MOL0     C15156   9.829   1.251   6.019  0.7817 -0.1419 -0.5695
  835MOL0     C15157   9.834   1.347   5.940 -0.7134 -0.4471 -0.3712
  835MOL0     C15158   9.535   1.234   6.745 -0.1954 -0.3239  0.2615
  835MOL0     C15159   9.443   1.222   6.850 -0.3276 -0.2712  0.2186
  835MOL0     C15160   9.450   1.330   6.954  0.1684 -0.2847 -0.4745
  835MOL0     H15161   9.133   0.936   7.224 -0.3009  0.2281  0.4495
  835MOL0     H15162   8.903   0.897   7.320  1.9224 -3.3890  0.5759
  835MOL0     H15163   8.555   0.789   7.047 -4.3219 -1.5980  1.5883
  835MOL0     H15164   8.542   0.969   7.095 -1.6373  0.5394  3.2160
  835MOL0     H15165   8.492   0.879   7.330 -2.8003  1.2203  0.7982
  835MOL0     H15166   8.372   0.875   7.219  1.8832  2.0898 -1.1918
  835MOL0     H15167   8.559   0.647   7.271  0.6083  0.6809 -0.4733
  835MOL0     H15168   8.408   0.657   7.360  1.8045 -0.5948  0.9642
  835MOL0     H15169   8.263   0.615   7.169 -0.7612  0.0307 -3.2907
  835MOL0     H15170   8.378   0.639   7.052 -3.3286  1.8768  0.6256
  835MOL0     H15171   8.399   0.421   7.265 -3.1001  0.3202  0.3972
  835MOL0     H15172   8.515   0.446   7.137  1.5519 -1.1791  1.7999
  835MOL0     H15173   8.338   0.272   7.084  3.1103  0.1953  0.1648
  835MOL0     H15174   8.206   0.398   7.097  1.5718 -0.5873  1.9702
  835MOL0     H15175   8.452   0.370   6.922  0.0671  0.6892  1.6382
  835MOL0     H15176   8.346   0.502   6.884 -1.5424 -0.3679 -1.7118
  835MOL0     H15177   8.284   0.198   6.858  0.8652 -1.4314 -4.9629
  835MOL0     H15178   8.162   0.333   6.847  0.6538  0.5799  0.8857
  835MOL0     H15179   8.258   0.531   6.650  2.5151  0.1404  0.1202
  835MOL0     H15180   8.179   0.514   6.353 -0.0191 -1.2497 -1.1235
  835MOL0     H15181   8.307   0.415   6.282  1.8847 -3.7461  2.7808
  835MOL0     H15182   8.346   0.668   6.438  0.5948  0.6500  0.3353
  835MOL0     H15183   8.478   0.552   6.395 -1.8517 -2.4607  0.6898
  835MOL0     H15184   8.460   0.602   6.160 -1.1871 -0.7448 -1.7143
  835MOL0     H15185   8.296   0.677   6.189  1.5200  0.8969  0.2941
  835MOL0     H15186   8.409   0.867   6.277  0.4545  0.2170  0.0040
  835MOL0     H15187   8.569   0.804   6.224 -0.4392  0.0575 -1.7626
  835MOL0     H15188   8.659   0.696   6.072 -0.2061 -0.6699  0.4375
  835MOL0     H15189   8.814   0.483   5.857 -1.8797 -0.1510  0.4796
  835MOL0     H15190   8.827   0.570   6.011  0.6221 -3.6726  0.2309
  835MOL0     H15191   8.915   0.625   5.861 -0.5721 -1.1465 -1.2032
  835MOL0     H15192   8.913   0.629   5.383 -1.8795 -0.4746  0.1449
  835MOL0     H15193   9.014   0.486   5.205  1.7054  4.9074  2.1617
  835MOL0     H15194   9.152   0.293   5.189 -3.8419  1.8301  2.2988
  835MOL0     H15195   9.118   0.128   5.106  2.7951  0.7371 -3.7129
  835MOL0     H15196   9.034   0.397   5.000  1.6569  0.3524 -0.0884
  835MOL0     H15197   9.134   0.275   4.926 -1.2570 -1.9269 -1.2819
  835MOL0     H15198   8.842   0.232   4.991 -2.9614  0.1691 -2.9275
  835MOL0     H15199   8.947   0.130   4.898 -1.2812  1.0666 -1.0456
  835MOL0     H15200   8.835   0.244   4.724  0.2820  1.7717 -1.9952
  835MOL0     H15201   8.994   0.311   4.734 -0.7018  1.9144 -1.0047
  835MOL0     H15202   8.786   0.444   4.911  2.7549 -0.7098  1.6003
  835MOL0     H15203   8.902   0.531   4.818 -1.6294  0.6073 -2.5753
  835MOL0     H15204   8.646   0.415   4.732  1.0150 -1.1381  0.0118
  835MOL0     H15205   8.764   0.472   4.609  0.9616 -0.1291  0.7050
  835MOL0     H15206   8.775   0.698   4.699 -1.0036  0.7942  0.6490
  835MOL0     H15207   8.658   0.652   4.829  1.9769 -2.9236  0.0130
  835MOL0     H15208   8.487   0.615   4.651 -1.2421  1.4741 -0.1610
  835MOL0     H15209   8.606   0.644   4.522 -2.2890  2.5596 -1.9457
  835MOL0     H15210   8.819   0.143   5.423 -1.9409  1.1447  0.7984
  835MOL0     H15211   8.769   0.280   5.591  0.5998 -1.0172  0.3250
  835MOL0     H15212   8.518   0.812   5.613  0.6493  2.4171  0.0457
  835MOL0     H15213   8.391   0.901   5.805 -0.5853 -2.1585  0.6302
  835MOL0     H15214   8.744   0.902   6.930 -1.3936  0.0358  1.8231
  835MOL0     H15215   8.960   0.960   6.830  2.6750 -0.4387 -0.0941
  835MOL0     H15216   9.269   0.952   6.723  0.5656 -0.0883 -1.8684
  835MOL0     H15217   9.440   0.982   6.548  1.2935  0.2619  0.7686
  835MOL0     H15218   9.611   1.353   6.487  0.0394 -0.5850  1.3002
  835MOL0     H15219   9.777   1.278   6.504  0.2252 -0.6527 -0.8359
  835MOL0     H15220   9.678   1.355   6.270  2.2609 -1.0867  0.2114
  835MOL0     H15221   9.569   1.216   6.275 -1.8868  2.0530  1.2092
  835MOL0     H15222   9.872   1.244   6.282 -2.2178  2.4064  0.2467
  835MOL0     H15223   9.796   1.083   6.305 -1.1498 -0.5541 -1.7103
  835MOL0     H15224   9.714   1.100   6.058  0.3961 -0.5250  0.0171
  835MOL0     H15225   9.882   1.063   6.098 -2.0338 -1.1101 -2.0820
  835MOL0     H15226   9.832   1.439   5.885 -0.5484  0.8011  1.6149
  835MOL0     H15227   9.618   1.304   6.745  0.4504 -1.0637  1.5742
  835MOL0     H15228   9.482   1.285   7.049  3.6210  1.6299 -0.5923
  835MOL0     H15229   9.525   1.405   6.931  1.1625 -1.9203 -3.0212
  835MOL0     H15230   9.350   1.372   6.969 -0.9045 -2.6351 -0.5058
  836MOL0     O15231   1.437   9.676   9.817 -0.2329 -0.3838  0.8895
  836MOL0     C15232   1.552   9.654   9.843  0.6559  0.1106 -0.1878
  836MOL0     O15233   1.652   9.622   9.752  0.3754 -0.0472  0.7385
  836MOL0     C15234   1.623   9.591   9.619  0.5146 -0.9149  0.0583
  836MOL0     C15235   1.733   9.605   9.538 -0.8168  0.8346  0.9390
  836MOL0     C15236   1.731   9.584   9.394  0.0761  0.2239 -0.3909
  836MOL0     C15237   1.599   9.570   9.339 -0.7254 -0.8968  0.1990
  836MOL0     O15238   1.582   9.560   9.202 -0.8797  0.3550  0.4072
  836MOL0     C15239   1.550   9.434   9.149 -0.0803 -0.0949  0.2349
  836MOL0     C15240   1.487   9.460   9.003  0.7400 -0.1081 -0.0432
  836MOL0     C15241   1.565   9.551   8.915  0.7992  0.1366  1.2036
  836MOL0     C15242   1.494   9.572   8.782  0.5009  0.6648  0.2424
  836MOL0     C15243   1.578   9.661   8.683 -0.5146  0.7361  0.3094
  836MOL0     C15244   1.505   9.716   8.563  0.3782  0.1695 -0.7945
  836MOL0     C15245   1.421   9.837   8.603 -0.1191 -0.2872  0.1819
  836MOL0     C15246   1.314   9.871   8.503 -0.5554  0.0311 -0.4082
  836MOL0     N15247   1.213   9.976   8.529 -0.2089  0.0618  0.2057
  836MOL0     C15248   1.238  10.102   8.587  0.0349  0.1825 -0.1009
  836MOL0     C15249   1.121  10.157   8.629 -0.3942  0.3359 -0.6517
  836MOL0     C15250   1.105  10.287   8.702 -0.4745  1.3689  0.1098
  836MOL0     C15251   1.017  10.380   8.614 -1.2108 -0.2113 -0.1962
  836MOL0     C15252   1.101  10.438   8.501 -0.0395 -0.0149  0.7062
  836MOL0     C15253   1.006  10.526   8.416 -0.2240 -0.6018 -0.0976
  836MOL0     O15254   0.980  10.654   8.486  0.2675  0.0428 -0.2380
  836MOL0     C15255   0.904  10.746   8.430  0.9125  0.2891  0.1686
  836MOL0     C15256   0.848  10.737   8.298  0.6236  0.3804  0.2422
  836MOL0     C15257   0.772  10.846   8.252 -0.5246  0.4139  0.7584
  836MOL0     C15258   0.713  10.835   8.102 -0.8688  0.1018 -0.9601
  836MOL0     C15259   0.745  10.959   8.337 -0.3952  0.6961 -0.8007
  836MOL0     C15260   0.688  11.086   8.286 -0.3869 -0.2373 -0.6106
  836MOL0     O15261   0.611  11.089   8.173 -0.3432 -0.3942  0.9247
  836MOL0     C15262   0.549  11.198   8.125 -0.3567 -0.3118 -0.4144
  836MOL0     C15263   0.623  11.275   8.030  0.4433 -0.5949  0.4993
  836MOL0     C15264   0.558  11.375   7.966 -0.1089 -0.6461 -0.2175
  836MOL0     C15265   0.429  11.416   8.007  0.6842 -0.7816  0.1158
  836MOL0     O15266   0.392  11.535   7.944  0.0325  0.6003 -0.2907
  836MOL0     C15267   0.329  11.640   8.025 -1.1538  1.2142  1.3131
  836MOL0     C15268   0.313  11.773   7.930 -0.7613  0.5613 -0.7707
  836MOL0     C15269   0.446  11.795   7.850  0.0481 -0.7326 -0.6193
  836MOL0     C15270   0.429  11.915   7.764 -0.5273 -1.7199  0.6258
  836MOL0     C15271   0.538  11.927   7.659  0.6911  0.2939 -0.0660
  836MOL0     C15272   0.673  11.963   7.724 -0.0060 -0.1887  0.3330
  836MOL0     C15273   0.759  11.987   7.600  0.0840 -0.1005 -0.2568
  836MOL0     C15274   0.906  12.002   7.641 -0.2120 -0.2174  0.3304
  836MOL0    Cl15275   0.994  11.845   7.677  0.5016 -0.6697 -0.3166
  836MOL0     C15276   0.359  11.350   8.105  0.0680  0.0030  0.3204
  836MOL0     C15277   0.419  11.238   8.166  0.3156 -0.2640 -0.0153
  836MOL0     O15278   0.712  11.187   8.357 -0.4630  0.1859 -0.9080
  836MOL0     C15279   0.796  10.953   8.476 -0.3826 -0.4407 -1.2718
  836MOL0     C15280   0.873  10.850   8.515 -0.9315  0.4531  0.0460
  836MOL0     N15281   1.030  10.065   8.591  0.3608  1.3808 -0.0508
  836MOL0     N15282   1.084   9.962   8.538  0.2549  0.0737  0.3166
  836MOL0     C15283   1.489   9.550   9.418  0.2618  0.4661 -0.3076
  836MOL0     C15284   1.503   9.556   9.559 -0.1192  0.8764  1.4231
  836MOL0     C15285   1.601   9.654   9.988 -0.0724 -0.1108 -0.4860
  836MOL0     C15286   1.741   9.622  10.009  0.9006  0.0861  0.3622
  836MOL0     C15287   1.791   9.599  10.129  0.2851  0.0244 -0.9290
  836MOL0     C15288   1.716   9.629  10.247 -0.9219 -0.0722 -0.6971
  836MOL0     O15289   1.769   9.623  10.377 -0.0451 -0.8622  0.7010
  836MOL0     C15290   1.915   9.604  10.385 -0.0329  0.1909 -0.9143
  836MOL0     C15291   1.946   9.631  10.528 -0.5070 -0.7584 -0.4267
  836MOL0     C15292   1.892   9.778  10.566 -0.9763 -0.3860 -0.2864
  836MOL0     C15293   1.909   9.806  10.710 -0.3440  1.0072  1.0539
  836MOL0     C15294   2.048   9.772  10.760 -0.3034  0.1280 -0.0936
  836MOL0     C15295   2.155   9.739  10.810  0.3438  0.1974 -0.1858
  836MOL0     C15296   1.585   9.670  10.229 -0.0049  0.3805 -0.3476
  836MOL0     C15297   1.523   9.679  10.104  0.4982  0.1405  0.7129
  836MOL0     C15298   1.377   9.715  10.107  1.0088  0.5301 -0.0114
  836MOL0     H15299   1.823   9.629   9.593 -1.8265  1.7037  2.2670
  836MOL0     H15300   1.821   9.591   9.334  0.4748  3.9818  0.3688
  836MOL0     H15301   1.485   9.381   9.218  1.0171  0.0770  1.4308
  836MOL0     H15302   1.643   9.378   9.133 -1.8297 -3.3457  0.7282
  836MOL0     H15303   1.463   9.361   8.962 -1.4325  0.7090 -0.8734
  836MOL0     H15304   1.391   9.507   9.025  2.3925  2.6811  1.7712
  836MOL0     H15305   1.581   9.640   8.977  2.1712 -0.1197  1.2671
  836MOL0     H15306   1.670   9.520   8.905  0.5294 -0.1605 -1.3217
  836MOL0     H15307   1.479   9.475   8.733 -0.0178  1.6203 -1.6010
  836MOL0     H15308   1.394   9.614   8.795  0.3279  1.1152 -2.0587
  836MOL0     H15309   1.665   9.607   8.645  1.0757  3.8914 -0.9493
  836MOL0     H15310   1.621   9.746   8.738 -3.3194  2.0296  0.6622
  836MOL0     H15311   1.568   9.749   8.480  2.0785 -1.9869 -0.4719
  836MOL0     H15312   1.442   9.636   8.523  1.3198 -3.2498  3.7337
  836MOL0     H15313   1.481   9.926   8.625 -0.9561 -0.2135  2.3990
  836MOL0     H15314   1.370   9.820   8.698  0.1484 -2.5357 -0.0327
  836MOL0     H15315   1.371   9.890   8.411 -1.8211  0.1466 -1.1860
  836MOL0     H15316   1.261   9.775   8.496  3.1846 -2.4360  1.5674
  836MOL0     H15317   1.334  10.140   8.619 -1.0326  1.3644  1.8775
  836MOL0     H15318   1.204  10.327   8.722 -0.4973  1.0224  0.9642
  836MOL0     H15319   1.049  10.269   8.795  0.8261 -0.4620  0.5924
  836MOL0     H15320   0.937  10.316   8.575 -1.0833  0.3405 -1.3974
  836MOL0     H15321   0.973  10.457   8.678  2.1943  1.2945  0.5151
  836MOL0     H15322   1.185  10.498   8.538 -0.8213  1.7831 -0.2636
  836MOL0     H15323   1.145  10.360   8.438  2.5159  1.1150  0.9819
  836MOL0     H15324   1.056  10.554   8.323  0.3068  1.1997  0.6972
  836MOL0     H15325   0.914  10.469   8.399 -0.4864 -0.2729  0.2060
  836MOL0     H15326   0.861  10.652   8.232  1.1397 -1.1353  2.1803
  836MOL0     H15327   0.712  10.734   8.060  2.1606  0.0465 -1.0687
  836MOL0     H15328   0.765  10.905   8.036  0.1490  2.4448  2.1148
  836MOL0     H15329   0.606  10.860   8.108 -0.8021  0.1922 -0.0393
  836MOL0     H15330   0.722  11.248   7.995  0.0059 -1.9498  0.2233
  836MOL0     H15331   0.611  11.422   7.884  1.4637 -1.3299  0.3649
  836MOL0     H15332   0.234  11.600   8.061 -3.1473  2.4101 -2.0758
  836MOL0     H15333   0.398  11.649   8.109 -0.2850 -1.2602  0.9473
  836MOL0     H15334   0.226  11.772   7.864 -1.7311  1.8602  0.4059
  836MOL0     H15335   0.312  11.853   8.005 -1.0192 -0.1604  0.0169
  836MOL0     H15336   0.467  11.707   7.789 -2.4315 -1.9872  0.2199
  836MOL0     H15337   0.526  11.814   7.923 -0.1451  3.1761 -1.2098
  836MOL0     H15338   0.433  12.012   7.814  1.9070  0.5468 -3.4298
  836MOL0     H15339   0.343  11.913   7.696 -1.8310  0.5901  2.0533
  836MOL0     H15340   0.543  11.831   7.606 -0.9763  1.6630 -2.9708
  836MOL0     H15341   0.502  12.003   7.589  4.3332  1.3801 -0.9299
  836MOL0     H15342   0.705  11.880   7.788  0.3761 -0.4364 -0.1675
  836MOL0     H15343   0.678  12.053   7.785 -1.6132  2.1732 -2.7627
  836MOL0     H15344   0.719  12.079   7.555 -1.2217  0.0418  1.1082
  836MOL0     H15345   0.757  11.905   7.528  1.7690 -0.4548  0.0507
  836MOL0     H15346   0.916  12.075   7.722  1.1758 -0.4123  0.3718
  836MOL0     H15347   0.968  12.041   7.559  0.6471  0.9266  1.4731
  836MOL0     H15348   0.258  11.382   8.128 -2.0104 -2.9526 -3.4723
  836MOL0     H15349   0.365  11.188   8.246  0.9471  1.6037  1.6588
  836MOL0     H15350   0.780  11.043   8.535 -1.6083  2.4847 -5.5145
  836MOL0     H15351   0.914  10.857   8.615  1.8419 -1.5936 -0.8122
  836MOL0     H15352   1.396   9.514   9.376 -0.5121  1.9651  0.0661
  836MOL0     H15353   1.406   9.545   9.605 -2.4199  0.9010 -2.8519
  836MOL0     H15354   1.801   9.589   9.925  1.7699  0.0615  0.9846
  836MOL0     H15355   1.878   9.536  10.142 -0.0087 -0.2421 -0.2329
  836MOL0     H15356   1.937   9.500  10.362  2.6814  0.3678  0.3857
  836MOL0     H15357   1.983   9.659  10.319  4.7937 -3.3193  0.5167
  836MOL0     H15358   2.054   9.636  10.549 -0.6022 -1.6973  0.3952
  836MOL0     H15359   1.919   9.550  10.596  3.8803 -1.2951  1.0441
  836MOL0     H15360   1.936   9.856  10.504  0.0762 -0.7387 -0.0010
  836MOL0     H15361   1.785   9.781  10.543 -1.0245  1.3437  0.0176
  836MOL0     H15362   1.829   9.746  10.756 -0.7780  1.3302  0.7234
  836MOL0     H15363   1.903   9.909  10.746 -0.5362  0.7096  1.8951
  836MOL0     H15364   2.240   9.716  10.870  0.8408  1.9897 -0.1250
  836MOL0     H15365   1.523   9.699  10.313  0.0786  0.2179 -0.2297
  836MOL0     H15366   1.344   9.765  10.199  0.8313  1.7574 -0.7216
  836MOL0     H15367   1.351   9.782  10.025 -0.4268  1.3141  1.0569
  836MOL0     H15368   1.304   9.635  10.096  0.9237  0.5230  0.5732
  837MOL0     O15369   1.567   1.659  10.725  0.9245 -0.6154 -0.4040
  837MOL0     C15370   1.542   1.743  10.808 -0.0793 -1.3873  0.1380
  837MOL0     O15371   1.546   1.726  10.946 -0.3412 -0.1894  0.2180
  837MOL0     C15372   1.588   1.615  11.011 -0.1785  1.0713 -0.5054
  837MOL0     C15373   1.642   1.635  11.140  0.1120 -0.7062 -0.2775
  837MOL0     C15374   1.678   1.532  11.232 -0.1881 -0.0343 -0.1110
  837MOL0     C15375   1.672   1.398  11.188  0.0892 -0.6150  0.3098
  837MOL0     O15376   1.706   1.283  11.253  0.3232 -0.5317  0.2602
  837MOL0     C15377   1.826   1.274  11.325 -0.2294 -0.0867  1.0164
  837MOL0     C15378   1.865   1.130  11.361 -1.1977  0.4139 -0.6292
  837MOL0     C15379   1.909   1.062  11.234 -0.0977 -0.7695 -0.3480
  837MOL0     C15380   1.947   0.927  11.269 -0.4535 -0.7951 -0.3001
  837MOL0     C15381   2.020   0.855  11.160  0.4401 -0.0778 -0.2844
  837MOL0     C15382   2.042   0.711  11.183 -0.2962 -0.2391 -0.1309
  837MOL0     C15383   2.137   0.690  11.309 -0.5160  0.1057 -0.4431
  837MOL0     C15384   2.187   0.544  11.331  0.2943 -0.3213  0.8926
  837MOL0     N15385   2.249   0.456  11.224 -0.5985 -0.2149  0.2882
  837MOL0     C15386   2.173   0.373  11.143 -0.3104  0.2986  0.1464
  837MOL0     C15387   2.267   0.283  11.109 -0.6879  0.8142 -0.1146
  837MOL0     C15388   2.253   0.155  11.024  0.3282 -0.8464 -0.4593
  837MOL0     C15389   2.171   0.040  11.081  0.2182 -0.9699  0.4324
  837MOL0     C15390   2.127  -0.074  10.985  0.1240  0.0405 -0.0276
  837MOL0     C15391   2.256  -0.117  10.906 -0.5585 -0.0677  0.4634
  837MOL0     O15392   2.359  -0.149  11.002 -0.5719  0.2762 -0.7419
  837MOL0     C15393   2.393  -0.281  11.018  0.3249  0.1582  0.4902
  837MOL0     C15394   2.297  -0.379  11.022  0.2997  0.5391  0.0959
  837MOL0     C15395   2.334  -0.514  11.001  0.3205  0.9902 -1.1177
  837MOL0     C15396   2.238  -0.622  11.052 -0.1141 -0.0406 -0.5347
  837MOL0     C15397   2.464  -0.554  10.973  0.1652 -0.7130  0.3653
  837MOL0     C15398   2.505  -0.691  10.931  0.5428  0.4563  0.5616
  837MOL0     O15399   2.640  -0.719  10.938 -1.2247  0.4780  0.4382
  837MOL0     C15400   2.693  -0.836  10.887  0.7802  0.2284  0.6986
  837MOL0     C15401   2.728  -0.853  10.754 -0.3767  1.0040  0.8841
  837MOL0     C15402   2.809  -0.956  10.706  0.2028  0.6029 -0.6283
  837MOL0     C15403   2.848  -1.050  10.797  0.8053 -0.4783  0.0344
  837MOL0     O15404   2.928  -1.149  10.746 -0.2652 -0.0270  0.1121
  837MOL0     C15405   2.905  -1.281  10.785  0.4453  0.6884  0.4272
  837MOL0     C15406   2.941  -1.366  10.659  0.1284 -0.5708  0.8534
  837MOL0     C15407   2.851  -1.324  10.532 -0.5699 -0.4081 -0.3179
  837MOL0     C15408   2.897  -1.413  10.428  0.3429 -0.3387 -0.0946
  837MOL0     C15409   2.834  -1.395  10.285  0.2087  0.2950 -0.6650
  837MOL0     C15410   2.859  -1.263  10.220 -1.1628 -0.3057  0.7635
  837MOL0     C15411   2.883  -1.299  10.064 -0.4211  0.2165 -0.6949
  837MOL0     C15412   2.852  -1.162   9.995  0.4696  0.0325  0.1669
  837MOL0    Cl15413   2.901  -1.144   9.826 -0.0397 -0.6560 -0.1185
  837MOL0     C15414   2.814  -1.043  10.930 -0.2014  0.1827 -0.3218
  837MOL0     C15415   2.736  -0.933  10.985 -0.0574 -0.0791  1.1002
  837MOL0     O15416   2.425  -0.757  10.873  0.3479 -0.1371  0.8036
  837MOL0     C15417   2.560  -0.450  10.985 -0.3962  0.8888  0.2150
  837MOL0     C15418   2.523  -0.321  10.999  0.4077 -0.8745 -0.3594
  837MOL0     N15419   2.393   0.316  11.148 -0.0137 -0.4586 -0.3541
  837MOL0     N15420   2.382   0.420  11.216  0.2574 -0.1000 -0.3118
  837MOL0     C15421   1.629   1.382  11.057  0.2873  0.2139  0.1903
  837MOL0     C15422   1.584   1.483  10.968 -0.5319 -1.0956 -0.5440
  837MOL0     C15423   1.509   1.876  10.751 -1.1100  0.2379  0.4030
  837MOL0     C15424   1.438   1.881  10.636  0.0216 -0.4477  0.6900
  837MOL0     C15425   1.423   2.005  10.572  1.3545 -0.0428 -0.7367
  837MOL0     C15426   1.442   2.126  10.646  0.3460  1.0523  0.0660
  837MOL0     O15427   1.418   2.243  10.582  0.4423 -0.6029  0.2171
  837MOL0     C15428   1.349   2.335  10.663 -0.7690 -0.8361 -0.8789
  837MOL0     C15429   1.306   2.460  10.584  0.1853  0.4549  0.8573
  837MOL0     C15430   1.195   2.437  10.474 -1.2173 -0.2277 -0.0864
  837MOL0     C15431   1.176   2.549  10.380 -0.6915  0.1542 -1.1071
  837MOL0     C15432   1.174   2.508  10.242 -0.5497  0.3597 -1.5479
  837MOL0     C15433   1.155   2.485  10.128  0.8607 -0.3680  0.0570
  837MOL0     C15434   1.492   2.118  10.778 -0.3743 -0.1450  0.3618
  837MOL0     C15435   1.532   2.000  10.826 -0.7479  1.5098  0.0709
  837MOL0     C15436   1.570   1.999  10.974 -0.5972 -0.1089  0.4660
  837MOL0     H15437   1.654   1.739  11.165 -0.5284 -0.5092 -0.7505
  837MOL0     H15438   1.712   1.562  11.331  1.7186  3.5143 -1.6174
  837MOL0     H15439   1.829   1.340  11.413  0.9353 -0.3345  1.1829
  837MOL0     H15440   1.904   1.319  11.262  2.3529 -0.1030  3.9309
  837MOL0     H15441   1.947   1.133  11.434 -3.7096  0.7348  2.3571
  837MOL0     H15442   1.792   1.075  11.421 -1.4295 -0.9529 -2.1036
  837MOL0     H15443   1.827   1.064  11.162  0.8676  5.8089 -1.8335
  837MOL0     H15444   1.995   1.115  11.191 -0.2439 -2.8483 -3.5886
  837MOL0     H15445   2.013   0.935  11.356 -1.2838  2.3655  0.1824
  837MOL0     H15446   1.861   0.865  11.292 -0.8995 -0.4427 -0.9939
  837MOL0     H15447   2.121   0.898  11.162 -0.7001  2.7498  0.5579
  837MOL0     H15448   1.966   0.875  11.068 -3.0384  3.2995  2.1834
  837MOL0     H15449   1.955   0.645  11.176  0.6377 -1.3252 -4.9773
  837MOL0     H15450   2.107   0.677  11.102  0.6609  3.7504 -1.2050
  837MOL0     H15451   2.088   0.723  11.401 -0.9562 -2.5188  0.3648
  837MOL0     H15452   2.228   0.751  11.307 -1.1001  1.3847  3.3290
  837MOL0     H15453   2.243   0.543  11.425 -2.3635 -1.9378  2.6145
  837MOL0     H15454   2.098   0.490  11.365  0.2987  1.9151  5.1955
  837MOL0     H15455   2.067   0.363  11.125 -0.7317  1.5308  1.6843
  837MOL0     H15456   2.349   0.112  10.991  0.2426  0.0882 -2.0571
  837MOL0     H15457   2.215   0.175  10.923  0.6247 -3.1844 -1.1177
  837MOL0     H15458   2.234  -0.007  11.157  2.6173 -1.0169 -1.4963
  837MOL0     H15459   2.082   0.075  11.134  1.1533 -1.1302  2.1869
  837MOL0     H15460   2.101  -0.163  11.044 -1.8980 -0.7502 -1.9687
  837MOL0     H15461   2.037  -0.053  10.927  0.4632  3.2107  0.4060
  837MOL0     H15462   2.236  -0.202  10.840  0.6338 -0.7892  0.9950
  837MOL0     H15463   2.288  -0.033  10.843  1.5571 -1.9348 -1.1207
  837MOL0     H15464   2.191  -0.358  11.031 -0.1154 -2.1268  3.2923
  837MOL0     H15465   2.146  -0.571  11.079 -0.4882 -0.2742 -1.3388
  837MOL0     H15466   2.264  -0.671  11.147  0.7623 -2.6396 -2.0229
  837MOL0     H15467   2.218  -0.707  10.986 -2.3807 -0.2502  0.3448
  837MOL0     H15468   2.687  -0.789  10.677  0.7214  2.5488  1.5314
  837MOL0     H15469   2.833  -0.967  10.601 -0.2822 -1.0063 -0.5966
  837MOL0     H15470   2.970  -1.318  10.865  2.1383 -1.7639 -1.9291
  837MOL0     H15471   2.804  -1.301  10.823  1.6932 -0.0793  3.6507
  837MOL0     H15472   3.048  -1.355  10.636 -0.0652 -0.0144  0.1844
  837MOL0     H15473   2.919  -1.470  10.684  0.6676 -1.6966 -2.7802
  837MOL0     H15474   2.873  -1.221  10.504  1.9113 -1.8658 -4.6601
  837MOL0     H15475   2.742  -1.329  10.541 -0.8035  2.5815 -0.6256
  837MOL0     H15476   2.883  -1.513  10.470 -0.6393  0.7267  2.3082
  837MOL0     H15477   3.005  -1.398  10.418  0.3348 -0.8230 -1.0137
  837MOL0     H15478   2.881  -1.477  10.230  1.1177  0.7595 -0.5885
  837MOL0     H15479   2.726  -1.416  10.292  0.5682 -1.0986  2.6828
  837MOL0     H15480   2.951  -1.212  10.250 -2.2538  2.8102 -0.7537
  837MOL0     H15481   2.772  -1.198  10.235 -2.1856 -1.1684 -1.0955
  837MOL0     H15482   2.823  -1.384  10.032  1.6958 -0.9800 -1.6936
  837MOL0     H15483   2.988  -1.323  10.047 -0.3578 -0.2336  0.2952
  837MOL0     H15484   2.910  -1.092  10.054  0.4902 -1.4256  1.9883
  837MOL0     H15485   2.743  -1.158  10.010  0.3994  4.4284 -0.2894
  837MOL0     H15486   2.855  -1.110  11.005  1.8991  1.9352  0.1960
  837MOL0     H15487   2.713  -0.927  11.091 -0.8923 -1.3812  1.0083
  837MOL0     H15488   2.666  -0.463  10.967 -0.2688  3.3945 -1.2434
  837MOL0     H15489   2.601  -0.246  10.991  1.1335 -1.7894 -3.8533
  837MOL0     H15490   1.608   1.280  11.026  1.1613 -0.4610  1.7187
  837MOL0     H15491   1.538   1.464  10.872  1.1087  1.3675 -1.9205
  837MOL0     H15492   1.419   1.786  10.586  0.1670 -0.6869  1.0879
  837MOL0     H15493   1.395   2.015  10.468 -0.8148  1.7309 -0.0459
  837MOL0     H15494   1.266   2.284  10.714  1.2626 -1.7475  1.7579
  837MOL0     H15495   1.423   2.371  10.735 -2.4650 -0.6581  0.8630
  837MOL0     H15496   1.389   2.498  10.523  0.2609 -1.5689 -0.4080
  837MOL0     H15497   1.279   2.539  10.654 -0.8241  0.5263  0.3960
  837MOL0     H15498   1.219   2.347  10.417 -0.4059  0.4318 -0.8219
  837MOL0     H15499   1.099   2.427  10.524 -2.2402  0.2870 -1.8506
  837MOL0     H15500   1.255   2.624  10.389 -0.5263 -0.0716 -0.6016
  837MOL0     H15501   1.085   2.607  10.401 -0.9071  1.4621 -4.9894
  837MOL0     H15502   1.138   2.477  10.022  2.9708  0.2938 -0.3685
  837MOL0     H15503   1.514   2.211  10.830  1.6336 -1.0100  1.1580
  837MOL0     H15504   1.672   1.961  10.987  1.1058  4.1174  1.1804
  837MOL0     H15505   1.570   2.098  11.020  1.7302 -1.0135  2.6471
  837MOL0     H15506   1.505   1.938  11.037  0.0147 -4.2104 -2.4999
  838MOL0     O15507   9.610   6.334   6.666  0.2009 -0.1627 -0.5800
  838MOL0     C15508   9.493   6.368   6.652 -0.6126  0.7755 -0.5767
  838MOL0     O15509   9.390   6.290   6.595 -0.0615  0.0350 -0.4804
  838MOL0     C15510   9.390   6.154   6.590 -1.0688 -0.1000  0.6104
  838MOL0     C15511   9.274   6.078   6.609 -0.3721  0.2278  0.4882
  838MOL0     C15512   9.273   5.940   6.586  0.1243  0.3699 -0.0764
  838MOL0     C15513   9.392   5.871   6.570  0.7819  0.6125  0.4947
  838MOL0     O15514   9.384   5.738   6.571  0.2803 -0.0389 -0.1933
  838MOL0     C15515   9.465   5.664   6.493 -1.1008 -0.4887  0.9187
  838MOL0     C15516   9.445   5.517   6.472  0.3074  0.8417 -0.0939
  838MOL0     C15517   9.541   5.455   6.379 -0.0524 -0.2819 -0.1388
  838MOL0     C15518   9.506   5.303   6.364  0.2856 -0.1148  0.3174
  838MOL0     C15519   9.620   5.227   6.294 -0.7714  1.0059  0.0938
  838MOL0     C15520   9.617   5.078   6.265 -0.4552 -0.3186  0.4397
  838MOL0     C15521   9.628   4.993   6.393 -0.5526 -0.1055  0.3402
  838MOL0     C15522   9.758   4.989   6.473  0.4176 -0.0329  0.3271
  838MOL0     N15523   9.861   4.892   6.436  0.6296  0.4130  0.5117
  838MOL0     C15524   9.942   4.886   6.324 -1.1504  0.2723 -0.2043
  838MOL0     C15525  10.026   4.783   6.350 -0.1948  0.8780 -0.3629
  838MOL0     C15526  10.132   4.742   6.256  0.4193 -0.0806  0.1391
  838MOL0     C15527  10.096   4.601   6.201  0.2193 -0.6125  0.5209
  838MOL0     C15528  10.224   4.518   6.149 -0.7230  1.0443  0.4101
  838MOL0     C15529  10.313   4.589   6.044  0.0365  0.5117  0.4631
  838MOL0     O15530  10.425   4.657   6.098 -0.0624  0.4644 -0.3171
  838MOL0     C15531  10.503   4.718   6.011  0.0456 -0.9663 -0.3654
  838MOL0     C15532  10.492   4.709   5.873  0.4421 -0.1058  0.1950
  838MOL0     C15533  10.590   4.759   5.780  0.0454 -0.4862 -0.7306
  838MOL0     C15534  10.550   4.748   5.630  0.8116  0.0466 -0.5437
  838MOL0     C15535  10.709   4.804   5.840  0.1942 -0.7940  1.1401
  838MOL0     C15536  10.828   4.819   5.746 -0.0324 -0.3406 -1.0839
  838MOL0     O15537  10.834   4.743   5.629 -0.3253 -0.5258  0.2855
  838MOL0     C15538  10.933   4.764   5.537  0.6703 -0.5520 -1.0168
  838MOL0     C15539  11.052   4.701   5.561 -0.3798 -1.1808 -0.4045
  838MOL0     C15540  11.159   4.724   5.469 -1.0203  0.7365 -0.7724
  838MOL0     C15541  11.140   4.816   5.354  0.1170  1.2486  0.6070
  838MOL0     O15542  11.232   4.815   5.248 -0.3083 -0.6011  0.1324
  838MOL0     C15543  11.369   4.833   5.273  0.1102  1.2723 -0.8661
  838MOL0     C15544  11.398   4.983   5.265  0.0671 -0.3075  0.9019
  838MOL0     C15545  11.531   5.027   5.321 -0.0746  0.0488 -0.1892
  838MOL0     C15546  11.646   4.940   5.274 -0.2987  0.4716  0.4299
  838MOL0     C15547  11.780   5.005   5.327  0.1281  0.0634 -0.5742
  838MOL0     C15548  11.899   4.954   5.246  1.2940  0.0401 -0.4553
  838MOL0     C15549  11.909   5.001   5.104 -0.2225 -0.5579 -0.5040
  838MOL0     C15550  12.031   4.954   5.036 -0.0966 -0.1754  0.4533
  838MOL0    Cl15551  12.022   4.774   5.043 -0.4231 -0.1742 -0.6730
  838MOL0     C15552  11.010   4.876   5.338  0.0995 -0.4255 -0.1431
  838MOL0     C15553  10.910   4.848   5.439 -0.2269 -0.5460 -0.4097
  838MOL0     O15554  10.920   4.898   5.783 -0.5606  0.5763 -0.0422
  838MOL0     C15555  10.728   4.818   5.979 -0.4379  0.2716 -0.5983
  838MOL0     C15556  10.617   4.778   6.067 -0.5229 -1.0222  1.4409
  838MOL0     N15557   9.984   4.723   6.465  0.7124  0.1486  0.1608
  838MOL0     N15558   9.885   4.786   6.517  0.5232 -0.6360  0.8033
  838MOL0     C15559   9.508   5.944   6.545  0.6890 -0.1693  0.1877
  838MOL0     C15560   9.512   6.080   6.562 -0.2619  0.0780 -0.4154
  838MOL0     C15561   9.449   6.508   6.698 -0.4603 -0.4298 -0.4575
  838MOL0     C15562   9.344   6.567   6.623  0.1853 -0.4132 -0.9859
  838MOL0     C15563   9.313   6.705   6.634 -0.0681 -0.3276  0.0432
  838MOL0     C15564   9.367   6.777   6.738  0.5486 -0.3179  1.2572
  838MOL0     O15565   9.315   6.903   6.743 -0.5730 -0.0640  0.0690
  838MOL0     C15566   9.376   6.996   6.839  0.2155  0.0547 -0.4900
  838MOL0     C15567   9.286   7.114   6.864  0.8265 -0.1500 -0.6219
  838MOL0     C15568   9.227   7.169   6.731 -0.2288  0.1748 -0.3401
  838MOL0     C15569   9.323   7.203   6.615  0.4650  0.7185  0.7140
  838MOL0     C15570   9.248   7.285   6.520  0.9407 -0.2828  0.2898
  838MOL0     C15571   9.191   7.354   6.438  0.6346  0.5829  0.4627
  838MOL0     C15572   9.471   6.725   6.818 -1.1324 -0.9973  0.8477
  838MOL0     C15573   9.505   6.586   6.796 -0.4150 -0.1368 -0.4321
  838MOL0     C15574   9.593   6.522   6.897  0.5830  0.1367 -0.3045
  838MOL0     H15575   9.183   6.135   6.621 -1.6153 -1.9023  1.9746
  838MOL0     H15576   9.179   5.887   6.598 -0.1706  1.2313  1.8255
  838MOL0     H15577   9.563   5.675   6.539  0.5012  0.3507 -2.4070
  838MOL0     H15578   9.469   5.711   6.394 -1.1526 -1.8968  0.2305
  838MOL0     H15579   9.460   5.484   6.575  0.1835  1.6928  0.2087
  838MOL0     H15580   9.346   5.477   6.447 -0.4407  0.9693  2.3726
  838MOL0     H15581   9.535   5.499   6.279  0.9257  1.3046  0.4553
  838MOL0     H15582   9.640   5.474   6.421  1.1256 -2.4531 -1.7175
  838MOL0     H15583   9.479   5.260   6.461  0.6226  0.8434  0.8540
  838MOL0     H15584   9.414   5.281   6.309 -0.4393 -0.3943  1.5971
  838MOL0     H15585   9.713   5.231   6.352 -1.3951 -2.7670  1.6328
  838MOL0     H15586   9.624   5.263   6.191  0.7076 -0.4671 -0.3970
  838MOL0     H15587   9.526   5.054   6.209 -0.2081 -2.8564  1.0205
  838MOL0     H15588   9.708   5.049   6.212 -1.8142 -1.0511 -1.5755
  838MOL0     H15589   9.608   4.890   6.363 -0.1103  0.5721 -2.5243
  838MOL0     H15590   9.544   5.031   6.454  0.2209 -0.3968  1.6227
  838MOL0     H15591   9.804   5.087   6.459 -0.0975 -0.1478 -3.1501
  838MOL0     H15592   9.731   4.974   6.577  1.1081 -1.3747  0.3399
  838MOL0     H15593   9.954   4.961   6.247 -1.0200 -0.1772 -0.6309
  838MOL0     H15594  10.221   4.736   6.320  2.2712 -0.3111 -2.3020
  838MOL0     H15595  10.146   4.808   6.170 -1.8645 -0.7780 -0.8646
  838MOL0     H15596  10.044   4.538   6.273 -0.5001  1.1788  1.6342
  838MOL0     H15597  10.027   4.616   6.118  1.9675 -0.9506 -1.0634
  838MOL0     H15598  10.286   4.493   6.236 -1.7322 -0.3559  0.7584
  838MOL0     H15599  10.194   4.421   6.109 -1.0516  0.9834  0.8045
  838MOL0     H15600  10.358   4.513   5.980 -0.8626  1.9433 -1.9913
  838MOL0     H15601  10.265   4.661   5.977  3.4462  1.4157 -1.2050
  838MOL0     H15602  10.403   4.673   5.821 -1.9879  3.4020  1.5727
  838MOL0     H15603  10.446   4.724   5.609  0.2855  1.7993 -0.1558
  838MOL0     H15604  10.605   4.666   5.585 -1.7866 -2.8336  1.1164
  838MOL0     H15605  10.572   4.834   5.567 -0.8082  0.3862 -0.6802
  838MOL0     H15606  11.068   4.638   5.647  3.9325  0.7806  0.5201
  838MOL0     H15607  11.250   4.668   5.489 -3.3702 -2.9647  0.7614
  838MOL0     H15608  11.409   4.790   5.365  0.3685  2.8842 -0.1882
  838MOL0     H15609  11.423   4.785   5.191  0.5746  1.0642 -0.4379
  838MOL0     H15610  11.388   5.024   5.164  0.9050 -1.9136  0.1259
  838MOL0     H15611  11.325   5.030   5.331 -0.6680 -0.5798  0.3099
  838MOL0     H15612  11.521   5.015   5.429  1.2789 -0.2828 -0.0739
  838MOL0     H15613  11.545   5.130   5.287  1.9944  0.2598  1.1005
  838MOL0     H15614  11.636   4.945   5.165 -1.0108 -1.2998  0.3880
  838MOL0     H15615  11.639   4.835   5.303  1.2103 -0.7736 -3.1082
  838MOL0     H15616  11.778   5.114   5.326 -2.0286  0.2426  3.1491
  838MOL0     H15617  11.795   4.984   5.434 -0.9583  1.2792 -0.1607
  838MOL0     H15618  11.893   4.845   5.255 -3.5301  0.1952  1.0960
  838MOL0     H15619  11.988   4.995   5.294  2.2384 -1.7736 -0.5895
  838MOL0     H15620  11.917   5.110   5.101  0.9174 -0.6103  0.2253
  838MOL0     H15621  11.814   4.977   5.055 -1.2922  0.1527  1.1198
  838MOL0     H15622  12.122   4.979   5.091  0.5829  1.9842 -1.5271
  838MOL0     H15623  12.032   4.984   4.931 -1.5400 -2.3803 -0.2716
  838MOL0     H15624  10.975   4.944   5.261 -1.7380  1.8111  2.4414
  838MOL0     H15625  10.811   4.892   5.431  0.3496  0.4963 -2.6805
  838MOL0     H15626  10.827   4.852   6.006  0.0040 -0.1715 -1.6094
  838MOL0     H15627  10.631   4.799   6.173 -2.0701 -0.9951  1.6596
  838MOL0     H15628   9.598   5.888   6.518  1.3507  1.5460 -1.3462
  838MOL0     H15629   9.603   6.138   6.558 -0.5487  0.5797  0.1412
  838MOL0     H15630   9.303   6.508   6.542  1.1310  0.5958 -2.2610
  838MOL0     H15631   9.240   6.752   6.568 -0.2437  1.8124  1.6493
  838MOL0     H15632   9.390   6.946   6.935 -2.4891  0.5458  0.2343
  838MOL0     H15633   9.482   7.014   6.817  0.1955  0.1945 -0.4681
  838MOL0     H15634   9.343   7.191   6.917 -0.1077  0.2778 -0.2028
  838MOL0     H15635   9.203   7.099   6.934 -1.4744  2.4466 -2.5554
  838MOL0     H15636   9.155   7.094   6.697 -1.5185  1.8075 -1.4147
  838MOL0     H15637   9.175   7.263   6.750  1.6907  1.3834 -0.7516
  838MOL0     H15638   9.365   7.112   6.572 -1.6738  0.5955 -1.2794
  838MOL0     H15639   9.407   7.261   6.654  0.8007  2.1700 -1.9572
  838MOL0     H15640   9.138   7.406   6.361 -2.0028 -1.8647  0.4716
  838MOL0     H15641   9.526   6.789   6.886 -1.5423  1.8820 -1.3375
  838MOL0     H15642   9.532   6.454   6.958 -0.2208  0.7385 -0.4174
  838MOL0     H15643   9.670   6.457   6.856 -1.4192 -1.3211 -1.9568
  838MOL0     H15644   9.635   6.602   6.958  1.0507  1.7400 -2.6238
  839MOL0     O15645   1.541   2.118   7.464  0.4124  0.1183  0.6463
  839MOL0     C15646   1.571   2.149   7.582  0.9404  1.0262 -0.0347
  839MOL0     O15647   1.503   2.107   7.691  0.4264  0.2269  0.1146
  839MOL0     C15648   1.403   2.010   7.690  1.0641  0.1998  0.3297
  839MOL0     C15649   1.427   1.887   7.628 -0.0049 -0.8061  0.1037
  839MOL0     C15650   1.337   1.791   7.634 -0.1203  0.0749  0.3360
  839MOL0     C15651   1.224   1.795   7.706  0.4471 -0.5382  0.0127
  839MOL0     O15652   1.150   1.676   7.701 -0.5189  1.2818  0.4177
  839MOL0     C15653   1.039   1.658   7.789 -0.1953 -0.1390  0.2650
  839MOL0     C15654   0.953   1.536   7.754 -0.3578  0.3530  0.2649
  839MOL0     C15655   0.854   1.493   7.845  0.7233  1.1025  0.0990
  839MOL0     C15656   0.764   1.386   7.795  0.8518 -0.5231 -0.6631
  839MOL0     C15657   0.670   1.324   7.900  0.8113  0.3441 -0.1784
  839MOL0     C15658   0.581   1.427   7.967 -1.2022 -0.2950  0.0640
  839MOL0     C15659   0.492   1.376   8.082 -0.9414  0.1910 -0.2911
  839MOL0     C15660   0.372   1.289   8.041  0.7301 -0.6966 -0.6602
  839MOL0     N15661   0.283   1.269   8.154  0.4863 -0.3173  0.5475
  839MOL0     C15662   0.330   1.236   8.270  0.6996 -0.3298 -0.8784
  839MOL0     C15663   0.220   1.194   8.336 -0.5007 -1.0627  0.1941
  839MOL0     C15664   0.227   1.124   8.468 -0.1549 -0.1858 -0.9963
  839MOL0     C15665   0.086   1.082   8.517 -0.2236 -0.0729  0.2237
  839MOL0     C15666  -0.001   1.198   8.576 -0.3005  0.0777 -1.1060
  839MOL0     C15667  -0.149   1.160   8.600  0.0391  0.3619  0.3908
  839MOL0     O15668  -0.165   1.061   8.704  0.1960 -0.0906 -0.4028
  839MOL0     C15669  -0.294   1.030   8.732  0.2704  0.7603 -0.6159
  839MOL0     C15670  -0.388   1.131   8.756 -0.3190  0.4585 -0.3737
  839MOL0     C15671  -0.515   1.086   8.784  0.0514  0.6233 -0.0681
  839MOL0     C15672  -0.610   1.192   8.819  0.1944  0.5945 -0.6301
  839MOL0     C15673  -0.558   0.946   8.774 -0.1426  0.6032  0.2161
  839MOL0     C15674  -0.692   0.897   8.807  0.4580 -0.7288  0.3365
  839MOL0     O15675  -0.696   0.774   8.851 -0.3178 -0.1123  0.1257
  839MOL0     C15676  -0.815   0.714   8.879 -0.4974 -0.4532  0.7322
  839MOL0     C15677  -0.809   0.580   8.833 -0.0673  0.8832 -0.2438
  839MOL0     C15678  -0.908   0.488   8.867 -0.3193 -0.2107 -0.5754
  839MOL0     C15679  -1.030   0.533   8.921  0.1250 -0.7406 -0.4141
  839MOL0     O15680  -1.134   0.442   8.936  0.6118 -0.5498 -0.1803
  839MOL0     C15681  -1.193   0.405   8.809  0.0531 -0.4563 -0.2432
  839MOL0     C15682  -1.313   0.493   8.759  0.2439 -1.0343  0.0945
  839MOL0     C15683  -1.449   0.452   8.815  0.2778 -0.0871  0.0438
  839MOL0     C15684  -1.459   0.476   8.966 -0.1230  1.2302  0.4056
  839MOL0     C15685  -1.475   0.624   9.003 -0.0503 -0.1052  0.9333
  839MOL0     C15686  -1.563   0.648   9.124 -0.4459  0.3789  0.3043
  839MOL0     C15687  -1.477   0.615   9.241 -0.2476 -0.1606 -0.0711
  839MOL0     C15688  -1.561   0.666   9.359 -0.1454  0.9046  0.5300
  839MOL0    Cl15689  -1.729   0.617   9.364 -0.5496 -0.0950  0.4830
  839MOL0     C15690  -1.030   0.665   8.965 -0.4555  0.8441 -0.2758
  839MOL0     C15691  -0.932   0.757   8.942  0.0056 -0.4631 -0.1888
  839MOL0     O15692  -0.791   0.968   8.802  1.0609 -0.4790  0.0892
  839MOL0     C15693  -0.443   0.851   8.760  1.7415 -0.1777 -0.3141
  839MOL0     C15694  -0.316   0.895   8.742  0.5897  0.7288  0.2960
  839MOL0     N15695   0.106   1.229   8.262  0.4890  0.0064  0.1569
  839MOL0     N15696   0.151   1.273   8.148 -0.0092 -0.6278  0.9644
  839MOL0     C15697   1.203   1.910   7.786  0.6012 -0.5975  0.9122
  839MOL0     C15698   1.294   2.022   7.774 -0.9034 -0.3651 -0.5804
  839MOL0     C15699   1.670   2.258   7.605  0.4277 -0.0936 -0.8830
  839MOL0     C15700   1.693   2.301   7.738 -0.2046  0.3193 -0.1932
  839MOL0     C15701   1.785   2.398   7.765 -1.0731  0.5105 -0.2230
  839MOL0     C15702   1.861   2.469   7.665 -0.4784  0.7097  0.5073
  839MOL0     O15703   1.951   2.563   7.719  0.4008  0.4468 -0.1814
  839MOL0     C15704   2.066   2.616   7.646  1.4964  0.4166  0.3841
  839MOL0     C15705   2.131   2.732   7.706  0.2095 -0.0351 -0.4662
  839MOL0     C15706   2.195   2.696   7.836 -0.4508  0.0446 -0.3865
  839MOL0     C15707   2.224   2.818   7.926  0.1275  0.9961  1.3643
  839MOL0     C15708   2.230   2.773   8.063 -0.1842 -0.1320 -0.1415
  839MOL0     C15709   2.231   2.727   8.174  0.3853  0.0120 -0.0775
  839MOL0     C15710   1.840   2.424   7.532 -0.2120 -0.0193 -0.6563
  839MOL0     C15711   1.744   2.326   7.495  0.8384  1.1370  0.6025
  839MOL0     C15712   1.729   2.288   7.354 -0.2164  0.3612 -0.2297
  839MOL0     H15713   1.519   1.883   7.569 -0.3468  0.5044 -0.5573
  839MOL0     H15714   1.343   1.703   7.570  4.6393  1.9466 -2.3159
  839MOL0     H15715   0.979   1.749   7.783  1.0386  0.7368  0.9008
  839MOL0     H15716   1.070   1.641   7.892  2.2751 -0.5511 -0.4877
  839MOL0     H15717   0.914   1.558   7.654 -2.6875 -1.6031  0.6757
  839MOL0     H15718   1.008   1.442   7.741 -2.0861 -0.2349 -6.1769
  839MOL0     H15719   0.903   1.451   7.933  0.2411 -0.0643 -0.1815
  839MOL0     H15720   0.796   1.578   7.884  0.6007  1.7203 -1.3789
  839MOL0     H15721   0.705   1.419   7.709 -1.0370 -0.9606  0.4082
  839MOL0     H15722   0.809   1.301   7.743  0.2129 -1.6185  0.5204
  839MOL0     H15723   0.732   1.271   7.972  3.5104  1.1527 -1.7720
  839MOL0     H15724   0.599   1.256   7.851  0.1738 -1.1571  2.6024
  839MOL0     H15725   0.649   1.499   8.014 -3.4190  1.3683  0.9078
  839MOL0     H15726   0.518   1.462   7.885 -0.8588 -1.0207 -0.5205
  839MOL0     H15727   0.454   1.474   8.113  3.0917  2.0972 -0.7144
  839MOL0     H15728   0.557   1.339   8.161 -3.5383 -1.9702  1.0062
  839MOL0     H15729   0.319   1.344   7.963  0.7077  0.3686  0.0807
  839MOL0     H15730   0.400   1.189   8.006  1.5566  0.0162 -2.1325
  839MOL0     H15731   0.436   1.227   8.290  1.0624 -0.3736 -2.6671
  839MOL0     H15732   0.273   1.190   8.543  1.3136 -0.2668 -1.7781
  839MOL0     H15733   0.289   1.035   8.455 -1.3024 -0.8652 -1.8991
  839MOL0     H15734   0.039   1.038   8.429 -1.9797  1.7032  0.1999
  839MOL0     H15735   0.107   1.005   8.592  5.4380 -0.4770 -1.2694
  839MOL0     H15736   0.054   1.225   8.666  0.1029 -0.7192 -1.1058
  839MOL0     H15737   0.007   1.281   8.506 -1.7125  0.6671 -0.6063
  839MOL0     H15738  -0.218   1.244   8.607 -2.8395 -1.9473  1.4224
  839MOL0     H15739  -0.179   1.109   8.508  0.0495 -1.3713  1.3080
  839MOL0     H15740  -0.362   1.237   8.756 -1.3213  0.7623 -2.8227
  839MOL0     H15741  -0.657   1.228   8.727  1.4154  1.1870 -1.0347
  839MOL0     H15742  -0.561   1.273   8.874 -0.3677  0.3145  0.2994
  839MOL0     H15743  -0.674   1.157   8.901  0.6850 -2.8261 -1.5444
  839MOL0     H15744  -0.728   0.546   8.770 -2.4309  0.3096 -3.2361
  839MOL0     H15745  -0.880   0.390   8.830  0.0654 -0.0894 -0.6121
  839MOL0     H15746  -1.116   0.411   8.731  2.4670 -1.8576  1.8482
  839MOL0     H15747  -1.219   0.299   8.822  0.1044 -0.3469  0.8278
  839MOL0     H15748  -1.301   0.596   8.792 -1.3592 -0.4051 -1.1647
  839MOL0     H15749  -1.318   0.480   8.651  0.2048 -2.3122  0.2297
  839MOL0     H15750  -1.467   0.346   8.793  0.9276 -0.0564 -0.6855
  839MOL0     H15751  -1.530   0.511   8.772  0.4704 -0.2829 -0.6040
  839MOL0     H15752  -1.378   0.427   9.021 -2.7142  0.4977  3.9174
  839MOL0     H15753  -1.538   0.412   9.006  1.9890 -1.4113  0.6852
  839MOL0     H15754  -1.375   0.666   9.014 -1.1409  2.7085  0.9480
  839MOL0     H15755  -1.516   0.677   8.917  1.5074  1.0143  0.8485
  839MOL0     H15756  -1.658   0.595   9.113  0.4245 -0.6628 -4.2915
  839MOL0     H15757  -1.582   0.755   9.130 -1.7454  0.3016 -1.4965
  839MOL0     H15758  -1.386   0.676   9.243 -0.1456  0.2032 -4.8526
  839MOL0     H15759  -1.456   0.508   9.243  0.3687 -0.0678 -1.1697
  839MOL0     H15760  -1.564   0.775   9.369 -1.9636  1.3140 -2.9351
  839MOL0     H15761  -1.515   0.625   9.449 -0.7768 -3.1815 -0.8019
  839MOL0     H15762  -1.114   0.693   9.027  0.4561 -1.8336  2.4168
  839MOL0     H15763  -0.940   0.860   8.977 -1.5234 -1.1315  1.5661
  839MOL0     H15764  -0.451   0.743   8.751  2.4841 -0.4065  1.4100
  839MOL0     H15765  -0.235   0.827   8.718 -0.3786 -1.1592  2.0491
  839MOL0     H15766   1.116   1.922   7.849 -0.2847  1.5542 -0.6016
  839MOL0     H15767   1.297   2.100   7.849  1.3792 -0.4803 -0.4946
  839MOL0     H15768   1.649   2.265   7.831  1.3732  4.1215  2.2658
  839MOL0     H15769   1.801   2.436   7.866 -2.0699 -1.3398  0.6915
  839MOL0     H15770   2.146   2.546   7.621  1.4285  0.3846  0.2534
  839MOL0     H15771   2.025   2.656   7.552 -1.7626 -0.0328  1.4701
  839MOL0     H15772   2.060   2.813   7.723  1.9784  1.5550 -0.3341
  839MOL0     H15773   2.207   2.772   7.639 -3.4041  0.3427 -4.8347
  839MOL0     H15774   2.116   2.636   7.883  0.0288  0.1742  0.6280
  839MOL0     H15775   2.277   2.625   7.825 -2.1642 -2.2658  0.9239
  839MOL0     H15776   2.141   2.889   7.918 -2.0103 -1.0563  3.7324
  839MOL0     H15777   2.323   2.846   7.890  0.7396 -2.9166 -0.5933
  839MOL0     H15778   2.227   2.703   8.278 -2.5585  1.0960  0.1353
  839MOL0     H15779   1.887   2.475   7.448 -1.5512  0.2767 -1.2511
  839MOL0     H15780   1.630   2.298   7.310  0.5558 -0.6363 -2.3408
  839MOL0     H15781   1.797   2.346   7.291  1.3278 -1.0995  0.0197
  839MOL0     H15782   1.756   2.182   7.358 -3.1580 -0.6983 -3.6849
  840MOL0     O15783   1.575   2.247  11.561 -0.1538 -0.2455 -0.4845
  840MOL0     C15784   1.481   2.248  11.645  0.1635  0.3193 -0.6492
  840MOL0     O15785   1.492   2.198  11.778 -0.2252  0.5610  0.3782
  840MOL0     C15786   1.607   2.236  11.845 -0.0690  0.2912 -0.4169
  840MOL0     C15787   1.730   2.175  11.821  0.3951 -0.3120 -0.0671
  840MOL0     C15788   1.842   2.225  11.892  0.4628 -0.3628 -0.4048
  840MOL0     C15789   1.837   2.347  11.962 -0.4544  0.2057  0.7853
  840MOL0     O15790   1.934   2.429  12.010 -0.2194  0.6186 -0.5480
  840MOL0     C15791   2.064   2.379  12.011 -0.0125 -1.5974 -0.1196
  840MOL0     C15792   2.167   2.492  12.029  0.5198  0.5655 -0.1395
  840MOL0     C15793   2.162   2.586  11.907 -0.2098 -0.7139  0.0469
  840MOL0     C15794   2.251   2.716  11.921 -0.5588  0.0921 -0.2746
  840MOL0     C15795   2.234   2.806  11.805 -0.3117  0.2390 -0.5962
  840MOL0     C15796   2.319   2.931  11.827  0.8654 -0.3747 -0.1067
  840MOL0     C15797   2.449   2.926  11.753 -1.1562  0.6649  0.2315
  840MOL0     C15798   2.415   2.970  11.610 -0.2981 -0.5600  0.1818
  840MOL0     N15799   2.535   2.980  11.524  0.1555 -0.0541  0.3646
  840MOL0     C15800   2.661   3.035  11.549  0.9852  0.1362  0.4800
  840MOL0     C15801   2.723   3.006  11.430 -0.3138  1.2337  0.1751
  840MOL0     C15802   2.870   3.037  11.389  0.2193 -1.0766  0.2232
  840MOL0     C15803   2.924   3.158  11.471 -0.4723 -0.2587  0.1527
  840MOL0     C15804   3.060   3.205  11.405 -0.8432 -1.1705 -0.1594
  840MOL0     C15805   3.182   3.122  11.432 -0.4456 -0.3735  0.2899
  840MOL0     O15806   3.221   3.113  11.573 -0.2601  0.6097 -0.7699
  840MOL0     C15807   3.311   3.012  11.606 -0.9829  0.2857  0.0054
  840MOL0     C15808   3.336   2.990  11.742 -1.1730 -0.3113 -0.5238
  840MOL0     C15809   3.420   2.890  11.775  0.0396 -0.0715 -0.5466
  840MOL0     C15810   3.427   2.863  11.925 -0.4470  0.4004  0.1607
  840MOL0     C15811   3.487   2.804  11.676  1.0603 -0.0302 -0.5868
  840MOL0     C15812   3.550   2.673  11.700 -0.1433 -0.0171 -0.0931
  840MOL0     O15813   3.601   2.594  11.596 -0.3359  0.9255 -0.3366
  840MOL0     C15814   3.683   2.488  11.625 -0.0026  0.2934 -0.4643
  840MOL0     C15815   3.609   2.364  11.647 -0.6053 -1.0271  0.5834
  840MOL0     C15816   3.678   2.238  11.662  0.5987 -0.6858 -0.0851
  840MOL0     C15817   3.822   2.235  11.663  0.5381  0.4333 -0.3138
  840MOL0     O15818   3.876   2.107  11.683 -0.0178 -0.2642 -0.1078
  840MOL0     C15819   3.992   2.125  11.758  0.1824 -0.3567 -0.1797
  840MOL0     C15820   4.003   2.017  11.858  0.3806  0.7649 -0.4635
  840MOL0     C15821   4.143   2.021  11.927  1.4634 -0.9629 -0.2152
  840MOL0     C15822   4.146   1.911  12.046 -0.2867  0.1044  0.1618
  840MOL0     C15823   4.105   1.767  12.006 -0.6224  1.2519 -0.3320
  840MOL0     C15824   4.178   1.658  12.100 -0.4289  0.0217 -0.3311
  840MOL0     C15825   4.172   1.508  12.057  0.6656  0.1419 -0.1604
  840MOL0     C15826   4.247   1.488  11.923  0.6271  0.1679 -0.0162
  840MOL0    Cl15827   4.137   1.528  11.780 -0.3350 -0.2094  0.1589
  840MOL0     C15828   3.891   2.357  11.646 -0.2097  0.9002  0.0540
  840MOL0     C15829   3.822   2.480  11.629 -0.7641  0.2260  0.0446
  840MOL0     O15830   3.566   2.651  11.818  0.2069  1.0274 -0.2883
  840MOL0     C15831   3.470   2.845  11.549 -0.3325 -0.0503  1.1073
  840MOL0     C15832   3.388   2.946  11.506  0.2925 -1.0687  0.0562
  840MOL0     N15833   2.643   2.940  11.339  0.5866 -0.3166 -0.3019
  840MOL0     N15834   2.538   2.910  11.403  0.2687 -0.4571  0.6602
  840MOL0     C15835   1.716   2.402  11.974 -0.3704  0.5466 -0.1647
  840MOL0     C15836   1.598   2.351  11.917  0.1053 -0.1199 -0.4244
  840MOL0     C15837   1.344   2.261  11.594  0.1802  0.9248 -0.1540
  840MOL0     C15838   1.260   2.152  11.595  0.3214  0.2881  0.0950
  840MOL0     C15839   1.120   2.164  11.567  0.3026 -0.1898 -0.1615
  840MOL0     C15840   1.065   2.292  11.523 -0.7000  0.0298  1.1132
  840MOL0     O15841   0.936   2.323  11.489  0.0707  0.8307  0.0008
  840MOL0     C15842   0.829   2.236  11.495  0.3143  0.1600 -0.0478
  840MOL0     C15843   0.697   2.315  11.467  0.9550 -0.5904  0.5831
  840MOL0     C15844   0.572   2.228  11.481 -0.3476 -0.4006  1.1453
  840MOL0     C15845   0.502   2.174  11.354 -0.0830  0.0956  0.0678
  840MOL0     C15846   0.588   2.081  11.279 -0.1481 -0.8171 -0.3703
  840MOL0     C15847   0.643   1.996  11.212  0.3868  0.3437 -0.4277
  840MOL0     C15848   1.152   2.396  11.516 -0.9759  0.5556 -0.0625
  840MOL0     C15849   1.290   2.380  11.536  0.6037  0.7801  0.3582
  840MOL0     C15850   1.362   2.503  11.512  0.2980 -0.0700  0.4150
  840MOL0     H15851   1.731   2.094  11.749  3.3471 -0.8837  0.5012
  840MOL0     H15852   1.941   2.184  11.876  0.7696  0.9436 -2.0974
  840MOL0     H15853   2.088   2.325  11.919 -1.1834 -1.8043 -0.3118
  840MOL0     H15854   2.070   2.323  12.105 -0.8186 -1.0816  0.2467
  840MOL0     H15855   2.164   2.546  12.124 -1.2774  1.1325 -0.4722
  840MOL0     H15856   2.271   2.461  12.023  0.3894 -0.1170  0.8706
  840MOL0     H15857   2.192   2.536  11.814 -1.0557 -0.7713 -0.2055
  840MOL0     H15858   2.055   2.602  11.897 -0.2130 -0.5955  0.2595
  840MOL0     H15859   2.223   2.773  12.010  1.9504  0.8125  0.1194
  840MOL0     H15860   2.354   2.682  11.938 -0.5958 -0.0852 -0.4015
  840MOL0     H15861   2.131   2.841  11.795 -0.0029  1.6549  0.7732
  840MOL0     H15862   2.272   2.764  11.712 -2.4020  0.2647 -1.5151
  840MOL0     H15863   2.271   3.027  11.803  1.2564  0.2925  1.6105
  840MOL0     H15864   2.349   2.947  11.931 -0.7430  1.6957  0.0960
  840MOL0     H15865   2.489   2.825  11.757 -1.0356  0.7033  0.0370
  840MOL0     H15866   2.521   2.993  11.802 -3.3688  0.6234  3.8112
  840MOL0     H15867   2.329   2.925  11.560 -0.1085  1.0397 -1.7108
  840MOL0     H15868   2.380   3.073  11.609  0.1316 -0.4067  0.6467
  840MOL0     H15869   2.687   3.080  11.644  1.4972 -0.0744  0.4386
  840MOL0     H15870   2.875   3.062  11.283  0.3825 -0.7910  0.2964
  840MOL0     H15871   2.925   2.945  11.414  1.3803 -1.3389 -2.8698
  840MOL0     H15872   2.856   3.242  11.456  1.5863  1.3705 -0.4757
  840MOL0     H15873   2.931   3.133  11.578 -2.5208 -0.9017  0.1869
  840MOL0     H15874   3.060   3.218  11.296  0.6826 -2.4693 -0.3473
  840MOL0     H15875   3.090   3.298  11.455  3.2005 -2.6709  0.5528
  840MOL0     H15876   3.152   3.021  11.403 -0.1420 -0.5951  0.7349
  840MOL0     H15877   3.268   3.152  11.371 -1.1450 -0.1012 -0.5748
  840MOL0     H15878   3.294   3.060  11.814  1.4472 -0.4505  1.2906
  840MOL0     H15879   3.531   2.886  11.950 -1.5631  4.7843  1.6636
  840MOL0     H15880   3.406   2.760  11.956 -1.4793  0.5448 -0.0123
  840MOL0     H15881   3.357   2.933  11.971  3.5280  5.6626 -0.8527
  840MOL0     H15882   3.503   2.386  11.656 -0.5814 -1.4888  2.3897
  840MOL0     H15883   3.624   2.154  11.703 -1.3303  0.0252 -1.0624
  840MOL0     H15884   4.078   2.119  11.690  1.1437  0.4565  0.9229
  840MOL0     H15885   3.999   2.212  11.824  1.2863 -1.5190  1.2803
  840MOL0     H15886   3.917   2.024  11.925 -0.7341 -0.7642 -1.6764
  840MOL0     H15887   3.983   1.923  11.807 -0.1816  1.0395 -0.7588
  840MOL0     H15888   4.174   2.116  11.972 -0.5623  0.2780 -1.3114
  840MOL0     H15889   4.214   1.992  11.849  0.8714  2.9931 -2.4601
  840MOL0     H15890   4.074   1.943  12.122 -0.7627 -0.6304  0.0339
  840MOL0     H15891   4.249   1.918  12.081 -0.5145  3.0720  0.4306
  840MOL0     H15892   3.996   1.761  12.014 -0.5937  1.4892  0.3327
  840MOL0     H15893   4.135   1.760  11.901 -2.2556  3.4114 -1.0161
  840MOL0     H15894   4.148   1.679  12.203  1.8126  0.7822  0.2255
  840MOL0     H15895   4.285   1.682  12.097  0.0232 -1.9155 -1.1907
  840MOL0     H15896   4.068   1.482  12.039 -0.4657  4.6022 -1.4428
  840MOL0     H15897   4.206   1.452  12.145  0.6360 -1.0427 -0.8791
  840MOL0     H15898   4.275   1.382  11.929  0.4915  0.1730  0.7466
  840MOL0     H15899   4.343   1.540  11.919  1.5826 -1.5055  0.0021
  840MOL0     H15900   3.998   2.354  11.630 -0.2921 -1.7916 -0.4132
  840MOL0     H15901   3.883   2.569  11.631 -1.2619  0.5601  1.9491
  840MOL0     H15902   3.518   2.800  11.462  0.9550  3.7595 -0.3433
  840MOL0     H15903   3.379   2.955  11.399 -1.1368 -3.0149 -0.0406
  840MOL0     H15904   1.723   2.489  12.038  2.6235  0.5538 -0.3231
  840MOL0     H15905   1.498   2.395  11.922  0.6484  1.0846  0.4360
  840MOL0     H15906   1.301   2.060  11.636  0.2176 -0.2511 -0.9670
  840MOL0     H15907   1.052   2.084  11.596 -1.2667  1.6601  1.6812
  840MOL0     H15908   0.832   2.155  11.422 -2.7769 -0.8592  0.7782
  840MOL0     H15909   0.817   2.196  11.596  2.2964  1.9123  0.9605
  840MOL0     H15910   0.712   2.368  11.373  3.5320  1.3164  1.9501
  840MOL0     H15911   0.682   2.394  11.541 -2.8720  0.6844 -1.2899
  840MOL0     H15912   0.599   2.140  11.540  1.0333  0.0468  1.2201
  840MOL0     H15913   0.491   2.279  11.533 -1.9683 -1.7772  0.0830
  840MOL0     H15914   0.482   2.268  11.301 -0.1497  0.7367  1.1840
  840MOL0     H15915   0.400   2.147  11.380  0.8413 -1.0009  2.9624
  840MOL0     H15916   0.710   1.943  11.147 -1.4501 -4.1567  0.9624
  840MOL0     H15917   1.111   2.482  11.464 -3.0231 -0.5936 -0.4451
  840MOL0     H15918   1.369   2.575  11.594  2.7050 -0.5457  0.7275
  840MOL0     H15919   1.466   2.480  11.484  0.7440  1.0913  1.0244
  840MOL0     H15920   1.318   2.552  11.425 -1.0365 -3.6286 -1.0941
  841MOL0     O15921  10.067   6.852   6.093  0.4333 -0.9287 -0.4214
  841MOL0     C15922  10.106   6.966   6.088 -1.3357  0.4260 -0.1814
  841MOL0     O15923  10.235   7.010   6.111 -0.2240 -0.4669 -0.8092
  841MOL0     C15924  10.327   6.926   6.162 -0.1284 -0.4357 -0.0784
  841MOL0     C15925  10.296   6.859   6.279 -0.0012 -0.9897  0.8491
  841MOL0     C15926  10.390   6.770   6.335  0.7983 -0.4665  0.0205
  841MOL0     C15927  10.516   6.747   6.270  1.1067 -1.3331  0.1457
  841MOL0     O15928  10.583   6.634   6.326  0.3312 -1.0170  0.7361
  841MOL0     C15929  10.712   6.596   6.275  0.4570 -0.0171  0.2549
  841MOL0     C15930  10.773   6.478   6.359 -0.1329  0.4009  0.1447
  841MOL0     C15931  10.859   6.385   6.268  0.8806 -0.0956  0.2173
  841MOL0     C15932  10.911   6.251   6.335  0.2572  0.2907 -0.0979
  841MOL0     C15933  10.997   6.166   6.242  0.8133  1.1712 -0.5328
  841MOL0     C15934  11.031   6.012   6.298  0.7133 -0.1197 -0.1108
  841MOL0     C15935  10.918   5.915   6.280  0.4825  0.4826 -0.1200
  841MOL0     C15936  10.925   5.773   6.345  0.7816  0.7206 -0.4294
  841MOL0     N15937  11.006   5.681   6.272 -0.1193  0.0746  0.5102
  841MOL0     C15938  11.146   5.665   6.280  0.1443 -1.1657  0.2048
  841MOL0     C15939  11.172   5.546   6.230  0.4189 -1.0160 -0.5388
  841MOL0     C15940  11.313   5.493   6.206 -1.1907 -0.0182  0.5275
  841MOL0     C15941  11.420   5.506   6.322 -0.3273 -0.1923 -1.1417
  841MOL0     C15942  11.520   5.388   6.320 -0.2079  0.0313  0.4593
  841MOL0     C15943  11.635   5.394   6.206  0.6729  0.3394 -0.3251
  841MOL0     O15944  11.701   5.529   6.197  0.4438  0.3341  0.1928
  841MOL0     C15945  11.829   5.532   6.148  0.2874  0.0316 -0.6093
  841MOL0     C15946  11.887   5.446   6.056  0.0643  0.4279 -1.6345
  841MOL0     C15947  12.004   5.474   6.001  0.2703 -0.0167 -0.3361
  841MOL0     C15948  12.058   5.376   5.895  0.0211  0.5323  0.2405
  841MOL0     C15949  12.076   5.596   6.022  0.4868 -0.5108  0.9337
  841MOL0     C15950  12.208   5.632   5.974 -0.2878 -0.0118  0.0673
  841MOL0     O15951  12.243   5.767   5.957  0.5318  0.5099 -0.1990
  841MOL0     C15952  12.370   5.801   5.910  0.2245  0.7132  0.0256
  841MOL0     C15953  12.430   5.917   5.962  0.1623  0.4138  0.6686
  841MOL0     C15954  12.550   5.954   5.897  0.2245  0.6205 -0.2025
  841MOL0     C15955  12.607   5.879   5.796  0.1424  0.2340  0.5063
  841MOL0     O15956  12.736   5.925   5.755  1.4431 -0.1833 -0.6013
  841MOL0     C15957  12.774   5.900   5.615  0.3073 -0.0555 -0.4652
  841MOL0     C15958  12.910   5.965   5.576 -0.5248 -0.3718  0.3782
  841MOL0     C15959  13.028   5.912   5.668 -0.2147 -0.3165  0.8116
  841MOL0     C15960  13.091   5.777   5.625 -0.5540 -0.1504  0.0134
  841MOL0     C15961  13.142   5.708   5.752 -0.1263  0.4805  0.4151
  841MOL0     C15962  13.257   5.789   5.825  0.1591  0.6708  1.1007
  841MOL0     C15963  13.335   5.704   5.925 -0.0301 -0.2447  0.2105
  841MOL0     C15964  13.451   5.788   5.987 -1.1758  0.4793 -0.1461
  841MOL0    Cl15965  13.537   5.700   6.110 -0.3695 -0.0041 -0.3545
  841MOL0     C15966  12.534   5.769   5.738  0.2414 -1.1003  0.8928
  841MOL0     C15967  12.417   5.732   5.799  0.0239  0.4014  0.5061
  841MOL0     O15968  12.282   5.538   5.965  1.6122 -0.4614 -0.2504
  841MOL0     C15969  12.007   5.689   6.098 -0.1991  0.2663  0.5637
  841MOL0     C15970  11.893   5.661   6.167  0.2774  0.2454 -0.1059
  841MOL0     N15971  11.066   5.489   6.171  0.7481  0.2563  0.2064
  841MOL0     N15972  10.967   5.570   6.193 -0.1221 -0.0492  0.1232
  841MOL0     C15973  10.537   6.812   6.153  0.8341 -1.1245 -0.1724
  841MOL0     C15974  10.444   6.908   6.103 -1.0570 -0.9654 -0.2455
  841MOL0     C15975  10.019   7.079   6.044  0.8279  0.5875 -0.2018
  841MOL0     C15976   9.929   7.054   5.951 -0.1128  0.0262  0.2468
  841MOL0     C15977   9.833   7.144   5.914  1.3949 -0.2593 -0.4316
  841MOL0     C15978   9.838   7.275   5.959  0.2676  0.3240  0.8119
  841MOL0     O15979   9.755   7.370   5.899 -0.7428  0.5491  0.1834
  841MOL0     C15980   9.775   7.514   5.916 -0.6412  1.3548 -0.4669
  841MOL0     C15981   9.816   7.584   5.785  0.4262 -0.4335  0.7409
  841MOL0     C15982   9.876   7.724   5.825  0.6128  0.1436  0.6345
  841MOL0     C15983   9.773   7.818   5.863  1.1820 -0.8415  0.4859
  841MOL0     C15984   9.836   7.919   5.952 -0.5805 -1.0619  0.4129
  841MOL0     C15985   9.885   8.001   6.025  0.0102  0.0694 -1.3194
  841MOL0     C15986   9.932   7.314   6.064 -0.4815  0.6501 -0.3544
  841MOL0     C15987  10.019   7.210   6.114 -0.4857  0.5449 -0.1528
  841MOL0     C15988  10.096   7.244   6.240  0.2808 -1.2674 -1.0784
  841MOL0     H15989  10.198   6.874   6.322 -0.0752 -3.2635  1.5545
  841MOL0     H15990  10.373   6.719   6.430 -1.2427 -1.1832 -0.6922
  841MOL0     H15991  10.787   6.676   6.286  0.3132  0.1788 -0.1839
  841MOL0     H15992  10.707   6.565   6.170  1.4340  3.0998 -0.8297
  841MOL0     H15993  10.842   6.520   6.434 -0.8011  1.6431  0.0906
  841MOL0     H15994  10.690   6.420   6.401  1.4138 -1.6914  0.4318
  841MOL0     H15995  10.794   6.350   6.187  0.3422  1.0988  0.1140
  841MOL0     H15996  10.939   6.443   6.222 -1.2962  2.1352 -1.0338
  841MOL0     H15997  10.963   6.272   6.429 -3.7415 -1.8612  2.9144
  841MOL0     H15998  10.824   6.193   6.368  0.1495  2.1589  3.4469
  841MOL0     H15999  11.092   6.220   6.238  0.6670  1.6548  1.3234
  841MOL0     H16000  10.959   6.160   6.140 -1.2572 -1.0416  0.2915
  841MOL0     H16001  11.105   5.966   6.231 -2.4176 -0.1648 -3.9078
  841MOL0     H16002  11.060   6.015   6.403  0.3588 -0.4096 -0.0016
  841MOL0     H16003  10.909   5.891   6.174  1.6845  1.2694 -0.4296
  841MOL0     H16004  10.828   5.960   6.322  0.8303  2.0649 -0.9734
  841MOL0     H16005  10.972   5.777   6.444  1.3696 -1.2865 -0.5836
  841MOL0     H16006  10.826   5.728   6.356 -0.9950  4.6356  1.5475
  841MOL0     H16007  11.216   5.733   6.327 -0.9944 -0.9777  1.7044
  841MOL0     H16008  11.364   5.534   6.119  0.4222  0.7986  1.7907
  841MOL0     H16009  11.294   5.386   6.195  0.0499 -0.3971  1.6575
  841MOL0     H16010  11.474   5.601   6.312  1.2128 -0.3551  3.3773
  841MOL0     H16011  11.370   5.501   6.419 -0.3694  0.1765 -1.1414
  841MOL0     H16012  11.572   5.406   6.415 -0.9093  1.6116  0.5642
  841MOL0     H16013  11.480   5.287   6.331  0.7261 -0.4849 -0.5857
  841MOL0     H16014  11.705   5.312   6.226 -1.4030 -1.3195  0.5393
  841MOL0     H16015  11.583   5.362   6.115  1.4265  0.3838 -0.7830
  841MOL0     H16016  11.836   5.355   6.025 -1.3144  1.6220 -3.0786
  841MOL0     H16017  12.057   5.415   5.792  0.9047 -2.4791 -1.0111
  841MOL0     H16018  11.989   5.292   5.885 -0.8321  1.3224 -0.7344
  841MOL0     H16019  12.154   5.333   5.926 -0.4724 -0.2783  0.6508
  841MOL0     H16020  12.374   5.971   6.039 -1.1116 -1.2061  0.9480
  841MOL0     H16021  12.601   6.048   5.916  0.8700 -0.0369  1.4845
  841MOL0     H16022  12.778   5.792   5.597  1.4254  0.1471 -1.5761
  841MOL0     H16023  12.698   5.942   5.549 -1.0945 -0.8490  0.5828
  841MOL0     H16024  12.919   5.940   5.470  1.5916  0.8103  0.2289
  841MOL0     H16025  12.896   6.066   5.617  1.0942 -1.8046  5.0751
  841MOL0     H16026  12.999   5.911   5.774 -0.0631 -0.4111  0.8515
  841MOL0     H16027  13.114   5.978   5.652  0.1291 -1.0603 -0.5552
  841MOL0     H16028  13.173   5.798   5.556 -1.7995 -0.0025 -1.4733
  841MOL0     H16029  13.019   5.712   5.574  0.8804 -1.1168 -0.8302
  841MOL0     H16030  13.059   5.686   5.820 -2.4109 -2.1078 -2.8000
  841MOL0     H16031  13.183   5.610   5.724  0.2289  0.6630  0.2908
  841MOL0     H16032  13.219   5.880   5.872  1.1573  1.9627 -0.4801
  841MOL0     H16033  13.332   5.828   5.756 -2.5776  0.9223 -1.9722
  841MOL0     H16034  13.380   5.623   5.867 -3.7216 -2.7411  0.5312
  841MOL0     H16035  13.269   5.668   6.004  2.5724 -3.5481  1.0817
  841MOL0     H16036  13.411   5.876   6.036  0.1026  2.0297 -1.7293
  841MOL0     H16037  13.520   5.809   5.904 -0.2538 -2.3768 -0.2136
  841MOL0     H16038  12.574   5.732   5.645 -0.4214  3.3558 -1.4251
  841MOL0     H16039  12.352   5.657   5.757 -0.8676 -0.3069  2.9325
  841MOL0     H16040  12.050   5.789   6.102  1.8766 -0.6154  1.4171
  841MOL0     H16041  11.849   5.735   6.233  0.7392  1.7956 -1.4342
  841MOL0     H16042  10.629   6.793   6.099 -0.9102  0.4536 -4.0731
  841MOL0     H16043  10.450   6.945   6.001 -1.9589 -2.0863 -0.7312
  841MOL0     H16044   9.923   6.956   5.904  1.8402 -0.1618  0.2973
  841MOL0     H16045   9.751   7.130   5.844 -0.4431  1.0268  1.3439
  841MOL0     H16046   9.674   7.534   5.953 -1.9490 -2.1672 -1.6989
  841MOL0     H16047   9.845   7.543   5.996 -2.7810  0.1817  1.9957
  841MOL0     H16048   9.741   7.601   5.707  2.6026  1.8960 -1.0125
  841MOL0     H16049   9.882   7.520   5.727  2.1039 -0.0449  2.1281
  841MOL0     H16050   9.943   7.716   5.911 -1.0521  1.0021  2.0911
  841MOL0     H16051   9.919   7.769   5.735 -3.4134  3.1862 -0.0713
  841MOL0     H16052   9.683   7.776   5.909  0.6032  1.3346  1.4932
  841MOL0     H16053   9.743   7.867   5.769  2.5058 -1.5643 -0.3403
  841MOL0     H16054   9.942   8.071   6.082 -0.7616  0.6246 -1.2193
  841MOL0     H16055   9.953   7.414   6.102  1.8297 -0.2434  0.9207
  841MOL0     H16056  10.040   7.321   6.294  0.2561 -1.1638 -1.2535
  841MOL0     H16057  10.108   7.156   6.305 -3.3430 -2.1108 -1.3454
  841MOL0     H16058  10.191   7.295   6.225 -1.3561  3.1940  1.6170
  842MOL0     O16059   4.092   7.202   4.836  0.8016 -0.0729 -0.1775
  842MOL0     C16060   4.084   7.138   4.938 -0.1487  0.8727  0.1815
  842MOL0     O16061   3.995   7.160   5.038 -0.7091  0.2074  0.0478
  842MOL0     C16062   3.933   7.284   5.055  0.4273  0.1267 -0.2606
  842MOL0     C16063   3.934   7.345   5.182  0.6900 -1.0221  0.4593
  842MOL0     C16064   3.875   7.469   5.207  0.5912 -0.4042 -0.4473
  842MOL0     C16065   3.812   7.536   5.107  0.7309  0.6310 -0.2623
  842MOL0     O16066   3.760   7.661   5.134  0.5976  0.0657  0.5068
  842MOL0     C16067   3.701   7.738   5.029  0.1484 -0.1763  0.3530
  842MOL0     C16068   3.813   7.804   4.938  0.3687 -0.5384 -0.0225
  842MOL0     C16069   3.787   7.955   4.897  0.1347 -0.2914  0.1504
  842MOL0     C16070   3.890   7.994   4.796 -0.6368  0.7636 -0.1090
  842MOL0     C16071   3.830   8.099   4.700 -0.1233 -0.2312  0.4105
  842MOL0     C16072   3.941   8.167   4.622  0.0734  0.1138  0.4101
  842MOL0     C16073   3.893   8.254   4.504 -0.7404 -0.6224  0.6397
  842MOL0     C16074   3.773   8.337   4.553  1.0315 -0.4350  0.2250
  842MOL0     N16075   3.752   8.432   4.445 -0.0142 -0.5365 -0.0985
  842MOL0     C16076   3.651   8.437   4.353 -0.2257 -0.1609  0.9059
  842MOL0     C16077   3.657   8.562   4.301  0.0110 -0.5241  0.8397
  842MOL0     C16078   3.574   8.623   4.190 -0.1567  0.1434  0.5815
  842MOL0     C16079   3.667   8.691   4.084  1.1670 -0.1635  0.2348
  842MOL0     C16080   3.602   8.732   3.953 -1.0507 -0.9536  0.0333
  842MOL0     C16081   3.454   8.692   3.923 -0.2370  0.7262  1.0844
  842MOL0     O16082   3.425   8.723   3.777 -0.0827  0.4202  0.2513
  842MOL0     C16083   3.304   8.763   3.742  0.3052  0.0925 -0.0221
  842MOL0     C16084   3.288   8.802   3.609 -0.1836 -0.0350  0.5720
  842MOL0     C16085   3.162   8.825   3.550 -0.0372 -0.6245 -0.6055
  842MOL0     C16086   3.152   8.830   3.401  0.0886 -0.1360  0.6644
  842MOL0     C16087   3.048   8.844   3.643 -1.1483  0.0070  0.3210
  842MOL0     C16088   2.909   8.897   3.603 -0.6497 -0.0966  0.7703
  842MOL0     O16089   2.915   9.000   3.510 -0.1071 -0.1811  0.4819
  842MOL0     C16090   2.802   9.041   3.447  0.2906  0.0568 -0.0677
  842MOL0     C16091   2.740   8.960   3.352 -0.5980  1.1552  0.4072
  842MOL0     C16092   2.623   9.015   3.282  0.9502  0.5194 -0.7827
  842MOL0     C16093   2.578   9.152   3.310  0.5429  0.4798 -0.2002
  842MOL0     O16094   2.471   9.197   3.234 -0.0350  0.0699 -0.0404
  842MOL0     C16095   2.350   9.123   3.241  1.2321  0.2258  0.2766
  842MOL0     C16096   2.240   9.189   3.161  0.4119 -1.4998  0.3209
  842MOL0     C16097   2.290   9.274   3.041  0.1682  0.5571  1.1179
  842MOL0     C16098   2.179   9.309   2.945  0.1749 -0.0928 -0.0798
  842MOL0     C16099   2.225   9.394   2.822 -0.2690 -0.5664  0.1416
  842MOL0     C16100   2.250   9.302   2.700  0.6486  0.7305 -0.1716
  842MOL0     C16101   2.301   9.378   2.571  0.2662 -0.5427  0.1522
  842MOL0     C16102   2.338   9.296   2.453  0.0881 -0.1322  0.3977
  842MOL0    Cl16103   2.449   9.376   2.349  0.2845  0.3915 -0.3372
  842MOL0     C16104   2.641   9.217   3.406 -0.1034 -0.6264 -0.3901
  842MOL0     C16105   2.753   9.166   3.471  0.3016 -0.3166  0.3827
  842MOL0     O16106   2.813   8.853   3.662 -0.6217 -0.0709  0.2762
  842MOL0     C16107   3.076   8.813   3.776  0.1542  0.1903 -0.0242
  842MOL0     C16108   3.190   8.765   3.824  0.1105 -1.0531  0.6292
  842MOL0     N16109   3.749   8.628   4.375 -0.7544 -0.5947 -0.0259
  842MOL0     N16110   3.812   8.550   4.455  0.3786 -0.1660 -0.6795
  842MOL0     C16111   3.800   7.466   4.980 -0.2856 -0.7760 -0.6777
  842MOL0     C16112   3.861   7.341   4.956  0.0446 -0.8349  0.3255
  842MOL0     C16113   4.148   7.003   4.946  0.6315 -0.1619  0.8807
  842MOL0     C16114   4.071   6.888   4.960 -0.1813  0.2296 -0.0088
  842MOL0     C16115   4.137   6.762   4.955 -0.5051 -0.7819  0.1825
  842MOL0     C16116   4.274   6.751   4.936 -0.2233 -0.7328  0.5661
  842MOL0     O16117   4.323   6.628   4.925 -0.5594  0.5109  0.1765
  842MOL0     C16118   4.464   6.619   4.871 -0.4574  0.1795 -0.5131
  842MOL0     C16119   4.480   6.641   4.718 -0.7802 -0.6365  0.0508
  842MOL0     C16120   4.408   6.535   4.632  0.4688  0.1707  0.8880
  842MOL0     C16121   4.255   6.567   4.616  0.1495  1.4941 -0.7948
  842MOL0     C16122   4.195   6.487   4.509 -0.2112 -0.0188  0.0665
  842MOL0     C16123   4.128   6.432   4.425  0.1921 -0.1330 -0.3697
  842MOL0     C16124   4.348   6.868   4.937 -0.4071  0.2925  0.2490
  842MOL0     C16125   4.289   6.990   4.946 -0.1031  0.5695 -0.3401
  842MOL0     C16126   4.376   7.108   4.941  0.2092 -0.2491  0.1933
  842MOL0     H16127   3.981   7.296   5.266 -3.4235 -3.6818  1.5174
  842MOL0     H16128   3.879   7.511   5.307  0.5394 -0.0111 -0.6102
  842MOL0     H16129   3.629   7.806   5.076 -0.3673 -0.3191 -0.2153
  842MOL0     H16130   3.640   7.666   4.973  2.1229 -0.6597 -1.2875
  842MOL0     H16131   3.911   7.799   4.988  1.6632  2.2000 -2.0463
  842MOL0     H16132   3.813   7.741   4.849 -4.2302 -0.3686 -0.3605
  842MOL0     H16133   3.691   7.969   4.847  0.3623 -4.8601 -2.1343
  842MOL0     H16134   3.782   8.014   4.989  0.5485  0.1389 -0.0989
  842MOL0     H16135   3.961   8.050   4.857  0.6560  0.8403 -1.6151
  842MOL0     H16136   3.943   7.911   4.748 -1.8749 -0.1019 -0.0336
  842MOL0     H16137   3.773   8.171   4.761  0.6296  1.4279 -0.7592
  842MOL0     H16138   3.758   8.050   4.633  1.9459 -0.4303 -1.7894
  842MOL0     H16139   3.996   8.218   4.701 -1.9606 -1.4271  2.9792
  842MOL0     H16140   4.006   8.086   4.586 -0.2025 -0.0844  0.3566
  842MOL0     H16141   3.862   8.190   4.422 -3.2518  0.0397  0.9990
  842MOL0     H16142   3.979   8.314   4.472 -2.6393  2.3613  0.6816
  842MOL0     H16143   3.684   8.273   4.559  0.0851  0.7683 -0.5858
  842MOL0     H16144   3.782   8.389   4.648 -0.6188  4.0004 -1.7695
  842MOL0     H16145   3.583   8.353   4.338 -0.1285 -0.1141  0.1749
  842MOL0     H16146   3.505   8.695   4.236 -1.0108 -0.0566 -0.3769
  842MOL0     H16147   3.522   8.538   4.146  1.8409 -0.4594 -0.7456
  842MOL0     H16148   3.703   8.779   4.139  1.6064 -1.6509  2.4856
  842MOL0     H16149   3.749   8.622   4.063  2.4911  2.0179 -2.3114
  842MOL0     H16150   3.608   8.841   3.947  0.8597 -0.9818  0.7935
  842MOL0     H16151   3.658   8.692   3.867  2.7997  2.0086  0.8677
  842MOL0     H16152   3.434   8.587   3.946 -2.2571  1.4807  3.0795
  842MOL0     H16153   3.398   8.756   3.992  0.5997 -0.7597  3.2659
  842MOL0     H16154   3.364   8.794   3.532 -0.3783 -1.8102  0.5011
  842MOL0     H16155   3.241   8.796   3.346 -1.9539 -3.1357 -1.0843
  842MOL0     H16156   3.136   8.935   3.375  0.0900 -0.9004 -2.9675
  842MOL0     H16157   3.069   8.767   3.367  1.7019 -1.4661 -1.0276
  842MOL0     H16158   2.768   8.858   3.330  1.8135  1.7259  0.5301
  842MOL0     H16159   2.583   8.949   3.205  0.3178  1.7546 -1.5417
  842MOL0     H16160   2.348   9.020   3.205  2.3976  0.2548  0.1084
  842MOL0     H16161   2.305   9.130   3.341  1.4387 -2.1963  0.5924
  842MOL0     H16162   2.171   9.109   3.131  1.0156 -0.5936 -4.1394
  842MOL0     H16163   2.182   9.262   3.219  0.9025  0.6325 -1.7704
  842MOL0     H16164   2.364   9.221   2.981 -0.8018  0.5402 -0.1193
  842MOL0     H16165   2.328   9.365   3.089 -2.8787  2.4041  0.3429
  842MOL0     H16166   2.107   9.366   3.004  1.8784  1.5283  0.5396
  842MOL0     H16167   2.133   9.215   2.913  2.2565 -1.2443  0.1000
  842MOL0     H16168   2.146   9.469   2.811 -0.1447 -0.6843 -1.9529
  842MOL0     H16169   2.315   9.450   2.850 -0.0341 -0.6039 -0.5185
  842MOL0     H16170   2.151   9.258   2.682  0.4318  2.0519 -2.8043
  842MOL0     H16171   2.325   9.223   2.705 -0.1149 -0.0177 -0.2924
  842MOL0     H16172   2.389   9.433   2.604 -1.1873  2.1451 -0.2341
  842MOL0     H16173   2.224   9.448   2.538 -3.2082 -4.4084 -0.7749
  842MOL0     H16174   2.250   9.282   2.390  0.6776 -1.1925 -0.2279
  842MOL0     H16175   2.380   9.200   2.482 -0.1442 -0.4050 -0.1674
  842MOL0     H16176   2.609   9.320   3.421  1.1159  0.0383 -2.0316
  842MOL0     H16177   2.798   9.238   3.537 -1.0901  0.0634  0.9459
  842MOL0     H16178   2.995   8.825   3.848  0.1617 -3.7225  0.8815
  842MOL0     H16179   3.189   8.730   3.927  0.2427  0.7526  1.2804
  842MOL0     H16180   3.750   7.507   4.893  1.0526  1.8820 -0.2743
  842MOL0     H16181   3.849   7.284   4.864  0.2030  1.9063 -1.4966
  842MOL0     H16182   3.964   6.896   4.973 -0.3918 -1.0243 -0.8141
  842MOL0     H16183   4.071   6.677   4.963 -3.6301  1.5081  0.6610
  842MOL0     H16184   4.534   6.687   4.921  0.0383 -0.6402 -0.0724
  842MOL0     H16185   4.508   6.528   4.911 -2.7982 -0.5861  0.5324
  842MOL0     H16186   4.583   6.647   4.680 -1.4845 -1.1850 -2.0776
  842MOL0     H16187   4.450   6.745   4.703  0.8314  0.0641  1.3221
  842MOL0     H16188   4.448   6.531   4.530 -0.3254 -3.8401  0.5919
  842MOL0     H16189   4.427   6.438   4.679 -2.1431 -1.3963 -1.0286
  842MOL0     H16190   4.230   6.673   4.609 -2.1244  1.1092  0.5308
  842MOL0     H16191   4.202   6.536   4.707 -2.2267  2.1782 -1.8822
  842MOL0     H16192   4.078   6.381   4.345 -2.4681 -0.6160  1.4729
  842MOL0     H16193   4.456   6.867   4.924 -0.7182 -1.1239 -3.2498
  842MOL0     H16194   4.470   7.099   4.996  0.1016  0.4839  0.5118
  842MOL0     H16195   4.392   7.131   4.835  1.4130 -0.2485  0.3614
  842MOL0     H16196   4.339   7.194   4.997  2.3934 -1.6315  4.1667
  843MOL0     O16197   7.022   7.584  10.892 -0.9968  0.5610 -0.1585
  843MOL0     C16198   7.028   7.530  11.007  0.2800 -0.2384 -0.7207
  843MOL0     O16199   6.936   7.555  11.103 -0.1064  0.0536 -0.5161
  843MOL0     C16200   6.845   7.659  11.081  0.2023 -0.2896  0.4351
  843MOL0     C16201   6.731   7.648  10.997  0.4748 -0.3627 -0.4242
  843MOL0     C16202   6.638   7.750  10.971  0.1688  0.0219  0.3153
  843MOL0     C16203   6.640   7.871  11.036 -1.0373 -0.0950 -0.1062
  843MOL0     O16204   6.548   7.968  11.019  0.0285 -0.4325 -0.0454
  843MOL0     C16205   6.466   7.991  10.902  0.4036 -0.5253  0.1323
  843MOL0     C16206   6.399   8.121  10.929 -0.1515 -0.4824 -1.5998
  843MOL0     C16207   6.486   8.237  10.964 -0.1858  0.5319  0.4847
  843MOL0     C16208   6.411   8.367  10.928 -0.1992 -1.1698  0.5208
  843MOL0     C16209   6.497   8.498  10.912  0.6768 -0.2515  0.2340
  843MOL0     C16210   6.565   8.519  11.051 -0.0264 -0.0539 -0.8469
  843MOL0     C16211   6.680   8.623  11.051  0.3825  0.0849 -0.7198
  843MOL0     C16212   6.787   8.600  10.953 -0.3946  0.1570  0.0847
  843MOL0     N16213   6.870   8.483  11.003 -0.5057  0.7638  0.4833
  843MOL0     C16214   6.887   8.364  10.934 -0.0344 -0.8593 -0.1518
  843MOL0     C16215   7.003   8.309  10.972  0.5905  0.2544  0.5711
  843MOL0     C16216   7.070   8.181  10.932  0.9437  0.7040 -0.4387
  843MOL0     C16217   6.968   8.067  10.955 -0.4943  0.5114  0.2252
  843MOL0     C16218   7.024   7.938  10.889  0.3617 -1.2944  0.3680
  843MOL0     C16219   7.155   7.893  10.950 -0.3073  0.3969 -1.0140
  843MOL0     O16220   7.140   7.872  11.096 -0.7530  0.5561 -0.1497
  843MOL0     C16221   7.228   7.795  11.167  0.3333  0.6081  0.0444
  843MOL0     C16222   7.180   7.768  11.296 -0.9954  0.1082 -0.1934
  843MOL0     C16223   7.239   7.676  11.385 -0.3347  0.7048  0.1450
  843MOL0     C16224   7.177   7.662  11.522 -0.1621  0.6148  0.2570
  843MOL0     C16225   7.364   7.609  11.348  0.0111 -0.3482  0.4518
  843MOL0     C16226   7.411   7.497  11.424  0.0353 -0.2104 -0.4089
  843MOL0     O16227   7.539   7.476  11.458  0.4157 -1.2289  0.0878
  843MOL0     C16228   7.637   7.562  11.434 -0.1533 -0.6332  0.6309
  843MOL0     C16229   7.743   7.542  11.338  0.6380 -0.4931  0.3903
  843MOL0     C16230   7.848   7.639  11.333 -0.1072  0.6088  1.1321
  843MOL0     C16231   7.870   7.735  11.430  1.3644  0.2568  0.2815
  843MOL0     O16232   7.977   7.819  11.415  0.2596  0.3355 -0.2906
  843MOL0     C16233   7.939   7.954  11.379 -0.0892 -0.7449 -0.0039
  843MOL0     C16234   8.065   8.035  11.347  0.5263 -0.1975  0.5334
  843MOL0     C16235   8.177   7.948  11.282 -0.2624 -0.5866  0.1791
  843MOL0     C16236   8.305   8.031  11.247 -0.2834  1.1087 -0.0445
  843MOL0     C16237   8.425   7.940  11.210  0.4520 -0.2546  0.4259
  843MOL0     C16238   8.531   8.015  11.121 -0.3148 -0.1449  0.3985
  843MOL0     C16239   8.657   7.937  11.074  0.3631 -0.1463  0.1583
  843MOL0     C16240   8.733   8.038  10.990 -0.4029 -0.4101 -0.0898
  843MOL0    Cl16241   8.876   7.979  10.901 -0.0806 -0.0111 -0.3036
  843MOL0     C16242   7.779   7.746  11.536  0.2620  0.6424  0.7593
  843MOL0     C16243   7.654   7.667  11.528 -0.0197  0.2012  0.4063
  843MOL0     O16244   7.329   7.414  11.445  0.3237  0.4221  0.3753
  843MOL0     C16245   7.422   7.644  11.224 -0.1882  0.2626 -0.2226
  843MOL0     C16246   7.354   7.736  11.144 -0.8192  0.3548  0.6240
  843MOL0     N16247   7.045   8.381  11.076  0.1115 -0.5035  0.2995
  843MOL0     N16248   6.970   8.484  11.103  0.3450  0.6545  0.0707
  843MOL0     C16249   6.743   7.886  11.129 -0.0679 -0.5623  0.3219
  843MOL0     C16250   6.842   7.784  11.150 -0.4160 -0.5357 -0.0563
  843MOL0     C16251   7.137   7.430  11.039 -0.6542  0.0806 -0.0037
  843MOL0     C16252   7.246   7.418  10.948 -0.3108 -0.3537  0.1698
  843MOL0     C16253   7.358   7.342  10.975 -0.0704 -0.4729 -0.1580
  843MOL0     C16254   7.380   7.278  11.098  0.2599  0.1835 -0.3946
  843MOL0     O16255   7.489   7.210  11.107 -0.4541  0.0611  0.1513
  843MOL0     C16256   7.528   7.163  11.240  0.4920  0.3158 -0.7618
  843MOL0     C16257   7.682   7.129  11.228  0.4322 -0.0688 -0.0301
  843MOL0     C16258   7.711   7.019  11.122 -1.2638  0.3630 -0.6259
  843MOL0     C16259   7.860   7.018  11.076 -0.0719 -0.1410 -0.2348
  843MOL0     C16260   7.900   6.905  11.000  0.5322  0.8733  0.7763
  843MOL0     C16261   7.923   6.796  10.944 -0.0568 -0.5133 -0.5683
  843MOL0     C16262   7.269   7.288  11.189  0.7024  0.9907 -0.5413
  843MOL0     C16263   7.152   7.366  11.167 -0.2008  0.4719 -0.5789
  843MOL0     C16264   7.045   7.350  11.279 -0.1502 -0.4858  0.2698
  843MOL0     H16265   6.710   7.552  10.953  0.2085  0.2329 -1.6404
  843MOL0     H16266   6.557   7.750  10.900 -0.3798  0.2014  0.9321
  843MOL0     H16267   6.397   7.907  10.888  1.0550 -0.9608 -0.5365
  843MOL0     H16268   6.527   7.997  10.811  2.3831 -0.0026  1.4375
  843MOL0     H16269   6.344   8.151  10.839  0.0686  0.9605 -1.2651
  843MOL0     H16270   6.335   8.121  11.018  0.1953  2.4996 -1.2473
  843MOL0     H16271   6.503   8.238  11.072  1.3741  1.0365  0.2546
  843MOL0     H16272   6.583   8.224  10.915 -1.2634 -2.7722 -1.0683
  843MOL0     H16273   6.366   8.372  10.829  2.6505  2.4370 -0.8011
  843MOL0     H16274   6.326   8.361  10.997 -0.1672 -3.1869  0.4520
  843MOL0     H16275   6.430   8.581  10.889 -3.5430 -2.5672  2.8369
  843MOL0     H16276   6.567   8.480  10.830 -1.1560 -0.6890 -1.2950
  843MOL0     H16277   6.487   8.546  11.123  0.7924  0.6889 -0.2119
  843MOL0     H16278   6.595   8.424  11.095 -2.2429 -2.3273 -3.8027
  843MOL0     H16279   6.733   8.620  11.147 -1.6614 -3.4655  0.4846
  843MOL0     H16280   6.648   8.727  11.039  0.2594  0.2744  0.9268
  843MOL0     H16281   6.748   8.579  10.853  2.0118 -3.1093 -0.3473
  843MOL0     H16282   6.857   8.681  10.934  2.4743 -1.9035  1.0620
  843MOL0     H16283   6.819   8.318  10.863 -0.6826 -2.9239  1.7027
  843MOL0     H16284   7.156   8.163  10.997 -2.4136 -1.5124  3.9742
  843MOL0     H16285   7.104   8.172  10.829 -0.8291 -2.1909 -0.8757
  843MOL0     H16286   6.959   8.050  11.063  2.2289  0.6158  0.5297
  843MOL0     H16287   6.867   8.084  10.915 -1.3430 -1.1412  1.4934
  843MOL0     H16288   6.948   7.861  10.900  0.5921 -1.6848 -0.6144
  843MOL0     H16289   7.025   7.949  10.780 -0.5633  0.7276  0.5225
  843MOL0     H16290   7.181   7.799  10.900  1.8420  0.1084  0.4983
  843MOL0     H16291   7.228   7.970  10.926  0.4707 -0.7620 -2.5391
  843MOL0     H16292   7.088   7.812  11.331 -0.2948 -0.9799  3.4479
  843MOL0     H16293   7.105   7.741  11.546 -2.2150 -1.0368 -0.1248
  843MOL0     H16294   7.251   7.675  11.601 -0.2292  3.4588 -0.0445
  843MOL0     H16295   7.137   7.561  11.534  1.7692 -0.5316 -2.0524
  843MOL0     H16296   7.722   7.475  11.255 -0.1742 -0.2843  0.4213
  843MOL0     H16297   7.909   7.636  11.243 -1.4848  3.9456 -0.0881
  843MOL0     H16298   7.870   7.958  11.293  2.1941 -0.0536 -1.9194
  843MOL0     H16299   7.892   7.990  11.471  1.3214 -2.2615  1.3636
  843MOL0     H16300   8.039   8.121  11.284  4.5494 -0.5911 -2.0524
  843MOL0     H16301   8.105   8.081  11.437 -0.1040  1.1378  0.1604
  843MOL0     H16302   8.142   7.894  11.194  1.3826 -0.9022 -0.3245
  843MOL0     H16303   8.196   7.864  11.349  1.3856 -2.2878 -2.2664
  843MOL0     H16304   8.337   8.084  11.337 -1.2739  2.8323 -0.6546
  843MOL0     H16305   8.280   8.108  11.174  1.8534  1.6149 -0.3056
  843MOL0     H16306   8.477   7.911  11.302  2.3804 -4.3630 -1.7122
  843MOL0     H16307   8.382   7.848  11.169 -1.0994  0.4468  0.3809
  843MOL0     H16308   8.557   8.106  11.174 -0.5780 -0.6378  1.3984
  843MOL0     H16309   8.485   8.055  11.030  3.1543 -2.0247 -2.4748
  843MOL0     H16310   8.616   7.859  11.009  0.3704 -2.0804  2.2991
  843MOL0     H16311   8.712   7.896  11.160  0.1605 -0.2712  0.2307
  843MOL0     H16312   8.763   8.106  11.070 -0.1346 -0.0699 -0.4718
  843MOL0     H16313   8.674   8.105  10.925 -2.5665 -1.5103  0.6600
  843MOL0     H16314   7.804   7.814  11.618 -0.8067 -0.6588  2.2250
  843MOL0     H16315   7.577   7.684  11.602  1.2844  0.9399  1.6471
  843MOL0     H16316   7.522   7.608  11.200  0.9087  2.1494  1.2168
  843MOL0     H16317   7.415   7.766  11.059 -1.1083 -1.1545 -0.1378
  843MOL0     H16318   6.757   7.973  11.192  1.7243  1.4458 -2.6190
  843MOL0     H16319   6.930   7.787  11.213  0.6895 -0.3586 -1.5410
  843MOL0     H16320   7.252   7.491  10.868  1.1748  2.9393  3.0551
  843MOL0     H16321   7.439   7.341  10.903  0.4052 -1.8699  0.3508
  843MOL0     H16322   7.516   7.244  11.313  1.5828 -0.1964 -0.0010
  843MOL0     H16323   7.463   7.078  11.264  3.1700 -1.1208  2.0603
  843MOL0     H16324   7.732   7.093  11.318  1.2430 -1.6710 -1.0726
  843MOL0     H16325   7.723   7.227  11.201 -0.2929  1.1426  2.9131
  843MOL0     H16326   7.692   6.928  11.180 -0.9073  2.0250  2.3009
  843MOL0     H16327   7.640   7.028  11.039 -2.4308 -1.9946  0.0143
  843MOL0     H16328   7.921   7.011  11.167  2.8551  0.7290 -1.9875
  843MOL0     H16329   7.888   7.114  11.033 -0.5220  1.4765  2.7963
  843MOL0     H16330   7.932   6.694  10.911 -1.1092 -1.9125  2.9295
  843MOL0     H16331   7.275   7.240  11.286  0.8662 -2.8465 -2.2678
  843MOL0     H16332   7.080   7.275  11.351  4.3022 -0.8743 -1.9218
  843MOL0     H16333   7.033   7.437  11.343  0.1297 -0.6863  0.6007
  843MOL0     H16334   6.946   7.326  11.238 -0.5409  0.6533  0.5353
  844MOL0     O16335   5.253   6.786   6.280 -0.4546  0.2575  0.4263
  844MOL0     C16336   5.333   6.720   6.352 -0.3258 -0.2840 -0.2880
  844MOL0     O16337   5.339   6.586   6.362 -0.2401  0.0148 -0.3937
  844MOL0     C16338   5.263   6.508   6.280  0.4044 -0.8500  0.4094
  844MOL0     C16339   5.239   6.535   6.138  0.9925  0.4438  0.4353
  844MOL0     C16340   5.157   6.450   6.060 -0.1807 -0.3149  0.3841
  844MOL0     C16341   5.114   6.328   6.124  0.6730 -0.9456  0.5557
  844MOL0     O16342   5.024   6.239   6.065 -0.1625  0.5398  0.3196
  844MOL0     C16343   5.035   6.217   5.924  0.7435  0.1592  0.3910
  844MOL0     C16344   4.929   6.118   5.864  0.3987 -0.5954  0.0747
  844MOL0     C16345   4.975   6.047   5.735  0.4431 -0.0533  0.6750
  844MOL0     C16346   4.856   5.957   5.687 -0.2417 -0.1510 -0.4484
  844MOL0     C16347   4.874   5.834   5.586 -1.0374 -0.2350  0.1241
  844MOL0     C16348   4.955   5.723   5.653  0.3183 -0.1131 -0.4168
  844MOL0     C16349   4.986   5.615   5.553  0.2318  0.6908  0.3488
  844MOL0     C16350   5.106   5.630   5.465 -0.3956 -0.9024  0.2471
  844MOL0     N16351   5.149   5.495   5.410  0.5273 -0.4199  0.5895
  844MOL0     C16352   5.067   5.383   5.377  0.4209 -0.7339 -0.7375
  844MOL0     C16353   5.154   5.278   5.367 -0.4477  0.1105 -0.0726
  844MOL0     C16354   5.098   5.134   5.337  0.5290  0.1490 -0.1541
  844MOL0     C16355   5.153   5.078   5.206  0.0005 -0.0028  0.2766
  844MOL0     C16356   5.091   4.950   5.145 -0.7163 -0.2681  1.2241
  844MOL0     C16357   4.956   4.982   5.076 -0.5326 -1.0845  0.1282
  844MOL0     O16358   4.884   4.867   5.023 -0.2682  0.0101  0.0100
  844MOL0     C16359   4.765   4.897   4.954 -0.5662 -0.6000 -0.1640
  844MOL0     C16360   4.733   5.017   4.892 -0.0442  0.1894  0.6405
  844MOL0     C16361   4.616   5.042   4.828  0.4302  0.3180 -0.1078
  844MOL0     C16362   4.599   5.185   4.779 -0.4035  0.1491  0.1516
  844MOL0     C16363   4.517   4.939   4.831  0.0143  0.4323  0.9798
  844MOL0     C16364   4.385   4.939   4.774  0.1720 -0.0613 -0.9773
  844MOL0     O16365   4.310   4.829   4.779 -0.0811 -0.0715  0.6094
  844MOL0     C16366   4.179   4.820   4.765 -0.2173 -0.0229 -0.0801
  844MOL0     C16367   4.109   4.879   4.661 -0.1185  0.5127 -0.6041
  844MOL0     C16368   3.972   4.861   4.649  1.0246 -0.5000 -0.5597
  844MOL0     C16369   3.890   4.764   4.724  0.4280 -0.9250  0.7432
  844MOL0     O16370   3.756   4.759   4.708  0.5023 -0.3575  0.0891
  844MOL0     C16371   3.692   4.636   4.707 -0.3215 -0.0061  0.0326
  844MOL0     C16372   3.533   4.669   4.717 -0.2135  0.3143  0.3445
  844MOL0     C16373   3.478   4.698   4.571 -0.4416 -0.6804 -0.4625
  844MOL0     C16374   3.361   4.800   4.580  0.5475 -1.3471 -0.5455
  844MOL0     C16375   3.297   4.806   4.439  0.0238 -0.1845 -0.5726
  844MOL0     C16376   3.161   4.879   4.453  0.6162 -0.9385  0.0266
  844MOL0     C16377   3.084   4.868   4.310 -1.0061  0.1506  0.6386
  844MOL0     C16378   2.973   4.978   4.298 -0.2927 -0.5884  0.2772
  844MOL0    Cl16379   3.052   5.138   4.293 -0.5043  0.0056  0.1625
  844MOL0     C16380   3.961   4.715   4.837 -0.4743 -0.0815  0.0591
  844MOL0     C16381   4.099   4.743   4.859  0.2895  0.4258  0.1386
  844MOL0     O16382   4.359   5.047   4.712 -0.0496 -0.4225  0.1744
  844MOL0     C16383   4.554   4.813   4.896 -0.1988 -0.6341 -0.4921
  844MOL0     C16384   4.674   4.791   4.958  0.3912  0.2554  0.5009
  844MOL0     N16385   5.278   5.326   5.401  0.4063  0.2544  0.1241
  844MOL0     N16386   5.278   5.448   5.414 -0.6236  0.9686 -0.1803
  844MOL0     C16387   5.138   6.301   6.254  0.5515 -0.0420 -0.1573
  844MOL0     C16388   5.222   6.385   6.333 -0.2935 -0.7379 -0.3926
  844MOL0     C16389   5.420   6.792   6.452  0.2675  0.1796 -0.5998
  844MOL0     C16390   5.486   6.726   6.550  0.2475  0.3921 -0.5788
  844MOL0     C16391   5.568   6.786   6.639  0.6007 -0.2338  0.5092
  844MOL0     C16392   5.595   6.927   6.631 -1.2274 -0.1074  0.7687
  844MOL0     O16393   5.670   7.010   6.716 -0.7029  0.3259 -0.1273
  844MOL0     C16394   5.739   6.948   6.830  0.2590  0.0966  1.1026
  844MOL0     C16395   5.893   6.919   6.798  0.0854  1.0164 -0.3072
  844MOL0     C16396   5.983   7.039   6.762 -0.8353  0.2537 -0.7130
  844MOL0     C16397   6.124   6.985   6.726  0.4208  0.5279  0.5775
  844MOL0     C16398   6.182   6.903   6.834 -0.3813  0.4723 -0.3462
  844MOL0     C16399   6.228   6.818   6.909 -0.0135 -0.7293 -0.4207
  844MOL0     C16400   5.526   6.997   6.533 -0.6259  0.1190  0.1342
  844MOL0     C16401   5.438   6.938   6.447 -0.8164  0.4427  0.6185
  844MOL0     C16402   5.354   7.029   6.354  0.2997 -0.5945  1.0950
  844MOL0     H16403   5.278   6.622   6.086  1.7730  0.3368  0.8308
  844MOL0     H16404   5.126   6.488   5.964  0.8335 -1.3729 -0.3938
  844MOL0     H16405   5.135   6.184   5.897 -0.1920 -0.4293 -2.8134
  844MOL0     H16406   5.024   6.318   5.884  0.5842  0.5258  1.3308
  844MOL0     H16407   4.895   6.038   5.930  0.3381 -2.0699 -1.6808
  844MOL0     H16408   4.844   6.186   5.854 -2.0762 -3.4703  0.4302
  844MOL0     H16409   5.007   6.120   5.660 -0.3386  1.7511  2.0201
  844MOL0     H16410   5.060   5.983   5.762  0.5171 -0.6034 -0.8036
  844MOL0     H16411   4.800   5.916   5.772  1.7690  1.0107  1.5219
  844MOL0     H16412   4.783   6.033   5.655 -0.2620  1.1788  2.4886
  844MOL0     H16413   4.929   5.869   5.498  0.2921  0.0809  1.0536
  844MOL0     H16414   4.780   5.791   5.549  0.2530 -2.0209 -1.2226
  844MOL0     H16415   5.044   5.763   5.701  1.4607  0.1852 -2.6277
  844MOL0     H16416   4.883   5.682   5.724 -1.5685  0.6867 -1.7562
  844MOL0     H16417   4.893   5.581   5.507 -1.8599  1.2663  3.8521
  844MOL0     H16418   5.011   5.538   5.627 -1.0053  2.2645  2.5135
  844MOL0     H16419   5.092   5.696   5.379  1.2332 -0.6004  0.1719
  844MOL0     H16420   5.197   5.666   5.515  1.7081 -1.5506 -2.8146
  844MOL0     H16421   4.962   5.387   5.351 -0.6871 -1.3641  3.1208
  844MOL0     H16422   4.990   5.147   5.330  0.2871  1.3729  3.7095
  844MOL0     H16423   5.111   5.059   5.416 -1.9943  1.2989  1.4567
  844MOL0     H16424   5.181   5.147   5.127  2.9631 -1.5065 -0.1296
  844MOL0     H16425   5.252   5.051   5.244 -0.1484  1.8915  2.2092
  844MOL0     H16426   5.163   4.906   5.075 -1.5989  0.7648 -0.3947
  844MOL0     H16427   5.085   4.862   5.208 -1.3227 -0.8008  0.4460
  844MOL0     H16428   4.886   5.034   5.142  1.1157 -0.0825  1.1493
  844MOL0     H16429   4.983   5.050   4.994  0.1405  0.3184  1.4779
  844MOL0     H16430   4.811   5.093   4.896  0.7668 -0.6169  0.4753
  844MOL0     H16431   4.581   5.191   4.672 -2.3812  0.6676  0.4826
  844MOL0     H16432   4.686   5.247   4.803  0.8746 -2.4812  3.0647
  844MOL0     H16433   4.512   5.233   4.825 -0.2645  0.3856  0.1652
  844MOL0     H16434   4.159   4.939   4.586 -1.7960  3.7061  0.6618
  844MOL0     H16435   3.921   4.920   4.574  0.1564 -0.1381  0.3043
  844MOL0     H16436   3.703   4.576   4.617 -2.6459 -0.4602 -0.0146
  844MOL0     H16437   3.722   4.576   4.794 -1.3195  1.4236  1.4210
  844MOL0     H16438   3.477   4.578   4.741 -0.5644  0.8459  1.6559
  844MOL0     H16439   3.515   4.755   4.783  0.0258 -0.0633  0.9125
  844MOL0     H16440   3.435   4.606   4.530 -1.9420 -0.0408 -0.3973
  844MOL0     H16441   3.558   4.719   4.500 -0.4412 -2.9791 -1.2072
  844MOL0     H16442   3.395   4.901   4.604 -1.6698  0.1889 -3.3454
  844MOL0     H16443   3.294   4.761   4.658 -1.9365  2.0656 -0.7609
  844MOL0     H16444   3.365   4.846   4.364 -0.4956 -0.5322 -1.2323
  844MOL0     H16445   3.277   4.705   4.404 -2.5558  0.6489 -1.7567
  844MOL0     H16446   3.202   4.979   4.467  1.8509 -1.0519 -2.3462
  844MOL0     H16447   3.101   4.835   4.534 -2.2863 -0.5912 -1.8041
  844MOL0     H16448   3.041   4.768   4.299  0.9567 -1.1200  3.4812
  844MOL0     H16449   3.153   4.875   4.225 -1.2039 -1.5386  0.2950
  844MOL0     H16450   2.901   4.964   4.379  0.0142  1.6469  1.0022
  844MOL0     H16451   2.914   4.957   4.208  2.9273 -0.7654 -1.9885
  844MOL0     H16452   3.902   4.652   4.903 -3.1819  0.1427 -2.0071
  844MOL0     H16453   4.145   4.701   4.948 -0.4570 -1.1712 -0.1914
  844MOL0     H16454   4.488   4.727   4.907 -0.3095 -0.5202 -0.2804
  844MOL0     H16455   4.697   4.701   5.015 -1.8220  0.9128  2.6020
  844MOL0     H16456   5.092   6.208   6.286 -2.3699  0.6116 -2.0837
  844MOL0     H16457   5.226   6.357   6.438 -0.7517  1.6544  0.3165
  844MOL0     H16458   5.481   6.620   6.571  0.4643  1.0036  3.1189
  844MOL0     H16459   5.597   6.718   6.719 -0.8914 -1.8325 -0.2597
  844MOL0     H16460   5.744   7.016   6.915 -0.0147  0.9258  0.4673
  844MOL0     H16461   5.695   6.853   6.862  1.2364 -2.0963 -3.2387
  844MOL0     H16462   5.885   6.854   6.710 -0.1414 -2.2175  1.9122
  844MOL0     H16463   5.935   6.873   6.888 -1.5620  0.1464  0.0539
  844MOL0     H16464   5.932   7.104   6.690 -0.5524 -0.9620 -2.0570
  844MOL0     H16465   5.998   7.092   6.857 -0.2011 -2.6752  0.9528
  844MOL0     H16466   6.182   7.073   6.698  0.6609 -0.0876 -0.9614
  844MOL0     H16467   6.106   6.918   6.641  0.6994 -0.4855  1.2981
  844MOL0     H16468   6.275   6.742   6.968 -1.5448 -1.4081 -0.0251
  844MOL0     H16469   5.558   7.097   6.505 -0.5285  0.3783  1.1270
  844MOL0     H16470   5.247   7.004   6.353  0.0718  0.3384  0.8933
  844MOL0     H16471   5.370   7.133   6.383  4.3022 -0.4356 -1.0006
  844MOL0     H16472   5.399   7.025   6.254  2.5545  2.4997  1.8255
  845MOL0     O16473   5.801   2.743   0.198 -0.9356 -0.2664 -0.1779
  845MOL0     C16474   5.896   2.685   0.248  0.2382 -0.3032 -1.7181
  845MOL0     O16475   5.970   2.727   0.364  0.2462 -0.4409  0.0041
  845MOL0     C16476   5.941   2.836   0.451  1.4153  0.0967 -0.1725
  845MOL0     C16477   5.811   2.873   0.488 -0.5833 -0.3227  0.4188
  845MOL0     C16478   5.793   2.991   0.565  0.2438  0.1301  0.0986
  845MOL0     C16479   5.900   3.061   0.613  0.2893  0.6373  0.3730
  845MOL0     O16480   5.875   3.165   0.689 -0.1860  0.4614 -0.9228
  845MOL0     C16481   5.974   3.260   0.744 -0.9169  1.3876 -0.3618
  845MOL0     C16482   5.906   3.334   0.850 -0.1342  0.4046  0.3806
  845MOL0     C16483   5.853   3.476   0.805  0.0408  0.8178 -0.7246
  845MOL0     C16484   5.835   3.576   0.913  1.1578 -0.7450  0.8169
  845MOL0     C16485   5.721   3.556   1.006  0.5968 -0.2999  0.0580
  845MOL0     C16486   5.693   3.675   1.099 -0.1850 -1.3344  0.6429
  845MOL0     C16487   5.556   3.672   1.165 -0.7170 -0.3298  0.0140
  845MOL0     C16488   5.534   3.791   1.249 -0.0910  0.0537  0.1751
  845MOL0     N16489   5.405   3.782   1.317 -0.6720  0.2422 -0.1166
  845MOL0     C16490   5.330   3.887   1.341 -0.8460  0.3221 -0.2112
  845MOL0     C16491   5.228   3.835   1.408  0.8340 -1.0183 -0.0300
  845MOL0     C16492   5.108   3.913   1.467  0.2841  0.4422  0.4645
  845MOL0     C16493   5.024   3.983   1.359 -0.5713  0.6190 -0.4355
  845MOL0     C16494   4.923   3.883   1.291  1.1368 -1.3844  0.6885
  845MOL0     C16495   4.991   3.770   1.213  1.2435  0.4805 -0.0375
  845MOL0     O16496   5.098   3.822   1.134  0.3780  0.1775 -0.1790
  845MOL0     C16497   5.166   3.742   1.048  0.7120  0.1841 -0.3819
  845MOL0     C16498   5.252   3.810   0.956 -0.7094  0.0533 -0.3608
  845MOL0     C16499   5.315   3.751   0.843  0.5029  0.6273  0.2475
  845MOL0     C16500   5.382   3.834   0.731 -0.1506 -0.2339  0.6654
  845MOL0     C16501   5.303   3.608   0.828  0.7311 -0.0941  0.2332
  845MOL0     C16502   5.366   3.519   0.714  0.2872 -0.7901 -0.8913
  845MOL0     O16503   5.360   3.387   0.731  0.4996  0.8242 -0.1038
  845MOL0     C16504   5.403   3.324   0.623  0.8809 -0.5447  0.4907
  845MOL0     C16505   5.303   3.284   0.530 -0.3844  0.5234  0.2732
  845MOL0     C16506   5.336   3.213   0.416 -0.3528  0.7117 -0.1959
  845MOL0     C16507   5.473   3.207   0.377  0.4321  0.1865 -0.2738
  845MOL0     O16508   5.514   3.158   0.251  0.0547  0.7276  0.5686
  845MOL0     C16509   5.648   3.126   0.227 -0.9104 -1.3029  0.0685
  845MOL0     C16510   5.649   3.024   0.117 -0.7713 -1.2313 -0.4535
  845MOL0     C16511   5.612   3.079  -0.012 -0.1821  0.2448 -0.7387
  845MOL0     C16512   5.638   2.976  -0.113  0.1068  0.4316 -0.0323
  845MOL0     C16513   5.586   3.027  -0.248 -0.8416 -0.0063 -0.0710
  845MOL0     C16514   5.606   2.913  -0.358  0.0471 -0.1168 -0.8250
  845MOL0     C16515   5.500   2.792  -0.357  0.4241 -0.8767 -0.1944
  845MOL0     C16516   5.551   2.671  -0.448  1.1478 -0.4515 -1.4066
  845MOL0    Cl16517   5.722   2.634  -0.422  0.5315 -0.6641  0.3923
  845MOL0     C16518   5.571   3.270   0.465 -0.4161 -0.6176 -0.5216
  845MOL0     C16519   5.534   3.309   0.591 -0.5714  0.5557  0.2576
  845MOL0     O16520   5.402   3.578   0.614  0.0658 -0.0495  0.1547
  845MOL0     C16521   5.236   3.536   0.934 -0.3702  0.3648  0.1848
  845MOL0     C16522   5.162   3.604   1.039  0.1512  1.4678  0.4262
  845MOL0     N16523   5.249   3.706   1.445 -0.2540  0.8624 -0.1894
  845MOL0     N16524   5.362   3.670   1.388 -0.2249  0.4474  0.8786
  845MOL0     C16525   6.028   3.017   0.573 -0.3346 -0.6868 -0.4166
  845MOL0     C16526   6.052   2.903   0.499 -0.4090 -1.4107 -1.0434
  845MOL0     C16527   5.938   2.557   0.184  1.1885 -0.6547  0.2243
  845MOL0     C16528   6.003   2.471   0.271  0.0180 -0.7198 -0.2840
  845MOL0     C16529   6.055   2.355   0.225  0.3378 -0.6362 -0.5230
  845MOL0     C16530   6.026   2.305   0.096 -0.5747 -0.0708 -0.0485
  845MOL0     O16531   6.064   2.177   0.061  0.6531 -0.5862  2.0034
  845MOL0     C16532   5.998   2.100  -0.042 -0.4904 -0.8622  1.3996
  845MOL0     C16533   6.008   1.954  -0.026 -1.5984  0.9607  0.3283
  845MOL0     C16534   5.976   1.882  -0.156  0.3878  0.6078 -0.4702
  845MOL0     C16535   5.976   1.732  -0.142  0.1235 -0.3730  0.0757
  845MOL0     C16536   5.859   1.677  -0.218 -0.4497  0.0176 -0.2982
  845MOL0     C16537   5.773   1.611  -0.269  0.3655 -0.0551 -0.4983
  845MOL0     C16538   5.946   2.389   0.011  0.6023 -0.2926  1.2772
  845MOL0     C16539   5.903   2.517   0.052  0.9655 -0.0251 -1.3369
  845MOL0     C16540   5.840   2.602  -0.058 -0.3980 -0.5997  0.4931
  845MOL0     H16541   5.724   2.825   0.443 -1.8680  1.2225  1.1427
  845MOL0     H16542   5.697   3.039   0.583  1.3600  2.7174 -0.3264
  845MOL0     H16543   6.009   3.324   0.663  2.8776 -3.5167 -3.1323
  845MOL0     H16544   6.060   3.222   0.799  0.8022  4.0024 -1.0972
  845MOL0     H16545   5.827   3.270   0.891 -0.8817  0.9539 -0.1709
  845MOL0     H16546   5.974   3.348   0.934 -1.5824 -1.5186  1.9791
  845MOL0     H16547   5.942   3.521   0.761  1.2797  2.0669  2.7602
  845MOL0     H16548   5.770   3.485   0.734  0.6710  1.3048 -1.4228
  845MOL0     H16549   5.926   3.600   0.970  3.5775 -3.6236 -1.5477
  845MOL0     H16550   5.809   3.671   0.864 -1.8888 -1.6667  0.4363
  845MOL0     H16551   5.723   3.471   1.075 -3.3707  0.0168  0.8317
  845MOL0     H16552   5.635   3.525   0.945  0.0275 -5.2487  2.8535
  845MOL0     H16553   5.770   3.680   1.177 -0.5388  1.0095  0.9008
  845MOL0     H16554   5.701   3.772   1.049  0.7714 -2.3848 -1.3456
  845MOL0     H16555   5.556   3.583   1.229  0.2563  1.3714  2.5317
  845MOL0     H16556   5.480   3.654   1.088  0.5737 -0.4448 -1.2719
  845MOL0     H16557   5.596   3.791   1.339  0.5630  2.0154 -0.2208
  845MOL0     H16558   5.543   3.886   1.195  2.4102  0.7844  1.6967
  845MOL0     H16559   5.333   3.989   1.304 -1.2594 -0.4137 -2.4231
  845MOL0     H16560   5.150   3.985   1.539  2.7092  1.5700 -1.9042
  845MOL0     H16561   5.052   3.845   1.532 -0.8787 -0.1421 -1.0912
  845MOL0     H16562   4.967   4.065   1.405 -0.1372  0.7614 -0.1534
  845MOL0     H16563   5.093   4.026   1.286 -0.5332  1.4373  0.0676
  845MOL0     H16564   4.858   3.828   1.359 -0.9583  0.0561 -0.0379
  845MOL0     H16565   4.856   3.947   1.231  2.3738  1.6665  2.3350
  845MOL0     H16566   5.027   3.688   1.275 -1.3112  0.5146  1.6570
  845MOL0     H16567   4.916   3.727   1.145 -0.0734 -1.3317  2.4258
  845MOL0     H16568   5.253   3.918   0.965 -0.4349  0.0117  0.1612
  845MOL0     H16569   5.487   3.804   0.724 -0.3543 -0.5490 -1.9982
  845MOL0     H16570   5.363   3.940   0.751 -1.9072 -0.0411 -1.5859
  845MOL0     H16571   5.346   3.813   0.630 -1.9150 -1.5916  1.5124
  845MOL0     H16572   5.204   3.317   0.558  0.8550  3.5029  1.5390
  845MOL0     H16573   5.262   3.169   0.350 -1.5683 -1.7862  2.5865
  845MOL0     H16574   5.691   3.215   0.180 -0.7271 -1.5573 -0.2447
  845MOL0     H16575   5.714   3.089   0.306  1.3812  2.1977  0.0136
  845MOL0     H16576   5.751   2.986   0.119  0.1940  1.0980  2.3984
  845MOL0     H16577   5.584   2.940   0.144 -1.4909 -0.5430 -0.0076
  845MOL0     H16578   5.664   3.172  -0.033 -1.2154  1.2293  0.8246
  845MOL0     H16579   5.505   3.102  -0.007 -0.3903 -0.8413  1.5390
  845MOL0     H16580   5.582   2.884  -0.090 -0.4054 -0.2880 -3.5756
  845MOL0     H16581   5.744   2.948  -0.107 -0.3748 -1.3540  1.2494
  845MOL0     H16582   5.479   3.045  -0.241 -0.4279  2.3094  1.3335
  845MOL0     H16583   5.644   3.106  -0.296  0.5341 -0.3960  0.8772
  845MOL0     H16584   5.710   2.881  -0.345  0.2432  0.1769 -1.6499
  845MOL0     H16585   5.590   2.958  -0.456 -2.2940  1.8089  0.3583
  845MOL0     H16586   5.405   2.831  -0.396  0.4499 -0.5573  0.0595
  845MOL0     H16587   5.490   2.766  -0.251  1.0292  1.1788  0.4111
  845MOL0     H16588   5.529   2.687  -0.554 -0.9338  1.4522 -0.7594
  845MOL0     H16589   5.493   2.585  -0.414  1.0568  0.4285  0.8401
  845MOL0     H16590   5.676   3.278   0.438  0.1803 -0.0491  1.7728
  845MOL0     H16591   5.602   3.352   0.664  1.0532 -0.9739 -0.2938
  845MOL0     H16592   5.237   3.428   0.926  2.2097  0.4753 -3.4290
  845MOL0     H16593   5.096   3.553   1.108 -1.3570  2.3033 -0.3390
  845MOL0     H16594   6.117   3.063   0.614 -0.6421  0.7816 -1.3262
  845MOL0     H16595   6.146   2.883   0.448 -1.2827 -2.0218 -2.4497
  845MOL0     H16596   6.028   2.499   0.373  3.5357 -0.0768 -1.1952
  845MOL0     H16597   6.116   2.296   0.294  0.5075  1.7649  1.5238
  845MOL0     H16598   5.890   2.116  -0.033 -0.2904  0.9685  0.8395
  845MOL0     H16599   6.034   2.133  -0.140 -1.0298 -2.1491  0.7341
  845MOL0     H16600   5.945   1.920   0.056 -1.4759 -1.3840 -0.4791
  845MOL0     H16601   6.111   1.928  -0.000 -0.8523  1.8622 -1.5454
  845MOL0     H16602   5.877   1.918  -0.186  1.4227  2.5289 -1.8459
  845MOL0     H16603   6.047   1.911  -0.234 -1.5994 -0.9212 -2.9882
  845MOL0     H16604   5.969   1.694  -0.040  2.3510 -2.0902 -0.3199
  845MOL0     H16605   6.060   1.680  -0.189 -0.6939 -1.2524 -0.4606
  845MOL0     H16606   5.698   1.555  -0.321  3.1703 -1.8376 -2.9988
  845MOL0     H16607   5.942   2.370  -0.096 -2.8260 -1.8428  1.5261
  845MOL0     H16608   5.899   2.617  -0.149  1.2412  3.1686  1.9616
  845MOL0     H16609   5.739   2.564  -0.077 -1.1616  2.1171 -1.5965
  845MOL0     H16610   5.825   2.707  -0.032  3.0084  0.5107 -1.3541
  846MOL0     O16611   9.526   7.629   3.424 -0.1842 -0.8100 -0.2779
  846MOL0     C16612   9.478   7.525   3.454  0.6180  0.2898  0.0928
  846MOL0     O16613   9.352   7.483   3.402 -0.2708 -0.2572  0.2671
  846MOL0     C16614   9.282   7.572   3.323  0.0127 -0.1799 -0.7248
  846MOL0     C16615   9.160   7.629   3.379  0.7973  0.1346  0.2783
  846MOL0     C16616   9.082   7.713   3.292  0.0151  0.4877  0.2779
  846MOL0     C16617   9.111   7.730   3.157  0.2217  0.2786  0.2049
  846MOL0     O16618   9.030   7.811   3.077  0.9913  0.7432  0.0006
  846MOL0     C16619   9.049   7.823   2.942  0.2631 -0.5871  0.4383
  846MOL0     C16620   8.931   7.875   2.869 -1.1626 -0.3608 -0.9654
  846MOL0     C16621   8.959   7.965   2.751 -0.8604  0.3031 -0.4975
  846MOL0     C16622   8.827   8.015   2.705  0.4530 -0.3742  1.2154
  846MOL0     C16623   8.778   7.932   2.596  1.0336 -0.6994  0.4794
  846MOL0     C16624   8.645   7.975   2.522  0.1701 -0.4144  0.3528
  846MOL0     C16625   8.542   8.003   2.630  0.1236 -0.4898 -0.1801
  846MOL0     C16626   8.398   7.995   2.582  0.8332  1.1848 -0.1659
  846MOL0     N16627   8.343   7.860   2.574 -0.2907  0.7125 -0.1421
  846MOL0     C16628   8.399   7.743   2.621  0.5119  0.0901  0.4812
  846MOL0     C16629   8.298   7.657   2.611 -1.0695  0.1285  0.1587
  846MOL0     C16630   8.309   7.510   2.638  1.1001  0.7423  0.3246
  846MOL0     C16631   8.431   7.439   2.593 -0.4484  0.5538 -2.4837
  846MOL0     C16632   8.435   7.432   2.446  0.3505  0.3263  0.1253
  846MOL0     C16633   8.554   7.339   2.411 -0.2927 -0.4548  0.5553
  846MOL0     O16634   8.562   7.331   2.268  0.4367  0.0739 -0.1142
  846MOL0     C16635   8.676   7.280   2.230 -0.2345  0.9531  0.1778
  846MOL0     C16636   8.773   7.218   2.311  0.1594 -0.6366  0.0856
  846MOL0     C16637   8.894   7.172   2.248 -0.4037  0.1627  0.1484
  846MOL0     C16638   8.998   7.106   2.338  0.4407  0.8288 -0.1175
  846MOL0     C16639   8.914   7.186   2.110 -0.6135  0.2359  0.4956
  846MOL0     C16640   9.040   7.161   2.040  0.3786 -0.3489  0.3007
  846MOL0     O16641   9.148   7.105   2.108 -0.0365 -0.1466 -0.1945
  846MOL0     C16642   9.266   7.086   2.044 -1.5544 -0.2506  0.3629
  846MOL0     C16643   9.291   7.082   1.902  0.0855  0.0547 -1.0302
  846MOL0     C16644   9.431   7.070   1.857 -0.2864 -0.4999  0.7536
  846MOL0     C16645   9.536   7.071   1.949  0.5966  1.6695  0.8307
  846MOL0     O16646   9.668   7.066   1.916 -0.3145 -0.0322 -0.2551
  846MOL0     C16647   9.707   7.066   1.781 -0.5673  0.9158 -0.0837
  846MOL0     C16648   9.699   6.923   1.726 -0.1460 -0.4130 -0.2920
  846MOL0     C16649   9.755   6.892   1.593 -0.7011  0.1349 -0.6108
  846MOL0     C16650   9.731   7.010   1.491  0.1629 -0.6580 -0.0123
  846MOL0     C16651   9.807   6.975   1.356 -0.4944  0.2400 -0.7007
  846MOL0     C16652   9.762   7.061   1.242  0.4062 -0.4387  0.4538
  846MOL0     C16653   9.828   7.031   1.104  0.5256 -1.2738 -0.4466
  846MOL0     C16654   9.747   7.107   0.994 -0.1103  0.2448  0.2653
  846MOL0    Cl16655   9.779   7.018   0.842  0.4836  0.3400  0.0171
  846MOL0     C16656   9.510   7.083   2.090  0.0263  0.8529  0.2591
  846MOL0     C16657   9.376   7.080   2.130  0.1450  0.4862  0.0791
  846MOL0     O16658   9.041   7.205   1.922 -0.1401  0.2221 -0.6665
  846MOL0     C16659   8.805   7.243   2.035  0.2252  0.5235  0.2131
  846MOL0     C16660   8.687   7.283   2.091 -0.3620  0.4329  0.2808
  846MOL0     N16661   8.183   7.715   2.553 -0.3946  0.3592 -0.1067
  846MOL0     N16662   8.212   7.836   2.536 -0.4252 -0.4981 -0.3463
  846MOL0     C16663   9.224   7.676   3.098 -0.6556 -0.3848 -1.0119
  846MOL0     C16664   9.309   7.598   3.182 -0.7495  0.5721  0.5179
  846MOL0     C16665   9.552   7.441   3.544 -0.3625 -0.4323 -0.3845
  846MOL0     C16666   9.507   7.306   3.561  1.4421  0.3256 -0.0793
  846MOL0     C16667   9.550   7.224   3.665  1.6508 -0.7028 -0.3793
  846MOL0     C16668   9.653   7.264   3.748 -0.5582 -0.4626  0.5310
  846MOL0     O16669   9.708   7.162   3.828  0.1111  0.1217  0.2016
  846MOL0     C16670   9.813   7.175   3.923 -0.0067  0.0171  0.1515
  846MOL0     C16671   9.806   7.064   4.028  1.2177  0.1474 -0.1857
  846MOL0     C16672   9.848   6.918   3.980 -0.8288  0.3462 -0.2878
  846MOL0     C16673   9.768   6.867   3.868 -0.0709  0.6259  0.5233
  846MOL0     C16674   9.621   6.878   3.882  0.4668 -0.1216 -0.6196
  846MOL0     C16675   9.503   6.883   3.862  0.7041 -0.2533  0.0499
  846MOL0     C16676   9.700   7.398   3.740 -0.6731  0.3972  0.2799
  846MOL0     C16677   9.656   7.490   3.641  0.1050 -0.1847 -0.3269
  846MOL0     C16678   9.704   7.633   3.656  0.5303  0.5477  0.8039
  846MOL0     H16679   9.112   7.611   3.475 -2.5533 -0.0346 -1.3243
  846MOL0     H16680   8.995   7.761   3.337 -1.7472  0.2362 -2.6007
  846MOL0     H16681   9.066   7.726   2.894 -3.2960 -0.2009 -1.9766
  846MOL0     H16682   9.132   7.891   2.922 -1.0339  0.0545 -3.5873
  846MOL0     H16683   8.875   7.793   2.824 -1.6321  0.2855 -1.5778
  846MOL0     H16684   8.867   7.920   2.945  1.9051 -1.8652  2.8820
  846MOL0     H16685   9.022   8.047   2.787  0.6124 -1.1042  0.2540
  846MOL0     H16686   9.017   7.921   2.670  2.3414  1.6950  0.8753
  846MOL0     H16687   8.755   8.025   2.787  0.7399  0.1587  1.4031
  846MOL0     H16688   8.826   8.117   2.666  0.1988 -1.0642 -0.6743
  846MOL0     H16689   8.754   7.827   2.615 -1.6170 -1.9020 -6.4023
  846MOL0     H16690   8.857   7.926   2.520 -1.0713 -3.4015 -1.7354
  846MOL0     H16691   8.664   8.063   2.460  0.4437 -1.5169 -1.1702
  846MOL0     H16692   8.612   7.898   2.452  0.9512 -0.7317  0.3259
  846MOL0     H16693   8.550   8.110   2.648  0.1370 -0.4639 -0.3434
  846MOL0     H16694   8.542   7.952   2.727 -2.7844  0.4819  0.4413
  846MOL0     H16695   8.340   8.062   2.646  2.1332  2.4196 -0.2329
  846MOL0     H16696   8.385   8.036   2.482 -0.6960 -1.4724 -1.1623
  846MOL0     H16697   8.502   7.734   2.654  0.9204  0.6104 -0.5938
  846MOL0     H16698   8.216   7.472   2.594 -0.7217  3.0489  1.9577
  846MOL0     H16699   8.314   7.482   2.743  1.2715 -1.4002 -0.2009
  846MOL0     H16700   8.518   7.494   2.629 -0.1252 -2.2916  1.8730
  846MOL0     H16701   8.439   7.338   2.634  3.7586  1.3378 -0.8429
  846MOL0     H16702   8.345   7.380   2.412  0.4329 -1.0556  1.8858
  846MOL0     H16703   8.439   7.529   2.397  3.2722  0.1362 -0.1908
  846MOL0     H16704   8.652   7.372   2.448  1.1123 -1.9294 -1.5806
  846MOL0     H16705   8.531   7.244   2.459 -2.3076 -1.1051 -1.5000
  846MOL0     H16706   8.762   7.198   2.417  0.8040  0.5016  0.3866
  846MOL0     H16707   9.093   7.160   2.329 -0.6508  2.7114 -1.0220
  846MOL0     H16708   9.015   7.004   2.302 -2.0664  0.0441  0.7139
  846MOL0     H16709   8.968   7.097   2.443 -1.4790  1.0575 -0.5979
  846MOL0     H16710   9.218   7.075   1.822 -3.4266  0.9628  1.8329
  846MOL0     H16711   9.452   7.051   1.752  0.6589  4.8858 -0.2914
  846MOL0     H16712   9.662   7.145   1.721 -2.3864 -1.4347 -2.0286
  846MOL0     H16713   9.814   7.092   1.782 -0.4011  0.2564  0.4096
  846MOL0     H16714   9.733   6.847   1.797  3.8046  1.6823  0.3557
  846MOL0     H16715   9.593   6.899   1.713  0.0249 -1.8230  0.6376
  846MOL0     H16716   9.722   6.792   1.563 -0.5969 -0.4815  1.1916
  846MOL0     H16717   9.864   6.894   1.608 -0.8629 -0.2516  0.7047
  846MOL0     H16718   9.770   7.107   1.522 -1.1255  0.3164 -1.2899
  846MOL0     H16719   9.625   7.031   1.474  0.5911  1.0023 -0.8869
  846MOL0     H16720   9.916   6.984   1.365 -0.3543 -1.0949 -0.7312
  846MOL0     H16721   9.800   6.870   1.327  0.7723  0.0016 -0.2118
  846MOL0     H16722   9.793   7.162   1.271  2.3210 -0.3169 -1.7402
  846MOL0     H16723   9.653   7.054   1.242  0.2074  1.8360  0.1156
  846MOL0     H16724   9.822   6.922   1.091  2.1832 -1.1975 -2.1863
  846MOL0     H16725   9.934   7.055   1.095  0.3842  1.2281  2.7967
  846MOL0     H16726   9.766   7.214   0.989 -0.9462  0.3729 -0.5395
  846MOL0     H16727   9.642   7.090   1.023  0.8423 -2.3604  2.7105
  846MOL0     H16728   9.590   7.080   2.163 -0.6095 -0.8083  0.9323
  846MOL0     H16729   9.360   7.072   2.237  1.8681 -3.5154  0.2022
  846MOL0     H16730   8.814   7.250   1.927  1.3886 -0.1411  0.2520
  846MOL0     H16731   8.599   7.313   2.035  0.4349  2.6670  0.1237
  846MOL0     H16732   9.254   7.696   2.996  2.1003 -0.9291 -0.3960
  846MOL0     H16733   9.402   7.562   3.140 -0.2512  3.4567 -1.1162
  846MOL0     H16734   9.440   7.270   3.484  2.8497 -3.5009  0.2887
  846MOL0     H16735   9.506   7.125   3.671 -0.3916 -0.0936 -3.2152
  846MOL0     H16736   9.908   7.171   3.870 -0.9398 -0.8722 -1.5293
  846MOL0     H16737   9.795   7.271   3.972  0.0704  1.1640 -1.9506
  846MOL0     H16738   9.702   7.066   4.061  1.0244 -0.6536 -0.7185
  846MOL0     H16739   9.879   7.083   4.107  1.6915  0.5436 -0.7024
  846MOL0     H16740   9.954   6.925   3.954  0.0165  1.4824  3.0490
  846MOL0     H16741   9.851   6.848   4.064 -1.5435 -1.5138 -1.7379
  846MOL0     H16742   9.797   6.764   3.845  0.9699  0.9981  0.1173
  846MOL0     H16743   9.802   6.927   3.783 -1.1789  4.3860  2.5167
  846MOL0     H16744   9.401   6.894   3.831  0.6969 -1.4004 -0.3934
  846MOL0     H16745   9.776   7.427   3.811 -1.9439 -0.7960  2.2458
  846MOL0     H16746   9.725   7.683   3.561 -0.7995  0.6880  0.5678
  846MOL0     H16747   9.627   7.701   3.694 -1.5161 -1.5081  0.5373
  846MOL0     H16748   9.800   7.639   3.707  0.0047 -0.5784  1.9745
  847MOL0     O16749   0.819  10.197   5.600 -0.7090  0.1380 -0.1492
  847MOL0     C16750   0.750  10.178   5.697 -0.0348  0.1907  0.4892
  847MOL0     O16751   0.796  10.191   5.819  0.5051 -0.0567 -0.4031
  847MOL0     C16752   0.920  10.208   5.866 -0.2704 -0.7555  0.5208
  847MOL0     C16753   0.941  10.287   5.983  0.4557 -0.3951  0.3196
  847MOL0     C16754   1.073  10.296   6.026  0.0895 -0.3589  0.5843
  847MOL0     C16755   1.185  10.235   5.962  0.4516  1.1293 -1.0528
  847MOL0     O16756   1.311  10.249   6.027  0.0221  0.5553 -0.3281
  847MOL0     C16757   1.426  10.170   5.979  0.1790  0.2310 -1.1159
  847MOL0     C16758   1.502  10.159   6.108  1.1887  0.0896 -0.0806
  847MOL0     C16759   1.634  10.093   6.073 -0.0616 -0.1418  0.4002
  847MOL0     C16760   1.715  10.063   6.191  0.3346 -0.8993 -0.2569
  847MOL0     C16761   1.860  10.008   6.166 -0.1081 -0.2088  1.2136
  847MOL0     C16762   1.921   9.997   6.309 -0.0317 -0.0782 -0.2484
  847MOL0     C16763   2.068   9.946   6.310 -0.3542 -0.1164  0.0531
  847MOL0     C16764   2.118   9.939   6.451  0.3098 -0.1219  0.8275
  847MOL0     N16765   2.243   9.866   6.463  0.3618  0.4549 -1.0189
  847MOL0     C16766   2.306   9.777   6.375  0.1286 -0.7439  0.5038
  847MOL0     C16767   2.422   9.750   6.438  0.4677  0.2042 -0.6590
  847MOL0     C16768   2.523   9.646   6.384  0.2049 -0.2495  1.1130
  847MOL0     C16769   2.537   9.535   6.485 -0.8956  1.0872 -1.3362
  847MOL0     C16770   2.628   9.419   6.444  0.0219 -0.7701  0.4117
  847MOL0     C16771   2.582   9.322   6.328  0.3461 -0.7650 -0.7860
  847MOL0     O16772   2.439   9.302   6.344 -0.1818  0.1474 -0.0536
  847MOL0     C16773   2.372   9.206   6.271 -0.5270  0.1853  0.2644
  847MOL0     C16774   2.233   9.193   6.291  1.0479 -0.7099 -0.8144
  847MOL0     C16775   2.160   9.103   6.213  0.6306  0.2082 -0.3049
  847MOL0     C16776   2.007   9.103   6.230 -0.6352 -0.6589 -0.4068
  847MOL0     C16777   2.225   9.010   6.127 -0.8662  0.8214  0.7099
  847MOL0     C16778   2.152   8.890   6.070 -0.6082  0.4094 -0.1946
  847MOL0     O16779   2.200   8.852   5.950 -0.2091  0.1701  0.3190
  847MOL0     C16780   2.129   8.770   5.855  0.8873 -0.3367 -0.0719
  847MOL0     C16781   2.052   8.652   5.894  0.3055  0.8418 -0.7581
  847MOL0     C16782   1.996   8.564   5.798 -0.1214 -0.5038 -0.6801
  847MOL0     C16783   2.015   8.592   5.662 -1.1581  0.0492  0.5430
  847MOL0     O16784   1.953   8.523   5.566 -0.1002  0.1564  0.1157
  847MOL0     C16785   1.970   8.377   5.565 -0.9024 -0.0687 -0.2383
  847MOL0     C16786   1.960   8.325   5.430  0.1143  0.4246  1.5708
  847MOL0     C16787   1.815   8.345   5.397  0.5342  1.6416  0.9198
  847MOL0     C16788   1.782   8.243   5.286  0.1054  0.3189 -0.0908
  847MOL0     C16789   1.628   8.252   5.248  0.3387 -0.8749  0.0331
  847MOL0     C16790   1.574   8.185   5.122  0.4862 -0.1545  0.4928
  847MOL0     C16791   1.418   8.199   5.102 -0.5514  0.1657 -0.7382
  847MOL0     C16792   1.391   8.335   5.030 -0.0378  0.9750  0.3261
  847MOL0    Cl16793   1.213   8.334   4.990  0.1892 -0.1112 -0.3334
  847MOL0     C16794   2.080   8.707   5.626 -0.5713  0.5132 -0.1982
  847MOL0     C16795   2.140   8.795   5.717 -0.5755 -0.6759 -0.1202
  847MOL0     O16796   2.052   8.847   6.125  0.0785 -0.5599 -0.4481
  847MOL0     C16797   2.363   9.036   6.096  0.3126 -0.1315  0.3388
  847MOL0     C16798   2.437   9.130   6.171  0.0143 -0.1508 -0.2376
  847MOL0     N16799   2.439   9.824   6.551 -0.8329  0.6068  0.5110
  847MOL0     N16800   2.327   9.885   6.566 -0.2818 -0.8863 -0.7084
  847MOL0     C16801   1.161  10.155   5.843 -0.1773 -0.8805 -0.5551
  847MOL0     C16802   1.029  10.141   5.799 -0.4793  0.9870  0.0672
  847MOL0     C16803   0.604  10.148   5.663  0.1902  0.4118 -1.1262
  847MOL0     C16804   0.561  10.205   5.545 -0.4330  0.3660 -0.0236
  847MOL0     C16805   0.447  10.176   5.484 -0.0555  0.3580 -0.1692
  847MOL0     C16806   0.349  10.105   5.555 -0.6737  0.7040 -0.7688
  847MOL0     O16807   0.230  10.094   5.491 -0.1390 -0.1101 -0.5523
  847MOL0     C16808   0.214   9.975   5.414 -0.0797 -0.1301  0.0506
  847MOL0     C16809   0.077   9.909   5.442  0.4486 -1.2665 -0.0998
  847MOL0     C16810  -0.040   9.993   5.381  0.3851 -0.7488  0.9636
  847MOL0     C16811  -0.184   9.950   5.415 -0.5177 -0.2986 -0.2113
  847MOL0     C16812  -0.199   9.811   5.382 -0.5579 -0.0395 -0.2308
  847MOL0     C16813  -0.189   9.694   5.340  0.8350 -1.3678  0.4213
  847MOL0     C16814   0.373  10.074   5.687 -1.3793  0.0440 -0.6812
  847MOL0     C16815   0.504  10.080   5.742  0.5184 -0.1166  0.5684
  847MOL0     C16816   0.523  10.055   5.893  0.7429  0.5596 -0.4000
  847MOL0     H16817   0.858  10.342   6.026  0.8303  1.0373 -0.7108
  847MOL0     H16818   1.091  10.357   6.114  2.5195  1.3221 -0.9470
  847MOL0     H16819   1.480  10.231   5.906  2.6966 -0.8255 -0.2312
  847MOL0     H16820   1.402  10.067   5.949 -1.3374 -0.0203  0.7951
  847MOL0     H16821   1.530  10.261   6.135  2.6780  0.1128 -1.5323
  847MOL0     H16822   1.458  10.093   6.183  4.3821 -1.4161  0.6640
  847MOL0     H16823   1.623  10.005   6.008 -0.5712  0.5077 -0.4183
  847MOL0     H16824   1.681  10.166   6.007 -3.4885  1.0137 -1.0158
  847MOL0     H16825   1.721  10.160   6.242 -2.8989  0.8815 -2.8305
  847MOL0     H16826   1.650   9.995   6.248 -0.7050 -0.0540 -0.4029
  847MOL0     H16827   1.923  10.076   6.109 -0.6505 -1.9498 -1.6731
  847MOL0     H16828   1.863   9.914   6.111 -0.0993 -0.0904  1.0111
  847MOL0     H16829   1.927  10.096   6.354  1.8179  0.8296 -2.2758
  847MOL0     H16830   1.861   9.934   6.375  2.0819  0.4357  2.3035
  847MOL0     H16831   2.137   9.999   6.244  1.2873 -1.2733  0.7793
  847MOL0     H16832   2.072   9.840   6.283  0.2090 -0.9441  2.9943
  847MOL0     H16833   2.131  10.043   6.482  2.3474 -0.4882  1.3736
  847MOL0     H16834   2.045   9.882   6.509 -1.6601 -0.3527 -1.6912
  847MOL0     H16835   2.263   9.733   6.286 -0.1045  1.7229 -0.6976
  847MOL0     H16836   2.623   9.689   6.369 -0.4338  0.2686 -2.7348
  847MOL0     H16837   2.490   9.595   6.293 -0.9293  0.8108  0.9125
  847MOL0     H16838   2.581   9.559   6.582  0.5713 -2.1927 -1.0484
  847MOL0     H16839   2.433   9.505   6.502 -0.9564  0.9623 -1.9018
  847MOL0     H16840   2.725   9.457   6.411 -0.5760 -3.1927 -5.0509
  847MOL0     H16841   2.633   9.361   6.537  0.1940 -3.0870 -0.9680
  847MOL0     H16842   2.595   9.383   6.238  0.1953 -1.6001 -1.3826
  847MOL0     H16843   2.641   9.230   6.328  1.7508  0.0836 -1.7981
  847MOL0     H16844   2.185   9.258   6.365  4.3642  3.2969 -1.7995
  847MOL0     H16845   1.984   9.038   6.314  0.3252 -0.6625 -0.1352
  847MOL0     H16846   1.943   9.076   6.145 -1.7875  0.0399  0.2158
  847MOL0     H16847   1.965   9.196   6.270  0.4313 -0.4635  0.2899
  847MOL0     H16848   2.047   8.639   6.002  0.0071 -3.5136 -1.1084
  847MOL0     H16849   1.933   8.489   5.843 -0.2065  1.9786  3.9177
  847MOL0     H16850   2.074   8.362   5.598 -1.5608  1.3090  2.7569
  847MOL0     H16851   1.913   8.313   5.633  0.6730 -0.3315  0.9068
  847MOL0     H16852   2.019   8.361   5.346 -2.3507  0.0945 -0.4453
  847MOL0     H16853   1.989   8.220   5.447  1.9747  0.3062 -1.6390
  847MOL0     H16854   1.797   8.449   5.366 -2.4757  0.2857 -2.6166
  847MOL0     H16855   1.752   8.321   5.483 -1.1166  1.3445 -0.3346
  847MOL0     H16856   1.800   8.140   5.317 -0.4831 -0.3030 -1.7213
  847MOL0     H16857   1.837   8.257   5.192 -0.3811 -3.6876 -1.1352
  847MOL0     H16858   1.563   8.220   5.329 -2.3397 -3.1483 -2.7894
  847MOL0     H16859   1.599   8.357   5.244  1.2834 -0.5492  1.0920
  847MOL0     H16860   1.606   8.081   5.137 -2.6490 -1.1805  0.8415
  847MOL0     H16861   1.634   8.225   5.041 -1.4791  1.1319 -0.3977
  847MOL0     H16862   1.375   8.189   5.202  0.5081 -0.1051 -0.2946
  847MOL0     H16863   1.390   8.112   5.042 -0.9415 -0.1595 -0.0914
  847MOL0     H16864   1.447   8.331   4.936 -0.3987 -1.2812  0.1528
  847MOL0     H16865   1.431   8.419   5.086 -0.0379  0.5922  0.9099
  847MOL0     H16866   2.085   8.742   5.523 -1.2656  2.8586  0.4877
  847MOL0     H16867   2.191   8.879   5.672 -0.8044 -0.5231 -0.0967
  847MOL0     H16868   2.430   8.985   6.027 -1.8625 -0.5999 -1.5502
  847MOL0     H16869   2.540   9.156   6.151  1.1853  0.1470  4.7090
  847MOL0     H16870   1.252  10.123   5.795 -0.9641 -1.3707 -1.7740
  847MOL0     H16871   1.007  10.084   5.710 -2.5936  1.6320  0.1230
  847MOL0     H16872   0.628  10.267   5.487 -1.2141 -1.5358 -3.2125
  847MOL0     H16873   0.430  10.217   5.385  2.0734  1.3161 -0.1941
  847MOL0     H16874   0.205  10.006   5.309  0.9918  0.6276  0.1630
  847MOL0     H16875   0.298   9.906   5.420  1.8923  1.6528 -3.4730
  847MOL0     H16876   0.060   9.892   5.549 -0.9646 -1.2449 -0.3036
  847MOL0     H16877   0.095   9.812   5.396 -1.8859 -0.8694 -2.0903
  847MOL0     H16878  -0.038  10.097   5.413  2.7302 -0.7486  0.9873
  847MOL0     H16879  -0.035   9.992   5.272  0.2169  2.0485  0.8617
  847MOL0     H16880  -0.258  10.017   5.371 -1.3725 -1.1857 -0.1667
  847MOL0     H16881  -0.196   9.966   5.523  0.0702 -0.4283 -0.1227
  847MOL0     H16882  -0.210   9.591   5.322 -0.2297 -1.4643  2.0187
  847MOL0     H16883   0.289  10.040   5.745  0.0998 -1.1923  0.8475
  847MOL0     H16884   0.582  10.132   5.943  1.1092 -0.6841  1.1465
  847MOL0     H16885   0.419  10.068   5.924  1.0101  1.4363  0.1750
  847MOL0     H16886   0.566   9.955   5.890  1.7790  0.9334  1.1345
  848MOL0     O16887   9.188   2.121   6.320 -0.6674  0.0145  0.1386
  848MOL0     C16888   9.129   2.214   6.380  0.0481  0.6424 -0.5374
  848MOL0     O16889   9.119   2.339   6.339 -0.0941 -0.1397 -0.5232
  848MOL0     C16890   9.152   2.371   6.208 -0.3486  0.3403  0.5893
  848MOL0     C16891   9.256   2.462   6.186 -0.1818 -0.5034  0.1157
  848MOL0     C16892   9.293   2.499   6.051 -0.9086 -0.5674 -1.2781
  848MOL0     C16893   9.237   2.434   5.950  0.7698  0.3821  0.4995
  848MOL0     O16894   9.239   2.463   5.817 -0.1266 -0.0015 -0.7165
  848MOL0     C16895   9.340   2.553   5.766  0.3770 -0.6903 -0.1413
  848MOL0     C16896   9.354   2.567   5.619 -0.4371 -0.1326  1.0656
  848MOL0     C16897   9.459   2.471   5.562  0.2615 -0.3688  0.3848
  848MOL0     C16898   9.436   2.459   5.413  0.4154  0.3883  0.8202
  848MOL0     C16899   9.552   2.392   5.338 -0.7969  0.5738  0.3403
  848MOL0     C16900   9.554   2.397   5.182  0.6918  0.0470  0.5276
  848MOL0     C16901   9.663   2.301   5.117  0.8965  0.2332 -0.0804
  848MOL0     C16902   9.681   2.313   4.968  0.0791 -0.8543  0.6020
  848MOL0     N16903   9.781   2.213   4.928  0.0233  0.9729  0.5884
  848MOL0     C16904   9.913   2.206   4.968  0.8320 -0.7985 -0.1913
  848MOL0     C16905   9.968   2.107   4.910 -0.4029  0.3406 -1.1945
  848MOL0     C16906  10.106   2.055   4.940 -0.4420 -0.0578 -0.2214
  848MOL0     C16907  10.197   2.056   4.808  0.8950  0.0122 -1.3342
  848MOL0     C16908  10.151   1.942   4.713 -0.0292  1.3402  0.3704
  848MOL0     C16909  10.238   1.931   4.592  0.1889  0.7824  0.2146
  848MOL0     O16910  10.376   1.916   4.637  0.0019 -0.0204 -0.2994
  848MOL0     C16911  10.429   1.795   4.678 -0.0556 -0.2021 -0.2229
  848MOL0     C16912  10.550   1.790   4.752 -0.6885  0.0758 -0.2627
  848MOL0     C16913  10.597   1.671   4.809  0.5287  0.2784 -0.2914
  848MOL0     C16914  10.735   1.690   4.870  0.1558  0.2153 -0.2618
  848MOL0     C16915  10.529   1.542   4.799  0.1385  0.6811  0.2553
  848MOL0     C16916  10.563   1.438   4.896 -0.5442  0.7733 -0.3794
  848MOL0     O16917  10.571   1.309   4.853 -0.7919 -0.5333 -0.0170
  848MOL0     C16918  10.593   1.200   4.931  0.2751  1.0041 -1.0074
  848MOL0     C16919  10.585   1.194   5.075 -0.1164  0.0202 -0.1707
  848MOL0     C16920  10.603   1.073   5.144  0.2752  0.0776  0.2847
  848MOL0     C16921  10.630   0.956   5.075 -0.1557 -0.2378  0.0574
  848MOL0     O16922  10.653   0.831   5.141  0.0853  0.4220 -0.6376
  848MOL0     C16923  10.581   0.816   5.261  0.6482  0.1127 -0.5606
  848MOL0     C16924  10.669   0.715   5.332 -0.1343  0.0535  0.3293
  848MOL0     C16925  10.605   0.653   5.459  0.2606  0.1653  0.9207
  848MOL0     C16926  10.714   0.581   5.549  0.4333  1.1751 -0.8082
  848MOL0     C16927  10.759   0.443   5.498  0.9067 -0.3167 -0.6677
  848MOL0     C16928  10.847   0.390   5.605 -1.0764  0.4807  0.4685
  848MOL0     C16929  10.915   0.256   5.536 -0.3142 -0.3983  0.0931
  848MOL0     C16930  10.992   0.187   5.647  0.7749 -0.0956 -0.0148
  848MOL0    Cl16931  11.113   0.072   5.574  0.1680 -0.0291  0.0457
  848MOL0     C16932  10.630   0.962   4.932 -0.7296  0.5639 -0.4094
  848MOL0     C16933  10.616   1.087   4.867  0.0648  1.0352  0.6926
  848MOL0     O16934  10.583   1.473   5.014 -0.0143  0.4320 -0.1133
  848MOL0     C16935  10.407   1.552   4.731  0.4070  0.6589  0.2885
  848MOL0     C16936  10.362   1.672   4.670  0.2606  0.3264  0.1098
  848MOL0     N16937   9.879   2.061   4.818 -0.5206 -0.0859  0.4825
  848MOL0     N16938   9.760   2.113   4.839  0.2069  0.6554 -0.0120
  848MOL0     C16939   9.137   2.342   5.981 -0.1327 -0.4162 -0.0025
  848MOL0     C16940   9.089   2.308   6.106  0.1462 -0.1700 -0.7301
  848MOL0     C16941   9.061   2.189   6.511  0.1480  0.1498  0.5353
  848MOL0     C16942   8.943   2.265   6.527  0.0836  0.9734 -0.9741
  848MOL0     C16943   8.880   2.261   6.656 -0.7303 -0.2878 -0.2904
  848MOL0     C16944   8.927   2.182   6.760  0.5710  0.0468 -0.0315
  848MOL0     O16945   8.881   2.170   6.891  0.0596 -0.2076 -0.0904
  848MOL0     C16946   8.743   2.189   6.925 -0.3440 -0.1747  0.0421
  848MOL0     C16947   8.737   2.320   7.003  0.3104 -0.0421 -1.1466
  848MOL0     C16948   8.826   2.297   7.132 -0.5058  0.2034  0.4817
  848MOL0     C16949   8.801   2.408   7.245 -0.4828  0.1990 -0.6534
  848MOL0     C16950   8.668   2.381   7.310 -0.0909 -0.2327 -0.4866
  848MOL0     C16951   8.571   2.378   7.379 -1.0530 -0.2857 -0.3237
  848MOL0     C16952   9.044   2.120   6.740 -0.4041  0.6850 -0.2367
  848MOL0     C16953   9.114   2.115   6.620 -0.1046 -0.2442 -0.6012
  848MOL0     C16954   9.243   2.034   6.617 -0.1477 -0.3589  0.1497
  848MOL0     H16955   9.307   2.504   6.272 -0.3560 -1.7684  0.8566
  848MOL0     H16956   9.374   2.568   6.032  0.6972 -0.4994  4.0683
  848MOL0     H16957   9.437   2.532   5.812 -1.0271 -0.9374  2.9448
  848MOL0     H16958   9.306   2.653   5.793  0.7953 -1.0802  2.0635
  848MOL0     H16959   9.257   2.548   5.571 -0.8224 -2.1212  2.4871
  848MOL0     H16960   9.391   2.666   5.593 -3.0725  1.0347  1.3696
  848MOL0     H16961   9.560   2.513   5.572  2.4999 -4.2639 -3.0073
  848MOL0     H16962   9.462   2.369   5.601 -2.2802 -0.2428  1.0805
  848MOL0     H16963   9.345   2.403   5.390  1.2375 -1.8466  2.5876
  848MOL0     H16964   9.415   2.551   5.359  0.8842 -1.0611 -1.9808
  848MOL0     H16965   9.567   2.287   5.365  0.0061 -0.0147 -2.1477
  848MOL0     H16966   9.647   2.439   5.364 -0.8679  0.6740  0.4217
  848MOL0     H16967   9.452   2.369   5.152  1.0284 -0.6735  0.0093
  848MOL0     H16968   9.570   2.498   5.144 -0.6325  0.5816  1.3132
  848MOL0     H16969   9.641   2.196   5.137 -3.4912  0.5737 -1.9966
  848MOL0     H16970   9.757   2.323   5.169 -0.9985  3.8086  2.3047
  848MOL0     H16971   9.589   2.299   4.911  0.0014  1.3132  0.1174
  848MOL0     H16972   9.711   2.412   4.931  0.7063 -1.5649 -0.8687
  848MOL0     H16973   9.964   2.278   5.033  1.4514  3.1833 -4.5388
  848MOL0     H16974  10.093   1.956   4.986  0.4860 -0.7896 -1.4616
  848MOL0     H16975  10.160   2.120   5.010  2.7408 -1.8069 -0.8714
  848MOL0     H16976  10.185   2.155   4.763  2.9408 -0.9281 -4.2738
  848MOL0     H16977  10.302   2.055   4.838  0.4274  1.4838  0.5565
  848MOL0     H16978  10.151   1.848   4.768  0.3804 -0.2025 -2.1181
  848MOL0     H16979  10.052   1.970   4.676 -0.8622  1.6443  2.6424
  848MOL0     H16980  10.213   1.852   4.521  0.5243 -0.0746  1.0255
  848MOL0     H16981  10.227   2.022   4.533  0.1506 -0.4451 -1.7444
  848MOL0     H16982  10.606   1.882   4.746 -0.3524 -0.0454  0.8427
  848MOL0     H16983  10.800   1.733   4.793 -1.5031 -1.3510 -2.7218
  848MOL0     H16984  10.776   1.601   4.919 -0.5875  1.4643  2.8349
  848MOL0     H16985  10.723   1.762   4.951 -0.9455 -1.2509  0.9446
  848MOL0     H16986  10.566   1.280   5.137  3.7097  0.2527  0.9459
  848MOL0     H16987  10.607   1.080   5.253  4.0336 -0.7885  0.3226
  848MOL0     H16988  10.564   0.899   5.331  1.3036  1.3565 -1.8099
  848MOL0     H16989  10.480   0.781   5.237  1.0094 -0.1616 -1.7516
  848MOL0     H16990  10.701   0.646   5.253  0.5120  0.6062  0.0892
  848MOL0     H16991  10.757   0.768   5.370  0.3547 -0.0679 -0.5875
  848MOL0     H16992  10.533   0.584   5.415  0.1396  3.4636 -5.2199
  848MOL0     H16993  10.545   0.722   5.518 -3.7504 -2.1268 -0.0857
  848MOL0     H16994  10.658   0.566   5.641 -0.6773  0.1302 -1.6136
  848MOL0     H16995  10.794   0.646   5.585 -0.5774  2.3987 -0.6872
  848MOL0     H16996  10.672   0.380   5.476 -0.1415  0.6813  0.4706
  848MOL0     H16997  10.804   0.466   5.401 -0.6108  0.4755 -1.2358
  848MOL0     H16998  10.788   0.349   5.687 -1.1770 -2.0054 -0.7444
  848MOL0     H16999  10.927   0.456   5.638 -2.7065  1.2830  3.1170
  848MOL0     H17000  10.976   0.283   5.449 -1.5784 -2.6048 -1.5836
  848MOL0     H17001  10.837   0.196   5.489  1.2426 -1.4075 -1.3400
  848MOL0     H17002  10.919   0.132   5.707  1.0348  0.3357  0.7053
  848MOL0     H17003  11.037   0.260   5.714  0.1198  0.4120 -0.1099
  848MOL0     H17004  10.655   0.869   4.881  1.9082  1.9705 -1.8624
  848MOL0     H17005  10.624   1.089   4.759 -0.8068 -4.0737  0.2927
  848MOL0     H17006  10.351   1.459   4.725  2.3098 -0.5677  0.7804
  848MOL0     H17007  10.258   1.664   4.638  0.8222 -0.2649 -1.6596
  848MOL0     H17008   9.094   2.301   5.890  0.9448  0.5916 -0.9909
  848MOL0     H17009   9.012   2.233   6.115 -1.1208  1.1183 -0.4366
  848MOL0     H17010   8.901   2.316   6.440 -1.6374 -1.9313 -1.9992
  848MOL0     H17011   8.803   2.331   6.686 -1.0971 -1.3170  1.3122
  848MOL0     H17012   8.687   2.196   6.831 -1.2065  0.4832  0.5952
  848MOL0     H17013   8.698   2.101   6.971 -1.7942  0.6624  0.2535
  848MOL0     H17014   8.633   2.336   7.035  0.5171 -1.3321  0.3503
  848MOL0     H17015   8.759   2.407   6.942 -4.5548  1.4530 -1.2287
  848MOL0     H17016   8.822   2.194   7.169 -0.7604  0.0971  0.1617
  848MOL0     H17017   8.926   2.327   7.102  0.0670  3.0051  4.4150
  848MOL0     H17018   8.830   2.506   7.204  1.0075  0.5548  1.1250
  848MOL0     H17019   8.874   2.374   7.319 -0.5492  0.2898 -0.5475
  848MOL0     H17020   8.480   2.376   7.435 -0.5279 -0.0326  0.5533
  848MOL0     H17021   9.094   2.062   6.818  2.1496  0.6350 -1.7865
  848MOL0     H17022   9.287   2.036   6.517  0.4384 -2.4850  0.3298
  848MOL0     H17023   9.310   2.070   6.696 -1.7911  0.7222  1.1062
  848MOL0     H17024   9.223   1.928   6.634 -0.7019 -0.2151  0.4372
  849MOL0     O17025   3.208   3.902   7.116 -0.0554 -0.4224  0.3242
  849MOL0     C17026   3.246   3.838   7.022  0.3224  0.9643  0.1374
  849MOL0     O17027   3.258   3.702   7.023  0.4108  0.5176  0.1922
  849MOL0     C17028   3.218   3.620   7.123  0.0381 -0.3673 -0.2604
  849MOL0     C17029   3.300   3.519   7.170  0.4293  0.1785 -0.6432
  849MOL0     C17030   3.255   3.439   7.281  0.2176 -0.5938 -1.0116
  849MOL0     C17031   3.127   3.451   7.329 -0.1276 -0.4420 -0.9167
  849MOL0     O17032   3.095   3.369   7.439  0.1006 -0.8122 -0.5270
  849MOL0     C17033   2.963   3.387   7.489 -0.3092 -0.3806 -0.2828
  849MOL0     C17034   2.935   3.261   7.570  0.1405  0.1986  0.0998
  849MOL0     C17035   3.019   3.258   7.704 -0.9226  1.5582 -0.1850
  849MOL0     C17036   2.998   3.117   7.752 -0.8692  0.1128 -0.6905
  849MOL0     C17037   3.088   3.071   7.882 -0.2315 -1.0923  0.3495
  849MOL0     C17038   3.073   3.135   8.020 -0.0574  0.0092 -0.5327
  849MOL0     C17039   3.179   3.072   8.115 -0.7076 -0.4980  0.0245
  849MOL0     C17040   3.143   3.105   8.257 -0.4564  0.0120  0.7634
  849MOL0     N17041   3.238   3.047   8.350 -0.1195 -0.5775 -0.2648
  849MOL0     C17042   3.231   2.917   8.392  0.5286 -0.0790 -0.5339
  849MOL0     C17043   3.312   2.903   8.494 -0.5544 -0.3088  0.8085
  849MOL0     C17044   3.336   2.777   8.571 -0.0765  0.1962  1.1659
  849MOL0     C17045   3.251   2.777   8.702  0.4275 -0.0498  0.1365
  849MOL0     C17046   3.116   2.726   8.657 -0.8615  0.1002 -0.0231
  849MOL0     C17047   3.022   2.732   8.777 -0.5879  0.0290 -0.2991
  849MOL0     O17048   3.069   2.669   8.897 -1.3009 -0.5425  0.2225
  849MOL0     C17049   3.025   2.545   8.932  0.2539  0.7546  0.5631
  849MOL0     C17050   3.006   2.526   9.066  0.4633  0.1981 -0.0353
  849MOL0     C17051   2.958   2.406   9.117  0.0709  0.3437  1.5626
  849MOL0     C17052   2.943   2.400   9.268  0.6530 -0.7088 -0.2205
  849MOL0     C17053   2.936   2.296   9.022  0.4153  0.5018  0.0780
  849MOL0     C17054   2.900   2.164   9.061 -0.5326  0.7023 -0.2475
  849MOL0     O17055   2.857   2.091   8.959 -0.1109  0.1958  0.2318
  849MOL0     C17056   2.807   1.967   8.975 -0.5184  1.0550  0.1031
  849MOL0     C17057   2.835   1.890   8.860  0.2065  0.2847 -0.3014
  849MOL0     C17058   2.757   1.774   8.836 -0.4191  0.4660  0.3444
  849MOL0     C17059   2.669   1.727   8.930 -0.2090 -0.1333  0.0730
  849MOL0     O17060   2.598   1.609   8.923  0.7397  0.1233  0.5501
  849MOL0     C17061   2.460   1.625   8.875 -0.0245  0.4742  0.0139
  849MOL0     C17062   2.405   1.486   8.897  0.6744  0.0448 -0.6098
  849MOL0     C17063   2.429   1.450   9.047 -0.0124  1.4948 -0.2604
  849MOL0     C17064   2.321   1.354   9.105 -0.2443 -0.3570  0.0314
  849MOL0     C17065   2.270   1.233   9.016  0.3092 -0.0283 -0.3418
  849MOL0     C17066   2.296   1.103   9.100  0.0333 -0.0337 -0.0733
  849MOL0     C17067   2.217   0.998   9.030 -1.2230  0.8015  0.7361
  849MOL0     C17068   2.219   0.875   9.125 -1.1732  0.0899 -0.5382
  849MOL0    Cl17069   2.383   0.784   9.125  0.3129 -0.2997 -0.1591
  849MOL0     C17070   2.649   1.805   9.046 -0.2664  0.0554  0.6337
  849MOL0     C17071   2.715   1.926   9.056  0.2465  0.3355  0.0441
  849MOL0     O17072   2.907   2.119   9.173 -0.3194  0.4927 -0.1155
  849MOL0     C17073   2.938   2.324   8.881  0.2554  0.7979 -0.2425
  849MOL0     C17074   2.996   2.440   8.836  0.4654 -0.1151 -0.0124
  849MOL0     N17075   3.372   3.025   8.505  0.6992 -0.6600  0.8504
  849MOL0     N17076   3.329   3.116   8.421 -0.2778  0.6853  0.0135
  849MOL0     C17077   3.045   3.558   7.280  0.2319 -0.9115  0.8370
  849MOL0     C17078   3.095   3.636   7.177 -0.6466 -0.4364  0.1658
  849MOL0     C17079   3.290   3.905   6.899 -0.2561 -0.6487  0.0615
  849MOL0     C17080   3.350   4.029   6.912 -0.2214 -0.2133 -0.8640
  849MOL0     C17081   3.385   4.106   6.800 -0.0554  0.4700  0.1100
  849MOL0     C17082   3.372   4.056   6.669 -0.2695  0.5798  0.3398
  849MOL0     O17083   3.388   4.131   6.558  0.3994  0.0004 -0.5151
  849MOL0     C17084   3.485   4.230   6.550 -0.8622  0.6192  0.6592
  849MOL0     C17085   3.607   4.194   6.450 -0.1247 -0.4825 -0.1462
  849MOL0     C17086   3.621   4.292   6.337  0.0258 -0.7567 -0.1572
  849MOL0     C17087   3.758   4.298   6.264  0.3259  0.6624  0.5090
  849MOL0     C17088   3.747   4.205   6.144 -0.8528  0.8272 -0.4053
  849MOL0     C17089   3.748   4.115   6.058  0.5893  0.2945 -0.0061
  849MOL0     C17090   3.310   3.929   6.650 -0.1116 -1.1010 -0.7839
  849MOL0     C17091   3.269   3.855   6.767 -0.0366  0.5674  0.0502
  849MOL0     C17092   3.194   3.727   6.742 -0.4469  0.3127 -0.0672
  849MOL0     H17093   3.400   3.506   7.131 -0.3646 -0.5310 -2.5615
  849MOL0     H17094   3.329   3.376   7.329 -0.1622 -2.7422 -3.0241
  849MOL0     H17095   2.900   3.391   7.399  0.5873 -1.7625 -1.0005
  849MOL0     H17096   2.956   3.483   7.541  1.3661  1.0797 -2.5588
  849MOL0     H17097   2.829   3.269   7.597  0.8567  4.6019  2.6171
  849MOL0     H17098   2.947   3.171   7.510  3.7872  1.1571 -0.8837
  849MOL0     H17099   3.124   3.281   7.684  0.1524 -0.9413  1.8987
  849MOL0     H17100   2.978   3.319   7.785  3.1578  1.7342  2.0464
  849MOL0     H17101   2.892   3.093   7.760 -1.2764  1.4757 -1.6214
  849MOL0     H17102   3.041   3.051   7.676  1.9895 -0.1313  1.0191
  849MOL0     H17103   3.188   3.096   7.846  0.1805 -2.0734  0.7845
  849MOL0     H17104   3.063   2.965   7.898 -0.3389 -1.0882  0.2130
  849MOL0     H17105   3.058   3.243   8.018 -2.7551 -0.2830 -0.0977
  849MOL0     H17106   2.971   3.103   8.046 -1.3979  0.9634 -4.0102
  849MOL0     H17107   3.275   3.121   8.098 -0.3991  0.2857  3.2849
  849MOL0     H17108   3.190   2.964   8.102  1.3231 -0.0284 -2.9565
  849MOL0     H17109   3.149   3.214   8.266  1.1011  0.1797 -1.6437
  849MOL0     H17110   3.043   3.081   8.295  0.1420 -2.5114  0.9121
  849MOL0     H17111   3.165   2.837   8.363 -2.7539  1.2839  2.4932
  849MOL0     H17112   3.443   2.771   8.593  0.3477 -3.9536 -1.0567
  849MOL0     H17113   3.324   2.690   8.506  0.3508  0.2549  1.0018
  849MOL0     H17114   3.290   2.709   8.778  2.7195  2.2296  1.1186
  849MOL0     H17115   3.247   2.881   8.737 -0.1794 -0.1749  0.4657
  849MOL0     H17116   3.075   2.783   8.573 -0.0864 -2.8501 -2.6346
  849MOL0     H17117   3.125   2.627   8.611 -0.7344 -0.7659  1.7948
  849MOL0     H17118   3.007   2.839   8.793 -1.0534 -0.1804  0.7664
  849MOL0     H17119   2.927   2.690   8.744 -0.3834 -0.4325 -0.3067
  849MOL0     H17120   3.018   2.594   9.149 -0.6533 -2.5168  2.5359
  849MOL0     H17121   2.947   2.299   9.310 -3.1820  0.3292  3.2869
  849MOL0     H17122   2.847   2.437   9.305 -0.7026 -2.8883 -1.3453
  849MOL0     H17123   3.024   2.446   9.326 -0.9082  2.1126 -0.0877
  849MOL0     H17124   2.904   1.938   8.791 -2.9944  0.6376 -3.5045
  849MOL0     H17125   2.773   1.715   8.747  0.0913 -4.3502  3.2866
  849MOL0     H17126   2.397   1.707   8.912 -0.9701 -0.0802 -0.3348
  849MOL0     H17127   2.454   1.649   8.768  1.8624 -1.4932 -0.6026
  849MOL0     H17128   2.297   1.485   8.879  0.8031 -0.6206 -1.4106
  849MOL0     H17129   2.446   1.414   8.826  0.5762 -0.2855 -0.3392
  849MOL0     H17130   2.436   1.547   9.097 -0.5327  2.1685 -1.4709
  849MOL0     H17131   2.523   1.397   9.063 -0.8645 -1.1738 -3.0229
  849MOL0     H17132   2.227   1.405   9.129  0.1802 -0.1817  1.4080
  849MOL0     H17133   2.345   1.323   9.207 -0.5479 -0.7634 -0.0165
  849MOL0     H17134   2.164   1.255   8.997  0.6828  0.3773 -2.0896
  849MOL0     H17135   2.333   1.215   8.928  1.0685  0.8751 -0.0008
  849MOL0     H17136   2.268   1.121   9.204 -1.1240  1.4694 -0.5934
  849MOL0     H17137   2.400   1.072   9.093  0.2328  0.6354 -0.1654
  849MOL0     H17138   2.267   0.980   8.934 -2.7837 -4.6496  0.5971
  849MOL0     H17139   2.110   1.011   9.014 -1.2816  0.4350  0.8111
  849MOL0     H17140   2.146   0.810   9.075 -2.1037  1.3163 -0.8104
  849MOL0     H17141   2.188   0.899   9.227  2.4527  0.9614  0.5122
  849MOL0     H17142   2.576   1.778   9.121 -1.2071  1.0650  0.1157
  849MOL0     H17143   2.677   1.987   9.137  0.8722  1.6834 -0.6382
  849MOL0     H17144   2.904   2.256   8.804  2.3388  0.2036 -0.7135
  849MOL0     H17145   3.022   2.449   8.731 -1.4455 -1.5040 -0.6616
  849MOL0     H17146   2.951   3.594   7.320 -0.6542 -1.0962 -0.9628
  849MOL0     H17147   3.026   3.708   7.135  1.7912  0.7278 -2.1266
  849MOL0     H17148   3.353   4.085   7.005 -2.4983 -1.5576  0.1222
  849MOL0     H17149   3.412   4.210   6.811 -0.2961  0.2919  3.5767
  849MOL0     H17150   3.441   4.324   6.515  1.3095  0.8015 -1.9551
  849MOL0     H17151   3.537   4.254   6.644  0.3712  0.2846  0.0890
  849MOL0     H17152   3.593   4.094   6.409 -1.6174 -0.8642  1.2438
  849MOL0     H17153   3.699   4.209   6.508 -0.6756  1.0225  0.3845
  849MOL0     H17154   3.547   4.260   6.263  0.9763 -0.7105 -1.1589
  849MOL0     H17155   3.603   4.388   6.387  3.2763 -2.0796  4.1652
  849MOL0     H17156   3.840   4.263   6.327  1.7025 -2.0114 -2.5090
  849MOL0     H17157   3.790   4.399   6.235  1.8064 -0.4023 -1.7801
  849MOL0     H17158   3.753   4.033   5.990  0.8874 -1.2539  1.8110
  849MOL0     H17159   3.283   3.912   6.546  2.2351  3.0854 -2.3150
  849MOL0     H17160   3.128   3.741   6.656 -0.2100  3.1929  0.1237
  849MOL0     H17161   3.262   3.645   6.716  0.2999  0.6564  0.7538
  849MOL0     H17162   3.140   3.676   6.822 -0.0850 -0.6505 -0.4190
  850MOL0     O17163   7.680   3.148  11.338  0.0495 -0.0281  0.0478
  850MOL0     C17164   7.743   3.218  11.261  0.9115  0.4831 -0.1189
  850MOL0     O17165   7.687   3.286  11.162  1.0922 -0.3128 -0.6014
  850MOL0     C17166   7.553   3.259  11.121  0.1045  0.3186 -0.6691
  850MOL0     C17167   7.516   3.247  10.997  0.5358 -1.1109 -0.2579
  850MOL0     C17168   7.385   3.231  10.956  0.0833  0.3270  0.4502
  850MOL0     C17169   7.283   3.227  11.055  0.6419 -0.3121 -0.0207
  850MOL0     O17170   7.163   3.204  11.010  0.8252 -0.9828  0.3604
  850MOL0     C17171   7.053   3.168  11.100 -0.4906 -0.5026  0.1418
  850MOL0     C17172   6.953   3.080  11.027 -0.7305  0.3083  0.1802
  850MOL0     C17173   6.966   2.931  11.068 -0.7765 -0.1603  0.2908
  850MOL0     C17174   7.107   2.867  11.050  0.0142 -0.7914  0.1780
  850MOL0     C17175   7.130   2.760  11.160  0.1434 -0.1238  0.8643
  850MOL0     C17176   7.034   2.646  11.142 -0.1228 -0.8501 -0.7056
  850MOL0     C17177   7.066   2.526  11.243  0.3610 -0.0823  0.0632
  850MOL0     C17178   7.061   2.551  11.396  0.8581  0.0609 -1.0199
  850MOL0     N17179   6.929   2.592  11.445  0.1225 -0.0061  0.0000
  850MOL0     C17180   6.879   2.721  11.439  0.2641  0.2572 -0.0875
  850MOL0     C17181   6.763   2.719  11.511 -1.0241 -0.2774  0.1493
  850MOL0     C17182   6.672   2.838  11.532 -0.3785  0.0687  0.4655
  850MOL0     C17183   6.703   2.950  11.420 -0.4057  0.6011 -1.0127
  850MOL0     C17184   6.591   3.049  11.408 -0.0080  0.4372 -0.1096
  850MOL0     C17185   6.455   2.991  11.358  0.0777 -0.8514 -0.6248
  850MOL0     O17186   6.463   2.874  11.270  0.9884  0.0812 -0.5672
  850MOL0     C17187   6.424   2.897  11.131 -0.6480 -0.8267 -0.3875
  850MOL0     C17188   6.462   3.006  11.056  0.7715  0.4278 -0.0923
  850MOL0     C17189   6.416   3.036  10.927  0.7491 -0.4038 -0.4556
  850MOL0     C17190   6.451   3.182  10.872 -0.3535  0.4479  0.4955
  850MOL0     C17191   6.342   2.932  10.861  0.5291 -0.2717 -0.3211
  850MOL0     C17192   6.288   2.937  10.726  0.1811 -1.1760 -0.7931
  850MOL0     O17193   6.359   3.018  10.639  0.3256  0.0119  0.5481
  850MOL0     C17194   6.326   3.025  10.503  0.6528  0.5683 -0.4345
  850MOL0     C17195   6.212   3.080  10.451 -0.5556 -0.5268  0.2386
  850MOL0     C17196   6.199   3.095  10.308 -0.4235  0.5260  0.2041
  850MOL0     C17197   6.294   3.039  10.222  0.7055  1.0832 -0.4868
  850MOL0     O17198   6.248   3.041  10.092  0.9371  0.0061  0.1957
  850MOL0     C17199   6.288   2.945   9.992 -0.7929  0.4494 -0.0747
  850MOL0     C17200   6.201   2.816   9.992 -0.1871  0.3787 -0.1596
  850MOL0     C17201   6.259   2.707   9.899 -0.1845  0.7028  0.4462
  850MOL0     C17202   6.279   2.771   9.758 -0.8781  0.3612  0.2082
  850MOL0     C17203   6.324   2.658   9.655 -1.0497 -0.3273 -0.8214
  850MOL0     C17204   6.210   2.573   9.621  0.5547 -0.2418 -0.1188
  850MOL0     C17205   6.262   2.460   9.544 -0.4882  0.8931 -0.1024
  850MOL0     C17206   6.156   2.348   9.517 -0.2527  0.1193 -0.2651
  850MOL0    Cl17207   6.233   2.220   9.421 -0.2275 -0.0590 -0.0146
  850MOL0     C17208   6.406   2.981  10.277  0.4999 -0.6531  0.1101
  850MOL0     C17209   6.424   2.976  10.415  0.5511  0.0219  0.3427
  850MOL0     O17210   6.189   2.868  10.709  0.1231  0.5093  0.1581
  850MOL0     C17211   6.315   2.817  10.937  0.8384  0.1024 -0.8424
  850MOL0     C17212   6.351   2.803  11.070  0.5158  0.6639  0.5824
  850MOL0     N17213   6.756   2.598  11.580  0.0256 -0.5656  0.9042
  850MOL0     N17214   6.851   2.517  11.534  0.2307 -0.3273 -1.1141
  850MOL0     C17215   7.318   3.250  11.188 -0.0134  0.5443 -0.1894
  850MOL0     C17216   7.451   3.272  11.218 -1.4143 -0.3856 -0.2308
  850MOL0     C17217   7.887   3.237  11.265 -1.6463  0.6556  0.0632
  850MOL0     C17218   7.961   3.267  11.150  0.8858 -0.7912 -0.1344
  850MOL0     C17219   8.096   3.304  11.153  0.7121 -0.4955 -0.3258
  850MOL0     C17220   8.176   3.293  11.273 -0.5971  0.1331  0.6120
  850MOL0     O17221   8.314   3.324  11.259 -1.3288  0.1793 -0.2885
  850MOL0     C17222   8.398   3.333  11.382 -0.0774  0.2167  0.5222
  850MOL0     C17223   8.540   3.291  11.346  0.1239  0.9229 -0.4709
  850MOL0     C17224   8.636   3.339  11.453  0.0728  1.6305  0.9947
  850MOL0     C17225   8.774   3.326  11.396  0.1060 -0.0164 -0.5788
  850MOL0     C17226   8.796   3.190  11.349 -0.6926  1.1351  0.3838
  850MOL0     C17227   8.823   3.076  11.313  0.1091 -0.0614  0.5393
  850MOL0     C17228   8.106   3.262  11.395 -0.0201 -0.2713 -0.0914
  850MOL0     C17229   7.966   3.225  11.388  0.0849 -0.1651  0.9258
  850MOL0     C17230   7.908   3.211  11.524 -0.3744 -0.0801  0.5840
  850MOL0     H17231   7.595   3.254  10.924 -0.4755  1.3755 -1.2332
  850MOL0     H17232   7.362   3.206  10.853 -0.7962  1.5803  0.3135
  850MOL0     H17233   6.994   3.258  11.115 -1.0338 -0.2030 -3.0536
  850MOL0     H17234   7.071   3.132  11.202 -1.0939  0.9079  0.7678
  850MOL0     H17235   6.846   3.102  11.033 -1.6619 -3.1353 -1.2789
  850MOL0     H17236   6.975   3.086  10.919  0.7721  0.2995  0.4598
  850MOL0     H17237   6.942   2.923  11.174  2.1772  1.5075  1.2097
  850MOL0     H17238   6.898   2.876  11.003 -0.9886  0.5998 -0.1535
  850MOL0     H17239   7.111   2.825  10.950 -0.9603 -0.2368 -0.1101
  850MOL0     H17240   7.185   2.944  11.050 -0.2552 -0.5157 -0.1646
  850MOL0     H17241   7.127   2.799  11.262 -1.6122 -1.5959  1.4303
  850MOL0     H17242   7.227   2.716  11.135 -0.9073 -0.3281 -3.7533
  850MOL0     H17243   6.932   2.681  11.161  1.0521  2.1667  0.7591
  850MOL0     H17244   7.039   2.613  11.038  0.7761 -3.6238  0.1276
  850MOL0     H17245   7.169   2.496  11.225  2.0560  2.8801  3.5930
  850MOL0     H17246   7.002   2.440  11.218  0.2106 -0.3262  1.2349
  850MOL0     H17247   7.077   2.454  11.442 -1.0285  0.2619  0.1686
  850MOL0     H17248   7.135   2.622  11.433  1.7152 -0.7949 -1.0572
  850MOL0     H17249   6.918   2.806  11.384 -0.8103  0.3725 -0.6971
  850MOL0     H17250   6.680   2.876  11.634  0.5924 -3.0233  1.6404
  850MOL0     H17251   6.575   2.795  11.505  0.3251 -0.5860 -1.1471
  850MOL0     H17252   6.795   3.005  11.442  1.2259 -2.5569  0.8138
  850MOL0     H17253   6.721   2.896  11.326  4.4688 -1.0365  0.5309
  850MOL0     H17254   6.576   3.102  11.503  1.9372  1.2028 -0.1678
  850MOL0     H17255   6.622   3.122  11.333  0.6413  0.0568 -0.2170
  850MOL0     H17256   6.384   2.965  11.437 -1.1937  3.5238 -0.0535
  850MOL0     H17257   6.399   3.074  11.313  0.7388 -0.4904 -0.7904
  850MOL0     H17258   6.526   3.072  11.114 -1.5221  3.1294 -0.4896
  850MOL0     H17259   6.531   3.166  10.800 -0.4827 -1.2956  0.6950
  850MOL0     H17260   6.497   3.243  10.949  0.9007  2.2071 -1.5292
  850MOL0     H17261   6.366   3.236  10.827  0.0048  1.2718  0.8016
  850MOL0     H17262   6.144   3.139  10.511  1.3864  0.4689  1.5457
  850MOL0     H17263   6.117   3.149  10.262 -0.9559  2.5402  3.1736
  850MOL0     H17264   6.290   2.993   9.894  1.0855  0.4941 -0.0539
  850MOL0     H17265   6.390   2.910  10.006 -0.3073  1.8851  0.2040
  850MOL0     H17266   6.192   2.786  10.097  1.6581 -0.1227 -0.1006
  850MOL0     H17267   6.100   2.829   9.953 -0.1899  1.1343  0.0813
  850MOL0     H17268   6.191   2.622   9.909  1.0585 -0.1570  2.0807
  850MOL0     H17269   6.349   2.666   9.947 -0.5308  1.2910  1.6396
  850MOL0     H17270   6.349   2.855   9.762 -0.6791  0.1713  1.2390
  850MOL0     H17271   6.192   2.821   9.714 -2.2228 -0.8195  1.4240
  850MOL0     H17272   6.364   2.714   9.570 -0.6463  2.8004  1.2604
  850MOL0     H17273   6.401   2.591   9.694 -0.4796  0.2759 -0.8822
  850MOL0     H17274   6.134   2.630   9.567 -1.6224 -2.0986  0.8025
  850MOL0     H17275   6.147   2.547   9.707 -1.3406  1.6140 -0.8726
  850MOL0     H17276   6.346   2.411   9.596 -0.8387  0.6414  0.2307
  850MOL0     H17277   6.298   2.501   9.449  0.7911 -2.6442 -1.3498
  850MOL0     H17278   6.068   2.395   9.473  1.7538  3.9494 -0.6377
  850MOL0     H17279   6.125   2.302   9.611  3.2672  0.4293  1.2283
  850MOL0     H17280   6.476   2.936  10.207 -2.0312 -1.9928 -1.7298
  850MOL0     H17281   6.506   2.922  10.462 -0.3695 -0.8824  0.9540
  850MOL0     H17282   6.269   2.726  10.900 -0.2414 -0.1282  0.9431
  850MOL0     H17283   6.328   2.721  11.138 -6.3088  0.7190 -0.9094
  850MOL0     H17284   7.246   3.247  11.269  0.1454 -0.1167 -0.0643
  850MOL0     H17285   7.485   3.293  11.319  2.9333 -1.1288 -1.3359
  850MOL0     H17286   7.917   3.277  11.051  0.2473 -0.1874  0.2005
  850MOL0     H17287   8.153   3.326  11.063  1.1077 -0.0619  0.0266
  850MOL0     H17288   8.402   3.433  11.427  2.8628 -0.1107  1.1966
  850MOL0     H17289   8.371   3.268  11.465  0.9165 -0.2439  0.4950
  850MOL0     H17290   8.570   3.336  11.251 -0.1089 -1.7974 -1.9414
  850MOL0     H17291   8.547   3.182  11.348  0.5494  0.9649  1.0957
  850MOL0     H17292   8.621   3.446  11.470 -2.4909  1.0748  3.0232
  850MOL0     H17293   8.634   3.280  11.545  0.9058  1.3999  0.8705
  850MOL0     H17294   8.854   3.356  11.465 -0.0791 -0.6922 -0.0699
  850MOL0     H17295   8.786   3.400  11.316  0.6533  1.0114  0.4063
  850MOL0     H17296   8.850   2.987  11.260 -0.1364  0.7982 -1.0742
  850MOL0     H17297   8.174   3.241  11.477  1.0455 -0.6343 -1.0378
  850MOL0     H17298   7.803   3.240  11.531 -0.3105 -0.1482  2.2574
  850MOL0     H17299   7.922   3.110  11.563  2.9909  0.6412  1.6031
  850MOL0     H17300   7.965   3.270  11.596  0.6165  0.4406 -0.5892
  851MOL0     O17301   3.888   3.788   0.065 -0.3587 -0.2300 -0.2841
  851MOL0     C17302   3.792   3.727   0.016  0.4527 -0.1538 -0.4452
  851MOL0     O17303   3.797   3.597  -0.014  0.6924 -0.2487  0.2398
  851MOL0     C17304   3.920   3.540  -0.029  1.0795 -0.1482 -1.1255
  851MOL0     C17305   3.962   3.506  -0.151  0.3975  1.0436 -0.3306
  851MOL0     C17306   4.078   3.441  -0.180  0.4859 -0.3744 -0.4101
  851MOL0     C17307   4.170   3.415  -0.074 -0.1816  0.5530 -0.5193
  851MOL0     O17308   4.297   3.354  -0.091  0.0586  0.0100 -0.8980
  851MOL0     C17309   4.313   3.292  -0.223  0.4256  0.1684  0.8092
  851MOL0     C17310   4.445   3.231  -0.247  0.4089  0.1777  0.2537
  851MOL0     C17311   4.561   3.333  -0.239 -0.8760 -0.8880  0.7021
  851MOL0     C17312   4.555   3.418  -0.367 -0.9193  0.2751  0.5802
  851MOL0     C17313   4.681   3.507  -0.391  0.4155  0.2332 -0.4882
  851MOL0     C17314   4.690   3.620  -0.289 -0.6672 -0.2241 -0.5152
  851MOL0     C17315   4.836   3.671  -0.307  0.0919  0.1700  1.2827
  851MOL0     C17316   4.946   3.570  -0.271 -0.5549 -0.8409 -0.2442
  851MOL0     N17317   5.047   3.656  -0.216  0.2925  0.3494  0.1235
  851MOL0     C17318   5.045   3.713  -0.091  1.6145 -1.0199  0.2353
  851MOL0     C17319   5.139   3.803  -0.082  0.1284 -0.9387  0.8291
  851MOL0     C17320   5.194   3.873   0.040  0.0421  0.2847 -0.7742
  851MOL0     C17321   5.098   3.968   0.101  0.4337  0.1447  0.2111
  851MOL0     C17322   5.044   4.086   0.013  1.2423  1.0896 -1.6771
  851MOL0     C17323   4.920   4.157   0.088 -0.2712 -0.2786  0.5873
  851MOL0     O17324   4.794   4.088   0.087  0.6223  0.2737 -0.6112
  851MOL0     C17325   4.717   4.084  -0.032  0.5359  0.4608 -0.2790
  851MOL0     C17326   4.600   4.012  -0.030  0.1182 -0.4794  0.5150
  851MOL0     C17327   4.506   4.000  -0.135  0.2088  0.5388 -0.0518
  851MOL0     C17328   4.398   3.898  -0.111  0.3180  0.1337 -0.4741
  851MOL0     C17329   4.527   4.080  -0.250  0.2287 -0.5031 -0.2430
  851MOL0     C17330   4.447   4.082  -0.375  1.0559  0.5363  0.3267
  851MOL0     O17331   4.517   4.128  -0.482  0.3056  0.5476 -0.8217
  851MOL0     C17332   4.437   4.146  -0.594  0.2357 -0.6492  0.4680
  851MOL0     C17333   4.391   4.034  -0.666  0.7395 -0.2127 -1.0098
  851MOL0     C17334   4.294   4.053  -0.772 -0.3240 -0.9912  0.6601
  851MOL0     C17335   4.264   4.185  -0.810  0.1971  0.2794  0.6267
  851MOL0     O17336   4.185   4.200  -0.918  0.0312  0.2232  0.2840
  851MOL0     C17337   4.174   4.325  -0.988  0.2273 -0.5853 -0.5420
  851MOL0     C17338   4.087   4.302  -1.114 -0.3797 -0.0240 -1.0445
  851MOL0     C17339   3.948   4.256  -1.063 -0.1695 -0.7635  0.3139
  851MOL0     C17340   3.854   4.375  -1.111  0.5636  0.2527 -1.6353
  851MOL0     C17341   3.726   4.376  -1.025 -0.0379  0.8015  0.3446
  851MOL0     C17342   3.631   4.489  -1.068  0.8699  0.5259  0.7958
  851MOL0     C17343   3.685   4.629  -1.052 -0.2716  0.5186 -1.0097
  851MOL0     C17344   3.575   4.726  -1.064 -0.0991 -0.2895 -0.4149
  851MOL0    Cl17345   3.484   4.684  -1.216 -0.3238 -0.0503 -0.3085
  851MOL0     C17346   4.304   4.297  -0.734 -0.5713 -0.1962  0.2904
  851MOL0     C17347   4.393   4.277  -0.628 -0.5607  0.2097  0.2352
  851MOL0     O17348   4.328   4.052  -0.371 -0.0720  0.2461 -1.1270
  851MOL0     C17349   4.653   4.145  -0.260  0.1716  0.0512 -0.0547
  851MOL0     C17350   4.737   4.160  -0.148  0.0862  0.2452  1.3386
  851MOL0     N17351   5.198   3.803  -0.208  0.3935 -0.2407  0.0450
  851MOL0     N17352   5.158   3.709  -0.281 -0.3698  0.2070 -0.1941
  851MOL0     C17353   4.130   3.452   0.053 -0.1720  0.2854  0.3967
  851MOL0     C17354   4.004   3.508   0.083 -0.6104 -0.3614  0.0394
  851MOL0     C17355   3.667   3.798   0.002  0.9830  0.7216 -1.4687
  851MOL0     C17356   3.634   3.895   0.098  0.4277 -0.2008  0.0353
  851MOL0     C17357   3.528   3.980   0.083  0.2076 -0.4308 -0.1954
  851MOL0     C17358   3.432   3.967  -0.016  1.2002  0.3527 -0.0035
  851MOL0     O17359   3.319   4.039  -0.021  0.1706 -0.5566 -0.6784
  851MOL0     C17360   3.277   4.127   0.087  0.2454 -0.5939 -0.5122
  851MOL0     C17361   3.134   4.157   0.042 -0.2741 -0.7437  0.2901
  851MOL0     C17362   3.044   4.269   0.097 -1.1304  0.2108  0.2413
  851MOL0     C17363   3.031   4.230   0.246  0.6622 -0.2566  0.2729
  851MOL0     C17364   2.959   4.332   0.317  0.7120 -0.0917 -0.0236
  851MOL0     C17365   2.913   4.408   0.395  0.1051 -1.0329  0.0310
  851MOL0     C17366   3.464   3.862  -0.108 -0.3791 -0.0373 -0.5066
  851MOL0     C17367   3.578   3.782  -0.102 -0.0167 -0.0747 -0.1119
  851MOL0     C17368   3.594   3.665  -0.197 -0.4712  0.7359 -0.0696
  851MOL0     H17369   3.910   3.519  -0.245  1.3032  1.0858 -0.8465
  851MOL0     H17370   4.106   3.415  -0.281  1.3164 -2.9537  0.3769
  851MOL0     H17371   4.307   3.368  -0.301 -1.7384 -0.8993 -0.1611
  851MOL0     H17372   4.236   3.220  -0.249 -0.8699  1.8757 -0.2367
  851MOL0     H17373   4.451   3.155  -0.169  1.7896 -1.8456 -1.6877
  851MOL0     H17374   4.443   3.177  -0.343 -0.7922 -1.9480  1.3950
  851MOL0     H17375   4.564   3.402  -0.154  3.9145  1.9469 -1.3243
  851MOL0     H17376   4.654   3.277  -0.224  0.6109  0.9197 -1.1509
  851MOL0     H17377   4.548   3.352  -0.454  2.8821  0.2952  0.1148
  851MOL0     H17378   4.475   3.492  -0.372 -0.1482  1.0670 -0.4455
  851MOL0     H17379   4.676   3.543  -0.494 -0.5981  1.7829  0.0541
  851MOL0     H17380   4.774   3.450  -0.386  1.3409  1.7924  3.5934
  851MOL0     H17381   4.617   3.697  -0.316 -1.9240 -1.4424 -0.7043
  851MOL0     H17382   4.680   3.608  -0.181 -0.4580 -0.2182 -0.4962
  851MOL0     H17383   4.832   3.762  -0.248  2.1345  1.3541 -0.2745
  851MOL0     H17384   4.840   3.692  -0.415  3.8776 -3.4334  0.4607
  851MOL0     H17385   4.931   3.504  -0.185 -2.7874 -0.0349  0.0441
  851MOL0     H17386   4.988   3.511  -0.353 -0.9772  0.9644 -1.8456
  851MOL0     H17387   4.972   3.690  -0.014  2.8990  0.2735  1.9133
  851MOL0     H17388   5.293   3.918   0.023  0.2494  1.0139  1.9664
  851MOL0     H17389   5.226   3.796   0.111 -1.2270  1.8851  1.6175
  851MOL0     H17390   5.010   3.912   0.134  1.8440 -3.4429 -1.5974
  851MOL0     H17391   5.152   3.995   0.193  3.4923  0.5001 -1.5755
  851MOL0     H17392   5.126   4.151  -0.016  2.1905  1.3702  1.2612
  851MOL0     H17393   5.011   4.038  -0.079 -0.1318 -0.0258 -0.6637
  851MOL0     H17394   4.939   4.166   0.196  0.1830  3.4137  0.3408
  851MOL0     H17395   4.912   4.259   0.048 -3.0153  0.5931  2.9849
  851MOL0     H17396   4.584   3.958   0.063 -0.8592 -0.4122  0.4006
  851MOL0     H17397   4.296   3.905  -0.151  0.0156 -3.5220 -0.6197
  851MOL0     H17398   4.394   3.880  -0.003  0.5228 -1.8836 -0.7824
  851MOL0     H17399   4.416   3.801  -0.157 -3.4428 -0.7035 -0.5637
  851MOL0     H17400   4.417   3.933  -0.634 -1.1389 -0.5588 -0.4642
  851MOL0     H17401   4.262   3.970  -0.833  0.0043 -1.3541  0.9766
  851MOL0     H17402   4.132   4.403  -0.924  3.4108 -0.6054  1.8301
  851MOL0     H17403   4.268   4.370  -1.022 -1.2337  1.7013 -1.8440
  851MOL0     H17404   4.078   4.394  -1.172 -2.1060 -0.5346 -1.6404
  851MOL0     H17405   4.132   4.227  -1.180  0.9059 -2.3692  2.2285
  851MOL0     H17406   3.945   4.232  -0.956 -1.2830 -0.5048  0.3480
  851MOL0     H17407   3.913   4.162  -1.106  1.9251 -1.2898 -0.3596
  851MOL0     H17408   3.808   4.388  -1.209 -1.1249  3.3072 -0.5966
  851MOL0     H17409   3.909   4.467  -1.087 -2.0486  1.7438 -1.0836
  851MOL0     H17410   3.671   4.283  -1.045 -1.6459  2.1156 -1.8584
  851MOL0     H17411   3.736   4.387  -0.917 -0.7228  1.2997  0.3667
  851MOL0     H17412   3.538   4.477  -1.011 -1.0005  2.4028 -1.6405
  851MOL0     H17413   3.616   4.457  -1.172 -2.2750 -0.4523  1.4353
  851MOL0     H17414   3.762   4.631  -1.129 -1.8537 -3.7121 -3.0106
  851MOL0     H17415   3.737   4.639  -0.956  2.4094  0.1015 -2.3194
  851MOL0     H17416   3.607   4.830  -1.058  1.2812 -0.6588 -1.1027
  851MOL0     H17417   3.510   4.714  -0.976 -1.4046 -0.7273 -1.4006
  851MOL0     H17418   4.276   4.394  -0.773  0.3293  0.3624  0.9880
  851MOL0     H17419   4.434   4.353  -0.562  1.0229 -0.5757  0.2111
  851MOL0     H17420   4.690   4.197  -0.348 -2.7687  1.2900 -0.6785
  851MOL0     H17421   4.827   4.219  -0.161  1.1837 -1.7529 -0.5948
  851MOL0     H17422   4.205   3.435   0.129  2.6792 -2.3629 -2.6961
  851MOL0     H17423   3.983   3.539   0.185  2.7433 -1.3389  1.1450
  851MOL0     H17424   3.695   3.912   0.186  1.0221  1.0925 -0.6035
  851MOL0     H17425   3.518   4.052   0.164 -0.0878 -0.3773 -0.2813
  851MOL0     H17426   3.264   4.068   0.178  1.5640  0.7710  0.6214
  851MOL0     H17427   3.337   4.218   0.097  0.8855 -0.6752 -3.1276
  851MOL0     H17428   3.081   4.064   0.066 -0.9159  0.1876  2.8221
  851MOL0     H17429   3.139   4.180  -0.065 -2.8579  0.5139  0.3500
  851MOL0     H17430   3.097   4.364   0.094  0.6859 -0.7622 -2.1876
  851MOL0     H17431   2.954   4.267   0.035 -0.8876  0.4788 -0.1220
  851MOL0     H17432   3.134   4.229   0.282  0.9822  2.6249 -0.3721
  851MOL0     H17433   2.981   4.133   0.255  2.9944 -2.0515 -3.6345
  851MOL0     H17434   2.870   4.477   0.465  1.3853 -3.1387  3.1307
  851MOL0     H17435   3.421   3.848  -0.207  1.8676  2.4856 -1.9961
  851MOL0     H17436   3.588   3.571  -0.142 -0.7827 -0.5020 -2.1250
  851MOL0     H17437   3.508   3.662  -0.265  0.3011 -2.4124 -1.0784
  851MOL0     H17438   3.680   3.663  -0.265 -0.7133 -1.6230 -0.4024
  852MOL0     O17439  10.759   2.971   9.859 -0.0378 -0.8531 -0.5875
  852MOL0     C17440  10.651   2.905   9.855  0.0490  0.1769 -0.2137
  852MOL0     O17441  10.603   2.842   9.752  0.7056  0.1090  0.3945
  852MOL0     C17442  10.691   2.806   9.647  0.6289  0.2419 -0.7195
  852MOL0     C17443  10.699   2.891   9.536  0.2014  1.4304  0.3294
  852MOL0     C17444  10.760   2.843   9.420  0.2774 -0.2148  0.5065
  852MOL0     C17445  10.826   2.715   9.414 -0.0700 -0.3664 -0.3572
  852MOL0     O17446  10.908   2.678   9.312 -0.4986 -0.1832 -0.0084
  852MOL0     C17447  10.976   2.771   9.230  0.4407  0.2664 -0.5075
  852MOL0     C17448  11.067   2.689   9.136  0.2351  0.6607  0.1673
  852MOL0     C17449  11.187   2.647   9.214 -0.2150 -0.0426  0.0866
  852MOL0     C17450  11.178   2.515   9.304 -0.2489 -0.7370 -0.1110
  852MOL0     C17451  11.317   2.478   9.356  0.3628 -0.4342  0.3406
  852MOL0     C17452  11.374   2.585   9.464 -0.2660 -0.4499 -0.1819
  852MOL0     C17453  11.515   2.541   9.506 -0.5383 -0.0498  0.6582
  852MOL0     C17454  11.527   2.431   9.609  0.4737 -0.1143 -0.1389
  852MOL0     N17455  11.541   2.479   9.745 -0.4220 -0.1684 -0.3209
  852MOL0     C17456  11.441   2.468   9.847 -0.6755 -1.2459 -0.4203
  852MOL0     C17457  11.514   2.496   9.958  0.0074 -0.9420  0.7133
  852MOL0     C17458  11.460   2.486  10.100 -0.8815 -0.0849  0.4629
  852MOL0     C17459  11.418   2.619  10.169 -0.1281  0.0688  0.5772
  852MOL0     C17460  11.327   2.579  10.287 -0.0475 -0.0554  0.0115
  852MOL0     C17461  11.255   2.698  10.341  0.2452 -0.5200 -0.4398
  852MOL0     O17462  11.363   2.787  10.389 -0.3631  0.4027 -0.1422
  852MOL0     C17463  11.337   2.913  10.418  0.7005 -1.2039 -0.3665
  852MOL0     C17464  11.454   2.992  10.440 -0.1439  1.1158 -0.1709
  852MOL0     C17465  11.445   3.121  10.476  0.5499  0.2557 -0.0598
  852MOL0     C17466  11.570   3.179  10.528  0.0612  0.1168 -1.8633
  852MOL0     C17467  11.315   3.190  10.472  0.5974  0.2796 -0.8149
  852MOL0     C17468  11.282   3.332  10.512 -0.3603 -0.2932  1.0331
  852MOL0     O17469  11.153   3.388  10.473 -0.3510  0.9587 -0.4113
  852MOL0     C17470  11.105   3.509  10.526  0.3786  0.4536 -0.6379
  852MOL0     C17471  11.175   3.570  10.629 -0.7682 -0.0294  0.1640
  852MOL0     C17472  11.130   3.690  10.682  0.1295 -0.5904 -0.3918
  852MOL0     C17473  11.021   3.762  10.622 -1.0729 -0.7513 -0.3335
  852MOL0     O17474  10.964   3.880  10.654 -0.6343 -0.1173  0.0004
  852MOL0     C17475  10.994   3.936  10.783  0.4034  0.1901  0.5162
  852MOL0     C17476  10.874   3.895  10.870  0.5296  0.9688  0.1498
  852MOL0     C17477  10.902   3.920  11.018  0.7123  0.0763 -0.2240
  852MOL0     C17478  10.889   4.067  11.062  0.0174 -0.2479  0.1795
  852MOL0     C17479  10.824   4.102  11.190  0.6160  0.1377 -0.3096
  852MOL0     C17480  10.837   4.253  11.207  0.6630  0.0862  0.1686
  852MOL0     C17481  10.752   4.303  11.316  0.4655  0.0232 -0.3454
  852MOL0     C17482  10.781   4.245  11.459 -0.1047  0.8558  0.1682
  852MOL0    Cl17483  10.962   4.274  11.523  0.1752 -0.7265  0.0361
  852MOL0     C17484  10.962   3.700  10.513 -0.5444 -0.7397  0.6576
  852MOL0     C17485  11.003   3.579  10.466  0.5320  0.7307  0.2251
  852MOL0     O17486  11.376   3.396  10.555  0.4336  0.1769  0.4614
  852MOL0     C17487  11.204   3.120  10.429  0.0584  0.5531  0.2889
  852MOL0     C17488  11.204   2.976  10.415 -0.5347 -0.0096  1.1628
  852MOL0     N17489  11.647   2.528   9.934  0.2196 -0.3708  0.1653
  852MOL0     N17490  11.666   2.509   9.804 -0.2410  0.4006  0.4145
  852MOL0     C17491  10.820   2.636   9.534  0.1778 -0.3366 -1.5998
  852MOL0     C17492  10.750   2.678   9.643  1.0868 -0.4395  0.7873
  852MOL0     C17493  10.572   2.890   9.985 -0.9802 -0.2650 -0.2633
  852MOL0     C17494  10.495   2.780   9.993  1.5999 -0.4375 -0.1501
  852MOL0     C17495  10.435   2.746  10.111  0.0149 -0.3821  0.4372
  852MOL0     C17496  10.425   2.835  10.221  0.6273  0.6746 -0.0716
  852MOL0     O17497  10.373   2.789  10.336 -0.4137  0.8037 -0.2877
  852MOL0     C17498  10.298   2.879  10.426 -0.0076  0.2481 -0.6092
  852MOL0     C17499  10.391   2.941  10.540 -0.5168  0.5882 -0.0834
  852MOL0     C17500  10.428   2.863  10.656  0.4439 -0.4278 -0.7920
  852MOL0     C17501  10.466   2.932  10.792  0.3897 -0.9791 -0.1092
  852MOL0     C17502  10.343   2.981  10.870 -0.7028 -0.2873 -0.7841
  852MOL0     C17503  10.258   3.017  10.939 -0.2007 -0.5860  0.1388
  852MOL0     C17504  10.497   2.957  10.213 -0.6253 -0.1428 -0.2655
  852MOL0     C17505  10.565   2.988  10.091 -1.0712 -0.4910  0.6036
  852MOL0     C17506  10.646   3.116  10.090  0.2541 -0.5360 -1.0052
  852MOL0     H17507  10.644   2.983   9.546  0.7068  1.6035  1.6185
  852MOL0     H17508  10.771   2.907   9.333  2.4831 -1.0108  0.1419
  852MOL0     H17509  11.041   2.831   9.295  1.7386  0.3140 -1.8001
  852MOL0     H17510  10.904   2.823   9.165 -0.8840 -1.7910 -0.7819
  852MOL0     H17511  11.011   2.601   9.102  0.2148  1.2125 -1.2834
  852MOL0     H17512  11.097   2.757   9.057  0.9155  0.9412  0.6562
  852MOL0     H17513  11.256   2.626   9.131  0.7882  1.8006  0.3992
  852MOL0     H17514  11.217   2.732   9.276 -2.5800  0.9940 -0.1004
  852MOL0     H17515  11.108   2.525   9.388 -0.4941  2.7009 -0.5813
  852MOL0     H17516  11.146   2.435   9.237 -1.9259  0.3344 -0.6556
  852MOL0     H17517  11.380   2.476   9.267 -1.2458  1.1509 -0.9018
  852MOL0     H17518  11.319   2.378   9.402 -1.7534  0.0869  1.6941
  852MOL0     H17519  11.376   2.685   9.419 -0.8038  0.0745  0.9272
  852MOL0     H17520  11.313   2.610   9.552  0.1809 -1.3159  0.3862
  852MOL0     H17521  11.566   2.628   9.548  2.6360 -0.6038 -1.7170
  852MOL0     H17522  11.569   2.512   9.415 -1.0591 -6.1176  1.8803
  852MOL0     H17523  11.444   2.360   9.603  0.4626 -0.0263 -1.2860
  852MOL0     H17524  11.612   2.370   9.577  0.7548  1.3202 -2.3890
  852MOL0     H17525  11.340   2.431   9.838 -0.7276 -2.0336  2.2849
  852MOL0     H17526  11.526   2.424  10.162 -2.4878 -1.3436  0.9672
  852MOL0     H17527  11.371   2.423  10.104 -0.1549 -1.1420  0.4311
  852MOL0     H17528  11.509   2.673  10.195 -0.2861  0.4073  0.4380
  852MOL0     H17529  11.367   2.684  10.097  0.1995 -1.3802 -1.0177
  852MOL0     H17530  11.245   2.516  10.252  1.5433 -2.2187 -0.1028
  852MOL0     H17531  11.378   2.528  10.369 -1.5796 -0.6880  0.6045
  852MOL0     H17532  11.203   2.750  10.260 -1.3852 -0.7892  0.4087
  852MOL0     H17533  11.178   2.673  10.414 -1.0876  2.6958 -0.5750
  852MOL0     H17534  11.552   2.947  10.429 -0.2280  1.3189 -2.2291
  852MOL0     H17535  11.563   3.204  10.634  0.2589  1.8702 -2.2282
  852MOL0     H17536  11.582   3.276  10.478  0.4785  1.2913  0.3856
  852MOL0     H17537  11.656   3.112  10.520 -1.0236 -1.7134  0.5577
  852MOL0     H17538  11.253   3.524  10.688  1.6909  0.1903 -2.6381
  852MOL0     H17539  11.183   3.738  10.764 -1.0837  0.3050 -0.0974
  852MOL0     H17540  11.093   3.907  10.818  1.0696  0.0835 -1.3205
  852MOL0     H17541  10.988   4.044  10.766  2.6041  0.2579 -0.1895
  852MOL0     H17542  10.771   3.918  10.841 -0.3918 -3.8233 -1.3595
  852MOL0     H17543  10.869   3.787  10.857 -1.7087  0.9090  1.1003
  852MOL0     H17544  11.001   3.887  11.051  0.7493 -2.3380 -2.4372
  852MOL0     H17545  10.841   3.852  11.078  3.6571 -1.3452  1.4307
  852MOL0     H17546  10.841   4.123  10.982  0.3382 -3.0370 -2.1175
  852MOL0     H17547  10.989   4.111  11.052 -0.9938  2.1609  0.1072
  852MOL0     H17548  10.717   4.081  11.195 -0.4388  4.6310  0.4801
  852MOL0     H17549  10.868   4.061  11.281 -2.5200 -0.6304  0.9822
  852MOL0     H17550  10.825   4.314  11.117 -0.9671  2.9878  2.1486
  852MOL0     H17551  10.939   4.276  11.237  1.1134 -0.6094 -0.7921
  852MOL0     H17552  10.644   4.289  11.301  0.9765 -6.8652 -0.8007
  852MOL0     H17553  10.778   4.409  11.316 -3.2565  1.1061 -1.4506
  852MOL0     H17554  10.773   4.137  11.448  0.8749  0.7616  0.2854
  852MOL0     H17555  10.704   4.281  11.527 -1.0651  0.5492 -0.7413
  852MOL0     H17556  10.880   3.753  10.465 -0.1555 -0.7237 -0.0065
  852MOL0     H17557  10.944   3.520  10.396  0.5603 -2.6697  2.8283
  852MOL0     H17558  11.116   3.178  10.401  1.2771  1.6963 -1.3191
  852MOL0     H17559  11.122   2.921  10.370 -0.3963 -0.6880  1.7228
  852MOL0     H17560  10.877   2.544   9.523  1.5576  0.5504 -2.2383
  852MOL0     H17561  10.741   2.609   9.726 -0.5972 -2.0594 -0.6429
  852MOL0     H17562  10.492   2.707   9.912 -2.7955  0.2193 -0.8149
  852MOL0     H17563  10.414   2.641  10.126  3.1687 -0.8997  2.1884
  852MOL0     H17564  10.264   2.958  10.359  0.7744  1.0818 -0.0536
  852MOL0     H17565  10.207   2.831  10.462 -1.9100  2.3978 -2.2028
  852MOL0     H17566  10.364   3.043  10.570  1.3739  1.3245 -0.7331
  852MOL0     H17567  10.484   2.967  10.490  0.8675 -0.0996  2.0292
  852MOL0     H17568  10.350   2.790  10.680  0.3648 -0.2094 -0.3800
  852MOL0     H17569  10.523   2.814  10.635  1.0802  0.5369 -0.2193
  852MOL0     H17570  10.526   3.019  10.767 -0.8371  0.6468  2.2386
  852MOL0     H17571  10.523   2.861  10.852  2.6075  0.4340 -0.4417
  852MOL0     H17572  10.185   3.050  11.010  0.3730 -0.2606  0.5856
  852MOL0     H17573  10.503   3.020  10.301  2.9900  0.7019 -0.9553
  852MOL0     H17574  10.644   3.166  10.187 -0.3299 -1.4863 -0.5149
  852MOL0     H17575  10.749   3.084  10.072  0.4673  0.3064 -1.3428
  852MOL0     H17576  10.620   3.181  10.006  1.5366  0.8208 -0.3784
  853MOL0     O17577   5.744  10.846   9.511  0.4683 -0.1248  0.0608
  853MOL0     C17578   5.711  10.944   9.575 -0.4455  0.6107 -0.0640
  853MOL0     O17579   5.589  10.961   9.625  0.7100 -0.1056  1.4086
  853MOL0     C17580   5.503  10.849   9.631 -0.3525  0.4688 -0.2323
  853MOL0     C17581   5.542  10.714   9.656  0.0516 -0.0773  0.0237
  853MOL0     C17582   5.448  10.614   9.670  0.7981 -1.0382  0.4094
  853MOL0     C17583   5.313  10.641   9.659  0.6029  0.0728 -0.2746
  853MOL0     O17584   5.218  10.542   9.677 -0.6056 -0.0318 -0.6163
  853MOL0     C17585   5.228  10.458   9.792 -0.1015  1.0993  0.7492
  853MOL0     C17586   5.219  10.541   9.924 -0.4319 -0.7314 -1.3868
  853MOL0     C17587   5.142  10.492  10.051 -0.5377  0.4608 -0.2062
  853MOL0     C17588   5.176  10.343  10.073 -0.4137  0.2269 -0.1710
  853MOL0     C17589   5.122  10.292  10.205 -0.5190  0.5911 -0.4598
  853MOL0     C17590   4.966  10.290  10.219  0.2086 -0.8653  0.7720
  853MOL0     C17591   4.928  10.220  10.353  0.1304  0.5742 -0.3929
  853MOL0     C17592   4.938  10.068  10.339 -0.3820 -0.3387  0.0588
  853MOL0     N17593   4.992  10.017  10.464  0.2611  0.2678  0.0020
  853MOL0     C17594   4.928   9.914  10.538 -0.0578  0.1675  0.0556
  853MOL0     C17595   5.024   9.881  10.625  0.4152  0.4969  0.7505
  853MOL0     C17596   5.014   9.762  10.713 -0.2854 -0.2124  0.0237
  853MOL0     C17597   5.127   9.763  10.817 -0.1853  0.4160  0.5086
  853MOL0     C17598   5.119   9.650  10.918  0.1354 -0.3942  0.3949
  853MOL0     C17599   5.254   9.639  10.994  1.8036  0.0321 -0.0837
  853MOL0     O17600   5.258   9.762  11.063  0.3895 -0.3834 -0.2654
  853MOL0     C17601   5.361   9.847  11.051 -0.7558  0.2119  0.4916
  853MOL0     C17602   5.495   9.804  11.037  0.4118  0.3849 -0.1701
  853MOL0     C17603   5.600   9.902  11.032  0.5513 -1.8500  0.3331
  853MOL0     C17604   5.744   9.856  11.025 -0.6841  0.6313 -0.1115
  853MOL0     C17605   5.566  10.042  11.026  0.3824 -0.6603  0.8403
  853MOL0     C17606   5.661  10.155  11.018  0.6180 -0.2483  0.1292
  853MOL0     O17607   5.627  10.280  11.062 -0.1310 -0.1797  0.2765
  853MOL0     C17608   5.715  10.378  11.034 -0.4646  0.3323  0.5130
  853MOL0     C17609   5.760  10.398  10.903  1.2259 -0.0081 -0.1818
  853MOL0     C17610   5.845  10.506  10.869 -0.5333 -0.1692  0.0800
  853MOL0     C17611   5.878  10.601  10.959  0.6271 -0.5508  0.2409
  853MOL0     O17612   5.969  10.705  10.930 -0.0489  0.4134 -0.2734
  853MOL0     C17613   6.006  10.739  10.793  0.6530 -0.9022 -0.5021
  853MOL0     C17614   6.105  10.857  10.792  0.4743  1.0279  0.0839
  853MOL0     C17615   6.185  10.854  10.657 -0.5762  0.5801 -0.6427
  853MOL0     C17616   6.254  10.991  10.629  0.4587  0.2835 -0.7350
  853MOL0     C17617   6.351  10.970  10.513  0.0046  0.2954  0.0446
  853MOL0     C17618   6.502  10.946  10.552  0.4198  0.3966  0.8209
  853MOL0     C17619   6.520  10.818  10.624 -1.1416  0.1092 -1.0728
  853MOL0     C17620   6.665  10.764  10.621  0.2802  0.0638  0.5685
  853MOL0    Cl17621   6.778  10.860  10.706 -0.1644 -0.0069  0.4266
  853MOL0     C17622   5.835  10.585  11.090  0.1906 -0.5174  0.8468
  853MOL0     C17623   5.757  10.477  11.125 -0.0072 -0.3384  0.7783
  853MOL0     O17624   5.763  10.122  10.961  0.2039 -0.5038  0.3824
  853MOL0     C17625   5.433  10.074  11.040 -0.0906 -0.8074 -0.9204
  853MOL0     C17626   5.334   9.979  11.063 -0.1948 -0.0520 -0.0656
  853MOL0     N17627   5.133   9.963  10.612  0.2511  0.7871 -0.1497
  853MOL0     N17628   5.114  10.043  10.509 -0.2803 -0.4362  0.4943
  853MOL0     C17629   5.271  10.772   9.632  0.0945  0.8703  0.1967
  853MOL0     C17630   5.367  10.871   9.623  0.2990 -0.4101  0.3738
  853MOL0     C17631   5.808  11.058   9.584 -0.4606 -0.1837  0.2761
  853MOL0     C17632   5.755  11.178   9.627  0.1698 -0.3832  0.0051
  853MOL0     C17633   5.833  11.289   9.640  0.1908  0.2825  0.3065
  853MOL0     C17634   5.970  11.293   9.618  0.1692  0.6979  0.4295
  853MOL0     O17635   6.029  11.413   9.626  0.0694  0.2158 -0.2524
  853MOL0     C17636   6.167  11.433   9.584  0.9374  0.8299  0.2197
  853MOL0     C17637   6.236  11.553   9.651  0.3903 -0.0308 -0.8954
  853MOL0     C17638   6.343  11.616   9.572 -0.9928  0.4490  0.8210
  853MOL0     C17639   6.403  11.742   9.643  0.4534  0.2852 -0.3482
  853MOL0     C17640   6.314  11.858   9.620  0.2704  0.4918  0.2791
  853MOL0     C17641   6.246  11.952   9.581 -0.1496 -0.5293 -0.8545
  853MOL0     C17642   6.019  11.181   9.559  0.4860 -0.1301 -0.6323
  853MOL0     C17643   5.948  11.063   9.557  0.4945  0.7625 -1.2415
  853MOL0     C17644   6.014  10.945   9.493 -0.7741  0.3852  0.0595
  853MOL0     H17645   5.646  10.684   9.667 -0.2452 -1.4683 -0.6991
  853MOL0     H17646   5.474  10.509   9.677  0.5163 -1.0781  0.9282
  853MOL0     H17647   5.307  10.383   9.801 -1.6871 -0.5427  1.6530
  853MOL0     H17648   5.141  10.392   9.797 -0.5625  1.7660  1.8580
  853MOL0     H17649   5.325  10.552   9.948 -0.6296 -1.8516  0.0738
  853MOL0     H17650   5.175  10.639   9.901  1.4736  0.8632  1.2406
  853MOL0     H17651   5.157  10.549  10.144 -1.3748 -2.3993  1.8055
  853MOL0     H17652   5.038  10.495  10.015 -0.2601  0.0148 -1.0704
  853MOL0     H17653   5.144  10.277   9.991 -1.2677 -0.1868  0.4790
  853MOL0     H17654   5.283  10.323  10.069 -0.5868 -0.8851  0.4640
  853MOL0     H17655   5.176  10.333  10.291  0.1910 -0.1471 -0.5350
  853MOL0     H17656   5.157  10.188  10.210  1.7952  1.0690 -3.5365
  853MOL0     H17657   4.938  10.395  10.237  3.5271  0.3296 -0.1556
  853MOL0     H17658   4.915  10.233  10.141 -0.5894 -0.3708  0.9258
  853MOL0     H17659   4.823  10.246  10.364  0.3455  2.1029 -1.5757
  853MOL0     H17660   4.979  10.266  10.438  1.7481 -0.1735 -0.9101
  853MOL0     H17661   4.836  10.029  10.339 -0.3342 -0.9029  4.0541
  853MOL0     H17662   4.994  10.028  10.254 -3.0342 -3.3125 -0.4575
  853MOL0     H17663   4.832   9.864  10.532  1.6331 -3.3046 -0.5257
  853MOL0     H17664   5.008   9.671  10.653  0.3872 -0.2342 -0.0114
  853MOL0     H17665   4.918   9.771  10.765  0.4929 -1.4020  1.7665
  853MOL0     H17666   5.217   9.747  10.757  0.7876 -3.0783  2.6210
  853MOL0     H17667   5.138   9.854  10.877  2.4112  0.8210 -0.4519
  853MOL0     H17668   5.035   9.658  10.988  0.4905  3.3924  0.6013
  853MOL0     H17669   5.117   9.561  10.854 -1.0186  0.7241 -1.2104
  853MOL0     H17670   5.266   9.553  11.061  2.6717 -0.7136 -1.1632
  853MOL0     H17671   5.333   9.638  10.919 -0.0726  1.8561 -2.2201
  853MOL0     H17672   5.513   9.697  11.049  1.8252  0.8107  2.0442
  853MOL0     H17673   5.758   9.748  11.009  1.5125  0.7699  0.5175
  853MOL0     H17674   5.794   9.881  11.119  1.0811  1.6421 -1.2714
  853MOL0     H17675   5.812   9.908  10.957  0.7566  0.2201  0.9471
  853MOL0     H17676   5.745  10.317  10.832  1.6695 -2.0278  1.8859
  853MOL0     H17677   5.897  10.509  10.774  0.4718 -0.7420  0.5911
  853MOL0     H17678   6.052  10.660  10.733  1.6979 -1.4119  0.9306
  853MOL0     H17679   5.914  10.773  10.745  0.1747  1.5291  1.9170
  853MOL0     H17680   6.042  10.947  10.799 -0.8225  0.5379 -3.4637
  853MOL0     H17681   6.180  10.851  10.872  1.0089 -0.8759 -0.5129
  853MOL0     H17682   6.116  10.822  10.578  1.5182 -3.3794 -1.1252
  853MOL0     H17683   6.259  10.773  10.659 -0.7370  0.4025  1.8859
  853MOL0     H17684   6.305  11.033  10.716 -0.1203  1.4057 -0.9190
  853MOL0     H17685   6.178  11.065  10.603  1.3016  1.8929  1.1920
  853MOL0     H17686   6.311  10.886  10.457  1.2884  0.3696 -1.0379
  853MOL0     H17687   6.354  11.057  10.447  2.5650  2.0859  2.2963
  853MOL0     H17688   6.528  11.028  10.620 -0.5831  0.8262  0.7049
  853MOL0     H17689   6.562  10.946  10.461  1.8656 -0.6331  1.7109
  853MOL0     H17690   6.448  10.749  10.578 -1.4965  0.6340 -1.3128
  853MOL0     H17691   6.495  10.840  10.728  3.1976  2.8192 -0.3853
  853MOL0     H17692   6.693  10.771  10.516 -3.0739 -0.2098 -0.4392
  853MOL0     H17693   6.658  10.659  10.648  2.8074 -0.2211  0.4076
  853MOL0     H17694   5.867  10.647  11.173  0.4751  0.9126 -0.2914
  853MOL0     H17695   5.717  10.465  11.225 -0.7871 -0.1457  0.5044
  853MOL0     H17696   5.390  10.173  11.026 -3.3555 -2.0591 -0.6786
  853MOL0     H17697   5.230  10.012  11.069 -0.0158  0.3157  1.3174
  853MOL0     H17698   5.163  10.782   9.624  0.1338 -0.0593 -2.6131
  853MOL0     H17699   5.345  10.976   9.608  4.5439  0.5747 -0.3996
  853MOL0     H17700   5.656  11.184   9.670 -0.4556  1.1930 -1.5184
  853MOL0     H17701   5.788  11.371   9.696 -0.0167 -0.6513  1.5423
  853MOL0     H17702   6.226  11.346   9.615  2.0695  1.2728 -0.6052
  853MOL0     H17703   6.159  11.441   9.475  2.7647 -0.7498 -0.0904
  853MOL0     H17704   6.270  11.517   9.748 -0.5670  1.7327  0.1387
  853MOL0     H17705   6.158  11.626   9.673  1.3275 -0.0920  3.2931
  853MOL0     H17706   6.427  11.547   9.556 -1.5263 -0.4290  1.7020
  853MOL0     H17707   6.302  11.634   9.473 -1.1332 -2.8532  0.1619
  853MOL0     H17708   6.499  11.753   9.592  0.4568 -1.7008 -0.8301
  853MOL0     H17709   6.420  11.732   9.751  1.0991  0.8805 -0.3878
  853MOL0     H17710   6.184  12.024   9.531 -0.1340  2.5545  3.0362
  853MOL0     H17711   6.119  11.192   9.520  0.6264 -0.2151 -0.2960
  853MOL0     H17712   6.049  10.873   9.568  0.5391  2.6320  1.7252
  853MOL0     H17713   5.953  10.899   9.415 -1.1680  0.6063  0.2316
  853MOL0     H17714   6.108  10.973   9.444  2.1011 -4.4148  2.0969
  854MOL0     O17715  10.678   1.547   2.033  0.1151  0.6784  0.4714
  854MOL0     C17716  10.755   1.466   1.986 -0.8611 -0.3044  0.1236
  854MOL0     O17717  10.745   1.337   2.000 -0.2257  0.1595  0.5191
  854MOL0     C17718  10.723   1.272   2.119 -0.5381  0.4233 -0.7691
  854MOL0     C17719  10.760   1.132   2.138 -0.7525  0.5339 -1.3117
  854MOL0     C17720  10.734   1.069   2.262 -0.4848 -0.8946 -0.3440
  854MOL0     C17721  10.672   1.131   2.367 -0.1300  0.2413 -0.9110
  854MOL0     O17722  10.643   1.058   2.479  0.3738 -0.8123  1.5317
  854MOL0     C17723  10.539   1.107   2.561  0.0804 -0.5728 -1.3245
  854MOL0     C17724  10.500   0.989   2.657  0.0816  0.3340  1.1349
  854MOL0     C17725  10.474   0.869   2.572 -0.4525  0.2346 -0.0587
  854MOL0     C17726  10.590   0.766   2.554 -0.7359 -0.6862 -0.8213
  854MOL0     C17727  10.565   0.662   2.441 -0.2961  0.7057  0.4625
  854MOL0     C17728  10.688   0.575   2.413 -0.3954 -0.3249 -0.5933
  854MOL0     C17729  10.754   0.512   2.533  0.4223  0.1790  0.9954
  854MOL0     C17730  10.882   0.434   2.504  0.4845  0.1261  1.0752
  854MOL0     N17731  10.878   0.346   2.385  0.1266  0.4870 -0.1487
  854MOL0     C17732  10.793   0.243   2.369 -0.3128 -0.1407 -0.7042
  854MOL0     C17733  10.837   0.170   2.263 -0.5050 -0.7513 -0.1584
  854MOL0     C17734  10.786   0.032   2.218 -0.7514  0.0216 -0.1371
  854MOL0     C17735  10.861  -0.074   2.291 -0.6169 -0.2833 -0.2998
  854MOL0     C17736  11.016  -0.062   2.295  1.5353 -0.5024 -0.1744
  854MOL0     C17737  11.082  -0.075   2.166 -0.2372 -0.6374  0.0254
  854MOL0     O17738  11.216  -0.116   2.206  0.3206  0.1367  0.3255
  854MOL0     C17739  11.301  -0.122   2.099  0.6911  0.7002  0.0857
  854MOL0     C17740  11.269  -0.194   1.984  0.0496  0.1487 -0.4288
  854MOL0     C17741  11.359  -0.203   1.879 -0.7263  0.0815  0.7952
  854MOL0     C17742  11.327  -0.286   1.763  0.8626  0.3265  0.4862
  854MOL0     C17743  11.473  -0.115   1.879 -0.5457  0.8683 -0.0312
  854MOL0     C17744  11.580  -0.095   1.768  0.7304  0.3485  0.2418
  854MOL0     O17745  11.651   0.019   1.764 -0.2241 -0.0474  0.5078
  854MOL0     C17746  11.777   0.031   1.706 -1.1277 -0.9972  0.5443
  854MOL0     C17747  11.842  -0.056   1.618 -0.2759 -0.1730  0.6695
  854MOL0     C17748  11.978  -0.035   1.574  0.2459  0.1879  0.3307
  854MOL0     C17749  12.050   0.080   1.604  0.0425 -0.5847  1.0168
  854MOL0     O17750  12.173   0.085   1.543 -0.1857 -0.0438 -0.1896
  854MOL0     C17751  12.279   0.171   1.582 -0.6047  0.8578 -0.9198
  854MOL0     C17752  12.412   0.096   1.563 -0.3250  0.0162  0.2360
  854MOL0     C17753  12.407  -0.043   1.642  0.2380 -0.3481 -0.5007
  854MOL0     C17754  12.422  -0.041   1.793 -0.1141  0.4483  0.2859
  854MOL0     C17755  12.300  -0.102   1.860  0.6437 -0.4312  0.2465
  854MOL0     C17756  12.274  -0.247   1.827  0.9124  0.2106  0.4561
  854MOL0     C17757  12.162  -0.297   1.920  0.4530 -0.7294  0.1270
  854MOL0     C17758  12.205  -0.315   2.060 -0.4213  0.4170 -0.7098
  854MOL0    Cl17759  12.313  -0.462   2.102  0.2185 -0.2530  0.7338
  854MOL0     C17760  11.983   0.167   1.693  0.0030 -0.0894  0.6991
  854MOL0     C17761  11.858   0.138   1.749  0.9549  0.4039 -0.4816
  854MOL0     O17762  11.585  -0.189   1.688  0.1463  0.3531 -0.8006
  854MOL0     C17763  11.498  -0.044   1.994  0.5761  0.3861  0.3057
  854MOL0     C17764  11.413  -0.053   2.100 -0.1545 -0.4033 -0.7087
  854MOL0     N17765  10.937   0.244   2.203  0.0550  0.5163  1.4194
  854MOL0     N17766  10.960   0.351   2.276  0.0286  0.0941 -0.7549
  854MOL0     C17767  10.637   1.259   2.348 -0.2007 -0.6035  0.7048
  854MOL0     C17768  10.663   1.328   2.233  0.6195 -0.6236  0.3721
  854MOL0     C17769  10.867   1.529   1.911  0.2361  1.0829  0.2355
  854MOL0     C17770  10.888   1.670   1.911  0.5676 -0.1644 -0.4886
  854MOL0     C17771  10.970   1.738   1.822  0.5142  0.2360  0.4409
  854MOL0     C17772  11.045   1.667   1.733 -0.3929 -0.5183 -0.8873
  854MOL0     O17773  11.119   1.745   1.649 -0.4955  0.2672  0.0405
  854MOL0     C17774  11.194   1.681   1.548 -0.7135  0.1474 -0.3072
  854MOL0     C17775  11.277   1.791   1.472  0.2469  0.7462  0.4421
  854MOL0     C17776  11.190   1.892   1.392 -0.2468  0.9001 -0.1785
  854MOL0     C17777  11.255   2.028   1.380 -0.1187 -0.2350  0.1128
  854MOL0     C17778  11.372   2.012   1.284  0.7208 -1.4270  0.7736
  854MOL0     C17779  11.443   1.997   1.192  0.3384  0.5095 -0.8757
  854MOL0     C17780  11.047   1.524   1.746 -0.9850 -0.9113 -0.3778
  854MOL0     C17781  10.971   1.460   1.840  0.3998  0.5440  0.7068
  854MOL0     C17782  10.975   1.309   1.832 -0.9079  0.2536  0.0861
  854MOL0     H17783  10.822   1.088   2.061  1.0972 -0.1700  0.4982
  854MOL0     H17784  10.755   0.966   2.290 -0.7574 -0.2381  2.6014
  854MOL0     H17785  10.468   1.121   2.479  2.4296  0.9811 -3.2383
  854MOL0     H17786  10.579   1.196   2.610  4.8078 -0.5136 -4.5676
  854MOL0     H17787  10.574   0.978   2.736  2.0728 -1.8383 -0.8590
  854MOL0     H17788  10.405   1.013   2.705  0.5495  3.3319  0.7629
  854MOL0     H17789  10.396   0.810   2.622  2.3583 -1.0589  3.1989
  854MOL0     H17790  10.451   0.897   2.468 -0.7659 -0.0410 -0.0658
  854MOL0     H17791  10.686   0.808   2.521  0.2306 -2.6806 -0.7407
  854MOL0     H17792  10.609   0.718   2.651 -1.0275 -0.6149 -0.7277
  854MOL0     H17793  10.543   0.721   2.351 -1.8974 -3.1127 -1.9060
  854MOL0     H17794  10.469   0.611   2.453 -0.4530  0.2838 -2.1062
  854MOL0     H17795  10.654   0.501   2.340 -2.7873 -0.1483  0.2458
  854MOL0     H17796  10.765   0.625   2.354 -1.2001  1.1446 -0.4292
  854MOL0     H17797  10.688   0.441   2.582 -2.8722  2.4776  0.2188
  854MOL0     H17798  10.783   0.570   2.621 -0.4135 -0.7177  1.8874
  854MOL0     H17799  10.972   0.492   2.478  2.7860 -3.5807 -0.1137
  854MOL0     H17800  10.901   0.376   2.595  0.9568  2.1268  2.3017
  854MOL0     H17801  10.710   0.214   2.432  2.1658 -4.8072  0.8728
  854MOL0     H17802  10.801   0.024   2.110 -0.2884  2.3827 -0.3136
  854MOL0     H17803  10.679   0.021   2.235 -1.5951  1.0703 -3.8155
  854MOL0     H17804  10.831  -0.075   2.396 -0.7986  0.5419 -0.3334
  854MOL0     H17805  10.813  -0.162   2.247 -1.6529  0.8934 -1.6416
  854MOL0     H17806  11.036   0.028   2.354 -3.3441  0.9823 -0.3442
  854MOL0     H17807  11.039  -0.152   2.353 -0.8892 -0.7231  0.5380
  854MOL0     H17808  11.027  -0.150   2.109 -0.8329 -2.7078  3.0761
  854MOL0     H17809  11.090   0.014   2.104 -1.5784 -1.1195 -0.8721
  854MOL0     H17810  11.169  -0.237   1.977 -1.2281  2.8918 -0.6593
  854MOL0     H17811  11.233  -0.339   1.785  1.3913  0.1034  2.4066
  854MOL0     H17812  11.404  -0.363   1.773  1.2490  0.9179  2.5026
  854MOL0     H17813  11.326  -0.246   1.661  1.7805 -1.5448 -0.3021
  854MOL0     H17814  11.795  -0.150   1.591 -0.8706 -0.4059  2.3636
  854MOL0     H17815  12.032  -0.108   1.515 -0.4990 -2.1772  2.4012
  854MOL0     H17816  12.265   0.257   1.516 -1.1246  2.1723  0.8217
  854MOL0     H17817  12.273   0.203   1.686  1.3623 -0.2585 -0.4081
  854MOL0     H17818  12.428   0.083   1.456  1.0580 -1.6888  0.6031
  854MOL0     H17819  12.498   0.153   1.599 -0.7285 -0.8072  2.7292
  854MOL0     H17820  12.483  -0.110   1.602 -2.1696 -2.4732 -1.8310
  854MOL0     H17821  12.310  -0.084   1.610  0.6544 -1.2309 -0.6512
  854MOL0     H17822  12.448   0.058   1.833  0.0227 -0.0328  1.4249
  854MOL0     H17823  12.494  -0.123   1.804 -3.7770 -3.1053  0.1834
  854MOL0     H17824  12.321  -0.095   1.967  2.0747 -1.9373  0.0985
  854MOL0     H17825  12.217  -0.038   1.830  1.4775  1.4062  1.6148
  854MOL0     H17826  12.366  -0.306   1.839 -0.9684 -2.4694  3.1580
  854MOL0     H17827  12.236  -0.252   1.724 -1.4255  1.2107  1.2032
  854MOL0     H17828  12.127  -0.394   1.885 -3.3729 -0.9620  3.8107
  854MOL0     H17829  12.072  -0.235   1.918  2.8393  3.5801  4.5216
  854MOL0     H17830  12.115  -0.337   2.118 -1.2844 -1.7971 -2.7168
  854MOL0     H17831  12.256  -0.232   2.111 -2.3169  2.8817 -2.5716
  854MOL0     H17832  12.044   0.249   1.728 -1.5441  1.7035 -0.6140
  854MOL0     H17833  11.808   0.190   1.831 -1.3637 -1.0847 -0.8398
  854MOL0     H17834  11.587   0.017   2.005  1.6936 -1.2507  0.5437
  854MOL0     H17835  11.440   0.011   2.183 -1.2493  0.6252 -1.1124
  854MOL0     H17836  10.582   1.326   2.413 -1.3567 -1.2530  0.4342
  854MOL0     H17837  10.617   1.426   2.231  2.6894  0.3974 -0.0739
  854MOL0     H17838  10.815   1.737   1.956 -0.1202  0.3678 -2.2851
  854MOL0     H17839  10.956   1.845   1.812  1.9490  0.7548  3.0130
  854MOL0     H17840  11.258   1.603   1.591  1.8370  2.3234  0.1346
  854MOL0     H17841  11.120   1.629   1.486  0.9160 -1.5115 -0.9553
  854MOL0     H17842  11.346   1.736   1.407 -0.2099  0.4372  0.2110
  854MOL0     H17843  11.340   1.847   1.542  1.8061  0.1115 -0.4020
  854MOL0     H17844  11.158   1.853   1.295  3.1724  0.1718 -1.1411
  854MOL0     H17845  11.094   1.911   1.442 -2.2543 -3.7919 -1.6010
  854MOL0     H17846  11.297   2.055   1.477  0.9049  1.5314 -0.7541
  854MOL0     H17847  11.198   2.115   1.346 -2.5970 -1.7101  0.2850
  854MOL0     H17848  11.503   1.977   1.106  0.7646 -0.0767 -0.4432
  854MOL0     H17849  11.117   1.470   1.682  2.7511  1.1175  1.6744
  854MOL0     H17850  10.966   1.259   1.929  1.1681  0.0801  0.2287
  854MOL0     H17851  10.893   1.295   1.761 -0.3550 -1.8414 -0.2064
  854MOL0     H17852  11.068   1.282   1.782  0.1379  5.1317 -1.1089
  855MOL0     O17853   0.263   9.603   3.405  0.1658  0.2154  0.3167
  855MOL0     C17854   0.303   9.708   3.457 -0.1060 -0.3425  0.7952
  855MOL0     O17855   0.402   9.797   3.417  0.2690 -0.0329  0.4621
  855MOL0     C17856   0.465   9.768   3.295  0.6854  0.2578  0.0236
  855MOL0     C17857   0.607   9.792   3.294  0.3953  0.3343  0.0240
  855MOL0     C17858   0.678   9.761   3.176 -0.5101  0.6394  0.1971
  855MOL0     C17859   0.609   9.730   3.056 -0.1812  0.1397  0.6770
  855MOL0     O17860   0.664   9.726   2.931  0.1967  0.6454 -0.3682
  855MOL0     C17861   0.795   9.789   2.921 -0.6227  0.5144  0.5444
  855MOL0     C17862   0.844   9.749   2.783 -0.0350  0.3038  0.0992
  855MOL0     C17863   0.777   9.827   2.666  0.2507  0.1356  0.5486
  855MOL0     C17864   0.635   9.785   2.639 -1.3907  0.0951 -0.5297
  855MOL0     C17865   0.581   9.851   2.504 -0.7275  1.0117 -0.0272
  855MOL0     C17866   0.611   9.773   2.371  0.5080  0.3810 -0.4720
  855MOL0     C17867   0.589   9.624   2.381 -0.6750  0.2587  0.3522
  855MOL0     C17868   0.625   9.543   2.256 -0.5552  0.6628 -0.0518
  855MOL0     N17869   0.513   9.536   2.158  0.6817  0.1758 -0.5496
  855MOL0     C17870   0.521   9.469   2.036  0.1633  0.0221  0.1109
  855MOL0     C17871   0.406   9.473   1.983  0.3791  0.3731  0.4562
  855MOL0     C17872   0.371   9.429   1.842 -0.4556  0.4604 -0.2004
  855MOL0     C17873   0.431   9.509   1.729 -0.5525  0.2018 -0.8346
  855MOL0     C17874   0.338   9.489   1.606 -0.0196 -0.5077  1.1016
  855MOL0     C17875   0.397   9.543   1.479 -0.9571 -0.1735  0.0131
  855MOL0     O17876   0.418   9.681   1.494 -0.4835  0.6199 -0.2724
  855MOL0     C17877   0.409   9.778   1.398 -0.2277  0.5506 -0.1137
  855MOL0     C17878   0.436   9.908   1.446  0.1639  0.3091  0.5057
  855MOL0     C17879   0.470  10.016   1.367  0.5550 -0.0092  0.0113
  855MOL0     C17880   0.505  10.135   1.450 -0.2900 -0.1277  0.6425
  855MOL0     C17881   0.454  10.009   1.225  0.6123  0.0725  1.0927
  855MOL0     C17882   0.462  10.124   1.131 -0.1154  0.0666  0.2299
  855MOL0     O17883   0.383  10.113   1.019  0.2278 -0.0321  0.0846
  855MOL0     C17884   0.419  10.175   0.906 -0.0211 -0.7066  0.2230
  855MOL0     C17885   0.321  10.199   0.813 -0.0273  0.4915  0.1957
  855MOL0     C17886   0.350  10.272   0.691 -0.6154 -0.5977 -0.3620
  855MOL0     C17887   0.486  10.294   0.660  0.0318 -0.2657 -0.9356
  855MOL0     O17888   0.518  10.337   0.541 -0.3385 -0.2864  0.3156
  855MOL0     C17889   0.584  10.235   0.458 -0.0878 -0.6955  0.3877
  855MOL0     C17890   0.556  10.258   0.302  0.3755  0.3597 -0.0115
  855MOL0     C17891   0.402  10.255   0.290 -0.5137  0.6523 -0.3603
  855MOL0     C17892   0.382  10.293   0.145  0.2868 -1.0794  0.6630
  855MOL0     C17893   0.226  10.275   0.099  0.6226 -0.3059  0.8013
  855MOL0     C17894   0.216  10.286  -0.049 -0.8338 -0.0326 -0.4094
  855MOL0     C17895   0.082  10.260  -0.098  0.1515  0.0396 -0.1439
  855MOL0     C17896   0.076  10.207  -0.244 -0.1075  0.0390  0.1147
  855MOL0    Cl17897  -0.098  10.207  -0.301  0.2579 -0.0720  0.1172
  855MOL0     C17898   0.582  10.258   0.750 -0.2817 -0.1694  0.0968
  855MOL0     C17899   0.555  10.210   0.881  0.7160  0.1431  0.0651
  855MOL0     O17900   0.522  10.225   1.160 -0.1544 -0.2071 -0.3776
  855MOL0     C17901   0.411   9.884   1.170 -0.4302  0.3099  0.1245
  855MOL0     C17902   0.397   9.768   1.258 -0.4657  0.4333 -0.2051
  855MOL0     N17903   0.322   9.546   2.066  0.2500 -0.0169  0.0179
  855MOL0     N17904   0.386   9.585   2.175  0.4973 -0.2176  0.2185
  855MOL0     C17905   0.474   9.714   3.063 -0.1538 -0.7017  0.3336
  855MOL0     C17906   0.404   9.745   3.179 -0.2957  0.0596  0.3356
  855MOL0     C17907   0.240   9.745   3.587 -0.0940 -0.9600  0.0013
  855MOL0     C17908   0.299   9.845   3.673  0.3260 -1.0471 -0.2706
  855MOL0     C17909   0.241   9.886   3.791 -0.1771  0.2417  0.6044
  855MOL0     C17910   0.126   9.827   3.841 -0.2173  0.0291 -0.0013
  855MOL0     O17911   0.064   9.855   3.956 -0.2162 -0.3385  0.2363
  855MOL0     C17912   0.155   9.902   4.058  0.2528  0.5588  0.4387
  855MOL0     C17913   0.081   9.916   4.190 -0.4149 -1.2012 -0.2640
  855MOL0     C17914   0.065   9.789   4.268 -0.4249 -0.3096  0.5304
  855MOL0     C17915  -0.052   9.701   4.221 -0.0143 -0.3832 -0.6997
  855MOL0     C17916  -0.181   9.774   4.236 -0.5305  0.3665  0.2125
  855MOL0     C17917  -0.267   9.858   4.249  0.8175  0.4588 -0.1412
  855MOL0     C17918   0.057   9.730   3.753 -0.7101  0.5832  0.2247
  855MOL0     C17919   0.123   9.682   3.639  0.4119 -0.1478 -0.0098
  855MOL0     C17920   0.031   9.585   3.554 -0.4456 -0.4776  0.3955
  855MOL0     H17921   0.643   9.823   3.392 -3.0133 -1.4092  2.0123
  855MOL0     H17922   0.784   9.788   3.175 -0.4999  0.6160  0.6620
  855MOL0     H17923   0.873   9.744   2.983 -0.9871 -0.4242  0.3235
  855MOL0     H17924   0.793   9.895   2.948 -2.9257  0.9930 -1.2259
  855MOL0     H17925   0.946   9.786   2.778  0.8940 -2.1154 -0.2230
  855MOL0     H17926   0.844   9.641   2.763  0.6827  0.6001 -1.6515
  855MOL0     H17927   0.770   9.928   2.705 -0.2291 -0.5454  2.2984
  855MOL0     H17928   0.843   9.810   2.580  0.7001 -2.2128  1.2813
  855MOL0     H17929   0.621   9.676   2.637  4.1401 -0.9752  1.6423
  855MOL0     H17930   0.581   9.817   2.729  1.7870  1.2656  1.1322
  855MOL0     H17931   0.612   9.955   2.489 -1.1433  1.2606  0.8041
  855MOL0     H17932   0.471   9.857   2.508 -0.8341 -1.0157  1.6795
  855MOL0     H17933   0.550   9.818   2.293 -4.0857 -2.1385  1.3044
  855MOL0     H17934   0.717   9.792   2.354 -0.4015  2.3766 -5.4191
  855MOL0     H17935   0.483   9.612   2.404 -0.3942 -0.5158  1.2862
  855MOL0     H17936   0.643   9.579   2.465  1.4686  1.1299 -0.4662
  855MOL0     H17937   0.714   9.581   2.205  2.0006 -1.4000  2.5305
  855MOL0     H17938   0.638   9.438   2.283  1.6525  0.0188 -3.1172
  855MOL0     H17939   0.614   9.417   2.018 -0.3114 -0.1558 -2.1128
  855MOL0     H17940   0.261   9.424   1.844 -0.5244  1.7457 -0.0137
  855MOL0     H17941   0.403   9.325   1.834  0.4933  0.9023 -3.0861
  855MOL0     H17942   0.433   9.610   1.771 -2.3989 -0.5901  1.4064
  855MOL0     H17943   0.535   9.486   1.706  0.6657  1.2985  2.8447
  855MOL0     H17944   0.311   9.385   1.587 -1.1094 -0.1842  0.7917
  855MOL0     H17945   0.248   9.550   1.618 -2.4236 -2.5396 -3.7867
  855MOL0     H17946   0.486   9.489   1.444  1.0346  2.2441  1.0277
  855MOL0     H17947   0.332   9.517   1.395  0.3159 -0.5133 -0.8993
  855MOL0     H17948   0.444   9.926   1.553  0.8340  1.7725  0.2291
  855MOL0     H17949   0.554  10.097   1.541  2.3753 -2.8634 -1.6882
  855MOL0     H17950   0.433  10.215   1.467  1.0220  0.8079  2.1582
  855MOL0     H17951   0.589  10.178   1.395 -0.6801 -4.7888 -4.4091
  855MOL0     H17952   0.221  10.160   0.833  0.6955  0.6573  5.5776
  855MOL0     H17953   0.287  10.277   0.603 -1.2806  2.6750  0.1735
  855MOL0     H17954   0.693  10.231   0.468  0.1760  0.4209 -1.5983
  855MOL0     H17955   0.560  10.134   0.493  1.1714 -0.5122  1.9039
  855MOL0     H17956   0.585  10.360   0.278  0.0437  0.0639 -1.8298
  855MOL0     H17957   0.616  10.186   0.246  0.0522  0.0937 -0.0195
  855MOL0     H17958   0.360  10.324   0.364  2.8530 -0.2233  2.6635
  855MOL0     H17959   0.340  10.166   0.305 -2.8533  2.2519  0.0286
  855MOL0     H17960   0.445  10.224   0.088  1.2910  0.8032 -0.5731
  855MOL0     H17961   0.413  10.397   0.133  0.1032 -1.1391 -0.5213
  855MOL0     H17962   0.190  10.174   0.119  1.7329 -1.1507 -1.1870
  855MOL0     H17963   0.161  10.350   0.147 -1.4658 -1.4951 -0.0201
  855MOL0     H17964   0.287  10.220  -0.099  0.2805  0.7133  0.1508
  855MOL0     H17965   0.248  10.387  -0.077  1.0229 -0.3125  0.5250
  855MOL0     H17966   0.015  10.347  -0.098  1.4708  1.1025 -0.5286
  855MOL0     H17967   0.037  10.182  -0.037 -0.1974  0.9535  0.7898
  855MOL0     H17968   0.112  10.105  -0.260 -0.0216  0.5211 -3.6782
  855MOL0     H17969   0.120  10.271  -0.320 -1.3811 -2.0211 -2.5297
  855MOL0     H17970   0.688  10.262   0.729 -0.1455 -1.7766  0.3476
  855MOL0     H17971   0.637  10.185   0.947 -0.0532 -1.9732  0.2774
  855MOL0     H17972   0.397   9.865   1.064 -3.3151 -0.3552  0.5360
  855MOL0     H17973   0.371   9.673   1.213  1.5829 -0.0160 -0.5381
  855MOL0     H17974   0.422   9.695   2.970  1.2206 -0.2130 -0.5499
  855MOL0     H17975   0.297   9.761   3.171  0.1321  2.7345 -1.4779
  855MOL0     H17976   0.394   9.891   3.645  0.3017 -0.2104  0.9303
  855MOL0     H17977   0.292   9.962   3.849  1.5149 -0.9946  0.8211
  855MOL0     H17978   0.235   9.829   4.072 -0.9930 -0.6317  1.6583
  855MOL0     H17979   0.186  10.002   4.027  2.0061  0.8232  2.8016
  855MOL0     H17980  -0.017   9.963   4.177 -1.9710 -3.7230  1.4655
  855MOL0     H17981   0.143   9.978   4.256  0.0333 -0.7288 -1.1055
  855MOL0     H17982   0.152   9.724   4.259  2.4292  3.2554 -0.4034
  855MOL0     H17983   0.044   9.807   4.374 -1.4862 -0.8429  0.4171
  855MOL0     H17984  -0.056   9.615   4.288  0.5210 -0.4495 -0.7503
  855MOL0     H17985  -0.036   9.652   4.125 -1.6538 -1.9110 -0.2402
  855MOL0     H17986  -0.334   9.942   4.247  1.7085  1.2621  1.4293
  855MOL0     H17987  -0.035   9.683   3.789 -0.1770 -0.8248 -0.2006
  855MOL0     H17988   0.072   9.484   3.550  0.9509  0.0809 -0.2319
  855MOL0     H17989  -0.069   9.566   3.594  0.2995 -5.2747  0.5588
  855MOL0     H17990   0.021   9.615   3.449 -0.9270 -0.0068  0.5710
  856MOL0     O17991   9.019   3.320   1.801 -0.1107 -0.1102 -0.3522
  856MOL0     C17992   9.038   3.387   1.698 -0.1247 -0.1097 -0.9911
  856MOL0     O17993   9.164   3.459   1.673  0.8978 -0.7424  0.4724
  856MOL0     C17994   9.258   3.453   1.774  0.0656  0.3924 -1.0889
  856MOL0     C17995   9.374   3.374   1.754  0.2860 -0.2569  0.0784
  856MOL0     C17996   9.478   3.379   1.851  0.5560 -0.8770  0.2961
  856MOL0     C17997   9.482   3.466   1.955 -0.0017  0.3209 -0.0845
  856MOL0     O17998   9.591   3.486   2.027 -1.2550 -0.5069 -0.3155
  856MOL0     C17999   9.675   3.382   2.054 -1.0294 -0.0370  1.1828
  856MOL0     C18000   9.790   3.463   2.118 -0.5080  0.1902  0.5276
  856MOL0     C18001   9.929   3.397   2.124  0.1540 -0.4374 -0.7281
  856MOL0     C18002  10.023   3.497   2.201  0.7847  0.6876  0.7239
  856MOL0     C18003  10.156   3.427   2.220  0.4231  0.7119 -0.2818
  856MOL0     C18004  10.239   3.392   2.100 -0.1077  0.0167  0.3605
  856MOL0     C18005  10.290   3.511   2.010 -1.0376  0.6932  0.1395
  856MOL0     C18006  10.390   3.471   1.906 -0.5242  0.2893 -0.4557
  856MOL0     N18007  10.512   3.399   1.940  0.5515  0.5900 -0.5007
  856MOL0     C18008  10.588   3.440   2.048 -0.8784 -0.3770  0.1265
  856MOL0     C18009  10.670   3.339   2.071 -0.4657 -0.5518  0.2269
  856MOL0     C18010  10.775   3.333   2.184  0.4527  0.1388 -0.2806
  856MOL0     C18011  10.814   3.192   2.229 -0.3516  0.4091 -0.0011
  856MOL0     C18012  10.721   3.150   2.359 -0.0465 -0.0027  0.6275
  856MOL0     C18013  10.780   3.031   2.433  0.5796  0.1001 -0.1639
  856MOL0     O18014  10.898   3.056   2.516  0.8964 -0.7773  0.2264
  856MOL0     C18015  10.902   3.163   2.601  0.8983  0.2185 -0.1656
  856MOL0     C18016  10.803   3.209   2.678  1.2277  0.1222 -0.7997
  856MOL0     C18017  10.822   3.292   2.786  0.8061 -0.8834 -0.0906
  856MOL0     C18018  10.695   3.353   2.839  0.3750 -0.0245 -0.5745
  856MOL0     C18019  10.949   3.319   2.834 -0.0774  0.4262 -1.0839
  856MOL0     C18020  10.981   3.393   2.964  0.8146  0.3501  0.9135
  856MOL0     O18021  11.105   3.441   2.981  0.2188  0.4780  0.8548
  856MOL0     C18022  11.128   3.489   3.104  0.1473 -0.1622 -0.5437
  856MOL0     C18023  11.106   3.624   3.127 -0.3899  0.4517  0.4541
  856MOL0     C18024  11.124   3.676   3.253 -0.0525 -0.5210  0.3025
  856MOL0     C18025  11.173   3.604   3.364  0.0288 -0.4636 -0.7201
  856MOL0     O18026  11.170   3.658   3.491  0.2313  0.5098 -1.2795
  856MOL0     C18027  11.288   3.630   3.572 -0.0837 -0.0014 -0.0628
  856MOL0     C18028  11.347   3.770   3.613  0.3999 -0.4402 -0.4752
  856MOL0     C18029  11.427   3.750   3.743  0.7953 -0.0213  0.5285
  856MOL0     C18030  11.448   3.884   3.825  0.7928  0.4971  1.1517
  856MOL0     C18031  11.530   3.861   3.946 -0.8232  0.9456  0.6177
  856MOL0     C18032  11.446   3.798   4.058  0.6937  0.0303  0.4734
  856MOL0     C18033  11.526   3.751   4.176  0.5218 -0.0936 -0.6282
  856MOL0     C18034  11.582   3.604   4.147  0.2415  0.6604  0.1246
  856MOL0    Cl18035  11.636   3.543   4.309  0.1882  0.2440  0.0500
  856MOL0     C18036  11.184   3.469   3.347  0.3193 -0.2508 -0.6863
  856MOL0     C18037  11.162   3.411   3.221  0.8788  1.0052  0.4945
  856MOL0     O18038  10.893   3.396   3.045  0.0928  0.3951 -0.6556
  856MOL0     C18039  11.050   3.282   2.748 -0.7451  0.1337 -0.1528
  856MOL0     C18040  11.030   3.204   2.633  1.2998 -0.1763 -0.0727
  856MOL0     N18041  10.639   3.230   1.992  0.8531 -0.8140  0.2298
  856MOL0     N18042  10.540   3.271   1.914 -0.1923  0.6640  0.0975
  856MOL0     C18043   9.368   3.550   1.977  1.5018  1.0638 -0.1254
  856MOL0     C18044   9.259   3.547   1.885  0.0352  0.6473 -0.8580
  856MOL0     C18045   8.936   3.377   1.593 -0.7274 -0.3809 -0.1491
  856MOL0     C18046   8.853   3.266   1.591 -0.7231 -0.4569 -0.8500
  856MOL0     C18047   8.752   3.254   1.498  0.1885  0.1141  0.0447
  856MOL0     C18048   8.728   3.362   1.420 -0.4637  0.7891 -0.7112
  856MOL0     O18049   8.630   3.358   1.321  0.7264  0.0236  0.3307
  856MOL0     C18050   8.639   3.265   1.210 -0.3035  0.2085  0.2099
  856MOL0     C18051   8.735   3.311   1.100 -0.1718 -0.5935  1.2011
  856MOL0     C18052   8.683   3.457   1.046 -0.6400  0.5784 -0.1790
  856MOL0     C18053   8.792   3.518   0.959  0.3997 -0.5470  0.7964
  856MOL0     C18054   8.748   3.571   0.828 -0.3677 -0.2038  0.6005
  856MOL0     C18055   8.714   3.626   0.723  0.5167  0.3822  0.8963
  856MOL0     C18056   8.809   3.474   1.416  0.2853 -0.5080  0.3244
  856MOL0     C18057   8.916   3.487   1.500 -0.2695 -0.0737 -0.6809
  856MOL0     C18058   8.994   3.613   1.493 -0.3940 -0.3559  0.0466
  856MOL0     H18059   9.381   3.310   1.666  1.5245  0.5946 -0.4816
  856MOL0     H18060   9.560   3.309   1.838 -0.9097 -2.8740  1.3916
  856MOL0     H18061   9.719   3.334   1.966 -0.6268  1.8046  0.3282
  856MOL0     H18062   9.627   3.318   2.129 -0.3740 -1.4370  0.4343
  856MOL0     H18063   9.814   3.564   2.083  1.3428 -0.4144 -0.0946
  856MOL0     H18064   9.763   3.478   2.223  0.2822  2.0934  0.5049
  856MOL0     H18065   9.935   3.303   2.179  1.1743  0.2898  0.4639
  856MOL0     H18066   9.959   3.397   2.019 -1.9145  1.9218 -1.4259
  856MOL0     H18067  10.022   3.589   2.142  0.6846  0.0405 -0.3048
  856MOL0     H18068   9.974   3.500   2.298 -0.3608 -7.2815  1.0251
  856MOL0     H18069  10.131   3.327   2.256  0.6593  0.0606 -1.8609
  856MOL0     H18070  10.218   3.488   2.287 -1.5911  1.8003  0.6731
  856MOL0     H18071  10.324   3.340   2.146  1.1283  0.8389 -0.9199
  856MOL0     H18072  10.189   3.321   2.034 -2.3055  2.1191 -0.3904
  856MOL0     H18073  10.340   3.588   2.070  2.3527 -0.2180 -1.2919
  856MOL0     H18074  10.201   3.556   1.965 -1.5193 -0.2227  0.1594
  856MOL0     H18075  10.324   3.417   1.837 -2.3632 -0.9092  2.0714
  856MOL0     H18076  10.413   3.564   1.853 -0.5744  1.2079  1.0664
  856MOL0     H18077  10.581   3.525   2.115 -1.8267 -0.0563 -0.3594
  856MOL0     H18078  10.729   3.381   2.271 -0.2313 -0.3258 -0.3847
  856MOL0     H18079  10.858   3.395   2.149  1.6358  1.9767  4.9329
  856MOL0     H18080  10.809   3.121   2.146 -0.1766 -3.1339  2.7606
  856MOL0     H18081  10.914   3.190   2.272 -0.7646 -0.8088  0.9583
  856MOL0     H18082  10.708   3.243   2.415  0.2932  0.1241  0.4986
  856MOL0     H18083  10.623   3.128   2.315  1.0625  0.9132 -2.6441
  856MOL0     H18084  10.695   3.001   2.495 -1.0453  2.5935 -1.0108
  856MOL0     H18085  10.788   2.942   2.370 -2.1640  0.3208 -0.9475
  856MOL0     H18086  10.701   3.176   2.658 -0.2015  0.5169  4.2491
  856MOL0     H18087  10.619   3.359   2.761  0.9591  1.2435 -1.0732
  856MOL0     H18088  10.708   3.458   2.866  0.6326  0.5897 -2.8154
  856MOL0     H18089  10.656   3.292   2.921 -3.0363  0.6325 -1.5738
  856MOL0     H18090  11.087   3.690   3.043 -0.5660  1.1296  1.0254
  856MOL0     H18091  11.124   3.783   3.267 -0.8736 -0.8000  3.0424
  856MOL0     H18092  11.262   3.580   3.666  1.7948 -0.6635  0.1564
  856MOL0     H18093  11.350   3.552   3.526  0.2332 -0.3679  0.9444
  856MOL0     H18094  11.415   3.809   3.536  2.7729 -1.8254  0.7939
  856MOL0     H18095  11.278   3.852   3.634  4.4686  3.5928 -1.2525
  856MOL0     H18096  11.521   3.703   3.711  2.2148  0.8806  3.0721
  856MOL0     H18097  11.366   3.678   3.798  1.0861 -1.7780 -1.3115
  856MOL0     H18098  11.348   3.925   3.842 -2.5419 -5.8809 -0.0316
  856MOL0     H18099  11.505   3.942   3.752  0.4126 -2.5924 -1.8807
  856MOL0     H18100  11.605   3.788   3.915 -0.1635  2.1278 -0.6830
  856MOL0     H18101  11.583   3.948   3.985 -1.7440  0.9129  2.0310
  856MOL0     H18102  11.388   3.712   4.023 -1.0915  2.3401 -2.7285
  856MOL0     H18103  11.371   3.875   4.081 -2.3942 -2.2615 -1.1769
  856MOL0     H18104  11.454   3.740   4.258  2.1323 -1.6675  0.6641
  856MOL0     H18105  11.614   3.810   4.205  1.6652 -1.7285 -0.6478
  856MOL0     H18106  11.667   3.607   4.078 -0.4540  2.4913 -0.7057
  856MOL0     H18107  11.509   3.539   4.100 -1.2018  0.8965  1.9235
  856MOL0     H18108  11.213   3.407   3.431  3.0350 -0.1006 -1.4488
  856MOL0     H18109  11.170   3.303   3.216  0.4145  1.0254 -2.8720
  856MOL0     H18110  11.150   3.308   2.779 -0.2281 -0.0988 -1.5616
  856MOL0     H18111  11.122   3.186   2.578  2.2032 -1.3807  1.7154
  856MOL0     H18112   9.385   3.637   2.040 -0.7259  1.7894 -0.4299
  856MOL0     H18113   9.174   3.615   1.885 -1.6571 -1.3204 -1.6985
  856MOL0     H18114   8.861   3.185   1.662 -3.0084  1.2323  1.5176
  856MOL0     H18115   8.697   3.161   1.491  1.6135 -1.0191  2.4542
  856MOL0     H18116   8.669   3.163   1.237 -0.6309  0.1179  0.2414
  856MOL0     H18117   8.537   3.250   1.173 -0.0335 -0.7767 -0.1854
  856MOL0     H18118   8.756   3.238   1.022  0.1469 -0.4014  1.1034
  856MOL0     H18119   8.826   3.324   1.160  0.4514  1.9667 -0.1422
  856MOL0     H18120   8.587   3.441   0.995 -0.5199 -0.5330 -0.0833
  856MOL0     H18121   8.676   3.524   1.132  3.1070 -2.1882  2.6115
  856MOL0     H18122   8.869   3.443   0.939  0.4282  0.1026 -1.8734
  856MOL0     H18123   8.836   3.608   1.003 -0.6816  0.3673  0.0603
  856MOL0     H18124   8.691   3.672   0.629 -0.1058 -1.8520 -0.1231
  856MOL0     H18125   8.789   3.567   1.364  0.1390  0.6192  2.2936
  856MOL0     H18126   9.022   3.649   1.592  3.0219  0.8596 -1.1910
  856MOL0     H18127   9.084   3.583   1.438 -1.2476 -5.5651  0.9726
  856MOL0     H18128   8.953   3.697   1.436 -0.7208 -1.4116 -1.3199
  857MOL0     O18129   3.933   8.581   8.528  0.1718  0.3077  0.2316
  857MOL0     C18130   3.824   8.636   8.497  0.0266  0.5830 -0.0603
  857MOL0     O18131   3.732   8.668   8.594  0.7300  0.6562  0.3466
  857MOL0     C18132   3.749   8.641   8.727 -0.1219 -1.0004  1.0018
  857MOL0     C18133   3.873   8.654   8.798 -0.0235  0.8008  1.0254
  857MOL0     C18134   3.882   8.611   8.931 -0.6720 -0.0445 -0.9973
  857MOL0     C18135   3.762   8.577   8.999 -1.0452  0.1874 -0.2711
  857MOL0     O18136   3.785   8.524   9.120 -0.1255 -0.4583 -0.3395
  857MOL0     C18137   3.680   8.543   9.218 -0.4961  0.1809  0.9331
  857MOL0     C18138   3.676   8.441   9.329 -0.4370  0.0675  1.0070
  857MOL0     C18139   3.599   8.320   9.277 -0.2263  0.5977 -0.4300
  857MOL0     C18140   3.566   8.213   9.383  0.1431  0.6480  0.6474
  857MOL0     C18141   3.456   8.261   9.484 -0.3271 -0.6413 -0.0475
  857MOL0     C18142   3.317   8.273   9.416 -1.0993 -0.0985  0.1235
  857MOL0     C18143   3.200   8.227   9.509  0.2381 -0.3323  0.2075
  857MOL0     C18144   3.177   8.086   9.486  0.5776  0.5068  0.1889
  857MOL0     N18145   3.041   8.055   9.515 -0.6791 -0.2450  0.1009
  857MOL0     C18146   2.988   8.064   9.638 -0.1896 -0.3307  0.1921
  857MOL0     C18147   2.854   8.047   9.622 -0.0872  0.4451  0.3261
  857MOL0     C18148   2.744   8.065   9.722 -0.8215 -0.3527 -0.9934
  857MOL0     C18149   2.708   7.928   9.788  0.3906  0.6844 -0.2855
  857MOL0     C18150   2.818   7.891   9.889 -0.3117  0.2666  0.0319
  857MOL0     C18151   2.819   7.752   9.958 -0.1368 -0.4766  1.0455
  857MOL0     O18152   2.772   7.653   9.870  0.4015 -0.2512  0.8721
  857MOL0     C18153   2.759   7.530   9.923  0.4597 -0.0047 -0.0651
  857MOL0     C18154   2.648   7.450   9.889  0.1877 -0.4186  0.1254
  857MOL0     C18155   2.628   7.319   9.920 -0.6916  0.3478  0.2660
  857MOL0     C18156   2.497   7.254   9.881 -0.8107  0.3822 -0.1745
  857MOL0     C18157   2.726   7.257  10.002  0.4618  0.7102  0.8996
  857MOL0     C18158   2.711   7.122  10.066 -0.2423  0.3627  0.2374
  857MOL0     O18159   2.778   7.104  10.175  0.0204  0.3831  0.0162
  857MOL0     C18160   2.757   6.992  10.256 -0.1499 -1.3180  0.3428
  857MOL0     C18161   2.869   6.973  10.337  0.7007  0.7592  0.1431
  857MOL0     C18162   2.872   6.859  10.422 -0.5025  0.8411 -0.0824
  857MOL0     C18163   2.755   6.771  10.424 -1.3228 -0.4152  1.0883
  857MOL0     O18164   2.758   6.667  10.518 -0.0593 -0.3001  0.0020
  857MOL0     C18165   2.765   6.537  10.460  0.2503  0.5665  0.4268
  857MOL0     C18166   2.716   6.418  10.557  0.5976  1.1459  0.0090
  857MOL0     C18167   2.749   6.274  10.507  0.0622 -0.5138  0.3072
  857MOL0     C18168   2.698   6.239  10.373 -0.3815 -0.0409 -0.1608
  857MOL0     C18169   2.542   6.263  10.358  0.2124  0.8869  0.1569
  857MOL0     C18170   2.486   6.244  10.219  0.5262  0.2883 -0.0882
  857MOL0     C18171   2.343   6.288  10.207 -0.0074 -0.0915 -0.3548
  857MOL0     C18172   2.289   6.257  10.072 -0.9687 -0.4738 -0.6204
  857MOL0    Cl18173   2.359   6.373   9.951  0.3570 -0.4604 -0.6130
  857MOL0     C18174   2.637   6.808  10.355 -0.1711 -0.3568  0.3274
  857MOL0     C18175   2.638   6.918  10.265  0.0575 -0.2525  0.2928
  857MOL0     O18176   2.645   7.036  10.009  0.3639  0.3507 -0.0397
  857MOL0     C18177   2.838   7.331  10.038 -0.0703 -0.9335 -0.3267
  857MOL0     C18178   2.850   7.466  10.004 -1.0177  0.1391  0.1300
  857MOL0     N18179   2.830   8.036   9.484  0.0141  0.1472  0.4408
  857MOL0     N18180   2.944   8.033   9.420  0.4114  0.8839 -0.2658
  857MOL0     C18181   3.649   8.570   8.925 -0.1496  0.1645 -0.5835
  857MOL0     C18182   3.633   8.603   8.791  0.9383 -0.8782  0.5359
  857MOL0     C18183   3.812   8.663   8.350  0.2021 -0.5102 -0.6677
  857MOL0     C18184   3.679   8.710   8.311  0.2693  0.1372 -0.0495
  857MOL0     C18185   3.648   8.729   8.177  1.1714  1.6490  0.0388
  857MOL0     C18186   3.749   8.717   8.082 -0.8254 -0.0507 -0.7006
  857MOL0     O18187   3.718   8.757   7.959  0.9235  0.1483  0.0656
  857MOL0     C18188   3.740   8.653   7.855 -0.3041  0.4930 -0.0937
  857MOL0     C18189   3.620   8.561   7.839  0.0582 -0.2285 -0.7207
  857MOL0     C18190   3.638   8.410   7.865  0.2477 -0.5056  0.5019
  857MOL0     C18191   3.658   8.375   8.008 -0.2297  0.3665 -1.3108
  857MOL0     C18192   3.683   8.229   8.020 -0.2145 -0.3745 -0.5099
  857MOL0     C18193   3.701   8.112   8.046 -0.0920 -0.3762 -0.9758
  857MOL0     C18194   3.880   8.675   8.121  0.1976 -0.6175  0.3738
  857MOL0     C18195   3.912   8.640   8.250  0.2954  0.1489  0.0552
  857MOL0     C18196   4.058   8.589   8.260  0.4097 -0.3581 -0.9091
  857MOL0     H18197   3.961   8.699   8.752  0.8028 -2.9033 -1.4949
  857MOL0     H18198   3.971   8.611   8.993 -2.9543 -0.6263  2.5543
  857MOL0     H18199   3.581   8.540   9.171 -1.8301  1.7040  3.4872
  857MOL0     H18200   3.698   8.635   9.273  2.3331 -0.9216  2.0714
  857MOL0     H18201   3.775   8.409   9.363  0.1184  0.4316 -0.1937
  857MOL0     H18202   3.624   8.493   9.410 -1.4082  2.5278 -1.0523
  857MOL0     H18203   3.505   8.349   9.228 -2.8202 -1.8359  2.5801
  857MOL0     H18204   3.660   8.272   9.199 -0.8237  1.5503 -1.5109
  857MOL0     H18205   3.533   8.122   9.333 -1.7338  0.8835  1.3823
  857MOL0     H18206   3.647   8.180   9.448 -2.5013 -0.1893  3.7731
  857MOL0     H18207   3.485   8.354   9.535  2.1927 -2.5815  2.4101
  857MOL0     H18208   3.452   8.188   9.565  0.1489 -0.9430 -0.2934
  857MOL0     H18209   3.311   8.378   9.387  3.3897  0.1902 -0.4115
  857MOL0     H18210   3.310   8.220   9.321 -1.9621  1.3796 -0.6820
  857MOL0     H18211   3.117   8.294   9.484  0.1289  0.2474  1.9739
  857MOL0     H18212   3.235   8.234   9.612  1.7104 -1.8023 -0.1485
  857MOL0     H18213   3.193   8.059   9.381  0.7539 -0.8518  0.5579
  857MOL0     H18214   3.250   8.032   9.547  1.9609  0.9099 -1.0546
  857MOL0     H18215   3.044   8.083   9.730  0.9643 -1.3243 -0.2767
  857MOL0     H18216   2.660   8.114   9.671  0.0362  0.2450 -1.8607
  857MOL0     H18217   2.794   8.132   9.792  1.9658 -1.3067 -1.9701
  857MOL0     H18218   2.610   7.926   9.837  0.3942  0.5306 -0.2845
  857MOL0     H18219   2.696   7.848   9.714  1.7810  1.2225 -1.1375
  857MOL0     H18220   2.917   7.889   9.842 -0.1942 -2.0328  0.2533
  857MOL0     H18221   2.830   7.973   9.960 -0.7334 -0.3382  0.8101
  857MOL0     H18222   2.919   7.735   9.997  1.7138  3.9057 -1.0694
  857MOL0     H18223   2.741   7.762  10.034  0.3628  0.2526  1.4756
  857MOL0     H18224   2.581   7.501   9.821 -2.8129 -3.0628  0.8401
  857MOL0     H18225   2.440   7.222   9.969 -1.7628  1.9222 -0.1837
  857MOL0     H18226   2.528   7.169   9.820  1.9874  0.2596  1.2669
  857MOL0     H18227   2.431   7.316   9.820 -2.1785  0.0209  0.8823
  857MOL0     H18228   2.947   7.049  10.341 -0.0183  1.5112  0.3190
  857MOL0     H18229   2.952   6.844  10.494 -0.4965  0.8338 -0.0900
  857MOL0     H18230   2.721   6.525  10.361 -1.4658 -1.9044  1.3727
  857MOL0     H18231   2.870   6.522  10.434  0.0591 -1.4390  0.6124
  857MOL0     H18232   2.771   6.410  10.652 -0.6628 -0.8814  0.6410
  857MOL0     H18233   2.616   6.435  10.597  0.0122 -0.7098 -0.5721
  857MOL0     H18234   2.700   6.207  10.579 -1.2567 -2.6419 -2.3786
  857MOL0     H18235   2.858   6.261  10.508  0.3081  1.0255 -1.5427
  857MOL0     H18236   2.730   6.140  10.340 -2.5362 -1.4026  1.5750
  857MOL0     H18237   2.731   6.310  10.297  0.3464  0.7975  0.8996
  857MOL0     H18238   2.489   6.211  10.438  2.0793  1.3519  1.7663
  857MOL0     H18239   2.531   6.369  10.384 -1.8672  1.3385 -2.1848
  857MOL0     H18240   2.477   6.138  10.192 -2.7851 -0.3680  2.9005
  857MOL0     H18241   2.539   6.308  10.148  0.7219  3.2414  2.4772
  857MOL0     H18242   2.333   6.392  10.238 -1.2188  0.6539 -2.9557
  857MOL0     H18243   2.287   6.234  10.284 -0.8499  0.8169 -0.3152
  857MOL0     H18244   2.180   6.258  10.083 -0.9942 -0.1714 -0.8643
  857MOL0     H18245   2.326   6.161  10.037 -0.6051 -0.6094  0.1188
  857MOL0     H18246   2.545   6.755  10.380  0.5365 -1.1082  1.4099
  857MOL0     H18247   2.550   6.947  10.209 -0.3917 -0.2544  0.9872
  857MOL0     H18248   2.900   7.295  10.120  2.0943 -2.4683 -2.4523
  857MOL0     H18249   2.936   7.525  10.034  0.1510  0.4211 -3.3349
  857MOL0     H18250   3.558   8.525   8.962  0.7349 -0.9037  0.3931
  857MOL0     H18251   3.542   8.577   8.738  2.3747 -0.7954 -2.1147
  857MOL0     H18252   3.604   8.724   8.389  0.2376 -0.6118  0.0586
  857MOL0     H18253   3.550   8.759   8.141 -0.0185 -0.5954  1.2235
  857MOL0     H18254   3.772   8.695   7.759  1.9096  2.6877  1.4592
  857MOL0     H18255   3.820   8.585   7.887 -2.3623 -0.7222  2.8702
  857MOL0     H18256   3.586   8.568   7.735  1.2448 -1.5328 -1.2108
  857MOL0     H18257   3.540   8.595   7.906 -0.0656 -0.7479 -0.6068
  857MOL0     H18258   3.550   8.356   7.829 -0.7284  1.2628  0.1023
  857MOL0     H18259   3.727   8.378   7.811  0.2094  0.9211 -0.4436
  857MOL0     H18260   3.568   8.404   8.063  1.0078  0.6309  0.6741
  857MOL0     H18261   3.742   8.430   8.053  0.5581 -1.7701 -0.0509
  857MOL0     H18262   3.722   8.008   8.066 -0.7434 -0.0147  2.0189
  857MOL0     H18263   3.961   8.664   8.050  1.6459  0.9526  1.7081
  857MOL0     H18264   4.070   8.487   8.298 -1.0461  0.6081  2.4915
  857MOL0     H18265   4.118   8.628   8.177  1.3023 -1.2007 -0.6845
  857MOL0     H18266   4.093   8.644   8.348 -0.5582  1.4417 -1.6013
  858MOL0     O18267  10.230  10.681   5.906  0.3578  0.4278  0.1228
  858MOL0     C18268  10.215  10.721   6.024  0.2392 -0.0026  0.7220
  858MOL0     O18269  10.208  10.850   6.070 -0.0286  0.0503  0.4810
  858MOL0     C18270  10.192  10.959   5.986  0.6137 -0.2419 -0.3964
  858MOL0     C18271  10.250  11.084   6.018 -0.0458  0.2295 -0.4908
  858MOL0     C18272  10.244  11.201   5.943 -0.5381 -0.4711  0.3650
  858MOL0     C18273  10.180  11.205   5.819  1.0774  0.7135  0.2523
  858MOL0     O18274  10.197  11.305   5.725 -0.3112  0.2252  0.3040
  858MOL0     C18275  10.210  11.445   5.758 -0.3970 -0.1986  0.0962
  858MOL0     C18276  10.309  11.530   5.664  0.9100  0.8737 -0.3994
  858MOL0     C18277  10.458  11.496   5.677 -0.8546 -0.3451 -0.0962
  858MOL0     C18278  10.524  11.596   5.772 -0.1347 -0.9273 -0.5416
  858MOL0     C18279  10.653  11.550   5.842 -0.8335  0.0427 -0.1559
  858MOL0     C18280  10.689  11.657   5.959 -1.0047  0.0985 -0.1432
  858MOL0     C18281  10.674  11.807   5.920 -0.5608  0.6076 -0.0869
  858MOL0     C18282  10.709  11.897   6.032  0.1570  0.7407 -0.4519
  858MOL0     N18283  10.696  12.029   5.987  0.4407 -0.5253  0.2710
  858MOL0     C18284  10.578  12.096   5.963 -0.2141 -0.5053 -0.0226
  858MOL0     C18285  10.620  12.229   5.945 -1.8262  0.0729 -0.7881
  858MOL0     C18286  10.506  12.330   5.926  1.1180 -0.9851 -0.1049
  858MOL0     C18287  10.550  12.448   5.834 -1.2490 -0.0366  0.7298
  858MOL0     C18288  10.644  12.552   5.895 -0.8482  1.0005 -0.0626
  858MOL0     C18289  10.688  12.648   5.787  0.0992 -0.2592  0.3189
  858MOL0     O18290  10.577  12.689   5.702  0.0727  0.9075 -0.6961
  858MOL0     C18291  10.579  12.821   5.669 -0.0009 -0.0942  0.2320
  858MOL0     C18292  10.539  12.914   5.765 -0.3923 -0.4427 -0.4836
  858MOL0     C18293  10.515  13.050   5.746  1.3991 -0.0759 -1.3954
  858MOL0     C18294  10.481  13.130   5.872  0.1231 -0.1487 -0.0639
  858MOL0     C18295  10.531  13.094   5.615  0.0138 -0.1214 -0.6193
  858MOL0     C18296  10.519  13.238   5.594 -0.4820 -0.5958 -0.6995
  858MOL0     O18297  10.601  13.286   5.500 -0.0747  0.4821 -0.2265
  858MOL0     C18298  10.648  13.418   5.496 -0.0733  0.0168  0.4241
  858MOL0     C18299  10.719  13.444   5.377  0.8783  0.0189  0.0266
  858MOL0     C18300  10.788  13.564   5.368  0.7441 -0.0600  0.0573
  858MOL0     C18301  10.785  13.665   5.465  0.2336 -0.1298 -0.2015
  858MOL0     O18302  10.856  13.775   5.433  0.1574 -0.4475  0.4808
  858MOL0     C18303  10.851  13.880   5.530 -0.8931 -0.3505 -0.3643
  858MOL0     C18304  10.941  14.003   5.497  0.4096  0.1439  0.0566
  858MOL0     C18305  10.957  14.025   5.344  0.2314  0.6844 -0.6927
  858MOL0     C18306  11.053  14.148   5.307  0.5027  0.5595  0.5770
  858MOL0     C18307  11.109  14.105   5.172  1.0448  0.8806 -0.5051
  858MOL0     C18308  11.195  14.206   5.113 -0.4049 -1.0658  0.1260
  858MOL0     C18309  11.200  14.169   4.960 -0.4143  0.7807  0.5122
  858MOL0     C18310  11.320  14.241   4.902 -0.2585  0.2375 -0.4251
  858MOL0    Cl18311  11.321  14.226   4.727 -0.0149 -0.4160 -0.1074
  858MOL0     C18312  10.704  13.645   5.573 -0.4736  0.1267 -0.2750
  858MOL0     C18313  10.640  13.527   5.585 -0.2845  0.0648 -1.1339
  858MOL0     O18314  10.450  13.302   5.668  0.3013 -0.0798 -0.6806
  858MOL0     C18315  10.580  13.007   5.510  0.5176 -0.7957 -0.9325
  858MOL0     C18316  10.596  12.868   5.542  0.1058  0.3708 -0.3430
  858MOL0     N18317  10.762  12.235   5.967 -0.0687  0.2976  0.4699
  858MOL0     N18318  10.804  12.113   5.971  0.3251  0.0206 -0.3598
  858MOL0     C18319  10.122  11.080   5.772  0.0821 -0.2655 -0.2654
  858MOL0     C18320  10.132  10.964   5.856  0.3840 -0.2996 -0.1031
  858MOL0     C18321  10.219  10.612   6.123 -0.2579  0.7340 -0.3207
  858MOL0     C18322  10.305  10.498   6.104  0.6744  0.5372 -0.5593
  858MOL0     C18323  10.310  10.400   6.201 -2.1897 -0.1085  0.9351
  858MOL0     C18324  10.243  10.403   6.323  0.3145  0.1907  0.4251
  858MOL0     O18325  10.245  10.315   6.426  0.4620 -0.7462  0.1231
  858MOL0     C18326  10.326  10.204   6.420 -0.0495 -0.2202  0.0920
  858MOL0     C18327  10.261  10.114   6.522 -0.3313  0.1025  0.5398
  858MOL0     C18328  10.337   9.988   6.529 -0.2028 -0.2267  0.0952
  858MOL0     C18329  10.275   9.886   6.634 -0.7844 -0.8012  0.2588
  858MOL0     C18330  10.362   9.775   6.676  0.4945 -0.0732  0.1031
  858MOL0     C18331  10.434   9.682   6.697  0.4730 -0.2947  0.1624
  858MOL0     C18332  10.157  10.511   6.334  0.6244 -0.0642 -0.6358
  858MOL0     C18333  10.142  10.613   6.240 -0.0818 -0.5423  0.4546
  858MOL0     C18334  10.032  10.714   6.259 -0.2679  0.1445 -0.4649
  858MOL0     H18335  10.311  11.104   6.106 -1.1112  1.4922 -0.0089
  858MOL0     H18336  10.310  11.279   5.980  1.2641 -0.0175 -3.3631
  858MOL0     H18337  10.239  11.454   5.863  2.1261  0.2262 -0.5626
  858MOL0     H18338  10.115  11.497   5.748  1.5538  3.3012 -2.6189
  858MOL0     H18339  10.282  11.515   5.559  0.7629  0.1166 -0.2615
  858MOL0     H18340  10.288  11.636   5.680  1.8894  0.9884  0.1341
  858MOL0     H18341  10.473  11.395   5.718  1.8866 -0.1278 -0.3605
  858MOL0     H18342  10.514  11.505   5.583 -1.3540  0.5749 -0.3064
  858MOL0     H18343  10.534  11.700   5.742 -5.9937  0.5577  1.4676
  858MOL0     H18344  10.459  11.599   5.860  1.5088  1.4942  0.6814
  858MOL0     H18345  10.729  11.548   5.763 -2.5567 -1.7467 -1.8646
  858MOL0     H18346  10.643  11.451   5.888 -1.4326 -1.3841 -3.1490
  858MOL0     H18347  10.614  11.631   6.034  0.1734 -1.9083  0.4196
  858MOL0     H18348  10.790  11.636   5.997 -0.5131  3.0713  0.3907
  858MOL0     H18349  10.567  11.829   5.912 -1.4710 -2.1981  2.2189
  858MOL0     H18350  10.730  11.825   5.828 -1.5291 -1.8168 -1.2206
  858MOL0     H18351  10.648  11.881   6.121  2.3119  1.6704  1.2870
  858MOL0     H18352  10.808  11.884   6.078  0.1845 -0.3510 -0.7797
  858MOL0     H18353  10.476  12.058   5.957 -1.4547  1.5666  4.1788
  858MOL0     H18354  10.462  12.344   6.025  1.1285 -3.7459  0.3565
  858MOL0     H18355  10.432  12.283   5.861  1.1083  1.2048 -1.8004
  858MOL0     H18356  10.608  12.402   5.753  0.8646 -0.1594  2.2422
  858MOL0     H18357  10.462  12.508   5.807  1.1757  2.6052 -2.1159
  858MOL0     H18358  10.589  12.608   5.972 -1.5765  0.3123 -0.0706
  858MOL0     H18359  10.732  12.507   5.941 -2.3167 -2.1170 -0.0361
  858MOL0     H18360  10.742  12.727   5.840 -1.3624  3.4387 -3.1965
  858MOL0     H18361  10.760  12.598   5.723 -0.6019  0.4057 -1.0372
  858MOL0     H18362  10.534  12.885   5.869  1.9624  0.2012 -0.1503
  858MOL0     H18363  10.379  13.170   5.866  0.0799 -0.4205 -2.3908
  858MOL0     H18364  10.553  13.211   5.885 -0.7660  0.4099  1.6990
  858MOL0     H18365  10.484  13.074   5.966  0.8346  2.9046  1.8684
  858MOL0     H18366  10.726  13.371   5.297 -0.8439  1.9136 -1.9957
  858MOL0     H18367  10.854  13.580   5.284 -0.7193  0.0233 -1.1080
  858MOL0     H18368  10.747  13.913   5.531 -0.1271  2.3461  0.9359
  858MOL0     H18369  10.879  13.846   5.630  4.8007  4.3171  0.1887
  858MOL0     H18370  10.906  14.087   5.558 -1.2455 -0.8370  0.5122
  858MOL0     H18371  11.042  13.980   5.532 -0.4591 -0.1893  2.5220
  858MOL0     H18372  10.859  14.044   5.301 -0.1661 -1.1948 -0.7374
  858MOL0     H18373  10.988  13.934   5.292  3.8685 -0.5143  2.9589
  858MOL0     H18374  11.135  14.136   5.379 -1.5469 -4.4112  2.5657
  858MOL0     H18375  10.989  14.236   5.300 -0.8050 -0.4779 -1.2987
  858MOL0     H18376  11.163  14.010   5.178 -0.7309 -0.2963 -1.9205
  858MOL0     H18377  11.024  14.081   5.108  0.3632  1.8154  0.0318
  858MOL0     H18378  11.293  14.212   5.161  0.1379  0.4388 -1.0715
  858MOL0     H18379  11.159  14.310   5.114  0.1248 -0.8715  1.7678
  858MOL0     H18380  11.111  14.196   4.901 -0.9235  1.1583  1.4334
  858MOL0     H18381  11.231  14.064   4.951 -0.4080  0.8517 -0.3918
  858MOL0     H18382  11.420  14.221   4.942 -0.1506 -0.4203 -1.0148
  858MOL0     H18383  11.299  14.346   4.925 -1.1867  0.3905 -1.8690
  858MOL0     H18384  10.701  13.708   5.662  0.1064 -1.1013  0.6462
  858MOL0     H18385  10.579  13.504   5.672 -1.4077 -0.6960 -2.0937
  858MOL0     H18386  10.601  13.050   5.413  0.4268  1.4623 -0.0181
  858MOL0     H18387  10.606  12.788   5.468  0.0532 -1.7603  1.8254
  858MOL0     H18388  10.088  11.088   5.669  1.2687 -0.1013 -0.6598
  858MOL0     H18389  10.095  10.868   5.821  0.7036 -2.7188  5.1628
  858MOL0     H18390  10.346  10.491   6.003 -0.5068  0.2694 -1.0403
  858MOL0     H18391  10.370  10.314   6.173 -1.7078  0.9307 -1.4312
  858MOL0     H18392  10.347  10.165   6.320  1.5315 -0.1328  0.3650
  858MOL0     H18393  10.420  10.236   6.464 -1.7810  2.4161  2.2120
  858MOL0     H18394  10.160  10.087   6.490  0.8461 -1.8248 -1.8360
  858MOL0     H18395  10.266  10.165   6.619  2.4684  2.1053 -0.5445
  858MOL0     H18396  10.333   9.942   6.430 -2.1018  0.3519 -0.1407
  858MOL0     H18397  10.431  10.020   6.576  0.1409 -0.2990 -0.5412
  858MOL0     H18398  10.178   9.847   6.602 -1.2211 -0.6759  1.3547
  858MOL0     H18399  10.249   9.945   6.723 -3.1361 -0.1558 -0.7914
  858MOL0     H18400  10.495   9.594   6.705  2.2516  0.3872 -3.6592
  858MOL0     H18401  10.100  10.520   6.426  1.7119 -4.7580  0.8133
  858MOL0     H18402   9.983  10.728   6.162 -2.6516 -1.2103  0.4416
  858MOL0     H18403   9.966  10.669   6.334  2.3137 -1.7424  0.8230
  858MOL0     H18404  10.077  10.805   6.300  1.6039  0.5464 -3.1787
  859MOL0     O18405   2.213   8.111  11.547 -0.1043  0.4013 -0.4360
  859MOL0     C18406   2.119   8.077  11.475  0.2896  0.7075 -0.1600
  859MOL0     O18407   2.070   8.148  11.373 -0.4086  0.2634  0.2628
  859MOL0     C18408   2.150   8.251  11.329  0.3960 -0.1828  0.3107
  859MOL0     C18409   2.181   8.367  11.395  0.7078  0.2647 -0.1069
  859MOL0     C18410   2.270   8.463  11.342 -0.4654  0.4741 -0.3972
  859MOL0     C18411   2.326   8.445  11.212  0.1136 -0.0781 -0.0922
  859MOL0     O18412   2.407   8.546  11.166  0.2236  0.3390  0.1546
  859MOL0     C18413   2.498   8.516  11.053  1.4065  0.5857 -0.0361
  859MOL0     C18414   2.436   8.538  10.911 -0.0831 -0.5473  0.4135
  859MOL0     C18415   2.402   8.681  10.882 -1.2750  0.3558  0.0590
  859MOL0     C18416   2.334   8.698  10.750 -0.2407  0.1964  0.6966
  859MOL0     C18417   2.429   8.659  10.633  0.9271 -0.1369  0.5476
  859MOL0     C18418   2.357   8.639  10.495 -0.2559 -0.0170  0.0728
  859MOL0     C18419   2.367   8.757  10.405  0.2406  0.0069 -0.3190
  859MOL0     C18420   2.240   8.837  10.415  0.6086 -0.7958 -0.2284
  859MOL0     N18421   2.243   8.955  10.326 -0.0938  0.5170 -0.2125
  859MOL0     C18422   2.138   8.995  10.255  0.7748 -0.6638 -0.1025
  859MOL0     C18423   2.183   9.084  10.167 -0.2985 -1.3148 -0.0342
  859MOL0     C18424   2.113   9.153  10.043 -0.1799  0.0337  0.0193
  859MOL0     C18425   2.035   9.058   9.956 -0.9319 -0.8441  0.7635
  859MOL0     C18426   2.118   8.948   9.889  0.4000 -0.8532 -0.2134
  859MOL0     C18427   2.229   8.998   9.795 -0.2706  1.3970 -0.2739
  859MOL0     O18428   2.304   8.887   9.746  0.6046  0.5970  0.5279
  859MOL0     C18429   2.402   8.827   9.831  1.3220 -0.6924  0.6050
  859MOL0     C18430   2.471   8.718   9.785  0.4857  0.1044 -0.1532
  859MOL0     C18431   2.573   8.658   9.867 -0.0107 -0.0734  0.4423
  859MOL0     C18432   2.646   8.540   9.808  1.0142  1.0376  0.5098
  859MOL0     C18433   2.611   8.717   9.989 -0.5361  0.0353  0.1196
  859MOL0     C18434   2.720   8.680  10.074 -0.3597 -0.6650  1.0477
  859MOL0     O18435   2.724   8.742  10.200  0.3317 -0.1545 -0.4978
  859MOL0     C18436   2.820   8.703  10.290  0.3388  0.5118  0.2013
  859MOL0     C18437   2.941   8.765  10.286 -0.7867  0.7379  0.4657
  859MOL0     C18438   3.041   8.742  10.383 -0.3862  0.0873  1.0856
  859MOL0     C18439   3.012   8.653  10.494  0.6942  0.0389  0.7269
  859MOL0     O18440   3.118   8.622  10.570  0.5249  0.2401  0.0726
  859MOL0     C18441   3.132   8.486  10.612 -0.0258  0.3639  0.9299
  859MOL0     C18442   3.230   8.471  10.730 -0.1617  0.9226  0.3562
  859MOL0     C18443   3.362   8.561  10.716  0.3633  0.3268  0.3968
  859MOL0     C18444   3.456   8.522  10.834 -0.4725 -1.0052  0.2319
  859MOL0     C18445   3.560   8.641  10.837  0.7104  0.1853  0.6467
  859MOL0     C18446   3.652   8.646  10.953 -1.0771  0.4515  0.2835
  859MOL0     C18447   3.741   8.774  10.934  0.4409  0.0171 -0.5538
  859MOL0     C18448   3.863   8.743  10.845  0.3392  0.0209  0.5535
  859MOL0    Cl18449   3.980   8.634  10.935 -0.3274  0.0062 -0.3870
  859MOL0     C18450   2.886   8.592  10.498  1.5941 -0.1638  0.3633
  859MOL0     C18451   2.793   8.622  10.401 -0.7250 -0.5521  0.5205
  859MOL0     O18452   2.807   8.605  10.029 -0.4597  0.5156 -0.1846
  859MOL0     C18453   2.534   8.831  10.031 -0.1539 -0.0078 -0.0703
  859MOL0     C18454   2.431   8.885   9.956 -0.7813  0.5617 -0.0854
  859MOL0     N18455   2.321   9.099  10.202  0.0282 -0.3919 -0.0686
  859MOL0     N18456   2.349   9.029  10.302 -0.4508  0.1728  0.4408
  859MOL0     C18457   2.292   8.326  11.142 -0.5798 -0.3636  0.3811
  859MOL0     C18458   2.216   8.229  11.202 -0.9620 -0.2149  0.2935
  859MOL0     C18459   2.072   7.935  11.503  0.7961  0.0086  0.1688
  859MOL0     C18460   1.996   7.880  11.388 -0.4550  0.0244 -0.3709
  859MOL0     C18461   1.948   7.751  11.393 -0.2590 -0.1653  0.0263
  859MOL0     C18462   1.971   7.680  11.510 -0.0254  0.3942 -0.2257
  859MOL0     O18463   1.933   7.551  11.497 -0.1951  0.5323  0.3724
  859MOL0     C18464   1.942   7.463  11.610 -0.2657  0.0367 -0.0018
  859MOL0     C18465   1.891   7.324  11.597  0.4940 -0.4369  0.0952
  859MOL0     C18466   1.922   7.243  11.729  0.6516 -0.3151  0.0500
  859MOL0     C18467   1.821   7.114  11.743 -0.4395  0.4118  0.3147
  859MOL0     C18468   1.864   7.009  11.646  0.8238  0.7115 -0.3571
  859MOL0     C18469   1.911   6.924  11.570 -0.0419  0.5221  0.7519
  859MOL0     C18470   2.011   7.741  11.626 -0.5735  0.0877  0.1455
  859MOL0     C18471   2.078   7.862  11.629 -0.0943 -0.2630 -0.1823
  859MOL0     C18472   2.155   7.903  11.750 -0.4283 -0.2106  0.0174
  859MOL0     H18473   2.141   8.371  11.496 -0.3962 -0.3541 -0.5020
  859MOL0     H18474   2.297   8.549  11.403  0.1076 -0.2436  0.3837
  859MOL0     H18475   2.523   8.410  11.053 -6.5803 -2.0725 -3.1991
  859MOL0     H18476   2.588   8.577  11.059  0.6889  1.7673 -0.8123
  859MOL0     H18477   2.525   8.508  10.856  1.4716 -0.6942  2.8645
  859MOL0     H18478   2.351   8.471  10.895  0.1223 -0.7022 -0.0352
  859MOL0     H18479   2.340   8.723  10.961 -1.2336 -0.4471  0.5254
  859MOL0     H18480   2.490   8.746  10.880  0.0711 -1.3318  1.6716
  859MOL0     H18481   2.241   8.642  10.741 -1.0278  1.2125  2.0803
  859MOL0     H18482   2.299   8.802  10.752  0.8975  0.6225  0.0306
  859MOL0     H18483   2.453   8.553  10.651 -2.3061 -0.9398  0.9050
  859MOL0     H18484   2.520   8.718  10.637 -0.3363  1.8913  0.5312
  859MOL0     H18485   2.411   8.562  10.441  0.1635  0.0154  0.4428
  859MOL0     H18486   2.255   8.601  10.507 -0.5961  0.6013 -0.7293
  859MOL0     H18487   2.367   8.717  10.303 -1.4133 -1.0112  0.0515
  859MOL0     H18488   2.463   8.804  10.427  1.5020 -3.1061  1.5607
  859MOL0     H18489   2.161   8.776  10.370 -0.3126  1.3209 -1.6448
  859MOL0     H18490   2.221   8.858  10.521  1.6093 -1.8628  0.1794
  859MOL0     H18491   2.039   8.951  10.256  0.2791  0.1408 -3.3032
  859MOL0     H18492   2.188   9.196   9.976 -1.5778  1.0169 -0.9675
  859MOL0     H18493   2.045   9.230  10.080  0.1876 -0.4417  1.7458
  859MOL0     H18494   1.956   9.012  10.017 -3.4332 -1.0274 -2.3311
  859MOL0     H18495   1.980   9.107   9.874 -3.3783 -2.4112  1.3620
  859MOL0     H18496   2.161   8.883   9.966 -2.0182  0.1295  2.1429
  859MOL0     H18497   2.050   8.897   9.821  0.5635 -0.0553 -0.9940
  859MOL0     H18498   2.180   9.048   9.711 -2.8630  0.4169  0.5773
  859MOL0     H18499   2.300   9.071   9.835  0.2022  1.3205 -0.9465
  859MOL0     H18500   2.449   8.696   9.681 -0.8914  0.0399  0.1313
  859MOL0     H18501   2.647   8.459   9.881  0.0884  1.0510  0.5396
  859MOL0     H18502   2.744   8.578   9.777 -0.3743  2.0668 -3.1361
  859MOL0     H18503   2.609   8.479   9.725  5.1850 -3.7706  1.6584
  859MOL0     H18504   2.964   8.820  10.196  2.7204 -0.5623  0.3870
  859MOL0     H18505   3.124   8.812  10.379 -2.0492  2.0865 -0.6514
  859MOL0     H18506   3.037   8.440  10.639  1.1507 -1.7824  1.7508
  859MOL0     H18507   3.161   8.418  10.531 -2.5465 -5.5901  4.3185
  859MOL0     H18508   3.172   8.485  10.822 -1.9462 -3.2886  0.1439
  859MOL0     H18509   3.254   8.364  10.735  0.9456  1.2314  2.7019
  859MOL0     H18510   3.319   8.658  10.743 -0.6546 -0.6916  2.7833
  859MOL0     H18511   3.404   8.562  10.615 -1.0943 -2.1146 -0.3377
  859MOL0     H18512   3.502   8.427  10.808  1.5447 -0.7801  2.7101
  859MOL0     H18513   3.406   8.517  10.931  2.1289 -2.5509  1.5772
  859MOL0     H18514   3.616   8.639  10.743  1.0596 -0.2313  0.8638
  859MOL0     H18515   3.499   8.732  10.838 -1.5516 -1.1357 -2.4454
  859MOL0     H18516   3.725   8.565  10.964  0.8949  1.8638 -1.5932
  859MOL0     H18517   3.591   8.653  11.044 -1.3867 -0.8499  0.1923
  859MOL0     H18518   3.782   8.802  11.031  1.4312 -1.3670 -0.5478
  859MOL0     H18519   3.693   8.863  10.893  4.8792  4.1255  2.1292
  859MOL0     H18520   3.903   8.844  10.837  0.9196 -0.3342 -1.7125
  859MOL0     H18521   3.843   8.709  10.743  1.3547 -0.6854  0.5800
  859MOL0     H18522   2.840   8.536  10.579  4.0325 -1.4240  0.9909
  859MOL0     H18523   2.688   8.595  10.406 -0.3584 -2.0688  0.5562
  859MOL0     H18524   2.546   8.891  10.121 -0.4190 -3.1453  2.2329
  859MOL0     H18525   2.387   8.976   9.996 -0.9857 -0.8058  3.1255
  859MOL0     H18526   2.335   8.314  11.044 -0.9446  1.2751  0.0015
  859MOL0     H18527   2.193   8.133  11.157 -3.1423  0.7642 -0.8197
  859MOL0     H18528   1.986   7.944  11.300  0.0311  0.6594  0.0279
  859MOL0     H18529   1.909   7.698  11.307 -1.4903  3.5905 -1.9685
  859MOL0     H18530   2.045   7.466  11.645 -0.9565 -2.5215  2.6839
  859MOL0     H18531   1.889   7.520  11.688  0.4757  0.9594 -0.1552
  859MOL0     H18532   1.946   7.280  11.513  1.7983 -2.4294  1.9133
  859MOL0     H18533   1.782   7.334  11.587  0.7549  3.4585 -0.7583
  859MOL0     H18534   2.023   7.201  11.722  1.9360  2.1018  2.1253
  859MOL0     H18535   1.900   7.299  11.821 -5.0372 -2.3134  0.2931
  859MOL0     H18536   1.713   7.131  11.734 -0.5038  0.8088  1.6667
  859MOL0     H18537   1.839   7.063  11.837 -0.7598 -1.7557 -0.7394
  859MOL0     H18538   1.946   6.843  11.509 -1.6459 -0.5852  1.2161
  859MOL0     H18539   1.992   7.690  11.720 -2.9164 -1.2979 -1.0007
  859MOL0     H18540   2.264   7.897  11.745 -0.3575  0.1907  0.8344
  859MOL0     H18541   2.124   8.008  11.760  0.6907  0.0074  1.5805
  859MOL0     H18542   2.117   7.854  11.840  0.1053 -0.6057  0.0293
  860MOL0     O18543   8.231   1.039   7.633  0.3568 -0.1594  0.3213
  860MOL0     C18544   8.250   1.153   7.677 -1.4309  0.3096 -0.0231
  860MOL0     O18545   8.338   1.177   7.783 -0.8410 -0.1044  0.3852
  860MOL0     C18546   8.367   1.299   7.839  0.2049  0.7721 -1.2518
  860MOL0     C18547   8.435   1.403   7.771 -0.5411 -0.3132 -0.2405
  860MOL0     C18548   8.475   1.522   7.842  0.5637  0.5493 -0.0488
  860MOL0     C18549   8.454   1.539   7.980 -0.4332 -0.4969 -0.7610
  860MOL0     O18550   8.485   1.652   8.055 -0.5280  0.5958 -0.1866
  860MOL0     C18551   8.405   1.766   8.026  0.0606  0.4548 -0.6507
  860MOL0     C18552   8.449   1.868   8.128 -0.9103 -0.2641  0.4873
  860MOL0     C18553   8.413   1.827   8.269  0.4876  0.3047  0.2244
  860MOL0     C18554   8.447   1.940   8.373  0.5049  0.0997 -1.1422
  860MOL0     C18555   8.423   1.876   8.508 -0.8107 -0.4488 -0.3360
  860MOL0     C18556   8.458   1.951   8.642  0.5068 -0.2270  1.0655
  860MOL0     C18557   8.344   2.062   8.660  0.6618  0.0647  0.1923
  860MOL0     C18558   8.332   2.128   8.798 -0.4501 -0.9719  0.6681
  860MOL0     N18559   8.303   2.038   8.904  0.1006 -0.2662 -0.1214
  860MOL0     C18560   8.396   1.959   8.969  0.0034  0.0359  0.1474
  860MOL0     C18561   8.316   1.876   9.045  0.0635  0.4524  1.0325
  860MOL0     C18562   8.340   1.737   9.094  0.2552 -0.7578  0.0695
  860MOL0     C18563   8.255   1.632   9.020  0.6001  0.1374  0.4815
  860MOL0     C18564   8.288   1.622   8.865  0.0858  0.4424  0.3299
  860MOL0     C18565   8.249   1.485   8.804  0.4839 -1.2463 -0.1753
  860MOL0     O18566   8.111   1.458   8.832 -0.6571  1.1949 -0.6056
  860MOL0     C18567   8.063   1.336   8.814 -0.4006 -0.0892  0.0270
  860MOL0     C18568   8.138   1.221   8.784  0.4887 -0.4415 -0.6357
  860MOL0     C18569   8.083   1.088   8.777  0.0312 -0.3300 -1.0847
  860MOL0     C18570   8.177   0.979   8.750 -0.1579 -0.6097 -0.5385
  860MOL0     C18571   7.945   1.082   8.799  0.2755  0.0740  0.3354
  860MOL0     C18572   7.872   0.950   8.800  0.4151 -0.7691  0.1481
  860MOL0     O18573   7.742   0.956   8.837  0.5762 -0.4389 -0.0242
  860MOL0     C18574   7.697   0.849   8.907  0.4047 -0.3628 -0.8589
  860MOL0     C18575   7.749   0.824   9.032  0.5746  0.1225  0.0933
  860MOL0     C18576   7.683   0.731   9.113 -1.0457  0.3285 -0.7080
  860MOL0     C18577   7.573   0.660   9.068 -0.3677 -0.4507 -0.4996
  860MOL0     O18578   7.517   0.563   9.147  0.4270 -0.1544  0.1599
  860MOL0     C18579   7.410   0.476   9.102  0.8697  0.2751  0.3377
  860MOL0     C18580   7.388   0.366   9.211  0.0209  0.2694 -0.2431
  860MOL0     C18581   7.517   0.306   9.278 -0.3856 -0.3187  0.5104
  860MOL0     C18582   7.502   0.153   9.292 -0.3867  0.0372 -0.2823
  860MOL0     C18583   7.631   0.093   9.343  0.0928 -0.3949  0.0898
  860MOL0     C18584   7.752   0.100   9.250 -0.5158  0.2290 -0.5579
  860MOL0     C18585   7.856   0.016   9.288 -0.2215 -0.5307  0.5347
  860MOL0     C18586   7.978   0.030   9.195  0.6078  0.8886  0.0427
  860MOL0    Cl18587   8.083   0.153   9.250  0.0766 -0.2964  0.3478
  860MOL0     C18588   7.527   0.684   8.934  0.1051  0.8389 -0.8896
  860MOL0     C18589   7.583   0.783   8.858 -0.2112  0.7949 -0.2435
  860MOL0     O18590   7.931   0.849   8.762  1.0709  0.4572 -0.0302
  860MOL0     C18591   7.859   1.192   8.832 -0.4180 -0.3887 -0.2385
  860MOL0     C18592   7.927   1.320   8.838  0.1483  0.7472  0.0877
  860MOL0     N18593   8.184   1.925   9.026  0.4028 -0.2152  0.7855
  860MOL0     N18594   8.176   2.030   8.949  0.2770  0.2331 -0.5669
  860MOL0     C18595   8.399   1.426   8.052 -0.2685  0.2996  0.4390
  860MOL0     C18596   8.365   1.305   7.980  1.7639  0.0095 -0.2940
  860MOL0     C18597   8.191   1.263   7.604  0.0825 -1.3969 -0.2237
  860MOL0     C18598   8.256   1.306   7.485  0.7470  0.1607 -1.1359
  860MOL0     C18599   8.216   1.422   7.431 -0.4456  0.4311  0.1258
  860MOL0     C18600   8.103   1.490   7.477  0.4560 -0.4395  0.7878
  860MOL0     O18601   8.032   1.584   7.392 -0.5701  0.7506 -0.3487
  860MOL0     C18602   8.111   1.633   7.280 -0.1602 -0.4111  0.6960
  860MOL0     C18603   8.054   1.775   7.241  0.2287 -0.3686 -0.0092
  860MOL0     C18604   7.911   1.775   7.178  0.1873  0.5780 -0.7583
  860MOL0     C18605   7.863   1.644   7.097 -0.3205 -0.1722 -0.3174
  860MOL0     C18606   7.949   1.608   6.989 -1.0717 -0.5806 -0.1657
  860MOL0     C18607   8.019   1.570   6.895  0.3550 -0.2219  0.4967
  860MOL0     C18608   8.047   1.448   7.598 -0.2394  0.0906  0.2567
  860MOL0     C18609   8.083   1.335   7.664  0.6457  0.4929 -0.0072
  860MOL0     C18610   7.997   1.287   7.771  0.8633  0.4418  0.1040
  860MOL0     H18611   8.465   1.397   7.667  0.0660  0.0735 -0.0919
  860MOL0     H18612   8.516   1.609   7.792 -1.1517  1.1286 -0.5140
  860MOL0     H18613   8.299   1.740   8.034 -0.6245  2.7946 -1.3537
  860MOL0     H18614   8.420   1.810   7.927  1.6924  0.0741 -0.5915
  860MOL0     H18615   8.556   1.883   8.109 -1.8365  2.8932 -3.8576
  860MOL0     H18616   8.408   1.968   8.111 -0.6763 -0.6710 -3.5216
  860MOL0     H18617   8.304   1.828   8.270  0.4738 -0.3340 -0.7346
  860MOL0     H18618   8.456   1.727   8.278 -0.9786 -0.6389 -2.3580
  860MOL0     H18619   8.555   1.959   8.365  0.6559 -1.2290 -2.6221
  860MOL0     H18620   8.382   2.028   8.365  1.7682  1.3366  0.9465
  860MOL0     H18621   8.494   1.793   8.517 -0.5006 -0.1647 -0.1513
  860MOL0     H18622   8.325   1.828   8.508 -0.9931 -0.1423 -1.9150
  860MOL0     H18623   8.457   1.887   8.730 -0.1478 -1.7310  0.0059
  860MOL0     H18624   8.557   1.997   8.629 -0.3489  1.4836  0.1307
  860MOL0     H18625   8.242   2.027   8.637 -0.1843  0.8569  2.4794
  860MOL0     H18626   8.362   2.123   8.571  2.1431 -3.4990 -2.2115
  860MOL0     H18627   8.430   2.173   8.813 -1.2696  0.9119  0.7198
  860MOL0     H18628   8.267   2.216   8.790  1.4870  0.5579  0.9514
  860MOL0     H18629   8.501   1.954   8.945 -0.0282 -1.0319  0.1860
  860MOL0     H18630   8.308   1.710   9.196 -2.5544 -1.5004 -0.9196
  860MOL0     H18631   8.446   1.711   9.078  0.1587  0.2553 -2.6001
  860MOL0     H18632   8.277   1.536   9.068 -0.5014  0.4420  1.6632
  860MOL0     H18633   8.146   1.638   9.031  0.3291 -2.7930  0.0357
  860MOL0     H18634   8.245   1.695   8.796  1.3562 -0.7943 -1.8702
  860MOL0     H18635   8.396   1.623   8.849 -0.1377 -1.5066 -1.8683
  860MOL0     H18636   8.276   1.496   8.699 -0.1881 -3.4406 -0.6206
  860MOL0     H18637   8.325   1.415   8.839 -0.0403 -1.0539  1.4523
  860MOL0     H18638   8.245   1.238   8.777  0.8710 -1.3666  1.8905
  860MOL0     H18639   8.135   0.913   8.674 -0.7731 -1.0439  0.1668
  860MOL0     H18640   8.190   0.923   8.842  2.4779  1.0917  0.2228
  860MOL0     H18641   8.276   1.014   8.720  0.0064 -1.3178 -0.8457
  860MOL0     H18642   7.827   0.890   9.070 -1.4633  2.5207  0.3424
  860MOL0     H18643   7.721   0.725   9.214 -0.4174 -0.3144 -0.9754
  860MOL0     H18644   7.314   0.526   9.087  1.1883  1.4999  2.0432
  860MOL0     H18645   7.447   0.431   9.010  0.3897 -2.4989  1.4183
  860MOL0     H18646   7.326   0.411   9.289  0.1161  0.3279 -0.2000
  860MOL0     H18647   7.326   0.285   9.172  0.8752  0.1142 -1.3392
  860MOL0     H18648   7.528   0.350   9.377 -0.8360  1.4119 -0.1743
  860MOL0     H18649   7.606   0.327   9.218 -2.0361  1.2207 -1.5785
  860MOL0     H18650   7.462   0.107   9.201 -1.7510 -3.6305  1.9548
  860MOL0     H18651   7.432   0.132   9.373  2.0007 -2.8868  1.2183
  860MOL0     H18652   7.654   0.138   9.440 -0.5627 -1.4670  0.7681
  860MOL0     H18653   7.614  -0.012   9.370 -1.7529 -0.3117 -0.5810
  860MOL0     H18654   7.790   0.202   9.247  1.0377 -0.1900  1.9948
  860MOL0     H18655   7.721   0.063   9.152  2.2101 -0.5166 -1.2316
  860MOL0     H18656   7.830  -0.090   9.281  0.6703 -0.9362  2.7066
  860MOL0     H18657   7.874   0.036   9.394  0.5987  0.7714  0.1673
  860MOL0     H18658   7.944   0.049   9.093  0.9824  2.0735  0.1246
  860MOL0     H18659   8.039  -0.061   9.197 -0.4099  0.1943  0.5383
  860MOL0     H18660   7.458   0.614   8.887  2.1300 -4.0696  2.5897
  860MOL0     H18661   7.554   0.797   8.754  0.1332  3.7889 -0.0149
  860MOL0     H18662   7.751   1.187   8.839 -0.3038 -0.7559  2.2710
  860MOL0     H18663   7.866   1.404   8.871 -2.8585 -1.0877 -0.3866
  860MOL0     H18664   8.377   1.428   8.158 -0.5772 -0.8518  0.4099
  860MOL0     H18665   8.319   1.228   8.041  0.6548  2.4281  2.1167
  860MOL0     H18666   8.346   1.257   7.449  1.1945  0.2593 -0.1820
  860MOL0     H18667   8.265   1.445   7.336 -0.6430 -0.4022 -0.1874
  860MOL0     H18668   8.211   1.648   7.321 -0.5159  0.4652  1.2634
  860MOL0     H18669   8.125   1.562   7.198 -2.0482  0.8633 -0.8013
  860MOL0     H18670   8.122   1.824   7.171 -0.2752  2.1946  1.1420
  860MOL0     H18671   8.053   1.844   7.326 -1.1178 -0.7042  0.2745
  860MOL0     H18672   7.841   1.791   7.260  2.9908 -1.4651  2.2880
  860MOL0     H18673   7.903   1.854   7.103  2.7107  1.4940 -0.1527
  860MOL0     H18674   7.759   1.656   7.064 -0.1526  3.4702  0.1460
  860MOL0     H18675   7.868   1.558   7.165  2.5662 -2.6486 -3.2802
  860MOL0     H18676   8.059   1.519   6.809 -0.3570 -0.0959  0.0757
  860MOL0     H18677   7.976   1.507   7.656 -0.6981  0.3677 -0.5718
  860MOL0     H18678   7.952   1.192   7.738 -3.3487  3.2195 -3.2517
  860MOL0     H18679   8.055   1.279   7.864 -0.3319  0.2341  0.8606
  860MOL0     H18680   7.911   1.351   7.795  0.6602  0.5147 -0.8105
  861MOL0     O18681   1.005   5.146   2.451 -0.6690 -0.2870 -0.4550
  861MOL0     C18682   0.906   5.215   2.419 -0.8451 -1.0346  0.3273
  861MOL0     O18683   0.790   5.230   2.478 -0.8891 -0.0254 -0.8096
  861MOL0     C18684   0.768   5.152   2.591  0.3432 -1.4055  0.0914
  861MOL0     C18685   0.682   5.046   2.602 -0.7075  0.1443 -0.1891
  861MOL0     C18686   0.659   4.964   2.721 -0.1749 -0.5531 -0.0055
  861MOL0     C18687   0.743   4.994   2.831 -0.1732  0.6436 -0.0448
  861MOL0     O18688   0.740   4.911   2.934  0.2129 -0.0015  0.1262
  861MOL0     C18689   0.868   4.859   2.978 -0.2287 -0.7178  0.9046
  861MOL0     C18690   0.840   4.787   3.109  0.0482  0.3620  0.1170
  861MOL0     C18691   0.827   4.880   3.234  0.2003 -0.5704 -0.6321
  861MOL0     C18692   0.953   4.921   3.303  0.5000  0.0203 -0.4196
  861MOL0     C18693   0.908   5.039   3.397 -1.6249 -0.1413  0.5805
  861MOL0     C18694   0.842   5.164   3.350 -0.0080  0.3696  0.4264
  861MOL0     C18695   0.908   5.220   3.230  0.1903  0.1311  0.5923
  861MOL0     C18696   0.869   5.364   3.192  0.5742  0.2820  0.0124
  861MOL0     N18697   0.854   5.374   3.051 -0.2328  0.1135 -0.5668
  861MOL0     C18698   0.732   5.367   2.988 -0.4093 -0.8561  0.0540
  861MOL0     C18699   0.740   5.435   2.870  0.1636 -1.1938  0.4221
  861MOL0     C18700   0.627   5.446   2.757 -0.2054  0.6381 -0.3408
  861MOL0     C18701   0.548   5.563   2.801 -0.2638  1.0034  0.3606
  861MOL0     C18702   0.604   5.707   2.787  0.0869  0.3203 -0.7223
  861MOL0     C18703   0.496   5.818   2.807 -0.0454  1.7123  0.7319
  861MOL0     O18704   0.431   5.832   2.676 -0.0691  0.0643  0.3404
  861MOL0     C18705   0.306   5.769   2.651 -0.6822  1.1128  0.2860
  861MOL0     C18706   0.243   5.778   2.521  0.0922  1.0217 -0.7729
  861MOL0     C18707   0.116   5.730   2.490 -0.9289  0.2469 -0.5128
  861MOL0     C18708   0.060   5.759   2.356  0.6620 -0.3570  0.0621
  861MOL0     C18709   0.052   5.647   2.587 -0.1794 -0.3130  0.0953
  861MOL0     C18710  -0.081   5.567   2.575 -0.9274 -1.4219  0.1815
  861MOL0     O18711  -0.115   5.497   2.683 -0.5130  0.6557  0.0342
  861MOL0     C18712  -0.234   5.425   2.691  0.4234 -1.3614 -0.8691
  861MOL0     C18713  -0.227   5.299   2.735  0.7162  0.6520 -0.5475
  861MOL0     C18714  -0.343   5.219   2.754 -0.1636  0.1521 -0.0435
  861MOL0     C18715  -0.470   5.272   2.733  0.0946  0.9563  0.3085
  861MOL0     O18716  -0.572   5.185   2.762  0.7946 -0.3609 -0.0119
  861MOL0     C18717  -0.695   5.195   2.680 -0.2241  0.8433  0.2349
  861MOL0     C18718  -0.770   5.063   2.692 -0.2075  1.8403 -0.5086
  861MOL0     C18719  -0.909   5.065   2.639 -0.1260  0.3591  0.8803
  861MOL0     C18720  -0.964   4.941   2.563 -0.0635  0.6710  0.2487
  861MOL0     C18721  -1.118   4.949   2.543  1.0463 -0.0559 -0.3339
  861MOL0     C18722  -1.182   4.816   2.478  0.1743 -0.1058 -0.0705
  861MOL0     C18723  -1.154   4.684   2.548 -0.1941 -0.1358 -0.2669
  861MOL0     C18724  -1.229   4.680   2.679  0.1028 -0.3592  0.6121
  861MOL0    Cl18725  -1.401   4.629   2.658 -0.2943 -0.0218  0.3525
  861MOL0     C18726  -0.478   5.400   2.692 -0.0366 -1.2206 -0.1698
  861MOL0     C18727  -0.359   5.484   2.675 -0.3416 -0.2229 -0.5948
  861MOL0     O18728  -0.132   5.556   2.465 -0.2579 -1.0026  0.9684
  861MOL0     C18729   0.108   5.639   2.722 -0.4384 -0.0990 -0.1043
  861MOL0     C18730   0.232   5.697   2.743  0.7758  0.7680  0.3561
  861MOL0     N18731   0.867   5.488   2.856  1.0724  0.3689  0.3513
  861MOL0     N18732   0.930   5.453   2.964 -0.1522  0.5464 -0.3218
  861MOL0     C18733   0.838   5.098   2.816  0.4703 -0.0585 -0.4586
  861MOL0     C18734   0.850   5.175   2.701 -0.1238  0.8047 -0.2700
  861MOL0     C18735   0.917   5.299   2.299  0.4300  0.3421 -0.0291
  861MOL0     C18736   0.928   5.239   2.171  0.9466  0.7351 -0.2867
  861MOL0     C18737   0.966   5.311   2.056 -0.0097  0.7592  0.1763
  861MOL0     C18738   0.984   5.444   2.060 -0.1346  0.2607 -0.1961
  861MOL0     O18739   1.047   5.508   1.951 -0.6440  0.1969  0.2125
  861MOL0     C18740   1.006   5.641   1.922  0.3190  0.2063 -0.0626
  861MOL0     C18741   1.000   5.667   1.772 -0.0735  0.4119 -1.2753
  861MOL0     C18742   1.139   5.650   1.710  0.2420  0.9011  0.0199
  861MOL0     C18743   1.130   5.686   1.561 -1.1660 -0.2389 -1.2506
  861MOL0     C18744   1.086   5.825   1.527 -0.4584  0.9734  1.0519
  861MOL0     C18745   1.044   5.928   1.487 -0.5952 -0.9440 -0.5483
  861MOL0     C18746   0.963   5.505   2.189  0.7939  0.0083  0.3876
  861MOL0     C18747   0.922   5.441   2.303 -0.5741 -0.7628 -0.5895
  861MOL0     C18748   0.902   5.511   2.437  0.0802  0.4019  0.5844
  861MOL0     H18749   0.623   5.018   2.515 -0.4317  1.7247 -0.9194
  861MOL0     H18750   0.569   4.903   2.719 -1.7718  1.5666 -3.5587
  861MOL0     H18751   0.949   4.931   2.979  1.9285 -3.0148  0.9274
  861MOL0     H18752   0.896   4.795   2.894  2.9023  0.9535  0.5473
  861MOL0     H18753   0.744   4.738   3.087 -1.4989  2.4852  1.6345
  861MOL0     H18754   0.901   4.697   3.123 -0.7376  0.1331  2.4490
  861MOL0     H18755   0.769   4.968   3.205  0.7006  0.1064  0.3568
  861MOL0     H18756   0.772   4.842   3.320  0.2217  6.0324  2.9459
  861MOL0     H18757   0.998   4.838   3.357  0.7751 -2.9713 -4.7138
  861MOL0     H18758   1.036   4.960   3.243  0.4710  1.7890  0.6018
  861MOL0     H18759   1.000   5.072   3.447 -1.7742 -0.7746  1.2903
  861MOL0     H18760   0.835   5.001   3.469 -1.1416 -0.1895  1.0553
  861MOL0     H18761   0.740   5.140   3.320  0.4734  1.2525 -2.1093
  861MOL0     H18762   0.844   5.243   3.425 -2.2072  1.6390 -0.7823
  861MOL0     H18763   0.887   5.157   3.144 -1.3956  3.5347 -1.7703
  861MOL0     H18764   1.017   5.224   3.234  0.3260 -0.4107 -1.4496
  861MOL0     H18765   0.770   5.389   3.233  1.0372  2.8028 -0.2215
  861MOL0     H18766   0.943   5.432   3.237  0.2221 -0.3574  1.6357
  861MOL0     H18767   0.639   5.330   3.030 -0.3975 -1.0019 -0.0461
  861MOL0     H18768   0.567   5.355   2.751  2.8123 -1.8612  2.9412
  861MOL0     H18769   0.670   5.457   2.657  2.4322  0.1330  0.6541
  861MOL0     H18770   0.453   5.545   2.750 -0.2694  0.9192  0.3987
  861MOL0     H18771   0.508   5.542   2.901 -1.9559  0.8913 -0.3136
  861MOL0     H18772   0.689   5.721   2.854  0.8410 -2.8221 -0.8929
  861MOL0     H18773   0.643   5.723   2.686  0.2591 -1.3626 -0.9516
  861MOL0     H18774   0.437   5.794   2.896 -1.5406 -5.9111 -1.6364
  861MOL0     H18775   0.546   5.912   2.834  1.4411  0.6288  1.9655
  861MOL0     H18776   0.298   5.825   2.439 -1.6045  1.5492 -1.6740
  861MOL0     H18777   0.077   5.676   2.287  0.5140 -0.3485  0.0152
  861MOL0     H18778   0.113   5.845   2.313 -0.2566  0.0391 -0.2960
  861MOL0     H18779  -0.044   5.790   2.365  1.3231  2.1470 -0.1964
  861MOL0     H18780  -0.131   5.249   2.729 -0.4314 -2.3118  2.4227
  861MOL0     H18781  -0.312   5.120   2.784 -2.6317 -0.1366  1.8502
  861MOL0     H18782  -0.743   5.287   2.714 -1.8611  0.8097 -1.7508
  861MOL0     H18783  -0.665   5.203   2.575 -2.1749 -0.4015 -0.4632
  861MOL0     H18784  -0.714   4.984   2.641  0.4961  0.9969  1.4760
  861MOL0     H18785  -0.770   5.028   2.796  0.1154 -4.7097 -2.2519
  861MOL0     H18786  -0.911   5.151   2.572  1.7777 -0.2004  0.0370
  861MOL0     H18787  -0.967   5.105   2.722  0.8409  2.0065  0.8071
  861MOL0     H18788  -0.931   4.856   2.623  0.7538 -2.0730 -3.6705
  861MOL0     H18789  -0.903   4.935   2.472 -1.0872  0.8246 -0.4749
  861MOL0     H18790  -1.159   4.958   2.644  2.8666 -0.7785  0.5183
  861MOL0     H18791  -1.153   5.038   2.490  0.9965  0.8283  1.1282
  861MOL0     H18792  -1.160   4.803   2.372 -3.8937 -2.0801 -0.8551
  861MOL0     H18793  -1.291   4.828   2.477  0.4136  3.3763 -1.6130
  861MOL0     H18794  -1.047   4.681   2.570 -0.3918  1.2691  1.0444
  861MOL0     H18795  -1.182   4.600   2.484 -0.7400  1.3081 -2.0124
  861MOL0     H18796  -1.224   4.779   2.725  1.3541  1.8807 -3.8241
  861MOL0     H18797  -1.170   4.624   2.752  0.4848  1.3273  1.6552
  861MOL0     H18798  -0.570   5.451   2.665  1.1883  0.3047 -1.7738
  861MOL0     H18799  -0.374   5.588   2.649 -0.6659 -0.9793 -3.8695
  861MOL0     H18800   0.064   5.577   2.799 -2.3697  0.7056 -0.4803
  861MOL0     H18801   0.265   5.686   2.845  1.8377  0.2405 -0.0264
  861MOL0     H18802   0.901   5.112   2.904  3.2427 -1.1509 -2.1382
  861MOL0     H18803   0.919   5.259   2.703 -0.5607  1.2476  3.1828
  861MOL0     H18804   0.918   5.131   2.173  0.3604  0.7939  0.6497
  861MOL0     H18805   0.992   5.261   1.962 -0.9769  1.8207 -0.6781
  861MOL0     H18806   0.908   5.648   1.970  0.7460 -1.7167  1.2039
  861MOL0     H18807   1.068   5.717   1.971  2.1266 -0.5661 -1.0556
  861MOL0     H18808   0.948   5.758   1.742  1.8078  1.3247 -1.8899
  861MOL0     H18809   0.937   5.588   1.730  2.1813 -0.6960 -2.7296
  861MOL0     H18810   1.205   5.704   1.779  1.4095  0.8819 -1.0622
  861MOL0     H18811   1.178   5.548   1.703 -0.0487  0.9087 -2.6427
  861MOL0     H18812   1.063   5.613   1.515 -0.0345 -0.3018 -2.8820
  861MOL0     H18813   1.223   5.667   1.507 -1.5713  2.7642 -3.2762
  861MOL0     H18814   1.025   6.024   1.443 -0.6895 -2.1994 -3.4686
  861MOL0     H18815   0.993   5.607   2.209  0.2922 -0.0455  1.4625
  861MOL0     H18816   0.866   5.612   2.415  0.3102  1.1356  3.2785
  861MOL0     H18817   0.832   5.465   2.507  1.0648 -0.2035  1.1832
  861MOL0     H18818   1.002   5.524   2.479  0.4586 -1.8465  0.4614
  862MOL0     O18819   3.749   0.623   2.600  0.5925  0.1516 -0.7791
  862MOL0     C18820   3.700   0.694   2.685  0.1775 -1.0891 -0.1756
  862MOL0     O18821   3.617   0.664   2.777 -0.1056  0.2797 -0.1187
  862MOL0     C18822   3.585   0.542   2.813 -0.1683  1.0763 -0.0733
  862MOL0     C18823   3.670   0.432   2.801 -0.2590  0.1960 -0.9838
  862MOL0     C18824   3.633   0.299   2.858  0.4451 -0.0498  0.6121
  862MOL0     C18825   3.512   0.290   2.929 -0.9413 -0.0158 -1.6250
  862MOL0     O18826   3.463   0.176   2.984 -0.3799 -0.4281 -0.0937
  862MOL0     C18827   3.547   0.066   3.006 -0.4454 -0.0137  0.0227
  862MOL0     C18828   3.491  -0.029   3.121  0.2593 -0.6195  0.2393
  862MOL0     C18829   3.520   0.002   3.271 -0.6231  0.3548  0.9019
  862MOL0     C18830   3.490  -0.103   3.375 -0.6483 -1.0645 -0.2345
  862MOL0     C18831   3.336  -0.151   3.369 -0.3099  0.3582 -0.1020
  862MOL0     C18832   3.250  -0.081   3.465 -0.5067  0.0431  0.1335
  862MOL0     C18833   3.110  -0.144   3.444  0.4940  0.9062  0.9642
  862MOL0     C18834   3.017  -0.097   3.556 -0.0527 -0.6511  0.5589
  862MOL0     N18835   2.879  -0.145   3.529 -0.2713 -0.5555  0.0846
  862MOL0     C18836   2.807  -0.134   3.416 -0.1862 -0.1557  1.0208
  862MOL0     C18837   2.686  -0.188   3.444 -0.4599 -0.3102 -0.6209
  862MOL0     C18838   2.562  -0.181   3.358 -0.2377  0.3576 -0.3311
  862MOL0     C18839   2.570  -0.298   3.266  0.9649 -0.1382 -0.0398
  862MOL0     C18840   2.442  -0.324   3.192  0.4703  0.0359 -1.2318
  862MOL0     C18841   2.445  -0.470   3.147 -0.3031 -0.6041 -0.0440
  862MOL0     O18842   2.572  -0.505   3.095  0.1769  0.1716 -0.2206
  862MOL0     C18843   2.586  -0.618   3.014 -0.1113  0.0677  0.6455
  862MOL0     C18844   2.694  -0.618   2.919  0.0189 -0.6011 -0.7735
  862MOL0     C18845   2.713  -0.723   2.831 -0.2178 -0.1761  0.7039
  862MOL0     C18846   2.832  -0.727   2.734  0.6684  0.9140  0.1251
  862MOL0     C18847   2.612  -0.822   2.829 -0.5276 -0.1695 -0.0672
  862MOL0     C18848   2.609  -0.937   2.741 -0.0435 -1.0153  0.3160
  862MOL0     O18849   2.726  -1.017   2.731 -0.1225 -0.4059  0.2281
  862MOL0     C18850   2.716  -1.145   2.690  0.4654  1.1527 -0.2791
  862MOL0     C18851   2.790  -1.178   2.580  0.1043 -1.4187 -0.2847
  862MOL0     C18852   2.799  -1.306   2.539  0.0781  0.4203 -1.0845
  862MOL0     C18853   2.725  -1.410   2.611 -0.7521  0.2363 -0.4674
  862MOL0     O18854   2.714  -1.543   2.584 -0.5416  0.1183  0.2755
  862MOL0     C18855   2.788  -1.598   2.472 -0.2534 -1.0714  0.5092
  862MOL0     C18856   2.798  -1.746   2.476 -0.1246 -0.4624 -0.2695
  862MOL0     C18857   2.656  -1.802   2.442  1.5636  0.8238  0.5418
  862MOL0     C18858   2.649  -1.955   2.466  0.4784  0.7766 -0.3827
  862MOL0     C18859   2.746  -2.036   2.381  0.0445 -0.3491  0.5152
  862MOL0     C18860   2.726  -2.025   2.226  0.1385  0.0928 -0.4987
  862MOL0     C18861   2.766  -2.154   2.152 -0.1200  0.0821  0.7226
  862MOL0     C18862   2.731  -2.139   1.999 -0.0355  0.7345  0.0359
  862MOL0    Cl18863   2.843  -2.050   1.900 -0.4922 -0.1266 -0.0422
  862MOL0     C18864   2.645  -1.374   2.712  0.2174  0.3177 -0.0709
  862MOL0     C18865   2.645  -1.243   2.756  0.1177  1.3086 -1.0677
  862MOL0     O18866   2.499  -0.978   2.705  0.2895 -0.1744  0.6597
  862MOL0     C18867   2.490  -0.805   2.907  0.4405  0.1810  0.2942
  862MOL0     C18868   2.482  -0.709   3.001  0.0151 -0.2844  0.2312
  862MOL0     N18869   2.680  -0.230   3.572 -1.7701  0.2460 -0.6863
  862MOL0     N18870   2.800  -0.217   3.621  1.0570 -0.4666 -0.5939
  862MOL0     C18871   3.432   0.403   2.940 -0.1050 -0.6288 -0.3065
  862MOL0     C18872   3.470   0.531   2.893  0.9044 -0.3013 -0.4941
  862MOL0     C18873   3.736   0.841   2.654 -0.8416 -0.5287  0.0560
  862MOL0     C18874   3.650   0.913   2.572 -0.0049 -0.8643  0.4082
  862MOL0     C18875   3.667   1.054   2.549  0.4090  0.4197  0.4522
  862MOL0     C18876   3.779   1.122   2.612 -0.5382 -1.0817  0.0920
  862MOL0     O18877   3.819   1.246   2.598 -0.5893  0.1668 -0.5840
  862MOL0     C18878   3.881   1.264   2.470  0.6782  0.5614  0.0281
  862MOL0     C18879   3.915   1.412   2.447  0.6202  0.2755 -0.0117
  862MOL0     C18880   3.802   1.507   2.460 -0.0006 -0.2319 -0.2398
  862MOL0     C18881   3.663   1.465   2.421  0.8724 -0.3988 -0.1407
  862MOL0     C18882   3.661   1.446   2.280 -0.1545 -0.3313  0.9751
  862MOL0     C18883   3.655   1.464   2.159 -0.0699  0.9304 -0.2816
  862MOL0     C18884   3.865   1.052   2.699 -1.1980  0.6847  0.3344
  862MOL0     C18885   3.846   0.911   2.720  0.2511  0.5662 -0.9556
  862MOL0     C18886   3.930   0.838   2.815 -0.3596  0.2835  0.2823
  862MOL0     H18887   3.767   0.448   2.753 -1.1599  0.4669 -2.8026
  862MOL0     H18888   3.711   0.225   2.845  1.3028  0.3627  2.8400
  862MOL0     H18889   3.649   0.098   3.027  0.1447 -2.0222  0.4816
  862MOL0     H18890   3.548   0.003   2.917  0.9470 -4.2313  2.6867
  862MOL0     H18891   3.383  -0.024   3.106  0.0869 -4.2648 -0.4537
  862MOL0     H18892   3.514  -0.134   3.103 -0.3222 -1.0439  1.8927
  862MOL0     H18893   3.629   0.013   3.270 -0.6635  1.0726  2.4019
  862MOL0     H18894   3.484   0.102   3.295  1.3034  1.3680 -0.1202
  862MOL0     H18895   3.554  -0.183   3.339 -0.2380  0.5612 -3.4415
  862MOL0     H18896   3.522  -0.059   3.470  2.4457 -3.6346  0.0553
  862MOL0     H18897   3.333  -0.256   3.401  6.0731  0.4655  2.2320
  862MOL0     H18898   3.301  -0.134   3.267  1.2024 -1.1327 -0.9271
  862MOL0     H18899   3.283  -0.112   3.564  0.4578  3.1706  0.9157
  862MOL0     H18900   3.257   0.028   3.467 -1.1305  0.0760  1.0882
  862MOL0     H18901   3.106  -0.253   3.445 -1.5904  0.9323  0.1265
  862MOL0     H18902   3.068  -0.128   3.345 -0.3793  1.2787  1.3833
  862MOL0     H18903   3.058  -0.134   3.650 -3.8208 -1.0215  2.2665
  862MOL0     H18904   3.011   0.013   3.555  0.4528 -0.6222 -0.7457
  862MOL0     H18905   2.818  -0.081   3.322 -2.1132  2.8662  2.3705
  862MOL0     H18906   2.556  -0.088   3.302  0.8923  0.6362 -0.0294
  862MOL0     H18907   2.478  -0.181   3.428  0.5504 -0.8826  0.6632
  862MOL0     H18908   2.656  -0.287   3.199  2.0006 -0.5250  1.1787
  862MOL0     H18909   2.598  -0.389   3.320 -0.1662 -1.0072 -0.8766
  862MOL0     H18910   2.353  -0.308   3.252  2.2859  1.1436  1.3595
  862MOL0     H18911   2.427  -0.252   3.111  0.8310 -0.4897 -1.7794
  862MOL0     H18912   2.423  -0.534   3.233 -1.5474  1.2439  1.0903
  862MOL0     H18913   2.371  -0.477   3.066 -2.5511 -0.9585  1.9102
  862MOL0     H18914   2.767  -0.538   2.920 -1.6893  1.1211  2.4053
  862MOL0     H18915   2.883  -0.630   2.723  0.1714  1.1960  0.2656
  862MOL0     H18916   2.802  -0.744   2.630  0.2707  0.1413  0.3584
  862MOL0     H18917   2.899  -0.810   2.759 -5.0038 -4.2958  0.2670
  862MOL0     H18918   2.857  -1.107   2.534 -0.5531 -0.0545  0.7781
  862MOL0     H18919   2.866  -1.321   2.455  2.5332  2.0287  0.4390
  862MOL0     H18920   2.732  -1.558   2.387  1.0137  5.1411  2.0802
  862MOL0     H18921   2.894  -1.570   2.477  0.3204 -3.1638  0.9829
  862MOL0     H18922   2.866  -1.794   2.404  0.7859  0.7499 -0.2456
  862MOL0     H18923   2.828  -1.776   2.577 -2.9144 -0.5250  0.6135
  862MOL0     H18924   2.615  -1.777   2.343 -3.1788 -1.6934  1.5416
  862MOL0     H18925   2.588  -1.756   2.514  0.8025  0.2016  0.2387
  862MOL0     H18926   2.551  -1.996   2.439  0.2202  0.9460  0.2837
  862MOL0     H18927   2.663  -1.985   2.570 -1.4631 -2.4298 -0.9052
  862MOL0     H18928   2.851  -2.036   2.414  0.3766  0.4240 -0.4789
  862MOL0     H18929   2.721  -2.140   2.402 -0.5788  0.1914  2.6675
  862MOL0     H18930   2.785  -1.949   2.173 -0.5856 -1.0343 -3.0785
  862MOL0     H18931   2.621  -2.002   2.206 -0.7146 -0.9067  2.3781
  862MOL0     H18932   2.711  -2.245   2.178  0.2269 -0.8203 -1.5214
  862MOL0     H18933   2.874  -2.169   2.157  0.3720  3.0552  4.9461
  862MOL0     H18934   2.630  -2.098   1.986  1.8249  6.1373 -0.0348
  862MOL0     H18935   2.737  -2.242   1.964  1.2435  1.1520 -1.0778
  862MOL0     H18936   2.581  -1.441   2.769 -0.2727 -0.7531 -1.8193
  862MOL0     H18937   2.581  -1.216   2.839  2.0824  1.3710  0.4887
  862MOL0     H18938   2.403  -0.869   2.898 -2.2060  3.7036 -1.3822
  862MOL0     H18939   2.388  -0.701   3.055  1.0374  0.1284  2.0249
  862MOL0     H18940   3.343   0.390   3.001 -0.0800 -0.9232 -0.3295
  862MOL0     H18941   3.415   0.619   2.923  1.2805  0.0169 -0.7237
  862MOL0     H18942   3.567   0.850   2.541 -0.6230 -0.6788  1.6310
  862MOL0     H18943   3.604   1.113   2.483 -0.4871  2.4471  2.9428
  862MOL0     H18944   3.974   1.206   2.468  0.4049 -0.0532  2.3941
  862MOL0     H18945   3.810   1.228   2.395  1.4110  1.6155 -1.2279
  862MOL0     H18946   3.937   1.428   2.341 -1.2698  0.7436 -0.3800
  862MOL0     H18947   4.005   1.438   2.504  0.4304  0.0777  0.3858
  862MOL0     H18948   3.792   1.524   2.567 -0.4554  0.0179 -0.3187
  862MOL0     H18949   3.818   1.601   2.406 -0.9538 -0.0690 -0.2564
  862MOL0     H18950   3.592   1.546   2.441 -0.4943 -1.7655  0.8369
  862MOL0     H18951   3.621   1.387   2.486  0.2080  0.0266 -0.0452
  862MOL0     H18952   3.634   1.478   2.055 -1.6688 -1.6542 -0.4017
  862MOL0     H18953   3.941   1.108   2.752 -0.6640  3.4966 -3.0597
  862MOL0     H18954   3.885   0.743   2.845  1.9771 -1.0498 -0.1279
  862MOL0     H18955   4.032   0.843   2.775  0.3876 -4.2941  1.1233
  862MOL0     H18956   3.939   0.891   2.910  3.3969  1.3084 -0.4406
  863MOL0     O18957   1.162   3.303   7.447  0.0205  0.4656 -0.1762
  863MOL0     C18958   1.064   3.328   7.517  0.0157 -0.4901  0.1380
  863MOL0     O18959   1.053   3.313   7.649 -0.3648 -0.8392 -0.0578
  863MOL0     C18960   1.157   3.270   7.715  0.5470 -0.1854  0.2062
  863MOL0     C18961   1.155   3.148   7.788 -1.1875 -0.3742 -0.1473
  863MOL0     C18962   1.273   3.116   7.860  0.6257  0.3632 -0.3649
  863MOL0     C18963   1.385   3.202   7.875  0.2293 -0.6472 -0.3027
  863MOL0     O18964   1.484   3.166   7.964 -0.8581 -0.3785  0.4830
  863MOL0     C18965   1.614   3.238   7.950  0.5645 -0.0381 -0.7780
  863MOL0     C18966   1.628   3.357   8.051  0.8946  0.3908  0.3335
  863MOL0     C18967   1.754   3.443   8.039 -0.4917 -0.5749  0.6066
  863MOL0     C18968   1.811   3.513   8.160  0.4655 -0.4129  0.9705
  863MOL0     C18969   1.884   3.647   8.133  1.5354  0.0183  0.2281
  863MOL0     C18970   1.924   3.721   8.257  0.6853 -0.4971 -0.8782
  863MOL0     C18971   2.016   3.830   8.194 -0.1859 -0.3622 -0.7307
  863MOL0     C18972   2.035   3.939   8.288 -0.5727 -0.9602  0.1189
  863MOL0     N18973   2.096   3.903   8.416 -0.4614  0.9241  0.3129
  863MOL0     C18974   2.232   3.860   8.435  0.5885  0.0036 -0.9307
  863MOL0     C18975   2.236   3.823   8.563  0.0741  0.1487  0.5179
  863MOL0     C18976   2.351   3.749   8.641  0.6287  0.5584  0.6371
  863MOL0     C18977   2.410   3.616   8.585 -0.2562  0.5869  0.2765
  863MOL0     C18978   2.338   3.490   8.629 -0.0654  0.5015  0.7485
  863MOL0     C18979   2.395   3.430   8.756  0.5607 -0.6369 -0.4066
  863MOL0     O18980   2.497   3.336   8.745 -0.2401  0.4885  0.3514
  863MOL0     C18981   2.540   3.260   8.849  0.0550  0.0013 -0.0392
  863MOL0     C18982   2.612   3.148   8.833 -0.4101  0.1278 -0.5943
  863MOL0     C18983   2.670   3.077   8.937 -0.2683 -1.0749  0.1803
  863MOL0     C18984   2.752   2.951   8.908 -0.1106 -0.4709  1.2149
  863MOL0     C18985   2.651   3.118   9.074 -0.3645 -0.0797  0.3191
  863MOL0     C18986   2.701   3.031   9.200  0.8147 -0.4667 -0.5500
  863MOL0     O18987   2.796   2.931   9.189  0.2672 -0.3452 -0.7515
  863MOL0     C18988   2.818   2.858   9.299  0.0166  1.1567 -0.6071
  863MOL0     C18989   2.945   2.840   9.353 -0.1782  0.2523 -0.5342
  863MOL0     C18990   2.975   2.747   9.452  0.3691  0.4669  0.2133
  863MOL0     C18991   2.870   2.664   9.507 -0.8820  0.3572 -0.1398
  863MOL0     O18992   2.907   2.563   9.602 -0.1068  0.1840 -0.0053
  863MOL0     C18993   2.806   2.500   9.676 -0.2423  0.3822  0.8468
  863MOL0     C18994   2.851   2.453   9.813 -0.5673  1.1042  0.5710
  863MOL0     C18995   2.920   2.325   9.808 -0.1906  1.1932 -1.0936
  863MOL0     C18996   2.821   2.207   9.785 -0.6454  0.2348 -0.2709
  863MOL0     C18997   2.886   2.070   9.808  0.1402  0.2705  0.0208
  863MOL0     C18998   2.796   1.963   9.749 -0.4903  0.4696 -0.5550
  863MOL0     C18999   2.858   1.821   9.756 -0.6179 -0.5802 -0.5869
  863MOL0     C19000   2.857   1.751   9.622  0.9158  0.4888 -0.2068
  863MOL0    Cl19001   2.690   1.735   9.572 -0.5578  0.1772  0.5764
  863MOL0     C19002   2.742   2.688   9.453 -0.1419  0.2071  0.0500
  863MOL0     C19003   2.720   2.766   9.342  0.7053 -0.1392 -0.0240
  863MOL0     O19004   2.667   3.083   9.311  0.1737  0.1263  0.9152
  863MOL0     C19005   2.600   3.250   9.089  0.1376  0.2040 -1.1888
  863MOL0     C19006   2.541   3.317   8.980  0.3162  0.2757 -0.1680
  863MOL0     N19007   2.111   3.828   8.625 -0.2469 -0.8037 -0.7781
  863MOL0     N19008   2.025   3.878   8.532  0.1241 -0.4303  0.5904
  863MOL0     C19009   1.385   3.324   7.794 -1.4534 -0.4855  0.1830
  863MOL0     C19010   1.273   3.355   7.715 -0.0762  0.8006  0.4178
  863MOL0     C19011   0.929   3.366   7.451  0.2929 -0.6832  0.3611
  863MOL0     C19012   0.822   3.402   7.541 -0.6999 -0.2924 -0.5492
  863MOL0     C19013   0.691   3.424   7.503 -0.0368  0.2309 -0.2555
  863MOL0     C19014   0.664   3.407   7.364 -0.3856 -0.1243  0.6442
  863MOL0     O19015   0.540   3.441   7.331 -0.3036  0.1244  0.1542
  863MOL0     C19016   0.498   3.457   7.193 -0.2439  1.0712 -0.2211
  863MOL0     C19017   0.347   3.479   7.177  0.4391  0.1793 -0.4275
  863MOL0     C19018   0.251   3.365   7.220  0.9060  0.8358  0.3458
  863MOL0     C19019   0.275   3.239   7.120  0.7183 -0.6665 -0.2116
  863MOL0     C19020   0.199   3.131   7.177 -0.1913 -0.2505 -0.3804
  863MOL0     C19021   0.146   3.035   7.231  0.5031 -0.3475 -0.2362
  863MOL0     C19022   0.763   3.391   7.277  0.3135  0.2638  0.8623
  863MOL0     C19023   0.895   3.384   7.313  0.0699  0.0375  0.3210
  863MOL0     C19024   0.983   3.361   7.197  0.6722 -0.6756  0.1987
  863MOL0     H19025   1.069   3.083   7.792 -2.4340  1.2319  0.5106
  863MOL0     H19026   1.284   3.020   7.910  2.7333 -1.0894 -3.2678
  863MOL0     H19027   1.627   3.261   7.843 -0.2658 -0.6317 -1.0149
  863MOL0     H19028   1.684   3.163   7.989 -1.6812 -1.4086  0.8172
  863MOL0     H19029   1.545   3.423   8.025  1.2454  2.4259  3.7171
  863MOL0     H19030   1.608   3.335   8.156 -1.3662  5.4426  1.2570
  863MOL0     H19031   1.827   3.370   8.003  1.3800 -1.0433  4.6922
  863MOL0     H19032   1.723   3.513   7.961  1.0981 -1.8741 -1.2920
  863MOL0     H19033   1.721   3.530   8.220 -0.3358  0.2587 -0.3677
  863MOL0     H19034   1.875   3.431   8.192  0.7086  0.2761  2.3313
  863MOL0     H19035   1.821   3.710   8.070  1.5603 -3.1673 -3.3401
  863MOL0     H19036   1.965   3.603   8.074  0.3681 -3.5419  1.0813
  863MOL0     H19037   1.830   3.759   8.298  0.0776 -0.3817 -2.3188
  863MOL0     H19038   1.974   3.659   8.331 -1.8736 -0.3629  1.1001
  863MOL0     H19039   1.973   3.872   8.103  1.0605  0.6058 -0.8895
  863MOL0     H19040   2.115   3.787   8.175  0.8020  2.6927 -3.2342
  863MOL0     H19041   2.096   4.012   8.234 -1.3613 -0.7671 -0.5387
  863MOL0     H19042   1.940   3.992   8.307 -0.1520 -0.6301  1.3920
  863MOL0     H19043   2.305   3.844   8.357 -0.8695  3.3243 -3.2329
  863MOL0     H19044   2.308   3.734   8.740 -3.6151  4.7690 -0.1710
  863MOL0     H19045   2.422   3.830   8.661 -1.1653  2.2579  0.4731
  863MOL0     H19046   2.403   3.630   8.476  0.0103 -0.1361  0.1669
  863MOL0     H19047   2.518   3.606   8.596  0.1950  1.0022 -2.8526
  863MOL0     H19048   2.231   3.505   8.648 -0.1067 -0.5508  1.4217
  863MOL0     H19049   2.341   3.415   8.549  2.2742 -1.8341  2.8382
  863MOL0     H19050   2.435   3.515   8.812  1.6429 -1.7727  0.6064
  863MOL0     H19051   2.311   3.384   8.810  1.5826 -1.5044  0.4790
  863MOL0     H19052   2.622   3.124   8.728 -0.6848  0.1929 -0.6354
  863MOL0     H19053   2.783   2.938   8.804 -0.0005 -2.8023  1.4882
  863MOL0     H19054   2.695   2.862   8.938  0.5341 -2.4442 -2.7574
  863MOL0     H19055   2.855   2.959   8.942  1.2100  1.2861 -2.6523
  863MOL0     H19056   3.028   2.905   9.326 -0.5918  2.1130  2.2286
  863MOL0     H19057   3.081   2.737   9.476  0.1618  0.9114  1.3737
  863MOL0     H19058   2.721   2.564   9.699 -0.3038  0.8619 -0.6478
  863MOL0     H19059   2.768   2.412   9.623 -2.4030  0.1516  2.6571
  863MOL0     H19060   2.911   2.537   9.848 -2.3579  2.5369  0.3446
  863MOL0     H19061   2.767   2.434   9.880 -0.2649 -2.4916  0.1493
  863MOL0     H19062   2.957   2.294   9.907 -1.6291  1.9796 -0.2746
  863MOL0     H19063   2.996   2.311   9.731 -0.9163 -2.3719 -1.3498
  863MOL0     H19064   2.781   2.202   9.683 -2.0740  0.6908  0.2521
  863MOL0     H19065   2.735   2.217   9.852  0.3553 -0.0428  1.0965
  863MOL0     H19066   2.979   2.064   9.751  0.1458  3.0715 -0.4038
  863MOL0     H19067   2.903   2.045   9.913 -0.0856  0.8524  0.2003
  863MOL0     H19068   2.788   1.991   9.643  1.5450  0.6038 -0.6954
  863MOL0     H19069   2.696   1.953   9.793 -0.6617  0.0265 -1.0425
  863MOL0     H19070   2.810   1.754   9.829  2.3152 -0.4114  1.7113
  863MOL0     H19071   2.964   1.835   9.779 -0.8731  0.1328  0.1985
  863MOL0     H19072   2.906   1.655   9.639  0.0982  0.2295  0.8179
  863MOL0     H19073   2.908   1.811   9.546 -3.6946 -0.1465 -4.2848
  863MOL0     H19074   2.656   2.626   9.474 -1.3548  1.4878 -0.8849
  863MOL0     H19075   2.621   2.749   9.300  0.0612 -3.6850  2.4888
  863MOL0     H19076   2.599   3.291   9.189  0.8084  2.0124 -1.8801
  863MOL0     H19077   2.502   3.418   8.987  1.0004  0.4878  0.8960
  863MOL0     H19078   1.469   3.392   7.805 -1.1287 -0.8114 -0.2654
  863MOL0     H19079   1.278   3.443   7.651 -1.3297 -0.4758 -1.5728
  863MOL0     H19080   0.841   3.408   7.648  0.1146 -1.1534 -0.6320
  863MOL0     H19081   0.610   3.446   7.572 -1.1698 -1.9339 -0.8175
  863MOL0     H19082   0.542   3.550   7.156  0.2136  2.5906  3.6574
  863MOL0     H19083   0.520   3.364   7.140 -1.1702 -0.0329  1.2462
  863MOL0     H19084   0.329   3.501   7.072  0.1440 -2.0613 -0.8864
  863MOL0     H19085   0.310   3.557   7.244  0.2595 -1.3248  1.3072
  863MOL0     H19086   0.265   3.339   7.325 -0.6884 -0.8379  0.1891
  863MOL0     H19087   0.153   3.410   7.205  1.4360  1.7015 -0.6418
  863MOL0     H19088   0.382   3.218   7.117  1.5250  2.7125  0.1616
  863MOL0     H19089   0.250   3.252   7.015 -0.7929 -1.7327 -0.0066
  863MOL0     H19090   0.100   2.948   7.273  2.5922 -1.6020 -0.4137
  863MOL0     H19091   0.738   3.390   7.172 -1.3511  0.8844  1.2223
  863MOL0     H19092   0.971   3.428   7.111  2.5976 -0.4419  0.0734
  863MOL0     H19093   1.087   3.376   7.227  0.0005  1.3016  1.7460
  863MOL0     H19094   0.985   3.255   7.172 -0.4116 -1.0433  1.5936
  864MOL0     O19095   7.681  10.652   1.265  0.8786  0.0545 -0.3905
  864MOL0     C19096   7.751  10.645   1.363 -0.1551 -0.3550  0.3436
  864MOL0     O19097   7.736  10.738   1.471 -0.8128 -0.2481  0.8696
  864MOL0     C19098   7.665  10.843   1.431 -0.0900  0.1331  0.4928
  864MOL0     C19099   7.530  10.837   1.458 -0.4869  0.1098 -0.9449
  864MOL0     C19100   7.452  10.947   1.420  0.8437  0.5279  0.4341
  864MOL0     C19101   7.502  11.035   1.326  0.6920 -0.1930  0.1116
  864MOL0     O19102   7.417  11.115   1.255 -0.4236  0.0878  0.2750
  864MOL0     C19103   7.464  11.247   1.224 -1.5203 -0.4143  0.9744
  864MOL0     C19104   7.347  11.337   1.171 -0.6409 -0.1060 -0.2072
  864MOL0     C19105   7.310  11.316   1.017  0.4679 -0.0548  0.0059
  864MOL0     C19106   7.424  11.298   0.920  0.7382 -0.0632  0.3879
  864MOL0     C19107   7.361  11.268   0.777 -0.6309 -0.4593  0.2344
  864MOL0     C19108   7.471  11.232   0.671 -0.0826 -0.0772 -0.5637
  864MOL0     C19109   7.401  11.197   0.534  0.8136 -0.1480 -0.1328
  864MOL0     C19110   7.491  11.122   0.435 -0.8795 -0.1340 -1.3084
  864MOL0     N19111   7.615  11.193   0.404  0.0001 -0.0973 -0.5119
  864MOL0     C19112   7.626  11.315   0.334 -0.1558  0.4910  0.1296
  864MOL0     C19113   7.761  11.345   0.335  0.3900 -0.0655  0.4606
  864MOL0     C19114   7.829  11.469   0.268  0.0996  0.1119  0.7451
  864MOL0     C19115   7.908  11.442   0.141 -0.5615 -0.1726 -0.4447
  864MOL0     C19116   7.830  11.371   0.038 -0.3756  0.1060 -0.0135
  864MOL0     C19117   7.720  11.446  -0.027  1.1308 -0.1056  0.2864
  864MOL0     O19118   7.665  11.355  -0.122 -0.3098  0.0686  0.2696
  864MOL0     C19119   7.645  11.424  -0.245 -0.6536  0.1252 -0.3576
  864MOL0     C19120   7.752  11.445  -0.335 -1.0737  0.2467  0.7530
  864MOL0     C19121   7.737  11.522  -0.446  0.3353 -0.8709  0.8282
  864MOL0     C19122   7.867  11.547  -0.527  0.1182  1.2983  0.0404
  864MOL0     C19123   7.622  11.596  -0.473 -0.7531 -0.3390 -0.4517
  864MOL0     C19124   7.590  11.681  -0.588  0.0153 -0.6374  0.3464
  864MOL0     O19125   7.463  11.728  -0.601  0.1060  0.8485  0.6819
  864MOL0     C19126   7.445  11.815  -0.699  1.5473 -0.3546 -0.3761
  864MOL0     C19127   7.402  11.795  -0.838 -0.6032  0.2378  0.1888
  864MOL0     C19128   7.364  11.898  -0.920 -0.2882  0.3088  0.2348
  864MOL0     C19129   7.365  12.024  -0.880  0.2121  0.0108 -0.0291
  864MOL0     O19130   7.341  12.119  -0.975 -0.1875  0.2702 -0.4910
  864MOL0     C19131   7.299  12.247  -0.920  0.8534 -0.5106  0.1755
  864MOL0     C19132   7.233  12.337  -1.029  0.4106  0.1431  0.1989
  864MOL0     C19133   7.157  12.458  -0.994 -0.3194 -1.5168  1.0868
  864MOL0     C19134   7.035  12.438  -0.907 -0.2237 -0.0799 -1.1598
  864MOL0     C19135   6.934  12.548  -0.913  0.3656 -0.5037  0.5232
  864MOL0     C19136   6.969  12.658  -0.812  0.6650  0.6102  0.8338
  864MOL0     C19137   6.907  12.795  -0.855 -0.9224 -0.1425 -0.8989
  864MOL0     C19138   6.759  12.796  -0.828 -0.0971  0.1297  0.1478
  864MOL0    Cl19139   6.735  12.785  -0.651 -0.3850 -0.6566  0.3570
  864MOL0     C19140   7.409  12.053  -0.745  0.5416  0.4492 -0.0777
  864MOL0     C19141   7.438  11.948  -0.655 -0.0106  0.5970 -0.2479
  864MOL0     O19142   7.686  11.714  -0.660 -0.3111  0.4012 -0.2491
  864MOL0     C19143   7.516  11.576  -0.382 -0.2759 -1.0157 -1.0031
  864MOL0     C19144   7.521  11.485  -0.274 -0.8110  0.1522 -1.1859
  864MOL0     N19145   7.825  11.244   0.404 -0.6252 -0.1721  0.5877
  864MOL0     N19146   7.738  11.156   0.442 -0.0982  0.5915  0.1833
  864MOL0     C19147   7.642  11.039   1.301 -0.6424 -0.8626  0.1227
  864MOL0     C19148   7.721  10.944   1.364  0.1084 -0.2773 -0.1529
  864MOL0     C19149   7.846  10.522   1.373  1.3134 -0.8432  0.2175
  864MOL0     C19150   7.806  10.405   1.300  0.8964 -0.4893 -0.1933
  864MOL0     C19151   7.878  10.287   1.309 -0.2596 -0.1048  1.1985
  864MOL0     C19152   7.989  10.285   1.395  0.5819  0.2822 -0.0662
  864MOL0     O19153   8.054  10.165   1.414 -0.4801  0.4766 -0.3665
  864MOL0     C19154   8.067  10.115   1.549 -0.2094 -0.8570  0.7444
  864MOL0     C19155   8.052   9.962   1.549 -0.0635 -1.2292  1.0618
  864MOL0     C19156   8.103   9.899   1.684  0.0821 -0.6697 -0.0325
  864MOL0     C19157   8.105   9.745   1.654  0.0363  0.0409 -0.0868
  864MOL0     C19158   8.200   9.684   1.749  0.1259 -0.5694 -0.5294
  864MOL0     C19159   8.295   9.651   1.817  0.0569 -1.3654  0.2870
  864MOL0     C19160   8.030  10.402   1.461 -0.6158  0.1418  0.3968
  864MOL0     C19161   7.955  10.521   1.453 -1.5550 -0.0744  0.1320
  864MOL0     C19162   8.002  10.648   1.515  0.6698  0.6191 -0.0165
  864MOL0     H19163   7.495  10.755   1.520 -5.5675  2.1237 -0.6890
  864MOL0     H19164   7.348  10.941   1.451  0.9749 -4.7577  0.7058
  864MOL0     H19165   7.538  11.241   1.144 -2.1126 -1.1851  0.4584
  864MOL0     H19166   7.506  11.290   1.315 -1.2316  0.1546  0.5794
  864MOL0     H19167   7.265  11.336   1.243  0.1136 -0.0222  0.6778
  864MOL0     H19168   7.386  11.439   1.163 -4.5099  1.5320 -0.3794
  864MOL0     H19169   7.248  11.227   1.017 -1.7923  1.4233  1.1594
  864MOL0     H19170   7.237  11.392   0.988 -1.0793 -1.3506  0.4050
  864MOL0     H19171   7.472  11.396   0.913 -2.5258  1.9556  3.1124
  864MOL0     H19172   7.487  11.214   0.952  0.5937 -1.0278 -1.6975
  864MOL0     H19173   7.302  11.355   0.747  1.8164  1.6310  1.0657
  864MOL0     H19174   7.297  11.179   0.785 -0.0405 -0.9267 -0.1690
  864MOL0     H19175   7.535  11.320   0.662  1.8610 -1.4456 -1.0241
  864MOL0     H19176   7.537  11.147   0.693  0.8468  0.7307 -0.1644
  864MOL0     H19177   7.369  11.291   0.488 -1.3996 -1.0880 -0.6349
  864MOL0     H19178   7.305  11.148   0.548 -0.8505  2.4970 -1.3766
  864MOL0     H19179   7.512  11.023   0.475 -0.8601  0.4342  0.1250
  864MOL0     H19180   7.434  11.109   0.342 -0.0327  0.0834 -1.8675
  864MOL0     H19181   7.555  11.382   0.286  0.1587  0.7893  0.0800
  864MOL0     H19182   7.899  11.510   0.341 -0.5616 -1.6610  2.4666
  864MOL0     H19183   7.758  11.548   0.241  1.4414  0.5200 -1.9312
  864MOL0     H19184   7.960  11.534   0.113 -1.5646  0.1676 -1.2611
  864MOL0     H19185   7.984  11.366   0.160  0.1946 -0.0491 -2.6699
  864MOL0     H19186   7.889  11.344  -0.050 -1.6399 -3.6630  0.1103
  864MOL0     H19187   7.795  11.282   0.091 -1.3965  0.6182  0.1949
  864MOL0     H19188   7.646  11.465   0.052 -0.3132  0.1636 -1.0818
  864MOL0     H19189   7.753  11.543  -0.064  1.2325 -0.6152 -0.9916
  864MOL0     H19190   7.843  11.391  -0.312 -2.1115 -1.8177  0.2311
  864MOL0     H19191   7.841  11.512  -0.627  0.0544 -3.5472  1.5298
  864MOL0     H19192   7.952  11.488  -0.493 -0.1105  0.7572 -0.3240
  864MOL0     H19193   7.902  11.650  -0.511  2.9019  0.5443 -0.6710
  864MOL0     H19194   7.401  11.692  -0.872 -1.0399 -0.0958  1.1925
  864MOL0     H19195   7.344  11.865  -1.021  3.1386  0.3308 -0.5692
  864MOL0     H19196   7.216  12.217  -0.856  3.9108 -3.0221  3.3837
  864MOL0     H19197   7.379  12.299  -0.867 -1.4392  1.4684  1.9071
  864MOL0     H19198   7.312  12.383  -1.089  0.7284  1.9191  1.8805
  864MOL0     H19199   7.168  12.277  -1.093  0.7699 -1.2222  1.0564
  864MOL0     H19200   7.126  12.497  -1.092  1.0975  2.2171  1.9487
  864MOL0     H19201   7.225  12.527  -0.943 -0.7487 -3.0766  3.9390
  864MOL0     H19202   7.063  12.409  -0.806  2.4618  2.4423 -1.0539
  864MOL0     H19203   6.978  12.351  -0.940 -0.9279 -0.7335  1.5174
  864MOL0     H19204   6.942  12.596  -1.011  1.1479  1.4399  1.4968
  864MOL0     H19205   6.835  12.518  -0.875 -0.3210  1.0667  0.0600
  864MOL0     H19206   7.077  12.664  -0.803  0.5597  1.3591  1.8462
  864MOL0     H19207   6.937  12.644  -0.708 -0.2699  1.1751  0.6381
  864MOL0     H19208   6.938  12.815  -0.958  3.3402 -2.4003 -0.2965
  864MOL0     H19209   6.951  12.873  -0.792 -3.9016  1.7520 -0.9493
  864MOL0     H19210   6.710  12.717  -0.885 -1.5462 -0.2336  1.8081
  864MOL0     H19211   6.726  12.895  -0.859  0.4154  0.3397  0.2587
  864MOL0     H19212   7.411  12.158  -0.718  0.5423  0.1090  1.3045
  864MOL0     H19213   7.453  11.976  -0.552 -2.2341  0.6659  0.1056
  864MOL0     H19214   7.423  11.632  -0.381  0.5962  0.5593  1.1725
  864MOL0     H19215   7.444  11.480  -0.198  0.6099 -0.6119  0.2768
  864MOL0     H19216   7.688  11.109   1.233 -1.2416  0.1558  0.7363
  864MOL0     H19217   7.825  10.971   1.347  0.1560  0.0991  0.6728
  864MOL0     H19218   7.712  10.418   1.246  1.1485  2.0627 -0.1802
  864MOL0     H19219   7.850  10.205   1.244 -0.3863  0.9486 -0.1352
  864MOL0     H19220   8.167  10.142   1.582 -0.4836  1.7910 -0.3214
  864MOL0     H19221   8.000  10.167   1.619  0.9173  2.5338 -0.4894
  864MOL0     H19222   8.125   9.929   1.474  0.1007 -0.7683  1.0157
  864MOL0     H19223   7.947   9.946   1.525 -0.5530  2.4491  0.2235
  864MOL0     H19224   8.201   9.945   1.698 -0.2045 -0.7894  3.0452
  864MOL0     H19225   8.036   9.934   1.763  1.3341  2.2358 -0.1599
  864MOL0     H19226   8.144   9.733   1.552  0.6648  0.8498  0.0407
  864MOL0     H19227   8.005   9.703   1.667 -0.5032  0.9680 -1.0492
  864MOL0     H19228   8.385   9.620   1.865 -0.3781 -0.3529  1.8374
  864MOL0     H19229   8.124  10.385   1.512  1.6397 -0.7291 -3.5967
  864MOL0     H19230   7.999  10.728   1.441  1.0755 -0.5402 -1.3296
  864MOL0     H19231   7.935  10.663   1.600 -0.7667 -0.2299 -0.9546
  864MOL0     H19232   8.102  10.620   1.549 -0.0276  0.6447  2.2446
  865MOL0     O19233   9.256  10.872  10.263 -0.0999  0.2788 -0.0015
  865MOL0     C19234   9.229  10.964  10.183 -0.1631 -0.2075 -0.2500
  865MOL0     O19235   9.303  11.087  10.170 -0.2301 -0.2240 -0.1923
  865MOL0     C19236   9.423  11.106  10.230  0.4941 -0.1318  0.6876
  865MOL0     C19237   9.446  11.242  10.270 -0.1402 -0.0211 -0.1854
  865MOL0     C19238   9.551  11.281  10.354 -0.2314 -0.4099  0.1729
  865MOL0     C19239   9.643  11.187  10.392 -0.9500  0.2052  0.1103
  865MOL0     O19240   9.730  11.236  10.469  0.9207  0.1366 -1.0859
  865MOL0     C19241   9.681  11.247  10.608 -0.7042  0.2865 -0.1142
  865MOL0     C19242   9.671  11.111  10.682  0.3871 -0.3490 -0.2308
  865MOL0     C19243   9.802  11.045  10.686 -0.5770 -0.2938  0.6165
  865MOL0     C19244   9.794  10.922  10.780 -0.1456  0.3892  0.4982
  865MOL0     C19245   9.940  10.880  10.820 -0.3466  0.2807  0.3164
  865MOL0     C19246   9.938  10.762  10.921  0.0176  0.2990  0.2782
  865MOL0     C19247  10.077  10.687  10.917  0.0594 -0.2708 -0.9139
  865MOL0     C19248  10.110  10.594  11.042 -0.5652 -0.2423 -0.6033
  865MOL0     N19249  10.002  10.496  11.066  0.3973 -0.2390 -0.6987
  865MOL0     C19250   9.961  10.389  10.996  0.4741  0.1944 -0.3124
  865MOL0     C19251   9.886  10.313  11.077 -0.5482 -0.1221 -0.2317
  865MOL0     C19252   9.789  10.202  11.031 -0.3018  0.3032 -0.3651
  865MOL0     C19253   9.684  10.167  11.130 -0.7971 -0.2750  0.0296
  865MOL0     C19254   9.591  10.060  11.072 -0.0266  0.4299 -0.8448
  865MOL0     C19255   9.668   9.936  11.005 -0.4917  0.1493  0.9831
  865MOL0     O19256   9.558   9.852  10.969 -0.2227 -0.8508  0.3700
  865MOL0     C19257   9.493   9.779  11.062  0.1540 -0.3391 -0.0511
  865MOL0     C19258   9.361   9.753  11.038 -0.6309  0.0846 -0.6216
  865MOL0     C19259   9.285   9.666  11.113  0.2165 -0.3323 -0.2785
  865MOL0     C19260   9.144   9.634  11.075 -0.4574  0.2425 -0.3222
  865MOL0     C19261   9.349   9.608  11.231  0.1186  1.0631  0.1279
  865MOL0     C19262   9.282   9.504  11.314 -0.1426 -0.2334  0.1379
  865MOL0     O19263   9.298   9.531  11.448 -0.4733 -0.0799 -0.0528
  865MOL0     C19264   9.258   9.451  11.557 -0.1331 -0.8679  1.0237
  865MOL0     C19265   9.191   9.329  11.547  0.1753  1.0223 -0.5075
  865MOL0     C19266   9.155   9.259  11.665 -0.0775 -1.0425 -0.4679
  865MOL0     C19267   9.194   9.312  11.792 -0.2422 -0.3917 -0.2542
  865MOL0     O19268   9.160   9.243  11.906 -0.5958  0.1400  0.0026
  865MOL0     C19269   9.214   9.276  12.027  0.1005  0.4715 -0.0165
  865MOL0     C19270   9.173   9.167  12.129  0.5910 -0.8026 -0.1614
  865MOL0     C19271   9.050   9.213  12.210 -0.6724 -0.0541 -0.9052
  865MOL0     C19272   9.011   9.079  12.289  0.2897  0.0537 -0.5561
  865MOL0     C19273   8.906   9.106  12.396  0.6415 -0.6385  0.1365
  865MOL0     C19274   8.913   9.009  12.507 -0.1642  0.3637  0.9690
  865MOL0     C19275   8.831   9.059  12.624 -0.2045 -0.1334 -0.0179
  865MOL0     C19276   8.829   8.939  12.728 -0.2328 -0.9504 -0.8156
  865MOL0    Cl19277   8.752   8.985  12.883 -0.0873 -0.7515  0.2647
  865MOL0     C19278   9.253   9.436  11.795  0.0516 -0.0616 -0.4655
  865MOL0     C19279   9.290   9.504  11.675  0.7348  0.4305 -0.4179
  865MOL0     O19280   9.222   9.406  11.264 -0.1809 -0.4751  0.2238
  865MOL0     C19281   9.478   9.634  11.261 -0.5225  0.0470  0.3689
  865MOL0     C19282   9.550   9.728  11.187 -1.1638  0.6332  0.4854
  865MOL0     N19283   9.882  10.385  11.196 -0.7514  0.1615  0.4910
  865MOL0     N19284   9.947  10.487  11.185 -0.0101  0.1211  0.3269
  865MOL0     C19285   9.639  11.059  10.342 -0.1412  0.1024 -0.1498
  865MOL0     C19286   9.531  11.015  10.248 -0.9598 -0.5872 -1.3568
  865MOL0     C19287   9.095  10.954  10.105 -0.3721  0.1531  0.3167
  865MOL0     C19288   9.063  11.056  10.018  0.1169  0.5444  0.5334
  865MOL0     C19289   8.940  11.061   9.947  0.4147 -0.3481 -0.5434
  865MOL0     C19290   8.841  10.981   9.987  0.8479 -0.5543  0.2815
  865MOL0     O19291   8.716  10.974   9.936 -0.9037 -0.2400  0.0403
  865MOL0     C19292   8.677  11.073   9.832 -0.1058  0.4941  0.3482
  865MOL0     C19293   8.539  11.053   9.780  0.1571  0.2773  0.0222
  865MOL0     C19294   8.430  11.116   9.872 -0.0470 -0.6283  0.0086
  865MOL0     C19295   8.428  11.271   9.843 -0.3433  0.5138 -0.6972
  865MOL0     C19296   8.427  11.339   9.978 -0.6497 -0.4701 -1.0981
  865MOL0     C19297   8.428  11.397  10.082 -0.2458  0.4137 -0.0403
  865MOL0     C19298   8.866  10.883  10.085  0.1408  0.9765  0.1702
  865MOL0     C19299   8.992  10.857  10.136 -0.2923  0.9124 -0.1347
  865MOL0     C19300   9.025  10.723  10.187  0.3532 -0.2613 -0.5815
  865MOL0     H19301   9.379  11.327  10.259 -0.7670 -0.4461  0.2806
  865MOL0     H19302   9.559  11.381  10.396 -0.9675  0.3802 -1.4646
  865MOL0     H19303   9.585  11.300  10.610 -0.9082  0.0559 -2.0085
  865MOL0     H19304   9.746  11.311  10.667 -2.6286  0.9534  1.4038
  865MOL0     H19305   9.630  11.141  10.779  0.1622  2.8273 -1.1672
  865MOL0     H19306   9.591  11.053  10.635 -1.3790 -0.1055  2.2869
  865MOL0     H19307   9.822  11.006  10.586 -1.2592 -1.6480  0.9839
  865MOL0     H19308   9.872  11.122  10.719 -1.6541 -0.1617  2.7364
  865MOL0     H19309   9.741  10.947  10.872  1.0412  1.0237  1.0319
  865MOL0     H19310   9.737  10.854  10.717 -2.9397  1.8764  1.2525
  865MOL0     H19311  10.000  10.964  10.857  1.3019 -0.5137 -0.4678
  865MOL0     H19312   9.988  10.835  10.732 -2.5503 -1.7158  0.0183
  865MOL0     H19313   9.922  10.800  11.022  2.1525  3.5673 -0.4540
  865MOL0     H19314   9.857  10.694  10.891  1.2999 -1.1806  0.0116
  865MOL0     H19315  10.161  10.757  10.910 -1.6648  2.2799  1.5392
  865MOL0     H19316  10.075  10.621  10.830 -1.5250 -2.5729  0.7405
  865MOL0     H19317  10.203  10.538  11.028 -0.7941 -1.4903  2.2302
  865MOL0     H19318  10.127  10.647  11.135  0.2116 -1.3376 -0.0934
  865MOL0     H19319   9.985  10.383  10.890 -0.7312  0.1661 -0.6004
  865MOL0     H19320   9.844  10.111  11.006  1.0412  1.5980 -2.4482
  865MOL0     H19321   9.742  10.239  10.939 -2.9486  1.4078  1.3032
  865MOL0     H19322   9.724  10.139  11.228 -0.3409 -1.0395 -0.3626
  865MOL0     H19323   9.627  10.259  11.148 -4.6535 -2.3475 -0.7320
  865MOL0     H19324   9.522  10.023  11.148 -1.3630  0.8162 -1.8154
  865MOL0     H19325   9.521  10.100  10.998 -2.0066  0.3156  0.8835
  865MOL0     H19326   9.711   9.975  10.912  4.0572 -0.0840  2.7743
  865MOL0     H19327   9.739   9.877  11.063 -2.1205 -4.1590 -0.9981
  865MOL0     H19328   9.312   9.796  10.951 -0.8179  2.8408  0.7350
  865MOL0     H19329   9.084   9.645  11.166 -3.7675 -4.7227 -1.4796
  865MOL0     H19330   9.135   9.530  11.042 -0.3235  0.2137 -0.2645
  865MOL0     H19331   9.111   9.702  10.996  0.5474  0.1676 -0.8208
  865MOL0     H19332   9.157   9.282  11.456  1.0875  0.2889 -0.4909
  865MOL0     H19333   9.119   9.156  11.660 -1.2098 -0.7429  0.7809
  865MOL0     H19334   9.321   9.265  12.008  0.0659  0.9815 -0.5564
  865MOL0     H19335   9.187   9.377  12.058 -2.5496 -0.5858  1.4457
  865MOL0     H19336   9.172   9.067  12.086  3.4892 -1.6318  1.4431
  865MOL0     H19337   9.249   9.162  12.208  0.2529  1.8998  0.4440
  865MOL0     H19338   8.968   9.252  12.149  0.3275  0.0073 -2.2632
  865MOL0     H19339   9.075   9.292  12.281 -1.3459  0.0962 -0.8376
  865MOL0     H19340   9.106   9.055  12.337  0.3192  2.6333  0.8735
  865MOL0     H19341   8.989   8.994  12.223 -1.7596 -1.3348  1.7125
  865MOL0     H19342   8.934   9.204  12.435  4.0739 -0.6647 -1.9116
  865MOL0     H19343   8.807   9.107  12.349  0.4121  2.8803  0.3924
  865MOL0     H19344   9.014   8.995  12.547  0.0340  0.2830  0.4435
  865MOL0     H19345   8.864   8.917  12.475  0.5518  0.9667 -2.1730
  865MOL0     H19346   8.737   9.098  12.585 -1.2507 -1.6706  0.8684
  865MOL0     H19347   8.884   9.139  12.677 -0.8301  1.5629 -1.8300
  865MOL0     H19348   8.929   8.912  12.760  0.3232 -1.4944 -2.8509
  865MOL0     H19349   8.785   8.847  12.689  0.5070 -1.8805  0.4898
  865MOL0     H19350   9.275   9.488  11.888  0.1071  1.3371 -1.2322
  865MOL0     H19351   9.342   9.599  11.672  0.4883  0.6268  0.7751
  865MOL0     H19352   9.520   9.591  11.352 -2.9930  0.7473  1.9436
  865MOL0     H19353   9.657   9.740  11.199 -0.8477 -1.5465  0.2569
  865MOL0     H19354   9.712  10.979  10.346 -1.2165 -1.2349 -3.3790
  865MOL0     H19355   9.526  10.919  10.198 -2.7053 -0.1727 -2.0641
  865MOL0     H19356   9.143  11.123   9.989  0.6740 -1.8526 -4.3922
  865MOL0     H19357   8.919  11.140   9.876  0.1887 -0.6818 -0.8512
  865MOL0     H19358   8.690  11.173   9.872 -2.9423  1.1907 -0.2768
  865MOL0     H19359   8.741  11.066   9.744 -0.8129  1.9901 -0.3094
  865MOL0     H19360   8.508  10.950   9.760 -2.8927  1.0031  0.5293
  865MOL0     H19361   8.530  11.102   9.682 -0.8336 -1.3017 -0.7188
  865MOL0     H19362   8.332  11.074   9.847  0.6830 -2.4155 -0.0063
  865MOL0     H19363   8.435  11.095   9.979 -1.0484 -2.6785 -0.2897
  865MOL0     H19364   8.331  11.299   9.803 -0.7684  1.1508  0.7169
  865MOL0     H19365   8.518  11.311   9.794  1.9841 -1.7996  1.3666
  865MOL0     H19366   8.421  11.454  10.173 -1.3384  1.3601 -0.6930
  865MOL0     H19367   8.784  10.820  10.116  1.3142 -0.1700  1.0820
  865MOL0     H19368   8.933  10.663  10.187  0.7187 -0.8356 -0.2835
  865MOL0     H19369   9.100  10.672  10.125  0.1954  2.4445 -3.1922
  865MOL0     H19370   9.065  10.719  10.289  4.1764 -0.2645 -1.9308
  866MOL0     O19371   8.590   9.775   0.483  0.1831  0.4163  0.0689
  866MOL0     C19372   8.478   9.764   0.445 -0.3450  0.2564  1.0764
  866MOL0     O19373   8.403   9.872   0.403  0.0201  0.1386 -0.5890
  866MOL0     C19374   8.462   9.994   0.395  0.5018 -0.2828 -0.4031
  866MOL0     C19375   8.383  10.100   0.437 -0.7145  0.0511 -0.1364
  866MOL0     C19376   8.427  10.233   0.438  0.4054  0.8662  0.2215
  866MOL0     C19377   8.556  10.269   0.391  0.3708  0.2166 -0.0055
  866MOL0     O19378   8.595  10.400   0.403 -0.1292  0.6164  0.3341
  866MOL0     C19379   8.505  10.504   0.353  0.4475 -0.4514 -0.5902
  866MOL0     C19380   8.587  10.632   0.317 -0.4188  0.2139 -0.8331
  866MOL0     C19381   8.667  10.613   0.178 -0.5557  1.0298  0.4892
  866MOL0     C19382   8.781  10.512   0.196 -0.7527 -0.1759  0.4050
  866MOL0     C19383   8.891  10.518   0.091  0.4495 -0.3361  0.1786
  866MOL0     C19384   8.989  10.622   0.143  0.1950  0.2317 -0.2020
  866MOL0     C19385   9.092  10.645   0.028  0.1260 -0.2641 -0.1007
  866MOL0     C19386   9.190  10.751   0.084 -0.3936 -0.8773 -0.2178
  866MOL0     N19387   9.141  10.880   0.100 -0.5599 -0.2402 -0.3489
  866MOL0     C19388   9.112  10.933   0.231  0.0208  0.9957  0.2445
  866MOL0     C19389   9.058  11.047   0.209  0.7339  0.6990  0.9646
  866MOL0     C19390   9.023  11.138   0.333 -0.1684  0.7709  0.5027
  866MOL0     C19391   9.092  11.275   0.321  0.0732  0.8571 -0.6041
  866MOL0     C19392   9.247  11.253   0.315  0.0000  0.0465  0.0019
  866MOL0     C19393   9.338  11.368   0.345  0.0964 -0.0097 -0.0476
  866MOL0     O19394   9.468  11.318   0.360  0.2297  0.0971 -0.3948
  866MOL0     C19395   9.570  11.396   0.406  0.1762  0.0425 -0.2686
  866MOL0     C19396   9.694  11.346   0.403 -0.2768 -0.6898  0.8215
  866MOL0     C19397   9.808  11.403   0.452  0.0162 -0.1255 -1.3515
  866MOL0     C19398   9.924  11.306   0.465  0.3728 -0.9393  0.3405
  866MOL0     C19399   9.793  11.529   0.521  0.0041  0.4463  0.3516
  866MOL0     C19400   9.907  11.618   0.567 -0.1488  0.4064 -0.2214
  866MOL0     O19401   9.876  11.747   0.595 -0.6273 -0.7960 -0.0738
  866MOL0     C19402   9.989  11.828   0.618  0.6481 -0.0892  0.6411
  866MOL0     C19403  10.022  11.857   0.748 -0.8715  0.2384 -0.1682
  866MOL0     C19404  10.133  11.931   0.770 -0.5053  0.0365  0.6272
  866MOL0     C19405  10.223  11.974   0.670 -0.2001  0.9689 -0.4242
  866MOL0     O19406  10.340  12.042   0.709  0.1042 -0.6274  0.2560
  866MOL0     C19407  10.458  12.035   0.627  0.3791 -0.4158  0.3139
  866MOL0     C19408  10.578  12.081   0.705  0.3694  0.5769  0.1857
  866MOL0     C19409  10.673  11.968   0.767  0.7935 -0.4124 -0.1940
  866MOL0     C19410  10.802  12.020   0.829 -0.0886 -0.0383  0.7096
  866MOL0     C19411  10.881  11.902   0.890  0.5712 -0.5927  0.9411
  866MOL0     C19412  10.987  11.932   1.001  1.0317 -0.7143 -0.0341
  866MOL0     C19413  10.935  11.913   1.151 -0.9656 -0.0074  0.2300
  866MOL0     C19414  11.026  11.826   1.232  0.7903  0.2902 -0.2889
  866MOL0    Cl19415  11.198  11.882   1.221 -0.0717 -0.3282  0.3106
  866MOL0     C19416  10.178  11.957   0.539  0.6442 -0.0466  1.4558
  866MOL0     C19417  10.058  11.879   0.513 -0.3711 -0.6509  0.6045
  866MOL0     O19418  10.021  11.573   0.571 -0.2497  0.0623 -0.0657
  866MOL0     C19419   9.660  11.581   0.529 -0.0449  0.7923  0.0132
  866MOL0     C19420   9.547  11.513   0.476 -0.1010  0.1417 -0.6183
  866MOL0     N19421   9.054  11.075   0.074  0.2580  0.2810  0.6979
  866MOL0     N19422   9.097  10.965   0.011  0.3769 -0.9180  0.3144
  866MOL0     C19423   8.626  10.157   0.336  0.4899 -1.0661 -0.3039
  866MOL0     C19424   8.590  10.021   0.350  0.0758 -0.9195  1.0110
  866MOL0     C19425   8.404   9.636   0.441  0.9716  0.0419 -0.9671
  866MOL0     C19426   8.279   9.616   0.371 -0.3741 -0.5135 -0.5716
  866MOL0     C19427   8.210   9.491   0.363  0.1189 -0.0785 -0.8830
  866MOL0     C19428   8.266   9.374   0.417  0.3465  0.9243  0.1688
  866MOL0     O19429   8.196   9.250   0.412  0.3994  0.2961  0.0635
  866MOL0     C19430   8.189   9.180   0.537 -0.7318  0.0212 -0.1786
  866MOL0     C19431   8.268   9.044   0.531  0.5905  0.0437 -0.7508
  866MOL0     C19432   8.318   9.005   0.670  0.0512  0.6127 -0.6691
  866MOL0     C19433   8.387   8.867   0.670 -0.7874  0.6702 -0.9178
  866MOL0     C19434   8.299   8.764   0.623  0.6333 -0.0104 -0.4079
  866MOL0     C19435   8.236   8.673   0.571 -0.4584  0.3554 -1.1579
  866MOL0     C19436   8.397   9.388   0.464 -0.0915 -0.1675 -0.4422
  866MOL0     C19437   8.457   9.515   0.489  0.2174 -0.1444 -0.1262
  866MOL0     C19438   8.581   9.511   0.585  0.0832  0.6810  0.7366
  866MOL0     H19439   8.289  10.078   0.486 -0.6005  3.5036  1.9705
  866MOL0     H19440   8.373  10.320   0.474 -1.4797  1.3388 -3.3115
  866MOL0     H19441   8.427  10.540   0.421 -1.6401  0.3112 -3.2219
  866MOL0     H19442   8.455  10.471   0.262  0.3542  0.2016 -0.7816
  866MOL0     H19443   8.520  10.718   0.309 -1.7064 -0.3772  2.2318
  866MOL0     H19444   8.654  10.666   0.397 -0.4946 -2.4243  0.4799
  866MOL0     H19445   8.614  10.570   0.093  0.4374  0.1996  0.2694
  866MOL0     H19446   8.712  10.709   0.149  1.3519  0.5752  1.7761
  866MOL0     H19447   8.822  10.525   0.297  0.7271 -1.0975 -0.0410
  866MOL0     H19448   8.727  10.417   0.205 -1.1111 -0.1509 -1.2175
  866MOL0     H19449   8.857  10.545  -0.010 -2.8910 -1.3483  0.8924
  866MOL0     H19450   8.936  10.419   0.083  1.4679  0.0377  1.1161
  866MOL0     H19451   8.925  10.705   0.174 -0.3752 -0.6809  1.1438
  866MOL0     H19452   9.044  10.597   0.234  2.4899  1.8132 -1.0571
  866MOL0     H19453   9.051  10.694  -0.060  2.7540  1.3658 -0.5476
  866MOL0     H19454   9.143  10.552   0.004  0.3897 -0.1524  0.0181
  866MOL0     H19455   9.236  10.725   0.180 -2.9320  1.0032  1.6553
  866MOL0     H19456   9.278  10.763   0.021  0.6308  0.5065  1.3975
  866MOL0     H19457   9.138  10.885   0.325 -1.3316 -1.3667 -0.5018
  866MOL0     H19458   9.050  11.098   0.431  0.0369 -0.3545 -0.0061
  866MOL0     H19459   8.913  11.137   0.336 -0.2588 -2.5470 -0.2587
  866MOL0     H19460   9.051  11.311   0.226 -0.0334 -0.8677 -1.2490
  866MOL0     H19461   9.063  11.342   0.402  0.9718 -0.0498  0.4900
  866MOL0     H19462   9.271  11.160   0.368 -0.6643 -1.9500 -2.9625
  866MOL0     H19463   9.267  11.225   0.211  4.1831 -2.0669  1.1484
  866MOL0     H19464   9.330  11.445   0.268  1.7352 -2.1254 -2.5063
  866MOL0     H19465   9.308  11.417   0.439 -3.1296  2.1875 -2.0081
  866MOL0     H19466   9.698  11.247   0.359  2.6361  0.4373 -1.8125
  866MOL0     H19467  10.002  11.312   0.389  0.9786 -1.0071  0.9462
  866MOL0     H19468   9.893  11.201   0.461  1.8936 -1.4507  1.3654
  866MOL0     H19469   9.978  11.309   0.560 -1.4867 -2.4622  1.5258
  866MOL0     H19470   9.954  11.822   0.825  1.3627 -0.5667  1.5323
  866MOL0     H19471  10.147  11.957   0.874 -1.0091  0.6300  0.5589
  866MOL0     H19472  10.469  11.935   0.584 -1.2934 -0.0080 -1.2345
  866MOL0     H19473  10.444  12.100   0.539  1.8177 -3.4987 -2.4321
  866MOL0     H19474  10.639  12.143   0.639  3.0268  3.6716  4.9372
  866MOL0     H19475  10.552  12.143   0.792  1.2812  2.6492 -0.9534
  866MOL0     H19476  10.702  11.909   0.679  2.6070 -2.0485  1.4092
  866MOL0     H19477  10.619  11.906   0.839  2.4816  0.3429  1.8152
  866MOL0     H19478  10.771  12.085   0.912 -0.9203 -0.8125  1.0206
  866MOL0     H19479  10.860  12.077   0.756  0.5843  1.6898  2.4847
  866MOL0     H19480  10.819  11.822   0.930  2.2327 -1.0718  2.7222
  866MOL0     H19481  10.936  11.856   0.807  0.2790  0.9666 -0.1602
  866MOL0     H19482  11.029  12.033   0.998  0.6017 -0.5643 -1.2031
  866MOL0     H19483  11.065  11.857   0.982 -0.1314 -1.5399 -1.8342
  866MOL0     H19484  10.834  11.872   1.160 -1.1127  0.2050 -0.4288
  866MOL0     H19485  10.925  12.016   1.187  1.5576  1.0632 -1.7990
  866MOL0     H19486  11.022  11.724   1.191  0.6561  0.7366 -1.4169
  866MOL0     H19487  10.988  11.839   1.334  4.2590 -1.4935  1.3763
  866MOL0     H19488  10.244  11.987   0.458  0.7978 -3.5123  0.1122
  866MOL0     H19489  10.022  11.855   0.414 -2.4395 -1.0358  1.4088
  866MOL0     H19490   9.640  11.680   0.568 -2.1636 -0.5799  2.8231
  866MOL0     H19491   9.443  11.544   0.483 -0.3613 -1.0591  1.8174
  866MOL0     H19492   8.724  10.175   0.292  1.9956 -1.0962  2.8170
  866MOL0     H19493   8.652   9.943   0.306  1.5064 -0.7189  2.5759
  866MOL0     H19494   8.238   9.708   0.333 -0.9623  0.9638  3.2347
  866MOL0     H19495   8.114   9.470   0.316  1.0532 -3.0918 -1.6594
  866MOL0     H19496   8.244   9.236   0.613  0.7640  0.4717 -1.5342
  866MOL0     H19497   8.086   9.178   0.573 -1.7532  1.0659 -2.7461
  866MOL0     H19498   8.345   9.055   0.454  3.8453 -1.9079  1.9051
  866MOL0     H19499   8.195   8.967   0.507 -0.5926  0.1800  1.9951
  866MOL0     H19500   8.397   9.074   0.699  0.2530  0.7644 -1.5602
  866MOL0     H19501   8.240   8.994   0.746  2.6254 -1.0260  1.9414
  866MOL0     H19502   8.417   8.842   0.772  0.6697  0.0271 -1.4755
  866MOL0     H19503   8.474   8.875   0.605 -1.1377  0.4577 -1.4173
  866MOL0     H19504   8.189   8.590   0.521  1.5892  0.0698 -2.7271
  866MOL0     H19505   8.432   9.292   0.500  0.6736 -0.2606 -1.4052
  866MOL0     H19506   8.557   9.433   0.657 -1.2228 -0.0347 -0.4023
  866MOL0     H19507   8.667   9.479   0.525 -1.9795 -2.6440 -0.7767
  866MOL0     H19508   8.585   9.607   0.636  1.9015  1.1755 -0.2499
  867MOL0     O19509   6.331   7.032   9.060 -0.1314 -0.3770 -0.6508
  867MOL0     C19510   6.309   6.974   8.957 -0.2376 -1.2424  0.5777
  867MOL0     O19511   6.323   6.840   8.941  0.3298 -0.7887  0.6180
  867MOL0     C19512   6.402   6.779   9.031 -0.2773  0.9546  0.1440
  867MOL0     C19513   6.347   6.684   9.117  0.4213 -0.1110 -0.1039
  867MOL0     C19514   6.419   6.640   9.226  0.1544  0.2817  0.5293
  867MOL0     C19515   6.551   6.679   9.249  0.2761  0.7166  1.1112
  867MOL0     O19516   6.618   6.628   9.359  0.1980  0.1507  0.5504
  867MOL0     C19517   6.741   6.692   9.408 -0.4167 -0.6816  0.2119
  867MOL0     C19518   6.744   6.625   9.545 -0.3675  0.2116 -0.4695
  867MOL0     C19519   6.628   6.648   9.637 -0.2268  0.2263  1.3069
  867MOL0     C19520   6.622   6.550   9.751 -0.1487 -0.5668  0.2346
  867MOL0     C19521   6.480   6.527   9.792 -0.1217  0.3951  0.1182
  867MOL0     C19522   6.407   6.421   9.708 -0.2569  0.1269  0.0891
  867MOL0     C19523   6.268   6.398   9.767  0.6352  0.4092 -0.1273
  867MOL0     C19524   6.175   6.307   9.676 -0.5598 -0.0548 -0.0430
  867MOL0     N19525   6.227   6.168   9.686 -0.3673 -0.1643 -0.4954
  867MOL0     C19526   6.207   6.065   9.781 -0.1422  0.9802  0.7892
  867MOL0     C19527   6.303   5.984   9.757  0.4614  0.2777  0.0226
  867MOL0     C19528   6.307   5.865   9.846 -0.7906 -0.0762 -0.2607
  867MOL0     C19529   6.410   5.896   9.955  0.2329  0.3458 -0.1901
  867MOL0     C19530   6.368   5.833  10.092 -1.4315 -0.3632  0.1330
  867MOL0     C19531   6.421   5.694  10.102  0.1090  0.5583  0.0973
  867MOL0     O19532   6.377   5.606   9.994  0.4436  0.1639 -0.1655
  867MOL0     C19533   6.248   5.561   9.989  0.1488 -0.8117 -0.6964
  867MOL0     C19534   6.224   5.495   9.874  0.1047 -0.1563  0.3191
  867MOL0     C19535   6.093   5.455   9.832  1.1955  0.4988  0.2767
  867MOL0     C19536   6.080   5.385   9.692  0.6427  0.3677 -1.0923
  867MOL0     C19537   5.981   5.485   9.918 -0.1561  0.6329  0.0361
  867MOL0     C19538   5.840   5.447   9.875 -0.4823  0.1524  0.4838
  867MOL0     O19539   5.819   5.345   9.793 -1.1327  0.3129  0.4044
  867MOL0     C19540   5.693   5.307   9.746 -0.1451 -0.0876 -1.2187
  867MOL0     C19541   5.619   5.373   9.637 -0.6239 -0.9704 -0.0674
  867MOL0     C19542   5.493   5.326   9.599 -0.8106  0.6619 -0.2675
  867MOL0     C19543   5.424   5.222   9.672 -0.0609  0.3036 -0.2183
  867MOL0     O19544   5.293   5.201   9.643  0.2239  0.2268  0.3611
  867MOL0     C19545   5.226   5.134   9.750 -0.1497 -1.0465  1.1417
  867MOL0     C19546   5.073   5.141   9.729  0.1583 -0.4095 -0.1797
  867MOL0     C19547   4.986   5.075   9.844  0.5595 -0.0897  0.2674
  867MOL0     C19548   5.012   4.921   9.866  0.0834 -0.3971 -0.0202
  867MOL0     C19549   4.922   4.875   9.981 -0.5444  0.2650  0.6874
  867MOL0     C19550   4.943   4.722   9.996 -0.4104 -0.1275 -0.7164
  867MOL0     C19551   4.903   4.620   9.885 -0.9819  0.3722  0.9557
  867MOL0     C19552   4.887   4.484   9.971 -0.4547  1.2932  0.9523
  867MOL0    Cl19553   5.044   4.416  10.026 -0.0151 -0.0214 -0.0197
  867MOL0     C19554   5.495   5.157   9.776 -0.6339 -0.5952 -0.1900
  867MOL0     C19555   5.622   5.206   9.814  0.0147 -0.6972 -0.1025
  867MOL0     O19556   5.747   5.507   9.924 -0.7537  0.1268 -0.0970
  867MOL0     C19557   6.010   5.552  10.043 -0.2869  0.6221  0.4380
  867MOL0     C19558   6.142   5.585  10.073 -1.0908 -0.1699 -0.9682
  867MOL0     N19559   6.382   6.023   9.639  0.4305  0.7940 -0.5407
  867MOL0     N19560   6.323   6.130   9.596 -0.3391 -0.3327  0.0268
  867MOL0     C19561   6.606   6.769   9.167  0.0830 -0.1793  0.6636
  867MOL0     C19562   6.537   6.807   9.045  0.0652  0.6150  0.3263
  867MOL0     C19563   6.254   7.051   8.838  0.4064  0.7401  0.2258
  867MOL0     C19564   6.225   6.972   8.721  0.1891 -0.5516 -1.2214
  867MOL0     C19565   6.177   7.029   8.603  1.1708 -0.5123  0.0717
  867MOL0     C19566   6.152   7.167   8.593  0.2100  0.2683 -0.0975
  867MOL0     O19567   6.084   7.201   8.478 -0.3267  0.4185  0.1184
  867MOL0     C19568   6.063   7.342   8.463 -0.0786  0.7522 -0.0582
  867MOL0     C19569   6.023   7.388   8.327 -0.2396  1.1839  0.1931
  867MOL0     C19570   6.042   7.541   8.305 -1.3233 -0.7248  0.8463
  867MOL0     C19571   6.012   7.591   8.161  0.6178  0.0033 -0.2134
  867MOL0     C19572   5.866   7.585   8.132  1.0394  0.5379  0.5655
  867MOL0     C19573   5.754   7.584   8.087 -0.3699  0.0248  1.0872
  867MOL0     C19574   6.198   7.244   8.702  0.4699  0.3195  0.8015
  867MOL0     C19575   6.253   7.194   8.822  0.2287 -0.8107 -1.1049
  867MOL0     C19576   6.301   7.295   8.924  0.4276 -0.9155 -0.6278
  867MOL0     H19577   6.245   6.658   9.090  1.3688 -4.8392 -0.1112
  867MOL0     H19578   6.373   6.576   9.301 -0.2906  2.9208  2.6671
  867MOL0     H19579   6.732   6.800   9.417  0.6088 -0.5812  0.1222
  867MOL0     H19580   6.834   6.672   9.353 -0.6604 -1.5917  0.1042
  867MOL0     H19581   6.749   6.516   9.536 -0.7379 -0.2242  3.1153
  867MOL0     H19582   6.836   6.641   9.602  1.0209 -3.1628 -1.5220
  867MOL0     H19583   6.626   6.753   9.669  1.6919  0.1425  1.8546
  867MOL0     H19584   6.536   6.650   9.579  2.2239  1.5532 -2.9970
  867MOL0     H19585   6.674   6.457   9.726  1.5852  0.4238  0.0121
  867MOL0     H19586   6.664   6.607   9.835 -1.2529  1.6808 -0.6545
  867MOL0     H19587   6.421   6.619   9.802  1.5594  1.5599 -0.3268
  867MOL0     H19588   6.486   6.490   9.895 -0.5292  0.9351  0.3461
  867MOL0     H19589   6.405   6.456   9.604  0.8541  1.0222  0.3598
  867MOL0     H19590   6.461   6.326   9.701  1.0224  0.8818 -0.7563
  867MOL0     H19591   6.219   6.496   9.766  0.0234  0.1063 -0.6401
  867MOL0     H19592   6.271   6.358   9.869  0.3678 -0.1057 -0.3182
  867MOL0     H19593   6.070   6.306   9.706  0.4146  0.2652  3.9620
  867MOL0     H19594   6.191   6.367   9.586 -3.5716  0.5444 -0.2872
  867MOL0     H19595   6.137   6.072   9.864  0.4526 -0.0178  1.3990
  867MOL0     H19596   6.343   5.773   9.799  3.6218 -0.1861  2.6797
  867MOL0     H19597   6.213   5.838   9.894 -1.8544 -1.6212 -3.0081
  867MOL0     H19598   6.511   5.874   9.920  0.1563  1.0357 -0.8890
  867MOL0     H19599   6.422   6.004   9.970 -0.3808  0.6580 -1.7344
  867MOL0     H19600   6.419   5.901  10.162  0.6836  1.4158 -2.8767
  867MOL0     H19601   6.261   5.841  10.113 -1.5460 -0.7197 -0.3263
  867MOL0     H19602   6.528   5.709  10.091 -0.1081  0.9854 -1.8414
  867MOL0     H19603   6.403   5.654  10.202  1.2073  0.8786  0.4379
  867MOL0     H19604   6.309   5.496   9.806  0.1571  2.8930  0.2996
  867MOL0     H19605   6.010   5.427   9.619  3.3236  0.5740 -3.7390
  867MOL0     H19606   6.071   5.277   9.705 -0.5158  0.7498  2.4952
  867MOL0     H19607   6.180   5.390   9.647  0.8872  3.7772 -0.4905
  867MOL0     H19608   5.658   5.442   9.563  0.3921 -1.8908 -0.4271
  867MOL0     H19609   5.439   5.377   9.519  0.2500  1.0647 -0.7353
  867MOL0     H19610   5.258   5.029   9.752  2.3771 -0.3322  1.4172
  867MOL0     H19611   5.248   5.165   9.852  0.6829  0.1929  0.6084
  867MOL0     H19612   5.047   5.246   9.710  2.8281  0.1346 -1.3752
  867MOL0     H19613   5.038   5.093   9.637 -0.3432  0.1911 -0.3075
  867MOL0     H19614   4.879   5.093   9.834  0.3603  0.7114  3.1079
  867MOL0     H19615   4.999   5.129   9.938 -1.8448  0.0865  0.5444
  867MOL0     H19616   5.116   4.899   9.890 -0.1647 -2.0275 -0.3257
  867MOL0     H19617   4.985   4.873   9.772 -0.4812  0.3056 -0.2320
  867MOL0     H19618   4.928   4.938  10.071 -2.0735  1.4918 -0.0200
  867MOL0     H19619   4.818   4.884   9.950 -0.8356 -2.2471  0.7781
  867MOL0     H19620   4.875   4.708  10.081 -0.8290  4.2471 -0.1370
  867MOL0     H19621   5.048   4.701  10.020 -0.7827  0.7446  1.9623
  867MOL0     H19622   4.974   4.609   9.802 -0.7635  0.1178  1.1747
  867MOL0     H19623   4.811   4.655   9.838  1.4414  2.5812 -2.6460
  867MOL0     H19624   4.839   4.408   9.910  0.2785 -0.3299  2.3193
  867MOL0     H19625   4.819   4.502  10.055 -0.5368 -0.4813  1.2934
  867MOL0     H19626   5.449   5.085   9.843 -0.7860 -0.8385 -0.5497
  867MOL0     H19627   5.669   5.159   9.899 -1.9937 -3.0670 -0.2025
  867MOL0     H19628   5.934   5.581  10.114 -0.1748  0.0125  0.8159
  867MOL0     H19629   6.169   5.637  10.165  2.1151 -0.0301 -1.8560
  867MOL0     H19630   6.709   6.794   9.188  1.0708 -1.3948 -2.3597
  867MOL0     H19631   6.587   6.869   8.971 -0.7848  0.1857 -0.6253
  867MOL0     H19632   6.245   6.866   8.713  2.0250 -0.1277 -2.9507
  867MOL0     H19633   6.151   6.965   8.519 -2.8695  4.3696 -3.0058
  867MOL0     H19634   5.999   7.374   8.546 -3.4605 -0.7016 -1.9174
  867MOL0     H19635   6.161   7.389   8.474 -0.6425  1.5225  2.2250
  867MOL0     H19636   5.916   7.366   8.316  0.0759  0.0171 -0.6917
  867MOL0     H19637   6.086   7.335   8.255  2.0108  2.3101  1.2583
  867MOL0     H19638   5.973   7.605   8.361 -1.0355 -0.4714  0.9133
  867MOL0     H19639   6.147   7.560   8.331 -0.8086 -0.8784 -0.9853
  867MOL0     H19640   6.070   7.530   8.091 -0.9440 -0.4602 -1.1439
  867MOL0     H19641   6.043   7.696   8.162 -1.9198  0.8394 -1.5228
  867MOL0     H19642   5.661   7.603   8.038  0.9221 -0.5892 -1.8214
  867MOL0     H19643   6.193   7.348   8.672 -1.7034 -0.0656 -0.3789
  867MOL0     H19644   6.410   7.303   8.921  0.3128  0.9195 -1.4013
  867MOL0     H19645   6.259   7.394   8.907  0.9479 -0.6675 -0.4955
  867MOL0     H19646   6.260   7.274   9.023  1.6924  1.1120  0.3866
  868MOL0     O19647   9.719   4.304  10.172 -0.6059  0.1286  0.4853
  868MOL0     C19648   9.682   4.250  10.066  0.2719  0.3865 -0.4428
  868MOL0     O19649   9.559   4.277   9.997 -0.1224 -0.1629  0.0511
  868MOL0     C19650   9.504   4.391  10.035  0.5767 -0.0338 -0.0440
  868MOL0     C19651   9.568   4.519  10.005  0.3809  0.5922  0.3911
  868MOL0     C19652   9.527   4.644  10.069  0.0809 -0.4748  0.3196
  868MOL0     C19653   9.396   4.643  10.122 -0.2411 -0.2157  0.0277
  868MOL0     O19654   9.336   4.761  10.152 -0.5588  0.3999 -0.5268
  868MOL0     C19655   9.249   4.754  10.263  0.6480 -0.8783  0.2705
  868MOL0     C19656   9.292   4.871  10.349  0.4718  0.0940  0.3100
  868MOL0     C19657   9.264   5.022  10.308  0.2305 -0.5384  0.5104
  868MOL0     C19658   9.325   5.084  10.176 -0.7780  1.0148  0.9490
  868MOL0     C19659   9.272   5.221  10.164  0.2984  0.0312  0.8278
  868MOL0     C19660   9.303   5.323  10.280 -0.3516  0.1325  0.0808
  868MOL0     C19661   9.283   5.477  10.244  0.4880  0.4877 -0.1264
  868MOL0     C19662   9.385   5.567  10.313 -0.0091 -0.6715 -0.3132
  868MOL0     N19663   9.384   5.566  10.465  0.3512  0.6979  0.7577
  868MOL0     C19664   9.433   5.663  10.545 -0.5050 -0.1185 -0.2293
  868MOL0     C19665   9.393   5.632  10.672  0.4666  0.0039  0.1279
  868MOL0     C19666   9.390   5.725  10.783 -0.2451 -0.0073 -0.3176
  868MOL0     C19667   9.244   5.740  10.832  1.1903  0.2146 -0.6518
  868MOL0     C19668   9.223   5.829  10.957  0.3407  0.3161  0.6250
  868MOL0     C19669   9.083   5.830  11.016  0.3577  0.4690  0.7076
  868MOL0     O19670   9.051   5.703  11.080 -0.6005 -0.6530  0.0238
  868MOL0     C19671   8.916   5.665  11.079  0.1913 -0.4883  0.6603
  868MOL0     C19672   8.841   5.633  11.196 -0.2646  0.3736  0.9896
  868MOL0     C19673   8.703   5.595  11.182  0.2509  0.3149 -1.7626
  868MOL0     C19674   8.641   5.522  11.301  0.2059  0.1108  0.0828
  868MOL0     C19675   8.649   5.575  11.051  0.6830 -0.4205 -0.9425
  868MOL0     C19676   8.507   5.529  11.031  0.3954 -0.3233 -0.2224
  868MOL0     O19677   8.413   5.562  11.124  0.3791 -0.1195 -0.5549
  868MOL0     C19678   8.279   5.525  11.128  0.3938 -0.4825 -0.0346
  868MOL0     C19679   8.207   5.453  11.034  0.1284  0.1526  1.4193
  868MOL0     C19680   8.066   5.415  11.048  0.4344 -0.1293 -0.4642
  868MOL0     C19681   7.998   5.451  11.171  0.4170  0.3379 -0.3381
  868MOL0     O19682   7.869   5.411  11.206 -0.4234 -0.1629 -1.1070
  868MOL0     C19683   7.790   5.312  11.139 -0.8535  0.6804 -0.2963
  868MOL0     C19684   7.671   5.380  11.059  0.6242  0.6439 -0.6441
  868MOL0     C19685   7.567   5.459  11.133 -0.3510  0.7535  0.1046
  868MOL0     C19686   7.501   5.383  11.248 -0.9846  0.8669 -0.0513
  868MOL0     C19687   7.385   5.463  11.321 -0.6041 -0.2626 -0.1711
  868MOL0     C19688   7.330   5.402  11.442  0.4085 -0.3840  0.4121
  868MOL0     C19689   7.239   5.492  11.523 -0.2972 -0.5523 -0.3762
  868MOL0     C19690   7.140   5.415  11.618  0.3737 -0.1351  1.0822
  868MOL0    Cl19691   7.004   5.353  11.524 -0.1752 -0.0645 -0.0338
  868MOL0     C19692   8.070   5.530  11.269  0.1832 -0.3186  0.5865
  868MOL0     C19693   8.205   5.568  11.247  0.0762 -0.9017  1.0544
  868MOL0     O19694   8.486   5.488  10.919 -0.1529  0.6989 -0.8973
  868MOL0     C19695   8.726   5.607  10.936  0.2307 -0.6720 -0.2302
  868MOL0     C19696   8.852   5.656  10.952  0.4729 -0.0235  0.0469
  868MOL0     N19697   9.332   5.500  10.668  0.1909 -0.1496  0.2022
  868MOL0     N19698   9.332   5.463  10.542 -0.5436 -0.5920 -0.6976
  868MOL0     C19699   9.322   4.518  10.142  0.0380  0.0947 -0.2744
  868MOL0     C19700   9.377   4.397  10.095 -0.3889 -0.6072 -1.0610
  868MOL0     C19701   9.775   4.155   9.995  0.3129 -0.2066 -0.0190
  868MOL0     C19702   9.755   4.130   9.855  0.9176  1.6402 -0.3248
  868MOL0     C19703   9.840   4.049   9.775  1.5880  0.0808 -0.3112
  868MOL0     C19704   9.938   3.975   9.828  0.0009  0.0257  0.7038
  868MOL0     O19705  10.014   3.902   9.737 -0.1671 -0.0123  0.0352
  868MOL0     C19706  10.110   3.808   9.788 -1.2973  1.1957  0.0566
  868MOL0     C19707  10.186   3.749   9.672  0.5263 -0.5308 -0.2519
  868MOL0     C19708  10.093   3.650   9.603 -0.6310 -0.4398  0.4175
  868MOL0     C19709   9.951   3.687   9.553 -0.1324 -0.5844  0.1413
  868MOL0     C19710   9.960   3.808   9.468 -0.0668 -0.5612  0.0632
  868MOL0     C19711   9.935   3.907   9.408 -0.0428 -0.0202 -0.0603
  868MOL0     C19712   9.963   3.994   9.961  1.0376  0.0011 -0.3156
  868MOL0     C19713   9.886   4.078  10.047  0.1425 -0.8030 -0.3709
  868MOL0     C19714   9.924   4.110  10.190 -0.8359  0.0240  0.3200
  868MOL0     H19715   9.664   4.519   9.953  0.7570 -1.0737  1.0214
  868MOL0     H19716   9.577   4.740  10.070 -0.2716 -0.2938  0.7631
  868MOL0     H19717   9.257   4.665  10.325  2.2559 -0.7078  0.3488
  868MOL0     H19718   9.143   4.774  10.241  0.5648  1.0366  2.1040
  868MOL0     H19719   9.257   4.848  10.451  0.9999 -2.8694 -0.0868
  868MOL0     H19720   9.400   4.862  10.363  1.0034  4.2244  0.2173
  868MOL0     H19721   9.155   5.030  10.301  0.2093 -1.6437 -0.9353
  868MOL0     H19722   9.294   5.092  10.386 -0.3284  0.5287 -0.2076
  868MOL0     H19723   9.434   5.086  10.185 -0.7572  2.5445  0.6320
  868MOL0     H19724   9.286   5.032  10.088 -0.4360 -0.6090  1.7197
  868MOL0     H19725   9.165   5.215  10.144  0.5492 -2.8471 -0.2207
  868MOL0     H19726   9.319   5.249  10.069 -0.8697  2.1338  0.8078
  868MOL0     H19727   9.245   5.300  10.370  1.1950  0.8989  1.3212
  868MOL0     H19728   9.410   5.321  10.303  0.3619  1.2366 -2.6916
  868MOL0     H19729   9.179   5.490  10.277  1.8627  1.1133  4.6974
  868MOL0     H19730   9.291   5.491  10.136 -1.4904  1.6866 -0.1668
  868MOL0     H19731   9.487   5.538  10.285  1.5486  2.7779  1.1186
  868MOL0     H19732   9.382   5.671  10.277  1.4611 -0.7195 -0.6304
  868MOL0     H19733   9.473   5.758  10.511 -1.4784  0.2819 -0.2809
  868MOL0     H19734   9.442   5.815  10.747  0.6684 -1.2829 -2.3738
  868MOL0     H19735   9.458   5.698  10.864  0.2387 -0.5818 -0.9032
  868MOL0     H19736   9.181   5.773  10.749 -1.3529 -0.6743  0.8197
  868MOL0     H19737   9.202   5.642  10.856 -1.8371  1.4670 -0.5075
  868MOL0     H19738   9.277   5.784  11.040 -0.0568 -2.6291 -0.5863
  868MOL0     H19739   9.259   5.930  10.934 -0.6828  0.4774 -0.4166
  868MOL0     H19740   9.075   5.908  11.092  1.2392  0.4616  0.8179
  868MOL0     H19741   9.009   5.846  10.937  2.2234  0.5349 -1.1123
  868MOL0     H19742   8.888   5.633  11.294  0.1318 -2.0861  0.8783
  868MOL0     H19743   8.609   5.418  11.292 -0.2628 -0.0968  3.1965
  868MOL0     H19744   8.544   5.571  11.319 -0.8383 -2.0830  0.7654
  868MOL0     H19745   8.692   5.528  11.397 -1.2856  1.1214  0.8538
  868MOL0     H19746   8.252   5.423  10.940 -3.0363  0.4940 -0.3493
  868MOL0     H19747   8.012   5.363  10.970 -1.4468  0.1480  0.5904
  868MOL0     H19748   7.855   5.249  11.078 -1.1837 -2.2986  2.1671
  868MOL0     H19749   7.751   5.247  11.219  0.9857 -0.5178 -0.3146
  868MOL0     H19750   7.700   5.444  10.975 -1.0373  1.3403 -0.7335
  868MOL0     H19751   7.624   5.292  11.013  0.1441  1.1553 -1.1381
  868MOL0     H19752   7.484   5.496  11.072 -2.0979 -0.5313  1.5908
  868MOL0     H19753   7.616   5.544  11.180 -0.9612  0.6806  0.9038
  868MOL0     H19754   7.576   5.356  11.323 -0.6597 -1.1770 -1.0155
  868MOL0     H19755   7.462   5.290  11.205 -2.2251  2.8662 -3.6068
  868MOL0     H19756   7.437   5.551  11.359 -1.4295  0.1348  0.0544
  868MOL0     H19757   7.305   5.492  11.252 -1.0879 -3.6089 -1.2074
  868MOL0     H19758   7.405   5.344  11.498 -0.3471 -0.6432  1.1785
  868MOL0     H19759   7.263   5.329  11.397 -1.2654  0.6729  1.0714
  868MOL0     H19760   7.190   5.555  11.448 -3.7233 -3.9886 -1.3709
  868MOL0     H19761   7.305   5.552  11.587  0.6964 -0.5915 -1.3275
  868MOL0     H19762   7.082   5.477  11.687  0.7737  0.0203  1.2829
  868MOL0     H19763   7.186   5.338  11.681 -1.9728 -0.1381  2.9488
  868MOL0     H19764   8.028   5.574  11.358 -2.7735 -0.6073 -0.5645
  868MOL0     H19765   8.269   5.628  11.310 -0.1122 -1.6105  1.9310
  868MOL0     H19766   8.698   5.583  10.834 -0.1164 -2.2607  0.2041
  868MOL0     H19767   8.896   5.702  10.864  1.2092 -1.1335 -0.1912
  868MOL0     H19768   9.223   4.514  10.187 -0.2262  0.1024 -0.8470
  868MOL0     H19769   9.324   4.305  10.119  1.2224 -1.3839 -0.2689
  868MOL0     H19770   9.669   4.177   9.808  0.8110 -0.6959 -2.7628
  868MOL0     H19771   9.824   4.041   9.668  2.8323 -0.2634 -0.4905
  868MOL0     H19772  10.179   3.855   9.858 -0.8053  1.0722 -0.3382
  868MOL0     H19773  10.056   3.730   9.843 -0.2159  2.1850  2.6787
  868MOL0     H19774  10.276   3.694   9.700 -0.5013 -0.6869  3.2635
  868MOL0     H19775  10.230   3.832   9.615 -1.2401  1.6383  1.3375
  868MOL0     H19776  10.137   3.615   9.509 -1.1728 -1.6161  0.5833
  868MOL0     H19777  10.088   3.559   9.665 -2.3739 -0.5665  0.1648
  868MOL0     H19778   9.894   3.707   9.644  1.4537  0.6225  0.9245
  868MOL0     H19779   9.905   3.606   9.495 -0.7624  0.5649 -1.0042
  868MOL0     H19780   9.929   4.004   9.363  0.7366 -0.3426 -0.8716
  868MOL0     H19781  10.042   3.933  10.004  0.0815 -1.1818 -0.1982
  868MOL0     H19782  10.009   4.051  10.223 -0.4557  0.4925  0.1892
  868MOL0     H19783   9.960   4.213  10.198  0.0386  0.0557 -2.8111
  868MOL0     H19784   9.835   4.106  10.254 -1.4028 -1.6681 -0.5212
  869MOL0     O19785   4.439   7.909   4.379  0.0795 -0.5732  0.7979
  869MOL0     C19786   4.351   7.829   4.401  0.2383  1.0586  0.5152
  869MOL0     O19787   4.293   7.809   4.521  0.8165  0.3740 -0.6083
  869MOL0     C19788   4.298   7.904   4.618  0.4962 -0.0801  0.2853
  869MOL0     C19789   4.305   7.858   4.749  0.1141 -0.0866  0.1288
  869MOL0     C19790   4.305   7.949   4.856  0.2273  1.4178  0.3891
  869MOL0     C19791   4.291   8.093   4.837  0.4299  0.5293  0.2847
  869MOL0     O19792   4.273   8.185   4.943 -0.2880 -0.5218  0.7327
  869MOL0     C19793   4.377   8.172   5.036  0.2266 -0.2437 -0.1161
  869MOL0     C19794   4.323   8.243   5.170 -0.4739 -0.4812  0.5969
  869MOL0     C19795   4.316   8.400   5.148  0.8169 -0.4341 -0.0325
  869MOL0     C19796   4.323   8.496   5.263 -0.1416 -0.2253 -0.1934
  869MOL0     C19797   4.471   8.522   5.293  0.9540  0.2694 -1.5702
  869MOL0     C19798   4.551   8.580   5.168  0.0628 -0.1258 -1.1553
  869MOL0     C19799   4.482   8.685   5.085  0.9005  0.3042  0.3702
  869MOL0     C19800   4.458   8.814   5.155  0.2466 -0.2413  0.2427
  869MOL0     N19801   4.576   8.905   5.153 -1.0861 -0.1036 -0.4120
  869MOL0     C19802   4.673   8.896   5.247  0.4443 -0.8602 -0.6467
  869MOL0     C19803   4.773   8.982   5.209 -0.2587  0.5771 -0.3294
  869MOL0     C19804   4.895   8.991   5.303 -0.2891 -0.3893  0.4665
  869MOL0     C19805   5.001   8.872   5.281  0.2817 -0.6981 -0.2919
  869MOL0     C19806   5.140   8.881   5.355 -0.1223 -0.3174  0.5815
  869MOL0     C19807   5.222   8.748   5.338 -0.2451  0.9329 -0.0231
  869MOL0     O19808   5.345   8.754   5.411  0.2129 -0.0294  0.3525
  869MOL0     C19809   5.350   8.731   5.543  0.9859  0.0682 -0.2042
  869MOL0     C19810   5.250   8.657   5.619  0.1807 -0.4063  0.5869
  869MOL0     C19811   5.268   8.621   5.749 -0.0080  0.2661  0.0546
  869MOL0     C19812   5.163   8.533   5.812  0.1334  0.2125 -0.5775
  869MOL0     C19813   5.379   8.674   5.818  0.3243  0.5733  0.2617
  869MOL0     C19814   5.380   8.662   5.966 -0.3931  0.2581  0.6507
  869MOL0     O19815   5.498   8.644   6.020 -0.3481  0.2627 -0.7197
  869MOL0     C19816   5.515   8.592   6.151  0.2399 -0.1128  0.9124
  869MOL0     C19817   5.559   8.462   6.170 -0.0660  0.7024 -0.3710
  869MOL0     C19818   5.550   8.415   6.302  0.4811  0.8985 -0.1372
  869MOL0     C19819   5.498   8.489   6.415 -0.0365  0.2245  0.2993
  869MOL0     O19820   5.478   8.421   6.532 -0.5873 -0.0441  0.6648
  869MOL0     C19821   5.380   8.488   6.619  0.4388  0.0071  0.0891
  869MOL0     C19822   5.326   8.394   6.739 -0.3905  0.1181  0.7664
  869MOL0     C19823   5.215   8.294   6.700  0.2909 -0.9005  0.0942
  869MOL0     C19824   5.132   8.228   6.818  0.7106 -0.5454  0.6250
  869MOL0     C19825   5.233   8.167   6.917  0.9910  0.2772  0.4494
  869MOL0     C19826   5.158   8.082   7.014  0.1757 -0.6727  0.3520
  869MOL0     C19827   5.256   8.007   7.105 -0.3360  0.2950  0.0933
  869MOL0     C19828   5.198   7.877   7.180  0.9261 -0.1515 -0.3918
  869MOL0    Cl19829   5.086   7.920   7.313 -0.5555  0.8513 -0.0867
  869MOL0     C19830   5.462   8.620   6.387  0.6211 -0.8742 -0.0212
  869MOL0     C19831   5.468   8.665   6.263 -0.2865  0.4970 -0.1674
  869MOL0     O19832   5.276   8.677   6.029  0.4606  0.5177 -0.3947
  869MOL0     C19833   5.471   8.738   5.746 -1.1404  0.5732  0.1364
  869MOL0     C19834   5.457   8.778   5.616  1.4405  0.2543  0.7249
  869MOL0     N19835   4.735   9.041   5.091 -0.5698 -0.4805  0.5874
  869MOL0     N19836   4.611   9.008   5.063  0.1922 -0.1072  0.0420
  869MOL0     C19837   4.300   8.137   4.708  1.0242  0.7128  0.5985
  869MOL0     C19838   4.311   8.043   4.603 -0.4464  0.5429 -0.1615
  869MOL0     C19839   4.288   7.753   4.293  0.5754  0.0510 -0.0776
  869MOL0     C19840   4.165   7.690   4.312  0.7135 -0.9019  0.0186
  869MOL0     C19841   4.089   7.621   4.210  0.1268  0.7753 -0.3343
  869MOL0     C19842   4.143   7.610   4.087 -0.0526 -0.5326  0.0330
  869MOL0     O19843   4.081   7.539   4.001  0.7166  0.5318 -0.0922
  869MOL0     C19844   4.117   7.397   3.981  0.3422  0.5259 -0.1909
  869MOL0     C19845   4.100   7.383   3.834 -0.1398  0.0815 -0.4347
  869MOL0     C19846   3.963   7.332   3.793  0.2066 -0.8288  0.0986
  869MOL0     C19847   3.947   7.324   3.645  0.4377  0.7943  0.6027
  869MOL0     C19848   3.833   7.237   3.627  0.9253  0.1198  0.1516
  869MOL0     C19849   3.733   7.161   3.614 -0.1751 -0.4641  0.3805
  869MOL0     C19850   4.274   7.668   4.063  0.1214 -0.1245 -0.0110
  869MOL0     C19851   4.349   7.732   4.163  1.4921  0.3621 -2.2575
  869MOL0     C19852   4.479   7.787   4.126  0.3213  0.4638  0.3959
  869MOL0     H19853   4.321   7.751   4.755  1.9536 -0.0026 -1.8825
  869MOL0     H19854   4.320   7.893   4.949  4.2857 -3.4322 -2.6719
  869MOL0     H19855   4.474   8.210   5.003  1.7693  0.0150  4.1540
  869MOL0     H19856   4.387   8.067   5.062 -3.2402 -0.0607  2.9254
  869MOL0     H19857   4.232   8.185   5.187 -1.1934 -0.1467 -1.6946
  869MOL0     H19858   4.403   8.229   5.243  2.6210 -4.3796 -2.9835
  869MOL0     H19859   4.383   8.419   5.064  1.0834 -2.5149 -0.3615
  869MOL0     H19860   4.213   8.410   5.111  0.9087 -4.0618 -1.7265
  869MOL0     H19861   4.274   8.589   5.233 -2.0799 -0.8513  0.8239
  869MOL0     H19862   4.274   8.464   5.356  0.1647 -1.7257 -0.5137
  869MOL0     H19863   4.516   8.429   5.331  1.6513  1.4578  0.6707
  869MOL0     H19864   4.489   8.597   5.370 -0.7582 -1.1435  0.3049
  869MOL0     H19865   4.648   8.625   5.190 -0.7302  0.2584  1.9474
  869MOL0     H19866   4.563   8.495   5.101  1.3553 -1.3318  0.5245
  869MOL0     H19867   4.388   8.636   5.058  1.8992 -2.7200  2.0120
  869MOL0     H19868   4.551   8.708   5.003 -0.5126  0.7664 -0.7439
  869MOL0     H19869   4.382   8.865   5.095  1.3753 -0.0849 -1.0903
  869MOL0     H19870   4.408   8.796   5.251  0.0800 -0.3014  0.1468
  869MOL0     H19871   4.668   8.830   5.333 -1.6074 -1.5660 -1.2490
  869MOL0     H19872   4.854   9.001   5.403  1.2441  1.7681  0.9439
  869MOL0     H19873   4.942   9.087   5.278 -0.6785 -0.1822  0.5236
  869MOL0     H19874   4.953   8.781   5.319 -1.9912  1.5683  2.7872
  869MOL0     H19875   5.028   8.847   5.178 -2.3612 -1.4408 -0.8789
  869MOL0     H19876   5.192   8.966   5.311 -1.8658 -0.5683 -2.2186
  869MOL0     H19877   5.122   8.911   5.459  4.0182  0.3379  1.2705
  869MOL0     H19878   5.160   8.662   5.366  1.6692 -0.0427  1.4379
  869MOL0     H19879   5.246   8.732   5.233 -1.2130  0.4755 -0.1887
  869MOL0     H19880   5.166   8.612   5.569 -1.4545  2.5866  0.4010
  869MOL0     H19881   5.113   8.586   5.894  1.0153 -1.7736  1.3563
  869MOL0     H19882   5.221   8.449   5.853 -0.1484  0.2310 -0.1278
  869MOL0     H19883   5.081   8.502   5.747  0.2676 -3.9679  0.9338
  869MOL0     H19884   5.596   8.396   6.092  1.1503 -0.3530  1.0363
  869MOL0     H19885   5.580   8.311   6.314  0.9708  1.0177 -0.3250
  869MOL0     H19886   5.423   8.581   6.658 -0.4330  0.2950  0.3927
  869MOL0     H19887   5.287   8.526   6.574  1.7462  2.1857 -0.9477
  869MOL0     H19888   5.410   8.334   6.775  0.5409 -0.6002 -2.3362
  869MOL0     H19889   5.292   8.461   6.819  0.8915 -0.4600  1.8315
  869MOL0     H19890   5.265   8.214   6.644  2.3920 -0.2980  0.9866
  869MOL0     H19891   5.140   8.343   6.638  1.0805  1.1485  0.6770
  869MOL0     H19892   5.070   8.148   6.775 -0.3074 -0.4199  1.8172
  869MOL0     H19893   5.070   8.304   6.868 -1.2502 -1.4547 -0.2967
  869MOL0     H19894   5.304   8.104   6.862 -0.7674 -0.4817 -1.0306
  869MOL0     H19895   5.283   8.250   6.968 -2.6002  1.9609  1.5069
  869MOL0     H19896   5.104   8.012   6.949  0.9451 -3.4024  2.4749
  869MOL0     H19897   5.080   8.137   7.067  1.6001  0.9153  0.8855
  869MOL0     H19898   5.284   8.072   7.188  0.4979 -0.1481  0.1677
  869MOL0     H19899   5.343   7.967   7.052  1.3300  0.5928  2.4542
  869MOL0     H19900   5.284   7.828   7.228 -0.4972 -1.4334  0.9660
  869MOL0     H19901   5.153   7.804   7.111 -1.5934 -0.1795  1.1523
  869MOL0     H19902   5.441   8.697   6.461  2.2481 -1.3736  1.0149
  869MOL0     H19903   5.427   8.765   6.261  0.7113  1.0098  2.0575
  869MOL0     H19904   5.555   8.774   5.804  0.4846 -0.3053 -1.5665
  869MOL0     H19905   5.536   8.849   5.591  1.0662  1.5143  2.8952
  869MOL0     H19906   4.284   8.242   4.685 -1.1082 -0.1402 -2.3453
  869MOL0     H19907   4.321   8.097   4.509  1.6598  0.1088 -0.2457
  869MOL0     H19908   4.113   7.690   4.408  0.6716 -2.4724  0.0233
  869MOL0     H19909   3.999   7.565   4.230  0.3330  1.2456  2.1929
  869MOL0     H19910   4.218   7.369   4.014 -0.7852 -0.7490  2.4873
  869MOL0     H19911   4.055   7.324   4.035  0.4536  2.7370  3.2567
  869MOL0     H19912   4.176   7.309   3.807  1.4058  1.0457  1.0464
  869MOL0     H19913   4.135   7.476   3.788  1.6307 -0.4602 -0.2712
  869MOL0     H19914   3.939   7.240   3.849  1.7773 -1.2488  0.1402
  869MOL0     H19915   3.885   7.401   3.827 -0.8311 -1.8391 -0.1551
  869MOL0     H19916   4.043   7.277   3.620 -0.4984 -0.3895 -1.0315
  869MOL0     H19917   3.941   7.423   3.600  2.3633  0.3284 -0.8471
  869MOL0     H19918   3.643   7.103   3.606 -0.1064 -0.8729  2.2062
  869MOL0     H19919   4.319   7.657   3.965  1.0071 -0.4590  0.4291
  869MOL0     H19920   4.476   7.891   4.159 -1.1636 -0.0930  2.2097
  869MOL0     H19921   4.569   7.744   4.172  0.2409 -2.1523 -1.6757
  869MOL0     H19922   4.489   7.778   4.018  0.2826  3.4457  0.0686
  870MOL0     O19923   3.000   6.279   1.403  0.5888 -0.4498 -0.3427
  870MOL0     C19924   2.896   6.275   1.471 -0.7324 -0.5355  0.7531
  870MOL0     O19925   2.772   6.245   1.420 -0.3026  0.4701  0.6252
  870MOL0     C19926   2.755   6.194   1.292  0.1934 -0.0368 -0.4269
  870MOL0     C19927   2.638   6.229   1.222 -1.0769 -0.3714 -0.1424
  870MOL0     C19928   2.612   6.184   1.090  0.5327  0.1362  0.2763
  870MOL0     C19929   2.698   6.096   1.022  1.1819 -0.0126  0.1784
  870MOL0     O19930   2.684   6.041   0.901  0.2321 -0.0945 -0.3544
  870MOL0     C19931   2.549   6.052   0.847 -0.5236 -0.3802 -0.0404
  870MOL0     C19932   2.516   5.995   0.707 -0.1798  0.2084 -0.0156
  870MOL0     C19933   2.534   6.098   0.586 -0.4817  0.0301 -0.9458
  870MOL0     C19934   2.618   6.045   0.468  0.0626 -0.3798 -0.6074
  870MOL0     C19935   2.713   6.155   0.414 -0.3224 -1.0203  0.0780
  870MOL0     C19936   2.750   6.123   0.271 -1.1852 -0.8390  1.0683
  870MOL0     C19937   2.803   6.250   0.203  0.4826  0.8575  1.0763
  870MOL0     C19938   2.687   6.327   0.121 -0.2265  0.2400  0.2168
  870MOL0     N19939   2.630   6.263   0.000 -0.2830 -0.0280 -0.1622
  870MOL0     C19940   2.492   6.239  -0.025 -0.7263 -0.1725 -0.4061
  870MOL0     C19941   2.497   6.161  -0.135 -0.3276  0.6922 -0.4005
  870MOL0     C19942   2.382   6.092  -0.190 -0.8118 -0.6321 -0.3336
  870MOL0     C19943   2.326   6.006  -0.075 -0.2291 -0.4534  0.4963
  870MOL0     C19944   2.186   6.066  -0.024 -0.5527  0.6391 -0.3900
  870MOL0     C19945   2.140   5.986   0.103 -0.2925 -0.6590  0.2454
  870MOL0     O19946   2.219   6.012   0.221 -0.2656 -0.9501  0.3286
  870MOL0     C19947   2.241   5.909   0.311 -0.5280 -0.0280  0.9083
  870MOL0     C19948   2.194   5.922   0.440 -0.2188 -0.6398 -0.5843
  870MOL0     C19949   2.204   5.827   0.535  0.3769  0.6420 -0.4636
  870MOL0     C19950   2.103   5.829   0.648 -0.0086 -1.6483 -0.1012
  870MOL0     C19951   2.307   5.727   0.515  0.7977  0.4502 -0.2955
  870MOL0     C19952   2.347   5.629   0.626 -0.4296 -0.7298 -0.0491
  870MOL0     O19953   2.340   5.667   0.753  0.0061  0.4454  0.4665
  870MOL0     C19954   2.376   5.584   0.854 -0.5454 -0.4093  0.1767
  870MOL0     C19955   2.284   5.577   0.968 -0.2349  0.2694 -0.3474
  870MOL0     C19956   2.314   5.516   1.090 -0.1142  0.4938 -0.7097
  870MOL0     C19957   2.436   5.456   1.107 -1.0269 -0.8251 -0.5100
  870MOL0     O19958   2.490   5.394   1.215  0.0595 -0.4325  0.1463
  870MOL0     C19959   2.392   5.302   1.276 -0.3383  0.0094 -0.6128
  870MOL0     C19960   2.455   5.215   1.388  0.0344  0.2349  0.6953
  870MOL0     C19961   2.357   5.185   1.505 -0.6476  0.4258 -0.8211
  870MOL0     C19962   2.431   5.114   1.622  0.5997  0.0020 -0.3117
  870MOL0     C19963   2.355   5.098   1.746  0.8644  0.0856  0.2119
  870MOL0     C19964   2.299   4.955   1.751  0.2018 -0.0264 -0.2080
  870MOL0     C19965   2.215   4.914   1.880  0.5351 -0.5282  0.3312
  870MOL0     C19966   2.289   4.901   2.012 -1.1102  0.7267 -1.2063
  870MOL0    Cl19967   2.204   4.784   2.115  0.0154  0.2012 -0.1684
  870MOL0     C19968   2.538   5.472   1.004  0.6522  0.8868 -0.3044
  870MOL0     C19969   2.510   5.535   0.887 -0.2297  0.2205  0.2128
  870MOL0     O19970   2.405   5.533   0.578 -0.3928  0.3479 -0.5314
  870MOL0     C19971   2.349   5.709   0.381  0.0304 -0.2238 -0.6915
  870MOL0     C19972   2.326   5.800   0.280  0.3477  0.1614  0.8153
  870MOL0     N19973   2.624   6.148  -0.191  0.2221  0.9865  0.3332
  870MOL0     N19974   2.694   6.221  -0.115  0.4311 -0.3641 -0.9370
  870MOL0     C19975   2.803   6.049   1.100 -0.8486 -0.6816 -0.3917
  870MOL0     C19976   2.837   6.101   1.232  0.2160  0.6038 -0.0674
  870MOL0     C19977   2.909   6.317   1.603  0.4235  0.4207  0.1566
  870MOL0     C19978   2.796   6.374   1.672 -0.7829  0.3645 -0.0604
  870MOL0     C19979   2.818   6.397   1.811 -0.0837 -0.1307 -0.1923
  870MOL0     C19980   2.939   6.375   1.878  0.9059 -0.3909 -0.3277
  870MOL0     O19981   2.939   6.400   2.017 -0.0316  0.1636  0.5728
  870MOL0     C19982   3.054   6.454   2.082 -0.9661  0.3726 -0.2890
  870MOL0     C19983   3.003   6.502   2.213 -0.7505  0.5931  0.2769
  870MOL0     C19984   2.878   6.586   2.204  1.1821  0.0666  0.6835
  870MOL0     C19985   2.860   6.679   2.329  0.7840 -0.5259 -0.0842
  870MOL0     C19986   2.787   6.803   2.300  0.6015 -0.2235  0.7869
  870MOL0     C19987   2.737   6.916   2.288 -0.9153 -0.5844  0.6947
  870MOL0     C19988   3.051   6.335   1.814 -0.3780  0.4544  1.4980
  870MOL0     C19989   3.036   6.288   1.680 -0.4469 -0.5278  0.6005
  870MOL0     C19990   3.163   6.214   1.627  0.4019  0.4625  0.2741
  870MOL0     H19991   2.561   6.291   1.268  0.3933  0.3812  1.4003
  870MOL0     H19992   2.522   6.219   1.040  0.4337  0.7886  0.8927
  870MOL0     H19993   2.499   6.149   0.851 -0.5159 -0.4217  1.6574
  870MOL0     H19994   2.494   5.982   0.910  0.7728  0.8160  2.5969
  870MOL0     H19995   2.580   5.907   0.693  2.7025  2.1913 -0.1733
  870MOL0     H19996   2.408   5.978   0.705 -0.2799  0.8888 -0.7081
  870MOL0     H19997   2.439   6.144   0.561 -0.3864  1.7843  1.5711
  870MOL0     H19998   2.598   6.176   0.630 -1.0464 -0.7444  1.4047
  870MOL0     H19999   2.667   5.948   0.481 -4.4826 -2.9968 -0.6332
  870MOL0     H20000   2.544   6.020   0.391 -1.4473  3.4774 -0.6249
  870MOL0     H20001   2.796   6.162   0.484  0.9097 -2.6530 -1.1542
  870MOL0     H20002   2.663   6.252   0.408 -0.0012 -0.9418 -2.5263
  870MOL0     H20003   2.830   6.049   0.284 -0.4046 -0.0320  0.9333
  870MOL0     H20004   2.665   6.077   0.221 -1.0811 -0.9441  0.9871
  870MOL0     H20005   2.879   6.232   0.126  1.0327  0.5063  1.6929
  870MOL0     H20006   2.839   6.313   0.284 -0.1015 -0.8359  2.7191
  870MOL0     H20007   2.611   6.339   0.199  0.5915 -1.6537  1.3793
  870MOL0     H20008   2.734   6.420   0.089 -0.9794 -0.1900 -2.3427
  870MOL0     H20009   2.406   6.269   0.034 -1.0856 -1.2379 -0.3481
  870MOL0     H20010   2.427   6.025  -0.264  1.9380  0.3536  0.3371
  870MOL0     H20011   2.314   6.159  -0.243  1.7129  1.0615 -1.6381
  870MOL0     H20012   2.324   5.912  -0.130  1.1544  0.6140 -1.4955
  870MOL0     H20013   2.411   5.993  -0.006  0.8640 -2.4154 -1.1227
  870MOL0     H20014   2.206   6.169   0.009  0.5064 -0.3365  2.3225
  870MOL0     H20015   2.114   6.071  -0.106 -0.7704  4.5264 -0.1458
  870MOL0     H20016   2.037   6.008   0.132 -0.4112 -3.0042  1.8455
  870MOL0     H20017   2.141   5.877   0.089 -2.9999 -1.2352  3.3710
  870MOL0     H20018   2.122   6.003   0.437 -0.5700 -0.9357 -0.2565
  870MOL0     H20019   2.006   5.859   0.607  0.4817 -1.9319 -1.5195
  870MOL0     H20020   2.136   5.910   0.714  2.0829 -2.2427 -0.3443
  870MOL0     H20021   2.102   5.725   0.684  0.3884 -1.5331  0.2489
  870MOL0     H20022   2.186   5.624   0.959 -1.1477 -1.3579  0.5861
  870MOL0     H20023   2.242   5.491   1.167  0.8357 -0.4492 -0.1171
  870MOL0     H20024   2.319   5.369   1.321 -0.7208 -0.3958 -0.6272
  870MOL0     H20025   2.345   5.238   1.201  0.1452  0.5920 -1.4315
  870MOL0     H20026   2.499   5.131   1.334  0.2909  1.8077 -1.7170
  870MOL0     H20027   2.538   5.272   1.431 -2.4555  1.3063  4.5828
  870MOL0     H20028   2.275   5.120   1.472  0.3443 -0.7723 -0.9920
  870MOL0     H20029   2.312   5.276   1.546 -1.8955  0.1985 -1.6211
  870MOL0     H20030   2.525   5.162   1.651 -1.6740  1.8140  5.5671
  870MOL0     H20031   2.465   5.017   1.585 -4.5551 -3.0262  1.7795
  870MOL0     H20032   2.421   5.118   1.831  1.4345 -0.4544 -0.0924
  870MOL0     H20033   2.279   5.176   1.746  2.3327  1.5781 -0.9563
  870MOL0     H20034   2.385   4.889   1.735  0.2462 -0.0914  0.2950
  870MOL0     H20035   2.233   4.942   1.665 -1.3694 -0.3945  1.0171
  870MOL0     H20036   2.189   4.812   1.849 -3.6534  0.7209 -0.8888
  870MOL0     H20037   2.121   4.968   1.894 -0.1613 -1.4614 -0.5907
  870MOL0     H20038   2.281   4.997   2.064 -2.1764  1.1415 -2.0860
  870MOL0     H20039   2.396   4.893   1.995 -1.0089  2.4182 -1.5457
  870MOL0     H20040   2.630   5.416   1.011 -0.2755 -0.7277 -0.3501
  870MOL0     H20041   2.587   5.548   0.812 -0.0358 -0.3065  0.3115
  870MOL0     H20042   2.405   5.620   0.353 -0.2150 -0.4485 -0.4756
  870MOL0     H20043   2.349   5.786   0.175  1.4175 -2.0645  1.2779
  870MOL0     H20044   2.880   5.989   1.053  2.6791  2.6397  0.6689
  870MOL0     H20045   2.925   6.077   1.290 -1.4124 -0.8525  1.9393
  870MOL0     H20046   2.700   6.391   1.625 -0.9726  2.1069  0.8656
  870MOL0     H20047   2.727   6.439   1.854  1.0530  1.2462  0.9613
  870MOL0     H20048   3.131   6.376   2.090 -1.3465  0.1215  1.2102
  870MOL0     H20049   3.090   6.538   2.022 -3.1647  0.5019 -1.5224
  870MOL0     H20050   3.081   6.563   2.258  1.9217 -0.7422 -2.2287
  870MOL0     H20051   2.982   6.415   2.276  1.6766 -0.1644  0.1180
  870MOL0     H20052   2.865   6.645   2.113  0.3246 -3.3222 -1.5658
  870MOL0     H20053   2.790   6.521   2.207  0.5768  0.2926 -4.2853
  870MOL0     H20054   2.960   6.719   2.352  1.0818 -1.6759  0.6781
  870MOL0     H20055   2.805   6.618   2.401  0.2854  0.0111 -0.0072
  870MOL0     H20056   2.693   7.013   2.276  3.4693  1.5441 -0.1440
  870MOL0     H20057   3.147   6.310   1.856  0.7347  1.6570 -0.1590
  870MOL0     H20058   3.243   6.193   1.699  1.4254 -2.5562 -1.5306
  870MOL0     H20059   3.134   6.116   1.589 -1.4628  0.2086  2.1574
  870MOL0     H20060   3.219   6.267   1.549 -0.5786  2.8146  1.0767
  871MOL0     O20061   0.106   7.101   4.413  0.9405  0.2132 -0.5222
  871MOL0     C20062   0.131   7.196   4.349 -0.9088 -0.5773  0.7010
  871MOL0     O20063   0.135   7.317   4.394 -0.3054  0.4318 -0.3613
  871MOL0     C20064   0.128   7.346   4.532  0.0745  0.4608  0.3978
  871MOL0     C20065   0.075   7.267   4.638  0.5270  2.1050  0.9135
  871MOL0     C20066   0.071   7.300   4.773 -0.8366  0.7155 -0.2371
  871MOL0     C20067   0.158   7.407   4.811  0.4824 -0.1564  0.3828
  871MOL0     O20068   0.196   7.425   4.946  1.4538 -0.1497  0.3814
  871MOL0     C20069   0.301   7.525   4.968  0.3126  0.7974 -0.0257
  871MOL0     C20070   0.332   7.524   5.119 -0.2456 -0.8171 -0.4707
  871MOL0     C20071   0.366   7.384   5.175  1.1753  0.2311 -0.4258
  871MOL0     C20072   0.488   7.334   5.116  0.9614  0.3828 -0.8495
  871MOL0     C20073   0.509   7.197   5.177  0.8063 -0.2404 -1.1031
  871MOL0     C20074   0.584   7.090   5.079  0.6060 -0.1908  0.9356
  871MOL0     C20075   0.723   7.153   5.035  0.8333 -0.1164 -0.1224
  871MOL0     C20076   0.797   7.067   4.941 -0.7390  0.0746  0.2673
  871MOL0     N20077   0.881   6.973   5.011 -0.1372 -0.6282  0.0102
  871MOL0     C20078   0.851   6.892   5.114  0.1238  1.3401 -0.7956
  871MOL0     C20079   0.955   6.806   5.132  0.7188 -1.1112  0.1322
  871MOL0     C20080   0.954   6.688   5.230 -0.0801  1.2170 -0.5952
  871MOL0     C20081   1.040   6.720   5.351 -1.0605  0.3121 -0.6513
  871MOL0     C20082   0.984   6.837   5.441  0.1865  0.9514 -1.2358
  871MOL0     C20083   0.845   6.810   5.504 -0.0835  0.5135 -0.0724
  871MOL0     O20084   0.852   6.710   5.604 -0.4686  0.5814  0.2380
  871MOL0     C20085   0.731   6.636   5.621 -0.8814 -0.9905 -0.0432
  871MOL0     C20086   0.665   6.576   5.509  1.0656 -0.5910 -0.7836
  871MOL0     C20087   0.554   6.487   5.546  0.1261  1.0813  0.7501
  871MOL0     C20088   0.506   6.417   5.429  0.7012  1.1051 -1.1968
  871MOL0     C20089   0.502   6.467   5.679  0.4177  0.0648 -0.0685
  871MOL0     C20090   0.403   6.375   5.724  0.6465 -0.1661  0.2436
  871MOL0     O20091   0.286   6.383   5.650 -0.9182 -0.4902 -0.2140
  871MOL0     C20092   0.216   6.276   5.659  0.2474  0.7858  1.1215
  871MOL0     C20093   0.251   6.145   5.605 -0.5364 -0.5513  0.0615
  871MOL0     C20094   0.149   6.057   5.600 -0.7674  0.6507  0.0505
  871MOL0     C20095   0.025   6.069   5.667 -0.2109  0.0082 -0.1956
  871MOL0     O20096  -0.072   5.970   5.657  0.4039  0.5681  0.1971
  871MOL0     C20097  -0.089   5.879   5.547 -0.1934  0.1386 -0.1328
  871MOL0     C20098  -0.172   5.951   5.443  0.7655  0.0302  0.5689
  871MOL0     C20099  -0.325   5.924   5.455 -0.4123  0.3017 -0.5948
  871MOL0     C20100  -0.396   6.025   5.554  0.1275 -0.1238  0.6653
  871MOL0     C20101  -0.396   6.170   5.505 -0.3348  0.5199  0.2406
  871MOL0     C20102  -0.466   6.270   5.597 -0.3576 -0.7098 -0.0633
  871MOL0     C20103  -0.384   6.293   5.733  0.2554  1.0862  0.4529
  871MOL0     C20104  -0.474   6.328   5.847  0.1213 -0.0202  0.8585
  871MOL0    Cl20105  -0.397   6.295   5.998  0.5547 -0.5570 -0.0608
  871MOL0     C20106  -0.000   6.189   5.732  0.1917  0.0228  0.4200
  871MOL0     C20107   0.092   6.296   5.725  0.1779  1.0034 -0.8301
  871MOL0     O20108   0.429   6.293   5.816 -0.0480  0.9174 -0.3153
  871MOL0     C20109   0.568   6.543   5.783  0.5576 -0.2171 -0.1943
  871MOL0     C20110   0.678   6.624   5.751  0.0190  0.5250  0.3677
  871MOL0     N20111   1.057   6.838   5.048  0.2818 -0.6433  0.4677
  871MOL0     N20112   1.008   6.930   4.967  0.3367  0.0823  0.6845
  871MOL0     C20113   0.203   7.487   4.706 -0.4801 -0.7973  0.2742
  871MOL0     C20114   0.201   7.463   4.568 -0.1192  0.0869 -0.0523
  871MOL0     C20115   0.162   7.203   4.209 -1.0675  0.4014 -0.3038
  871MOL0     C20116   0.249   7.302   4.153  0.5999 -0.1454  0.5236
  871MOL0     C20117   0.264   7.310   4.015  0.4191  0.2637 -0.4278
  871MOL0     C20118   0.202   7.233   3.919  1.2298 -0.4488  0.5581
  871MOL0     O20119   0.227   7.232   3.780 -0.6822  0.4958 -0.3328
  871MOL0     C20120   0.248   7.359   3.729 -0.9819 -0.4618  0.1879
  871MOL0     C20121   0.128   7.459   3.742 -0.4458  0.0161 -0.8271
  871MOL0     C20122   0.152   7.594   3.666 -0.5605 -0.1499 -0.5027
  871MOL0     C20123   0.285   7.655   3.667 -0.0301 -0.1874  0.9741
  871MOL0     C20124   0.318   7.693   3.809 -0.4663 -0.7354  0.1753
  871MOL0     C20125   0.326   7.726   3.927  0.0974  0.6091 -0.4109
  871MOL0     C20126   0.132   7.125   3.974  0.2090 -0.1741  0.6321
  871MOL0     C20127   0.113   7.110   4.115  0.4797  0.4896  0.0955
  871MOL0     C20128   0.006   7.002   4.161 -0.0892 -0.6910  0.8787
  871MOL0     H20129   0.013   7.184   4.605  2.0666  0.4524  2.0319
  871MOL0     H20130   0.005   7.253   4.845 -0.7025  1.3065  0.2858
  871MOL0     H20131   0.281   7.630   4.942  1.5757  0.9375 -0.5081
  871MOL0     H20132   0.396   7.499   4.919  1.0636 -1.2203  2.3045
  871MOL0     H20133   0.415   7.588   5.152  1.6309 -3.9226  1.3809
  871MOL0     H20134   0.235   7.557   5.157  1.3337  2.2354  1.3523
  871MOL0     H20135   0.379   7.388   5.284  1.0582 -3.0283 -0.1861
  871MOL0     H20136   0.290   7.306   5.160  1.4461 -0.0242 -0.4710
  871MOL0     H20137   0.479   7.328   5.008 -0.2516  2.2973 -0.8913
  871MOL0     H20138   0.573   7.396   5.147 -1.5769  2.8634  1.7505
  871MOL0     H20139   0.414   7.156   5.212  1.2571  0.6182  1.3039
  871MOL0     H20140   0.582   7.198   5.259 -1.0237  0.7246  0.5870
  871MOL0     H20141   0.589   6.994   5.131  0.4520  1.0149  3.3159
  871MOL0     H20142   0.539   7.074   4.981  2.1381  1.4012 -0.0832
  871MOL0     H20143   0.793   7.180   5.115  1.3575  1.6386 -1.1030
  871MOL0     H20144   0.701   7.249   4.987  2.9822  2.5533  3.6816
  871MOL0     H20145   0.752   7.006   4.862  2.9627 -0.0940 -1.9726
  871MOL0     H20146   0.878   7.119   4.888 -0.9576  1.3457  1.1456
  871MOL0     H20147   0.758   6.884   5.169  0.0932 -0.4401 -1.0718
  871MOL0     H20148   1.000   6.607   5.174 -2.0755  1.1365 -2.2400
  871MOL0     H20149   0.862   6.638   5.263  1.0508 -3.8926 -4.0163
  871MOL0     H20150   1.052   6.633   5.415  0.7770  1.9345  1.3867
  871MOL0     H20151   1.138   6.754   5.314 -1.9060  1.6298 -1.7814
  871MOL0     H20152   1.053   6.849   5.525 -0.0216  1.9994 -1.2070
  871MOL0     H20153   0.981   6.930   5.385 -0.4837 -0.5877 -3.9058
  871MOL0     H20154   0.815   6.898   5.563 -0.7580 -0.1702  0.6322
  871MOL0     H20155   0.774   6.789   5.424 -1.4402  1.7651  0.7426
  871MOL0     H20156   0.690   6.584   5.403 -1.5031  0.1223 -1.4083
  871MOL0     H20157   0.573   6.332   5.417  1.4319  1.3341  0.9777
  871MOL0     H20158   0.509   6.476   5.336  0.5086  0.5810 -1.5432
  871MOL0     H20159   0.405   6.375   5.440  1.6766 -1.6721 -1.8702
  871MOL0     H20160   0.349   6.113   5.570 -0.3634 -0.5988  0.5884
  871MOL0     H20161   0.160   5.959   5.554 -1.3351 -0.4796  2.1773
  871MOL0     H20162  -0.001   5.830   5.506 -0.1678 -0.2169  0.3311
  871MOL0     H20163  -0.150   5.799   5.591  2.2455  0.6678  4.9268
  871MOL0     H20164  -0.152   6.057   5.462 -0.7919  0.3613  0.4892
  871MOL0     H20165  -0.130   5.926   5.345  0.9469 -0.4373  0.7603
  871MOL0     H20166  -0.346   5.823   5.493  0.6928 -0.4653 -1.9319
  871MOL0     H20167  -0.366   5.927   5.353 -0.4611  0.3200 -0.5747
  871MOL0     H20168  -0.355   6.009   5.654  0.8054 -1.5833  0.1964
  871MOL0     H20169  -0.501   5.996   5.552  0.9450 -3.7494 -2.3245
  871MOL0     H20170  -0.301   6.222   5.491 -0.5563  1.4374  1.8449
  871MOL0     H20171  -0.445   6.162   5.407  1.2726 -0.8221 -0.4976
  871MOL0     H20172  -0.570   6.241   5.611 -1.0367  0.3064 -2.4170
  871MOL0     H20173  -0.468   6.370   5.551 -4.8702 -1.9043 -3.1935
  871MOL0     H20174  -0.324   6.384   5.724 -0.8437  1.6921 -1.5301
  871MOL0     H20175  -0.328   6.203   5.760  3.8755  2.2396 -2.3343
  871MOL0     H20176  -0.566   6.268   5.850  0.5449 -0.6244  2.7856
  871MOL0     H20177  -0.499   6.435   5.844 -2.4618 -0.4128 -4.2976
  871MOL0     H20178  -0.090   6.205   5.790 -0.7943 -1.7136 -0.5518
  871MOL0     H20179   0.068   6.387   5.779 -0.6574 -0.6529  1.7166
  871MOL0     H20180   0.529   6.536   5.883 -3.5971 -0.6943 -1.6638
  871MOL0     H20181   0.724   6.689   5.824  0.8369  1.3801 -0.8564
  871MOL0     H20182   0.265   7.573   4.729  0.5416 -0.8393 -2.0153
  871MOL0     H20183   0.252   7.525   4.496  3.0485 -2.5636 -0.3416
  871MOL0     H20184   0.303   7.377   4.209  3.2393 -1.7703  0.3362
  871MOL0     H20185   0.309   7.396   3.967 -2.1390  1.5615 -0.6889
  871MOL0     H20186   0.343   7.392   3.773  1.7773 -5.6716 -0.9996
  871MOL0     H20187   0.261   7.336   3.623  1.3002 -1.1682  0.5650
  871MOL0     H20188   0.108   7.476   3.848  1.0011  4.2989 -1.0674
  871MOL0     H20189   0.045   7.407   3.694  2.0664 -2.9814 -2.2657
  871MOL0     H20190   0.104   7.596   3.567  1.3243  4.2067 -1.5861
  871MOL0     H20191   0.091   7.666   3.721  1.9983  1.8228 -0.0297
  871MOL0     H20192   0.273   7.743   3.604  0.7386 -1.6183 -1.2836
  871MOL0     H20193   0.360   7.589   3.623 -1.5850 -1.2195 -0.2165
  871MOL0     H20194   0.355   7.741   4.029  3.1461 -3.1547 -0.4771
  871MOL0     H20195   0.102   7.043   3.909  0.1762  0.2307  0.1262
  871MOL0     H20196  -0.036   6.945   4.077 -2.9243  2.7415 -0.2721
  871MOL0     H20197   0.052   6.930   4.228  2.7271 -1.4814 -1.6932
  871MOL0     H20198  -0.080   7.055   4.203 -1.0192 -0.7570 -0.8399
  872MOL0     O20199   8.184  10.093   5.591 -1.0989 -0.1284  0.5182
  872MOL0     C20200   8.160   9.985   5.641  0.1012  0.1814  0.0924
  872MOL0     O20201   8.248   9.892   5.671 -0.1760 -0.1460  0.2241
  872MOL0     C20202   8.380   9.899   5.618  0.7306  0.8880 -0.4044
  872MOL0     C20203   8.456  10.007   5.648  0.2284  0.5414  0.0142
  872MOL0     C20204   8.584  10.013   5.589  0.0847 -1.0761  0.2829
  872MOL0     C20205   8.632   9.921   5.494 -0.6019  0.5394  0.1049
  872MOL0     O20206   8.750   9.938   5.425  0.5335  0.9889 -0.0184
  872MOL0     C20207   8.852   9.836   5.433 -0.5341  0.2459  0.2967
  872MOL0     C20208   8.985   9.872   5.368  0.5580 -0.0557 -0.2867
  872MOL0     C20209   8.968   9.952   5.238  0.5800 -0.2148  0.4097
  872MOL0     C20210   8.882   9.882   5.142 -0.5677 -0.5536  0.4381
  872MOL0     C20211   8.862   9.981   5.013  0.5468 -0.3923 -0.4132
  872MOL0     C20212   8.741  10.074   5.043  0.1549 -1.3135  0.1343
  872MOL0     C20213   8.729  10.170   4.927 -0.4545 -0.2415 -0.3666
  872MOL0     C20214   8.843  10.265   4.920  0.4344  0.8736 -0.2271
  872MOL0     N20215   8.807  10.379   4.832 -0.8046 -0.2008  0.4961
  872MOL0     C20216   8.831  10.387   4.701  0.2159  0.0094  0.2701
  872MOL0     C20217   8.824  10.519   4.663  0.0530  0.9897 -0.2062
  872MOL0     C20218   8.870  10.580   4.529 -0.2508  0.3018  0.3348
  872MOL0     C20219   8.760  10.662   4.458  0.1884 -0.7844  1.3274
  872MOL0     C20220   8.804  10.717   4.314 -0.1107  0.6073 -0.3536
  872MOL0     C20221   8.709  10.783   4.217  0.2932  0.7290  0.0018
  872MOL0     O20222   8.765  10.790   4.091 -0.8688  0.3160 -0.1350
  872MOL0     C20223   8.742  10.917   4.036  0.2862 -0.2359  1.1685
  872MOL0     C20224   8.603  10.944   4.012  0.4078 -0.3774  0.1003
  872MOL0     C20225   8.558  11.061   3.938 -0.5746 -0.3032  0.6759
  872MOL0     C20226   8.406  11.067   3.909 -0.4574 -0.6235 -0.6127
  872MOL0     C20227   8.659  11.151   3.898 -0.5860  0.4839 -0.1921
  872MOL0     C20228   8.617  11.276   3.833 -0.1394 -1.0074  0.0994
  872MOL0     O20229   8.517  11.269   3.739 -0.5491 -0.0966  0.3858
  872MOL0     C20230   8.496  11.377   3.653 -0.0216  0.2192 -0.2542
  872MOL0     C20231   8.392  11.463   3.688  0.4466 -0.1664  0.1884
  872MOL0     C20232   8.348  11.563   3.607  1.3295 -0.1262 -0.1591
  872MOL0     C20233   8.416  11.586   3.494  1.2163 -0.2719  1.7181
  872MOL0     O20234   8.353  11.687   3.413  0.4022  0.7379  1.0687
  872MOL0     C20235   8.387  11.702   3.272 -0.3865 -0.6220  0.4220
  872MOL0     C20236   8.316  11.831   3.211 -0.5916  0.4625 -0.1146
  872MOL0     C20237   8.366  11.968   3.261 -0.4000 -0.2366  0.0734
  872MOL0     C20238   8.511  11.991   3.233  0.5599  0.2395  0.6657
  872MOL0     C20239   8.559  12.133   3.273  0.5705  1.5810  0.6579
  872MOL0     C20240   8.698  12.157   3.212 -0.0915 -0.0415 -0.4798
  872MOL0     C20241   8.744  12.308   3.243  0.2737  0.4864 -0.4747
  872MOL0     C20242   8.850  12.351   3.142 -0.3780 -0.2193  0.2704
  872MOL0    Cl20243   8.878  12.528   3.166  0.1144 -0.4769 -0.0322
  872MOL0     C20244   8.529  11.511   3.464  0.1620 -0.1408  0.3501
  872MOL0     C20245   8.571  11.399   3.542 -0.1241 -1.1293  0.2652
  872MOL0     O20246   8.677  11.379   3.865 -0.4341 -0.1986  0.7039
  872MOL0     C20247   8.798  11.126   3.926  1.2743 -0.1288  0.1458
  872MOL0     C20248   8.834  11.004   3.985 -0.1705 -0.4024  1.4339
  872MOL0     N20249   8.795  10.583   4.784  0.6171 -0.0831  0.4598
  872MOL0     N20250   8.800  10.501   4.879 -0.5483  0.0993  0.1979
  872MOL0     C20251   8.545   9.808   5.473 -0.3891 -0.3353  0.7270
  872MOL0     C20252   8.418   9.793   5.536 -0.8982  0.7478  0.3086
  872MOL0     C20253   8.023   9.966   5.694  1.4576  0.4328  0.2011
  872MOL0     C20254   7.923  10.043   5.630 -0.1200 -1.1869  0.3968
  872MOL0     C20255   7.791  10.018   5.662 -0.7216  0.2601 -0.4155
  872MOL0     C20256   7.741   9.914   5.753  0.6721 -0.3799  0.0444
  872MOL0     O20257   7.604   9.878   5.776 -0.5304  0.1894  0.1343
  872MOL0     C20258   7.493   9.944   5.723  0.9928  0.7784  0.7017
  872MOL0     C20259   7.395   9.840   5.667  0.9373  0.8714  0.0635
  872MOL0     C20260   7.300   9.898   5.564  0.0789  0.9090  0.4691
  872MOL0     C20261   7.181   9.982   5.609 -1.4478 -1.0927 -0.0090
  872MOL0     C20262   7.067   9.911   5.675 -0.3523 -1.1569  0.6342
  872MOL0     C20263   6.966   9.864   5.731  0.3845 -0.6969  0.3391
  872MOL0     C20264   7.845   9.847   5.830  0.0591 -1.1278 -0.8719
  872MOL0     C20265   7.985   9.881   5.800  0.1181  0.2896 -1.4548
  872MOL0     C20266   8.087   9.832   5.892 -0.3085 -0.6051  0.0426
  872MOL0     H20267   8.412  10.076   5.719 -0.3247 -2.4233  2.7751
  872MOL0     H20268   8.639  10.099   5.622  1.8473 -2.0148 -0.0975
  872MOL0     H20269   8.820   9.747   5.377 -2.9313  0.3591  1.3733
  872MOL0     H20270   8.877   9.809   5.536 -0.1783 -0.5956  0.0049
  872MOL0     H20271   9.035   9.927   5.448  1.8737 -2.1392  0.4079
  872MOL0     H20272   9.049   9.785   5.351 -1.2768 -1.9589  1.9291
  872MOL0     H20273   8.937  10.056   5.252 -1.1148 -0.3320 -1.9283
  872MOL0     H20274   9.067   9.957   5.192 -0.0452  0.5277 -0.9062
  872MOL0     H20275   8.926   9.788   5.109 -3.3291 -1.2264 -1.6837
  872MOL0     H20276   8.783   9.856   5.181 -1.4723  0.1197 -1.2583
  872MOL0     H20277   8.849   9.922   4.922 -0.7737  1.1774 -1.3025
  872MOL0     H20278   8.958  10.033   5.004 -0.1763  1.0641 -0.1314
  872MOL0     H20279   8.651  10.014   5.060 -0.0800 -0.9881  0.0359
  872MOL0     H20280   8.767  10.128   5.134  1.1444  1.5793 -1.7193
  872MOL0     H20281   8.635  10.224   4.923  1.2907  3.0142 -3.9411
  872MOL0     H20282   8.721  10.101   4.842 -1.0001 -1.5823  0.7368
  872MOL0     H20283   8.867  10.304   5.020 -2.3629  1.1670  0.4001
  872MOL0     H20284   8.923  10.213   4.867 -2.2619 -0.7874 -2.9652
  872MOL0     H20285   8.838  10.303   4.633  2.4194  0.4339 -0.1088
  872MOL0     H20286   8.872  10.487   4.471 -4.2802 -0.6554  1.4140
  872MOL0     H20287   8.965  10.632   4.545 -1.1300  2.0155  0.1475
  872MOL0     H20288   8.676  10.593   4.446 -1.9827  2.1361 -2.5527
  872MOL0     H20289   8.734  10.741   4.529 -3.7525 -3.0468  2.6832
  872MOL0     H20290   8.885  10.791   4.313  1.2246 -0.8122 -0.7952
  872MOL0     H20291   8.840  10.632   4.257  3.3682  2.0230 -0.5475
  872MOL0     H20292   8.620  10.720   4.210 -1.1572  2.8789 -2.4274
  872MOL0     H20293   8.667  10.877   4.254 -0.1851  0.2642  0.6836
  872MOL0     H20294   8.523  10.876   4.039  0.4476 -0.1510  0.8008
  872MOL0     H20295   8.372  11.170   3.913  0.2211 -0.3600 -1.4167
  872MOL0     H20296   8.345  11.004   3.975 -0.4997  0.7274  0.6998
  872MOL0     H20297   8.395  11.035   3.805  1.7792  0.0676 -1.1258
  872MOL0     H20298   8.336  11.444   3.779  2.6370  1.5390  2.0032
  872MOL0     H20299   8.277  11.635   3.646  0.5862  0.7623 -2.8906
  872MOL0     H20300   8.494  11.704   3.252 -0.5430  1.1949 -0.4163
  872MOL0     H20301   8.347  11.613   3.222  0.5171 -1.1626  0.6394
  872MOL0     H20302   8.336  11.823   3.104 -0.9423  2.1154 -0.3262
  872MOL0     H20303   8.207  11.822   3.224 -0.6660  1.1507 -0.2481
  872MOL0     H20304   8.346  11.979   3.368  1.2095  2.4692  0.1727
  872MOL0     H20305   8.306  12.045   3.211 -0.6850 -1.4966 -1.6139
  872MOL0     H20306   8.519  11.985   3.125 -4.2741 -0.1422  0.0978
  872MOL0     H20307   8.576  11.912   3.270 -0.1620 -1.0406 -0.6932
  872MOL0     H20308   8.493  12.215   3.244 -0.6678  2.0893  4.3479
  872MOL0     H20309   8.566  12.142   3.382  5.8946 -1.8142  0.9945
  872MOL0     H20310   8.686  12.143   3.104 -1.3432 -2.6965 -0.0683
  872MOL0     H20311   8.775  12.089   3.249 -0.7623 -0.4521  0.1780
  872MOL0     H20312   8.796  12.308   3.339  0.1789 -2.5450 -0.3374
  872MOL0     H20313   8.658  12.375   3.247 -1.4027 -1.5935 -0.0851
  872MOL0     H20314   8.815  12.338   3.039  2.3271  1.0929 -0.9226
  872MOL0     H20315   8.940  12.289   3.149  1.9810  2.8268 -0.7040
  872MOL0     H20316   8.578  11.525   3.368 -4.0624  2.1525 -1.7615
  872MOL0     H20317   8.652  11.343   3.496  2.2394  1.5590  0.8931
  872MOL0     H20318   8.877  11.195   3.899  2.2131 -0.6944  1.3692
  872MOL0     H20319   8.936  10.971   4.006  0.6547 -0.2467 -1.8955
  872MOL0     H20320   8.576   9.732   5.402 -1.7686 -0.3676  0.1223
  872MOL0     H20321   8.370   9.697   5.525  0.5511 -0.0374  0.5042
  872MOL0     H20322   7.948  10.108   5.547 -1.3254 -1.3683 -0.1339
  872MOL0     H20323   7.723  10.068   5.594 -0.3010  1.2789 -0.1047
  872MOL0     H20324   7.437  10.008   5.792  0.4235 -0.2940  1.2634
  872MOL0     H20325   7.525  10.000   5.635  1.0180 -0.1879  0.0816
  872MOL0     H20326   7.327   9.790   5.737 -0.8438  1.1232 -1.4157
  872MOL0     H20327   7.444   9.758   5.612 -1.4108  0.3129 -1.3546
  872MOL0     H20328   7.362   9.938   5.483 -0.8512 -3.5151 -2.8028
  872MOL0     H20329   7.255   9.814   5.511  3.4848 -0.7947  0.0397
  872MOL0     H20330   7.153  10.044   5.524 -2.5123  0.7616  1.6111
  872MOL0     H20331   7.222  10.047   5.687  2.1007 -4.1337  0.9878
  872MOL0     H20332   6.885   9.813   5.778 -0.9231  0.5224 -0.5207
  872MOL0     H20333   7.825   9.775   5.909 -2.0533 -3.4434 -3.3231
  872MOL0     H20334   8.178   9.892   5.892 -0.3485 -0.5154 -1.4031
  872MOL0     H20335   8.061   9.833   5.999  2.0082 -1.5461  0.6890
  872MOL0     H20336   8.106   9.726   5.873  1.0563 -0.2867 -0.4468
  873MOL0     O20337   2.702   8.448   4.449  0.2528  0.1507  0.2171
  873MOL0     C20338   2.601   8.533   4.460 -0.6262  0.7270 -1.2433
  873MOL0     O20339   2.537   8.567   4.577 -0.3707  0.2663  0.5343
  873MOL0     C20340   2.537   8.497   4.693 -1.2302  0.0113  0.0594
  873MOL0     C20341   2.501   8.561   4.809 -0.3061  0.1741 -0.5501
  873MOL0     C20342   2.485   8.483   4.919 -0.3219  0.9054 -0.4269
  873MOL0     C20343   2.501   8.344   4.920 -0.0625 -0.0256 -0.7660
  873MOL0     O20344   2.495   8.260   5.032  0.6030  0.3862 -0.1585
  873MOL0     C20345   2.425   8.306   5.145 -0.1044  0.9002  1.6263
  873MOL0     C20346   2.273   8.293   5.126  0.0805  0.6226 -0.0618
  873MOL0     C20347   2.229   8.150   5.085 -0.6089  0.5091 -0.1067
  873MOL0     C20348   2.079   8.118   5.127  0.5720 -0.6001  0.4940
  873MOL0     C20349   2.052   7.965   5.128  0.6998 -0.6781 -1.0882
  873MOL0     C20350   1.911   7.932   5.196 -0.3057 -1.0992  0.2416
  873MOL0     C20351   1.883   7.781   5.204  0.9996 -0.3268  0.5046
  873MOL0     C20352   1.798   7.749   5.324 -0.6265  0.1105 -1.0185
  873MOL0     N20353   1.659   7.775   5.294  0.2216  0.3033 -0.4783
  873MOL0     C20354   1.565   7.679   5.246  0.3118 -0.5866 -0.6254
  873MOL0     C20355   1.446   7.737   5.237  1.2297 -0.5123  0.6693
  873MOL0     C20356   1.317   7.671   5.193  0.6958 -0.7903 -0.3952
  873MOL0     C20357   1.257   7.739   5.070 -0.4422  0.4038 -0.6981
  873MOL0     C20358   1.330   7.695   4.946  0.8954  0.2985  0.0362
  873MOL0     C20359   1.285   7.778   4.830 -0.2936  0.3694  0.4496
  873MOL0     O20360   1.149   7.736   4.798 -1.0004  0.1027  0.7560
  873MOL0     C20361   1.078   7.809   4.705  0.1205 -0.6180  0.9372
  873MOL0     C20362   0.944   7.770   4.678  0.7757  0.0918  0.3963
  873MOL0     C20363   0.856   7.842   4.602 -0.2147 -0.1383  0.8402
  873MOL0     C20364   0.712   7.792   4.604  0.8519 -0.5039  0.4239
  873MOL0     C20365   0.908   7.960   4.538  0.8500  0.5031 -0.3306
  873MOL0     C20366   0.832   8.038   4.437  0.9956 -0.1649 -0.1873
  873MOL0     O20367   0.865   8.169   4.434  0.9968  0.0166  1.2269
  873MOL0     C20368   0.815   8.256   4.338 -0.2769 -0.4589  0.2872
  873MOL0     C20369   0.896   8.300   4.238  0.1122 -1.2135  0.8756
  873MOL0     C20370   0.845   8.381   4.136 -0.6572 -0.0351  0.7112
  873MOL0     C20371   0.710   8.410   4.120 -0.0338 -0.1970  0.7313
  873MOL0     O20372   0.657   8.456   4.003 -0.0719 -0.7641 -0.0543
  873MOL0     C20373   0.599   8.586   4.012  1.0939 -0.0964  0.5637
  873MOL0     C20374   0.503   8.606   3.896 -0.4055  0.3472 -0.2296
  873MOL0     C20375   0.389   8.511   3.904 -0.7087 -0.0717  0.1598
  873MOL0     C20376   0.281   8.548   3.806 -1.0966 -0.4773  0.1451
  873MOL0     C20377   0.143   8.527   3.871  0.9274 -0.6180 -0.2218
  873MOL0     C20378   0.102   8.650   3.955 -0.1027  0.0367  0.0724
  873MOL0     C20379   0.057   8.777   3.880  0.3028  0.6498 -0.5819
  873MOL0     C20380  -0.027   8.764   3.748 -0.0040 -0.3098 -0.9590
  873MOL0    Cl20381  -0.187   8.684   3.785 -0.2194 -0.3934 -0.6323
  873MOL0     C20382   0.629   8.373   4.227 -0.8545  0.1275 -0.0607
  873MOL0     C20383   0.681   8.303   4.337 -0.4202  0.3903  0.9576
  873MOL0     O20384   0.734   7.989   4.380 -0.0975 -0.1971 -0.6989
  873MOL0     C20385   1.043   7.997   4.561  0.5914 -0.0681 -0.6212
  873MOL0     C20386   1.124   7.924   4.642 -0.3824  0.1959  0.9240
  873MOL0     N20387   1.461   7.866   5.282  0.0224  0.7307 -0.2853
  873MOL0     N20388   1.583   7.882   5.326 -0.2429  0.6653  0.1863
  873MOL0     C20389   2.532   8.277   4.798 -0.0874 -0.7908 -1.1419
  873MOL0     C20390   2.555   8.357   4.683  1.2171 -0.8448  0.4950
  873MOL0     C20391   2.547   8.603   4.335  0.4963 -0.3753  0.0696
  873MOL0     C20392   2.634   8.663   4.243 -1.3133 -0.4594  0.1444
  873MOL0     C20393   2.584   8.715   4.124  0.1089 -0.2559  0.4525
  873MOL0     C20394   2.442   8.712   4.095 -0.3521  0.0734  1.1891
  873MOL0     O20395   2.382   8.766   3.979  0.0313  0.1537 -0.0090
  873MOL0     C20396   2.437   8.738   3.854  0.2436  0.3139  0.6328
  873MOL0     C20397   2.506   8.856   3.793  0.3297  0.7135 -0.4365
  873MOL0     C20398   2.414   8.979   3.761 -1.0676 -0.1194 -1.3771
  873MOL0     C20399   2.485   9.075   3.659 -0.5282 -0.1677  0.4597
  873MOL0     C20400   2.438   9.208   3.672  0.3182 -0.2970 -1.1856
  873MOL0     C20401   2.385   9.316   3.662 -0.5314  0.2261  0.2892
  873MOL0     C20402   2.365   8.638   4.184 -0.9682  0.5027 -0.1060
  873MOL0     C20403   2.412   8.586   4.309  0.1512 -0.3406 -0.3920
  873MOL0     C20404   2.312   8.510   4.392 -0.1130  0.0845  0.4951
  873MOL0     H20405   2.486   8.668   4.807 -2.0581 -0.0230 -4.1315
  873MOL0     H20406   2.450   8.544   5.002 -1.8124 -1.1607  0.5250
  873MOL0     H20407   2.459   8.406   5.175  0.3499  1.1161  0.4331
  873MOL0     H20408   2.460   8.237   5.223  1.4867 -0.5359 -0.2752
  873MOL0     H20409   2.223   8.316   5.221  2.2814  0.0152  1.3313
  873MOL0     H20410   2.235   8.365   5.053 -0.9260  1.0541  0.8557
  873MOL0     H20411   2.249   8.123   4.981  1.1759 -0.9745  0.5727
  873MOL0     H20412   2.294   8.087   5.146  2.5363  2.7687 -0.8704
  873MOL0     H20413   2.053   8.158   5.225 -1.1570 -3.0011  1.0925
  873MOL0     H20414   2.004   8.168   5.065  0.5777 -0.6809  0.4220
  873MOL0     H20415   2.133   7.915   5.183  0.4608 -0.3823 -0.4538
  873MOL0     H20416   2.040   7.917   5.031  0.3357  0.0560 -1.4059
  873MOL0     H20417   1.932   7.974   5.295 -0.1490 -0.8671  0.1085
  873MOL0     H20418   1.830   7.991   5.154  1.2099  1.6147  0.8863
  873MOL0     H20419   1.975   7.726   5.224  0.7273 -0.5593  1.1292
  873MOL0     H20420   1.847   7.757   5.103 -1.1994  2.4167  0.5254
  873MOL0     H20421   1.797   7.646   5.358  3.3506  0.6895  1.4952
  873MOL0     H20422   1.830   7.813   5.407 -2.1551  0.6910 -0.8381
  873MOL0     H20423   1.592   7.578   5.217 -0.7891 -0.1743 -3.3165
  873MOL0     H20424   1.240   7.689   5.268  0.2421  0.9577 -1.2272
  873MOL0     H20425   1.329   7.565   5.169 -0.6690 -1.2691  0.9008
  873MOL0     H20426   1.154   7.708   5.047  0.2407 -1.8930 -0.9209
  873MOL0     H20427   1.270   7.847   5.082 -2.5199  0.3237  5.5640
  873MOL0     H20428   1.434   7.715   4.973  0.9101 -0.8964  0.8946
  873MOL0     H20429   1.317   7.590   4.919 -0.2835 -0.2360  2.4125
  873MOL0     H20430   1.298   7.883   4.860  0.8652 -0.0682  1.5666
  873MOL0     H20431   1.352   7.755   4.746 -1.0561  0.4877 -0.1991
  873MOL0     H20432   0.908   7.680   4.727 -0.1183 -0.6377 -1.4934
  873MOL0     H20433   0.690   7.768   4.499 -0.3598  1.1220  0.2488
  873MOL0     H20434   0.646   7.872   4.640 -0.6119 -1.2213 -0.5412
  873MOL0     H20435   0.704   7.709   4.674  2.1819  0.4229  1.7349
  873MOL0     H20436   0.991   8.252   4.218 -0.2092 -0.3479 -4.0610
  873MOL0     H20437   0.921   8.395   4.060 -0.8653 -2.1858  0.0358
  873MOL0     H20438   0.537   8.581   4.102 -0.2511  0.5260 -0.3019
  873MOL0     H20439   0.675   8.664   4.016  2.0426 -1.0078  0.7984
  873MOL0     H20440   0.473   8.710   3.912  4.9431  2.0668  0.4909
  873MOL0     H20441   0.557   8.604   3.801 -1.9754  1.5787 -1.2092
  873MOL0     H20442   0.338   8.513   4.001 -1.1156  1.0088 -0.0558
  873MOL0     H20443   0.428   8.411   3.883 -0.9903 -0.1125 -0.1982
  873MOL0     H20444   0.297   8.479   3.723  0.7974 -0.7676  0.6832
  873MOL0     H20445   0.313   8.648   3.776 -1.0969  0.4755  2.9572
  873MOL0     H20446   0.068   8.516   3.792  2.2521 -1.4837 -1.4088
  873MOL0     H20447   0.144   8.437   3.932  0.0195  1.2877  2.8092
  873MOL0     H20448   0.184   8.661   4.027  0.9643 -2.7862 -0.5905
  873MOL0     H20449   0.017   8.620   4.017  1.1675 -2.2373  0.8454
  873MOL0     H20450   0.142   8.839   3.847  0.8506  0.8037  1.0586
  873MOL0     H20451  -0.007   8.830   3.951  1.5803  1.3049  0.1093
  873MOL0     H20452   0.025   8.707   3.671  2.5253 -0.3497  0.6764
  873MOL0     H20453  -0.042   8.863   3.704  1.7146 -0.6402 -2.4094
  873MOL0     H20454   0.523   8.393   4.230 -0.7844  0.8355  4.1156
  873MOL0     H20455   0.609   8.262   4.406  0.5004  0.1255  1.7945
  873MOL0     H20456   1.083   8.085   4.512 -1.3454 -0.3512 -2.9444
  873MOL0     H20457   1.223   7.963   4.664  0.4836 -1.4794  0.1533
  873MOL0     H20458   2.546   8.170   4.789  1.0941 -0.7627 -0.0197
  873MOL0     H20459   2.577   8.304   4.591  0.5999  0.1423 -0.2356
  873MOL0     H20460   2.741   8.656   4.254 -1.0752 -0.1368 -1.7308
  873MOL0     H20461   2.658   8.751   4.053  0.7435  0.3432  1.4010
  873MOL0     H20462   2.497   8.647   3.856 -2.0481 -1.2425  1.5965
  873MOL0     H20463   2.357   8.698   3.792 -0.9426  2.5157  0.6242
  873MOL0     H20464   2.567   8.830   3.707 -1.1224  0.1390 -1.3311
  873MOL0     H20465   2.578   8.891   3.867 -1.5841  0.2061  1.8014
  873MOL0     H20466   2.318   8.950   3.718 -1.2697  0.4447 -1.3074
  873MOL0     H20467   2.401   9.028   3.858  0.0030 -1.6640 -0.4118
  873MOL0     H20468   2.469   9.039   3.557  1.7127 -3.4715  1.0957
  873MOL0     H20469   2.593   9.076   3.679 -0.1294 -0.0278 -1.4877
  873MOL0     H20470   2.343   9.413   3.651  0.8170  1.1125  2.3891
  873MOL0     H20471   2.263   8.614   4.158 -0.9070 -2.3381  1.8279
  873MOL0     H20472   2.214   8.513   4.343  0.5956  0.2384 -0.9731
  873MOL0     H20473   2.331   8.402   4.393 -1.5527 -0.2073 -0.2522
  873MOL0     H20474   2.306   8.559   4.489 -0.7002  0.3857  0.3147
  874MOL0     O20475   1.025  11.397   0.782  0.3199  0.2171  0.8711
  874MOL0     C20476   0.946  11.476   0.828 -0.6817 -0.1420 -0.0527
  874MOL0     O20477   0.937  11.608   0.783 -0.4445 -0.7122  0.8711
  874MOL0     C20478   1.029  11.658   0.696 -0.5026 -0.2740  1.2913
  874MOL0     C20479   1.019  11.623   0.558  0.0944 -0.3923  0.1761
  874MOL0     C20480   1.103  11.702   0.467 -0.5013  0.1873 -0.5574
  874MOL0     C20481   1.177  11.812   0.505  0.1319 -0.5041  0.0357
  874MOL0     O20482   1.251  11.887   0.418 -0.4104  0.5052  0.1341
  874MOL0     C20483   1.252  11.853   0.281  0.8077 -1.1645  0.8648
  874MOL0     C20484   1.339  11.947   0.192 -0.9505  0.2415 -0.4316
  874MOL0     C20485   1.487  11.934   0.246  0.8985 -0.8316 -0.6517
  874MOL0     C20486   1.579  11.977   0.141 -0.1695 -0.3727  0.1963
  874MOL0     C20487   1.716  11.982   0.183 -0.3016 -0.5699 -0.4967
  874MOL0     C20488   1.799  12.032   0.061  0.1710  0.3012 -0.6899
  874MOL0     C20489   1.944  12.080   0.086  0.8601 -0.3185  0.3682
  874MOL0     C20490   1.941  12.220   0.148 -0.3421  0.6467 -0.2717
  874MOL0     N20491   2.060  12.297   0.114  0.7151 -0.4271 -0.0907
  874MOL0     C20492   2.048  12.429   0.078  0.4556  0.2984  1.0578
  874MOL0     C20493   2.181  12.465   0.082  0.5841 -0.1566 -0.6082
  874MOL0     C20494   2.229  12.610   0.048 -0.0187  0.3184  0.3913
  874MOL0     C20495   2.319  12.609  -0.068 -0.8510 -0.2070 -1.3913
  874MOL0     C20496   2.475  12.586  -0.027  0.2060 -1.4606 -0.0795
  874MOL0     C20497   2.557  12.599  -0.157 -0.6949  0.2008  0.1986
  874MOL0     O20498   2.499  12.532  -0.271  0.6800  0.1486  0.4211
  874MOL0     C20499   2.584  12.468  -0.362  0.7774  0.2176  0.0654
  874MOL0     C20500   2.715  12.513  -0.385  0.0845 -0.5141 -1.0774
  874MOL0     C20501   2.790  12.454  -0.482 -0.0798  0.5901 -0.0244
  874MOL0     C20502   2.942  12.507  -0.477  0.7466  0.5146  0.1515
  874MOL0     C20503   2.742  12.350  -0.562  0.0283 -0.4052 -0.0901
  874MOL0     C20504   2.826  12.288  -0.660  0.8971  0.7194  0.2217
  874MOL0     O20505   2.757  12.204  -0.740 -0.2218  0.2542 -0.0195
  874MOL0     C20506   2.823  12.142  -0.844 -0.4297 -0.2395 -0.8390
  874MOL0     C20507   2.840  12.006  -0.858 -0.1648  1.0373  0.0080
  874MOL0     C20508   2.912  11.958  -0.972 -0.2407  0.1323  0.1511
  874MOL0     C20509   2.952  12.047  -1.079  0.4317  0.1937 -0.0165
  874MOL0     O20510   3.021  12.000  -1.190 -0.8143 -0.3194 -0.0468
  874MOL0     C20511   3.030  11.863  -1.221  0.5499  0.0619 -0.4760
  874MOL0     C20512   3.112  11.847  -1.352  0.1193  0.5359 -0.3459
  874MOL0     C20513   3.139  11.707  -1.404  0.2944 -0.9087  0.0133
  874MOL0     C20514   3.015  11.634  -1.409  0.2335  1.6161 -0.5407
  874MOL0     C20515   3.050  11.490  -1.454 -0.8251 -0.5030 -0.0459
  874MOL0     C20516   2.925  11.399  -1.445  0.9345 -0.6983 -0.3941
  874MOL0     C20517   2.836  11.419  -1.573 -0.2229 -0.0964 -0.4045
  874MOL0     C20518   2.734  11.526  -1.553 -0.0556  0.1000 -1.0151
  874MOL0    Cl20519   2.625  11.523  -1.696 -0.2740  0.1841 -0.0866
  874MOL0     C20520   2.925  12.182  -1.066 -0.4000 -0.1536 -0.5744
  874MOL0     C20521   2.864  12.227  -0.948 -0.3274  0.8782 -0.0349
  874MOL0     O20522   2.947  12.286  -0.658  0.3349 -0.7155  0.0945
  874MOL0     C20523   2.610  12.294  -0.532 -0.0931  0.0426  0.6513
  874MOL0     C20524   2.533  12.357  -0.435  0.2216 -0.3326 -1.0129
  874MOL0     N20525   2.259  12.354   0.112 -0.2046  0.5563  0.9086
  874MOL0     N20526   2.186  12.260   0.136  0.5900 -0.9593  0.1180
  874MOL0     C20527   1.179  11.846   0.637  0.2517  0.0493 -0.4593
  874MOL0     C20528   1.107  11.768   0.733  0.5460  0.2764  0.6958
  874MOL0     C20529   0.854  11.417   0.929 -1.1140  0.9366  0.1048
  874MOL0     C20530   0.800  11.292   0.913 -1.3679  0.1631 -0.5174
  874MOL0     C20531   0.727  11.230   1.008 -0.3645  0.0523  0.5698
  874MOL0     C20532   0.684  11.304   1.118  0.0936 -0.8748 -0.9005
  874MOL0     O20533   0.612  11.227   1.205 -0.2434 -0.0629  0.2802
  874MOL0     C20534   0.544  11.300   1.312 -1.4350 -0.5550 -0.1487
  874MOL0     C20535   0.452  11.211   1.381  0.6072  0.1578 -0.9363
  874MOL0     C20536   0.508  11.095   1.458 -0.2064  0.2976  0.2745
  874MOL0     C20537   0.401  11.004   1.521  0.2546  0.2769 -0.3397
  874MOL0     C20538   0.321  11.084   1.621 -0.6032  0.5232  0.2018
  874MOL0     C20539   0.255  11.149   1.696  0.9340 -0.3170  0.3802
  874MOL0     C20540   0.734  11.431   1.147  0.0685 -0.1081 -0.5185
  874MOL0     C20541   0.827  11.486   1.049  0.2128  0.6535 -0.6686
  874MOL0     C20542   0.913  11.607   1.085  0.4904  0.1431 -0.1693
  874MOL0     H20543   0.956  11.543   0.520 -0.5244  0.7041 -1.1690
  874MOL0     H20544   1.102  11.680   0.361  1.1682 -1.6552 -0.2582
  874MOL0     H20545   1.151  11.884   0.250  2.3592  1.3931 -2.2636
  874MOL0     H20546   1.273  11.748   0.261 -2.3611 -1.7769  0.0887
  874MOL0     H20547   1.339  11.919   0.087  0.5813  0.6616 -0.5698
  874MOL0     H20548   1.311  12.051   0.210  2.2080  0.8833  1.7651
  874MOL0     H20549   1.496  12.008   0.325  0.1559  1.6349 -2.7289
  874MOL0     H20550   1.514  11.836   0.288 -1.7663 -0.6137  1.8488
  874MOL0     H20551   1.580  11.900   0.064 -0.0321 -0.8578  0.6702
  874MOL0     H20552   1.544  12.074   0.104  2.6876  1.1270  1.0948
  874MOL0     H20553   1.760  11.895   0.234  2.4936  0.4120 -1.0126
  874MOL0     H20554   1.720  12.041   0.275  0.7515  0.5790 -1.2481
  874MOL0     H20555   1.787  11.947  -0.008  0.1631  1.5928 -2.3479
  874MOL0     H20556   1.745  12.106   0.001  2.1295  1.6719 -0.8675
  874MOL0     H20557   1.994  12.084  -0.011  1.3499 -2.8901  0.4476
  874MOL0     H20558   2.003  12.013   0.149  0.7009 -0.0311  0.8278
  874MOL0     H20559   1.845  12.264   0.122 -1.1102 -1.2681 -0.9021
  874MOL0     H20560   1.949  12.216   0.257  0.7141 -2.8029 -0.3425
  874MOL0     H20561   1.964  12.494   0.059 -1.5440 -2.1545  0.9243
  874MOL0     H20562   2.277  12.658   0.134  0.5931 -1.5499  1.1418
  874MOL0     H20563   2.133  12.657   0.025 -1.0248 -2.6686 -2.1811
  874MOL0     H20564   2.290  12.543  -0.150 -1.7961 -2.0388  0.3295
  874MOL0     H20565   2.318  12.715  -0.097  3.6208  0.2017 -0.7659
  874MOL0     H20566   2.500  12.663   0.047 -4.7936  1.7249 -1.1697
  874MOL0     H20567   2.492  12.488   0.017  0.9810 -0.6913  1.4014
  874MOL0     H20568   2.550  12.706  -0.180 -1.3242  0.5276  1.7565
  874MOL0     H20569   2.662  12.579  -0.134 -0.3012  1.0650 -0.7657
  874MOL0     H20570   2.744  12.600  -0.327 -2.1166 -1.1599  1.2020
  874MOL0     H20571   3.013  12.424  -0.488 -2.2655 -1.8743 -3.2662
  874MOL0     H20572   2.958  12.553  -0.379 -0.3583  1.1278  0.0498
  874MOL0     H20573   2.963  12.577  -0.557 -1.6582  0.3933 -0.6396
  874MOL0     H20574   2.818  11.946  -0.770 -0.9296  0.9157 -0.2632
  874MOL0     H20575   2.930  11.852  -0.961 -0.5380  0.3336  3.2873
  874MOL0     H20576   3.082  11.808  -1.142 -1.2149  0.2394  0.8567
  874MOL0     H20577   2.930  11.826  -1.245  0.6005  2.7644 -6.8581
  874MOL0     H20578   3.061  11.899  -1.433  0.6124 -0.8901 -1.6224
  874MOL0     H20579   3.211  11.893  -1.343  0.9518 -1.5328  3.3679
  874MOL0     H20580   3.200  11.651  -1.332 -1.4195 -0.9365  1.5108
  874MOL0     H20581   3.176  11.713  -1.506 -1.2023 -3.1764 -0.7376
  874MOL0     H20582   2.956  11.691  -1.481 -1.1772  0.0102 -0.6966
  874MOL0     H20583   2.968  11.628  -1.310  1.8359 -0.6296  0.1455
  874MOL0     H20584   3.099  11.483  -1.552  0.6335 -0.4916  0.6613
  874MOL0     H20585   3.122  11.447  -1.384 -2.2117 -1.0346  1.0982
  874MOL0     H20586   2.868  11.428  -1.357 -0.5475  2.7028 -2.2836
  874MOL0     H20587   2.950  11.292  -1.443  0.5282 -0.8106  2.6415
  874MOL0     H20588   2.787  11.323  -1.593  2.3346 -0.8325 -4.0492
  874MOL0     H20589   2.902  11.435  -1.659 -0.0341 -3.2894 -0.9873
  874MOL0     H20590   2.782  11.624  -1.540  2.3184 -1.0361 -0.6143
  874MOL0     H20591   2.680  11.497  -1.462  0.4357 -1.4016 -1.1828
  874MOL0     H20592   2.968  12.246  -1.142  0.4505 -0.1561 -0.1037
  874MOL0     H20593   2.842  12.332  -0.930 -0.3363  1.3829 -2.6065
  874MOL0     H20594   2.568  12.207  -0.582 -1.8082  0.4522  1.3016
  874MOL0     H20595   2.436  12.313  -0.412  0.4433 -1.2846 -1.8045
  874MOL0     H20596   1.231  11.933   0.675 -1.6392  2.6580 -3.4309
  874MOL0     H20597   1.099  11.806   0.834 -1.7297  1.3682  0.1807
  874MOL0     H20598   0.822  11.242   0.819 -1.3764  1.0815 -1.0193
  874MOL0     H20599   0.687  11.133   0.980 -1.1696  0.8354 -1.0710
  874MOL0     H20600   0.614  11.334   1.389 -2.2123 -1.1851  0.8629
  874MOL0     H20601   0.498  11.387   1.266 -2.2525 -0.8731  0.0466
  874MOL0     H20602   0.379  11.166   1.313 -1.6468  2.5832 -0.3003
  874MOL0     H20603   0.384  11.277   1.437 -0.7788 -0.3600 -1.9510
  874MOL0     H20604   0.570  11.028   1.397  1.2694  1.0778  0.8549
  874MOL0     H20605   0.577  11.126   1.537  0.2940  0.1256 -0.0884
  874MOL0     H20606   0.454  10.918   1.563 -0.1066 -0.2008 -0.8419
  874MOL0     H20607   0.328  10.967   1.449  1.2183 -0.2244 -1.0820
  874MOL0     H20608   0.191  11.199   1.766 -0.3977  0.1720 -1.1263
  874MOL0     H20609   0.722  11.485   1.240  0.4771 -1.0230  0.0785
  874MOL0     H20610   1.015  11.582   1.054  0.7310  0.1730  0.5912
  874MOL0     H20611   0.882  11.693   1.025  1.0038  0.4822  0.0464
  874MOL0     H20612   0.917  11.634   1.190  1.3895 -0.7323  0.0426
  875MOL0     O20613  11.386   6.349   9.640  0.3790 -0.5821 -0.6740
  875MOL0     C20614  11.307   6.385   9.729  0.3578  0.1175  0.4669
  875MOL0     O20615  11.334   6.417   9.862 -0.1742 -0.8769  0.4706
  875MOL0     C20616  11.463   6.431   9.901 -0.2102  0.6705  0.2650
  875MOL0     C20617  11.570   6.481   9.827 -0.2351 -1.1914  0.1662
  875MOL0     C20618  11.696   6.497   9.874 -0.6823  0.6208 -0.2168
  875MOL0     C20619  11.718   6.455  10.009  0.6770 -0.3474  0.8035
  875MOL0     O20620  11.837   6.473  10.071 -0.2001 -0.3395  0.3652
  875MOL0     C20621  11.902   6.599  10.071  0.5866 -0.1675  0.6016
  875MOL0     C20622  12.043   6.580  10.138  0.2914  0.5048 -0.1745
  875MOL0     C20623  12.142   6.692  10.134 -0.3119 -0.4956  0.1027
  875MOL0     C20624  12.084   6.833  10.168 -0.2525 -0.2839  0.8365
  875MOL0     C20625  12.182   6.948  10.155  0.1734  0.8539 -0.1905
  875MOL0     C20626  12.312   6.960  10.248  0.1638 -0.9565  0.2971
  875MOL0     C20627  12.399   7.087  10.243 -0.5965 -0.0642  0.4325
  875MOL0     C20628  12.330   7.218  10.270  0.2929  0.6009 -0.0990
  875MOL0     N20629  12.259   7.233  10.388  0.0600 -0.1441 -0.0736
  875MOL0     C20630  12.161   7.333  10.404  0.3623  1.5668  0.2667
  875MOL0     C20631  12.170   7.356  10.534  0.1064 -0.8118 -0.9694
  875MOL0     C20632  12.086   7.465  10.587 -1.1055 -0.1485  0.1839
  875MOL0     C20633  12.162   7.529  10.703  0.3440 -0.1908 -0.6717
  875MOL0     C20634  12.222   7.668  10.668 -0.2483 -0.1004  0.1401
  875MOL0     C20635  12.298   7.716  10.790 -0.0569 -0.0579  0.3110
  875MOL0     O20636  12.217   7.736  10.913  0.7172 -0.2110  0.1569
  875MOL0     C20637  12.118   7.827  10.910  0.2594 -0.9666  0.7868
  875MOL0     C20638  12.136   7.954  10.848 -0.8801 -0.2171 -0.2719
  875MOL0     C20639  12.025   8.048  10.840 -0.4497  0.8890  0.2788
  875MOL0     C20640  12.052   8.182  10.778 -0.1372 -0.5003 -0.4642
  875MOL0     C20641  11.897   8.019  10.890 -0.7882 -0.3060 -0.3844
  875MOL0     C20642  11.777   8.099  10.864 -0.1221 -0.8783  0.9858
  875MOL0     O20643  11.775   8.186  10.755  0.1750 -0.4158  0.0161
  875MOL0     C20644  11.672   8.269  10.728  0.2487 -0.0331 -0.2427
  875MOL0     C20645  11.538   8.258  10.768  0.7873 -0.3473  0.6982
  875MOL0     C20646  11.440   8.349  10.724 -0.3219 -0.5776 -0.4653
  875MOL0     C20647  11.482   8.457  10.645  0.4612  0.4684  0.4322
  875MOL0     O20648  11.398   8.563  10.622 -0.2727  0.1331 -0.2327
  875MOL0     C20649  11.270   8.536  10.583 -0.8136  0.9338 -0.5299
  875MOL0     C20650  11.194   8.662  10.536  0.1775 -0.3283  0.3163
  875MOL0     C20651  11.211   8.696  10.387  0.0112  0.2720 -0.0406
  875MOL0     C20652  11.336   8.770  10.358  0.3805  0.0929  0.0954
  875MOL0     C20653  11.358   8.769  10.196 -1.1769  0.5573 -0.8362
  875MOL0     C20654  11.481   8.849  10.144 -0.0699 -0.4561  0.1973
  875MOL0     C20655  11.614   8.806  10.215 -0.1701 -0.2980 -0.3186
  875MOL0     C20656  11.654   8.656  10.185 -0.9302 -0.9232 -0.4365
  875MOL0    Cl20657  11.818   8.629  10.252  0.1402 -0.2142  0.4451
  875MOL0     C20658  11.613   8.474  10.603  0.7774 -0.1623  0.9394
  875MOL0     C20659  11.707   8.375  10.646 -0.4379 -0.5286 -0.1300
  875MOL0     O20660  11.678   8.095  10.936 -0.2778 -0.3401 -0.6128
  875MOL0     C20661  11.890   7.898  10.959  0.0292  0.1783  0.4093
  875MOL0     C20662  11.998   7.808  10.970  0.3182 -0.0694  0.4262
  875MOL0     N20663  12.265   7.284  10.592  0.2521 -0.7039  0.5026
  875MOL0     N20664  12.325   7.214  10.497 -0.8979  0.0128 -0.9188
  875MOL0     C20665  11.624   6.398  10.086 -0.0681  0.8382  1.1932
  875MOL0     C20666  11.496   6.378  10.029  0.3921 -0.3594  0.1053
  875MOL0     C20667  11.170   6.407   9.670  1.1245  0.0634  0.5141
  875MOL0     C20668  11.142   6.350   9.543 -0.6483  0.4316  0.0460
  875MOL0     C20669  11.017   6.382   9.481 -0.2454  0.1366 -0.3189
  875MOL0     C20670  10.920   6.461   9.538  1.3047  0.9848  0.1158
  875MOL0     O20671  10.796   6.506   9.476 -0.4216  0.3398 -1.0519
  875MOL0     C20672  10.758   6.444   9.351 -0.4191  0.5871  0.5610
  875MOL0     C20673  10.822   6.521   9.236  0.0113 -0.4319  0.1060
  875MOL0     C20674  10.714   6.601   9.166  1.3554 -0.4301 -0.0804
  875MOL0     C20675  10.750   6.656   9.024 -0.0068  0.6445  0.4629
  875MOL0     C20676  10.861   6.756   9.038  0.3198 -0.6570  0.9456
  875MOL0     C20677  10.946   6.853   9.052  0.3193  1.2380  0.9785
  875MOL0     C20678  10.947   6.506   9.661 -0.2517 -0.3973 -0.3099
  875MOL0     C20679  11.069   6.481   9.728 -0.1768  1.1844 -0.1545
  875MOL0     C20680  11.078   6.524   9.874 -0.4800 -0.0246  0.2529
  875MOL0     H20681  11.548   6.511   9.724  0.7671  1.1023  0.5525
  875MOL0     H20682  11.772   6.543   9.811  1.6916 -0.4141  1.7254
  875MOL0     H20683  11.839   6.659  10.136 -1.8570 -1.0609 -0.7748
  875MOL0     H20684  11.890   6.648   9.973 -3.6322 -1.1999  0.3976
  875MOL0     H20685  12.020   6.558  10.243 -0.4360 -2.0973 -0.8017
  875MOL0     H20686  12.084   6.486  10.099 -2.4805  1.3971 -6.4160
  875MOL0     H20687  12.218   6.657  10.203 -0.3821  2.4041  1.8006
  875MOL0     H20688  12.192   6.702  10.037 -1.6522  0.5757 -0.5146
  875MOL0     H20689  12.000   6.858  10.103 -0.6252 -0.0027  1.4207
  875MOL0     H20690  12.052   6.833  10.272  0.3697  0.7611  1.0414
  875MOL0     H20691  12.114   7.034  10.158 -0.7266  0.1302  2.3293
  875MOL0     H20692  12.221   6.941  10.053 -0.3203 -0.1739 -0.3214
  875MOL0     H20693  12.275   6.941  10.349  0.6589 -3.9274 -0.0010
  875MOL0     H20694  12.371   6.870  10.230  1.3613 -0.1733  0.2139
  875MOL0     H20695  12.440   7.085  10.142  2.7989  0.3343  1.6506
  875MOL0     H20696  12.483   7.085  10.314  0.8230  3.0554 -0.9517
  875MOL0     H20697  12.417   7.284  10.276  1.2859 -0.6910  0.1443
  875MOL0     H20698  12.268   7.245  10.183 -1.9403  1.0455  1.5405
  875MOL0     H20699  12.099   7.381  10.328 -0.5689  0.6803  0.4450
  875MOL0     H20700  11.999   7.410  10.626 -0.0955 -1.6000  0.4996
  875MOL0     H20701  12.057   7.540  10.513 -0.1529 -0.8188 -0.9079
  875MOL0     H20702  12.085   7.540  10.781 -0.4070  3.4091 -1.7339
  875MOL0     H20703  12.233   7.456  10.744  1.8549  1.2595 -0.6243
  875MOL0     H20704  12.286   7.662  10.580  0.7624 -1.3742  0.9188
  875MOL0     H20705  12.145   7.741  10.642  1.8944  2.5614  0.8769
  875MOL0     H20706  12.372   7.638  10.811 -1.4607 -2.1518 -2.0096
  875MOL0     H20707  12.357   7.806  10.770 -0.2609 -0.2857 -1.4635
  875MOL0     H20708  12.233   7.981  10.807  0.4956 -1.7677  1.7781
  875MOL0     H20709  12.011   8.189  10.677 -2.4794  2.2561  0.5526
  875MOL0     H20710  12.161   8.196  10.781 -0.3070  0.7188  0.5976
  875MOL0     H20711  12.011   8.269  10.830  1.0054 -0.1605 -0.0911
  875MOL0     H20712  11.495   8.168  10.809 -0.4689 -0.1899 -0.2106
  875MOL0     H20713  11.341   8.318  10.758  0.7824 -3.4098  0.4865
  875MOL0     H20714  11.272   8.456  10.508 -3.1563 -1.9166  2.1366
  875MOL0     H20715  11.214   8.501  10.670  3.0250 -1.4875  1.2373
  875MOL0     H20716  11.087   8.650  10.553  0.2432  0.5158  1.4762
  875MOL0     H20717  11.237   8.749  10.585 -0.2954  0.9448 -1.4552
  875MOL0     H20718  11.121   8.757  10.372 -1.7110 -1.6051  2.0904
  875MOL0     H20719  11.199   8.606  10.327 -0.0147  0.0828  0.2459
  875MOL0     H20720  11.422   8.726  10.410 -0.0087 -2.3841 -1.1934
  875MOL0     H20721  11.328   8.875  10.386 -0.3833 -0.3393  1.6270
  875MOL0     H20722  11.363   8.662  10.176 -0.5138  0.5163 -0.4536
  875MOL0     H20723  11.266   8.802  10.145 -0.3154  2.1198 -1.4426
  875MOL0     H20724  11.462   8.954  10.168 -0.3824  0.2759 -2.9077
  875MOL0     H20725  11.479   8.849  10.035 -2.0048  0.1504  0.1924
  875MOL0     H20726  11.602   8.820  10.323  1.1695  0.8819 -0.2988
  875MOL0     H20727  11.701   8.862  10.178 -0.9355  0.0032 -1.7353
  875MOL0     H20728  11.649   8.649  10.076 -4.1021 -2.0195 -0.3341
  875MOL0     H20729  11.581   8.585  10.226 -1.5176  0.7385  1.5804
  875MOL0     H20730  11.647   8.553  10.536 -2.2933 -1.4530 -2.4290
  875MOL0     H20731  11.810   8.388  10.617 -0.3171  0.8814  0.8326
  875MOL0     H20732  11.791   7.868  10.989 -0.6354 -0.6536 -2.3748
  875MOL0     H20733  12.001   7.729  11.045 -0.3493 -0.2980  0.2143
  875MOL0     H20734  11.649   6.368  10.187 -0.5411 -0.7215  0.8741
  875MOL0     H20735  11.424   6.330  10.095 -0.4846 -0.3513 -0.8006
  875MOL0     H20736  11.216   6.288   9.494 -0.8768  1.1712 -1.2982
  875MOL0     H20737  11.002   6.343   9.382 -1.0685 -1.2285  0.3180
  875MOL0     H20738  10.785   6.339   9.346 -1.2906  0.3813 -0.2620
  875MOL0     H20739  10.648   6.446   9.350 -0.4840 -1.4387  0.2877
  875MOL0     H20740  10.870   6.457   9.161  0.6649  1.9357 -1.6201
  875MOL0     H20741  10.907   6.577   9.275 -0.5419  0.4317  0.1001
  875MOL0     H20742  10.625   6.539   9.150  2.4000 -1.4078 -2.7794
  875MOL0     H20743  10.682   6.676   9.239 -3.3650 -2.7891  0.6141
  875MOL0     H20744  10.666   6.710   8.980 -2.3734 -1.9496  1.5576
  875MOL0     H20745  10.760   6.574   8.953  1.3305  0.5986  0.6700
  875MOL0     H20746  11.027   6.922   9.065  0.2182  1.3551  0.9891
  875MOL0     H20747  10.875   6.573   9.709  2.1405  0.6042  2.1624
  875MOL0     H20748  10.988   6.580   9.901  0.6030  1.4997  0.8901
  875MOL0     H20749  11.104   6.444   9.944  3.5804  0.3386 -0.5532
  875MOL0     H20750  11.164   6.592   9.869 -0.3433 -0.2786 -3.1220
  876MOL0     O20751   9.618   0.746   0.273 -0.9845  0.0425 -0.3516
  876MOL0     C20752   9.567   0.863   0.246 -0.1265  0.1676  0.1226
  876MOL0     O20753   9.444   0.908   0.265  0.2660 -0.3067 -0.2466
  876MOL0     C20754   9.349   0.816   0.304 -0.4605  0.8908  0.6128
  876MOL0     C20755   9.316   0.827   0.432  0.4698 -0.0824 -0.0640
  876MOL0     C20756   9.227   0.737   0.497 -1.2699  0.6783  0.0196
  876MOL0     C20757   9.193   0.622   0.430 -0.0423  0.2143 -0.1895
  876MOL0     O20758   9.139   0.518   0.496  0.1094 -0.3288 -0.6598
  876MOL0     C20759   9.020   0.547   0.566  0.8590  0.0199 -0.4882
  876MOL0     C20760   8.931   0.426   0.560 -0.8511  0.6776  0.0132
  876MOL0     C20761   8.849   0.423   0.433 -0.2753 -0.6607 -0.1371
  876MOL0     C20762   8.696   0.432   0.457 -0.0437 -0.6808 -0.0778
  876MOL0     C20763   8.610   0.445   0.327  0.2087  0.2980 -0.6348
  876MOL0     C20764   8.462   0.419   0.348  0.1394  0.2827 -0.4457
  876MOL0     C20765   8.430   0.281   0.401 -0.1636  0.5313 -0.1141
  876MOL0     C20766   8.283   0.256   0.429  0.8807  0.1284  0.0599
  876MOL0     N20767   8.202   0.235   0.310 -0.7450  1.1414  0.3011
  876MOL0     C20768   8.079   0.295   0.290 -0.0235 -0.7833  0.2216
  876MOL0     C20769   8.045   0.261   0.166  0.2882 -0.7941 -0.3638
  876MOL0     C20770   7.917   0.293   0.090  1.0892  0.0480 -0.1931
  876MOL0     C20771   7.913   0.219  -0.047  0.4051  0.2126 -0.3773
  876MOL0     C20772   7.779   0.233  -0.122  0.2789 -0.2020  0.5934
  876MOL0     C20773   7.774   0.376  -0.193 -0.1081  0.7464  0.8011
  876MOL0     O20774   7.656   0.369  -0.276 -0.0428 -0.5472  1.1719
  876MOL0     C20775   7.617   0.486  -0.341  0.1629  0.3400  0.0152
  876MOL0     C20776   7.507   0.560  -0.295  0.8221 -0.0548  1.3090
  876MOL0     C20777   7.456   0.672  -0.364 -0.7509 -0.6284 -0.2402
  876MOL0     C20778   7.322   0.726  -0.326 -0.1188 -0.2511  0.2736
  876MOL0     C20779   7.523   0.719  -0.479 -0.8102 -0.3085 -0.0846
  876MOL0     C20780   7.492   0.839  -0.559  0.6163  0.4048  0.0552
  876MOL0     O20781   7.562   0.866  -0.671  0.5459  0.5239 -0.3002
  876MOL0     C20782   7.539   0.990  -0.726 -0.4991 -1.0186 -0.0476
  876MOL0     C20783   7.463   1.004  -0.846 -0.4408 -0.1540 -0.1971
  876MOL0     C20784   7.424   1.122  -0.899  0.3651  0.1102  1.1407
  876MOL0     C20785   7.459   1.239  -0.835  0.4191  0.6687 -0.2727
  876MOL0     O20786   7.434   1.357  -0.892 -0.8506 -0.3488  0.2311
  876MOL0     C20787   7.308   1.415  -0.860  0.4679  0.1478  0.5518
  876MOL0     C20788   7.327   1.557  -0.802 -0.0808 -0.1224  0.0630
  876MOL0     C20789   7.204   1.642  -0.831  0.6307  0.7560  0.4927
  876MOL0     C20790   7.211   1.779  -0.752 -0.1317 -0.2772 -0.2890
  876MOL0     C20791   7.122   1.896  -0.816  0.2143  0.1597 -0.1967
  876MOL0     C20792   7.183   1.962  -0.939 -0.6845 -0.2761  0.9237
  876MOL0     C20793   7.107   2.078  -0.993  0.8167  0.3925  0.3760
  876MOL0     C20794   7.142   2.120  -1.142  0.4578  0.0382 -0.2527
  876MOL0    Cl20795   7.078   1.978  -1.230  0.1929 -0.0080 -0.3299
  876MOL0     C20796   7.543   1.233  -0.716  0.6246  0.4795 -0.0164
  876MOL0     C20797   7.575   1.112  -0.668  0.3859  0.9680 -0.1706
  876MOL0     O20798   7.402   0.916  -0.528  0.3008 -0.2956 -0.2503
  876MOL0     C20799   7.633   0.642  -0.527  0.4423  0.0156  0.1916
  876MOL0     C20800   7.682   0.533  -0.454  0.0960  0.2355 -0.3824
  876MOL0     N20801   8.134   0.168   0.122  0.8531  0.4818 -0.0462
  876MOL0     N20802   8.222   0.152   0.207 -1.1959 -0.0759 -0.1958
  876MOL0     C20803   9.237   0.606   0.299 -0.0982 -0.2310 -0.9255
  876MOL0     C20804   9.312   0.699   0.230  0.2484 -0.5943 -0.2122
  876MOL0     C20805   9.658   0.961   0.187 -0.0478  0.2612  0.1650
  876MOL0     C20806   9.650   0.989   0.049 -0.6019  0.4082  0.5543
  876MOL0     C20807   9.731   1.090   0.002  0.4328 -0.0943  1.0385
  876MOL0     C20808   9.840   1.146   0.077  0.2638  0.4327  0.1236
  876MOL0     O20809   9.934   1.233   0.032  0.0418 -0.2753  1.0031
  876MOL0     C20810   9.932   1.272  -0.111  0.3128  0.9949  0.6850
  876MOL0     C20811  10.027   1.393  -0.139  0.5717  0.2198  0.2698
  876MOL0     C20812  10.008   1.460  -0.275 -0.1825  0.6153 -0.2393
  876MOL0     C20813  10.073   1.604  -0.258 -0.0638  0.2792 -0.6808
  876MOL0     C20814  10.220   1.607  -0.296  0.3246 -0.8764 -0.9211
  876MOL0     C20815  10.343   1.613  -0.314 -0.7105  1.5842  0.1459
  876MOL0     C20816   9.841   1.116   0.209  0.3062 -0.2965 -0.3363
  876MOL0     C20817   9.757   1.016   0.266  0.2094 -0.4080  0.4774
  876MOL0     C20818   9.774   0.974   0.411  0.5781  0.3126  0.6053
  876MOL0     H20819   9.333   0.917   0.491 -0.6636 -0.7812  1.3586
  876MOL0     H20820   9.211   0.737   0.604  3.2661 -3.0003  1.0472
  876MOL0     H20821   8.967   0.634   0.528 -1.8478 -0.8140  1.1336
  876MOL0     H20822   9.042   0.567   0.671  1.5876 -0.5665 -0.5148
  876MOL0     H20823   8.989   0.340   0.594 -2.3323  0.5252  2.4307
  876MOL0     H20824   8.864   0.425   0.647 -1.1166 -1.7515 -0.1451
  876MOL0     H20825   8.886   0.501   0.366 -0.1132 -0.5822  0.0426
  876MOL0     H20826   8.870   0.328   0.383  0.9722 -0.9839  0.9446
  876MOL0     H20827   8.657   0.363   0.532  0.7216 -1.3348 -0.2696
  876MOL0     H20828   8.680   0.525   0.513  0.1900 -0.6790 -0.0101
  876MOL0     H20829   8.665   0.370   0.269  1.3458 -0.4832  1.3376
  876MOL0     H20830   8.629   0.542   0.280  0.5568  0.1289 -0.8506
  876MOL0     H20831   8.433   0.491   0.425 -1.3948 -0.8823  0.1304
  876MOL0     H20832   8.401   0.435   0.259 -1.3827 -3.1262 -0.1746
  876MOL0     H20833   8.476   0.276   0.500 -0.3257 -0.1400 -0.0666
  876MOL0     H20834   8.467   0.199   0.338 -1.6318 -2.6907  2.8366
  876MOL0     H20835   8.246   0.180   0.498 -1.2647  0.8101 -0.2734
  876MOL0     H20836   8.254   0.356   0.464  0.9049  0.5989 -1.2251
  876MOL0     H20837   8.033   0.376   0.345  0.6408  2.1368 -3.1555
  876MOL0     H20838   7.903   0.400   0.077  1.3126  0.2187  0.8348
  876MOL0     H20839   7.831   0.258   0.148 -0.6333  2.1355 -1.3817
  876MOL0     H20840   7.983   0.268  -0.116 -1.3678 -0.5288 -2.8755
  876MOL0     H20841   7.935   0.114  -0.025 -2.9148 -0.3214  1.0149
  876MOL0     H20842   7.772   0.155  -0.197 -1.5615  2.0172 -1.7233
  876MOL0     H20843   7.699   0.215  -0.050 -1.5815  2.4047 -0.6442
  876MOL0     H20844   7.757   0.463  -0.128 -2.3899  0.8950  0.0894
  876MOL0     H20845   7.863   0.401  -0.251  1.0746 -1.0727  1.6998
  876MOL0     H20846   7.437   0.513  -0.227 -0.5170 -0.5651 -0.3528
  876MOL0     H20847   7.244   0.693  -0.395 -0.4754  0.6013  0.2528
  876MOL0     H20848   7.334   0.835  -0.319 -2.6490 -0.0393  3.1346
  876MOL0     H20849   7.293   0.707  -0.223  1.0261  0.2828  0.7151
  876MOL0     H20850   7.432   0.915  -0.900 -0.4261 -0.4709  0.3040
  876MOL0     H20851   7.368   1.134  -0.991  1.6371  2.4532  0.5774
  876MOL0     H20852   7.259   1.424  -0.957  2.0283  0.4819 -0.2459
  876MOL0     H20853   7.248   1.343  -0.804 -0.1702 -0.0320 -0.3405
  876MOL0     H20854   7.340   1.551  -0.694 -0.9540  2.2230  0.3654
  876MOL0     H20855   7.412   1.611  -0.844 -0.5931  0.3792 -0.3587
  876MOL0     H20856   7.108   1.592  -0.814  0.1022  0.7724 -2.0581
  876MOL0     H20857   7.218   1.654  -0.939  2.7545 -3.1093  0.1229
  876MOL0     H20858   7.314   1.816  -0.757 -0.2842  0.0031 -3.2454
  876MOL0     H20859   7.170   1.761  -0.652 -0.5364  2.7980  0.1833
  876MOL0     H20860   7.019   1.873  -0.842 -0.7662  5.9392 -3.0667
  876MOL0     H20861   7.110   1.977  -0.744 -0.8623  1.3263 -1.6245
  876MOL0     H20862   7.196   1.885  -1.015 -1.3463  2.3776 -2.0828
  876MOL0     H20863   7.287   1.992  -0.918 -1.7655  5.4183 -0.1838
  876MOL0     H20864   7.122   2.164  -0.927 -0.6522  0.2424  0.9466
  876MOL0     H20865   6.999   2.069  -0.976  0.6610  0.6936 -0.3870
  876MOL0     H20866   7.249   2.133  -1.160 -0.1865  1.6187 -3.5529
  876MOL0     H20867   7.084   2.206  -1.176  0.4254  1.2039  2.4785
  876MOL0     H20868   7.568   1.317  -0.652 -2.3235  0.7389  0.9499
  876MOL0     H20869   7.619   1.099  -0.570  1.7273 -0.2871 -0.8880
  876MOL0     H20870   7.683   0.665  -0.621 -0.3113  1.7802  0.1693
  876MOL0     H20871   7.767   0.474  -0.486 -0.2210 -0.9293  0.8322
  876MOL0     H20872   9.223   0.511   0.249  0.7577 -1.3474  0.8340
  876MOL0     H20873   9.332   0.685   0.124 -1.2461 -0.5623 -0.5217
  876MOL0     H20874   9.569   0.957  -0.016 -1.6764  1.4125  1.3501
  876MOL0     H20875   9.712   1.138  -0.093 -0.5497  2.3730  2.4003
  876MOL0     H20876   9.961   1.188  -0.174 -1.2720 -0.9028  2.3702
  876MOL0     H20877   9.830   1.303  -0.132  0.2483 -0.3259 -1.2211
  876MOL0     H20878  10.131   1.364  -0.122  0.4322  0.0333  0.8181
  876MOL0     H20879   9.992   1.471  -0.070  0.1659 -0.9909  1.4735
  876MOL0     H20880  10.053   1.411  -0.362  2.6847  0.4763  1.2025
  876MOL0     H20881   9.900   1.469  -0.291 -1.2571 -1.7172  4.0548
  876MOL0     H20882  10.060   1.643  -0.157 -0.3798 -1.1603 -0.1385
  876MOL0     H20883  10.025   1.671  -0.330  1.2833  0.1128 -1.7829
  876MOL0     H20884  10.446   1.625  -0.343 -0.5903  2.0157  0.7086
  876MOL0     H20885   9.906   1.168   0.279 -1.1785 -0.2420  1.0696
  876MOL0     H20886   9.793   0.870   0.438 -2.6956 -0.2444  1.0860
  876MOL0     H20887   9.867   1.027   0.434  1.2756  0.2187 -1.7080
  876MOL0     H20888   9.692   1.017   0.469 -0.0217 -1.5717  1.2268
  877MOL0     O20889   3.806  10.783  10.134 -0.4841  0.8233 -0.0721
  877MOL0     C20890   3.796  10.729  10.021  0.4758 -0.0352 -1.1265
  877MOL0     O20891   3.827  10.796   9.903 -0.1485 -0.1235 -0.1775
  877MOL0     C20892   3.821  10.932   9.905 -0.3943 -0.0665 -0.6807
  877MOL0     C20893   3.933  10.995   9.840  0.4266  0.0075  0.6296
  877MOL0     C20894   3.940  11.135   9.831 -0.2919  0.9310  0.4393
  877MOL0     C20895   3.848  11.220   9.897  0.3892  0.2770 -0.9476
  877MOL0     O20896   3.829  11.352   9.885 -0.6670 -0.6828  0.0933
  877MOL0     C20897   3.948  11.448   9.886  0.1542  1.1839 -0.4280
  877MOL0     C20898   4.014  11.444  10.023  0.0651  0.6549  0.0651
  877MOL0     C20899   4.089  11.314  10.060  0.0501 -0.0063  0.1859
  877MOL0     C20900   4.189  11.326  10.182  0.5385  0.1830 -0.1782
  877MOL0     C20901   4.278  11.197  10.195  0.0796 -0.6976  0.5499
  877MOL0     C20902   4.201  11.058  10.200 -0.4129 -0.7917 -1.0826
  877MOL0     C20903   4.082  11.037  10.298  0.5253 -0.7764  0.4209
  877MOL0     C20904   4.141  11.019  10.435  0.1737  0.0185 -0.8579
  877MOL0     N20905   4.207  11.133  10.500 -0.9924 -0.1019 -0.0627
  877MOL0     C20906   4.145  11.215  10.596  0.0957  0.9660  0.4829
  877MOL0     C20907   4.244  11.271  10.667  0.1616  0.0674  0.2268
  877MOL0     C20908   4.242  11.388  10.776 -0.2234  1.2789  0.3901
  877MOL0     C20909   4.178  11.519  10.723  0.8064  0.5430  0.6568
  877MOL0     C20910   4.189  11.626  10.833  0.6836  0.1010 -0.5376
  877MOL0     C20911   4.092  11.626  10.953 -0.1998  0.3020 -0.3486
  877MOL0     O20912   3.963  11.677  10.919  0.4649 -0.4995  0.7949
  877MOL0     C20913   3.936  11.811  10.931 -0.0844  0.0660  0.0585
  877MOL0     C20914   3.802  11.860  10.938  0.1112 -0.4168  0.9241
  877MOL0     C20915   3.771  11.989  10.964 -0.4492  0.1975  0.5879
  877MOL0     C20916   3.638  12.033  10.936  0.7430 -0.2928  0.5155
  877MOL0     C20917   3.875  12.085  10.989  0.3539  0.0847 -0.3852
  877MOL0     C20918   3.844  12.220  11.025 -0.0713 -0.2912 -0.2924
  877MOL0     O20919   3.866  12.332  10.944  0.1814  0.2018  0.6414
  877MOL0     C20920   3.808  12.441  10.985  1.0124 -0.5098  0.5629
  877MOL0     C20921   3.885  12.559  11.016 -0.1667  0.3879  0.9154
  877MOL0     C20922   3.822  12.684  11.025  0.4620 -0.8516  0.2824
  877MOL0     C20923   3.683  12.690  11.050 -0.2501  0.3807  0.8611
  877MOL0     O20924   3.627  12.804  11.108  0.6381  0.3736 -0.5022
  877MOL0     C20925   3.490  12.818  11.135  0.6700 -0.1070  0.7327
  877MOL0     C20926   3.465  12.941  11.219  0.6646 -0.2837  0.4834
  877MOL0     C20927   3.535  12.955  11.351 -0.7670 -0.5971 -0.5431
  877MOL0     C20928   3.549  13.099  11.407  0.0129  0.0447  0.2581
  877MOL0     C20929   3.612  13.092  11.546 -1.8963 -0.4190  0.5141
  877MOL0     C20930   3.618  13.234  11.610  0.2894  0.0887 -0.8244
  877MOL0     C20931   3.697  13.206  11.738 -0.4433  0.6761  0.1327
  877MOL0     C20932   3.737  13.331  11.801  0.0211  0.1471 -0.0673
  877MOL0    Cl20933   3.581  13.404  11.860 -0.2352  0.3613  0.0369
  877MOL0     C20934   3.607  12.574  11.019 -0.0039 -0.9900  0.1666
  877MOL0     C20935   3.667  12.447  10.985  0.4573 -0.4383 -0.4361
  877MOL0     O20936   3.794  12.229  11.137 -0.7518  0.2795 -0.1291
  877MOL0     C20937   4.012  12.044  10.984  0.6315 -0.3048  0.0072
  877MOL0     C20938   4.043  11.910  10.949 -0.0226 -1.1726 -0.0352
  877MOL0     N20939   4.352  11.217  10.620 -0.5861  0.7232  0.4072
  877MOL0     N20940   4.337  11.127  10.522 -1.0879  0.3465 -0.3099
  877MOL0     C20941   3.754  11.157   9.981 -0.1300  0.1004  0.5483
  877MOL0     C20942   3.744  11.016   9.983  0.7227  0.7505  0.5133
  877MOL0     C20943   3.794  10.574   9.993  0.5282  0.5888  1.0943
  877MOL0     C20944   3.823  10.521   9.860  0.2814 -0.0382  0.8278
  877MOL0     C20945   3.802  10.389   9.826 -0.8329 -0.9990 -0.6593
  877MOL0     C20946   3.764  10.302   9.918  0.3667 -0.1275 -0.2742
  877MOL0     O20947   3.741  10.169   9.882 -0.1744 -0.0999  1.2490
  877MOL0     C20948   3.666  10.145   9.762  0.3183  0.1404 -0.3155
  877MOL0     C20949   3.618   9.995   9.767  0.1652 -1.1214 -0.3530
  877MOL0     C20950   3.549   9.964   9.899 -0.4893  1.0378 -0.7911
  877MOL0     C20951   3.436  10.068   9.940 -0.5577 -0.6098  0.6261
  877MOL0     C20952   3.378  10.039  10.075  0.6258 -0.2725  0.3849
  877MOL0     C20953   3.343  10.012  10.186  0.0540  0.0727 -0.0055
  877MOL0     C20954   3.739  10.342  10.052  0.6897 -0.0531  0.2110
  877MOL0     C20955   3.751  10.474  10.097  0.2695  0.8223  0.5038
  877MOL0     C20956   3.751  10.512  10.245  0.0532 -0.2210 -0.4963
  877MOL0     H20957   4.003  10.931   9.787 -0.7366 -1.3642  0.6754
  877MOL0     H20958   4.011  11.187   9.767  0.5899  3.4730  3.2075
  877MOL0     H20959   3.907  11.546   9.859  0.2172  1.0350 -1.0717
  877MOL0     H20960   4.024  11.423   9.812 -1.9424  0.1590 -2.3440
  877MOL0     H20961   4.081  11.529  10.038  0.0419  1.0994 -2.1072
  877MOL0     H20962   3.935  11.455  10.098 -0.7028 -0.3795 -0.5617
  877MOL0     H20963   4.020  11.231  10.079  0.3821  0.1791  2.4288
  877MOL0     H20964   4.142  11.286   9.968  0.9342  2.1961 -0.0218
  877MOL0     H20965   4.247  11.418  10.179 -2.4172  2.1544 -0.5025
  877MOL0     H20966   4.125  11.342  10.269  2.9881  1.1545  1.5563
  877MOL0     H20967   4.341  11.214  10.283 -2.8889  2.8186  2.2478
  877MOL0     H20968   4.346  11.191  10.109  1.1763 -3.0528  1.4834
  877MOL0     H20969   4.160  11.051  10.098 -3.5771  1.1390 -0.0987
  877MOL0     H20970   4.270  10.974  10.205  1.4700  0.7624  1.4843
  877MOL0     H20971   4.024  10.948  10.272 -1.1477 -0.0336  1.4214
  877MOL0     H20972   4.014  11.123  10.296  1.5377  0.0349 -0.4559
  877MOL0     H20973   4.069  10.972  10.502  1.6252 -2.0460 -0.6507
  877MOL0     H20974   4.215  10.941  10.415  1.1517  0.1170  1.9374
  877MOL0     H20975   4.040  11.236  10.611 -0.2556 -2.3707  4.4935
  877MOL0     H20976   4.345  11.404  10.808 -0.6710  3.0476  1.0581
  877MOL0     H20977   4.183  11.342  10.856  1.8554 -1.4948  0.4702
  877MOL0     H20978   4.239  11.539  10.635  1.2502 -3.0161 -0.0068
  877MOL0     H20979   4.076  11.503  10.687  0.7689  1.9394  0.0980
  877MOL0     H20980   4.292  11.640  10.866  0.1788  0.4954  0.9772
  877MOL0     H20981   4.150  11.711  10.776 -1.0279 -1.1726 -1.3546
  877MOL0     H20982   4.099  11.521  10.983  1.0713  0.3423 -0.4547
  877MOL0     H20983   4.128  11.675  11.044 -2.0021  0.2023  0.4466
  877MOL0     H20984   3.732  11.784  10.905 -0.0925  0.6234 -1.1901
  877MOL0     H20985   3.632  12.119  10.869  2.3614 -0.3773  0.2189
  877MOL0     H20986   3.577  12.067  11.020  0.8050 -1.0524  0.8809
  877MOL0     H20987   3.580  11.951  10.892  1.8958 -1.3979  0.9986
  877MOL0     H20988   3.993  12.556  11.021 -0.1595 -0.9257  0.4905
  877MOL0     H20989   3.875  12.777  11.040  3.2506 -2.0777 -1.1656
  877MOL0     H20990   3.426  12.814  11.047 -0.8135  0.1054  1.7692
  877MOL0     H20991   3.455  12.735  11.197 -0.4357 -0.2753 -0.0920
  877MOL0     H20992   3.500  13.029  11.165  0.3029 -0.4793 -0.0736
  877MOL0     H20993   3.357  12.954  11.229  0.9286  1.7243  1.3788
  877MOL0     H20994   3.633  12.914  11.324 -1.2782  1.0063 -5.9972
  877MOL0     H20995   3.497  12.873  11.412  0.0420 -0.5935 -0.0134
  877MOL0     H20996   3.446  13.134  11.413 -1.0316 -2.9035  2.0152
  877MOL0     H20997   3.593  13.172  11.339  0.1429  0.2595  0.5682
  877MOL0     H20998   3.553  13.025  11.609  1.6329 -1.9944  2.4463
  877MOL0     H20999   3.709  13.042  11.539 -1.4019  0.5730  0.1940
  877MOL0     H21000   3.526  13.289  11.627  0.8541  1.0804 -0.9161
  877MOL0     H21001   3.672  13.302  11.544 -0.6210  2.6119  0.8827
  877MOL0     H21002   3.791  13.154  11.718  0.8202  2.9872 -0.3130
  877MOL0     H21003   3.649  13.129  11.798  2.3942 -2.3894 -1.2165
  877MOL0     H21004   3.794  13.393  11.732 -1.2828  1.7709  0.2616
  877MOL0     H21005   3.798  13.312  11.890  1.0767 -1.1176 -1.0182
  877MOL0     H21006   3.503  12.561  11.048 -0.6600  2.3927 -0.3069
  877MOL0     H21007   3.604  12.361  10.965  0.4768 -0.4125 -0.6012
  877MOL0     H21008   4.079  12.124  11.014 -0.6316  2.0368 -2.8553
  877MOL0     H21009   4.146  11.878  10.935  0.1858 -0.0723 -1.2167
  877MOL0     H21010   3.680  11.217  10.033 -0.2522  2.7026 -2.3214
  877MOL0     H21011   3.664  10.977  10.045  0.7032  1.4092  0.9079
  877MOL0     H21012   3.856  10.598   9.791 -0.5795 -0.0967  0.3318
  877MOL0     H21013   3.829  10.346   9.730  1.4398 -0.2635 -0.4030
  877MOL0     H21014   3.587  10.220   9.763  1.0473  0.9116 -0.3164
  877MOL0     H21015   3.737  10.166   9.681 -0.3690  1.6764 -0.5488
  877MOL0     H21016   3.714   9.943   9.757 -0.1851 -1.3099 -3.8235
  877MOL0     H21017   3.559   9.966   9.679  0.1734 -0.8941 -0.4321
  877MOL0     H21018   3.501   9.866   9.896 -1.3409  1.3760  0.5904
  877MOL0     H21019   3.614   9.951   9.986 -0.1709 -2.7178 -1.4018
  877MOL0     H21020   3.349  10.058   9.874 -1.9456  0.8910  2.1071
  877MOL0     H21021   3.466  10.173   9.945 -3.2940  0.2479  1.1374
  877MOL0     H21022   3.317   9.980  10.285 -2.1881 -1.4710 -1.0107
  877MOL0     H21023   3.705  10.264  10.120 -0.6854  1.5576  1.4603
  877MOL0     H21024   3.855  10.523  10.277  0.5051 -2.7502 -0.9177
  877MOL0     H21025   3.702  10.610  10.250  0.0863 -0.2515  3.2450
  877MOL0     H21026   3.701  10.441  10.312 -1.2816  0.2083 -1.0048
  878MOL0     O21027  10.130   2.113  11.315  0.5138 -0.9840 -0.3350
  878MOL0     C21028  10.024   2.171  11.292  0.1822 -0.0782 -0.3955
  878MOL0     O21029   9.916   2.153  11.364  0.0873  0.6984  0.4831
  878MOL0     C21030   9.865   2.024  11.379  0.4023  0.3563 -0.3486
  878MOL0     C21031   9.852   1.929  11.281  0.0046 -0.6738 -1.1221
  878MOL0     C21032   9.808   1.803  11.312  0.2554 -0.1393  0.3369
  878MOL0     C21033   9.772   1.759  11.442  1.3001 -1.2232  0.7323
  878MOL0     O21034   9.742   1.630  11.469  0.9667 -0.0808  0.0376
  878MOL0     C21035   9.648   1.612  11.576 -1.1046 -0.2962  0.3780
  878MOL0     C21036   9.513   1.657  11.539  0.6940 -0.0070 -0.9241
  878MOL0     C21037   9.396   1.572  11.590  0.1267 -0.7938  0.0458
  878MOL0     C21038   9.269   1.626  11.526  0.4641  0.0842  0.1738
  878MOL0     C21039   9.146   1.576  11.608 -0.4172 -0.0084  0.4314
  878MOL0     C21040   9.015   1.614  11.524 -0.4772 -1.0512 -1.1419
  878MOL0     C21041   9.030   1.754  11.451  0.7860 -0.7437 -1.0563
  878MOL0     C21042   8.893   1.821  11.452  0.4287 -0.2119  0.1899
  878MOL0     N21043   8.784   1.747  11.385  0.1859 -0.6402  0.2306
  878MOL0     C21044   8.773   1.685  11.258 -0.4232  0.2254 -0.2399
  878MOL0     C21045   8.646   1.617  11.250  0.5688 -1.0403  0.4557
  878MOL0     C21046   8.596   1.566  11.114 -0.1944  0.4317 -0.2516
  878MOL0     C21047   8.589   1.666  11.001  0.1092 -0.7140  0.1070
  878MOL0     C21048   8.492   1.625  10.888  0.6028  0.2000 -0.2023
  878MOL0     C21049   8.516   1.718  10.768 -0.7037  0.4655  0.0321
  878MOL0     O21050   8.621   1.671  10.693 -0.3195 -0.7245 -0.4368
  878MOL0     C21051   8.637   1.735  10.575  0.0546 -0.1551 -0.0336
  878MOL0     C21052   8.674   1.864  10.567 -0.9503  1.0669 -0.1379
  878MOL0     C21053   8.708   1.920  10.443  0.5240  0.4688 -0.0585
  878MOL0     C21054   8.743   2.069  10.435  0.1805  0.3703  1.0850
  878MOL0     C21055   8.706   1.834  10.334 -0.5555 -0.4377 -0.4718
  878MOL0     C21056   8.736   1.883  10.196 -0.3135  0.0596 -0.4208
  878MOL0     O21057   8.704   2.009  10.165  1.1361  0.4959 -0.3380
  878MOL0     C21058   8.717   2.072  10.048 -0.3488 -1.1062  0.6845
  878MOL0     C21059   8.713   2.005   9.920 -0.5314  0.0327  0.2578
  878MOL0     C21060   8.713   2.077   9.801  0.2562 -0.1081  0.1483
  878MOL0     C21061   8.702   2.215   9.814  0.0771 -1.2322  0.1399
  878MOL0     O21062   8.662   2.290   9.709 -0.2614 -0.2448 -0.3343
  878MOL0     C21063   8.744   2.286   9.588  0.2731 -0.5569  0.0626
  878MOL0     C21064   8.640   2.315   9.474 -0.0089 -0.7890 -0.2881
  878MOL0     C21065   8.709   2.368   9.351  0.3272 -0.1629 -0.4396
  878MOL0     C21066   8.727   2.261   9.252 -0.2259  0.9172 -0.8134
  878MOL0     C21067   8.760   2.295   9.104 -0.0415  0.9910 -0.3970
  878MOL0     C21068   8.892   2.379   9.094 -0.3836  0.1232 -0.7278
  878MOL0     C21069   8.907   2.418   8.954 -1.0933 -0.1093 -0.7205
  878MOL0     C21070   9.007   2.535   8.941  0.0930 -0.4678 -0.2741
  878MOL0    Cl21071   8.923   2.696   8.992 -0.3991  0.4267 -0.5513
  878MOL0     C21072   8.698   2.280   9.936 -0.2156 -0.5096  0.4919
  878MOL0     C21073   8.705   2.212  10.057 -0.3225  0.2116  0.4996
  878MOL0     O21074   8.779   1.806  10.118 -0.0599 -0.0268 -0.4054
  878MOL0     C21075   8.694   1.698  10.352 -0.1032 -0.3487 -0.1704
  878MOL0     C21076   8.670   1.646  10.476  0.6858 -0.7011  0.1629
  878MOL0     N21077   8.582   1.642  11.372  0.0399 -0.8319 -0.0427
  878MOL0     N21078   8.662   1.711  11.446  0.7007 -1.3587  0.8807
  878MOL0     C21079   9.783   1.864  11.544 -0.5253  0.2561 -0.1285
  878MOL0     C21080   9.832   1.991  11.515  0.2583 -0.0018  0.5700
  878MOL0     C21081   9.999   2.286  11.201  1.0973  1.7113  1.0543
  878MOL0     C21082   9.872   2.347  11.178  0.5867 -0.2957  0.7839
  878MOL0     C21083   9.848   2.449  11.090 -0.8520 -0.3663  0.1599
  878MOL0     C21084   9.949   2.489  11.009 -0.0330  0.1056  0.6460
  878MOL0     O21085   9.937   2.589  10.917  0.2106 -0.0363  0.6783
  878MOL0     C21086   9.964   2.718  10.970 -0.1635 -1.2912 -0.2080
  878MOL0     C21087   9.858   2.817  10.921 -0.5455 -0.5723  0.4750
  878MOL0     C21088   9.872   2.820  10.769 -0.3283  0.5520  0.1201
  878MOL0     C21089   9.890   2.958  10.715 -0.1977 -0.0262 -0.2070
  878MOL0     C21090   9.777   3.038  10.732 -0.1138 -0.9196 -0.2415
  878MOL0     C21091   9.668   3.101  10.737 -0.2698 -0.2757  0.1558
  878MOL0     C21092  10.074   2.432  11.020  0.1967 -0.3155  0.6354
  878MOL0     C21093  10.104   2.332  11.111  0.3796  0.0846  0.1581
  878MOL0     C21094  10.245   2.271  11.119 -0.9597  0.5187  0.2669
  878MOL0     H21095   9.872   1.966  11.181  3.7217 -0.9937 -0.6357
  878MOL0     H21096   9.811   1.727  11.235  0.8625  1.1082 -0.9367
  878MOL0     H21097   9.682   1.667  11.664 -1.7943  0.7703 -0.0022
  878MOL0     H21098   9.663   1.505  11.592 -1.0450 -0.6866 -1.9532
  878MOL0     H21099   9.503   1.754  11.588  0.4771 -0.7263  0.4999
  878MOL0     H21100   9.506   1.658  11.430 -0.6226 -1.5120 -0.8907
  878MOL0     H21101   9.408   1.471  11.549 -2.0514  0.7184 -5.1538
  878MOL0     H21102   9.383   1.579  11.698 -3.1609  0.3330 -0.3178
  878MOL0     H21103   9.278   1.735  11.524  1.4773  0.0184  0.2780
  878MOL0     H21104   9.270   1.577  11.428 -1.8734  0.0559  0.1156
  878MOL0     H21105   9.150   1.619  11.708 -0.8359 -0.4165  0.6271
  878MOL0     H21106   9.146   1.467  11.622  0.2089 -0.0480  0.1473
  878MOL0     H21107   9.016   1.551  11.435 -0.3240 -0.8185 -1.3072
  878MOL0     H21108   8.925   1.603  11.585 -1.2204  0.5922 -1.9006
  878MOL0     H21109   9.071   1.753  11.349 -1.4910  0.4467 -2.0570
  878MOL0     H21110   9.093   1.827  11.503  3.2304 -1.1096 -3.2731
  878MOL0     H21111   8.863   1.834  11.557  1.2002  2.0887  0.1797
  878MOL0     H21112   8.903   1.922  11.411  1.9512  0.0252  1.0715
  878MOL0     H21113   8.853   1.680  11.185 -2.0316  1.1143 -2.1707
  878MOL0     H21114   8.494   1.536  11.138 -0.2324  0.6248 -0.1711
  878MOL0     H21115   8.653   1.477  11.087  2.0737  1.9659 -0.8479
  878MOL0     H21116   8.570   1.764  11.044 -0.2628 -0.9262  0.4321
  878MOL0     H21117   8.687   1.673  10.953 -0.0793 -2.8015 -0.7009
  878MOL0     H21118   8.504   1.519  10.866 -3.1034 -1.0077  2.5853
  878MOL0     H21119   8.387   1.640  10.912  0.9173  3.5580 -0.4802
  878MOL0     H21120   8.426   1.714  10.706 -1.5708  1.0735  1.2037
  878MOL0     H21121   8.520   1.823  10.796  1.8303  0.8389 -1.4156
  878MOL0     H21122   8.659   1.927  10.654 -0.2101 -1.7810  2.1908
  878MOL0     H21123   8.761   2.113  10.533  2.3655  1.3876  0.2883
  878MOL0     H21124   8.655   2.117  10.390 -0.0949 -1.3596 -0.3871
  878MOL0     H21125   8.826   2.092  10.367  0.6522  1.2881  1.9579
  878MOL0     H21126   8.722   1.897   9.915 -0.7918 -0.0222  0.8462
  878MOL0     H21127   8.699   2.035   9.702 -1.0059 -0.9116  0.6592
  878MOL0     H21128   8.820   2.366   9.587  0.4763 -0.7431 -1.5864
  878MOL0     H21129   8.797   2.195   9.559  2.2821 -0.1714  2.1530
  878MOL0     H21130   8.593   2.217   9.459  0.2748 -1.2591  1.6435
  878MOL0     H21131   8.561   2.384   9.505 -1.2130 -2.9919  1.9265
  878MOL0     H21132   8.800   2.423   9.378 -1.9747  3.6035  0.3095
  878MOL0     H21133   8.644   2.437   9.297 -0.0960 -1.4062 -1.5981
  878MOL0     H21134   8.632   2.209   9.241  0.7297 -1.1639  0.2370
  878MOL0     H21135   8.791   2.183   9.295  0.2562  2.0941  0.6671
  878MOL0     H21136   8.780   2.205   9.044  5.1484  2.0982 -0.7248
  878MOL0     H21137   8.669   2.343   9.066  0.2444  0.6209 -1.6091
  878MOL0     H21138   8.973   2.315   9.128  0.8583  1.1552 -1.6670
  878MOL0     H21139   8.879   2.465   9.160  0.3131  1.6136 -2.4440
  878MOL0     H21140   8.811   2.455   8.916 -0.5094  0.8343 -1.3341
  878MOL0     H21141   8.954   2.343   8.890 -2.1527 -1.5991  0.1764
  878MOL0     H21142   9.033   2.549   8.836 -2.8672  0.0707 -1.0109
  878MOL0     H21143   9.095   2.530   9.006 -2.3304  1.4264  3.5080
  878MOL0     H21144   8.676   2.386   9.937  2.1161  0.0311  1.6897
  878MOL0     H21145   8.689   2.264  10.150  1.7422  2.4000 -0.2586
  878MOL0     H21146   8.706   1.622  10.276  4.3571 -2.6293  2.4607
  878MOL0     H21147   8.658   1.538  10.478 -0.3681 -0.5900  0.2796
  878MOL0     H21148   9.766   1.853  11.650  2.8415  2.8072  0.8662
  878MOL0     H21149   9.848   2.057  11.599  1.1782  0.9315 -0.3042
  878MOL0     H21150   9.780   2.324  11.230 -1.3542  0.5986 -2.0508
  878MOL0     H21151   9.750   2.495  11.092 -1.3693 -1.3553 -1.1066
  878MOL0     H21152   9.945   2.718  11.078 -0.5530  0.3109 -0.2620
  878MOL0     H21153  10.065   2.757  10.956 -0.0074 -1.2548  0.9077
  878MOL0     H21154   9.867   2.919  10.960  0.9404  0.4262 -2.1727
  878MOL0     H21155   9.761   2.770  10.942 -1.5147  1.5687  1.1001
  878MOL0     H21156   9.959   2.769  10.727  1.1499  3.1282 -0.1241
  878MOL0     H21157   9.782   2.770  10.730 -2.8572  2.0234  3.5586
  878MOL0     H21158   9.913   2.948  10.609 -2.4472  2.9946 -1.1031
  878MOL0     H21159   9.979   3.002  10.759  0.0985 -0.0961 -0.7272
  878MOL0     H21160   9.572   3.148  10.724 -0.6561 -1.0254  0.2379
  878MOL0     H21161  10.158   2.440  10.952 -2.1611 -2.6265 -2.9363
  878MOL0     H21162  10.322   2.320  11.058  0.1261 -1.0510  0.3124
  878MOL0     H21163  10.272   2.256  11.223  0.4620  1.9670  0.1319
  878MOL0     H21164  10.237   2.173  11.069  1.6384  0.3574  0.0422
  879MOL0     O21165   6.905   4.151   8.955  0.5516 -0.0029 -0.1420
  879MOL0     C21166   6.881   4.040   8.901 -0.6591 -0.1926 -0.8592
  879MOL0     O21167   6.761   4.002   8.851  0.1485  0.2282  0.2096
  879MOL0     C21168   6.656   4.094   8.839 -0.7420  0.0850 -0.2218
  879MOL0     C21169   6.578   4.084   8.720 -0.4236 -0.7005 -0.0659
  879MOL0     C21170   6.459   4.148   8.710 -0.0694  0.4767  0.5337
  879MOL0     C21171   6.420   4.233   8.812  0.0139  0.2507  0.5358
  879MOL0     O21172   6.314   4.314   8.788 -0.6949  0.4223 -0.3287
  879MOL0     C21173   6.355   4.453   8.805  0.4699 -0.6658  0.4489
  879MOL0     C21174   6.274   4.534   8.706  0.5433 -0.8495 -0.1513
  879MOL0     C21175   6.328   4.525   8.560  0.0191 -0.6671 -0.2701
  879MOL0     C21176   6.264   4.638   8.487  0.2526  0.3225  0.2075
  879MOL0     C21177   6.280   4.628   8.334 -0.1281 -0.4304  0.5734
  879MOL0     C21178   6.238   4.754   8.256  0.6842 -0.6959  0.1194
  879MOL0     C21179   6.346   4.866   8.249  0.2579  0.1415 -0.9549
  879MOL0     C21180   6.326   4.977   8.145 -1.2121  0.1165 -1.2073
  879MOL0     N21181   6.452   5.044   8.114  0.5019  0.2729 -0.0182
  879MOL0     C21182   6.527   5.109   8.210  0.4682  0.2825  0.6666
  879MOL0     C21183   6.654   5.098   8.172 -0.2306  0.8213 -0.0161
  879MOL0     C21184   6.786   5.111   8.247  1.0021 -0.8707 -0.1575
  879MOL0     C21185   6.791   5.252   8.313  0.4226  0.3147 -0.1461
  879MOL0     C21186   6.825   5.376   8.232  0.6686  0.1184  0.5802
  879MOL0     C21187   6.841   5.505   8.316  0.0195 -0.4064 -0.1273
  879MOL0     O21188   6.943   5.499   8.415  0.1655 -0.5048  0.4004
  879MOL0     C21189   7.078   5.487   8.383  0.1639  0.5225 -0.4592
  879MOL0     C21190   7.174   5.471   8.479 -0.5443 -0.6765 -0.1388
  879MOL0     C21191   7.312   5.467   8.462  0.0849  0.4388 -0.1274
  879MOL0     C21192   7.388   5.462   8.591  0.1833  0.2861 -0.0011
  879MOL0     C21193   7.361   5.478   8.325  0.2555 -0.8342 -1.0172
  879MOL0     C21194   7.509   5.486   8.288 -0.2878 -0.0221  0.0584
  879MOL0     O21195   7.534   5.515   8.154 -0.3634  0.0076  0.2747
  879MOL0     C21196   7.662   5.506   8.119  0.0438  0.3493 -0.4266
  879MOL0     C21197   7.734   5.615   8.074  0.1582  0.3824  0.0347
  879MOL0     C21198   7.874   5.598   8.049 -0.3165 -0.0218 -0.0306
  879MOL0     C21199   7.933   5.464   8.033 -0.3997 -1.2921  0.6198
  879MOL0     O21200   8.066   5.455   7.989 -0.8872 -0.1174 -0.2313
  879MOL0     C21201   8.152   5.352   8.023 -0.0461 -0.0675 -1.2658
  879MOL0     C21202   8.223   5.373   8.157  0.0141  0.0480 -0.5636
  879MOL0     C21203   8.317   5.259   8.196 -1.3226 -0.2397  0.3000
  879MOL0     C21204   8.420   5.299   8.302 -1.0452  0.4887 -0.6524
  879MOL0     C21205   8.535   5.195   8.309 -0.3149 -0.2871  0.9173
  879MOL0     C21206   8.649   5.227   8.407  0.9147 -0.4590 -0.1793
  879MOL0     C21207   8.783   5.153   8.393 -0.0889  0.6869  1.1704
  879MOL0     C21208   8.906   5.232   8.446  0.0170 -0.4616  0.6503
  879MOL0    Cl21209   8.891   5.249   8.628 -0.8761  0.6672 -0.1202
  879MOL0     C21210   7.848   5.352   8.060  0.8993  0.7050 -0.2093
  879MOL0     C21211   7.720   5.378   8.111  0.0219 -0.0214 -1.3845
  879MOL0     O21212   7.596   5.475   8.372 -0.1817 -0.9293  0.0529
  879MOL0     C21213   7.261   5.481   8.224 -0.1103 -0.2011 -0.2972
  879MOL0     C21214   7.126   5.493   8.253 -0.3876 -0.0082 -0.3581
  879MOL0     N21215   6.657   5.038   8.035  0.5470 -0.1483 -0.6579
  879MOL0     N21216   6.532   5.004   8.007 -0.3209 -0.1784  0.4847
  879MOL0     C21217   6.499   4.240   8.930 -0.5129  0.3371 -0.2001
  879MOL0     C21218   6.611   4.166   8.945  0.4014 -0.1829 -0.6648
  879MOL0     C21219   6.995   3.946   8.877  0.3586 -0.2423 -0.5763
  879MOL0     C21220   6.990   3.874   8.751  0.9386  0.1108  0.0593
  879MOL0     C21221   7.095   3.781   8.722 -0.1765  0.4105 -0.0290
  879MOL0     C21222   7.207   3.767   8.804 -0.4552  0.1412  0.4916
  879MOL0     O21223   7.305   3.672   8.771  0.1409  0.3161  1.0407
  879MOL0     C21224   7.349   3.670   8.634 -0.8078  0.2323 -0.3674
  879MOL0     C21225   7.494   3.713   8.618 -1.1255 -1.0233  0.7748
  879MOL0     C21226   7.529   3.843   8.698 -0.3368  0.0943  1.0781
  879MOL0     C21227   7.660   3.898   8.654  0.3513 -0.0318  0.8916
  879MOL0     C21228   7.679   4.038   8.712  0.2432  0.6676  0.8601
  879MOL0     C21229   7.709   4.153   8.745  0.0886 -0.4955  0.2309
  879MOL0     C21230   7.205   3.835   8.927 -0.7704  0.1001  0.6202
  879MOL0     C21231   7.104   3.930   8.961 -0.2974  1.1979 -0.0746
  879MOL0     C21232   7.116   4.004   9.089  0.7270 -0.1205 -0.6017
  879MOL0     H21233   6.609   4.032   8.630 -0.7030  1.8725 -1.7378
  879MOL0     H21234   6.389   4.142   8.628 -0.7655  2.8838  0.8704
  879MOL0     H21235   6.463   4.459   8.791  0.5608  0.7735  1.5453
  879MOL0     H21236   6.325   4.477   8.907 -0.4004  2.6621 -0.4568
  879MOL0     H21237   6.170   4.499   8.704  0.1976  0.1843 -1.1964
  879MOL0     H21238   6.270   4.636   8.748 -1.4330 -2.5410  4.4955
  879MOL0     H21239   6.434   4.553   8.559  0.7682 -2.9842  1.9614
  879MOL0     H21240   6.304   4.425   8.521 -0.6230 -0.7606  0.3529
  879MOL0     H21241   6.155   4.643   8.500  0.3145  1.0150  0.5106
  879MOL0     H21242   6.306   4.729   8.530 -0.3932  0.4753  0.5354
  879MOL0     H21243   6.225   4.538   8.305 -1.9442  0.1248  2.1014
  879MOL0     H21244   6.386   4.626   8.308 -0.3570  4.6954 -2.0403
  879MOL0     H21245   6.200   4.729   8.157  0.4486  0.2524 -0.0465
  879MOL0     H21246   6.152   4.803   8.304  2.4803  3.2905 -0.3117
  879MOL0     H21247   6.449   4.831   8.238  1.7904  1.8025  4.6647
  879MOL0     H21248   6.347   4.907   8.350 -2.2831  1.0617 -1.2361
  879MOL0     H21249   6.284   4.926   8.058  1.0767 -5.8392  0.7355
  879MOL0     H21250   6.261   5.054   8.188 -1.0970 -0.9652  1.0242
  879MOL0     H21251   6.486   5.147   8.303 -2.5650  1.5377 -1.0486
  879MOL0     H21252   6.862   5.116   8.169  3.6813 -1.6033  2.2215
  879MOL0     H21253   6.801   5.019   8.305 -0.9743 -0.9804  0.2500
  879MOL0     H21254   6.691   5.269   8.354 -0.0733 -0.7073 -0.8857
  879MOL0     H21255   6.864   5.249   8.395 -1.4023  3.7944  1.8254
  879MOL0     H21256   6.909   5.355   8.165  0.8155  2.3982 -0.0615
  879MOL0     H21257   6.743   5.398   8.162  0.5625  1.5439  1.1093
  879MOL0     H21258   6.882   5.590   8.261  1.7875 -0.6874  0.6809
  879MOL0     H21259   6.743   5.528   8.360 -1.2304 -0.3409 -2.7267
  879MOL0     H21260   7.141   5.486   8.581 -2.5547  0.5273 -0.9102
  879MOL0     H21261   7.477   5.525   8.584  0.7810 -0.6689 -1.6622
  879MOL0     H21262   7.408   5.357   8.616 -0.4534  0.6794  2.4374
  879MOL0     H21263   7.327   5.497   8.675 -0.1567 -0.2208 -0.0327
  879MOL0     H21264   7.708   5.720   8.068  2.5774  1.0430 -0.1846
  879MOL0     H21265   7.926   5.689   8.019 -2.9538  1.8254  0.5783
  879MOL0     H21266   8.105   5.255   8.039  2.7637 -1.0292  2.6500
  879MOL0     H21267   8.236   5.342   7.954  0.9724  1.4895 -0.3243
  879MOL0     H21268   8.271   5.471   8.148 -2.2929  1.2466 -0.7214
  879MOL0     H21269   8.154   5.380   8.242  2.7252 -1.0585  1.8801
  879MOL0     H21270   8.367   5.217   8.107  2.1664  1.3748  1.3119
  879MOL0     H21271   8.252   5.189   8.249 -1.0842  0.9514  2.2712
  879MOL0     H21272   8.370   5.301   8.400 -0.0124  0.3726 -0.1031
  879MOL0     H21273   8.456   5.402   8.290 -0.4722  0.0846 -2.7831
  879MOL0     H21274   8.503   5.094   8.339 -4.4226  0.5693  0.0973
  879MOL0     H21275   8.567   5.193   8.205 -0.6415 -0.6820  0.8201
  879MOL0     H21276   8.608   5.201   8.506 -2.7058 -3.5234 -2.1782
  879MOL0     H21277   8.673   5.332   8.392  0.8213 -0.2808  0.8296
  879MOL0     H21278   8.794   5.124   8.288 -0.5667  0.7688  1.0947
  879MOL0     H21279   8.781   5.052   8.435  1.4826 -0.9689 -2.2854
  879MOL0     H21280   8.919   5.326   8.391 -2.5950 -1.4872 -2.0481
  879MOL0     H21281   8.992   5.166   8.431  1.2227  0.7126  2.1493
  879MOL0     H21282   7.885   5.250   8.052  0.3257  0.5259 -0.5969
  879MOL0     H21283   7.660   5.292   8.137 -0.3093  0.2909 -1.0982
  879MOL0     H21284   7.293   5.485   8.120  0.5569  1.1643 -0.0718
  879MOL0     H21285   7.061   5.516   8.170  0.1878  0.5367 -0.6603
  879MOL0     H21286   6.479   4.316   9.005  4.4423  3.0086 -1.1835
  879MOL0     H21287   6.668   4.173   9.037 -1.8827 -1.6126  0.9733
  879MOL0     H21288   6.909   3.882   8.680  0.1453 -3.8821  0.3086
  879MOL0     H21289   7.086   3.725   8.629 -0.0035 -1.0162  0.7883
  879MOL0     H21290   7.338   3.575   8.580 -0.5903  0.9120 -1.6591
  879MOL0     H21291   7.303   3.748   8.572 -1.9407 -0.4477 -0.4017
  879MOL0     H21292   7.515   3.743   8.515 -0.7802 -0.7961  0.9080
  879MOL0     H21293   7.568   3.639   8.650  0.1810  1.8293  5.4981
  879MOL0     H21294   7.446   3.914   8.689  1.1791  1.8244  0.3074
  879MOL0     H21295   7.535   3.823   8.805  0.1598  1.1369  1.2517
  879MOL0     H21296   7.660   3.913   8.546  3.8088  2.0158  1.0172
  879MOL0     H21297   7.748   3.837   8.675  0.2280 -0.2296  0.8397
  879MOL0     H21298   7.717   4.254   8.778 -1.8511 -0.2680  0.0798
  879MOL0     H21299   7.282   3.810   8.999 -0.8358 -1.8688  0.0603
  879MOL0     H21300   7.085   4.109   9.080  1.9529  0.2463 -0.7450
  879MOL0     H21301   7.067   3.950   9.170 -2.3383  2.2421 -0.6503
  879MOL0     H21302   7.223   4.012   9.106  0.6650 -0.3671 -0.0752
  880MOL0     O21303   8.663   0.313   9.099  0.0249 -0.6317 -0.7773
  880MOL0     C21304   8.713   0.366   9.197  0.2169 -0.2171  0.6864
  880MOL0     O21305   8.646   0.453   9.284 -0.0296 -0.0018  0.4161
  880MOL0     C21306   8.521   0.501   9.252  0.5992  0.2718 -1.1854
  880MOL0     C21307   8.491   0.632   9.235  0.5943 -0.4751 -0.4734
  880MOL0     C21308   8.363   0.669   9.192  0.0305 -0.9518 -0.5713
  880MOL0     C21309   8.252   0.587   9.197  0.4117 -0.0627  0.1041
  880MOL0     O21310   8.119   0.631   9.171 -0.1707 -0.1213 -0.4782
  880MOL0     C21311   8.006   0.556   9.230 -0.4407 -0.3599  1.3833
  880MOL0     C21312   7.978   0.574   9.381  0.4354  0.3473 -1.0659
  880MOL0     C21313   7.875   0.463   9.431 -0.1912  0.6240  0.3613
  880MOL0     C21314   7.829   0.502   9.569 -0.3129  1.4320  0.7188
  880MOL0     C21315   7.785   0.372   9.629 -0.1614  0.1936  0.5768
  880MOL0     C21316   7.887   0.254   9.650  0.3096 -0.3369  0.1148
  880MOL0     C21317   7.817   0.152   9.734  0.5770  0.3367 -0.4843
  880MOL0     C21318   7.892   0.025   9.763 -0.3536  0.0991 -0.1262
  880MOL0     N21319   7.814  -0.084   9.835 -0.3187 -0.6887  0.1731
  880MOL0     C21320   7.692  -0.134   9.799  0.5010 -0.3132 -0.3172
  880MOL0     C21321   7.653  -0.209   9.911  0.2264  0.1237  0.1505
  880MOL0     C21322   7.528  -0.279   9.930 -0.2564  0.8894  0.4961
  880MOL0     C21323   7.515  -0.423   9.858  0.0695 -0.6084  0.1142
  880MOL0     C21324   7.374  -0.445   9.798  0.1184  1.1203 -0.7960
  880MOL0     C21325   7.266  -0.450   9.909  1.2856  0.0440 -0.2635
  880MOL0     O21326   7.156  -0.517   9.849  0.2080  0.2722  0.0945
  880MOL0     C21327   7.024  -0.498   9.894  0.0831  1.6298 -0.2480
  880MOL0     C21328   6.922  -0.488   9.802  0.5287  0.3197 -0.8521
  880MOL0     C21329   6.783  -0.469   9.843  0.2368 -0.3959  0.7983
  880MOL0     C21330   6.671  -0.463   9.731 -0.1494  0.6183 -0.3557
  880MOL0     C21331   6.759  -0.443   9.986  0.6379  0.1856  1.2223
  880MOL0     C21332   6.617  -0.431  10.047 -0.3295  0.5451  0.1530
  880MOL0     O21333   6.504  -0.429   9.972 -0.6317  0.4027 -0.2926
  880MOL0     C21334   6.373  -0.413  10.012 -0.0035  0.3234  0.0981
  880MOL0     C21335   6.328  -0.379  10.142 -1.1849  0.1195  0.1692
  880MOL0     C21336   6.191  -0.354  10.166 -0.6073  0.0142  0.5716
  880MOL0     C21337   6.093  -0.369  10.066 -0.2024 -0.8727  1.9208
  880MOL0     O21338   5.962  -0.365  10.104  0.2913  0.0890 -0.5112
  880MOL0     C21339   5.860  -0.446  10.038 -0.1098 -0.2800 -1.1937
  880MOL0     C21340   5.883  -0.594  10.030  0.6593  0.2147  0.7387
  880MOL0     C21341   5.753  -0.662   9.987  0.6684 -0.0887 -0.1609
  880MOL0     C21342   5.688  -0.736  10.105 -0.6364 -0.1109  1.0167
  880MOL0     C21343   5.585  -0.835  10.069  0.0583  0.7346  1.1374
  880MOL0     C21344   5.460  -0.771   9.997 -0.8646 -0.6217 -0.4000
  880MOL0     C21345   5.433  -0.617  10.003  0.5951 -0.5705 -0.2496
  880MOL0     C21346   5.292  -0.580  10.029 -0.3641  0.6964  0.3614
  880MOL0    Cl21347   5.173  -0.679   9.934 -0.4630  0.1093 -0.3809
  880MOL0     C21348   6.148  -0.400   9.938  1.1787  0.1036  1.4569
  880MOL0     C21349   6.286  -0.414   9.905 -0.0417  0.5537  0.1540
  880MOL0     O21350   6.620  -0.440  10.169 -0.3157 -0.2039 -0.2778
  880MOL0     C21351   6.869  -0.452  10.069  0.1101 -0.9689  0.2047
  880MOL0     C21352   6.989  -0.487  10.024  0.2502 -0.3760 -0.2129
  880MOL0     N21353   7.754  -0.216   9.995  0.6626  0.1607 -0.4037
  880MOL0     N21354   7.849  -0.141   9.951 -0.9277  0.1487 -0.3972
  880MOL0     C21355   8.285   0.449   9.227 -0.2081  0.7612 -0.0038
  880MOL0     C21356   8.417   0.405   9.244  0.2499  0.0665 -0.6420
  880MOL0     C21357   8.858   0.337   9.225 -0.7930 -0.8186  0.0428
  880MOL0     C21358   8.949   0.358   9.131  0.4773  0.4653 -0.2405
  880MOL0     C21359   9.086   0.343   9.173  0.0738 -0.5394  0.2265
  880MOL0     C21360   9.123   0.317   9.310  0.1594 -0.0274 -0.7058
  880MOL0     O21361   9.257   0.310   9.356  0.3643  0.2118  0.3767
  880MOL0     C21362   9.352   0.270   9.249 -0.7660 -0.2007 -0.0862
  880MOL0     C21363   9.481   0.200   9.307 -0.4773 -0.0457 -0.7955
  880MOL0     C21364   9.551   0.283   9.421 -0.1595 -0.7900  0.2264
  880MOL0     C21365   9.648   0.193   9.508 -0.1430 -1.0759  0.6443
  880MOL0     C21366   9.583   0.136   9.631  0.0734  0.4738  0.8059
  880MOL0     C21367   9.544   0.092   9.732  0.5703  0.6567  0.0473
  880MOL0     C21368   9.030   0.298   9.403 -0.2179  0.3682  0.5163
  880MOL0     C21369   8.894   0.304   9.360  0.1125 -0.3335 -0.4034
  880MOL0     C21370   8.784   0.283   9.461 -0.2970  0.3171  1.1889
  880MOL0     H21371   8.574   0.702   9.237 -1.8180  2.5795  1.6570
  880MOL0     H21372   8.348   0.773   9.162  1.6575  0.0891  1.9479
  880MOL0     H21373   8.015   0.451   9.200 -1.9169  0.0357 -0.6567
  880MOL0     H21374   7.916   0.581   9.172  0.7396  3.5419  0.9655
  880MOL0     H21375   8.076   0.555   9.424  1.4190  0.0935 -3.2566
  880MOL0     H21376   7.950   0.678   9.402 -0.8429  0.0144 -1.0647
  880MOL0     H21377   7.792   0.442   9.363 -0.2026  4.5218 -1.1079
  880MOL0     H21378   7.929   0.368   9.436 -0.7726  0.2399 -0.4506
  880MOL0     H21379   7.911   0.519   9.639 -1.2664 -4.0107  3.7576
  880MOL0     H21380   7.749   0.576   9.561 -1.5878 -0.0291 -0.8645
  880MOL0     H21381   7.704   0.342   9.562  0.7486 -0.3284 -0.3152
  880MOL0     H21382   7.751   0.396   9.730  0.0738  2.4412  0.1834
  880MOL0     H21383   7.917   0.207   9.555  2.5641  1.3328 -0.0918
  880MOL0     H21384   7.983   0.285   9.693 -0.2314 -0.9906  1.8468
  880MOL0     H21385   7.719   0.130   9.690  0.7077 -2.2298  0.3151
  880MOL0     H21386   7.790   0.201   9.828 -0.6467  1.4161 -1.3494
  880MOL0     H21387   7.923  -0.023   9.669 -1.6825 -1.0335 -0.0058
  880MOL0     H21388   7.977   0.060   9.822  0.2492 -2.8018  0.9211
  880MOL0     H21389   7.632  -0.109   9.713  1.9114  2.6023 -0.5600
  880MOL0     H21390   7.447  -0.211   9.902 -0.7089 -0.1697 -0.8627
  880MOL0     H21391   7.523  -0.285  10.039  3.7446  2.5447  0.9433
  880MOL0     H21392   7.584  -0.424   9.774  0.4266 -2.1779  0.4011
  880MOL0     H21393   7.552  -0.509   9.914  0.0624 -1.4280 -1.1196
  880MOL0     H21394   7.360  -0.364   9.726  0.6500  2.9310  1.0407
  880MOL0     H21395   7.375  -0.540   9.743  0.4894  1.8660 -2.0956
  880MOL0     H21396   7.299  -0.510   9.994  0.1214  0.7710  0.7225
  880MOL0     H21397   7.239  -0.349   9.941  1.1325  0.3870 -1.4355
  880MOL0     H21398   6.947  -0.490   9.697 -0.2191  1.5605 -1.0790
  880MOL0     H21399   6.577  -0.513   9.758 -1.1656  1.7753 -1.5981
  880MOL0     H21400   6.703  -0.498   9.633  3.4555  1.1298  0.4836
  880MOL0     H21401   6.632  -0.361   9.718  1.5593  1.4588  0.7887
  880MOL0     H21402   6.397  -0.375  10.226 -0.6286 -3.1373 -0.0115
  880MOL0     H21403   6.157  -0.319  10.263 -2.9584 -0.7356  0.0748
  880MOL0     H21404   5.764  -0.448  10.090  0.3996 -0.7556 -0.2601
  880MOL0     H21405   5.835  -0.409   9.938 -1.3104 -1.1685 -1.2407
  880MOL0     H21406   5.963  -0.605   9.956  0.3058  2.3920 -0.0356
  880MOL0     H21407   5.904  -0.626  10.132 -0.6059  0.1314  0.9814
  880MOL0     H21408   5.769  -0.747   9.920 -0.2895 -1.6432  1.4891
  880MOL0     H21409   5.685  -0.592   9.937  0.9925  1.1449  1.0561
  880MOL0     H21410   5.640  -0.663  10.171 -1.4291  2.0025 -1.7036
  880MOL0     H21411   5.770  -0.783  10.159 -0.1760 -2.0914 -1.2459
  880MOL0     H21412   5.624  -0.906   9.995 -3.4067  0.4010 -0.5962
  880MOL0     H21413   5.556  -0.896  10.155  4.5485 -3.5433  0.0937
  880MOL0     H21414   5.371  -0.824  10.032  0.6044 -1.2921  2.6540
  880MOL0     H21415   5.472  -0.785   9.889 -1.9221  1.8183 -0.9078
  880MOL0     H21416   5.459  -0.574   9.905 -1.4988  0.6994 -0.3123
  880MOL0     H21417   5.499  -0.568  10.075  1.2233 -1.8409  0.0690
  880MOL0     H21418   5.281  -0.475   9.998  0.5824  0.1904 -1.8789
  880MOL0     H21419   5.261  -0.592  10.134 -0.4099 -3.9830  0.0090
  880MOL0     H21420   6.070  -0.414   9.863  1.1873  1.0664  1.2539
  880MOL0     H21421   6.314  -0.432   9.802 -0.5466 -2.6282  0.4550
  880MOL0     H21422   6.858  -0.448  10.177 -1.9308 -3.2050  0.1664
  880MOL0     H21423   7.063  -0.488  10.105  0.0093  2.4489  0.1607
  880MOL0     H21424   8.203   0.378   9.214 -1.3544  1.6776  1.8053
  880MOL0     H21425   8.420   0.300   9.269  1.1470  0.7294  2.4989
  880MOL0     H21426   8.909   0.377   9.032  1.9035  0.3385 -0.8658
  880MOL0     H21427   9.155   0.375   9.095 -0.8016  0.7734 -0.0391
  880MOL0     H21428   9.315   0.197   9.176 -1.4677 -0.7645  0.8070
  880MOL0     H21429   9.373   0.363   9.195  0.1690 -0.0512  0.5099
  880MOL0     H21430   9.547   0.178   9.223 -2.2225 -3.6761 -1.4147
  880MOL0     H21431   9.450   0.101   9.344 -0.5685  0.0278 -0.6736
  880MOL0     H21432   9.611   0.366   9.384  1.6608 -1.3052  1.8605
  880MOL0     H21433   9.474   0.330   9.482 -0.8731 -1.6143 -0.0193
  880MOL0     H21434   9.735   0.255   9.530 -0.3214 -0.0234 -1.3784
  880MOL0     H21435   9.689   0.115   9.443 -4.0016 -1.5474 -1.5310
  880MOL0     H21436   9.504   0.052   9.823  1.5997 -2.9098 -0.8774
  880MOL0     H21437   9.056   0.266   9.503  0.1059 -2.1284 -0.3038
  880MOL0     H21438   8.828   0.242   9.553  1.2485  1.2640  0.9209
  880MOL0     H21439   8.742   0.377   9.498  1.2122  0.2733  3.2348
  880MOL0     H21440   8.704   0.222   9.419  0.6110 -0.2999  0.3058
  881MOL0     O21441   3.243   4.179   1.673  0.1920 -0.1601 -0.3765
  881MOL0     C21442   3.119   4.180   1.696 -0.0822  0.1005  0.2485
  881MOL0     O21443   3.069   4.253   1.806  0.3498 -0.3659 -0.9110
  881MOL0     C21444   3.168   4.283   1.908  0.1616 -0.1481  0.1471
  881MOL0     C21445   3.212   4.418   1.915  0.4548 -1.0266 -0.7120
  881MOL0     C21446   3.312   4.456   2.005 -0.5435 -0.0656 -0.0587
  881MOL0     C21447   3.381   4.362   2.079  0.3822 -0.3528 -0.6903
  881MOL0     O21448   3.483   4.410   2.150  0.2581  0.1447  0.2952
  881MOL0     C21449   3.592   4.318   2.158  0.8183 -0.5180 -0.6116
  881MOL0     C21450   3.701   4.411   2.203 -0.6149 -0.3567 -0.0026
  881MOL0     C21451   3.844   4.361   2.163  0.2827  0.2971 -0.3670
  881MOL0     C21452   3.944   4.474   2.204  1.6401  0.2866  0.4219
  881MOL0     C21453   4.086   4.435   2.182  0.5883  0.3074  0.5800
  881MOL0     C21454   4.185   4.550   2.168 -0.4799 -0.2480  0.2258
  881MOL0     C21455   4.218   4.613   2.303  1.4566 -0.5723 -0.3707
  881MOL0     C21456   4.294   4.737   2.283 -0.4767 -0.3016 -0.1685
  881MOL0     N21457   4.227   4.833   2.189 -0.5148 -0.1960 -0.1093
  881MOL0     C21458   4.108   4.897   2.208  0.5278 -0.3953  0.3041
  881MOL0     C21459   4.089   4.967   2.090  1.1338  1.1857 -0.3114
  881MOL0     C21460   3.980   5.069   2.076  0.9143  0.5159  0.3492
  881MOL0     C21461   3.923   5.129   2.207 -0.8320 -0.1684 -0.4665
  881MOL0     C21462   3.817   5.231   2.172  1.4670 -0.5372  0.2029
  881MOL0     C21463   3.736   5.289   2.293 -1.6866 -0.4513 -0.0651
  881MOL0     O21464   3.825   5.350   2.394 -0.1324  0.6039  0.3305
  881MOL0     C21465   3.773   5.410   2.506 -0.4123 -0.6302  0.1012
  881MOL0     C21466   3.637   5.417   2.547 -0.3675 -0.0567  0.3478
  881MOL0     C21467   3.609   5.478   2.678  0.9477  0.8423  0.2785
  881MOL0     C21468   3.471   5.454   2.739 -0.3848 -0.4704 -0.7620
  881MOL0     C21469   3.707   5.530   2.761  0.0069 -0.8300 -0.5220
  881MOL0     C21470   3.684   5.581   2.901 -0.7086 -0.3338  0.0581
  881MOL0     O21471   3.607   5.696   2.911  0.1122 -0.0421 -0.1195
  881MOL0     C21472   3.602   5.773   3.024  0.6286 -0.2999 -0.0340
  881MOL0     C21473   3.636   5.911   3.014  0.0254 -0.1915  0.0205
  881MOL0     C21474   3.645   5.988   3.127 -0.2626 -0.0077  1.0652
  881MOL0     C21475   3.620   5.930   3.253 -0.7384 -0.6291  1.1406
  881MOL0     O21476   3.614   6.006   3.370  0.0289  0.7085  0.1571
  881MOL0     C21477   3.537   6.120   3.358  0.6166  0.4499  0.0666
  881MOL0     C21478   3.549   6.193   3.487 -0.1584 -0.1431  0.1493
  881MOL0     C21479   3.451   6.315   3.481  0.1665 -0.4895 -0.8393
  881MOL0     C21480   3.481   6.422   3.586  0.0848 -0.3343 -0.2805
  881MOL0     C21481   3.422   6.408   3.727 -0.3047  0.4737  1.0461
  881MOL0     C21482   3.271   6.380   3.739  0.6051 -0.5572  0.7803
  881MOL0     C21483   3.180   6.477   3.658  0.9654  0.0143 -0.2866
  881MOL0     C21484   3.032   6.453   3.688  0.4060 -0.3624  0.5952
  881MOL0    Cl21485   2.960   6.566   3.562 -0.0619  0.3539  0.0393
  881MOL0     C21486   3.589   5.793   3.257 -0.5456 -0.2635 -0.3926
  881MOL0     C21487   3.580   5.712   3.145  0.1266  0.2367  0.6563
  881MOL0     O21488   3.748   5.527   2.991 -0.6745  0.9851  0.3456
  881MOL0     C21489   3.837   5.524   2.714 -0.0394 -0.1886  0.9829
  881MOL0     C21490   3.874   5.471   2.588 -0.2846 -0.2414 -0.0555
  881MOL0     N21491   4.200   4.942   2.004  0.5137 -1.0361  0.1922
  881MOL0     N21492   4.277   4.869   2.068  0.2344  0.2059 -0.3690
  881MOL0     C21493   3.333   4.232   2.074  0.1416 -0.2793 -0.8426
  881MOL0     C21494   3.233   4.194   1.994  0.3829  0.3556 -0.0367
  881MOL0     C21495   3.031   4.143   1.589  0.3285  0.5330 -0.7432
  881MOL0     C21496   2.894   4.155   1.615  0.1308  0.1134  0.4613
  881MOL0     C21497   2.801   4.118   1.519 -0.0299  0.2211  0.3358
  881MOL0     C21498   2.828   4.085   1.390  0.3989  0.4962  0.0886
  881MOL0     O21499   2.720   4.052   1.303 -0.2634  0.5447  0.6544
  881MOL0     C21500   2.753   4.001   1.171 -0.0553  0.1017  1.1133
  881MOL0     C21501   2.646   3.912   1.102  0.5763  0.2443  0.5207
  881MOL0     C21502   2.615   3.789   1.184  0.6540 -0.1477  0.1101
  881MOL0     C21503   2.519   3.700   1.090 -0.1866 -0.2769  0.2857
  881MOL0     C21504   2.600   3.630   0.994 -0.9909  1.3204  0.1775
  881MOL0     C21505   2.657   3.565   0.909  0.4019  0.3134  0.0583
  881MOL0     C21506   2.966   4.086   1.355  1.1837 -0.8397  0.2628
  881MOL0     C21507   3.061   4.112   1.452  0.3001  0.3125  0.2729
  881MOL0     C21508   3.206   4.108   1.406 -0.0904  0.2880  0.6780
  881MOL0     H21509   3.160   4.503   1.871  4.7122  2.6245  0.5375
  881MOL0     H21510   3.351   4.555   2.026 -0.6318  0.1452 -0.8777
  881MOL0     H21511   3.623   4.268   2.066  0.3899 -3.9950  0.9958
  881MOL0     H21512   3.567   4.252   2.241 -0.3682  1.9620  1.1496
  881MOL0     H21513   3.685   4.512   2.164 -2.7159  0.1701  2.0335
  881MOL0     H21514   3.703   4.419   2.312  1.5497 -1.6287  0.1011
  881MOL0     H21515   3.879   4.273   2.218 -2.4458 -1.0726 -0.6560
  881MOL0     H21516   3.847   4.333   2.058 -0.3723 -1.6527  0.0885
  881MOL0     H21517   3.918   4.568   2.154  2.9831  0.0393 -0.8212
  881MOL0     H21518   3.923   4.490   2.310 -1.1046  0.2347 -0.0329
  881MOL0     H21519   4.089   4.381   2.087  1.3282  0.7842  0.3250
  881MOL0     H21520   4.125   4.371   2.262  0.1484 -0.5315  0.1367
  881MOL0     H21521   4.277   4.527   2.113  2.8140  6.9096  1.6192
  881MOL0     H21522   4.128   4.623   2.109 -1.3630  0.8629  2.3522
  881MOL0     H21523   4.276   4.542   2.362 -1.6682 -0.6684  2.9593
  881MOL0     H21524   4.129   4.628   2.365  2.1031 -0.9282  0.6724
  881MOL0     H21525   4.311   4.791   2.376  1.3424 -3.4556  1.4747
  881MOL0     H21526   4.396   4.721   2.246  1.0053  5.1568  0.5541
  881MOL0     H21527   4.049   4.919   2.296 -1.6991  2.8422 -1.7806
  881MOL0     H21528   3.898   5.032   2.015 -0.9833  2.3555  1.6421
  881MOL0     H21529   4.024   5.145   2.010  0.2805  1.3279  0.8367
  881MOL0     H21530   3.867   5.054   2.264 -4.7210 -0.5071 -4.2322
  881MOL0     H21531   4.008   5.179   2.254 -0.5084  0.3525 -1.5841
  881MOL0     H21532   3.860   5.317   2.119 -0.7118  2.2697  2.6935
  881MOL0     H21533   3.747   5.175   2.110  2.5609 -0.2268 -1.3732
  881MOL0     H21534   3.672   5.367   2.249 -0.5597  0.2464 -0.5046
  881MOL0     H21535   3.668   5.213   2.334 -0.1406 -1.5149  0.5994
  881MOL0     H21536   3.556   5.367   2.495 -0.1725 -0.0752  0.0601
  881MOL0     H21537   3.461   5.393   2.830  0.3343  1.7375  0.8713
  881MOL0     H21538   3.404   5.416   2.661  1.5475 -0.7705 -2.3524
  881MOL0     H21539   3.436   5.556   2.756  1.8915  0.1839  0.3875
  881MOL0     H21540   3.661   5.960   2.921  0.8216 -3.9793 -1.9517
  881MOL0     H21541   3.653   6.096   3.112  2.9421 -0.4641 -1.9147
  881MOL0     H21542   3.569   6.192   3.282 -1.9563  0.1211 -1.4642
  881MOL0     H21543   3.433   6.091   3.340 -0.0029  2.0428  0.8429
  881MOL0     H21544   3.502   6.132   3.565  1.1737 -0.1330  0.9884
  881MOL0     H21545   3.649   6.219   3.521 -0.4415  0.0331  0.8605
  881MOL0     H21546   3.356   6.261   3.489  1.4595 -2.8301 -0.3114
  881MOL0     H21547   3.457   6.360   3.381  0.6373  3.3153  0.7333
  881MOL0     H21548   3.442   6.518   3.549 -1.2518 -1.2556 -1.3918
  881MOL0     H21549   3.589   6.436   3.597  0.1628 -1.9489  1.5336
  881MOL0     H21550   3.460   6.315   3.769 -2.3015 -1.7896 -1.7297
  881MOL0     H21551   3.436   6.498   3.788  0.5627  0.4800  0.8475
  881MOL0     H21552   3.241   6.397   3.843 -2.3154 -4.5885  0.8447
  881MOL0     H21553   3.249   6.275   3.714  2.3137 -0.2462 -2.6890
  881MOL0     H21554   3.203   6.460   3.552  1.8769 -0.8814  0.0390
  881MOL0     H21555   3.197   6.584   3.677 -0.3636  0.2405 -0.3299
  881MOL0     H21556   3.012   6.476   3.793  1.4612  0.2037  0.6903
  881MOL0     H21557   3.009   6.347   3.673  2.2511 -0.6796 -0.3047
  881MOL0     H21558   3.556   5.735   3.343  1.3204 -1.0275 -0.1459
  881MOL0     H21559   3.563   5.605   3.151  3.9064 -0.4904  0.8900
  881MOL0     H21560   3.920   5.543   2.781  1.2117 -0.3019 -0.4690
  881MOL0     H21561   3.976   5.464   2.552  0.0013 -3.1530  1.0158
  881MOL0     H21562   3.372   4.162   2.146 -1.8461 -0.7544 -0.1613
  881MOL0     H21563   3.212   4.088   2.007  0.8528  0.2775  0.1107
  881MOL0     H21564   2.862   4.189   1.713  1.4620 -0.8409  1.2577
  881MOL0     H21565   2.696   4.136   1.539  0.0373  3.2010 -1.3630
  881MOL0     H21566   2.772   4.084   1.102 -1.9194 -0.7845 -0.5599
  881MOL0     H21567   2.844   3.940   1.175 -0.4144 -0.4639  0.8456
  881MOL0     H21568   2.681   3.887   1.001  2.0136  0.2489  1.0104
  881MOL0     H21569   2.554   3.972   1.103 -0.6925 -1.6271  1.2197
  881MOL0     H21570   2.699   3.729   1.220 -0.6497 -1.9407  0.3227
  881MOL0     H21571   2.562   3.828   1.272 -2.1398  0.3830 -1.7043
  881MOL0     H21572   2.430   3.741   1.041 -1.1130 -2.8872 -0.3853
  881MOL0     H21573   2.468   3.620   1.144  1.0251  1.6434  4.7096
  881MOL0     H21574   2.707   3.496   0.844 -0.4373 -2.2105  1.9233
  881MOL0     H21575   2.995   4.065   1.252  3.0814  0.7826  0.3979
  881MOL0     H21576   3.255   4.026   1.461 -1.5245  0.4345  2.2515
  881MOL0     H21577   3.220   4.109   1.298  2.1930  2.2734  0.9058
  881MOL0     H21578   3.274   4.190   1.429 -0.5114  0.8024  0.1259
  882MOL0     O21579   4.661   7.897   2.440  0.4033 -0.2977  0.2981
  882MOL0     C21580   4.557   7.934   2.372 -0.3930  1.0622 -1.4362
  882MOL0     O21581   4.527   7.900   2.246  0.6524 -0.2655 -0.6075
  882MOL0     C21582   4.608   7.844   2.144 -0.2885 -0.5013 -0.0734
  882MOL0     C21583   4.545   7.802   2.024  0.0840  0.1104  0.7317
  882MOL0     C21584   4.621   7.769   1.912  0.0591  0.1595  1.1989
  882MOL0     C21585   4.762   7.778   1.905  0.5012 -0.0924 -1.1522
  882MOL0     O21586   4.833   7.757   1.790  0.4272 -0.6400  0.0094
  882MOL0     C21587   4.959   7.697   1.793  0.5178 -0.2947 -0.3276
  882MOL0     C21588   4.969   7.624   1.653  0.7514  0.5078 -0.0433
  882MOL0     C21589   4.879   7.493   1.649 -0.2378 -0.9054  0.2966
  882MOL0     C21590   4.834   7.485   1.511  1.2502  0.5605  0.3537
  882MOL0     C21591   4.770   7.348   1.488 -0.6681  0.2781 -0.5357
  882MOL0     C21592   4.747   7.322   1.343 -0.9820  0.9897  0.9657
  882MOL0     C21593   4.679   7.184   1.323  0.2837 -0.1003 -0.4450
  882MOL0     C21594   4.663   7.150   1.181  0.6244 -0.3210  0.0643
  882MOL0     N21595   4.624   7.005   1.171 -0.5495 -0.1776  0.8735
  882MOL0     C21596   4.518   6.956   1.103 -0.3199  0.2324  1.2984
  882MOL0     C21597   4.556   6.824   1.080 -0.0305 -0.0229 -0.1935
  882MOL0     C21598   4.477   6.722   1.008 -0.3173  0.7609  0.1632
  882MOL0     C21599   4.474   6.737   0.853  0.0464 -0.1555  0.7162
  882MOL0     C21600   4.584   6.656   0.789  0.4394  0.8936  1.0680
  882MOL0     C21601   4.573   6.643   0.633 -0.2410 -0.0545  0.1863
  882MOL0     O21602   4.576   6.767   0.568 -0.3017  0.3788  0.3466
  882MOL0     C21603   4.650   6.783   0.448  0.4490 -0.1802 -0.4378
  882MOL0     C21604   4.774   6.845   0.471 -0.2392 -0.1217 -0.4601
  882MOL0     C21605   4.890   6.831   0.384 -0.0072 -1.3694  0.9229
  882MOL0     C21606   5.010   6.925   0.414  0.5112 -0.2133 -0.0778
  882MOL0     C21607   4.884   6.747   0.267 -0.0523  0.7153 -0.4459
  882MOL0     C21608   4.983   6.723   0.160 -0.3829 -0.4238  0.0087
  882MOL0     O21609   4.933   6.666   0.047 -0.4050  0.6274  0.0116
  882MOL0     C21610   5.012   6.647  -0.062 -0.1138  0.0435 -0.2115
  882MOL0     C21611   4.977   6.726  -0.175  1.2973  0.1519  0.3339
  882MOL0     C21612   5.054   6.713  -0.297  0.9391  0.3080 -0.4680
  882MOL0     C21613   5.170   6.636  -0.283 -0.0067 -0.1367 -0.2876
  882MOL0     O21614   5.260   6.633  -0.387  0.2861 -0.3442  1.2324
  882MOL0     C21615   5.321   6.516  -0.438 -0.0965 -0.2709  0.3056
  882MOL0     C21616   5.469   6.529  -0.408 -0.3117 -0.0963  1.0244
  882MOL0     C21617   5.547   6.572  -0.527  0.0515  0.5051 -0.5727
  882MOL0     C21618   5.664   6.655  -0.464  0.4515  0.1736  0.5273
  882MOL0     C21619   5.716   6.750  -0.570 -0.5483 -0.3398 -0.3685
  882MOL0     C21620   5.831   6.846  -0.526 -0.1309 -0.5530 -0.2128
  882MOL0     C21621   5.851   6.962  -0.621  0.2333  0.0404  0.0991
  882MOL0     C21622   5.958   7.057  -0.559 -0.2031  1.0837 -0.6493
  882MOL0    Cl21623   6.118   6.988  -0.581 -0.2857 -0.3547  0.2874
  882MOL0     C21624   5.193   6.554  -0.171  0.1805  0.3044 -0.4889
  882MOL0     C21625   5.113   6.563  -0.055  0.3980 -0.0903  0.6175
  882MOL0     O21626   5.103   6.746   0.171  0.5897 -0.6239  0.4246
  882MOL0     C21627   4.754   6.681   0.245  0.0174  0.2248  0.2782
  882MOL0     C21628   4.639   6.704   0.329 -0.9094 -0.0686 -0.5702
  882MOL0     N21629   4.680   6.803   1.136 -0.2875 -0.0371 -0.0940
  882MOL0     N21630   4.717   6.911   1.184 -0.0532  0.2392 -0.6027
  882MOL0     C21631   4.824   7.820   2.026  0.4371 -0.4119 -0.5707
  882MOL0     C21632   4.746   7.856   2.142  0.0583 -0.1003  0.2418
  882MOL0     C21633   4.474   8.036   2.434  0.9572  0.2493 -0.9934
  882MOL0     C21634   4.540   8.150   2.472 -0.1658  0.3648 -0.2938
  882MOL0     C21635   4.463   8.258   2.510 -0.4018  0.5410  0.3860
  882MOL0     C21636   4.317   8.248   2.519  0.1057 -0.2129  0.3662
  882MOL0     O21637   4.261   8.368   2.555  0.0301 -0.6048  0.8539
  882MOL0     C21638   4.129   8.399   2.592 -0.5354 -1.3686 -0.4469
  882MOL0     C21639   4.043   8.386   2.481  0.2190 -0.3301 -0.7189
  882MOL0     C21640   3.919   8.461   2.492 -0.3976  0.0245 -1.2437
  882MOL0     C21641   3.933   8.614   2.472 -0.5912 -0.1236  0.5346
  882MOL0     C21642   3.818   8.691   2.510 -0.0372  0.5694 -0.2729
  882MOL0     C21643   3.717   8.745   2.541 -0.6346 -0.0313  0.3742
  882MOL0     C21644   4.259   8.135   2.488  0.4971  0.4994 -0.4949
  882MOL0     C21645   4.329   8.024   2.441 -0.3037 -0.0844 -0.3400
  882MOL0     C21646   4.249   7.908   2.403 -0.0843 -0.0913  0.5505
  882MOL0     H21647   4.437   7.812   2.028 -0.1077 -0.3380 -1.5326
  882MOL0     H21648   4.575   7.752   1.816  0.2600 -0.7228  1.2460
  882MOL0     H21649   4.976   7.629   1.877  0.0126  0.9426  0.8126
  882MOL0     H21650   5.040   7.771   1.798 -0.3532  0.8030 -1.7036
  882MOL0     H21651   4.947   7.703   1.580 -2.5246  1.4740  1.7874
  882MOL0     H21652   5.072   7.593   1.635  0.5383 -0.3443  0.1411
  882MOL0     H21653   4.960   7.425   1.676  1.0988  1.0872  1.5663
  882MOL0     H21654   4.801   7.489   1.726  0.8976 -0.1791  1.5307
  882MOL0     H21655   4.769   7.567   1.480 -0.0498  0.0965  1.6942
  882MOL0     H21656   4.926   7.487   1.452  0.3654  2.4700 -1.0503
  882MOL0     H21657   4.667   7.344   1.526  0.1036  1.0351  1.8055
  882MOL0     H21658   4.825   7.263   1.528 -0.5993  0.2853 -0.6154
  882MOL0     H21659   4.685   7.394   1.290 -1.5490 -0.7847 -0.8903
  882MOL0     H21660   4.843   7.323   1.291 -1.4123  2.2807  0.1571
  882MOL0     H21661   4.579   7.196   1.366  0.2799  0.5244 -0.6173
  882MOL0     H21662   4.737   7.103   1.367 -1.9813 -0.8633  1.3741
  882MOL0     H21663   4.584   7.213   1.139  1.6670  1.3553  0.5316
  882MOL0     H21664   4.760   7.165   1.133 -0.1864 -2.2064 -2.3926
  882MOL0     H21665   4.438   7.013   1.057  0.1078  0.7726  1.2227
  882MOL0     H21666   4.378   6.720   1.054 -0.4696  0.7615 -0.1589
  882MOL0     H21667   4.520   6.624   1.028 -0.5839  0.8199  1.0815
  882MOL0     H21668   4.382   6.693   0.815  2.4485 -3.6797 -1.5950
  882MOL0     H21669   4.482   6.843   0.827  0.7178  0.0621  1.7271
  882MOL0     H21670   4.686   6.689   0.813  0.5624  2.1188 -0.8444
  882MOL0     H21671   4.586   6.553   0.824 -1.6948 -1.0143 -3.5970
  882MOL0     H21672   4.657   6.583   0.597  0.0912 -2.1060  3.8588
  882MOL0     H21673   4.481   6.594   0.599 -1.4531  1.1195  1.6097
  882MOL0     H21674   4.800   6.900   0.561 -2.9699  1.3750 -0.4952
  882MOL0     H21675   4.965   7.008   0.469  0.7128  0.2114 -0.5433
  882MOL0     H21676   5.062   6.954   0.323  2.5316 -3.1748 -0.0304
  882MOL0     H21677   5.084   6.885   0.485 -0.0018  2.7445  2.3464
  882MOL0     H21678   4.894   6.796  -0.167  2.9576  1.9912  3.2653
  882MOL0     H21679   5.023   6.765  -0.387  1.2636  1.9117  0.3118
  882MOL0     H21680   5.267   6.429  -0.399 -2.6440 -1.6844 -5.3055
  882MOL0     H21681   5.303   6.497  -0.544  0.0948  1.1893 -0.0098
  882MOL0     H21682   5.485   6.579  -0.312 -2.8277 -0.0938  1.4867
  882MOL0     H21683   5.498   6.424  -0.395 -0.1297 -0.2070 -0.1935
  882MOL0     H21684   5.498   6.646  -0.592  0.5453  2.1933  0.8953
  882MOL0     H21685   5.583   6.491  -0.591  1.1990  2.8090 -3.0527
  882MOL0     H21686   5.747   6.590  -0.432  0.8076  0.7675  0.8230
  882MOL0     H21687   5.628   6.710  -0.377 -0.9822  1.1028 -0.6167
  882MOL0     H21688   5.756   6.684  -0.647  0.0059  0.5581 -0.8756
  882MOL0     H21689   5.626   6.804  -0.602 -0.9586 -0.0007  1.2600
  882MOL0     H21690   5.929   6.802  -0.506  0.8609  2.0979  1.1750
  882MOL0     H21691   5.807   6.875  -0.423  0.1635  1.9625 -0.8101
  882MOL0     H21692   5.753   7.011  -0.631 -1.6023 -2.9758  1.6621
  882MOL0     H21693   5.888   6.938  -0.721  0.6854  1.1879 -0.0185
  882MOL0     H21694   5.957   7.080  -0.452  3.6130 -4.0904  0.9268
  882MOL0     H21695   5.975   7.147  -0.618 -0.1577  1.3475 -0.2360
  882MOL0     H21696   5.283   6.494  -0.158 -0.8273 -0.9657  0.9583
  882MOL0     H21697   5.121   6.505   0.036  1.9375  1.5689  1.6088
  882MOL0     H21698   4.742   6.610   0.164 -1.4173  1.0772 -0.2991
  882MOL0     H21699   4.551   6.647   0.301 -0.8845 -0.1434 -0.4989
  882MOL0     H21700   4.932   7.812   2.037  0.2570 -0.6590  1.2216
  882MOL0     H21701   4.783   7.898   2.234 -0.9751  0.5156  0.3942
  882MOL0     H21702   4.649   8.146   2.467 -0.2171 -1.2385 -0.6173
  882MOL0     H21703   4.512   8.355   2.518 -0.8421  1.3600 -4.1309
  882MOL0     H21704   4.095   8.358   2.687 -0.6054  0.3269  0.3130
  882MOL0     H21705   4.142   8.505   2.618 -0.4135 -0.9234 -2.1431
  882MOL0     H21706   4.015   8.281   2.481  0.4202 -0.5142  3.2020
  882MOL0     H21707   4.099   8.417   2.392  1.2264  0.6025  0.1985
  882MOL0     H21708   3.847   8.429   2.416  0.2672  0.8926 -2.2844
  882MOL0     H21709   3.879   8.443   2.592 -1.7642  2.9064 -1.1823
  882MOL0     H21710   3.934   8.635   2.365  1.3806  1.3533  0.7754
  882MOL0     H21711   4.029   8.647   2.512  1.4740 -0.3260 -3.7139
  882MOL0     H21712   3.617   8.781   2.554 -1.3476 -0.8504 -2.2201
  882MOL0     H21713   4.150   8.134   2.485  0.2488 -1.2209  3.4702
  882MOL0     H21714   4.214   7.915   2.299 -0.2669  3.6834  0.7054
  882MOL0     H21715   4.304   7.814   2.411  0.8906  0.5327  1.5178
  882MOL0     H21716   4.164   7.910   2.471 -0.8387 -2.5883 -0.2362
  883MOL0     O21717   1.759  11.024   3.635 -0.0907 -1.2827  1.0380
  883MOL0     C21718   1.749  11.008   3.754  0.8702  1.3735 -0.7115
  883MOL0     O21719   1.751  11.104   3.848  1.1480 -0.0334  0.5585
  883MOL0     C21720   1.761  11.235   3.812  0.1495 -0.8078 -0.1464
  883MOL0     C21721   1.660  11.324   3.859  0.1984 -0.4033  0.1564
  883MOL0     C21722   1.668  11.463   3.829 -0.5539 -0.1591  0.7149
  883MOL0     C21723   1.768  11.509   3.742  0.1097 -0.4101  0.5683
  883MOL0     O21724   1.774  11.638   3.687 -0.8660  0.5234 -0.1642
  883MOL0     C21725   1.691  11.743   3.746  0.0882 -0.1146  1.0881
  883MOL0     C21726   1.687  11.879   3.680 -0.9388 -0.3732 -0.4428
  883MOL0     C21727   1.628  11.884   3.540  0.0492 -0.3746 -0.1141
  883MOL0     C21728   1.661  12.019   3.468  0.0409  0.3077 -0.6621
  883MOL0     C21729   1.603  12.000   3.324  0.3201  0.3536 -0.6105
  883MOL0     C21730   1.451  11.982   3.316 -0.1848  0.1748 -0.0795
  883MOL0     C21731   1.387  12.015   3.180  0.0162 -0.1613  0.3565
  883MOL0     C21732   1.244  11.949   3.161 -0.6344 -0.4842 -0.5747
  883MOL0     N21733   1.236  11.909   3.016 -0.4215 -0.2305  0.1147
  883MOL0     C21734   1.300  11.796   2.962  0.0032 -0.9080 -0.5755
  883MOL0     C21735   1.272  11.816   2.824 -0.0602  0.5792  1.1188
  883MOL0     C21736   1.331  11.767   2.694 -0.9349  0.4993 -0.4070
  883MOL0     C21737   1.217  11.706   2.600 -0.0537 -0.4889 -0.1286
  883MOL0     C21738   1.181  11.806   2.492  1.1354 -0.7928  0.0374
  883MOL0     C21739   1.059  11.767   2.407 -0.8353 -0.9764 -0.2144
  883MOL0     O21740   1.058  11.633   2.348 -0.6075 -0.6182 -0.3077
  883MOL0     C21741   1.111  11.618   2.215 -0.2208  0.7362  0.8302
  883MOL0     C21742   1.146  11.728   2.124  0.0320  0.2151 -0.3797
  883MOL0     C21743   1.169  11.702   1.987 -0.1796  0.3115  0.2618
  883MOL0     C21744   1.206  11.816   1.902 -0.2914 -0.2359  0.2467
  883MOL0     C21745   1.151  11.565   1.934  0.4059 -0.3262  0.1286
  883MOL0     C21746   1.182  11.521   1.789  0.9567 -0.3167 -0.2894
  883MOL0     O21747   1.152  11.390   1.763 -0.1708  0.9044 -0.3019
  883MOL0     C21748   1.200  11.335   1.646  0.2734  0.0801 -0.2160
  883MOL0     C21749   1.328  11.353   1.597 -0.6362  1.0815  0.1774
  883MOL0     C21750   1.374  11.271   1.494  0.3572 -0.2920  1.3784
  883MOL0     C21751   1.300  11.159   1.453  0.3233  0.0077  0.5918
  883MOL0     O21752   1.352  11.070   1.359 -0.4023 -0.3952  0.3814
  883MOL0     C21753   1.424  11.129   1.253 -0.5368  0.2284 -0.3416
  883MOL0     C21754   1.405  11.041   1.128 -0.1211  0.1433  0.6956
  883MOL0     C21755   1.514  11.062   1.023  0.4860 -1.4312 -0.4458
  883MOL0     C21756   1.601  10.936   0.996 -0.0045 -0.5432  0.2413
  883MOL0     C21757   1.702  10.964   0.883 -0.2423  0.4834 -0.5545
  883MOL0     C21758   1.759  10.845   0.804  0.2676 -0.0086  0.3961
  883MOL0     C21759   1.904  10.860   0.739 -0.5763  0.0458  0.0291
  883MOL0     C21760   2.012  10.832   0.841  0.3179  0.4394 -1.2700
  883MOL0    Cl21761   2.156  10.879   0.760  0.3802 -0.0248  0.2342
  883MOL0     C21762   1.180  11.132   1.507 -0.3609 -0.2745  0.0424
  883MOL0     C21763   1.123  11.227   1.606  0.3280  0.4402 -0.3491
  883MOL0     O21764   1.225  11.601   1.707 -0.1203  0.5783  0.1532
  883MOL0     C21765   1.114  11.465   2.029 -0.3944  0.4856  0.4375
  883MOL0     C21766   1.099  11.488   2.165  0.0433 -0.4990 -0.2058
  883MOL0     N21767   1.191  11.929   2.805  0.2479 -0.1990  0.0613
  883MOL0     N21768   1.167  11.982   2.921 -0.7654 -0.7497  0.4911
  883MOL0     C21769   1.861  11.419   3.690  0.6694  0.1004  0.4455
  883MOL0     C21770   1.860  11.283   3.720 -0.2167 -0.2759 -1.0172
  883MOL0     C21771   1.716  10.870   3.798  0.7769  0.9575 -0.2177
  883MOL0     C21772   1.774  10.757   3.741 -0.2669  0.5285  1.1113
  883MOL0     C21773   1.760  10.627   3.773  0.3998  0.1752  0.3255
  883MOL0     C21774   1.665  10.602   3.871  0.6587  0.9725  0.3408
  883MOL0     O21775   1.624  10.478   3.905  0.3890 -0.5134  0.5617
  883MOL0     C21776   1.725  10.378   3.904  0.0651  0.4799  1.0704
  883MOL0     C21777   1.664  10.250   3.960  0.3768 -0.3116 -0.3182
  883MOL0     C21778   1.597  10.282   4.094 -0.9295 -0.7486  0.0331
  883MOL0     C21779   1.629  10.165   4.190 -0.0196 -0.0839  0.3127
  883MOL0     C21780   1.547  10.056   4.142 -0.6353  0.2324 -0.2948
  883MOL0     C21781   1.495   9.953   4.111  0.0684 -0.5421  0.6613
  883MOL0     C21782   1.606  10.702   3.928  0.7908 -1.2076 -0.2118
  883MOL0     C21783   1.620  10.841   3.894  0.8112 -0.4381 -0.7504
  883MOL0     C21784   1.530  10.940   3.986 -0.7159  0.5124  0.9514
  883MOL0     H21785   1.589  11.289   3.933  1.9392 -0.9714  1.6562
  883MOL0     H21786   1.600  11.542   3.861  0.3197  0.3102  1.4779
  883MOL0     H21787   1.726  11.756   3.848  1.5882  0.8175  0.5007
  883MOL0     H21788   1.590  11.700   3.748  0.4428 -0.9442  1.4682
  883MOL0     H21789   1.632  11.950   3.741 -2.1179 -1.1716 -0.5530
  883MOL0     H21790   1.790  11.914   3.667 -1.0371 -0.3760 -1.3305
  883MOL0     H21791   1.688  11.811   3.485  1.0157 -0.5166  1.0944
  883MOL0     H21792   1.520  11.872   3.543  0.3125 -3.2615  0.9977
  883MOL0     H21793   1.614  12.107   3.513 -0.2026  0.0033 -0.3163
  883MOL0     H21794   1.767  12.039   3.452 -0.3322  1.6647 -1.6448
  883MOL0     H21795   1.654  11.922   3.267 -3.8580 -3.2638  0.0412
  883MOL0     H21796   1.617  12.099   3.280  1.0454 -0.0673 -1.3574
  883MOL0     H21797   1.435  11.878   3.345  2.9556 -0.8795 -1.7096
  883MOL0     H21798   1.399  12.050   3.384  0.9763 -0.0254  1.0556
  883MOL0     H21799   1.458  11.990   3.100 -0.0354  2.3906 -0.5912
  883MOL0     H21800   1.376  12.124   3.171  2.8487  0.2333  0.6004
  883MOL0     H21801   1.219  11.860   3.219 -1.1269 -1.4046 -2.1420
  883MOL0     H21802   1.164  12.020   3.183 -0.6031  0.4258 -3.0653
  883MOL0     H21803   1.358  11.715   3.002  1.1337  0.1309 -0.0507
  883MOL0     H21804   1.404  11.686   2.700 -0.9063  0.6044  0.8298
  883MOL0     H21805   1.383  11.846   2.639 -0.4722  1.7201  1.6835
  883MOL0     H21806   1.254  11.615   2.551 -1.2446 -0.5678 -0.9072
  883MOL0     H21807   1.136  11.670   2.664 -0.4584  1.8900  0.8156
  883MOL0     H21808   1.168  11.908   2.528  1.2874 -0.4650 -0.8019
  883MOL0     H21809   1.268  11.822   2.427  0.1942  0.3103 -0.9929
  883MOL0     H21810   0.977  11.785   2.477  0.9963  1.6340  1.4605
  883MOL0     H21811   1.045  11.841   2.328 -1.3705 -0.3982  0.4073
  883MOL0     H21812   1.174  11.828   2.157  0.3683  0.1983 -0.6053
  883MOL0     H21813   1.141  11.827   1.815  0.9705 -3.7007 -1.3231
  883MOL0     H21814   1.299  11.789   1.850 -1.1816 -0.2672 -1.3930
  883MOL0     H21815   1.213  11.912   1.953  0.2447 -0.0604 -0.1374
  883MOL0     H21816   1.383  11.432   1.647  2.1395 -1.0931  0.8363
  883MOL0     H21817   1.471  11.282   1.448  0.0061  1.8309  1.0499
  883MOL0     H21818   1.388  11.231   1.238  1.0144  0.8030 -0.3534
  883MOL0     H21819   1.531  11.133   1.277 -0.7429  0.2925  0.5928
  883MOL0     H21820   1.386  10.941   1.167 -2.1306 -0.6488 -1.9790
  883MOL0     H21821   1.306  11.062   1.086 -0.5082  0.0232  1.5421
  883MOL0     H21822   1.573  11.148   1.056 -3.9400  0.9166  2.3744
  883MOL0     H21823   1.466  11.091   0.928  1.4478 -0.5074 -0.6681
  883MOL0     H21824   1.540  10.854   0.957 -0.8162  0.4367 -0.6137
  883MOL0     H21825   1.656  10.903   1.085  1.8652 -1.3610 -1.1349
  883MOL0     H21826   1.666  11.045   0.819 -0.2016  1.2790  0.3917
  883MOL0     H21827   1.789  11.012   0.929  1.0222 -1.7695 -0.4622
  883MOL0     H21828   1.692  10.819   0.720  0.9623  0.2110 -0.2334
  883MOL0     H21829   1.770  10.752   0.860 -1.7419 -0.4381  0.1600
  883MOL0     H21830   1.907  10.961   0.696  0.3768  0.4464  0.9996
  883MOL0     H21831   1.913  10.788   0.657 -2.8859 -1.2999  0.8645
  883MOL0     H21832   2.017  10.724   0.861 -0.4057  0.7930  1.1532
  883MOL0     H21833   2.007  10.895   0.930 -1.7310 -1.2045 -0.1317
  883MOL0     H21834   1.113  11.055   1.470 -1.1609  0.3973  0.0629
  883MOL0     H21835   1.020  11.221   1.640 -0.2187  3.0893 -1.2641
  883MOL0     H21836   1.085  11.366   1.996  0.7014  0.5921 -0.9523
  883MOL0     H21837   1.067  11.403   2.224 -1.6619 -0.3496 -0.8649
  883MOL0     H21838   1.941  11.466   3.634  0.1508  1.6812  0.9958
  883MOL0     H21839   1.924  11.206   3.678 -1.7783 -1.4004 -1.4258
  883MOL0     H21840   1.849  10.772   3.664 -2.0328 -0.5563 -0.9373
  883MOL0     H21841   1.814  10.551   3.716 -2.3343 -0.3852 -1.7143
  883MOL0     H21842   1.758  10.354   3.803  4.2516 -0.2878  2.4196
  883MOL0     H21843   1.819  10.395   3.957  0.9631  1.8324 -0.8632
  883MOL0     H21844   1.735  10.167   3.970 -2.5640 -2.9990 -0.4149
  883MOL0     H21845   1.589  10.213   3.890  0.6075  1.4850 -1.5964
  883MOL0     H21846   1.645  10.364   4.148 -0.6234  0.9444 -2.6387
  883MOL0     H21847   1.491  10.309   4.089 -1.1912 -1.3668  1.6877
  883MOL0     H21848   1.592  10.196   4.288  0.6187  1.2455  0.1496
  883MOL0     H21849   1.736  10.146   4.177 -0.2155 -0.2948 -1.2472
  883MOL0     H21850   1.463   9.853   4.088  2.1784 -0.7250 -1.9748
  883MOL0     H21851   1.527  10.680   4.000  2.0546  0.3804  1.7969
  883MOL0     H21852   1.539  10.920   4.093 -2.0434  1.6432  1.3061
  883MOL0     H21853   1.537  11.049   3.976 -1.9460  0.5067 -0.2904
  883MOL0     H21854   1.428  10.917   3.956  0.3760  0.2144 -3.2229
  884MOL0     O21855   5.608   3.007  10.239  0.9019  0.2215  0.1278
  884MOL0     C21856   5.723   3.014  10.266 -0.3173 -0.6586 -0.0786
  884MOL0     O21857   5.824   3.008  10.177  0.3136  0.2774 -0.0034
  884MOL0     C21858   5.801   3.013  10.041  1.2934  0.0340 -0.3449
  884MOL0     C21859   5.916   3.037   9.969 -0.4831  0.0591  0.4663
  884MOL0     C21860   5.916   3.016   9.824 -0.0356  1.2077 -1.1017
  884MOL0     C21861   5.803   2.981   9.755  0.0678  1.1699 -0.4835
  884MOL0     O21862   5.827   2.980   9.621  0.2680 -0.4898  0.6938
  884MOL0     C21863   5.748   3.069   9.542  0.7411  0.1566  0.4004
  884MOL0     C21864   5.808   3.210   9.557  0.3677 -0.2334  0.8205
  884MOL0     C21865   5.736   3.317   9.477  0.3324 -0.7700 -1.0815
  884MOL0     C21866   5.741   3.304   9.323  0.0983  0.9592  0.5412
  884MOL0     C21867   5.710   3.440   9.258 -0.0048 -0.2444  0.0800
  884MOL0     C21868   5.568   3.480   9.255 -0.3007 -0.4229  0.1575
  884MOL0     C21869   5.553   3.588   9.133 -0.0225  0.0856  0.9377
  884MOL0     C21870   5.410   3.619   9.112 -0.6311  0.5737 -0.3898
  884MOL0     N21871   5.396   3.705   8.991  0.6399  0.1079 -0.0489
  884MOL0     C21872   5.394   3.842   8.978 -0.9905  0.7026  0.5784
  884MOL0     C21873   5.390   3.856   8.845  1.0334  0.2693  0.9838
  884MOL0     C21874   5.382   3.976   8.756 -0.3560 -0.3313  0.7780
  884MOL0     C21875   5.400   4.113   8.827 -0.6386  0.3991  0.4176
  884MOL0     C21876   5.452   4.220   8.730 -0.0012 -1.3833 -0.5646
  884MOL0     C21877   5.340   4.278   8.655 -0.0725  0.7691 -0.5716
  884MOL0     O21878   5.400   4.385   8.590  0.5651  0.1867  0.4021
  884MOL0     C21879   5.339   4.507   8.592 -0.5204  0.9293  0.3021
  884MOL0     C21880   5.413   4.622   8.549 -0.4070 -0.6549 -0.0571
  884MOL0     C21881   5.370   4.758   8.544  0.3411 -0.2320  0.0342
  884MOL0     C21882   5.446   4.858   8.472  0.1266  0.3271 -0.1155
  884MOL0     C21883   5.237   4.781   8.594  0.3564  0.1224  0.0642
  884MOL0     C21884   5.178   4.917   8.611  0.2977 -0.3393  0.6610
  884MOL0     O21885   5.041   4.923   8.619  0.6512  0.1015 -0.3540
  884MOL0     C21886   4.971   5.042   8.583  0.2696  1.1116 -0.5363
  884MOL0     C21887   4.836   5.059   8.623  0.3968 -1.0453  0.4977
  884MOL0     C21888   4.762   5.175   8.584  0.3377 -0.2592  0.4802
  884MOL0     C21889   4.814   5.261   8.492  0.1189 -1.1139 -0.7068
  884MOL0     O21890   4.741   5.375   8.478  0.3228 -0.0604 -0.6915
  884MOL0     C21891   4.763   5.484   8.382 -0.7791  0.6028 -0.5668
  884MOL0     C21892   4.870   5.587   8.422 -0.1503  1.4935 -0.5950
  884MOL0     C21893   4.809   5.704   8.500 -0.0672 -0.2231 -0.1109
  884MOL0     C21894   4.918   5.788   8.558 -0.1184 -0.3195  0.1230
  884MOL0     C21895   4.855   5.902   8.643 -0.3650  0.1188 -0.2926
  884MOL0     C21896   4.955   5.981   8.722  0.3094  0.1936  0.0467
  884MOL0     C21897   4.893   6.092   8.811 -0.6023  0.7259  0.3764
  884MOL0     C21898   4.992   6.147   8.910 -0.1558  0.7312  0.5716
  884MOL0    Cl21899   5.155   6.191   8.843 -0.3135  0.2519 -0.4049
  884MOL0     C21900   4.947   5.247   8.445  0.6477  1.0588 -0.9683
  884MOL0     C21901   5.018   5.135   8.493  0.3028 -0.7222  0.5107
  884MOL0     O21902   5.251   5.012   8.625  1.1012  0.5740 -0.4222
  884MOL0     C21903   5.157   4.662   8.624  0.3767 -0.7967  0.8354
  884MOL0     C21904   5.207   4.535   8.621 -0.0374 -0.2694 -0.2536
  884MOL0     N21905   5.371   3.738   8.787  0.2775 -0.1413  0.8250
  884MOL0     N21906   5.372   3.648   8.872 -0.2049  0.7111 -0.3065
  884MOL0     C21907   5.681   2.955   9.827  0.2067 -0.6550 -0.2625
  884MOL0     C21908   5.688   2.970   9.969  0.7766  0.0594 -0.5975
  884MOL0     C21909   5.749   3.000  10.410  0.9569 -0.3663 -0.0412
  884MOL0     C21910   5.659   3.078  10.493 -0.1626  0.7201  0.3294
  884MOL0     C21911   5.669   3.061  10.633 -0.4420 -0.1095 -0.3610
  884MOL0     C21912   5.777   2.987  10.697  0.6668 -0.7996  0.9526
  884MOL0     O21913   5.791   2.985  10.829 -0.0567 -0.2296  0.3046
  884MOL0     C21914   5.800   3.123  10.891  0.3384  1.2164 -0.0121
  884MOL0     C21915   5.869   3.109  11.030  0.2234 -0.4866 -0.4670
  884MOL0     C21916   6.028   3.132  11.016 -0.1279 -0.1282 -1.1739
  884MOL0     C21917   6.116   3.126  11.141  0.8236 -0.7158 -0.0372
  884MOL0     C21918   6.191   3.243  11.168 -0.7200 -0.4092 -0.8529
  884MOL0     C21919   6.253   3.339  11.189  0.1311 -1.2527  0.6176
  884MOL0     C21920   5.857   2.913  10.611  0.3644 -0.6370  0.5426
  884MOL0     C21921   5.846   2.922  10.476  0.5834 -0.3064 -0.6272
  884MOL0     C21922   5.958   2.846  10.408 -0.9112  0.4917 -0.2088
  884MOL0     H21923   6.013   3.049  10.014 -0.2242  1.5008 -0.4160
  884MOL0     H21924   6.005   3.030   9.763  0.9624 -1.7374 -0.4996
  884MOL0     H21925   5.644   3.059   9.576  0.2934 -1.0833 -1.2100
  884MOL0     H21926   5.735   3.043   9.436 -0.9480  1.7455  0.1631
  884MOL0     H21927   5.797   3.239   9.662 -0.4021 -0.1839  0.7315
  884MOL0     H21928   5.916   3.210   9.541  0.0423 -0.1933 -1.7733
  884MOL0     H21929   5.630   3.313   9.501 -0.2545 -0.8505 -3.4502
  884MOL0     H21930   5.783   3.411   9.507  3.4480 -2.0074 -1.6029
  884MOL0     H21931   5.836   3.256   9.296 -0.4611  0.4793 -0.6526
  884MOL0     H21932   5.663   3.233   9.296 -2.3969  2.9293  2.1603
  884MOL0     H21933   5.745   3.435   9.154 -1.7129  0.0322 -0.5354
  884MOL0     H21934   5.772   3.520   9.299  3.1225 -2.1806 -0.5297
  884MOL0     H21935   5.519   3.384   9.233  0.9753 -0.8283 -1.0213
  884MOL0     H21936   5.543   3.521   9.353 -1.6729 -1.0014  0.0783
  884MOL0     H21937   5.598   3.546   9.042 -1.9957 -1.4075  0.5803
  884MOL0     H21938   5.610   3.679   9.152  1.0317 -0.4498  0.4186
  884MOL0     H21939   5.351   3.528   9.098 -2.4961  1.5765  0.6268
  884MOL0     H21940   5.383   3.677   9.200 -0.8971 -1.8191  1.2005
  884MOL0     H21941   5.391   3.923   9.050  3.3698  2.1749 -0.6136
  884MOL0     H21942   5.285   3.982   8.705  0.7017  1.1574 -1.1847
  884MOL0     H21943   5.451   3.958   8.672 -2.1518 -1.9569 -0.4439
  884MOL0     H21944   5.312   4.159   8.873 -0.0548  2.7924 -0.6822
  884MOL0     H21945   5.487   4.102   8.892  1.0239  3.2096 -1.1078
  884MOL0     H21946   5.489   4.306   8.787 -2.1331 -0.3240 -0.6794
  884MOL0     H21947   5.535   4.186   8.668  2.9099  1.0115  1.6966
  884MOL0     H21948   5.298   4.209   8.582 -1.6267 -0.6070  1.5137
  884MOL0     H21949   5.266   4.321   8.723  1.0616  2.7600 -0.5063
  884MOL0     H21950   5.516   4.597   8.525  0.5683  2.8764 -0.1290
  884MOL0     H21951   5.368   4.926   8.435 -0.6358 -0.5204 -0.0907
  884MOL0     H21952   5.493   4.811   8.385  0.1761 -1.0088  0.6085
  884MOL0     H21953   5.513   4.911   8.540 -2.8730  4.3293  0.1058
  884MOL0     H21954   4.806   4.989   8.701  1.7856  0.0698  2.1282
  884MOL0     H21955   4.661   5.198   8.617 -0.4405 -0.4431 -1.6573
  884MOL0     H21956   4.789   5.432   8.288 -1.9667 -0.5209 -0.3023
  884MOL0     H21957   4.671   5.540   8.361  0.8584  2.2467 -4.3965
  884MOL0     H21958   4.946   5.527   8.473  1.3893  2.7759 -1.2771
  884MOL0     H21959   4.924   5.619   8.332  2.6139  1.5628  0.9725
  884MOL0     H21960   4.743   5.662   8.576  0.3748  0.2908  0.5789
  884MOL0     H21961   4.748   5.766   8.434 -0.1047  2.3698  2.1517
  884MOL0     H21962   4.987   5.828   8.482 -1.9470  1.3318 -0.7378
  884MOL0     H21963   4.986   5.734   8.625  1.7785  2.4904  0.6280
  884MOL0     H21964   4.799   5.981   8.592 -0.9954  1.2326  2.0272
  884MOL0     H21965   4.795   5.842   8.712  2.9926 -1.2168  1.6711
  884MOL0     H21966   5.026   6.026   8.652  2.3920  1.7612  2.9643
  884MOL0     H21967   5.008   5.904   8.778 -2.1392 -1.9516 -0.3727
  884MOL0     H21968   4.813   6.036   8.859  1.0463 -4.5276 -2.1631
  884MOL0     H21969   4.854   6.170   8.745  0.5355  0.3251 -0.8260
  884MOL0     H21970   5.002   6.068   8.985 -0.1974 -0.8620 -1.0133
  884MOL0     H21971   4.937   6.230   8.956  0.8663  1.7086  0.0633
  884MOL0     H21972   4.994   5.328   8.389 -0.4298  1.1521 -1.7631
  884MOL0     H21973   5.118   5.121   8.454  0.4846  2.3861 -0.3243
  884MOL0     H21974   5.051   4.679   8.630  0.7457  2.2839  0.3107
  884MOL0     H21975   5.132   4.457   8.630 -2.2814  1.7757  0.1559
  884MOL0     H21976   5.592   2.926   9.771 -0.3315  2.2813 -1.0835
  884MOL0     H21977   5.605   2.926  10.022 -0.8873 -0.6681 -3.5723
  884MOL0     H21978   5.585   3.145  10.451  0.5434  2.8944  2.3755
  884MOL0     H21979   5.614   3.118  10.706 -0.8937 -3.3562  2.0745
  884MOL0     H21980   5.861   3.189  10.829 -0.2844 -0.1933 -2.2690
  884MOL0     H21981   5.701   3.167  10.907 -0.2259  0.2146 -0.5952
  884MOL0     H21982   5.849   3.018  11.088 -0.2101 -0.4648 -0.5807
  884MOL0     H21983   5.827   3.188  11.093 -1.6037 -0.6774 -1.3993
  884MOL0     H21984   6.054   3.048  10.951  0.3677 -1.9649  1.2439
  884MOL0     H21985   6.041   3.227  10.963  1.5679  0.0577 -0.4719
  884MOL0     H21986   6.185   3.042  11.134  0.6811 -0.9116  0.8325
  884MOL0     H21987   6.048   3.111  11.225  2.3682  0.2196  1.4201
  884MOL0     H21988   6.321   3.420  11.206 -0.1261 -1.6463  4.2897
  884MOL0     H21989   5.928   2.845  10.657  0.8328  0.5141  1.5946
  884MOL0     H21990   6.038   2.815  10.476 -1.2905 -0.6797 -0.2891
  884MOL0     H21991   5.910   2.756  10.371  1.4528 -1.1533  0.5068
  884MOL0     H21992   6.003   2.909  10.330 -0.7922 -1.1654 -1.5245
  885MOL0     O21993   8.701   6.313   7.462  0.1055 -0.4443 -0.7743
  885MOL0     C21994   8.815   6.331   7.492  1.3552 -0.4587 -0.0546
  885MOL0     O21995   8.873   6.449   7.522  0.4313 -0.2085  0.0423
  885MOL0     C21996   8.793   6.557   7.521 -0.1239  0.4028  0.2274
  885MOL0     C21997   8.808   6.651   7.627 -0.0653  0.2836  0.5683
  885MOL0     C21998   8.732   6.767   7.638 -0.4224 -0.0405 -0.2943
  885MOL0     C21999   8.640   6.794   7.541  0.2260 -0.3108 -0.7465
  885MOL0     O22000   8.571   6.918   7.553 -0.8257  0.1886  0.3986
  885MOL0     C22001   8.466   6.923   7.646 -0.0133  0.4834  1.2134
  885MOL0     C22002   8.339   6.865   7.584 -0.1642 -0.3878  0.0399
  885MOL0     C22003   8.244   6.828   7.698  0.1631 -0.5024  0.6435
  885MOL0     C22004   8.104   6.803   7.661 -0.5231  0.6090 -0.2341
  885MOL0     C22005   8.073   6.655   7.614 -0.4448 -1.3149  0.4674
  885MOL0     C22006   7.939   6.657   7.541  0.3299  0.0281  0.3966
  885MOL0     C22007   7.889   6.518   7.534  0.2114  0.2864  0.4749
  885MOL0     C22008   7.738   6.530   7.500  0.0879 -0.0999 -0.0253
  885MOL0     N22009   7.683   6.416   7.425  0.2140 -0.5565 -0.6040
  885MOL0     C22010   7.732   6.330   7.348 -0.3357 -0.2415 -0.4629
  885MOL0     C22011   7.637   6.235   7.326  0.4202  0.1707 -0.2023
  885MOL0     C22012   7.669   6.101   7.252  0.5642 -0.2176 -0.3903
  885MOL0     C22013   7.695   5.978   7.347  0.9048 -0.7386  0.5614
  885MOL0     C22014   7.564   5.924   7.407 -0.8439  0.0031 -0.2419
  885MOL0     C22015   7.474   5.858   7.299 -0.1817 -0.1217  0.6534
  885MOL0     O22016   7.550   5.761   7.217 -0.5374 -0.2914 -0.4094
  885MOL0     C22017   7.490   5.714   7.101 -0.0685  0.2577  0.3133
  885MOL0     C22018   7.576   5.654   7.007  0.0196  0.2768  0.1593
  885MOL0     C22019   7.527   5.587   6.890  0.8273 -0.1441  0.0761
  885MOL0     C22020   7.630   5.511   6.814 -0.3825  0.3611  0.5598
  885MOL0     C22021   7.383   5.607   6.858 -0.5093 -0.5956  1.1240
  885MOL0     C22022   7.322   5.529   6.757 -0.2487 -0.5734  0.4279
  885MOL0     O22023   7.194   5.570   6.714  0.8968 -0.4570 -0.3961
  885MOL0     C22024   7.116   5.513   6.628 -0.3541  0.0120 -0.1643
  885MOL0     C22025   7.149   5.482   6.494  0.6533  0.2250  0.3637
  885MOL0     C22026   7.059   5.413   6.410 -0.7662  0.1424 -0.6947
  885MOL0     C22027   6.931   5.379   6.466 -0.2370  0.3683  1.0448
  885MOL0     O22028   6.848   5.310   6.377  0.8432  0.3363 -0.1925
  885MOL0     C22029   6.704   5.325   6.380 -0.9611 -0.4479 -0.7396
  885MOL0     C22030   6.645   5.466   6.317  0.2440  0.5537  0.4028
  885MOL0     C22031   6.725   5.499   6.188 -0.7480 -0.2957 -0.9321
  885MOL0     C22032   6.728   5.649   6.154  0.4432  0.6597 -0.2527
  885MOL0     C22033   6.844   5.696   6.059  0.4765  0.2707  0.2424
  885MOL0     C22034   6.894   5.595   5.949  0.0246 -0.7485 -0.3956
  885MOL0     C22035   6.772   5.578   5.844 -0.2196 -0.1077 -0.5010
  885MOL0     C22036   6.797   5.683   5.734 -0.9080 -0.9786  0.1793
  885MOL0    Cl22037   6.930   5.652   5.630  0.0547 -0.0496 -0.1798
  885MOL0     C22038   6.897   5.400   6.596 -0.0949 -0.4466  0.8447
  885MOL0     C22039   6.990   5.471   6.677 -0.1374  0.3387 -0.2607
  885MOL0     O22040   7.374   5.423   6.715  0.0232 -0.8022 -0.2914
  885MOL0     C22041   7.307   5.673   6.950 -0.0542 -0.4784 -0.0368
  885MOL0     C22042   7.361   5.732   7.068  0.3365  0.5904 -0.2943
  885MOL0     N22043   7.520   6.265   7.396 -0.8457 -0.1621  0.2125
  885MOL0     N22044   7.551   6.377   7.448  0.5035 -0.8638  0.2321
  885MOL0     C22045   8.620   6.707   7.429 -0.2512  0.2190  0.6933
  885MOL0     C22046   8.694   6.588   7.421 -0.5032  0.0061 -0.3324
  885MOL0     C22047   8.906   6.219   7.536  0.1878 -0.4783 -0.0900
  885MOL0     C22048   9.008   6.251   7.632 -0.2962  0.4391  0.0629
  885MOL0     C22049   9.092   6.151   7.674 -0.4002  0.4674 -0.6252
  885MOL0     C22050   9.082   6.010   7.629 -0.1384 -0.2574 -0.5342
  885MOL0     O22051   9.154   5.905   7.669 -0.0441  0.5209 -0.0535
  885MOL0     C22052   9.269   5.916   7.752 -0.5647 -0.7774 -1.2060
  885MOL0     C22053   9.382   5.964   7.664 -0.2286 -0.4546  0.2978
  885MOL0     C22054   9.484   6.045   7.746 -0.0554 -0.2065 -0.5036
  885MOL0     C22055   9.571   6.137   7.648 -0.2959  0.0325  0.6537
  885MOL0     C22056   9.672   6.070   7.565  0.7792 -0.0116 -0.1948
  885MOL0     C22057   9.742   6.010   7.483  0.3946  0.5828  0.2432
  885MOL0     C22058   8.981   5.985   7.538 -0.0277 -0.5266  0.6541
  885MOL0     C22059   8.894   6.086   7.494 -0.1148 -0.4760  0.3391
  885MOL0     C22060   8.803   6.055   7.384  0.1328  0.6308  0.3774
  885MOL0     H22061   8.881   6.632   7.705  2.1647 -0.3576 -1.5491
  885MOL0     H22062   8.752   6.846   7.710 -0.6806  0.6885 -1.0030
  885MOL0     H22063   8.446   7.027   7.671 -0.6148  0.4121  1.0333
  885MOL0     H22064   8.488   6.867   7.738 -1.7295  0.9249  1.9290
  885MOL0     H22065   8.301   6.929   7.504 -0.1897  2.1655  1.9732
  885MOL0     H22066   8.371   6.780   7.522 -3.9779 -1.0616 -1.2701
  885MOL0     H22067   8.296   6.740   7.737  0.0298 -1.0675 -0.4084
  885MOL0     H22068   8.242   6.908   7.772 -4.8177  2.5637 -2.2586
  885MOL0     H22069   8.044   6.828   7.749 -2.6089  0.2554 -1.4775
  885MOL0     H22070   8.070   6.876   7.587  0.8677  2.0955  0.5249
  885MOL0     H22071   8.068   6.592   7.704 -3.1322 -1.2692  0.4546
  885MOL0     H22072   8.150   6.618   7.546 -1.5183  0.3598 -1.7903
  885MOL0     H22073   7.869   6.716   7.600 -0.3223 -0.0657 -0.2606
  885MOL0     H22074   7.951   6.706   7.443  0.7442  1.6131  1.2052
  885MOL0     H22075   7.902   6.458   7.624 -0.6207  1.6596  1.5647
  885MOL0     H22076   7.944   6.467   7.455  1.3413  1.1425  0.6846
  885MOL0     H22077   7.680   6.551   7.590  0.7220 -1.1099  0.6460
  885MOL0     H22078   7.736   6.621   7.439 -0.8094 -1.2363 -1.7490
  885MOL0     H22079   7.833   6.327   7.308 -0.6621 -6.5905 -1.8666
  885MOL0     H22080   7.760   6.112   7.192  0.0245 -3.0318 -1.8463
  885MOL0     H22081   7.588   6.076   7.183  1.1326  2.8931 -2.3606
  885MOL0     H22082   7.743   5.894   7.297 -1.1660 -1.0352 -1.0844
  885MOL0     H22083   7.762   6.008   7.428  1.6614 -0.5169 -0.1347
  885MOL0     H22084   7.590   5.847   7.480  1.1162  0.3694 -0.5079
  885MOL0     H22085   7.516   6.002   7.466  0.9866  0.6036  0.5069
  885MOL0     H22086   7.399   5.801   7.353  0.1278  0.8013  2.1313
  885MOL0     H22087   7.431   5.939   7.239  0.5471 -0.5363 -0.4634
  885MOL0     H22088   7.678   5.657   7.044  1.1632  0.2597 -2.7662
  885MOL0     H22089   7.604   5.500   6.708 -0.7723 -1.6970  0.8242
  885MOL0     H22090   7.629   5.408   6.850 -3.8657  0.2650  0.5895
  885MOL0     H22091   7.731   5.552   6.806  0.6251 -2.0779 -0.3393
  885MOL0     H22092   7.241   5.509   6.443 -0.9457  1.7521 -1.9078
  885MOL0     H22093   7.074   5.391   6.305 -2.3273 -1.8934 -0.5437
  885MOL0     H22094   6.655   5.253   6.314  1.1783 -1.6393 -1.1241
  885MOL0     H22095   6.667   5.310   6.483  2.7420  1.2892  1.0265
  885MOL0     H22096   6.542   5.440   6.291  0.1922 -1.8185  2.5552
  885MOL0     H22097   6.635   5.550   6.386 -1.5807 -0.4973  1.4880
  885MOL0     H22098   6.673   5.452   6.104 -3.4502  0.5520  0.1511
  885MOL0     H22099   6.823   5.451   6.197 -0.6000 -0.1920 -1.9194
  885MOL0     H22100   6.729   5.721   6.236 -0.0227  3.6386 -2.6743
  885MOL0     H22101   6.637   5.664   6.096 -1.7499 -1.8551  2.2695
  885MOL0     H22102   6.797   5.781   6.010 -1.8038 -1.1261 -0.1425
  885MOL0     H22103   6.923   5.725   6.129 -0.0750 -4.6053  3.3764
  885MOL0     H22104   6.911   5.500   6.000 -2.7650 -2.3688 -2.2018
  885MOL0     H22105   6.985   5.636   5.904  0.4605 -0.5078  0.6923
  885MOL0     H22106   6.669   5.589   5.879  0.0693  2.8217 -0.2832
  885MOL0     H22107   6.794   5.483   5.794  0.0208 -2.0783  3.0517
  885MOL0     H22108   6.810   5.783   5.775  0.3831 -1.0408 -0.0528
  885MOL0     H22109   6.710   5.697   5.668  0.3684  1.9343 -1.0406
  885MOL0     H22110   6.800   5.380   6.642 -0.9044 -0.2053 -0.6813
  885MOL0     H22111   6.981   5.500   6.781  0.0911 -0.7272  0.0655
  885MOL0     H22112   7.206   5.713   6.942 -1.2977 -2.3595  3.9180
  885MOL0     H22113   7.291   5.795   7.122 -2.4084  0.1022 -2.9700
  885MOL0     H22114   8.561   6.727   7.341  1.1121  0.6883 -0.1406
  885MOL0     H22115   8.676   6.524   7.336  0.2594 -0.8698  0.1431
  885MOL0     H22116   9.027   6.344   7.683 -1.8921 -0.0334  1.6084
  885MOL0     H22117   9.171   6.186   7.740 -0.0301 -2.7379  0.7836
  885MOL0     H22118   9.259   5.972   7.846  2.6134  1.2504 -1.9283
  885MOL0     H22119   9.288   5.815   7.790 -1.0432 -0.2132  0.6676
  885MOL0     H22120   9.345   6.038   7.592  0.2417 -0.3221  0.1866
  885MOL0     H22121   9.423   5.872   7.622  1.0484 -0.0691  0.6441
  885MOL0     H22122   9.426   6.112   7.810  2.1016  0.1121  1.2556
  885MOL0     H22123   9.550   5.989   7.812  1.3448  3.7773  1.7968
  885MOL0     H22124   9.642   6.203   7.698  1.2445 -0.8389 -0.2699
  885MOL0     H22125   9.512   6.192   7.575 -1.2632 -2.5438 -0.6654
  885MOL0     H22126   9.806   5.945   7.427  1.7316  3.5118 -1.9131
  885MOL0     H22127   8.971   5.880   7.513 -0.5911 -0.3840  0.2754
  885MOL0     H22128   8.810   6.131   7.305  0.7451  0.2711  0.0767
  885MOL0     H22129   8.831   5.963   7.332 -0.2693  0.6203  0.1798
  885MOL0     H22130   8.703   6.051   7.428  0.7831  1.0293  1.9742
  886MOL0     O22131  11.344  10.399   6.628  0.8312 -0.5131  0.0806
  886MOL0     C22132  11.289  10.494   6.689  0.1659  0.3031  0.1252
  886MOL0     O22133  11.184  10.474   6.780  0.2085  0.5614  0.2680
  886MOL0     C22134  11.086  10.368   6.756  0.3024  0.0210  0.8790
  886MOL0     C22135  11.022  10.345   6.631  0.6924 -0.9596  0.6753
  886MOL0     C22136  10.892  10.284   6.615 -0.5198  0.0331 -0.3015
  886MOL0     C22137  10.843  10.214   6.721  0.2266  0.9381 -0.6096
  886MOL0     O22138  10.719  10.158   6.706 -0.3836  0.5732 -0.3956
  886MOL0     C22139  10.677  10.057   6.799 -0.7563  0.7193  1.0674
  886MOL0     C22140  10.596  10.100   6.914 -0.2494  0.0531  0.6134
  886MOL0     C22141  10.546   9.987   7.009  0.3296 -1.0881 -0.0975
  886MOL0     C22142  10.493  10.042   7.137  0.0283 -0.2858 -0.0099
  886MOL0     C22143  10.455   9.928   7.236 -0.0852 -0.9261  2.1432
  886MOL0     C22144  10.353   9.969   7.345  0.1513  0.5103  0.1838
  886MOL0     C22145  10.354   9.871   7.469 -0.1229  0.2157 -0.5002
  886MOL0     C22146  10.249   9.915   7.574  0.2803 -0.0842  0.6453
  886MOL0     N22147  10.109   9.879   7.521  0.2146 -0.8274 -0.5880
  886MOL0     C22148  10.016   9.953   7.460  0.3938 -0.5015 -0.0216
  886MOL0     C22149   9.912   9.864   7.434 -0.1497  0.0756 -0.4685
  886MOL0     C22150   9.779   9.910   7.375 -0.1134  0.6307  0.6805
  886MOL0     C22151   9.699  10.017   7.454  0.6440  0.6170 -0.6918
  886MOL0     C22152   9.595  10.087   7.358  0.2055 -0.3355  0.7941
  886MOL0     C22153   9.495  10.168   7.437  0.0213  0.4214 -0.7750
  886MOL0     O22154   9.568  10.270   7.512  0.3690 -0.4025 -0.3561
  886MOL0     C22155   9.500  10.383   7.565 -0.6085 -1.1618 -0.6807
  886MOL0     C22156   9.593  10.481   7.614 -0.0394 -0.2416  0.3709
  886MOL0     C22157   9.547  10.607   7.653 -0.0041  0.0426 -0.0636
  886MOL0     C22158   9.653  10.713   7.684 -1.0416  1.1588 -0.8049
  886MOL0     C22159   9.408  10.639   7.641  0.3727  0.0474  0.3395
  886MOL0     C22160   9.342  10.770   7.670 -0.2112  0.0614  0.2452
  886MOL0     O22161   9.422  10.875   7.645 -0.7237 -0.3558  0.0177
  886MOL0     C22162   9.362  11.007   7.645  0.7863  1.2569  0.1664
  886MOL0     C22163   9.426  11.105   7.711  0.3922  0.0902 -1.3930
  886MOL0     C22164   9.400  11.249   7.693 -1.2601  0.2458  0.0690
  886MOL0     C22165   9.292  11.285   7.624  0.0315 -0.2005 -0.0497
  886MOL0     O22166   9.257  11.416   7.609 -0.2850  0.0566  0.4987
  886MOL0     C22167   9.332  11.518   7.545  0.4199  0.0053  0.4882
  886MOL0     C22168   9.227  11.623   7.483  0.3866  0.6887  0.0100
  886MOL0     C22169   9.163  11.692   7.595  0.2194  0.9251 -0.1096
  886MOL0     C22170   9.057  11.797   7.572 -0.6881 -0.5485 -0.0678
  886MOL0     C22171   9.107  11.905   7.473 -0.8214 -0.7243 -0.2063
  886MOL0     C22172   9.023  12.034   7.467 -0.3788 -0.4606  0.1312
  886MOL0     C22173   8.872  12.030   7.454  1.1280  0.2742  0.4354
  886MOL0     C22174   8.812  12.170   7.431 -0.5573  0.6438  0.6215
  886MOL0    Cl22175   8.852  12.274   7.563  0.0690 -0.2233 -0.0785
  886MOL0     C22176   9.209  11.187   7.573  0.5048 -0.3073  0.5080
  886MOL0     C22177   9.251  11.047   7.566 -0.5086 -0.0713 -0.4934
  886MOL0     O22178   9.229  10.783   7.722 -0.3334  0.2634  0.1340
  886MOL0     C22179   9.326  10.533   7.603  0.2729  1.3726 -0.0571
  886MOL0     C22180   9.363  10.411   7.554 -0.6165  0.3455  1.0343
  886MOL0     N22181   9.951   9.735   7.465  0.3585  1.1326  0.0580
  886MOL0     N22182  10.064   9.750   7.515 -1.3025  0.1940  0.0667
  886MOL0     C22183  10.903  10.231   6.846 -0.3339  0.2866 -0.1471
  886MOL0     C22184  11.026  10.295   6.862 -1.0779  0.6187 -0.9312
  886MOL0     C22185  11.370  10.616   6.692 -0.9260  0.1625  0.1861
  886MOL0     C22186  11.382  10.677   6.823  0.2982 -0.6486  0.7247
  886MOL0     C22187  11.474  10.777   6.846 -0.5770  0.3143 -0.4361
  886MOL0     C22188  11.559  10.822   6.739  0.2820  0.6695 -0.1713
  886MOL0     O22189  11.669  10.897   6.780 -0.4439 -0.3520 -0.5301
  886MOL0     C22190  11.761  10.933   6.681 -0.7469  0.1543  0.5745
  886MOL0     C22191  11.886  11.005   6.731 -0.2491 -0.0012 -0.6896
  886MOL0     C22192  11.915  11.132   6.649 -0.5362  0.1714 -1.0901
  886MOL0     C22193  11.975  11.097   6.513  0.1766  0.0188  0.7864
  886MOL0     C22194  11.937  11.194   6.406  0.5618  0.9795 -0.5858
  886MOL0     C22195  11.872  11.265   6.329 -0.1269  0.5235  0.4063
  886MOL0     C22196  11.538  10.764   6.613  0.4715 -0.4137 -0.2112
  886MOL0     C22197  11.445  10.663   6.585 -0.0457  0.0123 -0.8926
  886MOL0     C22198  11.423  10.621   6.443  1.4105 -0.4285  0.0955
  886MOL0     H22199  11.053  10.406   6.547  0.4930  0.1433  1.3934
  886MOL0     H22200  10.834  10.290   6.523 -0.7392  0.7158 -0.1238
  886MOL0     H22201  10.767  10.009   6.841  2.2510  4.4773 -0.4818
  886MOL0     H22202  10.624   9.977   6.748  0.0792  0.5557  0.4276
  886MOL0     H22203  10.647  10.180   6.969 -2.5218  1.3626  0.9091
  886MOL0     H22204  10.502  10.147   6.884 -0.5657 -1.0170 -0.1645
  886MOL0     H22205  10.470   9.926   6.959 -0.1533 -0.3811 -0.2409
  886MOL0     H22206  10.627   9.919   7.038  1.3802  1.3047  3.1586
  886MOL0     H22207  10.563  10.114   7.181 -2.9692  1.4881  2.2866
  886MOL0     H22208  10.401  10.095   7.111  1.5205  2.3333 -0.3241
  886MOL0     H22209  10.551   9.900   7.280  2.2157  1.1946 -1.1563
  886MOL0     H22210  10.427   9.845   7.170 -0.1793  0.6566  0.0982
  886MOL0     H22211  10.395  10.062   7.385  0.3338 -0.3829  2.2198
  886MOL0     H22212  10.256   9.981   7.297  0.3425  1.2939 -0.0263
  886MOL0     H22213  10.446   9.878   7.529 -1.0722  0.3714  1.0057
  886MOL0     H22214  10.343   9.766   7.443 -1.3025 -0.2547  1.6212
  886MOL0     H22215  10.262   9.855   7.664  1.2160  1.3478  1.5159
  886MOL0     H22216  10.275  10.019   7.600  0.9159 -0.1391  0.2577
  886MOL0     H22217  10.017  10.059   7.434  0.1396 -0.4908  0.0068
  886MOL0     H22218   9.708   9.830   7.354  0.4761  0.1546  0.4581
  886MOL0     H22219   9.802   9.962   7.281  2.8905  2.9528  2.4727
  886MOL0     H22220   9.653   9.972   7.542  1.0017 -1.5643 -1.5530
  886MOL0     H22221   9.776  10.088   7.482  1.6674 -1.0637  1.0097
  886MOL0     H22222   9.653  10.151   7.292 -1.8068  0.5764 -0.1947
  886MOL0     H22223   9.541  10.023   7.288  1.9834  1.4737 -2.4478
  886MOL0     H22224   9.411  10.199   7.375 -1.4945  0.9873  1.4469
  886MOL0     H22225   9.457  10.102   7.516  2.2849 -0.3526 -0.2395
  886MOL0     H22226   9.695  10.442   7.616 -0.6697 -1.9546  1.1666
  886MOL0     H22227   9.749  10.661   7.680 -1.4228  0.2815  0.5810
  886MOL0     H22228   9.641  10.755   7.785  3.2934  2.7784 -0.7567
  886MOL0     H22229   9.659  10.796   7.613 -2.3754  3.0353  1.1250
  886MOL0     H22230   9.512  11.077   7.771  0.6072  2.7714 -0.3190
  886MOL0     H22231   9.454  11.328   7.743 -1.2471 -0.1105  0.6288
  886MOL0     H22232   9.397  11.569   7.616  0.0877 -1.1679  1.6674
  886MOL0     H22233   9.382  11.472   7.460  0.3745 -2.0923  1.5451
  886MOL0     H22234   9.278  11.698   7.422  3.4743 -1.2677 -0.0488
  886MOL0     H22235   9.147  11.574   7.427 -1.0650  2.9755 -0.0466
  886MOL0     H22236   9.238  11.751   7.648  0.9501  2.7004 -2.8778
  886MOL0     H22237   9.116  11.620   7.662  3.4589 -1.1197  0.2079
  886MOL0     H22238   9.033  11.839   7.670  0.1052  0.8190 -0.4237
  886MOL0     H22239   8.964  11.754   7.535  0.7248 -2.3084 -1.7680
  886MOL0     H22240   9.208  11.936   7.498 -1.4004 -0.2265  1.6409
  886MOL0     H22241   9.094  11.862   7.373  0.3125  1.2080 -1.2309
  886MOL0     H22242   9.070  12.095   7.390 -0.4758  1.7778  1.7565
  886MOL0     H22243   9.036  12.091   7.559 -1.5179  0.4723 -0.2559
  886MOL0     H22244   8.833  11.983   7.545 -1.2510 -1.9405 -1.5603
  886MOL0     H22245   8.831  11.966   7.374 -1.4563  0.2935  1.6533
  886MOL0     H22246   8.707  12.165   7.403  0.3308 -0.4733 -3.0904
  886MOL0     H22247   8.869  12.209   7.346  1.2590 -4.6746 -0.9812
  886MOL0     H22248   9.111  11.205   7.528  0.8716 -2.2731 -1.2152
  886MOL0     H22249   9.198  10.964   7.519 -1.2698 -0.1839  0.5353
  886MOL0     H22250   9.219  10.553   7.600 -0.1210 -0.6489 -1.9099
  886MOL0     H22251   9.294  10.335   7.518  0.0645 -0.2825  1.0411
  886MOL0     H22252  10.865  10.201   6.944  2.7986  1.0088  1.3955
  886MOL0     H22253  11.073  10.327   6.954  0.7646 -0.3611 -1.4855
  886MOL0     H22254  11.334  10.648   6.916  0.6746 -0.5898  0.9372
  886MOL0     H22255  11.480  10.819   6.946 -4.0618 -1.5171  0.6804
  886MOL0     H22256  11.778  10.843   6.621 -5.1220 -1.1270  0.9277
  886MOL0     H22257  11.707  10.999   6.612  1.8534  3.0755  1.1017
  886MOL0     H22258  11.964  10.930   6.740 -3.4724 -3.6800 -0.6519
  886MOL0     H22259  11.861  11.029   6.835 -1.2371  1.5490 -1.2421
  886MOL0     H22260  11.826  11.197   6.650  0.8243  2.2102 -3.4642
  886MOL0     H22261  11.997  11.183   6.700 -1.2899  1.2526 -0.9196
  886MOL0     H22262  11.933  11.000   6.485  1.8189 -0.8523  1.2778
  886MOL0     H22263  12.083  11.084   6.518  0.7985  3.3993 -0.9934
  886MOL0     H22264  11.824  11.324   6.254  0.8189 -1.3353 -1.7659
  886MOL0     H22265  11.599  10.789   6.527  0.1719 -3.1742 -1.3311
  886MOL0     H22266  11.362  10.534   6.416 -1.7985  2.5019 -3.4055
  886MOL0     H22267  11.393  10.709   6.384  0.6433 -0.7139  0.0452
  886MOL0     H22268  11.518  10.593   6.396  0.6038 -0.6101 -1.5054
  887MOL0     O22269   7.569   6.287   8.723  0.0477 -0.4473  0.0284
  887MOL0     C22270   7.690   6.278   8.699  0.2224 -0.5068  0.0045
  887MOL0     O22271   7.773   6.386   8.693 -0.1481 -0.1585  0.2568
  887MOL0     C22272   7.725   6.504   8.754 -0.1019  0.0513 -0.1873
  887MOL0     C22273   7.700   6.507   8.887  0.3421  1.0507 -0.5716
  887MOL0     C22274   7.645   6.625   8.949  0.7086  0.7020 -0.2310
  887MOL0     C22275   7.625   6.728   8.870 -0.8365  0.0455  0.5577
  887MOL0     O22276   7.566   6.843   8.928  0.0759  0.2233 -0.0027
  887MOL0     C22277   7.510   6.957   8.860 -0.0409 -0.5634 -0.6471
  887MOL0     C22278   7.600   7.080   8.848  0.6590 -0.0058  0.5197
  887MOL0     C22279   7.535   7.185   8.751 -0.1895  0.0451  0.0702
  887MOL0     C22280   7.606   7.322   8.726 -0.4204  0.2052 -0.6397
  887MOL0     C22281   7.581   7.417   8.840 -0.3360 -1.1740 -0.4233
  887MOL0     C22282   7.632   7.552   8.809  0.4607 -0.1328 -0.9953
  887MOL0     C22283   7.558   7.636   8.705 -0.0028  0.2297 -0.7414
  887MOL0     C22284   7.617   7.772   8.670  0.0123 -0.4882 -0.4259
  887MOL0     N22285   7.566   7.811   8.542 -0.7127 -0.1361 -0.2307
  887MOL0     C22286   7.446   7.890   8.532  1.1718  0.7783 -0.2929
  887MOL0     C22287   7.426   7.910   8.400 -0.2807 -0.1714  0.6153
  887MOL0     C22288   7.326   7.986   8.323 -0.6007  0.3682  0.1777
  887MOL0     C22289   7.243   8.071   8.415  0.2056 -0.2483 -0.4492
  887MOL0     C22290   7.162   8.185   8.343 -0.2651 -0.2304 -0.5869
  887MOL0     C22291   7.093   8.152   8.206 -0.6415  0.3763 -0.6124
  887MOL0     O22292   6.976   8.227   8.203  0.2616  0.3231 -0.7769
  887MOL0     C22293   6.982   8.368   8.187  0.4609 -0.0695 -0.0649
  887MOL0     C22294   6.849   8.425   8.187 -0.5378  0.0292  0.7398
  887MOL0     C22295   6.832   8.561   8.152  0.4030 -0.3299  0.6638
  887MOL0     C22296   6.685   8.602   8.137 -0.5323  0.2730 -0.4220
  887MOL0     C22297   6.949   8.641   8.125  0.4629  1.1619  0.9087
  887MOL0     C22298   6.937   8.790   8.102 -0.3880  0.2231  0.7059
  887MOL0     O22299   7.055   8.859   8.082  0.7120 -0.0665  0.2401
  887MOL0     C22300   7.088   8.960   8.002  0.5263 -0.5562 -0.6614
  887MOL0     C22301   7.212   9.022   8.031 -0.0308  0.7209 -0.7167
  887MOL0     C22302   7.256   9.127   7.958  0.5712  0.7876 -0.5180
  887MOL0     C22303   7.190   9.170   7.844  0.7359 -0.3176 -0.5760
  887MOL0     O22304   7.229   9.257   7.745  0.0288  0.5479  0.4781
  887MOL0     C22305   7.332   9.353   7.787 -0.7236  0.1224  0.9261
  887MOL0     C22306   7.470   9.283   7.747 -0.2721  0.1914  0.3713
  887MOL0     C22307   7.589   9.363   7.788  0.0594 -1.4157 -0.7472
  887MOL0     C22308   7.723   9.279   7.777 -0.0488  0.0126  0.0578
  887MOL0     C22309   7.828   9.349   7.855  0.2148  0.5008  0.4967
  887MOL0     C22310   7.967   9.295   7.812 -0.7507  1.1937 -1.0204
  887MOL0     C22311   7.987   9.166   7.890  0.3021  0.6659 -0.5620
  887MOL0     C22312   8.132   9.107   7.865 -0.4207  0.7050 -1.0268
  887MOL0    Cl22313   8.169   9.020   8.005  0.0303  0.1328  0.1199
  887MOL0     C22314   7.069   9.118   7.821  1.1917  0.6007 -0.3473
  887MOL0     C22315   7.018   9.013   7.894  0.1593 -0.7492 -0.3271
  887MOL0     O22316   6.829   8.842   8.087  0.5036 -0.3624 -0.1986
  887MOL0     C22317   7.074   8.580   8.115  0.6533  0.3123  0.4174
  887MOL0     C22318   7.088   8.444   8.145 -0.3762 -0.9396 -0.4119
  887MOL0     N22319   7.539   7.846   8.335 -0.6017  0.1285  0.7093
  887MOL0     N22320   7.622   7.792   8.420  0.4606  0.1643  0.4257
  887MOL0     C22321   7.663   6.731   8.736 -0.7193  0.7692  0.3528
  887MOL0     C22322   7.717   6.620   8.676  0.1389  0.1469 -0.9937
  887MOL0     C22323   7.757   6.145   8.674  0.3692 -0.0037  0.2087
  887MOL0     C22324   7.878   6.136   8.607  0.2522 -0.9440 -0.4323
  887MOL0     C22325   7.940   6.021   8.557 -0.0499 -0.3644 -0.5842
  887MOL0     C22326   7.874   5.900   8.572 -0.4811  0.4299  0.1076
  887MOL0     O22327   7.928   5.791   8.511 -0.7070 -0.8682  0.1466
  887MOL0     C22328   7.882   5.664   8.526  0.5188  0.8508 -0.1423
  887MOL0     C22329   7.923   5.616   8.667 -0.0255 -0.3950 -0.1320
  887MOL0     C22330   7.838   5.485   8.717  1.1475 -0.9330 -0.1054
  887MOL0     C22331   7.799   5.509   8.863  0.1777  0.2785 -0.6814
  887MOL0     C22332   7.746   5.381   8.916  0.5251  0.3625  0.6960
  887MOL0     C22333   7.693   5.279   8.955  0.4246  0.0422  0.0572
  887MOL0     C22334   7.751   5.897   8.643 -0.1779  0.0503 -0.8016
  887MOL0     C22335   7.694   6.015   8.707  0.3596  0.5221  0.4939
  887MOL0     C22336   7.569   5.990   8.781 -0.4488 -0.4558  1.3384
  887MOL0     H22337   7.724   6.416   8.940  3.1662  0.7721 -2.1849
  887MOL0     H22338   7.612   6.614   9.052 -1.2163 -1.2475 -1.0002
  887MOL0     H22339   7.415   6.980   8.911 -1.8594  0.0303 -4.0015
  887MOL0     H22340   7.459   6.929   8.767 -0.3977  3.2153 -1.7451
  887MOL0     H22341   7.597   7.117   8.951 -2.8765  0.4993  0.3780
  887MOL0     H22342   7.707   7.061   8.834  0.4974 -0.3040 -0.4492
  887MOL0     H22343   7.547   7.125   8.661  3.5698  0.7929 -0.0671
  887MOL0     H22344   7.429   7.189   8.777 -0.1919  0.2447  0.0383
  887MOL0     H22345   7.715   7.324   8.714 -0.1146  1.9039  1.6489
  887MOL0     H22346   7.560   7.362   8.635 -1.0524 -0.5246 -0.6528
  887MOL0     H22347   7.630   7.362   8.921 -1.9921 -1.8728  0.1508
  887MOL0     H22348   7.481   7.423   8.882  0.4653 -2.1611  1.7750
  887MOL0     H22349   7.642   7.615   8.898  2.4839  4.3720 -4.0466
  887MOL0     H22350   7.737   7.548   8.781  1.7541 -1.9384  3.3179
  887MOL0     H22351   7.464   7.661   8.756  1.3758  2.3526  0.9055
  887MOL0     H22352   7.540   7.581   8.612  1.0262  0.4342 -1.0683
  887MOL0     H22353   7.602   7.854   8.741  1.0724 -0.2488 -0.4635
  887MOL0     H22354   7.724   7.755   8.651  1.1050  3.0931  1.4657
  887MOL0     H22355   7.390   7.928   8.616 -4.2848 -0.4608 -2.9048
  887MOL0     H22356   7.272   7.915   8.260 -0.6996  1.8697 -1.5088
  887MOL0     H22357   7.373   8.054   8.252 -1.2412 -2.7874 -3.6142
  887MOL0     H22358   7.172   8.010   8.471 -2.1995  2.0631 -0.7817
  887MOL0     H22359   7.314   8.108   8.489 -0.4058 -0.3984  0.2253
  887MOL0     H22360   7.094   8.230   8.417  1.4013 -0.6001  1.2697
  887MOL0     H22361   7.231   8.270   8.341 -1.6551  0.9783  0.1070
  887MOL0     H22362   7.147   8.178   8.114 -0.9948 -3.9502 -2.2469
  887MOL0     H22363   7.064   8.047   8.197  2.4389 -0.6595  0.2482
  887MOL0     H22364   6.761   8.370   8.218 -1.5339  1.8229  1.1930
  887MOL0     H22365   6.661   8.701   8.177 -1.1383 -0.6195  1.5875
  887MOL0     H22366   6.615   8.539   8.193 -2.9718  1.3308 -2.1034
  887MOL0     H22367   6.670   8.607   8.029 -1.1587  0.7992 -0.3141
  887MOL0     H22368   7.277   8.997   8.115  0.6762  6.2909  0.8064
  887MOL0     H22369   7.359   9.161   7.964  0.2564  1.6693  0.2055
  887MOL0     H22370   7.325   9.454   7.746  1.3893 -0.0388  0.0569
  887MOL0     H22371   7.324   9.363   7.895  2.0153 -0.6892  1.2715
  887MOL0     H22372   7.490   9.181   7.780  1.4437  1.0607  2.2463
  887MOL0     H22373   7.472   9.276   7.638  1.0283  2.6060  0.1660
  887MOL0     H22374   7.569   9.405   7.886  2.9384  0.6617 -0.9518
  887MOL0     H22375   7.613   9.446   7.721 -1.9900  1.1946  1.5531
  887MOL0     H22376   7.747   9.261   7.672 -4.3508  1.9521 -1.4796
  887MOL0     H22377   7.701   9.178   7.813  3.7136 -1.9059 -2.4104
  887MOL0     H22378   7.827   9.456   7.833 -0.1010  0.2593 -0.7728
  887MOL0     H22379   7.798   9.321   7.956  0.5621  1.7505  0.9617
  887MOL0     H22380   8.052   9.358   7.838 -0.2166 -0.3139  1.2052
  887MOL0     H22381   7.964   9.271   7.706 -2.5146 -1.8656 -0.4093
  887MOL0     H22382   7.932   9.080   7.850  3.4517 -2.3658  1.1004
  887MOL0     H22383   7.973   9.176   7.998 -0.4922 -0.2635 -0.5594
  887MOL0     H22384   8.202   9.191   7.858  0.3465  0.3120  1.3228
  887MOL0     H22385   8.136   9.038   7.780 -0.4125  0.0692 -0.5131
  887MOL0     H22386   7.009   9.151   7.737 -0.4193 -0.0738  0.4840
  887MOL0     H22387   6.915   8.977   7.896 -0.4680  0.9537 -0.2281
  887MOL0     H22388   7.163   8.631   8.080 -0.6859  2.5115  0.0657
  887MOL0     H22389   7.177   8.381   8.147 -0.2493 -0.7412  1.3704
  887MOL0     H22390   7.659   6.818   8.670 -3.1026 -0.1285 -0.7998
  887MOL0     H22391   7.738   6.623   8.570  2.0571  1.3961 -0.6173
  887MOL0     H22392   7.922   6.233   8.588 -0.1498 -0.5198  0.7158
  887MOL0     H22393   8.037   6.028   8.509  0.5221 -0.3488  0.5490
  887MOL0     H22394   7.773   5.659   8.522  0.5739 -4.3120 -1.8430
  887MOL0     H22395   7.924   5.600   8.448  2.8942  2.5265 -0.3517
  887MOL0     H22396   7.904   5.694   8.742  5.2933  0.9143  0.2316
  887MOL0     H22397   8.031   5.605   8.668 -0.2337 -3.1035 -0.8592
  887MOL0     H22398   7.746   5.466   8.662  2.6347 -4.4404 -1.7158
  887MOL0     H22399   7.910   5.403   8.707  0.4045 -1.5440 -0.5234
  887MOL0     H22400   7.730   5.593   8.873 -0.1419 -0.1397  1.0938
  887MOL0     H22401   7.889   5.545   8.914  0.0294  1.4154 -1.1813
  887MOL0     H22402   7.630   5.199   8.989 -1.2338  1.0292 -0.5697
  887MOL0     H22403   7.685   5.811   8.643  0.1074 -0.2221  1.2531
  887MOL0     H22404   7.575   6.070   8.856  3.7440  0.1512  0.6080
  887MOL0     H22405   7.479   5.991   8.719 -0.1010 -2.7950  0.7229
  887MOL0     H22406   7.571   5.897   8.839  1.2512 -1.7224 -0.6141
  888MOL0     O22407   9.075  10.434   7.424  0.3334  0.6873 -0.4824
  888MOL0     C22408   8.971  10.427   7.359  0.0985 -0.3750 -0.3125
  888MOL0     O22409   8.934  10.316   7.278  0.1390  0.0886 -1.0652
  888MOL0     C22410   8.998  10.210   7.321  0.1891 -0.2158  0.1379
  888MOL0     C22411   9.128  10.180   7.270 -0.6992 -0.2653 -0.3829
  888MOL0     C22412   9.191  10.062   7.304 -0.1050  1.1146  0.9238
  888MOL0     C22413   9.133   9.972   7.390 -0.4700 -0.8261  0.4368
  888MOL0     O22414   9.214   9.879   7.445  0.4585 -0.2005 -0.3097
  888MOL0     C22415   9.211   9.879   7.596  0.5380 -0.2431 -0.1976
  888MOL0     C22416   9.139   9.744   7.629 -0.0945  0.3710  1.4180
  888MOL0     C22417   9.062   9.747   7.760 -0.0643 -0.1855  0.7911
  888MOL0     C22418   8.982   9.612   7.794 -0.1967 -0.0925  0.0813
  888MOL0     C22419   8.933   9.601   7.938  0.5711  0.1087 -0.6439
  888MOL0     C22420   8.812   9.687   7.961 -0.5753  0.2223 -0.1270
  888MOL0     C22421   8.745   9.641   8.101 -0.7979 -0.2540  0.5721
  888MOL0     C22422   8.619   9.719   8.135  0.6643  0.3133 -0.2655
  888MOL0     N22423   8.584   9.709   8.288 -0.5457  0.8400  0.6772
  888MOL0     C22424   8.519   9.814   8.360 -0.4725  0.3206  0.2906
  888MOL0     C22425   8.538   9.771   8.491 -0.0427 -0.3843  0.2042
  888MOL0     C22426   8.487   9.852   8.600  0.3098  0.0150  0.1760
  888MOL0     C22427   8.482   9.773   8.733 -0.1773 -0.9049 -0.1558
  888MOL0     C22428   8.471   9.872   8.852  1.2528 -0.5303  0.1164
  888MOL0     C22429   8.444   9.796   8.983  0.5001 -0.4432  0.0808
  888MOL0     O22430   8.310   9.737   8.975  0.5986  0.4958  0.1227
  888MOL0     C22431   8.242   9.735   9.096  0.2274 -0.0831  0.0219
  888MOL0     C22432   8.103   9.711   9.079 -0.0410  0.3569 -0.2590
  888MOL0     C22433   8.011   9.732   9.180  0.2601 -0.7620  0.9601
  888MOL0     C22434   7.874   9.701   9.146  0.0462 -0.5220 -0.3176
  888MOL0     C22435   8.053   9.757   9.314 -0.5958  0.1287 -0.7612
  888MOL0     C22436   7.970   9.727   9.436 -0.0808  0.2591  0.4091
  888MOL0     O22437   7.842   9.673   9.420  0.5788 -0.5425  0.0546
  888MOL0     C22438   7.764   9.655   9.531  0.5126 -0.7820  0.1899
  888MOL0     C22439   7.635   9.726   9.525  0.3268  0.6851  0.4535
  888MOL0     C22440   7.549   9.725   9.644  0.7536  0.8615  1.1273
  888MOL0     C22441   7.598   9.658   9.754  0.6969 -0.3226  0.1185
  888MOL0     O22442   7.524   9.654   9.868 -0.4843  0.0187  1.1317
  888MOL0     C22443   7.401   9.719   9.878 -0.2684 -0.9065  0.1103
  888MOL0     C22444   7.337   9.681  10.009 -0.1741 -0.3514  0.1345
  888MOL0     C22445   7.361   9.782  10.125 -0.2397  0.3417  0.5510
  888MOL0     C22446   7.503   9.841  10.138  0.8385 -0.0821 -0.2642
  888MOL0     C22447   7.508   9.933  10.267 -0.8860  0.9036  0.1200
  888MOL0     C22448   7.658   9.965  10.298 -0.2921  0.5517 -0.2741
  888MOL0     C22449   7.681  10.087  10.376 -0.8708  0.4619  0.0716
  888MOL0     C22450   7.819  10.065  10.449  1.0024  0.6245 -0.1468
  888MOL0    Cl22451   7.808   9.929  10.576 -0.0198 -0.3169  0.4312
  888MOL0     C22452   7.713   9.575   9.748 -0.0862 -0.3011  0.3641
  888MOL0     C22453   7.800   9.577   9.645 -0.1535  0.3492 -0.4388
  888MOL0     O22454   8.024   9.766   9.548 -0.1384  0.7434 -0.2650
  888MOL0     C22455   8.193   9.774   9.334 -0.1000  0.7494  0.1985
  888MOL0     C22456   8.289   9.757   9.225 -0.4341  0.1800 -0.1211
  888MOL0     N22457   8.610   9.649   8.489  0.0187 -0.1415 -0.9013
  888MOL0     N22458   8.650   9.627   8.377  0.4223  0.1247 -0.2439
  888MOL0     C22459   9.003  10.000   7.430  0.0428  0.1658 -0.2205
  888MOL0     C22460   8.936  10.125   7.404  0.4803 -0.0127  0.0855
  888MOL0     C22461   8.861  10.538   7.367  0.2618 -0.0321 -0.3046
  888MOL0     C22462   8.728  10.499   7.345 -0.6634  0.3616 -0.2934
  888MOL0     C22463   8.616  10.583   7.349 -0.6776  0.2144  0.6580
  888MOL0     C22464   8.646  10.720   7.357  0.1494  0.7187 -0.7528
  888MOL0     O22465   8.537  10.800   7.334  0.7523  0.5335  1.1289
  888MOL0     C22466   8.534  10.932   7.404 -0.3638 -0.0110 -0.2715
  888MOL0     C22467   8.401  11.016   7.380  0.8307  0.0676  0.0673
  888MOL0     C22468   8.416  11.152   7.437  1.0088  0.3620  0.3645
  888MOL0     C22469   8.283  11.226   7.433  0.9007 -0.7995  0.1087
  888MOL0     C22470   8.305  11.369   7.470 -0.2298 -0.2174 -0.1035
  888MOL0     C22471   8.334  11.478   7.514  0.4056 -0.1046 -0.0941
  888MOL0     C22472   8.778  10.762   7.371 -0.3551 -0.3809  0.2742
  888MOL0     C22473   8.883  10.674   7.394  0.7498  0.1336  0.4053
  888MOL0     C22474   9.014  10.734   7.421 -0.3897 -0.1936  0.1641
  888MOL0     H22475   9.184  10.239   7.197  0.1702 -2.2883 -1.4299
  888MOL0     H22476   9.292  10.043   7.269 -1.6719  0.1136 -3.6977
  888MOL0     H22477   9.146   9.956   7.638 -0.9190 -0.0533 -2.6201
  888MOL0     H22478   9.308   9.899   7.642 -0.2322 -0.4292  1.5986
  888MOL0     H22479   9.068   9.715   7.551  1.1790 -1.2395  0.7878
  888MOL0     H22480   9.211   9.662   7.624  0.9488  1.3581 -1.1332
  888MOL0     H22481   9.119   9.775   7.849 -1.8833 -0.5001  2.1144
  888MOL0     H22482   8.983   9.823   7.759 -0.1830 -0.3091 -0.0590
  888MOL0     H22483   8.903   9.599   7.719  1.2862 -1.5950 -1.2884
  888MOL0     H22484   9.054   9.530   7.786 -0.9687 -0.8807  1.0347
  888MOL0     H22485   9.010   9.617   8.014 -1.7168 -2.0487  2.3892
  888MOL0     H22486   8.890   9.501   7.951 -1.0029  0.9061  0.5376
  888MOL0     H22487   8.844   9.791   7.975  1.2560  0.0069 -2.2545
  888MOL0     H22488   8.735   9.695   7.884  0.5251  1.2848 -1.1453
  888MOL0     H22489   8.813   9.662   8.184  0.5610 -0.4356 -0.4546
  888MOL0     H22490   8.721   9.534   8.105 -1.2697 -0.1062  2.1618
  888MOL0     H22491   8.636   9.821   8.099  1.6084 -0.7607 -3.2428
  888MOL0     H22492   8.540   9.678   8.071  0.7367 -3.4450  1.7683
  888MOL0     H22493   8.479   9.906   8.321  2.1605  1.4670  0.0812
  888MOL0     H22494   8.387   9.896   8.593 -0.8776 -2.5956 -0.4143
  888MOL0     H22495   8.550   9.941   8.607  0.9406 -0.1523 -2.3623
  888MOL0     H22496   8.404   9.695   8.739  2.0585 -3.4626 -1.8447
  888MOL0     H22497   8.581   9.728   8.733  1.4923  2.4348  1.2510
  888MOL0     H22498   8.563   9.932   8.856  0.1478  1.2742 -0.5259
  888MOL0     H22499   8.389   9.943   8.836  1.8827  0.4937  1.2359
  888MOL0     H22500   8.511   9.710   8.997  1.1587  0.0546  0.0573
  888MOL0     H22501   8.461   9.860   9.070 -1.5208 -0.7717  0.7620
  888MOL0     H22502   8.065   9.709   8.977 -0.3221 -1.4398 -0.1441
  888MOL0     H22503   7.851   9.595   9.162  0.3483 -0.9750 -2.5379
  888MOL0     H22504   7.851   9.721   9.041 -0.2509 -1.1862 -0.3896
  888MOL0     H22505   7.797   9.751   9.205  0.2130 -0.8587  0.1883
  888MOL0     H22506   7.621   9.788   9.437  5.1496  0.7608 -0.5188
  888MOL0     H22507   7.458   9.784   9.651 -0.8841 -1.2743 -0.6980
  888MOL0     H22508   7.410   9.824   9.851 -1.1168 -1.4649 -2.7253
  888MOL0     H22509   7.347   9.664   9.800  0.2069 -0.2282 -0.7098
  888MOL0     H22510   7.229   9.679   9.991 -0.2529 -2.5559  0.6102
  888MOL0     H22511   7.375   9.582  10.034 -0.6765  0.0298  2.7197
  888MOL0     H22512   7.339   9.728  10.217 -0.4675 -0.0791  0.2554
  888MOL0     H22513   7.291   9.863  10.101  1.0847  1.2762 -0.2635
  888MOL0     H22514   7.537   9.898  10.051 -0.5738  2.4200  0.7241
  888MOL0     H22515   7.574   9.761  10.161  1.0078  0.0339 -0.3800
  888MOL0     H22516   7.458  10.029  10.250 -0.5489  1.0486 -0.0781
  888MOL0     H22517   7.460   9.878  10.348 -0.0153  0.4512  0.3357
  888MOL0     H22518   7.705   9.973  10.200 -0.8417  2.6469 -0.4225
  888MOL0     H22519   7.719   9.885  10.341  0.8608  2.3186  1.5753
  888MOL0     H22520   7.605  10.105  10.453 -1.1992 -1.7441  0.3204
  888MOL0     H22521   7.679  10.173  10.308  1.7843  0.1045 -0.5480
  888MOL0     H22522   7.861  10.159  10.488  0.8608  1.0051 -0.8785
  888MOL0     H22523   7.892  10.029  10.376 -0.8773 -1.4507 -1.1215
  888MOL0     H22524   7.733   9.530   9.844 -0.6845  1.4707  1.3719
  888MOL0     H22525   7.896   9.529   9.636 -0.0483  0.6451 -0.9454
  888MOL0     H22526   8.246   9.798   9.425  3.7708  1.6371 -2.0703
  888MOL0     H22527   8.395   9.776   9.237 -0.8938  3.4582 -0.5455
  888MOL0     H22528   8.937   9.925   7.472  1.5246 -0.4157  1.1649
  888MOL0     H22529   8.836  10.136   7.447  0.3252  1.2130 -0.5235
  888MOL0     H22530   8.710  10.398   7.308  1.7462 -0.7428  1.2861
  888MOL0     H22531   8.518  10.550   7.315  0.5259 -2.9324 -0.1210
  888MOL0     H22532   8.541  10.920   7.512 -0.7138 -0.9648 -0.3378
  888MOL0     H22533   8.621  10.987   7.369  0.3370  0.7477  2.4761
  888MOL0     H22534   8.319  10.962   7.427 -0.0041  2.3619  1.4379
  888MOL0     H22535   8.369  11.025   7.276 -1.4362  1.2902  0.8063
  888MOL0     H22536   8.448  11.140   7.541 -1.3853 -2.3897  0.8978
  888MOL0     H22537   8.482  11.221   7.384  0.9013  0.1804 -0.0103
  888MOL0     H22538   8.225  11.181   7.514 -2.9453  3.3045  0.0146
  888MOL0     H22539   8.241  11.228   7.333 -1.7193 -1.3076  1.1374
  888MOL0     H22540   8.370  11.571   7.554  0.0227  1.3263 -2.7660
  888MOL0     H22541   8.801  10.868   7.375 -1.1855 -0.2203  0.8985
  888MOL0     H22542   9.021  10.842   7.405  3.9947 -0.6639 -2.7031
  888MOL0     H22543   9.052  10.706   7.520  2.0589  3.2454  0.4077
  888MOL0     H22544   9.080  10.700   7.341 -1.9459  0.3029 -1.3845
  889MOL0     O22545   9.747   1.220   8.277  0.0028  0.0174 -0.1860
  889MOL0     C22546   9.708   1.174   8.172 -0.5891  0.3139  0.7335
  889MOL0     O22547   9.793   1.162   8.062  0.4932  0.1724  0.4605
  889MOL0     C22548   9.871   1.272   8.047 -0.4511 -0.8988 -0.9679
  889MOL0     C22549   9.833   1.365   7.953 -0.2310 -0.5120  0.5299
  889MOL0     C22550   9.919   1.472   7.941 -0.4985  0.3117 -0.5888
  889MOL0     C22551  10.022   1.504   8.032 -0.1474 -0.1862  0.1242
  889MOL0     O22552  10.111   1.608   8.017  0.3678 -0.1214  0.4046
  889MOL0     C22553  10.052   1.742   8.019  0.8557 -0.0016 -0.3135
  889MOL0     C22554  10.159   1.848   7.996  0.4995 -0.3853  0.1513
  889MOL0     C22555  10.171   1.876   7.843 -0.2250 -0.6332  0.0783
  889MOL0     C22556  10.068   1.974   7.800  0.0228  1.1164 -0.4986
  889MOL0     C22557  10.081   2.021   7.656 -0.0899  0.5734  0.9664
  889MOL0     C22558  10.024   1.919   7.554 -1.0616 -0.6177 -0.0260
  889MOL0     C22559  10.025   1.974   7.411 -0.1131 -0.6229  0.1364
  889MOL0     C22560  10.163   1.979   7.354 -0.1636 -0.2755 -0.1647
  889MOL0     N22561  10.165   1.968   7.203  0.0892  0.0985 -0.5623
  889MOL0     C22562  10.161   1.842   7.133  0.5230  0.0230 -1.3142
  889MOL0     C22563  10.207   1.872   7.013 -0.1730  0.7425  1.3785
  889MOL0     C22564  10.248   1.770   6.904  0.4077 -0.0553 -0.3607
  889MOL0     C22565  10.135   1.677   6.880  0.4296  0.7664 -0.0450
  889MOL0     C22566  10.152   1.586   6.749  0.3114  1.1495  0.5500
  889MOL0     C22567  10.067   1.462   6.755 -0.6104  0.8295  0.6973
  889MOL0     O22568   9.930   1.501   6.772  0.0916  0.4552  0.6145
  889MOL0     C22569   9.846   1.531   6.665 -0.2578  0.1545 -0.1132
  889MOL0     C22570   9.720   1.560   6.701  0.9703  0.1340 -0.3713
  889MOL0     C22571   9.628   1.597   6.612  0.2168 -0.1427  0.6387
  889MOL0     C22572   9.497   1.627   6.660 -0.3148 -0.8971  0.1170
  889MOL0     C22573   9.671   1.616   6.479  0.0259 -0.5433 -0.6614
  889MOL0     C22574   9.578   1.658   6.370  0.7294 -0.0976  0.4471
  889MOL0     O22575   9.622   1.710   6.264 -0.3805 -0.0356 -0.5476
  889MOL0     C22576   9.535   1.763   6.171 -0.3663  0.3732 -0.1822
  889MOL0     C22577   9.425   1.849   6.190  0.8415  0.5385 -0.1442
  889MOL0     C22578   9.365   1.912   6.080  0.0429 -0.0884 -1.1524
  889MOL0     C22579   9.412   1.892   5.951 -0.3388  0.0589 -0.5040
  889MOL0     O22580   9.352   1.950   5.841 -0.5302 -0.1235 -0.5699
  889MOL0     C22581   9.237   1.871   5.791  0.4914 -0.7826  0.2281
  889MOL0     C22582   9.279   1.746   5.708 -0.6467  0.0854  0.8793
  889MOL0     C22583   9.378   1.773   5.603 -0.2553 -0.3232  0.0815
  889MOL0     C22584   9.310   1.852   5.486  0.6715  0.8474 -0.4221
  889MOL0     C22585   9.397   1.825   5.361 -1.1180 -0.4068 -0.8221
  889MOL0     C22586   9.360   1.920   5.246 -0.5531 -0.0160 -0.1561
  889MOL0     C22587   9.419   1.879   5.109  1.4656  0.2180  0.1386
  889MOL0     C22588   9.563   1.870   5.100 -0.1611 -0.4197 -0.7883
  889MOL0    Cl22589   9.593   1.801   4.938 -0.3985 -0.0017 -0.0396
  889MOL0     C22590   9.526   1.805   5.926 -0.5641  0.1124 -0.8316
  889MOL0     C22591   9.580   1.737   6.034  0.5707  0.1476 -0.6043
  889MOL0     O22592   9.461   1.626   6.390  0.0603  0.2642 -0.0147
  889MOL0     C22593   9.804   1.586   6.441 -0.3139 -0.0855 -0.0745
  889MOL0     C22594   9.891   1.552   6.543  0.4439 -0.1331  0.0823
  889MOL0     N22595  10.238   2.007   7.013  0.0143 -0.0390 -0.0407
  889MOL0     N22596  10.212   2.064   7.124  0.4918  0.0661 -0.8360
  889MOL0     C22597  10.059   1.403   8.115  0.0320  1.3961 -0.0048
  889MOL0     C22598   9.983   1.288   8.121  0.6176 -0.2899 -0.0473
  889MOL0     C22599   9.573   1.120   8.164  0.2311 -0.9855 -0.0998
  889MOL0     C22600   9.549   1.029   8.056  0.1636  0.0452  0.6216
  889MOL0     C22601   9.422   0.970   8.035  0.2612  0.0197  0.6149
  889MOL0     C22602   9.309   1.013   8.123 -0.3200  0.9016 -0.4650
  889MOL0     O22603   9.177   0.969   8.116  0.5055  0.3873  0.0741
  889MOL0     C22604   9.150   0.884   8.005  0.3360 -0.6824 -0.6912
  889MOL0     C22605   8.998   0.864   7.985  0.1309 -0.6628  0.8489
  889MOL0     C22606   8.937   0.794   8.096 -0.7720  0.2399 -1.3270
  889MOL0     C22607   8.817   0.861   8.165 -0.2487  0.9180  0.4485
  889MOL0     C22608   8.713   0.857   8.062 -0.7213 -0.2160  0.3071
  889MOL0     C22609   8.632   0.861   7.968  1.5540 -0.9758 -0.1198
  889MOL0     C22610   9.339   1.107   8.220  0.9950 -0.8420 -0.4120
  889MOL0     C22611   9.465   1.162   8.244 -0.5113 -0.9485  0.2445
  889MOL0     C22612   9.478   1.269   8.351  0.1207  1.0391 -0.7464
  889MOL0     H22613   9.746   1.348   7.889 -0.0729 -2.6417  0.8171
  889MOL0     H22614   9.912   1.551   7.867 -1.3995  0.1667 -0.6659
  889MOL0     H22615  10.024   1.743   8.125  1.1657 -1.1844 -0.2018
  889MOL0     H22616   9.963   1.750   7.956  2.1292  1.5093 -1.9823
  889MOL0     H22617  10.128   1.936   8.054  0.3153 -0.8241  0.7265
  889MOL0     H22618  10.250   1.802   8.034  0.0067 -1.9956 -0.5751
  889MOL0     H22619  10.263   1.928   7.817 -1.0329  1.5309  1.2152
  889MOL0     H22620  10.162   1.787   7.780 -3.1369  0.1098 -0.7068
  889MOL0     H22621   9.975   1.927   7.833 -0.0917  2.2312  0.8841
  889MOL0     H22622  10.074   2.068   7.856 -2.8264  1.4612 -0.5907
  889MOL0     H22623  10.187   2.041   7.643  0.7747 -2.0471  3.1424
  889MOL0     H22624  10.024   2.113   7.636 -0.8270  0.0760  0.7219
  889MOL0     H22625  10.081   1.826   7.561 -1.1124 -0.5340  2.0694
  889MOL0     H22626   9.921   1.892   7.579 -1.2409  1.2389  1.4612
  889MOL0     H22627   9.962   2.064   7.407 -3.6555 -2.9480 -0.7316
  889MOL0     H22628   9.966   1.907   7.349  2.5729 -1.6574 -1.5002
  889MOL0     H22629  10.215   2.073   7.375 -0.9689  0.0667  0.3285
  889MOL0     H22630  10.226   1.896   7.389  1.6903  0.5057 -1.5097
  889MOL0     H22631  10.139   1.747   7.182 -2.5279  2.2028  2.1299
  889MOL0     H22632  10.346   1.726   6.923  1.1546  1.9279  0.6187
  889MOL0     H22633  10.266   1.828   6.813  5.1380  1.4200  1.2531
  889MOL0     H22634  10.128   1.604   6.961 -4.7337  0.6390 -0.3099
  889MOL0     H22635  10.047   1.739   6.863 -0.0137 -0.6478 -4.1463
  889MOL0     H22636  10.128   1.647   6.661 -4.2786  1.0727  1.4935
  889MOL0     H22637  10.252   1.543   6.742  0.4785  1.1847  2.2409
  889MOL0     H22638  10.079   1.399   6.666 -0.1881 -2.0787  2.6846
  889MOL0     H22639  10.081   1.394   6.840 -2.5963 -0.2715  0.2178
  889MOL0     H22640   9.693   1.558   6.806 -1.8088  3.3260 -0.8286
  889MOL0     H22641   9.425   1.556   6.618 -1.2782  0.3214 -0.4021
  889MOL0     H22642   9.459   1.718   6.613 -0.8144 -1.6144 -0.8898
  889MOL0     H22643   9.496   1.628   6.770  2.1327 -0.1712  0.1872
  889MOL0     H22644   9.395   1.872   6.292  2.5869 -1.2015  0.8135
  889MOL0     H22645   9.269   1.963   6.095 -0.2345 -0.2756 -2.2145
  889MOL0     H22646   9.176   1.847   5.879  1.3773  0.9368  1.3840
  889MOL0     H22647   9.185   1.934   5.718  1.9275  1.2854  0.8795
  889MOL0     H22648   9.331   1.674   5.771  2.2443  1.8250  0.6735
  889MOL0     H22649   9.208   1.677   5.662  2.1641 -2.2987 -0.2174
  889MOL0     H22650   9.427   1.677   5.584  2.1001  0.8288  0.0575
  889MOL0     H22651   9.460   1.829   5.648  0.0072 -2.1851  2.0859
  889MOL0     H22652   9.299   1.953   5.526 -0.0655  0.0136  1.6040
  889MOL0     H22653   9.211   1.814   5.461  1.7276 -3.1507  0.8238
  889MOL0     H22654   9.499   1.847   5.394 -1.1917 -0.4561 -0.5612
  889MOL0     H22655   9.389   1.720   5.330 -2.0927  0.1236 -2.5124
  889MOL0     H22656   9.393   2.021   5.270 -0.7702  0.6174 -2.3864
  889MOL0     H22657   9.250   1.913   5.248 -0.4355 -3.5484  0.9640
  889MOL0     H22658   9.380   1.961   5.048  0.9699  1.7705  2.4065
  889MOL0     H22659   9.371   1.790   5.069 -0.8256  1.8932 -1.1420
  889MOL0     H22660   9.591   1.800   5.178  0.7406  1.4609  0.6575
  889MOL0     H22661   9.606   1.968   5.122 -3.9379  0.8883  1.7235
  889MOL0     H22662   9.569   1.774   5.832  2.3522  1.5615 -0.1020
  889MOL0     H22663   9.660   1.666   6.018  1.0506  0.5335  0.0045
  889MOL0     H22664   9.834   1.603   6.338 -3.2467 -2.6836 -1.5355
  889MOL0     H22665   9.993   1.531   6.514  0.7826 -1.0469  1.7667
  889MOL0     H22666  10.146   1.402   8.180 -0.7397  1.8904  1.0504
  889MOL0     H22667  10.003   1.201   8.183  2.4823  1.4026  1.8996
  889MOL0     H22668   9.616   0.984   7.983 -0.2974  2.7554 -1.6414
  889MOL0     H22669   9.400   0.922   7.940  2.4690  2.1959 -1.1205
  889MOL0     H22670   9.196   0.912   7.910  3.4051 -1.6276  0.3671
  889MOL0     H22671   9.197   0.789   8.034  0.2090 -1.2368 -2.2023
  889MOL0     H22672   8.967   0.827   7.887 -1.0657  1.1099  0.5054
  889MOL0     H22673   8.947   0.961   7.988  0.0036 -0.7142  0.3749
  889MOL0     H22674   8.903   0.692   8.075  1.4317 -0.6765 -0.7999
  889MOL0     H22675   9.012   0.768   8.172 -0.5839  2.2168 -0.7821
  889MOL0     H22676   8.845   0.965   8.184 -0.5300  1.1132 -0.1658
  889MOL0     H22677   8.789   0.803   8.254 -3.1154  0.4327 -0.6544
  889MOL0     H22678   8.558   0.868   7.891  2.3822 -0.8192 -0.9093
  889MOL0     H22679   9.252   1.135   8.279 -1.3035  0.9255 -4.2323
  889MOL0     H22680   9.383   1.299   8.395  0.4726  4.6242 -2.0959
  889MOL0     H22681   9.534   1.222   8.432 -2.1156  1.9695  1.4580
  889MOL0     H22682   9.532   1.358   8.317  2.7083 -0.5903 -1.1534
  890MOL0     O22683   9.333   9.191   8.492 -0.7238  0.3895  0.5052
  890MOL0     C22684   9.309   9.241   8.376 -0.0912 -0.6169  0.6465
  890MOL0     O22685   9.336   9.189   8.251  0.0386  0.1320 -0.3550
  890MOL0     C22686   9.379   9.059   8.261  0.4807 -0.4323  0.4557
  890MOL0     C22687   9.514   9.033   8.269  0.3276  0.0828  0.0005
  890MOL0     C22688   9.567   8.905   8.282 -0.7058 -0.5689 -0.2705
  890MOL0     C22689   9.489   8.800   8.311 -0.0592 -0.8882 -0.8203
  890MOL0     O22690   9.550   8.673   8.330  0.3865 -0.2136  0.1155
  890MOL0     C22691   9.458   8.569   8.369  0.9420 -0.0157  0.0091
  890MOL0     C22692   9.524   8.436   8.388 -0.1220  0.1607 -0.3275
  890MOL0     C22693   9.649   8.435   8.486 -0.2860  0.0567  0.2005
  890MOL0     C22694   9.644   8.324   8.582  0.1469  0.7889  0.0064
  890MOL0     C22695   9.757   8.315   8.688 -0.9213  0.4948  0.1288
  890MOL0     C22696   9.742   8.185   8.770  0.5231 -0.8963  0.4599
  890MOL0     C22697   9.796   8.199   8.913  0.7860 -0.5709  0.4585
  890MOL0     C22698   9.686   8.213   9.020  0.5557  0.3373  0.1724
  890MOL0     N22699   9.589   8.321   9.005  0.2213  0.1329 -0.7852
  890MOL0     C22700   9.617   8.452   8.970 -0.2737 -0.0886 -0.0939
  890MOL0     C22701   9.499   8.497   8.913  0.9058 -0.5802 -0.9482
  890MOL0     C22702   9.463   8.626   8.848 -0.0831  0.2600  0.2701
  890MOL0     C22703   9.377   8.711   8.947 -0.6872 -0.4809  0.2131
  890MOL0     C22704   9.372   8.863   8.914 -0.2527  0.7281  0.2477
  890MOL0     C22705   9.249   8.929   8.976  0.1533  1.2256 -0.9930
  890MOL0     O22706   9.244   8.908   9.118  0.3950  0.7767 -0.1044
  890MOL0     C22707   9.127   8.856   9.171  0.8989 -0.1595  0.0851
  890MOL0     C22708   9.046   8.778   9.097 -0.7221  0.4735 -0.0526
  890MOL0     C22709   8.928   8.714   9.153 -0.6550  0.0880  0.0865
  890MOL0     C22710   8.848   8.631   9.062 -0.4690  0.2743  0.1152
  890MOL0     C22711   8.904   8.738   9.292 -0.8400  0.8927 -0.1149
  890MOL0     C22712   8.782   8.683   9.358  1.6268  0.1479 -0.1613
  890MOL0     O22713   8.717   8.576   9.298  0.8416  0.2070 -0.0754
  890MOL0     C22714   8.587   8.528   9.325 -0.0776  0.1225  0.1128
  890MOL0     C22715   8.480   8.612   9.342  0.1589 -0.1881 -0.5683
  890MOL0     C22716   8.348   8.568   9.341  0.3125 -0.4646 -0.6384
  890MOL0     C22717   8.312   8.433   9.330  0.9152 -0.3100  0.7932
  890MOL0     O22718   8.185   8.378   9.317  0.5221 -0.6472 -0.0735
  890MOL0     C22719   8.061   8.454   9.353  0.6958  0.0901  0.9554
  890MOL0     C22720   7.934   8.366   9.351 -0.7400  0.3995  0.0306
  890MOL0     C22721   7.948   8.223   9.409  0.6266 -0.5228  0.3042
  890MOL0     C22722   7.841   8.129   9.347 -1.0493  0.2534 -0.2354
  890MOL0     C22723   7.887   8.071   9.211 -0.6666  0.2908  0.2947
  890MOL0     C22724   7.959   7.939   9.218  0.2085  0.4108  1.0490
  890MOL0     C22725   8.065   7.944   9.107 -1.5062  1.2740 -0.4700
  890MOL0     C22726   8.138   7.812   9.056  0.3200  0.4293 -0.8605
  890MOL0    Cl22727   8.018   7.690   9.020  0.0950  0.5674 -0.1328
  890MOL0     C22728   8.417   8.345   9.314  0.6234 -0.6043 -0.0551
  890MOL0     C22729   8.550   8.388   9.314 -0.5589 -0.0936  0.2443
  890MOL0     O22730   8.749   8.733   9.468 -0.9638  0.0090 -0.8365
  890MOL0     C22731   8.998   8.816   9.362 -0.2264 -0.1644  0.6613
  890MOL0     C22732   9.104   8.877   9.303  0.0070  0.3705 -0.4665
  890MOL0     N22733   9.410   8.387   8.909  0.0761 -0.0743  0.3323
  890MOL0     N22734   9.470   8.287   8.965  0.0690  0.8696 -0.5077
  890MOL0     C22735   9.344   8.823   8.311  0.1882 -0.6069  0.2349
  890MOL0     C22736   9.292   8.949   8.276 -0.9281 -0.0933  0.2866
  890MOL0     C22737   9.262   9.383   8.380  0.9601 -0.7186 -0.1980
  890MOL0     C22738   9.294   9.461   8.493 -0.3011 -0.1958 -0.5551
  890MOL0     C22739   9.245   9.589   8.505  0.5325 -0.6360  0.5686
  890MOL0     C22740   9.165   9.646   8.404  0.5391 -0.4913 -1.1618
  890MOL0     O22741   9.124   9.783   8.422 -0.1513 -0.2849  0.2509
  890MOL0     C22742   9.027   9.846   8.333  0.0904  0.7467  0.0736
  890MOL0     C22743   8.946   9.948   8.411 -0.2516  0.1672  0.2283
  890MOL0     C22744   9.002  10.001   8.543 -0.1465 -0.3956 -1.0997
  890MOL0     C22745   8.927  10.112   8.615 -0.0213  0.9833 -0.8959
  890MOL0     C22746   8.979  10.142   8.753 -0.0971  0.2272  0.6305
  890MOL0     C22747   9.029  10.158   8.861 -0.1412 -1.1335  0.4153
  890MOL0     C22748   9.120   9.567   8.296  0.4909 -0.7937  0.2590
  890MOL0     C22749   9.178   9.446   8.279  0.1102  0.0578  0.4175
  890MOL0     C22750   9.133   9.361   8.159  0.1159 -0.1595 -0.2225
  890MOL0     H22751   9.572   9.123   8.252 -0.4275  0.5989  0.1499
  890MOL0     H22752   9.675   8.893   8.275 -0.5668  0.3057  0.2030
  890MOL0     H22753   9.389   8.563   8.284  0.1837 -0.6457  0.6535
  890MOL0     H22754   9.394   8.597   8.453  0.8705  3.6104 -1.0599
  890MOL0     H22755   9.448   8.365   8.420  0.0133 -0.3730 -1.1382
  890MOL0     H22756   9.551   8.410   8.285 -0.5134  2.6193 -1.1097
  890MOL0     H22757   9.739   8.426   8.425 -1.2861 -0.1002 -1.3175
  890MOL0     H22758   9.655   8.531   8.537  1.1934  0.4650 -0.7002
  890MOL0     H22759   9.548   8.324   8.634 -0.3540 -1.0068 -0.8375
  890MOL0     H22760   9.638   8.234   8.521 -0.2578  0.9785 -0.2387
  890MOL0     H22761   9.757   8.401   8.755 -2.3321 -0.3810  1.2885
  890MOL0     H22762   9.856   8.306   8.641 -0.4701 -0.7657  1.2623
  890MOL0     H22763   9.639   8.148   8.771  0.1316 -0.3031  4.7248
  890MOL0     H22764   9.811   8.116   8.720 -0.2069 -0.6717 -0.8915
  890MOL0     H22765   9.878   8.270   8.926 -0.2003  0.2458  2.9028
  890MOL0     H22766   9.851   8.111   8.948  1.4288 -0.6817 -0.7868
  890MOL0     H22767   9.624   8.123   9.013 -0.9331  1.1566  1.9990
  890MOL0     H22768   9.736   8.226   9.116  1.1696  1.4100 -0.2754
  890MOL0     H22769   9.712   8.493   9.002 -0.1860  0.7759 -1.3995
  890MOL0     H22770   9.407   8.597   8.759 -2.2288  1.3249  1.1981
  890MOL0     H22771   9.558   8.677   8.830  0.1229  0.0694  0.7989
  890MOL0     H22772   9.274   8.678   8.927  0.4833 -4.3214 -0.4591
  890MOL0     H22773   9.415   8.694   9.048  3.0679  1.8470 -0.6425
  890MOL0     H22774   9.458   8.919   8.950 -1.7998  1.4831  3.0774
  890MOL0     H22775   9.355   8.867   8.806 -0.6040 -0.2116  0.2561
  890MOL0     H22776   9.256   9.038   8.961  2.1811  1.1474 -0.8329
  890MOL0     H22777   9.166   8.897   8.912  0.7198 -2.6894 -0.0026
  890MOL0     H22778   9.077   8.753   8.995  2.5822  0.1633  0.8973
  890MOL0     H22779   8.888   8.530   9.073 -1.9060 -0.5872 -1.9425
  890MOL0     H22780   8.858   8.660   8.957 -2.1472 -1.3229 -0.5491
  890MOL0     H22781   8.741   8.644   9.082 -0.4952 -0.5006  0.5069
  890MOL0     H22782   8.486   8.719   9.356  2.9835  0.0133 -2.3749
  890MOL0     H22783   8.276   8.650   9.343  3.5007  2.5848 -0.5824
  890MOL0     H22784   8.076   8.505   9.448 -1.6051  0.3079  1.2690
  890MOL0     H22785   8.022   8.520   9.275 -3.5895 -0.2256  2.5482
  890MOL0     H22786   7.850   8.420   9.395 -2.0009 -0.2749 -1.4539
  890MOL0     H22787   7.921   8.360   9.242 -3.4227  0.8145  0.2572
  890MOL0     H22788   7.940   8.224   9.518 -0.8614 -2.1948  0.2714
  890MOL0     H22789   8.040   8.177   9.373  1.2581  1.6591 -1.0238
  890MOL0     H22790   7.746   8.178   9.325 -1.0550  1.0540  1.4846
  890MOL0     H22791   7.824   8.043   9.412  0.0550 -0.7431 -1.2011
  890MOL0     H22792   7.812   8.066   9.132  2.4942  0.3620 -2.9658
  890MOL0     H22793   7.957   8.140   9.164 -0.9200 -0.5085 -1.3296
  890MOL0     H22794   7.903   7.845   9.207  1.0931 -0.3622  2.7915
  890MOL0     H22795   8.010   7.936   9.314 -0.3674 -2.0540  1.3454
  890MOL0     H22796   8.139   8.016   9.142 -1.1517  2.3635 -3.2287
  890MOL0     H22797   8.022   7.986   9.016 -3.1355 -0.0699 -0.3724
  890MOL0     H22798   8.210   7.771   9.128 -0.4637 -0.5486 -0.6216
  890MOL0     H22799   8.201   7.834   8.969  1.5233 -0.1679 -0.1706
  890MOL0     H22800   8.393   8.239   9.304 -0.2488 -0.2247 -2.5991
  890MOL0     H22801   8.626   8.315   9.286  0.2663 -0.3303  2.8311
  890MOL0     H22802   8.991   8.833   9.469 -1.9787  2.4242  0.2128
  890MOL0     H22803   9.172   8.937   9.362  0.8068 -0.0024 -0.9821
  890MOL0     H22804   9.267   8.755   8.346  1.3948 -1.3879  1.4635
  890MOL0     H22805   9.185   8.959   8.262 -1.0846 -0.2573  1.3480
  890MOL0     H22806   9.365   9.421   8.564 -0.0072 -0.7586 -1.1639
  890MOL0     H22807   9.261   9.650   8.593  1.4056 -0.1242  0.0701
  890MOL0     H22808   9.068   9.887   8.240 -3.2535  1.5092 -1.2156
  890MOL0     H22809   8.956   9.767   8.310 -0.4236  0.8053  1.3410
  890MOL0     H22810   8.843   9.914   8.427  0.0387 -1.6199 -1.3528
  890MOL0     H22811   8.937  10.042   8.356 -0.0316  1.9340  2.9716
  890MOL0     H22812   9.015   9.918   8.613  2.0694 -1.7796 -2.9790
  890MOL0     H22813   9.102  10.043   8.529 -1.0766  1.8268 -1.5117
  890MOL0     H22814   8.824  10.076   8.622 -0.1797  1.5390 -0.3194
  890MOL0     H22815   8.925  10.202   8.553 -0.1823  1.4386 -0.2311
  890MOL0     H22816   9.045  10.187   8.962 -1.9717  1.1841  0.1341
  890MOL0     H22817   9.052   9.612   8.224  1.3688  0.7121  0.3262
  890MOL0     H22818   9.071   9.275   8.185 -3.3410  1.2801 -2.8220
  890MOL0     H22819   9.085   9.433   8.092 -1.1818  0.9916  1.8127
  890MOL0     H22820   9.219   9.326   8.102  2.3503  1.2150  2.0700
  891MOL0     O22821   6.343   0.478   6.251  0.0697 -0.4354  0.8273
  891MOL0     C22822   6.330   0.374   6.304 -0.3080  0.1768 -0.9853
  891MOL0     O22823   6.262   0.354   6.427 -0.0394  0.4038 -0.6278
  891MOL0     C22824   6.250   0.459   6.516  0.6702 -0.7331  0.6405
  891MOL0     C22825   6.126   0.489   6.569 -0.2876 -0.6860  0.0222
  891MOL0     C22826   6.120   0.585   6.671 -0.3648 -0.4644  1.5774
  891MOL0     C22827   6.217   0.677   6.700  0.4299  0.3773 -0.8849
  891MOL0     O22828   6.192   0.790   6.781 -0.4792 -0.9585  0.1351
  891MOL0     C22829   6.287   0.845   6.879  0.1723  0.5560  0.0166
  891MOL0     C22830   6.309   0.736   6.983 -0.2260 -0.6161  0.3801
  891MOL0     C22831   6.435   0.763   7.064  0.0071 -0.3916  0.1586
  891MOL0     C22832   6.458   0.660   7.172 -0.0290  0.6174 -0.7787
  891MOL0     C22833   6.360   0.672   7.295 -0.3309  0.0374 -0.2719
  891MOL0     C22834   6.270   0.556   7.324  0.2986  0.3037 -0.2329
  891MOL0     C22835   6.148   0.561   7.237 -0.3998  0.1918 -0.3373
  891MOL0     C22836   6.044   0.454   7.280 -0.4806  1.0177  0.3941
  891MOL0     N22837   5.922   0.456   7.195 -0.2070 -0.2485 -0.3656
  891MOL0     C22838   5.798   0.504   7.224 -0.5040  0.2522  1.1281
  891MOL0     C22839   5.723   0.476   7.118 -0.3575  0.6975  0.2827
  891MOL0     C22840   5.576   0.501   7.096 -0.3673  0.0212  0.3788
  891MOL0     C22841   5.475   0.430   7.189 -0.2429 -0.3741 -1.0342
  891MOL0     C22842   5.328   0.448   7.146  0.2314 -0.2952  0.9699
  891MOL0     C22843   5.222   0.405   7.250 -0.7789  0.1508 -0.3507
  891MOL0     O22844   5.245   0.457   7.378  0.0753  0.9007 -0.0999
  891MOL0     C22845   5.240   0.363   7.473 -0.7828  0.6898 -0.0457
  891MOL0     C22846   5.151   0.253   7.467 -0.8651  0.2109  0.1758
  891MOL0     C22847   5.145   0.152   7.573 -0.0186 -0.3506  0.7021
  891MOL0     C22848   5.043   0.049   7.540  0.2923 -0.2455 -0.0649
  891MOL0     C22849   5.246   0.149   7.676 -0.1734 -0.3682 -0.5324
  891MOL0     C22850   5.255   0.043   7.773 -0.5409 -0.7171 -0.8695
  891MOL0     O22851   5.322   0.082   7.888 -0.4216 -0.2095  0.0952
  891MOL0     C22852   5.372  -0.020   7.964  0.9261 -0.0848  0.1871
  891MOL0     C22853   5.499  -0.042   7.960 -0.0471 -0.1230 -0.4835
  891MOL0     C22854   5.556  -0.157   8.013 -0.5722 -0.1730  0.1048
  891MOL0     C22855   5.486  -0.248   8.095  1.4566  0.2110  0.3879
  891MOL0     O22856   5.552  -0.350   8.148  0.5089  0.6836  0.4487
  891MOL0     C22857   5.475  -0.469   8.166  0.0392  0.4230 -0.3212
  891MOL0     C22858   5.569  -0.590   8.180  0.0688  0.0883  0.3145
  891MOL0     C22859   5.670  -0.559   8.293  0.9703 -0.2826 -0.6174
  891MOL0     C22860   5.726  -0.687   8.344  0.5701 -1.2647 -0.6668
  891MOL0     C22861   5.810  -0.663   8.466 -0.4636  0.5765 -0.0170
  891MOL0     C22862   5.879  -0.791   8.505  0.5354  0.4891 -0.3229
  891MOL0     C22863   5.966  -0.757   8.634  0.8342 -0.7254  0.3126
  891MOL0     C22864   6.079  -0.854   8.642  0.6550 -0.5631 -0.5141
  891MOL0    Cl22865   6.029  -1.019   8.696 -0.3117 -0.3228 -0.0613
  891MOL0     C22866   5.343  -0.219   8.101  0.0110  0.4798 -0.1229
  891MOL0     C22867   5.295  -0.103   8.037  0.3610 -0.3173  0.7279
  891MOL0     O22868   5.204  -0.066   7.750 -0.0759 -0.5130  0.5947
  891MOL0     C22869   5.328   0.263   7.677 -0.1434  0.0987  0.0193
  891MOL0     C22870   5.323   0.365   7.579  0.6655  0.6942  0.0530
  891MOL0     N22871   5.807   0.406   7.024 -0.2367  0.1442  0.2682
  891MOL0     N22872   5.927   0.396   7.069  0.5596  0.0202 -0.6510
  891MOL0     C22873   6.341   0.644   6.650 -0.0991 -0.0652 -0.2581
  891MOL0     C22874   6.359   0.536   6.562 -0.9037  0.9411  0.1631
  891MOL0     C22875   6.382   0.249   6.230 -0.4877  0.3895  1.1554
  891MOL0     C22876   6.407   0.136   6.311 -0.2365 -0.0530  1.0418
  891MOL0     C22877   6.461   0.017   6.258 -0.3265 -0.3521 -0.3341
  891MOL0     C22878   6.467  -0.004   6.120 -1.0476 -0.4911 -0.0941
  891MOL0     O22879   6.486  -0.137   6.078 -0.3469  0.1533 -0.5380
  891MOL0     C22880   6.426  -0.179   5.949  0.5542  0.2867 -0.5314
  891MOL0     C22881   6.383  -0.322   5.941  0.9913 -0.1134 -0.3483
  891MOL0     C22882   6.485  -0.435   5.983  0.8519 -0.2236 -0.1405
  891MOL0     C22883   6.442  -0.580   5.977 -0.1429  1.1123  0.4531
  891MOL0     C22884   6.543  -0.658   5.899 -0.3626 -0.4657  0.5387
  891MOL0     C22885   6.617  -0.718   5.826  0.1031  0.2910  0.5159
  891MOL0     C22886   6.439   0.103   6.032 -0.4513 -0.2190  0.2688
  891MOL0     C22887   6.407   0.229   6.086 -0.0022 -0.0630  0.4475
  891MOL0     C22888   6.371   0.340   5.984  0.3765 -0.3003 -0.4156
  891MOL0     H22889   6.039   0.435   6.534  0.3491  0.5587 -4.0343
  891MOL0     H22890   6.021   0.597   6.714  0.5418 -0.7249  3.8825
  891MOL0     H22891   6.252   0.939   6.921  1.3863  0.1937  2.0376
  891MOL0     H22892   6.383   0.864   6.830  1.0759  0.3743  1.6377
  891MOL0     H22893   6.219   0.736   7.045  0.9006  0.6376  2.0810
  891MOL0     H22894   6.325   0.640   6.933  2.0297 -0.4548  0.6858
  891MOL0     H22895   6.519   0.760   6.994 -0.3645 -0.2146 -0.3000
  891MOL0     H22896   6.419   0.864   7.101 -2.7702 -2.0397  4.1337
  891MOL0     H22897   6.451   0.558   7.130 -0.6620 -0.0813  0.9572
  891MOL0     H22898   6.551   0.679   7.226 -2.0922 -0.7551  3.6930
  891MOL0     H22899   6.310   0.769   7.297  0.3347  0.3857 -0.1398
  891MOL0     H22900   6.428   0.673   7.380 -1.9369 -1.9766  1.1301
  891MOL0     H22901   6.326   0.467   7.295  1.2510  1.1204 -0.9625
  891MOL0     H22902   6.243   0.572   7.429 -3.3116  1.0782 -1.1348
  891MOL0     H22903   6.175   0.549   7.131  0.8893 -3.2612  0.2482
  891MOL0     H22904   6.098   0.658   7.241 -3.4886 -1.2423 -1.0210
  891MOL0     H22905   6.079   0.352   7.264 -0.1877  1.0868  0.6098
  891MOL0     H22906   6.008   0.460   7.383 -0.7438 -2.8624  0.6619
  891MOL0     H22907   5.756   0.549   7.314 -2.5046  0.8771 -0.0525
  891MOL0     H22908   5.567   0.474   6.991 -1.6669 -1.1958  0.7689
  891MOL0     H22909   5.553   0.608   7.098 -0.1542  0.2292 -3.0943
  891MOL0     H22910   5.512   0.327   7.195 -2.1423 -0.9913  1.9395
  891MOL0     H22911   5.496   0.471   7.288 -1.3630 -2.0550 -0.0697
  891MOL0     H22912   5.305   0.552   7.118 -0.7743 -1.1800 -1.8443
  891MOL0     H22913   5.324   0.375   7.065 -0.6486 -1.7806  2.2847
  891MOL0     H22914   5.125   0.429   7.206 -0.2498  0.4058 -1.4199
  891MOL0     H22915   5.214   0.296   7.242 -2.7490  0.3353 -1.6109
  891MOL0     H22916   5.068   0.250   7.397 -0.5483 -1.6085 -0.1739
  891MOL0     H22917   5.095  -0.037   7.497  0.7398 -1.2582  2.3472
  891MOL0     H22918   4.969   0.088   7.469  1.3528  1.5490 -0.2161
  891MOL0     H22919   4.982   0.025   7.627 -0.1210 -0.6091 -0.4417
  891MOL0     H22920   5.549   0.040   7.910 -0.1659  0.4481  0.3165
  891MOL0     H22921   5.664  -0.166   8.003 -0.1080  0.4526  3.4345
  891MOL0     H22922   5.422  -0.454   8.260  0.6548  2.3445 -0.2365
  891MOL0     H22923   5.400  -0.484   8.087 -2.5067 -0.2235  2.0668
  891MOL0     H22924   5.513  -0.683   8.195 -0.0521  0.1201  0.0754
  891MOL0     H22925   5.609  -0.611   8.080 -2.3516 -2.0248 -0.3327
  891MOL0     H22926   5.611  -0.524   8.378  0.7165  0.8742 -1.2544
  891MOL0     H22927   5.751  -0.506   8.242  0.8053 -0.4174 -1.0237
  891MOL0     H22928   5.782  -0.733   8.262 -1.0040  0.4003 -2.7934
  891MOL0     H22929   5.642  -0.755   8.359  0.8979 -1.4501  0.4527
  891MOL0     H22930   5.888  -0.593   8.431  1.6593 -1.5936  0.1188
  891MOL0     H22931   5.756  -0.614   8.547 -1.0980 -0.3419  0.1295
  891MOL0     H22932   5.941  -0.834   8.427 -2.8512 -2.0912 -1.8191
  891MOL0     H22933   5.801  -0.859   8.538 -0.2970  0.4964 -2.1685
  891MOL0     H22934   5.908  -0.770   8.726 -0.7342 -0.3896 -0.6068
  891MOL0     H22935   5.990  -0.650   8.634 -0.9411 -0.2793 -1.6509
  891MOL0     H22936   6.156  -0.804   8.701  0.1716  1.2635 -1.3925
  891MOL0     H22937   6.122  -0.871   8.543  0.2498  0.2584 -0.8373
  891MOL0     H22938   5.290  -0.300   8.149  1.9101 -0.6029  0.2509
  891MOL0     H22939   5.195  -0.060   8.033  0.4188 -0.1767 -3.6345
  891MOL0     H22940   5.409   0.287   7.745  0.8189  0.6229 -1.2780
  891MOL0     H22941   5.391   0.449   7.578  1.1819  0.3035  0.7271
  891MOL0     H22942   6.431   0.689   6.691  1.0985 -1.3339 -1.3638
  891MOL0     H22943   6.458   0.502   6.532 -0.6787 -0.0488  1.9055
  891MOL0     H22944   6.393   0.147   6.418 -0.4331 -4.1397  1.5849
  891MOL0     H22945   6.495  -0.061   6.326  2.5967  0.5139 -0.6534
  891MOL0     H22946   6.341  -0.116   5.923 -0.1848 -0.2548  0.4871
  891MOL0     H22947   6.512  -0.157   5.885  1.4629  0.3483  0.6698
  891MOL0     H22948   6.361  -0.332   5.835 -2.3188 -0.5599  0.2760
  891MOL0     H22949   6.283  -0.336   5.983  0.7368 -1.6713 -1.4054
  891MOL0     H22950   6.573  -0.429   5.919  0.3075  0.1659 -0.8753
  891MOL0     H22951   6.524  -0.412   6.082  0.2521 -2.1213  0.5826
  891MOL0     H22952   6.349  -0.588   5.921  0.1994 -0.1653  0.0377
  891MOL0     H22953   6.432  -0.618   6.079 -0.5019  1.9966  0.7513
  891MOL0     H22954   6.672  -0.774   5.753 -1.5708 -1.5479  0.5958
  891MOL0     H22955   6.437   0.085   5.925  1.7749 -0.9957  0.2998
  891MOL0     H22956   6.276   0.382   6.019  1.6403 -0.5521  3.9861
  891MOL0     H22957   6.447   0.418   5.985 -0.8026  0.8827 -1.0985
  891MOL0     H22958   6.366   0.298   5.883 -1.0041  0.3788 -0.6515
  892MOL0     O22959   8.279   7.969   2.925  0.0403  0.0631 -0.2432
  892MOL0     C22960   8.156   7.979   2.907 -0.0324  0.2526  0.5831
  892MOL0     O22961   8.084   8.093   2.935 -0.0807  0.8863 -0.6141
  892MOL0     C22962   8.134   8.187   3.021 -0.1465  0.4178  0.3083
  892MOL0     C22963   8.187   8.148   3.144 -0.3944  0.4387  0.5476
  892MOL0     C22964   8.227   8.248   3.237 -0.5668  0.0195 -0.5497
  892MOL0     C22965   8.225   8.382   3.198  0.4307  0.5090 -0.0679
  892MOL0     O22966   8.252   8.493   3.272 -0.2542  0.6184 -0.3320
  892MOL0     C22967   8.322   8.474   3.395 -0.2560 -0.2994  0.1486
  892MOL0     C22968   8.327   8.618   3.457 -0.6347 -0.0294  0.4552
  892MOL0     C22969   8.289   8.627   3.599  0.5046 -1.1110 -0.3697
  892MOL0     C22970   8.315   8.776   3.648  0.7112  0.3749 -0.0332
  892MOL0     C22971   8.330   8.783   3.796 -0.6668  0.9747 -0.9812
  892MOL0     C22972   8.468   8.741   3.834 -0.0815  0.0979 -0.5221
  892MOL0     C22973   8.461   8.651   3.961 -0.2928 -0.2497  1.2221
  892MOL0     C22974   8.432   8.730   4.087 -0.5560  0.5058  0.5397
  892MOL0     N22975   8.287   8.750   4.111 -0.6924  0.0410 -0.1079
  892MOL0     C22976   8.236   8.837   4.198  0.9955  0.1936  0.4070
  892MOL0     C22977   8.103   8.808   4.201  1.4088  0.2261 -1.1004
  892MOL0     C22978   8.012   8.875   4.299  0.4971 -0.2825  0.1766
  892MOL0     C22979   8.022   8.824   4.441 -1.1250  0.2604 -0.6470
  892MOL0     C22980   7.980   8.676   4.460 -0.4818 -0.5529 -0.5231
  892MOL0     C22981   8.101   8.608   4.545  0.1729  0.4222  0.7492
  892MOL0     O22982   8.220   8.599   4.460 -0.2529  0.7254  0.1264
  892MOL0     C22983   8.278   8.475   4.451 -1.0138 -0.3618  0.4281
  892MOL0     C22984   8.328   8.395   4.551 -0.2710 -0.0743  0.0078
  892MOL0     C22985   8.387   8.262   4.527  0.2229 -0.7077 -0.0939
  892MOL0     C22986   8.421   8.184   4.654  0.2918  0.5285 -0.1011
  892MOL0     C22987   8.409   8.220   4.393 -0.0709  0.1291  0.2528
  892MOL0     C22988   8.466   8.090   4.357 -0.2778 -0.6631 -0.3047
  892MOL0     O22989   8.552   8.088   4.260 -0.2914 -0.3643  0.4619
  892MOL0     C22990   8.586   7.971   4.199 -0.5573  0.6220 -0.5277
  892MOL0     C22991   8.557   7.938   4.063  0.0814  0.1570 -0.1857
  892MOL0     C22992   8.623   7.833   4.009  0.9133 -0.3006  0.3851
  892MOL0     C22993   8.720   7.762   4.077  1.4271  0.7430  0.5219
  892MOL0     O22994   8.794   7.656   4.029  0.0810 -0.1785  0.1911
  892MOL0     C22995   8.713   7.547   3.981 -0.3409 -0.6063  0.9224
  892MOL0     C22996   8.671   7.428   4.070 -1.1657  0.3352 -0.1304
  892MOL0     C22997   8.655   7.283   4.015  0.6321 -0.1622 -0.0925
  892MOL0     C22998   8.611   7.173   4.120 -0.0806  0.7878 -0.3688
  892MOL0     C22999   8.548   7.048   4.055  0.6490  0.1171 -0.5554
  892MOL0     C23000   8.520   6.933   4.154 -0.1610 -0.2345  0.6263
  892MOL0     C23001   8.474   6.808   4.077  0.3275  0.7820  0.3161
  892MOL0     C23002   8.447   6.700   4.183  0.5000 -0.4738  0.8874
  892MOL0    Cl23003   8.316   6.753   4.302 -0.0782 -0.0248  0.0824
  892MOL0     C23004   8.752   7.789   4.207  0.3330  0.2492  0.3717
  892MOL0     C23005   8.689   7.898   4.264 -0.2068  0.7215 -0.5166
  892MOL0     O23006   8.421   7.997   4.412  0.9987 -0.0834 -0.1922
  892MOL0     C23007   8.370   8.305   4.287  0.4300 -0.1805  0.0048
  892MOL0     C23008   8.304   8.429   4.320 -0.0854  0.1575  0.1539
  892MOL0     N23009   8.071   8.698   4.120 -0.3203  0.8105  0.0457
  892MOL0     N23010   8.183   8.668   4.067 -0.4893 -0.0996  0.0365
  892MOL0     C23011   8.173   8.417   3.074  0.0260  0.7290 -1.2709
  892MOL0     C23012   8.125   8.326   2.983  0.5567  0.4954 -0.1193
  892MOL0     C23013   8.081   7.848   2.876  0.3393 -0.8061  1.0386
  892MOL0     C23014   7.970   7.866   2.792  0.7797  1.2413 -0.5265
  892MOL0     C23015   7.912   7.749   2.739  0.7222  0.1620  0.2199
  892MOL0     C23016   7.959   7.617   2.763 -0.0835 -0.3141  0.1370
  892MOL0     O23017   7.927   7.504   2.702 -0.3515 -0.5751  0.3676
  892MOL0     C23018   7.804   7.509   2.622  0.5848  1.0530 -0.4081
  892MOL0     C23019   7.800   7.366   2.576 -0.2384 -0.0452  0.0153
  892MOL0     C23020   7.668   7.303   2.522  0.2021 -0.5503 -0.3857
  892MOL0     C23021   7.678   7.311   2.366 -0.6138 -0.3514  1.6338
  892MOL0     C23022   7.795   7.230   2.311  0.3536 -1.2100 -0.0074
  892MOL0     C23023   7.874   7.152   2.269 -0.1650  0.8188  0.9170
  892MOL0     C23024   8.059   7.607   2.858  1.1027 -0.1935  0.0089
  892MOL0     C23025   8.123   7.717   2.914 -0.3969 -0.7570  0.3502
  892MOL0     C23026   8.242   7.690   3.003 -0.1003  0.0200  0.4112
  892MOL0     H23027   8.183   8.043   3.173  2.7817 -0.1523 -0.7075
  892MOL0     H23028   8.249   8.210   3.336 -4.1522 -1.7136 -0.2735
  892MOL0     H23029   8.415   8.432   3.356 -0.8547  0.1103 -1.8465
  892MOL0     H23030   8.276   8.398   3.459  1.3159 -1.1646  0.3010
  892MOL0     H23031   8.433   8.643   3.444 -0.3592 -1.2730  0.0811
  892MOL0     H23032   8.260   8.693   3.414 -2.2895 -0.9148  1.3808
  892MOL0     H23033   8.183   8.599   3.610  0.2071 -0.2255 -0.9039
  892MOL0     H23034   8.339   8.545   3.651 -2.1777 -1.9415  1.1102
  892MOL0     H23035   8.395   8.824   3.590 -1.4556  2.2816 -1.6073
  892MOL0     H23036   8.221   8.820   3.614  2.3518  1.2760 -3.9012
  892MOL0     H23037   8.262   8.701   3.823 -0.2723  0.6551 -0.9513
  892MOL0     H23038   8.303   8.880   3.837  3.2648  2.8094 -2.2547
  892MOL0     H23039   8.509   8.681   3.752 -0.2924 -1.0344  0.1807
  892MOL0     H23040   8.524   8.829   3.868 -4.0359  1.7282  2.6459
  892MOL0     H23041   8.557   8.599   3.966  0.8306  1.2814 -1.6705
  892MOL0     H23042   8.391   8.567   3.953  0.7800 -1.0405 -0.2238
  892MOL0     H23043   8.477   8.678   4.172  0.9085 -0.5011 -0.7971
  892MOL0     H23044   8.474   8.831   4.079 -1.7121  0.8435 -2.7191
  892MOL0     H23045   8.293   8.912   4.252  0.1436  0.7380  0.5682
  892MOL0     H23046   7.912   8.870   4.254  0.7502  1.5733 -0.6824
  892MOL0     H23047   8.026   8.983   4.297 -1.1463 -0.0393  0.2645
  892MOL0     H23048   8.122   8.845   4.480 -1.1998  0.8967 -0.7780
  892MOL0     H23049   7.955   8.892   4.495 -0.3558  1.7167 -1.4582
  892MOL0     H23050   7.883   8.669   4.511 -0.4451  1.9088 -0.0206
  892MOL0     H23051   7.969   8.632   4.361  0.3677  2.0581 -1.8553
  892MOL0     H23052   8.112   8.662   4.639  0.7473  2.3695 -0.3879
  892MOL0     H23053   8.069   8.506   4.570  1.1743  0.0375  0.5423
  892MOL0     H23054   8.310   8.434   4.651  1.1819  1.7334 -0.3854
  892MOL0     H23055   8.351   8.101   4.648  0.2531  0.3730  1.9883
  892MOL0     H23056   8.418   8.250   4.741  1.0994  2.0182 -1.1509
  892MOL0     H23057   8.521   8.142   4.635 -1.3922 -3.1120 -1.8222
  892MOL0     H23058   8.479   7.984   4.003 -0.0148  1.3166  0.7866
  892MOL0     H23059   8.609   7.808   3.904  0.9635  0.5697  0.1611
  892MOL0     H23060   8.619   7.567   3.930  0.7232  1.8233 -0.2220
  892MOL0     H23061   8.774   7.514   3.897  1.5680 -2.0077  2.7557
  892MOL0     H23062   8.751   7.413   4.142 -0.6309  0.1310 -0.7575
  892MOL0     H23063   8.589   7.461   4.134  0.8560 -1.3197  3.5809
  892MOL0     H23064   8.744   7.249   3.961  0.7586  0.7799 -0.5027
  892MOL0     H23065   8.582   7.298   3.935 -1.8549 -1.4947  1.7839
  892MOL0     H23066   8.545   7.223   4.192  1.0792 -0.5743  1.7667
  892MOL0     H23067   8.701   7.141   4.173  1.0983  3.1938 -0.7721
  892MOL0     H23068   8.457   7.084   4.006 -1.0515 -1.1289  1.4865
  892MOL0     H23069   8.611   6.993   3.985 -0.1125 -0.1442 -1.0428
  892MOL0     H23070   8.450   6.982   4.222  0.3009  2.0614 -0.4540
  892MOL0     H23071   8.609   6.911   4.215  0.6059 -0.4415 -0.5376
  892MOL0     H23072   8.549   6.768   4.008  1.5779 -0.2317  2.1743
  892MOL0     H23073   8.374   6.827   4.036 -0.4409  0.3778  1.9219
  892MOL0     H23074   8.545   6.677   4.225  1.9199 -1.0338 -2.4052
  892MOL0     H23075   8.406   6.616   4.126 -1.7637  1.1315  0.0419
  892MOL0     H23076   8.825   7.726   4.256 -0.0850 -0.9888 -0.5495
  892MOL0     H23077   8.740   7.933   4.354  0.6917  2.2028 -1.5632
  892MOL0     H23078   8.367   8.270   4.184 -3.4880 -1.1076  0.2808
  892MOL0     H23079   8.273   8.498   4.242  2.2533  1.3786  0.2163
  892MOL0     H23080   8.161   8.522   3.052 -1.0854  0.6800 -0.9546
  892MOL0     H23081   8.078   8.352   2.889  1.2460  1.7591 -0.1447
  892MOL0     H23082   7.936   7.963   2.759  1.3593  2.4225  2.1362
  892MOL0     H23083   7.834   7.759   2.665  1.2057  2.1786 -0.0572
  892MOL0     H23084   7.719   7.522   2.689  0.6136  1.2690 -0.4137
  892MOL0     H23085   7.812   7.581   2.540  2.1486  1.8535  0.3864
  892MOL0     H23086   7.823   7.307   2.665 -2.0279  0.2740  0.7229
  892MOL0     H23087   7.884   7.365   2.505  0.2468  2.1994  0.4777
  892MOL0     H23088   7.635   7.202   2.550 -1.8214 -0.3145 -1.6321
  892MOL0     H23089   7.591   7.372   2.558 -0.5742 -1.7310  0.2655
  892MOL0     H23090   7.692   7.415   2.335  1.9664 -0.3460  2.6098
  892MOL0     H23091   7.582   7.274   2.329  1.9379 -2.9090 -3.4030
  892MOL0     H23092   7.957   7.093   2.235  0.0544 -1.5726  4.9993
  892MOL0     H23093   8.101   7.509   2.879  0.5791 -0.9076 -2.0183
  892MOL0     H23094   8.251   7.761   3.086  0.7421  1.0933 -0.5746
  892MOL0     H23095   8.231   7.587   3.037 -1.5481 -0.2296 -0.6808
  892MOL0     H23096   8.334   7.690   2.945 -1.1035  3.1753 -1.4664
  893MOL0     O23097   4.906   2.458   4.237 -0.4650  0.3357 -0.2767
  893MOL0     C23098   4.855   2.567   4.221 -0.2259 -0.5786 -0.2180
  893MOL0     O23099   4.910   2.686   4.265 -0.3357 -0.2170 -0.1231
  893MOL0     C23100   5.015   2.681   4.355  0.3853 -0.2199 -0.5882
  893MOL0     C23101   4.987   2.654   4.490  0.3432 -0.5675 -0.4798
  893MOL0     C23102   5.094   2.671   4.577  0.1892 -0.6349  0.2636
  893MOL0     C23103   5.227   2.699   4.530 -0.1775 -0.4311 -0.6833
  893MOL0     O23104   5.345   2.689   4.613 -1.0550 -0.2157  0.1120
  893MOL0     C23105   5.339   2.704   4.761  0.1907 -0.9216  0.0232
  893MOL0     C23106   5.470   2.731   4.826  0.8661 -0.1592  0.3386
  893MOL0     C23107   5.450   2.756   4.978 -0.1855 -0.5545  0.0847
  893MOL0     C23108   5.596   2.769   5.044  0.5674  0.4555  1.3231
  893MOL0     C23109   5.632   2.915   5.044 -0.4922  0.5044  0.1086
  893MOL0     C23110   5.778   2.922   5.082  0.0357 -0.0676  0.9629
  893MOL0     C23111   5.823   3.067   5.075 -0.9424  0.0217  0.2652
  893MOL0     C23112   5.972   3.074   5.102 -0.3042 -0.2625 -0.8144
  893MOL0     N23113   6.054   3.017   4.994  0.7001 -1.1442  0.0340
  893MOL0     C23114   6.025   3.028   4.859  0.4492  1.1224 -0.3790
  893MOL0     C23115   6.125   2.936   4.814  1.1244  0.1784 -0.0293
  893MOL0     C23116   6.147   2.932   4.665 -0.1881 -0.1956 -0.3328
  893MOL0     C23117   6.248   2.828   4.607  0.0331 -1.4127 -0.6473
  893MOL0     C23118   6.207   2.680   4.630  0.3924  0.1779 -0.5235
  893MOL0     C23119   6.061   2.643   4.596  0.3748 -0.6049 -0.8088
  893MOL0     O23120   6.027   2.686   4.466  0.4856 -0.6439  0.3028
  893MOL0     C23121   5.901   2.645   4.412 -0.5527 -0.6040 -0.2533
  893MOL0     C23122   5.876   2.660   4.285 -0.6140 -0.4772  0.6176
  893MOL0     C23123   5.761   2.613   4.224  0.3288 -1.2376  0.5152
  893MOL0     C23124   5.760   2.663   4.089  0.2821 -0.1016  0.7052
  893MOL0     C23125   5.653   2.571   4.302 -0.1730 -0.4931  0.0087
  893MOL0     C23126   5.524   2.542   4.247  0.0155 -0.7417  0.6484
  893MOL0     O23127   5.474   2.607   4.131 -0.1443  0.4091  0.0745
  893MOL0     C23128   5.359   2.573   4.058  0.1230 -0.8825 -0.0043
  893MOL0     C23129   5.298   2.446   4.059  0.2408 -0.3177  0.0495
  893MOL0     C23130   5.177   2.436   3.981  0.9267 -0.1712 -0.9705
  893MOL0     C23131   5.127   2.551   3.919 -0.2131  0.6525 -0.5026
  893MOL0     O23132   5.022   2.554   3.837 -0.3369 -0.1900  0.1564
  893MOL0     C23133   4.930   2.438   3.850 -1.3251 -0.0136  0.1150
  893MOL0     C23134   4.791   2.471   3.807  1.6323  0.1851  0.3026
  893MOL0     C23135   4.766   2.501   3.652 -0.0767 -0.3492 -0.6120
  893MOL0     C23136   4.625   2.560   3.634 -1.0638 -1.3041 -0.3975
  893MOL0     C23137   4.597   2.579   3.491  0.5767 -0.0808 -0.1412
  893MOL0     C23138   4.683   2.690   3.414  0.4191  0.4819 -0.2340
  893MOL0     C23139   4.647   2.709   3.261  0.2210 -0.0656  0.6934
  893MOL0     C23140   4.712   2.823   3.179  0.9456 -0.1944  0.3322
  893MOL0    Cl23141   4.624   2.976   3.233 -0.0711 -0.0782 -0.0896
  893MOL0     C23142   5.196   2.667   3.917 -0.5466 -0.8395 -0.0118
  893MOL0     C23143   5.310   2.681   3.986  0.7109 -0.1661 -0.0679
  893MOL0     O23144   5.454   2.457   4.307  0.1849 -0.5173  1.0655
  893MOL0     C23145   5.670   2.547   4.440  0.6267  0.1972 -1.3142
  893MOL0     C23146   5.798   2.589   4.500 -0.2182 -0.5704  1.2953
  893MOL0     N23147   6.200   2.883   4.913  0.3393  0.2014  0.2737
  893MOL0     N23148   6.151   2.923   5.027 -0.3218  1.1105  0.4813
  893MOL0     C23149   5.240   2.729   4.401 -0.1393 -0.1019 -0.1400
  893MOL0     C23150   5.145   2.723   4.313 -0.0668  0.1619  0.7662
  893MOL0     C23151   4.723   2.587   4.149  0.6682  0.1312 -0.9796
  893MOL0     C23152   4.705   2.711   4.083  0.8989  0.2365  0.6421
  893MOL0     C23153   4.581   2.724   4.018 -0.3048 -0.6054  0.9262
  893MOL0     C23154   4.479   2.631   4.013 -0.8608  0.3237 -0.7192
  893MOL0     O23155   4.372   2.672   3.941 -0.4220  0.3774  0.0290
  893MOL0     C23156   4.247   2.608   3.936 -0.0341  0.9603 -0.4326
  893MOL0     C23157   4.150   2.716   3.877  0.1739 -0.6249 -0.1751
  893MOL0     C23158   4.015   2.653   3.836 -0.8134  0.5858 -0.2282
  893MOL0     C23159   3.909   2.762   3.809  0.7629 -0.4288 -0.0727
  893MOL0     C23160   3.781   2.692   3.795  0.7217 -0.6314 -0.1876
  893MOL0     C23161   3.685   2.624   3.779  0.3731  0.4497  0.8545
  893MOL0     C23162   4.497   2.514   4.084  0.3672  0.4567 -0.3515
  893MOL0     C23163   4.619   2.484   4.145 -0.1497 -1.5565 -0.2681
  893MOL0     C23164   4.633   2.349   4.202 -0.3123 -0.1704  0.3948
  893MOL0     H23165   4.890   2.614   4.517 -1.1160  1.1413 -2.7507
  893MOL0     H23166   5.076   2.647   4.681 -2.6366 -0.0659 -0.0413
  893MOL0     H23167   5.282   2.627   4.815 -3.3881  2.7218  1.9621
  893MOL0     H23168   5.278   2.793   4.778  1.1932  0.2821 -2.3714
  893MOL0     H23169   5.533   2.642   4.812  0.8329  0.0437 -1.2125
  893MOL0     H23170   5.512   2.821   4.783 -5.4774  3.4380  0.3967
  893MOL0     H23171   5.400   2.851   4.997 -1.3183 -0.7520 -1.6676
  893MOL0     H23172   5.402   2.667   5.020  0.4913  0.2934  2.8641
  893MOL0     H23173   5.592   2.722   5.143  2.2367  0.4057  1.4004
  893MOL0     H23174   5.656   2.701   4.983 -0.2744 -1.1431  2.2060
  893MOL0     H23175   5.570   2.975   5.111  1.2245  0.9615  1.3824
  893MOL0     H23176   5.616   2.948   4.941 -2.5633 -2.3387 -0.5939
  893MOL0     H23177   5.799   2.882   5.181  0.7592 -1.0646  0.4268
  893MOL0     H23178   5.832   2.864   5.007  0.7361  0.0431  1.3794
  893MOL0     H23179   5.775   3.129   5.152 -1.0267  0.4230 -0.1099
  893MOL0     H23180   5.803   3.109   4.976 -0.1270  1.6522  0.7630
  893MOL0     H23181   5.996   3.181   5.107  1.1366 -0.4225 -3.1401
  893MOL0     H23182   5.996   3.023   5.196 -1.6952  0.6070  0.0522
  893MOL0     H23183   5.959   3.093   4.802  0.4225  1.2157 -0.2398
  893MOL0     H23184   6.180   3.030   4.632 -2.0608  0.3113 -0.8029
  893MOL0     H23185   6.055   2.913   4.608  0.6417  0.4449 -1.9628
  893MOL0     H23186   6.255   2.846   4.500  1.7193  1.3633 -0.1686
  893MOL0     H23187   6.346   2.862   4.642 -1.2364  1.2014  0.6281
  893MOL0     H23188   6.269   2.614   4.568  1.6431  0.2763  0.5989
  893MOL0     H23189   6.233   2.650   4.732 -1.5905  0.3588  0.0668
  893MOL0     H23190   6.049   2.534   4.605 -2.6099 -0.1993  2.3606
  893MOL0     H23191   5.998   2.698   4.666  0.4416  0.4391 -1.5569
  893MOL0     H23192   5.960   2.703   4.231  1.7837 -4.0339  1.2108
  893MOL0     H23193   5.862   2.677   4.054  1.2000 -3.4788  1.7093
  893MOL0     H23194   5.707   2.759   4.088  0.6103  0.1649 -2.3520
  893MOL0     H23195   5.705   2.593   4.025  2.8359 -2.8208  1.2769
  893MOL0     H23196   5.312   2.362   4.126 -0.4763 -1.1627 -0.8264
  893MOL0     H23197   5.120   2.344   3.981  0.0219  0.3397  0.8922
  893MOL0     H23198   4.966   2.349   3.799  0.3147  1.0175 -0.6013
  893MOL0     H23199   4.921   2.400   3.953  1.0198 -0.1323  0.3288
  893MOL0     H23200   4.732   2.384   3.838  1.7822  0.6848  2.1374
  893MOL0     H23201   4.751   2.548   3.873 -0.2815 -1.7302  1.5339
  893MOL0     H23202   4.768   2.405   3.599  3.3015 -0.1383 -1.0848
  893MOL0     H23203   4.845   2.570   3.621 -1.6534  0.4943 -3.0111
  893MOL0     H23204   4.618   2.652   3.693  0.9337 -1.8404  0.7656
  893MOL0     H23205   4.548   2.496   3.679 -1.1313 -2.1708 -1.7051
  893MOL0     H23206   4.607   2.483   3.441 -0.6088 -0.0090 -0.5421
  893MOL0     H23207   4.496   2.617   3.478  2.2875  4.4414 -2.7013
  893MOL0     H23208   4.790   2.667   3.410  0.1310 -0.7927 -1.6644
  893MOL0     H23209   4.674   2.787   3.464 -3.2126  1.2995 -2.1030
  893MOL0     H23210   4.540   2.729   3.255  0.2150  0.8038  2.7620
  893MOL0     H23211   4.679   2.615   3.215  0.8001  1.5951 -2.5798
  893MOL0     H23212   4.701   2.783   3.077 -0.7675 -0.2390  0.5030
  893MOL0     H23213   4.819   2.834   3.199  0.5489  1.3001  1.8482
  893MOL0     H23214   5.159   2.749   3.856 -1.5877 -1.1791  0.1359
  893MOL0     H23215   5.361   2.776   3.971  0.7384  0.2148  2.1809
  893MOL0     H23216   5.588   2.509   4.501  4.8369 -2.0040  3.7012
  893MOL0     H23217   5.808   2.573   4.607  0.0588  3.3509  1.9963
  893MOL0     H23218   5.342   2.742   4.366  0.3001  2.4142  1.8175
  893MOL0     H23219   5.160   2.739   4.207 -4.0182  0.3276  0.0575
  893MOL0     H23220   4.778   2.791   4.095  1.2067  1.1299 -4.6700
  893MOL0     H23221   4.559   2.814   3.960  0.0683 -0.9265  0.2710
  893MOL0     H23222   4.247   2.518   3.874 -2.3207 -0.4034  1.4183
  893MOL0     H23223   4.211   2.582   4.036  1.8498 -1.9723 -0.3966
  893MOL0     H23224   4.184   2.766   3.786 -2.0625  2.0644  0.2985
  893MOL0     H23225   4.124   2.798   3.946 -4.2418 -0.0694 -2.1120
  893MOL0     H23226   4.034   2.580   3.756  0.8412 -0.4369  1.0244
  893MOL0     H23227   3.980   2.591   3.919 -2.2460  3.0696  1.1222
  893MOL0     H23228   3.937   2.812   3.716 -0.5348 -0.2751 -0.3965
  893MOL0     H23229   3.904   2.834   3.891  1.0272  0.5756 -0.9212
  893MOL0     H23230   3.599   2.562   3.767  0.5448  0.4837 -0.6649
  893MOL0     H23231   4.416   2.442   4.079  0.9804 -0.5130  2.3258
  893MOL0     H23232   4.530   2.313   4.206 -0.4833  0.2567 -0.1415
  893MOL0     H23233   4.683   2.283   4.132  3.6632  2.9040  0.0023
  893MOL0     H23234   4.684   2.351   4.299 -0.9370 -0.4872  0.7422
  894MOL0     O23235   7.914   2.138  11.394  0.2146 -0.3675  0.3920
  894MOL0     C23236   7.977   2.243  11.423  0.5469  0.2327  0.8190
  894MOL0     O23237   7.978   2.358  11.343  0.7110 -0.3041  0.2159
  894MOL0     C23238   7.954   2.348  11.209 -0.2130  1.0879 -0.3991
  894MOL0     C23239   7.932   2.467  11.139  0.7403 -1.0082  0.9136
  894MOL0     C23240   7.896   2.476  11.008  0.3262  0.8598 -0.5003
  894MOL0     C23241   7.914   2.353  10.933 -0.2699 -0.1787  0.2664
  894MOL0     O23242   7.899   2.351  10.797 -0.1965 -0.0326  0.6231
  894MOL0     C23243   7.783   2.413  10.751  0.8510 -0.3703  0.1170
  894MOL0     C23244   7.763   2.369  10.609  0.3335 -0.5243 -0.0591
  894MOL0     C23245   7.751   2.219  10.569 -0.6342  1.2740 -0.2507
  894MOL0     C23246   7.814   2.194  10.428 -0.6509 -0.0874 -0.4825
  894MOL0     C23247   7.808   2.052  10.368 -0.1070 -0.6785  0.3764
  894MOL0     C23248   7.866   2.047  10.223  0.1109  0.3765 -0.3134
  894MOL0     C23249   7.849   1.910  10.160 -0.2789  1.0938  0.1252
  894MOL0     C23250   7.816   1.925  10.009 -0.3882 -0.0691  0.1496
  894MOL0     N23251   7.675   1.961   9.979 -0.4019 -0.5251 -0.4519
  894MOL0     C23252   7.566   1.935  10.052 -0.0177 -0.2492  0.0488
  894MOL0     C23253   7.462   1.966   9.976 -0.3057 -1.3294 -0.9039
  894MOL0     C23254   7.318   1.940  10.008  0.5708 -0.2039  0.2586
  894MOL0     C23255   7.241   2.069   9.997  0.1891  0.8861  0.4722
  894MOL0     C23256   7.164   2.092   9.862  0.0705  0.0732 -0.3129
  894MOL0     C23257   7.049   1.993   9.829 -1.0701  0.3081 -0.0980
  894MOL0     O23258   6.969   1.959   9.948 -0.3572  0.2434  0.4660
  894MOL0     C23259   6.890   1.850   9.944 -0.7666 -0.1656 -0.1297
  894MOL0     C23260   6.828   1.810  10.069 -0.0930 -0.1184  0.3383
  894MOL0     C23261   6.742   1.698  10.077  0.2643  0.4153  0.7855
  894MOL0     C23262   6.673   1.665  10.207  0.0314  0.3325  0.0911
  894MOL0     C23263   6.731   1.615   9.964  0.8365  0.2761  0.9813
  894MOL0     C23264   6.659   1.485   9.969  0.5116 -0.2521  0.7964
  894MOL0     O23265   6.738   1.379   9.950  0.4582  0.0377 -0.3123
  894MOL0     C23266   6.679   1.258   9.927  0.1024  0.4620  0.5545
  894MOL0     C23267   6.588   1.227   9.820  0.6270 -1.0134  0.4340
  894MOL0     C23268   6.541   1.099   9.791 -0.9823 -0.0927  0.1670
  894MOL0     C23269   6.604   0.988   9.858  0.4758 -0.2869 -0.6988
  894MOL0     O23270   6.572   0.863   9.807  0.2095 -0.5685 -0.2606
  894MOL0     C23271   6.597   0.745   9.881  0.9403  0.3962 -0.5754
  894MOL0     C23272   6.536   0.624   9.816  0.0262  0.5848  0.1481
  894MOL0     C23273   6.586   0.477   9.870 -1.0703 -0.5528 -0.3632
  894MOL0     C23274   6.595   0.469  10.024  0.3361  0.5374  0.3199
  894MOL0     C23275   6.643   0.325  10.065 -0.3252 -0.6435  0.0566
  894MOL0     C23276   6.583   0.199  10.005 -0.2054  0.7460  0.1948
  894MOL0     C23277   6.652   0.072  10.065  0.8030 -0.1139 -0.3391
  894MOL0     C23278   6.588  -0.059  10.009  0.8671  1.2722  0.5697
  894MOL0    Cl23279   6.666  -0.120   9.856  0.1242  0.5962 -0.1039
  894MOL0     C23280   6.700   1.021   9.956  0.3493  0.0907 -1.3608
  894MOL0     C23281   6.742   1.150   9.985 -0.1095 -0.3866  0.1440
  894MOL0     O23282   6.534   1.493   9.987  0.2746 -0.2729  0.1376
  894MOL0     C23283   6.790   1.649   9.839  1.2632 -1.2321  0.7100
  894MOL0     C23284   6.858   1.775   9.830  0.9041  0.3282 -0.4689
  894MOL0     N23285   7.511   2.011   9.846  0.6117  0.2075 -0.5960
  894MOL0     N23286   7.639   2.021   9.857  0.1550  0.9340 -0.3094
  894MOL0     C23287   7.961   2.234  10.997  0.6836 -1.1028  0.7022
  894MOL0     C23288   7.978   2.232  11.134 -0.6204 -0.0739  0.7647
  894MOL0     C23289   8.021   2.245  11.562  0.6711 -0.4826  0.6184
  894MOL0     C23290   8.012   2.120  11.642  0.3899 -0.4553  1.0201
  894MOL0     C23291   8.015   2.141  11.778 -1.0572  0.1630  0.2052
  894MOL0     C23292   8.047   2.254  11.849  1.0824  0.2563  0.6313
  894MOL0     O23293   8.055   2.257  11.990 -0.0227 -0.6651  0.1206
  894MOL0     C23294   7.959   2.185  12.073 -1.7700 -0.0982 -0.2051
  894MOL0     C23295   7.873   2.262  12.179 -0.1137  0.3772  0.1746
  894MOL0     C23296   7.947   2.303  12.304 -0.1634  0.1761  0.2947
  894MOL0     C23297   7.862   2.362  12.417  1.0487 -0.6438 -0.2454
  894MOL0     C23298   7.757   2.456  12.392 -0.4153 -0.1194 -0.0853
  894MOL0     C23299   7.669   2.535  12.372 -1.1047 -0.0240  0.5196
  894MOL0     C23300   8.065   2.366  11.771 -0.0548  0.0634 -0.3434
  894MOL0     C23301   8.059   2.367  11.632  0.1797  0.2352 -0.0643
  894MOL0     C23302   8.073   2.502  11.569 -0.1277 -0.3206 -0.6193
  894MOL0     H23303   7.938   2.556  11.201  2.4996 -3.1839  4.1989
  894MOL0     H23304   7.873   2.571  10.960  0.0792  0.1765 -1.7677
  894MOL0     H23305   7.806   2.520  10.756  1.4146 -0.5263  1.0949
  894MOL0     H23306   7.703   2.384  10.820  0.6637 -1.3399 -0.4994
  894MOL0     H23307   7.666   2.412  10.586 -0.0415 -0.0832  2.0672
  894MOL0     H23308   7.841   2.413  10.546  4.4482 -1.9209  3.4693
  894MOL0     H23309   7.805   2.160  10.644 -1.8534 -3.5320 -2.7309
  894MOL0     H23310   7.648   2.184  10.577 -0.7644  1.8856  1.0178
  894MOL0     H23311   7.768   2.259  10.353 -2.7628 -2.4851 -1.3945
  894MOL0     H23312   7.919   2.222  10.436 -0.3963 -0.5565 -1.9259
  894MOL0     H23313   7.706   2.013  10.381  0.6588 -2.2788  2.0039
  894MOL0     H23314   7.873   1.981  10.420  1.1745 -1.0002 -1.5697
  894MOL0     H23315   7.827   2.134  10.168  3.3050  0.8786 -2.0717
  894MOL0     H23316   7.973   2.070  10.230  0.2634 -0.0610 -1.0666
  894MOL0     H23317   7.776   1.859  10.222 -0.4780  0.4020 -0.6634
  894MOL0     H23318   7.946   1.860  10.171  0.5985  2.6369 -0.1048
  894MOL0     H23319   7.874   2.009   9.970 -0.5669  0.4121  0.9078
  894MOL0     H23320   7.840   1.831   9.957 -2.8881 -2.5126  3.0482
  894MOL0     H23321   7.563   1.883  10.147 -0.4130 -2.8329 -1.3042
  894MOL0     H23322   7.314   1.912  10.114  0.1951  0.5993  0.4669
  894MOL0     H23323   7.271   1.861   9.949 -1.4151  0.9784  0.1710
  894MOL0     H23324   7.161   2.062  10.072 -1.8019 -0.0200 -1.6153
  894MOL0     H23325   7.313   2.151  10.005  0.0316  1.4137 -2.3789
  894MOL0     H23326   7.135   2.198   9.870  1.2952  0.2337  4.0926
  894MOL0     H23327   7.231   2.091   9.775 -0.2856  1.4176 -0.6365
  894MOL0     H23328   6.966   2.013   9.761 -0.4972 -0.8560 -1.1880
  894MOL0     H23329   7.095   1.904   9.784 -1.5464  0.6183 -1.2539
  894MOL0     H23330   6.830   1.882  10.150  2.1626 -0.5440  0.7385
  894MOL0     H23331   6.567   1.680  10.185 -0.3736 -0.2358  1.5639
  894MOL0     H23332   6.713   1.735  10.281  1.1969 -2.0506  1.8489
  894MOL0     H23333   6.685   1.559  10.231 -2.7370 -0.2483 -0.7388
  894MOL0     H23334   6.553   1.312   9.763  0.5463 -1.7061 -0.5674
  894MOL0     H23335   6.454   1.087   9.728 -1.7754  0.8973  1.0317
  894MOL0     H23336   6.705   0.732   9.881  0.6557 -2.6781 -1.6963
  894MOL0     H23337   6.557   0.753   9.983 -3.0693 -1.0699 -1.8548
  894MOL0     H23338   6.429   0.623   9.836 -0.2791  2.5057 -1.0431
  894MOL0     H23339   6.564   0.636   9.710  2.0757  2.3616  0.8241
  894MOL0     H23340   6.683   0.440   9.836 -1.3637  0.1409 -2.0523
  894MOL0     H23341   6.510   0.411   9.828  0.4331 -1.5195 -1.6621
  894MOL0     H23342   6.492   0.478  10.060  0.3835 -4.3876  2.4029
  894MOL0     H23343   6.657   0.546  10.071  0.6948 -0.8608  2.2688
  894MOL0     H23344   6.747   0.337  10.032 -0.3622 -0.0992  0.1153
  894MOL0     H23345   6.636   0.317  10.174 -2.0855  0.5992  0.0705
  894MOL0     H23346   6.603   0.209   9.898 -2.1470  0.5417 -0.2262
  894MOL0     H23347   6.474   0.193  10.016 -0.9218 -0.0531 -4.7317
  894MOL0     H23348   6.631   0.065  10.172 -0.1217 -3.0082 -0.6406
  894MOL0     H23349   6.758   0.061  10.038 -0.0433 -3.3914 -2.8911
  894MOL0     H23350   6.483  -0.053   9.980  1.5068  1.8340 -1.8385
  894MOL0     H23351   6.599  -0.142  10.080 -2.5892  1.1132  1.1030
  894MOL0     H23352   6.744   0.936  10.007  1.9097  0.6210 -1.7602
  894MOL0     H23353   6.806   1.160  10.072 -0.2188 -2.7002  0.5622
  894MOL0     H23354   6.762   1.579   9.762 -0.3643 -1.6444  1.6258
  894MOL0     H23355   6.897   1.803   9.733  3.1955  1.9676  0.8442
  894MOL0     H23356   7.989   2.142  10.948 -0.0204 -1.9302  1.8171
  894MOL0     H23357   7.993   2.132  11.174 -0.7397  0.9070  3.4647
  894MOL0     H23358   8.013   2.022  11.596  3.1859 -0.0430 -0.0037
  894MOL0     H23359   8.016   2.046  11.831 -0.0998  0.0778  0.0683
  894MOL0     H23360   7.884   2.142  12.005 -0.3682  1.3097 -2.8021
  894MOL0     H23361   8.015   2.108  12.127 -1.4586 -2.0517 -3.0819
  894MOL0     H23362   7.789   2.193  12.187 -0.2933  0.2446 -2.0208
  894MOL0     H23363   7.832   2.355  12.140 -1.1406  1.1696  2.9516
  894MOL0     H23364   7.999   2.220  12.353  0.2101  0.6104  0.6369
  894MOL0     H23365   8.031   2.369  12.282  1.4247 -2.1626 -1.0923
  894MOL0     H23366   7.928   2.423  12.480 -1.1856  2.2560 -0.5305
  894MOL0     H23367   7.820   2.284  12.480 -1.5527  0.3024 -0.6758
  894MOL0     H23368   7.599   2.611  12.348 -1.2534 -0.2017  0.3863
  894MOL0     H23369   8.071   2.452  11.836 -0.3578 -0.1608 -0.0154
  894MOL0     H23370   8.107   2.495  11.465 -0.6473  3.6144 -1.2057
  894MOL0     H23371   7.976   2.553  11.558  0.5456  0.4790 -3.6885
  894MOL0     H23372   8.139   2.571  11.623 -0.5471 -0.2159 -0.2325
  895MOL0     O23373   4.000   7.392   2.270 -0.0343 -0.2677  0.0893
  895MOL0     C23374   4.107   7.363   2.229 -1.6206  0.0801 -0.1414
  895MOL0     O23375   4.179   7.441   2.147  0.5599  0.0891 -0.3229
  895MOL0     C23376   4.122   7.554   2.097  1.1353  0.2342 -0.3446
  895MOL0     C23377   4.040   7.649   2.165 -0.2782 -1.4556 -0.3535
  895MOL0     C23378   4.009   7.773   2.105  0.2837 -0.1676  0.0229
  895MOL0     C23379   4.034   7.797   1.972  1.0888 -0.6848  0.4991
  895MOL0     O23380   3.977   7.905   1.895 -0.4008 -0.7150 -1.1818
  895MOL0     C23381   3.898   8.004   1.956  0.0578  0.0126 -0.3733
  895MOL0     C23382   3.826   8.079   1.844 -0.3669 -0.3523  0.5593
  895MOL0     C23383   3.674   8.113   1.888  0.5169  0.0248 -0.2371
  895MOL0     C23384   3.620   8.240   1.828 -0.5680  0.1100  0.5879
  895MOL0     C23385   3.630   8.263   1.679 -0.0756 -0.3884 -0.4273
  895MOL0     C23386   3.742   8.361   1.633  0.6145  0.1209 -0.1881
  895MOL0     C23387   3.726   8.506   1.682 -1.0134 -0.3790 -1.3945
  895MOL0     C23388   3.863   8.576   1.661 -1.0521  0.5566 -0.1808
  895MOL0     N23389   3.841   8.685   1.567  0.6444 -0.0191 -1.3175
  895MOL0     C23390   3.810   8.814   1.608  0.5572  0.5184 -0.0770
  895MOL0     C23391   3.778   8.890   1.503  1.0213 -0.4540  0.5817
  895MOL0     C23392   3.739   9.035   1.522  0.3600 -0.3391 -0.4554
  895MOL0     C23393   3.649   9.091   1.411  0.8809  0.1073  0.4318
  895MOL0     C23394   3.517   9.014   1.398 -0.1699  0.3528 -0.2256
  895MOL0     C23395   3.417   8.999   1.514  0.5121  0.7092 -0.8600
  895MOL0     O23396   3.454   8.881   1.594  0.6666 -0.5870  0.4692
  895MOL0     C23397   3.372   8.764   1.604 -0.1909  0.8396 -0.0439
  895MOL0     C23398   3.247   8.752   1.660 -0.3502  0.8592 -0.1864
  895MOL0     C23399   3.182   8.630   1.667  0.4375 -0.5834  0.0041
  895MOL0     C23400   3.048   8.636   1.736  1.2291 -0.7486 -0.2659
  895MOL0     C23401   3.235   8.510   1.605  0.4985 -1.1980  0.4025
  895MOL0     C23402   3.173   8.374   1.608  0.7386 -0.0700 -0.3285
  895MOL0     O23403   3.241   8.273   1.536  0.1720 -0.3534  0.8078
  895MOL0     C23404   3.184   8.151   1.518 -0.1350  0.2171 -0.2159
  895MOL0     C23405   3.150   8.064   1.623  0.5774  0.4013 -1.4169
  895MOL0     C23406   3.102   7.931   1.609 -0.5303 -0.1832 -0.8702
  895MOL0     C23407   3.081   7.885   1.479  0.1910  0.2857  0.7645
  895MOL0     O23408   3.027   7.764   1.450  0.3738 -0.7030 -0.0321
  895MOL0     C23409   3.012   7.680   1.558 -0.2387 -0.1097 -0.0442
  895MOL0     C23410   2.920   7.553   1.517 -0.1555  0.6378  0.1709
  895MOL0     C23411   2.888   7.463   1.642  0.6750 -0.3685 -0.4040
  895MOL0     C23412   2.819   7.327   1.614 -0.2960 -0.6126  0.3388
  895MOL0     C23413   2.813   7.253   1.744 -0.8794 -0.1967 -1.0992
  895MOL0     C23414   2.774   7.101   1.736  0.2686 -1.0364  0.2848
  895MOL0     C23415   2.624   7.087   1.701 -0.4710 -0.7458 -0.0915
  895MOL0     C23416   2.586   6.963   1.622  0.4518 -0.2768  1.0842
  895MOL0    Cl23417   2.630   6.803   1.703  0.0230  0.8688  0.3648
  895MOL0     C23418   3.120   7.964   1.373 -0.0073  0.4500 -0.0192
  895MOL0     C23419   3.174   8.093   1.392 -0.1916 -1.2052  0.3463
  895MOL0     O23420   3.071   8.354   1.671  0.4561 -0.2158  0.7089
  895MOL0     C23421   3.356   8.522   1.536 -0.4870 -0.2106  0.0758
  895MOL0     C23422   3.424   8.652   1.544  0.0581  0.1589  0.9923
  895MOL0     N23423   3.791   8.799   1.395 -1.2119  0.1756 -0.4360
  895MOL0     N23424   3.826   8.689   1.434  0.6732  0.7090  0.2900
  895MOL0     C23425   4.125   7.707   1.909  0.8109  0.4289 -1.0547
  895MOL0     C23426   4.167   7.585   1.966 -0.4253 -0.0564 -0.6152
  895MOL0     C23427   4.169   7.235   2.276 -0.3403  0.6630 -0.5235
  895MOL0     C23428   4.284   7.191   2.205  0.4445 -0.6575  0.5907
  895MOL0     C23429   4.348   7.074   2.242 -0.1731 -0.5377  0.9823
  895MOL0     C23430   4.314   7.000   2.350 -0.7721 -0.3070 -0.2154
  895MOL0     O23431   4.401   6.901   2.397 -0.0376 -0.3808  0.0352
  895MOL0     C23432   4.428   6.902   2.540  0.0761 -0.3829 -0.3241
  895MOL0     C23433   4.576   6.862   2.570 -0.2846 -0.5099 -0.2695
  895MOL0     C23434   4.653   6.951   2.667  1.1405 -0.6129 -0.1060
  895MOL0     C23435   4.752   6.881   2.759 -0.1141  0.2544  0.5775
  895MOL0     C23436   4.815   6.964   2.857  1.0180  0.2240  0.0326
  895MOL0     C23437   4.882   7.032   2.934  0.0617 -0.6256 -0.3656
  895MOL0     C23438   4.201   7.045   2.424 -0.3635 -0.0435  0.2934
  895MOL0     C23439   4.127   7.151   2.390 -0.2443 -0.1101  0.3368
  895MOL0     C23440   4.014   7.194   2.479 -0.3789  0.0378 -0.3093
  895MOL0     H23441   4.007   7.626   2.266 -0.8499  1.9759  0.3879
  895MOL0     H23442   3.953   7.847   2.160  1.4267  2.7217 -2.3888
  895MOL0     H23443   3.950   8.078   2.018 -1.1086 -0.1731  0.8585
  895MOL0     H23444   3.820   7.970   2.024  0.8070  1.9016  1.5207
  895MOL0     H23445   3.881   8.166   1.806  0.9910 -1.6258 -0.4885
  895MOL0     H23446   3.810   8.024   1.751  2.0415  1.2162 -0.8838
  895MOL0     H23447   3.605   8.032   1.861  0.3284  0.4280 -0.9611
  895MOL0     H23448   3.662   8.132   1.996 -0.7071  3.3779 -0.8454
  895MOL0     H23449   3.515   8.254   1.858 -1.4711  2.3111 -2.9828
  895MOL0     H23450   3.672   8.314   1.891 -1.6072  0.2305  1.3423
  895MOL0     H23451   3.542   8.310   1.634  0.3043  1.0789  0.2939
  895MOL0     H23452   3.633   8.164   1.634 -3.0625  0.2618 -2.3273
  895MOL0     H23453   3.833   8.334   1.687  0.6478  3.0310  1.4160
  895MOL0     H23454   3.755   8.369   1.525 -2.0242 -1.4270 -0.6938
  895MOL0     H23455   3.688   8.498   1.784 -0.1179 -3.9933 -1.1933
  895MOL0     H23456   3.641   8.553   1.632  0.8439  2.7198 -1.9155
  895MOL0     H23457   3.905   8.606   1.757 -2.8533  1.0245  0.4914
  895MOL0     H23458   3.928   8.505   1.607 -1.3219 -0.1765  0.4450
  895MOL0     H23459   3.812   8.854   1.709 -2.5432 -1.4688  0.9213
  895MOL0     H23460   3.824   9.103   1.516  0.1663  0.4793  3.5179
  895MOL0     H23461   3.697   9.037   1.623  2.3786  0.8647  0.4021
  895MOL0     H23462   3.624   9.197   1.424  1.0315  0.0497  1.2535
  895MOL0     H23463   3.710   9.060   1.326  1.8940  3.7752 -0.3282
  895MOL0     H23464   3.462   9.060   1.316  2.0861  1.3465 -1.2732
  895MOL0     H23465   3.550   8.914   1.367  0.1861 -1.8947  5.9292
  895MOL0     H23466   3.412   9.093   1.569 -1.1417 -0.9339  2.0113
  895MOL0     H23467   3.323   8.981   1.462  0.5899  1.2766 -1.1993
  895MOL0     H23468   3.203   8.836   1.711  0.1634 -0.1371  2.0521
  895MOL0     H23469   2.968   8.617   1.664 -1.1758  1.6305  1.5462
  895MOL0     H23470   3.014   8.736   1.766 -0.2962 -1.9760  2.5398
  895MOL0     H23471   3.054   8.558   1.812  0.6617  0.7954  1.4343
  895MOL0     H23472   3.173   8.092   1.725 -0.0670  0.7575 -1.3665
  895MOL0     H23473   3.105   7.858   1.689 -1.0636  1.9322  1.1602
  895MOL0     H23474   3.111   7.645   1.587 -0.8038 -0.0268  2.1082
  895MOL0     H23475   2.964   7.727   1.644  1.5991 -0.6342  1.3356
  895MOL0     H23476   2.826   7.590   1.476 -0.5665 -1.2337 -0.6897
  895MOL0     H23477   2.970   7.490   1.443  0.6912  3.2249 -1.5996
  895MOL0     H23478   2.821   7.502   1.720  2.7878 -4.4755  3.9705
  895MOL0     H23479   2.980   7.439   1.696 -0.1915 -1.6592  0.5751
  895MOL0     H23480   2.866   7.279   1.528 -2.5379  4.0789 -4.0563
  895MOL0     H23481   2.714   7.354   1.595 -0.3572  0.2038  1.7155
  895MOL0     H23482   2.908   7.263   1.798 -1.5726  0.5613  0.0231
  895MOL0     H23483   2.742   7.305   1.808  0.4768 -1.7119  1.8489
  895MOL0     H23484   2.786   7.048   1.831  0.6537 -1.9603 -0.2680
  895MOL0     H23485   2.838   7.055   1.661 -1.9784 -4.0169  0.0128
  895MOL0     H23486   2.587   7.177   1.651 -0.6961 -1.1345 -0.6349
  895MOL0     H23487   2.563   7.084   1.792 -1.9421 -0.9974 -1.0554
  895MOL0     H23488   2.635   6.967   1.524 -2.5772  0.7130 -0.4934
  895MOL0     H23489   2.480   6.962   1.595  1.0743  3.1159 -2.3596
  895MOL0     H23490   3.101   7.922   1.275 -1.3638 -0.5543  0.6465
  895MOL0     H23491   3.220   8.148   1.311 -0.9026 -0.0295  0.7141
  895MOL0     H23492   3.405   8.438   1.487 -2.5718 -0.2904 -2.0653
  895MOL0     H23493   3.519   8.674   1.496  1.1423 -0.8642  2.5791
  895MOL0     H23494   4.160   7.727   1.808 -2.4337  1.0157 -2.1803
  895MOL0     H23495   4.248   7.530   1.919 -1.0288  0.2693 -2.1150
  895MOL0     H23496   4.313   7.250   2.119  0.4211 -0.6588  0.5819
  895MOL0     H23497   4.420   7.033   2.172  0.4347  1.6621  0.2144
  895MOL0     H23498   4.409   6.992   2.600 -0.2047 -1.9403  2.0532
  895MOL0     H23499   4.364   6.827   2.587 -1.5282  1.0810 -0.0346
  895MOL0     H23500   4.636   6.875   2.480  0.0634 -1.3370 -0.1672
  895MOL0     H23501   4.592   6.756   2.590  0.4533 -1.1934 -3.8030
  895MOL0     H23502   4.712   7.033   2.625 -0.1610 -0.5111 -1.7943
  895MOL0     H23503   4.582   6.998   2.735 -0.2701  0.3469 -2.1501
  895MOL0     H23504   4.831   6.844   2.692 -1.4106  0.3499 -1.0654
  895MOL0     H23505   4.693   6.799   2.802 -3.5233  0.9894 -2.2674
  895MOL0     H23506   4.935   7.101   2.997 -0.8903 -1.2641  1.1839
  895MOL0     H23507   4.179   6.994   2.518  1.5095  0.8792  1.2917
  895MOL0     H23508   4.016   7.300   2.509 -1.9676 -0.7382  3.0694
  895MOL0     H23509   3.917   7.177   2.431 -0.0615  4.3009 -3.0839
  895MOL0     H23510   4.019   7.133   2.569  0.5527  1.2949  0.5218
  896MOL0     O23511   4.982   3.942   7.511 -1.0162 -0.0914  0.4930
  896MOL0     C23512   4.932   4.027   7.434  1.3723 -0.1822  0.2719
  896MOL0     O23513   4.810   4.019   7.379  0.2234 -0.1244  0.5328
  896MOL0     C23514   4.751   3.899   7.414  0.4573  0.6556 -0.0322
  896MOL0     C23515   4.616   3.903   7.448 -0.6302 -0.0796 -0.2085
  896MOL0     C23516   4.533   3.795   7.459  0.4659 -0.8167 -0.4355
  896MOL0     C23517   4.584   3.667   7.450 -0.9262  0.4651 -1.3306
  896MOL0     O23518   4.511   3.548   7.467  0.5638  0.4286  0.1927
  896MOL0     C23519   4.398   3.561   7.559  0.1736  0.4504  0.9614
  896MOL0     C23520   4.313   3.426   7.557 -0.2026 -0.0839 -0.8468
  896MOL0     C23521   4.339   3.343   7.430 -1.0290  0.4773  0.2409
  896MOL0     C23522   4.270   3.209   7.419 -0.2298  0.6958 -0.3205
  896MOL0     C23523   4.290   3.133   7.279  0.2222 -0.6182  0.3370
  896MOL0     C23524   4.259   3.207   7.153  1.2532  0.0571 -0.0986
  896MOL0     C23525   4.117   3.240   7.144 -0.2689  0.0845 -0.0177
  896MOL0     C23526   4.022   3.119   7.117  0.0844 -0.1093  0.2478
  896MOL0     N23527   4.018   3.113   6.966 -0.0705  0.9662 -0.1078
  896MOL0     C23528   4.096   3.051   6.874 -0.3158 -0.2185 -0.5691
  896MOL0     C23529   4.034   3.059   6.758 -0.4870 -0.1995  0.1783
  896MOL0     C23530   4.093   2.981   6.643  1.6017  0.2589 -0.5701
  896MOL0     C23531   4.029   3.023   6.512  0.0304 -0.2899  0.1260
  896MOL0     C23532   3.896   2.957   6.495  0.1054 -0.8793 -0.2814
  896MOL0     C23533   3.850   2.960   6.355 -1.0727  0.3095 -0.0964
  896MOL0     O23534   3.849   3.092   6.298  0.1111  0.2399  0.6843
  896MOL0     C23535   3.915   3.120   6.180  0.0142  0.3133 -0.2476
  896MOL0     C23536   3.953   3.255   6.166 -0.9460  0.8410  0.0628
  896MOL0     C23537   4.029   3.291   6.054  0.1242  0.8307 -0.7020
  896MOL0     C23538   4.059   3.434   6.056 -0.6197  0.3693  0.0711
  896MOL0     C23539   4.052   3.208   5.942  1.3914  0.2113  0.8290
  896MOL0     C23540   4.102   3.250   5.805 -0.0490  0.1403 -0.6155
  896MOL0     O23541   4.214   3.173   5.757  0.0695 -0.5693 -0.3912
  896MOL0     C23542   4.245   3.217   5.633  0.3305 -0.0805  0.6325
  896MOL0     C23543   4.184   3.142   5.523 -0.1591 -0.3765 -0.5453
  896MOL0     C23544   4.230   3.179   5.391 -0.4186  0.5642 -0.5913
  896MOL0     C23545   4.330   3.269   5.381 -0.0965 -1.0035 -0.9966
  896MOL0     O23546   4.348   3.302   5.251 -1.1019  0.1509 -0.2413
  896MOL0     C23547   4.485   3.334   5.211 -0.1477  0.1715 -0.1591
  896MOL0     C23548   4.479   3.449   5.118 -0.3103  0.4064 -0.2513
  896MOL0     C23549   4.456   3.578   5.201  0.9554 -0.2246  1.2588
  896MOL0     C23550   4.380   3.683   5.113 -0.7273  0.2030 -0.1697
  896MOL0     C23551   4.338   3.805   5.184 -0.4230 -0.4458 -0.4505
  896MOL0     C23552   4.268   3.910   5.099  0.0651  0.7963  0.6180
  896MOL0     C23553   4.271   4.055   5.163 -0.6225  0.4850  0.6888
  896MOL0     C23554   4.178   4.079   5.285 -0.8313  0.2022 -0.5679
  896MOL0    Cl23555   4.002   4.088   5.255  0.5547 -0.0099 -0.1669
  896MOL0     C23556   4.362   3.363   5.487 -0.1470  0.9950  1.0913
  896MOL0     C23557   4.327   3.325   5.616 -0.9462 -0.5380  0.4618
  896MOL0     O23558   4.060   3.352   5.756 -0.1992 -0.4322 -0.6577
  896MOL0     C23559   4.013   3.075   5.955 -0.0146  0.0245 -0.4263
  896MOL0     C23560   3.948   3.032   6.071  0.1821  1.1431  0.8348
  896MOL0     N23561   3.916   3.133   6.783  0.2824  0.5321  0.1994
  896MOL0     N23562   3.913   3.158   6.907 -0.5831  0.4480 -0.3849
  896MOL0     C23563   4.715   3.654   7.416 -0.7741 -0.4235  0.7494
  896MOL0     C23564   4.796   3.766   7.386 -0.5407 -0.1645  0.1385
  896MOL0     C23565   4.992   4.162   7.439  0.0879 -0.5511  0.6000
  896MOL0     C23566   5.062   4.198   7.556 -0.3569  0.0671 -0.6156
  896MOL0     C23567   5.111   4.332   7.563 -0.8600 -0.2393  0.0826
  896MOL0     C23568   5.093   4.423   7.458 -0.5053  0.0498  0.7066
  896MOL0     O23569   5.136   4.552   7.439  0.1761 -0.0641  0.5755
  896MOL0     C23570   5.262   4.584   7.507  0.4029 -0.2159 -1.0718
  896MOL0     C23571   5.228   4.657   7.644  0.1881  0.2988  1.5389
  896MOL0     C23572   5.157   4.793   7.616 -0.4571  0.4625  0.3791
  896MOL0     C23573   5.085   4.832   7.748  0.9347 -0.2670 -0.5598
  896MOL0     C23574   5.059   4.973   7.742  0.2139  0.5281 -0.1455
  896MOL0     C23575   5.035   5.085   7.733 -0.3254  0.9586  0.0228
  896MOL0     C23576   5.019   4.385   7.350  1.3587 -1.2080  0.6150
  896MOL0     C23577   4.970   4.255   7.335 -0.4980 -0.0310  0.4562
  896MOL0     C23578   4.900   4.225   7.198  0.7105 -0.0749  0.0708
  896MOL0     H23579   4.594   4.009   7.452 -0.2326  0.0260 -0.7816
  896MOL0     H23580   4.426   3.805   7.474  0.7640  0.6012  0.9596
  896MOL0     H23581   4.329   3.638   7.525  0.3244 -0.2957 -1.1912
  896MOL0     H23582   4.435   3.567   7.661 -2.4496  1.5563  1.9309
  896MOL0     H23583   4.340   3.369   7.646 -1.4673  0.7557  0.1109
  896MOL0     H23584   4.212   3.464   7.574  0.7059  2.7117 -1.1036
  896MOL0     H23585   4.316   3.395   7.336 -1.8884  1.3973  0.9440
  896MOL0     H23586   4.446   3.318   7.427 -1.5835 -2.5883  1.7923
  896MOL0     H23587   4.320   3.138   7.485 -1.2010  0.4821  0.1874
  896MOL0     H23588   4.166   3.214   7.452  0.0490 -1.0194  0.9316
  896MOL0     H23589   4.247   3.033   7.282  2.2373 -1.5501 -0.0836
  896MOL0     H23590   4.397   3.113   7.277  0.0480 -1.5242 -0.3158
  896MOL0     H23591   4.299   3.308   7.163 -2.6110  1.7879 -0.4369
  896MOL0     H23592   4.288   3.162   7.057  0.3994  3.5149 -2.1423
  896MOL0     H23593   4.119   3.317   7.066  3.5924  1.2206  0.9953
  896MOL0     H23594   4.094   3.290   7.239  2.1784  2.7909 -0.7239
  896MOL0     H23595   4.056   3.017   7.141  0.0623  0.1420  1.4181
  896MOL0     H23596   3.929   3.141   7.170  1.3179  0.9781  2.0902
  896MOL0     H23597   4.187   2.994   6.884  0.6607  1.1149 -1.5806
  896MOL0     H23598   4.090   2.875   6.668 -1.4759 -0.1067 -1.9548
  896MOL0     H23599   4.199   3.009   6.644  2.1341 -1.6104  1.3565
  896MOL0     H23600   4.030   3.132   6.504  2.0200 -0.0910  2.0682
  896MOL0     H23601   4.098   2.988   6.435 -1.3101 -1.8627 -0.4237
  896MOL0     H23602   3.915   2.854   6.526 -1.1178 -2.0452 -3.1422
  896MOL0     H23603   3.815   2.997   6.557 -0.8171 -2.4238 -0.4250
  896MOL0     H23604   3.910   2.908   6.280 -2.3497  1.6116 -2.1375
  896MOL0     H23605   3.754   2.909   6.338 -2.0016  2.6893 -2.8012
  896MOL0     H23606   3.950   3.314   6.257 -0.2804  1.1139 -0.0802
  896MOL0     H23607   4.009   3.494   5.979 -2.4055  0.7001  1.4223
  896MOL0     H23608   4.167   3.452   6.060 -0.6763  0.8417 -0.3482
  896MOL0     H23609   4.024   3.481   6.148 -1.0633 -0.8873  0.5650
  896MOL0     H23610   4.120   3.055   5.537 -1.1446  0.6848  2.5241
  896MOL0     H23611   4.208   3.135   5.295  0.5577  2.5325 -1.7916
  896MOL0     H23612   4.551   3.365   5.293  0.9764 -2.3046 -0.0356
  896MOL0     H23613   4.526   3.245   5.161 -2.2700  1.4349 -4.7171
  896MOL0     H23614   4.570   3.467   5.060 -0.3324  2.8745  0.3546
  896MOL0     H23615   4.395   3.435   5.050 -0.8185 -2.6932  0.8753
  896MOL0     H23616   4.552   3.617   5.235  0.1316  1.6184  1.6277
  896MOL0     H23617   4.398   3.567   5.293  2.5070  1.6579  2.5228
  896MOL0     H23618   4.291   3.639   5.067 -0.2441 -0.0268 -0.9085
  896MOL0     H23619   4.434   3.700   5.019 -3.5919  0.4561 -1.8906
  896MOL0     H23620   4.275   3.774   5.268  0.3015 -1.4736 -0.2540
  896MOL0     H23621   4.430   3.841   5.230 -1.9413  1.4850  1.2777
  896MOL0     H23622   4.162   3.883   5.097  0.0312  0.9739 -0.8423
  896MOL0     H23623   4.321   3.929   5.006 -1.4470 -1.3745 -0.7561
  896MOL0     H23624   4.232   4.121   5.084 -0.8976  0.1536  0.5436
  896MOL0     H23625   4.373   4.089   5.184 -0.5735  1.8471 -1.4112
  896MOL0     H23626   4.198   4.170   5.342 -4.6571 -0.9860  3.1587
  896MOL0     H23627   4.190   4.000   5.359 -0.2815 -0.4999 -1.3890
  896MOL0     H23628   4.427   3.450   5.476  1.7628 -0.6276 -2.0176
  896MOL0     H23629   4.375   3.385   5.693 -0.1359 -2.7495  1.7795
  896MOL0     H23630   4.029   3.004   5.874 -0.9150 -2.1092  1.1805
  896MOL0     H23631   3.940   2.924   6.071 -6.3839  1.1928 -1.5887
  896MOL0     H23632   4.758   3.555   7.405 -1.2218 -0.4370 -1.2230
  896MOL0     H23633   4.899   3.755   7.354 -0.7817 -0.9290 -0.4027
  896MOL0     H23634   5.072   4.141   7.649 -1.3271  0.1163 -0.4738
  896MOL0     H23635   5.161   4.357   7.656  0.5940  0.2481 -0.7896
  896MOL0     H23636   5.331   4.502   7.529  1.4317  1.3425  2.1488
  896MOL0     H23637   5.322   4.646   7.439  0.6584  0.1318 -0.5355
  896MOL0     H23638   5.319   4.659   7.704  1.9078  2.8173 -0.9452
  896MOL0     H23639   5.160   4.595   7.704  0.2447  0.5257  1.8428
  896MOL0     H23640   5.222   4.878   7.593 -0.7937  0.0542 -2.4587
  896MOL0     H23641   5.088   4.780   7.532  0.8427  0.0994 -0.6606
  896MOL0     H23642   5.147   4.823   7.837 -0.9589  1.0434  0.9650
  896MOL0     H23643   4.991   4.779   7.768  0.0570  2.1632  2.5825
  896MOL0     H23644   5.025   5.192   7.733  0.0495  1.1152 -3.6021
  896MOL0     H23645   5.005   4.464   7.277  3.1404  1.0483  2.5364
  896MOL0     H23646   4.901   4.306   7.124 -1.8425  0.0680  0.1069
  896MOL0     H23647   4.930   4.131   7.152  1.0789  1.4680 -3.2024
  896MOL0     H23648   4.795   4.229   7.227  0.1968  3.6467 -1.6803
  897MOL0     O23649   8.611   5.422  10.168 -0.1156 -0.3520  0.0373
  897MOL0     C23650   8.697   5.335  10.192 -0.2146 -0.5246  0.8171
  897MOL0     O23651   8.831   5.351  10.200  0.6962  0.0489  0.2350
  897MOL0     C23652   8.872   5.479  10.187  0.3875  0.3691 -1.3119
  897MOL0     C23653   8.861   5.532  10.059 -0.9171 -0.2934 -0.3250
  897MOL0     C23654   8.884   5.671  10.041  0.0022 -0.2265  0.1885
  897MOL0     C23655   8.922   5.753  10.145  0.7486  0.1893 -0.3771
  897MOL0     O23656   8.928   5.891  10.142  0.5449  0.4898 -0.6109
  897MOL0     C23657   8.935   5.971  10.023  0.8561 -0.2716 -0.7590
  897MOL0     C23658   9.055   5.936   9.933 -0.6228  1.1502 -0.4791
  897MOL0     C23659   9.187   5.973  10.001  1.2223 -0.2019  0.6436
  897MOL0     C23660   9.307   5.882   9.944 -0.2457  0.1924 -0.2828
  897MOL0     C23661   9.450   5.941   9.958 -1.0369  0.1206 -0.0037
  897MOL0     C23662   9.488   5.933  10.108 -0.8436  0.5268 -0.8202
  897MOL0     C23663   9.626   6.006  10.119  0.3702 -1.0653 -1.3944
  897MOL0     C23664   9.683   5.987  10.264  0.0172  0.2232  0.6854
  897MOL0     N23665   9.747   5.857  10.278 -0.5746  0.2417  0.0376
  897MOL0     C23666   9.858   5.808  10.214 -0.9987  0.1228 -0.3095
  897MOL0     C23667   9.894   5.688  10.270  0.4926  0.4103  0.2375
  897MOL0     C23668   9.998   5.591  10.228 -0.8636 -0.1615  0.5594
  897MOL0     C23669   9.934   5.459  10.187  0.1544  0.4050  0.0539
  897MOL0     C23670  10.039   5.347  10.152 -1.2317 -0.5069 -0.6303
  897MOL0     C23671  10.101   5.377  10.013  0.1860 -0.3866  0.0267
  897MOL0     O23672  10.000   5.376   9.911  0.1582  1.8044 -0.1400
  897MOL0     C23673   9.978   5.260   9.842 -0.0686  0.3108  0.5363
  897MOL0     C23674   9.915   5.268   9.723  0.3596 -0.2361 -0.4572
  897MOL0     C23675   9.893   5.161   9.638 -0.7312 -0.6952 -1.7197
  897MOL0     C23676   9.826   5.180   9.511 -0.4986 -0.5234  0.4998
  897MOL0     C23677   9.938   5.033   9.680 -0.6559  0.4423 -0.4630
  897MOL0     C23678   9.918   4.904   9.607  0.5665 -0.6135  0.1862
  897MOL0     O23679   9.880   4.798   9.680 -0.3374 -0.6059 -0.7699
  897MOL0     C23680   9.840   4.681   9.621  1.0008 -0.6180  0.7401
  897MOL0     C23681   9.807   4.659   9.483  1.3735 -0.5100  0.1005
  897MOL0     C23682   9.762   4.532   9.444 -0.1278  0.1194  0.3071
  897MOL0     C23683   9.767   4.428   9.536  0.8418  0.1084 -0.0588
  897MOL0     O23684   9.748   4.292   9.502 -0.3162  0.3458 -0.5397
  897MOL0     C23685   9.657   4.262   9.394 -0.0142 -0.1990 -0.0970
  897MOL0     C23686   9.516   4.248   9.432 -0.0861  0.4366  0.4990
  897MOL0     C23687   9.422   4.235   9.311 -0.1638  0.8244  0.0908
  897MOL0     C23688   9.401   4.092   9.266  0.0775 -0.4380 -0.5663
  897MOL0     C23689   9.340   4.005   9.379  0.3226  0.1342  0.5638
  897MOL0     C23690   9.282   3.886   9.311 -0.1938  0.2278  0.9045
  897MOL0     C23691   9.219   3.805   9.422 -0.3761 -0.5029  0.9255
  897MOL0     C23692   9.161   3.672   9.373  0.2741  1.3910 -0.0365
  897MOL0    Cl23693   8.993   3.722   9.313 -0.2857  0.0141  0.1042
  897MOL0     C23694   9.799   4.450   9.669 -0.1051 -0.6095 -0.1658
  897MOL0     C23695   9.835   4.580   9.707 -0.8792  0.6125 -0.8727
  897MOL0     O23696   9.935   4.904   9.482 -0.3559 -0.4034  0.4320
  897MOL0     C23697   9.998   5.018   9.809 -0.6264  0.2073 -0.9664
  897MOL0     C23698  10.012   5.129   9.890 -0.0488 -0.0346  0.4048
  897MOL0     N23699   9.792   5.660  10.363  0.2923 -0.2728 -0.3143
  897MOL0     N23700   9.706   5.757  10.356 -0.1969 -0.1338 -0.0085
  897MOL0     C23701   8.949   5.687  10.272 -0.0057  0.4925 -0.4599
  897MOL0     C23702   8.905   5.555  10.295  0.3718 -0.6213  0.6674
  897MOL0     C23703   8.644   5.195  10.208 -0.4357  0.0758 -0.6182
  897MOL0     C23704   8.743   5.093  10.218 -0.4880  0.3841  0.1743
  897MOL0     C23705   8.714   4.967  10.257 -0.5413  0.5398  0.0715
  897MOL0     C23706   8.580   4.928  10.272  0.1788 -0.5656  0.5002
  897MOL0     O23707   8.556   4.795  10.298 -0.1120 -0.1298 -0.0573
  897MOL0     C23708   8.422   4.744  10.292  0.4115  0.1540  0.2748
  897MOL0     C23709   8.417   4.612  10.378 -0.4685 -0.2435  0.3401
  897MOL0     C23710   8.398   4.652  10.527 -1.3646 -0.7976  0.0766
  897MOL0     C23711   8.275   4.586  10.592  0.4537 -0.0219 -0.0663
  897MOL0     C23712   8.161   4.638  10.523  0.4878  0.0131  0.5568
  897MOL0     C23713   8.065   4.675  10.467  0.3400 -0.5153  0.2338
  897MOL0     C23714   8.481   5.022  10.243 -0.6483 -0.4542 -0.3308
  897MOL0     C23715   8.516   5.150  10.210  0.3612  0.0643 -0.5211
  897MOL0     C23716   8.402   5.239  10.163  0.3035  0.7761 -0.2117
  897MOL0     H23717   8.828   5.456   9.989 -1.1967 -2.3747  1.9310
  897MOL0     H23718   8.856   5.701   9.940 -0.8536 -1.7052 -0.0350
  897MOL0     H23719   8.929   6.074  10.060  1.3704 -0.7968  0.8874
  897MOL0     H23720   8.836   5.959   9.977 -0.6317 -2.6728  2.6141
  897MOL0     H23721   9.055   5.829   9.909 -1.2932  0.2008  3.0246
  897MOL0     H23722   9.038   5.995   9.843 -0.3824  0.3106 -1.0886
  897MOL0     H23723   9.198   6.080   9.979  2.3206 -0.6558 -1.3409
  897MOL0     H23724   9.198   5.959  10.109  2.6237 -0.0920  0.5381
  897MOL0     H23725   9.300   5.777   9.973  1.5357  0.1408  0.1276
  897MOL0     H23726   9.281   5.876   9.838  1.7337 -2.9941 -0.7092
  897MOL0     H23727   9.452   6.044   9.923  3.5778  0.8900  1.8553
  897MOL0     H23728   9.535   5.901   9.903  0.8885  1.3281  1.9710
  897MOL0     H23729   9.421   5.980  10.180 -0.6311  0.6472 -0.7013
  897MOL0     H23730   9.502   5.833  10.150  0.0230  2.0658  2.9304
  897MOL0     H23731   9.598   6.110  10.102 -1.4824 -0.8066  2.2155
  897MOL0     H23732   9.701   5.982  10.043  2.8844 -2.3195  1.2794
  897MOL0     H23733   9.766   6.057  10.277  1.7441 -0.9571 -2.6723
  897MOL0     H23734   9.599   5.989  10.334 -2.1247  0.0929 -1.7330
  897MOL0     H23735   9.907   5.841  10.123 -0.6941  0.7277  0.0655
  897MOL0     H23736  10.073   5.568  10.304 -1.6146 -1.7351  0.8743
  897MOL0     H23737  10.063   5.638  10.154 -2.0097  1.1809  0.3691
  897MOL0     H23738   9.872   5.408  10.262 -0.7307  0.5167 -0.5820
  897MOL0     H23739   9.866   5.472  10.102 -1.6605  0.9636  1.5067
  897MOL0     H23740  10.122   5.347  10.223 -0.8456 -4.7891 -0.8038
  897MOL0     H23741  10.000   5.245  10.145  2.2159 -2.0466  0.7402
  897MOL0     H23742  10.154   5.472  10.004 -0.0007 -0.1007  1.6112
  897MOL0     H23743  10.170   5.293   9.996 -0.0135 -1.0305  2.1179
  897MOL0     H23744   9.873   5.364   9.694  2.1965  0.5216 -0.7167
  897MOL0     H23745   9.885   5.193   9.420 -0.3049 -2.0018  0.3841
  897MOL0     H23746   9.770   5.273   9.510 -1.1316 -0.8954  0.5549
  897MOL0     H23747   9.757   5.098   9.487  1.5353 -2.2956  0.3429
  897MOL0     H23748   9.801   4.730   9.401  3.8229 -2.0620 -1.5369
  897MOL0     H23749   9.733   4.518   9.340 -1.6722  2.0608  0.4086
  897MOL0     H23750   9.678   4.324   9.307 -0.9151 -1.8679 -1.5523
  897MOL0     H23751   9.683   4.163   9.356 -3.6777 -0.7307 -1.6653
  897MOL0     H23752   9.509   4.162   9.499  1.3924  0.8323  1.2035
  897MOL0     H23753   9.480   4.334   9.490  2.0759  0.1480  2.3962
  897MOL0     H23754   9.470   4.290   9.230  2.4170  3.6904  3.2679
  897MOL0     H23755   9.329   4.285   9.339 -4.0876 -5.6850  0.8749
  897MOL0     H23756   9.492   4.034   9.252 -0.2398 -0.8744 -0.8605
  897MOL0     H23757   9.356   4.094   9.166 -0.5946 -0.6035 -0.2773
  897MOL0     H23758   9.419   3.961   9.442  3.6940  0.8507 -2.7889
  897MOL0     H23759   9.269   4.067   9.434 -2.1971 -0.5844 -1.6721
  897MOL0     H23760   9.355   3.833   9.250 -1.1370  0.8139 -0.7863
  897MOL0     H23761   9.205   3.926   9.244  1.5168 -0.2041 -1.4357
  897MOL0     H23762   9.138   3.859   9.473  1.2689  1.5031  1.5366
  897MOL0     H23763   9.291   3.782   9.500 -0.3902  3.8346  2.4857
  897MOL0     H23764   9.157   3.601   9.456  2.8748 -1.9989 -2.5252
  897MOL0     H23765   9.221   3.622   9.297  2.2330  2.1313  0.9511
  897MOL0     H23766   9.799   4.365   9.737 -2.5759 -1.6323 -1.3322
  897MOL0     H23767   9.869   4.590   9.809  0.6981  0.3091 -1.3300
  897MOL0     H23768  10.039   4.920   9.832  1.3607  0.7360 -1.9559
  897MOL0     H23769  10.064   5.112   9.984 -0.2447  0.1071  0.5367
  897MOL0     H23770   9.014   5.729  10.348  2.0179 -0.7394 -1.4283
  897MOL0     H23771   8.918   5.508  10.392  0.4624 -2.0675 -0.0178
  897MOL0     H23772   8.845   5.117  10.193  0.0402 -1.0981  0.8113
  897MOL0     H23773   8.799   4.899  10.261 -1.1427 -0.1570  1.1757
  897MOL0     H23774   8.345   4.805  10.340 -1.8141 -1.5198 -0.9435
  897MOL0     H23775   8.384   4.729  10.190 -0.4867 -1.3305  0.7837
  897MOL0     H23776   8.510   4.555  10.387  0.2402  1.0872  1.9811
  897MOL0     H23777   8.330   4.554  10.344 -0.7527  1.8669 -3.0350
  897MOL0     H23778   8.486   4.630  10.588 -3.8738  1.6461  5.1520
  897MOL0     H23779   8.402   4.761  10.536 -1.2900 -0.7126 -0.8736
  897MOL0     H23780   8.282   4.615  10.698 -0.2059 -2.3067  0.6603
  897MOL0     H23781   8.285   4.478  10.574  0.8714  0.3276 -2.1422
  897MOL0     H23782   7.979   4.721  10.421  0.9977  2.6473  1.9471
  897MOL0     H23783   8.378   5.003  10.271 -0.1292 -1.8390  0.7734
  897MOL0     H23784   8.301   5.199  10.171  1.4539 -2.5788 -0.4298
  897MOL0     H23785   8.392   5.331  10.221 -0.5309  1.8185 -1.9586
  897MOL0     H23786   8.416   5.259  10.056 -2.3944 -3.0781 -1.5160
  898MOL0     O23787   8.506  10.947   6.421 -0.2932 -0.3419  0.0778
  898MOL0     C23788   8.492  11.058   6.377  0.5828 -0.4400  0.3163
  898MOL0     O23789   8.369  11.111   6.339 -0.4062 -0.0236  0.6391
  898MOL0     C23790   8.246  11.065   6.363  0.1581  0.0551 -0.5430
  898MOL0     C23791   8.153  11.161   6.383  0.6960 -1.5538 -0.2460
  898MOL0     C23792   8.023  11.134   6.416  0.0755  0.3367  0.9513
  898MOL0     C23793   7.977  11.002   6.428  0.8317 -0.1810 -0.4043
  898MOL0     O23794   7.845  10.978   6.465 -0.4638  0.4681  0.0213
  898MOL0     C23795   7.829  10.990   6.611  0.0891  0.3195 -0.1149
  898MOL0     C23796   7.695  11.003   6.670  0.3089  0.3336  0.2057
  898MOL0     C23797   7.613  10.866   6.679  0.5903  0.0017  0.2268
  898MOL0     C23798   7.558  10.819   6.539  0.0502  1.2802  0.5184
  898MOL0     C23799   7.479  10.687   6.549  0.3536  0.0436  0.7246
  898MOL0     C23800   7.333  10.727   6.555 -0.8772 -0.5321  0.0509
  898MOL0     C23801   7.250  10.605   6.542  0.2837  0.2017  0.2304
  898MOL0     C23802   7.090  10.605   6.573  0.2582 -0.4856 -0.1886
  898MOL0     N23803   7.038  10.472   6.593  0.2875  0.6452 -0.4029
  898MOL0     C23804   6.921  10.432   6.532 -1.0639 -0.5656 -0.1148
  898MOL0     C23805   6.898  10.308   6.560 -1.1423  0.2711 -0.3542
  898MOL0     C23806   6.782  10.231   6.517  1.1472  0.0365 -0.2633
  898MOL0     C23807   6.650  10.263   6.592 -0.9530 -0.3365 -0.1755
  898MOL0     C23808   6.658  10.212   6.743  0.0658 -0.6403 -0.2867
  898MOL0     C23809   6.723  10.308   6.845 -0.8040 -0.9022  0.3116
  898MOL0     O23810   6.691  10.456   6.832  0.3005 -0.4544 -0.4687
  898MOL0     C23811   6.564  10.486   6.874 -0.0292 -1.5461  0.5438
  898MOL0     C23812   6.524  10.624   6.847  0.2313  0.1628 -0.3125
  898MOL0     C23813   6.390  10.676   6.878  0.4384  0.8894 -0.0314
  898MOL0     C23814   6.351  10.807   6.818 -0.5940 -0.4055 -0.1857
  898MOL0     C23815   6.301  10.589   6.953 -0.0011 -0.4782 -0.3626
  898MOL0     C23816   6.179  10.643   7.012 -0.3029 -0.3070 -0.2429
  898MOL0     O23817   6.079  10.548   7.017 -0.0777 -0.0254 -0.1817
  898MOL0     C23818   5.961  10.573   7.081  0.6997  0.5978 -0.3742
  898MOL0     C23819   5.851  10.642   7.029  0.3826 -0.4987  0.6966
  898MOL0     C23820   5.736  10.671   7.104  0.7598 -1.3372  0.1375
  898MOL0     C23821   5.716  10.602   7.220 -0.3901 -0.4150 -1.1919
  898MOL0     O23822   5.596  10.631   7.290 -1.0625 -0.2682 -1.0661
  898MOL0     C23823   5.540  10.544   7.391  0.4758  0.7483 -0.1719
  898MOL0     C23824   5.506  10.402   7.348 -0.1715 -0.3998 -0.1179
  898MOL0     C23825   5.482  10.390   7.197 -0.8320  0.4219 -0.7166
  898MOL0     C23826   5.435  10.248   7.161 -0.1334  0.0502  0.3882
  898MOL0     C23827   5.338  10.184   7.263  0.4968  1.2035 -0.8024
  898MOL0     C23828   5.285  10.054   7.207 -0.0656  0.2768 -0.0728
  898MOL0     C23829   5.257   9.949   7.333 -0.4614 -0.5786  0.4133
  898MOL0     C23830   5.189   9.818   7.276 -0.8242  0.6583 -0.6577
  898MOL0    Cl23831   5.271   9.773   7.119  0.1435 -0.1838 -0.3112
  898MOL0     C23832   5.812  10.518   7.269 -0.1979 -0.0396  0.9005
  898MOL0     C23833   5.937  10.513   7.205  0.4251 -0.5071 -0.4080
  898MOL0     O23834   6.157  10.757   7.045  0.6826 -0.4746 -0.3113
  898MOL0     C23835   6.344  10.457   6.982  0.1949 -0.2094  0.5368
  898MOL0     C23836   6.467  10.403   6.942  0.0769  0.4114 -0.2144
  898MOL0     N23837   7.001  10.260   6.649 -0.6576 -0.4047  0.6188
  898MOL0     N23838   7.079  10.359   6.666 -0.5323 -0.0852 -0.3718
  898MOL0     C23839   8.075  10.896   6.416  0.6042  0.2985 -0.0797
  898MOL0     C23840   8.206  10.929   6.379 -0.7693 -0.6054  0.8560
  898MOL0     C23841   8.614  11.139   6.359  0.3549 -1.1432 -0.5309
  898MOL0     C23842   8.594  11.273   6.325 -0.2163  0.1632  0.6755
  898MOL0     C23843   8.701  11.360   6.301  0.1367 -0.9661  0.3818
  898MOL0     C23844   8.828  11.325   6.316 -0.7176  0.1444 -0.4514
  898MOL0     O23845   8.926  11.423   6.301  0.0739 -0.0317  0.3289
  898MOL0     C23846   8.987  11.466   6.423  0.1066  0.0481  0.2072
  898MOL0     C23847   9.058  11.607   6.399 -0.3482  0.4993 -0.0920
  898MOL0     C23848   8.958  11.716   6.354 -0.6425 -0.0291 -0.5005
  898MOL0     C23849   9.017  11.863   6.355 -0.3912  0.0408  0.2179
  898MOL0     C23850   9.099  11.890   6.231  0.9818  0.0593  0.2559
  898MOL0     C23851   9.155  11.917   6.124  0.0885  0.0929  0.1446
  898MOL0     C23852   8.852  11.196   6.364 -0.1339 -0.1564 -0.2570
  898MOL0     C23853   8.748  11.107   6.389  0.2913  0.3365 -0.1534
  898MOL0     C23854   8.791  10.958   6.417 -0.0617 -0.3628  0.2337
  898MOL0     H23855   8.187  11.264   6.385  1.8437 -1.7938  4.6259
  898MOL0     H23856   7.958  11.216   6.446 -0.2600  0.3284  0.2576
  898MOL0     H23857   7.877  11.086   6.636  1.9463 -0.9006  1.2908
  898MOL0     H23858   7.875  10.900   6.651  0.5727  0.4568 -0.3522
  898MOL0     H23859   7.712  11.042   6.770  2.3604 -0.5716  0.2532
  898MOL0     H23860   7.637  11.083   6.623 -1.9457 -2.0731 -1.4132
  898MOL0     H23861   7.662  10.781   6.729 -2.9070 -1.9150  0.7269
  898MOL0     H23862   7.520  10.880   6.736 -0.8748  0.7649 -2.2375
  898MOL0     H23863   7.505  10.899   6.486  1.5313  1.2121 -1.1688
  898MOL0     H23864   7.639  10.806   6.466 -0.4896  2.2401 -0.2812
  898MOL0     H23865   7.524  10.636   6.634  0.3104  0.9050  1.2816
  898MOL0     H23866   7.496  10.625   6.460 -2.5037  1.0688 -0.6706
  898MOL0     H23867   7.315  10.782   6.647  0.8536  0.6904 -0.2927
  898MOL0     H23868   7.317  10.801   6.476  3.4300  0.3927 -0.1922
  898MOL0     H23869   7.286  10.530   6.613 -1.7699 -3.6902 -2.4669
  898MOL0     H23870   7.259  10.578   6.437  0.9312 -1.3704  0.6587
  898MOL0     H23871   7.061  10.648   6.669 -2.4156  1.0408 -1.5554
  898MOL0     H23872   7.030  10.664   6.503  1.8089  0.9921 -0.3415
  898MOL0     H23873   6.862  10.490   6.462  0.4791 -1.2795 -2.1093
  898MOL0     H23874   6.798  10.124   6.530 -1.4608 -0.8243 -2.8785
  898MOL0     H23875   6.781  10.242   6.408  0.5567  0.4435 -0.2241
  898MOL0     H23876   6.627  10.370   6.602  0.3597 -0.0531 -0.0456
  898MOL0     H23877   6.561  10.210   6.555 -1.1556 -1.3615  1.6957
  898MOL0     H23878   6.559  10.196   6.786  0.3994  2.6954  2.1386
  898MOL0     H23879   6.715  10.118   6.741  3.2198  1.1534 -1.2174
  898MOL0     H23880   6.709  10.271   6.947 -2.2650 -0.1607  0.4122
  898MOL0     H23881   6.830  10.302   6.824 -0.8913  0.5076 -0.6298
  898MOL0     H23882   6.611  10.677   6.809  0.8428 -0.1422  0.6313
  898MOL0     H23883   6.251  10.806   6.774 -2.2073  0.7741  3.1079
  898MOL0     H23884   6.420  10.836   6.738 -2.3289  2.3227 -0.8148
  898MOL0     H23885   6.382  10.890   6.881  2.5948 -1.3048 -0.4144
  898MOL0     H23886   5.852  10.691   6.931 -2.4013  1.2606  1.4372
  898MOL0     H23887   5.658  10.735   7.065  0.4809 -0.4400  2.0710
  898MOL0     H23888   5.608  10.536   7.476 -1.0465 -4.6073  0.9181
  898MOL0     H23889   5.454  10.595   7.436  0.8180  1.2014 -0.0285
  898MOL0     H23890   5.593  10.340   7.370  1.5034  1.9517  0.2993
  898MOL0     H23891   5.424  10.368   7.412  0.8536 -0.0130  1.4498
  898MOL0     H23892   5.576  10.402   7.143  0.2523 -0.1732  0.9685
  898MOL0     H23893   5.399  10.459   7.177 -1.0524  0.0378 -1.1420
  898MOL0     H23894   5.523  10.183   7.151 -1.0014 -1.0837 -0.0667
  898MOL0     H23895   5.399  10.249   7.058 -1.9428 -0.9129  0.9598
  898MOL0     H23896   5.389  10.173   7.359  0.3931  2.0468 -0.6394
  898MOL0     H23897   5.252  10.246   7.292 -1.4891 -2.3502  1.7743
  898MOL0     H23898   5.378  10.020   7.159  0.7660 -0.6179  2.0455
  898MOL0     H23899   5.200  10.067   7.139  1.1323  0.7293 -1.5523
  898MOL0     H23900   5.184   9.982   7.407 -0.5879 -0.1501  0.1007
  898MOL0     H23901   5.355   9.925   7.376  1.2542  0.5466 -2.5130
  898MOL0     H23902   5.081   9.828   7.262 -2.0101  1.6618  5.9958
  898MOL0     H23903   5.193   9.736   7.347 -0.7122  0.3018 -1.0701
  898MOL0     H23904   5.808  10.472   7.368 -1.3955 -0.0640  0.8534
  898MOL0     H23905   6.024  10.456   7.237 -0.6757 -1.4516  1.0172
  898MOL0     H23906   6.282  10.391   7.042  0.3614 -0.5120  0.3740
  898MOL0     H23907   6.497  10.303   6.972  0.5522  1.1842  2.0435
  898MOL0     H23908   8.039  10.794   6.430 -0.7625  0.3026 -2.7908
  898MOL0     H23909   8.263  10.838   6.359 -1.0005 -0.4715 -0.4914
  898MOL0     H23910   8.498  11.324   6.320  0.8994  2.2818 -3.3095
  898MOL0     H23911   8.695  11.464   6.270  5.0350 -0.3531  0.6433
  898MOL0     H23912   8.918  11.474   6.507 -0.7115 -1.3417 -0.3032
  898MOL0     H23913   9.059  11.391   6.456 -1.8203 -1.6774  0.6942
  898MOL0     H23914   9.139  11.591   6.327 -1.7903 -3.2585 -1.1191
  898MOL0     H23915   9.102  11.638   6.495  0.5637  1.2444 -0.7363
  898MOL0     H23916   8.951  11.702   6.246  3.8422  3.1420 -1.5030
  898MOL0     H23917   8.863  11.692   6.403 -0.5992  0.9302  0.0897
  898MOL0     H23918   9.060  11.891   6.452 -3.2409 -1.2438  1.9791
  898MOL0     H23919   8.928  11.925   6.347 -1.0647 -0.9084  0.1822
  898MOL0     H23920   9.207  11.952   6.038 -0.7863  2.8108  0.6114
  898MOL0     H23921   8.955  11.166   6.379 -0.8044 -2.4487  0.1008
  898MOL0     H23922   8.756  10.934   6.518 -4.5165  2.4962 -0.3346
  898MOL0     H23923   8.758  10.885   6.343  0.3134  0.1058 -0.4045
  898MOL0     H23924   8.899  10.948   6.422 -0.2031 -2.4023 -0.0390
  899MOL0     O23925   6.704  11.561   2.002 -0.2394 -0.3078  0.1717
  899MOL0     C23926   6.800  11.489   1.991  1.2238  0.9998 -0.7858
  899MOL0     O23927   6.875  11.482   1.876  0.6620  0.1321  0.1263
  899MOL0     C23928   6.809  11.524   1.762  0.4189 -0.0487  0.0999
  899MOL0     C23929   6.863  11.624   1.684 -0.5832 -0.6254 -0.6400
  899MOL0     C23930   6.803  11.666   1.563 -0.2317  0.2763 -0.9084
  899MOL0     C23931   6.682  11.607   1.521  0.7585  1.1824  0.3998
  899MOL0     O23932   6.627  11.639   1.398  0.5855  0.0130 -0.0890
  899MOL0     C23933   6.570  11.773   1.391  0.5140  0.0332  0.4693
  899MOL0     C23934   6.470  11.784   1.272 -0.3531 -0.3256  0.0249
  899MOL0     C23935   6.382  11.662   1.253  0.2153 -0.3777  0.2743
  899MOL0     C23936   6.276  11.641   1.369  0.7312 -0.1168 -0.0753
  899MOL0     C23937   6.186  11.520   1.341  0.8462 -0.3864  0.7336
  899MOL0     C23938   6.131  11.506   1.194  0.0448  0.0541  0.0119
  899MOL0     C23939   6.032  11.382   1.176  0.4912 -0.6231  0.3119
  899MOL0     C23940   5.882  11.414   1.200 -0.7909 -0.0197  0.1126
  899MOL0     N23941   5.801  11.294   1.162  1.0348 -0.7933  0.2774
  899MOL0     C23942   5.720  11.285   1.046  0.4115  0.4839  0.2314
  899MOL0     C23943   5.687  11.152   1.036  1.0305 -0.4032  1.4249
  899MOL0     C23944   5.613  11.086   0.926  1.5590 -0.0734  0.6410
  899MOL0     C23945   5.460  11.112   0.900  0.0618 -0.6487  0.0147
  899MOL0     C23946   5.426  11.247   0.827 -0.5885  0.2169 -0.4052
  899MOL0     C23947   5.291  11.236   0.755  0.0556 -0.5936 -1.1164
  899MOL0     O23948   5.189  11.184   0.846 -0.0794  0.2400 -0.4424
  899MOL0     C23949   5.113  11.274   0.922 -0.8427 -0.6091  0.0409
  899MOL0     C23950   5.037  11.226   1.024  0.4627  0.7968  0.2871
  899MOL0     C23951   4.982  11.296   1.133  0.2410 -0.3065  0.9136
  899MOL0     C23952   4.928  11.212   1.240 -0.6673  0.0575  0.2981
  899MOL0     C23953   4.964  11.433   1.109 -0.5240  0.0982 -0.2967
  899MOL0     C23954   4.887  11.519   1.203  0.5569  0.0092  0.2965
  899MOL0     O23955   4.877  11.654   1.169  0.6600  0.8830  0.7098
  899MOL0     C23956   4.816  11.754   1.247 -0.7678 -0.8990 -0.5417
  899MOL0     C23957   4.846  11.883   1.196  0.1226  0.4272 -0.0631
  899MOL0     C23958   4.815  12.000   1.263 -0.0256 -1.6238  0.4295
  899MOL0     C23959   4.750  12.002   1.383 -0.3467 -0.9804 -0.3996
  899MOL0     O23960   4.728  12.125   1.449 -0.1781  0.1066 -0.1440
  899MOL0     C23961   4.641  12.125   1.571  0.3830 -0.2515  0.5964
  899MOL0     C23962   4.636  12.255   1.655 -0.2311  0.6015  0.4181
  899MOL0     C23963   4.533  12.260   1.761  0.4649  0.2014 -1.0327
  899MOL0     C23964   4.580  12.175   1.878  0.6425  0.2779  0.0805
  899MOL0     C23965   4.480  12.152   1.986 -0.4679  0.0850  0.2894
  899MOL0     C23966   4.333  12.152   1.950  1.3644  0.1471  0.1787
  899MOL0     C23967   4.237  12.103   2.060  1.1143 -0.4727 -0.6592
  899MOL0     C23968   4.138  12.201   2.102 -0.6718  0.3298 -0.7320
  899MOL0    Cl23969   4.041  12.278   1.981  0.0844 -0.1712  0.0493
  899MOL0     C23970   4.703  11.880   1.427  1.0167  0.1150  0.3826
  899MOL0     C23971   4.735  11.759   1.360 -0.4818 -0.6236  0.0587
  899MOL0     O23972   4.833  11.477   1.304 -0.2518 -0.8326  0.9188
  899MOL0     C23973   5.027  11.495   0.997 -0.0860  0.3090  0.3622
  899MOL0     C23974   5.101  11.415   0.906 -0.1096 -0.6150 -0.1643
  899MOL0     N23975   5.740  11.086   1.146  0.7290  0.3710  0.6819
  899MOL0     N23976   5.799  11.170   1.224  0.2826  0.6082 -0.6869
  899MOL0     C23977   6.624  11.511   1.599 -1.0098  0.1924 -0.7983
  899MOL0     C23978   6.688  11.468   1.715  0.0229 -1.3374  0.3504
  899MOL0     C23979   6.833  11.381   2.105 -0.2823  0.0444 -0.0288
  899MOL0     C23980   6.795  11.409   2.237 -0.5392  0.3980  0.3965
  899MOL0     C23981   6.808  11.310   2.330 -0.1016  0.1815  0.7008
  899MOL0     C23982   6.852  11.183   2.304 -0.5688  0.3654 -0.0990
  899MOL0     O23983   6.840  11.092   2.406 -0.0617 -0.1062  0.2655
  899MOL0     C23984   6.711  11.054   2.457  0.4655 -0.5922  1.1535
  899MOL0     C23985   6.620  10.978   2.356 -0.1371 -0.1464 -0.8684
  899MOL0     C23986   6.523  11.076   2.291  0.1829  0.9624  0.0317
  899MOL0     C23987   6.510  11.035   2.148 -0.2654 -0.6244  0.8808
  899MOL0     C23988   6.443  11.149   2.073  0.1417  0.5689 -0.0840
  899MOL0     C23989   6.403  11.241   2.011  0.5472  0.2057 -0.0258
  899MOL0     C23990   6.901  11.152   2.181  0.5078  0.0812  0.9123
  899MOL0     C23991   6.882  11.249   2.075  1.7208  0.3299  0.2513
  899MOL0     C23992   6.916  11.187   1.935  0.2738  0.3168 -1.5201
  899MOL0     H23993   6.950  11.671   1.731 -1.6315 -0.8755  1.7078
  899MOL0     H23994   6.849  11.752   1.515  0.3681 -0.6653 -2.0881
  899MOL0     H23995   6.650  11.848   1.391  0.5266  0.0639 -1.1308
  899MOL0     H23996   6.501  11.780   1.476 -1.9259 -2.1752 -1.1761
  899MOL0     H23997   6.398  11.865   1.289 -1.0792 -0.3486 -2.5068
  899MOL0     H23998   6.535  11.803   1.186  1.0009  1.8416  1.4360
  899MOL0     H23999   6.326  11.684   1.162  1.0800 -2.5698 -0.8585
  899MOL0     H24000   6.446  11.581   1.217  0.7636  0.9766 -2.0163
  899MOL0     H24001   6.322  11.611   1.464 -5.3366 -5.5218  1.9073
  899MOL0     H24002   6.215  11.732   1.361 -0.9082 -1.2519 -0.9703
  899MOL0     H24003   6.097  11.517   1.405 -0.7298 -1.1806 -1.3583
  899MOL0     H24004   6.232  11.424   1.367 -1.1541 -1.4108  0.6948
  899MOL0     H24005   6.073  11.593   1.160 -0.6254 -0.2346  0.3783
  899MOL0     H24006   6.216  11.505   1.126 -0.6314  1.0412 -0.8825
  899MOL0     H24007   6.068  11.313   1.254 -2.9752 -0.5948  2.1127
  899MOL0     H24008   6.041  11.340   1.076  2.2972  1.5739 -0.5333
  899MOL0     H24009   5.864  11.454   1.300  0.2471  0.2025  0.2207
  899MOL0     H24010   5.866  11.491   1.125 -0.6360 -0.5275 -0.4519
  899MOL0     H24011   5.693  11.365   0.977 -0.1782  2.2688  2.4018
  899MOL0     H24012   5.617  10.979   0.948  3.0155 -0.1194  0.2362
  899MOL0     H24013   5.665  11.096   0.830 -1.6740  0.4985 -1.1892
  899MOL0     H24014   5.406  11.035   0.844  0.0914  0.9329 -2.3303
  899MOL0     H24015   5.412  11.114   0.998 -0.0516 -1.0124 -0.0331
  899MOL0     H24016   5.421  11.329   0.899  0.6924  0.5150 -0.6434
  899MOL0     H24017   5.505  11.280   0.759  1.0371 -2.4456  0.0720
  899MOL0     H24018   5.246  11.330   0.720 -1.3913 -0.8521 -0.0538
  899MOL0     H24019   5.295  11.184   0.659  2.0532 -1.8207 -0.4204
  899MOL0     H24020   5.032  11.118   1.035  1.1883  0.8770  1.5596
  899MOL0     H24021   4.820  11.202   1.226 -0.4261 -1.5495 -0.6231
  899MOL0     H24022   4.955  11.255   1.337 -0.2561 -0.8614  0.6071
  899MOL0     H24023   4.971  11.111   1.246  1.7563  1.0572  1.0777
  899MOL0     H24024   4.899  11.881   1.101  2.3385  0.9216  1.0799
  899MOL0     H24025   4.843  12.091   1.211  3.5476 -1.1978  2.7579
  899MOL0     H24026   4.545  12.091   1.532  1.4727 -1.0516 -1.5241
  899MOL0     H24027   4.674  12.043   1.636 -1.4917 -1.4106  0.1616
  899MOL0     H24028   4.739  12.265   1.690  0.4797 -0.1729 -1.3576
  899MOL0     H24029   4.628  12.336   1.583  0.4151  0.0150 -0.3322
  899MOL0     H24030   4.436  12.222   1.730  0.8699 -2.2448  0.4436
  899MOL0     H24031   4.517  12.363   1.796 -1.3874 -0.8465  1.4906
  899MOL0     H24032   4.675  12.214   1.916  0.2465  0.3808  0.9840
  899MOL0     H24033   4.597  12.074   1.839  0.4111  0.1423  0.3260
  899MOL0     H24034   4.511  12.068   2.049  0.6176  0.7781  0.7137
  899MOL0     H24035   4.494  12.237   2.053 -0.2417 -1.3214  2.1397
  899MOL0     H24036   4.313  12.084   1.866  0.1668  0.3028  0.3186
  899MOL0     H24037   4.300  12.253   1.924  0.7434  0.1317  0.8959
  899MOL0     H24038   4.295  12.065   2.145  1.8705 -1.6695 -1.6709
  899MOL0     H24039   4.188  12.012   2.025 -2.0465 -0.2424  2.5147
  899MOL0     H24040   4.186  12.287   2.150 -0.0427  0.9454 -2.4086
  899MOL0     H24041   4.076  12.159   2.182  0.9891 -1.7076 -0.4086
  899MOL0     H24042   4.648  11.867   1.520  0.5047 -1.1750 -0.0827
  899MOL0     H24043   4.697  11.660   1.386 -1.2798 -1.8022 -4.5305
  899MOL0     H24044   5.021  11.600   0.971 -0.9634 -0.1138 -1.3343
  899MOL0     H24045   5.132  11.469   0.817 -2.3994  2.3593  0.6634
  899MOL0     H24046   6.530  11.471   1.561 -1.8241 -2.3716  3.2903
  899MOL0     H24047   6.650  11.384   1.772 -3.1450 -0.9827 -1.0467
  899MOL0     H24048   6.751  11.505   2.261  1.2052  0.9508  1.5530
  899MOL0     H24049   6.783  11.318   2.435 -0.4973  0.8744  0.5555
  899MOL0     H24050   6.734  10.990   2.542  0.1490 -2.6409 -0.2244
  899MOL0     H24051   6.668  11.150   2.488  0.1106 -0.2816 -0.2275
  899MOL0     H24052   6.564  10.893   2.396 -3.0864  1.8141 -0.4631
  899MOL0     H24053   6.682  10.936   2.276  0.3295 -1.6946  0.2534
  899MOL0     H24054   6.430  11.079   2.348 -0.4479 -0.4888 -0.8528
  899MOL0     H24055   6.563  11.178   2.292 -1.4764  1.6726 -1.3464
  899MOL0     H24056   6.460  10.940   2.129 -2.9263 -0.3838  5.3896
  899MOL0     H24057   6.609  11.028   2.102 -1.1553  0.3539 -1.3164
  899MOL0     H24058   6.359  11.310   1.942  0.7162 -1.8602 -2.3687
  899MOL0     H24059   6.935  11.055   2.146 -1.3777  0.3773 -2.1027
  899MOL0     H24060   6.879  11.250   1.853  0.2037  1.1528 -0.8567
  899MOL0     H24061   7.025  11.188   1.923  0.2682 -0.0388 -1.6102
  899MOL0     H24062   6.872  11.086   1.934 -0.5910  0.4758  2.4982
  900MOL0     O24063   8.259  10.255  10.997 -1.2078 -0.2499  0.3469
  900MOL0     C24064   8.257  10.139  10.964 -0.8333  0.1877  0.1060
  900MOL0     O24065   8.173  10.041  11.011  0.5249  0.3368  0.9817
  900MOL0     C24066   8.062  10.083  11.084  0.2834  0.0769  0.0218
  900MOL0     C24067   7.936  10.035  11.045 -0.6999  0.5704  0.6883
  900MOL0     C24068   7.822  10.062  11.124  0.3008 -0.5188 -0.3228
  900MOL0     C24069   7.829  10.154  11.227  0.7839 -0.5208 -0.3774
  900MOL0     O24070   7.721  10.177  11.308  1.1143  1.6989 -0.3050
  900MOL0     C24071   7.741  10.147  11.444 -0.7235 -0.1316  0.7300
  900MOL0     C24072   7.607  10.106  11.499 -0.1686 -0.4904 -0.9745
  900MOL0     C24073   7.520  10.226  11.520 -0.6675 -0.3685  0.4115
  900MOL0     C24074   7.372  10.194  11.538 -0.3097  0.7025  0.5008
  900MOL0     C24075   7.282  10.325  11.546 -0.7512  0.5946 -0.6469
  900MOL0     C24076   7.272  10.383  11.684 -1.1371  0.5210  0.2854
  900MOL0     C24077   7.201  10.524  11.690 -0.8254  0.1604 -0.1347
  900MOL0     C24078   7.244  10.620  11.810 -0.0285  0.0919  0.0444
  900MOL0     N24079   7.393  10.622  11.848  1.1321  0.1254  0.1969
  900MOL0     C24080   7.497  10.665  11.765  0.7445 -0.4922  0.6912
  900MOL0     C24081   7.601  10.663  11.842  0.8321 -0.1503  0.2427
  900MOL0     C24082   7.748  10.695  11.803  0.4903  0.9777 -0.9975
  900MOL0     C24083   7.799  10.597  11.699  0.0712 -0.4395  0.3778
  900MOL0     C24084   7.936  10.646  11.644  0.8041 -0.4223  0.5066
  900MOL0     C24085   8.010  10.534  11.566  0.6813 -0.6377  0.5598
  900MOL0     O24086   8.003  10.414  11.643  0.2629  0.3430  0.6644
  900MOL0     C24087   8.080  10.308  11.621 -0.0984  0.7232  0.2583
  900MOL0     C24088   8.058  10.199  11.710  0.5048  0.5466  0.0799
  900MOL0     C24089   8.144  10.091  11.701  0.2900 -0.1777  0.6455
  900MOL0     C24090   8.114   9.981  11.796  0.7319  0.9477 -0.5893
  900MOL0     C24091   8.253  10.079  11.611  0.8520  0.5823 -0.1544
  900MOL0     C24092   8.332   9.951  11.582  0.7243  0.6983 -1.5514
  900MOL0     O24093   8.343   9.866  11.687 -0.2484  0.5548  0.3516
  900MOL0     C24094   8.361   9.735  11.651  0.2121  0.5443 -1.0311
  900MOL0     C24095   8.491   9.685  11.617 -0.4930 -0.2369  0.3220
  900MOL0     C24096   8.524   9.558  11.586 -0.3343 -0.0490  0.5702
  900MOL0     C24097   8.424   9.456  11.593  0.8559 -0.6821  0.3641
  900MOL0     O24098   8.461   9.323  11.576  0.1948  0.1245 -0.4098
  900MOL0     C24099   8.377   9.236  11.647  0.3105  0.8960  0.5914
  900MOL0     C24100   8.421   9.097  11.616 -0.0108 -0.5011 -0.0594
  900MOL0     C24101   8.329   9.004  11.704  0.6909  0.6475  0.5771
  900MOL0     C24102   8.358   8.854  11.679 -0.4449  0.4060 -0.5244
  900MOL0     C24103   8.291   8.753  11.773 -0.7640  0.0357 -0.7342
  900MOL0     C24104   8.335   8.619  11.736  0.2341 -0.6154 -0.1120
  900MOL0     C24105   8.293   8.507  11.832  0.6868 -0.6869  0.4446
  900MOL0     C24106   8.325   8.371  11.768 -0.4657 -0.4622 -0.3879
  900MOL0    Cl24107   8.204   8.341  11.651  0.0115  0.6569  0.0452
  900MOL0     C24108   8.293   9.505  11.620  0.2155 -0.4463  0.2048
  900MOL0     C24109   8.257   9.636  11.648 -0.1843  0.4795  0.4256
  900MOL0     O24110   8.384   9.934  11.476 -0.0488  0.1974 -0.0255
  900MOL0     C24111   8.264  10.187  11.530  0.6580 -1.0976  1.1606
  900MOL0     C24112   8.186  10.300  11.534  0.6435 -0.8026  0.1697
  900MOL0     N24113   7.561  10.625  11.970  0.0021  0.5225 -0.3573
  900MOL0     N24114   7.435  10.610  11.979  0.6926  0.5211 -0.0053
  900MOL0     C24115   7.942  10.212  11.258  0.1660 -0.6087 -0.2702
  900MOL0     C24116   8.060  10.177  11.191 -1.0201  1.0632 -0.8212
  900MOL0     C24117   8.359  10.087  10.871 -0.1770 -0.0525  1.4783
  900MOL0     C24118   8.410   9.955  10.880 -0.0329  1.1031 -0.7065
  900MOL0     C24119   8.476   9.892  10.765 -0.5031  0.2820  0.1149
  900MOL0     C24120   8.488   9.959  10.647  0.4056 -0.2069 -0.3608
  900MOL0     O24121   8.563   9.900  10.545 -0.5225 -0.8745  0.5330
  900MOL0     C24122   8.594   9.973  10.427 -0.1394  0.3986  0.1385
  900MOL0     C24123   8.680   9.877  10.335  0.4396  0.2097 -0.7529
  900MOL0     C24124   8.718   9.956  10.209 -0.3910  0.6154 -0.5188
  900MOL0     C24125   8.803   9.865  10.117  0.1623 -0.1843  0.3024
  900MOL0     C24126   8.800   9.922   9.983  0.1585 -0.2232  0.4639
  900MOL0     C24127   8.794   9.983   9.882  0.7919 -0.1114 -0.0214
  900MOL0     C24128   8.443  10.090  10.637 -0.2179  0.3460 -0.2821
  900MOL0     C24129   8.389  10.156  10.751  0.2163 -0.2077  0.4814
  900MOL0     C24130   8.353  10.307  10.737 -0.5328  0.2455 -0.2770
  900MOL0     H24131   7.940   9.968  10.959  0.3470 -2.0456  2.6514
  900MOL0     H24132   7.725  10.016  11.111 -0.3930 -0.6558  3.8637
  900MOL0     H24133   7.780  10.235  11.496 -1.2242 -0.1447  1.1333
  900MOL0     H24134   7.813  10.064  11.449 -1.0178 -0.4105  0.4340
  900MOL0     H24135   7.555  10.028  11.442 -1.2432 -0.3306 -0.2597
  900MOL0     H24136   7.631  10.057  11.594 -1.2712 -2.3310 -1.5881
  900MOL0     H24137   7.542  10.268  11.619 -0.0831  0.9853 -0.2675
  900MOL0     H24138   7.532  10.295  11.437  0.4647 -2.7860 -1.5669
  900MOL0     H24139   7.336  10.139  11.450  0.9244 -1.5015  1.2898
  900MOL0     H24140   7.360  10.134  11.629 -0.2327  1.1896  0.8334
  900MOL0     H24141   7.183  10.296  11.512 -0.2301 -5.3055  1.6634
  900MOL0     H24142   7.324  10.393  11.471 -0.8427  1.5465  0.1406
  900MOL0     H24143   7.221  10.306  11.742  0.4413  0.8469  2.2161
  900MOL0     H24144   7.370  10.397  11.731 -1.1303  2.3198 -0.1861
  900MOL0     H24145   7.093  10.522  11.673 -1.2570  4.7522  0.8168
  900MOL0     H24146   7.242  10.565  11.597  3.0138  3.6737  2.7558
  900MOL0     H24147   7.205  10.720  11.788 -1.1854 -0.6760 -1.6476
  900MOL0     H24148   7.201  10.609  11.910 -1.4697 -2.2817 -0.7652
  900MOL0     H24149   7.495  10.681  11.657 -3.3040  0.2345  0.7022
  900MOL0     H24150   7.809  10.681  11.892  0.9626 -1.2417 -1.6200
  900MOL0     H24151   7.759  10.799  11.769  3.7769 -0.3018 -4.5400
  900MOL0     H24152   7.821  10.499  11.743  1.7922 -1.0031 -1.5748
  900MOL0     H24153   7.728  10.580  11.617 -2.7407 -0.0387  2.5948
  900MOL0     H24154   7.924  10.733  11.578 -0.4513 -0.5479  0.5457
  900MOL0     H24155   8.002  10.669  11.728 -0.2211 -0.7145  1.4018
  900MOL0     H24156   7.968  10.530  11.465  3.0783  0.6587 -0.5807
  900MOL0     H24157   8.115  10.563  11.552  0.9087 -2.3461 -1.8948
  900MOL0     H24158   7.981  10.197  11.786 -1.0333 -3.0078 -1.3257
  900MOL0     H24159   8.021   9.999  11.850  0.4530 -2.8683  0.4784
  900MOL0     H24160   8.195   9.975  11.870  1.7541  4.2394 -1.2752
  900MOL0     H24161   8.086   9.886  11.749 -1.9855  0.4359  1.8239
  900MOL0     H24162   8.572   9.757  11.617 -1.1263  0.5199  1.4603
  900MOL0     H24163   8.624   9.526  11.558 -0.9154 -3.1704  1.7344
  900MOL0     H24164   8.393   9.249  11.755 -0.8901  1.0598  0.7667
  900MOL0     H24165   8.270   9.248  11.626 -0.4274  0.5138  3.6472
  900MOL0     H24166   8.418   9.085  11.507  2.1433  1.1316 -0.3502
  900MOL0     H24167   8.521   9.088  11.658 -0.2046 -1.9373  0.1707
  900MOL0     H24168   8.223   9.023  11.688  0.8867  1.0579 -0.3541
  900MOL0     H24169   8.342   9.032  11.809  0.4406  1.6974  0.3406
  900MOL0     H24170   8.467   8.852  11.685 -0.4518 -0.1517 -0.5432
  900MOL0     H24171   8.331   8.814  11.581 -0.3555  0.4209 -0.5546
  900MOL0     H24172   8.334   8.779  11.870 -0.8785 -0.4721 -0.5427
  900MOL0     H24173   8.183   8.754  11.787 -0.7159 -3.2092  0.8536
  900MOL0     H24174   8.442   8.619  11.715  0.5216 -1.9604  1.1777
  900MOL0     H24175   8.290   8.599  11.639 -0.6975  1.3572 -0.1367
  900MOL0     H24176   8.186   8.510  11.856  0.8872  3.1186  1.6291
  900MOL0     H24177   8.342   8.527  11.929  0.6125  2.3963 -0.0339
  900MOL0     H24178   8.307   8.291  11.841 -1.8003  1.5001  1.5675
  900MOL0     H24179   8.423   8.371  11.721  1.3580 -1.7473  3.0063
  900MOL0     H24180   8.220   9.425  11.623  0.6298 -0.8609 -0.4200
  900MOL0     H24181   8.152   9.659  11.662  0.2550  1.4145  2.7639
  900MOL0     H24182   8.340  10.189  11.452 -2.0430  0.5013 -1.6702
  900MOL0     H24183   8.204  10.387  11.471 -0.9668 -0.8542 -0.4208
  900MOL0     H24184   7.947  10.279  11.343 -0.2952  1.0588 -1.4982
  900MOL0     H24185   8.150  10.228  11.224 -0.7227 -0.4120  0.7511
  900MOL0     H24186   8.388   9.906  10.974 -2.2757  3.2338  0.0079
  900MOL0     H24187   8.520   9.793  10.769  1.5609  1.1382 -0.5196
  900MOL0     H24188   8.509  10.009  10.370 -1.6355 -2.0182  0.6812
  900MOL0     H24189   8.658  10.055  10.461 -1.5124  0.1911  3.6840
  900MOL0     H24190   8.627   9.782  10.329  1.8962 -0.6228 -1.0391
  900MOL0     H24191   8.772   9.861  10.392 -0.9515  0.9215  1.8520
  900MOL0     H24192   8.622   9.982  10.163 -1.5592 -0.9169  0.9404
  900MOL0     H24193   8.765  10.053  10.230 -1.4516  0.9386  0.4607
  900MOL0     H24194   8.749   9.770  10.113  0.3392 -0.2635 -2.7267
  900MOL0     H24195   8.903   9.863  10.160  0.5909  4.9774  0.1705
  900MOL0     H24196   8.780  10.033   9.789  0.6052 -0.9568 -0.4597
  900MOL0     H24197   8.448  10.149  10.546  0.5363 -0.1767 -0.5871
  900MOL0     H24198   8.398  10.330  10.640  1.3862  0.1861  0.5445
  900MOL0     H24199   8.245  10.310  10.721 -0.1214 -0.7596 -4.5004
  900MOL0     H24200   8.387  10.374  10.817  2.3549 -2.4575  0.9871
  901MOL0     O24201   3.287   6.308   1.136  0.2657  1.0477  0.2873
  901MOL0     C24202   3.325   6.319   1.253 -0.3556 -0.7485 -0.2775
  901MOL0     O24203   3.419   6.240   1.311  0.5655  0.2545  0.0190
  901MOL0     C24204   3.441   6.113   1.252  0.4383  0.1701  0.6148
  901MOL0     C24205   3.573   6.083   1.209 -0.0339  0.1872 -0.0330
  901MOL0     C24206   3.604   5.968   1.154  0.0801 -0.2205 -0.0865
  901MOL0     C24207   3.517   5.872   1.134  0.1973  1.0918  1.3654
  901MOL0     O24208   3.550   5.756   1.071 -0.6009  0.6262  0.4290
  901MOL0     C24209   3.672   5.750   0.993  0.7342  0.8249  1.0322
  901MOL0     C24210   3.642   5.638   0.893 -0.0927 -0.1352  0.3364
  901MOL0     C24211   3.522   5.660   0.793  0.4894 -0.2439  0.5599
  901MOL0     C24212   3.516   5.552   0.684  0.4537  0.7711  0.6823
  901MOL0     C24213   3.394   5.564   0.603  0.7982  0.3920 -0.4169
  901MOL0     C24214   3.384   5.681   0.526 -0.2987  0.1771  0.0855
  901MOL0     C24215   3.281   5.692   0.421 -0.3432  0.6893  0.1555
  901MOL0     C24216   3.286   5.815   0.334 -0.3286 -0.4381 -0.8149
  901MOL0     N24217   3.198   5.786   0.221 -0.1739 -0.8132 -0.5908
  901MOL0     C24218   3.079   5.858   0.196  0.0053 -0.1400  0.4331
  901MOL0     C24219   3.044   5.808   0.074  0.3785  1.0335 -0.8586
  901MOL0     C24220   2.914   5.834   0.002 -0.7007 -1.0245 -0.6029
  901MOL0     C24221   2.809   5.733   0.039 -0.0083 -0.0928  0.4967
  901MOL0     C24222   2.689   5.755  -0.057  0.5164  0.0846 -1.2531
  901MOL0     C24223   2.566   5.673  -0.014  0.1323 -0.3911 -0.4581
  901MOL0     O24224   2.450   5.672  -0.090 -0.0956 -0.1854 -0.3711
  901MOL0     C24225   2.475   5.622  -0.217  1.1523  0.2455 -1.1783
  901MOL0     C24226   2.509   5.699  -0.322  0.1807 -0.1915 -0.4235
  901MOL0     C24227   2.542   5.653  -0.445 -0.3104 -0.4998 -0.7341
  901MOL0     C24228   2.629   5.744  -0.542  1.4712  0.0090 -0.3250
  901MOL0     C24229   2.519   5.517  -0.478 -0.3278  0.5913 -0.5078
  901MOL0     C24230   2.527   5.465  -0.620  0.2776  0.6005  0.3253
  901MOL0     O24231   2.586   5.536  -0.726  0.3899  0.2752  0.4697
  901MOL0     C24232   2.582   5.484  -0.850 -0.3037  0.5420 -0.0405
  901MOL0     C24233   2.478   5.513  -0.936 -0.2579  0.2736  0.0933
  901MOL0     C24234   2.468   5.469  -1.067 -0.1258  0.5176  0.3828
  901MOL0     C24235   2.564   5.381  -1.109 -0.6481  0.1375 -0.1663
  901MOL0     O24236   2.537   5.319  -1.226 -0.1267 -0.2903  0.0906
  901MOL0     C24237   2.648   5.303  -1.319 -0.1506  1.4953 -0.4856
  901MOL0     C24238   2.614   5.252  -1.461  0.6314 -0.3668 -0.1920
  901MOL0     C24239   2.567   5.106  -1.467 -0.3793 -0.2554 -0.2351
  901MOL0     C24240   2.565   5.057  -1.614 -0.7069  0.1612  0.5152
  901MOL0     C24241   2.597   4.909  -1.635 -0.4806  0.8262  0.2326
  901MOL0     C24242   2.499   4.818  -1.558 -0.3546 -0.6221  0.5549
  901MOL0     C24243   2.515   4.675  -1.604  0.3101  0.8368  0.4342
  901MOL0     C24244   2.389   4.600  -1.561 -0.2074 -0.3014 -0.6488
  901MOL0    Cl24245   2.447   4.423  -1.580  0.0876 -0.2737 -0.5302
  901MOL0     C24246   2.674   5.343  -1.021 -0.3944  0.5034 -0.2692
  901MOL0     C24247   2.687   5.395  -0.896 -0.4436  0.4727  0.3934
  901MOL0     O24248   2.489   5.345  -0.628 -0.4724  0.2774 -0.4741
  901MOL0     C24249   2.480   5.435  -0.366 -1.1513 -0.0076 -0.2657
  901MOL0     C24250   2.464   5.486  -0.234  1.1873 -0.3926  0.5656
  901MOL0     N24251   3.133   5.710   0.037  0.1184 -0.6335 -0.2329
  901MOL0     N24252   3.225   5.700   0.120 -0.3040 -0.2431  1.0943
  901MOL0     C24253   3.386   5.897   1.159 -0.9725 -0.0496  0.1243
  901MOL0     C24254   3.344   6.014   1.223  0.0362  0.7984  0.5846
  901MOL0     C24255   3.264   6.433   1.331  0.6155 -0.1102  0.8411
  901MOL0     C24256   3.330   6.466   1.446  1.4955 -0.2084 -0.0926
  901MOL0     C24257   3.264   6.539   1.540 -0.1159  0.3074 -0.5465
  901MOL0     C24258   3.146   6.617   1.502  0.1338 -0.6187 -0.4268
  901MOL0     O24259   3.111   6.709   1.592  0.6909  0.4086 -0.3461
  901MOL0     C24260   3.066   6.666   1.712 -0.4976  0.2742  0.1422
  901MOL0     C24261   3.043   6.788   1.801  0.6490 -0.1522  1.1179
  901MOL0     C24262   3.161   6.891   1.806 -0.4989  0.7476  0.0700
  901MOL0     C24263   3.276   6.868   1.913 -0.9142 -0.0544 -0.2052
  901MOL0     C24264   3.378   6.768   1.868  0.1899  0.2220  0.3230
  901MOL0     C24265   3.454   6.685   1.811 -0.3778 -0.7002  0.6239
  901MOL0     C24266   3.102   6.606   1.372  0.0492 -0.7283 -0.1678
  901MOL0     C24267   3.151   6.512   1.284 -0.7739  1.1684 -0.1040
  901MOL0     C24268   3.075   6.485   1.158 -0.1316  0.3137  0.1032
  901MOL0     H24269   3.653   6.154   1.232  1.3436 -1.7996  1.6348
  901MOL0     H24270   3.711   5.952   1.142  0.8336  1.3548  3.4378
  901MOL0     H24271   3.767   5.745   1.048  2.0651 -0.6483 -1.2525
  901MOL0     H24272   3.668   5.835   0.924  2.9237  0.3999  0.2863
  901MOL0     H24273   3.737   5.629   0.839 -1.3982 -0.1099 -2.1527
  901MOL0     H24274   3.620   5.543   0.942  0.4015 -1.1866 -1.3731
  901MOL0     H24275   3.427   5.661   0.848 -1.3292 -2.7415 -2.2472
  901MOL0     H24276   3.522   5.757   0.742 -2.2011  1.3828  3.2810
  901MOL0     H24277   3.602   5.561   0.617  0.5284 -1.8733  0.3080
  901MOL0     H24278   3.520   5.452   0.728 -3.2819 -0.4652 -1.3169
  901MOL0     H24279   3.303   5.556   0.663 -0.2719 -2.5103 -2.2126
  901MOL0     H24280   3.390   5.479   0.534 -2.3124 -0.1652  0.3006
  901MOL0     H24281   3.363   5.762   0.596 -2.2508 -0.2124  0.0074
  901MOL0     H24282   3.479   5.697   0.473  0.4533 -2.2827  0.5528
  901MOL0     H24283   3.179   5.692   0.461 -1.1807 -0.9517 -1.8023
  901MOL0     H24284   3.283   5.603   0.358  0.8221  0.6562  0.2097
  901MOL0     H24285   3.246   5.907   0.378  1.2783  1.3833 -2.9402
  901MOL0     H24286   3.388   5.838   0.303 -0.8400  3.1177 -0.3367
  901MOL0     H24287   3.024   5.932   0.254 -3.2885 -1.2365 -1.0212
  901MOL0     H24288   2.923   5.846  -0.106  0.0261 -1.5337 -0.6073
  901MOL0     H24289   2.886   5.935   0.032  1.4311  0.1369 -2.2483
  901MOL0     H24290   2.848   5.632   0.022  0.1032  0.0376 -0.0546
  901MOL0     H24291   2.786   5.753   0.144 -2.7146  2.1062 -0.3871
  901MOL0     H24292   2.657   5.859  -0.054 -2.4002 -0.6879  2.2673
  901MOL0     H24293   2.711   5.730  -0.161 -0.6379  2.1859 -2.0604
  901MOL0     H24294   2.596   5.568  -0.005 -1.4816 -0.8495 -0.1911
  901MOL0     H24295   2.542   5.717   0.083  0.4683 -1.2257  0.0153
  901MOL0     H24296   2.528   5.803  -0.297  0.8292 -0.6381  1.0504
  901MOL0     H24297   2.653   5.832  -0.482 -3.0233  2.8539 -2.1304
  901MOL0     H24298   2.564   5.782  -0.621  3.0839  0.7635 -1.3417
  901MOL0     H24299   2.712   5.686  -0.583  0.0096 -3.5570  1.3385
  901MOL0     H24300   2.400   5.576  -0.894  2.2158  3.3158  0.4393
  901MOL0     H24301   2.388   5.494  -1.136  0.5822 -2.3989 -1.6775
  901MOL0     H24302   2.699   5.399  -1.334  0.4707  1.6598  2.0880
  901MOL0     H24303   2.720   5.230  -1.280  1.4284  2.4267 -1.5379
  901MOL0     H24304   2.521   5.302  -1.488 -0.3291 -2.0835 -0.2354
  901MOL0     H24305   2.705   5.265  -1.519  0.7056 -3.3646 -0.9155
  901MOL0     H24306   2.473   5.081  -1.418 -0.3836 -6.2925 -2.4993
  901MOL0     H24307   2.636   5.039  -1.415 -1.0873 -0.5978  0.2772
  901MOL0     H24308   2.632   5.113  -1.680 -1.9942  0.9424 -0.1779
  901MOL0     H24309   2.466   5.073  -1.657  0.7240  2.3239 -2.3183
  901MOL0     H24310   2.582   4.892  -1.742 -0.3816 -1.9388  0.5741
  901MOL0     H24311   2.702   4.891  -1.608 -0.3662  0.1676 -0.6245
  901MOL0     H24312   2.400   4.858  -1.582  0.2761  0.8106  0.2214
  901MOL0     H24313   2.520   4.825  -1.451  2.6561  0.0258  0.0287
  901MOL0     H24314   2.598   4.632  -1.548 -1.1092  1.3412  3.0815
  901MOL0     H24315   2.527   4.666  -1.712  2.6959 -2.4497  0.8159
  901MOL0     H24316   2.305   4.631  -1.624  1.1165  0.3755 -2.1597
  901MOL0     H24317   2.354   4.614  -1.458 -1.2463 -1.5994 -0.8005
  901MOL0     H24318   2.746   5.266  -1.045 -2.4060 -0.7640 -2.8412
  901MOL0     H24319   2.772   5.369  -0.834  1.9788  0.0910 -2.8312
  901MOL0     H24320   2.479   5.330  -0.391  2.6673 -0.3365  0.3387
  901MOL0     H24321   2.423   5.421  -0.157 -1.8551  3.0103  2.1345
  901MOL0     H24322   3.314   5.821   1.128 -1.9678  0.9133  0.0196
  901MOL0     H24323   3.241   6.033   1.250 -1.1803 -0.4455 -2.7916
  901MOL0     H24324   3.402   6.392   1.479 -0.4984 -1.2743  2.2439
  901MOL0     H24325   3.311   6.546   1.638  2.6743 -0.5525 -1.7388
  901MOL0     H24326   2.965   6.625   1.700 -2.2623  2.8027  4.0567
  901MOL0     H24327   3.131   6.586   1.750 -0.2629  0.5331  0.2951
  901MOL0     H24328   3.023   6.758   1.904 -3.2118  0.8136  0.8072
  901MOL0     H24329   2.954   6.839   1.764  1.2229  1.6182  2.0698
  901MOL0     H24330   3.205   6.902   1.707  2.3466  0.3250  1.1836
  901MOL0     H24331   3.118   6.989   1.831  0.8475  1.9260 -1.9494
  901MOL0     H24332   3.243   6.855   2.017  0.3048  3.1843  0.7074
  901MOL0     H24333   3.327   6.964   1.925 -2.9438  1.3301 -1.8386
  901MOL0     H24334   3.534   6.649   1.750 -1.5346 -1.0311 -0.7660
  901MOL0     H24335   3.020   6.672   1.347 -1.3315 -1.2021  2.6794
  901MOL0     H24336   2.995   6.557   1.136 -0.2370  0.2732  0.3546
  901MOL0     H24337   3.139   6.492   1.069  1.2819 -3.1681  0.6892
  901MOL0     H24338   3.018   6.392   1.156  0.1169  0.1396 -2.0479
  902MOL0     O24339   7.847  10.954   2.486 -0.3612 -0.4329 -0.0029
  902MOL0     C24340   7.851  11.076   2.521  0.8453 -0.2567  0.3604
  902MOL0     O24341   7.839  11.181   2.436 -0.1274 -0.5756 -0.4811
  902MOL0     C24342   7.801  11.150   2.309  0.6749 -1.8971 -0.1833
  902MOL0     C24343   7.667  11.135   2.285  0.5142 -0.5606 -0.3558
  902MOL0     C24344   7.630  11.122   2.153 -0.6082  0.4670 -1.0221
  902MOL0     C24345   7.709  11.119   2.041  0.1330 -0.2205  0.1946
  902MOL0     O24346   7.658  11.098   1.917  0.3516  0.3044  1.0311
  902MOL0     C24347   7.720  11.164   1.801  0.1264  0.7008  0.3367
  902MOL0     C24348   7.828  11.068   1.740  1.3128 -1.1521  0.1180
  902MOL0     C24349   7.896  11.113   1.612  1.0451 -0.1342 -0.2299
  902MOL0     C24350   8.028  11.034   1.602  0.7601 -0.1984  0.1720
  902MOL0     C24351   8.108  11.081   1.479 -1.2251  0.9825 -0.1668
  902MOL0     C24352   8.214  11.176   1.542 -0.3434  0.3006  1.1897
  902MOL0     C24353   8.304  11.247   1.440  0.3292  0.0360 -1.1518
  902MOL0     C24354   8.410  11.161   1.375 -0.3154 -0.7706  0.1072
  902MOL0     N24355   8.520  11.136   1.463  0.1540 -0.0801 -0.2130
  902MOL0     C24356   8.606  11.226   1.504  1.0887  0.0975 -0.0214
  902MOL0     C24357   8.692  11.153   1.578  0.5936  0.1340 -0.4753
  902MOL0     C24358   8.805  11.201   1.654 -0.2931  0.0578 -0.5605
  902MOL0     C24359   8.945  11.118   1.615  0.8300 -0.6989 -0.1181
  902MOL0     C24360   9.009  11.170   1.496 -0.1770 -0.6237 -0.0170
  902MOL0     C24361   9.129  11.083   1.448 -0.5107 -0.5311  0.1695
  902MOL0     O24362   9.187  11.123   1.325 -0.2820  0.6204 -0.6398
  902MOL0     C24363   9.308  11.185   1.341  0.3126 -0.8568 -0.2909
  902MOL0     C24364   9.336  11.305   1.269 -0.0811 -0.4505 -0.7095
  902MOL0     C24365   9.449  11.374   1.282 -0.0636 -0.4302  0.1895
  902MOL0     C24366   9.457  11.496   1.196 -0.4359 -0.6875 -0.5787
  902MOL0     C24367   9.554  11.311   1.354  0.0442  0.1585 -0.2936
  902MOL0     C24368   9.687  11.373   1.384  0.6324 -0.1061  0.5728
  902MOL0     O24369   9.688  11.498   1.362  0.2329  0.1605  0.0845
  902MOL0     C24370   9.802  11.572   1.392 -1.0203 -0.1810 -0.5057
  902MOL0     C24371   9.796  11.687   1.471  0.5323 -0.3042  0.7513
  902MOL0     C24372   9.909  11.757   1.490  0.3336  0.1406 -0.9475
  902MOL0     C24373  10.030  11.721   1.438 -1.1022 -0.0269  0.1639
  902MOL0     O24374  10.142  11.799   1.465 -0.6133 -0.7253 -0.3623
  902MOL0     C24375  10.274  11.751   1.435 -0.2950 -0.7383  0.0435
  902MOL0     C24376  10.378  11.859   1.487  0.3810 -0.2788  0.8030
  902MOL0     C24377  10.389  11.873   1.639 -0.4895  0.4835 -0.4511
  902MOL0     C24378  10.530  11.934   1.671  0.6699  0.4017 -0.8477
  902MOL0     C24379  10.553  11.963   1.823  0.8714  0.6390  0.0804
  902MOL0     C24380  10.671  12.053   1.834  0.2539 -0.4866  0.4696
  902MOL0     C24381  10.781  12.024   1.933  0.1029 -0.4366  0.8974
  902MOL0     C24382  10.881  12.146   1.949 -1.4393 -0.7207  0.4673
  902MOL0    Cl24383  10.827  12.277   2.046 -0.0330 -0.1923 -0.3189
  902MOL0     C24384  10.036  11.610   1.349 -0.7046 -1.1645  0.3600
  902MOL0     C24385   9.916  11.543   1.320 -1.0152 -0.6778  0.6733
  902MOL0     O24386   9.773  11.317   1.451 -0.5210  0.9570  0.0994
  902MOL0     C24387   9.531  11.185   1.421 -0.2177  0.8346 -0.4344
  902MOL0     C24388   9.409  11.120   1.407  0.1596 -0.2232 -1.1557
  902MOL0     N24389   8.659  11.018   1.568 -0.0431  0.4807 -0.0145
  902MOL0     N24390   8.547  11.010   1.504 -0.5216 -0.2262 -1.2442
  902MOL0     C24391   7.843  11.151   2.071  0.0693  1.2135  0.1100
  902MOL0     C24392   7.887  11.166   2.206 -0.7209 -0.5706 -0.7613
  902MOL0     C24393   7.879  11.112   2.661 -1.0348 -0.2358 -1.2919
  902MOL0     C24394   7.893  11.254   2.687  0.0433 -0.1238 -0.3297
  902MOL0     C24395   7.930  11.304   2.811  0.3447 -0.0574 -0.3691
  902MOL0     C24396   7.944  11.222   2.922  0.7855  0.3422 -0.2886
  902MOL0     O24397   7.979  11.272   3.043 -0.4560  0.1476  0.2546
  902MOL0     C24398   7.984  11.187   3.158 -0.7651  0.5955 -0.7423
  902MOL0     C24399   8.117  11.114   3.172  0.3966  0.0634 -0.3723
  902MOL0     C24400   8.130  11.042   3.309 -0.4074 -0.0297  0.2221
  902MOL0     C24401   8.228  10.928   3.308 -0.1596 -0.5374 -0.9203
  902MOL0     C24402   8.182  10.835   3.412 -0.3873  0.4922 -0.7821
  902MOL0     C24403   8.141  10.753   3.494 -0.0739  0.3371  0.6653
  902MOL0     C24404   7.935  11.079   2.893  0.1910  0.3426  0.6054
  902MOL0     C24405   7.919  11.027   2.759  0.2659 -0.3653  0.0786
  902MOL0     C24406   7.901  10.878   2.753 -0.2138  0.3392  0.7155
  902MOL0     H24407   7.592  11.137   2.364 -0.1607 -0.8034 -0.9805
  902MOL0     H24408   7.527  11.099   2.128  0.5067 -2.9925 -3.1547
  902MOL0     H24409   7.749  11.267   1.824  0.4611  0.5320  0.6690
  902MOL0     H24410   7.642  11.173   1.724  1.5361  0.5377 -1.1470
  902MOL0     H24411   7.904  11.047   1.817 -0.0781 -4.7828  0.6960
  902MOL0     H24412   7.782  10.970   1.721 -0.8184  0.2596 -2.6955
  902MOL0     H24413   7.834  11.091   1.525 -1.3603  1.6988  0.8915
  902MOL0     H24414   7.919  11.220   1.616 -1.7121  0.5835 -1.1987
  902MOL0     H24415   8.091  11.042   1.691  1.3158  2.1915 -0.3472
  902MOL0     H24416   8.000  10.929   1.594  0.7870 -0.3527  1.6934
  902MOL0     H24417   8.044  11.139   1.412  0.6338  0.6697 -2.3407
  902MOL0     H24418   8.147  10.995   1.423 -1.9759  1.2439 -1.1074
  902MOL0     H24419   8.179  11.259   1.605  0.7424  3.7053 -2.2320
  902MOL0     H24420   8.277  11.110   1.601  0.3008  0.4038  0.6317
  902MOL0     H24421   8.352  11.322   1.502 -2.1532  2.8130 -2.3849
  902MOL0     H24422   8.244  11.286   1.358 -3.0136 -1.9796  0.1430
  902MOL0     H24423   8.373  11.062   1.349 -3.6221  1.0499 -3.1505
  902MOL0     H24424   8.432  11.222   1.287 -2.8231  0.3350  0.1525
  902MOL0     H24425   8.612  11.332   1.480 -0.9514  0.2964  0.1343
  902MOL0     H24426   8.784  11.185   1.760  0.4915 -1.3849 -0.5979
  902MOL0     H24427   8.824  11.308   1.638  0.6227  0.4596  2.5533
  902MOL0     H24428   9.011  11.121   1.703 -0.1648 -1.2495  0.6676
  902MOL0     H24429   8.922  11.012   1.602  2.1031 -1.0394  0.1972
  902MOL0     H24430   8.937  11.160   1.414  1.2096  0.1120 -1.3589
  902MOL0     H24431   9.045  11.270   1.520  2.7801 -1.7091  0.5166
  902MOL0     H24432   9.196  11.078   1.534 -0.0225  0.5539 -0.1230
  902MOL0     H24433   9.097  10.982   1.423 -1.5817 -0.1671  0.0334
  902MOL0     H24434   9.259  11.354   1.210 -0.1081  0.3549 -0.0237
  902MOL0     H24435   9.373  11.503   1.127 -2.1024 -1.2284  1.2701
  902MOL0     H24436   9.549  11.509   1.140 -1.0915 -1.1996 -1.8018
  902MOL0     H24437   9.450  11.579   1.266 -0.6784  1.5221 -3.0903
  902MOL0     H24438   9.693  11.717   1.491  0.0014 -0.2216 -1.7999
  902MOL0     H24439   9.901  11.849   1.548 -2.4157 -0.2313 -0.6001
  902MOL0     H24440  10.277  11.654   1.485 -2.5039  0.0599  1.9133
  902MOL0     H24441  10.291  11.731   1.329 -2.6788 -3.5959  0.0782
  902MOL0     H24442  10.474  11.833   1.441 -0.1974 -2.1857  0.5939
  902MOL0     H24443  10.348  11.952   1.438  2.6504  0.9775  1.6458
  902MOL0     H24444  10.381  11.775   1.687 -3.6472  0.8643 -0.0137
  902MOL0     H24445  10.308  11.930   1.686 -2.2755 -1.5429 -0.9038
  902MOL0     H24446  10.529  12.034   1.625 -4.5682  1.3280  0.5647
  902MOL0     H24447  10.616  11.876   1.636  1.6088  0.7501  0.7753
  902MOL0     H24448  10.469  12.020   1.864  0.7822 -0.1355  1.0041
  902MOL0     H24449  10.553  11.869   1.879  0.6075  0.9023  0.5250
  902MOL0     H24450  10.627  12.153   1.845 -2.3222 -1.3713 -0.9799
  902MOL0     H24451  10.734  12.064   1.744  0.2821  1.9273  0.7182
  902MOL0     H24452  10.843  11.937   1.906  0.3125  0.1838 -0.7638
  902MOL0     H24453  10.732  11.999   2.027 -3.1327 -1.2120 -0.8400
  902MOL0     H24454  10.916  12.180   1.852 -2.2332 -0.3419  0.3011
  902MOL0     H24455  10.962  12.099   2.006  0.4690  1.4641 -0.2994
  902MOL0     H24456  10.127  11.575   1.302  0.1078 -0.1763  1.1530
  902MOL0     H24457   9.931  11.459   1.253  0.5994 -0.9441  1.3313
  902MOL0     H24458   9.611  11.138   1.478 -0.0058  1.4165 -0.2475
  902MOL0     H24459   9.405  11.018   1.445 -0.5978  0.5652  1.0698
  902MOL0     H24460   7.923  11.148   1.999  0.4660 -1.1788  0.5686
  902MOL0     H24461   7.989  11.200   2.220 -0.6089  0.1363 -2.9231
  902MOL0     H24462   7.871  11.325   2.608 -0.9863 -2.2101 -1.9779
  902MOL0     H24463   7.966  11.406   2.809  0.5823 -0.1407 -0.4349
  902MOL0     H24464   7.970  11.249   3.247  0.7108  3.0482 -2.1132
  902MOL0     H24465   7.908  11.109   3.151 -0.5828  0.2583  0.8406
  902MOL0     H24466   8.206  11.177   3.168 -0.2968  1.0525 -0.4793
  902MOL0     H24467   8.129  11.044   3.088 -0.6687 -0.2475 -0.2749
  902MOL0     H24468   8.161  11.114   3.386 -1.8003 -0.9435  1.6805
  902MOL0     H24469   8.035  11.005   3.346  1.1304 -2.6213  1.8763
  902MOL0     H24470   8.329  10.966   3.329 -0.2841 -1.1652  0.9702
  902MOL0     H24471   8.233  10.876   3.211  1.2775 -3.6184  0.6684
  902MOL0     H24472   8.099  10.683   3.563 -0.9723  2.3852  2.3187
  902MOL0     H24473   7.943  11.014   2.979  2.0512 -0.9272 -0.4454
  902MOL0     H24474   7.907  10.830   2.850 -0.0385  1.2184  1.1541
  902MOL0     H24475   7.797  10.860   2.726 -0.5485  4.6421 -1.9913
  902MOL0     H24476   7.967  10.824   2.684  0.7022  2.3741 -0.1064
  903MOL0     O24477   6.686   6.185   3.196  0.1544  0.6188  0.7103
  903MOL0     C24478   6.596   6.100   3.199  0.0776 -0.4850 -0.0547
  903MOL0     O24479   6.604   5.972   3.247  0.1265  0.3292  0.3911
  903MOL0     C24480   6.726   5.920   3.283  0.9982 -1.1583 -0.0286
  903MOL0     C24481   6.802   5.870   3.180 -0.6878  0.3323 -1.0194
  903MOL0     C24482   6.934   5.841   3.216  0.1408 -0.3341  0.5968
  903MOL0     C24483   6.991   5.870   3.333 -0.6402 -0.1554  0.2081
  903MOL0     O24484   7.118   5.825   3.349 -0.0549  0.0899  0.3389
  903MOL0     C24485   7.171   5.845   3.474  0.0471 -0.3347 -0.0215
  903MOL0     C24486   7.326   5.813   3.473 -0.7150 -0.6087  0.3295
  903MOL0     C24487   7.355   5.667   3.528 -0.1669  0.3272  0.7259
  903MOL0     C24488   7.320   5.650   3.680  0.5397  1.0473 -1.0876
  903MOL0     C24489   7.319   5.501   3.730 -0.0976 -0.7121 -0.3608
  903MOL0     C24490   7.314   5.480   3.876  0.5353 -0.4398  0.5926
  903MOL0     C24491   7.327   5.328   3.929 -0.1738  0.2202 -0.6968
  903MOL0     C24492   7.211   5.235   3.870  0.7004 -0.1528 -0.3464
  903MOL0     N24493   7.177   5.119   3.964 -0.2964 -0.8012  0.4476
  903MOL0     C24494   7.103   5.139   4.080  0.5774  0.3635 -0.2142
  903MOL0     C24495   7.094   5.014   4.137  0.1935  0.0423 -0.0868
  903MOL0     C24496   7.033   4.972   4.271 -0.2120  0.0246 -1.0342
  903MOL0     C24497   6.922   4.869   4.252  0.4561 -0.4352  0.0880
  903MOL0     C24498   6.828   4.866   4.374 -0.3335  0.6882 -0.2845
  903MOL0     C24499   6.777   4.721   4.381  0.2135  0.0620  0.3665
  903MOL0     O24500   6.696   4.675   4.273  0.8755 -0.4340 -0.0495
  903MOL0     C24501   6.567   4.726   4.276  0.9362  1.2561  0.6193
  903MOL0     C24502   6.479   4.694   4.383  0.5022 -0.4363  1.3135
  903MOL0     C24503   6.349   4.749   4.401 -0.0795  0.3993  0.7280
  903MOL0     C24504   6.256   4.703   4.505  0.2767  0.1631  0.4130
  903MOL0     C24505   6.308   4.848   4.305 -0.1959  0.3869 -0.4155
  903MOL0     C24506   6.168   4.896   4.295  0.9853 -0.3372  0.0268
  903MOL0     O24507   6.065   4.824   4.369 -0.0484 -0.0605  0.6689
  903MOL0     C24508   5.931   4.850   4.364  0.0184  0.3213 -0.7367
  903MOL0     C24509   5.856   4.744   4.411 -0.7345  1.2162 -0.4914
  903MOL0     C24510   5.719   4.744   4.403 -0.9883 -0.2479  0.3692
  903MOL0     C24511   5.656   4.851   4.337  0.0413  0.3763  0.5526
  903MOL0     O24512   5.517   4.847   4.342 -0.6132  0.1176 -0.6729
  903MOL0     C24513   5.448   4.950   4.276  0.6447 -0.1875 -0.3778
  903MOL0     C24514   5.299   4.918   4.273 -0.4906  0.2171 -0.0302
  903MOL0     C24515   5.262   4.765   4.276 -0.2964  0.9707 -0.3039
  903MOL0     C24516   5.114   4.733   4.261  0.9866  0.1574 -0.6843
  903MOL0     C24517   5.095   4.579   4.296  0.3291 -0.0305  0.6331
  903MOL0     C24518   4.956   4.526   4.256 -0.2061 -0.1085  0.1291
  903MOL0     C24519   4.903   4.406   4.345 -0.4936  1.1602  0.2458
  903MOL0     C24520   4.770   4.349   4.284 -0.7931 -0.4005 -0.8781
  903MOL0    Cl24521   4.697   4.207   4.365  0.2324 -0.2806 -0.1028
  903MOL0     C24522   5.729   4.956   4.289 -0.2634  0.1243 -0.5043
  903MOL0     C24523   5.866   4.962   4.320  0.0505 -0.5454  0.6384
  903MOL0     O24524   6.144   4.987   4.212 -0.2681  0.4249  0.3761
  903MOL0     C24525   6.389   4.875   4.191  0.4253  0.1568  0.0254
  903MOL0     C24526   6.512   4.812   4.177 -0.1352 -1.2863  0.5522
  903MOL0     N24527   7.171   4.928   4.057 -1.4821 -0.3507 -0.0685
  903MOL0     N24528   7.225   5.000   3.966  0.2184 -1.4361 -0.0819
  903MOL0     C24529   6.906   5.923   3.434  1.3111 -0.2659 -0.4241
  903MOL0     C24530   6.770   5.942   3.405  0.0371 -0.1775 -0.5548
  903MOL0     C24531   6.459   6.133   3.137  0.1514 -0.1530 -0.1322
  903MOL0     C24532   6.401   6.034   3.056 -0.3415 -0.5210 -0.2131
  903MOL0     C24533   6.283   6.058   2.999  0.5560  1.1335  0.3670
  903MOL0     C24534   6.202   6.168   3.025  0.9089  0.3046  0.0157
  903MOL0     O24535   6.076   6.194   2.986 -0.2326 -0.5219 -0.0085
  903MOL0     C24536   6.054   6.229   2.848 -0.3577  1.1856  0.6160
  903MOL0     C24537   5.937   6.326   2.842  0.9830 -0.0851  0.6990
  903MOL0     C24538   5.988   6.455   2.884  0.8200  0.3495  0.9269
  903MOL0     C24539   5.867   6.555   2.894 -0.7104  1.0211 -0.6369
  903MOL0     C24540   5.903   6.687   2.951 -0.6199  0.6612  0.5040
  903MOL0     C24541   5.908   6.794   2.996  0.5458 -0.5738 -0.5700
  903MOL0     C24542   6.251   6.257   3.118  0.8262  0.4873  0.4252
  903MOL0     C24543   6.382   6.243   3.169  0.6168  0.4527 -0.2712
  903MOL0     C24544   6.440   6.350   3.262 -0.3551 -0.9828  0.0922
  903MOL0     H24545   6.766   5.861   3.078  0.7504 -1.3144 -1.4324
  903MOL0     H24546   7.002   5.809   3.137 -1.0362  1.5653 -1.2765
  903MOL0     H24547   7.109   5.788   3.543 -2.6127  1.5842 -0.6393
  903MOL0     H24548   7.167   5.941   3.526 -3.1120 -1.3058  1.7951
  903MOL0     H24549   7.369   5.830   3.374  1.7848  0.5221  1.5242
  903MOL0     H24550   7.370   5.882   3.546 -4.2383  0.6466  1.4700
  903MOL0     H24551   7.292   5.601   3.468  1.1549  0.3119 -0.6639
  903MOL0     H24552   7.459   5.642   3.510 -1.0184 -2.9273 -0.2040
  903MOL0     H24553   7.392   5.712   3.733  0.4701 -1.5656  2.4645
  903MOL0     H24554   7.226   5.699   3.706 -0.4954 -1.7823  1.0620
  903MOL0     H24555   7.404   5.450   3.685  0.2869 -0.3205 -0.0792
  903MOL0     H24556   7.234   5.439   3.699  0.5472 -2.3289  0.9383
  903MOL0     H24557   7.388   5.541   3.929 -0.0114  2.4787 -1.7487
  903MOL0     H24558   7.217   5.517   3.909  0.0365 -1.4392  0.2744
  903MOL0     H24559   7.318   5.335   4.038 -2.1369 -1.9683 -0.6256
  903MOL0     H24560   7.425   5.283   3.910  0.7325  0.9279  1.8199
  903MOL0     H24561   7.126   5.286   3.824  1.2978 -0.7859 -2.2695
  903MOL0     H24562   7.263   5.190   3.785 -0.5602 -2.5997  0.1024
  903MOL0     H24563   7.067   5.236   4.112 -1.2988  0.1609 -1.5427
  903MOL0     H24564   7.003   5.057   4.332  3.7822  0.8719  0.0194
  903MOL0     H24565   7.113   4.922   4.326  0.4990  4.2484  2.1952
  903MOL0     H24566   6.861   4.895   4.166 -0.1619 -0.1212  0.6175
  903MOL0     H24567   6.974   4.777   4.222  0.8999 -0.0009 -0.4806
  903MOL0     H24568   6.889   4.894   4.460  2.4552  2.9106 -2.7552
  903MOL0     H24569   6.745   4.936   4.359  2.1027  3.4985 -1.6348
  903MOL0     H24570   6.860   4.652   4.398  0.1014 -0.0576  0.4287
  903MOL0     H24571   6.720   4.724   4.474 -1.4764  3.6944 -0.6106
  903MOL0     H24572   6.511   4.626   4.462  1.4395 -0.1240  1.2124
  903MOL0     H24573   6.315   4.658   4.586 -0.6165 -0.8430  0.5364
  903MOL0     H24574   6.208   4.619   4.454  0.7785 -0.2381  0.5828
  903MOL0     H24575   6.200   4.777   4.563  0.6954 -1.6708  3.3362
  903MOL0     H24576   5.896   4.644   4.424 -0.0194  1.5101 -0.3609
  903MOL0     H24577   5.661   4.656   4.433 -1.8748 -0.2939 -1.3219
  903MOL0     H24578   5.475   5.042   4.329  0.0820 -2.2571  3.9017
  903MOL0     H24579   5.478   4.959   4.171 -1.1437 -0.5960 -0.9607
  903MOL0     H24580   5.260   4.970   4.361 -0.0231  1.5590 -0.5882
  903MOL0     H24581   5.244   4.970   4.194 -1.0298 -0.4019 -0.0712
  903MOL0     H24582   5.299   4.709   4.362  1.5806 -0.5379 -1.9979
  903MOL0     H24583   5.316   4.712   4.197 -2.4516 -0.2167 -1.0512
  903MOL0     H24584   5.065   4.755   4.166  0.7084  4.3617  0.2419
  903MOL0     H24585   5.070   4.803   4.333 -0.1746 -0.7926 -0.4428
  903MOL0     H24586   5.179   4.524   4.252  0.0272 -1.1202  1.3836
  903MOL0     H24587   5.105   4.571   4.405 -0.6934  0.0539  0.7363
  903MOL0     H24588   4.943   4.504   4.150  1.5057 -4.3498  0.6019
  903MOL0     H24589   4.885   4.607   4.277  1.1207  0.7981  1.2731
  903MOL0     H24590   4.896   4.441   4.448  1.4096  0.4699  0.6495
  903MOL0     H24591   4.969   4.319   4.341 -1.6956  0.1854  0.9985
  903MOL0     H24592   4.791   4.313   4.183  0.5166 -0.7236 -0.5150
  903MOL0     H24593   4.706   4.437   4.275  1.3961  1.3194 -0.6124
  903MOL0     H24594   5.680   5.045   4.251  1.5436  1.1995 -0.4014
  903MOL0     H24595   5.923   5.052   4.302 -1.9167  0.4766 -0.7658
  903MOL0     H24596   6.350   4.932   4.108 -0.5657 -2.3816 -1.3734
  903MOL0     H24597   6.566   4.836   4.086 -0.3711  0.2756  0.8006
  903MOL0     H24598   6.935   5.949   3.535 -1.2564 -2.9427  1.1711
  903MOL0     H24599   6.715   6.008   3.471 -0.1599  0.7414 -1.6039
  903MOL0     H24600   6.466   5.949   3.035  3.5540  2.4869 -1.3742
  903MOL0     H24601   6.234   5.989   2.931  3.0122 -2.4072  1.9123
  903MOL0     H24602   6.147   6.264   2.803 -0.1910 -0.7858 -0.6732
  903MOL0     H24603   6.021   6.136   2.801 -2.7158  2.7124 -0.9376
  903MOL0     H24604   5.858   6.287   2.906  2.5637 -0.6684  2.3960
  903MOL0     H24605   5.902   6.334   2.738  1.1608 -1.1184  0.5470
  903MOL0     H24606   6.034   6.460   2.983  2.6049  1.0999  0.1140
  903MOL0     H24607   6.063   6.485   2.809 -0.6003 -1.6083 -1.4414
  903MOL0     H24608   5.804   6.510   2.971  2.1854 -0.2202  1.1915
  903MOL0     H24609   5.806   6.568   2.804 -0.9546  0.0522 -0.6300
  903MOL0     H24610   5.930   6.895   3.026  3.6162  0.0151 -4.0237
  903MOL0     H24611   6.194   6.339   3.162 -1.5543 -1.7778  1.8565
  903MOL0     H24612   6.486   6.305   3.351  0.0444 -2.1695 -0.7011
  903MOL0     H24613   6.521   6.401   3.210 -1.4032 -0.7162 -1.3166
  903MOL0     H24614   6.362   6.421   3.291 -1.4487 -2.8559  2.1089
  904MOL0     O24615   0.178   4.544   2.843 -0.9669 -0.6367  0.5687
  904MOL0     C24616   0.149   4.531   2.957 -0.0204 -1.1029  1.5422
  904MOL0     O24617   0.037   4.475   3.016 -0.4901  0.0907 -0.3569
  904MOL0     C24618  -0.066   4.427   2.955 -0.1009  0.5334  0.3792
  904MOL0     C24619  -0.092   4.434   2.820  0.3970 -0.5629  0.5221
  904MOL0     C24620  -0.199   4.360   2.758  0.0442  0.0472  0.7202
  904MOL0     C24621  -0.281   4.278   2.837 -1.3978 -0.6447 -0.2991
  904MOL0     O24622  -0.383   4.213   2.771  0.0534  0.0836 -0.2240
  904MOL0     C24623  -0.450   4.108   2.837  0.2266  0.1031 -1.4210
  904MOL0     C24624  -0.519   4.025   2.725  0.0945  0.3055  1.0838
  904MOL0     C24625  -0.606   3.898   2.766 -0.2997  0.6751 -0.1033
  904MOL0     C24626  -0.714   3.870   2.674  0.9904 -0.7864  0.0517
  904MOL0     C24627  -0.801   3.748   2.689 -0.3696  0.2741  0.4244
  904MOL0     C24628  -0.891   3.729   2.575 -0.8299  0.2818  0.1187
  904MOL0     C24629  -0.990   3.623   2.613  0.4145  0.8773  0.2731
  904MOL0     C24630  -1.120   3.618   2.520  0.0964  0.5917  0.5151
  904MOL0     N24631  -1.199   3.503   2.572 -0.9080  0.3490  0.5532
  904MOL0     C24632  -1.284   3.519   2.678  0.3291  0.4435 -0.6535
  904MOL0     C24633  -1.343   3.395   2.675 -0.2093 -0.3701 -0.0929
  904MOL0     C24634  -1.461   3.359   2.756  0.3977 -0.6437 -0.2544
  904MOL0     C24635  -1.599   3.380   2.672 -0.1250 -0.6352  1.2022
  904MOL0     C24636  -1.611   3.285   2.550  0.1584  0.0117 -0.3665
  904MOL0     C24637  -1.757   3.261   2.498 -0.4034  0.7881  0.2198
  904MOL0     O24638  -1.825   3.382   2.463  0.6012 -0.6843 -0.0342
  904MOL0     C24639  -1.959   3.367   2.427 -0.0933  0.8448  0.7944
  904MOL0     C24640  -2.023   3.240   2.418  0.6746 -0.1343 -0.8171
  904MOL0     C24641  -2.160   3.229   2.412 -0.1334 -0.7388 -0.4641
  904MOL0     C24642  -2.216   3.084   2.406  0.4381 -0.0773 -0.1473
  904MOL0     C24643  -2.241   3.348   2.406  0.3416 -0.6872 -0.1171
  904MOL0     C24644  -2.391   3.363   2.396 -0.4133 -0.5821  0.4378
  904MOL0     O24645  -2.421   3.440   2.284  0.5449 -1.7041  0.3658
  904MOL0     C24646  -2.544   3.412   2.229  0.2888 -0.0011 -0.5352
  904MOL0     C24647  -2.646   3.504   2.237  1.2322 -0.4862 -0.2458
  904MOL0     C24648  -2.765   3.471   2.172  0.1488  0.5040  0.1400
  904MOL0     C24649  -2.787   3.349   2.102 -1.1494  0.8363  0.1354
  904MOL0     O24650  -2.901   3.326   2.033 -0.0710  0.5448 -0.6069
  904MOL0     C24651  -2.917   3.405   1.907  0.3475  0.4593  1.3735
  904MOL0     C24652  -3.018   3.528   1.926  0.8821  0.2555 -0.3098
  904MOL0     C24653  -3.051   3.599   1.805 -0.3887  0.5583  0.5185
  904MOL0     C24654  -3.124   3.526   1.688 -0.1798 -1.2949  0.1699
  904MOL0     C24655  -3.154   3.639   1.577  0.1170 -0.0448 -0.0123
  904MOL0     C24656  -3.247   3.601   1.465  0.1552 -0.1500  0.5992
  904MOL0     C24657  -3.255   3.717   1.366 -0.0950  1.5952 -0.4892
  904MOL0     C24658  -3.358   3.686   1.253  0.5409 -0.3222  1.3753
  904MOL0    Cl24659  -3.305   3.560   1.147  0.6172 -0.1345  0.2121
  904MOL0     C24660  -2.683   3.254   2.111  0.9805 -0.1319 -0.2777
  904MOL0     C24661  -2.562   3.285   2.170  0.1406 -0.2353  0.4108
  904MOL0     O24662  -2.476   3.296   2.462  0.6964 -0.8256 -0.3587
  904MOL0     C24663  -2.172   3.468   2.408 -1.0809  0.6289 -0.3342
  904MOL0     C24664  -2.039   3.476   2.426  0.4620  0.1027 -0.6646
  904MOL0     N24665  -1.287   3.302   2.590  0.2394  0.7143  0.2274
  904MOL0     N24666  -1.199   3.374   2.522  0.1322  0.6677 -0.2683
  904MOL0     C24667  -0.243   4.256   2.973  0.1201 -1.0245 -0.6288
  904MOL0     C24668  -0.140   4.332   3.033 -0.7594 -0.3819 -0.8312
  904MOL0     C24669   0.258   4.572   3.051  0.7984 -0.1608 -0.0939
  904MOL0     C24670   0.244   4.515   3.181 -0.1369 -0.4082  1.0604
  904MOL0     C24671   0.324   4.556   3.284  0.0282 -0.1794 -0.8100
  904MOL0     C24672   0.431   4.646   3.264 -0.0728  0.2477 -0.3638
  904MOL0     O24673   0.509   4.698   3.359 -0.3029 -0.1417 -0.3758
  904MOL0     C24674   0.462   4.690   3.496  0.8942  0.0373  0.1931
  904MOL0     C24675   0.485   4.835   3.551  0.9521  0.2315  0.5868
  904MOL0     C24676   0.432   4.842   3.702  0.0496 -0.0646  0.7363
  904MOL0     C24677   0.430   4.989   3.752 -0.3853  0.8982 -0.9940
  904MOL0     C24678   0.480   5.007   3.891  1.2152  0.2137 -0.2124
  904MOL0     C24679   0.511   5.014   4.012  0.3963  0.1042 -0.5670
  904MOL0     C24680   0.442   4.705   3.147  0.2140  0.6276  0.0369
  904MOL0     C24681   0.364   4.672   3.034  0.9793  0.0247 -0.7808
  904MOL0     C24682   0.378   4.745   2.904  0.6845  0.1000  0.6661
  904MOL0     H24683  -0.022   4.487   2.756  1.1413 -3.3249 -1.1464
  904MOL0     H24684  -0.210   4.361   2.650  0.4786 -0.8176  0.6560
  904MOL0     H24685  -0.520   4.156   2.906  1.2297  3.7535 -2.6937
  904MOL0     H24686  -0.393   4.037   2.897 -0.4130  1.2954  0.7185
  904MOL0     H24687  -0.584   4.098   2.676 -1.2027 -2.3406 -1.4833
  904MOL0     H24688  -0.444   3.988   2.654  0.7743  1.6745  1.0468
  904MOL0     H24689  -0.539   3.812   2.774  1.0941  1.7311 -0.0708
  904MOL0     H24690  -0.652   3.921   2.862  1.0323 -2.6249  1.4658
  904MOL0     H24691  -0.772   3.963   2.668  0.4083 -1.1058  0.5823
  904MOL0     H24692  -0.684   3.857   2.570 -2.0878  2.3783 -1.4493
  904MOL0     H24693  -0.852   3.754   2.786  0.4065  0.5792  0.8260
  904MOL0     H24694  -0.736   3.660   2.696  1.4456  1.2373 -2.5923
  904MOL0     H24695  -0.943   3.824   2.564 -1.2155  0.8992  4.9742
  904MOL0     H24696  -0.836   3.700   2.485  0.8296  1.6952  0.6255
  904MOL0     H24697  -1.030   3.639   2.714 -0.1811 -2.8819  0.7722
  904MOL0     H24698  -0.933   3.530   2.610 -1.5613 -0.4127  1.1735
  904MOL0     H24699  -1.173   3.713   2.533 -2.1503 -0.5671  0.2776
  904MOL0     H24700  -1.113   3.595   2.413 -2.7914  0.4968  0.2533
  904MOL0     H24701  -1.303   3.604   2.742  1.3427  0.6811 -0.6502
  904MOL0     H24702  -1.461   3.428   2.841 -0.3497 -2.3441  1.1937
  904MOL0     H24703  -1.441   3.256   2.788  2.1229  0.3856  2.2745
  904MOL0     H24704  -1.677   3.365   2.748  0.4327 -2.4587  1.4754
  904MOL0     H24705  -1.592   3.485   2.643  0.9703 -0.4669  1.9877
  904MOL0     H24706  -1.557   3.312   2.458  0.0000  0.7750 -0.2471
  904MOL0     H24707  -1.579   3.187   2.584 -2.3530 -0.8003 -0.1366
  904MOL0     H24708  -1.755   3.202   2.406  3.7819  1.4635 -0.3423
  904MOL0     H24709  -1.816   3.207   2.572  1.0730 -1.5741 -0.2119
  904MOL0     H24710  -1.970   3.145   2.426  3.2576  1.3253  0.6819
  904MOL0     H24711  -2.149   3.002   2.379 -3.8986 -3.7693 -0.9401
  904MOL0     H24712  -2.298   3.089   2.334  0.8314  1.6800 -0.5153
  904MOL0     H24713  -2.261   3.047   2.499  1.0872 -1.7008 -0.4441
  904MOL0     H24714  -2.628   3.598   2.288  0.7861  0.7327 -2.2154
  904MOL0     H24715  -2.852   3.535   2.170 -0.6787 -0.5945 -2.1427
  904MOL0     H24716  -2.824   3.430   1.855 -0.4973 -1.9244 -1.5642
  904MOL0     H24717  -2.974   3.340   1.841 -1.6650  4.8017 -1.6662
  904MOL0     H24718  -3.113   3.495   1.969  0.5488  2.7058  0.9572
  904MOL0     H24719  -2.981   3.604   1.995  1.0515 -0.5801  0.5451
  904MOL0     H24720  -2.958   3.645   1.769  1.4390 -1.3586  2.4925
  904MOL0     H24721  -3.116   3.680   1.840  0.5813  2.4366 -1.7379
  904MOL0     H24722  -3.216   3.477   1.721 -2.1009  2.7799  1.6308
  904MOL0     H24723  -3.053   3.456   1.644  1.2900 -0.0727  0.5250
  904MOL0     H24724  -3.199   3.725   1.628 -2.7879 -3.2579  3.4344
  904MOL0     H24725  -3.062   3.667   1.524 -1.9756  0.8904 -3.5400
  904MOL0     H24726  -3.347   3.584   1.506 -0.0547 -0.4629 -0.0264
  904MOL0     H24727  -3.207   3.506   1.428  0.6315 -0.4937  1.9537
  904MOL0     H24728  -3.156   3.717   1.319  0.4266  1.2219  0.5771
  904MOL0     H24729  -3.277   3.809   1.420 -2.6380 -1.5471  4.6080
  904MOL0     H24730  -3.384   3.774   1.194 -0.7131 -1.3860  0.2582
  904MOL0     H24731  -3.453   3.656   1.299 -2.4732  4.1450 -1.2021
  904MOL0     H24732  -2.707   3.160   2.064 -2.8557  0.7513 -0.3835
  904MOL0     H24733  -2.475   3.221   2.181  0.3472  0.3066  2.3382
  904MOL0     H24734  -2.223   3.563   2.423  1.1766  1.5445  2.3889
  904MOL0     H24735  -1.990   3.572   2.440 -2.1708  1.8809 -2.5960
  904MOL0     H24736  -0.301   4.180   3.024  2.0369 -1.8300  0.4523
  904MOL0     H24737  -0.128   4.310   3.138  0.4473 -2.0096 -1.2688
  904MOL0     H24738   0.168   4.446   3.212  0.3070 -1.3174  0.1819
  904MOL0     H24739   0.313   4.497   3.374 -3.3245  0.7563 -0.4449
  904MOL0     H24740   0.357   4.664   3.505  0.8604 -0.4772 -1.3684
  904MOL0     H24741   0.537   4.626   3.544  2.4251  0.9873 -0.8080
  904MOL0     H24742   0.425   4.901   3.489 -0.3523 -1.5587 -0.1448
  904MOL0     H24743   0.592   4.855   3.542  1.5274 -3.0408 -2.1637
  904MOL0     H24744   0.332   4.800   3.715  0.1353 -0.3558  0.4549
  904MOL0     H24745   0.503   4.778   3.755 -1.2762 -1.5589  0.7590
  904MOL0     H24746   0.328   5.029   3.747  0.0393  1.8919 -3.5853
  904MOL0     H24747   0.484   5.055   3.683 -3.8888  3.1288 -1.8730
  904MOL0     H24748   0.553   5.020   4.110 -0.2696 -2.6647 -0.0318
  904MOL0     H24749   0.530   4.767   3.129  0.6265 -0.2198 -0.9856
  904MOL0     H24750   0.288   4.781   2.852  0.3867  0.1414  1.1996
  904MOL0     H24751   0.454   4.824   2.909  0.0733  1.1860 -3.3059
  904MOL0     H24752   0.426   4.683   2.828 -2.4424 -2.0861  0.2689
  905MOL0     O24753   8.091   1.424   9.681  0.3973 -0.1772 -0.2379
  905MOL0     C24754   7.972   1.457   9.704 -0.1536  0.1019  0.2459
  905MOL0     O24755   7.915   1.452   9.827 -0.5576  0.0612 -0.3757
  905MOL0     C24756   7.973   1.411   9.941 -0.5690  0.1417  0.6139
  905MOL0     C24757   7.960   1.496  10.047 -1.1665  0.4668  0.5046
  905MOL0     C24758   8.025   1.468  10.170 -0.2156  0.9501  0.0578
  905MOL0     C24759   8.102   1.346  10.188 -0.6491 -0.0213  0.9464
  905MOL0     O24760   8.186   1.321  10.291 -0.4355 -0.5011  0.7784
  905MOL0     C24761   8.195   1.425  10.392  0.0221  0.2832 -0.2722
  905MOL0     C24762   8.286   1.360  10.492  0.6347 -0.0369 -0.6451
  905MOL0     C24763   8.422   1.309  10.419  0.0890 -0.2376  0.0429
  905MOL0     C24764   8.524   1.261  10.523  0.3639  0.5124 -0.0350
  905MOL0     C24765   8.662   1.241  10.462 -0.7038  0.2762  0.3743
  905MOL0     C24766   8.759   1.182  10.567  0.1043 -0.2297  0.2647
  905MOL0     C24767   8.836   1.304  10.619 -0.0946  0.5244  0.4977
  905MOL0     C24768   8.867   1.294  10.762 -0.4476 -0.7877  0.0818
  905MOL0     N24769   8.939   1.412  10.815 -1.4824  0.3281 -1.0856
  905MOL0     C24770   8.893   1.537  10.815 -0.8369  0.0734  0.6384
  905MOL0     C24771   8.988   1.604  10.877  0.0537 -0.4766  0.0034
  905MOL0     C24772   8.983   1.755  10.903 -0.5009 -0.7764  0.7672
  905MOL0     C24773   8.985   1.845  10.770  0.5808  1.0567 -0.6176
  905MOL0     C24774   9.126   1.838  10.711  0.9474 -0.3650  0.0460
  905MOL0     C24775   9.116   1.878  10.559  1.0869  0.1355  0.0067
  905MOL0     O24776   9.098   2.016  10.528 -0.2841 -0.1082 -0.3851
  905MOL0     C24777   9.101   2.063  10.397  0.1325  0.2952  0.0976
  905MOL0     C24778   9.082   1.983  10.284 -0.1950 -0.3996  0.1459
  905MOL0     C24779   9.091   2.028  10.151  0.9166 -0.6609 -0.4017
  905MOL0     C24780   9.089   1.923  10.041 -0.3302  0.1050  0.3493
  905MOL0     C24781   9.106   2.173  10.138 -0.6207  0.9975 -0.8112
  905MOL0     C24782   9.106   2.238  10.003 -0.1858 -0.4748  0.1892
  905MOL0     O24783   9.145   2.370  10.005 -0.6533  0.5527  0.4807
  905MOL0     C24784   9.167   2.427   9.883 -0.8905  0.0252 -0.2843
  905MOL0     C24785   9.295   2.479   9.855  0.1309  0.2299 -0.3633
  905MOL0     C24786   9.322   2.552   9.737  0.5531 -0.2330  0.9109
  905MOL0     C24787   9.220   2.571   9.647  0.2636  0.6999  0.1723
  905MOL0     O24788   9.260   2.638   9.531  0.7782  0.0422  0.2213
  905MOL0     C24789   9.235   2.559   9.408  0.8860 -0.0469 -0.9916
  905MOL0     C24790   9.319   2.598   9.287  0.2701 -0.0502 -0.5988
  905MOL0     C24791   9.314   2.750   9.253  0.0261 -0.1430  0.3041
  905MOL0     C24792   9.166   2.798   9.237 -0.8936  0.8110 -0.0438
  905MOL0     C24793   9.152   2.901   9.124 -0.0219 -0.0721 -0.7746
  905MOL0     C24794   9.214   3.036   9.178  0.8225  0.2887  0.4470
  905MOL0     C24795   9.129   3.104   9.277  0.3661 -0.5634 -0.6202
  905MOL0     C24796   9.196   3.215   9.354  0.3422  0.0128  0.4949
  905MOL0    Cl24797   9.247   3.342   9.229  0.2049 -0.6766  0.3638
  905MOL0     C24798   9.094   2.510   9.663  0.5806  0.3786 -1.0864
  905MOL0     C24799   9.064   2.445   9.794  0.9459 -0.0539  0.6128
  905MOL0     O24800   9.080   2.169   9.900 -0.0613 -0.4097 -0.6695
  905MOL0     C24801   9.116   2.254  10.255  0.3457 -0.1141  1.1483
  905MOL0     C24802   9.122   2.202  10.380 -0.7355 -0.4157  0.4934
  905MOL0     N24803   9.085   1.518  10.925  0.0143 -0.1804 -0.1504
  905MOL0     N24804   9.068   1.404  10.874 -0.9561  0.3567  0.3058
  905MOL0     C24805   8.100   1.254  10.077 -0.1855  0.0343 -1.1022
  905MOL0     C24806   8.040   1.287   9.955 -0.2227  0.8914  0.1896
  905MOL0     C24807   7.888   1.494   9.599 -0.1342 -0.6829 -0.6607
  905MOL0     C24808   7.759   1.439   9.580  0.0756 -0.9961  0.1118
  905MOL0     C24809   7.673   1.474   9.479  0.3178 -0.3396  1.2279
  905MOL0     C24810   7.709   1.555   9.370 -0.8220 -0.0925  0.1902
  905MOL0     O24811   7.617   1.558   9.271  0.0936  0.7152  0.7138
  905MOL0     C24812   7.657   1.587   9.146 -0.2270 -0.2148 -0.1105
  905MOL0     C24813   7.553   1.568   9.042  0.3905 -0.4465  0.3004
  905MOL0     C24814   7.594   1.612   8.891 -0.1711 -0.8270 -0.5582
  905MOL0     C24815   7.481   1.697   8.838 -1.3262 -0.7149 -1.2269
  905MOL0     C24816   7.484   1.738   8.695  0.5251 -0.3536 -0.3398
  905MOL0     C24817   7.476   1.763   8.578  1.2791 -0.3728 -0.1860
  905MOL0     C24818   7.837   1.606   9.381  1.1040  0.0172 -0.0920
  905MOL0     C24819   7.924   1.584   9.492 -0.3671 -0.9793 -0.4432
  905MOL0     C24820   8.064   1.642   9.481 -0.0739  0.1487 -0.6101
  905MOL0     H24821   7.905   1.587  10.025  0.3992  1.1067 -1.0169
  905MOL0     H24822   8.020   1.549  10.243 -0.6451 -0.8322  2.0928
  905MOL0     H24823   8.098   1.455  10.432 -1.2225 -1.1706 -2.0292
  905MOL0     H24824   8.247   1.514  10.357 -3.7637  2.0156 -2.0431
  905MOL0     H24825   8.309   1.443  10.560 -2.2067  2.2130 -2.1685
  905MOL0     H24826   8.240   1.276  10.544  4.0823 -1.8351 -0.2102
  905MOL0     H24827   8.407   1.226  10.350 -0.1938  2.0646 -2.8557
  905MOL0     H24828   8.471   1.395  10.374  2.9734 -1.5230  0.4944
  905MOL0     H24829   8.522   1.322  10.614 -1.7226  2.2308 -1.1298
  905MOL0     H24830   8.484   1.164  10.556  0.7601  0.1335 -0.6400
  905MOL0     H24831   8.687   1.339  10.420 -2.5107  0.8117  0.4673
  905MOL0     H24832   8.653   1.172  10.377 -2.8902 -3.0131  3.0129
  905MOL0     H24833   8.692   1.136  10.639 -0.6394 -0.8453 -0.7887
  905MOL0     H24834   8.823   1.105  10.522  0.3926 -1.2311  2.2986
  905MOL0     H24835   8.782   1.397  10.598  1.3867  1.1923 -0.5654
  905MOL0     H24836   8.930   1.290  10.564 -1.2815 -1.3161 -1.1916
  905MOL0     H24837   8.778   1.287  10.825  1.2026  0.9292  2.7984
  905MOL0     H24838   8.932   1.207  10.778  1.7250  1.0350  1.7093
  905MOL0     H24839   8.800   1.573  10.773 -0.5844 -0.3289 -0.2894
  905MOL0     H24840   9.064   1.794  10.965 -0.9142  1.7863 -0.1671
  905MOL0     H24841   8.893   1.786  10.957 -1.2032  2.0679 -1.7374
  905MOL0     H24842   8.911   1.814  10.696  0.7290 -0.5659 -0.1298
  905MOL0     H24843   8.957   1.948  10.793 -0.0602  1.6129 -3.5484
  905MOL0     H24844   9.193   1.898  10.772  2.7681 -3.4910  1.4020
  905MOL0     H24845   9.165   1.736  10.702  1.4535 -0.0121 -2.4651
  905MOL0     H24846   9.210   1.845  10.513 -0.1540 -1.1001 -1.7685
  905MOL0     H24847   9.026   1.828  10.521  0.6528  1.5167 -0.8444
  905MOL0     H24848   9.072   1.875  10.288 -4.4551 -0.3034 -1.9747
  905MOL0     H24849   9.166   1.944   9.966 -2.4860  0.9514 -1.8063
  905MOL0     H24850   8.993   1.914   9.989  1.0113 -1.1621 -2.0956
  905MOL0     H24851   9.116   1.821  10.071 -1.0269 -0.2211 -0.1003
  905MOL0     H24852   9.364   2.453   9.934  0.2854  0.8109 -0.2991
  905MOL0     H24853   9.420   2.585   9.704  0.9668 -2.4917 -0.3360
  905MOL0     H24854   9.266   2.460   9.442  3.7101  2.0828  3.6197
  905MOL0     H24855   9.127   2.560   9.389  1.2496  1.4923 -3.4635
  905MOL0     H24856   9.422   2.577   9.318  0.3872 -0.2324 -1.1072
  905MOL0     H24857   9.288   2.536   9.203  1.9293 -1.6924 -0.0598
  905MOL0     H24858   9.367   2.758   9.158 -1.2999 -1.3867 -0.5818
  905MOL0     H24859   9.370   2.802   9.331 -0.1291  0.2356  0.1670
  905MOL0     H24860   9.120   2.826   9.332  1.6293  0.7315  1.3006
  905MOL0     H24861   9.124   2.709   9.189  0.1230  1.1356 -1.6275
  905MOL0     H24862   9.199   2.869   9.031 -0.9167 -1.6216 -0.7309
  905MOL0     H24863   9.045   2.917   9.109 -0.1164  0.9976  0.8066
  905MOL0     H24864   9.235   3.115   9.106  1.7185  0.5736  1.0111
  905MOL0     H24865   9.317   3.027   9.213  1.4537  0.1159 -1.3311
  905MOL0     H24866   9.092   3.032   9.351  0.1268 -0.6999 -0.8689
  905MOL0     H24867   9.039   3.150   9.234 -0.4433 -0.6141  0.9494
  905MOL0     H24868   9.265   3.164   9.422 -2.0625  0.1455  3.2385
  905MOL0     H24869   9.124   3.265   9.420 -0.9046 -5.2921  3.7740
  905MOL0     H24870   9.017   2.505   9.587  0.0548  0.1160 -0.5469
  905MOL0     H24871   8.970   2.410   9.836  0.7232  0.6537  0.7157
  905MOL0     H24872   9.147   2.357  10.243  0.4256 -0.4388 -2.5071
  905MOL0     H24873   9.131   2.275  10.460 -6.0606 -0.2279  1.2653
  905MOL0     H24874   8.164   1.167  10.082  1.3100  1.1621  1.6467
  905MOL0     H24875   8.059   1.226   9.868  5.1969 -0.6485  2.0314
  905MOL0     H24876   7.733   1.366   9.656  0.0578 -1.4424 -0.3163
  905MOL0     H24877   7.569   1.442   9.479  0.8507 -2.4645 -1.9615
  905MOL0     H24878   7.708   1.684   9.144  1.9518 -1.2950 -1.5346
  905MOL0     H24879   7.741   1.520   9.124  0.5894  1.4618 -2.5812
  905MOL0     H24880   7.458   1.614   9.072  0.5054  0.6949 -0.9864
  905MOL0     H24881   7.530   1.461   9.041  2.5664 -0.9707  0.8623
  905MOL0     H24882   7.680   1.679   8.884  1.0293 -2.2277  0.0909
  905MOL0     H24883   7.620   1.531   8.822  1.8258 -1.4863  0.8632
  905MOL0     H24884   7.492   1.788   8.898  1.5883 -2.7708  1.7023
  905MOL0     H24885   7.385   1.652   8.865 -2.1685 -0.3077 -3.3532
  905MOL0     H24886   7.462   1.782   8.473 -0.7283  0.6703  0.2333
  905MOL0     H24887   7.867   1.667   9.297 -0.2933 -1.0796 -1.4581
  905MOL0     H24888   8.064   1.714   9.399 -3.7379  1.7375  0.5809
  905MOL0     H24889   8.082   1.711   9.564 -1.8789  1.9353 -1.6176
  905MOL0     H24890   8.138   1.561   9.477 -1.0141 -0.9630  2.2474
  906MOL0     O24891   7.602  11.377   4.967 -0.4755 -0.3147 -0.1804
  906MOL0     C24892   7.608  11.263   5.013  0.4169  0.5213 -0.3943
  906MOL0     O24893   7.502  11.175   5.008  0.2457  0.2342 -0.5677
  906MOL0     C24894   7.397  11.164   4.912 -0.3515  1.5062 -0.0825
  906MOL0     C24895   7.299  11.074   4.932  0.2720 -0.0621  0.8498
  906MOL0     C24896   7.191  11.061   4.839 -0.4164  0.2422  0.4767
  906MOL0     C24897   7.192  11.141   4.722 -0.3979  0.2717 -0.8369
  906MOL0     O24898   7.082  11.115   4.645 -0.0525  0.2320  0.1525
  906MOL0     C24899   7.110  11.133   4.502 -0.2568 -0.0377 -0.3050
  906MOL0     C24900   7.021  11.048   4.407 -0.1474 -0.6287 -0.4361
  906MOL0     C24901   7.025  10.896   4.447 -0.9807 -0.3344 -0.2325
  906MOL0     C24902   7.007  10.820   4.317 -0.1211 -0.1218 -0.4912
  906MOL0     C24903   6.985  10.674   4.359  0.0084  0.5089 -0.4827
  906MOL0     C24904   6.911  10.595   4.253  0.2713 -0.1844  0.3329
  906MOL0     C24905   6.894  10.449   4.308 -0.6883  0.2474  0.2738
  906MOL0     C24906   6.825  10.351   4.219 -0.5434 -0.7407 -0.4712
  906MOL0     N24907   6.789  10.233   4.292  0.5628 -0.0242 -0.1833
  906MOL0     C24908   6.679  10.228   4.364  0.3641  0.1421 -0.7424
  906MOL0     C24909   6.676  10.102   4.407  0.9010  1.3136  0.7412
  906MOL0     C24910   6.576  10.027   4.503  0.9756  0.1580  0.1504
  906MOL0     C24911   6.492   9.925   4.430  0.3722 -0.3247  0.2128
  906MOL0     C24912   6.439   9.816   4.526  0.1547 -0.7851  0.3774
  906MOL0     C24913   6.312   9.752   4.464 -0.4172  0.4087  0.5119
  906MOL0     O24914   6.195   9.831   4.471 -0.5623  0.6108 -0.0769
  906MOL0     C24915   6.072   9.781   4.455  1.1556 -0.2290 -0.1129
  906MOL0     C24916   5.972   9.851   4.379 -0.0785  0.3567  0.3366
  906MOL0     C24917   5.847   9.790   4.367  0.1448  0.1791  0.0295
  906MOL0     C24918   5.741   9.862   4.301 -1.0536  0.2932  1.0136
  906MOL0     C24919   5.815   9.655   4.420 -0.0399  0.1465  0.2534
  906MOL0     C24920   5.688   9.578   4.404 -0.8189  0.3921  0.6079
  906MOL0     O24921   5.705   9.448   4.455 -0.8614 -0.0789 -0.0503
  906MOL0     C24922   5.597   9.374   4.445 -0.7115  0.5996  0.2501
  906MOL0     C24923   5.524   9.354   4.564  0.2748  0.1395  0.4068
  906MOL0     C24924   5.424   9.249   4.568  0.5542  0.6015 -0.0775
  906MOL0     C24925   5.383   9.188   4.451  0.2510 -0.3952  0.4977
  906MOL0     O24926   5.290   9.084   4.477  0.4032  0.7669  0.2668
  906MOL0     C24927   5.201   9.070   4.361 -0.5622  0.3483 -0.6080
  906MOL0     C24928   5.069   8.996   4.401 -0.1398 -0.0799 -0.3464
  906MOL0     C24929   5.081   8.857   4.454 -0.3139  0.3321  0.5696
  906MOL0     C24930   5.101   8.757   4.337  0.4023 -0.9431  0.6718
  906MOL0     C24931   5.114   8.619   4.387 -0.0018  0.9746 -0.4253
  906MOL0     C24932   5.147   8.516   4.281  0.0188 -0.3205 -0.4313
  906MOL0     C24933   5.289   8.494   4.252 -0.2168 -0.6034  0.1922
  906MOL0     C24934   5.315   8.356   4.181  1.3188  0.1360  1.0215
  906MOL0    Cl24935   5.221   8.347   4.014 -0.5616 -0.5892 -0.3020
  906MOL0     C24936   5.467   9.217   4.335  0.7019  0.5146 -0.6239
  906MOL0     C24937   5.576   9.296   4.332  0.0500  0.0633 -0.1642
  906MOL0     O24938   5.589   9.619   4.335  0.3168 -0.4587  0.1601
  906MOL0     C24939   5.922   9.599   4.495  0.3718 -0.5613  1.0834
  906MOL0     C24940   6.039   9.667   4.525  0.2130  0.0553 -0.2979
  906MOL0     N24941   6.783  10.036   4.344  0.1204 -0.1272  1.3056
  906MOL0     N24942   6.854  10.116   4.287  0.5279 -0.5981 -0.8396
  906MOL0     C24943   7.303  11.230   4.701 -0.8796  0.6178 -0.1791
  906MOL0     C24944   7.401  11.236   4.795 -1.1774  0.8589  0.0312
  906MOL0     C24945   7.731  11.224   5.071  0.0093  0.1773  0.0406
  906MOL0     C24946   7.744  11.088   5.091 -0.4787  0.1325 -0.4037
  906MOL0     C24947   7.863  11.036   5.156  0.2081 -0.1948  0.6665
  906MOL0     C24948   7.967  11.116   5.197 -0.5625 -1.5405  0.4778
  906MOL0     O24949   8.081  11.067   5.256  0.6658  0.1978 -0.1390
  906MOL0     C24950   8.095  10.924   5.266 -0.0448 -0.0668  0.1077
  906MOL0     C24951   8.223  10.898   5.333  1.0544  1.5501  0.6608
  906MOL0     C24952   8.234  10.948   5.477 -1.3378  0.3215  0.0576
  906MOL0     C24953   8.341  10.880   5.560  1.1802 -0.7467  0.1593
  906MOL0     C24954   8.470  10.891   5.493 -0.8240  0.0601 -0.8061
  906MOL0     C24955   8.580  10.883   5.436  0.3721 -0.8176  0.1440
  906MOL0     C24956   7.950  11.249   5.181  0.0599 -0.1926 -0.6039
  906MOL0     C24957   7.838  11.302   5.128 -0.2291 -0.0966 -0.1165
  906MOL0     C24958   7.841  11.454   5.110  0.9383 -0.6282 -0.5779
  906MOL0     H24959   7.312  11.002   5.012  3.7733  2.1153  2.4619
  906MOL0     H24960   7.115  10.989   4.867 -0.6065  0.9593  1.8802
  906MOL0     H24961   7.217  11.125   4.482  0.0944  1.1320  0.9530
  906MOL0     H24962   7.064  11.232   4.489 -2.8289 -1.1668 -0.4858
  906MOL0     H24963   6.919  11.085   4.424  0.3221 -0.1116  1.4883
  906MOL0     H24964   7.047  11.076   4.305 -3.1213  2.1240 -0.6207
  906MOL0     H24965   7.124  10.867   4.485 -2.9337 -1.1184  5.0802
  906MOL0     H24966   6.950  10.871   4.522  1.8369 -2.5701  2.1144
  906MOL0     H24967   6.916  10.862   4.273 -1.3856 -1.4814  0.7047
  906MOL0     H24968   7.103  10.831   4.265  0.1156  3.0767  0.4568
  906MOL0     H24969   6.918  10.668   4.445  1.3025 -1.0420  0.4876
  906MOL0     H24970   7.079  10.632   4.395 -0.4374 -0.1402 -0.0503
  906MOL0     H24971   6.815  10.643   4.236  0.4884  0.8619  1.8278
  906MOL0     H24972   6.972  10.591   4.162  1.6730 -1.5428  1.2693
  906MOL0     H24973   6.843  10.455   4.405  0.9720  1.3398  1.1162
  906MOL0     H24974   6.997  10.416   4.321 -0.6608 -0.3978 -1.3979
  906MOL0     H24975   6.741  10.404   4.174  0.9060  2.3554  0.2169
  906MOL0     H24976   6.892  10.327   4.136 -0.4497 -1.1460 -0.2806
  906MOL0     H24977   6.611  10.305   4.400 -0.1389 -1.0648  0.9880
  906MOL0     H24978   6.512  10.099   4.556 -0.4976 -1.3879  0.5515
  906MOL0     H24979   6.635   9.984   4.585 -1.1719  2.6614  3.2839
  906MOL0     H24980   6.424   9.985   4.370 -0.4133  1.8511  3.0775
  906MOL0     H24981   6.544   9.864   4.355 -0.7036 -3.4240  1.8090
  906MOL0     H24982   6.518   9.740   4.535  1.1964  0.3179  0.8607
  906MOL0     H24983   6.422   9.856   4.626  1.1600 -1.0648  0.6736
  906MOL0     H24984   6.335   9.738   4.358 -1.6221  2.4891 -0.0768
  906MOL0     H24985   6.300   9.648   4.498 -4.9773  0.9813  1.3167
  906MOL0     H24986   5.991   9.939   4.319 -4.6433  0.2865 -1.6407
  906MOL0     H24987   5.659   9.865   4.373 -0.1755 -0.1175  2.0616
  906MOL0     H24988   5.725   9.804   4.210  0.3728  0.1323  0.8420
  906MOL0     H24989   5.774   9.960   4.265  0.2599 -0.0469  1.2160
  906MOL0     H24990   5.539   9.425   4.644  1.8724  0.3051 -0.0062
  906MOL0     H24991   5.378   9.228   4.664  0.8117 -6.0352 -0.9483
  906MOL0     H24992   5.188   9.172   4.323  2.2280  1.5054  1.2369
  906MOL0     H24993   5.251   9.015   4.280 -2.0833 -0.2506 -1.1838
  906MOL0     H24994   5.044   9.065   4.482  4.2713  1.1130  0.2988
  906MOL0     H24995   4.991   8.992   4.324 -0.3998  0.0884 -0.0917
  906MOL0     H24996   4.979   8.837   4.489 -0.3960  0.2695  0.2904
  906MOL0     H24997   5.153   8.834   4.534 -1.8050  1.2288  2.2602
  906MOL0     H24998   5.193   8.784   4.284  0.3624 -0.0477  1.0481
  906MOL0     H24999   5.024   8.767   4.259 -0.0197 -2.6764  0.8310
  906MOL0     H25000   5.192   8.636   4.461 -3.7446  2.0595  3.6478
  906MOL0     H25001   5.025   8.593   4.444 -0.4262  2.8326 -0.1792
  906MOL0     H25002   5.092   8.550   4.193 -0.2504  1.2991  0.3116
  906MOL0     H25003   5.098   8.425   4.317  1.4368 -0.4920  1.2330
  906MOL0     H25004   5.346   8.509   4.344 -0.1202  2.3732 -0.2588
  906MOL0     H25005   5.315   8.574   4.182 -0.8882 -0.5883 -0.0510
  906MOL0     H25006   5.281   8.271   4.241  0.7969 -0.9386 -0.7024
  906MOL0     H25007   5.419   8.339   4.152  0.8308 -1.4334  0.0678
  906MOL0     H25008   5.445   9.161   4.244 -1.8521  0.6822 -0.1752
  906MOL0     H25009   5.641   9.308   4.245  3.3350 -0.9348  1.9700
  906MOL0     H25010   5.914   9.496   4.528 -2.6652 -0.1766  1.8583
  906MOL0     H25011   6.106   9.614   4.591 -0.9661  2.7336  3.3857
  906MOL0     H25012   7.311  11.297   4.617  0.3647  2.3077  1.2136
  906MOL0     H25013   7.494  11.288   4.770 -0.3515 -1.0871 -1.2307
  906MOL0     H25014   7.663  11.024   5.057 -0.2254  0.8593 -2.5004
  906MOL0     H25015   7.865  10.927   5.159 -0.1468 -0.2325 -0.2476
  906MOL0     H25016   8.017  10.882   5.330  1.1475 -1.5787  0.6220
  906MOL0     H25017   8.090  10.884   5.164  1.9598  1.8244 -0.8116
  906MOL0     H25018   8.291  10.945   5.261 -0.4881 -0.3932 -2.2671
  906MOL0     H25019   8.243  10.791   5.332 -3.4703  0.4734 -2.0248
  906MOL0     H25020   8.269  11.051   5.471  1.0127 -0.3032  1.7854
  906MOL0     H25021   8.138  10.945   5.530 -1.6664  1.7141 -0.4293
  906MOL0     H25022   8.318  10.776   5.587  0.6346  0.1448  3.5559
  906MOL0     H25023   8.340  10.935   5.654 -1.7640  0.1905 -0.3240
  906MOL0     H25024   8.679  10.885   5.394 -0.1250  0.8345 -1.0920
  906MOL0     H25025   8.035  11.302   5.221  1.5725 -1.8350 -1.4783
  906MOL0     H25026   7.878  11.483   5.012 -0.9604  0.3174 -1.0574
  906MOL0     H25027   7.738  11.491   5.110  1.0377 -0.2344 -2.9272
  906MOL0     H25028   7.901  11.500   5.188 -1.6276  1.4212  0.3332
  907MOL0     O25029   7.206   2.991   6.109 -0.1342 -0.0353 -0.2101
  907MOL0     C25030   7.263   2.925   6.200  0.4498 -0.4206  0.5560
  907MOL0     O25031   7.392   2.893   6.209  0.1529  0.2765 -0.6952
  907MOL0     C25032   7.488   2.975   6.163  0.7626  0.3244  0.3870
  907MOL0     C25033   7.605   2.914   6.126 -0.1242 -1.2350  0.7245
  907MOL0     C25034   7.702   2.986   6.043  0.4419  0.3491  0.4236
  907MOL0     C25035   7.680   3.121   6.021 -0.9362 -0.7138  0.5338
  907MOL0     O25036   7.770   3.199   5.962 -0.6554  0.6955  0.1216
  907MOL0     C25037   7.788   3.171   5.822 -0.2189 -0.1956  0.2878
  907MOL0     C25038   7.707   3.263   5.739 -1.1447 -0.7201 -0.3452
  907MOL0     C25039   7.777   3.402   5.737 -0.7275  0.2677  0.1823
  907MOL0     C25040   7.683   3.499   5.687 -0.1027 -0.2100 -0.2754
  907MOL0     C25041   7.756   3.634   5.642 -0.6048  0.5354 -0.5903
  907MOL0     C25042   7.677   3.722   5.546  0.4176  0.4450  0.7836
  907MOL0     C25043   7.611   3.841   5.616 -0.3054  0.5436  0.0737
  907MOL0     C25044   7.557   3.932   5.509 -0.3319 -0.8423 -0.0339
  907MOL0     N25045   7.478   4.041   5.568 -0.7330 -0.5483  0.3964
  907MOL0     C25046   7.515   4.173   5.555  0.5848  0.0291  0.8214
  907MOL0     C25047   7.408   4.251   5.587  0.2677  0.3427  0.9138
  907MOL0     C25048   7.418   4.405   5.585 -1.2148  0.1129 -1.2094
  907MOL0     C25049   7.306   4.460   5.493 -0.0232  0.0597  0.2412
  907MOL0     C25050   7.358   4.509   5.354  0.1289  0.9339  0.0200
  907MOL0     C25051   7.292   4.413   5.249  1.0326 -0.2810  0.1322
  907MOL0     O25052   7.393   4.405   5.152 -0.5436  0.1252  0.0234
  907MOL0     C25053   7.459   4.286   5.158 -0.8614 -0.4725 -0.0142
  907MOL0     C25054   7.398   4.171   5.106 -0.0265 -0.1822 -1.3121
  907MOL0     C25055   7.462   4.044   5.116 -0.4011 -0.4365  0.3139
  907MOL0     C25056   7.383   3.918   5.107 -0.4382 -0.3224  0.4519
  907MOL0     C25057   7.598   4.035   5.165 -0.0821  0.5400  0.1307
  907MOL0     C25058   7.671   3.903   5.179 -0.2281  0.6994  0.0345
  907MOL0     O25059   7.628   3.791   5.123 -0.1065  0.5440 -0.6322
  907MOL0     C25060   7.665   3.665   5.179  0.4644  1.1805 -0.2066
  907MOL0     C25061   7.793   3.620   5.206 -0.0660 -0.1035 -0.2793
  907MOL0     C25062   7.815   3.485   5.245 -1.0209  0.5327  1.3568
  907MOL0     C25063   7.710   3.391   5.264 -0.6626 -0.6068 -0.0878
  907MOL0     O25064   7.721   3.261   5.309  0.4122 -0.2705  0.6475
  907MOL0     C25065   7.852   3.223   5.358 -0.8748  0.0276  0.3990
  907MOL0     C25066   7.854   3.088   5.414 -0.2391 -0.3899 -0.4096
  907MOL0     C25067   7.972   3.082   5.506  0.6491  0.3094 -0.2941
  907MOL0     C25068   7.987   2.943   5.566 -0.4701 -0.5989 -0.4467
  907MOL0     C25069   8.097   2.933   5.666  0.2049 -0.6912  0.6020
  907MOL0     C25070   8.144   2.796   5.703 -0.7988  0.3568  0.1232
  907MOL0     C25071   8.220   2.720   5.602 -0.0074 -0.4519 -1.0924
  907MOL0     C25072   8.342   2.794   5.542 -0.1000 -0.0732 -0.0740
  907MOL0    Cl25073   8.468   2.672   5.492  0.1103  0.3418  0.2805
  907MOL0     C25074   7.580   3.437   5.247  0.3061 -1.3414  0.5901
  907MOL0     C25075   7.556   3.573   5.197  0.2884 -0.4311 -0.8548
  907MOL0     O25076   7.773   3.906   5.244  0.3422 -0.3065 -0.1966
  907MOL0     C25077   7.653   4.154   5.212 -0.6491 -0.9276 -0.3618
  907MOL0     C25078   7.591   4.281   5.206 -0.6972  0.3667  0.3985
  907MOL0     N25079   7.306   4.163   5.623 -0.4432 -0.4059 -0.0919
  907MOL0     N25080   7.351   4.035   5.597 -0.0625 -0.5597 -0.5998
  907MOL0     C25081   7.555   3.186   6.052 -0.0524  0.4278  0.3763
  907MOL0     C25082   7.465   3.109   6.126  0.2774  0.3397  0.1232
  907MOL0     C25083   7.166   2.863   6.300  0.6910 -0.2733  0.5205
  907MOL0     C25084   7.039   2.826   6.246  0.0902  0.7497 -0.3837
  907MOL0     C25085   6.942   2.773   6.326  0.0665  0.7423 -0.6397
  907MOL0     C25086   6.971   2.751   6.465  0.3061  0.0488  0.5223
  907MOL0     O25087   6.887   2.700   6.558  0.1671  1.1273 -0.3476
  907MOL0     C25088   6.755   2.743   6.559  0.1144 -0.2982  1.3535
  907MOL0     C25089   6.679   2.671   6.680 -0.1278 -0.3241  0.2583
  907MOL0     C25090   6.547   2.745   6.697  0.0408  0.3583  0.6068
  907MOL0     C25091   6.456   2.682   6.583 -0.4203  1.5365  0.0800
  907MOL0     C25092   6.448   2.761   6.463 -0.4136  0.9941 -0.2982
  907MOL0     C25093   6.453   2.814   6.357  0.3203 -0.4669 -0.3501
  907MOL0     C25094   7.100   2.776   6.522 -0.0786 -0.5056  0.2655
  907MOL0     C25095   7.202   2.826   6.433  0.1398 -0.1076  0.3640
  907MOL0     C25096   7.337   2.861   6.490 -0.3063  0.3817  0.0330
  907MOL0     H25097   7.625   2.811   6.155 -0.6087 -1.5176  0.0645
  907MOL0     H25098   7.787   2.936   5.999 -0.8179  0.3924 -2.2762
  907MOL0     H25099   7.761   3.069   5.793 -1.4602  0.7914 -2.4024
  907MOL0     H25100   7.894   3.171   5.794 -0.2995 -0.8125 -0.0246
  907MOL0     H25101   7.695   3.229   5.636 -1.7986  0.5059 -0.6949
  907MOL0     H25102   7.604   3.277   5.774 -1.1306  1.7907 -1.1061
  907MOL0     H25103   7.806   3.436   5.837  1.4768  0.9168 -0.6158
  907MOL0     H25104   7.863   3.388   5.671 -2.2313 -2.6506 -1.3591
  907MOL0     H25105   7.640   3.461   5.593  1.4904  0.2154 -1.2123
  907MOL0     H25106   7.610   3.514   5.767  3.0165  1.9735  2.4368
  907MOL0     H25107   7.843   3.597   5.588 -1.5688 -3.2446  0.1174
  907MOL0     H25108   7.786   3.690   5.731  0.2226  0.1661 -0.6351
  907MOL0     H25109   7.742   3.764   5.469 -0.7288  4.0918  1.5892
  907MOL0     H25110   7.604   3.657   5.497  0.3399  3.4092 -3.6130
  907MOL0     H25111   7.677   3.913   5.665  0.8842 -0.7177  0.3749
  907MOL0     H25112   7.532   3.813   5.686  0.1841 -2.4182 -0.4512
  907MOL0     H25113   7.640   3.973   5.452 -1.3423 -0.8497 -1.5566
  907MOL0     H25114   7.498   3.871   5.440  0.3271 -1.6258  0.0764
  907MOL0     H25115   7.611   4.212   5.524  0.8578 -0.6733  0.7647
  907MOL0     H25116   7.515   4.442   5.548 -1.2543  1.8521  0.3303
  907MOL0     H25117   7.415   4.442   5.687  1.8753 -0.2032 -0.9000
  907MOL0     H25118   7.212   4.404   5.497 -0.6145  1.0845  3.8544
  907MOL0     H25119   7.270   4.547   5.549 -0.3152  0.8675 -1.1613
  907MOL0     H25120   7.323   4.612   5.344  0.2683  1.3927  3.0938
  907MOL0     H25121   7.468   4.504   5.350  0.2429 -1.3819  2.5882
  907MOL0     H25122   7.274   4.318   5.300 -3.4617 -0.1673 -0.9056
  907MOL0     H25123   7.200   4.450   5.203  1.6477 -1.9789 -2.7019
  907MOL0     H25124   7.291   4.173   5.093  0.0201 -0.1079 -1.7055
  907MOL0     H25125   7.420   3.837   5.044 -4.4574 -4.5724  2.9596
  907MOL0     H25126   7.280   3.941   5.080 -0.2268 -2.2809 -2.5010
  907MOL0     H25127   7.369   3.868   5.203 -3.3745 -4.1130 -1.6487
  907MOL0     H25128   7.868   3.697   5.189 -0.6574  0.3268 -0.9805
  907MOL0     H25129   7.910   3.434   5.240 -2.1693 -1.6919  0.6603
  907MOL0     H25130   7.915   3.225   5.268  0.5241  1.7843  1.3562
  907MOL0     H25131   7.887   3.296   5.431 -4.1422  1.3767  0.7350
  907MOL0     H25132   7.763   3.056   5.465  0.4278 -2.8069 -0.6270
  907MOL0     H25133   7.862   3.014   5.334 -1.7428 -1.0985  0.0616
  907MOL0     H25134   7.963   3.161   5.581  0.7212  0.4228 -0.4035
  907MOL0     H25135   8.058   3.113   5.446 -1.7029  1.4207 -3.3423
  907MOL0     H25136   8.009   2.876   5.482 -1.2249 -1.3632 -0.0562
  907MOL0     H25137   7.887   2.913   5.599  0.5812 -3.8674  0.2154
  907MOL0     H25138   8.179   2.998   5.635 -0.3643 -1.1936 -2.1702
  907MOL0     H25139   8.047   2.971   5.756 -0.0986  0.7186 -0.1354
  907MOL0     H25140   8.050   2.744   5.725 -0.7056 -0.0943 -0.5124
  907MOL0     H25141   8.200   2.796   5.797 -1.1586 -2.5948  0.4319
  907MOL0     H25142   8.152   2.684   5.525 -1.6222  2.5440 -1.1962
  907MOL0     H25143   8.265   2.629   5.645  1.1752 -0.3281 -1.9966
  907MOL0     H25144   8.382   2.880   5.597 -0.8517 -0.0857  0.5141
  907MOL0     H25145   8.304   2.845   5.453  1.1251 -0.8160 -1.0578
  907MOL0     H25146   7.500   3.364   5.246 -1.0176 -0.0055 -1.6873
  907MOL0     H25147   7.458   3.613   5.172 -0.1734  0.9986  2.6612
  907MOL0     H25148   7.751   4.144   5.257 -0.2695 -1.7809 -1.3462
  907MOL0     H25149   7.630   4.364   5.263 -0.9042  0.5065  0.3387
  907MOL0     H25150   7.534   3.282   6.007  0.3171 -1.0545 -3.2413
  907MOL0     H25151   7.372   3.160   6.153 -1.3385  0.0230 -4.0933
  907MOL0     H25152   7.023   2.846   6.141 -0.3858  1.6432 -0.1560
  907MOL0     H25153   6.843   2.744   6.293 -0.2397 -1.8248  2.1057
  907MOL0     H25154   6.740   2.851   6.568  0.4506  0.0012 -1.0570
  907MOL0     H25155   6.716   2.707   6.463 -0.6510  1.2418  1.0513
  907MOL0     H25156   6.741   2.686   6.768  0.3658 -1.9393  0.2183
  907MOL0     H25157   6.692   2.564   6.662  3.7168 -0.3756  2.1837
  907MOL0     H25158   6.512   2.723   6.798  2.3746 -2.1897  0.9747
  907MOL0     H25159   6.562   2.849   6.669  2.1446 -0.4169 -1.4996
  907MOL0     H25160   6.356   2.653   6.616  0.9146 -2.4016  1.2119
  907MOL0     H25161   6.503   2.587   6.557 -2.9517  0.3522 -0.4638
  907MOL0     H25162   6.449   2.852   6.257 -2.1426  0.5418  0.0497
  907MOL0     H25163   7.111   2.770   6.630 -1.6281 -0.7419  0.4354
  907MOL0     H25164   7.322   2.893   6.593 -0.3266 -0.7634  0.4043
  907MOL0     H25165   7.406   2.776   6.489  0.5917  1.0924  0.2526
  907MOL0     H25166   7.386   2.948   6.445 -0.5511  0.4157 -0.1704
  908MOL0     O25167   0.382   5.321  10.025  0.6594  0.1098  0.5124
  908MOL0     C25168   0.385   5.333  10.151  0.3449 -0.2454  1.2119
  908MOL0     O25169   0.376   5.235  10.242  0.9163 -0.3388  0.3957
  908MOL0     C25170   0.412   5.109  10.210 -0.3166  0.6175  0.3198
  908MOL0     C25171   0.541   5.066  10.257 -0.3320  0.2318  0.4887
  908MOL0     C25172   0.565   4.930  10.262 -0.5405 -0.0729  0.4280
  908MOL0     C25173   0.488   4.825  10.203 -1.1452 -0.1457  0.7520
  908MOL0     O25174   0.524   4.694  10.225 -0.0650  0.2742  0.3568
  908MOL0     C25175   0.431   4.594  10.180  0.1433 -1.1552  0.2738
  908MOL0     C25176   0.312   4.575  10.278 -0.4967 -0.2856  0.6442
  908MOL0     C25177   0.203   4.472  10.247  0.0173  0.2930  0.2002
  908MOL0     C25178   0.278   4.341  10.262  0.1151  0.3817  0.3971
  908MOL0     C25179   0.185   4.221  10.239  0.4777  0.1350  0.1607
  908MOL0     C25180   0.131   4.194  10.105 -0.6745 -0.4493  0.7817
  908MOL0     C25181   0.004   4.111  10.103 -0.3943 -0.8335 -0.4451
  908MOL0     C25182   0.024   3.962  10.151 -0.8133 -0.0714 -0.2576
  908MOL0     N25183   0.115   3.891  10.059 -0.4483  0.2890  0.6367
  908MOL0     C25184   0.139   3.918   9.925 -0.4713 -0.3704  0.1767
  908MOL0     C25185   0.226   3.817   9.891  0.7296  0.0526 -0.7252
  908MOL0     C25186   0.268   3.796   9.749 -0.2053 -0.1434 -0.9981
  908MOL0     C25187   0.154   3.786   9.644 -0.7297 -0.2938 -0.4519
  908MOL0     C25188   0.035   3.703   9.687 -0.9583  0.4661  0.1351
  908MOL0     C25189  -0.056   3.663   9.576 -0.0437 -0.9012 -0.8183
  908MOL0     O25190  -0.115   3.777   9.515  0.1070 -0.0341  1.0542
  908MOL0     C25191  -0.247   3.765   9.495 -1.0364  1.1859  0.3871
  908MOL0     C25192  -0.289   3.709   9.374 -0.2282 -0.5462 -0.7438
  908MOL0     C25193  -0.423   3.680   9.344 -0.1334  0.8449  0.7878
  908MOL0     C25194  -0.463   3.608   9.217  0.1149 -0.2099  0.3319
  908MOL0     C25195  -0.514   3.724   9.442  1.1834 -0.7336  0.1480
  908MOL0     C25196  -0.656   3.695   9.430  0.1037 -0.1905 -0.4203
  908MOL0     O25197  -0.696   3.568   9.395 -0.2671 -0.0672  0.3186
  908MOL0     C25198  -0.824   3.575   9.336  0.1272  0.4056 -0.1411
  908MOL0     C25199  -0.940   3.535   9.410 -0.1390  0.2419  0.4760
  908MOL0     C25200  -1.069   3.543   9.361  0.1260 -0.4694  0.8133
  908MOL0     C25201  -1.082   3.601   9.233  0.7755 -0.1949 -0.5405
  908MOL0     O25202  -1.197   3.636   9.171  0.0495 -0.2347 -0.5678
  908MOL0     C25203  -1.313   3.620   9.250  0.0114  0.0107  0.3398
  908MOL0     C25204  -1.428   3.666   9.167  0.0685 -0.0568 -0.2148
  908MOL0     C25205  -1.437   3.628   9.017  0.7918 -1.2155 -0.4152
  908MOL0     C25206  -1.582   3.659   8.964 -0.3266 -0.1920 -0.3890
  908MOL0     C25207  -1.590   3.628   8.814 -0.1789 -0.4863  0.1912
  908MOL0     C25208  -1.736   3.677   8.776  0.0435  0.0336 -0.6707
  908MOL0     C25209  -1.782   3.621   8.642 -0.0829  0.0824 -1.0325
  908MOL0     C25210  -1.707   3.687   8.528 -0.3960  0.2047 -0.2970
  908MOL0    Cl25211  -1.762   3.641   8.362 -0.1586  0.1927  0.4948
  908MOL0     C25212  -0.966   3.645   9.166  0.5426  0.6905  0.1043
  908MOL0     C25213  -0.839   3.627   9.214  0.3575  0.1114  0.1916
  908MOL0     O25214  -0.733   3.785   9.463  0.5271 -0.8479 -0.5728
  908MOL0     C25215  -0.468   3.799   9.554  0.7660  0.4447  0.6810
  908MOL0     C25216  -0.336   3.804   9.587  1.1278  0.0728 -0.4748
  908MOL0     N25217   0.267   3.746   9.999  0.0671 -0.1967 -0.2378
  908MOL0     N25218   0.210   3.799  10.102 -0.1200  0.7013 -0.3286
  908MOL0     C25219   0.370   4.871  10.140 -0.7847 -0.4635 -0.4086
  908MOL0     C25220   0.335   5.007  10.144 -0.3490  0.4049 -0.0379
  908MOL0     C25221   0.440   5.461  10.203 -0.6695 -0.6095 -0.6100
  908MOL0     C25222   0.498   5.463  10.327  0.2541 -0.0184  0.2208
  908MOL0     C25223   0.539   5.575  10.391 -0.2998  0.0701  0.5792
  908MOL0     C25224   0.543   5.703  10.320  0.3177  0.2449  0.2082
  908MOL0     O25225   0.580   5.824  10.367 -0.2125  0.3849  0.0609
  908MOL0     C25226   0.666   5.823  10.482  0.0610  0.0791  0.8098
  908MOL0     C25227   0.594   5.792  10.614  0.4618 -0.4967  0.2317
  908MOL0     C25228   0.541   5.926  10.663  0.0021 -0.3792 -0.5284
  908MOL0     C25229   0.459   5.902  10.798  0.4567  0.2132  0.0689
  908MOL0     C25230   0.316   5.884  10.765 -0.4585  0.1723  0.1718
  908MOL0     C25231   0.199   5.863  10.730  0.8273 -0.2253 -0.2511
  908MOL0     C25232   0.491   5.702  10.190  0.4718  0.0324 -0.2853
  908MOL0     C25233   0.431   5.587  10.130 -0.7229 -0.0086  0.1775
  908MOL0     C25234   0.357   5.624  10.006 -0.4409 -0.5461 -0.0347
  908MOL0     H25235   0.613   5.142  10.284 -2.2931  2.2867  0.2710
  908MOL0     H25236   0.648   4.884  10.315 -0.3954  0.6547  0.8407
  908MOL0     H25237   0.488   4.502  10.165 -1.9256 -2.4886  0.3111
  908MOL0     H25238   0.393   4.617  10.080  1.1153  1.6106  0.4380
  908MOL0     H25239   0.350   4.555  10.378  0.1751 -2.0536  0.0726
  908MOL0     H25240   0.257   4.669  10.284 -0.4493 -0.1119 -1.1745
  908MOL0     H25241   0.114   4.484  10.309  0.9525 -0.6930  1.7988
  908MOL0     H25242   0.173   4.493  10.144 -1.8014  2.9110  1.1396
  908MOL0     H25243   0.354   4.326  10.184 -0.2040  1.7833 -0.2164
  908MOL0     H25244   0.323   4.328  10.361  1.3295 -0.2811 -0.2139
  908MOL0     H25245   0.094   4.235  10.298 -1.7556 -1.6655 -2.6311
  908MOL0     H25246   0.252   4.137  10.258  0.9317  0.2236 -0.9620
  908MOL0     H25247   0.112   4.291  10.057  2.7358 -0.0464 -0.0141
  908MOL0     H25248   0.215   4.152  10.049 -0.1858  0.8687  0.4883
  908MOL0     H25249  -0.030   4.110   9.999  1.8834  1.3656 -1.3217
  908MOL0     H25250  -0.073   4.157  10.165  1.5507  0.8246  0.9118
  908MOL0     H25251   0.069   3.961  10.251  2.6698  0.1017 -1.6774
  908MOL0     H25252  -0.076   3.919  10.139 -0.0743 -1.3317 -2.5489
  908MOL0     H25253   0.102   3.995   9.858  0.4687  1.0982  1.3024
  908MOL0     H25254   0.310   3.695   9.752 -0.3850 -0.1968  0.4934
  908MOL0     H25255   0.354   3.860   9.727  2.1180 -2.2102  1.2924
  908MOL0     H25256   0.115   3.885   9.620  0.4105  0.1792 -0.3900
  908MOL0     H25257   0.189   3.748   9.548 -2.0263 -0.3999 -0.9095
  908MOL0     H25258   0.073   3.604   9.714 -2.0810  1.4022  6.7587
  908MOL0     H25259  -0.011   3.743   9.778 -0.5040 -1.8861  1.5037
  908MOL0     H25260   0.011   3.614   9.504 -0.0732 -2.6037  0.2584
  908MOL0     H25261  -0.124   3.596   9.628  0.6984 -1.5683 -0.6853
  908MOL0     H25262  -0.216   3.682   9.297  0.7160 -0.4433  0.0925
  908MOL0     H25263  -0.382   3.592   9.146 -1.0550  2.3071 -1.7479
  908MOL0     H25264  -0.542   3.661   9.163  2.2394  0.3282 -2.4721
  908MOL0     H25265  -0.502   3.509   9.243 -2.7659  0.9528  0.8318
  908MOL0     H25266  -0.923   3.513   9.515  0.2250  1.6673  0.7402
  908MOL0     H25267  -1.160   3.536   9.419 -2.8553  0.6035 -3.2725
  908MOL0     H25268  -1.316   3.515   9.280  3.3898  0.1901  1.7320
  908MOL0     H25269  -1.314   3.679   9.341 -0.4738  2.0238 -0.9067
  908MOL0     H25270  -1.512   3.619   9.219  1.5410  0.4738  2.8861
  908MOL0     H25271  -1.435   3.773   9.186 -4.2704 -0.7546  3.9640
  908MOL0     H25272  -1.426   3.520   9.009 -2.7920 -1.5904 -2.9900
  908MOL0     H25273  -1.364   3.689   8.963 -0.9562  2.4362  0.9786
  908MOL0     H25274  -1.612   3.763   8.978 -0.4338 -0.3529  0.6383
  908MOL0     H25275  -1.653   3.595   9.017  1.9777 -1.4476  1.3544
  908MOL0     H25276  -1.512   3.681   8.759 -0.2053 -1.7144 -1.0730
  908MOL0     H25277  -1.587   3.519   8.811  0.7796 -0.4560 -0.5135
  908MOL0     H25278  -1.724   3.786   8.777  0.0838  0.1386  3.4498
  908MOL0     H25279  -1.812   3.656   8.852  1.3132 -1.5440  0.2173
  908MOL0     H25280  -1.888   3.642   8.627  0.1631  3.7858  1.1914
  908MOL0     H25281  -1.775   3.511   8.636  0.6799  0.2002 -3.3767
  908MOL0     H25282  -1.600   3.668   8.545 -1.0218 -2.0023  1.7754
  908MOL0     H25283  -1.711   3.795   8.540  3.9275  0.3838  1.5370
  908MOL0     H25284  -0.976   3.680   9.063 -1.0541 -1.4902 -0.5441
  908MOL0     H25285  -0.764   3.672   9.150 -1.9250  0.6784 -2.2207
  908MOL0     H25286  -0.549   3.834   9.617 -1.8911  0.6358 -2.5442
  908MOL0     H25287  -0.315   3.830   9.690  1.8056 -3.9192  0.5587
  908MOL0     H25288   0.305   4.793  10.103 -0.6237 -2.3378  2.9216
  908MOL0     H25289   0.238   5.021  10.098 -0.4023 -1.2947 -0.5343
  908MOL0     H25290   0.504   5.373  10.387  4.4906 -0.9430 -1.2033
  908MOL0     H25291   0.576   5.562  10.492 -0.1606  1.5884  0.7388
  908MOL0     H25292   0.741   5.747  10.460  0.8295  0.1245  2.9955
  908MOL0     H25293   0.718   5.919  10.480  0.9255 -0.2940 -3.3828
  908MOL0     H25294   0.672   5.761  10.684  1.7146  0.8843 -0.4817
  908MOL0     H25295   0.513   5.719  10.605  0.3560 -0.3715  0.1676
  908MOL0     H25296   0.620   6.001  10.668 -0.3521 -0.0787  1.2418
  908MOL0     H25297   0.469   5.973  10.594 -2.6165 -0.5961  1.8688
  908MOL0     H25298   0.466   5.989  10.863 -0.1468 -2.0112  3.3214
  908MOL0     H25299   0.494   5.820  10.861 -0.6698 -0.2603  0.1013
  908MOL0     H25300   0.095   5.838  10.729  0.4411  1.2316  0.5328
  908MOL0     H25301   0.470   5.799  10.147 -4.7045 -0.8533 -0.4088
  908MOL0     H25302   0.413   5.582   9.922  0.2900  1.5608 -0.6453
  908MOL0     H25303   0.255   5.584  10.012 -1.8019  2.6317 -0.1824
  908MOL0     H25304   0.337   5.731  10.001 -3.0584 -1.0280 -3.1866
  909MOL0     O25305   4.354  11.202   9.782  0.5274  0.1116 -0.5352
  909MOL0     C25306   4.459  11.175   9.723  1.5069 -0.8327  0.0478
  909MOL0     O25307   4.496  11.240   9.610 -0.4566 -0.4613  0.1909
  909MOL0     C25308   4.427  11.343   9.541  0.5766  0.6073 -0.9193
  909MOL0     C25309   4.380  11.452   9.611  0.3177  0.0895 -0.8396
  909MOL0     C25310   4.308  11.556   9.553 -0.1048 -0.3226  0.3009
  909MOL0     C25311   4.283  11.557   9.419 -0.5951  0.0665 -0.4874
  909MOL0     O25312   4.210  11.652   9.345 -0.5507  0.4819  0.6844
  909MOL0     C25313   4.121  11.752   9.404 -0.4073 -0.6357  0.2794
  909MOL0     C25314   4.110  11.877   9.308 -0.0227 -0.6215 -0.1166
  909MOL0     C25315   4.054  11.872   9.169  0.0612  0.5663  0.8550
  909MOL0     C25316   3.899  11.871   9.174  0.4850 -0.5704 -0.1771
  909MOL0     C25317   3.824  11.885   9.043 -0.9088 -0.3727 -1.1292
  909MOL0     C25318   3.820  11.760   8.953 -1.8326 -0.7492  0.0758
  909MOL0     C25319   3.730  11.648   9.009 -0.2579 -0.5957 -0.5164
  909MOL0     C25320   3.749  11.519   8.929  0.4585 -0.0689  0.7069
  909MOL0     N25321   3.641  11.432   8.960  0.3687 -0.1922  0.1497
  909MOL0     C25322   3.637  11.319   9.033  0.1009  1.1588 -0.3372
  909MOL0     C25323   3.513  11.260   9.021  0.0923 -0.1722  0.1353
  909MOL0     C25324   3.458  11.134   9.082 -0.1816  0.0738 -0.3075
  909MOL0     C25325   3.351  11.159   9.185  0.4181  0.4894  0.3096
  909MOL0     C25326   3.292  11.020   9.228 -0.6147  0.2887 -0.4636
  909MOL0     C25327   3.188  11.063   9.337 -0.1609 -0.3103  0.0140
  909MOL0     O25328   3.120  10.944   9.382  0.2094  0.3678  0.3957
  909MOL0     C25329   3.018  10.961   9.474  0.5002  1.0645 -0.0008
  909MOL0     C25330   2.970  11.088   9.514  0.5034  0.3635 -0.7680
  909MOL0     C25331   2.877  11.095   9.621 -0.4232 -0.0347  0.5389
  909MOL0     C25332   2.821  11.229   9.652  0.7935  0.4014  0.3577
  909MOL0     C25333   2.824  10.981   9.687 -0.1192 -0.3116  1.0300
  909MOL0     C25334   2.742  10.985   9.814 -1.1871 -0.7507  1.6275
  909MOL0     O25335   2.679  10.870   9.836  0.3914  0.5310 -0.3975
  909MOL0     C25336   2.647  10.834   9.969 -0.1699  0.1455  0.0429
  909MOL0     C25337   2.592  10.923  10.064 -0.7811  0.5796 -1.1671
  909MOL0     C25338   2.543  10.863  10.181  0.0203  0.0312 -0.1275
  909MOL0     C25339   2.555  10.730  10.212  0.1444  0.4640 -0.1420
  909MOL0     O25340   2.501  10.656  10.317  0.0655 -0.5944 -0.0684
  909MOL0     C25341   2.469  10.735  10.446  0.2861  0.3773  0.2075
  909MOL0     C25342   2.392  10.644  10.531  1.1267  0.5188 -0.1044
  909MOL0     C25343   2.245  10.595  10.477  0.5185  0.2543  0.5889
  909MOL0     C25344   2.136  10.600  10.581  0.0085  0.5768 -0.6812
  909MOL0     C25345   2.013  10.543  10.506 -0.8869 -0.4138  0.3496
  909MOL0     C25346   2.001  10.392  10.534  1.3729  0.0265  0.6232
  909MOL0     C25347   1.921  10.372  10.663 -0.5466  0.8629  0.5133
  909MOL0     C25348   1.912  10.222  10.696 -0.2807  0.0304 -1.6147
  909MOL0    Cl25349   1.755  10.196  10.785 -0.8264 -0.4613 -0.1471
  909MOL0     C25350   2.603  10.646  10.110  0.1312  0.5504 -0.3609
  909MOL0     C25351   2.653  10.695   9.990  1.4459 -0.3679 -0.1162
  909MOL0     O25352   2.746  11.075   9.895  0.0634 -0.2815 -0.2135
  909MOL0     C25353   2.867  10.859   9.638 -0.7838  0.1200  0.0606
  909MOL0     C25354   2.963  10.849   9.532  0.1197  0.5364  0.0595
  909MOL0     N25355   3.444  11.347   8.941  0.0193 -0.3023  0.5807
  909MOL0     N25356   3.519  11.448   8.904  0.1174  0.0342 -0.2682
  909MOL0     C25357   4.339  11.447   9.347 -0.2160  0.1287 -0.4033
  909MOL0     C25358   4.399  11.338   9.399  0.0998  0.2254 -0.0165
  909MOL0     C25359   4.517  11.052   9.766 -0.1250  0.3645 -0.2610
  909MOL0     C25360   4.449  10.984   9.881 -1.2575 -0.8040  0.4785
  909MOL0     C25361   4.511  10.866   9.927 -0.2811 -0.8652 -1.0652
  909MOL0     C25362   4.628  10.813   9.875  0.1569 -0.4472 -0.4718
  909MOL0     O25363   4.678  10.701   9.926  0.5150 -0.3312  0.0059
  909MOL0     C25364   4.794  10.702  10.010 -0.0844  0.2564 -0.2850
  909MOL0     C25365   4.762  10.735  10.157  0.1813  0.3450 -0.0845
  909MOL0     C25366   4.889  10.747  10.246 -0.2032 -0.6058  0.1524
  909MOL0     C25367   4.848  10.747  10.396  0.5359  0.3356 -0.7382
  909MOL0     C25368   4.785  10.622  10.430 -0.1779  0.2306  0.0202
  909MOL0     C25369   4.753  10.509  10.454  0.5888  0.2638 -0.2147
  909MOL0     C25370   4.692  10.877   9.772  0.1342 -0.9674  0.3338
  909MOL0     C25371   4.638  10.999   9.711 -0.3557 -0.1224 -1.3257
  909MOL0     C25372   4.732  11.054   9.600 -1.8691 -0.0212  0.0568
  909MOL0     H25373   4.409  11.461   9.715  1.6348 -2.0325 -0.9684
  909MOL0     H25374   4.274  11.639   9.615 -2.0479  0.4759 -1.6906
  909MOL0     H25375   4.161  11.783   9.501 -2.3267 -2.4094  1.7096
  909MOL0     H25376   4.023  11.707   9.419 -0.3451 -1.5682 -1.7538
  909MOL0     H25377   4.047  11.952   9.356 -1.9023 -2.6275  0.6734
  909MOL0     H25378   4.212  11.915   9.299 -0.3721  0.5476  0.6451
  909MOL0     H25379   4.086  11.953   9.104 -0.5274  0.3940  0.3361
  909MOL0     H25380   4.105  11.784   9.129  0.3327 -0.1986  2.7708
  909MOL0     H25381   3.865  11.774   9.213 -1.5798 -0.5264 -1.6909
  909MOL0     H25382   3.867  11.954   9.237  2.0994  0.9068 -1.2465
  909MOL0     H25383   3.859  11.971   8.987  0.2283 -0.0444  0.0353
  909MOL0     H25384   3.718  11.902   9.062 -0.4249  1.8298 -0.0820
  909MOL0     H25385   3.779  11.784   8.854 -1.7654  1.0544  0.4669
  909MOL0     H25386   3.919  11.716   8.934 -2.1354 -1.4516  0.0678
  909MOL0     H25387   3.628  11.684   9.000  0.4809  1.2381 -2.1417
  909MOL0     H25388   3.755  11.627   9.114 -1.3489  3.9144  0.8571
  909MOL0     H25389   3.767  11.533   8.822 -0.6042  0.0514  0.5329
  909MOL0     H25390   3.843  11.486   8.975 -1.1932  1.1156  5.5181
  909MOL0     H25391   3.725  11.279   9.082  0.8881  1.5479 -1.4239
  909MOL0     H25392   3.542  11.074   9.117 -0.5398 -0.1122  0.2392
  909MOL0     H25393   3.417  11.080   8.996  2.9019 -1.9691 -0.6517
  909MOL0     H25394   3.393  11.218   9.267 -1.8632 -0.4065  2.2298
  909MOL0     H25395   3.269  11.214   9.138 -0.3994 -0.6336  0.3936
  909MOL0     H25396   3.243  10.957   9.153 -0.6002 -0.7228  0.3650
  909MOL0     H25397   3.374  10.965   9.274 -0.1644  2.7073  1.8463
  909MOL0     H25398   3.228  11.123   9.420 -3.5657  3.0677 -0.4634
  909MOL0     H25399   3.116  11.129   9.286 -0.6518  0.0904  1.1942
  909MOL0     H25400   3.002  11.179   9.463 -0.9967 -0.0216 -2.5120
  909MOL0     H25401   2.836  11.307   9.576  0.0210  1.3785  1.1845
  909MOL0     H25402   2.870  11.270   9.741  0.8401  0.3592  0.3510
  909MOL0     H25403   2.712  11.221   9.656  0.7656 -1.8379 -2.1950
  909MOL0     H25404   2.581  11.030  10.050 -0.0889  0.5621 -1.8996
  909MOL0     H25405   2.515  10.924  10.266 -1.0135  0.6639 -0.8938
  909MOL0     H25406   2.558  10.776  10.494 -1.0320  1.1783  2.0927
  909MOL0     H25407   2.411  10.825  10.427 -3.1332 -1.1102  2.6205
  909MOL0     H25408   2.449  10.552  10.544  1.6903  0.7343 -0.9694
  909MOL0     H25409   2.372  10.694  10.626  0.0740  0.2737 -0.1834
  909MOL0     H25410   2.252  10.492  10.442  2.0107  0.3074  0.6714
  909MOL0     H25411   2.216  10.661  10.395  2.3954 -1.2346 -1.3737
  909MOL0     H25412   2.120  10.706  10.603 -1.2800  0.4151 -0.7229
  909MOL0     H25413   2.157  10.545  10.672 -0.3099 -1.5932 -1.8403
  909MOL0     H25414   1.928  10.594  10.553  0.6414  0.9729  1.7589
  909MOL0     H25415   2.015  10.566  10.399  1.0048 -1.5675  0.0973
  909MOL0     H25416   2.099  10.344  10.542  0.0912 -3.1177 -0.9373
  909MOL0     H25417   1.943  10.345  10.453  2.9596 -1.3028  0.1971
  909MOL0     H25418   1.818  10.407  10.649 -0.9968 -0.5248  0.2367
  909MOL0     H25419   1.973  10.427  10.743 -0.2534  1.0253  0.2123
  909MOL0     H25420   2.003  10.189  10.746 -0.0972  0.9277 -1.3443
  909MOL0     H25421   1.908  10.158  10.607 -0.0695  0.7147 -2.1244
  909MOL0     H25422   2.598  10.543  10.142 -2.7208  0.5987 -0.4268
  909MOL0     H25423   2.707  10.641   9.913  2.6007  0.8813 -0.2224
  909MOL0     H25424   2.839  10.758   9.667  3.2553 -1.4553 -0.8596
  909MOL0     H25425   3.000  10.750   9.507 -0.3079 -0.4988  3.1443
  909MOL0     H25426   4.319  11.446   9.240 -0.9018 -0.5016 -0.2779
  909MOL0     H25427   4.427  11.252   9.339 -0.3265  1.1736 -1.6233
  909MOL0     H25428   4.359  11.017   9.933 -2.1652 -3.3604  0.6397
  909MOL0     H25429   4.462  10.825  10.014  0.0991 -0.5977 -0.7228
  909MOL0     H25430   4.839  10.603  10.000 -2.1550 -0.5832 -2.3356
  909MOL0     H25431   4.864  10.781   9.981 -2.3874  2.1041 -1.1642
  909MOL0     H25432   4.704  10.647  10.187  0.4992  0.3265  0.4934
  909MOL0     H25433   4.697  10.823  10.167 -0.7934 -0.4991  1.3031
  909MOL0     H25434   4.955  10.660  10.239  0.8850  0.2360 -0.1403
  909MOL0     H25435   4.939  10.841  10.222 -3.4053  1.2431  0.0513
  909MOL0     H25436   4.778  10.829  10.417  0.3994 -0.2858  1.5486
  909MOL0     H25437   4.939  10.758  10.455  0.8822 -1.7029 -0.8060
  909MOL0     H25438   4.735  10.407  10.482  0.1474  0.5991  0.7694
  909MOL0     H25439   4.783  10.836   9.729 -1.4755 -1.5566 -2.8215
  909MOL0     H25440   4.721  11.162   9.611 -0.8411 -0.0830  1.9703
  909MOL0     H25441   4.835  11.029   9.625 -2.0581 -0.6458  0.2252
  909MOL0     H25442   4.703  11.015   9.501  0.8606 -0.7181 -0.5578
  910MOL0     O25443   8.831   9.887   2.070  0.0664 -0.2668  0.9732
  910MOL0     C25444   8.802   9.915   1.957  0.1127 -0.1253 -0.0067
  910MOL0     O25445   8.871   9.875   1.841 -0.2889  0.4786 -0.4230
  910MOL0     C25446   8.987   9.812   1.879 -0.0926 -0.5856  1.1363
  910MOL0     C25447   8.994   9.678   1.921  0.1732  0.4113 -0.8040
  910MOL0     C25448   9.119   9.616   1.945  0.4553 -0.9246  0.4562
  910MOL0     C25449   9.239   9.681   1.914  0.0347  0.0076 -0.1129
  910MOL0     O25450   9.354   9.605   1.920 -0.1753 -0.2651  0.1776
  910MOL0     C25451   9.465   9.673   1.960  0.4466  0.0676  0.7058
  910MOL0     C25452   9.549   9.694   1.824  0.4844 -0.7659 -0.1568
  910MOL0     C25453   9.669   9.787   1.849  0.6573 -1.0055 -0.7391
  910MOL0     C25454   9.753   9.795   1.715  0.1563 -0.6920 -0.7144
  910MOL0     C25455   9.879   9.879   1.747  0.4961 -0.2290 -0.6064
  910MOL0     C25456   9.965   9.887   1.615 -0.0640 -0.0043  0.2843
  910MOL0     C25457  10.115   9.910   1.639 -0.1794  0.7348  0.0018
  910MOL0     C25458  10.145  10.044   1.693 -0.3216 -0.4737 -0.2117
  910MOL0     N25459  10.117  10.154   1.604 -0.3499 -0.0095 -1.0919
  910MOL0     C25460  10.069  10.277   1.632  0.1645 -1.5772 -0.8477
  910MOL0     C25461  10.039  10.336   1.511 -0.4313 -0.5933  0.6314
  910MOL0     C25462   9.975  10.472   1.490 -0.2233 -0.5209 -0.1573
  910MOL0     C25463  10.051  10.567   1.398  0.5540  0.3140 -0.3596
  910MOL0     C25464  10.202  10.568   1.420  0.9831 -0.1105  0.1845
  910MOL0     C25465  10.271  10.501   1.295  0.0006  0.4963 -0.4858
  910MOL0     O25466  10.285  10.595   1.186 -0.1866  0.2327  0.1695
  910MOL0     C25467  10.352  10.569   1.073  0.4402  0.1253 -0.6043
  910MOL0     C25468  10.414  10.451   1.033  0.2751  0.6063  0.6439
  910MOL0     C25469  10.454  10.431   0.894  0.9556 -0.6134  0.7918
  910MOL0     C25470  10.500  10.295   0.857  0.8007 -0.0403  0.6103
  910MOL0     C25471  10.439  10.535   0.793 -0.4186  0.7148  0.3679
  910MOL0     C25472  10.470  10.529   0.647 -0.5068  0.3720 -0.5058
  910MOL0     O25473  10.398  10.609   0.557  0.0503 -0.4062  0.1617
  910MOL0     C25474  10.449  10.622   0.429  1.2031  0.2981 -0.5633
  910MOL0     C25475  10.571  10.681   0.413  0.3830  0.0634 -0.5755
  910MOL0     C25476  10.628  10.706   0.285 -0.6373  0.4644 -0.4361
  910MOL0     C25477  10.568  10.651   0.173  0.1012 -0.6626  0.6461
  910MOL0     O25478  10.615  10.666   0.047 -0.4015 -0.0786 -0.1928
  910MOL0     C25479  10.647  10.802  -0.007  0.0217  1.1698 -0.0771
  910MOL0     C25480  10.654  10.798  -0.158 -0.9584  0.5388  0.4291
  910MOL0     C25481  10.647  10.943  -0.218  0.4120  1.3957 -1.0672
  910MOL0     C25482  10.789  10.989  -0.236  0.2720  0.1036  0.5343
  910MOL0     C25483  10.799  11.144  -0.238 -0.0897 -0.8391  0.2522
  910MOL0     C25484  10.787  11.195  -0.375 -0.1750  0.8642  0.6435
  910MOL0     C25485  10.785  11.352  -0.395  0.1092  0.8752 -1.3331
  910MOL0     C25486  10.853  11.406  -0.514  0.5700  0.7210 -0.2864
  910MOL0    Cl25487  10.871  11.585  -0.509  0.2747 -0.3984  0.1545
  910MOL0     C25488  10.445  10.589   0.189  0.7566 -0.0137  1.5140
  910MOL0     C25489  10.391  10.571   0.316  1.5650  0.5082  0.5205
  910MOL0     O25490  10.560  10.443   0.620 -0.2021  0.0487  0.5544
  910MOL0     C25491  10.389  10.656   0.846  0.5838  0.2358 -0.8226
  910MOL0     C25492  10.340  10.668   0.981 -0.2459  0.7817  0.2764
  910MOL0     N25493  10.065  10.243   1.416 -0.6160  0.5485  0.9044
  910MOL0     N25494  10.125  10.144   1.474 -0.2053 -0.2112  0.3920
  910MOL0     C25495   9.225   9.810   1.864 -0.0767 -0.1032 -0.0155
  910MOL0     C25496   9.102   9.871   1.831 -0.4368 -0.2032 -0.2866
  910MOL0     C25497   8.678   9.997   1.946 -0.7840 -0.8292 -0.2960
  910MOL0     C25498   8.678  10.102   2.049  0.1431  0.6320  0.9497
  910MOL0     C25499   8.580  10.206   2.034  0.2289 -0.2952  0.2059
  910MOL0     C25500   8.485  10.189   1.932  0.3670 -0.3715  0.4253
  910MOL0     O25501   8.380  10.277   1.920 -0.2860 -0.0233 -0.3167
  910MOL0     C25502   8.344  10.355   2.028 -0.1945 -0.4576 -0.0542
  910MOL0     C25503   8.214  10.415   2.004  1.2777 -0.0461  0.4837
  910MOL0     C25504   8.101  10.300   1.977 -0.1338 -0.2785  0.4463
  910MOL0     C25505   7.981  10.359   1.903 -0.5465 -0.2397 -0.1264
  910MOL0     C25506   7.871  10.270   1.869  0.1621  0.2276  0.0181
  910MOL0     C25507   7.779  10.197   1.872 -0.1279 -1.0682  0.4048
  910MOL0     C25508   8.495  10.085   1.836  0.5025 -0.1546 -0.0605
  910MOL0     C25509   8.593   9.986   1.841  0.8660  0.6279 -0.6448
  910MOL0     C25510   8.577   9.857   1.755 -0.3826 -0.2973  0.2780
  910MOL0     H25511   8.910   9.616   1.950  1.3029  0.2976  2.8605
  910MOL0     H25512   9.124   9.524   2.003 -0.1657 -0.8804  0.5869
  910MOL0     H25513   9.523   9.607   2.025 -0.5865  0.7733  2.4098
  910MOL0     H25514   9.448   9.769   2.009  1.7612  2.5889 -3.2461
  910MOL0     H25515   9.593   9.604   1.781 -0.1647  0.5141 -3.9147
  910MOL0     H25516   9.478   9.740   1.754  0.6885 -0.4906 -0.1841
  910MOL0     H25517   9.640   9.886   1.884  1.2449 -0.9217 -0.4777
  910MOL0     H25518   9.734   9.743   1.925  1.8687 -0.5163 -1.4508
  910MOL0     H25519   9.784   9.698   1.676  0.8429 -0.5823 -0.4510
  910MOL0     H25520   9.689   9.840   1.639  0.1334 -2.2575 -1.6592
  910MOL0     H25521   9.928   9.846   1.839 -0.0502 -1.0002 -0.5756
  910MOL0     H25522   9.839   9.979   1.766 -1.3659 -0.7609 -1.4098
  910MOL0     H25523   9.951   9.801   1.549 -1.2453  1.8479 -2.0016
  910MOL0     H25524   9.918   9.969   1.560 -1.7428 -2.2037 -1.7503
  910MOL0     H25525  10.173   9.898   1.546 -0.9356  2.0996 -0.6734
  910MOL0     H25526  10.146   9.833   1.710  1.3347  1.6116  0.3374
  910MOL0     H25527  10.084  10.056   1.783 -3.5749 -0.9904 -2.1792
  910MOL0     H25528  10.254  10.056   1.699 -0.3818 -0.4615  1.0975
  910MOL0     H25529  10.037  10.313   1.730 -0.3809 -3.4476 -0.3001
  910MOL0     H25530   9.969  10.516   1.590  0.4188 -1.6691  0.3988
  910MOL0     H25531   9.873  10.459   1.452 -1.3253  2.5511  1.3335
  910MOL0     H25532  10.034  10.552   1.291 -0.2893  2.2941 -0.5415
  910MOL0     H25533  10.023  10.670   1.424  0.4698 -0.0502  1.1259
  910MOL0     H25534  10.246  10.668   1.429 -1.4587  0.8477  2.4983
  910MOL0     H25535  10.223  10.507   1.508 -1.3632  0.8616  1.4956
  910MOL0     H25536  10.372  10.465   1.319 -0.2376 -1.1440 -1.7581
  910MOL0     H25537  10.226  10.404   1.272  5.0864 -1.7321 -2.7424
  910MOL0     H25538  10.402  10.381   1.115  0.6743  0.1814  0.3470
  910MOL0     H25539  10.427  10.235   0.803  2.1070 -1.2797  0.1643
  910MOL0     H25540  10.513  10.232   0.946 -0.2856 -0.2053  0.6587
  910MOL0     H25541  10.593  10.296   0.799  1.1370  0.1653  1.1363
  910MOL0     H25542  10.621  10.730   0.496 -0.3880  1.7207 -1.0511
  910MOL0     H25543  10.721  10.760   0.277 -1.6641  2.2350 -1.2029
  910MOL0     H25544  10.569  10.871   0.024 -0.6862 -0.8513  2.9985
  910MOL0     H25545  10.744  10.833   0.034  0.5933 -1.2960  0.6002
  910MOL0     H25546  10.747  10.751  -0.192 -0.3539  0.5858  1.9401
  910MOL0     H25547  10.573  10.746  -0.209 -0.4826  2.4174 -2.5145
  910MOL0     H25548  10.601  11.012  -0.147 -0.0436  0.0918 -0.0575
  910MOL0     H25549  10.583  10.946  -0.308  0.5137  1.2198 -1.1471
  910MOL0     H25550  10.815  10.947  -0.334  1.6153  2.7516 -0.3315
  910MOL0     H25551  10.855  10.958  -0.156  2.3320  2.4975 -0.1247
  910MOL0     H25552  10.705  11.181  -0.195  0.0086 -0.1825 -0.0734
  910MOL0     H25553  10.890  11.182  -0.191 -0.0986  0.1818 -0.5069
  910MOL0     H25554  10.689  11.164  -0.415  0.6047 -3.0989  1.3813
  910MOL0     H25555  10.863  11.147  -0.437 -1.6515 -0.1269 -0.4950
  910MOL0     H25556  10.826  11.402  -0.307  0.0808 -2.4222  0.7292
  910MOL0     H25557  10.681  11.382  -0.412 -0.7090 -0.7329  0.4153
  910MOL0     H25558  10.792  11.368  -0.596 -0.8402  0.0696  1.0307
  910MOL0     H25559  10.947  11.350  -0.524 -1.2471 -2.7016  0.2920
  910MOL0     H25560  10.397  10.546   0.102  1.1902 -1.7488  2.0889
  910MOL0     H25561  10.298  10.517   0.336  3.0115 -2.6440 -0.5566
  910MOL0     H25562  10.377  10.747   0.788  3.6878  0.7180 -0.9255
  910MOL0     H25563  10.284  10.758   1.005 -2.9097  0.3516 -3.3909
  910MOL0     H25564   9.315   9.868   1.852 -2.6959  4.5141  0.2932
  910MOL0     H25565   9.110   9.968   1.783 -0.0617  1.0133  2.0660
  910MOL0     H25566   8.753  10.113   2.126  1.3225 -1.2942  0.1411
  910MOL0     H25567   8.576  10.299   2.089  0.7329  1.0389 -1.9290
  910MOL0     H25568   8.345  10.297   2.121 -1.9028 -1.1865 -0.4567
  910MOL0     H25569   8.426  10.424   2.053 -0.0384 -1.5119  2.7595
  910MOL0     H25570   8.219  10.494   1.929  0.5200 -0.5639 -0.1273
  910MOL0     H25571   8.191  10.459   2.101  4.7624 -0.1072  1.4780
  910MOL0     H25572   8.143  10.223   1.911 -0.5983  0.6186 -0.9613
  910MOL0     H25573   8.060  10.248   2.064  0.3969  1.9288  2.0744
  910MOL0     H25574   8.020  10.392   1.806  0.9086 -2.4575 -0.3713
  910MOL0     H25575   7.953  10.448   1.960  0.3655 -0.8514  1.3265
  910MOL0     H25576   7.687  10.142   1.865  0.2016 -1.3975 -3.1312
  910MOL0     H25577   8.419  10.073   1.759 -0.9704 -1.0012  1.4318
  910MOL0     H25578   8.477   9.840   1.713  0.1717 -2.5857 -0.2223
  910MOL0     H25579   8.646   9.879   1.673  2.0218  2.7121  2.8356
  910MOL0     H25580   8.620   9.768   1.802 -1.4239 -1.1842 -0.3996
  911MOL0     O25581   2.393   4.597   4.549 -0.5488  0.0687 -0.6718
  911MOL0     C25582   2.452   4.590   4.658  0.0159  0.2284  0.0353
  911MOL0     O25583   2.399   4.639   4.777  1.2747  0.0815 -0.6908
  911MOL0     C25584   2.282   4.724   4.781  0.7946 -0.6677 -0.1078
  911MOL0     C25585   2.190   4.697   4.887  0.4951 -0.2274  0.1730
  911MOL0     C25586   2.064   4.762   4.906 -0.5535  0.4680  0.9334
  911MOL0     C25587   2.028   4.857   4.810 -0.3091 -0.2971  0.2711
  911MOL0     O25588   1.898   4.899   4.826 -0.2429 -0.8120 -0.5541
  911MOL0     C25589   1.856   4.996   4.731  0.6379  0.1202  0.3074
  911MOL0     C25590   1.882   5.135   4.785  0.9536  0.0467 -1.6082
  911MOL0     C25591   1.955   5.243   4.692 -0.6508  0.1332 -0.7231
  911MOL0     C25592   2.039   5.336   4.781  0.6293  0.0259 -0.3003
  911MOL0     C25593   2.182   5.293   4.794 -0.0270 -0.1064 -1.0298
  911MOL0     C25594   2.270   5.387   4.875  0.2185 -0.4961  1.4420
  911MOL0     C25595   2.296   5.532   4.801  0.0236  0.6636 -0.9668
  911MOL0     C25596   2.363   5.628   4.904  0.0067 -0.8858 -0.4400
  911MOL0     N25597   2.340   5.760   4.854 -0.3461 -1.4542  0.0600
  911MOL0     C25598   2.237   5.840   4.914 -1.3198 -0.3701 -0.2186
  911MOL0     C25599   2.272   5.968   4.879 -0.9388 -0.0730 -0.0455
  911MOL0     C25600   2.192   6.089   4.922 -0.7177  0.5378 -0.3347
  911MOL0     C25601   2.226   6.215   4.833 -0.0283  0.1565  0.1085
  911MOL0     C25602   2.365   6.282   4.857  0.2701  0.1517 -0.8048
  911MOL0     C25603   2.376   6.420   4.811  0.1826  0.1007  0.4970
  911MOL0     O25604   2.305   6.512   4.904 -0.0899 -0.2040  0.3107
  911MOL0     C25605   2.340   6.647   4.899  0.6563  0.4984  0.2348
  911MOL0     C25606   2.418   6.708   4.793  0.4931  0.2748 -0.1540
  911MOL0     C25607   2.449   6.847   4.775  0.2819  0.6187  0.0659
  911MOL0     C25608   2.491   6.894   4.635 -0.8054 -0.4350 -0.4812
  911MOL0     C25609   2.402   6.935   4.876 -0.7015  0.2110 -0.7094
  911MOL0     C25610   2.428   7.077   4.889  0.3926 -0.2334  0.4531
  911MOL0     O25611   2.384   7.143   5.007  0.2377  0.1687 -0.0640
  911MOL0     C25612   2.364   7.275   4.999 -0.3894  0.2639  0.0355
  911MOL0     C25613   2.403   7.347   5.121  0.0581  0.5920 -0.5326
  911MOL0     C25614   2.382   7.483   5.129 -0.0114  0.1026  0.0850
  911MOL0     C25615   2.343   7.562   5.024  0.9706  0.2962  0.7597
  911MOL0     O25616   2.345   7.699   5.043 -0.7493 -0.8715  0.1758
  911MOL0     C25617   2.421   7.749   4.928 -0.1133 -0.6706  0.0415
  911MOL0     C25618   2.482   7.882   4.964 -0.0508  0.0795  0.6225
  911MOL0     C25619   2.591   7.879   5.075 -0.4615  0.9308 -0.2498
  911MOL0     C25620   2.563   7.800   5.210  0.0566 -0.7266  0.7202
  911MOL0     C25621   2.667   7.833   5.322  0.0951  0.9982 -0.4718
  911MOL0     C25622   2.655   7.738   5.438 -0.3067 -0.5498 -0.6263
  911MOL0     C25623   2.774   7.757   5.534  0.3501 -0.5895  0.0661
  911MOL0     C25624   2.805   7.898   5.583 -0.1129 -0.2468 -0.6597
  911MOL0    Cl25625   2.936   7.903   5.717 -0.0105  0.0263 -0.0623
  911MOL0     C25626   2.324   7.492   4.901  0.1142  0.1380 -0.3303
  911MOL0     C25627   2.334   7.352   4.882  0.4986 -0.7026  1.5121
  911MOL0     O25628   2.477   7.126   4.788  0.2106 -0.5834  0.6134
  911MOL0     C25629   2.324   6.872   4.980  0.1947  0.5746  0.5338
  911MOL0     C25630   2.296   6.738   4.996 -0.0195  0.3979  0.4618
  911MOL0     N25631   2.386   5.962   4.801 -1.0554 -0.0272 -0.2893
  911MOL0     N25632   2.422   5.836   4.776  0.5672 -0.3894  0.1027
  911MOL0     C25633   2.127   4.893   4.705  0.6911 -0.0109 -0.0533
  911MOL0     C25634   2.246   4.827   4.692  0.0704  0.2121  0.6843
  911MOL0     C25635   2.579   4.512   4.666  0.4997 -0.7623  0.0039
  911MOL0     C25636   2.586   4.409   4.754  0.0379 -0.2382  1.3889
  911MOL0     C25637   2.699   4.331   4.761 -0.0582  0.0562  0.6457
  911MOL0     C25638   2.811   4.361   4.688 -0.3819  0.5277  1.0996
  911MOL0     O25639   2.931   4.286   4.696  0.3990 -0.1584 -0.7350
  911MOL0     C25640   2.978   4.218   4.577 -0.6029  0.4154  0.8461
  911MOL0     C25641   3.071   4.103   4.617  0.3861 -1.1731  0.2662
  911MOL0     C25642   3.017   4.001   4.717 -0.0446  0.7921 -0.1386
  911MOL0     C25643   3.108   3.883   4.729 -0.3060  0.5346 -0.7615
  911MOL0     C25644   3.056   3.789   4.824 -0.6895 -1.0270 -0.7838
  911MOL0     C25645   3.016   3.699   4.904 -0.0257 -0.4856  0.6163
  911MOL0     C25646   2.813   4.474   4.606 -0.0996  1.0137  0.4403
  911MOL0     C25647   2.701   4.555   4.598 -0.0632  0.1900  0.6025
  911MOL0     C25648   2.701   4.670   4.499  0.8475 -0.9411  0.1717
  911MOL0     H25649   2.228   4.633   4.966  1.8164  1.9387  1.3831
  911MOL0     H25650   2.003   4.726   4.987  0.4951 -0.4516  1.3438
  911MOL0     H25651   1.749   4.979   4.716  0.8691  0.7075 -2.6579
  911MOL0     H25652   1.895   4.981   4.630  2.3400 -1.6185  1.1540
  911MOL0     H25653   1.787   5.173   4.825  0.2827 -0.3949 -2.7328
  911MOL0     H25654   1.941   5.125   4.876 -2.7793 -2.5981  0.8204
  911MOL0     H25655   2.017   5.201   4.613 -0.5026 -0.3787 -0.3350
  911MOL0     H25656   1.873   5.307   4.656  0.4040  3.9089  2.7623
  911MOL0     H25657   2.049   5.431   4.729  0.1119  0.9980  1.3086
  911MOL0     H25658   1.992   5.352   4.878  1.6315  2.7994 -0.1826
  911MOL0     H25659   2.231   5.285   4.696 -0.2296 -0.2341 -1.1191
  911MOL0     H25660   2.193   5.195   4.840  0.4564  1.4033  2.3744
  911MOL0     H25661   2.229   5.413   4.973 -3.6366  1.7637 -0.5169
  911MOL0     H25662   2.370   5.344   4.881  1.1108  0.8148 -1.8961
  911MOL0     H25663   2.195   5.575   4.797 -1.7367 -2.6465  2.0774
  911MOL0     H25664   2.327   5.533   4.696  0.1977  2.5247 -0.9397
  911MOL0     H25665   2.327   5.608   5.005 -3.0493  0.3221 -1.1671
  911MOL0     H25666   2.471   5.609   4.902  0.2176  0.1863 -0.1793
  911MOL0     H25667   2.161   5.805   4.983  1.2921 -4.3931  0.9336
  911MOL0     H25668   2.196   6.101   5.031 -0.9446  0.0243 -0.2629
  911MOL0     H25669   2.089   6.063   4.896 -0.5729 -2.8296  1.8507
  911MOL0     H25670   2.221   6.197   4.725 -1.4759  0.4242  0.1138
  911MOL0     H25671   2.150   6.293   4.847 -1.8628 -0.9284 -2.9456
  911MOL0     H25672   2.401   6.264   4.959 -0.2666 -1.0473 -0.8178
  911MOL0     H25673   2.443   6.237   4.794  0.0132 -0.2678 -0.8242
  911MOL0     H25674   2.481   6.449   4.815  0.4878 -0.6920 -1.0362
  911MOL0     H25675   2.340   6.439   4.709 -3.1275  1.0054  1.6709
  911MOL0     H25676   2.449   6.649   4.707  1.7792 -1.6411  1.5350
  911MOL0     H25677   2.600   6.907   4.646 -0.9509  1.6342 -1.0593
  911MOL0     H25678   2.444   6.983   4.594  1.9795  0.2856 -2.3881
  911MOL0     H25679   2.476   6.826   4.551  0.3949 -1.8840  0.4173
  911MOL0     H25680   2.428   7.292   5.212 -0.4635 -0.1530 -0.8293
  911MOL0     H25681   2.384   7.540   5.221 -0.3094 -0.2161  0.2888
  911MOL0     H25682   2.511   7.692   4.902  0.2902  0.7291 -1.8640
  911MOL0     H25683   2.349   7.765   4.847 -0.9415 -0.1641  0.8590
  911MOL0     H25684   2.531   7.920   4.874 -2.4544 -1.7040 -1.5976
  911MOL0     H25685   2.402   7.953   4.986 -1.6150 -1.1956 -0.7524
  911MOL0     H25686   2.610   7.986   5.091 -3.9815  2.2575 -3.3381
  911MOL0     H25687   2.677   7.831   5.029 -0.7504 -1.4015  1.4242
  911MOL0     H25688   2.550   7.692   5.204 -3.0710 -0.3691 -0.5319
  911MOL0     H25689   2.468   7.838   5.248  1.0248  3.0330 -0.1963
  911MOL0     H25690   2.772   7.817   5.297 -0.9004 -2.9402 -3.2529
  911MOL0     H25691   2.642   7.932   5.362 -1.9755 -1.4677  5.6011
  911MOL0     H25692   2.648   7.633   5.408 -0.4579 -0.0703 -2.3713
  911MOL0     H25693   2.560   7.751   5.490  0.7397  1.9102  0.7948
  911MOL0     H25694   2.872   7.731   5.492  2.4697  1.0880  3.5087
  911MOL0     H25695   2.761   7.693   5.621  3.4469 -2.2095 -0.5135
  911MOL0     H25696   2.715   7.947   5.619  0.8258  1.9393 -1.1309
  911MOL0     H25697   2.851   7.952   5.499  0.4483  1.9290  0.9809
  911MOL0     H25698   2.287   7.553   4.819  1.4642  1.1839 -0.1998
  911MOL0     H25699   2.308   7.290   4.798  1.2910 -1.3863  1.7552
  911MOL0     H25700   2.273   6.934   5.053 -0.9615 -0.7456  0.8788
  911MOL0     H25701   2.241   6.709   5.084 -2.0642  4.0854  0.6099
  911MOL0     H25702   2.108   4.974   4.635 -1.9563  2.8395  3.5836
  911MOL0     H25703   2.305   4.860   4.607  0.9739  0.8168  1.5266
  911MOL0     H25704   2.495   4.388   4.808 -1.4478  0.6782 -0.6089
  911MOL0     H25705   2.693   4.247   4.830  0.6501  0.5471  1.3099
  911MOL0     H25706   2.899   4.175   4.514  1.6735 -2.2989 -0.4093
  911MOL0     H25707   3.029   4.294   4.517 -2.5693  0.4758 -0.8578
  911MOL0     H25708   3.155   4.142   4.674 -1.1526  0.4915  1.5194
  911MOL0     H25709   3.098   4.044   4.529 -2.3950 -1.0612 -0.7571
  911MOL0     H25710   3.010   4.045   4.817  2.8733 -1.3474  1.1743
  911MOL0     H25711   2.923   3.960   4.680  0.4013 -0.3884 -0.0261
  911MOL0     H25712   3.202   3.921   4.768 -1.1383 -0.7892  2.9802
  911MOL0     H25713   3.137   3.830   4.638  0.8243  2.5983 -1.6892
  911MOL0     H25714   2.970   3.639   4.981 -1.6475 -0.5244 -0.3491
  911MOL0     H25715   2.897   4.494   4.540 -1.5159 -0.2805 -1.8931
  911MOL0     H25716   2.700   4.757   4.565  1.2931 -0.5978 -0.2673
  911MOL0     H25717   2.792   4.688   4.440 -0.0512  2.6700 -0.3465
  911MOL0     H25718   2.607   4.669   4.443 -0.4601  2.6493  2.0119
  912MOL0     O25719   7.453   8.673   2.233  0.8596  0.2507 -0.3958
  912MOL0     C25720   7.434   8.649   2.348  0.1645 -0.3580  0.4338
  912MOL0     O25721   7.513   8.561   2.417  0.3266  0.2466 -0.4228
  912MOL0     C25722   7.532   8.444   2.348 -0.1905 -0.1248  1.0051
  912MOL0     C25723   7.629   8.415   2.254 -0.1166 -0.0188  0.3861
  912MOL0     C25724   7.627   8.311   2.170 -0.4006  0.6504 -0.3363
  912MOL0     C25725   7.533   8.206   2.197  0.1500  1.7078 -0.5770
  912MOL0     O25726   7.507   8.101   2.113 -0.3286 -0.3477 -0.0089
  912MOL0     C25727   7.616   8.058   2.035  1.0096  0.3926  0.0022
  912MOL0     C25728   7.560   7.935   1.953  0.1913 -1.0385 -0.3336
  912MOL0     C25729   7.569   7.812   2.033 -1.3115 -0.3444 -0.4275
  912MOL0     C25730   7.498   7.692   1.980  0.8546 -0.3298  0.4522
  912MOL0     C25731   7.532   7.562   2.062 -0.1835 -0.3829 -0.4260
  912MOL0     C25732   7.429   7.450   2.053 -1.3111 -0.0464  0.5733
  912MOL0     C25733   7.401   7.397   1.908  0.1877 -0.4711 -0.4345
  912MOL0     C25734   7.529   7.356   1.832  1.1014 -0.2219  0.5581
  912MOL0     N25735   7.564   7.216   1.862  0.1910 -0.1634 -0.3257
  912MOL0     C25736   7.618   7.154   1.974 -0.6977 -0.2765 -0.1427
  912MOL0     C25737   7.615   7.018   1.950 -0.2776 -0.1234  0.5850
  912MOL0     C25738   7.653   6.896   2.025 -0.8077 -0.2227 -0.8283
  912MOL0     C25739   7.578   6.881   2.161 -0.2710 -0.4840  0.6834
  912MOL0     C25740   7.546   6.744   2.195  0.2824 -0.1597 -0.2910
  912MOL0     C25741   7.667   6.679   2.260 -0.2910  0.3955 -0.4961
  912MOL0     O25742   7.661   6.539   2.284 -0.0150 -0.2444 -0.7405
  912MOL0     C25743   7.766   6.480   2.351  0.2513 -0.4270 -0.7231
  912MOL0     C25744   7.746   6.349   2.390  0.4997  0.2992  0.4963
  912MOL0     C25745   7.858   6.271   2.433  0.2370 -0.2677  0.0089
  912MOL0     C25746   7.820   6.133   2.465 -0.2808 -0.0470 -0.1417
  912MOL0     C25747   7.983   6.323   2.437 -0.3646  0.1619 -0.1420
  912MOL0     C25748   8.103   6.249   2.504  0.1099 -0.1629  1.2794
  912MOL0     O25749   8.079   6.127   2.542 -0.0774  0.5766  0.2319
  912MOL0     C25750   8.178   6.059   2.599 -0.1199  0.0950  0.7339
  912MOL0     C25751   8.170   6.014   2.733  0.0872  1.3124  0.5500
  912MOL0     C25752   8.273   5.944   2.797  0.0113 -1.0764  1.2406
  912MOL0     C25753   8.383   5.900   2.723 -0.1885  0.2738 -0.3221
  912MOL0     O25754   8.478   5.835   2.801  0.3849  0.4694  0.3537
  912MOL0     C25755   8.603   5.805   2.746 -0.9176 -0.2192 -0.6951
  912MOL0     C25756   8.705   5.774   2.863  0.2847  0.4909  0.0587
  912MOL0     C25757   8.676   5.632   2.941  0.5866  0.3783  0.1072
  912MOL0     C25758   8.701   5.632   3.087 -0.0046 -0.7694 -0.8718
  912MOL0     C25759   8.848   5.655   3.136  0.5134 -0.1066  0.5777
  912MOL0     C25760   8.851   5.634   3.290  0.0911 -0.2209 -0.5576
  912MOL0     C25761   8.992   5.652   3.358 -0.9601 -1.1121 -0.0388
  912MOL0     C25762   9.067   5.787   3.363 -0.7665 -0.9298 -0.3202
  912MOL0    Cl25763   8.955   5.931   3.368 -0.2620  0.0520  0.1160
  912MOL0     C25764   8.387   5.933   2.587 -0.2580  0.3091 -0.3467
  912MOL0     C25765   8.291   6.013   2.530  0.1664  0.5367 -0.1193
  912MOL0     O25766   8.209   6.317   2.530 -0.3833 -0.4638 -0.0333
  912MOL0     C25767   8.003   6.460   2.408 -0.5432  0.1645 -0.1204
  912MOL0     C25768   7.898   6.532   2.360  0.9137 -0.7949  1.1484
  912MOL0     N25769   7.540   7.000   1.837  0.4370 -0.1266  0.1026
  912MOL0     N25770   7.511   7.112   1.785  0.2220 -0.1713  0.1104
  912MOL0     C25771   7.446   8.212   2.315  0.8456 -0.1499  0.0061
  912MOL0     C25772   7.446   8.338   2.380  0.8068 -1.1954  0.9787
  912MOL0     C25773   7.350   8.733   2.425  0.5708 -0.8384 -0.2345
  912MOL0     C25774   7.343   8.715   2.560 -0.6573 -0.1503 -0.9124
  912MOL0     C25775   7.269   8.791   2.654 -0.3326 -0.1074  0.4282
  912MOL0     C25776   7.191   8.890   2.604 -1.5480 -0.6662  0.1847
  912MOL0     O25777   7.130   8.985   2.686  0.0385 -0.3383  0.5532
  912MOL0     C25778   7.215   9.058   2.771 -0.2729 -0.7129 -0.3940
  912MOL0     C25779   7.185   9.205   2.733 -0.4282 -0.0372  0.7326
  912MOL0     C25780   7.276   9.248   2.620 -0.8545 -0.7898 -0.4507
  912MOL0     C25781   7.287   9.392   2.588  0.4517  0.4981  0.2118
  912MOL0     C25782   7.355   9.469   2.686  0.0416  0.5608  0.1374
  912MOL0     C25783   7.430   9.516   2.768 -0.5617 -0.9926  0.0182
  912MOL0     C25784   7.201   8.924   2.469 -1.0751  0.6020 -0.8800
  912MOL0     C25785   7.276   8.845   2.377  0.2389  0.3934 -0.2085
  912MOL0     C25786   7.269   8.891   2.230 -0.3546 -0.2849  0.5376
  912MOL0     H25787   7.701   8.488   2.218 -1.1358 -1.0703 -4.4764
  912MOL0     H25788   7.702   8.310   2.091  0.6009  2.5776  0.5115
  912MOL0     H25789   7.683   8.017   2.111 -0.6552 -0.1946  1.2225
  912MOL0     H25790   7.650   8.136   1.967  2.0552 -0.0491 -0.0020
  912MOL0     H25791   7.457   7.949   1.920  0.0955 -2.5492 -0.7398
  912MOL0     H25792   7.622   7.928   1.863 -2.6602  0.0720 -2.5462
  912MOL0     H25793   7.673   7.784   2.047 -0.4625  2.1746 -1.1493
  912MOL0     H25794   7.534   7.822   2.136 -1.2740  2.4178 -0.6074
  912MOL0     H25795   7.392   7.721   1.985  1.7139  4.2628 -2.2688
  912MOL0     H25796   7.523   7.667   1.877 -0.3033 -1.2623  0.3694
  912MOL0     H25797   7.545   7.583   2.169  1.7760  1.9914 -1.0393
  912MOL0     H25798   7.631   7.535   2.023 -0.0118  1.5115 -1.3646
  912MOL0     H25799   7.461   7.364   2.113  0.2410  0.4548  0.5043
  912MOL0     H25800   7.342   7.496   2.099 -0.1068  1.2623  1.6490
  912MOL0     H25801   7.354   7.476   1.847  1.5822  0.5920 -0.1848
  912MOL0     H25802   7.329   7.315   1.912 -0.7255 -0.0161 -3.7930
  912MOL0     H25803   7.509   7.370   1.726  1.7613 -0.2159  0.4285
  912MOL0     H25804   7.620   7.417   1.839  0.8953 -0.1213  4.0192
  912MOL0     H25805   7.676   7.206   2.049 -0.3625 -0.3032 -0.3775
  912MOL0     H25806   7.751   6.921   2.067 -0.7579 -0.5879 -0.7319
  912MOL0     H25807   7.655   6.802   1.970  0.0662 -1.8401  1.7917
  912MOL0     H25808   7.636   6.923   2.244  1.3435  0.7086 -0.9615
  912MOL0     H25809   7.489   6.942   2.144 -1.3647 -1.0329  3.9017
  912MOL0     H25810   7.474   6.740   2.277  0.8174 -1.3573  0.1473
  912MOL0     H25811   7.510   6.685   2.110  0.2710 -1.3483  0.5161
  912MOL0     H25812   7.748   6.695   2.189  0.2612 -3.6273 -0.9796
  912MOL0     H25813   7.695   6.736   2.349 -0.8398 -0.8079  0.4777
  912MOL0     H25814   7.643   6.315   2.392  0.7679 -0.5637  0.2320
  912MOL0     H25815   7.714   6.103   2.466 -0.4495  0.5194  1.1765
  912MOL0     H25816   7.855   6.117   2.568 -0.6618  2.4416  0.4437
  912MOL0     H25817   7.875   6.067   2.397  0.9963  2.0301 -1.1961
  912MOL0     H25818   8.071   6.018   2.777 -1.2520 -1.7533 -1.8078
  912MOL0     H25819   8.261   5.911   2.900 -1.0539 -2.5225  0.6895
  912MOL0     H25820   8.599   5.715   2.684  0.4635 -1.3356  0.7322
  912MOL0     H25821   8.650   5.880   2.682  1.0672 -0.9564 -0.1598
  912MOL0     H25822   8.805   5.771   2.818  1.6454  0.1920  2.9006
  912MOL0     H25823   8.699   5.860   2.931  0.2433 -0.3065  1.0873
  912MOL0     H25824   8.722   5.543   2.897  0.4168 -0.3222  1.3028
  912MOL0     H25825   8.569   5.610   2.935  0.0513  1.6669  3.1389
  912MOL0     H25826   8.658   5.537   3.123 -0.9465 -0.8164 -2.0637
  912MOL0     H25827   8.637   5.713   3.122 -0.8707 -1.1600 -1.5132
  912MOL0     H25828   8.911   5.582   3.083 -2.7997 -2.4434 -0.4701
  912MOL0     H25829   8.879   5.757   3.114 -0.8079  0.1521 -0.1459
  912MOL0     H25830   8.812   5.538   3.324  2.4672 -0.9196  0.4030
  912MOL0     H25831   8.786   5.719   3.317 -0.1023 -0.5228 -0.0538
  912MOL0     H25832   9.067   5.588   3.311 -0.3877  0.2787 -1.0959
  912MOL0     H25833   8.969   5.622   3.460 -0.4076 -1.1955  0.0637
  912MOL0     H25834   9.123   5.804   3.271 -2.2319 -2.2749 -1.5085
  912MOL0     H25835   9.132   5.790   3.451 -1.1627  0.6673 -0.0417
  912MOL0     H25836   8.474   5.903   2.529 -0.2850 -2.0904  0.7279
  912MOL0     H25837   8.321   6.049   2.432  0.7833  0.1429 -0.0824
  912MOL0     H25838   8.106   6.493   2.417 -0.8553  1.1831 -0.1647
  912MOL0     H25839   7.913   6.639   2.347  1.0461 -0.9788 -0.3832
  912MOL0     H25840   7.383   8.131   2.350  0.6330 -0.7615 -1.7075
  912MOL0     H25841   7.372   8.356   2.458  1.3296 -1.1269  1.4596
  912MOL0     H25842   7.388   8.634   2.617 -1.2215 -0.5216 -0.9848
  912MOL0     H25843   7.237   8.770   2.756 -4.3215  1.2505 -0.3520
  912MOL0     H25844   7.192   9.031   2.875  0.1317  1.7437  0.3792
  912MOL0     H25845   7.322   9.042   2.754 -0.2127 -1.1167  0.3185
  912MOL0     H25846   7.198   9.274   2.817  2.2930  0.6428 -0.1399
  912MOL0     H25847   7.079   9.205   2.707 -1.4441  1.2208  4.2798
  912MOL0     H25848   7.379   9.222   2.644  0.1618  1.4980 -1.9907
  912MOL0     H25849   7.247   9.199   2.526  1.9127 -0.3720 -1.5959
  912MOL0     H25850   7.189   9.429   2.559 -0.0768 -1.2797 -0.4380
  912MOL0     H25851   7.345   9.400   2.496 -0.2072 -0.2126 -0.2793
  912MOL0     H25852   7.499   9.563   2.835 -0.4931 -0.3563 -0.4890
  912MOL0     H25853   7.156   9.010   2.420  0.7590  0.7658 -2.4047
  912MOL0     H25854   7.366   8.935   2.207 -1.3130  1.3207 -0.6445
  912MOL0     H25855   7.250   8.817   2.152  0.6228  0.0169  0.0023
  912MOL0     H25856   7.188   8.961   2.208 -0.2963 -0.1966  0.6048
  913MOL0     O25857   2.042   7.555  10.585  0.4132  0.3594 -0.0561
  913MOL0     C25858   2.040   7.431  10.589 -0.6674 -0.3498 -0.8722
  913MOL0     O25859   1.930   7.352  10.590  0.1111  0.3069 -0.4803
  913MOL0     C25860   1.806   7.407  10.572  0.7026  0.2019 -0.2398
  913MOL0     C25861   1.707   7.367  10.656  0.2133  0.2481  1.4590
  913MOL0     C25862   1.575   7.411  10.643  0.0400  0.9852  0.0227
  913MOL0     C25863   1.535   7.480  10.530  0.6141 -0.3541 -0.5462
  913MOL0     O25864   1.405   7.522  10.535  0.3904  1.0715 -0.0679
  913MOL0     C25865   1.391   7.664  10.518  0.8190 -1.0517 -0.4747
  913MOL0     C25866   1.253   7.687  10.469  0.1148 -0.1899  0.5582
  913MOL0     C25867   1.150   7.671  10.577  0.6946  1.0465 -0.0412
  913MOL0     C25868   1.084   7.533  10.562  0.1138 -0.1873 -0.4718
  913MOL0     C25869   1.023   7.495  10.698  0.9304  0.8920 -0.4089
  913MOL0     C25870   1.144   7.456  10.786  0.2304 -0.3875  1.2821
  913MOL0     C25871   1.090   7.403  10.919 -0.2052  0.4942  0.3518
  913MOL0     C25872   1.203   7.347  11.003 -0.8235  0.4344 -0.2855
  913MOL0     N25873   1.167   7.246  11.111 -0.2723 -0.2385  0.6753
  913MOL0     C25874   1.083   7.141  11.092 -0.3011  0.7531 -0.9990
  913MOL0     C25875   1.051   7.094  11.217  0.4860 -0.0254 -0.5467
  913MOL0     C25876   0.964   6.973  11.250  0.0707  0.7934  0.2943
  913MOL0     C25877   1.011   6.840  11.177  0.4136 -0.4020  0.1837
  913MOL0     C25878   0.925   6.716  11.219  0.1254  0.2934 -0.2671
  913MOL0     C25879   0.767   6.723  11.237  0.2468  0.5384  0.4988
  913MOL0     O25880   0.731   6.580  11.265  0.6680  0.1754  0.5968
  913MOL0     C25881   0.658   6.522  11.161 -0.0314  0.3779  0.2133
  913MOL0     C25882   0.530   6.463  11.192  0.4011 -0.3459 -0.0534
  913MOL0     C25883   0.445   6.415  11.091  0.2022  0.4457  0.2150
  913MOL0     C25884   0.304   6.383  11.138 -0.3150  0.5135  0.5158
  913MOL0     C25885   0.488   6.408  10.960 -0.1284 -0.2039 -0.2210
  913MOL0     C25886   0.414   6.339  10.852  0.7613 -0.6246 -0.3786
  913MOL0     O25887   0.417   6.402  10.734  0.5402 -0.1841 -0.0913
  913MOL0     C25888   0.353   6.344  10.627  0.1808  0.0085 -0.1125
  913MOL0     C25889   0.413   6.311  10.506  0.3081 -0.3554  0.0992
  913MOL0     C25890   0.344   6.237  10.406  0.0316  0.1958 -0.4101
  913MOL0     C25891   0.217   6.191  10.435  0.7691  0.0198  0.4491
  913MOL0     O25892   0.144   6.109  10.353  0.1001  0.4156  0.6274
  913MOL0     C25893   0.213   6.013  10.270 -0.1173 -0.5716  0.3727
  913MOL0     C25894   0.118   5.910  10.209  0.7816  0.9945  0.4413
  913MOL0     C25895   0.061   5.970  10.079  0.0433 -0.0793 -0.2635
  913MOL0     C25896  -0.039   5.869  10.039 -0.9911 -0.3066  0.1906
  913MOL0     C25897  -0.108   5.894   9.902  0.9817  0.4158  0.1073
  913MOL0     C25898  -0.197   6.015   9.894 -0.1785 -0.3357 -1.0800
  913MOL0     C25899  -0.312   5.993   9.792  0.3808 -0.6641 -0.7085
  913MOL0     C25900  -0.269   6.010   9.650 -0.1643  0.0266 -0.3117
  913MOL0    Cl25901  -0.393   5.970   9.533  0.0076 -0.5084 -0.4069
  913MOL0     C25902   0.140   6.245  10.546 -0.2178  0.6924 -0.1406
  913MOL0     C25903   0.208   6.317  10.643 -0.3380  0.5463  0.1592
  913MOL0     O25904   0.363   6.228  10.876  0.1622 -0.2827 -0.0967
  913MOL0     C25905   0.612   6.468  10.933 -0.1240  0.0221  0.0546
  913MOL0     C25906   0.698   6.523  11.024  0.7640 -0.0460  0.5660
  913MOL0     N25907   1.097   7.189  11.305 -0.1962  0.6282 -0.5746
  913MOL0     N25908   1.161   7.273  11.235 -0.7151  0.1356 -0.7347
  913MOL0     C25909   1.630   7.510  10.436 -0.8022  0.0176  0.4251
  913MOL0     C25910   1.768   7.476  10.458 -0.4872  0.3774 -0.0352
  913MOL0     C25911   2.181   7.374  10.583 -0.2427 -0.3390 -0.9303
  913MOL0     C25912   2.201   7.238  10.600 -0.0237  0.9275 -1.1636
  913MOL0     C25913   2.326   7.165  10.601  0.4500 -0.4838  0.0474
  913MOL0     C25914   2.439   7.245  10.586 -0.5611 -0.0025  1.1634
  913MOL0     O25915   2.559   7.189  10.549  0.1247  0.2694  0.2512
  913MOL0     C25916   2.608   7.079  10.625 -0.8056 -0.9637  0.3041
  913MOL0     C25917   2.611   7.124  10.775  0.3665 -0.1756  0.3811
  913MOL0     C25918   2.690   7.016  10.846 -0.6052  0.1354 -0.0942
  913MOL0     C25919   2.693   7.054  10.994 -0.8829  0.4672 -0.6314
  913MOL0     C25920   2.775   6.976  11.085 -0.1213  0.7492  0.4576
  913MOL0     C25921   2.832   6.913  11.169 -0.3027 -0.4346 -0.2439
  913MOL0     C25922   2.428   7.384  10.573  0.2542  0.8908 -0.0411
  913MOL0     C25923   2.306   7.453  10.570  0.7369 -0.3691  0.0287
  913MOL0     C25924   2.324   7.608  10.557 -0.0172  0.6603 -0.4254
  913MOL0     H25925   1.737   7.307  10.742  0.1198 -2.0491 -0.0350
  913MOL0     H25926   1.505   7.375  10.718  0.9474 -1.0254 -0.0313
  913MOL0     H25927   1.465   7.712  10.455  0.4697  1.8768  1.1819
  913MOL0     H25928   1.403   7.712  10.616 -0.1014 -1.6665 -0.0310
  913MOL0     H25929   1.235   7.789  10.435  1.3623  0.5083  1.9125
  913MOL0     H25930   1.233   7.612  10.391 -0.9751  1.4683 -0.8341
  913MOL0     H25931   1.194   7.693  10.675  3.4324 -0.3732 -0.8471
  913MOL0     H25932   1.078   7.750  10.556  1.5884  1.4904 -1.5946
  913MOL0     H25933   0.998   7.539  10.494 -0.1455  0.6238 -0.0788
  913MOL0     H25934   1.157   7.463  10.521  1.8860  1.2448  0.1443
  913MOL0     H25935   0.942   7.421  10.692  1.3036 -0.2804  4.7408
  913MOL0     H25936   0.987   7.588  10.742  0.9173  1.2169 -1.0884
  913MOL0     H25937   1.209   7.385  10.735 -0.0485  0.4320 -0.2885
  913MOL0     H25938   1.212   7.539  10.806  0.3152 -0.1916  0.2701
  913MOL0     H25939   1.016   7.326  10.896 -0.0719  0.0233  1.4209
  913MOL0     H25940   1.047   7.484  10.978  0.9260  0.6612  0.9837
  913MOL0     H25941   1.270   7.284  10.943 -0.3282  0.4623  0.2323
  913MOL0     H25942   1.262   7.427  11.048  5.1310 -3.0180 -0.8998
  913MOL0     H25943   1.034   7.111  11.000  0.0018  1.5175 -1.4233
  913MOL0     H25944   0.859   6.992  11.227  0.1038  0.0251 -0.5551
  913MOL0     H25945   0.963   6.945  11.356 -0.4082 -2.1427 -0.4139
  913MOL0     H25946   1.014   6.858  11.069  0.2938 -1.4562 -0.0117
  913MOL0     H25947   1.113   6.811  11.201  0.3040 -1.2771 -0.3358
  913MOL0     H25948   0.952   6.643  11.143 -1.9706  1.4540 -2.2511
  913MOL0     H25949   0.975   6.681  11.310  0.6413 -0.3095 -0.7803
  913MOL0     H25950   0.727   6.780  11.322  0.7231 -0.9250  1.7470
  913MOL0     H25951   0.715   6.766  11.151 -1.0742 -1.8464  0.0261
  913MOL0     H25952   0.492   6.466  11.293 -0.6817  0.1014 -0.4496
  913MOL0     H25953   0.301   6.286  11.187 -0.7732  0.6345  0.7271
  913MOL0     H25954   0.226   6.370  11.063 -1.0275  1.0812  1.1493
  913MOL0     H25955   0.263   6.457  11.207  0.2449 -0.5974  2.0900
  913MOL0     H25956   0.516   6.343  10.491  0.2825 -1.3138 -2.5898
  913MOL0     H25957   0.398   6.207  10.317  0.1105 -0.8808 -0.0207
  913MOL0     H25958   0.261   6.069  10.189 -2.1337  0.0796 -0.4188
  913MOL0     H25959   0.295   5.967  10.327  0.5978  0.8036  0.4998
  913MOL0     H25960   0.174   5.819  10.186  2.0772  1.6528  0.9027
  913MOL0     H25961   0.043   5.889  10.287 -1.1934  0.8328 -1.4016
  913MOL0     H25962   0.137   5.992  10.004  0.9521 -3.1559 -0.3665
  913MOL0     H25963   0.032   6.073  10.101  0.6224 -0.3710  2.2999
  913MOL0     H25964  -0.122   5.881  10.109 -1.6444  2.0667 -0.8985
  913MOL0     H25965   0.004   5.768  10.032  2.4558  1.0576 -0.6066
  913MOL0     H25966  -0.027   5.896   9.829  0.5376  2.5207 -0.3923
  913MOL0     H25967  -0.163   5.801   9.882  2.0639 -0.4686  1.1234
  913MOL0     H25968  -0.137   6.100   9.861  2.5123 -2.6376 -2.5841
  913MOL0     H25969  -0.229   6.025   9.998  1.2995  1.1813 -0.7349
  913MOL0     H25970  -0.389   6.065   9.822  0.3506 -1.2310  0.6625
  913MOL0     H25971  -0.347   5.890   9.803 -1.0795 -0.0168  1.3105
  913MOL0     H25972  -0.190   5.940   9.623 -1.3013 -2.6522  2.5954
  913MOL0     H25973  -0.237   6.110   9.620  1.5010 -0.7714 -1.3131
  913MOL0     H25974   0.034   6.223  10.539 -0.5965  2.5068 -0.8184
  913MOL0     H25975   0.159   6.338  10.738  0.7182  1.8274  0.4545
  913MOL0     H25976   0.636   6.478  10.827  0.5304 -0.5789  0.1384
  913MOL0     H25977   0.779   6.587  10.993  0.8858  0.6437  2.1925
  913MOL0     H25978   1.599   7.561  10.345 -0.4961 -0.2497  0.1688
  913MOL0     H25979   1.844   7.496  10.384 -0.6862 -0.2173 -0.4136
  913MOL0     H25980   2.111   7.183  10.623 -1.9585  2.8550 -3.5373
  913MOL0     H25981   2.323   7.057  10.614 -1.3221 -0.4332  0.3557
  913MOL0     H25982   2.541   6.994  10.613 -2.5538 -0.3562  4.2924
  913MOL0     H25983   2.706   7.050  10.585 -1.3392  0.5450 -2.3334
  913MOL0     H25984   2.510   7.114  10.814  0.6693 -0.7671  1.0510
  913MOL0     H25985   2.647   7.227  10.784  0.4099  0.1388 -2.5481
  913MOL0     H25986   2.630   6.927  10.824  1.6232 -0.7397 -3.3936
  913MOL0     H25987   2.783   7.004  10.791 -0.2514 -2.7670  0.9983
  913MOL0     H25988   2.590   7.038  11.026 -1.1645 -0.7267 -2.0230
  913MOL0     H25989   2.720   7.160  10.997 -2.4612  0.8802 -0.4147
  913MOL0     H25990   2.876   6.861  11.251  1.0966 -1.5461 -1.6512
  913MOL0     H25991   2.513   7.451  10.569 -0.3529  1.6421 -2.1847
  913MOL0     H25992   2.430   7.632  10.573 -0.2536  0.5570  1.4828
  913MOL0     H25993   2.272   7.644  10.468  0.3655 -1.5783 -1.6370
  913MOL0     H25994   2.264   7.644  10.641  0.7840  0.4835  0.2349
  914MOL0     O25995   8.810   9.423  11.142 -0.7040  0.1021 -0.3533
  914MOL0     C25996   8.759   9.492  11.230 -0.1622 -0.2687  0.0980
  914MOL0     O25997   8.737   9.452  11.355 -0.0080 -1.1033 -0.3557
  914MOL0     C25998   8.758   9.320  11.373  1.3534 -0.1266  0.1444
  914MOL0     C25999   8.880   9.269  11.425  0.2320  0.4202 -1.0575
  914MOL0     C26000   8.892   9.131  11.449 -0.3957  0.9995  0.5480
  914MOL0     C26001   8.796   9.032  11.413  0.0185 -0.1247 -0.0407
  914MOL0     O26002   8.786   8.899  11.443 -0.6596 -0.6949  0.7097
  914MOL0     C26003   8.894   8.841  11.519  0.7726 -1.4441  0.0134
  914MOL0     C26004   8.893   8.694  11.509 -0.2769 -0.0600 -1.0849
  914MOL0     C26005   8.995   8.641  11.621  0.0902  0.4343 -0.9317
  914MOL0     C26006   9.001   8.486  11.611 -0.0137  0.1872 -0.0197
  914MOL0     C26007   9.140   8.430  11.639 -1.4837  0.2155  0.1543
  914MOL0     C26008   9.148   8.274  11.634 -0.6567  0.0032 -0.0925
  914MOL0     C26009   9.285   8.213  11.635 -0.5804 -0.0389 -0.5428
  914MOL0     C26010   9.360   8.221  11.769  0.8118 -0.0516  0.1863
  914MOL0     N26011   9.475   8.127  11.747 -0.0270  0.7140  0.4771
  914MOL0     C26012   9.607   8.159  11.777  0.0021 -0.9954  0.7985
  914MOL0     C26013   9.671   8.042  11.795 -0.0198 -0.4503  0.5893
  914MOL0     C26014   9.806   8.012  11.849  0.1495  1.6741  0.6099
  914MOL0     C26015   9.912   8.055  11.748  0.0695  0.0855 -0.0797
  914MOL0     C26016   9.900   7.965  11.621 -0.4076  0.1193  0.9350
  914MOL0     C26017   9.837   8.040  11.509  0.3584 -0.9320 -0.5913
  914MOL0     O26018   9.848   7.945  11.397  0.1717  0.4943 -0.9020
  914MOL0     C26019   9.738   7.896  11.337  0.1626  0.1350  0.2512
  914MOL0     C26020   9.612   7.869  11.400 -0.2283 -0.1999 -0.5924
  914MOL0     C26021   9.510   7.803  11.327 -0.6777  0.1675 -0.7897
  914MOL0     C26022   9.386   7.774  11.403 -0.4945 -0.1721  0.0201
  914MOL0     C26023   9.520   7.768  11.192 -0.3645  0.0072 -0.6201
  914MOL0     C26024   9.409   7.727  11.096  0.1783 -1.2614 -0.3232
  914MOL0     O26025   9.452   7.655  10.990  0.1008 -0.2637 -0.0413
  914MOL0     C26026   9.360   7.593  10.906 -0.1262 -0.8423  0.0937
  914MOL0     C26027   9.219   7.569  10.924  0.3700 -0.3325  0.8257
  914MOL0     C26028   9.145   7.510  10.821  0.2978 -0.1328  0.0965
  914MOL0     C26029   9.213   7.460  10.705 -0.8063 -0.1635 -0.0380
  914MOL0     O26030   9.129   7.402  10.612 -0.4165  0.1107  0.2458
  914MOL0     C26031   9.177   7.281  10.557  0.4439  0.5671 -0.3924
  914MOL0     C26032   9.072   7.215  10.468  0.3378  0.5548  0.8080
  914MOL0     C26033   9.130   7.109  10.380  0.6792  0.1458 -0.4531
  914MOL0     C26034   9.035   7.062  10.273 -0.8445 -0.3866  0.4579
  914MOL0     C26035   9.109   6.989  10.167 -0.5713 -1.2275  0.7087
  914MOL0     C26036   9.140   6.843  10.185  0.2032 -0.6871  0.1868
  914MOL0     C26037   9.253   6.779  10.104 -0.8594  0.0732 -0.2690
  914MOL0     C26038   9.244   6.758   9.960  0.7336  0.2532  0.8226
  914MOL0    Cl26039   9.150   6.616   9.904 -0.0793 -0.1558 -0.0857
  914MOL0     C26040   9.346   7.487  10.684  0.0095 -0.1580 -0.1032
  914MOL0     C26041   9.417   7.553  10.787  0.4848  1.1107  0.8496
  914MOL0     O26042   9.294   7.752  11.130  0.9893  0.1699 -0.0797
  914MOL0     C26043   9.649   7.789  11.133 -0.0025 -0.8673 -0.2677
  914MOL0     C26044   9.756   7.855  11.197  0.2623 -0.5023 -1.4188
  914MOL0     N26045   9.581   7.941  11.751 -1.1932 -0.5972 -0.1304
  914MOL0     N26046   9.469   7.990  11.727 -0.2667 -1.1150 -0.2454
  914MOL0     C26047   8.670   9.081  11.365  0.5755 -0.4242 -0.2818
  914MOL0     C26048   8.654   9.223  11.342  0.2456  0.2104  0.5349
  914MOL0     C26049   8.727   9.629  11.203 -0.2615 -0.1577  0.0021
  914MOL0     C26050   8.718   9.729  11.313 -0.2900  0.6700 -0.9015
  914MOL0     C26051   8.686   9.863  11.290 -0.1025  0.3407  0.1426
  914MOL0     C26052   8.674   9.907  11.161  0.0282  0.2879  1.0807
  914MOL0     O26053   8.657  10.040  11.136  0.1800 -0.6350 -0.8886
  914MOL0     C26054   8.586  10.120  11.232  0.6666  0.0135  0.8075
  914MOL0     C26055   8.586  10.266  11.188  1.0559 -0.2459 -0.2197
  914MOL0     C26056   8.741  10.315  11.188  0.6684 -0.4938  0.5879
  914MOL0     C26057   8.799  10.329  11.329  0.7222  1.0729 -0.2951
  914MOL0     C26058   8.935  10.380  11.344  0.3270 -0.3852  1.2198
  914MOL0     C26059   9.047  10.420  11.363 -0.5842  1.1858 -0.2856
  914MOL0     C26060   8.705   9.823  11.059 -0.8474  1.2820  0.0877
  914MOL0     C26061   8.733   9.686  11.075  0.0969  0.4538 -0.2298
  914MOL0     C26062   8.753   9.603  10.938  0.0459  0.4567  0.2706
  914MOL0     H26063   8.949   9.347  11.455  0.6504 -0.9323  1.7543
  914MOL0     H26064   8.985   9.093  11.490 -0.0998  0.5773 -0.4745
  914MOL0     H26065   8.875   8.881  11.619  1.6803  1.6832 -0.9217
  914MOL0     H26066   8.996   8.875  11.495  0.1439  2.0318  1.5761
  914MOL0     H26067   8.790   8.659  11.525 -0.8150  1.2813 -1.5186
  914MOL0     H26068   8.926   8.664  11.409  0.5346  0.4701 -0.9832
  914MOL0     H26069   9.093   8.685  11.601 -0.9013  4.0003  1.1860
  914MOL0     H26070   8.970   8.674  11.722 -0.8777  1.7271 -1.5517
  914MOL0     H26071   8.928   8.448  11.683  1.3133  1.5804  2.1571
  914MOL0     H26072   8.967   8.446  11.515  0.7605  0.6451 -0.4937
  914MOL0     H26073   9.176   8.462  11.737 -1.7017  0.0505  0.2876
  914MOL0     H26074   9.212   8.470  11.567 -1.9839  0.5466 -0.1717
  914MOL0     H26075   9.081   8.227  11.707 -3.0457 -2.8216 -3.6983
  914MOL0     H26076   9.113   8.246  11.534 -0.7412 -2.4109  0.5543
  914MOL0     H26077   9.345   8.264  11.559 -1.7246 -0.4806 -1.7836
  914MOL0     H26078   9.285   8.112  11.592  0.8169 -0.5952  0.7078
  914MOL0     H26079   9.393   8.325  11.780  1.1873  0.5401 -4.4147
  914MOL0     H26080   9.313   8.183  11.860  2.0903 -0.4857  0.6778
  914MOL0     H26081   9.652   8.257  11.790  1.9359 -1.7786  0.4353
  914MOL0     H26082   9.801   7.904  11.867 -2.1146  1.4944 -0.6814
  914MOL0     H26083   9.823   8.056  11.947  0.6888  1.1615  0.7541
  914MOL0     H26084   9.905   8.163  11.730 -1.2493  0.3186  1.5504
  914MOL0     H26085  10.009   8.044  11.798 -0.8611  2.1855  2.4345
  914MOL0     H26086   9.994   7.924  11.584 -1.4335 -0.8529 -0.7170
  914MOL0     H26087   9.836   7.877  11.638 -0.6798  0.3712  1.2400
  914MOL0     H26088   9.742   8.086  11.538  0.9733  1.0925 -1.5672
  914MOL0     H26089   9.900   8.129  11.500 -0.2465 -0.3560  0.5904
  914MOL0     H26090   9.589   7.895  11.502 -3.7827 -0.5236 -1.2077
  914MOL0     H26091   9.295   7.823  11.369 -0.3472 -0.3792 -0.6884
  914MOL0     H26092   9.395   7.802  11.508 -1.4813 -1.4647  0.4710
  914MOL0     H26093   9.366   7.666  11.403  0.0138 -0.2851  1.3507
  914MOL0     H26094   9.171   7.600  11.017  2.6069 -2.6081  2.8784
  914MOL0     H26095   9.039   7.497  10.835  0.4617 -2.6813 -0.4426
  914MOL0     H26096   9.269   7.295  10.500  0.2266 -4.3069 -2.3844
  914MOL0     H26097   9.202   7.222  10.646  3.4898  1.3160 -0.6367
  914MOL0     H26098   8.997   7.154  10.520  1.0488 -3.3630 -2.2817
  914MOL0     H26099   9.025   7.290  10.404  0.9278  0.3535  0.1398
  914MOL0     H26100   9.140   7.033  10.459 -0.9166  2.0777  1.7547
  914MOL0     H26101   9.227   7.133  10.335  1.8632 -1.4639  1.0620
  914MOL0     H26102   9.000   7.154  10.225  1.6833 -0.1525 -1.1048
  914MOL0     H26103   8.955   6.995  10.304 -0.9243  0.1675  1.5008
  914MOL0     H26104   9.042   6.993  10.081  1.7996 -1.9490 -1.2751
  914MOL0     H26105   9.195   7.046  10.131  0.4003 -1.8493  1.9440
  914MOL0     H26106   9.044   6.792  10.176 -0.9428  1.6942 -2.6052
  914MOL0     H26107   9.171   6.844  10.290 -2.3605  0.2232  1.0007
  914MOL0     H26108   9.287   6.686  10.150  0.8678  1.1463  0.7408
  914MOL0     H26109   9.338   6.847  10.117 -0.4757 -0.6590  1.3259
  914MOL0     H26110   9.340   6.753   9.908  0.9191  1.2288  1.0446
  914MOL0     H26111   9.202   6.843   9.905  2.3407 -0.1583 -1.1402
  914MOL0     H26112   9.393   7.454  10.591  2.8669 -0.7186  1.4182
  914MOL0     H26113   9.525   7.552  10.774  0.2122 -0.0779 -2.0250
  914MOL0     H26114   9.664   7.771  11.027  1.5457  0.1871 -0.2635
  914MOL0     H26115   9.854   7.862  11.152  0.9225 -1.6096 -0.2395
  914MOL0     H26116   8.593   9.007  11.344 -0.9450  1.4993 -1.9504
  914MOL0     H26117   8.570   9.256  11.282  1.7640 -1.7617 -3.0176
  914MOL0     H26118   8.727   9.701  11.418 -2.0924 -0.0789 -0.9071
  914MOL0     H26119   8.664   9.927  11.375 -2.5010 -0.2784  0.0625
  914MOL0     H26120   8.487  10.075  11.242  0.7743 -0.1986  0.9519
  914MOL0     H26121   8.624  10.103  11.333 -1.3442 -1.4798  1.3597
  914MOL0     H26122   8.527  10.322  11.262 -1.7403 -1.8368 -1.0732
  914MOL0     H26123   8.526  10.272  11.097 -2.9040  3.5951  2.2164
  914MOL0     H26124   8.800  10.252  11.121  2.0047  0.2785  0.9858
  914MOL0     H26125   8.743  10.413  11.138  0.7165 -1.0023 -0.4284
  914MOL0     H26126   8.790  10.233  11.381 -0.1244  0.1318 -2.0875
  914MOL0     H26127   8.735  10.391  11.392  2.5332  1.4833  1.2240
  914MOL0     H26128   9.139  10.474  11.370 -0.1411  0.4335 -0.2507
  914MOL0     H26129   8.691   9.864  10.960 -2.9135  2.9962  1.0046
  914MOL0     H26130   8.859   9.585  10.919 -0.4366 -0.5843 -1.5937
  914MOL0     H26131   8.695   9.510  10.942  1.1508 -0.2647  0.1215
  914MOL0     H26132   8.724   9.674  10.861 -1.3372  0.2948  0.6016
  915MOL0     O26133   8.961   5.768   5.743  0.5220  0.3066 -0.3820
  915MOL0     C26134   9.084   5.766   5.745  0.4572  0.1833 -0.0414
  915MOL0     O26135   9.162   5.654   5.759 -0.0986 -0.3611 -0.1158
  915MOL0     C26136   9.084   5.542   5.777 -0.6965 -0.1259 -0.6407
  915MOL0     C26137   9.031   5.496   5.905 -0.7846 -1.1563 -0.4652
  915MOL0     C26138   8.961   5.375   5.919 -0.2971 -0.1157  0.3342
  915MOL0     C26139   8.944   5.297   5.809 -0.6499  0.0195 -0.0935
  915MOL0     O26140   8.896   5.170   5.796 -0.1868  0.0968 -0.5897
  915MOL0     C26141   8.791   5.113   5.884  0.1287  0.0882  0.3304
  915MOL0     C26142   8.666   5.203   5.866 -0.5471 -0.3242 -0.2593
  915MOL0     C26143   8.543   5.137   5.928  0.5964 -0.0957  0.3244
  915MOL0     C26144   8.480   5.006   5.870 -0.6052 -0.4946 -1.0435
  915MOL0     C26145   8.343   4.971   5.940  0.6620 -0.1614  0.3172
  915MOL0     C26146   8.286   4.833   5.890 -0.4266  0.1672 -0.6884
  915MOL0     C26147   8.139   4.852   5.843  1.5295  0.4166 -0.2102
  915MOL0     C26148   8.091   4.734   5.752  0.7685 -0.8091 -0.3932
  915MOL0     N26149   8.083   4.601   5.827 -0.5905 -0.4679  0.5314
  915MOL0     C26150   8.010   4.590   5.938  1.2456  0.2710 -0.4050
  915MOL0     C26151   8.076   4.500   6.016  0.7021  1.4191 -1.0005
  915MOL0     C26152   8.030   4.452   6.158  0.3905 -1.2778 -0.8712
  915MOL0     C26153   7.943   4.332   6.176  0.9610 -0.1225  0.5409
  915MOL0     C26154   8.006   4.201   6.117 -0.7460 -0.4628  0.3309
  915MOL0     C26155   8.127   4.128   6.186  0.3640 -0.1180 -0.4199
  915MOL0     O26156   8.168   4.009   6.119 -0.0810 -0.0070 -0.4936
  915MOL0     C26157   8.291   4.001   6.060  0.8841 -0.0046  0.7208
  915MOL0     C26158   8.329   3.874   6.020 -0.4606  0.7113 -0.1939
  915MOL0     C26159   8.442   3.845   5.941 -0.5667 -0.3491  0.6702
  915MOL0     C26160   8.471   3.698   5.918 -0.1558 -0.5578 -0.4242
  915MOL0     C26161   8.522   3.953   5.900  0.5901 -1.2806  0.4538
  915MOL0     C26162   8.643   3.930   5.824  0.1248  0.1675  1.1278
  915MOL0     O26163   8.762   3.955   5.883  0.0688  0.2410  0.2651
  915MOL0     C26164   8.886   3.969   5.815  0.4297 -0.2472  0.7053
  915MOL0     C26165   8.999   3.912   5.879  1.0856  0.1693 -0.8818
  915MOL0     C26166   9.122   3.912   5.815  0.5381  0.1602  0.1585
  915MOL0     C26167   9.135   3.962   5.686 -0.7212  0.7048  0.4016
  915MOL0     O26168   9.254   3.950   5.609  0.0829 -0.2663 -0.3097
  915MOL0     C26169   9.344   3.838   5.646 -0.8836  0.2891  0.7091
  915MOL0     C26170   9.433   3.851   5.519  0.1018  0.5751 -0.3719
  915MOL0     C26171   9.485   3.707   5.502  1.1273  0.0141  0.3545
  915MOL0     C26172   9.557   3.705   5.372  0.3843 -0.7339  0.5173
  915MOL0     C26173   9.579   3.569   5.321  0.4892 -0.1220  0.7036
  915MOL0     C26174   9.731   3.538   5.335 -0.3817 -0.2231  0.4700
  915MOL0     C26175   9.764   3.389   5.283 -0.5814  0.3308 -0.1265
  915MOL0     C26176   9.739   3.371   5.135  0.5075 -0.4492 -0.4715
  915MOL0    Cl26177   9.551   3.335   5.121  0.3967  0.0718 -0.0869
  915MOL0     C26178   9.025   4.029   5.630  1.3804  0.7740 -0.2696
  915MOL0     C26179   8.900   4.034   5.696  0.2963 -0.1344 -0.6121
  915MOL0     O26180   8.628   3.884   5.707 -0.4129  0.1516  1.0375
  915MOL0     C26181   8.481   4.081   5.930 -0.4039 -0.4914  0.7967
  915MOL0     C26182   8.366   4.102   6.011 -0.2213  0.2581 -0.1014
  915MOL0     N26183   8.182   4.451   5.943 -0.8704  0.2064 -0.0782
  915MOL0     N26184   8.191   4.516   5.841 -0.1261  1.0368  0.5867
  915MOL0     C26185   8.997   5.339   5.684  0.6779  0.3713  0.0790
  915MOL0     C26186   9.058   5.462   5.661  0.3553  0.8341  0.5195
  915MOL0     C26187   9.159   5.900   5.748 -0.1578 -0.6542 -0.2666
  915MOL0     C26188   9.284   5.885   5.803 -0.2350 -0.1791 -0.1879
  915MOL0     C26189   9.377   5.990   5.784  0.3414  0.1729  0.3978
  915MOL0     C26190   9.343   6.108   5.718  0.5033 -0.3228 -0.8160
  915MOL0     O26191   9.444   6.198   5.709  0.7398 -0.2495 -0.3655
  915MOL0     C26192   9.410   6.343   5.692  0.3368 -1.1195  0.6158
  915MOL0     C26193   9.426   6.361   5.537 -0.1911 -0.5661 -0.4254
  915MOL0     C26194   9.325   6.477   5.506  1.0700  0.3244  1.0598
  915MOL0     C26195   9.325   6.508   5.359  0.3899  0.9243 -0.4244
  915MOL0     C26196   9.431   6.601   5.322  0.0398 -0.0872 -0.9390
  915MOL0     C26197   9.508   6.690   5.309  1.4877 -0.9826  0.1668
  915MOL0     C26198   9.215   6.127   5.680 -0.4073 -0.0300  0.6666
  915MOL0     C26199   9.113   6.026   5.696 -0.8558 -0.5006  0.4677
  915MOL0     C26200   8.969   6.055   5.654  0.1792  0.3672  0.3738
  915MOL0     H26201   9.050   5.554   5.995  0.5558 -0.7054 -1.0246
  915MOL0     H26202   8.930   5.337   6.016  1.8373 -0.1247  1.0773
  915MOL0     H26203   8.825   5.118   5.988 -2.2000 -0.3999  1.1856
  915MOL0     H26204   8.756   5.015   5.850 -3.9806  2.7850 -4.7300
  915MOL0     H26205   8.688   5.299   5.914  2.8352 -0.6302 -0.9369
  915MOL0     H26206   8.646   5.242   5.765  2.3688  0.7378 -0.5331
  915MOL0     H26207   8.565   5.130   6.035 -2.0420 -2.3801  0.8280
  915MOL0     H26208   8.460   5.208   5.939 -1.2130 -1.9276 -0.7526
  915MOL0     H26209   8.464   5.031   5.765  2.6920  1.7128 -1.1709
  915MOL0     H26210   8.556   4.927   5.875  0.9115  0.9757  0.7704
  915MOL0     H26211   8.268   5.049   5.926  0.3359 -0.4506  0.4515
  915MOL0     H26212   8.353   4.985   6.048 -1.7491  0.1989  0.5478
  915MOL0     H26213   8.339   4.794   5.802 -1.5977  0.4793 -1.5518
  915MOL0     H26214   8.300   4.759   5.971  1.2000  2.9994  1.8269
  915MOL0     H26215   8.131   4.943   5.782 -0.5398  2.5485  2.9396
  915MOL0     H26216   8.064   4.866   5.921  0.8758 -2.8724 -0.0945
  915MOL0     H26217   7.991   4.750   5.710 -0.2204  1.0766  2.3807
  915MOL0     H26218   8.165   4.728   5.671 -2.2842 -3.0937 -3.3508
  915MOL0     H26219   7.917   4.640   5.960  1.1973 -0.5584  1.5296
  915MOL0     H26220   7.980   4.540   6.197  0.7421 -1.2145 -0.5600
  915MOL0     H26221   8.115   4.432   6.223  0.9694 -1.4740 -1.6756
  915MOL0     H26222   7.930   4.320   6.284 -0.3146 -2.5607  0.1753
  915MOL0     H26223   7.856   4.336   6.110  1.4560 -2.4150 -0.3320
  915MOL0     H26224   7.924   4.128   6.111 -0.2522 -1.6534  4.6963
  915MOL0     H26225   8.026   4.221   6.012 -0.5978 -0.3521  0.3812
  915MOL0     H26226   8.211   4.194   6.207  0.0182  0.0097  0.6122
  915MOL0     H26227   8.095   4.086   6.282  1.5959 -1.2300 -0.4764
  915MOL0     H26228   8.281   3.784   6.057  1.2250  0.9235  2.8087
  915MOL0     H26229   8.417   3.676   5.826 -0.7927  4.0981 -1.4202
  915MOL0     H26230   8.441   3.631   5.999  0.8648 -2.0450 -1.2240
  915MOL0     H26231   8.579   3.680   5.915  0.7977  4.0744 -1.6788
  915MOL0     H26232   9.004   3.886   5.984  3.8841 -0.8460 -1.1712
  915MOL0     H26233   9.221   3.899   5.858  1.0948 -1.7913 -1.5927
  915MOL0     H26234   9.404   3.871   5.731 -2.8271  0.1985  2.2136
  915MOL0     H26235   9.306   3.736   5.659  1.3022 -0.5045  1.2289
  915MOL0     H26236   9.367   3.870   5.434 -2.0414  0.2171  1.1117
  915MOL0     H26237   9.512   3.926   5.520 -1.3606  2.2832 -2.7745
  915MOL0     H26238   9.399   3.639   5.498  1.0394 -0.1564  3.3492
  915MOL0     H26239   9.556   3.673   5.578  1.4898  0.5996  0.2829
  915MOL0     H26240   9.649   3.763   5.377  0.2915 -0.4515 -0.7199
  915MOL0     H26241   9.490   3.751   5.299  1.0389 -0.4929  0.0666
  915MOL0     H26242   9.516   3.497   5.375 -1.0218 -0.4678 -1.4062
  915MOL0     H26243   9.553   3.569   5.215  3.3069 -1.6839 -0.0784
  915MOL0     H26244   9.748   3.524   5.442 -1.0959 -0.9066  0.5039
  915MOL0     H26245   9.805   3.610   5.300 -0.9792 -0.5661 -1.6599
  915MOL0     H26246   9.712   3.313   5.342 -1.9327  0.8740 -0.5679
  915MOL0     H26247   9.868   3.362   5.302 -1.0855 -2.5938 -1.1055
  915MOL0     H26248   9.791   3.284   5.093  0.0810 -0.9022 -0.0760
  915MOL0     H26249   9.769   3.461   5.081  2.5615  0.5874  2.1676
  915MOL0     H26250   9.039   4.074   5.532  5.2229 -2.5011 -1.4918
  915MOL0     H26251   8.814   4.085   5.654 -0.6622 -0.6749  0.6390
  915MOL0     H26252   8.536   4.169   5.898 -1.4695 -0.2892 -0.5876
  915MOL0     H26253   8.326   4.200   6.035 -1.7759 -0.3162 -0.2059
  915MOL0     H26254   8.965   5.279   5.599  0.1128  0.1364  0.4478
  915MOL0     H26255   9.114   5.489   5.572  0.9715 -0.7768  0.3875
  915MOL0     H26256   9.337   5.799   5.843  1.2694 -0.2659 -2.2235
  915MOL0     H26257   9.476   5.984   5.826  0.4441 -1.0578  0.0380
  915MOL0     H26258   9.312   6.369   5.732  0.6165  1.5964 -0.2721
  915MOL0     H26259   9.482   6.396   5.754 -2.4816  3.0531  0.7547
  915MOL0     H26260   9.394   6.268   5.489  0.9763 -0.7948 -0.7804
  915MOL0     H26261   9.526   6.395   5.510  0.9998 -3.7084 -0.3639
  915MOL0     H26262   9.226   6.440   5.534  0.8887  0.0942  0.1557
  915MOL0     H26263   9.335   6.571   5.561 -3.6270  1.5626  0.1986
  915MOL0     H26264   9.225   6.551   5.343 -2.2520 -3.7872  1.2475
  915MOL0     H26265   9.321   6.412   5.308 -5.1651  0.8089 -0.4368
  915MOL0     H26266   9.591   6.757   5.295 -0.8676  2.2237  0.3106
  915MOL0     H26267   9.190   6.228   5.650  1.7222 -0.3928 -2.9534
  915MOL0     H26268   8.962   6.161   5.627  0.4472  0.6955  1.5116
  915MOL0     H26269   8.947   6.005   5.560 -1.2792  3.9607 -1.3589
  915MOL0     H26270   8.894   6.034   5.731  0.3156 -1.4289  0.0682
  916MOL0     O26271   9.663   6.980   5.289 -0.3249  0.2227  1.0081
  916MOL0     C26272   9.776   7.028   5.259  0.0251 -0.0328 -0.8144
  916MOL0     O26273   9.878   6.956   5.206 -0.5973  0.4648 -0.2489
  916MOL0     C26274   9.838   6.831   5.169 -0.1566  0.8479  0.3301
  916MOL0     C26275   9.897   6.720   5.232 -0.4406  0.0939  0.2388
  916MOL0     C26276   9.891   6.587   5.185 -1.2722  0.1972  0.3514
  916MOL0     C26277   9.814   6.554   5.079  0.6557  0.4017  0.2446
  916MOL0     O26278   9.779   6.421   5.042 -0.5485  0.6103 -0.5823
  916MOL0     C26279   9.768   6.331   5.152  0.6721  0.6348 -0.3239
  916MOL0     C26280   9.731   6.184   5.099  0.2784 -0.4939  0.0826
  916MOL0     C26281   9.735   6.065   5.193 -0.6779 -0.0527  0.4200
  916MOL0     C26282   9.878   6.042   5.255 -0.7659 -0.7482 -0.0599
  916MOL0     C26283   9.884   5.919   5.339 -0.0949 -0.6412 -0.0102
  916MOL0     C26284   9.798   5.918   5.471 -0.6294  0.0329  0.1609
  916MOL0     C26285   9.825   5.782   5.539 -0.2065 -0.5362 -0.0294
  916MOL0     C26286   9.757   5.676   5.447  0.4708 -0.0727  0.0231
  916MOL0     N26287   9.711   5.565   5.539 -0.5362  0.7219  0.7870
  916MOL0     C26288   9.790   5.472   5.618  0.5145 -0.6642  0.9009
  916MOL0     C26289   9.713   5.360   5.637 -0.8687 -0.5134 -0.0597
  916MOL0     C26290   9.775   5.242   5.704 -0.0655  0.7746  0.9776
  916MOL0     C26291   9.919   5.209   5.650 -0.0420  0.1530 -0.2871
  916MOL0     C26292   9.933   5.205   5.496  0.7722  0.2727  0.6050
  916MOL0     C26293   9.863   5.079   5.446  0.7027  0.8540 -0.0708
  916MOL0     O26294   9.881   5.063   5.305  0.2350 -0.7655 -0.4718
  916MOL0     C26295   9.780   5.097   5.223  0.0653 -0.3581  0.2126
  916MOL0     C26296   9.720   5.223   5.209 -0.7555 -0.0227  0.5926
  916MOL0     C26297   9.623   5.254   5.118 -0.6523  0.4117  0.4012
  916MOL0     C26298   9.573   5.392   5.125 -0.2050  1.0907 -0.3681
  916MOL0     C26299   9.594   5.158   5.023  0.5521  0.7364 -0.6213
  916MOL0     C26300   9.499   5.190   4.918  1.1423 -0.4012  0.5868
  916MOL0     O26301   9.543   5.187   4.786 -0.1277  0.5967 -0.3507
  916MOL0     C26302   9.671   5.246   4.772 -0.5972  0.3517 -0.3233
  916MOL0     C26303   9.785   5.165   4.771  0.0476 -0.0605  0.4318
  916MOL0     C26304   9.902   5.229   4.731  0.9704  0.9343 -1.0862
  916MOL0     C26305   9.919   5.367   4.713  0.5169 -0.1626  0.5142
  916MOL0     O26306  10.043   5.414   4.693 -0.4508  0.9797  0.4552
  916MOL0     C26307  10.069   5.552   4.680 -0.2094  0.1362  0.1404
  916MOL0     C26308  10.222   5.565   4.657  0.2506 -0.8107  0.3509
  916MOL0     C26309  10.282   5.704   4.655 -0.1087 -0.2399 -0.0865
  916MOL0     C26310  10.240   5.787   4.538  0.1319 -0.5197  0.2905
  916MOL0     C26311  10.316   5.923   4.533  0.3214  0.8707 -0.0193
  916MOL0     C26312  10.469   5.915   4.543  0.5405  0.1937 -0.1460
  916MOL0     C26313  10.553   6.026   4.482 -0.1465  0.0775  0.0044
  916MOL0     C26314  10.564   6.149   4.573 -0.1291  0.1882 -0.1480
  916MOL0    Cl26315  10.409   6.228   4.598  0.1341 -0.0606 -0.6167
  916MOL0     C26316   9.801   5.441   4.715  0.2861 -0.4991  0.7552
  916MOL0     C26317   9.678   5.381   4.739  1.0336 -0.8809  0.5369
  916MOL0     O26318   9.384   5.215   4.959  0.4171  0.0335  0.3317
  916MOL0     C26319   9.652   5.032   5.034  0.6051  1.3532 -0.6171
  916MOL0     C26320   9.750   5.004   5.133  1.4319  0.7120  0.1627
  916MOL0     N26321   9.594   5.388   5.582 -0.5146  0.3802  0.6558
  916MOL0     N26322   9.583   5.510   5.531  0.1081  0.0273 -0.0138
  916MOL0     C26323   9.737   6.655   5.021 -0.2286  0.0218  1.3323
  916MOL0     C26324   9.754   6.793   5.059  0.9941  0.0891  0.3823
  916MOL0     C26325   9.795   7.170   5.292  0.0176  0.8314  0.7022
  916MOL0     C26326   9.770   7.214   5.424 -0.4274  0.2230 -0.2162
  916MOL0     C26327   9.802   7.352   5.462  0.3294 -0.8824  0.2910
  916MOL0     C26328   9.878   7.439   5.375  0.2650  0.1778  0.6096
  916MOL0     O26329   9.946   7.554   5.410 -0.3126 -0.0909  0.1793
  916MOL0     C26330  10.091   7.566   5.404  0.7709 -0.2747 -0.0560
  916MOL0     C26331  10.144   7.468   5.510  0.1041 -0.2873 -0.0630
  916MOL0     C26332  10.298   7.472   5.507  0.0641 -0.0458 -0.3903
  916MOL0     C26333  10.355   7.436   5.644  0.4435  0.4422  0.8575
  916MOL0     C26334  10.496   7.449   5.625  0.0073 -1.1508 -0.4301
  916MOL0     C26335  10.620   7.460   5.614 -0.0333 -0.1454 -0.2077
  916MOL0     C26336   9.911   7.381   5.253  0.3160  0.5712 -0.3136
  916MOL0     C26337   9.866   7.260   5.204 -0.8667  0.6044 -0.6712
  916MOL0     C26338   9.908   7.207   5.065 -0.3455 -0.4214  0.0657
  916MOL0     H26339   9.963   6.739   5.316  1.4142 -3.6937 -0.1803
  916MOL0     H26340   9.948   6.501   5.219 -0.4137  0.0094 -1.4223
  916MOL0     H26341   9.675   6.339   5.211  0.5552 -5.2156  0.8898
  916MOL0     H26342   9.858   6.323   5.214 -0.8678  0.4414  2.0443
  916MOL0     H26343   9.629   6.191   5.058 -1.3321  0.6533  3.8423
  916MOL0     H26344   9.792   6.159   5.011 -0.5335 -3.1013  0.1812
  916MOL0     H26345   9.666   6.084   5.276  0.7839 -1.2606  1.9693
  916MOL0     H26346   9.701   5.971   5.148  3.7559 -1.4689 -0.4053
  916MOL0     H26347   9.956   6.036   5.178  0.6178 -3.9796  1.3730
  916MOL0     H26348   9.912   6.117   5.327  0.9767 -1.2660 -0.2812
  916MOL0     H26349   9.989   5.909   5.369  1.0073  1.9539 -2.4698
  916MOL0     H26350   9.859   5.838   5.270 -1.8471 -0.0061 -0.1681
  916MOL0     H26351   9.826   5.995   5.542 -1.2392  0.5820 -0.1823
  916MOL0     H26352   9.696   5.930   5.434 -0.3331  2.0344 -0.1333
  916MOL0     H26353   9.777   5.779   5.637 -1.3772 -0.4310 -0.5804
  916MOL0     H26354   9.927   5.750   5.560 -0.6561 -1.2874  1.0784
  916MOL0     H26355   9.669   5.732   5.414 -0.6196 -0.9708  1.3261
  916MOL0     H26356   9.832   5.655   5.371  2.6743  0.5519  1.8847
  916MOL0     H26357   9.896   5.480   5.637  1.2969 -1.8832 -2.2064
  916MOL0     H26358   9.713   5.154   5.687  0.4952  0.6950 -0.8709
  916MOL0     H26359   9.787   5.264   5.811  0.5957  3.2715  0.4523
  916MOL0     H26360   9.984   5.288   5.688 -3.1443  4.3673 -2.8082
  916MOL0     H26361   9.948   5.111   5.689  2.2998  0.6923 -0.5240
  916MOL0     H26362   9.877   5.284   5.444 -0.4503 -0.9557 -0.0185
  916MOL0     H26363  10.037   5.205   5.465  0.0308 -0.8666 -2.1105
  916MOL0     H26364   9.895   4.985   5.492 -2.7453  0.1425  1.2132
  916MOL0     H26365   9.754   5.079   5.459  0.7293 -1.2031  0.4723
  916MOL0     H26366   9.753   5.306   5.271 -0.7126  1.3304 -1.1697
  916MOL0     H26367   9.468   5.386   5.152  0.0295  1.8011  0.7815
  916MOL0     H26368   9.583   5.454   5.036  0.0199  4.2497  1.7111
  916MOL0     H26369   9.630   5.456   5.193  0.4506  0.2351 -0.0979
  916MOL0     H26370   9.780   5.061   4.800  0.3841  0.4747  2.5304
  916MOL0     H26371   9.987   5.164   4.751  0.4730  0.6634  0.2449
  916MOL0     H26372  10.004   5.581   4.596  0.3690 -0.2514 -0.4487
  916MOL0     H26373  10.048   5.611   4.769 -0.0786 -1.6950  1.4436
  916MOL0     H26374  10.269   5.521   4.745  0.7224  0.4237  0.7492
  916MOL0     H26375  10.245   5.516   4.562  3.7144  0.2010  0.5460
  916MOL0     H26376  10.391   5.696   4.661  0.0443  2.0485  1.0529
  916MOL0     H26377  10.245   5.749   4.747 -2.2610 -1.0401 -0.4748
  916MOL0     H26378  10.133   5.807   4.546  0.0839 -0.0540 -1.1494
  916MOL0     H26379  10.254   5.740   4.440  0.0830  1.5567 -0.7596
  916MOL0     H26380  10.284   5.976   4.443  0.7030  1.2343  0.0522
  916MOL0     H26381  10.279   5.995   4.606 -0.1999  3.5932 -2.7708
  916MOL0     H26382  10.493   5.821   4.493  1.7612  1.5179 -2.2178
  916MOL0     H26383  10.482   5.901   4.651  1.5812 -4.3252 -0.6728
  916MOL0     H26384  10.552   6.042   4.373  2.4735 -2.9560 -0.6073
  916MOL0     H26385  10.655   5.987   4.492  0.1314  1.1841  1.9707
  916MOL0     H26386  10.628   6.222   4.523 -0.6991  1.7661  1.3441
  916MOL0     H26387  10.614   6.105   4.660 -0.3459 -1.6048 -0.8823
  916MOL0     H26388   9.799   5.542   4.677 -2.0243 -0.6483  0.3530
  916MOL0     H26389   9.587   5.440   4.740 -0.0454 -2.4565  2.4964
  916MOL0     H26390   9.639   4.956   4.958  3.1577  0.5554 -0.3428
  916MOL0     H26391   9.774   4.898   5.133 -1.7501 -0.0967  0.1628
  916MOL0     H26392   9.659   6.635   4.949 -0.8873  2.0641  1.4071
  916MOL0     H26393   9.707   6.861   4.988  1.3896  0.6018  0.6076
  916MOL0     H26394   9.734   7.150   5.503  3.6955  1.7370  3.2567
  916MOL0     H26395   9.816   7.378   5.567  1.7493  3.0589 -0.6943
  916MOL0     H26396  10.119   7.546   5.301  1.0880  2.4746 -0.5867
  916MOL0     H26397  10.127   7.668   5.423  1.5993 -0.3026 -1.3699
  916MOL0     H26398  10.103   7.367   5.513  0.3102 -0.3764  2.5887
  916MOL0     H26399  10.125   7.514   5.608  4.4830  0.3776  0.6924
  916MOL0     H26400  10.331   7.398   5.434  0.3705 -0.0404 -0.2605
  916MOL0     H26401  10.335   7.574   5.493  1.5319 -0.4702  0.2082
  916MOL0     H26402  10.335   7.332   5.668  3.1083 -0.7953 -1.5848
  916MOL0     H26403  10.327   7.495   5.731  3.1602  0.3569  1.8957
  916MOL0     H26404  10.727   7.464   5.606  0.0350  2.6447  0.7728
  916MOL0     H26405   9.979   7.431   5.184 -2.1162 -0.7881 -3.9995
  916MOL0     H26406   9.897   7.293   4.998  0.8508  0.9644  1.5644
  916MOL0     H26407  10.011   7.170   5.056 -0.4862 -0.7825 -0.0878
  916MOL0     H26408   9.840   7.129   5.030  0.7311 -1.6771  0.6733
  917MOL0     O26409   9.185   9.467   4.969  0.5306  0.6657 -1.0499
  917MOL0     C26410   9.224   9.442   4.858 -0.9709  0.3585 -0.1146
  917MOL0     O26411   9.241   9.320   4.811  0.0094 -0.9780 -0.7587
  917MOL0     C26412   9.210   9.209   4.889 -0.3020  0.3091 -0.1132
  917MOL0     C26413   9.301   9.146   4.973 -0.9635 -0.2631 -0.4219
  917MOL0     C26414   9.271   9.044   5.058 -0.4302 -0.6117  0.4100
  917MOL0     C26415   9.138   9.005   5.060 -0.0821 -0.3774  0.5389
  917MOL0     O26416   9.123   8.909   5.158 -0.1724 -0.5451  0.2430
  917MOL0     C26417   8.989   8.871   5.194  0.4224  0.2298 -0.1447
  917MOL0     C26418   8.988   8.749   5.284 -0.1354 -0.1374 -0.5997
  917MOL0     C26419   9.055   8.763   5.426  0.1309 -0.2613 -0.2619
  917MOL0     C26420   8.951   8.803   5.525 -0.0297 -0.1864 -0.0984
  917MOL0     C26421   9.011   8.865   5.650  0.8978  1.7234  0.3686
  917MOL0     C26422   9.076   8.753   5.740 -0.0729  0.3886 -0.0745
  917MOL0     C26423   8.974   8.644   5.802 -0.6159 -0.1154 -0.4049
  917MOL0     C26424   9.043   8.530   5.877  0.1616  0.2290 -0.7609
  917MOL0     N26425   8.945   8.465   5.969 -0.4615  0.5734 -0.4292
  917MOL0     C26426   8.958   8.341   6.024 -0.6007  0.8411  1.1806
  917MOL0     C26427   8.839   8.316   6.089  0.9105 -0.5058  0.9494
  917MOL0     C26428   8.813   8.193   6.168  0.2629  1.2419 -0.6613
  917MOL0     C26429   8.848   8.060   6.101 -0.7852 -0.0687  0.2439
  917MOL0     C26430   8.864   7.937   6.204  0.0078 -0.2088  0.2706
  917MOL0     C26431   8.738   7.933   6.294  0.2315 -0.3590  0.0680
  917MOL0     O26432   8.747   7.826   6.386 -0.1775  0.2135 -0.4209
  917MOL0     C26433   8.660   7.721   6.363  0.1244 -0.4167  0.1418
  917MOL0     C26434   8.523   7.720   6.373 -0.6246  0.4375  0.3754
  917MOL0     C26435   8.449   7.606   6.332 -0.8591 -0.1234  0.2171
  917MOL0     C26436   8.305   7.632   6.317  0.7294 -0.2624 -0.0772
  917MOL0     C26437   8.520   7.485   6.297 -0.0080  0.0860 -0.4863
  917MOL0     C26438   8.451   7.360   6.280  0.9692  0.9519 -0.1641
  917MOL0     O26439   8.523   7.252   6.334  0.1552  1.1140 -0.2394
  917MOL0     C26440   8.479   7.120   6.314  0.1758  0.9743 -0.1785
  917MOL0     C26441   8.345   7.078   6.304 -0.6091 -0.1186 -0.3853
  917MOL0     C26442   8.322   6.950   6.265 -0.2519  1.2578  0.4929
  917MOL0     C26443   8.419   6.847   6.252 -0.5540  0.5064 -0.0757
  917MOL0     O26444   8.383   6.728   6.201 -0.8193 -0.5772  0.3357
  917MOL0     C26445   8.489   6.641   6.144  0.0196 -0.6616 -1.0155
  917MOL0     C26446   8.437   6.520   6.080  0.3768  0.4283 -0.7562
  917MOL0     C26447   8.382   6.542   5.941 -0.4618 -0.4042  0.2580
  917MOL0     C26448   8.245   6.601   5.923  0.3287  0.0671 -0.3251
  917MOL0     C26449   8.216   6.644   5.777 -1.1093 -0.0973  0.1219
  917MOL0     C26450   8.065   6.613   5.753 -0.1125  0.0820 -0.5755
  917MOL0     C26451   8.010   6.697   5.643  0.1757  0.5625 -0.2570
  917MOL0     C26452   7.894   6.780   5.680  0.7974  0.2001 -0.3578
  917MOL0    Cl26453   7.921   6.862   5.829 -0.3421 -0.2764 -0.1862
  917MOL0     C26454   8.547   6.883   6.271 -1.1585  0.1208 -0.1564
  917MOL0     C26455   8.576   7.019   6.305  0.0022  0.0550 -0.2008
  917MOL0     O26456   8.350   7.341   6.216 -0.2873 -1.1145 -0.2878
  917MOL0     C26457   8.659   7.479   6.309  0.4121  0.3645 -0.3583
  917MOL0     C26458   8.730   7.598   6.340  0.0389 -0.9043  0.1453
  917MOL0     N26459   8.760   8.439   6.068 -0.3761  0.8466 -0.0815
  917MOL0     N26460   8.834   8.521   6.005  0.3678 -0.4790 -0.2336
  917MOL0     C26461   9.035   9.074   4.986  0.2927 -0.9867  0.7582
  917MOL0     C26462   9.073   9.165   4.897 -0.0459 -0.2816  0.0571
  917MOL0     C26463   9.269   9.552   4.763 -0.1431 -0.2662 -0.6796
  917MOL0     C26464   9.337   9.518   4.648 -0.0385 -0.7055 -0.2336
  917MOL0     C26465   9.392   9.612   4.566  0.0803 -0.1892  0.6212
  917MOL0     C26466   9.378   9.749   4.593  0.3049 -0.0093  0.2536
  917MOL0     O26467   9.437   9.831   4.497 -0.6879 -0.6037 -0.1414
  917MOL0     C26468   9.381   9.963   4.461  0.6757  0.0704  0.1538
  917MOL0     C26469   9.430  10.005   4.320 -0.4255  0.6737 -0.6755
  917MOL0     C26470   9.336   9.937   4.216 -1.2997  0.6502  0.4634
  917MOL0     C26471   9.426   9.862   4.101  0.9182  1.2843  0.1121
  917MOL0     C26472   9.535   9.932   4.030 -0.8550 -0.3762 -0.1945
  917MOL0     C26473   9.634   9.993   3.984  1.1918  0.5630 -0.3037
  917MOL0     C26474   9.309   9.786   4.716 -0.2869 -0.2347 -0.2357
  917MOL0     C26475   9.241   9.690   4.794  0.1325  1.1191 -0.5819
  917MOL0     C26476   9.158   9.750   4.911  0.3491 -0.0176 -0.0803
  917MOL0     H26477   9.403   9.182   4.978 -1.0734  0.0177 -0.1765
  917MOL0     H26478   9.345   9.002   5.126  0.4255  0.5995  0.2658
  917MOL0     H26479   8.930   8.849   5.105 -1.6669 -1.2569  1.5126
  917MOL0     H26480   8.947   8.956   5.249 -1.6105 -0.6602 -0.2205
  917MOL0     H26481   8.882   8.736   5.309 -0.1908  3.2964  1.7041
  917MOL0     H26482   9.033   8.661   5.237  1.5532  1.2270 -1.6504
  917MOL0     H26483   9.102   8.667   5.450  1.4893  0.3716 -0.2582
  917MOL0     H26484   9.128   8.845   5.427 -0.5636  0.3820  1.0722
  917MOL0     H26485   8.878   8.874   5.484 -1.3991 -0.5540  1.5894
  917MOL0     H26486   8.898   8.714   5.561  1.0720  0.0874  2.4015
  917MOL0     H26487   8.932   8.904   5.715 -0.1827  0.9872 -0.4567
  917MOL0     H26488   9.074   8.953   5.636  0.8298  2.1831  2.5821
  917MOL0     H26489   9.159   8.703   5.688  1.8296  1.0539  2.1407
  917MOL0     H26490   9.120   8.802   5.828  1.2342 -0.6073 -0.1407
  917MOL0     H26491   8.921   8.591   5.722  0.3932  1.9863 -2.5923
  917MOL0     H26492   8.909   8.703   5.867 -1.6262 -0.1919 -1.3128
  917MOL0     H26493   9.079   8.458   5.804 -0.0277  0.7591 -1.3840
  917MOL0     H26494   9.131   8.571   5.928  1.7570 -3.0276 -0.6613
  917MOL0     H26495   9.049   8.281   6.022 -1.6661 -0.8591  1.6693
  917MOL0     H26496   8.709   8.182   6.199  0.0362 -1.7246 -2.0854
  917MOL0     H26497   8.878   8.206   6.255 -3.0591  1.8454  1.9475
  917MOL0     H26498   8.783   8.028   6.019 -1.0561 -0.5361  0.6333
  917MOL0     H26499   8.945   8.083   6.057 -0.2578 -2.6713 -0.1033
  917MOL0     H26500   8.875   7.846   6.144  0.4958 -2.1856  3.1225
  917MOL0     H26501   8.951   7.948   6.269  0.4740  0.3087 -0.4244
  917MOL0     H26502   8.731   8.020   6.361 -2.5679 -2.1507  2.3246
  917MOL0     H26503   8.649   7.924   6.232  1.3073 -0.5629 -1.5202
  917MOL0     H26504   8.458   7.802   6.404 -1.1234  0.4212 -0.5865
  917MOL0     H26505   8.273   7.659   6.216  4.7570  0.1067 -1.4354
  917MOL0     H26506   8.274   7.711   6.386  0.8882  0.4453 -0.8135
  917MOL0     H26507   8.251   7.540   6.344 -2.3165  0.1241 -4.0829
  917MOL0     H26508   8.256   7.140   6.309 -2.0326 -2.1403  0.5387
  917MOL0     H26509   8.218   6.919   6.252 -0.2606  1.8088 -0.9544
  917MOL0     H26510   8.559   6.692   6.078  0.1416  0.0304 -0.3680
  917MOL0     H26511   8.538   6.595   6.231 -1.0395  0.4625  0.2151
  917MOL0     H26512   8.525   6.456   6.062  0.4830  0.5739 -0.7605
  917MOL0     H26513   8.365   6.468   6.143  0.5106  0.5030 -0.5411
  917MOL0     H26514   8.374   6.442   5.897  1.1760  0.6273 -2.6739
  917MOL0     H26515   8.459   6.599   5.888  0.1607 -2.1748 -0.8224
  917MOL0     H26516   8.223   6.681   5.994  0.7852 -0.4364  0.3936
  917MOL0     H26517   8.175   6.526   5.961  1.1639  0.5246  2.3625
  917MOL0     H26518   8.235   6.751   5.760  1.6205 -0.5074  0.1102
  917MOL0     H26519   8.289   6.596   5.713 -0.3306 -3.2514  3.0953
  917MOL0     H26520   8.003   6.621   5.843  0.4510 -1.4145 -0.0133
  917MOL0     H26521   8.047   6.508   5.727 -0.4177  0.3009 -1.2712
  917MOL0     H26522   7.982   6.635   5.558 -2.3995  0.2947  0.6944
  917MOL0     H26523   8.070   6.776   5.597  0.2406  1.1455  0.7926
  917MOL0     H26524   7.808   6.712   5.691  0.5167  0.7723  1.2178
  917MOL0     H26525   7.853   6.840   5.598 -0.2736 -0.9928 -0.7370
  917MOL0     H26526   8.635   6.822   6.251 -0.4749  1.0300  0.0032
  917MOL0     H26527   8.680   7.046   6.321 -0.1706  0.7515 -0.2437
  917MOL0     H26528   8.716   7.391   6.279 -0.7968  0.4088 -3.1625
  917MOL0     H26529   8.838   7.589   6.330  0.3208 -1.9967  3.0293
  917MOL0     H26530   8.930   9.049   4.997 -1.7198  5.0781 -0.7103
  917MOL0     H26531   9.011   9.211   4.821 -1.1229  4.4442  3.3639
  917MOL0     H26532   9.348   9.414   4.621 -0.8440 -1.0722  0.7807
  917MOL0     H26533   9.462   9.578   4.490  0.9934  0.3741  1.1893
  917MOL0     H26534   9.273   9.950   4.473  1.0118 -1.0942  2.6870
  917MOL0     H26535   9.408  10.040   4.534  1.1836  0.7211 -0.7129
  917MOL0     H26536   9.536   9.980   4.306  0.2339  2.4391  0.7849
  917MOL0     H26537   9.420  10.112   4.340  1.4301  0.1352  4.6809
  917MOL0     H26538   9.267   9.861   4.252 -0.8095 -0.6723 -1.2552
  917MOL0     H26539   9.268  10.019   4.190 -0.2676  1.7412  1.0900
  917MOL0     H26540   9.361   9.817   4.024 -0.5651 -1.8081  2.9222
  917MOL0     H26541   9.464   9.776   4.157  0.3335 -0.5501 -2.1322
  917MOL0     H26542   9.718  10.053   3.955  1.2401 -0.5266 -2.5672
  917MOL0     H26543   9.304   9.891   4.743 -1.7170 -0.5011  0.6354
  917MOL0     H26544   9.132   9.853   4.884  2.1349  0.6411  0.5144
  917MOL0     H26545   9.066   9.692   4.922 -0.8423  0.8858 -3.8650
  917MOL0     H26546   9.214   9.751   5.005  1.8922  0.0724 -0.9553
  918MOL0     O26547   4.748   2.001   0.108  0.5822 -0.4706  0.6180
  918MOL0     C26548   4.663   1.995   0.193  0.9986 -0.0659  1.0799
  918MOL0     O26549   4.533   1.950   0.177  0.2752 -0.2070 -0.3100
  918MOL0     C26550   4.498   1.875   0.068 -0.0034 -0.4929  0.2021
  918MOL0     C26551   4.545   1.757   0.028 -0.6927  0.2240 -0.9102
  918MOL0     C26552   4.491   1.693  -0.088 -0.1067 -1.2760 -0.8793
  918MOL0     C26553   4.379   1.731  -0.158 -0.1151 -0.3400  0.9065
  918MOL0     O26554   4.320   1.674  -0.270  0.4935 -0.4023 -0.5403
  918MOL0     C26555   4.369   1.553  -0.327  0.8382 -0.5883 -0.5398
  918MOL0     C26556   4.324   1.432  -0.237 -0.4297  0.4668  0.3116
  918MOL0     C26557   4.370   1.297  -0.291  1.1398  0.5738  0.9059
  918MOL0     C26558   4.291   1.230  -0.410 -0.9708  0.1721  0.1025
  918MOL0     C26559   4.320   1.081  -0.425 -0.7581  1.2121 -0.0820
  918MOL0     C26560   4.467   1.048  -0.448  0.1071 -0.0968  0.2018
  918MOL0     C26561   4.490   0.902  -0.492  0.5323 -0.1584  0.1714
  918MOL0     C26562   4.640   0.870  -0.533 -0.2456  0.3665 -0.0563
  918MOL0     N26563   4.743   0.901  -0.428  0.6571 -0.7873 -0.2906
  918MOL0     C26564   4.778   0.806  -0.333  0.5345 -0.3032 -0.7369
  918MOL0     C26565   4.865   0.873  -0.255 -0.5250  0.4634  0.6217
  918MOL0     C26566   4.939   0.830  -0.130 -0.0665 -0.2742 -0.4297
  918MOL0     C26567   5.051   0.934  -0.096  0.1221 -0.1352 -0.1498
  918MOL0     C26568   5.110   0.903   0.050 -0.0202 -0.4841 -0.5099
  918MOL0     C26569   5.224   1.016   0.077 -0.2582  1.3420  0.3858
  918MOL0     O26570   5.311   0.962   0.181  0.6518 -0.0824  0.1132
  918MOL0     C26571   5.421   1.032   0.197 -0.3977 -0.7580  0.4316
  918MOL0     C26572   5.540   0.955   0.227  0.8183 -0.5296 -0.3363
  918MOL0     C26573   5.665   1.019   0.257  0.2340 -0.1839  1.1886
  918MOL0     C26574   5.791   0.929   0.284  0.4242 -0.8458  0.1126
  918MOL0     C26575   5.664   1.163   0.248  1.3227 -1.0941  0.3854
  918MOL0     C26576   5.785   1.243   0.265 -0.0619 -0.0011  0.6877
  918MOL0     O26577   5.781   1.372   0.206  0.5751 -0.3325  0.4430
  918MOL0     C26578   5.892   1.452   0.231 -0.4535 -0.3472 -0.3957
  918MOL0     C26579   5.903   1.521   0.357 -0.0681  0.1178 -1.0472
  918MOL0     C26580   6.012   1.599   0.396 -1.0108 -0.4085  0.4240
  918MOL0     C26581   6.113   1.616   0.293 -0.3093  0.6829  0.3501
  918MOL0     O26582   6.219   1.694   0.330 -0.1680 -0.2815 -0.0884
  918MOL0     C26583   6.289   1.773   0.233 -0.4551  0.3168 -0.3397
  918MOL0     C26584   6.368   1.874   0.297  0.4714 -0.0592  0.5293
  918MOL0     C26585   6.395   1.999   0.210  0.2332  0.8039 -0.5965
  918MOL0     C26586   6.490   2.105   0.264 -0.2143  0.6131 -0.0361
  918MOL0     C26587   6.496   2.221   0.167  0.2980 -1.1041  0.7188
  918MOL0     C26588   6.573   2.355   0.203  0.2657 -0.3921 -1.1954
  918MOL0     C26589   6.490   2.444   0.301  0.0918  0.5496  0.0816
  918MOL0     C26590   6.518   2.592   0.294  0.3509 -0.0408 -0.1924
  918MOL0    Cl26591   6.400   2.689   0.376  0.1667 -0.0682 -0.5492
  918MOL0     C26592   6.100   1.546   0.176  0.1528 -0.7009  0.4970
  918MOL0     C26593   5.989   1.472   0.140 -0.1737 -0.7248  0.6270
  918MOL0     O26594   5.879   1.207   0.340  0.4153 -0.6614  0.1246
  918MOL0     C26595   5.548   1.237   0.220 -0.1634  0.3070  0.1005
  918MOL0     C26596   5.431   1.172   0.195  0.7251 -0.4407 -0.0905
  918MOL0     N26597   4.894   0.994  -0.309 -0.4954 -0.4816  1.0333
  918MOL0     N26598   4.822   1.016  -0.421 -0.6145 -0.8823 -0.9102
  918MOL0     C26599   4.325   1.845  -0.096  0.5293  0.6134  0.5298
  918MOL0     C26600   4.385   1.918   0.004  0.2167  0.3177  0.6018
  918MOL0     C26601   4.687   2.055   0.321  0.1795  0.2462 -0.2224
  918MOL0     C26602   4.663   1.992   0.444 -1.0076  0.5975 -0.0282
  918MOL0     C26603   4.702   2.044   0.562 -0.6161  0.2913 -0.3643
  918MOL0     C26604   4.743   2.174   0.566  0.1247  0.6744  0.0308
  918MOL0     O26605   4.773   2.221   0.688 -0.1240 -0.7716 -0.6839
  918MOL0     C26606   4.649   2.275   0.745 -0.9020 -0.9404 -0.8994
  918MOL0     C26607   4.573   2.177   0.824 -0.1467 -0.3741 -0.4575
  918MOL0     C26608   4.642   2.151   0.960 -0.3587 -0.5269 -0.3156
  918MOL0     C26609   4.757   2.058   0.962 -0.1133  0.2069 -0.5811
  918MOL0     C26610   4.722   1.912   0.934 -0.1993 -0.9449 -0.3477
  918MOL0     C26611   4.693   1.802   0.902 -0.3067  1.1277  0.6745
  918MOL0     C26612   4.765   2.242   0.450 -0.9556  0.0788 -0.5507
  918MOL0     C26613   4.734   2.189   0.327  0.3867 -0.3753  0.2469
  918MOL0     C26614   4.738   2.269   0.199 -0.8519 -0.3275  0.5771
  918MOL0     H26615   4.633   1.718   0.079 -0.2568  1.4866 -0.6535
  918MOL0     H26616   4.537   1.602  -0.124 -1.3105 -3.1752  2.0379
  918MOL0     H26617   4.477   1.549  -0.345  0.9555  2.1688 -0.8929
  918MOL0     H26618   4.319   1.545  -0.424  0.2195 -2.2492 -0.1178
  918MOL0     H26619   4.361   1.441  -0.134  1.0827  1.5198 -0.2837
  918MOL0     H26620   4.215   1.435  -0.229 -0.4242 -1.6955  3.9616
  918MOL0     H26621   4.477   1.309  -0.312  1.1737 -1.0245 -0.0326
  918MOL0     H26622   4.354   1.233  -0.204 -0.6838  0.6116  0.6329
  918MOL0     H26623   4.187   1.242  -0.378 -1.5868  0.2027 -1.7845
  918MOL0     H26624   4.299   1.276  -0.509  0.1857  0.1531  0.1803
  918MOL0     H26625   4.239   1.051  -0.491  0.1748  0.3980 -0.8878
  918MOL0     H26626   4.301   1.042  -0.324 -1.1651  1.3132 -0.1170
  918MOL0     H26627   4.498   1.103  -0.537  0.6698  1.5036  1.3265
  918MOL0     H26628   4.536   1.077  -0.368 -0.4044  1.4625  0.0988
  918MOL0     H26629   4.436   0.878  -0.584  0.4233  1.7397 -0.2898
  918MOL0     H26630   4.465   0.846  -0.401 -0.5998  4.5680  3.1150
  918MOL0     H26631   4.638   0.766  -0.568 -1.6146  0.1586  0.5736
  918MOL0     H26632   4.672   0.932  -0.617  7.2266 -0.3805  1.5658
  918MOL0     H26633   4.730   0.709  -0.322  0.1408  0.1424  2.2641
  918MOL0     H26634   5.001   0.740  -0.144  1.0019 -0.2174  2.8656
  918MOL0     H26635   4.875   0.816  -0.042  2.1694  1.4817  1.6090
  918MOL0     H26636   5.126   0.922  -0.175 -0.9221  2.7980 -1.7808
  918MOL0     H26637   5.019   1.039  -0.093 -1.1001 -0.4335 -1.5227
  918MOL0     H26638   5.033   0.911   0.127  0.2598  0.7768 -0.3410
  918MOL0     H26639   5.145   0.799   0.056  1.2908 -0.0609 -0.4625
  918MOL0     H26640   5.281   1.024  -0.016 -2.8082 -0.6432 -1.5373
  918MOL0     H26641   5.168   1.100   0.117 -2.3314 -0.5066  1.6335
  918MOL0     H26642   5.540   0.847   0.219  1.9423 -0.5116 -0.7947
  918MOL0     H26643   5.828   0.971   0.378 -3.7304  0.5907  1.3335
  918MOL0     H26644   5.868   0.952   0.211  4.0260 -3.0024  2.9141
  918MOL0     H26645   5.767   0.823   0.281  1.5762 -1.1047 -2.0193
  918MOL0     H26646   5.814   1.518   0.419  0.8738 -0.1233  0.3290
  918MOL0     H26647   6.015   1.662   0.484  0.8795  2.0234 -1.2341
  918MOL0     H26648   6.358   1.699   0.192  0.5127  0.8712  0.2477
  918MOL0     H26649   6.232   1.822   0.154  2.7284  3.0005 -1.2375
  918MOL0     H26650   6.314   1.908   0.386 -0.5630  1.5417 -0.6423
  918MOL0     H26651   6.468   1.839   0.320  1.6076  1.8743 -1.1201
  918MOL0     H26652   6.298   2.048   0.200  0.4944  2.5307  3.2590
  918MOL0     H26653   6.427   1.974   0.109  0.8644  2.4407 -0.8301
  918MOL0     H26654   6.588   2.057   0.272  1.1902  3.3651  0.4073
  918MOL0     H26655   6.464   2.134   0.367 -1.3341 -3.4858  1.0361
  918MOL0     H26656   6.538   2.185   0.073  1.3753 -2.2043  1.5824
  918MOL0     H26657   6.390   2.241   0.150  0.4609  0.3238  1.2334
  918MOL0     H26658   6.583   2.417   0.114 -3.4459 -0.6228 -1.9393
  918MOL0     H26659   6.676   2.352   0.239 -0.4967 -1.9856  1.0782
  918MOL0     H26660   6.515   2.409   0.401  4.2046  3.0731  0.1337
  918MOL0     H26661   6.386   2.425   0.271 -0.0960 -0.2643  1.2082
  918MOL0     H26662   6.515   2.624   0.189  3.2861  0.1383 -0.3175
  918MOL0     H26663   6.618   2.605   0.336  0.4676 -0.4850 -0.3239
  918MOL0     H26664   6.176   1.567   0.102 -0.4237  3.0149  0.7789
  918MOL0     H26665   5.983   1.411   0.050 -0.8329 -0.3364  0.3976
  918MOL0     H26666   5.546   1.344   0.201 -0.5200  0.6732  1.9997
  918MOL0     H26667   5.340   1.228   0.178  1.7223  0.4727 -3.0846
  918MOL0     H26668   4.228   1.875  -0.133  0.5077  2.3077  1.8484
  918MOL0     H26669   4.327   1.999   0.048 -2.7887 -0.5005 -1.4948
  918MOL0     H26670   4.617   1.894   0.441  0.5270 -0.7262  5.9383
  918MOL0     H26671   4.703   1.967   0.639  3.5417 -0.4858 -0.9984
  918MOL0     H26672   4.674   2.363   0.804 -2.7743 -0.4303 -0.7920
  918MOL0     H26673   4.584   2.317   0.667 -0.2044  0.4921 -0.7302
  918MOL0     H26674   4.548   2.079   0.783  2.9041 -1.5263  0.1400
  918MOL0     H26675   4.479   2.226   0.848  1.0880  0.4833  3.4952
  918MOL0     H26676   4.662   2.250   1.001  0.8449 -0.5998 -0.6807
  918MOL0     H26677   4.566   2.116   1.030 -2.8312  2.2362 -1.4115
  918MOL0     H26678   4.797   2.052   1.064 -0.6275 -3.1123 -0.4720
  918MOL0     H26679   4.847   2.076   0.903  0.5033  2.0403  0.8402
  918MOL0     H26680   4.690   1.698   0.878 -1.8530  1.0553  1.0550
  918MOL0     H26681   4.817   2.336   0.465 -1.4668  0.3699 -0.6108
  918MOL0     H26682   4.725   2.377   0.212  3.7084  0.6210 -0.8163
  918MOL0     H26683   4.833   2.260   0.144  0.0896 -2.6834  2.4268
  918MOL0     H26684   4.665   2.236   0.124 -1.2767  2.3423 -0.2832
  919MOL0     O26685   9.377   8.876   7.139  1.0429  0.5732 -0.3761
  919MOL0     C26686   9.332   8.762   7.147 -0.1574 -0.6930 -0.1034
  919MOL0     O26687   9.374   8.670   7.238  0.3645 -0.3777 -0.0992
  919MOL0     C26688   9.467   8.712   7.338  0.5343 -0.9604  0.8232
  919MOL0     C26689   9.418   8.746   7.470  0.8815  0.0128  1.2141
  919MOL0     C26690   9.503   8.795   7.570 -0.1513 -0.2440 -0.4032
  919MOL0     C26691   9.638   8.814   7.538 -0.4412 -0.8996 -0.0640
  919MOL0     O26692   9.727   8.859   7.637 -0.0147  0.4132 -0.2616
  919MOL0     C26693   9.842   8.942   7.601  0.9338  0.0262  0.5576
  919MOL0     C26694   9.921   8.970   7.728 -0.4738  0.1937 -0.4859
  919MOL0     C26695   9.870   9.099   7.798  0.6184  0.1700  0.2606
  919MOL0     C26696   9.745   9.091   7.872 -0.1973 -0.5163  0.0647
  919MOL0     C26697   9.722   9.196   7.980 -0.3485 -0.4014 -0.5369
  919MOL0     C26698   9.831   9.180   8.100 -0.2748  0.1225  0.0810
  919MOL0     C26699   9.861   9.306   8.180  0.1948 -0.6736  0.4219
  919MOL0     C26700   9.966   9.285   8.288 -0.0855 -0.0491 -0.0441
  919MOL0     N26701   9.954   9.172   8.379  0.6684  1.0810  0.3858
  919MOL0     C26702   9.852   9.153   8.476  0.6414 -0.3595 -0.2016
  919MOL0     C26703   9.841   9.022   8.500 -0.4650  0.7200  0.3705
  919MOL0     C26704   9.750   8.977   8.608  0.4139  0.0796 -0.5376
  919MOL0     C26705   9.742   8.823   8.628  0.2462 -0.1727 -0.5262
  919MOL0     C26706   9.864   8.742   8.677  0.7861 -0.7365 -0.2213
  919MOL0     C26707   9.943   8.787   8.800 -0.0445  1.1808  0.1150
  919MOL0     O26708   9.872   8.804   8.922  0.2106  0.4343 -0.4854
  919MOL0     C26709   9.883   8.728   9.035  0.7593  0.2257  0.2788
  919MOL0     C26710   9.945   8.607   9.040 -0.6769  0.3787  0.2234
  919MOL0     C26711   9.943   8.514   9.150 -0.6832  0.2140 -0.0989
  919MOL0     C26712  10.036   8.397   9.144 -0.5002  0.2888 -0.1346
  919MOL0     C26713   9.859   8.546   9.254  1.9128  0.1322  0.1755
  919MOL0     C26714   9.845   8.450   9.368  0.5597  0.5705  0.4505
  919MOL0     O26715   9.792   8.508   9.488  0.1478  0.0515  0.7050
  919MOL0     C26716   9.801   8.443   9.604 -1.3284  0.1081 -0.2211
  919MOL0     C26717   9.892   8.492   9.698 -0.4328  0.2669 -0.7452
  919MOL0     C26718   9.897   8.446   9.835  0.3221 -1.6143 -0.4332
  919MOL0     C26719   9.813   8.346   9.873  0.4042  0.0003  0.0853
  919MOL0     O26720   9.806   8.294  10.001  0.4372 -0.1138  0.2874
  919MOL0     C26721   9.901   8.348  10.097  0.1034  1.2876  0.3211
  919MOL0     C26722   9.895   8.273  10.235  0.1289 -0.1594  0.1146
  919MOL0     C26723   9.744   8.259  10.294 -1.0745  0.0420 -0.3344
  919MOL0     C26724   9.677   8.365  10.367  0.3867  0.5994  0.0436
  919MOL0     C26725   9.778   8.433  10.461  0.2685  0.2344  0.8325
  919MOL0     C26726   9.716   8.557  10.526 -0.5682  0.2586  1.0542
  919MOL0     C26727   9.820   8.650  10.608 -0.0476  0.5318  0.7615
  919MOL0     C26728   9.914   8.563  10.693 -0.0121 -0.8414 -1.6639
  919MOL0    Cl26729   9.797   8.450  10.774  0.6085  0.1099  0.3768
  919MOL0     C26730   9.734   8.282   9.771  0.5904  0.1198 -0.6185
  919MOL0     C26731   9.724   8.330   9.638  0.2913  0.1533  0.8081
  919MOL0     O26732   9.857   8.323   9.352  0.6766  0.2173  0.0226
  919MOL0     C26733   9.789   8.677   9.250  0.0614 -1.0631 -0.0621
  919MOL0     C26734   9.806   8.762   9.139  0.1235 -0.5760 -0.5319
  919MOL0     N26735   9.931   8.961   8.415 -0.4114  0.1261  1.1383
  919MOL0     N26736  10.001   9.049   8.347  0.2858  0.3544 -0.1814
  919MOL0     C26737   9.685   8.787   7.410 -0.5686 -0.3818  0.0119
  919MOL0     C26738   9.601   8.740   7.310 -1.3520 -0.5623 -0.6950
  919MOL0     C26739   9.213   8.732   7.059 -0.3371  0.7718  0.0680
  919MOL0     C26740   9.145   8.611   7.085  0.4315 -0.2385 -0.7467
  919MOL0     C26741   9.051   8.556   7.000  0.0991 -0.0935 -0.0867
  919MOL0     C26742   9.002   8.621   6.892 -0.4380 -0.6461 -0.5820
  919MOL0     O26743   8.923   8.564   6.805 -0.0798 -0.4322 -0.6830
  919MOL0     C26744   8.859   8.632   6.698  0.8153 -1.2872 -0.0679
  919MOL0     C26745   8.779   8.534   6.620 -0.1271 -0.0228 -0.4486
  919MOL0     C26746   8.668   8.607   6.536  1.0411  1.1359  0.3613
  919MOL0     C26747   8.541   8.513   6.533 -0.6925 -0.2880 -0.2050
  919MOL0     C26748   8.556   8.414   6.420 -0.0979 -0.2948  0.2694
  919MOL0     C26749   8.549   8.321   6.346 -0.2820  0.8423 -0.0157
  919MOL0     C26750   9.054   8.759   6.877 -0.1465  0.6951  0.1739
  919MOL0     C26751   9.164   8.811   6.949 -0.0562 -0.0179  0.4144
  919MOL0     C26752   9.218   8.951   6.913 -0.1180  0.5644 -0.4269
  919MOL0     H26753   9.311   8.731   7.484  0.4894 -0.3096 -1.5267
  919MOL0     H26754   9.468   8.819   7.670  0.6774  0.8083 -0.3440
  919MOL0     H26755   9.809   9.033   7.550  1.8976 -0.0979 -0.3182
  919MOL0     H26756   9.918   8.889   7.543  0.2567 -4.1010  3.0136
  919MOL0     H26757   9.912   8.882   7.793 -3.5143  0.5130 -0.3386
  919MOL0     H26758  10.023   8.997   7.702  0.6390  0.8737  3.7757
  919MOL0     H26759   9.953   9.126   7.864  3.4325 -0.6114 -2.6359
  919MOL0     H26760   9.865   9.182   7.727 -0.1680 -1.0577 -1.2080
  919MOL0     H26761   9.659   9.079   7.805  0.2503 -1.2556 -0.4026
  919MOL0     H26762   9.748   8.998   7.930  1.0577 -0.5279  0.0227
  919MOL0     H26763   9.615   9.180   7.998 -0.0695 -0.9675  0.6884
  919MOL0     H26764   9.727   9.301   7.948 -3.5363  0.2780  0.8245
  919MOL0     H26765   9.779   9.104   8.158 -0.5950 -1.8281 -2.5464
  919MOL0     H26766   9.925   9.140   8.063 -1.8391 -3.7278 -0.2076
  919MOL0     H26767   9.774   9.340   8.236  1.4743  1.1601  1.3941
  919MOL0     H26768   9.885   9.395   8.121  1.1528 -0.3360  1.2761
  919MOL0     H26769  10.061   9.284   8.234  0.2792  1.3377  0.5065
  919MOL0     H26770   9.978   9.370   8.356  2.6368 -1.1422  0.9878
  919MOL0     H26771   9.781   9.225   8.515 -1.0378 -0.5774 -2.6215
  919MOL0     H26772   9.651   9.016   8.582 -0.0517 -0.9517 -0.3347
  919MOL0     H26773   9.778   9.020   8.705  0.9971  1.2037 -1.1866
  919MOL0     H26774   9.671   8.808   8.710  1.1166  3.1603  1.0106
  919MOL0     H26775   9.707   8.760   8.545 -3.9106 -0.8818  1.4710
  919MOL0     H26776   9.839   8.636   8.689  1.2141 -0.7948  0.1822
  919MOL0     H26777   9.939   8.749   8.598 -0.6945  1.8480 -1.5140
  919MOL0     H26778  10.038   8.738   8.817  0.1370  0.1951 -3.0817
  919MOL0     H26779   9.971   8.890   8.775 -0.7532  1.5935  0.9711
  919MOL0     H26780  10.006   8.571   8.958 -2.4642  0.1827 -1.0677
  919MOL0     H26781  10.119   8.401   9.072 -1.0131 -0.7713 -0.8073
  919MOL0     H26782   9.986   8.305   9.113 -0.2245  0.5682 -1.4891
  919MOL0     H26783  10.088   8.385   9.239  0.6081  0.7922 -0.6571
  919MOL0     H26784   9.934   8.591   9.682 -3.6037  1.7967 -0.3269
  919MOL0     H26785   9.959   8.510   9.898 -2.1238  1.2623 -0.6793
  919MOL0     H26786  10.002   8.344  10.053 -0.1958  2.3171 -0.4828
  919MOL0     H26787   9.877   8.454  10.106  1.0637  1.5654 -0.1527
  919MOL0     H26788   9.932   8.170  10.226  4.4601  1.0012  2.1249
  919MOL0     H26789   9.968   8.297  10.312  0.4795 -0.8421  0.0057
  919MOL0     H26790   9.760   8.181  10.369  0.4320  1.0190  0.4138
  919MOL0     H26791   9.686   8.211  10.214  0.2154  0.1155 -1.3419
  919MOL0     H26792   9.593   8.327  10.426  0.9650  0.1445  0.5881
  919MOL0     H26793   9.650   8.445  10.297 -2.3984  0.5797  0.9696
  919MOL0     H26794   9.810   8.357  10.532  1.8281  0.3609  0.3015
  919MOL0     H26795   9.874   8.462  10.418 -0.8214  1.3651 -0.9443
  919MOL0     H26796   9.629   8.512  10.575 -2.8743  2.1998 -0.9906
  919MOL0     H26797   9.676   8.619  10.445 -2.5316 -3.8907 -1.5593
  919MOL0     H26798   9.777   8.713  10.686  1.9108 -0.2948  2.6138
  919MOL0     H26799   9.882   8.708  10.539 -0.2624  2.3892  2.0612
  919MOL0     H26800   9.976   8.615  10.767  0.6919 -2.9804 -0.6728
  919MOL0     H26801   9.990   8.512  10.633  1.5278 -1.9472  1.0441
  919MOL0     H26802   9.671   8.198   9.796  1.6543  0.0941  2.4012
  919MOL0     H26803   9.647   8.287   9.575  0.7446 -1.2981  1.2011
  919MOL0     H26804   9.719   8.692   9.331  2.2851 -0.3810  1.8711
  919MOL0     H26805   9.740   8.848   9.133 -3.8144 -3.3968 -2.0707
  919MOL0     H26806   9.791   8.807   7.404 -0.1817 -0.8100  3.2727
  919MOL0     H26807   9.645   8.714   7.215 -0.2661 -1.4056  0.0196
  919MOL0     H26808   9.178   8.551   7.169  0.3970  0.5518 -0.1592
  919MOL0     H26809   9.007   8.461   7.030  1.1836 -0.4587  0.4155
  919MOL0     H26810   8.791   8.707   6.740  2.1881 -0.4085  0.6713
  919MOL0     H26811   8.928   8.687   6.634  0.3775 -3.8876 -3.0421
  919MOL0     H26812   8.730   8.459   6.682 -2.5815  1.7198 -0.1433
  919MOL0     H26813   8.856   8.485   6.560  1.6188  1.4501  0.4930
  919MOL0     H26814   8.636   8.701   6.581 -2.0056  1.9201 -2.9885
  919MOL0     H26815   8.695   8.632   6.432 -1.8210 -1.6025 -1.2133
  919MOL0     H26816   8.456   8.581   6.519  0.4451  2.2714  3.6844
  919MOL0     H26817   8.513   8.461   6.625  0.6920 -0.1990  0.2824
  919MOL0     H26818   8.532   8.226   6.299 -2.7374  1.5819 -0.8059
  919MOL0     H26819   9.029   8.815   6.788  0.7916 -1.5018 -1.5784
  919MOL0     H26820   9.316   8.938   6.866 -0.2344 -1.4549 -0.1997
  919MOL0     H26821   9.158   9.011   6.844  2.6046  2.8455 -1.0389
  919MOL0     H26822   9.238   9.011   7.002  1.1214  1.9302 -1.5647
  920MOL0     O26823  10.803   4.863   6.852 -0.5810  0.6626 -0.1782
  920MOL0     C26824  10.762   4.911   6.957  0.8745 -0.9153 -1.9011
  920MOL0     O26825  10.693   5.038   6.961 -0.0970  0.9934  0.5588
  920MOL0     C26826  10.714   5.133   6.865  0.6407  1.1823 -0.1448
  920MOL0     C26827  10.837   5.149   6.793 -1.3031 -0.2561 -0.0702
  920MOL0     C26828  10.832   5.245   6.686 -0.1186 -0.1342  0.7660
  920MOL0     C26829  10.725   5.317   6.654  0.4570 -0.8140  0.6995
  920MOL0     O26830  10.729   5.407   6.554  0.3453 -0.9732 -0.2786
  920MOL0     C26831  10.782   5.365   6.427  0.0462  0.3508  0.3543
  920MOL0     C26832  10.706   5.237   6.385 -1.0081 -0.1413 -0.3385
  920MOL0     C26833  10.733   5.216   6.238 -1.0216 -1.3937  0.5803
  920MOL0     C26834  10.630   5.263   6.138  0.0096 -0.4381  0.2042
  920MOL0     C26835  10.685   5.257   5.993  0.1331 -0.5286  0.0504
  920MOL0     C26836  10.793   5.350   5.950 -0.6590 -0.8168  0.2213
  920MOL0     C26837  10.816   5.335   5.800 -0.0079 -0.1701  0.2189
  920MOL0     C26838  10.948   5.404   5.759 -1.0012  0.7901 -0.3724
  920MOL0     N26839  10.958   5.550   5.769  0.9145  0.8936 -0.1531
  920MOL0     C26840  11.017   5.620   5.864 -1.1762 -0.1572 -0.1171
  920MOL0     C26841  10.980   5.740   5.821  0.2079 -1.4556 -0.0472
  920MOL0     C26842  11.015   5.870   5.884 -1.0443  0.0324 -0.5449
  920MOL0     C26843  11.168   5.887   5.880  0.4072 -1.2153  0.4679
  920MOL0     C26844  11.242   5.835   6.000 -0.3884 -1.0832 -0.5279
  920MOL0     C26845  11.384   5.903   6.000 -0.6421 -0.2603  0.5375
  920MOL0     O26846  11.432   5.888   6.132 -0.0608  0.3146  0.4311
  920MOL0     C26847  11.566   5.908   6.145 -0.8405  1.0421 -0.3075
  920MOL0     C26848  11.664   5.932   6.042  0.0090  0.0788 -1.0653
  920MOL0     C26849  11.791   5.990   6.072 -0.4681 -0.0066  0.5559
  920MOL0     C26850  11.877   6.034   5.961 -0.0088  0.6380 -0.4484
  920MOL0     C26851  11.835   6.003   6.204 -0.1229  0.0095  0.0123
  920MOL0     C26852  11.963   6.070   6.246 -0.0657  0.2176 -0.3207
  920MOL0     O26853  11.958   6.165   6.350  0.6429 -0.3341  0.0627
  920MOL0     C26854  12.075   6.230   6.376  0.9207  0.4142  0.4796
  920MOL0     C26855  12.164   6.164   6.469 -0.5475  0.4792 -0.8372
  920MOL0     C26856  12.285   6.230   6.504 -0.9772 -0.8988  0.5898
  920MOL0     C26857  12.307   6.362   6.451 -0.5669  0.2169 -0.1330
  920MOL0     O26858  12.417   6.433   6.485 -0.0390 -0.4436 -0.6980
  920MOL0     C26859  12.506   6.395   6.587 -0.7848  0.0975 -0.0149
  920MOL0     C26860  12.467   6.441   6.722  0.3255  0.5776 -0.1599
  920MOL0     C26861  12.396   6.574   6.741 -0.0561 -0.1259 -0.5020
  920MOL0     C26862  12.355   6.585   6.885  0.4330  0.0602  0.0277
  920MOL0     C26863  12.398   6.722   6.924  0.6916 -0.4087  0.3388
  920MOL0     C26864  12.350   6.845   6.837  0.0774  0.8873  0.1078
  920MOL0     C26865  12.431   6.968   6.890 -0.0789 -0.2696  0.2117
  920MOL0     C26866  12.370   7.101   6.835 -0.4242  0.0835  0.4376
  920MOL0    Cl26867  12.465   7.249   6.875  0.4307  0.2484  0.3403
  920MOL0     C26868  12.215   6.429   6.366  0.0973 -0.9366  0.4554
  920MOL0     C26869  12.099   6.360   6.336 -0.3202 -0.0606  0.2412
  920MOL0     O26870  12.064   6.037   6.181  0.0115  0.4704  0.8742
  920MOL0     C26871  11.747   5.961   6.305  0.3598  0.0211 -0.1114
  920MOL0     C26872  11.621   5.908   6.269  0.4321  0.3167 -0.0835
  920MOL0     N26873  10.909   5.744   5.704  0.7742  0.6531 -0.4776
  920MOL0     N26874  10.897   5.622   5.671  0.5928  0.8426  0.2502
  920MOL0     C26875  10.616   5.306   6.727 -0.0057 -0.0687 -0.1673
  920MOL0     C26876  10.607   5.218   6.838  0.0701 -0.2739  0.1336
  920MOL0     C26877  10.788   4.846   7.085  0.5303  0.0084 -0.3112
  920MOL0     C26878  10.699   4.880   7.187 -0.4398  0.0843 -0.2627
  920MOL0     C26879  10.710   4.824   7.320 -0.1332 -0.3318  0.2332
  920MOL0     C26880  10.812   4.734   7.349 -0.0813  0.0141  0.5767
  920MOL0     O26881  10.819   4.675   7.472  0.2360  0.6862  0.1716
  920MOL0     C26882  10.699   4.606   7.506  0.4180 -0.2022 -0.7762
  920MOL0     C26883  10.744   4.508   7.611  0.7023  0.7483  0.4310
  920MOL0     C26884  10.858   4.417   7.550  0.4399 -0.2109 -0.1430
  920MOL0     C26885  10.849   4.276   7.618  0.3196  0.4153  0.6397
  920MOL0     C26886  10.945   4.187   7.545 -0.0991  0.4630 -0.3114
  920MOL0     C26887  11.026   4.112   7.498  1.1240 -0.3173 -0.0485
  920MOL0     C26888  10.903   4.698   7.245  0.1087  0.9411 -0.5358
  920MOL0     C26889  10.893   4.747   7.116  0.3363  0.5885 -0.2354
  920MOL0     C26890  10.994   4.718   7.008  0.3402  1.1947 -0.2021
  920MOL0     H26891  10.930   5.100   6.821  1.0268  1.3361 -4.1194
  920MOL0     H26892  10.923   5.245   6.626  0.7800  0.1366  2.0900
  920MOL0     H26893  10.891   5.357   6.424  0.1918  2.1372 -0.1268
  920MOL0     H26894  10.757   5.444   6.355 -1.4142  0.8935  1.3985
  920MOL0     H26895  10.756   5.156   6.438 -1.2502  0.0726  0.2224
  920MOL0     H26896  10.597   5.243   6.396 -1.1470  0.2787 -1.6872
  920MOL0     H26897  10.832   5.256   6.213 -1.5090 -0.2656  0.3821
  920MOL0     H26898  10.742   5.107   6.238 -1.2287 -1.4144  0.0158
  920MOL0     H26899  10.540   5.204   6.153 -1.4357  2.0274  2.0013
  920MOL0     H26900  10.587   5.361   6.160 -0.4563 -0.7512  0.7065
  920MOL0     H26901  10.596   5.271   5.930 -0.2255 -1.5748  0.2945
  920MOL0     H26902  10.723   5.155   5.986 -1.7035 -1.1322 -3.2489
  920MOL0     H26903  10.768   5.454   5.973  1.0787  0.0750 -1.6221
  920MOL0     H26904  10.879   5.323   6.012  0.2947  1.1419 -0.1539
  920MOL0     H26905  10.728   5.368   5.744  1.0663  0.5832 -1.0582
  920MOL0     H26906  10.833   5.229   5.781 -0.8541 -0.1963 -0.4791
  920MOL0     H26907  11.022   5.356   5.823 -3.8031  0.1326  2.6409
  920MOL0     H26908  10.971   5.381   5.655 -0.7003  1.1108 -0.3787
  920MOL0     H26909  11.056   5.590   5.961 -1.4353 -3.6177 -0.9432
  920MOL0     H26910  10.993   5.864   5.991  0.3396 -3.0235 -0.3255
  920MOL0     H26911  10.989   5.961   5.829  1.2101  0.7251 -0.5695
  920MOL0     H26912  11.200   5.836   5.788 -0.9550  0.0053 -0.7422
  920MOL0     H26913  11.188   5.994   5.868 -1.7582 -0.8390 -0.2414
  920MOL0     H26914  11.174   5.858   6.082 -3.5506  1.2159 -3.5510
  920MOL0     H26915  11.259   5.728   5.985 -2.5464 -1.4123 -0.8540
  920MOL0     H26916  11.441   5.859   5.917 -0.1252  0.5974  0.4245
  920MOL0     H26917  11.377   6.011   5.984 -1.6089 -0.2741  0.8081
  920MOL0     H26918  11.643   5.917   5.937  0.2456  2.7462 -1.5495
  920MOL0     H26919  11.981   6.003   5.971 -0.6487 -2.0976 -1.4124
  920MOL0     H26920  11.870   6.143   5.962 -2.1886  0.5593 -0.6805
  920MOL0     H26921  11.835   5.987   5.872 -0.8614  0.9702 -0.2340
  920MOL0     H26922  12.154   6.062   6.505  0.3462  0.9833  0.9558
  920MOL0     H26923  12.360   6.180   6.565  1.9368  2.3446 -0.0315
  920MOL0     H26924  12.548   6.294   6.580  2.4979  1.3503 -0.6050
  920MOL0     H26925  12.591   6.462   6.570 -0.8067  1.0345  3.0183
  920MOL0     H26926  12.409   6.358   6.762  1.3261  0.0935  0.3150
  920MOL0     H26927  12.549   6.437   6.794 -0.3487  1.8450  0.7150
  920MOL0     H26928  12.308   6.585   6.676  1.6281  2.2070 -2.6021
  920MOL0     H26929  12.468   6.649   6.707 -0.0489  0.9680  1.7350
  920MOL0     H26930  12.405   6.510   6.947  0.3151  1.4510  1.9080
  920MOL0     H26931  12.247   6.571   6.894 -0.0214  2.2315 -1.1775
  920MOL0     H26932  12.374   6.746   7.028 -2.5605  1.5697 -0.7337
  920MOL0     H26933  12.508   6.718   6.919  0.7311  0.2630  0.5301
  920MOL0     H26934  12.243   6.868   6.838  0.3001  2.1436  2.8467
  920MOL0     H26935  12.385   6.835   6.734  1.5431  1.4401  0.5286
  920MOL0     H26936  12.536   6.948   6.868 -0.0596 -3.0557  2.3133
  920MOL0     H26937  12.426   6.969   7.000 -1.1578  0.3024  0.1724
  920MOL0     H26938  12.273   7.118   6.882  0.0277  2.0300  0.7552
  920MOL0     H26939  12.364   7.086   6.727  1.6856 -0.3814  0.3273
  920MOL0     H26940  12.235   6.530   6.333 -2.7142  0.1469  1.7569
  920MOL0     H26941  12.025   6.404   6.270  0.7059  0.7737 -0.3865
  920MOL0     H26942  11.781   5.970   6.408  1.4835 -0.1012 -0.4575
  920MOL0     H26943  11.544   5.909   6.346  0.7239  0.5155  0.2119
  920MOL0     H26944  10.527   5.364   6.706 -0.8649 -1.2756  0.0259
  920MOL0     H26945  10.520   5.225   6.902 -0.4511 -0.2971 -0.5602
  920MOL0     H26946  10.633   4.966   7.184  2.4876  2.5737 -4.7137
  920MOL0     H26947  10.643   4.847   7.403 -2.5405 -2.5877 -0.9340
  920MOL0     H26948  10.630   4.682   7.545  0.2213 -0.7025 -0.1305
  920MOL0     H26949  10.650   4.559   7.420 -1.1644  2.2132 -1.3053
  920MOL0     H26950  10.658   4.461   7.660  2.9038 -0.7108  3.2440
  920MOL0     H26951  10.797   4.559   7.692 -0.3267 -1.7631  2.8552
  920MOL0     H26952  10.853   4.407   7.442  0.6149  2.1284 -0.4012
  920MOL0     H26953  10.954   4.464   7.571  0.7606 -0.1764 -1.6087
  920MOL0     H26954  10.747   4.240   7.602  1.0721 -1.3123 -0.4606
  920MOL0     H26955  10.863   4.281   7.726 -0.6269 -0.1280  0.8012
  920MOL0     H26956  11.094   4.040   7.459  0.7721 -2.1600  2.4939
  920MOL0     H26957  10.978   4.628   7.279 -0.7102 -1.2150 -2.8290
  920MOL0     H26958  10.953   4.648   6.936 -0.8002  3.1236 -1.5273
  920MOL0     H26959  11.018   4.808   6.950  0.9700 -0.5321 -2.7515
  920MOL0     H26960  11.091   4.687   7.046 -0.1461 -0.3644 -0.1630
  921MOL0     O26961   8.758   1.902   4.430  0.3633 -0.0934 -0.1339
  921MOL0     C26962   8.723   2.017   4.395 -0.3715  0.5605 -0.4224
  921MOL0     O26963   8.683   2.120   4.476 -0.0483 -0.3969  0.1796
  921MOL0     C26964   8.687   2.112   4.612  0.5503  0.7857 -0.1862
  921MOL0     C26965   8.604   2.030   4.678 -0.4572 -0.3605  0.8997
  921MOL0     C26966   8.613   2.021   4.816 -0.4765  0.6141 -0.9454
  921MOL0     C26967   8.698   2.107   4.893  0.0711 -0.5510  0.6696
  921MOL0     O26968   8.699   2.096   5.023  0.3298 -0.2734 -0.2132
  921MOL0     C26969   8.578   2.145   5.079 -0.4302  0.5466  0.1974
  921MOL0     C26970   8.621   2.265   5.168 -0.5951  0.8796  0.2930
  921MOL0     C26971   8.507   2.364   5.197 -0.4565 -0.6110 -0.7118
  921MOL0     C26972   8.370   2.306   5.229  0.4870 -0.9623 -0.2852
  921MOL0     C26973   8.273   2.414   5.194 -0.0315  0.3144  0.6462
  921MOL0     C26974   8.133   2.376   5.257  0.3479 -0.7292  0.5725
  921MOL0     C26975   8.063   2.248   5.209 -1.7135 -0.4138  0.1869
  921MOL0     C26976   8.066   2.225   5.062 -0.5839 -0.0122 -0.5772
  921MOL0     N26977   7.975   2.313   4.987  0.3939 -0.1572  0.8428
  921MOL0     C26978   8.020   2.423   4.912  0.2376 -0.1918 -0.9793
  921MOL0     C26979   7.908   2.489   4.863  0.4303 -0.6969  0.8419
  921MOL0     C26980   7.893   2.613   4.776  0.2376  0.3153  0.2086
  921MOL0     C26981   7.931   2.582   4.630  0.1856  0.1666  0.6148
  921MOL0     C26982   7.913   2.699   4.542  0.5662 -0.1914 -1.0080
  921MOL0     C26983   8.007   2.815   4.568 -0.3180  0.8167 -0.7036
  921MOL0     O26984   8.037   2.861   4.444 -0.2308  0.5157 -0.2165
  921MOL0     C26985   8.015   2.989   4.410 -0.6592  0.7802  0.1916
  921MOL0     C26986   7.984   3.010   4.279 -0.3285  1.1173  0.7276
  921MOL0     C26987   7.944   3.142   4.242  0.5173 -0.4463 -0.3856
  921MOL0     C26988   7.893   3.150   4.096  0.4362 -0.6055  0.3017
  921MOL0     C26989   7.963   3.258   4.332  0.6099  0.2088  0.1055
  921MOL0     C26990   7.954   3.395   4.285  0.4792 -0.6767 -1.3109
  921MOL0     O26991   7.996   3.485   4.378  0.9635 -0.5167  0.4403
  921MOL0     C26992   7.993   3.617   4.350  0.0655 -0.2710  1.2485
  921MOL0     C26993   8.110   3.700   4.342  0.3479  0.0425 -0.3169
  921MOL0     C26994   8.094   3.848   4.318  0.1296 -0.6470  0.5884
  921MOL0     C26995   7.967   3.908   4.292  0.3704  0.2060 -0.7384
  921MOL0     O26996   7.961   4.034   4.260  1.1376 -0.8509  0.4932
  921MOL0     C26997   7.918   4.119   4.375 -0.5044  0.1401 -0.4932
  921MOL0     C26998   7.793   4.194   4.342 -0.9994 -0.0260  0.4655
  921MOL0     C26999   7.815   4.289   4.218  0.3460 -0.7156  0.0903
  921MOL0     C27000   7.710   4.399   4.203 -0.6102 -0.3908  0.2100
  921MOL0     C27001   7.558   4.342   4.195 -0.0952  0.5766  0.6040
  921MOL0     C27002   7.452   4.449   4.189 -0.8573  0.4328  0.4217
  921MOL0     C27003   7.476   4.575   4.285 -0.1410  0.0911 -0.1635
  921MOL0     C27004   7.365   4.675   4.267 -0.1812 -0.2485  0.1522
  921MOL0    Cl27005   7.209   4.621   4.324 -0.1612  0.1972  0.3876
  921MOL0     C27006   7.850   3.823   4.287  0.4396 -0.8185  0.7716
  921MOL0     C27007   7.869   3.689   4.317  0.8669  0.0410  0.4234
  921MOL0     O27008   7.916   3.414   4.172  0.4511 -0.4118  0.5989
  921MOL0     C27009   7.996   3.230   4.467 -0.5222  0.4727  0.1944
  921MOL0     C27010   8.035   3.103   4.490 -0.5873 -0.6585 -1.2999
  921MOL0     N27011   7.796   2.417   4.911 -0.7329 -0.6019  0.0645
  921MOL0     N27012   7.836   2.314   4.983 -0.2970  0.1143  0.8187
  921MOL0     C27013   8.777   2.201   4.825  0.9813  0.0189 -0.3300
  921MOL0     C27014   8.768   2.208   4.685  0.0465 -0.4569  0.4277
  921MOL0     C27015   8.758   2.051   4.259 -0.4783  0.3149 -0.5660
  921MOL0     C27016   8.654   2.083   4.173  0.1234 -1.6500  0.1827
  921MOL0     C27017   8.685   2.124   4.043 -0.7955 -0.0318  0.1195
  921MOL0     C27018   8.818   2.125   3.990  0.0623 -0.9837 -0.1737
  921MOL0     O27019   8.841   2.160   3.861  0.0105 -0.5205 -0.3107
  921MOL0     C27020   8.822   2.041   3.771 -0.7594  0.1550  0.1547
  921MOL0     C27021   8.668   2.020   3.748 -0.2722 -0.8809 -0.4024
  921MOL0     C27022   8.615   2.000   3.615 -0.8009 -0.3635 -0.0072
  921MOL0     C27023   8.657   1.865   3.550  0.0906  0.1213 -1.0105
  921MOL0     C27024   8.582   1.755   3.619 -0.8017  0.8654  0.1782
  921MOL0     C27025   8.521   1.661   3.657  0.2728 -0.0070 -0.0085
  921MOL0     C27026   8.918   2.086   4.075  0.0801 -0.2123 -0.2346
  921MOL0     C27027   8.894   2.045   4.209  0.5309  0.2201 -0.0007
  921MOL0     C27028   9.009   2.007   4.294 -0.1883 -0.2450 -0.7569
  921MOL0     H27029   8.543   1.968   4.613 -1.5962  1.6769 -0.0849
  921MOL0     H27030   8.557   1.941   4.862 -0.8150  1.2301 -0.2557
  921MOL0     H27031   8.531   2.065   5.137  1.5039 -0.6061  0.2503
  921MOL0     H27032   8.514   2.185   4.999 -1.2509 -3.3761 -1.3627
  921MOL0     H27033   8.655   2.221   5.262  0.0579  2.0609  0.6337
  921MOL0     H27034   8.708   2.312   5.121  0.8044 -1.7844  0.0013
  921MOL0     H27035   8.534   2.433   5.277  0.7745  1.4555 -2.7683
  921MOL0     H27036   8.504   2.432   5.111 -1.5154  2.5691  1.6288
  921MOL0     H27037   8.343   2.219   5.168  1.1783 -1.7840  0.5492
  921MOL0     H27038   8.369   2.272   5.333 -1.5788  2.1278  0.8399
  921MOL0     H27039   8.268   2.430   5.086 -0.0332 -3.7527 -0.0890
  921MOL0     H27040   8.300   2.509   5.242  3.4513  1.2203 -2.6429
  921MOL0     H27041   8.144   2.366   5.365 -0.6749 -5.4808  0.4614
  921MOL0     H27042   8.067   2.461   5.236  1.0943  0.3554  2.3780
  921MOL0     H27043   7.960   2.250   5.245 -0.8857  0.1978  2.7180
  921MOL0     H27044   8.112   2.163   5.257 -0.2036  0.0514 -0.4598
  921MOL0     H27045   8.170   2.220   5.028 -0.2722 -0.0289  0.3509
  921MOL0     H27046   8.029   2.123   5.051  0.2290 -0.4387  0.4555
  921MOL0     H27047   8.117   2.472   4.911 -0.5196  1.5405  1.3792
  921MOL0     H27048   7.945   2.700   4.818  0.3110  1.7844 -2.6393
  921MOL0     H27049   7.787   2.635   4.763  0.2833 -0.6760 -2.3773
  921MOL0     H27050   8.034   2.544   4.633 -0.4248 -1.9453 -1.7447
  921MOL0     H27051   7.870   2.495   4.602  1.1120 -1.0558  2.1815
  921MOL0     H27052   7.921   2.659   4.440  0.2938 -0.8070 -0.7933
  921MOL0     H27053   7.816   2.743   4.566  1.0721 -0.5119  1.9888
  921MOL0     H27054   7.956   2.888   4.631  0.5778 -1.0726  2.4389
  921MOL0     H27055   8.099   2.773   4.610 -1.1728 -0.6343 -0.2101
  921MOL0     H27056   7.988   2.931   4.205 -0.6136  1.9381 -0.1823
  921MOL0     H27057   7.810   3.218   4.074  0.1254 -0.9637  0.3739
  921MOL0     H27058   7.858   3.049   4.078  4.4027 -2.1386  0.2692
  921MOL0     H27059   7.974   3.180   4.029  1.4257  1.0883  2.1106
  921MOL0     H27060   8.205   3.647   4.340 -0.2303 -1.0109 -2.1840
  921MOL0     H27061   8.186   3.905   4.310 -1.0420  1.3245  0.3924
  921MOL0     H27062   7.896   4.064   4.467 -1.5046  1.7470  0.2750
  921MOL0     H27063   7.998   4.191   4.394 -1.1592  0.2450  2.3675
  921MOL0     H27064   7.726   4.115   4.306  1.7181 -1.4541 -1.8655
  921MOL0     H27065   7.744   4.257   4.416 -0.6311  0.8666 -0.0334
  921MOL0     H27066   7.819   4.237   4.123  0.6347  0.1173 -0.3615
  921MOL0     H27067   7.914   4.332   4.237 -0.8080  0.9278  3.0885
  921MOL0     H27068   7.733   4.466   4.119 -3.2510 -0.5634 -0.7197
  921MOL0     H27069   7.710   4.463   4.292 -2.2211 -3.0132  2.2297
  921MOL0     H27070   7.540   4.276   4.109 -0.9950 -0.2269  1.3849
  921MOL0     H27071   7.537   4.273   4.277 -0.3716 -0.8832 -0.6466
  921MOL0     H27072   7.355   4.407   4.218 -1.6767  1.0237 -1.3108
  921MOL0     H27073   7.453   4.490   4.088 -1.4067 -2.3380 -0.7828
  921MOL0     H27074   7.570   4.623   4.254 -0.2492 -1.4632 -3.2840
  921MOL0     H27075   7.482   4.543   4.389  0.9849  1.3376  0.1871
  921MOL0     H27076   7.339   4.699   4.163  0.8523  0.7499  0.0949
  921MOL0     H27077   7.405   4.762   4.320  1.1791 -1.5560  1.3660
  921MOL0     H27078   7.745   3.852   4.283  0.0913 -2.0091  0.7321
  921MOL0     H27079   7.781   3.626   4.320  0.3056  0.8474  1.9988
  921MOL0     H27080   8.012   3.306   4.544 -1.3629 -0.9421  1.8328
  921MOL0     H27081   8.083   3.083   4.586  0.4707 -2.8668 -2.2265
  921MOL0     H27082   8.848   2.261   4.881 -0.8011 -0.2459  2.3990
  921MOL0     H27083   8.842   2.267   4.633 -0.4554 -0.6828 -0.5645
  921MOL0     H27084   8.551   2.079   4.206 -0.3957 -2.8273 -1.4242
  921MOL0     H27085   8.592   2.138   3.990 -0.0407  1.1149 -0.9513
  921MOL0     H27086   8.879   2.047   3.678  1.6279 -1.5340  1.3904
  921MOL0     H27087   8.855   1.947   3.817 -0.9778  0.9667  2.0502
  921MOL0     H27088   8.624   2.109   3.792  4.0336  0.7567  1.1421
  921MOL0     H27089   8.640   1.936   3.813 -2.4394 -1.6523 -2.1955
  921MOL0     H27090   8.507   1.989   3.615 -0.5704 -3.2612  0.1578
  921MOL0     H27091   8.643   2.083   3.550  0.6344 -1.9525 -1.5234
  921MOL0     H27092   8.765   1.847   3.554 -0.1885 -1.8878 -1.4074
  921MOL0     H27093   8.625   1.870   3.445 -0.6751  3.4121 -0.7320
  921MOL0     H27094   8.480   1.565   3.684  0.6387  0.2275  1.5105
  921MOL0     H27095   9.014   2.083   4.025  3.1426  4.1781  4.3512
  921MOL0     H27096   9.033   2.085   4.367  1.4380 -1.2956 -0.0996
  921MOL0     H27097   8.988   1.920   4.358 -1.0257  1.3597  1.2566
  921MOL0     H27098   9.095   1.969   4.238  1.0152  1.0500  0.1405
  922MOL0     O27099   7.904   8.998   0.139  0.3778  0.2109 -0.0303
  922MOL0     C27100   7.887   9.057   0.028 -0.3822  0.8566 -0.0830
  922MOL0     O27101   7.805   9.171   0.007 -0.6671 -0.2041 -0.4494
  922MOL0     C27102   7.734   9.219   0.113  0.3196  0.1090 -0.6514
  922MOL0     C27103   7.790   9.327   0.189 -0.1200 -0.3878  0.6403
  922MOL0     C27104   7.713   9.372   0.305 -0.5750  0.2851 -0.7214
  922MOL0     C27105   7.588   9.308   0.345  0.1605 -0.0879  0.3437
  922MOL0     O27106   7.511   9.352   0.447  0.8491  0.0297 -0.0852
  922MOL0     C27107   7.446   9.477   0.433  0.0174 -1.2058  0.9370
  922MOL0     C27108   7.353   9.494   0.555 -0.4905  0.3146  0.3797
  922MOL0     C27109   7.284   9.625   0.566  0.2485 -1.2950 -0.1705
  922MOL0     C27110   7.156   9.610   0.654  0.9787 -1.2352  0.2817
  922MOL0     C27111   7.082   9.745   0.656  0.4195  0.3068 -0.8215
  922MOL0     C27112   6.986   9.732   0.781 -0.5087 -0.5540  0.5318
  922MOL0     C27113   6.883   9.846   0.773  0.0729 -0.2394 -0.3510
  922MOL0     C27114   6.942   9.983   0.811 -0.4562  0.1208  0.0582
  922MOL0     N27115   6.986   9.990   0.954 -0.2966  0.5554 -0.5619
  922MOL0     C27116   6.951   9.918   1.067  1.0077 -0.6258  0.1619
  922MOL0     C27117   7.033   9.969   1.172 -0.0241 -0.1466  1.1236
  922MOL0     C27118   7.035   9.909   1.310  0.6457  0.4622 -0.6893
  922MOL0     C27119   7.025  10.018   1.417  0.4099 -0.0905 -0.3255
  922MOL0     C27120   7.148  10.112   1.437 -0.0261  0.0594 -0.0937
  922MOL0     C27121   7.124  10.206   1.552  1.0388 -0.3064  0.3352
  922MOL0     O27122   7.021  10.310   1.532 -0.3245 -0.2590  0.6609
  922MOL0     C27123   7.012  10.407   1.631 -0.0558 -1.3926 -0.0052
  922MOL0     C27124   6.920  10.510   1.606 -0.8364  0.4200 -0.2273
  922MOL0     C27125   6.895  10.628   1.686 -0.4817  0.7348 -0.2221
  922MOL0     C27126   6.775  10.710   1.650  0.3867 -0.2327 -0.2867
  922MOL0     C27127   6.977  10.641   1.800 -0.3027  0.1876 -1.1378
  922MOL0     C27128   6.954  10.753   1.900  0.0555  0.0326 -0.3369
  922MOL0     O27129   6.996  10.729   2.027 -0.2488  0.3470 -0.3573
  922MOL0     C27130   7.079  10.819   2.096  0.3502 -0.1333 -0.6107
  922MOL0     C27131   7.159  10.911   2.024 -0.1875  0.6019 -0.9911
  922MOL0     C27132   7.239  11.008   2.082  0.0584  0.9525 -0.5433
  922MOL0     C27133   7.236  11.031   2.222  0.2045  0.4191 -0.8423
  922MOL0     O27134   7.295  11.137   2.296 -0.0955 -0.9976 -0.6115
  922MOL0     C27135   7.296  11.268   2.242  0.7504 -0.1237 -0.1184
  922MOL0     C27136   7.273  11.362   2.362 -0.1748 -0.0126 -0.2762
  922MOL0     C27137   7.184  11.486   2.342  0.2957 -0.0498 -0.5637
  922MOL0     C27138   7.141  11.545   2.472  1.4278 -0.3084  0.5419
  922MOL0     C27139   7.049  11.663   2.475 -0.1227  0.2785  0.4083
  922MOL0     C27140   7.035  11.716   2.619  0.7399 -0.4569 -0.5078
  922MOL0     C27141   6.962  11.854   2.619  0.3072 -0.3361  1.0652
  922MOL0     C27142   6.921  11.888   2.759 -0.3256  0.2728 -0.9715
  922MOL0    Cl27143   6.832  12.031   2.780  0.1995  0.4688 -0.3403
  922MOL0     C27144   7.148  10.948   2.293  0.6049 -0.4839  0.2785
  922MOL0     C27145   7.075  10.843   2.237  0.9292  0.1559  0.1267
  922MOL0     O27146   6.898  10.860   1.871  0.7149  0.4509  0.0963
  922MOL0     C27147   7.076  10.535   1.831  0.0935 -0.2848  0.7133
  922MOL0     C27148   7.101  10.429   1.737 -0.0639 -0.1211 -0.1288
  922MOL0     N27149   7.110  10.072   1.110 -0.0307 -0.6002 -0.0192
  922MOL0     N27150   7.084  10.076   0.983  0.5233 -0.1916  0.0757
  922MOL0     C27151   7.550   9.193   0.271  0.8388 -0.2523  0.3266
  922MOL0     C27152   7.623   9.149   0.157 -0.4037 -0.1283  0.2093
  922MOL0     C27153   7.987   9.025  -0.078  0.9670 -0.4788  0.1418
  922MOL0     C27154   8.032   9.129  -0.162 -0.3815 -0.1832  0.1684
  922MOL0     C27155   8.139   9.110  -0.246 -0.0970 -0.0558  0.1154
  922MOL0     C27156   8.196   8.978  -0.261  0.4969 -1.1658  1.2177
  922MOL0     O27157   8.305   8.949  -0.337  0.0833 -0.3890  0.3319
  922MOL0     C27158   8.348   9.040  -0.442  0.3753 -0.2454 -0.4443
  922MOL0     C27159   8.465   9.003  -0.521  0.1589 -0.1315  0.0923
  922MOL0     C27160   8.450   8.859  -0.576  0.6436  0.2965  0.6578
  922MOL0     C27161   8.578   8.802  -0.645  0.2564  0.7489 -0.3021
  922MOL0     C27162   8.658   8.746  -0.539  0.1209 -0.6467 -0.1154
  922MOL0     C27163   8.728   8.700  -0.446 -0.1780  0.4738  0.7456
  922MOL0     C27164   8.144   8.879  -0.187  0.0174 -1.4055 -0.8703
  922MOL0     C27165   8.036   8.897  -0.099 -0.2045  0.3219 -0.6320
  922MOL0     C27166   8.001   8.773  -0.027  0.2289  0.0577 -0.2843
  922MOL0     H27167   7.894   9.350   0.165 -0.2558 -1.0203 -0.6749
  922MOL0     H27168   7.754   9.448   0.370 -0.0071 -1.3301  0.8990
  922MOL0     H27169   7.392   9.481   0.338 -2.4498 -1.6709  2.2447
  922MOL0     H27170   7.508   9.567   0.439 -0.8731 -0.5033 -0.0956
  922MOL0     H27171   7.281   9.413   0.545  1.0280 -0.9001 -1.4939
  922MOL0     H27172   7.424   9.477   0.637  5.1526  3.0016 -3.2880
  922MOL0     H27173   7.350   9.694   0.618  0.0281 -1.6708  0.6235
  922MOL0     H27174   7.263   9.662   0.465 -4.1367  0.1709  1.0486
  922MOL0     H27175   7.092   9.523   0.637 -1.1367  0.1162  0.9194
  922MOL0     H27176   7.188   9.600   0.758  0.2519  0.6369  0.7346
  922MOL0     H27177   7.026   9.757   0.563  1.0589 -3.9351 -1.9652
  922MOL0     H27178   7.147   9.832   0.669  3.2217 -2.0899  4.0718
  922MOL0     H27179   6.935   9.635   0.789  0.8647 -1.2096  2.0353
  922MOL0     H27180   7.037   9.733   0.878 -0.8596 -0.9978  0.7226
  922MOL0     H27181   6.813   9.826   0.855  0.5226  1.1608  0.4077
  922MOL0     H27182   6.838   9.843   0.673  2.8995 -1.5201 -1.7102
  922MOL0     H27183   7.029  10.000   0.748  1.2082  0.6264  2.3518
  922MOL0     H27184   6.863  10.059   0.809 -0.7621 -0.1644  1.0293
  922MOL0     H27185   6.886   9.832   1.078 -1.1438  0.8582 -0.1670
  922MOL0     H27186   7.128   9.854   1.328  1.5997  2.1271 -0.2821
  922MOL0     H27187   6.950   9.841   1.301  0.4958  0.9110 -3.5348
  922MOL0     H27188   6.935  10.073   1.388  0.5891  0.2284 -0.2733
  922MOL0     H27189   6.997   9.967   1.510 -0.2954 -0.5321 -0.7664
  922MOL0     H27190   7.235  10.048   1.453 -0.2813  0.2640  2.5402
  922MOL0     H27191   7.166  10.172   1.347  0.2160  0.1441  0.0104
  922MOL0     H27192   7.109  10.149   1.644 -1.1880  0.7909  0.7381
  922MOL0     H27193   7.219  10.258   1.563 -0.4296  2.1882  2.2400
  922MOL0     H27194   6.856  10.512   1.519 -1.1404  2.5760 -0.0146
  922MOL0     H27195   6.702  10.660   1.585 -3.8383  1.3948  2.7192
  922MOL0     H27196   6.810  10.803   1.603 -1.5806  1.4770  1.4285
  922MOL0     H27197   6.724  10.738   1.743  2.1269 -0.8572  0.9129
  922MOL0     H27198   7.160  10.902   1.916  0.5555 -0.1760 -0.9270
  922MOL0     H27199   7.311  11.056   2.017  0.0950  1.6109 -0.0241
  922MOL0     H27200   7.384  11.303   2.186  0.3213  3.0060  0.9786
  922MOL0     H27201   7.210  11.264   2.174 -0.1126 -2.8573  0.9953
  922MOL0     H27202   7.223  11.298   2.436 -2.0685  0.6501 -0.9308
  922MOL0     H27203   7.367  11.385   2.413 -1.3439 -0.1630  2.0690
  922MOL0     H27204   7.096  11.455   2.284  0.0826 -0.0611 -0.2372
  922MOL0     H27205   7.246  11.554   2.284  1.7873 -0.8911 -0.0119
  922MOL0     H27206   7.230  11.570   2.529  1.3853  1.4099 -0.0929
  922MOL0     H27207   7.086  11.469   2.528 -1.1859  0.2264 -1.0928
  922MOL0     H27208   7.099  11.746   2.425 -1.4033  1.9724  1.8345
  922MOL0     H27209   6.952  11.647   2.426 -0.6891 -0.6759  1.7781
  922MOL0     H27210   7.132  11.718   2.669  0.2204  0.0900  0.5310
  922MOL0     H27211   6.979  11.646   2.681  1.2354  1.7939  2.7839
  922MOL0     H27212   6.877  11.852   2.550  1.3486  0.6758 -0.2972
  922MOL0     H27213   7.029  11.927   2.572  0.8308 -0.5330  1.4920
  922MOL0     H27214   7.008  11.899   2.824 -1.7224 -0.2410  1.0585
  922MOL0     H27215   6.852  11.810   2.791 -0.6626  1.3347  1.0990
  922MOL0     H27216   7.131  10.981   2.395 -3.9607  0.0071 -0.4165
  922MOL0     H27217   6.998  10.791   2.293 -2.5259  1.3809 -3.1143
  922MOL0     H27218   7.142  10.547   1.916  0.3494  1.6882  0.2849
  922MOL0     H27219   7.169  10.355   1.778 -1.0775 -0.2279  1.4995
  922MOL0     H27220   7.462   9.142   0.308 -0.1994 -1.3891 -3.2607
  922MOL0     H27221   7.575   9.074   0.094  1.7803 -1.7888  0.4374
  922MOL0     H27222   7.999   9.232  -0.145  0.2805 -0.2205  1.9242
  922MOL0     H27223   8.168   9.207  -0.287 -0.5279  0.1742  0.3552
  922MOL0     H27224   8.259   9.063  -0.502 -1.0709  2.0882  2.3237
  922MOL0     H27225   8.359   9.137  -0.392  0.2479 -0.8122  0.7052
  922MOL0     H27226   8.553   9.003  -0.456  0.7511  1.2050 -0.6630
  922MOL0     H27227   8.486   9.076  -0.599  0.1957  0.4714  0.6571
  922MOL0     H27228   8.426   8.793  -0.491  2.0225  1.8306  2.3166
  922MOL0     H27229   8.366   8.867  -0.644  1.2160  2.4229  0.1387
  922MOL0     H27230   8.630   8.880  -0.703 -0.3663  2.2418  1.0486
  922MOL0     H27231   8.550   8.718  -0.709 -0.0363 -1.3531  2.4181
  922MOL0     H27232   8.791   8.667  -0.366  0.8018 -1.2223 -0.6737
  922MOL0     H27233   8.188   8.781  -0.200  1.4819 -1.2783  2.2446
  922MOL0     H27234   8.010   8.784   0.082  1.3081  1.0134 -0.4498
  922MOL0     H27235   7.894   8.753  -0.028 -0.3287  2.6350  0.5876
  922MOL0     H27236   8.058   8.683  -0.050 -0.0304 -0.3416  0.6107
  923MOL0     O27237   7.530   6.970   9.904  0.6132  0.2987 -0.1809
  923MOL0     C27238   7.600   6.966   9.804 -0.2722  0.9073  0.3677
  923MOL0     O27239   7.699   6.882   9.778 -0.4766  0.1085 -0.3332
  923MOL0     C27240   7.727   6.789   9.872  0.4463  0.3426 -0.3431
  923MOL0     C27241   7.856   6.778   9.940 -0.4758  0.1800  0.3119
  923MOL0     C27242   7.887   6.671  10.025  0.4350  0.7587  0.2116
  923MOL0     C27243   7.780   6.583  10.061  0.1563 -0.4990  0.1501
  923MOL0     O27244   7.802   6.471  10.137  0.2468  0.1672  0.0234
  923MOL0     C27245   7.924   6.403  10.129  0.2025  0.2987 -0.3246
  923MOL0     C27246   7.924   6.260  10.174 -0.1597  0.4895  0.1215
  923MOL0     C27247   8.064   6.193  10.194  0.3060  0.4126 -0.6980
  923MOL0     C27248   8.161   6.260  10.304  0.7721 -0.0847 -0.6655
  923MOL0     C27249   8.290   6.182  10.314 -0.2834  0.5922 -0.8364
  923MOL0     C27250   8.392   6.251  10.390 -0.5999 -0.7428  0.6733
  923MOL0     C27251   8.539   6.190  10.377 -0.0888  0.2880 -0.7162
  923MOL0     C27252   8.597   6.205  10.237  0.0337 -0.2012  0.7166
  923MOL0     N27253   8.614   6.339  10.200 -0.0458 -0.5685  0.4159
  923MOL0     C27254   8.721   6.410  10.253 -0.2055 -0.0682  0.6612
  923MOL0     C27255   8.692   6.536  10.227 -0.6422 -0.0505  0.8890
  923MOL0     C27256   8.795   6.654  10.245 -0.0253 -0.1858 -0.2466
  923MOL0     C27257   8.728   6.758  10.333  0.0906  0.3857  0.3669
  923MOL0     C27258   8.694   6.881  10.258  0.2321 -0.5578 -0.0570
  923MOL0     C27259   8.562   6.882  10.172  0.2877  0.5404  1.1279
  923MOL0     O27260   8.527   7.021  10.141  0.8439 -0.4335  0.6230
  923MOL0     C27261   8.439   7.056  10.048 -0.0825 -0.5615  0.1339
  923MOL0     C27262   8.436   7.196  10.018  0.8223  0.1971 -0.2436
  923MOL0     C27263   8.337   7.246   9.926 -0.4202 -0.1292  0.8332
  923MOL0     C27264   8.342   7.397   9.910 -0.2664 -0.2570  0.3331
  923MOL0     C27265   8.241   7.153   9.870  0.6133  0.7818  1.1646
  923MOL0     C27266   8.143   7.191   9.766 -0.4550 -1.2870 -0.4046
  923MOL0     O27267   8.172   7.304   9.695  0.2989  0.8412 -0.2295
  923MOL0     C27268   8.129   7.312   9.565 -0.9263  0.2466 -0.1105
  923MOL0     C27269   8.099   7.438   9.511  1.0522  0.5381  0.1909
  923MOL0     C27270   8.069   7.458   9.377 -1.0485  0.4137 -0.1709
  923MOL0     C27271   8.063   7.342   9.290  0.7130  0.8891  0.0599
  923MOL0     O27272   8.019   7.364   9.163  0.7209  0.4365 -0.2047
  923MOL0     C27273   8.044   7.251   9.073 -0.3261 -0.0354  0.4316
  923MOL0     C27274   7.997   7.295   8.928  0.6468 -0.6623 -0.6453
  923MOL0     C27275   7.998   7.184   8.815 -0.2627 -0.9638 -0.1228
  923MOL0     C27276   7.993   7.243   8.667  1.2415 -0.3698 -0.9625
  923MOL0     C27277   8.023   7.131   8.571 -1.1344  0.2691  0.5190
  923MOL0     C27278   7.926   7.013   8.582  0.7300  1.0436 -0.0017
  923MOL0     C27279   7.940   6.914   8.464  0.2850  0.0144  0.0052
  923MOL0     C27280   8.071   6.845   8.469  0.0822 -0.8666  0.0577
  923MOL0    Cl27281   8.086   6.716   8.352  0.0664 -0.0438 -0.2699
  923MOL0     C27282   8.088   7.209   9.348  0.0278 -0.0482 -0.6407
  923MOL0     C27283   8.129   7.199   9.481 -0.1691  0.5808 -0.6674
  923MOL0     O27284   8.052   7.107   9.751 -0.2940  0.0964  0.4296
  923MOL0     C27285   8.249   7.016   9.909  0.7327  0.5778  0.5652
  923MOL0     C27286   8.341   6.970   9.995  0.5069 -0.3144 -0.3885
  923MOL0     N27287   8.567   6.544  10.164  0.6177  0.5021 -0.7960
  923MOL0     N27288   8.529   6.420  10.144  0.8462 -0.5630  0.0768
  923MOL0     C27289   7.657   6.586  10.001 -0.6553  0.3788 -0.8067
  923MOL0     C27290   7.634   6.694   9.913 -0.5212  0.1815  1.0276
  923MOL0     C27291   7.578   7.080   9.716 -0.2719 -0.1434 -0.5407
  923MOL0     C27292   7.689   7.145   9.657  0.6939  0.2024 -0.3152
  923MOL0     C27293   7.679   7.264   9.583 -0.3753 -0.1423  0.4012
  923MOL0     C27294   7.550   7.316   9.571 -0.1868 -0.0443  0.8800
  923MOL0     O27295   7.517   7.423   9.482 -0.3606 -0.6480 -0.8147
  923MOL0     C27296   7.618   7.480   9.396  0.2998  0.5798  0.2435
  923MOL0     C27297   7.552   7.591   9.314  0.6446 -0.0017  0.0390
  923MOL0     C27298   7.466   7.525   9.200 -0.3538  1.0902 -0.3532
  923MOL0     C27299   7.378   7.637   9.134 -1.7217 -1.0477 -0.9491
  923MOL0     C27300   7.283   7.576   9.041 -0.5663 -0.0155 -0.5139
  923MOL0     C27301   7.225   7.515   8.955  0.5748  0.2319  0.4685
  923MOL0     C27302   7.441   7.261   9.635  0.7962 -0.0900 -0.6629
  923MOL0     C27303   7.448   7.136   9.695  0.5005  0.7320 -0.6397
  923MOL0     C27304   7.314   7.069   9.741 -0.1684  0.6989 -0.4357
  923MOL0     H27305   7.927   6.860   9.932 -0.3675  0.0887  0.3395
  923MOL0     H27306   7.979   6.650  10.078  1.1248  2.7967 -0.0929
  923MOL0     H27307   8.003   6.438  10.196  3.9851 -3.3137 -2.4041
  923MOL0     H27308   7.967   6.394  10.029 -0.4730  0.2794 -0.6202
  923MOL0     H27309   7.866   6.251  10.267  0.4558  1.6452  0.6267
  923MOL0     H27310   7.876   6.189  10.105 -0.5366  0.7853  0.0764
  923MOL0     H27311   8.047   6.087  10.213 -3.1156  0.6886 -1.6048
  923MOL0     H27312   8.115   6.204  10.097  2.7845 -3.1092  0.0457
  923MOL0     H27313   8.184   6.360  10.266  1.4510  0.3514  0.8077
  923MOL0     H27314   8.123   6.270  10.406  1.5614  3.2024 -0.5899
  923MOL0     H27315   8.327   6.167  10.212 -0.4309 -1.4968 -0.6283
  923MOL0     H27316   8.265   6.085  10.357 -1.3012  0.2902 -2.0352
  923MOL0     H27317   8.404   6.354  10.355  0.6284 -0.9913  0.3121
  923MOL0     H27318   8.369   6.247  10.497 -0.3908  2.2562  0.9033
  923MOL0     H27319   8.530   6.086  10.410 -1.4315  0.6236  0.0342
  923MOL0     H27320   8.592   6.235  10.462 -1.6688 -3.4255  2.5843
  923MOL0     H27321   8.687   6.144  10.246  0.5303  0.5202  0.6566
  923MOL0     H27322   8.545   6.153  10.155  0.8987 -2.4719  1.5131
  923MOL0     H27323   8.809   6.367  10.300 -1.1887 -1.6677  1.1002
  923MOL0     H27324   8.808   6.686  10.141  1.4469 -1.4626 -0.4960
  923MOL0     H27325   8.891   6.613  10.279  0.4515 -1.1932 -2.6169
  923MOL0     H27326   8.636   6.727  10.384  0.1881 -1.6548 -0.5941
  923MOL0     H27327   8.808   6.775  10.405  1.5733 -0.9594 -0.8698
  923MOL0     H27328   8.677   6.957  10.334 -3.1648 -2.7345  1.6141
  923MOL0     H27329   8.772   6.910  10.187 -1.3860  0.8124 -1.3980
  923MOL0     H27330   8.560   6.818  10.083  2.8414  2.0523 -0.1523
  923MOL0     H27331   8.490   6.847  10.245 -2.4439  2.0193 -0.6681
  923MOL0     H27332   8.511   7.264  10.059  0.4347  0.0894  0.6719
  923MOL0     H27333   8.245   7.439   9.881  0.1841 -0.7566 -2.1122
  923MOL0     H27334   8.427   7.414   9.843 -1.1578 -3.4960 -1.8800
  923MOL0     H27335   8.354   7.442  10.009  1.5277 -0.4503  0.2265
  923MOL0     H27336   8.085   7.530   9.568  0.3979  1.2935 -1.1542
  923MOL0     H27337   8.034   7.551   9.333 -3.1352 -1.2993 -2.4552
  923MOL0     H27338   8.148   7.219   9.059  0.7921  3.3638  0.2925
  923MOL0     H27339   7.980   7.165   9.100 -0.1696 -1.1648 -2.4244
  923MOL0     H27340   7.902   7.349   8.928  2.3626  2.6819 -1.5421
  923MOL0     H27341   8.058   7.380   8.896 -1.9053  1.4461 -0.2470
  923MOL0     H27342   7.906   7.130   8.838  0.2069 -1.0634  1.6998
  923MOL0     H27343   8.084   7.118   8.820 -0.5584 -1.8021 -3.6935
  923MOL0     H27344   8.071   7.320   8.659 -0.8963  1.9829 -0.3888
  923MOL0     H27345   7.894   7.285   8.649  0.4161 -2.5342 -1.7297
  923MOL0     H27346   8.007   7.179   8.474  0.0127  0.8872  0.6189
  923MOL0     H27347   8.124   7.090   8.582 -0.8603  0.7019 -0.3048
  923MOL0     H27348   7.826   7.057   8.582 -0.6904 -1.8431 -1.9401
  923MOL0     H27349   7.940   6.963   8.678  1.7324 -1.5560 -1.4011
  923MOL0     H27350   7.934   6.956   8.363  0.5161  2.7827  1.0509
  923MOL0     H27351   7.864   6.836   8.474  0.6388 -0.1398  1.7076
  923MOL0     H27352   8.086   6.799   8.567 -1.5008  1.9304  1.7750
  923MOL0     H27353   8.154   6.914   8.456  0.8452 -1.5003  1.3445
  923MOL0     H27354   8.088   7.115   9.294 -4.0168 -0.7341  0.2398
  923MOL0     H27355   8.155   7.104   9.528 -1.6379  0.9612  1.0465
  923MOL0     H27356   8.172   6.944   9.884 -1.1803  1.4316  3.5139
  923MOL0     H27357   8.349   6.866  10.025 -2.5108  0.2088  2.8871
  923MOL0     H27358   7.592   6.503  10.027  2.1870 -1.2020  1.8880
  923MOL0     H27359   7.532   6.687   9.875 -0.2469  0.8879  0.1111
  923MOL0     H27360   7.787   7.098   9.657  2.0597  2.8096 -2.4958
  923MOL0     H27361   7.772   7.292   9.535  1.1815  0.2106  3.4121
  923MOL0     H27362   7.712   7.511   9.443  1.5257 -1.1325 -0.9598
  923MOL0     H27363   7.648   7.399   9.330 -0.4175  0.3180  0.2235
  923MOL0     H27364   7.629   7.652   9.265  0.9854 -1.0418 -0.7658
  923MOL0     H27365   7.502   7.660   9.383  0.2922  2.8166 -2.7616
  923MOL0     H27366   7.539   7.504   9.121 -0.4137  1.2970 -0.4647
  923MOL0     H27367   7.403   7.441   9.232  0.5332  0.1640 -0.9766
  923MOL0     H27368   7.452   7.700   9.084  0.5388 -3.5000 -0.9683
  923MOL0     H27369   7.323   7.693   9.210  1.1691  1.3094 -0.4422
  923MOL0     H27370   7.166   7.475   8.875  1.1712  3.7424 -1.9649
  923MOL0     H27371   7.349   7.316   9.618  0.5373  1.4216  4.2385
  923MOL0     H27372   7.320   6.978   9.801  0.2765  0.7870 -0.3454
  923MOL0     H27373   7.262   7.150   9.793 -1.3670  0.0174 -0.5379
  923MOL0     H27374   7.258   7.031   9.655 -0.2912 -3.5051  1.2935
  924MOL0     O27375   6.624   9.031  10.416  0.4037  0.2481  0.2825
  924MOL0     C27376   6.738   9.006  10.399  0.4403  0.0589 -0.2441
  924MOL0     O27377   6.829   9.093  10.348  0.0487  1.0330 -0.3745
  924MOL0     C27378   6.813   9.226  10.350  0.4040 -1.0817 -0.3852
  924MOL0     C27379   6.921   9.290  10.412  0.9574  0.4851 -0.0673
  924MOL0     C27380   6.930   9.429  10.428 -0.3535 -0.0804  0.0384
  924MOL0     C27381   6.831   9.499  10.366  0.1084 -0.2875 -0.3818
  924MOL0     O27382   6.869   9.633  10.348  0.2747  0.2096 -0.6909
  924MOL0     C27383   6.789   9.720  10.277  0.2623 -0.7756 -0.1934
  924MOL0     C27384   6.854   9.860  10.284  0.5841  0.3491  0.3733
  924MOL0     C27385   6.983   9.875  10.197  0.5878  0.2880  0.7204
  924MOL0     C27386   7.081   9.983  10.256 -0.4516  0.4733  0.3867
  924MOL0     C27387   7.044  10.135  10.236 -0.6656  0.3233  0.3190
  924MOL0     C27388   7.148  10.241  10.285  0.2975  0.5881 -0.2878
  924MOL0     C27389   7.243  10.284  10.171 -0.4601  0.0789 -0.4284
  924MOL0     C27390   7.365  10.371  10.220  0.1191  0.0664  0.0756
  924MOL0     N27391   7.469  10.384  10.114 -0.2395  1.1131 -1.3251
  924MOL0     C27392   7.469  10.437   9.986  0.1510 -0.5572 -0.1342
  924MOL0     C27393   7.587  10.414   9.931 -0.0297  0.3591 -0.4605
  924MOL0     C27394   7.659  10.468   9.817  0.2212  0.1472 -0.2506
  924MOL0     C27395   7.622  10.609   9.779 -0.3270 -0.4940  0.8112
  924MOL0     C27396   7.708  10.652   9.655  0.4067  0.2471 -1.0385
  924MOL0     C27397   7.638  10.780   9.607 -0.5303 -0.5505  0.2852
  924MOL0     O27398   7.708  10.844   9.500  0.1148  0.0673 -0.7683
  924MOL0     C27399   7.783  10.962   9.521  0.7122 -0.1928 -0.5856
  924MOL0     C27400   7.820  11.009   9.644  0.3341 -0.2047 -0.3966
  924MOL0     C27401   7.891  11.130   9.654  0.4445 -0.1115 -0.5197
  924MOL0     C27402   7.933  11.160   9.795  0.7412  0.5694  0.4858
  924MOL0     C27403   7.929  11.194   9.529 -0.3978  0.2829  0.3177
  924MOL0     C27404   8.007  11.322   9.528  0.2420 -0.1888 -0.6201
  924MOL0     O27405   8.100  11.350   9.627 -0.0107  0.7474  0.1231
  924MOL0     C27406   8.185  11.459   9.617 -0.2815  0.5304  0.7909
  924MOL0     C27407   8.205  11.535   9.731 -0.0172 -0.2404  0.4953
  924MOL0     C27408   8.281  11.652   9.715 -0.2450 -0.4389  0.2494
  924MOL0     C27409   8.341  11.702   9.593 -0.7165 -1.0265 -0.1209
  924MOL0     O27410   8.423  11.818   9.579  0.0513  0.4796 -0.0984
  924MOL0     C27411   8.346  11.943   9.585 -0.6447  0.8858 -0.2924
  924MOL0     C27412   8.445  12.053   9.598 -0.7238 -0.2003 -0.8776
  924MOL0     C27413   8.380  12.193   9.548 -0.2933  0.1944 -0.6136
  924MOL0     C27414   8.275  12.219   9.656  1.1732  0.2777  0.4334
  924MOL0     C27415   8.204  12.356   9.625  0.3924  0.9446  0.0508
  924MOL0     C27416   8.097  12.392   9.726 -0.2253 -0.1446 -0.1822
  924MOL0     C27417   8.040  12.533   9.703 -0.0071 -0.3791 -1.1022
  924MOL0     C27418   7.926  12.564   9.804  0.9483 -0.0475 -0.4149
  924MOL0    Cl27419   7.807  12.691   9.737  0.1394  0.7482 -0.3319
  924MOL0     C27420   8.328  11.614   9.490  0.1094  0.2607  0.1870
  924MOL0     C27421   8.255  11.496   9.498  0.3486  1.1929 -0.3140
  924MOL0     O27422   7.994  11.395   9.428  1.2927  1.0726  0.1146
  924MOL0     C27423   7.890  11.138   9.404 -0.7354 -0.0600  0.5178
  924MOL0     C27424   7.824  11.019   9.401  0.1569 -1.6020 -0.6547
  924MOL0     N27425   7.650  10.325  10.015  0.8723  0.4281  0.3303
  924MOL0     N27426   7.581  10.306  10.117 -0.1121  0.0187  0.2358
  924MOL0     C27427   6.723   9.436  10.305  0.0470  1.4841 -0.1919
  924MOL0     C27428   6.706   9.299  10.301 -0.8789  0.3542 -0.4368
  924MOL0     C27429   6.768   8.859  10.420 -0.0410  0.0921  0.5281
  924MOL0     C27430   6.715   8.792  10.531 -1.5157 -0.3987 -0.4563
  924MOL0     C27431   6.749   8.653  10.548  0.6422  0.7124 -0.0748
  924MOL0     C27432   6.812   8.588  10.440 -0.1788 -0.1868 -0.1723
  924MOL0     O27433   6.836   8.453  10.466 -0.3171 -0.0495  0.5720
  924MOL0     C27434   6.923   8.381  10.369 -0.2918 -0.3977 -0.5988
  924MOL0     C27435   6.946   8.234  10.420 -0.2037 -0.8036  0.2197
  924MOL0     C27436   6.812   8.146  10.439 -1.1199  0.2760 -0.0030
  924MOL0     C27437   6.824   8.034  10.551  0.3938 -0.2632 -0.0600
  924MOL0     C27438   6.694   7.964  10.567  0.6198  0.2323  0.7012
  924MOL0     C27439   6.592   7.905  10.547 -0.1227  0.6161 -0.3622
  924MOL0     C27440   6.869   8.662  10.338  0.2581  0.0435 -0.2148
  924MOL0     C27441   6.852   8.801  10.322  1.4707  1.7122 -1.1533
  924MOL0     C27442   6.892   8.871  10.190  0.4581  0.6167 -1.0422
  924MOL0     H27443   6.999   9.227  10.455 -0.2707 -1.1756 -0.1692
  924MOL0     H27444   7.007   9.464  10.496  0.7341 -1.0222 -0.6590
  924MOL0     H27445   6.681   9.712  10.293  0.3181 -1.7234 -0.2446
  924MOL0     H27446   6.790   9.691  10.172  0.5280  1.5771 -0.8908
  924MOL0     H27447   6.781   9.929  10.240  0.0288  0.6232  1.6849
  924MOL0     H27448   6.868   9.893  10.387  1.1794  2.3670 -0.2960
  924MOL0     H27449   7.032   9.778  10.187 -0.6629 -0.5401  2.2904
  924MOL0     H27450   6.964   9.908  10.094 -3.0698  0.1577  1.2206
  924MOL0     H27451   7.092   9.948  10.359  1.4063 -2.4812 -0.6938
  924MOL0     H27452   7.179   9.984  10.209 -1.7087 -1.7827 -2.6365
  924MOL0     H27453   6.957  10.160  10.299  1.4204  2.7959  2.4387
  924MOL0     H27454   7.005  10.162  10.137  1.1433 -1.2715 -0.8905
  924MOL0     H27455   7.103  10.330  10.331 -0.0037  0.0027  0.5638
  924MOL0     H27456   7.198  10.177  10.358  0.9024  0.5607 -0.7098
  924MOL0     H27457   7.182  10.340  10.099 -2.4725 -0.7307  0.5839
  924MOL0     H27458   7.280  10.197  10.116 -0.5470 -0.0094 -0.3437
  924MOL0     H27459   7.325  10.473  10.221  0.5749  0.2461  0.8888
  924MOL0     H27460   7.408  10.344  10.317  0.4298 -2.3592 -0.6800
  924MOL0     H27461   7.403  10.516   9.949  0.8932 -0.3095 -0.9687
  924MOL0     H27462   7.651  10.398   9.733 -1.4275 -0.5593  0.4690
  924MOL0     H27463   7.762  10.476   9.854  0.2218  2.8778 -0.6415
  924MOL0     H27464   7.519  10.608   9.742  0.2091 -3.8927 -0.9447
  924MOL0     H27465   7.634  10.684   9.858  0.2217  2.2983 -1.7318
  924MOL0     H27466   7.813  10.673   9.677 -0.7669  3.1821  3.0519
  924MOL0     H27467   7.699  10.573   9.580 -3.3488 -0.4593 -0.1018
  924MOL0     H27468   7.536  10.763   9.571 -0.4904  0.6613 -0.4167
  924MOL0     H27469   7.631  10.846   9.694 -0.1837 -0.3538  0.1645
  924MOL0     H27470   7.790  10.969   9.740  0.4399  1.2150  0.2560
  924MOL0     H27471   7.923  11.265   9.823  2.8708 -0.2614  5.3523
  924MOL0     H27472   8.034  11.122   9.814  0.9667 -0.2405 -2.0270
  924MOL0     H27473   7.876  11.107   9.873 -1.2795 -1.2421 -2.0583
  924MOL0     H27474   8.159  11.502   9.824 -4.2145  0.7677 -0.9925
  924MOL0     H27475   8.285  11.718   9.802 -0.4157 -0.9984  0.6851
  924MOL0     H27476   8.274  11.969   9.506 -2.6220  5.6193  2.5857
  924MOL0     H27477   8.285  11.925   9.674  0.0553  3.2641  0.7459
  924MOL0     H27478   8.481  12.060   9.702 -3.2067  2.8952 -0.0523
  924MOL0     H27479   8.527  12.023   9.532 -0.6980 -2.7846  0.2072
  924MOL0     H27480   8.325  12.175   9.456 -1.8641  1.1717  0.1004
  924MOL0     H27481   8.450  12.278   9.554 -1.1138  0.7874  4.1804
  924MOL0     H27482   8.319  12.227   9.755 -0.0576  0.3423  1.0002
  924MOL0     H27483   8.199  12.141   9.670 -0.3218  2.0793  3.1578
  924MOL0     H27484   8.283  12.432   9.627  0.4872  0.8386  0.4846
  924MOL0     H27485   8.168  12.370   9.523  3.2328 -0.0736 -1.1747
  924MOL0     H27486   8.143  12.390   9.825  0.1814 -0.1008 -0.3693
  924MOL0     H27487   8.021  12.313   9.731  2.2166 -2.7724 -1.5327
  924MOL0     H27488   8.004  12.531   9.600 -2.0556 -0.7878 -0.4154
  924MOL0     H27489   8.122  12.605   9.714  0.6384 -0.8720 -2.5426
  924MOL0     H27490   7.968  12.607   9.895 -0.5264 -1.7708  1.1714
  924MOL0     H27491   7.872  12.476   9.842  1.0151 -0.8482 -2.0950
  924MOL0     H27492   8.384  11.642   9.401 -1.5604  1.2257 -0.6038
  924MOL0     H27493   8.237  11.427   9.416 -0.3401 -0.1520  0.9090
  924MOL0     H27494   7.902  11.191   9.310 -2.0349  0.0912  0.4166
  924MOL0     H27495   7.821  10.974   9.303  0.2852 -1.5342 -0.6894
  924MOL0     H27496   6.628   9.479  10.274 -2.2343  0.2055  4.1433
  924MOL0     H27497   6.621   9.245  10.260 -1.3484  1.3229 -0.7926
  924MOL0     H27498   6.648   8.842  10.601  0.4171  1.2857  0.3001
  924MOL0     H27499   6.717   8.600  10.637  3.4487 -2.8978 -0.9684
  924MOL0     H27500   6.861   8.370  10.279 -1.5543 -0.3788  0.2444
  924MOL0     H27501   7.022   8.420  10.345 -1.3758  1.6701 -2.0159
  924MOL0     H27502   6.994   8.256  10.516 -1.6483 -2.1514  1.3116
  924MOL0     H27503   7.027   8.181  10.368 -1.6090 -0.7199 -2.2152
  924MOL0     H27504   6.730   8.214  10.462  0.0516  0.9522  2.5299
  924MOL0     H27505   6.794   8.092  10.345 -1.5131 -1.7613  1.1919
  924MOL0     H27506   6.861   8.078  10.644 -3.0601  1.4589  0.6452
  924MOL0     H27507   6.896   7.958  10.517 -0.5406 -0.2095 -2.2978
  924MOL0     H27508   6.495   7.860  10.534 -0.6263  1.1834  1.1355
  924MOL0     H27509   6.942   8.615  10.273 -0.0628 -1.5003  0.4989
  924MOL0     H27510   6.981   8.934  10.197  1.7800 -1.2898  0.3225
  924MOL0     H27511   6.915   8.796  10.114 -2.9291 -0.0433 -1.5940
  924MOL0     H27512   6.819   8.943  10.152  0.9217  0.8153 -1.5741
  925MOL0     O27513   9.233  10.255   4.415 -0.5107  0.1950 -0.1019
  925MOL0     C27514   9.148  10.281   4.332 -1.2362 -0.4578  0.4461
  925MOL0     O27515   9.023  10.227   4.332  0.1877  0.1136  0.7144
  925MOL0     C27516   8.995  10.113   4.405  1.4576 -0.9300  0.0634
  925MOL0     C27517   9.019  10.123   4.544 -0.2784 -0.0728  0.5256
  925MOL0     C27518   8.999  10.004   4.611 -0.1542  0.6666  0.8724
  925MOL0     C27519   8.944   9.890   4.565 -0.5080 -0.2225 -0.8725
  925MOL0     O27520   8.926   9.790   4.660 -0.2684 -0.0728  0.4498
  925MOL0     C27521   8.883   9.652   4.630 -0.1622  0.5408  0.6735
  925MOL0     C27522   8.840   9.589   4.760  0.3994 -0.2318 -0.1642
  925MOL0     C27523   8.738   9.653   4.851  0.6509 -0.3931  0.2076
  925MOL0     C27524   8.741   9.582   4.985 -0.5394 -0.0941 -0.5314
  925MOL0     C27525   8.625   9.639   5.074  0.6525 -0.5854  0.1197
  925MOL0     C27526   8.498   9.553   5.056 -0.8217  0.2247  1.0141
  925MOL0     C27527   8.394   9.572   5.171 -0.7837 -0.7135 -0.2253
  925MOL0     C27528   8.259   9.513   5.153  2.1582  0.5712  0.5443
  925MOL0     N27529   8.190   9.549   5.030  0.0031  0.2820  0.2921
  925MOL0     C27530   8.103   9.653   4.999 -0.3616 -0.3867  0.2790
  925MOL0     C27531   8.065   9.639   4.868 -0.1462 -0.0211 -0.1500
  925MOL0     C27532   7.982   9.733   4.774 -0.8391 -0.3847 -0.0196
  925MOL0     C27533   7.873   9.810   4.849 -0.7462 -0.4320 -0.0067
  925MOL0     C27534   7.746   9.720   4.870 -0.6882  0.0471 -0.0825
  925MOL0     C27535   7.649   9.787   4.953 -0.5751  0.4118  0.9776
  925MOL0     O27536   7.614   9.918   4.904  0.2078  0.4192  0.4583
  925MOL0     C27537   7.575  10.009   4.998 -0.2382  0.4922 -0.7297
  925MOL0     C27538   7.579   9.997   5.137  0.5815 -0.2623 -0.4434
  925MOL0     C27539   7.565  10.106   5.225  1.1308 -0.3596  0.6101
  925MOL0     C27540   7.588  10.080   5.364 -0.3078 -0.7023  0.9106
  925MOL0     C27541   7.556  10.239   5.172 -1.3796  0.4135 -0.1727
  925MOL0     C27542   7.537  10.359   5.254  0.0402  0.4685 -0.3084
  925MOL0     O27543   7.530  10.464   5.179  0.0435  0.5253  0.0606
  925MOL0     C27544   7.492  10.585   5.235  0.0791 -0.1151  0.7924
  925MOL0     C27545   7.585  10.688   5.225 -0.3418 -0.1515  0.1206
  925MOL0     C27546   7.538  10.814   5.277 -0.6074 -0.2465 -0.3570
  925MOL0     C27547   7.404  10.839   5.315 -0.2587 -0.2314  0.7523
  925MOL0     O27548   7.358  10.956   5.360  0.1859  0.2873  0.2720
  925MOL0     C27549   7.450  11.066   5.371  0.2844  0.0461  1.5272
  925MOL0     C27550   7.385  11.178   5.449  0.0420  0.3190 -0.9792
  925MOL0     C27551   7.270  11.254   5.385 -0.0981  0.0010  0.0029
  925MOL0     C27552   7.296  11.326   5.254  0.7961  0.1880  0.1268
  925MOL0     C27553   7.175  11.425   5.225  0.6644  0.2221  0.6788
  925MOL0     C27554   7.217  11.545   5.140 -0.3875  0.0016 -0.4716
  925MOL0     C27555   7.214  11.495   4.991  0.1048 -0.1164 -0.2928
  925MOL0     C27556   7.275  11.606   4.904  1.0126 -0.2429 -0.3513
  925MOL0    Cl27557   7.160  11.757   4.914 -0.0338  0.3030  0.2468
  925MOL0     C27558   7.315  10.734   5.320  0.0145  0.0685 -0.4498
  925MOL0     C27559   7.358  10.612   5.275  0.2905 -0.4985  0.2817
  925MOL0     O27560   7.497  10.352   5.368 -0.0878  0.3532  0.0215
  925MOL0     C27561   7.552  10.242   5.030  0.2643 -0.8298 -0.7644
  925MOL0     C27562   7.561  10.133   4.945  0.2895 -0.1712 -0.2133
  925MOL0     N27563   8.134   9.531   4.823 -0.3424  1.3145  0.2455
  925MOL0     N27564   8.211   9.482   4.910  0.1381 -0.1506  0.4411
  925MOL0     C27565   8.908   9.883   4.435  0.2735 -0.5383 -0.1916
  925MOL0     C27566   8.940   9.995   4.349  0.3495  0.0398  0.8935
  925MOL0     C27567   9.180  10.401   4.247  0.5770  0.8660 -0.0792
  925MOL0     C27568   9.081  10.445   4.150  1.3095  0.0783 -0.2123
  925MOL0     C27569   9.108  10.548   4.060  0.2959  0.2640  0.2714
  925MOL0     C27570   9.224  10.626   4.076  0.3093  0.6680  0.5293
  925MOL0     O27571   9.258  10.735   3.999  0.5207  0.0083 -0.7950
  925MOL0     C27572   9.192  10.767   3.879 -0.8795 -0.5178  0.8719
  925MOL0     C27573   9.229  10.668   3.769  0.8217 -1.2606 -0.3572
  925MOL0     C27574   9.370  10.694   3.724 -0.0100 -0.5865 -0.6811
  925MOL0     C27575   9.468  10.599   3.785  0.2705 -0.6678  0.6686
  925MOL0     C27576   9.599  10.606   3.719  0.2119 -0.0211  0.3758
  925MOL0     C27577   9.696  10.624   3.645 -0.2625 -0.3554  0.1954
  925MOL0     C27578   9.323  10.582   4.167 -0.5703 -1.3579  0.0920
  925MOL0     C27579   9.301  10.473   4.250  0.9935  0.2577  1.1315
  925MOL0     C27580   9.417  10.447   4.347  0.1756 -0.3417  0.3137
  925MOL0     H27581   9.053  10.213   4.594 -0.5562 -0.3208  1.1687
  925MOL0     H27582   9.019  10.007   4.718  0.9075 -1.2837  0.7614
  925MOL0     H27583   8.966   9.600   4.584 -2.3695 -2.7035  0.0191
  925MOL0     H27584   8.801   9.650   4.557  1.1315  1.6198 -0.8752
  925MOL0     H27585   8.814   9.486   4.733  3.0206 -0.5065 -2.0309
  925MOL0     H27586   8.932   9.581   4.818  2.6033  1.3513 -3.1264
  925MOL0     H27587   8.741   9.762   4.845 -0.6021 -0.1859  2.3616
  925MOL0     H27588   8.635   9.634   4.819  0.8243  1.6746 -1.7915
  925MOL0     H27589   8.729   9.476   4.962 -2.1311 -0.0347 -0.0806
  925MOL0     H27590   8.834   9.598   5.040 -0.9059 -1.9538  0.7270
  925MOL0     H27591   8.611   9.743   5.043 -1.5822 -1.3481 -1.6271
  925MOL0     H27592   8.663   9.641   5.177  1.8158 -0.8793 -0.2829
  925MOL0     H27593   8.457   9.575   4.958 -0.4823  1.2661  1.0963
  925MOL0     H27594   8.536   9.451   5.061 -2.9608 -1.1944 -4.4328
  925MOL0     H27595   8.399   9.681   5.185 -0.6191 -0.6011 -1.0897
  925MOL0     H27596   8.437   9.530   5.263  0.0160  1.8767  0.6814
  925MOL0     H27597   8.275   9.406   5.138  0.7898  0.4412 -0.0950
  925MOL0     H27598   8.199   9.532   5.242  1.2365 -2.0504  0.5506
  925MOL0     H27599   8.086   9.735   5.068 -3.2107  1.0445 -1.8994
  925MOL0     H27600   7.936   9.686   4.687 -0.8177 -1.8266  0.7128
  925MOL0     H27601   8.047   9.804   4.723 -0.9401 -0.2830 -0.0065
  925MOL0     H27602   7.909   9.854   4.942 -2.4274  4.3905 -1.3534
  925MOL0     H27603   7.841   9.894   4.786  0.4157 -1.2804 -1.8329
  925MOL0     H27604   7.710   9.693   4.771  0.5046 -0.0090 -0.5159
  925MOL0     H27605   7.768   9.626   4.922  2.3810 -0.1575 -1.5603
  925MOL0     H27606   7.559   9.725   4.959  0.6248 -1.3386  1.6872
  925MOL0     H27607   7.699   9.785   5.050  1.4916  0.7756 -0.0280
  925MOL0     H27608   7.585   9.901   5.188  2.9178  0.3390  0.5522
  925MOL0     H27609   7.493  10.103   5.414  0.0998  0.6665  1.1050
  925MOL0     H27610   7.674  10.138   5.398  0.7920 -0.9964 -1.2169
  925MOL0     H27611   7.611   9.974   5.381 -2.8012 -1.2925  1.0855
  925MOL0     H27612   7.687  10.683   5.189  0.3350 -0.6022  1.9631
  925MOL0     H27613   7.606  10.898   5.284 -0.8999  0.0242 -0.6840
  925MOL0     H27614   7.518  11.018   5.442 -1.6744 -1.8453  2.2380
  925MOL0     H27615   7.498  11.092   5.276  0.3908 -2.0641  0.9476
  925MOL0     H27616   7.341  11.138   5.541 -0.5370 -0.8867 -1.7491
  925MOL0     H27617   7.465  11.245   5.481  1.0735 -1.4702  0.4159
  925MOL0     H27618   7.231  11.315   5.467  2.7630  0.1739  1.3669
  925MOL0     H27619   7.194  11.178   5.366 -0.0563  0.0649 -0.4349
  925MOL0     H27620   7.318  11.258   5.171  5.9881  1.9586 -0.3014
  925MOL0     H27621   7.389  11.380   5.271  0.3458  1.1253 -0.3116
  925MOL0     H27622   7.089  11.376   5.179 -2.0094  2.2467  3.1377
  925MOL0     H27623   7.144  11.475   5.318  3.5303 -0.6949  2.2516
  925MOL0     H27624   7.312  11.591   5.170 -0.6456  1.0138 -1.1529
  925MOL0     H27625   7.138  11.619   5.153 -1.1251 -0.6211 -1.2819
  925MOL0     H27626   7.113  11.480   4.951  1.4413 -0.2179 -3.9515
  925MOL0     H27627   7.273  11.407   4.965 -0.2821 -0.0616 -1.4206
  925MOL0     H27628   7.288  11.573   4.801  1.0174  3.7486 -1.8162
  925MOL0     H27629   7.365  11.644   4.953  0.8198  0.3585 -0.4472
  925MOL0     H27630   7.210  10.752   5.343 -0.1666  0.5358 -1.5499
  925MOL0     H27631   7.293  10.526   5.279  0.8280 -0.8546  2.5643
  925MOL0     H27632   7.530  10.332   4.974 -1.0760  0.4671  1.7215
  925MOL0     H27633   7.574  10.147   4.838 -1.5702 -1.4869 -0.6571
  925MOL0     H27634   8.872   9.788   4.397 -2.1256 -0.3478  1.3714
  925MOL0     H27635   8.919   9.993   4.242  0.8558 -1.8619  0.7969
  925MOL0     H27636   8.994  10.384   4.127  2.1071  0.3608 -5.1151
  925MOL0     H27637   9.034  10.573   3.984 -0.2608 -0.5657  0.5201
  925MOL0     H27638   9.083  10.776   3.884 -0.9758  0.2696 -1.3338
  925MOL0     H27639   9.231  10.865   3.850 -1.7545 -0.1539  0.8976
  925MOL0     H27640   9.164  10.687   3.683  0.8026  0.7633  0.0612
  925MOL0     H27641   9.215  10.565   3.804  1.4967 -1.5280 -0.8693
  925MOL0     H27642   9.368  10.695   3.614  0.9817  1.7392 -0.7383
  925MOL0     H27643   9.401  10.791   3.762 -0.8664 -0.5348 -0.1076
  925MOL0     H27644   9.427  10.498   3.786  1.0728 -1.0262  2.2981
  925MOL0     H27645   9.477  10.624   3.892 -1.6215 -0.1178  0.7317
  925MOL0     H27646   9.793  10.634   3.601 -0.0728  0.4113  0.7733
  925MOL0     H27647   9.409  10.648   4.181 -2.4482  1.4812 -0.7932
  925MOL0     H27648   9.504  10.513   4.340  1.4422 -2.0664 -1.4538
  925MOL0     H27649   9.384  10.451   4.451  0.2415  1.5492  0.2907
  925MOL0     H27650   9.462  10.348   4.337  3.2225  1.0543 -1.1162
  926MOL0     O27651   4.163   8.000   9.448 -1.0171  0.2855  0.0942
  926MOL0     C27652   4.059   8.008   9.525 -0.6237 -0.1877 -0.3772
  926MOL0     O27653   3.964   8.106   9.512 -0.6594 -0.4349 -0.9674
  926MOL0     C27654   4.012   8.213   9.453 -0.1709  0.2011  0.9496
  926MOL0     C27655   4.089   8.305   9.521 -0.2757  1.3570 -0.8107
  926MOL0     C27656   4.123   8.425   9.458 -0.2627 -0.1310 -0.0532
  926MOL0     C27657   4.099   8.451   9.322  0.6516  0.0616  0.6912
  926MOL0     O27658   4.142   8.557   9.248 -0.5128 -0.8568 -0.6147
  926MOL0     C27659   4.282   8.606   9.268  0.7848  0.0739 -0.0660
  926MOL0     C27660   4.293   8.707   9.151  0.4922 -0.0769 -0.5675
  926MOL0     C27661   4.310   8.640   9.013  0.3293  0.1514  0.1541
  926MOL0     C27662   4.327   8.741   8.904  0.3255 -0.5592  0.7153
  926MOL0     C27663   4.269   8.691   8.763 -0.3394  0.1663 -0.1091
  926MOL0     C27664   4.377   8.601   8.694 -0.2717 -0.1181 -0.6043
  926MOL0     C27665   4.316   8.518   8.583  0.0168 -0.2835 -0.2132
  926MOL0     C27666   4.419   8.452   8.497 -0.2157 -0.2851 -0.3105
  926MOL0     N27667   4.369   8.407   8.366 -0.7736  0.0961 -0.4170
  926MOL0     C27668   4.355   8.272   8.323  0.1384 -0.9644  0.4662
  926MOL0     C27669   4.298   8.280   8.200 -0.5807  0.0475 -0.1832
  926MOL0     C27670   4.218   8.180   8.131  0.0158  0.1792  0.0267
  926MOL0     C27671   4.310   8.058   8.108 -0.8505  0.0675  0.6617
  926MOL0     C27672   4.247   7.948   8.028  0.0169 -0.0363  0.3517
  926MOL0     C27673   4.331   7.821   8.015  0.1075 -0.1298  0.1061
  926MOL0     O27674   4.326   7.733   8.131  0.5790  0.5839  0.1680
  926MOL0     C27675   4.221   7.648   8.135  1.4236 -1.1299  0.0772
  926MOL0     C27676   4.100   7.692   8.187 -0.0464 -0.3436  0.3260
  926MOL0     C27677   3.999   7.591   8.209  0.1707 -0.1470  0.9131
  926MOL0     C27678   3.862   7.637   8.271 -0.1645  0.2899  0.6949
  926MOL0     C27679   4.022   7.455   8.172  0.1986 -0.7806  0.5941
  926MOL0     C27680   3.933   7.346   8.199  0.4808 -0.0233 -0.4927
  926MOL0     O27681   3.909   7.233   8.109  0.0579  0.0487  0.1999
  926MOL0     C27682   3.834   7.135   8.154  0.3456  0.3841 -0.0488
  926MOL0     C27683   3.843   7.069   8.278 -0.0038  0.2501  0.1181
  926MOL0     C27684   3.768   6.963   8.317  0.1077 -0.2484  0.0452
  926MOL0     C27685   3.671   6.903   8.224  0.5987 -1.0899  0.8642
  926MOL0     O27686   3.597   6.794   8.265 -0.9381 -0.5263 -1.0695
  926MOL0     C27687   3.633   6.672   8.192  0.6921 -0.0271  0.1141
  926MOL0     C27688   3.774   6.633   8.224 -0.5308  0.7719  0.7412
  926MOL0     C27689   3.783   6.532   8.350 -0.0864  0.1447 -0.8873
  926MOL0     C27690   3.898   6.558   8.447 -0.9881 -0.9228 -0.2225
  926MOL0     C27691   3.875   6.679   8.534 -0.7225 -0.1287 -0.4108
  926MOL0     C27692   3.960   6.668   8.658 -0.5724 -1.0144 -0.7292
  926MOL0     C27693   3.936   6.793   8.746  0.2818  0.8463 -0.0335
  926MOL0     C27694   4.019   6.806   8.881  0.3131 -0.4291 -0.0598
  926MOL0    Cl27695   4.174   6.895   8.874 -0.4017  0.0422  0.1693
  926MOL0     C27696   3.661   6.972   8.092 -0.0529  0.4222  0.5570
  926MOL0     C27697   3.739   7.080   8.066 -0.0302 -0.1766 -0.4137
  926MOL0     O27698   3.866   7.363   8.305  0.2879 -0.7685  0.3557
  926MOL0     C27699   4.137   7.430   8.104 -0.9756  0.2774 -0.0095
  926MOL0     C27700   4.245   7.517   8.103  0.6981 -0.1334 -0.0341
  926MOL0     N27701   4.295   8.411   8.161  0.3633 -0.3488  0.3190
  926MOL0     N27702   4.335   8.485   8.262 -0.4138 -0.9387 -0.1977
  926MOL0     C27703   4.026   8.358   9.247 -0.7779  0.3928  0.0670
  926MOL0     C27704   3.983   8.242   9.310 -1.0344 -0.5877 -0.2513
  926MOL0     C27705   4.032   7.902   9.616 -0.7797 -0.0606 -0.8221
  926MOL0     C27706   3.932   7.932   9.711 -1.7863 -0.0574 -0.3299
  926MOL0     C27707   3.905   7.837   9.806  0.6372 -0.6449 -0.3624
  926MOL0     C27708   3.971   7.718   9.818  0.1097 -0.1212 -0.3636
  926MOL0     O27709   3.945   7.634   9.923 -0.0553  0.1790 -0.7006
  926MOL0     C27710   3.810   7.617   9.962 -0.0938 -0.8508 -0.2942
  926MOL0     C27711   3.794   7.476  10.016 -0.5523 -0.6774 -0.1303
  926MOL0     C27712   3.637   7.448  10.035  0.4677  0.6422 -0.7199
  926MOL0     C27713   3.565   7.434   9.904  0.1540 -0.0429  0.6125
  926MOL0     C27714   3.435   7.365   9.917  0.1985 -0.6821 -0.4992
  926MOL0     C27715   3.319   7.321   9.928 -0.2429  0.0521 -0.3313
  926MOL0     C27716   4.075   7.698   9.733  0.9150  0.0007 -0.4994
  926MOL0     C27717   4.111   7.787   9.627 -1.0841 -0.0491  0.3433
  926MOL0     C27718   4.228   7.739   9.534 -0.2137  0.0006  0.9864
  926MOL0     H27719   4.127   8.286   9.621  1.8880  1.6145 -1.5213
  926MOL0     H27720   4.172   8.492   9.529  0.5703 -0.5778 -0.1868
  926MOL0     H27721   4.360   8.531   9.258  0.9816  0.1472  0.8353
  926MOL0     H27722   4.295   8.656   9.365 -3.3841  1.5234 -0.0162
  926MOL0     H27723   4.202   8.768   9.148  0.4042 -0.0854  0.9932
  926MOL0     H27724   4.373   8.778   9.175  1.1178 -1.3087  1.2286
  926MOL0     H27725   4.397   8.576   9.027 -0.9064 -1.5249  0.3954
  926MOL0     H27726   4.225   8.577   8.985 -1.6430  2.2158  1.1060
  926MOL0     H27727   4.270   8.829   8.933 -0.9129 -1.9906  2.8283
  926MOL0     H27728   4.433   8.770   8.903 -0.1216  1.2214  1.9459
  926MOL0     H27729   4.250   8.787   8.714 -3.5350 -0.2248  0.1136
  926MOL0     H27730   4.170   8.644   8.766 -0.6381  0.7561 -0.5377
  926MOL0     H27731   4.455   8.657   8.641 -0.3759  0.3924 -0.2361
  926MOL0     H27732   4.426   8.540   8.771  1.5803  0.7814 -1.0088
  926MOL0     H27733   4.257   8.588   8.523  0.1093 -1.8997 -2.2770
  926MOL0     H27734   4.252   8.439   8.624  1.2268 -1.1944 -0.0189
  926MOL0     H27735   4.495   8.528   8.477 -0.5808  0.1465 -0.0838
  926MOL0     H27736   4.476   8.376   8.551 -1.5733 -0.3493  1.1186
  926MOL0     H27737   4.382   8.185   8.382 -1.2467 -0.3992  2.0183
  926MOL0     H27738   4.188   8.230   8.038 -3.6125  0.5365  1.2513
  926MOL0     H27739   4.119   8.158   8.170 -0.0559  2.0826  1.0262
  926MOL0     H27740   4.394   8.099   8.052 -3.2511  2.1827 -1.6575
  926MOL0     H27741   4.351   8.022   8.203  2.3317  3.3332  0.7778
  926MOL0     H27742   4.144   7.932   8.060 -0.9898  0.5203 -2.3508
  926MOL0     H27743   4.225   7.987   7.928 -0.7521 -0.7446  0.2363
  926MOL0     H27744   4.304   7.773   7.921  3.5171 -1.5419 -0.2912
  926MOL0     H27745   4.436   7.849   8.001  0.1443 -0.3852 -0.1293
  926MOL0     H27746   4.084   7.797   8.208  3.5123 -0.0024  2.0066
  926MOL0     H27747   3.869   7.746   8.281 -3.1778  0.5679  0.8646
  926MOL0     H27748   3.852   7.602   8.374  1.1493  0.5231  0.9150
  926MOL0     H27749   3.774   7.613   8.210 -1.1205  0.1311  2.0846
  926MOL0     H27750   3.917   7.109   8.347 -1.2326  0.6298  1.2636
  926MOL0     H27751   3.776   6.925   8.418  2.4936 -1.7108 -0.6141
  926MOL0     H27752   3.560   6.593   8.209 -2.5418  3.0523  1.7809
  926MOL0     H27753   3.625   6.694   8.085  0.4445 -1.1227 -0.0975
  926MOL0     H27754   3.809   6.578   8.136 -1.3340 -0.1833  1.0098
  926MOL0     H27755   3.853   6.708   8.238  0.0691  0.1809  0.6020
  926MOL0     H27756   3.799   6.429   8.314 -2.9384  0.1582 -2.4942
  926MOL0     H27757   3.683   6.530   8.395 -0.2218 -0.8355 -1.2009
  926MOL0     H27758   3.989   6.569   8.387  0.8901 -2.2169  2.2371
  926MOL0     H27759   3.901   6.472   8.514 -1.0420 -0.3658  0.4977
  926MOL0     H27760   3.889   6.769   8.473 -0.2532 -0.6090 -1.0232
  926MOL0     H27761   3.769   6.686   8.560 -0.6716 -0.5951 -0.0604
  926MOL0     H27762   4.068   6.678   8.639 -0.4046 -5.3359 -3.5860
  926MOL0     H27763   3.940   6.578   8.717 -2.7039  1.3248  2.4603
  926MOL0     H27764   3.828   6.786   8.760  0.1613  0.3453 -1.1047
  926MOL0     H27765   3.955   6.884   8.689 -0.9861  1.1326 -0.0187
  926MOL0     H27766   4.039   6.705   8.920 -2.6736 -1.2868 -0.5181
  926MOL0     H27767   3.953   6.865   8.946 -1.2996 -0.5673 -1.5023
  926MOL0     H27768   3.587   6.931   8.025  0.5286  0.8272 -0.3564
  926MOL0     H27769   3.741   7.114   7.963 -2.3690  2.0805  0.1796
  926MOL0     H27770   4.181   7.339   8.063  0.1805  1.5011 -1.5916
  926MOL0     H27771   4.345   7.484   8.078  0.6608 -1.1010  1.0032
  926MOL0     H27772   4.007   8.394   9.147 -1.4258  1.3314  0.5003
  926MOL0     H27773   3.922   8.169   9.258 -2.5319 -1.6121  2.6934
  926MOL0     H27774   3.882   8.028   9.720  0.5686  1.0941  2.3216
  926MOL0     H27775   3.840   7.856   9.890  3.5564 -0.1280  1.9549
  926MOL0     H27776   3.787   7.685  10.045 -0.0839 -1.7958  0.5101
  926MOL0     H27777   3.736   7.630   9.882 -0.9104  1.3048  0.7288
  926MOL0     H27778   3.844   7.468  10.112 -1.0787 -0.5202  0.1656
  926MOL0     H27779   3.839   7.406   9.945 -0.9298 -3.1094  1.9055
  926MOL0     H27780   3.623   7.351  10.083 -1.2308  0.5470 -1.3266
  926MOL0     H27781   3.587   7.524  10.097  0.1922  1.4284 -1.8795
  926MOL0     H27782   3.625   7.378   9.832  0.0522 -1.1241  1.3498
  926MOL0     H27783   3.548   7.535   9.864  1.7754 -0.0793 -0.2714
  926MOL0     H27784   3.217   7.288   9.938 -0.3841 -0.1582 -2.1048
  926MOL0     H27785   4.136   7.611   9.758  2.1505  0.8975 -0.3370
  926MOL0     H27786   4.201   7.750   9.429 -0.3198 -3.9479  0.4384
  926MOL0     H27787   4.316   7.801   9.553  1.1930 -2.2613  2.3281
  926MOL0     H27788   4.246   7.631   9.542  1.1831  0.0340 -1.1000
  927MOL0     O27789   3.516   4.059  11.272 -0.4382 -0.4404 -0.9069
  927MOL0     C27790   3.418   4.097  11.222 -0.0233 -0.2523 -0.3473
  927MOL0     O27791   3.355   4.026  11.126 -0.0081  0.0598 -0.3274
  927MOL0     C27792   3.395   3.889  11.105  0.0217 -0.9476 -0.5590
  927MOL0     C27793   3.511   3.848  11.048 -0.4174 -0.0384  0.0261
  927MOL0     C27794   3.527   3.722  10.991 -0.6006 -0.2645 -0.2440
  927MOL0     C27795   3.434   3.620  11.008  1.0185 -0.5055 -0.5848
  927MOL0     O27796   3.450   3.497  10.953  0.1109  0.6565 -0.4673
  927MOL0     C27797   3.380   3.387  11.005 -0.3282 -0.8521 -0.3691
  927MOL0     C27798   3.401   3.354  11.154  0.6000 -0.1029 -0.2446
  927MOL0     C27799   3.553   3.311  11.186 -0.2231 -0.5932  0.0189
  927MOL0     C27800   3.564   3.222  11.303  0.8595  0.9790  0.1554
  927MOL0     C27801   3.712   3.181  11.328  0.6629  0.3011  0.5428
  927MOL0     C27802   3.716   3.131  11.466 -0.6902  0.6879  0.3750
  927MOL0     C27803   3.864   3.099  11.514 -0.5177 -0.8410 -0.1217
  927MOL0     C27804   3.926   2.972  11.442  0.2394 -0.3667 -0.4511
  927MOL0     N27805   4.036   2.924  11.530  0.6833 -0.3460 -0.1532
  927MOL0     C27806   4.146   2.991  11.589  0.7549  0.0927  0.6135
  927MOL0     C27807   4.193   2.900  11.669 -0.1042  0.2205  0.3485
  927MOL0     C27808   4.326   2.915  11.749  0.3580  0.9260 -0.1545
  927MOL0     C27809   4.345   3.048  11.830 -1.0088  0.2717 -0.4770
  927MOL0     C27810   4.227   3.073  11.927 -0.9190  0.5525 -0.3176
  927MOL0     C27811   4.289   3.147  12.047  0.2690  1.7675  0.0842
  927MOL0     O27812   4.367   3.048  12.122 -0.1170  0.3857  0.4190
  927MOL0     C27813   4.320   2.966  12.221  0.0236  0.1409  0.5611
  927MOL0     C27814   4.187   2.962  12.260  0.9951 -0.0386 -0.9033
  927MOL0     C27815   4.133   2.873  12.347 -0.6468  1.4167 -0.2852
  927MOL0     C27816   3.986   2.871  12.378 -0.5962 -0.7741 -0.7309
  927MOL0     C27817   4.230   2.787  12.407  0.5137 -0.4785  0.0259
  927MOL0     C27818   4.188   2.686  12.508 -1.3085 -0.5478  1.0357
  927MOL0     O27819   4.238   2.570  12.482  0.1742  0.6519  0.0847
  927MOL0     C27820   4.203   2.468  12.569  0.0282 -0.5599 -0.4069
  927MOL0     C27821   4.080   2.398  12.573  0.7052  0.0340  1.3309
  927MOL0     C27822   4.062   2.293  12.661 -0.0066  0.6179  0.0201
  927MOL0     C27823   4.164   2.262  12.753 -0.1335 -0.7181  1.1837
  927MOL0     O27824   4.142   2.161  12.847  0.3338  0.2960  0.6640
  927MOL0     C27825   4.257   2.121  12.927 -0.6799  0.1957  0.0486
  927MOL0     C27826   4.239   1.996  13.009 -0.3139  0.5992 -0.0368
  927MOL0     C27827   4.197   1.871  12.918 -0.1736 -0.0145 -0.3032
  927MOL0     C27828   4.207   1.739  12.999 -0.2760  0.6166  0.2537
  927MOL0     C27829   4.349   1.687  13.016  0.0333  0.4550  0.2745
  927MOL0     C27830   4.431   1.695  12.884 -0.4603 -1.1648 -0.0148
  927MOL0     C27831   4.544   1.594  12.889  1.3984  0.7754 -0.2536
  927MOL0     C27832   4.657   1.608  12.994  0.5316 -0.2178  1.0546
  927MOL0    Cl27833   4.764   1.729  12.934  0.0155 -0.0164 -0.4098
  927MOL0     C27834   4.280   2.338  12.759  0.3551 -0.3656 -0.5248
  927MOL0     C27835   4.295   2.441  12.666  0.0811 -0.2196  0.1684
  927MOL0     O27836   4.115   2.717  12.598  0.2846 -0.7317 -0.4514
  927MOL0     C27837   4.375   2.798  12.375  0.2149 -0.0020  0.6251
  927MOL0     C27838   4.415   2.886  12.278 -0.3620  0.9925 -0.0528
  927MOL0     N27839   4.113   2.794  11.679 -0.1803  0.3399 -0.0234
  927MOL0     N27840   4.029   2.799  11.586  0.7624  0.4208  0.7092
  927MOL0     C27841   3.308   3.658  11.067  0.6819 -0.0497  0.0081
  927MOL0     C27842   3.289   3.791  11.111  0.0882  0.7534 -0.6434
  927MOL0     C27843   3.351   4.214  11.283 -0.5547 -0.0169 -0.2914
  927MOL0     C27844   3.431   4.317  11.346  0.8280  0.1272  0.0797
  927MOL0     C27845   3.378   4.423  11.418 -0.0626 -0.1555  0.0888
  927MOL0     C27846   3.241   4.436  11.426 -0.3518 -0.4889 -0.3005
  927MOL0     O27847   3.172   4.530  11.496 -1.1742  0.3327 -0.1723
  927MOL0     C27848   3.237   4.609  11.605 -0.6708  0.0409  0.9190
  927MOL0     C27849   3.130   4.653  11.704 -0.4329  0.1839 -0.7179
  927MOL0     C27850   3.195   4.730  11.819  0.3613  0.0337  0.3766
  927MOL0     C27851   3.114   4.733  11.954  0.3199 -0.0912 -1.1856
  927MOL0     C27852   2.982   4.795  11.924  0.2547  0.8746 -0.7893
  927MOL0     C27853   2.861   4.801  11.894 -0.5914 -0.2445  0.0460
  927MOL0     C27854   3.165   4.349  11.350 -0.4393 -0.1077  0.3659
  927MOL0     C27855   3.220   4.240  11.282 -0.3085  0.3002  0.3772
  927MOL0     C27856   3.121   4.148  11.220  0.4127  0.2803  0.6716
  927MOL0     H27857   3.594   3.916  11.038  0.1527 -0.2848  2.4884
  927MOL0     H27858   3.620   3.695  10.941 -1.2143  0.1657 -1.6585
  927MOL0     H27859   3.422   3.303  10.950  1.7787  1.7503 -3.0619
  927MOL0     H27860   3.272   3.391  10.993 -0.3966  1.9125  0.4611
  927MOL0     H27861   3.368   3.447  11.203 -0.9078  0.4178 -2.1347
  927MOL0     H27862   3.329   3.279  11.188  1.4237 -1.1540 -0.7544
  927MOL0     H27863   3.592   3.251  11.103 -2.1506 -2.6842  0.5126
  927MOL0     H27864   3.617   3.394  11.217  0.8590 -1.9534  1.6066
  927MOL0     H27865   3.513   3.275  11.384  2.2080 -2.0913  3.2124
  927MOL0     H27866   3.510   3.128  11.286  1.5369  0.8932 -1.7456
  927MOL0     H27867   3.781   3.266  11.319  3.2017 -1.8635 -4.3310
  927MOL0     H27868   3.758   3.105  11.265 -1.9889 -0.9070 -0.0788
  927MOL0     H27869   3.677   3.202  11.540 -1.7761 -1.3586  1.8628
  927MOL0     H27870   3.654   3.041  11.464 -0.7651  0.7542 -0.8239
  927MOL0     H27871   3.858   3.081  11.622 -0.8880 -1.4631 -0.2411
  927MOL0     H27872   3.929   3.185  11.495  1.2924 -1.6635  1.8928
  927MOL0     H27873   3.851   2.896  11.420 -1.2471  0.9451 -0.1360
  927MOL0     H27874   3.975   3.017  11.355  1.8475  0.0588  0.6128
  927MOL0     H27875   4.184   3.089  11.564  1.1574  0.2304  1.7109
  927MOL0     H27876   4.410   2.906  11.679 -0.2443 -2.3395 -0.6124
  927MOL0     H27877   4.329   2.839  11.827  2.2767 -0.3246 -1.3689
  927MOL0     H27878   4.439   3.035  11.884 -1.4437 -1.4989 -0.0799
  927MOL0     H27879   4.364   3.132  11.763 -1.0553  0.5892 -0.0958
  927MOL0     H27880   4.161   3.139  11.870 -1.5889 -0.5698 -0.8745
  927MOL0     H27881   4.174   2.985  11.965  0.4606  0.6087  1.9086
  927MOL0     H27882   4.353   3.231  12.019  0.2804  1.5174 -0.6480
  927MOL0     H27883   4.214   3.185  12.117  1.3308  1.4664  1.4300
  927MOL0     H27884   4.113   3.028  12.216 -0.0894  0.3847  1.3823
  927MOL0     H27885   3.936   2.802  12.309  0.9847 -2.6245 -0.0841
  927MOL0     H27886   3.942   2.969  12.354 -0.3372 -0.0756  1.4576
  927MOL0     H27887   3.955   2.848  12.481 -0.9778 -1.1042 -0.9139
  927MOL0     H27888   4.013   2.424  12.492  2.2777 -2.8528 -1.1199
  927MOL0     H27889   3.977   2.226  12.661 -0.5730  1.2819 -1.9674
  927MOL0     H27890   4.347   2.115  12.866 -0.9697 -1.8139 -0.2325
  927MOL0     H27891   4.281   2.194  13.005  1.5121  0.4710 -0.8320
  927MOL0     H27892   4.329   1.980  13.070  0.8886 -0.1944 -1.9258
  927MOL0     H27893   4.162   2.012  13.085  0.7432 -0.4082  1.3037
  927MOL0     H27894   4.240   1.859  12.819 -2.4660 -0.4804 -1.3040
  927MOL0     H27895   4.089   1.886  12.911 -0.3742 -0.2207  1.6402
  927MOL0     H27896   4.157   1.666  12.935 -2.4017 -0.6924  3.1841
  927MOL0     H27897   4.150   1.739  13.093 -1.5971  1.9591 -0.4979
  927MOL0     H27898   4.393   1.751  13.093 -0.3895  1.6540 -0.4533
  927MOL0     H27899   4.346   1.581  13.042 -1.2453  0.1594 -0.9518
  927MOL0     H27900   4.473   1.793  12.862  1.4536 -1.7968  0.6017
  927MOL0     H27901   4.362   1.674  12.801 -2.0831  0.0438  0.9849
  927MOL0     H27902   4.589   1.600  12.789 -0.1832  2.6030 -0.9118
  927MOL0     H27903   4.491   1.500  12.905  2.5322  0.2369  0.4877
  927MOL0     H27904   4.711   1.513  13.004  0.8466  0.1038  2.5438
  927MOL0     H27905   4.618   1.634  13.092 -1.1344  1.8487 -0.0658
  927MOL0     H27906   4.359   2.333  12.832  1.0479  4.7061 -0.6004
  927MOL0     H27907   4.379   2.508  12.684  0.9722 -1.2010 -0.2558
  927MOL0     H27908   4.452   2.739  12.422  0.4086 -1.1109 -1.0128
  927MOL0     H27909   4.522   2.886  12.259 -0.3915  2.3687 -0.3063
  927MOL0     H27910   3.236   3.578  11.075  0.7268 -0.1414 -0.4641
  927MOL0     H27911   3.191   3.829  11.137 -0.1701  1.4998 -2.5654
  927MOL0     H27912   3.538   4.303  11.333  0.3788 -4.3574 -0.1979
  927MOL0     H27913   3.442   4.500  11.460  0.6111 -1.6392  1.9141
  927MOL0     H27914   3.313   4.539  11.641  0.3139 -1.6390 -3.7105
  927MOL0     H27915   3.287   4.698  11.566 -1.3320 -0.4798 -1.2570
  927MOL0     H27916   3.075   4.563  11.735  0.7045  0.5680  2.8682
  927MOL0     H27917   3.057   4.707  11.643 -3.4040  0.1152  2.4313
  927MOL0     H27918   3.288   4.675  11.835  0.1554 -1.0909 -1.8542
  927MOL0     H27919   3.220   4.831  11.788  0.7485 -0.1074  0.2219
  927MOL0     H27920   3.169   4.785  12.032 -1.2163  0.2426 -0.2738
  927MOL0     H27921   3.100   4.627  11.978 -2.8556  0.7405  1.4114
  927MOL0     H27922   2.765   4.826  11.855  0.3368  1.5004 -1.3126
  927MOL0     H27923   3.058   4.352  11.366 -0.3107 -1.6518  1.8797
  927MOL0     H27924   3.138   4.044  11.251  1.0283 -0.1092 -0.8829
  927MOL0     H27925   3.018   4.171  11.249  0.1814 -0.3598  0.3674
  927MOL0     H27926   3.127   4.161  11.112 -1.0885  3.0282  0.8213
  928MOL0     O27927   1.106   1.615   6.440 -0.2069 -0.2825  1.1717
  928MOL0     C27928   1.097   1.715   6.505 -0.3598  0.3415  0.6280
  928MOL0     O27929   1.090   1.722   6.643  0.4027  0.4798 -0.4844
  928MOL0     C27930   1.111   1.592   6.692 -0.5869 -0.6055  0.1293
  928MOL0     C27931   1.237   1.564   6.748  0.0252 -0.4190  0.1535
  928MOL0     C27932   1.258   1.439   6.811  0.4327  1.0796  0.2741
  928MOL0     C27933   1.147   1.346   6.818  0.1765 -0.7400  0.3421
  928MOL0     O27934   1.171   1.234   6.882  0.0567 -0.2815 -0.1804
  928MOL0     C27935   1.065   1.177   6.958  0.5222  0.0000 -0.1287
  928MOL0     C27936   1.118   1.086   7.071  0.3321 -0.0356 -0.5875
  928MOL0     C27937   1.222   0.983   7.024 -0.3375  0.3059  0.0740
  928MOL0     C27938   1.157   0.857   6.952  0.0369 -0.9639  0.0136
  928MOL0     C27939   1.248   0.749   6.884  0.1497  0.0293  1.0389
  928MOL0     C27940   1.320   0.777   6.753 -0.5473  0.4335 -0.0613
  928MOL0     C27941   1.436   0.870   6.776  0.0013  0.5070 -0.1090
  928MOL0     C27942   1.517   0.871   6.645  0.3335  0.4607 -1.0239
  928MOL0     N27943   1.439   0.946   6.553  0.3995  0.5564  0.3923
  928MOL0     C27944   1.422   1.076   6.549 -0.2920  1.1030 -1.0250
  928MOL0     C27945   1.320   1.095   6.455  0.0006 -0.0773 -0.1974
  928MOL0     C27946   1.288   1.243   6.432 -0.1152  0.2313  0.1137
  928MOL0     C27947   1.135   1.276   6.434 -0.0357 -0.9639 -1.4347
  928MOL0     C27948   1.070   1.252   6.303  0.7844  0.1884  0.6195
  928MOL0     C27949   0.933   1.330   6.290 -0.2302  0.1319  0.8269
  928MOL0     O27950   0.893   1.330   6.149  0.9976  1.0067 -0.1524
  928MOL0     C27951   0.944   1.425   6.064  0.5961 -0.8633 -0.2451
  928MOL0     C27952   1.050   1.506   6.098  0.1320  1.4561 -0.2112
  928MOL0     C27953   1.086   1.610   6.014  0.2712  0.3493  0.5461
  928MOL0     C27954   1.208   1.681   6.045 -0.4916  0.3049 -0.3362
  928MOL0     C27955   1.022   1.635   5.898  0.9009 -0.6566  0.5070
  928MOL0     C27956   1.036   1.758   5.817 -1.2523  0.9961  0.4044
  928MOL0     O27957   0.929   1.843   5.814 -0.2360 -0.3293  0.0109
  928MOL0     C27958   0.944   1.956   5.750 -0.1959  0.2854 -0.2106
  928MOL0     C27959   0.983   1.955   5.615  0.4965 -0.3905 -0.7257
  928MOL0     C27960   0.990   2.075   5.549  0.0746 -0.1717 -0.2982
  928MOL0     C27961   0.971   2.197   5.621 -0.0010  0.3807 -1.2781
  928MOL0     O27962   0.992   2.319   5.561  0.3586  0.8258 -0.1942
  928MOL0     C27963   0.927   2.334   5.437 -0.4869 -0.6455  0.4480
  928MOL0     C27964   0.893   2.477   5.405  0.6816  0.4244 -1.3272
  928MOL0     C27965   1.019   2.556   5.379  1.7500 -0.0913 -0.6893
  928MOL0     C27966   0.984   2.687   5.308 -0.2508  0.3963  0.1240
  928MOL0     C27967   1.095   2.786   5.295 -0.0880 -0.7154  0.4406
  928MOL0     C27968   1.185   2.820   5.411  0.3247  0.2822 -0.0774
  928MOL0     C27969   1.123   2.896   5.524  0.5132  0.1535 -0.0556
  928MOL0     C27970   1.047   3.020   5.480  0.6049  0.7453 -0.4871
  928MOL0    Cl27971   1.149   3.136   5.376 -0.3509 -0.5222 -0.3192
  928MOL0     C27972   0.922   2.197   5.755 -1.1726  0.2734  0.7349
  928MOL0     C27973   0.914   2.079   5.817  0.0162  0.1877  0.2111
  928MOL0     O27974   1.146   1.788   5.780  0.0748  0.1703 -0.3035
  928MOL0     C27975   0.927   1.539   5.849  0.9942  0.3839  0.3193
  928MOL0     C27976   0.883   1.439   5.935  0.2665  0.3596  0.5178
  928MOL0     N27977   1.284   0.979   6.392  0.3502  0.3345 -0.6079
  928MOL0     N27978   1.355   0.890   6.456 -0.4039  0.3670 -0.1884
  928MOL0     C27979   1.023   1.388   6.765 -0.6074  0.2228 -0.7723
  928MOL0     C27980   1.002   1.511   6.701  0.6249  0.4754 -0.2196
  928MOL0     C27981   1.083   1.842   6.432  0.5850 -0.7321  0.0954
  928MOL0     C27982   1.045   1.828   6.295  0.3336 -0.3816  0.1433
  928MOL0     C27983   1.049   1.929   6.210  0.3510 -0.0446  0.2374
  928MOL0     C27984   1.087   2.055   6.255  0.1257  0.0219 -0.5926
  928MOL0     O27985   1.087   2.155   6.157 -1.0437  0.2054  0.0740
  928MOL0     C27986   1.055   2.294   6.200  0.3346 -0.5968 -0.3684
  928MOL0     C27987   1.081   2.384   6.079  0.2371 -1.0359  0.2986
  928MOL0     C27988   1.222   2.439   6.073 -0.6848 -0.1151  0.3958
  928MOL0     C27989   1.242   2.593   6.061  0.4416  0.2696  0.2508
  928MOL0     C27990   1.194   2.640   5.933  0.0939  0.6155  0.0589
  928MOL0     C27991   1.149   2.672   5.825 -0.1997  0.4286 -0.4468
  928MOL0     C27992   1.125   2.075   6.390  0.7572 -0.4582 -0.4656
  928MOL0     C27993   1.132   1.971   6.483  0.1593 -0.6945  0.8016
  928MOL0     C27994   1.178   2.000   6.629 -0.2361  1.2599 -0.7536
  928MOL0     H27995   1.324   1.629   6.750 -0.8932  0.8399  1.6377
  928MOL0     H27996   1.346   1.427   6.874  0.4350 -1.3759 -0.1012
  928MOL0     H27997   1.002   1.116   6.892  0.2104  0.5410 -0.3407
  928MOL0     H27998   1.011   1.258   7.008  2.4169  1.4437 -0.3259
  928MOL0     H27999   1.163   1.132   7.159  0.6860 -1.0077 -0.2464
  928MOL0     H28000   1.035   1.027   7.112  1.3078 -1.7908 -1.0028
  928MOL0     H28001   1.304   1.027   6.967  1.1191  1.3353  2.7668
  928MOL0     H28002   1.278   0.949   7.112 -2.0283 -0.2080  0.9904
  928MOL0     H28003   1.095   0.806   7.027 -2.6130  2.0876  0.1624
  928MOL0     H28004   1.086   0.895   6.877  1.9309  3.0956  0.0092
  928MOL0     H28005   1.184   0.663   6.863 -1.4081  0.2516  4.2392
  928MOL0     H28006   1.315   0.714   6.963  0.8425  0.2051  0.5364
  928MOL0     H28007   1.353   0.680   6.714 -0.2326  0.6728 -0.4011
  928MOL0     H28008   1.251   0.824   6.683 -1.0167 -0.9138 -0.5433
  928MOL0     H28009   1.490   0.823   6.860 -1.5126 -0.1028  0.5565
  928MOL0     H28010   1.385   0.964   6.797 -3.3087 -0.7417 -1.8616
  928MOL0     H28011   1.619   0.911   6.653  1.2380 -1.3228 -2.6688
  928MOL0     H28012   1.524   0.776   6.591  1.0188  0.0546 -0.2390
  928MOL0     H28013   1.474   1.155   6.603  1.7889  0.4856 -2.0337
  928MOL0     H28014   1.335   1.270   6.337 -2.8725  1.1021 -1.1074
  928MOL0     H28015   1.337   1.300   6.512 -0.2313 -0.7100  0.8691
  928MOL0     H28016   1.075   1.233   6.514  0.6138  1.2353  0.3578
  928MOL0     H28017   1.133   1.382   6.462 -1.2742 -1.6192  1.2933
  928MOL0     H28018   1.133   1.288   6.222  3.0221  2.9975  3.3608
  928MOL0     H28019   1.051   1.144   6.298 -2.9348  0.6557  1.6737
  928MOL0     H28020   0.843   1.285   6.331  1.2743 -2.5934  1.4019
  928MOL0     H28021   0.948   1.426   6.339 -0.9733  1.1792 -0.8988
  928MOL0     H28022   1.092   1.496   6.197 -2.5366  0.5088  0.9197
  928MOL0     H28023   1.289   1.644   5.982 -0.6498 -2.3132  0.8609
  928MOL0     H28024   1.231   1.664   6.151 -0.7689 -0.4970 -0.3938
  928MOL0     H28025   1.195   1.789   6.033 -1.7578  0.3043  0.6827
  928MOL0     H28026   1.007   1.863   5.563  4.3007 -1.4932  2.4725
  928MOL0     H28027   1.032   2.061   5.450  1.0659 -1.3070  0.2578
  928MOL0     H28028   0.983   2.278   5.361 -1.7337 -0.7825 -0.4054
  928MOL0     H28029   0.831   2.287   5.461 -0.2248  0.0505  3.2333
  928MOL0     H28030   0.832   2.487   5.315 -2.3143 -0.7156  0.4537
  928MOL0     H28031   0.833   2.528   5.480  2.0251 -0.5179  0.4695
  928MOL0     H28032   1.077   2.494   5.311  0.0042 -1.7094 -0.7951
  928MOL0     H28033   1.061   2.572   5.479  0.7283  3.2625 -0.6795
  928MOL0     H28034   0.895   2.734   5.350 -2.4767 -0.6383 -3.0496
  928MOL0     H28035   0.978   2.656   5.203 -0.2765  0.4371  0.1136
  928MOL0     H28036   1.160   2.728   5.229  0.6667 -0.9734  1.3852
  928MOL0     H28037   1.048   2.874   5.249 -1.8325 -1.4744  0.6952
  928MOL0     H28038   1.274   2.872   5.374 -0.0669  0.4834 -0.7505
  928MOL0     H28039   1.216   2.725   5.454  2.3372  1.2989  0.8511
  928MOL0     H28040   1.195   2.917   5.604 -1.8347  1.3429  1.8557
  928MOL0     H28041   1.051   2.826   5.568 -0.8837  3.0787  2.7224
  928MOL0     H28042   1.007   3.088   5.556 -0.4477  0.9162 -1.1749
  928MOL0     H28043   0.964   2.990   5.415  2.4006 -2.8399 -1.3633
  928MOL0     H28044   0.892   2.283   5.814 -0.8482 -0.0646  1.3958
  928MOL0     H28045   0.891   2.066   5.922 -0.7661 -1.5774 -0.1365
  928MOL0     H28046   0.877   1.552   5.754 -1.1194  0.9001  1.4391
  928MOL0     H28047   0.809   1.369   5.898  2.9347 -1.7431 -1.2390
  928MOL0     H28048   0.943   1.315   6.775 -0.0694 -0.0847  2.1588
  928MOL0     H28049   0.903   1.538   6.666 -0.8401 -1.3745  2.1637
  928MOL0     H28050   1.013   1.731   6.259  0.5335  0.0043 -1.0990
  928MOL0     H28051   1.016   1.914   6.108  1.2329 -2.2866  0.2190
  928MOL0     H28052   0.951   2.312   6.229  0.8641  0.4065  1.0267
  928MOL0     H28053   1.115   2.320   6.288 -2.2883 -1.8215  1.9319
  928MOL0     H28054   1.015   2.471   6.086 -0.2528 -1.3524 -0.2769
  928MOL0     H28055   1.053   2.336   5.985 -3.9343 -2.3529  1.9686
  928MOL0     H28056   1.283   2.403   6.156  3.0264 -0.8681 -2.3952
  928MOL0     H28057   1.261   2.390   5.983 -2.4814  2.3564 -1.9226
  928MOL0     H28058   1.346   2.629   6.061  0.1844  1.3039 -2.9695
  928MOL0     H28059   1.191   2.633   6.149  2.4164  2.2593  0.5878
  928MOL0     H28060   1.106   2.690   5.728  0.3637  2.1791 -0.4141
  928MOL0     H28061   1.133   2.174   6.433 -0.9309 -0.8270  0.7944
  928MOL0     H28062   1.272   1.946   6.646 -0.3609 -0.0634 -3.6946
  928MOL0     H28063   1.196   2.108   6.636 -3.5808  1.7864  3.0801
  928MOL0     H28064   1.106   1.972   6.706  0.9177 -3.0526 -0.9875
  929MOL0     O28065  10.226   8.241   0.146 -0.4884  0.0823  0.7159
  929MOL0     C28066  10.264   8.123   0.161  0.8345  0.1385  0.4475
  929MOL0     O28067  10.303   8.067   0.286  0.3702  0.2543  0.9458
  929MOL0     C28068  10.290   8.142   0.406  0.2284 -0.9495 -0.6246
  929MOL0     C28069  10.170   8.212   0.438  0.1335  0.6849 -0.1891
  929MOL0     C28070  10.159   8.294   0.557  0.9939 -0.5980  0.1458
  929MOL0     C28071  10.261   8.293   0.643 -0.0211  1.0768 -0.0377
  929MOL0     O28072  10.245   8.352   0.763 -0.0561 -0.2803  0.0824
  929MOL0     C28073  10.168   8.277   0.862 -1.5761  0.1714 -0.1549
  929MOL0     C28074  10.161   8.367   0.990 -0.1345 -0.7467 -0.3060
  929MOL0     C28075  10.128   8.283   1.115  0.3370  0.3915  0.6024
  929MOL0     C28076  10.066   8.356   1.239  0.6737  0.0297  0.5634
  929MOL0     C28077  10.074   8.268   1.359  0.2802  1.2552  0.7250
  929MOL0     C28078   9.965   8.313   1.464  0.7268 -0.5614  0.2017
  929MOL0     C28079   9.982   8.239   1.598 -0.2646 -0.2002  0.4341
  929MOL0     C28080  10.088   8.296   1.702 -0.4426 -0.6605 -1.0883
  929MOL0     N28081  10.024   8.416   1.752  0.5654  0.0521 -0.4707
  929MOL0     C28082  10.071   8.544   1.725  0.0059 -0.2722  0.2088
  929MOL0     C28083  10.002   8.630   1.798  0.0501  0.2134 -0.4077
  929MOL0     C28084   9.996   8.781   1.799  0.2083  0.4883  0.2638
  929MOL0     C28085  10.002   8.836   1.655 -0.2529 -0.3634 -0.6707
  929MOL0     C28086   9.981   8.994   1.673 -0.9868  0.6192 -0.1397
  929MOL0     C28087   9.977   9.070   1.546  0.4656  0.8290  0.1495
  929MOL0     O28088  10.105   9.057   1.480 -0.2630  0.2518 -0.9536
  929MOL0     C28089  10.155   9.156   1.407 -0.3746 -0.7885 -0.2157
  929MOL0     C28090  10.115   9.292   1.414 -0.3849  0.1141 -0.2203
  929MOL0     C28091  10.174   9.394   1.341  0.0880 -0.4737 -0.4477
  929MOL0     C28092  10.114   9.527   1.346 -0.0828 -0.1262 -0.5350
  929MOL0     C28093  10.283   9.352   1.264  0.4647  0.1106  0.5429
  929MOL0     C28094  10.365   9.457   1.192 -0.0838 -0.4899  1.5499
  929MOL0     O28095  10.457   9.413   1.094 -0.1454 -0.7737  0.5171
  929MOL0     C28096  10.548   9.489   1.026 -1.7514 -0.2603  0.0270
  929MOL0     C28097  10.609   9.615   1.077 -0.1641 -0.3030 -0.0761
  929MOL0     C28098  10.712   9.683   1.018 -0.1324 -0.8521 -0.2952
  929MOL0     C28099  10.758   9.626   0.899  0.1185  0.0406 -0.0966
  929MOL0     O28100  10.867   9.689   0.839 -0.2084 -0.4018  0.4181
  929MOL0     C28101  10.891   9.663   0.706  0.1415  0.5981 -0.2792
  929MOL0     C28102  10.960   9.774   0.629 -0.5216 -0.5414  0.7987
  929MOL0     C28103  11.094   9.832   0.691  0.1140 -0.5635  0.3605
  929MOL0     C28104  11.140   9.950   0.606 -0.4495  0.7316 -0.4715
  929MOL0     C28105  11.257  10.034   0.671 -0.1874 -1.3309  0.6416
  929MOL0     C28106  11.310  10.138   0.565  1.0260  0.8143  0.5432
  929MOL0     C28107  11.434  10.209   0.612  1.1454 -0.2889  0.6554
  929MOL0     C28108  11.481  10.330   0.527 -0.5828  0.1224  0.2357
  929MOL0    Cl28109  11.621  10.423   0.607 -0.1236 -0.3719  0.0718
  929MOL0     C28110  10.707   9.502   0.847 -0.1708  0.1638 -0.0855
  929MOL0     C28111  10.604   9.430   0.906 -0.4843 -0.2777 -1.0696
  929MOL0     O28112  10.340   9.571   1.204  1.3523 -0.7776  1.0118
  929MOL0     C28113  10.313   9.216   1.244  0.2709  0.0319  0.8479
  929MOL0     C28114  10.253   9.120   1.323 -0.5219 -0.6224 -0.7563
  929MOL0     N28115   9.914   8.547   1.866  0.4722 -0.5771  0.4756
  929MOL0     N28116   9.927   8.425   1.847 -0.1999  0.1442  0.1208
  929MOL0     C28117  10.376   8.226   0.618  0.0675  0.3073  1.0072
  929MOL0     C28118  10.391   8.162   0.493  0.4562  1.0791  0.4186
  929MOL0     C28119  10.272   8.035   0.039 -0.5948  0.2613  0.1422
  929MOL0     C28120  10.295   7.897   0.067 -0.0376 -1.4596  0.3534
  929MOL0     C28121  10.307   7.799  -0.030  0.4507  0.6180  0.0557
  929MOL0     C28122  10.287   7.834  -0.164  0.5178 -0.6673 -0.2349
  929MOL0     O28123  10.319   7.742  -0.265  0.3316  0.6160 -0.2911
  929MOL0     C28124  10.214   7.646  -0.300 -0.1397  0.7191 -0.7640
  929MOL0     C28125  10.112   7.701  -0.396  0.0844  1.1240 -0.4378
  929MOL0     C28126  10.172   7.733  -0.541  0.2582  0.9497 -0.5991
  929MOL0     C28127  10.081   7.815  -0.626  0.4777 -0.5106  0.2815
  929MOL0     C28128   9.970   7.726  -0.646 -0.2144 -1.1514 -0.8125
  929MOL0     C28129   9.877   7.660  -0.676  0.5855 -0.1015 -0.7708
  929MOL0     C28130  10.245   7.964  -0.192 -0.3174  0.6133 -0.1650
  929MOL0     C28131  10.241   8.065  -0.096  0.9959 -0.5568 -0.2878
  929MOL0     C28132  10.210   8.199  -0.146  0.6686  0.0802 -0.2725
  929MOL0     H28133  10.080   8.205   0.377  0.7134  0.8179 -1.0854
  929MOL0     H28134  10.073   8.357   0.576 -1.3042 -2.8434 -1.9702
  929MOL0     H28135  10.210   8.180   0.890  0.9123  0.8016 -1.4066
  929MOL0     H28136  10.067   8.249   0.829 -1.1249 -0.2803 -1.1874
  929MOL0     H28137  10.258   8.416   1.004  0.3481 -1.0209 -2.3297
  929MOL0     H28138  10.086   8.446   0.981  0.0586 -0.0179  3.1951
  929MOL0     H28139  10.056   8.214   1.072  1.1095  1.0660 -1.9160
  929MOL0     H28140  10.217   8.227   1.143 -0.8550 -1.1067  1.5996
  929MOL0     H28141  10.123   8.445   1.267 -3.0137  2.3786  1.4384
  929MOL0     H28142   9.965   8.386   1.209  0.8740 -0.9679 -1.2507
  929MOL0     H28143  10.174   8.277   1.402  1.1365 -3.3178  0.1866
  929MOL0     H28144  10.060   8.163   1.330  2.2519  1.4922 -1.2849
  929MOL0     H28145   9.961   8.421   1.484 -1.9563 -0.2365 -1.5661
  929MOL0     H28146   9.862   8.294   1.430  0.1682  2.5260 -0.1892
  929MOL0     H28147  10.010   8.136   1.576 -1.0294 -0.4925  0.7997
  929MOL0     H28148   9.882   8.220   1.639  0.8715 -3.1343  2.1459
  929MOL0     H28149  10.113   8.228   1.785 -2.1529 -3.0272 -2.3991
  929MOL0     H28150  10.189   8.314   1.664  0.2333  1.9777  1.5722
  929MOL0     H28151  10.141   8.573   1.648 -1.8030  1.0253 -1.0403
  929MOL0     H28152  10.085   8.808   1.856 -0.2265 -1.0911  1.7785
  929MOL0     H28153   9.907   8.813   1.854  2.0949  1.1913  3.1541
  929MOL0     H28154  10.104   8.819   1.620  0.0816  2.0399 -1.0181
  929MOL0     H28155   9.935   8.796   1.579  0.4833 -1.4401 -0.7751
  929MOL0     H28156   9.897   9.010   1.742 -1.1357 -1.2005  0.1575
  929MOL0     H28157  10.072   9.026   1.724 -1.5536  0.9475  0.7031
  929MOL0     H28158   9.888   9.045   1.488  0.8003 -0.0430 -0.0069
  929MOL0     H28159   9.953   9.169   1.587 -1.8361 -0.0825  1.1781
  929MOL0     H28160  10.024   9.314   1.469 -1.6260  0.2548 -2.2016
  929MOL0     H28161  10.086   9.574   1.252 -1.6437 -1.3667 -0.7315
  929MOL0     H28162  10.185   9.595   1.395 -2.4812  1.0318  1.5856
  929MOL0     H28163  10.025   9.540   1.408 -0.7495 -1.0243 -1.2825
  929MOL0     H28164  10.562   9.666   1.161  0.9144  0.2481  0.2161
  929MOL0     H28165  10.752   9.774   1.061 -2.4272 -0.9168  2.1963
  929MOL0     H28166  10.936   9.564   0.695  1.4885  1.1706 -0.1053
  929MOL0     H28167  10.791   9.659   0.663  0.5941  6.4028 -2.8089
  929MOL0     H28168  10.980   9.739   0.528  0.9421  0.5749  0.6643
  929MOL0     H28169  10.894   9.861   0.637 -1.3633 -1.2789  2.4148
  929MOL0     H28170  11.171   9.758   0.716  1.9949  1.7367  1.7458
  929MOL0     H28171  11.067   9.877   0.787  3.3507 -0.7271  1.4435
  929MOL0     H28172  11.061  10.025   0.595 -0.1838  1.3321  1.4137
  929MOL0     H28173  11.181   9.932   0.506  0.8049  1.8185 -0.1848
  929MOL0     H28174  11.233  10.089   0.762  0.7483  3.6539 -1.8100
  929MOL0     H28175  11.339   9.969   0.701  0.6799  0.5686  2.6373
  929MOL0     H28176  11.230  10.208   0.540  0.3309  0.0844  0.6751
  929MOL0     H28177  11.344  10.076   0.481  0.5046 -0.7507  1.4542
  929MOL0     H28178  11.515  10.135   0.616 -1.8699 -4.2830 -2.6944
  929MOL0     H28179  11.423  10.247   0.713  1.6736  1.7869 -0.0222
  929MOL0     H28180  11.391  10.391   0.512 -1.7359 -1.2692  1.2200
  929MOL0     H28181  11.506  10.298   0.426 -3.1824  2.6296 -1.3550
  929MOL0     H28182  10.744   9.462   0.753 -0.1621  1.6573 -0.7454
  929MOL0     H28183  10.581   9.326   0.888 -0.6029 -1.3778  4.0055
  929MOL0     H28184  10.388   9.181   1.174  0.7194  3.8852 -0.8287
  929MOL0     H28185  10.299   9.022   1.312  0.9407  0.1376 -1.6200
  929MOL0     H28186  10.466   8.243   0.676  0.8742  2.1214 -0.6289
  929MOL0     H28187  10.485   8.123   0.454 -0.3270  1.0618 -1.5503
  929MOL0     H28188  10.297   7.865   0.170 -0.1745 -0.5612  0.6431
  929MOL0     H28189  10.337   7.698  -0.005  0.4345  0.3894 -0.8203
  929MOL0     H28190  10.246   7.552  -0.345 -2.5834 -0.8439  0.5581
  929MOL0     H28191  10.178   7.616  -0.201  2.3389  1.2858  0.3804
  929MOL0     H28192  10.063   7.794  -0.365  2.2925  2.1927  0.0458
  929MOL0     H28193  10.039   7.621  -0.413  1.7748 -0.3247 -1.2339
  929MOL0     H28194  10.274   7.768  -0.525  1.0582 -1.7495  0.8242
  929MOL0     H28195  10.181   7.631  -0.581 -2.0965 -0.0449  1.1504
  929MOL0     H28196  10.124   7.844  -0.722 -2.6323  2.0984 -0.4780
  929MOL0     H28197  10.052   7.902  -0.567  3.2122  0.3657  0.4632
  929MOL0     H28198   9.795   7.590  -0.673  1.8139 -1.6270 -1.3036
  929MOL0     H28199  10.217   7.990  -0.294 -0.6661  1.6143  0.1748
  929MOL0     H28200  10.262   8.284  -0.102 -0.1619 -0.5133  2.0569
  929MOL0     H28201  10.233   8.212  -0.252  0.6787 -1.6166 -0.5172
  929MOL0     H28202  10.108   8.229  -0.118 -0.7802 -2.7746 -1.9794
  930MOL0     O28203   7.651   6.739   4.541 -0.1320 -0.1017 -0.3264
  930MOL0     C28204   7.548   6.791   4.580  0.2878  0.6967  0.3478
  930MOL0     O28205   7.511   6.818   4.703  0.4716  0.3228 -0.5784
  930MOL0     C28206   7.607   6.823   4.803  0.4915  0.7007  0.3381
  930MOL0     C28207   7.552   6.809   4.928 -0.2262 -0.0190 -0.1996
  930MOL0     C28208   7.636   6.815   5.050 -0.4284 -0.0948  0.6985
  930MOL0     C28209   7.769   6.848   5.035  0.1395 -0.6043 -0.2745
  930MOL0     O28210   7.838   6.842   5.149 -0.1279  0.3733  0.0486
  930MOL0     C28211   7.972   6.886   5.158 -0.1325 -0.1361  0.7608
  930MOL0     C28212   8.026   6.846   5.297 -0.1299 -0.1842  0.2971
  930MOL0     C28213   8.163   6.916   5.307 -1.6516  0.5774 -0.9658
  930MOL0     C28214   8.270   6.851   5.222  0.5819  0.2928 -0.1693
  930MOL0     C28215   8.412   6.890   5.264  0.3311  0.1687  0.3193
  930MOL0     C28216   8.438   7.041   5.276  0.1869  0.1437 -0.6455
  930MOL0     C28217   8.588   7.064   5.286  0.9115 -0.0355  0.5177
  930MOL0     C28218   8.639   7.037   5.424 -0.6877  0.4924  0.1213
  930MOL0     N28219   8.784   7.059   5.448  0.3560  0.7358 -0.1245
  930MOL0     C28220   8.883   6.987   5.384 -0.1930 -0.8935  0.5534
  930MOL0     C28221   8.998   7.013   5.448 -0.3755 -0.0392  1.0136
  930MOL0     C28222   9.127   6.946   5.422 -0.0617  0.1273  0.5538
  930MOL0     C28223   9.223   7.013   5.317  0.3396 -0.2852  0.4045
  930MOL0     C28224   9.299   7.137   5.378 -0.3043 -0.4951  0.7179
  930MOL0     C28225   9.400   7.189   5.285  0.3596  0.3331  0.2639
  930MOL0     O28226   9.325   7.234   5.169  0.0052  0.3143 -0.1680
  930MOL0     C28227   9.371   7.307   5.065  0.2168  0.1430  0.1459
  930MOL0     C28228   9.304   7.347   4.947 -1.7626  0.4593 -0.3026
  930MOL0     C28229   9.361   7.415   4.839  0.0906  0.4367  0.3162
  930MOL0     C28230   9.276   7.425   4.708 -0.9747 -0.1826  0.8879
  930MOL0     C28231   9.491   7.463   4.861  0.2175  0.4720  0.0125
  930MOL0     C28232   9.557   7.544   4.758 -0.2606  0.5678 -0.2129
  930MOL0     O28233   9.557   7.676   4.789 -0.2579 -0.3346 -0.2169
  930MOL0     C28234   9.597   7.781   4.701 -0.3379 -0.6317 -0.1291
  930MOL0     C28235   9.620   7.905   4.751  0.4701 -0.6878 -0.4340
  930MOL0     C28236   9.654   8.014   4.663 -0.6029  0.4948 -0.6583
  930MOL0     C28237   9.635   8.009   4.524  0.9671  0.0382 -0.1048
  930MOL0     O28238   9.635   8.112   4.439  0.4841 -0.4959  0.3702
  930MOL0     C28239   9.690   8.238   4.473 -0.0712 -0.6455  0.4415
  930MOL0     C28240   9.693   8.344   4.350 -0.6860 -0.7073 -0.3966
  930MOL0     C28241   9.820   8.422   4.367  0.4375 -0.0002 -0.4500
  930MOL0     C28242   9.826   8.540   4.271  0.3299  0.4949  0.5290
  930MOL0     C28243   9.968   8.575   4.244 -0.4857 -0.0414 -0.2666
  930MOL0     C28244   9.979   8.709   4.175 -0.7213  0.0118 -0.1541
  930MOL0     C28245  10.004   8.822   4.261  0.5526 -0.4198  1.0757
  930MOL0     C28246  10.026   8.939   4.166  0.3337  0.3139  0.2499
  930MOL0    Cl28247   9.894   8.982   4.070  0.1878  0.1538  0.4941
  930MOL0     C28248   9.593   7.885   4.474 -1.1615  0.2198  0.8970
  930MOL0     C28249   9.583   7.776   4.560 -0.0806 -0.5522  0.9066
  930MOL0     O28250   9.584   7.497   4.645  0.1609  0.0019 -0.4588
  930MOL0     C28251   9.557   7.418   4.976 -0.9449 -0.4703 -0.2457
  930MOL0     C28252   9.502   7.343   5.083  0.4400 -0.7097  1.0128
  930MOL0     N28253   8.969   7.093   5.559  0.3319  0.2499  0.4204
  930MOL0     N28254   8.839   7.118   5.554  0.9492 -0.2264  0.3219
  930MOL0     C28255   7.822   6.863   4.907  0.0431 -0.5578  0.7001
  930MOL0     C28256   7.743   6.848   4.787  0.2632 -0.2017  1.1252
  930MOL0     C28257   7.437   6.790   4.489  0.4717  0.0617 -0.4000
  930MOL0     C28258   7.374   6.674   4.458  0.6289  0.0716 -0.2651
  930MOL0     C28259   7.277   6.671   4.362  0.2435 -0.3019  0.6786
  930MOL0     C28260   7.235   6.784   4.297  0.6755  0.8838 -0.2223
  930MOL0     O28261   7.139   6.752   4.204 -0.2087 -0.2483 -0.4564
  930MOL0     C28262   7.059   6.852   4.148  0.6815  0.9088 -0.3294
  930MOL0     C28263   6.964   6.763   4.053 -0.2426 -0.5145 -0.4519
  930MOL0     C28264   6.889   6.854   3.959 -0.8679 -0.1380 -0.1431
  930MOL0     C28265   6.786   6.943   4.042  0.5133 -0.7786  0.2417
  930MOL0     C28266   6.679   7.006   3.962 -0.4602  0.0717  0.9200
  930MOL0     C28267   6.616   7.074   3.884 -0.7825  0.2277  0.5849
  930MOL0     C28268   7.272   6.917   4.344 -0.6866  0.6231 -1.1026
  930MOL0     C28269   7.379   6.913   4.435 -0.4816  0.3796  0.0566
  930MOL0     C28270   7.439   7.037   4.482 -0.6768 -0.3068  0.3061
  930MOL0     H28271   7.445   6.789   4.935 -0.0288 -0.5315  2.5302
  930MOL0     H28272   7.582   6.798   5.143  0.9671 -1.7804  1.2694
  930MOL0     H28273   7.986   6.995   5.153  2.9450  0.0972  6.0133
  930MOL0     H28274   8.036   6.833   5.087  1.3696  1.4430  0.8414
  930MOL0     H28275   7.954   6.891   5.365 -2.2777 -0.9932 -1.3175
  930MOL0     H28276   8.030   6.737   5.308 -2.1367 -0.2482  0.7214
  930MOL0     H28277   8.155   7.019   5.271  0.8069  0.2795 -2.6000
  930MOL0     H28278   8.209   6.933   5.404 -0.0600  2.7385 -2.0087
  930MOL0     H28279   8.258   6.742   5.224  0.7346  0.1985 -2.2448
  930MOL0     H28280   8.258   6.888   5.119  1.4181 -0.3992 -0.5252
  930MOL0     H28281   8.476   6.854   5.183  0.2711  0.3175  0.2061
  930MOL0     H28282   8.446   6.843   5.356 -0.2562  1.9783  1.5250
  930MOL0     H28283   8.409   7.091   5.183 -2.6392  2.2340  1.1695
  930MOL0     H28284   8.379   7.093   5.353  3.0657  0.9586  1.1732
  930MOL0     H28285   8.591   7.162   5.237 -0.6668 -0.6368 -0.8561
  930MOL0     H28286   8.639   6.997   5.217  1.1995  1.5982 -0.9175
  930MOL0     H28287   8.584   7.100   5.495 -0.0742 -0.8534  1.8410
  930MOL0     H28288   8.620   6.934   5.455 -1.7558  1.2198  2.0252
  930MOL0     H28289   8.867   6.931   5.292 -3.4513 -0.1733  0.5538
  930MOL0     H28290   9.112   6.845   5.383 -1.7679 -0.5851  2.8526
  930MOL0     H28291   9.189   6.935   5.511  1.6761 -1.0462 -0.7266
  930MOL0     H28292   9.297   6.937   5.292 -1.6430 -2.0927 -0.2255
  930MOL0     H28293   9.181   7.038   5.220  2.9821 -1.9951 -1.3051
  930MOL0     H28294   9.229   7.218   5.403  0.8297  0.4232  1.0159
  930MOL0     H28295   9.351   7.114   5.471 -2.2371 -0.4142  1.8740
  930MOL0     H28296   9.474   7.256   5.331  0.1952 -1.3270  3.1977
  930MOL0     H28297   9.465   7.105   5.261  0.0546  0.4542 -1.0268
  930MOL0     H28298   9.211   7.294   4.929  0.2592 -2.8800 -1.7683
  930MOL0     H28299   9.223   7.521   4.717 -1.1823 -0.1687 -0.3318
  930MOL0     H28300   9.207   7.341   4.701 -2.3446  0.8451  1.4893
  930MOL0     H28301   9.336   7.439   4.618 -2.4356  1.8494  0.1570
  930MOL0     H28302   9.625   7.928   4.856 -0.8560  0.8446 -0.6699
  930MOL0     H28303   9.676   8.111   4.705 -3.2333  1.4181 -1.2633
  930MOL0     H28304   9.627   8.293   4.543 -1.9067 -1.1429 -0.7528
  930MOL0     H28305   9.789   8.213   4.510 -0.9071 -1.3098  2.3231
  930MOL0     H28306   9.686   8.296   4.253  2.1651 -0.7953 -0.6242
  930MOL0     H28307   9.616   8.421   4.365 -2.8579 -1.9882 -3.8249
  930MOL0     H28308   9.899   8.351   4.339 -1.0040 -1.1779 -1.7170
  930MOL0     H28309   9.834   8.444   4.473 -1.2688 -1.2377  0.0649
  930MOL0     H28310   9.759   8.616   4.312  0.3998  1.0847 -0.4355
  930MOL0     H28311   9.774   8.512   4.179 -0.1418 -0.9013  1.1943
  930MOL0     H28312  10.023   8.557   4.336 -2.2357  2.9117  1.5218
  930MOL0     H28313   9.991   8.502   4.166  0.4562 -0.3543  0.2892
  930MOL0     H28314   9.883   8.726   4.125 -0.3552 -0.2333 -0.9436
  930MOL0     H28315  10.049   8.699   4.092  0.0453 -0.4888  0.5352
  930MOL0     H28316  10.086   8.816   4.333  0.4500  0.5137  1.2897
  930MOL0     H28317   9.924   8.858   4.327  0.0458 -1.9894  1.3546
  930MOL0     H28318  10.109   8.912   4.099 -0.8962 -3.5172  0.0172
  930MOL0     H28319  10.055   9.022   4.232 -0.8845 -0.7127  2.1782
  930MOL0     H28320   9.568   7.869   4.369 -2.6476  0.2260  1.2208
  930MOL0     H28321   9.549   7.683   4.516  1.4638 -0.3821 -0.7478
  930MOL0     H28322   9.658   7.457   4.988 -0.9580 -0.6783  0.6304
  930MOL0     H28323   9.573   7.331   5.165  2.0577  2.8826  0.3712
  930MOL0     H28324   7.929   6.870   4.892 -0.1377  0.2007 -0.4221
  930MOL0     H28325   7.795   6.865   4.693  1.1919  1.7256  1.9284
  930MOL0     H28326   7.400   6.572   4.484 -2.9791 -1.2194 -1.1005
  930MOL0     H28327   7.233   6.580   4.323  0.2737 -0.0671  0.0861
  930MOL0     H28328   7.004   6.899   4.230 -1.5045  3.2196 -2.9193
  930MOL0     H28329   7.114   6.922   4.083  3.1813 -0.8352 -0.2102
  930MOL0     H28330   6.891   6.711   4.116  1.4142 -2.3772  0.0151
  930MOL0     H28331   7.012   6.685   3.994  1.1986 -0.0891  0.1041
  930MOL0     H28332   6.961   6.912   3.899 -2.4019  1.9427 -0.0900
  930MOL0     H28333   6.829   6.790   3.894 -0.7569  0.5157 -0.9163
  930MOL0     H28334   6.827   7.025   4.102 -2.2838  1.3539 -0.5322
  930MOL0     H28335   6.737   6.886   4.122 -0.0993 -0.6629 -0.0397
  930MOL0     H28336   6.558   7.136   3.819  0.8926  0.8355 -0.3943
  930MOL0     H28337   7.227   7.011   4.314  0.3251  2.1692  1.8170
  930MOL0     H28338   7.399   7.126   4.431  3.6972  0.5586 -2.0943
  930MOL0     H28339   7.415   7.037   4.588 -0.3879 -3.3386  0.4682
  930MOL0     H28340   7.546   7.047   4.463 -0.7220  2.3445  1.0056
  931MOL0     O28341   0.772   9.153   8.789  0.7588  0.4758  0.0519
  931MOL0     C28342   0.826   9.054   8.826 -0.0362 -1.0190  0.4301
  931MOL0     O28343   0.890   8.964   8.749  0.9532  0.5180 -0.0271
  931MOL0     C28344   0.870   8.958   8.616 -0.6855 -0.0134 -0.2802
  931MOL0     C28345   0.984   8.916   8.534 -0.2093  0.1152 -0.6816
  931MOL0     C28346   0.963   8.890   8.403 -0.6348 -0.2229  0.7006
  931MOL0     C28347   0.846   8.927   8.330  0.5530  0.7499 -0.4767
  931MOL0     O28348   0.837   8.934   8.190 -0.4845  0.3804 -0.0474
  931MOL0     C28349   0.875   8.814   8.121 -0.0531 -0.3332  0.6909
  931MOL0     C28350   0.846   8.824   7.971  1.1465  1.1459  0.4234
  931MOL0     C28351   0.692   8.821   7.954  0.0298  0.6778 -0.4076
  931MOL0     C28352   0.650   8.881   7.819  0.0396 -1.2262 -0.6917
  931MOL0     C28353   0.532   8.798   7.760  0.1882  0.7086 -0.3399
  931MOL0     C28354   0.469   8.872   7.633  0.6422 -0.6335 -0.5122
  931MOL0     C28355   0.319   8.834   7.614 -0.2529  0.1390 -0.4023
  931MOL0     C28356   0.244   8.923   7.509 -0.6012  0.5439 -0.1843
  931MOL0     N28357   0.302   8.907   7.369  0.0686  0.2532 -0.1602
  931MOL0     C28358   0.256   8.806   7.281  0.3557  0.6877 -0.5159
  931MOL0     C28359   0.347   8.794   7.180 -0.5945  0.0996  0.0077
  931MOL0     C28360   0.351   8.714   7.060  0.3496  0.3832 -1.3553
  931MOL0     C28361   0.319   8.567   7.095  0.6232  1.3547 -0.1260
  931MOL0     C28362   0.387   8.473   6.998  0.1403  0.4364  0.0167
  931MOL0     C28363   0.537   8.473   7.009  0.1423 -0.7829 -0.1273
  931MOL0     O28364   0.578   8.371   7.107 -0.6804  0.2701 -0.3423
  931MOL0     C28365   0.668   8.416   7.197  0.3647  0.2454 -0.3173
  931MOL0     C28366   0.797   8.366   7.193 -0.2030 -0.4290 -0.3827
  931MOL0     C28367   0.895   8.416   7.276  0.9947  0.8867  0.6593
  931MOL0     C28368   1.035   8.365   7.258 -0.2677  0.0150 -1.0874
  931MOL0     C28369   0.861   8.518   7.372  0.1033  0.2814  0.1573
  931MOL0     C28370   0.969   8.573   7.454 -0.0123  1.1180 -0.0407
  931MOL0     O28371   0.950   8.558   7.584 -0.2569  0.6495 -0.2386
  931MOL0     C28372   1.035   8.640   7.657 -0.6978 -0.3313 -0.0677
  931MOL0     C28373   1.022   8.784   7.651  1.1833 -0.5413 -0.0728
  931MOL0     C28374   1.103   8.858   7.741  0.0945  0.2802  0.8395
  931MOL0     C28375   1.195   8.796   7.825 -0.5217 -0.2414 -1.2394
  931MOL0     O28376   1.259   8.862   7.928 -0.3453  0.0936  0.3273
  931MOL0     C28377   1.244   9.008   7.930 -0.0166 -0.3937 -0.9576
  931MOL0     C28378   1.344   9.077   8.027  0.0562 -1.0256  0.3371
  931MOL0     C28379   1.352   9.026   8.175  0.1237  0.0043  0.6827
  931MOL0     C28380   1.269   9.114   8.266  0.2159 -0.1381 -0.5816
  931MOL0     C28381   1.287   9.078   8.415  0.7659 -0.1799  0.0317
  931MOL0     C28382   1.410   9.151   8.483  0.5879 -0.1380  1.1090
  931MOL0     C28383   1.453   9.082   8.612 -0.1316 -1.4565 -0.1891
  931MOL0     C28384   1.534   9.172   8.710  0.0951  0.8419 -0.2588
  931MOL0    Cl28385   1.695   9.195   8.616  0.2991 -0.4740 -0.3035
  931MOL0     C28386   1.195   8.661   7.830  0.1066  0.3584 -0.3626
  931MOL0     C28387   1.121   8.581   7.752 -0.0810  0.5901 -0.1032
  931MOL0     O28388   1.066   8.618   7.396  0.6279  0.2714  0.1147
  931MOL0     C28389   0.722   8.557   7.383 -0.1577 -0.4436 -1.0440
  931MOL0     C28390   0.627   8.494   7.304  0.9390 -0.1005  0.4383
  931MOL0     N28391   0.444   8.890   7.209 -0.6512 -1.1157  0.1911
  931MOL0     N28392   0.423   8.955   7.321 -0.4846  0.2760  0.6557
  931MOL0     C28393   0.739   8.960   8.411 -0.4133  1.0301 -0.3511
  931MOL0     C28394   0.753   8.973   8.551  0.9913  0.0116  0.9996
  931MOL0     C28395   0.831   9.043   8.973 -0.4429 -0.4432  0.1937
  931MOL0     C28396   0.827   9.163   9.055  0.0794  0.8072  0.4646
  931MOL0     C28397   0.836   9.173   9.193  0.5128 -0.4991 -0.4105
  931MOL0     C28398   0.866   9.058   9.260  0.8170 -0.4709  0.4552
  931MOL0     O28399   0.879   9.070   9.398 -1.1012 -0.4699  0.6633
  931MOL0     C28400   0.858   8.956   9.477 -0.1791 -0.4943  0.2842
  931MOL0     C28401   0.873   8.981   9.626 -0.2786 -0.3649  0.1764
  931MOL0     C28402   1.021   9.025   9.668  0.1603  0.3194 -0.6533
  931MOL0     C28403   1.090   8.917   9.758  0.2406  0.3234 -0.0373
  931MOL0     C28404   1.132   8.808   9.680 -0.2075  0.2944 -0.8458
  931MOL0     C28405   1.175   8.710   9.619  1.1779 -0.6207  0.1764
  931MOL0     C28406   0.865   8.932   9.189 -0.6991 -0.1537  0.7028
  931MOL0     C28407   0.850   8.923   9.048 -0.3803  0.0835  0.6462
  931MOL0     C28408   0.870   8.785   8.988 -0.1318 -0.1162  0.2837
  931MOL0     H28409   1.073   8.910   8.596  1.3300 -0.7429 -2.8740
  931MOL0     H28410   1.044   8.837   8.355  2.0151  1.2657  3.2059
  931MOL0     H28411   0.840   8.721   8.166  1.5936 -0.1204  2.5804
  931MOL0     H28412   0.985   8.812   8.121 -0.0410 -0.4906  1.8171
  931MOL0     H28413   0.896   8.913   7.931  1.6072  0.3394 -0.8603
  931MOL0     H28414   0.887   8.737   7.919 -0.6255 -0.3855  1.4570
  931MOL0     H28415   0.653   8.719   7.946 -1.2985  1.2799 -2.5533
  931MOL0     H28416   0.633   8.864   8.035 -1.0149 -1.5341  0.0786
  931MOL0     H28417   0.622   8.985   7.835  1.0895 -1.0739  0.2582
  931MOL0     H28418   0.729   8.869   7.744  0.3674  1.9743 -0.9943
  931MOL0     H28419   0.454   8.787   7.836  2.4838  1.9938  2.4377
  931MOL0     H28420   0.581   8.704   7.735  5.6045  2.6408  1.5234
  931MOL0     H28421   0.466   8.976   7.667  0.3307 -0.6142 -0.5908
  931MOL0     H28422   0.523   8.846   7.541  3.0526  1.4558  0.2148
  931MOL0     H28423   0.262   8.845   7.707  0.7707 -0.2043  0.2736
  931MOL0     H28424   0.307   8.730   7.581 -0.9514  1.1455 -3.6448
  931MOL0     H28425   0.135   8.912   7.511 -0.7690  2.0486  2.0114
  931MOL0     H28426   0.262   9.026   7.540 -0.8008  0.2879  0.8264
  931MOL0     H28427   0.160   8.756   7.290 -1.0231  3.2092 -0.2417
  931MOL0     H28428   0.443   8.712   7.001  0.8626  0.4298 -0.5773
  931MOL0     H28429   0.276   8.761   6.996 -1.4975  0.1114  0.4926
  931MOL0     H28430   0.357   8.534   7.193  0.5997  0.9846 -0.2385
  931MOL0     H28431   0.211   8.551   7.088  1.0791 -1.5388 -2.5636
  931MOL0     H28432   0.349   8.377   7.035 -1.3401  1.3031  0.8593
  931MOL0     H28433   0.363   8.492   6.893 -1.1611 -2.8305 -0.3825
  931MOL0     H28434   0.574   8.459   6.907  0.5220 -0.1692 -0.0800
  931MOL0     H28435   0.582   8.566   7.043 -0.8066 -1.0656  2.1073
  931MOL0     H28436   0.825   8.291   7.119  1.5580 -0.9377  0.7356
  931MOL0     H28437   1.075   8.361   7.360  0.3507 -1.0070 -1.3452
  931MOL0     H28438   1.089   8.430   7.188 -0.9292  0.7187 -0.9530
  931MOL0     H28439   1.049   8.261   7.225 -0.8521 -0.2751 -0.4386
  931MOL0     H28440   0.952   8.839   7.588 -0.1407 -0.8005  1.1006
  931MOL0     H28441   1.078   8.964   7.739  1.8575  0.7223 -1.6810
  931MOL0     H28442   1.253   9.059   7.834 -0.6828  1.1601 -0.2441
  931MOL0     H28443   1.143   9.039   7.959  0.9469  2.2755 -0.1428
  931MOL0     H28444   1.446   9.073   7.987  0.5505  3.0559  0.7770
  931MOL0     H28445   1.324   9.184   8.034  1.9865 -0.6838  1.3131
  931MOL0     H28446   1.458   9.040   8.198  0.2709  2.3733 -0.9943
  931MOL0     H28447   1.304   8.929   8.188 -0.4606  0.3212  0.9977
  931MOL0     H28448   1.163   9.101   8.240  0.2293  0.8136 -1.1663
  931MOL0     H28449   1.287   9.221   8.253 -0.3408  0.1390  0.7197
  931MOL0     H28450   1.202   9.114   8.473  1.3791 -3.3690  3.2787
  931MOL0     H28451   1.286   8.969   8.411 -1.2607 -0.1914 -0.0958
  931MOL0     H28452   1.388   9.255   8.508 -0.0442  0.2132 -0.7244
  931MOL0     H28453   1.493   9.142   8.411  0.8988 -0.0298  1.4543
  931MOL0     H28454   1.519   8.997   8.588  0.9725 -1.2076  1.7947
  931MOL0     H28455   1.363   9.038   8.656  0.1661 -2.0391 -0.1461
  931MOL0     H28456   1.566   9.109   8.793  1.9242  1.1593 -0.6847
  931MOL0     H28457   1.487   9.266   8.742 -2.0073 -0.3831  0.4375
  931MOL0     H28458   1.255   8.617   7.909  0.9471  1.0351 -0.6066
  931MOL0     H28459   1.120   8.472   7.750 -2.1263  0.5717 -0.1287
  931MOL0     H28460   0.682   8.626   7.456  0.8289  2.0486 -2.7120
  931MOL0     H28461   0.523   8.524   7.294  1.0371  0.1401  0.1258
  931MOL0     H28462   0.641   8.965   8.364 -1.0066 -2.4274  0.2525
  931MOL0     H28463   0.655   8.986   8.596 -0.5554 -3.3105 -1.0172
  931MOL0     H28464   0.799   9.256   9.007  0.7853 -0.6388 -3.0514
  931MOL0     H28465   0.823   9.272   9.235 -1.6372 -0.5264 -0.8858
  931MOL0     H28466   0.758   8.915   9.459 -0.0664  0.0028 -1.7219
  931MOL0     H28467   0.924   8.870   9.460 -1.0685 -0.8956 -1.3815
  931MOL0     H28468   0.838   8.900   9.692 -2.7859  0.5264  0.0690
  931MOL0     H28469   0.799   9.059   9.646 -0.4529 -0.6748  0.7667
  931MOL0     H28470   1.087   9.033   9.582 -1.1015  1.9063 -1.5186
  931MOL0     H28471   1.029   9.120   9.723 -0.9736  1.1598 -1.8982
  931MOL0     H28472   1.016   8.883   9.832  2.6100  1.8281  3.2412
  931MOL0     H28473   1.172   8.962   9.813 -0.7052  1.2045  0.6862
  931MOL0     H28474   1.193   8.623   9.558  2.3125  0.2342 -0.7564
  931MOL0     H28475   0.875   8.836   9.237  0.3601 -0.4198 -0.0190
  931MOL0     H28476   0.944   8.786   8.907 -0.4538 -3.5952 -0.2338
  931MOL0     H28477   0.895   8.712   9.065  0.6879  1.7793  1.8860
  931MOL0     H28478   0.773   8.771   8.940  0.2150  2.1862 -1.2257
  932MOL0     O28479   7.658   0.931   8.485  0.1147 -0.6231  0.3742
  932MOL0     C28480   7.734   1.003   8.419  0.4136  0.8927  0.6171
  932MOL0     O28481   7.822   0.954   8.324  0.1794  0.4068 -0.0232
  932MOL0     C28482   7.853   0.816   8.325  0.1323 -0.2935 -0.4409
  932MOL0     C28483   7.823   0.733   8.219 -0.2681  0.1011  0.1411
  932MOL0     C28484   7.855   0.596   8.239 -0.3092  0.4729  0.1192
  932MOL0     C28485   7.922   0.547   8.354  0.2211  0.0663 -0.0299
  932MOL0     O28486   7.945   0.411   8.372  0.1543 -0.5747 -0.5175
  932MOL0     C28487   7.863   0.315   8.297  0.0548 -0.0627  0.2895
  932MOL0     C28488   7.904   0.173   8.332  0.7275 -0.1649  0.4584
  932MOL0     C28489   7.874   0.137   8.470  0.3319 -0.0975  0.5045
  932MOL0     C28490   7.726   0.130   8.502  0.5817  0.3748  0.9470
  932MOL0     C28491   7.698   0.074   8.644 -0.5993 -0.5457 -0.4630
  932MOL0     C28492   7.765   0.153   8.749 -0.3300  0.3421  0.4895
  932MOL0     C28493   7.729   0.312   8.751 -0.4661  0.9060  0.5728
  932MOL0     C28494   7.780   0.378   8.873 -0.1031 -0.1334 -0.9481
  932MOL0     N28495   7.926   0.405   8.865 -0.0986 -1.0493  0.1479
  932MOL0     C28496   7.980   0.515   8.797  0.4312  0.0119  0.6394
  932MOL0     C28497   8.113   0.506   8.812 -0.1747  1.3790  0.5443
  932MOL0     C28498   8.204   0.602   8.748  0.1919  0.6424 -0.6499
  932MOL0     C28499   8.342   0.530   8.716  0.1562 -0.6479 -0.4764
  932MOL0     C28500   8.434   0.566   8.826  0.2458  0.4968 -0.6293
  932MOL0     C28501   8.567   0.490   8.822 -0.6307  0.2752  0.5933
  932MOL0     O28502   8.646   0.528   8.708  0.7159 -0.0916 -0.1209
  932MOL0     C28503   8.747   0.446   8.665  0.5678  0.8520 -0.5557
  932MOL0     C28504   8.782   0.458   8.527 -0.4633 -0.1146  0.2908
  932MOL0     C28505   8.881   0.375   8.475  0.0581 -0.5255 -0.1257
  932MOL0     C28506   8.917   0.406   8.323  0.9084 -0.0311  0.9488
  932MOL0     C28507   8.955   0.282   8.560  0.7522  0.2417 -0.0935
  932MOL0     C28508   9.075   0.200   8.527 -0.9044  0.2343  0.5203
  932MOL0     O28509   9.127   0.118   8.624 -0.3744  0.1664 -0.6224
  932MOL0     C28510   9.227   0.028   8.593  0.1488  0.7349 -1.2378
  932MOL0     C28511   9.351   0.041   8.670 -0.5035 -0.5288  0.1958
  932MOL0     C28512   9.457  -0.047   8.653  0.4453  0.5292  0.2771
  932MOL0     C28513   9.449  -0.143   8.544 -0.5855  0.3344 -0.3558
  932MOL0     O28514   9.550  -0.229   8.525  0.4184  0.0919 -0.2470
  932MOL0     C28515   9.598  -0.257   8.392 -0.5455 -0.0156 -0.4167
  932MOL0     C28516   9.723  -0.342   8.408 -0.8088 -0.8053 -0.2147
  932MOL0     C28517   9.682  -0.479   8.458  0.4138  0.6047 -0.3231
  932MOL0     C28518   9.666  -0.585   8.349 -0.0271 -0.4682  0.8468
  932MOL0     C28519   9.804  -0.614   8.304 -0.9326 -0.3794 -0.3005
  932MOL0     C28520   9.790  -0.694   8.172 -0.8917  0.6936  0.9253
  932MOL0     C28521   9.924  -0.729   8.111  0.4135  0.5969 -0.2932
  932MOL0     C28522   9.987  -0.615   8.060 -0.2625  0.0059 -0.4888
  932MOL0    Cl28523  10.129  -0.663   7.951 -0.3330  0.1008 -0.2779
  932MOL0     C28524   9.328  -0.154   8.475  0.6834  0.0612 -0.1224
  932MOL0     C28525   9.217  -0.071   8.503 -0.6554 -0.2011  0.0292
  932MOL0     O28526   9.121   0.203   8.411  0.0088  0.7146 -0.6521
  932MOL0     C28527   8.902   0.267   8.695 -1.0299  0.0631 -0.1899
  932MOL0     C28528   8.808   0.353   8.747 -0.3246  0.7043 -0.4164
  932MOL0     N28529   8.149   0.396   8.894  0.2492 -0.3352  1.0818
  932MOL0     N28530   8.032   0.343   8.936 -0.0322 -0.4894  0.2856
  932MOL0     C28531   7.965   0.640   8.441 -0.0930 -0.3559 -0.1963
  932MOL0     C28532   7.936   0.771   8.437 -0.1157  0.2254 -0.5057
  932MOL0     C28533   7.730   1.150   8.455  0.1615  0.1921  0.3598
  932MOL0     C28534   7.828   1.222   8.397 -0.0778 -0.1374  1.1873
  932MOL0     C28535   7.846   1.359   8.424  0.0613  0.2479  0.3684
  932MOL0     C28536   7.759   1.431   8.512 -0.8386 -0.1608 -1.2067
  932MOL0     O28537   7.759   1.566   8.534  0.2831  0.1396  0.1949
  932MOL0     C28538   7.881   1.621   8.589 -0.4021  0.0932 -0.3036
  932MOL0     C28539   7.955   1.691   8.485  0.4469 -0.0400  0.2173
  932MOL0     C28540   7.863   1.771   8.386 -0.3673 -0.3713 -0.1511
  932MOL0     C28541   7.941   1.871   8.304 -0.3595  0.7771 -0.0582
  932MOL0     C28542   7.982   1.986   8.380 -0.0709  0.6160 -0.7849
  932MOL0     C28543   8.019   2.081   8.445  0.8715  0.6102 -0.0577
  932MOL0     C28544   7.661   1.349   8.574 -0.0746 -0.3559 -0.0916
  932MOL0     C28545   7.649   1.213   8.551  0.8426  0.3658 -0.0435
  932MOL0     C28546   7.552   1.144   8.626  0.4882  1.0212  0.6612
  932MOL0     H28547   7.768   0.779   8.138 -0.2611  2.3521  1.3155
  932MOL0     H28548   7.836   0.534   8.152  2.1988 -1.2797  0.7060
  932MOL0     H28549   7.890   0.323   8.192  0.0422  0.4619  0.3261
  932MOL0     H28550   7.754   0.321   8.309 -0.1199 -1.4145 -0.4391
  932MOL0     H28551   7.844   0.111   8.265 -1.2587  0.9620  1.1069
  932MOL0     H28552   8.011   0.170   8.310  0.3297  3.0213 -3.0110
  932MOL0     H28553   7.931   0.045   8.488  3.1283  0.9795 -1.9159
  932MOL0     H28554   7.921   0.212   8.534  0.2171  0.3973  0.0171
  932MOL0     H28555   7.691   0.233   8.493  0.4560  0.1432 -4.1265
  932MOL0     H28556   7.670   0.068   8.431 -0.1579  0.8005  1.1551
  932MOL0     H28557   7.744  -0.024   8.655  5.8826  2.2018  1.9036
  932MOL0     H28558   7.590   0.081   8.664 -0.8967  0.3629 -2.1692
  932MOL0     H28559   7.739   0.102   8.842  0.1312  0.4459  0.6781
  932MOL0     H28560   7.872   0.138   8.738 -0.1576  2.8175 -2.6201
  932MOL0     H28561   7.622   0.318   8.732 -0.4201 -2.6532 -1.7404
  932MOL0     H28562   7.770   0.353   8.658 -0.8092 -2.6644 -1.3178
  932MOL0     H28563   7.726   0.470   8.899 -0.4660 -1.3804  3.5443
  932MOL0     H28564   7.771   0.310   8.958 -0.3048 -5.0325 -4.4943
  932MOL0     H28565   7.930   0.592   8.739  0.2206 -0.0201  0.7766
  932MOL0     H28566   8.223   0.677   8.825  0.5907  1.3358 -1.4238
  932MOL0     H28567   8.158   0.642   8.657  1.1069  3.5262  0.0690
  932MOL0     H28568   8.339   0.421   8.709  2.7784 -0.7895 -0.4246
  932MOL0     H28569   8.379   0.559   8.617  2.3257 -0.3997  0.3458
  932MOL0     H28570   8.438   0.673   8.846 -1.1870  0.4013  0.3238
  932MOL0     H28571   8.375   0.528   8.910  2.0406  2.4381  1.6655
  932MOL0     H28572   8.611   0.522   8.917 -1.1841  1.5021  0.4544
  932MOL0     H28573   8.540   0.384   8.831 -0.8066  0.2430 -0.2737
  932MOL0     H28574   8.731   0.532   8.466 -1.5646 -0.6560  0.5230
  932MOL0     H28575   8.926   0.310   8.271  0.0455 -2.1155  4.2881
  932MOL0     H28576   9.013   0.457   8.330 -0.4184  2.4770  2.3040
  932MOL0     H28577   8.848   0.470   8.267 -1.6551 -3.9830 -0.9154
  932MOL0     H28578   9.362   0.117   8.747  3.5284 -3.1461  2.5333
  932MOL0     H28579   9.543  -0.033   8.718  0.2840 -0.8972  0.8519
  932MOL0     H28580   9.520  -0.313   8.340 -1.8605  2.4000 -1.2305
  932MOL0     H28581   9.605  -0.161   8.339 -0.3102  0.5276  0.5633
  932MOL0     H28582   9.779  -0.332   8.314 -1.5795  1.1798 -0.5288
  932MOL0     H28583   9.774  -0.289   8.489 -0.4467  0.2697 -1.1253
  932MOL0     H28584   9.587  -0.470   8.511 -1.7755  1.3501 -3.9854
  932MOL0     H28585   9.766  -0.506   8.523  1.5375 -1.4441 -2.4570
  932MOL0     H28586   9.610  -0.534   8.270  1.3814  1.5870  1.1120
  932MOL0     H28587   9.598  -0.667   8.378 -3.1634  1.1447 -1.3295
  932MOL0     H28588   9.874  -0.532   8.282 -0.1692 -1.2388 -1.1509
  932MOL0     H28589   9.844  -0.674   8.386 -1.2349 -0.6986 -0.3850
  932MOL0     H28590   9.734  -0.625   8.108 -2.4763  1.3497  2.9025
  932MOL0     H28591   9.742  -0.791   8.189  0.9127  0.1001  3.0872
  932MOL0     H28592   9.906  -0.809   8.039  1.1626  1.8326 -1.9132
  932MOL0     H28593   9.992  -0.771   8.187 -0.2647  0.0567  0.0257
  932MOL0     H28594  10.028  -0.553   8.141 -0.5567 -0.1650 -0.2065
  932MOL0     H28595   9.916  -0.556   8.002 -1.0586  0.3253  0.7649
  932MOL0     H28596   9.316  -0.240   8.410  0.8505 -1.1817  1.4227
  932MOL0     H28597   9.130  -0.079   8.439 -0.8069 -1.0724  0.3184
  932MOL0     H28598   8.949   0.197   8.764 -0.9111  1.0072  0.7128
  932MOL0     H28599   8.773   0.333   8.848 -1.2539  0.1474 -0.8368
  932MOL0     H28600   8.030   0.606   8.522 -0.4168 -2.8860 -0.9290
  932MOL0     H28601   7.968   0.834   8.519 -0.3529 -1.9659  1.3836
  932MOL0     H28602   7.905   1.182   8.332  0.4177  0.5013  1.3725
  932MOL0     H28603   7.932   1.406   8.377 -0.6816  0.6531 -0.6262
  932MOL0     H28604   7.856   1.695   8.666  0.8939 -1.9431  2.2582
  932MOL0     H28605   7.940   1.548   8.645 -1.9862 -0.0897  1.2305
  932MOL0     H28606   8.004   1.616   8.422  1.0862 -0.2912  0.9890
  932MOL0     H28607   8.039   1.747   8.528  0.1793  0.3246  0.2661
  932MOL0     H28608   7.830   1.694   8.316  2.6426 -0.6734 -1.3860
  932MOL0     H28609   7.777   1.819   8.435  0.0075  0.5823 -0.3959
  932MOL0     H28610   7.870   1.915   8.234 -0.5503 -0.2682 -0.5474
  932MOL0     H28611   8.033   1.825   8.266 -0.2180  1.3875 -0.4619
  932MOL0     H28612   8.046   2.165   8.506 -2.4436 -0.2757  2.9616
  932MOL0     H28613   7.587   1.392   8.641 -0.2985 -1.1213  0.1541
  932MOL0     H28614   7.601   1.082   8.701  4.0160  4.2489  1.3905
  932MOL0     H28615   7.492   1.206   8.694 -1.5873 -0.3632  0.1761
  932MOL0     H28616   7.479   1.096   8.561  1.6308 -0.8858  0.7223
  933MOL0     O28617   6.291  10.143   4.997  0.1246  0.5834  0.4855
  933MOL0     C28618   6.409  10.092   4.987  0.6792  0.2811  0.6034
  933MOL0     O28619   6.451   9.975   5.039  0.0707  0.6871 -0.1069
  933MOL0     C28620   6.374   9.933   5.142  0.1965  0.3042  0.5500
  933MOL0     C28621   6.372   9.996   5.269  0.1332  0.0116  0.3585
  933MOL0     C28622   6.298   9.936   5.377 -0.0358 -0.1431  0.1516
  933MOL0     C28623   6.218   9.830   5.356 -0.0566 -0.9281 -0.1295
  933MOL0     O28624   6.139   9.778   5.461  0.2781 -0.4638  0.2234
  933MOL0     C28625   5.993   9.794   5.445 -0.1803 -0.4747 -0.8450
  933MOL0     C28626   5.919   9.741   5.577 -1.6228  0.1935  0.5156
  933MOL0     C28627   5.774   9.790   5.599  1.0472  0.4888  0.0277
  933MOL0     C28628   5.711   9.881   5.497  0.0862 -0.1119 -0.0685
  933MOL0     C28629   5.583   9.937   5.562  0.3077  0.1834  0.9137
  933MOL0     C28630   5.477   9.979   5.464 -0.9374 -0.3905 -0.1335
  933MOL0     C28631   5.332   9.974   5.525  0.6513 -0.3903 -0.4982
  933MOL0     C28632   5.297  10.120   5.571 -0.1869 -0.4602  1.1651
  933MOL0     N28633   5.291  10.228   5.469 -0.1868 -0.9178 -0.0966
  933MOL0     C28634   5.235  10.209   5.342 -0.3799  0.1197 -0.0659
  933MOL0     C28635   5.273  10.321   5.273  0.2527 -0.2666 -0.4583
  933MOL0     C28636   5.234  10.367   5.137 -0.1520  0.5464 -0.3867
  933MOL0     C28637   5.159  10.499   5.126 -0.8186 -0.3385  0.5882
  933MOL0     C28638   5.039  10.511   5.221  0.6177 -0.9682 -0.5587
  933MOL0     C28639   4.940  10.396   5.210  0.1142  1.2273  0.0207
  933MOL0     O28640   4.812  10.454   5.248 -0.4483 -0.1824  0.2798
  933MOL0     C28641   4.759  10.440   5.373  0.2979 -0.1911  0.0086
  933MOL0     C28642   4.625  10.468   5.392 -0.5200 -0.0525 -0.1908
  933MOL0     C28643   4.561  10.451   5.517  0.5276 -0.6712 -0.6152
  933MOL0     C28644   4.415  10.498   5.528  0.3351 -0.4077 -0.3095
  933MOL0     C28645   4.633  10.391   5.622 -0.4344 -0.8865 -0.6863
  933MOL0     C28646   4.578  10.365   5.762  0.0211 -0.9790  0.5171
  933MOL0     O28647   4.648  10.275   5.834  0.4742  0.0502  0.2137
  933MOL0     C28648   4.625  10.242   5.968 -0.2976 -0.2994  0.3349
  933MOL0     C28649   4.502  10.236   6.023 -0.5431 -0.2711 -0.2901
  933MOL0     C28650   4.490  10.219   6.161  0.7516 -1.0492  0.7012
  933MOL0     C28651   4.603  10.195   6.237  0.0445 -0.4613  0.1937
  933MOL0     O28652   4.581  10.185   6.375 -0.1958  0.6889  0.3070
  933MOL0     C28653   4.692  10.179   6.469 -0.0691 -0.6376  1.0864
  933MOL0     C28654   4.660  10.241   6.603 -0.1337  0.5870 -0.4430
  933MOL0     C28655   4.555  10.153   6.688 -1.0562  0.1411 -0.6923
  933MOL0     C28656   4.520  10.218   6.825  0.4165 -0.6925 -0.2020
  933MOL0     C28657   4.404  10.151   6.897  0.2094 -0.3467 -1.1494
  933MOL0     C28658   4.355  10.225   7.025 -0.5354  1.0620  1.0454
  933MOL0     C28659   4.257  10.132   7.096 -0.7012  0.0290 -0.2173
  933MOL0     C28660   4.197  10.208   7.214  0.6262  0.9866  0.5243
  933MOL0    Cl28661   4.341  10.256   7.317  0.6158 -0.7000 -0.1471
  933MOL0     C28662   4.733  10.188   6.188 -0.0204 -0.1067 -0.7051
  933MOL0     C28663   4.743  10.223   6.047  0.5034 -0.6316 -0.4582
  933MOL0     O28664   4.475  10.415   5.792  0.1373 -0.5911 -0.0895
  933MOL0     C28665   4.775  10.359   5.605  0.0594  0.1624 -0.1342
  933MOL0     C28666   4.845  10.392   5.482 -0.2075  0.7924  0.1193
  933MOL0     N28667   5.347  10.406   5.353  0.9232 -0.3041  0.4240
  933MOL0     N28668   5.359  10.355   5.470  0.3512  0.2287  0.0351
  933MOL0     C28669   6.207   9.784   5.222 -0.0057  0.5462  0.3963
  933MOL0     C28670   6.280   9.837   5.115  0.4493 -0.6381 -0.3288
  933MOL0     C28671   6.506  10.180   4.902 -0.3525  0.0838 -0.3178
  933MOL0     C28672   6.476  10.310   4.863 -0.3259  0.3705  1.1859
  933MOL0     C28673   6.560  10.393   4.787 -0.4382  0.0541  0.3674
  933MOL0     C28674   6.688  10.346   4.754  0.5045 -0.9934  0.6971
  933MOL0     O28675   6.791  10.416   4.696 -0.5336 -0.4736 -0.7530
  933MOL0     C28676   6.813  10.536   4.758  0.0383 -0.0704  1.0546
  933MOL0     C28677   6.941  10.531   4.836 -0.5151  0.3991  0.1625
  933MOL0     C28678   6.976  10.663   4.896  0.7235  0.1301 -1.5433
  933MOL0     C28679   7.064  10.684   5.018  0.2488  0.4299  0.2509
  933MOL0     C28680   7.200  10.620   4.993 -0.2872  0.1008 -0.0052
  933MOL0     C28681   7.307  10.586   4.959  0.1957 -0.1153  0.1270
  933MOL0     C28682   6.729  10.216   4.792  0.3754  0.1913 -1.0010
  933MOL0     C28683   6.636  10.133   4.864 -0.3533  0.1619  0.2113
  933MOL0     C28684   6.685   9.991   4.882  0.2041  0.3408 -0.1965
  933MOL0     H28685   6.442  10.072   5.301  2.1113 -2.6472  2.8004
  933MOL0     H28686   6.298   9.976   5.477  2.0051 -0.4698  0.3405
  933MOL0     H28687   5.949   9.754   5.353  1.6794 -1.8573 -1.1967
  933MOL0     H28688   5.978   9.901   5.427  2.1484 -0.3921 -2.7924
  933MOL0     H28689   5.944   9.636   5.561  2.7925  1.0988  0.2236
  933MOL0     H28690   5.969   9.784   5.664 -3.3877  1.4911  0.9451
  933MOL0     H28691   5.710   9.704   5.620  2.4310 -0.4393  0.5635
  933MOL0     H28692   5.783   9.853   5.688 -0.5583 -2.1157  2.1706
  933MOL0     H28693   5.772   9.970   5.480 -2.2469  1.9218  1.5698
  933MOL0     H28694   5.694   9.840   5.397 -0.3871 -0.1487  0.0248
  933MOL0     H28695   5.602  10.030   5.617 -0.9831  0.3351  1.1442
  933MOL0     H28696   5.544   9.865   5.634  0.1445 -1.5035 -0.7850
  933MOL0     H28697   5.515  10.074   5.427  1.1616 -0.8027  0.8302
  933MOL0     H28698   5.481   9.905   5.384  0.4961 -0.0982 -0.3538
  933MOL0     H28699   5.323   9.912   5.615 -2.5578  2.7815  1.5775
  933MOL0     H28700   5.260   9.937   5.451  0.1602 -1.8130  0.6238
  933MOL0     H28701   5.207  10.127   5.632  1.8103 -0.9285  4.4515
  933MOL0     H28702   5.376  10.157   5.638  3.9959 -0.4181 -3.2580
  933MOL0     H28703   5.170  10.129   5.309 -0.9760  0.5799 -0.0290
  933MOL0     H28704   5.177  10.291   5.083  1.1904  0.5349 -1.8303
  933MOL0     H28705   5.325  10.372   5.077 -0.1911  2.3053 -0.3529
  933MOL0     H28706   5.233  10.580   5.135 -0.2919 -0.9482  2.0297
  933MOL0     H28707   5.128  10.512   5.022 -0.4676  3.9873  0.8369
  933MOL0     H28708   5.064  10.526   5.327 -1.8693  2.2197 -0.3012
  933MOL0     H28709   4.983  10.597   5.184 -0.1428 -1.4085 -0.4638
  933MOL0     H28710   4.929  10.386   5.102 -2.9350  3.9678 -0.0735
  933MOL0     H28711   4.957  10.302   5.263  1.0500  1.9083  0.9862
  933MOL0     H28712   4.577  10.512   5.306  0.6508  1.3003 -0.1775
  933MOL0     H28713   4.377  10.529   5.430 -1.4235  2.6242  1.2019
  933MOL0     H28714   4.427  10.582   5.597  3.6610 -1.0357  0.0714
  933MOL0     H28715   4.344  10.429   5.574  1.9054 -2.8273 -1.3021
  933MOL0     H28716   4.421  10.261   5.955  1.9265  0.0789 -3.3916
  933MOL0     H28717   4.387  10.220   6.194 -0.7542  2.4629 -3.3767
  933MOL0     H28718   4.726  10.075   6.475 -0.9108 -1.5053 -3.9404
  933MOL0     H28719   4.771  10.246   6.434  0.5099 -1.4580  0.7821
  933MOL0     H28720   4.752  10.242   6.663 -0.0311  0.2823 -0.5933
  933MOL0     H28721   4.635  10.347   6.589 -0.9134  0.6450  1.2278
  933MOL0     H28722   4.611  10.059   6.702  2.5661  1.4312 -4.3670
  933MOL0     H28723   4.471  10.127   6.623 -0.5514  1.3340 -1.8622
  933MOL0     H28724   4.504  10.325   6.812 -0.7908 -0.8366 -0.0485
  933MOL0     H28725   4.601  10.205   6.896  1.1627  0.6542 -0.7751
  933MOL0     H28726   4.323  10.149   6.823  1.0922 -0.1253 -2.1449
  933MOL0     H28727   4.417  10.044   6.917  0.8456 -0.1353 -0.4187
  933MOL0     H28728   4.305  10.320   7.002 -1.3613  0.2381 -0.7955
  933MOL0     H28729   4.441  10.247   7.088  0.3092 -0.4325  0.4541
  933MOL0     H28730   4.308  10.044   7.135 -0.4718 -0.2503 -1.1502
  933MOL0     H28731   4.179  10.092   7.031  1.1227 -1.8354 -1.3642
  933MOL0     H28732   4.130  10.133   7.258 -0.9071 -0.0555 -3.1474
  933MOL0     H28733   4.143  10.292   7.171 -2.7896 -0.2010  2.1441
  933MOL0     H28734   4.821  10.178   6.251  0.7341 -2.2229 -2.0096
  933MOL0     H28735   4.841  10.218   6.000  0.1861 -3.1655 -0.9914
  933MOL0     H28736   4.829  10.326   5.693 -0.3330  2.0822  0.8887
  933MOL0     H28737   4.953  10.377   5.473  0.0567 -0.0566  3.4037
  933MOL0     H28738   6.164   9.685   5.206  0.3542  0.6346 -1.2908
  933MOL0     H28739   6.256   9.815   5.011 -3.5002  0.4857  0.1946
  933MOL0     H28740   6.378  10.350   4.884 -0.1517  1.0216  0.7959
  933MOL0     H28741   6.532  10.494   4.760  0.2650 -0.0849 -0.9436
  933MOL0     H28742   6.838  10.603   4.675 -2.2921  3.7886  3.1553
  933MOL0     H28743   6.732  10.581   4.816  0.3283  2.1263 -0.1344
  933MOL0     H28744   7.020  10.494   4.771 -0.2298 -1.3634  1.4194
  933MOL0     H28745   6.932  10.453   4.913 -1.2136 -0.0841 -0.3922
  933MOL0     H28746   7.008  10.730   4.815  0.3127 -0.8058 -2.5087
  933MOL0     H28747   6.881  10.704   4.931  2.0992 -0.6241  3.9737
  933MOL0     H28748   7.008  10.638   5.100 -0.5390  2.1612  0.7268
  933MOL0     H28749   7.071  10.786   5.055 -2.3108 -0.1445  2.6922
  933MOL0     H28750   7.404  10.549   4.931 -0.1909 -0.5365 -0.7119
  933MOL0     H28751   6.824  10.171   4.767 -0.6998 -1.2693 -2.7166
  933MOL0     H28752   6.755   9.977   4.799 -1.7178  1.1250 -2.0653
  933MOL0     H28753   6.734   9.988   4.979 -1.7430  3.3694  1.0349
  933MOL0     H28754   6.605   9.917   4.882  0.2449  0.2968  0.1872
  934MOL0     O28755   1.421   4.535   3.436 -1.0053 -0.2976  0.2276
  934MOL0     C28756   1.416   4.621   3.347  0.9843  0.1874  0.5643
  934MOL0     O28757   1.464   4.752   3.355  0.5794 -0.0617  0.0865
  934MOL0     C28758   1.535   4.800   3.458 -0.7708 -0.2787  0.0285
  934MOL0     C28759   1.620   4.914   3.427  0.8261  0.3974 -0.4265
  934MOL0     C28760   1.702   4.976   3.520 -0.9491  0.1716  0.2565
  934MOL0     C28761   1.708   4.927   3.653  0.7899 -1.3653  0.6843
  934MOL0     O28762   1.786   4.984   3.747  0.0848  0.1668 -0.2769
  934MOL0     C28763   1.931   4.981   3.712  0.4190 -1.0791 -0.8757
  934MOL0     C28764   1.994   4.853   3.742 -0.0650 -0.2184 -0.2030
  934MOL0     C28765   2.141   4.853   3.720  0.0826 -0.5011  0.9270
  934MOL0     C28766   2.180   4.851   3.575 -0.1154 -0.5215  0.4957
  934MOL0     C28767   2.328   4.821   3.566 -1.0577 -0.1517  0.2103
  934MOL0     C28768   2.368   4.774   3.419  0.7143  0.7907 -1.0705
  934MOL0     C28769   2.507   4.718   3.402 -0.9078 -0.0430  0.8903
  934MOL0     C28770   2.522   4.667   3.268  0.7596 -1.3154  0.0129
  934MOL0     N28771   2.653   4.591   3.266  0.0266  0.0096 -0.4398
  934MOL0     C28772   2.764   4.642   3.206  0.1024 -0.3196 -0.2878
  934MOL0     C28773   2.859   4.562   3.253  0.4789 -0.0538 -0.4718
  934MOL0     C28774   3.012   4.551   3.214  1.1354  0.2479 -1.3261
  934MOL0     C28775   3.098   4.504   3.330 -0.0600 -0.4299 -0.7669
  934MOL0     C28776   3.120   4.354   3.324  0.5872  0.3771  0.7647
  934MOL0     C28777   3.209   4.303   3.433 -0.0416 -0.8485  0.0102
  934MOL0     O28778   3.332   4.378   3.434  1.2107  0.2198 -0.1385
  934MOL0     C28779   3.428   4.355   3.529  0.1606 -1.1613 -0.1946
  934MOL0     C28780   3.546   4.430   3.516  0.3843  0.0242 -0.4574
  934MOL0     C28781   3.652   4.411   3.602 -0.4790  1.9007  0.4767
  934MOL0     C28782   3.773   4.498   3.594 -0.3808  0.1448  0.2887
  934MOL0     C28783   3.641   4.309   3.704 -0.5904 -0.4613 -0.1862
  934MOL0     C28784   3.748   4.285   3.800 -0.1184 -0.3282 -0.0702
  934MOL0     O28785   3.724   4.280   3.936 -0.0867  0.3960 -0.7448
  934MOL0     C28786   3.839   4.280   4.014 -0.1404 -0.9131  0.3937
  934MOL0     C28787   3.934   4.379   4.031  0.0094  0.1760 -0.2722
  934MOL0     C28788   4.034   4.364   4.124 -0.0296  0.7949  0.5584
  934MOL0     C28789   4.052   4.243   4.196 -0.0688  0.1178 -0.3162
  934MOL0     O28790   4.164   4.237   4.276 -0.3003 -0.4770  0.2833
  934MOL0     C28791   4.233   4.107   4.289  0.3552 -0.4206 -0.4166
  934MOL0     C28792   4.328   4.113   4.404 -0.4922  1.0812  0.4454
  934MOL0     C28793   4.262   4.090   4.540 -0.2816  0.0152  0.2981
  934MOL0     C28794   4.244   3.947   4.576 -0.5653 -0.0002 -0.2852
  934MOL0     C28795   4.150   3.932   4.704 -0.6071  0.2533 -0.0577
  934MOL0     C28796   4.086   3.786   4.731  0.0667 -1.0005  0.6484
  934MOL0     C28797   4.186   3.686   4.773  0.2543 -0.5044 -0.9550
  934MOL0     C28798   4.266   3.619   4.655 -0.0702  0.0502 -0.1488
  934MOL0    Cl28799   4.364   3.479   4.702  0.2403  0.1257  0.4232
  934MOL0     C28800   3.950   4.150   4.181  0.7222  0.8405 -1.1788
  934MOL0     C28801   3.846   4.167   4.096 -0.5734 -0.3457  0.2167
  934MOL0     O28802   3.859   4.276   3.752  1.2777 -0.1849 -0.8958
  934MOL0     C28803   3.524   4.238   3.718 -0.9000 -0.0076 -0.2376
  934MOL0     C28804   3.420   4.268   3.634  0.7327  0.7298  0.2840
  934MOL0     N28805   2.803   4.457   3.333  0.3209 -0.8275 -0.4907
  934MOL0     N28806   2.681   4.480   3.343 -0.0562 -0.8022  0.2228
  934MOL0     C28807   1.621   4.822   3.684 -0.6948 -0.1078 -0.5044
  934MOL0     C28808   1.541   4.754   3.594 -0.1354 -0.3008  0.0497
  934MOL0     C28809   1.350   4.589   3.210 -0.1112 -0.0108 -0.0107
  934MOL0     C28810   1.264   4.685   3.161  0.2887 -0.4723 -0.6593
  934MOL0     C28811   1.188   4.659   3.043  0.5849 -0.7001 -0.2563
  934MOL0     C28812   1.198   4.526   2.977 -0.1268 -0.3113  0.1593
  934MOL0     O28813   1.122   4.503   2.868  0.3820 -0.0190 -0.0306
  934MOL0     C28814   1.082   4.379   2.824 -0.1560  0.3276 -0.3479
  934MOL0     C28815   0.997   4.413   2.702 -0.2073  0.4820 -0.3235
  934MOL0     C28816   0.912   4.296   2.631 -0.7341  0.2383  0.0091
  934MOL0     C28817   0.860   4.333   2.491 -0.1705  0.0906  0.3185
  934MOL0     C28818   0.966   4.356   2.392  0.4459  0.2384 -0.5491
  934MOL0     C28819   1.055   4.353   2.311 -0.6640 -0.3981  0.2282
  934MOL0     C28820   1.277   4.429   3.032 -0.1555 -0.6608 -0.7034
  934MOL0     C28821   1.352   4.466   3.145  0.1983 -0.5613  0.0294
  934MOL0     C28822   1.442   4.361   3.191  0.0654 -0.5924  0.4102
  934MOL0     H28823   1.606   4.951   3.325  1.7725  0.3337 -0.5897
  934MOL0     H28824   1.773   5.055   3.496 -2.5225  2.3344  2.3087
  934MOL0     H28825   1.980   5.072   3.750 -1.1771 -0.4966 -0.0759
  934MOL0     H28826   1.944   5.010   3.608 -2.0625  3.2405 -0.2450
  934MOL0     H28827   1.997   4.834   3.850  2.6728  0.0491 -0.1731
  934MOL0     H28828   1.948   4.778   3.677  1.4631  0.8978 -2.7107
  934MOL0     H28829   2.189   4.937   3.771  0.0731  0.1613 -0.1262
  934MOL0     H28830   2.187   4.764   3.765  0.3309 -0.6475  0.3886
  934MOL0     H28831   2.118   4.779   3.521 -1.2027  1.0768 -0.4866
  934MOL0     H28832   2.165   4.951   3.533  2.7815 -0.0685  0.3059
  934MOL0     H28833   2.349   4.738   3.634 -2.3331  0.4532  1.3783
  934MOL0     H28834   2.390   4.903   3.603 -2.0779 -0.3652  2.5438
  934MOL0     H28835   2.301   4.692   3.390  1.4022  0.0818 -0.7131
  934MOL0     H28836   2.337   4.846   3.343 -2.1660  1.4431  0.5879
  934MOL0     H28837   2.523   4.651   3.487  1.7963  0.7716  1.1142
  934MOL0     H28838   2.585   4.794   3.414  0.2996 -0.8075 -1.5112
  934MOL0     H28839   2.432   4.609   3.244  0.6390 -0.4400 -1.8497
  934MOL0     H28840   2.528   4.756   3.205 -0.6761 -1.1640  0.0654
  934MOL0     H28841   2.774   4.725   3.137 -4.9110  0.7098 -0.1266
  934MOL0     H28842   3.055   4.639   3.165  0.0950  3.2972  2.7162
  934MOL0     H28843   3.013   4.486   3.126  0.5151  2.5354 -3.1493
  934MOL0     H28844   3.188   4.565   3.331 -0.1976 -0.2169  0.4160
  934MOL0     H28845   3.053   4.522   3.428  2.0508 -2.0229  0.5660
  934MOL0     H28846   3.017   4.317   3.333 -0.1180  1.6722 -1.3153
  934MOL0     H28847   3.161   4.317   3.229 -1.3958 -0.3041  0.1109
  934MOL0     H28848   3.152   4.324   3.524  2.1098 -0.0776  1.2557
  934MOL0     H28849   3.235   4.198   3.417  1.3886 -0.6159  0.6974
  934MOL0     H28850   3.563   4.503   3.438 -2.3935  1.4193  0.1086
  934MOL0     H28851   3.755   4.577   3.521 -2.8132 -1.4785 -1.0217
  934MOL0     H28852   3.873   4.455   3.581  0.4650  1.3871  2.2224
  934MOL0     H28853   3.784   4.546   3.691  0.4368 -0.3902  0.4761
  934MOL0     H28854   3.929   4.468   3.970  0.6853 -0.4207 -1.2382
  934MOL0     H28855   4.114   4.436   4.117 -0.5266  1.1818 -3.0787
  934MOL0     H28856   4.169   4.019   4.284  0.4591 -0.5445  0.3047
  934MOL0     H28857   4.290   4.097   4.196 -0.7029 -0.7478 -1.0511
  934MOL0     H28858   4.405   4.038   4.387 -0.8876  0.6374  0.5881
  934MOL0     H28859   4.381   4.209   4.409  0.7068  0.3947  1.2466
  934MOL0     H28860   4.172   4.152   4.542  0.2341  1.2691 -4.3353
  934MOL0     H28861   4.336   4.126   4.611  2.1566 -2.5821 -0.7543
  934MOL0     H28862   4.340   3.900   4.597 -1.7370 -2.7678 -0.7660
  934MOL0     H28863   4.202   3.895   4.490 -1.3343  1.1641 -0.6457
  934MOL0     H28864   4.211   3.960   4.790 -0.8075 -0.8194  0.4557
  934MOL0     H28865   4.075   4.011   4.697  1.6095  2.4213 -0.6038
  934MOL0     H28866   4.037   3.747   4.641 -2.7735 -0.3817  1.8039
  934MOL0     H28867   4.003   3.797   4.801 -0.6946 -0.4794 -0.3098
  934MOL0     H28868   4.140   3.599   4.820  0.0194  0.2581  0.2776
  934MOL0     H28869   4.265   3.729   4.836  2.2041 -0.1517 -3.4733
  934MOL0     H28870   4.330   3.697   4.613 -1.3948  2.8416  2.6412
  934MOL0     H28871   4.180   3.598   4.590 -0.0015  1.4998 -0.7399
  934MOL0     H28872   3.953   4.061   4.242  2.4011  2.4812  1.3166
  934MOL0     H28873   3.777   4.090   4.064 -0.1650 -0.1258 -1.2907
  934MOL0     H28874   3.505   4.163   3.795 -1.4668  0.5393  0.1744
  934MOL0     H28875   3.330   4.208   3.640 -0.0818  2.0024  1.4756
  934MOL0     H28876   1.629   4.785   3.786 -2.1981 -3.5426 -1.5014
  934MOL0     H28877   1.489   4.667   3.633 -1.3720 -0.3736 -1.6424
  934MOL0     H28878   1.254   4.783   3.205 -0.7622 -0.3371 -1.1735
  934MOL0     H28879   1.121   4.739   3.012 -0.4995 -0.9197  1.3957
  934MOL0     H28880   1.170   4.322   2.795 -0.2339 -0.3673  0.7442
  934MOL0     H28881   1.021   4.326   2.898 -0.3629 -1.8422 -1.9738
  934MOL0     H28882   1.061   4.448   2.620 -0.5694  2.4827  0.2057
  934MOL0     H28883   0.930   4.494   2.732  0.8122  0.6627  1.5649
  934MOL0     H28884   0.962   4.199   2.622 -0.2455  0.6671 -4.0618
  934MOL0     H28885   0.832   4.284   2.705  1.5092 -0.0622  2.4975
  934MOL0     H28886   0.778   4.406   2.490 -0.7370 -0.5319  0.2472
  934MOL0     H28887   0.807   4.242   2.462  0.8885 -1.1333  2.0136
  934MOL0     H28888   1.136   4.368   2.243  0.6265  0.5977  1.8954
  934MOL0     H28889   1.277   4.326   2.998  0.9694 -0.2921 -1.9025
  934MOL0     H28890   1.447   4.273   3.126 -0.5039 -0.3847  0.0821
  934MOL0     H28891   1.534   4.418   3.208 -0.7957  0.7535  0.6845
  934MOL0     H28892   1.415   4.319   3.288 -2.2684 -3.0231 -1.1594
  935MOL0     O28893   6.578   8.722   3.237 -0.6805 -0.6175 -0.3093
  935MOL0     C28894   6.563   8.605   3.265 -1.3503 -0.1974  0.1880
  935MOL0     O28895   6.654   8.505   3.226  0.4308  0.0839  0.2569
  935MOL0     C28896   6.721   8.500   3.105 -0.8106 -0.0166  0.0454
  935MOL0     C28897   6.772   8.606   3.027  1.2425  0.1896 -0.3548
  935MOL0     C28898   6.828   8.577   2.901  0.7177 -0.7297 -0.4975
  935MOL0     C28899   6.836   8.448   2.848 -1.1095 -0.7113  0.8860
  935MOL0     O28900   6.897   8.420   2.721 -0.8415 -0.0018 -0.2361
  935MOL0     C28901   6.924   8.525   2.624  0.1227 -0.5444 -0.9083
  935MOL0     C28902   6.938   8.454   2.493 -0.1757 -0.2327 -0.3115
  935MOL0     C28903   7.001   8.550   2.387 -0.3817  0.4649 -0.6043
  935MOL0     C28904   6.991   8.505   2.240 -0.3437  0.4422 -0.0572
  935MOL0     C28905   7.121   8.452   2.183 -0.8835  0.0451 -0.1808
  935MOL0     C28906   7.096   8.397   2.048  0.3310 -0.3951  0.9989
  935MOL0     C28907   7.211   8.321   1.987  0.1748  0.0748  0.1909
  935MOL0     C28908   7.333   8.401   1.952 -0.3690  0.1431  0.6488
  935MOL0     N28909   7.312   8.517   1.864  0.5761  0.0040 -0.4588
  935MOL0     C28910   7.264   8.638   1.905 -0.7079 -1.0412 -0.8857
  935MOL0     C28911   7.286   8.723   1.803 -0.0627 -0.1332  0.4178
  935MOL0     C28912   7.257   8.865   1.805 -0.7550  0.4879 -0.0414
  935MOL0     C28913   7.162   8.906   1.694 -0.6502 -0.5597 -0.7094
  935MOL0     C28914   7.190   9.050   1.654  0.2719 -0.5960  0.3641
  935MOL0     C28915   7.159   9.149   1.768 -0.6509  0.8995  0.0751
  935MOL0     O28916   7.284   9.177   1.830  0.6198 -0.2404 -0.6621
  935MOL0     C28917   7.303   9.294   1.907 -0.4140  0.2450  0.3961
  935MOL0     C28918   7.206   9.381   1.939  0.7539  0.3782 -0.6261
  935MOL0     C28919   7.228   9.500   2.015 -0.7826  0.8954 -0.3170
  935MOL0     C28920   7.119   9.592   2.062 -0.6575  0.0517 -0.4321
  935MOL0     C28921   7.368   9.526   2.052  0.6994 -0.0503  0.3123
  935MOL0     C28922   7.407   9.644   2.134 -0.5597  0.3304  0.4314
  935MOL0     O28923   7.318   9.655   2.236  0.3771  0.1259  0.0770
  935MOL0     C28924   7.337   9.758   2.325  0.4481  0.5294 -0.3491
  935MOL0     C28925   7.439   9.752   2.424  0.8222 -0.6182  0.0383
  935MOL0     C28926   7.468   9.864   2.504  0.7276 -0.4216  0.3440
  935MOL0     C28927   7.370   9.972   2.506 -0.5366 -0.2488  0.2520
  935MOL0     O28928   7.383  10.078   2.591 -0.6332 -0.3132  0.4005
  935MOL0     C28929   7.268  10.159   2.629  0.3583  0.5904  0.3395
  935MOL0     C28930   7.294  10.249   2.738 -0.2332  0.1349  0.3636
  935MOL0     C28931   7.447  10.273   2.767 -0.6189  0.3450  0.6959
  935MOL0     C28932   7.469  10.391   2.867  0.4663  0.1260  0.1851
  935MOL0     C28933   7.618  10.417   2.923 -0.4118  0.8743  0.2520
  935MOL0     C28934   7.688  10.291   2.980 -0.3757 -0.1161 -0.1693
  935MOL0     C28935   7.655  10.271   3.128 -0.6104  0.1611 -0.7491
  935MOL0     C28936   7.684  10.121   3.170 -0.4044 -0.4163  0.3786
  935MOL0    Cl28937   7.535  10.041   3.154 -0.4954  0.1208 -0.3341
  935MOL0     C28938   7.261   9.970   2.413  0.5556  0.0032 -0.4274
  935MOL0     C28939   7.254   9.872   2.318 -0.1444 -0.3579 -0.1261
  935MOL0     O28940   7.522   9.701   2.122 -0.2592 -0.2091 -0.9206
  935MOL0     C28941   7.469   9.437   2.010 -0.0889 -0.6235 -0.2072
  935MOL0     C28942   7.434   9.327   1.937  0.1754  0.0937  0.8422
  935MOL0     N28943   7.337   8.653   1.699 -0.2245 -0.1996  0.1002
  935MOL0     N28944   7.354   8.536   1.739 -0.0351 -0.2975  0.0087
  935MOL0     C28945   6.801   8.345   2.931  1.1263  1.0009 -0.1193
  935MOL0     C28946   6.740   8.376   3.056 -0.1454  0.6897 -0.5859
  935MOL0     C28947   6.445   8.575   3.357 -0.2823  0.2056  0.2180
  935MOL0     C28948   6.447   8.456   3.419 -0.8305  0.3401  0.0450
  935MOL0     C28949   6.349   8.412   3.508  0.4003 -0.0720  0.1436
  935MOL0     C28950   6.247   8.496   3.540  0.8033 -0.0017  0.0190
  935MOL0     O28951   6.155   8.469   3.638  0.3441  0.3409 -0.5695
  935MOL0     C28952   6.125   8.339   3.693 -0.3211  0.6360 -0.3039
  935MOL0     C28953   5.978   8.333   3.710  0.0518  0.7653  0.4935
  935MOL0     C28954   5.933   8.219   3.795  0.1078 -0.4540  0.4540
  935MOL0     C28955   5.783   8.236   3.837 -0.7126 -0.0452 -0.1706
  935MOL0     C28956   5.727   8.365   3.889 -0.7215 -0.3930 -0.4254
  935MOL0     C28957   5.663   8.457   3.930  0.0338 -0.0205  0.5113
  935MOL0     C28958   6.246   8.620   3.487 -1.6464  0.0117  0.7138
  935MOL0     C28959   6.343   8.664   3.389 -0.2546  0.2924 -0.1914
  935MOL0     C28960   6.329   8.799   3.326  0.3452  0.9756 -0.5596
  935MOL0     H28961   6.767   8.704   3.075  2.1064 -1.1182  2.6024
  935MOL0     H28962   6.864   8.662   2.844  1.7677  0.8704  2.3143
  935MOL0     H28963   7.021   8.568   2.652  1.3545 -3.6243 -0.1000
  935MOL0     H28964   6.851   8.607   2.629 -1.7530 -2.0180 -2.6434
  935MOL0     H28965   7.006   8.368   2.494 -2.0792 -1.8470 -0.8396
  935MOL0     H28966   6.840   8.416   2.461  0.1233  0.2170 -1.8389
  935MOL0     H28967   6.951   8.647   2.394  1.4850  1.3968  0.6131
  935MOL0     H28968   7.103   8.576   2.416 -0.8127  2.5628 -0.7997
  935MOL0     H28969   6.920   8.423   2.228  3.2372 -2.8436 -0.6271
  935MOL0     H28970   6.966   8.598   2.188  0.6643  1.6662  1.5450
  935MOL0     H28971   7.160   8.379   2.254  1.1173  1.3000  0.0727
  935MOL0     H28972   7.203   8.524   2.177  1.4250 -2.3386  0.6741
  935MOL0     H28973   7.010   8.330   2.054 -1.3918  1.6043  0.2215
  935MOL0     H28974   7.070   8.476   1.977  1.3507  0.6570  1.7625
  935MOL0     H28975   7.176   8.270   1.896 -1.1536 -0.4587  0.9608
  935MOL0     H28976   7.238   8.246   2.062  2.8135  3.2548  2.6687
  935MOL0     H28977   7.388   8.424   2.044  1.9366  2.9225 -1.2322
  935MOL0     H28978   7.405   8.332   1.905 -0.8340  0.5617 -0.7083
  935MOL0     H28979   7.222   8.678   1.997 -1.0200 -2.8915 -0.1812
  935MOL0     H28980   7.349   8.924   1.797 -0.6739  0.3932  0.1902
  935MOL0     H28981   7.210   8.891   1.901 -0.9587 -3.2012  1.0163
  935MOL0     H28982   7.175   8.842   1.606  0.6021  1.0915 -1.7805
  935MOL0     H28983   7.057   8.900   1.724 -0.9947 -0.0091 -1.7529
  935MOL0     H28984   7.291   9.074   1.619  0.2812  1.7752  1.8169
  935MOL0     H28985   7.127   9.075   1.568  0.1630  1.7902  1.0778
  935MOL0     H28986   7.115   9.232   1.714 -0.5413 -0.5542 -2.3839
  935MOL0     H28987   7.093   9.100   1.841 -2.8356  0.8921 -1.7971
  935MOL0     H28988   7.102   9.363   1.913 -0.4592 -0.2719  3.8077
  935MOL0     H28989   7.140   9.698   2.044  4.1188 -0.3674  1.0722
  935MOL0     H28990   7.101   9.568   2.167 -0.7333 -0.6075 -0.5871
  935MOL0     H28991   7.030   9.571   2.002 -0.3206 -0.3297 -0.8098
  935MOL0     H28992   7.512   9.672   2.430 -1.2191 -2.5405  0.6443
  935MOL0     H28993   7.556   9.877   2.567  2.7023  2.1150 -2.6159
  935MOL0     H28994   7.233  10.219   2.544 -0.0984 -3.3469 -2.5353
  935MOL0     H28995   7.197  10.084   2.665  0.5548  1.0443  1.7069
  935MOL0     H28996   7.248  10.344   2.709  2.5205  0.8262 -2.2465
  935MOL0     H28997   7.239  10.207   2.824 -4.0428 -2.6347 -3.0202
  935MOL0     H28998   7.511  10.301   2.683 -2.2609  0.1622 -0.6778
  935MOL0     H28999   7.492  10.178   2.797  0.9026 -0.7594 -4.2229
  935MOL0     H29000   7.417  10.359   2.957  4.1400  3.8139  4.1426
  935MOL0     H29001   7.422  10.483   2.831  2.8844  1.2013 -0.4888
  935MOL0     H29002   7.674  10.450   2.835  2.3516  3.0182  2.6036
  935MOL0     H29003   7.605  10.497   2.996  1.4751 -0.8595  2.6542
  935MOL0     H29004   7.796  10.304   2.972 -0.1343 -1.1536  1.0834
  935MOL0     H29005   7.685  10.205   2.912  2.6806 -1.5656  1.3201
  935MOL0     H29006   7.550  10.292   3.148 -1.0734 -2.9155  0.5549
  935MOL0     H29007   7.731  10.327   3.184 -1.6614 -0.2873  1.1939
  935MOL0     H29008   7.734  10.120   3.267 -0.1940  3.1391  0.4597
  935MOL0     H29009   7.755  10.074   3.101 -0.6847 -1.3377  0.7099
  935MOL0     H29010   7.205  10.062   2.406 -0.1466 -0.4577 -0.9506
  935MOL0     H29011   7.180   9.865   2.240 -0.3666  0.4835  0.0068
  935MOL0     H29012   7.573   9.452   2.035  0.6706 -2.3310 -2.1125
  935MOL0     H29013   7.516   9.261   1.910 -0.1056  0.1395 -0.1690
  935MOL0     H29014   6.825   8.248   2.889  2.6321 -0.5737  3.8890
  935MOL0     H29015   6.709   8.286   3.108  0.6556 -0.3465 -1.8517
  935MOL0     H29016   6.521   8.385   3.382  1.2979  1.6200  1.6462
  935MOL0     H29017   6.372   8.314   3.549  1.9701  0.3680  0.3803
  935MOL0     H29018   6.160   8.260   3.625  1.8638  0.7469  0.6121
  935MOL0     H29019   6.175   8.311   3.786 -0.8716 -1.3958 -0.5629
  935MOL0     H29020   5.926   8.330   3.614 -0.0499 -0.4894  0.5728
  935MOL0     H29021   5.950   8.427   3.757  1.0485  1.8360 -0.9879
  935MOL0     H29022   5.943   8.129   3.734 -1.2704  3.0905 -5.9563
  935MOL0     H29023   5.999   8.216   3.882  0.0039  0.3040  0.5719
  935MOL0     H29024   5.766   8.151   3.904 -0.9653  1.3591  1.6078
  935MOL0     H29025   5.716   8.227   3.751  1.7207 -1.2131 -2.0571
  935MOL0     H29026   5.584   8.522   3.961  0.3763  0.2142  0.8992
  935MOL0     H29027   6.172   8.692   3.519 -1.8874 -0.3869  1.0712
  935MOL0     H29028   6.418   8.861   3.337  1.5624 -0.8124 -0.0845
  935MOL0     H29029   6.302   8.796   3.220  0.1813 -0.1505 -0.4962
  935MOL0     H29030   6.254   8.858   3.380  2.8680  1.3509  2.7850
  936MOL0     O29031   4.772   0.227   9.039  0.2467 -0.0620  0.0311
  936MOL0     C29032   4.854   0.169   9.112  0.1332  0.5606  0.9536
  936MOL0     O29033   4.991   0.206   9.121  0.2786 -0.6091 -0.0781
  936MOL0     C29034   5.052   0.301   9.051 -0.2187  0.1459 -0.1300
  936MOL0     C29035   5.154   0.372   9.117  0.5844  0.9297  0.4274
  936MOL0     C29036   5.211   0.479   9.061 -1.1309  0.6142 -0.5306
  936MOL0     C29037   5.165   0.523   8.929  0.0958  0.4464  0.3514
  936MOL0     O29038   5.201   0.640   8.870 -0.0045 -0.3770  0.3174
  936MOL0     C29039   5.237   0.749   8.964  0.4708  0.5543  0.1322
  936MOL0     C29040   5.202   0.874   8.897  0.4073 -0.0167  0.0669
  936MOL0     C29041   5.053   0.889   8.861 -0.2958  0.6038 -0.2399
  936MOL0     C29042   4.954   0.864   8.979 -0.2256 -0.0138 -0.0003
  936MOL0     C29043   4.815   0.862   8.929 -0.5545 -0.1924  0.6385
  936MOL0     C29044   4.774   0.733   8.857  0.5808 -0.4199  0.0849
  936MOL0     C29045   4.632   0.748   8.817 -0.3195  0.0501  0.6110
  936MOL0     C29046   4.613   0.779   8.664 -0.7851  0.5161  0.4761
  936MOL0     N29047   4.617   0.663   8.567 -0.5204  0.2404  0.9635
  936MOL0     C29048   4.702   0.552   8.573  1.3442 -0.4721 -0.3551
  936MOL0     C29049   4.641   0.460   8.493  0.2940  1.1613  1.0702
  936MOL0     C29050   4.690   0.317   8.480  0.8375  0.5746  0.0071
  936MOL0     C29051   4.712   0.247   8.620 -0.1969  0.3856  0.3190
  936MOL0     C29052   4.790   0.109   8.596  0.4384  0.0997  0.1130
  936MOL0     C29053   4.923   0.125   8.543 -0.7610  0.8037  0.8113
  936MOL0     O29054   4.977  -0.002   8.558  0.1614 -0.4716 -0.5773
  936MOL0     C29055   5.106  -0.031   8.526 -0.3441  0.4485 -0.7218
  936MOL0     C29056   5.192   0.056   8.469  0.8642  0.0512 -0.2252
  936MOL0     C29057   5.322   0.028   8.442  0.9988  0.1481 -0.3152
  936MOL0     C29058   5.391   0.138   8.385 -0.3573 -0.2474  0.3058
  936MOL0     C29059   5.384  -0.096   8.475  0.9602  0.2345  0.0004
  936MOL0     C29060   5.528  -0.137   8.465 -0.5518 -0.5297 -0.1619
  936MOL0     O29061   5.568  -0.237   8.542 -0.8268  0.8884 -0.4632
  936MOL0     C29062   5.707  -0.244   8.561 -0.8839 -0.0329 -0.6664
  936MOL0     C29063   5.752  -0.199   8.681  0.4663 -0.4153 -0.8138
  936MOL0     C29064   5.889  -0.187   8.706  0.0245  0.5108 -0.4710
  936MOL0     C29065   5.985  -0.230   8.617 -0.6317 -0.4147  0.6624
  936MOL0     O29066   6.117  -0.230   8.661 -0.4796 -0.0989  0.1665
  936MOL0     C29067   6.235  -0.256   8.575 -0.7815 -0.2997  0.2078
  936MOL0     C29068   6.328  -0.359   8.633  0.2042  0.3069 -0.6838
  936MOL0     C29069   6.448  -0.392   8.550  0.1932 -0.6304  0.7336
  936MOL0     C29070   6.533  -0.260   8.518 -0.3300  0.6638 -0.7125
  936MOL0     C29071   6.683  -0.288   8.505  0.2226 -0.0855  0.5515
  936MOL0     C29072   6.774  -0.165   8.505 -0.0769  0.2544  0.1986
  936MOL0     C29073   6.777  -0.101   8.358  0.6556 -0.4034 -0.7311
  936MOL0     C29074   6.916  -0.041   8.318 -0.7971 -0.6594  0.1605
  936MOL0    Cl29075   6.985   0.062   8.437  0.1943  0.3448  0.3673
  936MOL0     C29076   5.941  -0.268   8.494  0.9750  0.4191 -0.4105
  936MOL0     C29077   5.803  -0.287   8.469  0.1719 -0.3139  0.4094
  936MOL0     O29078   5.604  -0.063   8.399 -0.3051  0.6517  0.3628
  936MOL0     C29079   5.298  -0.183   8.544  0.8822 -0.0980  0.3399
  936MOL0     C29080   5.164  -0.151   8.565  0.4581  1.0561 -0.0469
  936MOL0     N29081   4.522   0.514   8.442 -0.3540  0.4159 -0.1810
  936MOL0     N29082   4.513   0.644   8.483  0.0426  1.1696  0.4123
  936MOL0     C29083   5.079   0.447   8.859 -0.0194 -0.2767  0.2102
  936MOL0     C29084   5.011   0.343   8.922 -0.1564  0.2691  0.4840
  936MOL0     C29085   4.834   0.026   9.157  0.1189 -0.0250 -0.3164
  936MOL0     C29086   4.909  -0.014   9.275 -0.5344  0.2450  0.7283
  936MOL0     C29087   4.909  -0.148   9.314 -1.3081  0.6870  0.4054
  936MOL0     C29088   4.831  -0.247   9.248 -0.2330 -0.4256  0.0555
  936MOL0     O29089   4.842  -0.375   9.280  0.1291  0.2691 -0.1661
  936MOL0     C29090   4.907  -0.467   9.184 -0.0233 -1.1803 -0.4697
  936MOL0     C29091   4.984  -0.582   9.267 -0.3850  0.2573  0.1053
  936MOL0     C29092   5.117  -0.534   9.322 -0.0075 -0.6650  0.4829
  936MOL0     C29093   5.221  -0.524   9.218  1.1238 -0.0547 -0.4903
  936MOL0     C29094   5.230  -0.641   9.133  0.4963 -0.5802 -0.0566
  936MOL0     C29095   5.226  -0.730   9.043  0.2110  0.5013  0.6496
  936MOL0     C29096   4.741  -0.206   9.150 -0.1741  0.2093  0.3301
  936MOL0     C29097   4.741  -0.067   9.107  0.4020  0.0533 -0.2278
  936MOL0     C29098   4.637  -0.030   9.009  0.4619  0.7224  1.0619
  936MOL0     H29099   5.182   0.335   9.216  1.8399  0.8157  0.0496
  936MOL0     H29100   5.290   0.522   9.121 -0.4360 -1.0725 -0.1669
  936MOL0     H29101   5.341   0.743   8.996  0.2410 -0.3776  0.7394
  936MOL0     H29102   5.180   0.746   9.057  1.1423  3.2776  0.7211
  936MOL0     H29103   5.240   0.953   8.963 -0.2513  0.6145 -0.2870
  936MOL0     H29104   5.261   0.887   8.806  1.5526  1.0942  0.9352
  936MOL0     H29105   5.041   0.997   8.844  0.2437  0.6859 -0.1163
  936MOL0     H29106   5.042   0.829   8.770  2.9819  1.3019 -1.2137
  936MOL0     H29107   4.984   0.763   9.008 -2.6214 -0.6995  0.3130
  936MOL0     H29108   4.977   0.941   9.053  3.0448 -2.3106  1.6197
  936MOL0     H29109   4.807   0.951   8.866 -1.7038  1.3988  2.8601
  936MOL0     H29110   4.761   0.874   9.024 -0.6791 -0.7801  0.6431
  936MOL0     H29111   4.850   0.717   8.780  1.9470 -1.4573  1.5610
  936MOL0     H29112   4.800   0.659   8.934  0.6048  0.7271  1.1983
  936MOL0     H29113   4.580   0.830   8.868  0.0021  1.0658 -0.6474
  936MOL0     H29114   4.577   0.657   8.842  0.1214 -0.1474  0.8723
  936MOL0     H29115   4.521   0.836   8.650 -0.6734  0.0767 -2.7258
  936MOL0     H29116   4.692   0.849   8.634 -0.3168 -1.0931 -2.4377
  936MOL0     H29117   4.792   0.547   8.633 -0.7101 -0.2378  3.0455
  936MOL0     H29118   4.768   0.314   8.403 -0.2463 -2.5210 -1.1345
  936MOL0     H29119   4.605   0.260   8.442  0.6868  0.3934  0.6006
  936MOL0     H29120   4.781   0.303   8.683  0.5429 -2.5544  2.3180
  936MOL0     H29121   4.615   0.218   8.662 -0.6625  0.7010 -0.5184
  936MOL0     H29122   4.781   0.066   8.696 -1.8281  0.7812  0.2577
  936MOL0     H29123   4.735   0.044   8.528 -0.5766 -0.4577  1.4281
  936MOL0     H29124   4.924   0.150   8.437 -2.0594 -1.9884  0.0602
  936MOL0     H29125   4.971   0.203   8.603 -2.4932  3.7782 -1.4009
  936MOL0     H29126   5.164   0.158   8.446 -4.9629 -1.1246  0.1391
  936MOL0     H29127   5.429   0.213   8.454  2.0917  1.3246 -2.5172
  936MOL0     H29128   5.327   0.199   8.321 -0.9881 -1.5517 -0.3654
  936MOL0     H29129   5.477   0.112   8.322  0.6937  1.7013  0.8504
  936MOL0     H29130   5.677  -0.176   8.756  1.2287  1.1914 -0.5016
  936MOL0     H29131   5.920  -0.146   8.802  0.1098  0.2789 -0.3995
  936MOL0     H29132   6.202  -0.301   8.482  1.1653 -0.4804 -0.4352
  936MOL0     H29133   6.281  -0.159   8.552 -0.8509  0.4228  2.7768
  936MOL0     H29134   6.346  -0.344   8.740 -0.6430 -0.9214 -0.3456
  936MOL0     H29135   6.256  -0.441   8.640 -0.5383  1.1007  3.5489
  936MOL0     H29136   6.423  -0.452   8.462  1.2587 -2.1433  1.4205
  936MOL0     H29137   6.508  -0.462   8.609 -0.5887  0.2823  2.7013
  936MOL0     H29138   6.532  -0.209   8.615  3.7778  0.9332 -0.6058
  936MOL0     H29139   6.495  -0.201   8.435 -0.6263  0.0750 -1.0013
  936MOL0     H29140   6.695  -0.349   8.594 -6.5429 -2.1273  0.6692
  936MOL0     H29141   6.707  -0.364   8.430  0.7100  0.2768  0.3343
  936MOL0     H29142   6.872  -0.200   8.539  0.9587 -2.0434 -4.3701
  936MOL0     H29143   6.721  -0.089   8.564 -0.1132  1.0478 -0.8341
  936MOL0     H29144   6.700  -0.023   8.347 -3.3219 -3.9209 -0.3262
  936MOL0     H29145   6.737  -0.172   8.285  1.3260 -0.0864 -1.4224
  936MOL0     H29146   6.899   0.010   8.223 -1.6371  1.4893  1.3950
  936MOL0     H29147   6.977  -0.132   8.307  1.2079  0.6172  0.2231
  936MOL0     H29148   6.019  -0.294   8.423  2.4033  2.0739  0.4818
  936MOL0     H29149   5.763  -0.316   8.372  1.1313  1.5083 -0.5801
  936MOL0     H29150   5.330  -0.279   8.583  0.2325 -0.5079 -0.1197
  936MOL0     H29151   5.098  -0.223   8.612 -1.0065  1.5312 -1.3140
  936MOL0     H29152   5.064   0.456   8.752  0.7277 -3.8339 -0.3020
  936MOL0     H29153   4.930   0.296   8.867 -0.1921  0.5049  0.3338
  936MOL0     H29154   4.980   0.049   9.328 -3.2120  2.0981  2.3401
  936MOL0     H29155   4.975  -0.170   9.398  3.5120 -2.4822 -3.6191
  936MOL0     H29156   4.840  -0.499   9.104 -0.1056 -0.4574 -0.6989
  936MOL0     H29157   4.984  -0.408   9.133  0.2962 -0.0290  1.2473
  936MOL0     H29158   4.991  -0.681   9.221 -0.6968 -0.8032  2.2103
  936MOL0     H29159   4.931  -0.616   9.357  1.8466 -0.8231  1.0973
  936MOL0     H29160   5.098  -0.440   9.375 -0.5683 -0.3679 -0.2256
  936MOL0     H29161   5.147  -0.601   9.404  0.6473 -1.0586 -0.0723
  936MOL0     H29162   5.320  -0.519   9.265  0.5337  0.1250  0.7685
  936MOL0     H29163   5.199  -0.430   9.167 -2.7990  0.6408  2.0725
  936MOL0     H29164   5.226  -0.806   8.967 -0.2262 -1.0317  2.1122
  936MOL0     H29165   4.668  -0.280   9.119  1.4172 -1.9590  1.4841
  936MOL0     H29166   4.594  -0.117   8.958 -0.2114  2.3688 -1.3609
  936MOL0     H29167   4.561   0.016   9.072  0.3797  3.2292 -0.7426
  936MOL0     H29168   4.670   0.037   8.929 -0.4636 -0.5142 -0.4082
  937MOL0     O29169   9.005   9.574   1.325  0.1017  0.1197 -1.1160
  937MOL0     C29170   9.028   9.668   1.254 -0.5842 -0.1344  0.4245
  937MOL0     O29171   8.962   9.702   1.139  0.5837  0.3616  0.1190
  937MOL0     C29172   8.850   9.648   1.083  0.3070  0.3123  0.1919
  937MOL0     C29173   8.727   9.692   1.122  0.0361 -0.2351 -0.2559
  937MOL0     C29174   8.608   9.651   1.062  1.0564  1.3826  0.7594
  937MOL0     C29175   8.609   9.553   0.965  0.2297  0.0109  0.3636
  937MOL0     O29176   8.498   9.498   0.911 -0.0304  0.0483 -0.5975
  937MOL0     C29177   8.392   9.584   0.874  0.5191 -1.1174 -0.2108
  937MOL0     C29178   8.265   9.503   0.850  0.6604 -0.6307 -0.1215
  937MOL0     C29179   8.245   9.408   0.964  0.2184  0.0161  0.0050
  937MOL0     C29180   8.299   9.271   0.960  0.4643 -0.7615 -0.3534
  937MOL0     C29181   8.249   9.182   1.070 -0.0292 -0.1838  0.0377
  937MOL0     C29182   8.327   9.059   1.093  0.5352 -0.6758 -0.4932
  937MOL0     C29183   8.462   9.080   1.170  0.0481 -1.5736  0.1184
  937MOL0     C29184   8.484   9.186   1.282  0.8245  0.5385 -0.2631
  937MOL0     N29185   8.423   9.126   1.410 -0.0398  0.0549 -0.8070
  937MOL0     C29186   8.291   9.133   1.428  0.7425  0.4623  0.1429
  937MOL0     C29187   8.265   9.054   1.537 -0.1926  0.1904 -0.1752
  937MOL0     C29188   8.135   9.025   1.597 -0.0024  0.1373 -0.0350
  937MOL0     C29189   8.038   8.961   1.493  0.3636 -0.2125  1.2534
  937MOL0     C29190   8.035   8.806   1.487  0.7057 -0.6107  0.3056
  937MOL0     C29191   8.172   8.765   1.424  0.3994 -0.5697 -0.5687
  937MOL0     O29192   8.146   8.688   1.304  0.1499 -0.0405  0.4745
  937MOL0     C29193   8.259   8.659   1.233  0.3273  0.0955 -0.6666
  937MOL0     C29194   8.392   8.686   1.259 -1.1497 -0.6463 -0.1928
  937MOL0     C29195   8.504   8.630   1.196  0.2111  0.8902  0.4666
  937MOL0     C29196   8.638   8.655   1.252  0.7182  0.0923  0.1820
  937MOL0     C29197   8.482   8.546   1.090 -0.3751 -0.3724 -0.3632
  937MOL0     C29198   8.598   8.478   1.021  0.1306 -0.2851  0.0859
  937MOL0     O29199   8.583   8.349   0.977 -0.1226 -0.6168  0.0742
  937MOL0     C29200   8.689   8.262   0.988  0.1524 -1.0436 -0.0800
  937MOL0     C29201   8.712   8.197   1.109 -0.9044 -0.1226 -0.6459
  937MOL0     C29202   8.830   8.123   1.133  0.6008 -1.5256  0.4053
  937MOL0     C29203   8.931   8.129   1.039 -0.6413 -0.2692  0.1704
  937MOL0     O29204   9.056   8.095   1.076 -0.8577 -0.1496  0.2703
  937MOL0     C29205   9.069   7.967   1.148  0.6741  0.3678  0.0348
  937MOL0     C29206   9.136   7.869   1.062 -0.3499  0.1669 -0.6407
  937MOL0     C29207   9.290   7.891   1.060  0.4034  0.4775  0.1002
  937MOL0     C29208   9.355   7.879   1.198 -0.2975  0.3745 -0.6685
  937MOL0     C29209   9.506   7.844   1.209 -0.2006  0.3998 -0.0862
  937MOL0     C29210   9.578   7.886   1.346  0.2045 -0.6593  0.2377
  937MOL0     C29211   9.730   7.860   1.354 -1.5952 -0.1776  0.4544
  937MOL0     C29212   9.806   7.962   1.266  0.1663  0.3869 -0.8221
  937MOL0    Cl29213   9.760   8.131   1.271 -0.4018 -0.4405  0.3999
  937MOL0     C29214   8.909   8.194   0.916 -0.1288 -0.0346  0.4786
  937MOL0     C29215   8.790   8.253   0.890 -0.2842  0.4635  0.4446
  937MOL0     O29216   8.693   8.548   0.984 -1.0800  0.4708 -0.2297
  937MOL0     C29217   8.347   8.523   1.050  0.7360 -0.5767  0.2658
  937MOL0     C29218   8.235   8.582   1.120  0.3108 -0.1775  0.7016
  937MOL0     N29219   8.377   8.994   1.575  0.5162  0.3692  0.3274
  937MOL0     N29220   8.473   9.031   1.493 -0.1132  0.1175 -0.1332
  937MOL0     C29221   8.733   9.493   0.937  0.9773  0.6523  1.2482
  937MOL0     C29222   8.851   9.542   0.990 -0.8130 -1.0976 -0.1208
  937MOL0     C29223   9.136   9.762   1.298 -0.8610  0.2614 -0.4204
  937MOL0     C29224   9.177   9.868   1.211  0.1411 -0.2045  1.0774
  937MOL0     C29225   9.284   9.954   1.238 -0.5428  0.1447 -1.1579
  937MOL0     C29226   9.351   9.941   1.356  1.1395 -0.3469 -0.1274
  937MOL0     O29227   9.458  10.021   1.398  0.3240  0.7326 -0.0379
  937MOL0     C29228   9.543  10.092   1.302  1.5145  0.5783 -0.6215
  937MOL0     C29229   9.682  10.024   1.310  0.2535  0.5407  0.7272
  937MOL0     C29230   9.795  10.088   1.228  0.1360  0.4610 -0.1905
  937MOL0     C29231   9.783  10.242   1.208  0.8750  0.4761 -1.3295
  937MOL0     C29232   9.890  10.301   1.141 -0.6104 -0.9199 -0.0062
  937MOL0     C29233   9.989  10.349   1.096  0.7131 -0.2238 -1.1222
  937MOL0     C29234   9.311   9.849   1.444 -0.1244  0.5279 -0.1136
  937MOL0     C29235   9.215   9.749   1.419  0.6477  0.7059  0.4047
  937MOL0     C29236   9.199   9.645   1.521  0.8048 -0.0294  0.0610
  937MOL0     H29237   8.720   9.771   1.196 -0.4241 -3.2177  3.1743
  937MOL0     H29238   8.515   9.701   1.087  0.7927  1.1974  0.1591
  937MOL0     H29239   8.431   9.639   0.788  1.2107  0.4653  1.0855
  937MOL0     H29240   8.368   9.654   0.954 -0.7354  2.1813 -3.2140
  937MOL0     H29241   8.182   9.574   0.856  2.6493  1.9361 -1.0002
  937MOL0     H29242   8.260   9.460   0.750 -2.6531 -1.3036  0.2226
  937MOL0     H29243   8.282   9.467   1.048 -2.7335  0.8180  0.8678
  937MOL0     H29244   8.138   9.398   0.988  0.0628 -0.7417 -0.9450
  937MOL0     H29245   8.277   9.230   0.860  0.1142 -2.9305  0.5623
  937MOL0     H29246   8.408   9.263   0.962  0.5488  0.2754 -0.0901
  937MOL0     H29247   8.148   9.143   1.054  0.1239 -1.9831  2.7486
  937MOL0     H29248   8.241   9.233   1.166 -1.4325  1.7597 -1.0379
  937MOL0     H29249   8.261   8.997   1.154 -1.4923  1.3718 -0.4776
  937MOL0     H29250   8.338   9.005   0.999 -1.0766 -4.3783  1.2039
  937MOL0     H29251   8.528   9.115   1.090 -1.3320  2.4666  0.5038
  937MOL0     H29252   8.493   8.987   1.218  0.1436 -2.4263 -1.5336
  937MOL0     H29253   8.590   9.208   1.291  1.0785 -0.0103 -1.6594
  937MOL0     H29254   8.436   9.281   1.256 -2.5548 -0.5332  1.4555
  937MOL0     H29255   8.218   9.183   1.365  1.4128 -2.5684 -3.3976
  937MOL0     H29256   8.084   9.118   1.626 -0.4336 -0.5352  1.4576
  937MOL0     H29257   8.138   8.958   1.683  1.1800 -0.2142 -0.3410
  937MOL0     H29258   7.939   8.991   1.530 -0.5297 -1.1362 -0.2590
  937MOL0     H29259   8.048   9.007   1.394 -1.4551 -1.9896  0.1447
  937MOL0     H29260   8.015   8.769   1.587 -0.0771 -0.6638  0.1335
  937MOL0     H29261   7.958   8.764   1.422 -0.3441 -0.6050  1.5276
  937MOL0     H29262   8.228   8.855   1.400 -0.2974  0.8732  2.7666
  937MOL0     H29263   8.233   8.704   1.491  1.5031 -0.1865 -1.2015
  937MOL0     H29264   8.417   8.753   1.340  1.8808 -0.6507 -1.0124
  937MOL0     H29265   8.725   8.647   1.187  2.9710  1.8232  2.7592
  937MOL0     H29266   8.662   8.582   1.330  2.6643  0.1535 -0.3120
  937MOL0     H29267   8.640   8.758   1.289  1.3184 -0.3787  1.5025
  937MOL0     H29268   8.645   8.204   1.195 -2.0316 -0.5349 -1.4703
  937MOL0     H29269   8.828   8.078   1.232 -1.6491 -0.8899  0.7132
  937MOL0     H29270   9.120   7.977   1.244  1.4933 -0.5503 -0.2895
  937MOL0     H29271   8.973   7.922   1.175  2.5444 -1.6065  4.1013
  937MOL0     H29272   9.104   7.774   1.106  0.7680 -0.2370 -0.6773
  937MOL0     H29273   9.111   7.863   0.956  0.0085 -2.2414 -0.6440
  937MOL0     H29274   9.309   7.998   1.045 -0.1129  1.4600  4.8537
  937MOL0     H29275   9.335   7.822   0.989  2.7091  1.6376  0.3444
  937MOL0     H29276   9.305   7.813   1.269 -0.1855  1.7143  0.7271
  937MOL0     H29277   9.356   7.981   1.239  0.9674  0.7453 -1.5635
  937MOL0     H29278   9.518   7.736   1.207  1.7277  0.5842 -0.3980
  937MOL0     H29279   9.561   7.891   1.126 -0.1102 -0.6225 -0.6132
  937MOL0     H29280   9.533   7.831   1.428 -1.2553  0.5855  0.3174
  937MOL0     H29281   9.560   7.992   1.367  0.7405 -0.8201  1.6105
  937MOL0     H29282   9.763   7.760   1.328 -2.0391 -0.1488 -0.2353
  937MOL0     H29283   9.777   7.878   1.451  0.3761 -1.5074 -0.2031
  937MOL0     H29284   9.789   7.923   1.166  1.1229 -1.2175 -0.4026
  937MOL0     H29285   9.913   7.963   1.287  0.8562  0.7773 -3.9089
  937MOL0     H29286   8.986   8.200   0.839 -2.0196  3.7913 -1.3886
  937MOL0     H29287   8.787   8.312   0.800 -0.2007 -0.6985 -0.3442
  937MOL0     H29288   8.322   8.484   0.952 -1.1058  2.3207 -0.5573
  937MOL0     H29289   8.136   8.552   1.089  0.1080 -0.3242  1.4664
  937MOL0     H29290   8.740   9.406   0.871 -2.6699  1.0121  0.1333
  937MOL0     H29291   8.937   9.482   0.960 -0.5581 -0.2777 -1.0951
  937MOL0     H29292   9.110   9.871   1.126  0.6377 -1.6657  0.5938
  937MOL0     H29293   9.313  10.039   1.177  3.4913  0.1626  0.5169
  937MOL0     H29294   9.501  10.084   1.201  0.8656 -1.8415 -0.2136
  937MOL0     H29295   9.551  10.197   1.331  0.2975  0.9016 -1.4006
  937MOL0     H29296   9.676   9.924   1.265 -2.5866  0.2137  1.6094
  937MOL0     H29297   9.717  10.020   1.414  0.9013  4.8096  0.8333
  937MOL0     H29298   9.896  10.058   1.257 -0.5870 -0.2843  1.7246
  937MOL0     H29299   9.783  10.045   1.128  2.2256 -1.4753  0.3219
  937MOL0     H29300   9.780  10.295   1.303  1.6264 -1.8493  0.0834
  937MOL0     H29301   9.691  10.260   1.152  1.0028  2.5236 -0.9409
  937MOL0     H29302  10.075  10.391   1.047  0.6720 -1.4730 -2.3179
  937MOL0     H29303   9.359   9.842   1.541 -0.3314 -2.6441 -0.1230
  937MOL0     H29304   9.099   9.667   1.560  0.4188  0.1251 -0.9770
  937MOL0     H29305   9.223   9.546   1.480 -0.0902  0.0171 -0.6109
  937MOL0     H29306   9.274   9.658   1.599  1.4826  0.7499 -0.6913
  938MOL0     O29307   6.710   3.538   8.045  0.7692  0.2707 -0.5154
  938MOL0     C29308   6.726   3.582   7.936  0.0111  0.0988 -0.3484
  938MOL0     O29309   6.729   3.513   7.823 -0.2642 -0.7264  0.2305
  938MOL0     C29310   6.730   3.374   7.813 -0.2586 -0.5922 -0.6253
  938MOL0     C29311   6.810   3.308   7.714  0.0929  0.3128 -0.6062
  938MOL0     C29312   6.798   3.177   7.689 -0.1386 -0.0316 -0.4534
  938MOL0     C29313   6.714   3.104   7.776 -0.1053  0.1618  0.4590
  938MOL0     O29314   6.717   2.968   7.746  0.1376 -0.6493 -0.6006
  938MOL0     C29315   6.763   2.897   7.861 -0.1163  0.5934  0.2002
  938MOL0     C29316   6.768   2.750   7.820 -0.5364 -0.9299  0.5002
  938MOL0     C29317   6.883   2.711   7.724 -0.1377 -1.5630  0.2969
  938MOL0     C29318   6.996   2.659   7.812 -0.1953  0.4345 -0.0642
  938MOL0     C29319   7.126   2.643   7.730 -0.2086  0.0621 -0.3859
  938MOL0     C29320   7.130   2.526   7.629  0.3825  0.0986 -1.0415
  938MOL0     C29321   7.264   2.498   7.568  0.5234 -0.3642  0.9370
  938MOL0     C29322   7.249   2.367   7.482  0.7198 -0.5147  0.3679
  938MOL0     N29323   7.386   2.322   7.450 -0.3153  0.4743  0.0540
  938MOL0     C29324   7.476   2.250   7.533 -0.0562  0.8397  0.1607
  938MOL0     C29325   7.574   2.212   7.444 -0.3841 -0.1196  0.0340
  938MOL0     C29326   7.701   2.137   7.494 -0.3304  0.4450  0.2302
  938MOL0     C29327   7.727   2.003   7.420  0.5763 -0.0240  0.4778
  938MOL0     C29328   7.693   1.877   7.503 -0.7777  0.6375 -0.0729
  938MOL0     C29329   7.802   1.847   7.609 -0.4009  0.3405  0.0739
  938MOL0     O29330   7.753   1.748   7.684 -0.5042 -0.1318 -0.0180
  938MOL0     C29331   7.820   1.704   7.803  0.5860  0.8059  0.3192
  938MOL0     C29332   7.772   1.593   7.868  1.4091  0.4295 -0.1134
  938MOL0     C29333   7.847   1.526   7.966 -0.2697  0.3791  0.9123
  938MOL0     C29334   7.775   1.416   8.036 -0.2414 -0.8439  0.1691
  938MOL0     C29335   7.979   1.569   8.004 -0.2600 -0.4103  0.3092
  938MOL0     C29336   8.069   1.498   8.105  0.7157 -0.5597 -0.4305
  938MOL0     O29337   8.055   1.357   8.109 -0.0190 -0.4953  0.1249
  938MOL0     C29338   8.114   1.283   8.201  0.0833  0.3119 -0.7743
  938MOL0     C29339   8.122   1.143   8.176  0.3891  0.6765  0.3166
  938MOL0     C29340   8.180   1.054   8.262  0.2332  0.0512  0.5761
  938MOL0     C29341   8.228   1.103   8.383  0.8463  0.4891 -0.1307
  938MOL0     O29342   8.276   1.016   8.476 -0.0434  0.0300  0.1628
  938MOL0     C29343   8.383   0.927   8.432  0.3290  0.0844  0.2016
  938MOL0     C29344   8.515   0.938   8.513 -0.1412 -0.9045  0.1844
  938MOL0     C29345   8.559   1.089   8.529  1.0347 -0.3310  0.3990
  938MOL0     C29346   8.585   1.155   8.388  0.0435 -1.4357  0.4570
  938MOL0     C29347   8.669   1.286   8.411 -0.0043  0.5922  0.0178
  938MOL0     C29348   8.593   1.395   8.488 -0.3122 -0.3483 -0.3842
  938MOL0     C29349   8.640   1.530   8.452 -0.4118  0.6668  0.4038
  938MOL0     C29350   8.723   1.581   8.560 -0.3055  0.2417  0.2514
  938MOL0    Cl29351   8.612   1.595   8.707 -0.4925 -0.3340 -0.3880
  938MOL0     C29352   8.220   1.230   8.416  1.0959  0.1430 -0.8830
  938MOL0     C29353   8.179   1.324   8.326  0.3684 -0.2091 -0.2082
  938MOL0     O29354   8.139   1.566   8.180 -0.0487 -0.1194 -0.3217
  938MOL0     C29355   8.027   1.673   7.935  0.8066 -0.7356  0.8002
  938MOL0     C29356   7.946   1.744   7.837 -0.5420  0.7719 -1.2467
  938MOL0     N29357   7.553   2.261   7.320  0.2403 -0.2566 -0.2072
  938MOL0     N29358   7.439   2.324   7.325  0.9462  0.0749 -0.0584
  938MOL0     C29359   6.648   3.157   7.885 -0.6969 -0.0857  0.6391
  938MOL0     C29360   6.649   3.293   7.901 -0.8531 -0.0873  0.2748
  938MOL0     C29361   6.729   3.733   7.918  1.0381 -0.7442  0.7541
  938MOL0     C29362   6.634   3.810   7.989  0.6064  0.6830 -0.7911
  938MOL0     C29363   6.616   3.944   7.972  0.4326 -0.7055  0.3556
  938MOL0     C29364   6.707   4.010   7.892 -0.1827  0.7380  0.5790
  938MOL0     O29365   6.721   4.140   7.886  0.1069  0.2917  0.7663
  938MOL0     C29366   6.604   4.208   7.849 -1.8461 -0.1009  0.5795
  938MOL0     C29367   6.629   4.344   7.794  0.1200 -0.7405  0.1696
  938MOL0     C29368   6.720   4.347   7.668 -0.7460 -0.1984  0.5390
  938MOL0     C29369   6.650   4.286   7.548  0.8431 -0.1511 -0.5050
  938MOL0     C29370   6.669   4.143   7.520 -0.2172 -0.3202 -0.1812
  938MOL0     C29371   6.687   4.023   7.496  1.0000  0.0652 -0.1634
  938MOL0     C29372   6.804   3.933   7.825 -0.6221 -0.7840  0.4608
  938MOL0     C29373   6.826   3.797   7.842  0.2847  0.5376 -0.0249
  938MOL0     C29374   6.931   3.720   7.751 -0.6920 -0.2973  0.3680
  938MOL0     H29375   6.873   3.376   7.658 -0.1868  2.5681  1.6290
  938MOL0     H29376   6.865   3.126   7.620 -1.3904 -2.0950 -0.2543
  938MOL0     H29377   6.688   2.894   7.941 -1.7880 -3.6895 -1.2707
  938MOL0     H29378   6.857   2.932   7.905  0.1638  0.4520 -0.2791
  938MOL0     H29379   6.778   2.690   7.911  2.3010 -1.3187  0.0147
  938MOL0     H29380   6.667   2.724   7.785 -0.5829 -0.6528  0.4216
  938MOL0     H29381   6.841   2.637   7.655 -0.6446 -3.1089  2.1688
  938MOL0     H29382   6.913   2.802   7.671 -1.2470 -2.1283 -1.3951
  938MOL0     H29383   7.000   2.708   7.910  0.0959 -0.4707  0.3871
  938MOL0     H29384   6.958   2.560   7.840  0.0671  0.7526  1.5087
  938MOL0     H29385   7.209   2.639   7.801 -2.8250 -0.1100  2.9172
  938MOL0     H29386   7.148   2.729   7.667 -0.6727 -0.8794 -1.8721
  938MOL0     H29387   7.093   2.443   7.691 -1.9825  0.5803 -1.7253
  938MOL0     H29388   7.056   2.552   7.554  2.2194  3.1542 -1.9769
  938MOL0     H29389   7.344   2.483   7.642 -0.0724  0.8295  1.8690
  938MOL0     H29390   7.299   2.582   7.507 -0.6444 -3.4032 -4.5897
  938MOL0     H29391   7.200   2.285   7.535  0.8898 -0.1812  1.0532
  938MOL0     H29392   7.190   2.387   7.392  3.2192  4.0242 -0.5890
  938MOL0     H29393   7.467   2.219   7.637 -0.6812 -1.2275 -0.4558
  938MOL0     H29394   7.687   2.119   7.601 -0.0956  2.0837  0.5678
  938MOL0     H29395   7.794   2.191   7.477  0.1281 -0.3738  0.1327
  938MOL0     H29396   7.677   1.996   7.323 -0.6508 -1.3757  1.1649
  938MOL0     H29397   7.834   2.001   7.398  0.5436  0.2155  0.2847
  938MOL0     H29398   7.600   1.887   7.560 -0.2052  2.2431  0.6177
  938MOL0     H29399   7.693   1.792   7.434  0.0529  1.8966 -1.6886
  938MOL0     H29400   7.892   1.807   7.561  0.3849  0.5167  1.3538
  938MOL0     H29401   7.830   1.938   7.661  1.1266  0.5521 -1.0304
  938MOL0     H29402   7.670   1.561   7.847 -0.3490  0.7142  6.0267
  938MOL0     H29403   7.813   1.318   8.005  1.7795 -0.2845  0.6850
  938MOL0     H29404   7.670   1.431   8.008  0.6175  0.2411 -2.8837
  938MOL0     H29405   7.790   1.422   8.144  1.2920  2.0999 -0.1170
  938MOL0     H29406   8.073   1.109   8.086  0.1373 -0.6741  0.9373
  938MOL0     H29407   8.177   0.952   8.224  3.0387 -0.1366  0.6540
  938MOL0     H29408   8.349   0.824   8.438  0.0575  0.1773  0.3146
  938MOL0     H29409   8.410   0.950   8.328  0.3975 -3.0490 -0.5550
  938MOL0     H29410   8.513   0.892   8.612 -0.6269  3.2068  2.3057
  938MOL0     H29411   8.593   0.884   8.458 -0.8475 -1.9618  0.1801
  938MOL0     H29412   8.656   1.098   8.578  1.2773 -3.1433  0.6043
  938MOL0     H29413   8.480   1.136   8.589 -0.7121 -1.4349 -0.9376
  938MOL0     H29414   8.492   1.188   8.342  0.4233 -0.1084  0.6126
  938MOL0     H29415   8.644   1.090   8.322  1.3913  0.5902 -0.4160
  938MOL0     H29416   8.763   1.253   8.458  0.3681 -0.2779 -1.2808
  938MOL0     H29417   8.688   1.319   8.309  0.8450 -0.4902 -0.2055
  938MOL0     H29418   8.585   1.366   8.593  2.2479  0.5524  0.1305
  938MOL0     H29419   8.489   1.387   8.456  0.2056  3.8338 -4.1029
  938MOL0     H29420   8.555   1.597   8.439  0.8965  3.1150  3.0972
  938MOL0     H29421   8.710   1.527   8.369  2.1463  1.0623  2.4001
  938MOL0     H29422   8.733   1.685   8.527  0.2698  0.2207  0.3587
  938MOL0     H29423   8.817   1.528   8.577 -1.0881 -0.8813  1.2737
  938MOL0     H29424   8.268   1.257   8.509 -0.8911 -0.2907  0.3308
  938MOL0     H29425   8.199   1.430   8.340  1.3958 -0.0984 -2.1905
  938MOL0     H29426   8.128   1.714   7.936 -0.0235  1.3794  1.1792
  938MOL0     H29427   7.983   1.832   7.784  0.0445  1.8255  0.7827
  938MOL0     H29428   6.592   3.100   7.958  1.5738 -3.7455 -0.2532
  938MOL0     H29429   6.591   3.335   7.982 -1.9774 -1.1362  0.0519
  938MOL0     H29430   6.561   3.767   8.058 -1.5524  1.0244 -2.7487
  938MOL0     H29431   6.544   3.999   8.032 -0.1818 -3.3460  2.2282
  938MOL0     H29432   6.554   4.145   7.775  3.3990 -0.0203 -3.6827
  938MOL0     H29433   6.545   4.230   7.939 -0.0691  1.1215  1.5061
  938MOL0     H29434   6.674   4.418   7.861  0.5170  0.2979 -1.1877
  938MOL0     H29435   6.530   4.386   7.773  0.6996  0.4220 -0.3848
  938MOL0     H29436   6.750   4.450   7.646 -2.1419  0.4267  1.3870
  938MOL0     H29437   6.813   4.291   7.681 -1.1011 -1.1120 -0.7006
  938MOL0     H29438   6.654   4.353   7.462 -3.4166 -0.1826 -0.9694
  938MOL0     H29439   6.543   4.286   7.572 -0.2516 -2.7871 -4.4996
  938MOL0     H29440   6.712   3.922   7.468  0.2155 -0.7843  2.0110
  938MOL0     H29441   6.873   3.988   7.762 -2.3285  1.2108  0.2204
  938MOL0     H29442   7.010   3.783   7.711 -0.0254  0.2075  2.3483
  938MOL0     H29443   6.979   3.669   7.835  1.4804  2.7300  1.1256
  938MOL0     H29444   6.886   3.659   7.673 -1.2243 -1.0069  1.2018
  939MOL0     O29445   6.586   4.849   3.246 -0.2103  0.3817 -0.6182
  939MOL0     C29446   6.665   4.900   3.321 -0.4051  0.5128  0.1754
  939MOL0     O29447   6.631   5.007   3.396 -0.7265 -0.3093  0.7270
  939MOL0     C29448   6.506   5.063   3.404 -0.6658 -0.2155  0.6343
  939MOL0     C29449   6.388   4.995   3.413  0.6333 -0.4996  0.1239
  939MOL0     C29450   6.270   5.077   3.435  0.5654  0.0378 -1.0846
  939MOL0     C29451   6.273   5.214   3.470 -0.0058 -0.1278 -0.3438
  939MOL0     O29452   6.150   5.279   3.492 -0.6918 -1.3191 -0.8603
  939MOL0     C29453   6.152   5.406   3.559 -0.3794 -0.6803  0.1401
  939MOL0     C29454   6.185   5.396   3.713  0.9480  0.0205 -0.2430
  939MOL0     C29455   6.113   5.277   3.787  0.0599  0.1091  0.2804
  939MOL0     C29456   5.965   5.274   3.768 -0.2569  1.1457 -0.1389
  939MOL0     C29457   5.904   5.155   3.837 -0.3266 -0.3177 -0.2363
  939MOL0     C29458   5.922   5.027   3.756  1.1988 -0.0640 -0.0478
  939MOL0     C29459   5.904   4.894   3.833  0.2028  0.5753  0.5195
  939MOL0     C29460   6.001   4.882   3.955  0.7504 -1.5677  0.5170
  939MOL0     N29461   6.139   4.874   3.922  0.5917  1.0538 -0.2817
  939MOL0     C29462   6.199   4.752   3.873  0.3843 -0.0287 -0.0226
  939MOL0     C29463   6.317   4.789   3.835  0.0980 -0.5588 -0.4340
  939MOL0     C29464   6.419   4.698   3.773 -0.0015  0.6427 -0.0578
  939MOL0     C29465   6.466   4.754   3.631  0.1500  0.3590  0.6647
  939MOL0     C29466   6.587   4.664   3.567  0.9408 -0.0848  0.6544
  939MOL0     C29467   6.558   4.513   3.550  0.0554 -0.6840 -0.0941
  939MOL0     O29468   6.661   4.430   3.618 -0.2961 -0.4887  0.1197
  939MOL0     C29469   6.780   4.415   3.549 -0.7872  0.2863 -0.6842
  939MOL0     C29470   6.782   4.371   3.416 -0.9574  0.5048 -0.3601
  939MOL0     C29471   6.909   4.342   3.347 -0.2621  0.6303  0.0383
  939MOL0     C29472   6.895   4.270   3.214  0.7729 -0.1338  0.3481
  939MOL0     C29473   7.028   4.364   3.421  0.1975  0.1211  0.1731
  939MOL0     C29474   7.158   4.327   3.375 -0.3731  0.7379  0.7230
  939MOL0     O29475   7.256   4.329   3.468 -0.0616  0.3993  0.3307
  939MOL0     C29476   7.387   4.314   3.433 -0.4110 -0.2809  0.6447
  939MOL0     C29477   7.485   4.396   3.487  0.2297 -0.3577  0.0394
  939MOL0     C29478   7.622   4.384   3.463  0.3702 -0.3348 -1.0061
  939MOL0     C29479   7.666   4.288   3.378 -0.3880  0.2623  0.7522
  939MOL0     O29480   7.788   4.243   3.337 -0.0515  0.5687  0.3850
  939MOL0     C29481   7.882   4.230   3.447  0.8844  0.0861 -0.2631
  939MOL0     C29482   8.032   4.234   3.395  1.1808  0.1247  0.7172
  939MOL0     C29483   8.114   4.186   3.520  0.5751  0.2223  0.2387
  939MOL0     C29484   8.258   4.229   3.519  0.7406 -0.2718 -0.1883
  939MOL0     C29485   8.330   4.168   3.637  0.7146 -0.6453  0.2602
  939MOL0     C29486   8.281   4.199   3.781  0.0849 -0.3790 -0.5661
  939MOL0     C29487   8.376   4.137   3.888 -0.4041  0.4480 -0.5289
  939MOL0     C29488   8.465   4.244   3.971 -0.1237  0.8110  0.1282
  939MOL0    Cl29489   8.375   4.353   4.079  0.1304  0.2850  0.7230
  939MOL0     C29490   7.572   4.208   3.319  0.2192  1.1884  0.0255
  939MOL0     C29491   7.435   4.213   3.345  0.1993  0.3920 -0.5655
  939MOL0     O29492   7.174   4.290   3.262  0.2959  0.1950 -0.0304
  939MOL0     C29493   7.019   4.425   3.548 -0.3597  0.4089  0.6457
  939MOL0     C29494   6.900   4.454   3.612 -0.2301  1.4720  0.3974
  939MOL0     N29495   6.333   4.930   3.853 -0.3715 -0.5615  0.1119
  939MOL0     N29496   6.221   4.978   3.901  0.0649 -0.5910 -0.1830
  939MOL0     C29497   6.404   5.279   3.471  0.4162 -0.0172  0.0309
  939MOL0     C29498   6.520   5.200   3.440 -0.2799  0.5216  0.4091
  939MOL0     C29499   6.806   4.846   3.348  0.0536  0.4187  0.1257
  939MOL0     C29500   6.892   4.928   3.416  0.1006 -0.5925 -0.1925
  939MOL0     C29501   7.020   4.890   3.454  0.3366 -0.1900 -0.0594
  939MOL0     C29502   7.076   4.768   3.408 -0.3614  0.1984  0.0131
  939MOL0     O29503   7.210   4.723   3.428  0.8575 -0.1945  0.1204
  939MOL0     C29504   7.298   4.720   3.319 -0.5939  0.6140  0.6065
  939MOL0     C29505   7.408   4.821   3.334 -1.2325 -0.0011  0.4912
  939MOL0     C29506   7.472   4.879   3.211  0.9051 -0.2635  0.1227
  939MOL0     C29507   7.516   5.031   3.212 -0.5114 -0.5422  0.1911
  939MOL0     C29508   7.544   5.070   3.082  0.5114 -0.2885  0.1961
  939MOL0     C29509   7.579   5.100   2.970  0.2760  0.4366  1.1172
  939MOL0     C29510   6.996   4.686   3.327 -0.4414 -0.0804  0.0171
  939MOL0     C29511   6.862   4.724   3.298  0.6133  0.5595 -0.0334
  939MOL0     C29512   6.796   4.640   3.192 -0.4055 -0.5294  0.0897
  939MOL0     H29513   6.372   4.888   3.406  0.8887 -0.4835 -0.8821
  939MOL0     H29514   6.171   5.032   3.434  0.4199  0.3055 -2.8289
  939MOL0     H29515   6.058   5.457   3.538  0.0917 -0.1989 -0.8396
  939MOL0     H29516   6.235   5.458   3.510  1.5945 -3.6376  0.0806
  939MOL0     H29517   6.293   5.391   3.724  0.6058 -1.1067  4.5322
  939MOL0     H29518   6.154   5.489   3.761 -0.6169 -1.3680  1.5622
  939MOL0     H29519   6.152   5.176   3.775 -0.9333 -0.3645  0.8733
  939MOL0     H29520   6.124   5.293   3.895 -1.7951  1.7940  0.2804
  939MOL0     H29521   5.923   5.365   3.812  2.2869  3.2269 -1.6816
  939MOL0     H29522   5.927   5.272   3.666 -0.9601 -2.2232  0.0872
  939MOL0     H29523   5.796   5.164   3.853 -0.3788 -0.8835 -0.2727
  939MOL0     H29524   5.953   5.152   3.934 -1.8528  1.5311  0.6582
  939MOL0     H29525   5.847   5.023   3.676  0.2879  3.8659  0.4382
  939MOL0     H29526   6.021   5.032   3.708  1.4120 -3.3399 -0.2121
  939MOL0     H29527   5.927   4.803   3.777 -0.3846  0.9763 -0.3898
  939MOL0     H29528   5.799   4.889   3.864 -0.5046  3.1735 -1.1814
  939MOL0     H29529   5.983   4.969   4.020 -2.4149 -2.0866  0.4642
  939MOL0     H29530   5.987   4.791   4.013  3.6700 -1.6461  1.2705
  939MOL0     H29531   6.142   4.660   3.871 -0.4619  0.4197  1.5243
  939MOL0     H29532   6.383   4.595   3.775  0.9211  0.2854 -1.1401
  939MOL0     H29533   6.512   4.699   3.830  0.4213 -1.2128 -0.6543
  939MOL0     H29534   6.379   4.746   3.565  1.6899  2.7209 -1.8711
  939MOL0     H29535   6.489   4.859   3.612 -2.6686  0.5410 -2.8811
  939MOL0     H29536   6.620   4.702   3.469 -2.6862 -0.7636 -0.9953
  939MOL0     H29537   6.675   4.678   3.630  0.1541  1.5171  1.4459
  939MOL0     H29538   6.470   4.480   3.607 -0.0988 -1.7834 -0.9404
  939MOL0     H29539   6.546   4.486   3.444 -5.3715  0.5570 -0.1121
  939MOL0     H29540   6.692   4.341   3.362 -0.4682  2.9126 -2.7230
  939MOL0     H29541   6.958   4.336   3.154  1.2496  0.1957  1.1839
  939MOL0     H29542   6.790   4.254   3.188  1.1879 -3.4579  0.2756
  939MOL0     H29543   6.938   4.169   3.217 -0.5075 -0.6804  1.2971
  939MOL0     H29544   7.442   4.483   3.535 -1.1363 -0.4302 -0.9959
  939MOL0     H29545   7.689   4.462   3.495 -0.0601  0.2039 -1.3953
  939MOL0     H29546   7.863   4.316   3.511 -3.3509 -0.6274 -0.2769
  939MOL0     H29547   7.858   4.137   3.500  2.5176  0.0535  0.4734
  939MOL0     H29548   8.042   4.176   3.303  0.8886 -0.6050  1.1335
  939MOL0     H29549   8.056   4.338   3.372 -0.8133  0.9716  2.1602
  939MOL0     H29550   8.124   4.077   3.529 -0.3884 -0.0414 -1.5137
  939MOL0     H29551   8.058   4.240   3.597  0.5459  1.1421 -0.4152
  939MOL0     H29552   8.266   4.337   3.506 -2.3292 -0.0453 -0.8029
  939MOL0     H29553   8.302   4.190   3.427 -0.2716 -1.7673 -0.0758
  939MOL0     H29554   8.323   4.061   3.616  0.0900 -0.6752  0.5789
  939MOL0     H29555   8.432   4.204   3.629  0.0245  1.2883 -0.4816
  939MOL0     H29556   8.185   4.147   3.787  0.4841 -1.3940 -2.4080
  939MOL0     H29557   8.266   4.307   3.797 -1.2117 -0.3292 -1.9076
  939MOL0     H29558   8.441   4.069   3.833 -2.1702 -0.7639 -1.1761
  939MOL0     H29559   8.318   4.086   3.964 -1.0944  2.6242  0.4991
  939MOL0     H29560   8.522   4.302   3.899  0.7683  4.5206  3.4802
  939MOL0     H29561   8.534   4.185   4.032 -0.2391 -3.3477 -3.2934
  939MOL0     H29562   7.613   4.127   3.258  1.0168  2.4854 -1.2177
  939MOL0     H29563   7.366   4.136   3.311 -0.2954  0.4786  0.2154
  939MOL0     H29564   7.114   4.443   3.597  1.3916 -2.5667 -1.3518
  939MOL0     H29565   6.908   4.503   3.709  2.8193  2.4073 -0.2392
  939MOL0     H29566   6.423   5.383   3.497 -0.6716  0.0857  0.4579
  939MOL0     H29567   6.618   5.242   3.418  0.8092 -2.5141 -1.0861
  939MOL0     H29568   6.851   5.025   3.443 -0.9775 -2.0412  4.2821
  939MOL0     H29569   7.086   4.955   3.510 -2.4000 -0.2902  3.6351
  939MOL0     H29570   7.344   4.621   3.327 -1.9561  0.1425  5.1538
  939MOL0     H29571   7.260   4.730   3.217  1.4813  2.4969 -0.0720
  939MOL0     H29572   7.483   4.771   3.395  0.0499  0.3062 -0.8020
  939MOL0     H29573   7.355   4.910   3.371 -3.5267 -1.4743  0.9898
  939MOL0     H29574   7.555   4.814   3.184  0.2213 -0.4847 -1.5673
  939MOL0     H29575   7.391   4.874   3.138 -1.4692  1.2529  2.4550
  939MOL0     H29576   7.606   5.035   3.273 -1.7950  0.9122  2.1044
  939MOL0     H29577   7.442   5.104   3.247 -0.4112  0.2768 -1.1994
  939MOL0     H29578   7.606   5.123   2.869 -0.7480  1.2229  1.0041
  939MOL0     H29579   7.028   4.591   3.285 -3.7987 -1.8440  1.0727
  939MOL0     H29580   6.741   4.555   3.233 -0.6229  0.0761  1.0939
  939MOL0     H29581   6.741   4.709   3.127  0.8756 -1.0565 -1.6149
  939MOL0     H29582   6.872   4.593   3.129  3.0185  2.0426  1.9318
  940MOL0     O29583  11.542  11.013   5.197  0.1931  0.3210 -0.0100
  940MOL0     C29584  11.655  11.050   5.163  0.6644  1.3529 -0.2791
  940MOL0     O29585  11.708  11.168   5.180  0.3104 -0.0508 -0.1563
  940MOL0     C29586  11.621  11.263   5.224  1.1271 -1.2407 -0.3516
  940MOL0     C29587  11.487  11.304   5.185 -0.3329 -0.3803  0.7765
  940MOL0     C29588  11.415  11.418   5.232 -0.6059  1.2393 -0.3839
  940MOL0     C29589  11.486  11.494   5.329 -0.4971  0.4732 -0.1901
  940MOL0     O29590  11.426  11.602   5.384 -0.1560 -0.4954 -0.5301
  940MOL0     C29591  11.369  11.705   5.303  0.5311  0.3063  0.5824
  940MOL0     C29592  11.490  11.806   5.282 -0.5436 -0.5761  0.3433
  940MOL0     C29593  11.487  11.906   5.404  0.7942  0.0576 -0.3293
  940MOL0     C29594  11.631  11.938   5.442 -0.2181  0.7040  0.0825
  940MOL0     C29595  11.704  11.849   5.544  0.5607  0.3911 -0.1023
  940MOL0     C29596  11.622  11.844   5.684 -0.6872  0.7099  0.3344
  940MOL0     C29597  11.528  11.720   5.704  0.3207  0.9264  0.0129
  940MOL0     C29598  11.483  11.684   5.843 -0.4205 -0.3214  0.0311
  940MOL0     N29599  11.353  11.620   5.835 -0.4100  0.0365  0.1811
  940MOL0     C29600  11.343  11.482   5.819 -0.1714 -0.2694  0.1882
  940MOL0     C29601  11.217  11.459   5.839  0.3367  1.1062  0.6388
  940MOL0     C29602  11.120  11.338   5.861 -0.9878 -0.8195 -0.4415
  940MOL0     C29603  11.122  11.229   5.753  0.3030 -0.7263 -0.4488
  940MOL0     C29604  11.060  11.263   5.621  0.7203  0.5399 -0.1969
  940MOL0     C29605  10.904  11.256   5.619  0.8167  0.6716 -0.6694
  940MOL0     O29606  10.851  11.288   5.489  0.1538  1.0380 -0.1463
  940MOL0     C29607  10.717  11.256   5.454  0.8062  0.7686 -0.0518
  940MOL0     C29608  10.629  11.182   5.534  1.0291 -0.0509 -0.0378
  940MOL0     C29609  10.497  11.155   5.493  0.0376  0.3000 -0.1453
  940MOL0     C29610  10.406  11.092   5.589 -0.5887 -0.3472  1.0720
  940MOL0     C29611  10.460  11.208   5.363  0.4817 -0.3683  0.0170
  940MOL0     C29612  10.315  11.191   5.319 -0.5645  0.5032  0.0198
  940MOL0     O29613  10.271  11.288   5.243 -0.0224 -0.5674 -0.5749
  940MOL0     C29614  10.182  11.288   5.150 -0.4165  0.1149  0.7646
  940MOL0     C29615  10.143  11.414   5.111 -0.4582  0.4728  0.2901
  940MOL0     C29616  10.056  11.424   5.001 -0.7050  0.3533 -0.8023
  940MOL0     C29617  10.023  11.307   4.926 -0.1004 -0.3089 -0.5319
  940MOL0     O29618   9.944  11.327   4.814  0.9717 -0.4486 -0.0762
  940MOL0     C29619  10.004  11.416   4.712  0.8359  0.3950  0.9289
  940MOL0     C29620   9.880  11.470   4.636 -0.9133  0.0703 -1.2917
  940MOL0     C29621   9.912  11.585   4.538  0.7367  0.6587  1.0409
  940MOL0     C29622  10.002  11.534   4.424  0.5526  0.7333  0.1037
  940MOL0     C29623   9.995  11.631   4.307 -1.2111 -0.1588  0.1880
  940MOL0     C29624  10.096  11.593   4.197  0.0822  0.4210 -0.4127
  940MOL0     C29625  10.063  11.668   4.059  0.4774  0.3597 -0.7565
  940MOL0     C29626  10.105  11.814   4.066 -0.4505  0.0230  0.3082
  940MOL0    Cl29627   9.990  11.908   4.158  0.2400 -0.0272 -0.0484
  940MOL0     C29628  10.079  11.183   4.950  0.2036  0.2249  0.2366
  940MOL0     C29629  10.155  11.172   5.071  0.0912 -0.8755  0.0046
  940MOL0     O29630  10.260  11.083   5.336 -0.5204 -0.7521  0.0081
  940MOL0     C29631  10.545  11.289   5.290  0.2490 -0.2000  0.6435
  940MOL0     C29632  10.679  11.312   5.328 -0.3536 -0.7898 -0.6222
  940MOL0     N29633  11.156  11.577   5.872  0.0541  0.2932  0.1556
  940MOL0     N29634  11.237  11.677   5.866  0.7519  0.2921  0.0812
  940MOL0     C29635  11.617  11.458   5.364  0.4240  0.2732 -0.5884
  940MOL0     C29636  11.683  11.352   5.316  0.1635 -0.0092  0.3750
  940MOL0     C29637  11.728  10.946   5.092 -0.3924  0.2755 -1.3513
  940MOL0     C29638  11.850  10.984   5.034  0.4077  0.3943 -0.4656
  940MOL0     C29639  11.929  10.902   4.962 -0.1402  0.5058 -1.1101
  940MOL0     C29640  11.902  10.767   4.959  0.4302  0.0809  0.3305
  940MOL0     O29641  11.981  10.686   4.878  0.2811 -0.1429  0.4290
  940MOL0     C29642  11.910  10.613   4.776  0.3633 -0.1500  0.6807
  940MOL0     C29643  11.946  10.677   4.633  0.8644  0.7337 -0.1263
  940MOL0     C29644  11.879  10.813   4.617  0.8551  0.6880 -0.8457
  940MOL0     C29645  11.926  10.906   4.511 -0.4044 -0.3157 -0.5191
  940MOL0     C29646  11.874  10.882   4.375  0.3545 -0.3512 -0.1868
  940MOL0     C29647  11.843  10.855   4.263 -0.3274 -0.5707 -0.6604
  940MOL0     C29648  11.786  10.716   5.017 -0.0241 -0.0786  0.3864
  940MOL0     C29649  11.697  10.802   5.088  0.3849  0.5450 -0.4047
  940MOL0     C29650  11.584  10.739   5.150  0.8996 -0.1503 -0.1069
  940MOL0     H29651  11.439  11.246   5.106 -1.9529 -1.3260  2.3801
  940MOL0     H29652  11.317  11.444   5.193 -0.9411 -0.6202 -0.8684
  940MOL0     H29653  11.290  11.760   5.355 -2.3392 -0.4339 -2.5954
  940MOL0     H29654  11.312  11.658   5.222 -4.3013 -0.7140  4.1233
  940MOL0     H29655  11.591  11.769   5.264  0.4060  2.0922 -0.2840
  940MOL0     H29656  11.470  11.871   5.196  4.4825  2.0860  0.8166
  940MOL0     H29657  11.436  11.999   5.377 -2.2537 -1.1444  0.8067
  940MOL0     H29658  11.431  11.864   5.488 -1.3720  0.5829 -1.4543
  940MOL0     H29659  11.685  11.936   5.347  0.5618  1.6385  0.4905
  940MOL0     H29660  11.646  12.038   5.483 -2.6355  1.6948 -1.2446
  940MOL0     H29661  11.803  11.888   5.567 -0.1575  1.5086  1.1982
  940MOL0     H29662  11.723  11.748   5.506  0.3088  0.7674 -1.2776
  940MOL0     H29663  11.707  11.854   5.752  2.8954 -0.6023 -3.5401
  940MOL0     H29664  11.561  11.935   5.697 -2.1996 -0.2399  0.0873
  940MOL0     H29665  11.570  11.633   5.652 -2.6969 -0.5605 -0.1492
  940MOL0     H29666  11.440  11.732   5.641 -0.7254 -2.7773  0.5339
  940MOL0     H29667  11.571  11.633   5.884 -0.3631 -2.5821 -2.5854
  940MOL0     H29668  11.468  11.778   5.897 -1.9102  0.4684 -1.6528
  940MOL0     H29669  11.417  11.403   5.817 -1.4109 -1.4868  1.0130
  940MOL0     H29670  11.021  11.380   5.882  0.4844  2.3281  0.7436
  940MOL0     H29671  11.157  11.293   5.954 -0.9472  2.0135  1.0373
  940MOL0     H29672  11.226  11.205   5.726  0.6162 -1.2257  1.0672
  940MOL0     H29673  11.073  11.140   5.795  0.8565 -0.4841  0.7836
  940MOL0     H29674  11.092  11.363   5.591 -1.2551  1.2532 -0.0514
  940MOL0     H29675  11.089  11.191   5.543 -0.0248 -2.8411  2.3870
  940MOL0     H29676  10.874  11.159   5.658  2.3898 -1.5118 -4.4035
  940MOL0     H29677  10.868  11.332   5.689 -0.1261 -0.5557  0.2034
  940MOL0     H29678  10.658  11.162   5.637  2.1118 -0.0736 -0.3383
  940MOL0     H29679  10.442  11.110   5.690 -0.9727 -0.5448  1.2447
  940MOL0     H29680  10.402  10.986   5.562 -1.4981  0.5426 -2.9842
  940MOL0     H29681  10.309  11.143   5.581 -1.1405 -1.5226 -0.1894
  940MOL0     H29682  10.186  11.493   5.172  2.4867  1.2073 -2.4331
  940MOL0     H29683  10.005  11.518   4.980 -0.2270  0.6602 -0.6162
  940MOL0     H29684  10.050  11.502   4.762 -3.6361  4.9785 -1.8552
  940MOL0     H29685  10.058  11.351   4.643 -2.5171 -0.6492 -0.9457
  940MOL0     H29686   9.818  11.385   4.605 -0.3683 -2.5584  3.6660
  940MOL0     H29687   9.813  11.512   4.712  1.4638 -0.3142  1.1777
  940MOL0     H29688   9.962  11.671   4.584  0.8762  0.6946  0.8259
  940MOL0     H29689   9.814  11.617   4.501  0.7822 -0.9568 -0.6342
  940MOL0     H29690   9.967  11.434   4.395  0.5212 -0.1139  2.8261
  940MOL0     H29691  10.104  11.520   4.459 -0.0609 -1.1975  1.2505
  940MOL0     H29692   9.895  11.638   4.265 -0.2030  2.3921 -2.1306
  940MOL0     H29693  10.016  11.731   4.348  1.6394 -1.1368  1.3867
  940MOL0     H29694  10.081  11.487   4.174  1.0279 -0.1244  1.3236
  940MOL0     H29695  10.201  11.603   4.227 -0.3281 -0.7364  1.6138
  940MOL0     H29696   9.959  11.667   4.027  0.1423 -2.6785  0.1092
  940MOL0     H29697  10.126  11.619   3.984 -2.5506  0.7318 -3.7621
  940MOL0     H29698  10.107  11.857   3.965 -0.6471  2.0377  1.1202
  940MOL0     H29699  10.205  11.826   4.109 -1.3064  0.9673  2.1233
  940MOL0     H29700  10.070  11.097   4.884 -2.4355 -0.0614  0.8570
  940MOL0     H29701  10.197  11.076   5.098 -0.9564 -0.6644  2.7221
  940MOL0     H29702  10.507  11.329   5.196 -1.2726 -0.6263  1.0389
  940MOL0     H29703  10.742  11.372   5.262  1.4914 -0.3680  1.3897
  940MOL0     H29704  11.664  11.524   5.436 -1.2747  1.7964 -0.7913
  940MOL0     H29705  11.786  11.329   5.344 -0.5638 -2.4347  1.2716
  940MOL0     H29706  11.867  11.090   5.018  0.5506  0.5741  0.7881
  940MOL0     H29707  12.021  10.950   4.931  0.5893 -0.5531 -0.6326
  940MOL0     H29708  11.946  10.510   4.783 -0.4729 -0.5147 -0.1367
  940MOL0     H29709  11.801  10.616   4.788  0.3757  1.0819  0.5853
  940MOL0     H29710  11.910  10.607   4.557 -2.5001  3.7424 -1.6408
  940MOL0     H29711  12.055  10.685   4.634  1.0246 -0.2798  3.2974
  940MOL0     H29712  11.771  10.799   4.600  0.7945  2.3491 -2.0769
  940MOL0     H29713  11.878  10.870   4.710 -0.1986 -3.7397  2.1208
  940MOL0     H29714  12.032  10.896   4.486  0.1729  3.5081 -0.1107
  940MOL0     H29715  11.921  11.011   4.538 -3.9088 -0.9036  1.7149
  940MOL0     H29716  11.817  10.844   4.159  1.3464 -0.7416 -1.0882
  940MOL0     H29717  11.786  10.610   4.994  5.4229  0.2400 -2.8052
  940MOL0     H29718  11.561  10.634   5.129 -0.2287 -0.0553  0.5607
  940MOL0     H29719  11.587  10.761   5.257 -1.0155  1.6758 -0.3746
  940MOL0     H29720  11.491  10.791   5.127 -1.2574 -2.8551  1.7534
  941MOL0     O29721   2.946   7.997   6.875  0.2395  0.2713 -0.5837
  941MOL0     C29722   2.925   7.872   6.869 -0.7281  0.5585  0.1607
  941MOL0     O29723   2.836   7.794   6.931  0.2599  0.2712 -0.6396
  941MOL0     C29724   2.754   7.864   7.012 -0.4496 -0.1382  0.1254
  941MOL0     C29725   2.629   7.915   6.981  0.8590  0.5055  0.3330
  941MOL0     C29726   2.553   7.994   7.078 -0.6582 -0.0119  0.6366
  941MOL0     C29727   2.601   8.003   7.209  0.0635  0.0177  0.3482
  941MOL0     O29728   2.528   8.072   7.296  0.2441  0.3462  0.5859
  941MOL0     C29729   2.564   8.083   7.434  0.2565 -0.1508  0.5832
  941MOL0     C29730   2.444   8.136   7.507 -0.6038  0.7268  0.2901
  941MOL0     C29731   2.474   8.173   7.648  0.8981  0.0338 -0.1481
  941MOL0     C29732   2.471   8.053   7.745  0.0610 -0.3048 -0.3184
  941MOL0     C29733   2.472   8.100   7.891  0.0220 -0.2304  0.1302
  941MOL0     C29734   2.594   8.180   7.932  0.4554 -0.4355 -0.7220
  941MOL0     C29735   2.621   8.185   8.087 -0.3505 -1.0482 -0.0644
  941MOL0     C29736   2.698   8.057   8.135 -0.0723  0.6248  0.2441
  941MOL0     N29737   2.766   8.093   8.265 -0.0153  0.1956 -0.4507
  941MOL0     C29738   2.713   8.180   8.361 -0.5350  0.6324  1.2820
  941MOL0     C29739   2.802   8.172   8.463  0.0004  1.0041  1.1242
  941MOL0     C29740   2.763   8.259   8.590  0.4632 -0.2280 -0.0886
  941MOL0     C29741   2.632   8.225   8.642  1.2091  0.1438  0.4322
  941MOL0     C29742   2.629   8.090   8.705 -0.6011 -0.1425 -0.1145
  941MOL0     C29743   2.478   8.052   8.746  0.2021  0.0547  0.0513
  941MOL0     O29744   2.411   8.156   8.817  0.0934  0.3331 -0.4003
  941MOL0     C29745   2.394   8.143   8.952  0.7841 -0.3380  0.7344
  941MOL0     C29746   2.501   8.164   9.037  0.1162 -1.1203  0.4411
  941MOL0     C29747   2.471   8.191   9.177  0.9193  0.9183 -0.9473
  941MOL0     C29748   2.586   8.219   9.265 -0.3249  0.0724  0.2804
  941MOL0     C29749   2.337   8.186   9.220  0.6944 -0.9669  1.8124
  941MOL0     C29750   2.290   8.239   9.358  0.3980 -0.1361 -1.0251
  941MOL0     O29751   2.388   8.271   9.454  0.3496 -0.5146 -0.2053
  941MOL0     C29752   2.342   8.311   9.582 -0.6615  0.0474 -0.1721
  941MOL0     C29753   2.308   8.443   9.621  1.0421 -0.1280  0.0437
  941MOL0     C29754   2.276   8.464   9.752  0.1984  0.1665  0.0374
  941MOL0     C29755   2.260   8.357   9.842  0.4820  0.1885  0.4062
  941MOL0     O29756   2.241   8.382   9.970  0.3190  0.2437  0.6618
  941MOL0     C29757   2.341   8.450  10.039  0.0870  0.0956  0.1960
  941MOL0     C29758   2.359   8.396  10.171 -1.7153 -0.4220 -0.1696
  941MOL0     C29759   2.423   8.246  10.176 -0.8627 -0.5255  0.1522
  941MOL0     C29760   2.429   8.194  10.319  0.1615  0.5540  1.0473
  941MOL0     C29761   2.286   8.164  10.367 -0.8286  0.0613  0.6858
  941MOL0     C29762   2.281   8.115  10.510 -0.6172 -0.2746  1.0511
  941MOL0     C29763   2.149   8.158  10.579 -0.3746 -0.1631  0.0480
  941MOL0     C29764   2.178   8.273  10.679 -0.3470 -0.0991 -0.1117
  941MOL0    Cl29765   2.251   8.213  10.824 -0.0806  0.3859  0.1798
  941MOL0     C29766   2.298   8.230   9.799 -0.7538 -0.0395 -0.5050
  941MOL0     C29767   2.345   8.204   9.673  0.7676 -0.6735 -0.0191
  941MOL0     O29768   2.170   8.234   9.380  0.1977  0.6073 -0.1245
  941MOL0     C29769   2.238   8.155   9.128  0.5915 -0.4291 -0.4793
  941MOL0     C29770   2.269   8.130   8.996  1.0033 -0.8464  0.2161
  941MOL0     N29771   2.924   8.099   8.424  0.4954  0.4916  0.5459
  941MOL0     N29772   2.893   8.053   8.306  0.2613  0.1408 -0.2935
  941MOL0     C29773   2.726   7.946   7.238  0.6185  0.3960 -0.6786
  941MOL0     C29774   2.800   7.876   7.143 -0.9507 -1.1480 -0.2912
  941MOL0     C29775   3.016   7.780   6.789 -0.1480  0.1918 -0.3261
  941MOL0     C29776   2.964   7.660   6.746  0.7708  0.0652 -0.3064
  941MOL0     C29777   3.039   7.573   6.666 -0.3820  0.5189  0.2702
  941MOL0     C29778   3.161   7.615   6.622  0.1652  0.1226  0.1111
  941MOL0     O29779   3.238   7.542   6.525  0.7371 -0.0736 -0.1867
  941MOL0     C29780   3.194   7.560   6.388  0.3839 -0.4561 -0.6492
  941MOL0     C29781   3.266   7.468   6.288  0.3350  0.2496  0.6580
  941MOL0     C29782   3.220   7.518   6.151  0.2789 -0.0574 -0.1277
  941MOL0     C29783   3.307   7.633   6.095 -0.2555 -0.0133  0.3014
  941MOL0     C29784   3.255   7.701   5.972 -0.0289  0.1665 -0.3000
  941MOL0     C29785   3.219   7.751   5.871  0.6842  0.6587  0.9138
  941MOL0     C29786   3.224   7.734   6.663  1.1035 -0.3508 -1.1361
  941MOL0     C29787   3.156   7.817   6.752 -0.0088  0.1804 -0.1913
  941MOL0     C29788   3.226   7.947   6.796  0.0579  0.6844  0.5139
  941MOL0     H29789   2.583   7.900   6.884 -1.8247 -1.6904  1.7935
  941MOL0     H29790   2.462   8.045   7.050 -0.3879  0.5980  0.8639
  941MOL0     H29791   2.639   8.162   7.434  0.8483 -0.6727 -1.0462
  941MOL0     H29792   2.600   7.987   7.471  1.2910  0.1161  0.2877
  941MOL0     H29793   2.417   8.218   7.440  2.8612  3.1276  1.5130
  941MOL0     H29794   2.358   8.070   7.499  0.2836 -0.2938 -1.9463
  941MOL0     H29795   2.570   8.225   7.655  0.6967  0.6489 -1.6926
  941MOL0     H29796   2.392   8.239   7.676  0.2757 -1.2141  1.0994
  941MOL0     H29797   2.375   8.002   7.745  0.5903 -1.4307  1.7092
  941MOL0     H29798   2.550   7.982   7.717  1.2814  0.6691  0.4975
  941MOL0     H29799   2.471   8.006   7.947 -1.4288 -0.7161 -0.6615
  941MOL0     H29800   2.382   8.161   7.904 -0.9544 -1.1942 -1.8306
  941MOL0     H29801   2.684   8.151   7.878  0.3339 -2.0212 -0.1070
  941MOL0     H29802   2.574   8.286   7.914 -2.7738 -0.7570  0.2795
  941MOL0     H29803   2.527   8.195   8.142 -0.2210 -0.3665  0.0424
  941MOL0     H29804   2.683   8.275   8.094 -1.6051 -0.0781 -0.9409
  941MOL0     H29805   2.632   7.972   8.156 -0.5778  0.7345 -0.8371
  941MOL0     H29806   2.768   8.026   8.056  0.0826  0.9989  0.2343
  941MOL0     H29807   2.612   8.221   8.361 -1.6825 -1.9630  0.5329
  941MOL0     H29808   2.771   8.365   8.565 -1.0994 -0.2743 -0.8783
  941MOL0     H29809   2.845   8.223   8.653 -0.1291 -2.0238 -0.2962
  941MOL0     H29810   2.624   8.297   8.724  0.9678 -0.5219  1.0059
  941MOL0     H29811   2.548   8.242   8.575  0.7947  2.5449  1.4530
  941MOL0     H29812   2.682   8.015   8.646  2.4574  0.2879  1.8712
  941MOL0     H29813   2.687   8.093   8.797  0.5236  3.2885 -0.7788
  941MOL0     H29814   2.431   8.019   8.653  0.2243 -0.0303  0.0693
  941MOL0     H29815   2.470   7.958   8.801 -0.1928  0.2614  0.3530
  941MOL0     H29816   2.605   8.170   9.007  0.6025  1.3191  2.2642
  941MOL0     H29817   2.576   8.322   9.299 -0.0203 -0.0958  0.8876
  941MOL0     H29818   2.675   8.199   9.205 -1.6700 -1.2765 -1.3874
  941MOL0     H29819   2.593   8.159   9.357  0.3814  1.7199  1.3491
  941MOL0     H29820   2.320   8.529   9.556  2.2194 -1.4212 -1.5137
  941MOL0     H29821   2.233   8.555   9.792 -2.6888 -0.7543 -0.7314
  941MOL0     H29822   2.430   8.443   9.975 -0.7030 -1.2153 -0.8186
  941MOL0     H29823   2.302   8.552  10.046  1.0856  0.6106 -1.1614
  941MOL0     H29824   2.423   8.458  10.233 -2.2189  0.8106 -0.8489
  941MOL0     H29825   2.270   8.405  10.234  0.1286  1.7857  2.3455
  941MOL0     H29826   2.527   8.241  10.143  1.1629  3.3457  4.7223
  941MOL0     H29827   2.360   8.179  10.117 -2.1886  1.0596 -0.3139
  941MOL0     H29828   2.487   8.260  10.385 -2.1302  4.0333 -0.1427
  941MOL0     H29829   2.479   8.097  10.315 -1.9901 -0.6023 -0.0498
  941MOL0     H29830   2.222   8.251  10.352  1.0265  1.5136  0.8353
  941MOL0     H29831   2.238   8.088  10.304 -1.0229  0.3336  0.5064
  941MOL0     H29832   2.366   8.155  10.567 -0.3193 -1.5616  1.5460
  941MOL0     H29833   2.294   8.008  10.488 -1.9750 -0.1969 -0.2652
  941MOL0     H29834   2.114   8.080  10.647 -1.4459  0.5868  0.3982
  941MOL0     H29835   2.070   8.177  10.505 -0.2241 -3.4190 -1.0843
  941MOL0     H29836   2.084   8.329  10.693  0.2411  1.5968 -2.2862
  941MOL0     H29837   2.246   8.341  10.628 -0.6605  1.0978  1.0059
  941MOL0     H29838   2.299   8.146   9.868  0.0454 -1.4885 -2.2092
  941MOL0     H29839   2.368   8.101   9.650  0.8166 -1.0890  1.7555
  941MOL0     H29840   2.133   8.164   9.154  0.8620 -3.0677  1.9715
  941MOL0     H29841   2.189   8.104   8.927  0.5579  0.9193  0.0227
  941MOL0     H29842   2.774   7.961   7.334 -2.1869 -0.1399  0.9306
  941MOL0     H29843   2.896   7.829   7.162 -1.2785 -2.0159 -0.7442
  941MOL0     H29844   2.863   7.623   6.766  0.1887  2.6255  2.0790
  941MOL0     H29845   2.987   7.485   6.627 -0.3956  0.9761 -0.7788
  941MOL0     H29846   3.085   7.559   6.387  0.3353 -0.9712  1.4754
  941MOL0     H29847   3.220   7.662   6.356  1.5131 -0.8849 -1.1608
  941MOL0     H29848   3.232   7.364   6.295 -0.9717  0.1473 -3.8478
  941MOL0     H29849   3.375   7.468   6.303  0.1653  2.0998  2.2665
  941MOL0     H29850   3.223   7.437   6.077  2.2245  0.5883 -0.8219
  941MOL0     H29851   3.116   7.552   6.152  0.4463  0.4467  0.3888
  941MOL0     H29852   3.400   7.581   6.073 -1.1823 -2.2774  1.3561
  941MOL0     H29853   3.321   7.711   6.171 -1.8078  4.2797 -3.3829
  941MOL0     H29854   3.205   7.805   5.780 -2.9934  3.6340  2.9645
  941MOL0     H29855   3.321   7.764   6.624  1.0196  1.1780 -0.2753
  941MOL0     H29856   3.225   7.964   6.904 -1.5919  1.3781  0.4335
  941MOL0     H29857   3.333   7.946   6.777  0.0370  2.3972  0.0870
  941MOL0     H29858   3.179   8.031   6.743 -1.9854  0.1231  1.3479
  942MOL0     O29859   1.148   3.781  11.024  0.1144  0.3219  0.1777
  942MOL0     C29860   1.236   3.763  10.943  0.0993  0.5055 -0.3165
  942MOL0     O29861   1.249   3.819  10.821  1.2818  0.3996 -0.9111
  942MOL0     C29862   1.140   3.873  10.758  0.0937 -0.7863 -0.1519
  942MOL0     C29863   1.048   3.968  10.818 -0.5870  0.1887  0.5286
  942MOL0     C29864   0.944   4.039  10.753  0.0461 -0.1193 -0.9777
  942MOL0     C29865   0.932   4.014  10.619  0.1977  0.5930 -0.0982
  942MOL0     O29866   0.852   4.081  10.534  0.4687 -0.4279  0.4027
  942MOL0     C29867   0.786   4.203  10.570  0.3695 -0.0548 -0.6367
  942MOL0     C29868   0.646   4.182  10.631  0.1317  0.7805  0.6916
  942MOL0     C29869   0.598   4.299  10.714 -0.9269  0.5667  0.3242
  942MOL0     C29870   0.480   4.261  10.806  0.1611  0.1576 -0.9028
  942MOL0     C29871   0.342   4.252  10.744 -0.8162 -0.2268 -0.3771
  942MOL0     C29872   0.227   4.211  10.848  0.1154 -0.1867  0.4728
  942MOL0     C29873   0.090   4.199  10.767  0.5317 -0.2726 -0.3773
  942MOL0     C29874   0.025   4.337  10.737 -0.3436  0.4132 -0.0805
  942MOL0     N29875  -0.088   4.314  10.643  0.6752 -0.6077  0.6470
  942MOL0     C29876  -0.083   4.350  10.509 -0.5925  1.0704  0.2180
  942MOL0     C29877  -0.205   4.390  10.492 -0.6026 -0.0560  0.2699
  942MOL0     C29878  -0.263   4.428  10.364 -0.7186  0.2064 -0.1799
  942MOL0     C29879  -0.161   4.495  10.269 -0.2845  0.1567  0.6578
  942MOL0     C29880  -0.226   4.525  10.136 -0.4012  0.3478 -0.9419
  942MOL0     C29881  -0.118   4.557  10.035 -1.1850  0.2095  0.1324
  942MOL0     O29882  -0.057   4.687  10.059  0.0500 -0.2612  0.0298
  942MOL0     C29883  -0.093   4.795   9.982  0.8799 -0.3355 -0.5368
  942MOL0     C29884  -0.175   4.801   9.870 -0.2862 -0.7395  1.0292
  942MOL0     C29885  -0.197   4.917   9.799 -0.4891  0.3657 -0.2649
  942MOL0     C29886  -0.284   4.924   9.684  0.6552 -0.2924  0.4083
  942MOL0     C29887  -0.139   5.039   9.854  0.6717 -1.4549  0.1656
  942MOL0     C29888  -0.161   5.181   9.801  0.6535  0.0925  0.2054
  942MOL0     O29889  -0.069   5.270   9.835  0.1243 -0.1970  0.2383
  942MOL0     C29890  -0.049   5.381   9.766  0.1590 -0.2243 -0.0802
  942MOL0     C29891   0.084   5.429   9.765  0.0658 -0.2174  0.1412
  942MOL0     C29892   0.114   5.551   9.710 -0.0631  0.1155 -1.2437
  942MOL0     C29893   0.008   5.627   9.649 -0.1550 -0.0214  0.5030
  942MOL0     O29894   0.038   5.749   9.589  1.1279 -0.1300  0.3033
  942MOL0     C29895   0.160   5.757   9.509  0.2427 -0.7013 -0.0176
  942MOL0     C29896   0.206   5.904   9.504 -0.1713 -0.0061  0.0210
  942MOL0     C29897   0.237   5.954   9.644 -0.3356 -0.5889  0.5248
  942MOL0     C29898   0.330   6.072   9.630  0.5406 -0.5810  1.0126
  942MOL0     C29899   0.414   6.111   9.761 -0.0960 -0.6443 -0.4604
  942MOL0     C29900   0.522   6.221   9.722  0.5206 -0.0794 -0.3703
  942MOL0     C29901   0.585   6.313   9.840 -1.0488  0.2612 -0.4530
  942MOL0     C29902   0.668   6.239   9.954  0.2674 -0.0482  0.1640
  942MOL0    Cl29903   0.822   6.181   9.888  0.2424 -0.3028 -0.2111
  942MOL0     C29904  -0.119   5.580   9.655  0.4649  0.2861  0.7433
  942MOL0     C29905  -0.152   5.458   9.709 -0.1978 -0.1297  1.2199
  942MOL0     O29906  -0.264   5.201   9.738  0.5410 -0.2564  0.7389
  942MOL0     C29907  -0.054   5.032   9.957 -0.3828  0.2069  0.2926
  942MOL0     C29908  -0.032   4.912  10.023 -0.4623 -0.4979  0.2744
  942MOL0     N29909  -0.286   4.357  10.604 -0.4547  0.1955 -0.2278
  942MOL0     N29910  -0.209   4.303  10.692  1.0313 -0.6538 -0.4200
  942MOL0     C29911   1.025   3.940  10.553 -0.1575  0.5821  0.5790
  942MOL0     C29912   1.123   3.868  10.625  0.1213  1.3647  0.6928
  942MOL0     C29913   1.332   3.648  10.965 -0.3375 -0.0827  0.2122
  942MOL0     C29914   1.385   3.648  11.095  1.1253  0.5690 -0.3471
  942MOL0     C29915   1.456   3.537  11.138 -0.7270  0.1948 -0.3910
  942MOL0     C29916   1.502   3.442  11.049  0.3809  0.2966 -0.2645
  942MOL0     O29917   1.591   3.340  11.103  0.9820 -0.2580 -0.4198
  942MOL0     C29918   1.706   3.293  11.027 -0.2978 -0.5738 -0.6362
  942MOL0     C29919   1.836   3.308  11.115  0.1531 -1.3641 -0.9488
  942MOL0     C29920   1.875   3.464  11.144 -0.0967 -0.7065  0.1258
  942MOL0     C29921   1.910   3.547  11.020 -0.0761 -0.1686 -0.4270
  942MOL0     C29922   1.805   3.653  11.001 -0.1461  0.0747  0.9752
  942MOL0     C29923   1.722   3.739  10.980 -0.6833 -1.2578 -0.4379
  942MOL0     C29924   1.475   3.465  10.918 -0.4075  0.1522  0.8233
  942MOL0     C29925   1.385   3.555  10.866 -0.2583  0.1495  0.3594
  942MOL0     C29926   1.335   3.547  10.722  0.1291  1.2683 -0.0472
  942MOL0     H29927   1.070   3.978  10.924  4.4081 -4.8085  0.4539
  942MOL0     H29928   0.878   4.105  10.808 -0.0469 -1.3526  0.4547
  942MOL0     H29929   0.778   4.272  10.485  1.8728  1.3990  0.3222
  942MOL0     H29930   0.853   4.269  10.627 -0.0196  4.0764 -4.4430
  942MOL0     H29931   0.579   4.154  10.549  0.3586 -0.8838  1.0427
  942MOL0     H29932   0.653   4.093  10.694 -2.3397 -1.8319 -2.3820
  942MOL0     H29933   0.684   4.337  10.771 -0.0973 -3.1305  1.8241
  942MOL0     H29934   0.567   4.372  10.639 -2.4809  2.7917  2.9343
  942MOL0     H29935   0.499   4.170  10.864  0.7155  2.0774  2.1397
  942MOL0     H29936   0.468   4.338  10.883 -3.6508  1.3253 -2.4282
  942MOL0     H29937   0.356   4.170  10.673 -1.8451  0.1770 -1.0747
  942MOL0     H29938   0.310   4.342  10.690  0.2909  1.3512  1.4617
  942MOL0     H29939   0.251   4.111  10.886 -0.3376 -0.6975 -0.5479
  942MOL0     H29940   0.221   4.275  10.936  3.5020 -2.7071  2.7954
  942MOL0     H29941   0.034   4.122  10.820 -2.0779  1.9629  0.3742
  942MOL0     H29942   0.106   4.139  10.677  2.1377 -0.9892  0.3442
  942MOL0     H29943  -0.022   4.387  10.822  0.4019  4.5790 -1.8836
  942MOL0     H29944   0.083   4.414  10.685 -1.5748  4.1639  3.5924
  942MOL0     H29945  -0.005   4.361  10.434 -0.0158 -2.3296  0.1765
  942MOL0     H29946  -0.332   4.507  10.394  0.2152 -0.0915  3.1567
  942MOL0     H29947  -0.320   4.345  10.323 -1.7898  1.5054 -1.4522
  942MOL0     H29948  -0.132   4.594  10.305  0.5884  0.1697 -0.0565
  942MOL0     H29949  -0.074   4.431  10.255 -0.5266  0.1289 -0.9592
  942MOL0     H29950  -0.287   4.435  10.121  3.8038 -3.2955  1.2833
  942MOL0     H29951  -0.285   4.616  10.148  2.8079  2.8050 -2.2383
  942MOL0     H29952  -0.045   4.476  10.034 -2.3428 -1.0130 -4.1378
  942MOL0     H29953  -0.167   4.554   9.937 -1.0320 -2.5940  0.0683
  942MOL0     H29954  -0.209   4.711   9.819 -0.4624  1.1855 -2.5781
  942MOL0     H29955  -0.287   4.829   9.629 -0.9448  0.2922 -0.6055
  942MOL0     H29956  -0.233   4.985   9.610  3.2578 -0.9108  1.5963
  942MOL0     H29957  -0.388   4.947   9.712  0.7477  0.8468 -0.1421
  942MOL0     H29958   0.158   5.368   9.816 -0.7717 -2.9402 -1.7061
  942MOL0     H29959   0.216   5.588   9.714  0.2347 -0.6043  3.5146
  942MOL0     H29960   0.244   5.696   9.543  0.6754 -0.8109 -1.2389
  942MOL0     H29961   0.147   5.727   9.405  2.8247  2.3937 -1.3890
  942MOL0     H29962   0.285   5.904   9.429 -1.4320 -2.5955 -1.4480
  942MOL0     H29963   0.129   5.969   9.462 -0.1529 -1.4752 -2.4707
  942MOL0     H29964   0.267   5.872   9.709  2.8317  0.1117  0.1132
  942MOL0     H29965   0.151   6.009   9.682  0.6084  1.0557  0.3862
  942MOL0     H29966   0.276   6.166   9.612  2.1837  0.3912  0.9120
  942MOL0     H29967   0.404   6.060   9.550  0.6302  0.6890  0.8863
  942MOL0     H29968   0.346   6.152   9.837  0.4882  2.6604 -1.5241
  942MOL0     H29969   0.467   6.021   9.791 -0.6144 -1.3534 -1.6083
  942MOL0     H29970   0.468   6.280   9.648  3.1678  1.8533 -0.9075
  942MOL0     H29971   0.598   6.153   9.681  1.9305  0.7974  0.6669
  942MOL0     H29972   0.498   6.365   9.882 -2.8450 -1.8528 -1.3928
  942MOL0     H29973   0.658   6.379   9.792  1.1348 -0.5333  1.5470
  942MOL0     H29974   0.608   6.150   9.978  1.2859 -0.3484  1.7503
  942MOL0     H29975   0.685   6.302  10.042 -0.1537 -0.6297  0.6828
  942MOL0     H29976  -0.185   5.652   9.609  1.5749  0.2899 -0.9498
  942MOL0     H29977  -0.256   5.429   9.707 -0.3011  0.2499  0.9463
  942MOL0     H29978   0.008   5.114   9.989  1.7138 -1.4604  0.7436
  942MOL0     H29979   0.045   4.919  10.099  0.6596 -0.2090 -0.8483
  942MOL0     H29980   1.026   3.931  10.444  0.6112  1.9875  0.4344
  942MOL0     H29981   1.181   3.796  10.568  1.2665  1.9930  1.0392
  942MOL0     H29982   1.358   3.717  11.174  0.5704 -0.5351  0.4504
  942MOL0     H29983   1.474   3.535  11.245 -3.1953  0.9633  0.1063
  942MOL0     H29984   1.702   3.192  10.986  2.8777 -0.9821 -0.1877
  942MOL0     H29985   1.722   3.351  10.935  1.9043  0.0299  0.0500
  942MOL0     H29986   1.915   3.262  11.055  1.5325 -0.3461  0.0179
  942MOL0     H29987   1.820   3.249  11.206  1.1322 -1.4338 -0.8077
  942MOL0     H29988   1.801   3.511  11.209  1.3165  2.1866 -0.1791
  942MOL0     H29989   1.962   3.461  11.211  0.8920 -2.7065 -1.1616
  942MOL0     H29990   1.913   3.473  10.939  1.5146 -0.9994  0.3199
  942MOL0     H29991   2.012   3.587  11.027  0.0169 -0.6869  3.4326
  942MOL0     H29992   1.645   3.807  10.950  0.7751  0.4576 -0.5136
  942MOL0     H29993   1.504   3.394  10.841 -1.0312 -0.6150  1.2731
  942MOL0     H29994   1.360   3.455  10.667  1.1643  0.3093  1.9222
  942MOL0     H29995   1.226   3.552  10.727 -0.1837  0.0209 -3.1722
  942MOL0     H29996   1.369   3.635  10.668  2.7464  0.7336  0.5931
  943MOL0     O29997   9.028   2.140   0.127 -0.4978  0.9585 -0.1074
  943MOL0     C29998   9.052   2.180   0.244 -0.0033  0.8168  0.2049
  943MOL0     O29999   9.014   2.122   0.363  0.8815  0.0604 -0.2006
  943MOL0     C30000   8.927   2.022   0.350 -0.6596 -0.0861 -0.3426
  943MOL0     C30001   8.811   2.031   0.419 -0.3548 -0.1029  0.4777
  943MOL0     C30002   8.732   1.911   0.441 -0.8718  0.0042  0.7147
  943MOL0     C30003   8.765   1.788   0.370  0.2081  0.3753  1.1740
  943MOL0     O30004   8.692   1.670   0.365  0.5554 -0.3423  0.2960
  943MOL0     C30005   8.654   1.629   0.504  0.2342 -0.0548 -0.4524
  943MOL0     C30006   8.511   1.591   0.515 -0.6773  0.6679 -0.2064
  943MOL0     C30007   8.472   1.479   0.611 -0.2077  0.9435  0.7261
  943MOL0     C30008   8.434   1.532   0.752  0.5172  0.5495  0.7157
  943MOL0     C30009   8.404   1.418   0.851 -0.1608 -0.6373 -0.6246
  943MOL0     C30010   8.295   1.311   0.820  0.4874  0.5291  0.2586
  943MOL0     C30011   8.281   1.208   0.926  0.8140  0.3110  0.7277
  943MOL0     C30012   8.379   1.091   0.922 -0.3915  0.2547 -0.1260
  943MOL0     N30013   8.360   0.992   1.032  0.2513 -0.4845  0.5184
  943MOL0     C30014   8.428   0.881   1.025  0.1997  0.0600 -0.6470
  943MOL0     C30015   8.403   0.825   1.146 -0.3504 -0.2418  0.6195
  943MOL0     C30016   8.459   0.701   1.201 -0.4882 -0.4550 -0.4736
  943MOL0     C30017   8.360   0.590   1.202 -0.3644  1.0243  0.1038
  943MOL0     C30018   8.398   0.461   1.253  0.7762  0.2380 -0.1260
  943MOL0     C30019   8.434   0.466   1.396  0.0121  0.3711  0.0822
  943MOL0     O30020   8.500   0.336   1.418 -0.4505  0.1990  0.1566
  943MOL0     C30021   8.633   0.347   1.433  0.0516  0.1153  0.4491
  943MOL0     C30022   8.683   0.351   1.563  0.4609  0.3097  0.4870
  943MOL0     C30023   8.825   0.352   1.583  0.2523  1.4297  0.0541
  943MOL0     C30024   8.872   0.359   1.734 -0.3859 -1.0860  0.4241
  943MOL0     C30025   8.912   0.366   1.476 -0.2715 -1.7047  0.0682
  943MOL0     C30026   9.055   0.384   1.485 -0.6518  0.0164 -0.0430
  943MOL0     O30027   9.113   0.379   1.358 -0.0487  0.1819  0.6079
  943MOL0     C30028   9.242   0.411   1.353  0.8326 -0.3998 -0.0514
  943MOL0     C30029   9.345   0.321   1.388 -0.9191 -0.4237 -0.5937
  943MOL0     C30030   9.473   0.366   1.404  0.5466 -0.4511  0.1202
  943MOL0     C30031   9.506   0.490   1.344 -1.3183 -0.2870  0.3183
  943MOL0     O30032   9.630   0.543   1.340 -0.0728 -0.3521  0.7294
  943MOL0     C30033   9.744   0.446   1.354  0.5654 -0.4689 -0.2442
  943MOL0     C30034   9.869   0.519   1.337  0.3904  0.0230  1.3431
  943MOL0     C30035   9.921   0.540   1.185  0.1354  0.1488  0.4009
  943MOL0     C30036  10.072   0.566   1.177 -1.3524 -0.1452  0.5799
  943MOL0     C30037  10.177   0.446   1.193  0.1800  0.8238  0.1861
  943MOL0     C30038  10.311   0.500   1.153 -0.4386  0.0892 -0.6162
  943MOL0     C30039  10.420   0.397   1.132 -0.8850 -0.2815 -0.0255
  943MOL0     C30040  10.554   0.458   1.163 -0.3555 -0.4130  1.1786
  943MOL0    Cl30041  10.572   0.480   1.342 -0.3678  0.4331 -0.0256
  943MOL0     C30042   9.407   0.577   1.293 -0.4275 -0.9828 -0.2981
  943MOL0     C30043   9.271   0.545   1.315 -0.8596 -1.2646  0.5284
  943MOL0     O30044   9.120   0.374   1.590  0.9635 -0.5479 -0.6324
  943MOL0     C30045   8.852   0.359   1.343  0.3251  0.4966  0.1258
  943MOL0     C30046   8.712   0.347   1.323  0.1789  0.4786  0.6842
  943MOL0     N30047   8.323   0.906   1.222 -0.6059 -0.2800  0.4074
  943MOL0     N30048   8.300   1.012   1.148 -1.1220  0.4093 -0.8077
  943MOL0     C30049   8.883   1.785   0.291  0.1035 -0.5291 -0.9409
  943MOL0     C30050   8.959   1.904   0.291 -0.6027 -0.7280  0.4365
  943MOL0     C30051   9.142   2.306   0.250  0.7131 -0.1573  0.7735
  943MOL0     C30052   9.147   2.377   0.137 -0.0721 -0.3657  0.8812
  943MOL0     C30053   9.233   2.490   0.133  1.0682  0.2905 -0.6482
  943MOL0     C30054   9.299   2.540   0.236  0.1550 -0.1055 -0.2243
  943MOL0     O30055   9.371   2.658   0.217 -0.3627  0.1843 -0.9103
  943MOL0     C30056   9.441   2.720   0.327  0.1589  0.1899 -0.8534
  943MOL0     C30057   9.495   2.853   0.281  0.1099 -0.6943  0.1140
  943MOL0     C30058   9.597   2.853   0.166 -0.6412  0.9091 -0.1972
  943MOL0     C30059   9.593   2.980   0.074  0.1952  0.4008 -1.1929
  943MOL0     C30060   9.466   2.988  -0.001 -1.2294  0.1288  0.2940
  943MOL0     C30061   9.368   3.012  -0.073  0.2564 -0.5035  0.2127
  943MOL0     C30062   9.290   2.467   0.353  0.3728 -0.5587 -0.9742
  943MOL0     C30063   9.210   2.356   0.365  0.3633  0.2717  0.5636
  943MOL0     C30064   9.217   2.291   0.507 -0.0373 -0.5887  1.4042
  943MOL0     H30065   8.776   2.120   0.471 -1.4093 -0.8807  1.1565
  943MOL0     H30066   8.648   1.927   0.507 -0.6624 -0.7668  1.1724
  943MOL0     H30067   8.676   1.709   0.575  2.0179 -1.5126  0.7100
  943MOL0     H30068   8.711   1.554   0.558 -1.5364 -1.0006  0.1827
  943MOL0     H30069   8.448   1.680   0.519 -2.1405 -0.2712 -1.2439
  943MOL0     H30070   8.487   1.547   0.417  0.3968 -0.3500 -0.0396
  943MOL0     H30071   8.400   1.427   0.548  1.2684 -0.5639  0.2189
  943MOL0     H30072   8.558   1.412   0.615  0.7066  2.1563  2.9045
  943MOL0     H30073   8.522   1.586   0.788 -0.3391  1.1736  1.9480
  943MOL0     H30074   8.338   1.584   0.736 -1.8973 -3.1159  1.9551
  943MOL0     H30075   8.368   1.468   0.941 -2.5292  0.7301 -2.2098
  943MOL0     H30076   8.495   1.367   0.883  0.7664  0.6354 -1.1655
  943MOL0     H30077   8.202   1.366   0.803 -0.0856 -0.4055  0.3292
  943MOL0     H30078   8.318   1.253   0.730 -1.2923 -2.0097  1.3346
  943MOL0     H30079   8.178   1.172   0.929  0.3785  1.5278  3.7581
  943MOL0     H30080   8.309   1.254   1.021  5.3512 -0.4901  0.0377
  943MOL0     H30081   8.367   1.045   0.823  0.5807  3.0078 -1.6231
  943MOL0     H30082   8.483   1.122   0.926  0.4141 -2.2311  0.0645
  943MOL0     H30083   8.505   0.849   0.955  1.2225  1.3274 -0.1555
  943MOL0     H30084   8.496   0.734   1.299  1.6127  2.5541 -2.1239
  943MOL0     H30085   8.545   0.668   1.143 -1.0201  1.3635 -2.4556
  943MOL0     H30086   8.259   0.614   1.236 -2.3493 -2.1199 -2.8389
  943MOL0     H30087   8.353   0.570   1.094  0.4726 -0.7414  0.3504
  943MOL0     H30088   8.319   0.387   1.239  0.1192  0.8869  0.0647
  943MOL0     H30089   8.481   0.429   1.189  0.3343  2.8513 -2.2514
  943MOL0     H30090   8.498   0.552   1.419  0.4202  0.1899 -0.3648
  943MOL0     H30091   8.341   0.465   1.454  0.0759 -0.7369  0.1971
  943MOL0     H30092   8.614   0.333   1.644  0.6471 -2.3295  0.1341
  943MOL0     H30093   8.802   0.334   1.814  0.8921  0.3608  2.0996
  943MOL0     H30094   8.902   0.462   1.756  0.2663 -0.9444 -0.9808
  943MOL0     H30095   8.962   0.300   1.755 -1.3567 -2.0987  1.9286
  943MOL0     H30096   9.339   0.215   1.413 -3.7270 -0.0156  0.8637
  943MOL0     H30097   9.545   0.290   1.433 -0.7838 -1.4035  0.9780
  943MOL0     H30098   9.743   0.414   1.459  0.8580  1.4724  0.4019
  943MOL0     H30099   9.744   0.366   1.280  0.7658 -1.0706  0.4032
  943MOL0     H30100   9.856   0.614   1.390 -1.4650  1.0084 -0.7130
  943MOL0     H30101   9.945   0.475   1.402  1.8097 -2.1361 -1.5985
  943MOL0     H30102   9.869   0.624   1.139 -1.9084 -0.7161  1.0194
  943MOL0     H30103   9.897   0.456   1.119 -0.3143  1.5771 -1.3220
  943MOL0     H30104  10.108   0.641   1.248  1.5801 -1.8618  1.0659
  943MOL0     H30105  10.092   0.610   1.079  1.1993 -1.8128  0.2681
  943MOL0     H30106  10.175   0.423   1.300 -1.2984  2.1491  0.4695
  943MOL0     H30107  10.160   0.350   1.143  0.8823  0.1903  1.1243
  943MOL0     H30108  10.331   0.577   1.228 -2.8496 -2.5329  3.0088
  943MOL0     H30109  10.298   0.548   1.055  1.0015  0.8745 -0.4626
  943MOL0     H30110  10.420   0.373   1.025  3.2258  1.8532 -0.7062
  943MOL0     H30111  10.411   0.304   1.189  2.0668  0.6546  2.2078
  943MOL0     H30112  10.559   0.552   1.107  0.8627 -0.2544  1.5232
  943MOL0     H30113  10.626   0.387   1.121  1.1896  2.5457 -1.7087
  943MOL0     H30114   9.431   0.674   1.251 -1.6245 -1.1078 -1.3244
  943MOL0     H30115   9.193   0.612   1.282  0.8367  0.5214 -0.0182
  943MOL0     H30116   8.920   0.364   1.259 -0.8032 -2.5852 -1.1177
  943MOL0     H30117   8.658   0.343   1.229 -0.1352  0.1713  0.8736
  943MOL0     H30118   8.915   1.700   0.233  2.7526 -0.8016  0.7527
  943MOL0     H30119   9.042   1.893   0.222 -0.3126  1.8161  0.3170
  943MOL0     H30120   9.092   2.350   0.047 -1.5450  1.9432  0.9944
  943MOL0     H30121   9.231   2.553   0.045  0.7683  1.6026  0.2666
  943MOL0     H30122   9.367   2.738   0.405 -0.0730 -2.8024 -0.2587
  943MOL0     H30123   9.521   2.656   0.364  0.8491  1.0805 -0.7602
  943MOL0     H30124   9.530   2.900   0.373 -0.3928 -0.0699 -0.0051
  943MOL0     H30125   9.402   2.905   0.256  1.1107  1.4692  0.6699
  943MOL0     H30126   9.690   2.837   0.222 -1.0009 -1.1190 -0.0849
  943MOL0     H30127   9.587   2.765   0.102 -0.9603  2.3231 -2.1879
  943MOL0     H30128   9.670   2.990  -0.004  0.0188 -0.1447 -1.4410
  943MOL0     H30129   9.603   3.071   0.133  0.1833  0.3110 -1.0538
  943MOL0     H30130   9.294   3.029  -0.149 -0.2492 -0.1387  0.7829
  943MOL0     H30131   9.347   2.505   0.437  1.3960 -2.1838 -0.8917
  943MOL0     H30132   9.135   2.328   0.568 -1.8178 -2.9105  0.5907
  943MOL0     H30133   9.207   2.182   0.511 -0.1590 -0.6617 -0.0705
  943MOL0     H30134   9.316   2.309   0.549  0.0318 -2.5470  2.1587
  944MOL0     O30135   9.161   2.828   1.534  0.2626 -0.6570 -0.0446
  944MOL0     C30136   9.050   2.878   1.569 -0.7879 -1.2705 -0.1555
  944MOL0     O30137   9.025   2.946   1.690 -0.2178 -0.0406 -0.0020
  944MOL0     C30138   9.128   2.942   1.777  0.2847  0.0204  0.1668
  944MOL0     C30139   9.236   3.024   1.760  0.2748 -0.5121 -0.1865
  944MOL0     C30140   9.343   3.006   1.845  0.6969  0.4629  0.9403
  944MOL0     C30141   9.342   2.920   1.956  0.3484  0.9357 -0.0788
  944MOL0     O30142   9.449   2.924   2.038 -0.4435  0.1188  0.2484
  944MOL0     C30143   9.537   2.811   1.992  0.7365  0.5468  0.0452
  944MOL0     C30144   9.670   2.814   2.069  0.0115 -0.5521 -0.2477
  944MOL0     C30145   9.725   2.968   2.054 -0.3752  0.9523 -0.9886
  944MOL0     C30146   9.869   2.985   2.095 -0.6555  0.4794  0.3029
  944MOL0     C30147   9.896   2.935   2.235 -0.6852  0.0622  1.2562
  944MOL0     C30148  10.044   2.971   2.279  0.8356  0.4327  0.1702
  944MOL0     C30149  10.156   2.885   2.196  0.8152  0.0887  1.1880
  944MOL0     C30150  10.305   2.888   2.234 -0.0359 -0.4136 -0.1495
  944MOL0     N30151  10.338   2.854   2.368 -0.1338  0.4722  0.2801
  944MOL0     C30152  10.367   2.951   2.461  0.4715  0.1611 -0.4499
  944MOL0     C30153  10.392   2.889   2.573 -0.2538  0.1716 -0.7702
  944MOL0     C30154  10.425   2.944   2.702 -0.3193  0.7683 -0.0322
  944MOL0     C30155  10.315   2.902   2.809  0.1850  0.0505  0.2352
  944MOL0     C30156  10.170   2.925   2.762  0.2938  0.3811 -0.0128
  944MOL0     C30157  10.061   2.933   2.869  0.0212  0.3438 -0.3676
  944MOL0     O30158  10.080   3.043   2.963  0.2531  0.1427  0.2288
  944MOL0     C30159   9.993   3.033   3.068 -0.2090  0.0452  0.5400
  944MOL0     C30160  10.052   3.068   3.189  0.4269  0.7224 -0.1455
  944MOL0     C30161   9.975   3.069   3.306  0.0830 -0.8524  0.1199
  944MOL0     C30162  10.039   3.113   3.429  0.0236 -0.1647 -0.1454
  944MOL0     C30163   9.836   3.041   3.305  0.0645  0.2804  0.3450
  944MOL0     C30164   9.742   3.049   3.424  0.3366 -0.1385 -0.5390
  944MOL0     O30165   9.607   3.062   3.386  0.0474  0.0253  0.2249
  944MOL0     C30166   9.526   3.029   3.496  0.3065 -0.3527  0.0351
  944MOL0     C30167   9.533   3.111   3.613  0.1344 -0.1598  0.7417
  944MOL0     C30168   9.454   3.083   3.725 -0.0549  0.0949 -0.4369
  944MOL0     C30169   9.374   2.975   3.734  0.8942 -0.5068 -0.4928
  944MOL0     O30170   9.302   2.962   3.855  0.2623 -0.5768  0.5856
  944MOL0     C30171   9.180   2.881   3.829  0.5512 -0.2200 -0.5243
  944MOL0     C30172   9.067   2.916   3.937 -0.7280 -0.0438  0.2894
  944MOL0     C30173   9.058   3.075   3.953 -0.6325  0.3253 -0.1213
  944MOL0     C30174   8.934   3.104   4.046  0.4122  0.5485  0.0395
  944MOL0     C30175   8.929   3.249   4.104  0.3703  0.0360 -0.1343
  944MOL0     C30176   9.037   3.270   4.216  0.6391 -0.6652  0.6869
  944MOL0     C30177   9.051   3.412   4.269  0.0587  0.3563  0.3004
  944MOL0     C30178   9.141   3.399   4.387 -0.7196  0.4102  0.8261
  944MOL0    Cl30179   9.293   3.308   4.361  0.4088 -0.0928 -0.7552
  944MOL0     C30180   9.382   2.882   3.630  0.3079  0.5008 -0.9389
  944MOL0     C30181   9.448   2.916   3.512  0.0482  0.0390  0.3037
  944MOL0     O30182   9.787   3.003   3.531  0.4433  0.2495  0.2089
  944MOL0     C30183   9.779   3.004   3.180  0.0943  0.8067 -0.4581
  944MOL0     C30184   9.856   3.005   3.065  0.8182 -0.6444 -1.0262
  944MOL0     N30185  10.368   2.753   2.550  0.5348 -0.4538  0.1849
  944MOL0     N30186  10.340   2.734   2.421  0.0963 -0.6333 -0.3528
  944MOL0     C30187   9.227   2.843   1.966  0.2129 -0.5985 -0.4726
  944MOL0     C30188   9.123   2.852   1.883 -0.0080  0.1755  0.7915
  944MOL0     C30189   8.947   2.878   1.462 -0.4076 -0.0236 -0.6975
  944MOL0     C30190   8.965   2.914   1.318 -0.5776 -0.6367  0.6485
  944MOL0     C30191   8.861   2.902   1.233 -0.5299 -0.2526 -0.1121
  944MOL0     C30192   8.742   2.853   1.279  0.7507 -0.8323  0.1891
  944MOL0     O30193   8.634   2.861   1.193  0.1977  0.4187 -1.1094
  944MOL0     C30194   8.556   2.745   1.193  0.4115 -0.7402  0.4201
  944MOL0     C30195   8.502   2.719   1.057 -0.0760 -0.8579  0.5229
  944MOL0     C30196   8.600   2.692   0.946  0.7532  0.7348 -0.1669
  944MOL0     C30197   8.525   2.730   0.821 -0.6787  0.1109  0.1636
  944MOL0     C30198   8.618   2.708   0.710  0.9000  0.0526 -0.2778
  944MOL0     C30199   8.690   2.703   0.610 -0.2268  0.2743 -0.4076
  944MOL0     C30200   8.724   2.808   1.406  0.0285 -0.2195  0.5785
  944MOL0     C30201   8.822   2.832   1.507  0.0181 -0.2518  0.6627
  944MOL0     C30202   8.783   2.782   1.649 -0.1338  0.3141 -0.1058
  944MOL0     H30203   9.238   3.086   1.671  0.3186 -2.4752 -1.6167
  944MOL0     H30204   9.424   3.077   1.833  1.1125 -0.1336  0.1184
  944MOL0     H30205   9.555   2.822   1.885  2.6193 -0.8379  0.1683
  944MOL0     H30206   9.487   2.715   2.010  0.8582 -0.4290 -3.9416
  944MOL0     H30207   9.643   2.792   2.173  0.8488 -0.0387  0.0869
  944MOL0     H30208   9.743   2.738   2.043 -0.9577 -1.3707 -0.6526
  944MOL0     H30209   9.731   3.000   1.949  2.7067 -0.2694 -1.2910
  944MOL0     H30210   9.661   3.043   2.103 -0.0551  0.9062 -0.4989
  944MOL0     H30211   9.925   2.924   2.024  0.1589 -1.4515  2.4803
  944MOL0     H30212   9.904   3.088   2.080 -2.6162  1.3192  1.1888
  944MOL0     H30213   9.885   2.827   2.250  1.1426 -0.2203  0.7302
  944MOL0     H30214   9.826   2.987   2.301  0.7565  0.7821  2.2668
  944MOL0     H30215  10.056   3.079   2.269  2.1417  0.2504 -0.4623
  944MOL0     H30216  10.058   2.936   2.381  0.8329 -2.1964 -0.6435
  944MOL0     H30217  10.145   2.908   2.090 -1.9153  1.4567  1.6827
  944MOL0     H30218  10.132   2.778   2.199  0.7400  0.1227  2.1671
  944MOL0     H30219  10.365   2.824   2.168  2.5541  0.7123  1.0221
  944MOL0     H30220  10.341   2.988   2.211  0.5598 -0.8381 -1.1339
  944MOL0     H30221  10.364   3.053   2.425 -0.3325  0.4014  0.2567
  944MOL0     H30222  10.446   3.051   2.690  3.3375  0.5595  2.5988
  944MOL0     H30223  10.514   2.896   2.744 -2.2756 -2.7594  0.4386
  944MOL0     H30224  10.310   2.794   2.821  0.7593 -0.2297 -1.6713
  944MOL0     H30225  10.319   2.950   2.907  1.2790 -1.6221  1.0380
  944MOL0     H30226  10.165   3.027   2.721 -2.2415  0.4825  0.3557
  944MOL0     H30227  10.147   2.846   2.690 -2.8457  1.6214 -0.5360
  944MOL0     H30228   9.963   2.957   2.827 -0.5072  2.9118  1.9972
  944MOL0     H30229  10.060   2.835   2.917  3.0519  0.8101  0.8701
  944MOL0     H30230  10.161   3.074   3.182  0.6286 -2.6837 -2.5555
  944MOL0     H30231  10.126   3.173   3.401  0.0738 -0.7092 -1.2386
  944MOL0     H30232  10.085   3.029   3.482  1.2049  0.0904 -0.7282
  944MOL0     H30233   9.969   3.166   3.494  1.7430 -1.0673  2.6134
  944MOL0     H30234   9.592   3.202   3.607  3.4693 -2.2421 -1.2721
  944MOL0     H30235   9.439   3.162   3.799  1.0592  1.2595 -1.4160
  944MOL0     H30236   9.136   2.900   3.731 -1.5122  0.0228  0.3920
  944MOL0     H30237   9.201   2.774   3.834  0.7905 -0.2523 -1.8282
  944MOL0     H30238   8.975   2.863   3.910  1.5423 -3.4225 -1.5417
  944MOL0     H30239   9.098   2.879   4.035  0.9119 -1.0806 -0.5826
  944MOL0     H30240   9.050   3.132   3.859 -1.3726  0.0921 -0.2004
  944MOL0     H30241   9.150   3.111   3.999 -0.3895 -0.1773 -0.2045
  944MOL0     H30242   8.926   3.044   4.137 -0.6902  0.7306  0.0787
  944MOL0     H30243   8.837   3.084   3.999  0.6458  1.0267 -0.6576
  944MOL0     H30244   8.953   3.322   4.026 -1.0068  0.0440 -0.5805
  944MOL0     H30245   8.827   3.263   4.141  0.1983  1.7670 -1.1327
  944MOL0     H30246   9.130   3.234   4.171 -1.7148 -4.2766 -1.7374
  944MOL0     H30247   9.004   3.197   4.291 -3.0552 -1.5648 -1.6001
  944MOL0     H30248   8.958   3.463   4.296  1.0202  2.0182  0.6533
  944MOL0     H30249   9.093   3.480   4.194 -3.0530  2.1824  0.0680
  944MOL0     H30250   9.074   3.352   4.460 -0.9728 -2.0312 -0.8404
  944MOL0     H30251   9.162   3.500   4.421  2.3278 -0.7116  2.6381
  944MOL0     H30252   9.324   2.791   3.628 -1.1211  1.2722  1.6984
  944MOL0     H30253   9.450   2.869   3.414  2.4533  0.3969  0.1276
  944MOL0     H30254   9.672   2.985   3.183  0.1740  0.4464  0.1651
  944MOL0     H30255   9.810   2.973   2.972 -1.8374 -2.2458  0.7062
  944MOL0     H30256   9.211   2.769   2.044  3.8580  0.2353  1.2736
  944MOL0     H30257   9.036   2.788   1.897 -0.8611  0.3727 -2.7232
  944MOL0     H30258   9.050   2.959   1.268 -2.2530  4.1295  1.4646
  944MOL0     H30259   8.859   2.946   1.134 -1.8842  2.2303  0.9290
  944MOL0     H30260   8.605   2.652   1.226  0.9478 -1.7713 -2.9548
  944MOL0     H30261   8.476   2.770   1.263 -0.2875  3.4124 -1.6024
  944MOL0     H30262   8.437   2.802   1.029  0.1534 -1.1739 -1.0267
  944MOL0     H30263   8.434   2.634   1.062  0.9401 -1.6754  0.9212
  944MOL0     H30264   8.686   2.758   0.960 -1.9661  4.0730  2.4269
  944MOL0     H30265   8.619   2.584   0.948 -2.7257  0.0018 -0.6397
  944MOL0     H30266   8.505   2.837   0.826  1.9699  0.6434  4.2955
  944MOL0     H30267   8.434   2.672   0.801 -0.8372 -0.0476  1.2871
  944MOL0     H30268   8.742   2.704   0.516 -0.5533 -0.5966 -0.6076
  944MOL0     H30269   8.631   2.759   1.433  1.0696 -3.9039 -1.7726
  944MOL0     H30270   8.812   2.850   1.729  0.5183 -1.2278  1.0120
  944MOL0     H30271   8.673   2.778   1.654 -0.6514  3.6641 -3.7621
  944MOL0     H30272   8.837   2.690   1.672  1.7598  1.4545  0.2539
  945MOL0     O30273   5.066   2.425   6.450  0.0628  0.2104 -0.2170
  945MOL0     C30274   5.115   2.315   6.474 -0.0712  0.6662 -0.5531
  945MOL0     O30275   5.165   2.275   6.595  0.0502  0.3109 -0.5524
  945MOL0     C30276   5.224   2.379   6.669  0.4330 -0.8470  0.8881
  945MOL0     C30277   5.326   2.455   6.617  0.2374 -0.1434  0.8996
  945MOL0     C30278   5.397   2.540   6.699 -1.2341 -0.4773 -0.0360
  945MOL0     C30279   5.352   2.553   6.830  0.8599 -0.9927  0.5848
  945MOL0     O30280   5.419   2.643   6.905 -0.6936  0.2091 -0.2999
  945MOL0     C30281   5.358   2.694   7.022  0.5440  0.5289 -0.4574
  945MOL0     C30282   5.420   2.813   7.085  0.1172 -0.6738  0.3814
  945MOL0     C30283   5.526   2.787   7.190  0.2799  0.2012  0.5656
  945MOL0     C30284   5.607   2.909   7.255  1.4045 -0.6917  0.1056
  945MOL0     C30285   5.748   2.927   7.203  0.5559  0.5275 -0.6282
  945MOL0     C30286   5.869   2.948   7.310 -0.6494  0.2922  0.0353
  945MOL0     C30287   5.892   2.835   7.419  0.0608  0.9923  0.1122
  945MOL0     C30288   5.940   2.700   7.354  0.3987 -0.4760  0.3492
  945MOL0     N30289   5.978   2.615   7.456 -0.3091 -0.7692  0.3474
  945MOL0     C30290   6.111   2.584   7.495 -0.2344 -0.4401  0.7259
  945MOL0     C30291   6.090   2.512   7.606  0.3043  0.3475 -0.2890
  945MOL0     C30292   6.188   2.456   7.701 -0.3705 -0.8397  0.0065
  945MOL0     C30293   6.240   2.332   7.636 -0.2935  1.2317  0.4224
  945MOL0     C30294   6.335   2.247   7.729  0.0195 -0.5265 -0.0679
  945MOL0     C30295   6.439   2.151   7.643  0.2500  0.0437  0.4059
  945MOL0     O30296   6.483   2.206   7.517 -0.0524 -0.0582 -0.6608
  945MOL0     C30297   6.616   2.161   7.479  0.2550 -0.0642 -0.3592
  945MOL0     C30298   6.693   2.260   7.416 -0.1810 -0.5644 -1.0339
  945MOL0     C30299   6.820   2.237   7.362 -0.2954  0.6481 -0.2037
  945MOL0     C30300   6.898   2.360   7.303  0.6716  0.0466 -1.5276
  945MOL0     C30301   6.867   2.099   7.358  0.8101  0.3519  0.0168
  945MOL0     C30302   6.996   2.057   7.290 -0.9283  0.6462 -0.0986
  945MOL0     O30303   7.095   2.152   7.273  0.1825 -0.4549 -0.4105
  945MOL0     C30304   7.198   2.120   7.186  1.0861 -0.3015  0.3369
  945MOL0     C30305   7.313   2.057   7.225 -0.4562  0.2750  0.0954
  945MOL0     C30306   7.389   1.991   7.137 -1.4647 -0.2455 -0.1043
  945MOL0     C30307   7.366   1.987   7.002 -0.6917 -0.1122 -0.2170
  945MOL0     O30308   7.441   1.914   6.904  0.4049  0.4241 -0.2595
  945MOL0     C30309   7.582   1.906   6.923 -0.9182  0.1585  0.0397
  945MOL0     C30310   7.640   1.916   6.779  0.4094  0.2537 -0.9509
  945MOL0     C30311   7.791   1.923   6.776 -0.2574 -0.1789 -0.2529
  945MOL0     C30312   7.851   1.973   6.641  0.9554  0.4664  0.2406
  945MOL0     C30313   7.991   2.038   6.663  0.0106 -0.6551  0.5286
  945MOL0     C30314   8.042   2.076   6.523 -0.0616 -0.5446 -1.8650
  945MOL0     C30315   8.190   2.106   6.533 -0.7199  0.0094 -0.4297
  945MOL0     C30316   8.255   2.137   6.395  0.3271 -0.4486 -0.3195
  945MOL0    Cl30317   8.193   2.279   6.308 -0.5002  0.2822  0.6046
  945MOL0     C30318   7.256   2.058   6.961  1.0978  0.1355 -0.0660
  945MOL0     C30319   7.177   2.130   7.048 -0.7509 -0.8044  0.4243
  945MOL0     O30320   7.004   1.936   7.251  0.3698 -0.4391 -0.9944
  945MOL0     C30321   6.786   2.003   7.420 -1.4793 -0.6470 -0.2258
  945MOL0     C30322   6.664   2.024   7.485 -0.0649  0.2569  0.2598
  945MOL0     N30323   5.952   2.480   7.624 -0.3680 -0.6071 -0.7634
  945MOL0     N30324   5.893   2.555   7.535 -0.7052  0.5314  0.2310
  945MOL0     C30325   5.240   2.481   6.880 -0.1315 -0.2792  0.2068
  945MOL0     C30326   5.182   2.381   6.801  0.1889 -0.0451  0.1346
  945MOL0     C30327   5.081   2.206   6.378  0.3958 -0.5364  0.8972
  945MOL0     C30328   5.059   2.080   6.436 -1.6535  0.0070 -0.3359
  945MOL0     C30329   5.018   1.974   6.354  0.6653  0.0706 -0.2167
  945MOL0     C30330   4.993   1.999   6.219  0.0126  0.6730  1.1068
  945MOL0     O30331   4.937   1.908   6.137 -0.4054  0.0135 -0.1678
  945MOL0     C30332   4.876   1.777   6.188 -0.8953  0.6856 -0.4772
  945MOL0     C30333   4.742   1.789   6.249 -0.5270  0.6320  0.1112
  945MOL0     C30334   4.623   1.795   6.164 -0.5528 -1.3470  0.9320
  945MOL0     C30335   4.614   1.931   6.105 -0.0721  0.6979 -0.2787
  945MOL0     C30336   4.574   2.038   6.207  0.4477 -0.2582 -0.7214
  945MOL0     C30337   4.548   2.121   6.294 -0.1707 -0.2772  0.2076
  945MOL0     C30338   5.021   2.121   6.159 -0.0876  0.3159 -0.9672
  945MOL0     C30339   5.072   2.219   6.232 -0.8289 -0.5531 -0.2279
  945MOL0     C30340   5.104   2.346   6.161  0.4415  0.2375 -0.1352
  945MOL0     H30341   5.355   2.433   6.515  2.6251  0.7643  1.3215
  945MOL0     H30342   5.477   2.594   6.648  0.4808 -3.8525 -1.2194
  945MOL0     H30343   5.367   2.616   7.098  0.1004  1.7814  0.9407
  945MOL0     H30344   5.250   2.712   7.009  0.3782  0.4436  0.6348
  945MOL0     H30345   5.453   2.883   7.008  0.8955 -0.2530  1.0653
  945MOL0     H30346   5.337   2.864   7.134  0.7876  1.4996 -0.6321
  945MOL0     H30347   5.476   2.735   7.272 -0.6725 -0.0262 -0.1497
  945MOL0     H30348   5.594   2.713   7.147 -0.0335  1.2449 -1.8724
  945MOL0     H30349   5.554   3.004   7.243  2.0691 -0.0932  1.7134
  945MOL0     H30350   5.625   2.875   7.357  1.2960 -0.7104  0.1191
  945MOL0     H30351   5.733   3.020   7.147 -5.5767  1.8014  2.2242
  945MOL0     H30352   5.766   2.844   7.134 -1.9731 -2.3588  1.8736
  945MOL0     H30353   5.965   2.948   7.258 -1.4284 -1.5069 -1.5490
  945MOL0     H30354   5.871   3.048   7.354  1.1314 -0.6383  2.2095
  945MOL0     H30355   5.805   2.807   7.479  0.7207 -4.1132 -0.8887
  945MOL0     H30356   5.977   2.872   7.478 -0.5839  0.2025  1.5771
  945MOL0     H30357   5.856   2.648   7.307 -2.8457  1.5712  3.3530
  945MOL0     H30358   6.017   2.735   7.285  0.1150  1.7921  1.1105
  945MOL0     H30359   6.209   2.617   7.461  0.5052  0.0768  3.1744
  945MOL0     H30360   6.143   2.431   7.797 -2.3979  0.9699 -0.3942
  945MOL0     H30361   6.272   2.522   7.726  1.1672 -2.3051 -1.0676
  945MOL0     H30362   6.153   2.267   7.621 -1.1618  2.5646 -0.6132
  945MOL0     H30363   6.288   2.345   7.538 -3.0751 -1.8845 -1.5690
  945MOL0     H30364   6.385   2.320   7.793 -2.1207  0.5984  0.3907
  945MOL0     H30365   6.286   2.182   7.802  0.9331  0.9032  1.9148
  945MOL0     H30366   6.525   2.117   7.702 -0.2180  0.1939  1.1958
  945MOL0     H30367   6.392   2.053   7.634  0.8074 -0.3620  1.7030
  945MOL0     H30368   6.671   2.366   7.413  2.8803  0.1475 -1.3833
  945MOL0     H30369   6.966   2.396   7.380 -0.2224 -4.1315  1.5733
  945MOL0     H30370   6.830   2.438   7.266 -0.3205  1.5091  2.7929
  945MOL0     H30371   6.963   2.329   7.221 -0.7297 -3.6635 -1.4223
  945MOL0     H30372   7.344   2.046   7.329  0.8237  1.3259 -0.1373
  945MOL0     H30373   7.481   1.941   7.166  0.5663  1.1078 -3.5356
  945MOL0     H30374   7.618   1.988   6.986  1.9429 -2.1566  1.6299
  945MOL0     H30375   7.622   1.814   6.965  1.6486  0.8021 -0.8394
  945MOL0     H30376   7.603   1.832   6.719  2.1615 -1.0491 -0.3037
  945MOL0     H30377   7.598   2.003   6.727  0.0945  0.7302  0.0677
  945MOL0     H30378   7.829   1.824   6.804  2.1696  0.8254  0.2072
  945MOL0     H30379   7.826   1.999   6.846 -2.9754 -1.4099  2.7369
  945MOL0     H30380   7.792   2.056   6.601 -0.3164 -0.3847  0.2894
  945MOL0     H30381   7.842   1.893   6.567  0.6492  1.5239 -0.9012
  945MOL0     H30382   7.990   2.131   6.721 -1.5079 -0.3717  0.1218
  945MOL0     H30383   8.048   1.958   6.710 -0.2605 -1.0749  0.1616
  945MOL0     H30384   8.001   2.176   6.505  2.0918  1.5889  3.2427
  945MOL0     H30385   8.023   2.001   6.446 -1.3784 -3.0701  0.7226
  945MOL0     H30386   8.248   2.031   6.588  2.3054  2.5744  0.1624
  945MOL0     H30387   8.194   2.196   6.595  0.7939 -1.1876  1.3319
  945MOL0     H30388   8.252   2.050   6.329 -1.6664  0.8642 -2.0878
  945MOL0     H30389   8.362   2.155   6.409  0.0411  1.4320 -0.2913
  945MOL0     H30390   7.236   2.045   6.855  0.0589  0.3006  0.0970
  945MOL0     H30391   7.085   2.178   7.017 -2.3331 -3.0702  1.3947
  945MOL0     H30392   6.833   1.906   7.433  0.1605  0.1228 -0.1412
  945MOL0     H30393   6.607   1.947   7.537  1.2259 -0.8649  0.0548
  945MOL0     H30394   5.203   2.498   6.981 -1.3231 -3.3592  0.4260
  945MOL0     H30395   5.112   2.306   6.834  3.4041 -3.8083 -0.8562
  945MOL0     H30396   5.077   2.060   6.541 -1.4255 -1.7912 -0.6890
  945MOL0     H30397   5.003   1.876   6.400  2.3034  1.9632  5.2101
  945MOL0     H30398   4.883   1.707   6.104 -0.7487  0.4101 -0.2367
  945MOL0     H30399   4.944   1.732   6.261 -3.1231 -0.3468  1.0565
  945MOL0     H30400   4.746   1.883   6.306 -0.0233  0.3004  0.6183
  945MOL0     H30401   4.716   1.704   6.311 -0.1300 -0.9721 -1.8258
  945MOL0     H30402   4.653   1.729   6.082  2.9077  2.3633 -1.1748
  945MOL0     H30403   4.535   1.769   6.223  0.3172 -2.4642  1.8069
  945MOL0     H30404   4.533   1.929   6.032  0.6826 -1.9843 -1.1675
  945MOL0     H30405   4.709   1.959   6.059  0.3213 -2.5937 -1.7069
  945MOL0     H30406   4.536   2.175   6.385  2.9088  2.3389 -0.7311
  945MOL0     H30407   4.995   2.134   6.054 -2.5450  1.8618 -0.2536
  945MOL0     H30408   5.068   2.433   6.218  1.2975 -0.0358  0.8496
  945MOL0     H30409   5.212   2.361   6.157  0.2376  1.9683  0.0275
  945MOL0     H30410   5.069   2.347   6.057  1.2555 -0.4692 -0.4336
  946MOL0     O30411   9.102   1.725   8.535  0.5827  0.4293 -0.4350
  946MOL0     C30412   9.113   1.603   8.500 -1.1155 -0.3543  0.3357
  946MOL0     O30413   9.172   1.508   8.577 -1.1115 -0.4234 -0.1799
  946MOL0     C30414   9.252   1.549   8.684  0.2076  0.4395 -0.2339
  946MOL0     C30415   9.351   1.638   8.684 -0.4441 -0.0022  0.7133
  946MOL0     C30416   9.420   1.680   8.804  0.7497 -0.0906 -0.3879
  946MOL0     C30417   9.390   1.607   8.923 -1.2369 -0.6325 -0.0414
  946MOL0     O30418   9.446   1.629   9.049 -0.4048  0.2399  1.0879
  946MOL0     C30419   9.384   1.574   9.167  0.1336  0.1291  0.6138
  946MOL0     C30420   9.464   1.633   9.286 -0.0298 -0.1643  0.0506
  946MOL0     C30421   9.411   1.585   9.418 -0.2357 -0.6519 -1.2706
  946MOL0     C30422   9.479   1.675   9.525  0.5834 -1.2032 -1.2199
  946MOL0     C30423   9.440   1.640   9.669 -0.1873 -0.3192  0.8154
  946MOL0     C30424   9.463   1.751   9.769 -0.4626  0.2265  0.1446
  946MOL0     C30425   9.377   1.735   9.902 -0.3783 -0.4521  0.4094
  946MOL0     C30426   9.456   1.650  10.001  0.6138  0.3612 -0.9747
  946MOL0     N30427   9.384   1.649  10.129  0.3967 -0.4135 -0.1223
  946MOL0     C30428   9.265   1.587  10.145 -0.4088 -0.5870  0.2004
  946MOL0     C30429   9.214   1.625  10.262 -0.4889  0.3452 -0.0278
  946MOL0     C30430   9.099   1.568  10.343 -0.0224  0.8055  0.0403
  946MOL0     C30431   9.145   1.444  10.426  1.0074  0.6131  0.3886
  946MOL0     C30432   9.257   1.470  10.526  0.0384 -0.1762 -0.5392
  946MOL0     C30433   9.293   1.345  10.609 -0.2763  0.3338  0.7125
  946MOL0     O30434   9.217   1.230  10.590  0.7268 -0.0438 -0.1632
  946MOL0     C30435   9.237   1.132  10.682 -0.0294 -0.1504  1.1011
  946MOL0     C30436   9.145   1.035  10.661 -0.1860  0.9573 -0.0655
  946MOL0     C30437   9.133   0.925  10.744  0.2590 -0.6955  1.1108
  946MOL0     C30438   9.020   0.820  10.701 -0.2458  0.4283  0.5002
  946MOL0     C30439   9.226   0.920  10.847  0.3998  0.3725  0.0774
  946MOL0     C30440   9.215   0.823  10.957  0.4838  0.0798  0.0505
  946MOL0     O30441   9.301   0.836  11.064  0.1839 -0.6172 -0.3853
  946MOL0     C30442   9.308   0.754  11.172  0.1018 -0.1694  0.3296
  946MOL0     C30443   9.262   0.618  11.176 -0.6330 -1.3708 -1.2942
  946MOL0     C30444   9.280   0.542  11.292  0.6829  0.4126  0.1658
  946MOL0     C30445   9.354   0.585  11.395 -0.8228 -0.9437 -0.0552
  946MOL0     O30446   9.370   0.509  11.511 -0.6262 -0.2017  0.2424
  946MOL0     C30447   9.501   0.444  11.514 -0.4150 -0.1500  0.9255
  946MOL0     C30448   9.498   0.302  11.465  0.4704  0.4088  0.2561
  946MOL0     C30449   9.623   0.221  11.522  0.2712  0.0085 -0.2282
  946MOL0     C30450   9.596   0.155  11.655  0.3156 -1.2521  0.5751
  946MOL0     C30451   9.658   0.012  11.657  0.2654  0.3798 -0.0383
  946MOL0     C30452   9.812   0.003  11.651  0.3472  0.0887  0.4144
  946MOL0     C30453   9.835  -0.147  11.662  0.1858 -0.1069  0.6517
  946MOL0     C30454   9.978  -0.182  11.611  0.2757 -0.3295  0.3782
  946MOL0    Cl30455  10.098  -0.079  11.695  0.0753  0.2565 -0.0576
  946MOL0     C30456   9.388   0.719  11.393  0.3524 -0.3470 -0.6863
  946MOL0     C30457   9.375   0.808  11.285  0.8424 -0.3499  0.0030
  946MOL0     O30458   9.146   0.723  10.938  1.0003 -0.7348  0.0738
  946MOL0     C30459   9.341   1.011  10.853  0.3868  1.0792 -0.3950
  946MOL0     C30460   9.338   1.117  10.773 -0.7800 -0.7374 -1.7816
  946MOL0     N30461   9.299   1.716  10.326 -0.2230  0.1527 -0.3446
  946MOL0     N30462   9.404   1.726  10.248  0.5175 -0.5120  0.4933
  946MOL0     C30463   9.287   1.511   8.919 -0.3882  0.2120  0.8682
  946MOL0     C30464   9.219   1.484   8.798 -0.0316  0.4441 -1.1883
  946MOL0     C30465   9.048   1.545   8.377  0.9550  1.1568 -0.4785
  946MOL0     C30466   9.047   1.408   8.365 -0.2011  0.5888  0.1386
  946MOL0     C30467   9.003   1.346   8.248 -0.1020 -0.6443 -0.9058
  946MOL0     C30468   8.929   1.420   8.157  1.0893  0.5950  0.0777
  946MOL0     O30469   8.866   1.353   8.056  0.5792  0.1920 -0.8564
  946MOL0     C30470   8.923   1.402   7.927 -0.5842  0.3197 -0.2245
  946MOL0     C30471   8.924   1.297   7.827 -0.5933 -0.4640 -0.2391
  946MOL0     C30472   8.804   1.293   7.733 -0.3456 -1.1387 -0.5280
  946MOL0     C30473   8.816   1.162   7.650 -0.2192  1.3617 -0.1847
  946MOL0     C30474   8.683   1.127   7.609 -0.0863 -0.2826  0.0393
  946MOL0     C30475   8.577   1.088   7.555 -0.8102 -0.0042  0.1270
  946MOL0     C30476   8.926   1.558   8.167 -0.5497  0.1984  0.6290
  946MOL0     C30477   8.982   1.619   8.273 -0.1013 -0.1157  0.1617
  946MOL0     C30478   8.962   1.774   8.277  0.9067  0.3986  0.0138
  946MOL0     H30479   9.376   1.670   8.583  0.7978 -1.6225  0.4503
  946MOL0     H30480   9.503   1.749   8.796 -1.4703  2.6680 -1.3529
  946MOL0     H30481   9.402   1.466   9.168  2.6614  0.5089  1.3168
  946MOL0     H30482   9.278   1.602   9.168  0.2576  0.7362  3.1421
  946MOL0     H30483   9.571   1.611   9.281  0.0885 -0.1543  1.8573
  946MOL0     H30484   9.455   1.741   9.272 -0.4676 -0.4621 -2.3533
  946MOL0     H30485   9.302   1.592   9.417 -0.2344 -0.7112 -2.2319
  946MOL0     H30486   9.442   1.481   9.427  0.9739 -0.7097 -4.5784
  946MOL0     H30487   9.587   1.664   9.512  0.9370 -0.5445  0.9055
  946MOL0     H30488   9.480   1.782   9.500  4.4222 -0.6788  0.4851
  946MOL0     H30489   9.481   1.542   9.695  0.6739 -0.2338 -0.1557
  946MOL0     H30490   9.332   1.623   9.665 -0.3717  1.0504 -1.5651
  946MOL0     H30491   9.567   1.780   9.787  0.2889 -2.5466  0.6758
  946MOL0     H30492   9.424   1.840   9.718 -1.0652 -1.9696 -3.6306
  946MOL0     H30493   9.287   1.677   9.881  0.4258 -0.8356 -2.4230
  946MOL0     H30494   9.356   1.831   9.949 -5.1114 -1.9181  1.7786
  946MOL0     H30495   9.459   1.546   9.967  1.8063 -0.2612  0.8820
  946MOL0     H30496   9.561   1.678  10.010  1.1713 -1.5644 -0.9422
  946MOL0     H30497   9.222   1.509  10.082  1.2071 -2.7556  1.6451
  946MOL0     H30498   9.015   1.528  10.285 -0.0273 -1.7070  1.5931
  946MOL0     H30499   9.055   1.641  10.411  0.0334  0.4596  0.4498
  946MOL0     H30500   9.065   1.428  10.499  2.7263  3.9903  3.3598
  946MOL0     H30501   9.175   1.371  10.350  0.5551 -0.1284  0.9006
  946MOL0     H30502   9.350   1.492  10.474  0.5426 -0.7930  0.0775
  946MOL0     H30503   9.220   1.556  10.583 -1.0237 -0.4203 -0.8250
  946MOL0     H30504   9.399   1.323  10.596 -0.5477  0.7226 -3.4392
  946MOL0     H30505   9.282   1.379  10.713  1.1124  0.0162  0.9783
  946MOL0     H30506   9.071   1.053  10.584 -0.5248  1.8658  0.4501
  946MOL0     H30507   8.942   0.807  10.777 -0.5538 -2.5485 -0.2215
  946MOL0     H30508   9.065   0.725  10.672  0.4958  0.0856  2.6389
  946MOL0     H30509   8.980   0.856  10.606  4.9298 -0.3791 -2.3719
  946MOL0     H30510   9.220   0.561  11.094 -0.6244  1.9401 -3.8071
  946MOL0     H30511   9.238   0.442  11.296  0.9434  0.2461 -0.8686
  946MOL0     H30512   9.567   0.502  11.450  0.2768  1.3868  2.9135
  946MOL0     H30513   9.528   0.443  11.620 -0.0505 -0.7987  0.8301
  946MOL0     H30514   9.403   0.257  11.497  0.4941  0.4002  0.3147
  946MOL0     H30515   9.505   0.309  11.357  2.5951  3.1533  0.4797
  946MOL0     H30516   9.701   0.298  11.517 -1.5878  1.9258 -4.0051
  946MOL0     H30517   9.625   0.139  11.449  0.1640  1.0595 -1.4385
  946MOL0     H30518   9.487   0.145  11.659  0.4573 -2.9610  1.2148
  946MOL0     H30519   9.631   0.220  11.736 -0.9219 -0.0054  0.1592
  946MOL0     H30520   9.617  -0.033  11.747  0.2308 -1.6308 -0.9986
  946MOL0     H30521   9.611  -0.047  11.578 -1.5243  0.6015  0.8214
  946MOL0     H30522   9.860   0.053  11.736 -0.5002  0.0117  0.9549
  946MOL0     H30523   9.851   0.043  11.557  3.2451 -1.4362  0.8857
  946MOL0     H30524   9.772  -0.200  11.590  0.3125  2.1493 -1.2220
  946MOL0     H30525   9.819  -0.185  11.764  1.7053  2.4993  1.9784
  946MOL0     H30526  10.008  -0.145  11.512  2.3643  3.9302  2.2971
  946MOL0     H30527   9.998  -0.288  11.630 -2.0375 -0.5169  2.1447
  946MOL0     H30528   9.427   0.768  11.482  2.1903 -2.7152 -0.0663
  946MOL0     H30529   9.416   0.908  11.297 -0.4688  0.2539 -0.3072
  946MOL0     H30530   9.425   0.987  10.918 -1.0208  2.3172  2.0379
  946MOL0     H30531   9.424   1.182  10.786 -2.1668  0.5581  3.8808
  946MOL0     H30532   9.259   1.444   9.000  2.4010  1.5682  3.1042
  946MOL0     H30533   9.122   1.437   8.808  0.9063 -1.1157  1.5493
  946MOL0     H30534   9.107   1.336   8.421  0.7546  2.0950  1.1275
  946MOL0     H30535   9.008   1.238   8.241  0.0356 -0.6438 -0.7978
  946MOL0     H30536   8.862   1.483   7.886  1.7314  2.4308  0.2911
  946MOL0     H30537   9.023   1.441   7.944 -0.2987 -0.7557  0.7081
  946MOL0     H30538   8.923   1.200   7.878 -4.9129 -0.9646 -0.8716
  946MOL0     H30539   9.011   1.292   7.762 -0.0271 -0.6849  0.5231
  946MOL0     H30540   8.720   1.298   7.803  1.2518  1.3060  1.3743
  946MOL0     H30541   8.794   1.381   7.669 -2.4749  0.3817  1.7015
  946MOL0     H30542   8.850   1.083   7.718  0.3036  2.3017  0.6755
  946MOL0     H30543   8.881   1.170   7.562 -1.8124 -0.2665 -1.5793
  946MOL0     H30544   8.488   1.080   7.496  0.8669  3.4189 -3.3236
  946MOL0     H30545   8.877   1.611   8.086  2.2111  1.3139 -0.4562
  946MOL0     H30546   8.940   1.805   8.174 -1.4483  1.2630  0.7034
  946MOL0     H30547   8.880   1.818   8.334  1.4746  0.3280  0.8976
  946MOL0     H30548   9.050   1.825   8.316  0.4484  2.4926 -1.5347
  947MOL0     O30549  10.129   5.923   6.829  0.1403 -0.1797 -0.6906
  947MOL0     C30550  10.047   5.973   6.750  0.4098 -0.5635 -0.1076
  947MOL0     O30551   9.908   5.974   6.756  0.6278  0.1885  0.3550
  947MOL0     C30552   9.844   5.900   6.856  0.8126  1.3014  0.6678
  947MOL0     C30553   9.715   5.946   6.893 -0.2761  0.4797 -0.0273
  947MOL0     C30554   9.632   5.869   6.978 -0.5628 -0.1326  0.5825
  947MOL0     C30555   9.678   5.748   7.036  0.0061  0.1053 -0.1176
  947MOL0     O30556   9.616   5.681   7.134  0.5893  0.6009 -0.2491
  947MOL0     C30557   9.592   5.760   7.250  0.0655  0.0008 -0.3642
  947MOL0     C30558   9.511   5.685   7.357 -0.5155 -0.0358  0.5641
  947MOL0     C30559   9.364   5.697   7.317  0.1914  0.1649  0.1921
  947MOL0     C30560   9.286   5.651   7.442 -0.0140  0.3960  0.7908
  947MOL0     C30561   9.281   5.503   7.467  0.8543  0.5003 -0.3753
  947MOL0     C30562   9.203   5.473   7.608 -0.1473 -1.0868  1.0578
  947MOL0     C30563   9.113   5.344   7.613  0.7914 -0.8246  0.7235
  947MOL0     C30564   9.203   5.223   7.651 -0.2050 -0.8523  0.3486
  947MOL0     N30565   9.136   5.104   7.604  0.6694  1.1310 -0.9762
  947MOL0     C30566   9.006   5.074   7.638  0.4999  0.5491  0.3338
  947MOL0     C30567   8.987   4.942   7.587 -0.9781  0.3848  0.2586
  947MOL0     C30568   8.890   4.839   7.625 -0.1132  0.6556  0.5971
  947MOL0     C30569   8.805   4.796   7.509  0.0309  0.0129  0.1200
  947MOL0     C30570   8.702   4.690   7.554 -0.1512 -0.4429  0.0186
  947MOL0     C30571   8.629   4.625   7.437 -0.6565  0.6908 -0.3098
  947MOL0     O30572   8.726   4.557   7.353 -0.2480  0.5414 -0.0556
  947MOL0     C30573   8.752   4.424   7.362 -0.1789 -0.1330  0.5345
  947MOL0     C30574   8.762   4.349   7.242 -0.5471  0.5458 -0.7470
  947MOL0     C30575   8.745   4.201   7.245 -0.2650 -0.5566 -0.6683
  947MOL0     C30576   8.745   4.122   7.112  0.1829  0.4762 -0.0632
  947MOL0     C30577   8.739   4.139   7.369  1.1529 -0.3550 -0.7250
  947MOL0     C30578   8.714   3.999   7.384  0.1996  0.5715 -0.6082
  947MOL0     O30579   8.784   3.936   7.486  0.6973 -0.3754 -0.8140
  947MOL0     C30580   8.770   3.799   7.503 -0.8007 -0.7862 -0.2093
  947MOL0     C30581   8.882   3.741   7.562 -0.3992  0.3168 -1.1398
  947MOL0     C30582   8.879   3.607   7.586 -0.0934 -0.0137 -0.2260
  947MOL0     C30583   8.764   3.525   7.560  0.8447 -0.6714 -1.0465
  947MOL0     O30584   8.775   3.394   7.600 -0.1202  0.4669  0.3018
  947MOL0     C30585   8.691   3.288   7.554 -0.5694  0.4560  0.6023
  947MOL0     C30586   8.759   3.168   7.608  0.7303  0.0761 -0.1598
  947MOL0     C30587   8.696   3.027   7.590  0.0737 -0.6153  0.2046
  947MOL0     C30588   8.698   2.981   7.446  0.6535  0.3545  0.1563
  947MOL0     C30589   8.564   3.019   7.378  0.4508 -0.6438 -0.4129
  947MOL0     C30590   8.454   2.915   7.400 -0.4199  0.0585  0.7967
  947MOL0     C30591   8.488   2.762   7.367  0.2940 -0.1505  0.1140
  947MOL0     C30592   8.508   2.728   7.219 -0.5507 -0.3852  0.4373
  947MOL0    Cl30593   8.368   2.775   7.121  0.3223 -0.0199 -0.2264
  947MOL0     C30594   8.653   3.585   7.498 -0.2604  0.8313 -1.2685
  947MOL0     C30595   8.655   3.720   7.483  0.0972 -0.2557 -0.4264
  947MOL0     O30596   8.649   3.939   7.300 -0.0969 -0.1123  0.3050
  947MOL0     C30597   8.753   4.217   7.482 -0.8391  0.6881  0.0877
  947MOL0     C30598   8.763   4.362   7.480 -0.6693  0.7990  1.1560
  947MOL0     N30599   9.116   4.898   7.533  0.1491  0.0420  0.9245
  947MOL0     N30600   9.201   4.999   7.554  0.7385  0.3449 -0.0333
  947MOL0     C30601   9.799   5.691   6.996 -0.4489  0.0074  0.5974
  947MOL0     C30602   9.880   5.765   6.900  0.0623  0.2755  0.7008
  947MOL0     C30603  10.099   6.050   6.639 -0.1899 -0.5793 -0.2471
  947MOL0     C30604  10.179   5.984   6.546  0.1469  0.4183 -0.0283
  947MOL0     C30605  10.205   6.047   6.424 -0.2977  0.2160 -0.3457
  947MOL0     C30606  10.158   6.178   6.395 -0.2775  1.2007 -0.4525
  947MOL0     O30607  10.197   6.239   6.281 -0.0773 -0.6781  0.0201
  947MOL0     C30608  10.124   6.360   6.233 -1.0545 -0.4826 -0.1798
  947MOL0     C30609  10.197   6.403   6.102  0.7392 -0.3826  0.9950
  947MOL0     C30610  10.324   6.474   6.125 -1.7374 -0.0289  0.5467
  947MOL0     C30611  10.390   6.523   5.991  0.2043 -0.2640  0.2184
  947MOL0     C30612  10.315   6.624   5.919 -0.3511  0.0895 -0.4057
  947MOL0     C30613  10.237   6.704   5.869 -0.0703 -0.8135 -0.0127
  947MOL0     C30614  10.096   6.246   6.498 -0.0549 -0.2616 -0.7448
  947MOL0     C30615  10.071   6.193   6.625  0.0175 -0.4766  0.1698
  947MOL0     C30616   9.992   6.278   6.724  0.6367 -1.0589 -1.0210
  947MOL0     H30617   9.674   6.040   6.857 -0.8980 -0.5847 -2.2945
  947MOL0     H30618   9.531   5.904   6.999 -0.6540  0.2871 -0.4818
  947MOL0     H30619   9.533   5.841   7.207 -0.0217  0.4550  0.5982
  947MOL0     H30620   9.686   5.801   7.286 -1.5589  2.5953  1.2518
  947MOL0     H30621   9.543   5.581   7.363  0.3578  0.1044 -0.9585
  947MOL0     H30622   9.541   5.737   7.448 -1.4800  0.5661  0.5510
  947MOL0     H30623   9.343   5.804   7.302  0.9639  0.3138  0.1309
  947MOL0     H30624   9.323   5.650   7.228 -2.7797 -0.6405  1.8619
  947MOL0     H30625   9.338   5.700   7.525  2.1029  0.3533 -0.4387
  947MOL0     H30626   9.184   5.690   7.446 -0.8081 -1.5752  1.0152
  947MOL0     H30627   9.380   5.458   7.481  1.2233  1.6618  0.8765
  947MOL0     H30628   9.245   5.450   7.378 -1.0539  2.5367 -0.8985
  947MOL0     H30629   9.269   5.485   7.695  1.7920 -1.3969 -0.3142
  947MOL0     H30630   9.134   5.557   7.620 -2.9406 -2.5759 -2.3815
  947MOL0     H30631   9.059   5.343   7.518  0.7702  3.5655  0.4788
  947MOL0     H30632   9.045   5.363   7.697 -0.6640  1.8306 -0.9180
  947MOL0     H30633   9.303   5.230   7.606  0.1753  0.3006  1.3245
  947MOL0     H30634   9.216   5.209   7.759 -0.7979  1.3424  0.7610
  947MOL0     H30635   8.934   5.112   7.711  0.0833 -0.5800  0.5281
  947MOL0     H30636   8.832   4.870   7.712 -0.8757  0.4857  0.1618
  947MOL0     H30637   8.953   4.756   7.657  0.1486  0.5020 -0.2772
  947MOL0     H30638   8.752   4.878   7.459 -2.6212 -1.6385  0.0238
  947MOL0     H30639   8.878   4.762   7.435  0.0588  0.7427 -0.2032
  947MOL0     H30640   8.747   4.618   7.624  0.3227  0.7199  0.9523
  947MOL0     H30641   8.625   4.745   7.609 -0.8620  1.8971 -3.0183
  947MOL0     H30642   8.553   4.550   7.463  1.1193 -1.0440  0.0992
  947MOL0     H30643   8.586   4.712   7.386 -2.5827 -0.7286 -1.2273
  947MOL0     H30644   8.768   4.406   7.150  0.8260 -0.5962 -1.4097
  947MOL0     H30645   8.644   4.090   7.087  1.2825 -1.9094 -1.9832
  947MOL0     H30646   8.810   4.034   7.113 -2.3050 -1.5045 -1.2159
  947MOL0     H30647   8.787   4.188   7.036 -1.8112  3.1234  1.0215
  947MOL0     H30648   8.976   3.794   7.566 -0.9349  1.2435 -0.4772
  947MOL0     H30649   8.970   3.559   7.622 -0.1583  1.6208  2.3781
  947MOL0     H30650   8.591   3.301   7.596 -0.6259 -0.1122  0.6479
  947MOL0     H30651   8.697   3.296   7.445 -2.6510  2.6239  0.5568
  947MOL0     H30652   8.863   3.161   7.575  1.8540 -1.3023  3.2310
  947MOL0     H30653   8.758   3.182   7.717 -2.5312 -0.1118 -0.0611
  947MOL0     H30654   8.597   3.012   7.635 -0.3970 -4.2498 -1.6113
  947MOL0     H30655   8.758   2.964   7.655  2.1584  2.4281  1.3787
  947MOL0     H30656   8.719   2.875   7.428 -1.0570  0.4734 -3.6944
  947MOL0     H30657   8.777   3.035   7.394  1.8429  0.9932  2.5067
  947MOL0     H30658   8.527   3.116   7.412  0.9815 -0.7769  0.6058
  947MOL0     H30659   8.586   3.016   7.271  2.9435 -0.7523  0.0335
  947MOL0     H30660   8.378   2.947   7.328  2.6655  1.5694 -2.0732
  947MOL0     H30661   8.411   2.923   7.500 -3.6734  1.9135 -0.5887
  947MOL0     H30662   8.398   2.721   7.414  1.1588  0.8737  2.8680
  947MOL0     H30663   8.576   2.727   7.422  1.7140  1.3623 -1.1096
  947MOL0     H30664   8.530   2.621   7.206 -3.1413 -0.5939 -5.0025
  947MOL0     H30665   8.595   2.786   7.186  1.5545 -0.5218  4.9390
  947MOL0     H30666   8.567   3.526   7.468 -1.3203  2.2520 -1.0975
  947MOL0     H30667   8.574   3.772   7.434  1.7057  0.9779 -1.9182
  947MOL0     H30668   8.754   4.163   7.576 -1.5423 -1.1318 -0.9105
  947MOL0     H30669   8.761   4.406   7.579 -0.5784 -1.0241  2.0132
  947MOL0     H30670   9.849   5.609   7.046 -2.2070 -1.4226  0.1116
  947MOL0     H30671   9.971   5.725   6.856 -0.3307 -0.4114  0.5060
  947MOL0     H30672  10.215   5.883   6.562 -0.1472 -0.0189 -1.8794
  947MOL0     H30673  10.266   5.987   6.357  2.2003  0.4038  1.6206
  947MOL0     H30674  10.020   6.334   6.213 -0.7522  0.7723 -4.3563
  947MOL0     H30675  10.139   6.441   6.305  1.0850 -0.4160 -0.6260
  947MOL0     H30676  10.129   6.464   6.042  0.0545  1.5616  3.5426
  947MOL0     H30677  10.202   6.313   6.041 -1.2717 -1.2793  2.0543
  947MOL0     H30678  10.301   6.550   6.200  2.5564  2.6167 -0.4956
  947MOL0     H30679  10.391   6.410   6.183  0.6440  0.7035 -1.2341
  947MOL0     H30680  10.400   6.440   5.922  1.6162 -0.8192  1.0591
  947MOL0     H30681  10.492   6.559   6.004  0.2391  0.2169 -1.2046
  947MOL0     H30682  10.182   6.784   5.825  1.3285 -0.5129 -1.2674
  947MOL0     H30683  10.057   6.345   6.472 -0.9456 -0.4653 -0.2392
  947MOL0     H30684   9.969   6.223   6.816 -1.2939  0.5318 -0.5083
  947MOL0     H30685  10.044   6.374   6.732 -1.5287  0.2046 -1.4883
  947MOL0     H30686   9.891   6.300   6.690  1.7271  0.9742 -3.2263
  948MOL0     O30687   3.127   8.946   4.102  0.4646 -0.0511  0.0137
  948MOL0     C30688   3.171   9.037   4.179 -0.6489  0.5867 -0.6049
  948MOL0     O30689   3.243   9.143   4.134 -0.7917  0.2786  0.3473
  948MOL0     C30690   3.184   9.206   4.032 -0.4319 -0.0691 -0.5902
  948MOL0     C30691   3.193   9.153   3.899 -1.1786  0.1245 -0.7853
  948MOL0     C30692   3.128   9.212   3.791  0.5817  0.5408  0.3082
  948MOL0     C30693   3.048   9.328   3.808  0.5287 -0.4719  0.0868
  948MOL0     O30694   2.998   9.385   3.690  0.1453  0.3115  0.5637
  948MOL0     C30695   2.947   9.516   3.699  0.6931 -0.1133 -0.2854
  948MOL0     C30696   2.919   9.591   3.565  0.2752  0.2629  0.0914
  948MOL0     C30697   2.790   9.537   3.490 -0.1997  0.2389  0.7743
  948MOL0     C30698   2.745   9.609   3.357  0.1528  0.3126 -1.6820
  948MOL0     C30699   2.594   9.656   3.354  0.8773  0.4701  0.8242
  948MOL0     C30700   2.556   9.726   3.226 -0.0338 -0.2247  0.6925
  948MOL0     C30701   2.607   9.658   3.088  0.0657  0.0583 -0.1461
  948MOL0     C30702   2.540   9.522   3.081  0.4763 -0.1326  0.0839
  948MOL0     N30703   2.592   9.438   2.967  0.4699 -0.0193 -0.6790
  948MOL0     C30704   2.621   9.303   2.969  0.0990  0.3617  0.1034
  948MOL0     C30705   2.623   9.266   2.834 -0.0440  0.6629 -0.4242
  948MOL0     C30706   2.637   9.126   2.786  0.5583  0.2267 -0.2562
  948MOL0     C30707   2.785   9.106   2.756 -0.7990 -0.0189 -0.5555
  948MOL0     C30708   2.836   9.166   2.629 -1.0410 -0.3298 -0.6427
  948MOL0     C30709   2.962   9.098   2.569 -0.1256 -0.1709  0.4378
  948MOL0     O30710   3.035   9.193   2.488  0.0250  0.4600 -0.2155
  948MOL0     C30711   3.125   9.289   2.537  0.0288 -0.4607 -1.0180
  948MOL0     C30712   3.122   9.412   2.471 -0.4822 -0.3037 -0.0025
  948MOL0     C30713   3.210   9.511   2.511 -0.1432 -0.1030 -0.0632
  948MOL0     C30714   3.188   9.646   2.443 -0.3187  0.3480  0.3724
  948MOL0     C30715   3.296   9.488   2.623 -0.1656  0.1057  0.9310
  948MOL0     C30716   3.401   9.588   2.670  1.0827 -0.0694 -0.5897
  948MOL0     O30717   3.487   9.541   2.765 -0.3128 -0.2053  0.1250
  948MOL0     C30718   3.562   9.646   2.823  0.2279 -0.5621 -0.0274
  948MOL0     C30719   3.528   9.678   2.950 -0.2303 -0.1981  0.8267
  948MOL0     C30720   3.594   9.778   3.019  0.5295 -0.4250 -0.0500
  948MOL0     C30721   3.685   9.854   2.949 -0.7325 -0.3308 -0.8852
  948MOL0     O30722   3.759   9.953   3.015  0.3625  0.3599 -0.4815
  948MOL0     C30723   3.882   9.919   3.079 -0.6818  0.2066  0.6300
  948MOL0     C30724   3.873   9.853   3.216  0.7030  0.9616 -0.6318
  948MOL0     C30725   3.831   9.945   3.334 -0.3521 -0.2116 -0.9773
  948MOL0     C30726   3.860   9.872   3.471  0.2107 -0.3348  0.1572
  948MOL0     C30727   3.846   9.954   3.599 -0.4149  0.4923  0.0097
  948MOL0     C30728   3.883   9.862   3.722  0.1198 -0.7887  0.2858
  948MOL0     C30729   3.899   9.950   3.843  0.8377  0.0008 -0.5914
  948MOL0     C30730   3.950   9.880   3.965  0.9199  0.1566 -0.4198
  948MOL0    Cl30731   3.838   9.742   4.007  0.3224  0.1715 -0.1169
  948MOL0     C30732   3.711   9.839   2.815 -0.2873  0.5679 -0.3735
  948MOL0     C30733   3.659   9.734   2.753  0.4610  0.5298 -0.5119
  948MOL0     O30734   3.366   9.705   2.663  0.9369 -0.2666 -0.0591
  948MOL0     C30735   3.290   9.367   2.682  0.6138  0.8119  0.1106
  948MOL0     C30736   3.210   9.266   2.637  0.6884 -0.1604 -0.1846
  948MOL0     N30737   2.602   9.382   2.765 -0.2292  0.8033  0.0018
  948MOL0     N30738   2.600   9.483   2.840  0.0642 -0.2498 -0.3079
  948MOL0     C30739   3.040   9.383   3.939 -0.9958  0.2241  0.6465
  948MOL0     C30740   3.115   9.328   4.047 -0.5133  1.1173  0.5011
  948MOL0     C30741   3.115   9.033   4.315 -0.6539 -0.3411 -0.2845
  948MOL0     C30742   3.126   9.151   4.391 -0.1304  0.0275  0.4883
  948MOL0     C30743   3.084   9.173   4.519  0.4902  0.3967 -0.0662
  948MOL0     C30744   2.999   9.080   4.570 -0.2018 -0.4114 -0.0830
  948MOL0     O30745   2.932   9.088   4.694  0.3379  0.9111 -1.2770
  948MOL0     C30746   2.939   9.205   4.781 -0.4246 -0.9030  0.9933
  948MOL0     C30747   2.899   9.174   4.921 -0.0144  0.0657  0.9986
  948MOL0     C30748   2.936   9.294   5.019  0.9608 -0.1421  0.6228
  948MOL0     C30749   2.804   9.354   5.079 -0.4507  0.3214 -0.2360
  948MOL0     C30750   2.823   9.470   5.159 -0.7004 -0.0025 -0.1117
  948MOL0     C30751   2.849   9.571   5.231  0.7454  0.3394 -0.2280
  948MOL0     C30752   2.962   8.974   4.497 -0.5451  0.0281 -0.6813
  948MOL0     C30753   3.013   8.943   4.370 -0.6403  0.1836  0.0612
  948MOL0     C30754   2.949   8.833   4.298 -0.2868 -0.4553  0.1388
  948MOL0     H30755   3.264   9.073   3.882 -1.5176 -0.2696 -0.3689
  948MOL0     H30756   3.118   9.182   3.688 -0.7122  0.5454  0.4171
  948MOL0     H30757   3.016   9.587   3.746  0.4797  1.4148 -2.1493
  948MOL0     H30758   2.858   9.512   3.762  0.1858  2.8608 -0.6774
  948MOL0     H30759   2.904   9.695   3.597 -1.6267  0.2489 -0.6121
  948MOL0     H30760   3.004   9.588   3.497  0.0257 -2.5445 -0.1894
  948MOL0     H30761   2.809   9.431   3.472 -3.8923 -0.2315 -1.3309
  948MOL0     H30762   2.703   9.544   3.555  0.5116  0.4957  1.7140
  948MOL0     H30763   2.807   9.697   3.339 -0.5878  0.8219 -1.8286
  948MOL0     H30764   2.758   9.539   3.275 -0.8826 -2.9849  0.7660
  948MOL0     H30765   2.552   9.723   3.429 -3.3108 -1.0896  0.1857
  948MOL0     H30766   2.524   9.574   3.374  0.6597  0.6139  0.6689
  948MOL0     H30767   2.447   9.723   3.220 -0.5920  6.4210 -0.0280
  948MOL0     H30768   2.567   9.835   3.235 -3.9739  0.5309 -1.2868
  948MOL0     H30769   2.715   9.653   3.074 -0.2197 -0.7530 -2.3147
  948MOL0     H30770   2.581   9.725   3.006 -1.4550  0.1353  0.3605
  948MOL0     H30771   2.534   9.468   3.176 -3.6739 -0.8939 -0.4326
  948MOL0     H30772   2.436   9.542   3.056 -1.3308 -4.2525  3.0878
  948MOL0     H30773   2.608   9.230   3.049  0.0339 -0.3482 -0.5384
  948MOL0     H30774   2.570   9.113   2.701 -1.9042  3.7870  0.8860
  948MOL0     H30775   2.622   9.064   2.875  1.7817 -2.7516 -1.9943
  948MOL0     H30776   2.857   9.142   2.830 -0.1133  1.7197 -1.9873
  948MOL0     H30777   2.803   8.999   2.768 -0.4723  0.0446 -0.4741
  948MOL0     H30778   2.763   9.176   2.548 -2.7159 -3.4039  0.3228
  948MOL0     H30779   2.864   9.270   2.647 -3.8320  0.5583 -0.9013
  948MOL0     H30780   3.019   9.070   2.658 -2.6146  0.5770  2.4214
  948MOL0     H30781   2.954   9.004   2.515  3.1094 -0.2768 -0.0398
  948MOL0     H30782   3.045   9.433   2.397  0.1762  2.3413 -0.0129
  948MOL0     H30783   3.283   9.695   2.418  0.1210 -1.0281 -0.8674
  948MOL0     H30784   3.134   9.711   2.512 -1.2750  1.5211 -1.3907
  948MOL0     H30785   3.137   9.632   2.347  1.0246  2.1828 -0.6796
  948MOL0     H30786   3.447   9.616   2.989 -0.7253 -1.2697 -1.7072
  948MOL0     H30787   3.568   9.801   3.122 -1.5973 -0.0433 -0.6268
  948MOL0     H30788   3.942   9.848   3.021  1.4949  1.0064  1.7862
  948MOL0     H30789   3.937  10.013   3.088 -1.5448  0.8046 -0.1802
  948MOL0     H30790   3.788   9.784   3.208 -0.7467  2.7426 -1.4692
  948MOL0     H30791   3.960   9.792   3.239 -2.3447 -3.2989  0.8371
  948MOL0     H30792   3.724   9.968   3.335 -0.1647  0.7118 -0.1090
  948MOL0     H30793   3.888  10.038   3.337  1.9609 -1.5614  0.5633
  948MOL0     H30794   3.962   9.834   3.456 -0.5727 -3.0561  1.1992
  948MOL0     H30795   3.790   9.790   3.486 -0.5613  0.6790  2.6735
  948MOL0     H30796   3.904  10.046   3.594 -0.3413  0.4816  0.5358
  948MOL0     H30797   3.742   9.987   3.609 -1.2898 -2.1655  0.5995
  948MOL0     H30798   3.979   9.812   3.705  2.5234  2.6378  2.5184
  948MOL0     H30799   3.801   9.791   3.737 -0.4111  0.1890  2.2700
  948MOL0     H30800   3.815  10.019   3.858  1.5465  0.5561  1.1037
  948MOL0     H30801   3.980  10.021   3.825 -0.8723  1.8017 -1.7189
  948MOL0     H30802   3.958   9.928   4.063 -0.4537  0.1033 -0.2642
  948MOL0     H30803   4.049   9.835   3.951  2.1704  1.8405  2.1984
  948MOL0     H30804   3.784   9.900   2.762  0.5524  0.1857  0.3151
  948MOL0     H30805   3.673   9.712   2.648  1.0804  0.4970 -0.4234
  948MOL0     H30806   3.355   9.342   2.765 -1.1789 -1.1262  1.0183
  948MOL0     H30807   3.226   9.178   2.699  0.2062  2.7817  4.6330
  948MOL0     H30808   2.989   9.478   3.942 -0.5435  0.5349 -0.7937
  948MOL0     H30809   3.115   9.381   4.142  0.3497  1.1208  0.5050
  948MOL0     H30810   3.173   9.243   4.357  0.4844 -0.1415  0.8681
  948MOL0     H30811   3.115   9.264   4.569  1.5364  0.9534 -1.6148
  948MOL0     H30812   3.041   9.244   4.785 -1.6072  2.3612  2.4237
  948MOL0     H30813   2.865   9.281   4.755 -1.0387 -1.3749  1.3324
  948MOL0     H30814   2.941   9.079   4.953 -1.7322 -0.8167  0.7283
  948MOL0     H30815   2.791   9.157   4.911 -0.5273  3.4672 -1.3435
  948MOL0     H30816   2.980   9.250   5.108 -0.0001  0.0679  1.2198
  948MOL0     H30817   2.999   9.374   4.980  1.5710 -0.4834  0.9052
  948MOL0     H30818   2.772   9.268   5.139  1.2823 -1.0641 -1.2236
  948MOL0     H30819   2.725   9.386   5.010 -1.5785  3.1649  2.1262
  948MOL0     H30820   2.879   9.623   5.319  1.2726 -1.7785  0.9130
  948MOL0     H30821   2.890   8.905   4.539 -0.7448  0.9792  0.5744
  948MOL0     H30822   2.927   8.760   4.376  0.1529 -1.7308 -0.9029
  948MOL0     H30823   2.860   8.861   4.241  0.3558  1.4172 -0.0153
  948MOL0     H30824   3.023   8.794   4.228 -0.4420  2.2455 -1.6879
  949MOL0     O30825   6.233  10.649  10.357 -0.0270  0.6586  0.3639
  949MOL0     C30826   6.195  10.708  10.257  0.0389 -0.0367 -0.7377
  949MOL0     O30827   6.062  10.745  10.227 -0.0519 -0.3515 -0.4876
  949MOL0     C30828   5.972  10.726  10.324 -0.9873 -0.8362 -0.6771
  949MOL0     C30829   5.919  10.598  10.352  0.0478  0.0902  0.7774
  949MOL0     C30830   5.836  10.570  10.452  0.3341 -0.0276 -0.8667
  949MOL0     C30831   5.781  10.679  10.523  0.2232  1.1372 -0.1547
  949MOL0     O30832   5.670  10.661  10.605  0.6238  0.1636 -0.2140
  949MOL0     C30833   5.555  10.738  10.562  0.6445 -0.9578  0.6752
  949MOL0     C30834   5.438  10.643  10.561  0.8486 -0.0785 -0.1813
  949MOL0     C30835   5.408  10.611  10.712 -0.4975  1.0360 -0.7775
  949MOL0     C30836   5.303  10.498  10.693 -1.0345  0.5791  0.2262
  949MOL0     C30837   5.234  10.459  10.823 -0.0312  0.2528 -0.6981
  949MOL0     C30838   5.183  10.315  10.822  0.1281  0.0472  0.1559
  949MOL0     C30839   5.036  10.311  10.885 -0.7207  1.8130  0.4779
  949MOL0     C30840   4.929  10.356  10.784 -0.2175  0.7683 -0.0810
  949MOL0     N30841   4.806  10.411  10.845 -0.0013 -0.1942  0.5052
  949MOL0     C30842   4.805  10.498  10.954 -0.1929 -0.5063 -0.5186
  949MOL0     C30843   4.684  10.502  11.000  0.1944 -0.9965  0.2891
  949MOL0     C30844   4.640  10.566  11.129  0.2830 -0.2413 -0.1298
  949MOL0     C30845   4.734  10.668  11.178 -0.1204 -0.2260  0.0062
  949MOL0     C30846   4.694  10.743  11.307  0.1445  1.3798  0.6452
  949MOL0     C30847   4.656  10.650  11.421 -0.0081  0.3234  0.7256
  949MOL0     O30848   4.505  10.648  11.423  0.7022 -0.0541  0.1337
  949MOL0     C30849   4.441  10.576  11.527 -0.6235 -0.1956 -0.3339
  949MOL0     C30850   4.305  10.560  11.513  1.4424 -0.4913  0.3363
  949MOL0     C30851   4.223  10.479  11.596 -0.1531  0.2953 -1.3091
  949MOL0     C30852   4.075  10.483  11.574  0.1713 -0.0790  0.2260
  949MOL0     C30853   4.290  10.403  11.700 -0.2631 -0.4453  0.4647
  949MOL0     C30854   4.223  10.300  11.782  0.8137 -0.9263 -0.0418
  949MOL0     O30855   4.272  10.285  11.909  0.2303  0.2228  0.3112
  949MOL0     C30856   4.194  10.197  11.982 -0.6940 -0.2402  0.0651
  949MOL0     C30857   4.063  10.225  12.008  1.0215  0.0477  0.4133
  949MOL0     C30858   3.999  10.138  12.099 -0.2993 -0.5427  0.9136
  949MOL0     C30859   4.063  10.024  12.148 -0.1720  0.0801  0.0479
  949MOL0     O30860   3.991   9.938  12.229 -1.4660  0.0978  0.1829
  949MOL0     C30861   4.034   9.961  12.372 -0.0668  0.4788  0.2929
  949MOL0     C30862   3.946   9.874  12.461  0.1414 -0.1226 -0.5732
  949MOL0     C30863   3.970   9.729  12.443 -0.1493  0.2506  0.0476
  949MOL0     C30864   4.102   9.672  12.502  0.4578 -0.0129  0.1421
  949MOL0     C30865   4.095   9.534  12.553 -0.5537  0.4386 -0.1421
  949MOL0     C30866   4.095   9.421  12.454 -0.5175  0.1035 -0.2044
  949MOL0     C30867   3.976   9.412  12.360 -0.9009  0.2003 -0.7895
  949MOL0     C30868   3.989   9.295  12.257 -0.1562 -0.0418 -0.5609
  949MOL0    Cl30869   4.105   9.358  12.142 -0.0424 -0.6034 -0.4861
  949MOL0     C30870   4.196  10.000  12.117 -0.4406 -0.0236  0.8243
  949MOL0     C30871   4.254  10.083  12.031 -0.0096 -0.9261 -0.0295
  949MOL0     O30872   4.134  10.233  11.724  0.3664 -0.3815 -0.1350
  949MOL0     C30873   4.431  10.419  11.710 -0.2947 -0.0347 -0.1452
  949MOL0     C30874   4.506  10.499  11.617  0.2117 -0.4661  0.8811
  949MOL0     N30875   4.603  10.414  10.916 -0.0907  0.1066 -0.6650
  949MOL0     N30876   4.682  10.368  10.827  0.2006  0.4512  0.3441
  949MOL0     C30877   5.822  10.812  10.488 -0.3896 -0.2806  0.7268
  949MOL0     C30878   5.922  10.833  10.392  0.8434  0.1225  0.0032
  949MOL0     C30879   6.293  10.746  10.153  0.0108  0.0180  1.0348
  949MOL0     C30880   6.252  10.820  10.038  0.4257 -0.0402 -0.0621
  949MOL0     C30881   6.337  10.825   9.922  0.6071  1.0817  0.4373
  949MOL0     C30882   6.464  10.764   9.919  0.4616 -0.2809 -0.5558
  949MOL0     O30883   6.534  10.767   9.797  0.0241 -0.0361 -0.5804
  949MOL0     C30884   6.681  10.737   9.812  0.5412  0.6675  0.9348
  949MOL0     C30885   6.759  10.751   9.678  1.0275  0.0285  0.2498
  949MOL0     C30886   6.762  10.621   9.594 -0.1067 -0.0559 -0.7463
  949MOL0     C30887   6.835  10.634   9.456  0.3608 -1.2261  0.0609
  949MOL0     C30888   6.820  10.514   9.371 -0.1402  0.1427  0.2708
  949MOL0     C30889   6.832  10.434   9.282  0.1913  1.0516  0.3489
  949MOL0     C30890   6.506  10.716  10.040  0.2239 -0.3761 -0.4385
  949MOL0     C30891   6.423  10.697  10.148 -1.1228 -0.3144 -0.1518
  949MOL0     C30892   6.503  10.627  10.266 -0.8348  0.4663 -0.2026
  949MOL0     H30893   5.945  10.515  10.287  1.5267  0.2600  1.1149
  949MOL0     H30894   5.803  10.470  10.479 -0.5434  0.8714  1.7955
  949MOL0     H30895   5.578  10.781  10.464  0.0174  1.8830  1.6944
  949MOL0     H30896   5.541  10.825  10.627  2.0795 -0.0751 -0.1515
  949MOL0     H30897   5.349  10.684  10.513  1.2250 -0.5626 -1.3308
  949MOL0     H30898   5.482  10.557  10.508 -0.6626 -1.0726  0.1256
  949MOL0     H30899   5.493  10.577  10.772 -0.4936  0.3242 -1.1861
  949MOL0     H30900   5.363  10.691  10.772  0.6894  0.6040  0.7723
  949MOL0     H30901   5.227  10.543  10.628  1.9039  0.6857 -3.4572
  949MOL0     H30902   5.362  10.416  10.652  1.7860  1.3900  2.3862
  949MOL0     H30903   5.158  10.537  10.833 -1.8699 -1.4706 -0.7442
  949MOL0     H30904   5.290  10.469  10.917 -3.5643  1.3857  1.4845
  949MOL0     H30905   5.195  10.283  10.717  3.3037 -0.3979  0.5448
  949MOL0     H30906   5.262  10.254  10.867  1.4465 -1.4916 -3.7678
  949MOL0     H30907   5.035  10.377  10.972  1.7169  3.4504 -0.6349
  949MOL0     H30908   5.008  10.210  10.917  2.0674  0.7841 -0.0532
  949MOL0     H30909   4.967  10.430  10.713 -0.2510  2.2378  1.3712
  949MOL0     H30910   4.903  10.266  10.728  4.7461 -1.8140  1.1670
  949MOL0     H30911   4.900  10.538  10.988  0.7994 -0.8655 -2.7056
  949MOL0     H30912   4.629  10.486  11.203 -0.6312  0.1683  0.1939
  949MOL0     H30913   4.546  10.618  11.108  0.1422 -0.2285  0.5002
  949MOL0     H30914   4.829  10.622  11.206 -1.1214 -2.2737  0.2053
  949MOL0     H30915   4.748  10.743  11.099  0.4981 -0.1624  0.1716
  949MOL0     H30916   4.781  10.804  11.333  1.0116  0.7593 -0.6989
  949MOL0     H30917   4.615  10.815  11.286  1.5985  2.4729 -1.4292
  949MOL0     H30918   4.704  10.555  11.397  1.7145  1.3594 -0.1146
  949MOL0     H30919   4.697  10.680  11.518  0.8546  1.8854 -0.0775
  949MOL0     H30920   4.248  10.620  11.443 -1.4191 -0.2131  2.6727
  949MOL0     H30921   4.011  10.524  11.652  0.0970  0.9333 -0.3473
  949MOL0     H30922   4.041  10.386  11.538 -0.4029 -0.2356  1.1678
  949MOL0     H30923   4.049  10.540  11.484  1.8213 -1.5613 -1.2864
  949MOL0     H30924   4.011  10.309  11.964  2.7006  0.8826 -0.0364
  949MOL0     H30925   3.894  10.151  12.122 -1.0426 -2.9629 -0.8048
  949MOL0     H30926   4.137   9.926  12.379 -0.2466 -0.6120 -1.6996
  949MOL0     H30927   4.019  10.062  12.410  0.2599  0.6294  0.0252
  949MOL0     H30928   3.971   9.904  12.563  0.1483  2.2301 -1.2172
  949MOL0     H30929   3.841   9.905  12.463  0.3560  0.7325  2.2458
  949MOL0     H30930   3.967   9.693  12.340 -2.8095 -3.4435  1.2062
  949MOL0     H30931   3.893   9.678  12.502  0.5003 -0.1570  0.5656
  949MOL0     H30932   4.136   9.734  12.585  0.8041  0.9067 -0.6544
  949MOL0     H30933   4.172   9.676  12.418  1.2965 -1.4642  0.7444
  949MOL0     H30934   4.181   9.512  12.616 -0.6949  0.2127 -0.0275
  949MOL0     H30935   4.001   9.519  12.607 -0.6800 -5.1199 -1.2898
  949MOL0     H30936   4.091   9.329  12.513  3.4164  0.7564  1.3990
  949MOL0     H30937   4.191   9.419  12.402 -0.7682 -3.0366 -0.7209
  949MOL0     H30938   3.964   9.501  12.297  0.0090  1.0459  0.1925
  949MOL0     H30939   3.885   9.399  12.418 -0.1091  1.6159  0.8580
  949MOL0     H30940   3.896   9.289  12.200 -1.5874 -0.8882  1.7037
  949MOL0     H30941   4.012   9.199  12.304  0.2467 -0.6992 -2.0335
  949MOL0     H30942   4.248   9.910  12.147 -0.0166 -0.9131 -2.2510
  949MOL0     H30943   4.358  10.069  12.007  0.2701 -0.8497  1.0708
  949MOL0     H30944   4.479  10.362  11.789  0.8512  2.0050  0.6994
  949MOL0     H30945   4.613  10.485  11.630  0.5489  0.2407 -0.8795
  949MOL0     H30946   5.769  10.897  10.528  1.7083  1.1084  0.7172
  949MOL0     H30947   5.932  10.938  10.369 -0.2864 -0.1987 -2.2610
  949MOL0     H30948   6.161  10.880  10.039 -0.5495 -1.4644 -0.2914
  949MOL0     H30949   6.297  10.880   9.837 -0.8296  0.8780  0.9529
  949MOL0     H30950   6.718  10.797   9.896 -2.4965  0.7081  2.3757
  949MOL0     H30951   6.685  10.635   9.852 -1.0661 -0.5219 -1.6283
  949MOL0     H30952   6.861  10.788   9.693 -0.3762  3.5579  2.6403
  949MOL0     H30953   6.707  10.828   9.621 -1.0097 -2.3449 -1.3012
  949MOL0     H30954   6.797  10.534   9.651 -2.0723 -2.8680 -3.4601
  949MOL0     H30955   6.657  10.593   9.578  0.1346 -2.0414  0.8193
  949MOL0     H30956   6.940  10.659   9.471 -0.0370  0.6954 -0.0799
  949MOL0     H30957   6.793  10.720   9.402  0.3019 -2.3907 -1.8217
  949MOL0     H30958   6.836  10.365   9.200 -2.6423  2.4314 -1.1007
  949MOL0     H30959   6.611  10.690  10.035  0.1784 -0.7444  0.3746
  949MOL0     H30960   6.549  10.704  10.329 -4.7553  3.6856 -0.8556
  949MOL0     H30961   6.444  10.561  10.330 -2.9291  1.1237 -1.3783
  949MOL0     H30962   6.574  10.557  10.221 -2.6275  0.1301 -2.6954
  950MOL0     O30963   2.823   7.917   6.237 -0.7845 -0.4350 -0.6197
  950MOL0     C30964   2.907   7.910   6.325  0.7393  0.4118  0.2332
  950MOL0     O30965   2.883   7.860   6.458  0.0022 -0.6130  0.9215
  950MOL0     C30966   2.783   7.768   6.467  0.3593  0.7659  0.1140
  950MOL0     C30967   2.772   7.651   6.386 -0.0628 -0.3995 -0.0204
  950MOL0     C30968   2.681   7.560   6.418  0.7651  0.0361  0.5336
  950MOL0     C30969   2.584   7.580   6.526 -1.2654  0.4716 -0.5206
  950MOL0     O30970   2.493   7.483   6.542  0.0521  0.2962 -0.7954
  950MOL0     C30971   2.353   7.520   6.523 -0.1539  0.8836 -0.4499
  950MOL0     C30972   2.243   7.428   6.587 -0.3978  0.1386  0.1243
  950MOL0     C30973   2.289   7.413   6.727 -1.1861  0.9702  0.8949
  950MOL0     C30974   2.268   7.529   6.828 -0.4551 -0.1957  0.0798
  950MOL0     C30975   2.323   7.490   6.961  0.1819 -0.3349  0.3218
  950MOL0     C30976   2.330   7.616   7.059  0.4555 -0.2814  1.3539
  950MOL0     C30977   2.408   7.578   7.183 -0.9186 -0.2103 -1.0005
  950MOL0     C30978   2.414   7.694   7.277  0.1155  0.1072  0.4917
  950MOL0     N30979   2.279   7.736   7.319  0.6776  0.2045 -0.1398
  950MOL0     C30980   2.238   7.864   7.307  0.0646 -0.2949  0.4244
  950MOL0     C30981   2.112   7.862   7.368 -0.6055  0.4473 -0.4470
  950MOL0     C30982   2.015   7.973   7.380  0.2913 -1.0337  0.0427
  950MOL0     C30983   2.060   8.080   7.477 -0.7071  0.0240 -0.1197
  950MOL0     C30984   2.036   8.032   7.615  0.8865  0.3918 -0.2111
  950MOL0     C30985   1.889   8.053   7.683 -0.1875  0.2879  0.3296
  950MOL0     O30986   1.906   8.053   7.827  0.2970  0.2700  0.2710
  950MOL0     C30987   1.957   8.169   7.880  0.9161  0.0547 -0.3419
  950MOL0     C30988   1.938   8.300   7.833  0.1271  0.1413 -0.4152
  950MOL0     C30989   1.997   8.417   7.886  0.8156 -0.0393 -1.4112
  950MOL0     C30990   1.953   8.554   7.819 -0.5505  0.8162 -0.5754
  950MOL0     C30991   2.087   8.402   7.994 -0.3314 -0.3938  1.1933
  950MOL0     C30992   2.177   8.515   8.035  0.2381  0.0116  0.5955
  950MOL0     O30993   2.231   8.503   8.153  0.5362 -0.7865  0.7397
  950MOL0     C30994   2.324   8.596   8.205 -0.1767  0.5766 -0.3204
  950MOL0     C30995   2.323   8.741   8.183 -0.0209  0.3305  0.2475
  950MOL0     C30996   2.421   8.819   8.242  0.0369 -0.7617  0.9459
  950MOL0     C30997   2.518   8.758   8.321 -0.5368 -0.5738 -0.3295
  950MOL0     O30998   2.622   8.839   8.368 -0.0137  0.6148 -0.2832
  950MOL0     C30999   2.688   8.906   8.261 -0.5132 -0.5612  0.0668
  950MOL0     C31000   2.750   9.044   8.296  1.7929  0.4735  0.2289
  950MOL0     C31001   2.632   9.142   8.325 -0.2233 -0.2695  0.5472
  950MOL0     C31002   2.680   9.288   8.352  0.9802  0.3114 -0.1183
  950MOL0     C31003   2.572   9.377   8.409  0.2874  1.2639  0.1324
  950MOL0     C31004   2.598   9.519   8.378  0.2966 -0.4609 -0.7828
  950MOL0     C31005   2.585   9.576   8.232 -0.8219 -0.8081  0.0444
  950MOL0     C31006   2.463   9.516   8.152  0.0749  0.4503 -0.6406
  950MOL0    Cl31007   2.329   9.584   8.234 -0.5016  0.5759  0.1124
  950MOL0     C31008   2.518   8.620   8.352  1.0696 -0.4674 -0.1870
  950MOL0     C31009   2.421   8.544   8.293  0.1313 -0.2987 -0.5259
  950MOL0     O31010   2.189   8.620   7.964  0.5563  0.0983 -0.5065
  950MOL0     C31011   2.100   8.273   8.057 -0.9150  0.0377 -0.7907
  950MOL0     C31012   2.037   8.159   7.994 -1.2232 -0.3987 -0.4365
  950MOL0     N31013   2.093   7.742   7.423  0.6881  0.7034 -1.2379
  950MOL0     N31014   2.192   7.669   7.399  0.0864  0.9831 -0.1483
  950MOL0     C31015   2.587   7.699   6.600  0.0947  0.0216  0.2576
  950MOL0     C31016   2.696   7.782   6.575 -0.3235  0.4742 -0.5920
  950MOL0     C31017   3.054   7.949   6.293  0.4690 -0.6338  0.2536
  950MOL0     C31018   3.148   7.912   6.378 -0.6065  0.3389 -0.0018
  950MOL0     C31019   3.285   7.929   6.362 -0.5183  0.2042  0.5441
  950MOL0     C31020   3.327   7.994   6.254 -0.6814  0.0164 -0.4637
  950MOL0     O31021   3.467   8.012   6.247  0.0990 -0.4544 -0.0963
  950MOL0     C31022   3.541   7.963   6.139 -0.1022 -0.1014  0.9649
  950MOL0     C31023   3.698   7.969   6.159  1.4975 -0.0518 -0.4259
  950MOL0     C31024   3.759   7.836   6.214  0.5942 -0.8118  0.6621
  950MOL0     C31025   3.855   7.858   6.324  0.2749 -0.1688  0.5286
  950MOL0     C31026   3.968   7.768   6.325 -0.6410 -1.6716 -0.8719
  950MOL0     C31027   4.070   7.710   6.328 -0.3936  1.0280 -0.5141
  950MOL0     C31028   3.237   8.022   6.151  0.0179 -0.1516 -0.0183
  950MOL0     C31029   3.099   7.992   6.168  0.4593 -0.5153 -1.1021
  950MOL0     C31030   3.013   7.998   6.039  0.5397 -0.3579 -0.1017
  950MOL0     H31031   2.838   7.639   6.301 -0.9677  1.8663 -1.0948
  950MOL0     H31032   2.676   7.468   6.359  1.4179 -0.5784  1.4027
  950MOL0     H31033   2.342   7.529   6.415 -1.9802  0.2272 -0.3519
  950MOL0     H31034   2.335   7.623   6.556  0.0406  1.6115 -2.5045
  950MOL0     H31035   2.143   7.469   6.570 -1.4269 -2.9397 -2.0845
  950MOL0     H31036   2.251   7.327   6.547  1.1957  0.9542 -1.7674
  950MOL0     H31037   2.226   7.332   6.765  1.7638 -0.3347  3.4814
  950MOL0     H31038   2.390   7.372   6.724 -1.5255  0.1354 -1.4010
  950MOL0     H31039   2.324   7.618   6.798 -1.8506  1.0047  0.8879
  950MOL0     H31040   2.164   7.561   6.837 -1.0589 -2.2730  1.2411
  950MOL0     H31041   2.422   7.447   6.945  0.8046 -0.3684  3.6679
  950MOL0     H31042   2.262   7.412   7.007 -0.2676  0.6584  1.4454
  950MOL0     H31043   2.372   7.708   7.017  0.2041 -1.2686 -1.2445
  950MOL0     H31044   2.225   7.642   7.075  0.6207 -0.0225  2.0330
  950MOL0     H31045   2.514   7.567   7.155 -1.1825 -0.2084 -2.0736
  950MOL0     H31046   2.371   7.489   7.234 -0.5530  0.8247  1.1611
  950MOL0     H31047   2.467   7.665   7.368  0.2473  2.4591  1.2334
  950MOL0     H31048   2.463   7.778   7.227  2.8843 -1.0474  1.0517
  950MOL0     H31049   2.285   7.948   7.258  3.4664 -2.4963 -0.4408
  950MOL0     H31050   1.920   7.931   7.414  0.6307 -1.7273  0.1482
  950MOL0     H31051   1.994   8.016   7.281 -0.7582 -0.2511  0.5942
  950MOL0     H31052   2.165   8.107   7.461 -1.0509  1.2690 -0.3665
  950MOL0     H31053   1.998   8.169   7.468 -0.3918  0.3631  0.9073
  950MOL0     H31054   2.068   7.927   7.620 -1.4957 -0.4765 -1.5145
  950MOL0     H31055   2.110   8.089   7.672  3.4012 -1.7889 -1.0850
  950MOL0     H31056   1.833   8.140   7.646 -1.9346 -1.6001 -1.8205
  950MOL0     H31057   1.831   7.965   7.652  1.4409  0.0621 -2.4363
  950MOL0     H31058   1.865   8.312   7.753  0.3015 -2.2890 -1.0212
  950MOL0     H31059   2.014   8.558   7.728 -0.2339 -0.8984 -0.4750
  950MOL0     H31060   1.965   8.643   7.880  0.3030 -1.0288  2.1274
  950MOL0     H31061   1.846   8.548   7.794 -0.6930  0.7581  0.0349
  950MOL0     H31062   2.236   8.775   8.128 -3.5600 -7.0843  0.0904
  950MOL0     H31063   2.429   8.926   8.221  0.6831 -0.8140  0.8839
  950MOL0     H31064   2.773   8.844   8.229  0.0911  0.6058 -0.6378
  950MOL0     H31065   2.619   8.929   8.180 -0.1882 -2.8849 -0.9472
  950MOL0     H31066   2.796   9.033   8.395  0.1534  0.8098  1.0516
  950MOL0     H31067   2.811   9.093   8.220 -0.0421  1.8564 -0.3983
  950MOL0     H31068   2.581   9.106   8.416 -1.1151  0.9164  0.5430
  950MOL0     H31069   2.548   9.139   8.255 -1.1231  0.0211  1.5783
  950MOL0     H31070   2.699   9.324   8.250 -0.6072  0.3964 -0.4126
  950MOL0     H31071   2.766   9.301   8.418  1.6086  3.0777 -1.3262
  950MOL0     H31072   2.469   9.350   8.384 -0.6568  2.2117  2.7180
  950MOL0     H31073   2.581   9.361   8.517  1.3914 -0.5638 -0.1952
  950MOL0     H31074   2.692   9.543   8.428 -1.8054  0.8471  2.9347
  950MOL0     H31075   2.523   9.576   8.434  1.7891 -0.4900  1.3592
  950MOL0     H31076   2.674   9.549   8.175  0.1134  0.0639  1.0442
  950MOL0     H31077   2.586   9.685   8.238  0.5677 -0.8286  0.4337
  950MOL0     H31078   2.461   9.407   8.156 -1.4090  0.4917  0.1379
  950MOL0     H31079   2.472   9.532   8.044 -2.2385  1.8039 -0.7030
  950MOL0     H31080   2.587   8.558   8.409  2.7120  2.2774  1.0265
  950MOL0     H31081   2.417   8.438   8.315 -0.2077 -1.5695 -5.5453
  950MOL0     H31082   2.170   8.249   8.137 -2.6531 -5.6778 -0.5473
  950MOL0     H31083   2.059   8.060   8.031  0.5833  0.4051  0.7927
  950MOL0     H31084   2.514   7.707   6.681  1.2302  1.1300  1.2033
  950MOL0     H31085   2.724   7.865   6.639  0.7666  0.9216 -1.6240
  950MOL0     H31086   3.120   7.867   6.473  2.4027  1.1837  1.4155
  950MOL0     H31087   3.350   7.895   6.443  0.2679 -0.0776 -0.1847
  950MOL0     H31088   3.518   7.860   6.110  0.0728 -0.3578  1.7216
  950MOL0     H31089   3.514   8.018   6.048 -2.1592 -1.3839  0.7339
  950MOL0     H31090   3.712   8.049   6.232 -2.2830 -0.7280  1.2389
  950MOL0     H31091   3.751   7.997   6.067  1.1858  2.4067  0.0756
  950MOL0     H31092   3.682   7.766   6.248  0.4549 -0.3797  1.2357
  950MOL0     H31093   3.812   7.788   6.130 -1.7537  1.4629 -2.3361
  950MOL0     H31094   3.794   7.857   6.414 -1.4462  0.4239 -0.5894
  950MOL0     H31095   3.895   7.960   6.320 -0.7972  0.2174 -2.6385
  950MOL0     H31096   4.160   7.653   6.337 -2.4036 -2.2440  0.2813
  950MOL0     H31097   3.274   8.045   6.052 -0.2301 -1.4083 -0.4205
  950MOL0     H31098   2.972   7.905   5.998 -0.8637  0.7899 -1.4275
  950MOL0     H31099   2.929   8.063   6.065  0.6461 -0.1832 -0.2016
  950MOL0     H31100   3.056   8.030   5.944 -2.8736  0.1356 -1.6133
  951MOL0     O31101  11.502   2.109   9.714 -0.7697 -0.3183  0.3656
  951MOL0     C31102  11.543   2.111   9.831  0.0376 -0.5541 -0.7762
  951MOL0     O31103  11.675   2.126   9.871  0.6034 -0.5499 -0.2563
  951MOL0     C31104  11.772   2.168   9.784  0.3780 -0.2400  0.8622
  951MOL0     C31105  11.798   2.140   9.644 -0.3004  0.1966 -0.7194
  951MOL0     C31106  11.895   2.196   9.575  0.0513 -0.4320  1.5230
  951MOL0     C31107  11.998   2.263   9.635  0.1563  1.4845 -0.8766
  951MOL0     O31108  12.099   2.297   9.562 -0.6912  0.4422  0.2345
  951MOL0     C31109  12.228   2.239   9.603 -0.5186  0.1188  0.4532
  951MOL0     C31110  12.348   2.307   9.551 -0.6281  0.5099  0.4517
  951MOL0     C31111  12.351   2.344   9.402 -0.3969 -0.2166 -0.3859
  951MOL0     C31112  12.360   2.212   9.317  0.2786  0.1715  0.1500
  951MOL0     C31113  12.352   2.240   9.166 -0.1831  0.5049 -0.5917
  951MOL0     C31114  12.214   2.299   9.128 -1.3515  0.0952  0.8801
  951MOL0     C31115  12.214   2.446   9.097  0.5230  1.3205 -0.9454
  951MOL0     C31116  12.072   2.487   9.086  0.0442  0.1905  0.2583
  951MOL0     N31117  12.012   2.515   9.216  0.1029  0.2646  0.4276
  951MOL0     C31118  12.051   2.618   9.294 -0.4647  0.6958  0.1315
  951MOL0     C31119  11.977   2.603   9.411  0.1596  1.0488  0.1598
  951MOL0     C31120  11.983   2.686   9.536 -0.0239 -0.6532  0.4027
  951MOL0     C31121  12.118   2.652   9.611 -0.2850 -0.7851  0.1733
  951MOL0     C31122  12.178   2.754   9.697 -0.4084  0.4097 -0.5938
  951MOL0     C31123  12.083   2.797   9.821  0.5460  0.5774  0.1805
  951MOL0     O31124  12.162   2.879   9.915 -0.2095  0.3000 -0.4371
  951MOL0     C31125  12.105   2.898  10.040  0.9528  0.2460 -0.0777
  951MOL0     C31126  11.974   2.861  10.084 -0.3368 -0.1125 -1.0681
  951MOL0     C31127  11.939   2.876  10.217  0.6574 -0.8534 -0.1300
  951MOL0     C31128  11.803   2.834  10.265 -0.1265  0.3546 -0.2997
  951MOL0     C31129  12.022   2.954  10.302 -0.2170  0.7443 -1.0253
  951MOL0     C31130  11.992   2.987  10.451 -0.2754  0.9510  0.2461
  951MOL0     O31131  12.058   3.092  10.519 -0.0554  0.5876  0.0696
  951MOL0     C31132  12.038   3.123  10.648 -0.2341 -0.2542  0.3059
  951MOL0     C31133  12.149   3.184  10.721  0.1437 -1.7758  0.0257
  951MOL0     C31134  12.127   3.230  10.847  0.1190  0.2831  0.0325
  951MOL0     C31135  12.005   3.231  10.907 -0.3812 -0.3631  0.4180
  951MOL0     O31136  11.974   3.294  11.020 -0.8081 -0.0945 -0.0324
  951MOL0     C31137  12.087   3.360  11.088 -0.4985  0.5771  1.7143
  951MOL0     C31138  12.030   3.426  11.211  0.3791 -0.0853  0.7011
  951MOL0     C31139  11.944   3.554  11.170 -1.1506 -0.0861 -0.2877
  951MOL0     C31140  11.904   3.647  11.288  0.2548 -0.7465 -0.0220
  951MOL0     C31141  11.786   3.750  11.254 -0.1309  0.1904 -0.6518
  951MOL0     C31142  11.812   3.843  11.141 -0.4555 -0.8024  1.2027
  951MOL0     C31143  11.696   3.936  11.108 -1.7563  0.2704  0.1257
  951MOL0     C31144  11.689   4.066  11.194 -0.0194  0.0367  0.2636
  951MOL0    Cl31145  11.598   4.199  11.117 -0.3237 -0.1195 -0.2483
  951MOL0     C31146  11.898   3.188  10.840  0.3666 -0.8860 -0.2873
  951MOL0     C31147  11.915   3.122  10.715  0.8591  0.8915 -0.1187
  951MOL0     O31148  11.920   2.902  10.506 -0.3934 -0.1680  0.1385
  951MOL0     C31149  12.151   3.000  10.256 -0.7291 -0.7251 -0.3209
  951MOL0     C31150  12.185   2.980  10.126 -0.4676 -0.0633 -0.3256
  951MOL0     N31151  11.891   2.490   9.393 -0.1424  0.4961 -0.3088
  951MOL0     N31152  11.909   2.448   9.274 -0.5295 -0.1201  0.0555
  951MOL0     C31153  11.989   2.286   9.770  0.5776  0.0057 -0.1706
  951MOL0     C31154  11.875   2.248   9.845 -0.8695 -0.0264 -0.0428
  951MOL0     C31155  11.440   2.093   9.935 -1.5193 -0.8193 -0.4884
  951MOL0     C31156  11.309   2.073   9.911  0.2462 -0.9940  0.3361
  951MOL0     C31157  11.204   2.081   9.996  0.1739  0.1885  0.0729
  951MOL0     C31158  11.242   2.100  10.132 -0.8541  1.4563 -0.2263
  951MOL0     O31159  11.145   2.098  10.221  0.1923 -0.4608  0.0610
  951MOL0     C31160  11.119   2.231  10.253  0.8882 -0.2817 -1.8134
  951MOL0     C31161  11.048   2.229  10.399 -1.2309  0.7036 -0.3187
  951MOL0     C31162  10.997   2.374  10.416  0.8665  0.3414 -1.0497
  951MOL0     C31163  10.928   2.390  10.559  0.8634  0.3254  0.2882
  951MOL0     C31164  11.028   2.385  10.665  0.2265 -1.0918 -0.3229
  951MOL0     C31165  11.106   2.373  10.760 -0.0186  0.1578  0.4630
  951MOL0     C31166  11.375   2.113  10.176 -0.1543  0.0577  1.0128
  951MOL0     C31167  11.472   2.107  10.077  0.5764  1.0599  0.6316
  951MOL0     C31168  11.611   2.112  10.137 -0.7145  0.8917  0.4119
  951MOL0     H31169  11.730   2.076   9.589  1.3346 -2.4228  0.1427
  951MOL0     H31170  11.906   2.164   9.472  1.2652 -0.6791  1.7137
  951MOL0     H31171  12.216   2.131   9.585 -2.3117  0.4257 -0.4475
  951MOL0     H31172  12.223   2.253   9.711 -3.8707  1.4691  0.2335
  951MOL0     H31173  12.380   2.385   9.620 -3.9224 -0.0225  2.8440
  951MOL0     H31174  12.436   2.243   9.565  2.2253  4.5457  3.6844
  951MOL0     H31175  12.258   2.396   9.377 -0.6339 -1.2168 -1.6201
  951MOL0     H31176  12.436   2.412   9.387 -0.6322 -0.1196 -1.3474
  951MOL0     H31177  12.451   2.157   9.342  0.0416 -0.5715 -0.5697
  951MOL0     H31178  12.279   2.148   9.354 -0.3015  1.2455  0.7898
  951MOL0     H31179  12.357   2.143   9.116 -0.7319 -0.0693  0.4317
  951MOL0     H31180  12.437   2.301   9.135  1.0933 -0.3711  1.0361
  951MOL0     H31181  12.175   2.243   9.043  0.0655 -1.7216  1.3796
  951MOL0     H31182  12.147   2.286   9.213 -1.1263  0.2935  1.0911
  951MOL0     H31183  12.251   2.471   8.997  2.0421 -1.0787 -1.0643
  951MOL0     H31184  12.273   2.507   9.167  1.4583  1.2925 -1.6787
  951MOL0     H31185  12.057   2.575   9.023 -1.6819 -0.2051  0.0814
  951MOL0     H31186  12.014   2.403   9.047  1.7053 -0.9282  0.0737
  951MOL0     H31187  12.127   2.695   9.285  2.4292 -1.6691  2.1313
  951MOL0     H31188  11.901   2.672   9.607 -0.2819  1.2489  0.5359
  951MOL0     H31189  11.993   2.788   9.498 -2.9036 -0.2761  0.4375
  951MOL0     H31190  12.109   2.555   9.660 -2.4413 -0.2853  0.9094
  951MOL0     H31191  12.192   2.620   9.537  0.3773  0.9878  0.0258
  951MOL0     H31192  12.275   2.713   9.724  0.1081  1.1102 -1.3479
  951MOL0     H31193  12.203   2.841   9.636 -0.8463  0.4862 -0.6663
  951MOL0     H31194  11.992   2.852   9.793  0.1468 -0.4146 -0.5648
  951MOL0     H31195  12.035   2.709   9.865 -4.6913  1.8168 -2.2493
  951MOL0     H31196  11.918   2.795  10.018 -0.3574 -1.9469  0.6949
  951MOL0     H31197  11.736   2.803  10.183  0.6662  0.8562 -1.1550
  951MOL0     H31198  11.766   2.914  10.330  1.5241 -0.5047  1.7856
  951MOL0     H31199  11.814   2.746  10.329  0.2707  0.8196  0.2659
  951MOL0     H31200  12.235   3.217  10.664 -0.8366 -1.1630 -1.1388
  951MOL0     H31201  12.218   3.272  10.889 -1.7898  0.6658  4.3248
  951MOL0     H31202  12.155   3.275  11.105 -0.6815  0.0424 -0.0046
  951MOL0     H31203  12.124   3.436  11.019 -0.5705 -1.7757 -1.0990
  951MOL0     H31204  11.964   3.354  11.261  0.7308 -0.1587  1.0689
  951MOL0     H31205  12.110   3.448  11.283 -0.9675  0.1772  2.1823
  951MOL0     H31206  11.852   3.526  11.117 -0.0729  3.2192 -4.4319
  951MOL0     H31207  12.005   3.615  11.103 -2.9421 -0.4176 -2.3628
  951MOL0     H31208  11.989   3.702  11.331 -0.8930  0.7154  0.4597
  951MOL0     H31209  11.869   3.590  11.374  1.0299 -1.0395  0.1117
  951MOL0     H31210  11.695   3.694  11.233 -1.0067  1.8811 -1.5524
  951MOL0     H31211  11.756   3.811  11.339 -2.3646 -0.2960 -1.0219
  951MOL0     H31212  11.821   3.788  11.047  0.9741  0.3372  0.6382
  951MOL0     H31213  11.908   3.896  11.152 -1.1658  1.4445 -1.8986
  951MOL0     H31214  11.598   3.888  11.114 -1.6803  0.0409 -0.3770
  951MOL0     H31215  11.698   3.975  11.006  2.0838  3.2294  1.0818
  951MOL0     H31216  11.790   4.102  11.216 -0.0700 -0.7837  1.9639
  951MOL0     H31217  11.654   4.043  11.295 -1.2608 -0.3903 -0.2414
  951MOL0     H31218  11.804   3.189  10.895  0.8587 -1.3819  0.5863
  951MOL0     H31219  11.830   3.079  10.663 -2.9446  2.3178  4.2571
  951MOL0     H31220  12.216   3.055  10.323  0.3588 -0.7299 -1.3486
  951MOL0     H31221  12.273   3.026  10.081 -0.8377 -0.8300 -1.8876
  951MOL0     H31222  12.071   2.327   9.829  0.1632 -4.8699  4.6102
  951MOL0     H31223  11.883   2.272   9.950 -6.2378 -2.7872  1.3484
  951MOL0     H31224  11.272   2.062   9.809  1.0628  2.8506 -0.5394
  951MOL0     H31225  11.104   2.070   9.958 -0.7586 -2.2876  2.8314
  951MOL0     H31226  11.204   2.299  10.260  0.9109 -0.2781  5.7163
  951MOL0     H31227  11.040   2.284  10.198 -0.8147  2.4837  2.6781
  951MOL0     H31228  11.121   2.206  10.477 -4.2409 -0.5896  2.4029
  951MOL0     H31229  10.970   2.153  10.412  0.3031 -0.6545  1.4604
  951MOL0     H31230  11.081   2.444  10.417 -1.0070  2.7489  0.1865
  951MOL0     H31231  10.927   2.395  10.335 -1.6165 -1.6990  0.4153
  951MOL0     H31232  10.860   2.305  10.568  1.0099  0.3196  1.4982
  951MOL0     H31233  10.871   2.483  10.569  1.5153  0.9911 -1.6982
  951MOL0     H31234  11.181   2.368  10.836 -0.2756  2.4549  0.9285
  951MOL0     H31235  11.402   2.118  10.281  0.3153 -1.3108  0.9720
  951MOL0     H31236  11.663   2.208  10.125 -1.1015  1.0331 -0.2146
  951MOL0     H31237  11.621   2.090  10.244 -0.4491 -2.5278 -0.1902
  951MOL0     H31238  11.651   2.028  10.079 -1.1228 -1.4643  3.3397
  952MOL0     O31239   0.065   8.005  10.389 -0.7921  0.0143 -0.3373
  952MOL0     C31240   0.125   8.112  10.368 -0.5024 -0.3092  0.7045
  952MOL0     O31241   0.068   8.218  10.306  0.0634 -0.1237 -0.9917
  952MOL0     C31242  -0.059   8.205  10.252 -1.2454 -0.4499 -0.0029
  952MOL0     C31243  -0.074   8.286  10.139 -0.5137 -0.2918  0.6393
  952MOL0     C31244  -0.206   8.291  10.082  1.3198 -0.5928 -0.2638
  952MOL0     C31245  -0.318   8.226  10.138  0.3744 -0.8930  0.4800
  952MOL0     O31246  -0.447   8.245  10.091 -0.5327 -0.4876 -0.8629
  952MOL0     C31247  -0.479   8.370  10.016 -0.0338  0.0318 -1.1099
  952MOL0     C31248  -0.623   8.364   9.952 -0.0692 -0.2676 -0.2158
  952MOL0     C31249  -0.676   8.490   9.884  0.0187  0.8849  0.1116
  952MOL0     C31250  -0.831   8.490   9.852 -0.2740  0.2109 -1.2021
  952MOL0     C31251  -0.882   8.638   9.855  0.0129 -1.3576  0.0861
  952MOL0     C31252  -1.035   8.648   9.864  0.2964  0.1268 -0.3565
  952MOL0     C31253  -1.110   8.624   9.732 -0.6010  0.1951 -0.5635
  952MOL0     C31254  -1.251   8.704   9.731  0.5030 -0.8816  0.0700
  952MOL0     N31255  -1.302   8.728   9.595 -0.2729  0.0521  0.2337
  952MOL0     C31256  -1.263   8.832   9.514  0.7228  0.5290  0.6629
  952MOL0     C31257  -1.328   8.822   9.393 -0.1598  0.3394 -0.6820
  952MOL0     C31258  -1.323   8.905   9.266  0.1174 -0.3830  0.5903
  952MOL0     C31259  -1.341   9.053   9.303 -0.4339 -0.2270 -0.0954
  952MOL0     C31260  -1.476   9.105   9.323 -0.3374 -0.5099  0.2309
  952MOL0     C31261  -1.536   9.071   9.460  0.2856  0.1667  0.7313
  952MOL0     O31262  -1.451   9.104   9.570 -0.2653  0.4640 -0.0614
  952MOL0     C31263  -1.493   9.041   9.682  0.8300  0.7294 -0.6639
  952MOL0     C31264  -1.629   9.001   9.721  0.3779 -0.4024 -0.2693
  952MOL0     C31265  -1.660   8.951   9.851 -0.0867 -0.2189  0.6004
  952MOL0     C31266  -1.811   8.925   9.884  0.9548  0.4707  0.8104
  952MOL0     C31267  -1.558   8.935   9.951 -0.4782 -0.5900  0.7972
  952MOL0     C31268  -1.570   8.879  10.087  0.3974 -0.1475 -0.1088
  952MOL0     O31269  -1.479   8.907  10.185 -0.3944  0.0446  0.5706
  952MOL0     C31270  -1.458   8.813  10.294  0.2256 -0.6411 -0.0182
  952MOL0     C31271  -1.425   8.682  10.266  0.6763 -0.3561  0.4360
  952MOL0     C31272  -1.403   8.595  10.370 -1.2852  0.4766  0.0048
  952MOL0     C31273  -1.393   8.646  10.513  0.2604 -0.7078  0.1417
  952MOL0     O31274  -1.374   8.563  10.621 -0.5992 -0.4091  0.5074
  952MOL0     C31275  -1.263   8.484  10.603  0.0950  0.1151 -0.2204
  952MOL0     C31276  -1.253   8.390  10.726  0.5077 -0.3781 -1.1721
  952MOL0     C31277  -1.145   8.286  10.704 -0.6512  0.3020  0.7491
  952MOL0     C31278  -1.099   8.214  10.834 -0.0183  0.5427  0.3459
  952MOL0     C31279  -0.989   8.108  10.828 -0.6237  0.4140 -0.9831
  952MOL0     C31280  -0.957   8.055  10.967 -0.1178  0.2087  0.0512
  952MOL0     C31281  -1.073   7.995  11.046 -0.4826 -0.2875  0.4037
  952MOL0     C31282  -1.020   7.925  11.172  0.1999  0.7431  0.6861
  952MOL0    Cl31283  -1.016   8.062  11.286 -0.0384  0.4316  0.4462
  952MOL0     C31284  -1.425   8.781  10.538 -1.0460 -0.5158 -0.1815
  952MOL0     C31285  -1.444   8.868  10.424  0.9750  0.2738  0.0247
  952MOL0     O31286  -1.642   8.784  10.085 -0.3451 -0.1873 -0.7939
  952MOL0     C31287  -1.431   8.969   9.912 -0.2741  0.5857  1.2749
  952MOL0     C31288  -1.404   9.020   9.781 -0.3014  0.2177  0.0903
  952MOL0     N31289  -1.415   8.711   9.420 -0.1428  0.0832  0.5176
  952MOL0     N31290  -1.393   8.656   9.530  0.0247  0.1110  0.7461
  952MOL0     C31291  -0.290   8.131  10.236  0.0570  0.1852 -0.9625
  952MOL0     C31292  -0.166   8.131  10.299  0.1142 -0.2972  0.0248
  952MOL0     C31293   0.268   8.111  10.385 -0.8834 -0.3649 -0.1831
  952MOL0     C31294   0.349   8.215  10.329 -0.3863 -0.2961  0.3619
  952MOL0     C31295   0.484   8.225  10.322 -0.4290 -0.1892  0.0052
  952MOL0     C31296   0.565   8.128  10.383  0.2637  0.0704 -0.3492
  952MOL0     O31297   0.699   8.144  10.389 -0.2182 -0.1334 -0.1642
  952MOL0     C31298   0.772   8.070  10.492  0.3728  0.2377 -0.0517
  952MOL0     C31299   0.903   8.149  10.524 -0.2398  0.1096 -0.5114
  952MOL0     C31300   0.970   8.093  10.654 -0.3020 -0.3500 -0.2697
  952MOL0     C31301   0.916   8.153  10.786  0.1743 -0.8514  0.9426
  952MOL0     C31302   0.990   8.109  10.897  0.3244  2.1207 -0.6469
  952MOL0     C31303   1.062   8.064  10.977  0.7156  0.3306 -0.5642
  952MOL0     C31304   0.492   8.023  10.455  0.1674  0.0294 -0.2506
  952MOL0     C31305   0.352   8.014  10.442  0.2523 -0.3967  0.4581
  952MOL0     C31306   0.285   7.894  10.511  0.8985 -0.6151  0.0566
  952MOL0     H31307   0.006   8.352  10.107 -0.7697 -0.9636 -1.5617
  952MOL0     H31308  -0.223   8.361  10.000  0.0792  0.9619  1.2680
  952MOL0     H31309  -0.409   8.384   9.933  1.2664  0.2463 -0.0248
  952MOL0     H31310  -0.479   8.445  10.096 -1.7236 -0.8548 -0.2197
  952MOL0     H31311  -0.640   8.281   9.882  0.7620 -0.5554 -0.0868
  952MOL0     H31312  -0.689   8.349  10.038 -1.3427  0.7443 -0.9715
  952MOL0     H31313  -0.655   8.571   9.954 -0.6011  2.2225 -1.2100
  952MOL0     H31314  -0.624   8.503   9.789 -2.2158 -2.9598 -1.8695
  952MOL0     H31315  -0.861   8.439   9.760 -2.7446  0.0781 -0.4015
  952MOL0     H31316  -0.873   8.432   9.934  1.3389  0.3432 -0.2625
  952MOL0     H31317  -0.851   8.703   9.772  4.2866 -2.7872  0.3069
  952MOL0     H31318  -0.848   8.680   9.950  1.1962 -0.2141 -0.8012
  952MOL0     H31319  -1.077   8.590   9.946  1.1806  1.5089  1.1401
  952MOL0     H31320  -1.052   8.753   9.892  1.3566 -0.0360  1.0400
  952MOL0     H31321  -1.142   8.520   9.715 -1.7813  0.6165 -0.9798
  952MOL0     H31322  -1.048   8.658   9.648 -2.8631  0.2300 -2.3130
  952MOL0     H31323  -1.325   8.644   9.785  0.8781 -0.5432  0.9789
  952MOL0     H31324  -1.240   8.802   9.778 -0.2358  0.0044 -1.5209
  952MOL0     H31325  -1.181   8.898   9.540  0.9142  1.0554 -1.1409
  952MOL0     H31326  -1.398   8.874   9.193  0.5382  2.1565 -1.0620
  952MOL0     H31327  -1.224   8.891   9.221 -0.4173 -2.0223 -0.1067
  952MOL0     H31328  -1.280   9.089   9.386  0.5642 -0.5483 -0.6733
  952MOL0     H31329  -1.301   9.108   9.217 -2.0461  3.5826  1.3895
  952MOL0     H31330  -1.470   9.214   9.310  1.6327 -0.7749 -1.8212
  952MOL0     H31331  -1.543   9.062   9.248 -0.1760 -1.1751  0.4591
  952MOL0     H31332  -1.625   9.133   9.470 -0.3474 -0.6379  0.1914
  952MOL0     H31333  -1.559   8.964   9.472  1.3511  0.1262  3.0420
  952MOL0     H31334  -1.699   8.993   9.638  1.6378 -1.8061 -1.2649
  952MOL0     H31335  -1.843   8.822   9.901 -1.5201  0.1446 -4.0036
  952MOL0     H31336  -1.888   8.950   9.810 -0.1355 -1.6344  1.1650
  952MOL0     H31337  -1.843   8.989   9.966 -2.5904 -1.0381  0.7665
  952MOL0     H31338  -1.403   8.643  10.167  0.7976 -2.9014  1.3853
  952MOL0     H31339  -1.376   8.491  10.354 -2.6557 -0.2830  2.1547
  952MOL0     H31340  -1.276   8.420  10.516  1.2524 -0.7469  0.2207
  952MOL0     H31341  -1.170   8.539  10.588 -0.9108  1.5570 -1.4845
  952MOL0     H31342  -1.218   8.456  10.806  2.1390  0.5876 -2.6001
  952MOL0     H31343  -1.349   8.345  10.750  0.0360 -1.1635 -4.1193
  952MOL0     H31344  -1.052   8.311  10.653 -1.1285 -1.1169 -0.9381
  952MOL0     H31345  -1.193   8.210  10.640 -0.6355  0.4961  0.5060
  952MOL0     H31346  -1.186   8.153  10.862  0.2498 -0.2353 -0.5108
  952MOL0     H31347  -1.093   8.290  10.913 -0.8321  0.3943  0.5691
  952MOL0     H31348  -1.024   8.030  10.759 -0.9977 -0.2820 -0.0380
  952MOL0     H31349  -0.900   8.145  10.777  2.5676 -4.0769  0.6401
  952MOL0     H31350  -0.910   8.134  11.026  0.2965 -0.4502  0.6179
  952MOL0     H31351  -0.879   7.980  10.954  0.7162  1.1721 -0.7550
  952MOL0     H31352  -1.125   7.919  10.987 -2.7419  1.0932  0.4972
  952MOL0     H31353  -1.147   8.068  11.080  2.1306  1.0019  3.9576
  952MOL0     H31354  -0.914   7.901  11.164 -0.1994 -1.1189  0.3807
  952MOL0     H31355  -1.091   7.848  11.205 -1.7923  2.8462  1.5547
  952MOL0     H31356  -1.431   8.809  10.643  2.6258 -1.4536  0.4104
  952MOL0     H31357  -1.480   8.968  10.444  0.9344 -0.4060  4.2860
  952MOL0     H31358  -1.354   8.964   9.988  1.8791 -2.5235 -0.8298
  952MOL0     H31359  -1.304   9.052   9.754 -1.0179  2.0135 -0.6324
  952MOL0     H31360  -0.375   8.076  10.276  2.1906 -1.3628  1.8754
  952MOL0     H31361  -0.153   8.063  10.383 -1.9562 -0.1481  0.5157
  952MOL0     H31362   0.298   8.291  10.272 -3.2668 -1.1250  1.6640
  952MOL0     H31363   0.537   8.309  10.278  1.4582 -1.8922 -1.1661
  952MOL0     H31364   0.717   8.056  10.585  1.1082 -0.1700  0.3316
  952MOL0     H31365   0.810   7.972  10.462  3.0329  0.5124  1.9997
  952MOL0     H31366   0.880   8.255  10.538  0.3548  0.2089 -0.2845
  952MOL0     H31367   0.966   8.156  10.436 -0.4151  0.3720 -0.6187
  952MOL0     H31368   0.987   7.985  10.649  4.2168  0.1247  0.1913
  952MOL0     H31369   1.073   8.131  10.657 -0.0827 -0.9399  2.4085
  952MOL0     H31370   0.809   8.150  10.810  0.3111  1.0699  1.9788
  952MOL0     H31371   0.936   8.261  10.784 -2.4031 -0.2962  0.6127
  952MOL0     H31372   1.121   8.031  11.060 -0.8440  3.1594  1.8545
  952MOL0     H31373   0.548   7.947  10.508 -0.5829 -2.1855 -2.4432
  952MOL0     H31374   0.239   7.825  10.439  0.1099  1.6065 -1.7173
  952MOL0     H31375   0.353   7.832  10.570 -3.3172 -1.5107  4.6262
  952MOL0     H31376   0.224   7.934  10.592  1.6153 -0.8794  0.7337
  953MOL0     O31377   8.114   8.259   3.572  0.4872  0.1854  0.1944
  953MOL0     C31378   8.001   8.219   3.530  0.6627  0.1024 -0.9744
  953MOL0     O31379   7.879   8.290   3.534  0.3211  0.3074  0.4617
  953MOL0     C31380   7.876   8.411   3.594  0.0874  0.0364 -0.1545
  953MOL0     C31381   7.950   8.453   3.705  1.1471  0.3903  1.7246
  953MOL0     C31382   7.947   8.577   3.753 -1.0245 -0.3874  0.0502
  953MOL0     C31383   7.858   8.672   3.695  0.3660 -0.7363 -0.5633
  953MOL0     O31384   7.842   8.805   3.733 -0.1118 -0.6207  0.0167
  953MOL0     C31385   7.863   8.837   3.871  0.2941 -0.8517  0.8966
  953MOL0     C31386   7.793   8.972   3.897 -0.6441  0.2107  0.0440
  953MOL0     C31387   7.637   8.953   3.891  0.0486  0.0422  0.6541
  953MOL0     C31388   7.554   9.005   4.005 -0.3537  0.1074 -0.9802
  953MOL0     C31389   7.590   8.948   4.149 -0.1830 -0.1025  0.7270
  953MOL0     C31390   7.571   8.795   4.167 -0.2792 -0.2718  0.6764
  953MOL0     C31391   7.417   8.758   4.149 -0.8450  0.0021  0.2250
  953MOL0     C31392   7.384   8.629   4.223  0.3943 -0.2607 -0.0288
  953MOL0     N31393   7.239   8.604   4.202 -0.2988 -0.0241  0.5395
  953MOL0     C31394   7.164   8.651   4.091 -0.4104  0.3647 -0.5933
  953MOL0     C31395   7.037   8.636   4.128  1.2008  0.7659 -0.9088
  953MOL0     C31396   6.913   8.678   4.054  0.0039 -0.5583  0.0214
  953MOL0     C31397   6.784   8.619   4.114 -0.1035  1.4051  0.1567
  953MOL0     C31398   6.692   8.731   4.158  0.3541  0.8087  0.5152
  953MOL0     C31399   6.652   8.831   4.048  0.9220  0.3190  0.4427
  953MOL0     O31400   6.516   8.801   3.995  0.5700 -0.1849  0.9544
  953MOL0     C31401   6.457   8.900   3.919 -0.7816  0.9724 -0.1488
  953MOL0     C31402   6.337   8.863   3.853  0.2871 -0.9539 -0.7393
  953MOL0     C31403   6.277   8.948   3.758  0.8507 -0.2759 -0.9318
  953MOL0     C31404   6.157   8.894   3.695  0.1598  0.4666 -0.4963
  953MOL0     C31405   6.325   9.080   3.745 -0.6731  0.5582 -0.0656
  953MOL0     C31406   6.270   9.189   3.667  0.2301 -0.3039  0.3605
  953MOL0     O31407   6.282   9.312   3.720 -0.0060 -0.0187  0.9037
  953MOL0     C31408   6.208   9.416   3.661  0.1115  0.0293  0.6921
  953MOL0     C31409   6.143   9.503   3.740  0.6786 -0.7552  0.2675
  953MOL0     C31410   6.079   9.617   3.682 -0.2463  0.4099  0.2889
  953MOL0     C31411   6.092   9.648   3.550 -0.6906  0.0535  0.0538
  953MOL0     O31412   6.043   9.753   3.479  0.2409 -0.0061  0.0499
  953MOL0     C31413   6.010   9.871   3.542 -0.2898 -0.5023  0.5491
  953MOL0     C31414   6.004   9.983   3.438  0.0927  0.0105  0.1558
  953MOL0     C31415   5.946  10.118   3.504 -0.2617  0.6786 -0.4757
  953MOL0     C31416   5.936  10.224   3.403  1.4063 -0.6280 -0.1607
  953MOL0     C31417   5.888  10.351   3.470  0.0163  1.1332 -0.5727
  953MOL0     C31418   5.840  10.453   3.360  0.6949  0.2152  1.2462
  953MOL0     C31419   5.860  10.593   3.430 -0.4487  0.3011  0.3151
  953MOL0     C31420   5.775  10.702   3.370 -0.8333 -0.0581 -0.4046
  953MOL0    Cl31421   5.829  10.874   3.442  0.0874  0.0854  0.1877
  953MOL0     C31422   6.172   9.554   3.476 -0.0407 -0.0650  0.1806
  953MOL0     C31423   6.217   9.441   3.528 -0.6701  0.1712  0.0124
  953MOL0     O31424   6.202   9.154   3.568 -0.0212 -0.3354  0.2101
  953MOL0     C31425   6.434   9.114   3.825  0.2376 -0.5940  0.4193
  953MOL0     C31426   6.508   9.033   3.909  0.4941  0.5675 -0.7188
  953MOL0     N31427   7.041   8.607   4.269 -0.8543 -0.0265  0.0274
  953MOL0     N31428   7.157   8.581   4.304  0.2901  0.2614 -0.5106
  953MOL0     C31429   7.773   8.633   3.595  1.0365  0.2928 -0.6568
  953MOL0     C31430   7.781   8.502   3.545 -0.6553  0.3379  0.2315
  953MOL0     C31431   8.006   8.086   3.464 -0.9137  0.1180 -0.1351
  953MOL0     C31432   8.064   7.981   3.544  0.1813  0.2466 -0.3114
  953MOL0     C31433   8.042   7.846   3.492 -0.4914 -0.4606 -0.2109
  953MOL0     C31434   7.966   7.823   3.376  0.0649  0.5554  1.2598
  953MOL0     O31435   7.948   7.693   3.344  0.0786 -0.5979  0.7773
  953MOL0     C31436   7.937   7.667   3.202 -0.9582  0.1470  0.0392
  953MOL0     C31437   7.956   7.517   3.199 -0.8095 -0.1725 -0.0308
  953MOL0     C31438   7.868   7.425   3.282  0.1530  0.4123 -1.4171
  953MOL0     C31439   7.893   7.408   3.440  0.7128 -0.9709  0.5881
  953MOL0     C31440   8.004   7.318   3.454  0.4425  0.4928 -0.1927
  953MOL0     C31441   8.091   7.244   3.492 -0.2259  0.2122  0.0709
  953MOL0     C31442   7.913   7.932   3.299 -0.6769 -0.1902 -0.0056
  953MOL0     C31443   7.928   8.055   3.342 -0.2502  0.1485 -0.0079
  953MOL0     C31444   7.862   8.161   3.262 -0.0745 -0.7937  0.0633
  953MOL0     H31445   8.006   8.371   3.748 -0.5761 -2.4406 -0.9259
  953MOL0     H31446   8.012   8.609   3.834 -1.3732 -0.4246  0.3468
  953MOL0     H31447   7.969   8.832   3.895  0.4652 -0.7037  0.1938
  953MOL0     H31448   7.821   8.747   3.918  0.0498 -1.0874  0.2486
  953MOL0     H31449   7.834   9.001   3.994 -1.2407  0.2739  0.2801
  953MOL0     H31450   7.831   9.036   3.817 -1.0973 -2.2386 -2.2967
  953MOL0     H31451   7.606   9.011   3.804 -1.8389  3.4207  3.3044
  953MOL0     H31452   7.598   8.853   3.865 -1.0124  1.0675 -2.0566
  953MOL0     H31453   7.563   9.114   4.007  3.0066 -0.0240 -2.0508
  953MOL0     H31454   7.448   8.989   3.988 -1.1779 -1.1684  3.8406
  953MOL0     H31455   7.535   9.020   4.210 -2.5233  1.4780 -2.9117
  953MOL0     H31456   7.698   8.958   4.166 -0.7705  2.9236  3.6502
  953MOL0     H31457   7.646   8.742   4.106  2.4581  1.8532  1.9633
  953MOL0     H31458   7.601   8.770   4.270 -1.2615  1.5830  1.4637
  953MOL0     H31459   7.386   8.734   4.048 -1.3113 -2.3698  0.8773
  953MOL0     H31460   7.362   8.843   4.192 -0.4308  0.1965  0.3790
  953MOL0     H31461   7.440   8.541   4.189  1.9237  0.7269 -0.1516
  953MOL0     H31462   7.402   8.641   4.330 -3.6504  4.2715  0.4990
  953MOL0     H31463   7.204   8.690   3.998  1.4160 -0.8164 -0.3666
  953MOL0     H31464   6.914   8.648   3.949 -1.9686  2.4687 -0.9959
  953MOL0     H31465   6.897   8.787   4.050 -1.0608 -0.7490 -1.3639
  953MOL0     H31466   6.746   8.555   4.034  0.4025 -1.1915  1.8660
  953MOL0     H31467   6.804   8.548   4.195 -3.0342  2.2012  1.7016
  953MOL0     H31468   6.608   8.682   4.207  0.0146 -0.3840 -1.1350
  953MOL0     H31469   6.734   8.789   4.240  1.3167 -0.5286  1.0065
  953MOL0     H31470   6.639   8.928   4.097 -1.3467  0.3023 -0.0098
  953MOL0     H31471   6.723   8.833   3.964  1.3349  2.2958  0.8078
  953MOL0     H31472   6.302   8.765   3.885  1.2679 -0.5032  2.0388
  953MOL0     H31473   6.063   8.933   3.736 -1.3360  0.3146 -3.5614
  953MOL0     H31474   6.157   8.785   3.704  1.0585  0.3898 -1.3076
  953MOL0     H31475   6.173   8.910   3.588 -2.0195  2.1840 -0.6289
  953MOL0     H31476   6.121   9.489   3.845  0.4325 -0.0775  0.3174
  953MOL0     H31477   6.035   9.688   3.752 -3.8453 -0.7530 -0.5850
  953MOL0     H31478   5.910   9.866   3.586 -1.9665  1.7398 -2.6080
  953MOL0     H31479   6.081   9.901   3.619 -1.6651 -1.3798  2.2322
  953MOL0     H31480   6.101  10.013   3.399  1.7058 -0.1019  3.6865
  953MOL0     H31481   5.932   9.944   3.365 -1.9766  0.3297  1.9061
  953MOL0     H31482   6.001  10.155   3.592 -1.9122  0.7614  0.5638
  953MOL0     H31483   5.852  10.085   3.549  0.7273  2.1787  3.0442
  953MOL0     H31484   5.867  10.196   3.323 -1.0067  1.5677  1.0440
  953MOL0     H31485   6.025  10.244   3.341  0.1798  2.1457 -1.1956
  953MOL0     H31486   5.802  10.327   3.533  1.2260  1.2869  1.2511
  953MOL0     H31487   5.973  10.385   3.531 -0.5830  3.4430 -0.9136
  953MOL0     H31488   5.735  10.442   3.329  1.5998  0.1584 -2.2363
  953MOL0     H31489   5.910  10.454   3.277  0.7549  0.9683  1.2954
  953MOL0     H31490   5.963  10.622   3.408 -0.7060  1.2329  0.2820
  953MOL0     H31491   5.834  10.585   3.536  2.0447  2.1100  1.1438
  953MOL0     H31492   5.672  10.669   3.384  0.3322 -4.0663  0.1221
  953MOL0     H31493   5.807  10.715   3.267 -1.3827  2.5763 -0.2968
  953MOL0     H31494   6.188   9.555   3.368  1.3318 -1.6463  0.3343
  953MOL0     H31495   6.272   9.376   3.460  1.2050 -1.1683  2.6380
  953MOL0     H31496   6.473   9.215   3.829  0.2752 -0.6266  2.9296
  953MOL0     H31497   6.592   9.071   3.967  1.8941 -2.4057 -0.6244
  953MOL0     H31498   7.687   8.697   3.580  1.2989  0.7391 -0.2668
  953MOL0     H31499   7.705   8.486   3.468 -0.9780 -0.3524  0.6823
  953MOL0     H31500   8.100   7.997   3.645  2.8208 -2.4937 -0.6616
  953MOL0     H31501   8.076   7.759   3.548 -0.1297  1.1007  2.1121
  953MOL0     H31502   7.834   7.682   3.168 -0.1779  0.7880 -2.1503
  953MOL0     H31503   8.003   7.727   3.140  0.1968 -0.8834  0.2432
  953MOL0     H31504   8.059   7.507   3.235 -1.1353  3.4263  2.5361
  953MOL0     H31505   7.952   7.475   3.098 -0.0070  0.5349 -0.3765
  953MOL0     H31506   7.765   7.462   3.271 -0.1462 -0.1889 -0.7369
  953MOL0     H31507   7.878   7.321   3.252  1.3597  0.2230 -0.4429
  953MOL0     H31508   7.804   7.362   3.484  0.4578 -2.0015 -0.9579
  953MOL0     H31509   7.902   7.503   3.494  0.2948 -1.0043  0.7198
  953MOL0     H31510   8.171   7.176   3.514  0.1889  0.5044 -0.5278
  953MOL0     H31511   7.864   7.912   3.204  0.1919  1.0993 -0.7504
  953MOL0     H31512   7.933   8.241   3.242  1.8932 -1.9944  1.7781
  953MOL0     H31513   7.839   8.126   3.161 -0.7163  5.0325 -2.2002
  953MOL0     H31514   7.765   8.190   3.305 -1.0035 -0.8827 -1.8855
  954MOL0     O31515   5.186   5.913   3.781 -0.5068 -0.5464  0.1171
  954MOL0     C31516   5.243   6.016   3.743  0.4852  0.1195 -0.8259
  954MOL0     O31517   5.259   6.058   3.621  0.3744  0.5670 -0.3759
  954MOL0     C31518   5.198   5.977   3.519  0.1468 -0.5377 -0.4040
  954MOL0     C31519   5.278   5.947   3.410  0.3934  0.3325  0.9259
  954MOL0     C31520   5.223   5.909   3.289 -0.4302 -0.1833  0.9399
  954MOL0     C31521   5.086   5.893   3.276 -0.0683  0.7135  0.1485
  954MOL0     O31522   5.007   5.858   3.158  0.2769  0.7723 -1.6140
  954MOL0     C31523   5.061   5.894   3.027 -0.1059 -0.2476  0.4672
  954MOL0     C31524   4.952   5.882   2.913 -0.4500 -0.2540 -1.2392
  954MOL0     C31525   4.883   5.738   2.918 -0.5158 -0.4266  0.2488
  954MOL0     C31526   4.786   5.721   2.805  0.6193 -1.4146  0.8784
  954MOL0     C31527   4.702   5.599   2.822  0.4830  0.9001 -0.2217
  954MOL0     C31528   4.578   5.619   2.727 -0.3725  0.0537  0.1755
  954MOL0     C31529   4.491   5.492   2.750  0.0420 -0.3130  0.1218
  954MOL0     C31530   4.377   5.476   2.652  0.7148 -1.0818 -0.7466
  954MOL0     N31531   4.292   5.603   2.641 -0.0133  0.4588 -0.9387
  954MOL0     C31532   4.229   5.672   2.741 -0.1381  1.0261 -0.2445
  954MOL0     C31533   4.161   5.770   2.684  0.0307  0.0413  0.0603
  954MOL0     C31534   4.070   5.855   2.756  0.8440 -0.3407  1.2691
  954MOL0     C31535   3.984   5.944   2.659 -0.4549  0.1758 -0.1080
  954MOL0     C31536   4.065   6.062   2.605 -0.4177  0.4957 -0.1853
  954MOL0     C31537   3.989   6.133   2.496  0.2707  0.1010  0.9584
  954MOL0     O31538   4.074   6.237   2.451 -0.2388 -0.3205  0.6057
  954MOL0     C31539   4.031   6.348   2.374  0.3738  0.7349 -0.2232
  954MOL0     C31540   4.129   6.434   2.327 -0.1943  0.9655 -0.1610
  954MOL0     C31541   4.099   6.534   2.229 -0.6587 -0.2567 -0.8751
  954MOL0     C31542   4.213   6.641   2.214  0.8392  0.4977 -0.3139
  954MOL0     C31543   3.969   6.562   2.183 -0.1456  0.7511 -0.0088
  954MOL0     C31544   3.929   6.671   2.083 -0.0842  0.1479  0.2595
  954MOL0     O31545   4.019   6.738   2.012 -0.9249 -1.0665 -0.4620
  954MOL0     C31546   3.977   6.861   1.966 -0.4042  0.0201  0.6547
  954MOL0     C31547   3.974   6.980   2.043 -0.1490  0.0886 -0.1619
  954MOL0     C31548   3.948   7.103   1.986 -1.2375 -0.2162 -0.5452
  954MOL0     C31549   3.915   7.110   1.847 -0.6574 -0.5946 -0.3089
  954MOL0     O31550   3.884   7.232   1.781 -0.0027  0.1625 -0.2959
  954MOL0     C31551   3.882   7.347   1.860  0.3631 -0.4087 -0.0280
  954MOL0     C31552   3.832   7.469   1.780 -0.3887  0.5971  0.0627
  954MOL0     C31553   3.931   7.511   1.673  0.4135 -0.1863 -0.4588
  954MOL0     C31554   3.876   7.634   1.610  0.2858  0.5049 -0.5021
  954MOL0     C31555   3.965   7.693   1.511 -0.0750 -0.6140  0.8359
  954MOL0     C31556   3.890   7.798   1.428 -0.1067  0.2356 -0.0287
  954MOL0     C31557   3.964   7.848   1.300 -0.7099 -0.4231  0.2176
  954MOL0     C31558   4.064   7.973   1.326 -0.6501  0.5708  0.6687
  954MOL0    Cl31559   3.966   8.118   1.362  0.3054  0.3842  0.8360
  954MOL0     C31560   3.932   6.999   1.769  0.4373  0.0118  0.1247
  954MOL0     C31561   3.967   6.878   1.822 -0.1727  0.9242 -0.4951
  954MOL0     O31562   3.810   6.702   2.089 -0.0019  0.5080 -1.2295
  954MOL0     C31563   3.864   6.473   2.232 -0.3110  0.2476 -0.5179
  954MOL0     C31564   3.898   6.377   2.332 -0.6987  0.0304  0.5097
  954MOL0     N31565   4.174   5.760   2.552  0.0193  0.1753 -0.3395
  954MOL0     N31566   4.260   5.664   2.529 -0.5018 -0.6765 -0.7117
  954MOL0     C31567   5.008   5.922   3.386  0.2491 -0.8260 -0.4993
  954MOL0     C31568   5.060   5.962   3.505  0.6646  0.0913  0.3733
  954MOL0     C31569   5.338   6.077   3.838 -0.1145 -0.1648 -1.0398
  954MOL0     C31570   5.420   6.176   3.789 -0.5320 -0.8545 -0.0267
  954MOL0     C31571   5.507   6.241   3.863 -0.1113 -0.8998 -1.2495
  954MOL0     C31572   5.516   6.218   4.000  0.1427 -0.2879  1.0761
  954MOL0     O31573   5.597   6.299   4.071 -0.0930  0.6282 -0.3182
  954MOL0     C31574   5.575   6.319   4.213  0.2655  0.0104  0.3037
  954MOL0     C31575   5.655   6.220   4.305  0.1678  0.0720  0.2478
  954MOL0     C31576   5.801   6.231   4.275  1.0015  0.0059  0.0824
  954MOL0     C31577   5.888   6.101   4.273 -0.3669 -0.1353 -0.1063
  954MOL0     C31578   6.030   6.145   4.239  0.2687  0.6358 -0.4647
  954MOL0     C31579   6.145   6.161   4.226 -0.7324 -0.9466 -0.1204
  954MOL0     C31580   5.429   6.118   4.063  0.7834  0.4347 -0.4599
  954MOL0     C31581   5.342   6.048   3.973 -0.9259  0.2016 -0.8743
  954MOL0     C31582   5.261   5.939   4.041  0.1176 -1.1972 -0.2556
  954MOL0     H31583   5.384   5.965   3.423  0.4609  0.1972  0.5823
  954MOL0     H31584   5.291   5.883   3.209 -0.5539  0.3647  0.6548
  954MOL0     H31585   5.154   5.839   3.007  1.0122  1.9440 -0.8146
  954MOL0     H31586   5.101   5.995   3.018  0.4523 -0.6231 -2.4454
  954MOL0     H31587   4.874   5.957   2.929 -0.0305  0.0592 -0.5896
  954MOL0     H31588   4.996   5.909   2.817 -0.8132 -1.0228 -1.6231
  954MOL0     H31589   4.956   5.656   2.915 -0.3088 -0.6552  4.6428
  954MOL0     H31590   4.813   5.729   3.002 -0.5841 -1.7946  0.0703
  954MOL0     H31591   4.724   5.810   2.789  3.7361  0.8535  0.4582
  954MOL0     H31592   4.827   5.716   2.703  0.0102  1.6024  0.4040
  954MOL0     H31593   4.689   5.577   2.929  1.7865 -3.5317 -0.8003
  954MOL0     H31594   4.767   5.523   2.778 -0.9525  0.9506 -2.6108
  954MOL0     H31595   4.531   5.715   2.751  2.2907  1.1605  1.3866
  954MOL0     H31596   4.609   5.616   2.622 -1.5662  2.0953 -0.2955
  954MOL0     H31597   4.455   5.479   2.852 -2.2791  0.2841 -0.5439
  954MOL0     H31598   4.549   5.399   2.754 -1.5721 -1.3267  0.9109
  954MOL0     H31599   4.422   5.462   2.553  1.5223  1.3216 -0.7861
  954MOL0     H31600   4.330   5.384   2.687  0.6606 -0.4183  1.0149
  954MOL0     H31601   4.225   5.642   2.845  0.5816  2.4531  0.2292
  954MOL0     H31602   4.125   5.910   2.834 -1.8141  1.2963  2.1323
  954MOL0     H31603   4.005   5.781   2.803  0.0430  0.9333  2.2350
  954MOL0     H31604   3.948   5.894   2.569 -3.6360  2.6264 -0.3607
  954MOL0     H31605   3.891   5.981   2.704 -2.1072 -1.1560 -2.2767
  954MOL0     H31606   4.077   6.142   2.678  0.1731  1.0254 -0.8459
  954MOL0     H31607   4.157   6.019   2.562 -0.8404  1.5967 -2.3250
  954MOL0     H31608   3.962   6.080   2.404 -2.3858  2.4373  0.2451
  954MOL0     H31609   3.899   6.173   2.543 -0.1744 -0.8946  0.9914
  954MOL0     H31610   4.230   6.423   2.364 -0.6606  0.2761  0.9394
  954MOL0     H31611   4.230   6.675   2.112  1.3019 -0.4329 -0.5651
  954MOL0     H31612   4.306   6.588   2.235 -1.0601 -3.5823 -1.1737
  954MOL0     H31613   4.186   6.727   2.275 -0.1675 -0.2645  0.3579
  954MOL0     H31614   3.995   6.979   2.150  2.1954 -2.4442 -0.5106
  954MOL0     H31615   3.933   7.178   2.063  0.7191 -1.6968  1.3999
  954MOL0     H31616   3.804   7.341   1.936 -0.4263  2.0203 -0.5679
  954MOL0     H31617   3.978   7.370   1.906  2.2530 -1.5510 -3.0870
  954MOL0     H31618   3.737   7.435   1.737 -1.0065 -0.5200  2.1404
  954MOL0     H31619   3.831   7.556   1.847  0.0661 -2.4920  4.5752
  954MOL0     H31620   3.937   7.430   1.599  1.8662  1.9555 -2.8385
  954MOL0     H31621   4.029   7.513   1.720  0.9928 -0.1380 -1.6144
  954MOL0     H31622   3.831   7.706   1.679 -1.0687 -1.1761  0.4732
  954MOL0     H31623   3.786   7.600   1.558  0.7962 -0.0820 -1.0088
  954MOL0     H31624   4.049   7.747   1.557 -0.5927  2.7248 -1.7572
  954MOL0     H31625   4.012   7.620   1.444 -0.4220 -0.6671  0.6476
  954MOL0     H31626   3.878   7.880   1.499  2.2853  1.2577 -0.6898
  954MOL0     H31627   3.795   7.754   1.396 -2.9647  3.4429  3.2081
  954MOL0     H31628   3.891   7.885   1.227  0.3319 -2.1493 -1.8061
  954MOL0     H31629   4.020   7.763   1.260  1.6123  1.8746 -1.8060
  954MOL0     H31630   4.135   7.993   1.244 -2.6635 -0.6236 -1.4915
  954MOL0     H31631   4.114   7.940   1.417 -0.9729 -2.4347 -0.1206
  954MOL0     H31632   3.910   7.008   1.663 -2.7022  0.2158  0.6918
  954MOL0     H31633   3.986   6.799   1.750  4.3862 -0.0533  1.4667
  954MOL0     H31634   3.761   6.479   2.196 -0.6225  1.2374  0.4830
  954MOL0     H31635   3.811   6.327   2.375 -1.1420  1.8528  1.8216
  954MOL0     H31636   4.900   5.918   3.389  0.1781  0.9258  0.8034
  954MOL0     H31637   4.996   5.995   3.587  0.7937 -0.4011  0.6737
  954MOL0     H31638   5.410   6.210   3.686  1.5890 -2.8650 -0.9907
  954MOL0     H31639   5.559   6.319   3.808 -1.1971  2.0481  1.5551
  954MOL0     H31640   5.594   6.424   4.237  0.2951 -0.7141  4.0192
  954MOL0     H31641   5.468   6.305   4.230 -0.3333  3.7460  0.4740
  954MOL0     H31642   5.615   6.119   4.299 -1.5453  0.7239 -0.0250
  954MOL0     H31643   5.647   6.245   4.412  1.2205  1.3955  0.0444
  954MOL0     H31644   5.827   6.260   4.173  0.0890 -1.7884 -0.7048
  954MOL0     H31645   5.834   6.313   4.340 -0.9004  1.8547 -1.1539
  954MOL0     H31646   5.857   6.029   4.197 -0.3377  0.7541 -0.9824
  954MOL0     H31647   5.889   6.053   4.371 -2.0564 -2.9757 -1.3604
  954MOL0     H31648   6.249   6.184   4.227 -1.2230  1.7324 -1.7867
  954MOL0     H31649   5.410   6.113   4.169 -2.5979  3.9303 -0.6558
  954MOL0     H31650   5.152   5.939   4.027  0.0902 -3.6562 -0.4384
  954MOL0     H31651   5.289   5.840   4.004 -2.4085 -1.7140 -0.9897
  954MOL0     H31652   5.267   5.942   4.150  1.4514 -3.0066 -0.2408
  955MOL0     O31653   7.577   1.452   2.621  0.5901  0.0733 -0.0856
  955MOL0     C31654   7.559   1.382   2.719  0.5197  0.2306 -0.6404
  955MOL0     O31655   7.435   1.366   2.783  0.5981 -0.3965  0.2228
  955MOL0     C31656   7.317   1.428   2.732  0.0514 -0.3242 -0.3610
  955MOL0     C31657   7.297   1.465   2.596 -0.1387  0.2816  0.2906
  955MOL0     C31658   7.179   1.537   2.560 -0.4340 -0.6678 -0.4651
  955MOL0     C31659   7.078   1.559   2.653  0.5615 -0.4616  0.2584
  955MOL0     O31660   6.966   1.636   2.614  0.2003 -0.2947  0.0618
  955MOL0     C31661   6.895   1.572   2.507 -1.4207  0.3214  0.5737
  955MOL0     C31662   6.823   1.684   2.419  0.4600  0.8833  0.1716
  955MOL0     C31663   6.941   1.764   2.358  0.8094 -0.9426 -0.5661
  955MOL0     C31664   6.897   1.834   2.227  0.1006  0.8653 -1.2841
  955MOL0     C31665   7.022   1.907   2.177 -0.5049  0.3439 -0.1862
  955MOL0     C31666   7.087   1.826   2.059 -0.8343 -0.2709 -0.3918
  955MOL0     C31667   7.215   1.889   2.006  0.4195 -0.0474 -0.4249
  955MOL0     C31668   7.283   1.802   1.903  0.3571  0.3478 -0.2667
  955MOL0     N31669   7.201   1.732   1.810 -0.3175 -0.3730  0.0667
  955MOL0     C31670   7.159   1.604   1.825 -0.5490  0.3815  0.1513
  955MOL0     C31671   7.076   1.590   1.725 -0.1266  0.2078  0.2353
  955MOL0     C31672   6.995   1.471   1.703 -0.0252 -0.2459 -0.0337
  955MOL0     C31673   7.059   1.398   1.593 -0.4723 -0.9769  0.6873
  955MOL0     C31674   7.050   1.255   1.591 -0.5065  0.8210  0.2359
  955MOL0     C31675   6.912   1.200   1.608  0.4272  0.7001  0.9811
  955MOL0     O31676   6.909   1.059   1.570 -0.1404  0.8726  0.0812
  955MOL0     C31677   6.785   0.993   1.580  0.3114 -0.0839  0.6324
  955MOL0     C31678   6.665   1.042   1.631 -0.6299 -0.1830 -0.3401
  955MOL0     C31679   6.538   0.979   1.618  0.2285 -0.2181 -0.3720
  955MOL0     C31680   6.416   1.052   1.666  0.0802 -0.2463 -0.2755
  955MOL0     C31681   6.532   0.851   1.555 -0.4768  0.5843  0.3463
  955MOL0     C31682   6.415   0.773   1.531  0.1875  1.3326  0.6631
  955MOL0     O31683   6.434   0.642   1.500 -0.9228 -0.5326  0.1915
  955MOL0     C31684   6.321   0.592   1.432  0.5345 -0.1405  0.8284
  955MOL0     C31685   6.215   0.536   1.501 -1.1317 -0.8612  0.5089
  955MOL0     C31686   6.099   0.495   1.433 -0.3637  0.3524 -0.5280
  955MOL0     C31687   6.094   0.491   1.292 -0.3707  0.4426 -0.2658
  955MOL0     O31688   5.984   0.427   1.236  0.0078 -1.2377 -0.4639
  955MOL0     C31689   6.003   0.281   1.217 -0.7678 -0.0585 -1.0048
  955MOL0     C31690   5.875   0.220   1.168  0.5885  0.0330 -0.0155
  955MOL0     C31691   5.753   0.247   1.273  0.1784  0.3004 -0.0099
  955MOL0     C31692   5.768   0.162   1.403 -0.9057  0.2278 -0.6941
  955MOL0     C31693   5.687   0.201   1.527  0.3116 -0.3899 -0.1215
  955MOL0     C31694   5.700   0.096   1.636  0.4259 -0.4493  0.2383
  955MOL0     C31695   5.601   0.120   1.749 -0.3614 -0.0718 -0.8394
  955MOL0     C31696   5.590   0.268   1.789 -0.2648 -0.0937  0.9728
  955MOL0    Cl31697   5.753   0.330   1.848  0.0470  0.1567 -0.0531
  955MOL0     C31698   6.194   0.543   1.218  0.1958  0.0110 -0.7290
  955MOL0     C31699   6.307   0.613   1.287  0.5385 -0.7350 -0.7121
  955MOL0     O31700   6.305   0.829   1.531  1.1004 -0.4946  0.0907
  955MOL0     C31701   6.656   0.796   1.507  0.0211  0.4745  0.1375
  955MOL0     C31702   6.776   0.864   1.528 -0.1841  0.1181  0.4871
  955MOL0     N31703   7.070   1.700   1.644  0.4701  0.0907  0.4949
  955MOL0     N31704   7.134   1.795   1.701 -0.6684 -0.1131  0.2967
  955MOL0     C31705   7.094   1.512   2.783  0.4332 -1.0785  1.0374
  955MOL0     C31706   7.219   1.462   2.828 -0.1178 -0.0144 -0.3804
  955MOL0     C31707   7.681   1.336   2.793 -0.0323  1.0966  1.7269
  955MOL0     C31708   7.666   1.275   2.916 -0.1024  0.1068 -0.4345
  955MOL0     C31709   7.773   1.244   2.997 -0.4048  0.1686 -0.1244
  955MOL0     C31710   7.899   1.274   2.956  0.5192  0.3303  0.4388
  955MOL0     O31711   8.002   1.241   3.048  0.2883 -0.2490  0.5726
  955MOL0     C31712   8.138   1.286   3.035  0.3011  0.2631 -0.5681
  955MOL0     C31713   8.226   1.186   2.961  0.7338  0.1348  0.0058
  955MOL0     C31714   8.225   1.044   3.010 -0.4611  1.1110 -0.1600
  955MOL0     C31715   8.257   0.943   2.896 -0.2733  0.3217 -0.6948
  955MOL0     C31716   8.304   0.805   2.940 -0.1699  0.2813  0.3215
  955MOL0     C31717   8.317   0.698   2.997 -0.4442  0.2900  0.0173
  955MOL0     C31718   7.922   1.315   2.830 -0.2469 -0.1692  0.5415
  955MOL0     C31719   7.814   1.357   2.742 -0.0542  1.4354 -0.1688
  955MOL0     C31720   7.856   1.427   2.610  0.2055  0.1364 -0.9043
  955MOL0     H31721   7.371   1.453   2.518  1.2826 -1.7906  1.8581
  955MOL0     H31722   7.167   1.587   2.465 -2.5454  0.9596  0.5683
  955MOL0     H31723   6.817   1.503   2.540  0.1985 -1.0535  1.7150
  955MOL0     H31724   6.957   1.505   2.446 -2.5147 -1.4781  1.3609
  955MOL0     H31725   6.755   1.639   2.347  1.1760 -1.6369  0.9371
  955MOL0     H31726   6.764   1.740   2.492  2.8682  3.1626  0.5239
  955MOL0     H31727   6.977   1.839   2.429 -0.0804  1.5360 -2.5787
  955MOL0     H31728   7.022   1.694   2.334  0.1805 -2.9091  2.5264
  955MOL0     H31729   6.844   1.768   2.158 -2.1219 -1.0522  1.9518
  955MOL0     H31730   6.825   1.914   2.249 -0.8423 -0.1508 -0.5441
  955MOL0     H31731   7.099   1.935   2.249 -0.8425  1.1529 -0.1364
  955MOL0     H31732   6.990   2.001   2.132 -3.4351  0.0141  1.0228
  955MOL0     H31733   7.106   1.727   2.101  1.1246  1.7531  4.1702
  955MOL0     H31734   7.010   1.807   1.984 -2.1918 -1.3973  1.2024
  955MOL0     H31735   7.282   1.907   2.091  2.8861  5.2578 -3.0027
  955MOL0     H31736   7.186   1.974   1.944 -0.9670 -1.7032 -2.1675
  955MOL0     H31737   7.346   1.870   1.847  1.1531 -2.0600 -2.5018
  955MOL0     H31738   7.338   1.736   1.972 -1.3612  0.4723  1.3098
  955MOL0     H31739   7.187   1.526   1.896 -2.2972 -2.9521 -2.5262
  955MOL0     H31740   6.889   1.487   1.683 -0.9112 -2.9013  1.9254
  955MOL0     H31741   6.995   1.413   1.796  1.6363 -0.3452 -0.0746
  955MOL0     H31742   7.018   1.452   1.507 -0.0024  3.6370  2.9999
  955MOL0     H31743   7.166   1.420   1.585 -0.5718 -0.5400  0.5134
  955MOL0     H31744   7.092   1.227   1.495  0.7175  0.2971  0.8983
  955MOL0     H31745   7.107   1.210   1.673 -2.7763 -1.7243  0.5675
  955MOL0     H31746   6.884   1.219   1.712  1.0691  4.7187  0.6043
  955MOL0     H31747   6.840   1.257   1.548  0.8539  2.8931  2.4296
  955MOL0     H31748   6.676   1.137   1.682  1.1397  0.4734 -1.8383
  955MOL0     H31749   6.442   1.141   1.723 -4.4630  0.4149  1.1580
  955MOL0     H31750   6.371   0.989   1.743 -2.5791 -0.1743 -1.6509
  955MOL0     H31751   6.339   1.070   1.591 -1.4089 -3.2311  0.4088
  955MOL0     H31752   6.209   0.526   1.609  0.6145 -0.0102  0.7234
  955MOL0     H31753   6.020   0.447   1.490  1.3328 -1.1613  0.6707
  955MOL0     H31754   6.077   0.268   1.138  1.7638  0.4721  1.1209
  955MOL0     H31755   6.031   0.228   1.309  2.1932  1.1006 -1.1036
  955MOL0     H31756   5.853   0.257   1.068  1.6062 -0.7584 -0.5467
  955MOL0     H31757   5.893   0.115   1.145  0.7588  0.2835 -1.0581
  955MOL0     H31758   5.658   0.216   1.229 -0.2548 -1.8919  2.2048
  955MOL0     H31759   5.738   0.351   1.303 -2.3086 -0.0602  0.1972
  955MOL0     H31760   5.872   0.166   1.435 -0.4417 -0.8914 -1.9841
  955MOL0     H31761   5.748   0.055   1.392 -0.2618  0.1421 -1.1015
  955MOL0     H31762   5.732   0.297   1.555  1.0950 -1.3357  2.0503
  955MOL0     H31763   5.582   0.214   1.499  0.9171  1.3484 -1.8477
  955MOL0     H31764   5.804   0.099   1.668  0.4529 -1.5355  0.2651
  955MOL0     H31765   5.688  -0.008   1.604 -1.0475 -1.3882  3.4527
  955MOL0     H31766   5.634   0.064   1.837  0.4507  0.7661 -0.5930
  955MOL0     H31767   5.506   0.079   1.712  0.5742 -3.7255  0.3470
  955MOL0     H31768   5.544   0.277   1.887  3.8905  4.6051  2.9030
  955MOL0     H31769   5.544   0.333   1.714  0.8151 -2.2697 -1.7724
  955MOL0     H31770   6.189   0.526   1.111 -1.0877 -1.9581 -0.4134
  955MOL0     H31771   6.384   0.667   1.233 -0.3164  0.3592 -0.8657
  955MOL0     H31772   6.650   0.698   1.461 -1.4993  0.1823  0.8926
  955MOL0     H31773   6.863   0.817   1.483 -1.7361 -1.5901 -0.8899
  955MOL0     H31774   7.012   1.534   2.850 -1.0869 -4.0092  0.2884
  955MOL0     H31775   7.241   1.453   2.934  2.5703  1.1334 -0.7732
  955MOL0     H31776   7.569   1.245   2.955  0.3835  0.5888  1.2102
  955MOL0     H31777   7.777   1.192   3.092  1.6153  0.4758 -0.0092
  955MOL0     H31778   8.147   1.391   3.007  0.6259  0.4432  0.1972
  955MOL0     H31779   8.178   1.275   3.136 -1.4164  0.0786  0.1136
  955MOL0     H31780   8.325   1.230   2.973  0.8127 -0.4821  1.9151
  955MOL0     H31781   8.183   1.178   2.861 -0.0340 -1.0051  0.4110
  955MOL0     H31782   8.303   1.034   3.086 -0.4044 -1.5374 -0.4617
  955MOL0     H31783   8.137   1.012   3.067  0.9752 -1.1049  0.9855
  955MOL0     H31784   8.343   0.984   2.842  1.5265 -1.2885  0.7994
  955MOL0     H31785   8.166   0.935   2.835 -0.4316 -3.3953 -0.2451
  955MOL0     H31786   8.335   0.606   3.050 -0.4837  2.2048  3.6597
  955MOL0     H31787   8.020   1.348   2.798 -0.3342  0.1384  0.5902
  955MOL0     H31788   7.834   1.372   2.518 -0.0598  1.5612 -1.7207
  955MOL0     H31789   7.803   1.522   2.596 -1.7174 -1.0407 -2.0960
  955MOL0     H31790   7.963   1.448   2.598  0.5411 -0.4979  0.8047
  956MOL0     O31791   0.064   5.682   0.092  0.3399  0.0526  0.1942
  956MOL0     C31792   0.074   5.596   0.174  0.4646 -0.0796 -0.9582
  956MOL0     O31793   0.005   5.602   0.292 -0.3603 -0.2264  0.5092
  956MOL0     C31794  -0.053   5.716   0.354  0.2386  0.8180  0.0399
  956MOL0     C31795  -0.129   5.661   0.465 -0.0325 -0.6872  0.3630
  956MOL0     C31796  -0.202   5.751   0.551  0.1705 -0.2472  0.2127
  956MOL0     C31797  -0.208   5.889   0.522 -0.3590 -0.5445 -0.3684
  956MOL0     O31798  -0.295   5.959   0.599 -1.1926  0.2038  0.3178
  956MOL0     C31799  -0.246   6.099   0.615  0.0135 -0.0404  0.1062
  956MOL0     C31800  -0.359   6.174   0.701  0.0530  0.5153 -0.3082
  956MOL0     C31801  -0.395   6.118   0.835  0.3659  0.3322  0.2523
  956MOL0     C31802  -0.503   6.196   0.907  0.0945  0.0399  0.4967
  956MOL0     C31803  -0.628   6.212   0.819  1.1966 -0.5585  0.0300
  956MOL0     C31804  -0.748   6.265   0.901 -0.6385  0.9606  0.9207
  956MOL0     C31805  -0.862   6.326   0.815  0.8156 -0.8233 -0.1527
  956MOL0     C31806  -0.948   6.226   0.734 -0.0615 -0.4271  0.8564
  956MOL0     N31807  -0.914   6.214   0.591  1.1999 -0.4714 -0.4207
  956MOL0     C31808  -0.932   6.322   0.508 -0.1427 -0.3264 -0.1774
  956MOL0     C31809  -0.877   6.270   0.393  1.1185  0.2057  0.6351
  956MOL0     C31810  -0.884   6.328   0.249  1.0497 -0.5317  0.6584
  956MOL0     C31811  -0.764   6.414   0.211  0.3434  0.4536  0.3563
  956MOL0     C31812  -0.786   6.487   0.075  0.4154 -0.1958 -0.7963
  956MOL0     C31813  -0.666   6.579   0.047  0.2432 -0.6021  0.1047
  956MOL0     O31814  -0.689   6.652  -0.072  0.4154  0.1179 -0.6290
  956MOL0     C31815  -0.574   6.707  -0.133  0.1315 -0.9965 -0.5032
  956MOL0     C31816  -0.597   6.752  -0.268 -0.2659  1.4936  0.2425
  956MOL0     C31817  -0.490   6.803  -0.347  0.2471 -1.3580 -0.4131
  956MOL0     C31818  -0.515   6.823  -0.499 -0.4026 -0.2688 -0.1841
  956MOL0     C31819  -0.365   6.817  -0.282 -0.7319 -0.5856  0.9170
  956MOL0     C31820  -0.240   6.866  -0.354  0.0812  0.8925  0.6967
  956MOL0     O31821  -0.257   6.976  -0.443  0.1040 -0.2297 -1.0747
  956MOL0     C31822  -0.163   7.018  -0.529  0.1852  0.5494  0.2384
  956MOL0     C31823  -0.158   6.971  -0.659 -0.5447 -0.0465 -0.5194
  956MOL0     C31824  -0.055   7.017  -0.749  1.1294 -0.3729  0.2975
  956MOL0     C31825   0.036   7.110  -0.712 -0.1171  0.1410 -0.7012
  956MOL0     O31826   0.130   7.149  -0.804  0.6479 -0.1706  0.2626
  956MOL0     C31827   0.266   7.178  -0.763  0.0885  0.9478  0.4883
  956MOL0     C31828   0.337   7.060  -0.705  0.3533 -0.5087  0.3092
  956MOL0     C31829   0.498   7.085  -0.701 -0.2840 -0.4058 -0.6010
  956MOL0     C31830   0.522   7.213  -0.622 -0.3076 -0.3656  0.6808
  956MOL0     C31831   0.664   7.217  -0.563 -0.4118  0.1727  0.1834
  956MOL0     C31832   0.720   7.352  -0.521 -1.1791  0.0060 -0.3134
  956MOL0     C31833   0.614   7.450  -0.463 -0.4973  0.2723  0.4329
  956MOL0     C31834   0.548   7.398  -0.338 -0.5149  0.4519 -0.3964
  956MOL0    Cl31835   0.660   7.397  -0.203  0.1533  0.0102 -0.0142
  956MOL0     C31836   0.035   7.149  -0.575 -0.1581 -0.2204  0.9907
  956MOL0     C31837  -0.057   7.102  -0.487 -0.4268 -0.5625  0.4486
  956MOL0     O31838  -0.128   6.810  -0.332  0.1812  0.3997  0.0041
  956MOL0     C31839  -0.340   6.781  -0.145  0.9355 -0.5102 -0.5617
  956MOL0     C31840  -0.447   6.725  -0.069 -0.8158 -0.0165 -0.0864
  956MOL0     N31841  -0.816   6.151   0.413  0.6897  0.6454 -0.3155
  956MOL0     N31842  -0.834   6.117   0.533 -0.8901  0.3629  0.2682
  956MOL0     C31843  -0.131   5.939   0.415  0.1480 -0.2584  0.9811
  956MOL0     C31844  -0.061   5.848   0.332  0.0703 -0.5058 -0.9709
  956MOL0     C31845   0.156   5.477   0.150 -0.2007 -0.2254  0.9714
  956MOL0     C31846   0.099   5.363   0.208 -0.1995  0.5016 -0.6393
  956MOL0     C31847   0.178   5.249   0.195  0.0251  0.1366 -0.4591
  956MOL0     C31848   0.296   5.240   0.131 -0.5732 -0.1077  0.2193
  956MOL0     O31849   0.373   5.132   0.165  0.0340  0.3561  0.6606
  956MOL0     C31850   0.513   5.116   0.139  1.0902 -0.4073  0.0596
  956MOL0     C31851   0.559   5.095  -0.010 -0.6516  0.3765 -0.3969
  956MOL0     C31852   0.702   5.044  -0.030 -1.0215 -0.7303  0.1383
  956MOL0     C31853   0.798   5.163  -0.013 -0.3004  0.3565 -0.0581
  956MOL0     C31854   0.825   5.192   0.130  0.1531  0.5983 -0.6194
  956MOL0     C31855   0.854   5.233   0.242 -0.0103  0.3391 -0.6100
  956MOL0     C31856   0.350   5.356   0.070  0.0844 -0.4526  0.4702
  956MOL0     C31857   0.284   5.482   0.080  0.2910  0.0520  0.0040
  956MOL0     C31858   0.330   5.605   0.016 -0.1250 -0.4530  0.3138
  956MOL0     H31859  -0.140   5.553   0.469 -2.2202 -0.4874  2.3830
  956MOL0     H31860  -0.255   5.711   0.637  0.1006  1.2990  0.9238
  956MOL0     H31861  -0.229   6.157   0.523 -0.3475 -0.1781 -0.0485
  956MOL0     H31862  -0.153   6.092   0.671  0.3612 -1.0640 -0.5732
  956MOL0     H31863  -0.328   6.276   0.725  1.2334  0.8340 -2.8794
  956MOL0     H31864  -0.447   6.188   0.637 -0.6627 -0.7993  0.3503
  956MOL0     H31865  -0.435   6.020   0.808 -0.2842  0.7906 -0.5086
  956MOL0     H31866  -0.304   6.121   0.896 -0.5587 -1.1066  1.7589
  956MOL0     H31867  -0.525   6.137   0.996 -0.3768 -1.3149 -0.4733
  956MOL0     H31868  -0.457   6.292   0.930  2.5248 -0.5007 -1.6569
  956MOL0     H31869  -0.671   6.127   0.765  1.0253 -0.9087  0.7084
  956MOL0     H31870  -0.612   6.293   0.747 -1.1505  0.6383  0.7311
  956MOL0     H31871  -0.796   6.177   0.947  1.6979 -1.2937 -0.6583
  956MOL0     H31872  -0.720   6.338   0.978  0.8325  1.7737 -0.3463
  956MOL0     H31873  -0.825   6.416   0.765  1.1615  0.9228  3.0193
  956MOL0     H31874  -0.918   6.370   0.898  1.4830  1.0702 -0.6682
  956MOL0     H31875  -0.913   6.128   0.768  0.9283 -1.0066 -1.5696
  956MOL0     H31876  -1.054   6.253   0.732 -0.7088 -2.7709 -0.0907
  956MOL0     H31877  -0.981   6.418   0.526  2.1716  0.9627 -0.2847
  956MOL0     H31878  -0.968   6.397   0.235  1.8953 -0.1661 -4.8642
  956MOL0     H31879  -0.891   6.254   0.168 -2.1869 -0.6726  0.9150
  956MOL0     H31880  -0.745   6.479   0.297 -3.5046  0.2042  1.6179
  956MOL0     H31881  -0.679   6.348   0.193  0.9445  1.2633  0.1881
  956MOL0     H31882  -0.801   6.408   0.001  1.9651 -2.2896  0.9839
  956MOL0     H31883  -0.879   6.539   0.097  0.0774  0.1501 -2.8799
  956MOL0     H31884  -0.649   6.648   0.130  0.5322  1.3185 -1.4785
  956MOL0     H31885  -0.580   6.514   0.030 -1.3377 -2.6017 -0.7346
  956MOL0     H31886  -0.693   6.716  -0.304  1.2704 -1.2846 -1.5238
  956MOL0     H31887  -0.453   6.749  -0.552 -2.2813 -0.4022 -2.3597
  956MOL0     H31888  -0.482   6.923  -0.527 -0.8467 -0.3996 -1.2365
  956MOL0     H31889  -0.620   6.817  -0.530 -0.9313  3.3076  0.5403
  956MOL0     H31890  -0.226   6.895  -0.694  0.5111 -0.9502 -0.6748
  956MOL0     H31891  -0.057   6.972  -0.848  2.7822 -0.3980  0.2521
  956MOL0     H31892   0.322   7.201  -0.854 -1.4511  1.6399 -0.3319
  956MOL0     H31893   0.257   7.262  -0.693  2.6202 -0.3613  2.5008
  956MOL0     H31894   0.300   7.032  -0.606  0.4728 -0.3557  0.3987
  956MOL0     H31895   0.315   6.974  -0.769 -2.0331 -0.1847  0.6297
  956MOL0     H31896   0.557   7.100  -0.792 -2.0723  0.0414 -1.7416
  956MOL0     H31897   0.537   7.001  -0.643 -0.3105  1.1136  1.7360
  956MOL0     H31898   0.454   7.225  -0.537  1.0210  1.0880  1.5960
  956MOL0     H31899   0.513   7.296  -0.693  0.5108  0.5520  1.6161
  956MOL0     H31900   0.684   7.149  -0.480 -1.2021 -0.6328 -0.2757
  956MOL0     H31901   0.732   7.180  -0.641 -1.8186  2.2492 -2.1918
  956MOL0     H31902   0.767   7.399  -0.608 -0.0137 -1.7042 -0.6714
  956MOL0     H31903   0.797   7.346  -0.444 -2.2855  1.7045  1.0004
  956MOL0     H31904   0.546   7.462  -0.548  0.9612  1.0209 -0.6740
  956MOL0     H31905   0.651   7.552  -0.453  0.1120  0.9607 -5.2371
  956MOL0     H31906   0.506   7.298  -0.351 -0.1143  0.3586 -1.0136
  956MOL0     H31907   0.464   7.463  -0.312 -0.4373  0.6975 -0.7507
  956MOL0     H31908   0.107   7.226  -0.547 -1.1664  1.0285  0.2654
  956MOL0     H31909  -0.050   7.133  -0.383 -0.7291 -3.6316  1.4836
  956MOL0     H31910  -0.246   6.777  -0.092  0.7317  0.1720 -0.1401
  956MOL0     H31911  -0.436   6.708   0.038  0.7871  2.7946  0.3087
  956MOL0     H31912  -0.111   6.040   0.381 -2.1755 -0.2224 -0.5152
  956MOL0     H31913  -0.006   5.902   0.256 -0.2413 -1.6565 -2.0372
  956MOL0     H31914   0.014   5.364   0.275 -0.8109  3.5687 -1.3131
  956MOL0     H31915   0.152   5.162   0.253 -2.1419  2.0838  1.7261
  956MOL0     H31916   0.567   5.201   0.182  0.9537 -0.4305  0.2756
  956MOL0     H31917   0.539   5.033   0.205  1.4900 -1.4025 -1.2971
  956MOL0     H31918   0.540   5.184  -0.071  1.5396  2.0550  1.1864
  956MOL0     H31919   0.487   5.020  -0.044  0.0901 -0.7181  0.4082
  956MOL0     H31920   0.725   4.957   0.031  0.6352  0.9427  2.0733
  956MOL0     H31921   0.719   5.013  -0.134 -0.9400  2.7594 -1.0172
  956MOL0     H31922   0.767   5.255  -0.063 -0.6151  1.6779  2.4477
  956MOL0     H31923   0.892   5.136  -0.063  0.2595 -3.0051  2.4121
  956MOL0     H31924   0.885   5.273   0.337 -3.1728 -1.2145  1.2350
  956MOL0     H31925   0.443   5.356   0.014 -0.3723 -1.4372 -0.3148
  956MOL0     H31926   0.265   5.619  -0.071  0.4550 -3.1935 -0.6626
  956MOL0     H31927   0.326   5.683   0.092 -0.7693 -0.5129  0.3487
  956MOL0     H31928   0.436   5.600  -0.012 -0.3555 -2.2133 -0.3857
  957MOL0     O31929   6.730   3.853   1.621  0.5855  0.0595  0.3436
  957MOL0     C31930   6.689   3.871   1.505 -0.3863  0.0732 -0.4675
  957MOL0     O31931   6.577   3.794   1.451 -0.1966 -0.1487  0.4007
  957MOL0     C31932   6.525   3.698   1.531  0.1677 -0.1487  0.4211
  957MOL0     C31933   6.470   3.728   1.656 -0.0393  0.2585 -0.9498
  957MOL0     C31934   6.414   3.623   1.746  0.5063  1.1752 -0.3468
  957MOL0     C31935   6.409   3.492   1.701 -0.0140  0.1736  1.1339
  957MOL0     O31936   6.357   3.383   1.766  0.1202  1.3965  0.5925
  957MOL0     C31937   6.337   3.374   1.915 -0.5395 -0.6336 -0.5947
  957MOL0     C31938   6.323   3.231   1.957 -1.0438  0.4797 -0.0572
  957MOL0     C31939   6.192   3.166   1.925  0.3129  0.4390  0.1485
  957MOL0     C31940   6.068   3.212   2.006  0.3065 -0.1451 -0.1137
  957MOL0     C31941   5.944   3.148   1.947 -0.0482 -0.2811 -0.8277
  957MOL0     C31942   5.808   3.183   2.021  1.0757  0.2016  0.8813
  957MOL0     C31943   5.688   3.224   1.920 -0.4693 -0.5784  0.0656
  957MOL0     C31944   5.568   3.280   1.996  0.2712  0.1149 -0.0991
  957MOL0     N31945   5.520   3.186   2.090  0.9568  0.1577 -0.4746
  957MOL0     C31946   5.571   3.156   2.214 -0.7690 -0.2278 -0.8299
  957MOL0     C31947   5.467   3.110   2.289 -0.5174  0.5235 -0.7583
  957MOL0     C31948   5.491   3.105   2.438 -0.3202 -0.0429  0.0960
  957MOL0     C31949   5.503   2.953   2.464  0.7255  0.1144 -0.7813
  957MOL0     C31950   5.540   2.936   2.617 -0.2577  0.3360  0.4279
  957MOL0     C31951   5.420   2.949   2.710 -0.4689 -0.7224 -0.4521
  957MOL0     O31952   5.479   2.976   2.840 -0.3558  0.2052  0.3819
  957MOL0     C31953   5.515   3.111   2.875  1.1078  0.5976 -0.4153
  957MOL0     C31954   5.492   3.229   2.802 -0.2951 -0.6248 -0.3166
  957MOL0     C31955   5.539   3.354   2.836 -0.7609  0.9771  0.6942
  957MOL0     C31956   5.485   3.456   2.737 -0.0115  0.3267 -0.6540
  957MOL0     C31957   5.610   3.368   2.951  0.5622 -0.2345  0.7590
  957MOL0     C31958   5.674   3.492   2.994  0.1140 -0.0486  0.1876
  957MOL0     O31959   5.675   3.515   3.140  0.4091  0.1654  0.8347
  957MOL0     C31960   5.743   3.623   3.182  0.2158 -0.3250  1.1107
  957MOL0     C31961   5.849   3.599   3.266 -0.6723 -0.5821  0.1162
  957MOL0     C31962   5.905   3.702   3.335 -0.3101  0.4586 -0.1133
  957MOL0     C31963   5.886   3.837   3.304  0.6132 -0.1620  0.1498
  957MOL0     O31964   5.955   3.928   3.375 -0.2021  0.3581  0.1379
  957MOL0     C31965   6.018   4.029   3.303  0.3648 -0.0186  0.2773
  957MOL0     C31966   6.161   4.016   3.264  0.4923 -0.2213  0.2798
  957MOL0     C31967   6.243   3.957   3.387  1.1801  0.0871  0.5623
  957MOL0     C31968   6.371   3.906   3.333  0.2279 -0.4834  0.7543
  957MOL0     C31969   6.453   3.869   3.451  0.4051  0.5437 -0.0707
  957MOL0     C31970   6.606   3.849   3.410 -0.5143 -0.8107  0.9658
  957MOL0     C31971   6.695   3.978   3.402  1.0547 -0.4463  0.9334
  957MOL0     C31972   6.840   3.943   3.426 -0.6731 -0.7966 -0.0992
  957MOL0    Cl31973   6.879   3.841   3.286  0.7258  0.7758 -0.1728
  957MOL0     C31974   5.779   3.864   3.215  0.0072 -0.2672 -0.3277
  957MOL0     C31975   5.710   3.757   3.150  0.0144 -0.3177 -0.6502
  957MOL0     O31976   5.728   3.562   2.909  0.3765 -0.2604 -0.4612
  957MOL0     C31977   5.626   3.250   3.029  1.1247  0.0877  0.0335
  957MOL0     C31978   5.579   3.116   2.999 -0.5212 -1.4818 -0.6231
  957MOL0     N31979   5.360   3.101   2.202 -0.2820  0.1992  0.6075
  957MOL0     N31980   5.390   3.143   2.081  0.4165 -0.0899 -0.5197
  957MOL0     C31981   6.434   3.474   1.568  0.7205 -0.2784  0.6458
  957MOL0     C31982   6.501   3.564   1.486 -0.6962  0.0378 -0.3746
  957MOL0     C31983   6.754   3.969   1.424  0.4795 -0.2322 -0.2400
  957MOL0     C31984   6.726   3.956   1.290  0.2124  0.3625  0.3192
  957MOL0     C31985   6.785   4.043   1.199 -1.4285 -0.1218  0.3409
  957MOL0     C31986   6.873   4.140   1.235 -0.4290 -0.5281  0.0251
  957MOL0     O31987   6.924   4.212   1.130  0.6829  0.2546 -0.2950
  957MOL0     C31988   7.025   4.321   1.149 -0.5876  0.6246  0.8458
  957MOL0     C31989   7.169   4.278   1.116  0.1780 -1.0706 -0.1503
  957MOL0     C31990   7.230   4.164   1.197  0.8381 -0.3385  0.5229
  957MOL0     C31991   7.374   4.130   1.166  0.0558 -0.0104  0.0240
  957MOL0     C31992   7.457   4.230   1.223 -0.6276 -0.8149  0.2086
  957MOL0     C31993   7.540   4.312   1.254 -0.3159  0.7052 -0.0483
  957MOL0     C31994   6.898   4.152   1.372  0.0045  0.6991  0.0969
  957MOL0     C31995   6.845   4.065   1.469 -0.1093  0.9155 -0.2293
  957MOL0     C31996   6.894   4.083   1.612 -0.4398  0.2428 -0.1434
  957MOL0     H31997   6.495   3.824   1.700  1.8804 -1.3235  1.7167
  957MOL0     H31998   6.373   3.634   1.846 -1.6034 -1.6807 -0.7382
  957MOL0     H31999   6.248   3.419   1.961  0.0344 -2.8930  3.1567
  957MOL0     H32000   6.425   3.418   1.962 -0.2051 -2.2175  0.3197
  957MOL0     H32001   6.407   3.177   1.914 -0.1072  1.8649 -0.0025
  957MOL0     H32002   6.333   3.224   2.066 -2.9211  0.7394  0.1738
  957MOL0     H32003   6.176   3.184   1.818  0.5365  1.0743  0.2194
  957MOL0     H32004   6.210   3.060   1.942  3.5100  0.7227 -0.7991
  957MOL0     H32005   6.077   3.187   2.112  5.8751  0.7673 -0.0819
  957MOL0     H32006   6.046   3.319   2.007 -2.2646 -0.6106 -0.2777
  957MOL0     H32007   5.942   3.039   1.950  1.0125 -0.3490  2.9427
  957MOL0     H32008   5.932   3.182   1.844 -2.3697 -1.0576 -0.8660
  957MOL0     H32009   5.768   3.102   2.082 -2.8425  2.2000  1.2693
  957MOL0     H32010   5.825   3.269   2.086 -1.0468  1.3434  0.0171
  957MOL0     H32011   5.641   3.139   1.869 -2.7577 -1.9855  3.9791
  957MOL0     H32012   5.724   3.293   1.845 -0.7721 -0.2895  0.1802
  957MOL0     H32013   5.600   3.371   2.049 -1.2879 -0.1485  1.3786
  957MOL0     H32014   5.492   3.302   1.921 -1.6593 -3.0993  0.7317
  957MOL0     H32015   5.671   3.163   2.255 -0.4715 -0.2218 -1.5437
  957MOL0     H32016   5.408   3.152   2.491 -1.6502 -0.0317 -1.8822
  957MOL0     H32017   5.589   3.151   2.457  1.0999 -2.6861 -0.2672
  957MOL0     H32018   5.407   2.901   2.456  0.9632 -0.4855  0.1083
  957MOL0     H32019   5.573   2.906   2.394 -0.4563 -1.5351 -0.9220
  957MOL0     H32020   5.580   2.835   2.632 -2.1434 -0.3187  1.3784
  957MOL0     H32021   5.612   3.011   2.651  1.9543 -0.2989 -2.4683
  957MOL0     H32022   5.342   3.021   2.681  0.2953  0.2465 -0.1361
  957MOL0     H32023   5.368   2.853   2.718  0.5218 -1.2040  0.4049
  957MOL0     H32024   5.448   3.210   2.705  2.3098 -0.4030 -1.6192
  957MOL0     H32025   5.522   3.558   2.751 -1.5351  0.5685  2.4356
  957MOL0     H32026   5.379   3.467   2.763  0.1139  0.1637 -0.0510
  957MOL0     H32027   5.500   3.411   2.638  1.2385 -0.8750  0.0511
  957MOL0     H32028   5.878   3.498   3.293 -0.3982 -0.3130  0.8562
  957MOL0     H32029   5.966   3.664   3.417  0.0394  1.3368  0.0429
  957MOL0     H32030   5.949   4.061   3.224 -1.4628 -0.4617  1.6479
  957MOL0     H32031   6.016   4.096   3.389 -0.9535 -1.1926  1.2019
  957MOL0     H32032   6.159   3.944   3.182 -1.0905  0.4767 -0.3382
  957MOL0     H32033   6.189   4.113   3.223  1.5199  0.1389  1.7741
  957MOL0     H32034   6.184   3.873   3.425 -1.7496  1.4171 -0.7440
  957MOL0     H32035   6.256   4.035   3.462 -0.1258  0.9264 -0.0497
  957MOL0     H32036   6.400   3.998   3.282 -2.6187  1.1866  1.8875
  957MOL0     H32037   6.337   3.823   3.270 -2.7382 -0.9696  2.7545
  957MOL0     H32038   6.447   3.921   3.547 -0.4035 -1.8499  1.2609
  957MOL0     H32039   6.424   3.767   3.478  2.5704  0.3484  1.8126
  957MOL0     H32040   6.609   3.794   3.316  0.3503  0.6318  0.1056
  957MOL0     H32041   6.649   3.783   3.486 -1.5770  1.1449  3.4349
  957MOL0     H32042   6.668   4.058   3.471  0.9251  3.0361 -2.7567
  957MOL0     H32043   6.685   4.025   3.303 -1.4617 -1.4872  0.6138
  957MOL0     H32044   6.852   3.878   3.513  0.0269 -1.5880 -0.7740
  957MOL0     H32045   6.902   4.033   3.432 -1.3848 -0.1507 -1.9001
  957MOL0     H32046   5.760   3.968   3.190  1.6661 -0.5016 -2.8423
  957MOL0     H32047   5.639   3.786   3.073  0.5182  1.9928 -0.3248
  957MOL0     H32048   5.689   3.266   3.116 -0.6604 -1.8358  1.8056
  957MOL0     H32049   5.582   3.035   3.071 -1.2777 -1.4515 -0.5546
  957MOL0     H32050   6.422   3.375   1.525 -1.0871  0.5616 -0.9411
  957MOL0     H32051   6.517   3.539   1.382  0.7141 -0.3592 -0.0737
  957MOL0     H32052   6.673   3.871   1.249 -0.3507 -0.0215  1.8114
  957MOL0     H32053   6.752   4.022   1.098 -2.4951 -3.3664  1.2347
  957MOL0     H32054   7.003   4.398   1.075 -3.4191 -1.2813 -0.5024
  957MOL0     H32055   7.021   4.368   1.248  1.9813  2.6223  0.1047
  957MOL0     H32056   7.221   4.374   1.124 -0.4394 -0.6221 -1.2317
  957MOL0     H32057   7.169   4.240   1.013 -2.5475 -4.5480  0.9699
  957MOL0     H32058   7.198   4.175   1.301 -1.3920 -6.2497  0.8063
  957MOL0     H32059   7.178   4.074   1.163  1.4385 -1.6101  2.7950
  957MOL0     H32060   7.393   4.116   1.059  2.7347 -3.4327  0.7541
  957MOL0     H32061   7.412   4.032   1.196  0.2034 -0.1425 -0.5817
  957MOL0     H32062   7.615   4.389   1.264 -1.8261  1.9668  2.8817
  957MOL0     H32063   6.963   4.232   1.408  0.8798  0.5773 -1.1656
  957MOL0     H32064   6.812   4.085   1.684  0.4947 -5.2381  1.5697
  957MOL0     H32065   6.957   3.995   1.629 -0.7458  0.0625  0.0522
  957MOL0     H32066   6.956   4.172   1.627  2.9389 -2.0654  0.8099
  958MOL0     O32067   9.344   8.339   5.841 -0.2908  0.0415  0.1411
  958MOL0     C32068   9.400   8.338   5.739 -0.0992 -0.4255  0.7302
  958MOL0     O32069   9.341   8.298   5.616 -0.5597  0.3367  0.0974
  958MOL0     C32070   9.204   8.293   5.602 -0.1383 -0.6268  0.3812
  958MOL0     C32071   9.114   8.212   5.678 -0.5817 -0.9754 -0.2171
  958MOL0     C32072   8.979   8.243   5.673 -0.2336  0.1416  0.1025
  958MOL0     C32073   8.930   8.333   5.569  0.1800  0.0628 -0.3793
  958MOL0     O32074   8.797   8.352   5.529  0.1656 -0.6484 -0.0629
  958MOL0     C32075   8.701   8.338   5.635 -0.7598  0.0804  0.7335
  958MOL0     C32076   8.569   8.376   5.570  0.6428 -0.0773 -0.7730
  958MOL0     C32077   8.563   8.518   5.520  0.0394 -0.1277 -0.7591
  958MOL0     C32078   8.601   8.621   5.640 -0.7748  0.3804  0.1457
  958MOL0     C32079   8.492   8.660   5.739  0.2390 -0.0495  0.4859
  958MOL0     C32080   8.490   8.565   5.857  0.6071  0.0274 -0.2423
  958MOL0     C32081   8.378   8.614   5.955 -0.1696 -0.3028  0.1198
  958MOL0     C32082   8.417   8.567   6.097  0.7740  0.3204 -0.1496
  958MOL0     N32083   8.310   8.605   6.184  0.3441 -0.4596  0.4121
  958MOL0     C32084   8.210   8.516   6.221 -0.5015 -0.2591 -0.0932
  958MOL0     C32085   8.128   8.591   6.308  0.1806  0.4512 -0.0348
  958MOL0     C32086   7.996   8.552   6.371 -0.7092  0.6914  0.4862
  958MOL0     C32087   7.929   8.442   6.294  0.1126  0.9718 -0.3479
  958MOL0     C32088   7.782   8.404   6.335 -0.1188  0.0304 -0.2251
  958MOL0     C32089   7.772   8.352   6.479 -0.4458  0.6239  1.0055
  958MOL0     O32090   7.639   8.339   6.539  0.3271 -0.4200  0.5177
  958MOL0     C32091   7.582   8.220   6.573  0.5335  0.2830 -0.5428
  958MOL0     C32092   7.507   8.229   6.690  0.1943  0.3162 -1.3713
  958MOL0     C32093   7.439   8.121   6.745  0.0526  0.0382 -0.4593
  958MOL0     C32094   7.376   8.123   6.884 -0.4145 -0.5856  0.3081
  958MOL0     C32095   7.434   8.002   6.666 -1.0379 -1.1191  0.0803
  958MOL0     C32096   7.334   7.898   6.694 -0.4720 -0.1396  0.5106
  958MOL0     O32097   7.374   7.761   6.694  0.4143 -0.9885  0.1249
  958MOL0     C32098   7.283   7.668   6.712  0.2247 -0.6135  0.4585
  958MOL0     C32099   7.193   7.664   6.827 -0.2401  0.5489 -0.8947
  958MOL0     C32100   7.094   7.566   6.832 -0.9181 -0.6945 -0.8636
  958MOL0     C32101   7.063   7.479   6.720  0.0123 -0.1615  0.5890
  958MOL0     O32102   6.951   7.402   6.715 -0.0049  0.1741  0.8989
  958MOL0     C32103   6.854   7.415   6.821 -0.0478 -0.5738  0.3401
  958MOL0     C32104   6.882   7.308   6.941 -0.0043 -0.0864 -0.0914
  958MOL0     C32105   6.800   7.324   7.066  0.7246  0.0926  0.8026
  958MOL0     C32106   6.650   7.305   7.026  0.5368  0.5852 -0.1613
  958MOL0     C32107   6.618   7.178   6.947  1.4393 -0.0714  0.2996
  958MOL0     C32108   6.478   7.114   6.983 -0.5834  1.0786 -0.1179
  958MOL0     C32109   6.364   7.212   6.948 -0.0694  0.9404  0.8461
  958MOL0     C32110   6.254   7.203   7.064 -0.5255  0.3620  0.2336
  958MOL0    Cl32111   6.294   7.300   7.217 -0.3225  0.0829  0.0998
  958MOL0     C32112   7.147   7.478   6.612  0.3686  0.6672 -0.6439
  958MOL0     C32113   7.261   7.571   6.608 -0.4722  0.2168  0.1982
  958MOL0     O32114   7.215   7.940   6.712 -0.2883  0.3593 -0.0446
  958MOL0     C32115   7.521   7.986   6.553  0.2363 -0.1876 -0.6222
  958MOL0     C32116   7.602   8.097   6.513  0.3081  0.4123 -0.1715
  958MOL0     N32117   8.188   8.713   6.318  0.4302  0.1801  0.1449
  958MOL0     N32118   8.299   8.722   6.256 -0.7703  0.5387  0.3029
  958MOL0     C32119   9.017   8.400   5.494 -0.6623  0.4700  0.5478
  958MOL0     C32120   9.156   8.391   5.512  0.8428  0.8778 -0.3998
  958MOL0     C32121   9.531   8.395   5.725 -0.2612 -0.1377 -0.3290
  958MOL0     C32122   9.567   8.480   5.622 -0.9916 -0.4193  0.0779
  958MOL0     C32123   9.696   8.535   5.629 -0.6051  0.2047  0.1216
  958MOL0     C32124   9.797   8.493   5.714  0.8076  0.3038 -0.6009
  958MOL0     O32125   9.928   8.536   5.699 -0.4107 -0.6269 -0.6595
  958MOL0     C32126  10.032   8.464   5.775 -0.8144  0.1259 -0.3669
  958MOL0     C32127  10.170   8.498   5.719  0.5267 -0.0565  0.4398
  958MOL0     C32128  10.193   8.647   5.747  0.0906 -0.2355 -0.3931
  958MOL0     C32129  10.339   8.700   5.719  0.1925  0.4081 -0.5029
  958MOL0     C32130  10.456   8.639   5.780  0.6364  0.4048 -0.8671
  958MOL0     C32131  10.555   8.599   5.826 -0.5476 -0.3979 -0.5783
  958MOL0     C32132   9.764   8.395   5.813 -0.1218  0.6550  0.3940
  958MOL0     C32133   9.631   8.351   5.825 -0.8672  0.0373  0.8482
  958MOL0     C32134   9.605   8.257   5.941 -0.8265 -0.4684  0.0871
  958MOL0     H32135   9.150   8.137   5.748  2.8926 -1.9324 -2.7421
  958MOL0     H32136   8.917   8.184   5.740  1.7343 -5.1453 -2.1905
  958MOL0     H32137   8.729   8.403   5.718  0.9563 -1.1275  1.1607
  958MOL0     H32138   8.710   8.238   5.678  0.9502  1.1126  2.9817
  958MOL0     H32139   8.540   8.308   5.489 -0.1857 -0.9195  0.1934
  958MOL0     H32140   8.496   8.377   5.652  0.9346 -0.4630 -0.5086
  958MOL0     H32141   8.642   8.523   5.445  2.1212  0.0096  1.3276
  958MOL0     H32142   8.468   8.547   5.473  0.0244  0.4439 -0.3913
  958MOL0     H32143   8.690   8.598   5.698 -1.3407  0.8567  1.2294
  958MOL0     H32144   8.611   8.715   5.585  2.3287  2.0926  3.2588
  958MOL0     H32145   8.400   8.658   5.680 -0.2177 -1.2610  1.1988
  958MOL0     H32146   8.514   8.762   5.772  1.1839 -0.7090  2.0088
  958MOL0     H32147   8.464   8.463   5.828 -2.4908  0.8337 -0.6842
  958MOL0     H32148   8.588   8.565   5.907  0.4745 -1.1983  0.0430
  958MOL0     H32149   8.280   8.581   5.920 -0.1964 -0.5109  0.3844
  958MOL0     H32150   8.362   8.722   5.962 -3.3480 -0.5167 -2.1200
  958MOL0     H32151   8.421   8.458   6.091 -0.6992  0.2604 -0.4484
  958MOL0     H32152   8.514   8.609   6.126  2.1385 -2.4417 -0.4371
  958MOL0     H32153   8.196   8.415   6.185 -2.6431 -0.0468  0.0278
  958MOL0     H32154   7.934   8.642   6.368 -0.1273  1.0811  0.1015
  958MOL0     H32155   8.002   8.536   6.480 -1.6742  0.8258  0.5721
  958MOL0     H32156   7.912   8.446   6.186 -2.1971 -1.5203 -0.1972
  958MOL0     H32157   7.985   8.350   6.312 -2.5383 -1.4089 -3.1976
  958MOL0     H32158   7.722   8.495   6.321  1.7957  1.3001 -0.5422
  958MOL0     H32159   7.741   8.325   6.271  2.9940 -1.3782 -0.6519
  958MOL0     H32160   7.824   8.255   6.481  4.8387  3.0777 -0.0351
  958MOL0     H32161   7.836   8.420   6.535  2.8579 -0.0946 -1.5927
  958MOL0     H32162   7.503   8.320   6.750 -2.2278 -0.5258 -0.1136
  958MOL0     H32163   7.403   8.216   6.936 -4.2134  1.5476 -1.1745
  958MOL0     H32164   7.398   8.039   6.952 -1.3811 -2.9120 -2.0715
  958MOL0     H32165   7.268   8.136   6.877 -0.5296 -1.3008  0.6711
  958MOL0     H32166   7.222   7.725   6.912 -1.5206 -0.3121  0.1977
  958MOL0     H32167   7.042   7.568   6.927 -0.5165 -1.5322 -0.6204
  958MOL0     H32168   6.857   7.513   6.869 -0.0465 -1.1448  1.5267
  958MOL0     H32169   6.754   7.400   6.778  0.0464 -0.0489 -0.0727
  958MOL0     H32170   6.880   7.207   6.900  1.6471  0.7613 -2.5159
  958MOL0     H32171   6.986   7.322   6.969  0.9266 -1.6676 -2.4085
  958MOL0     H32172   6.825   7.420   7.113  0.6846  0.4377  0.1406
  958MOL0     H32173   6.820   7.248   7.142 -4.0117  0.8517  3.1135
  958MOL0     H32174   6.613   7.398   6.984  3.2131  2.2389  0.8737
  958MOL0     H32175   6.590   7.295   7.116  0.2984  0.6217 -0.3169
  958MOL0     H32176   6.624   7.193   6.839  0.7190  0.8848  0.3783
  958MOL0     H32177   6.693   7.103   6.973  1.4928 -0.1685 -0.1301
  958MOL0     H32178   6.477   7.072   7.084  0.7443 -2.8984 -1.5760
  958MOL0     H32179   6.457   7.024   6.924  2.8188  2.1400 -3.3118
  958MOL0     H32180   6.316   7.175   6.857  1.2183 -0.9287  0.8907
  958MOL0     H32181   6.398   7.315   6.931  0.7012  0.4007 -1.2536
  958MOL0     H32182   6.231   7.099   7.089 -2.3289  0.8580  0.7455
  958MOL0     H32183   6.160   7.240   7.021 -2.2409 -0.5071  2.9934
  958MOL0     H32184   7.118   7.408   6.535 -0.0627  1.4626 -1.2255
  958MOL0     H32185   7.337   7.576   6.531 -0.9925  2.3005 -0.2545
  958MOL0     H32186   7.535   7.908   6.479  0.6734 -0.3366 -0.3850
  958MOL0     H32187   7.673   8.094   6.431 -0.0618 -1.7822 -0.4540
  958MOL0     H32188   8.972   8.461   5.416 -3.7552 -2.2971 -0.1014
  958MOL0     H32189   9.225   8.451   5.453 -1.9191  0.3323 -4.6551
  958MOL0     H32190   9.491   8.512   5.550  1.2226  1.8069 -1.4556
  958MOL0     H32191   9.711   8.618   5.561  2.2778 -0.6741 -0.4770
  958MOL0     H32192  10.024   8.494   5.880 -2.4238 -1.2537 -0.0639
  958MOL0     H32193  10.019   8.356   5.771 -0.2328 -0.3800  4.5451
  958MOL0     H32194  10.180   8.469   5.614  1.5457 -2.2831  1.0746
  958MOL0     H32195  10.254   8.446   5.765  0.0701 -1.2657 -0.0547
  958MOL0     H32196  10.125   8.701   5.680  0.1651 -3.6988 -3.5277
  958MOL0     H32197  10.158   8.671   5.848  1.4102 -0.4183  0.1243
  958MOL0     H32198  10.351   8.804   5.749 -1.4221  0.2882  0.7154
  958MOL0     H32199  10.351   8.684   5.611  4.5127 -1.0928  0.0228
  958MOL0     H32200  10.639   8.559   5.880  1.5346  3.0206 -0.9904
  958MOL0     H32201   9.839   8.362   5.884  3.2106  1.3364 -2.5042
  958MOL0     H32202   9.532   8.293   6.015 -0.7459 -1.7840  0.8340
  958MOL0     H32203   9.573   8.159   5.905 -2.0117  0.5646 -1.8535
  958MOL0     H32204   9.694   8.242   6.002  0.1576  0.8828 -0.9651
  959MOL0     O32205   6.390   0.219   7.426 -0.4379 -0.6044  0.5904
  959MOL0     C32206   6.450   0.127   7.476  0.4470 -0.2933  0.0590
  959MOL0     O32207   6.392   0.023   7.543 -0.0746 -0.4461  0.1301
  959MOL0     C32208   6.257   0.020   7.559  0.3808 -0.9648  0.0834
  959MOL0     C32209   6.179   0.137   7.570 -0.1215  0.3674 -0.4736
  959MOL0     C32210   6.041   0.131   7.587  0.4419 -0.2467  0.2893
  959MOL0     C32211   5.975   0.018   7.619  1.6437 -0.6230  0.2943
  959MOL0     O32212   5.839   0.017   7.659  0.5989 -0.2681  0.6852
  959MOL0     C32213   5.731   0.080   7.581 -0.2524  0.0725  0.4993
  959MOL0     C32214   5.651  -0.012   7.494  0.1753  0.0080 -0.1869
  959MOL0     C32215   5.590   0.054   7.375 -0.3224  0.1634 -0.5892
  959MOL0     C32216   5.483  -0.032   7.305  0.2125  1.0435 -0.2724
  959MOL0     C32217   5.440   0.035   7.180 -0.4149 -0.1635 -0.2247
  959MOL0     C32218   5.289   0.030   7.156  0.1885  0.9200 -0.6969
  959MOL0     C32219   5.265  -0.101   7.066  0.4778  0.2582  0.3713
  959MOL0     C32220   5.114  -0.123   7.037  0.6767  0.1155 -0.0724
  959MOL0     N32221   5.070  -0.044   6.923 -0.1718  0.4499 -0.3358
  959MOL0     C32222   5.071  -0.086   6.791 -0.3600  0.4868  0.0336
  959MOL0     C32223   5.012   0.009   6.718  0.0606  1.4769 -0.1514
  959MOL0     C32224   5.007   0.009   6.566 -0.8430 -0.2639  0.5018
  959MOL0     C32225   4.972  -0.126   6.500  0.3372  0.3836 -0.5339
  959MOL0     C32226   4.968  -0.114   6.346 -0.5562 -0.0879  0.3008
  959MOL0     C32227   5.092  -0.172   6.268 -0.4852  0.3093 -0.1586
  959MOL0     O32228   5.213  -0.112   6.318  0.1543  0.4516  0.8640
  959MOL0     C32229   5.330  -0.142   6.256  1.0385 -0.0247  0.5291
  959MOL0     C32230   5.432  -0.056   6.287  0.2719  0.6098  0.5890
  959MOL0     C32231   5.568  -0.083   6.236 -0.0571 -0.2762  0.7192
  959MOL0     C32232   5.683   0.012   6.272  0.6711 -0.6767 -0.3570
  959MOL0     C32233   5.575  -0.192   6.134  0.3435 -0.6986 -0.9741
  959MOL0     C32234   5.706  -0.235   6.072 -0.5936  0.4244 -0.7999
  959MOL0     O32235   5.694  -0.325   5.971  0.0468 -0.4693 -0.6115
  959MOL0     C32236   5.807  -0.375   5.910  0.4240 -0.3188  0.2974
  959MOL0     C32237   5.792  -0.377   5.774  0.6750  0.4336  0.2567
  959MOL0     C32238   5.888  -0.427   5.694 -0.2659  1.0578 -0.5964
  959MOL0     C32239   6.018  -0.473   5.744  0.5282 -0.5368  0.7293
  959MOL0     O32240   6.116  -0.511   5.665  0.1713 -1.0578  0.2075
  959MOL0     C32241   6.112  -0.456   5.532  0.3733  0.4091  0.1371
  959MOL0     C32242   6.234  -0.509   5.466  0.1427 -0.8873  1.3550
  959MOL0     C32243   6.222  -0.658   5.423 -0.5803 -0.2825  0.1725
  959MOL0     C32244   6.257  -0.763   5.541  0.0571 -1.1091  0.6245
  959MOL0     C32245   6.257  -0.907   5.491  0.3304  0.7858  0.6021
  959MOL0     C32246   6.286  -1.005   5.609  1.2873 -0.4518 -0.4833
  959MOL0     C32247   6.337  -1.136   5.568  1.1527 -0.1301  0.0107
  959MOL0     C32248   6.307  -1.227   5.678  0.5762 -0.0181 -0.5057
  959MOL0    Cl32249   6.356  -1.392   5.620  0.1153  0.0790 -0.2533
  959MOL0     C32250   6.046  -0.456   5.877  0.6172 -0.4409  0.1867
  959MOL0     C32251   5.944  -0.408   5.958  1.0312 -0.0408  0.5303
  959MOL0     O32252   5.813  -0.200   6.124 -0.3524  0.3911 -0.9608
  959MOL0     C32253   5.457  -0.262   6.102  0.3937  0.5139 -0.0370
  959MOL0     C32254   5.336  -0.242   6.165  0.5626 -0.2797 -0.1865
  959MOL0     N32255   4.959   0.107   6.811 -0.4096  0.7346  0.2734
  959MOL0     N32256   4.996   0.069   6.933  0.2569  0.1696  0.5152
  959MOL0     C32257   6.050  -0.100   7.618  0.1314  1.0067  0.1047
  959MOL0     C32258   6.184  -0.102   7.583 -0.3214  0.2797 -0.3832
  959MOL0     C32259   6.600   0.124   7.456  0.0509 -0.5023 -1.0525
  959MOL0     C32260   6.663  -0.002   7.486 -0.2116  0.3117  0.7517
  959MOL0     C32261   6.794  -0.024   7.471  0.6901  0.1753 -0.0187
  959MOL0     C32262   6.868   0.070   7.409  0.6792  0.0672  0.1981
  959MOL0     O32263   6.998   0.043   7.365  0.1398  0.4975  0.2044
  959MOL0     C32264   7.005  -0.075   7.269 -0.4501 -0.0973  0.1366
  959MOL0     C32265   7.155  -0.133   7.270  0.1589 -0.6222  0.2981
  959MOL0     C32266   7.204  -0.147   7.414  0.4075 -0.3573  0.2745
  959MOL0     C32267   7.331  -0.219   7.400 -0.3036 -0.1081 -0.5948
  959MOL0     C32268   7.411  -0.203   7.523 -0.3339  0.0903  0.5491
  959MOL0     C32269   7.439  -0.185   7.641 -1.6424 -0.5839 -0.0193
  959MOL0     C32270   6.815   0.195   7.376 -0.2289  0.0766 -0.3281
  959MOL0     C32271   6.683   0.227   7.406 -0.6690  0.6203  0.4126
  959MOL0     C32272   6.641   0.359   7.372 -0.3293  0.1132  0.8155
  959MOL0     H32273   6.224   0.235   7.578  3.4198 -0.9444 -2.1295
  959MOL0     H32274   5.986   0.217   7.623  0.5240 -0.6339  1.3593
  959MOL0     H32275   5.779   0.155   7.517 -0.9828 -0.2821 -0.4968
  959MOL0     H32276   5.668   0.122   7.660 -2.8808 -1.5499 -0.5928
  959MOL0     H32277   5.716  -0.094   7.461  0.6143  0.7906 -1.3529
  959MOL0     H32278   5.565  -0.051   7.549  0.2455  1.4122  0.9618
  959MOL0     H32279   5.525   0.139   7.401 -1.1506 -1.0787  1.7391
  959MOL0     H32280   5.667   0.080   7.303  1.9359 -1.1634  1.2174
  959MOL0     H32281   5.523  -0.131   7.280  0.2955  1.6235 -2.7082
  959MOL0     H32282   5.401  -0.044   7.376  0.8770 -1.2553  0.1744
  959MOL0     H32283   5.512  -0.004   7.107 -0.0089 -1.0518  0.6213
  959MOL0     H32284   5.467   0.140   7.192 -0.3239 -0.4198  2.5806
  959MOL0     H32285   5.246   0.028   7.256  2.3133  0.4378  0.2585
  959MOL0     H32286   5.259   0.125   7.111 -3.4442  2.4355  4.1109
  959MOL0     H32287   5.302  -0.190   7.117 -0.8477  1.1798  3.1139
  959MOL0     H32288   5.317  -0.105   6.970 -0.4053 -2.0128 -0.0790
  959MOL0     H32289   5.095  -0.227   7.006  1.7153  0.0938 -0.6987
  959MOL0     H32290   5.058  -0.113   7.130 -0.9507 -1.5518 -0.7893
  959MOL0     H32291   5.134  -0.172   6.768 -0.4584  0.3373  0.3091
  959MOL0     H32292   5.095   0.057   6.521 -1.1310  0.5575  0.7823
  959MOL0     H32293   4.932   0.084   6.537 -1.3998 -1.2867 -0.8103
  959MOL0     H32294   5.051  -0.200   6.514 -0.3665 -0.5899 -1.5562
  959MOL0     H32295   4.879  -0.167   6.541 -0.6615  4.1875  1.5534
  959MOL0     H32296   4.875  -0.162   6.313 -0.7634 -0.9944  2.1021
  959MOL0     H32297   4.958  -0.010   6.315 -0.8983 -0.2521 -0.1657
  959MOL0     H32298   5.109  -0.278   6.291  1.0650 -0.0766 -2.7020
  959MOL0     H32299   5.073  -0.164   6.160  0.4078  1.6945 -0.2265
  959MOL0     H32300   5.400   0.020   6.358 -1.1711  0.5727  0.0162
  959MOL0     H32301   5.713   0.082   6.194  1.0636  0.6260  0.9202
  959MOL0     H32302   5.766  -0.048   6.310  0.8359 -0.0977  0.2091
  959MOL0     H32303   5.644   0.073   6.354 -0.7475  2.0058 -2.8545
  959MOL0     H32304   5.701  -0.352   5.721  0.6360 -0.4015 -0.0803
  959MOL0     H32305   5.856  -0.436   5.591 -2.2547 -2.5796  0.1766
  959MOL0     H32306   6.027  -0.479   5.467 -0.0595 -0.0571  0.8475
  959MOL0     H32307   6.114  -0.347   5.537  0.0187  0.6182 -2.7064
  959MOL0     H32308   6.256  -0.461   5.370  2.1733  0.0450  2.2099
  959MOL0     H32309   6.326  -0.501   5.525  1.5430 -1.2943 -0.6626
  959MOL0     H32310   6.282  -0.676   5.333 -2.9256  2.1697 -2.0531
  959MOL0     H32311   6.115  -0.669   5.400 -0.7721  0.6144  0.6118
  959MOL0     H32312   6.184  -0.758   5.622 -0.6814  2.8744 -0.1263
  959MOL0     H32313   6.359  -0.741   5.574  0.3305 -2.5219  0.7841
  959MOL0     H32314   6.159  -0.926   5.448  0.6235 -1.0611  0.7026
  959MOL0     H32315   6.334  -0.929   5.417 -0.5654  2.7370 -1.0188
  959MOL0     H32316   6.190  -1.017   5.661  1.2444  2.4393  0.2826
  959MOL0     H32317   6.360  -0.962   5.677 -1.6491  1.2257  1.9035
  959MOL0     H32318   6.444  -1.135   5.544  1.0023  4.6369 -1.3788
  959MOL0     H32319   6.294  -1.175   5.475  2.6185 -1.0763 -0.3133
  959MOL0     H32320   6.204  -1.223   5.715  0.4350  1.1193 -0.9871
  959MOL0     H32321   6.362  -1.198   5.768 -1.2649  0.0696  0.6475
  959MOL0     H32322   6.142  -0.482   5.920  0.0586 -1.1596  1.0366
  959MOL0     H32323   5.962  -0.394   6.064  1.9958  0.4154  0.3198
  959MOL0     H32324   5.461  -0.343   6.029  1.2903  0.6837 -0.1919
  959MOL0     H32325   5.253  -0.308   6.140 -3.0293  1.8544  4.6225
  959MOL0     H32326   5.999  -0.189   7.655 -1.6956  1.3900 -1.3189
  959MOL0     H32327   6.220  -0.204   7.595 -1.1651 -0.1066 -1.0097
  959MOL0     H32328   6.607  -0.094   7.504  0.7445 -0.7638 -1.3113
  959MOL0     H32329   6.835  -0.123   7.492 -2.9217 -1.2333  1.1638
  959MOL0     H32330   6.943  -0.157   7.308 -0.0627  0.3182  1.6999
  959MOL0     H32331   6.968  -0.046   7.170  0.1249  1.1057  0.2587
  959MOL0     H32332   7.218  -0.063   7.213 -1.5103 -1.4576 -2.7985
  959MOL0     H32333   7.150  -0.219   7.202  3.6326  0.2225 -1.2994
  959MOL0     H32334   7.207  -0.051   7.468  2.3497 -1.0799  1.5843
  959MOL0     H32335   7.138  -0.202   7.481  0.2524 -0.3058  0.1632
  959MOL0     H32336   7.383  -0.195   7.307 -1.0288 -0.5602 -1.1266
  959MOL0     H32337   7.303  -0.324   7.387  0.9710 -0.8619  2.0635
  959MOL0     H32338   7.460  -0.165   7.744  0.0325  2.5335 -0.8704
  959MOL0     H32339   6.880   0.266   7.326  2.5985  0.1260  3.0123
  959MOL0     H32340   6.607   0.405   7.465  0.8671  3.8969 -0.4292
  959MOL0     H32341   6.730   0.416   7.343 -0.3940  1.6592  3.3599
  959MOL0     H32342   6.573   0.360   7.286 -0.3011 -3.9568  0.5676
  960MOL0     O32343  11.330   4.259   4.411  0.2073  0.0756 -0.6580
  960MOL0     C32344  11.423   4.248   4.493  0.0871  0.6698 -0.0248
  960MOL0     O32345  11.500   4.346   4.545  0.0698  0.0895 -0.0327
  960MOL0     C32346  11.464   4.470   4.501 -0.7053  0.1690 -0.2092
  960MOL0     C32347  11.546   4.556   4.429  0.0399  0.2741 -0.3847
  960MOL0     C32348  11.523   4.690   4.406 -0.3334 -0.1346 -0.5154
  960MOL0     C32349  11.406   4.748   4.440  0.4901 -0.8748 -0.3231
  960MOL0     O32350  11.356   4.870   4.395 -0.3720 -0.4188 -0.4481
  960MOL0     C32351  11.449   4.959   4.333  0.7071 -0.3704 -0.0116
  960MOL0     C32352  11.545   5.037   4.429  0.0520  0.0571  0.2753
  960MOL0     C32353  11.654   5.102   4.348 -0.5463 -0.4554 -0.7763
  960MOL0     C32354  11.615   5.216   4.252  0.5837  0.3864 -0.4365
  960MOL0     C32355  11.747   5.288   4.208 -0.3008 -0.1775 -0.1624
  960MOL0     C32356  11.710   5.419   4.117 -0.1430  0.3040 -0.6437
  960MOL0     C32357  11.787   5.425   3.991  0.5340 -0.1545 -0.9377
  960MOL0     C32358  11.931   5.479   4.012  0.9229  0.0914 -0.2034
  960MOL0     N32359  12.005   5.509   3.890 -0.3030  0.5900  0.6586
  960MOL0     C32360  12.055   5.414   3.812  0.3415  0.4700 -0.7456
  960MOL0     C32361  12.054   5.468   3.691 -0.2546  0.0831 -0.4774
  960MOL0     C32362  12.095   5.401   3.560  0.1138  0.3297 -0.3637
  960MOL0     C32363  11.984   5.311   3.503  0.1168 -0.2032 -0.1399
  960MOL0     C32364  12.022   5.254   3.366  0.5735 -0.1278 -0.3431
  960MOL0     C32365  11.916   5.159   3.304  0.0371  0.4029 -0.2833
  960MOL0     O32366  11.981   5.115   3.174 -0.2111  0.1223  0.1367
  960MOL0     C32367  11.900   5.079   3.074  0.3164 -0.0990 -0.3910
  960MOL0     C32368  11.768   5.040   3.091  0.9252 -0.0345 -0.0976
  960MOL0     C32369  11.686   5.001   2.971  0.0028 -0.3534 -0.2577
  960MOL0     C32370  11.540   4.961   2.979 -0.3746  0.0085  0.0412
  960MOL0     C32371  11.763   4.993   2.852 -0.1225 -0.0176 -0.0890
  960MOL0     C32372  11.682   4.964   2.734  0.2846  0.7666  0.6019
  960MOL0     O32373  11.729   4.860   2.651  0.4227 -0.4340 -0.2963
  960MOL0     C32374  11.655   4.826   2.542  0.7724 -0.6081 -0.7006
  960MOL0     C32375  11.687   4.868   2.419 -0.5362  0.1866  0.1573
  960MOL0     C32376  11.611   4.822   2.306  0.3852 -0.1546 -0.3882
  960MOL0     C32377  11.501   4.737   2.331 -0.8132  0.2879  0.4277
  960MOL0     O32378  11.434   4.700   2.216  0.7001  0.1879  0.1475
  960MOL0     C32379  11.330   4.598   2.226 -0.0685  0.3155  0.0127
  960MOL0     C32380  11.263   4.556   2.089  0.6629  0.5865  1.4140
  960MOL0     C32381  11.228   4.674   1.993  0.1792  0.2191 -0.5035
  960MOL0     C32382  11.174   4.629   1.855  1.0915  0.8788  0.0064
  960MOL0     C32383  11.289   4.606   1.750  0.1333 -0.4276 -0.1159
  960MOL0     C32384  11.295   4.697   1.620  0.6145  0.3480 -0.1184
  960MOL0     C32385  11.377   4.644   1.510 -0.1672 -0.1573  0.3716
  960MOL0     C32386  11.428   4.753   1.421 -0.8180  0.0521 -0.8804
  960MOL0    Cl32387  11.541   4.866   1.515  0.0496  0.3191 -0.2923
  960MOL0     C32388  11.479   4.689   2.462  0.1996  0.4976  0.9179
  960MOL0     C32389  11.551   4.737   2.564  1.2683 -0.9923  0.5531
  960MOL0     O32390  11.579   5.027   2.715  0.4473  0.6020  0.2854
  960MOL0     C32391  11.894   5.036   2.822 -0.4534 -0.3454  0.0930
  960MOL0     C32392  11.957   5.077   2.944 -0.4716  0.6169  1.1623
  960MOL0     N32393  12.016   5.599   3.693  0.5835 -0.3088 -0.7285
  960MOL0     N32394  11.986   5.624   3.815  0.2760  0.3915 -0.7515
  960MOL0     C32395  11.318   4.670   4.515  0.0570 -1.1033 -0.2496
  960MOL0     C32396  11.344   4.534   4.541  0.4950 -0.5942 -0.0896
  960MOL0     C32397  11.466   4.113   4.547 -1.4380 -0.6375 -0.1535
  960MOL0     C32398  11.569   4.111   4.649  0.1234 -0.3940  0.0344
  960MOL0     C32399  11.613   3.988   4.708  0.0353 -0.9707  1.3994
  960MOL0     C32400  11.564   3.876   4.667  0.2941  0.1279  0.1153
  960MOL0     O32401  11.620   3.754   4.697 -0.3995  0.2758  0.0597
  960MOL0     C32402  11.593   3.712   4.826 -0.3201  0.3575  0.3138
  960MOL0     C32403  11.694   3.605   4.866  0.0499  1.2211 -0.4766
  960MOL0     C32404  11.659   3.549   5.007 -0.2703  0.6434  0.0204
  960MOL0     C32405  11.773   3.446   5.048 -0.7346 -0.0115 -0.6758
  960MOL0     C32406  11.758   3.322   4.972 -1.3038  0.5024  0.7868
  960MOL0     C32407  11.758   3.214   4.922 -0.9392  0.4140 -0.0287
  960MOL0     C32408  11.475   3.877   4.552  0.5976  0.2751 -0.0406
  960MOL0     C32409  11.424   3.993   4.495 -0.6577 -1.5717  1.1563
  960MOL0     C32410  11.331   3.974   4.376 -0.5912  0.2745 -0.3954
  960MOL0     H32411  11.642   4.516   4.398  1.6353  1.2659  2.8550
  960MOL0     H32412  11.601   4.744   4.354  0.2856  1.0063  1.4913
  960MOL0     H32413  11.385   5.027   4.275  0.2602 -0.0782  0.8067
  960MOL0     H32414  11.503   4.900   4.259  1.0833  0.2593 -0.2434
  960MOL0     H32415  11.489   5.116   4.480 -3.5933 -3.0731  1.5659
  960MOL0     H32416  11.577   4.970   4.510  0.1073  2.5421  2.4814
  960MOL0     H32417  11.730   5.144   4.415 -1.6879 -0.7484  0.7528
  960MOL0     H32418  11.695   5.017   4.292 -0.4929 -0.3634 -0.8755
  960MOL0     H32419  11.565   5.168   4.167  0.3850 -1.1692  0.5307
  960MOL0     H32420  11.545   5.287   4.298  0.6827 -0.4677  1.0835
  960MOL0     H32421  11.801   5.217   4.145  2.5766  1.2239  0.5757
  960MOL0     H32422  11.803   5.313   4.298  1.8774 -0.4681 -1.3533
  960MOL0     H32423  11.603   5.407   4.099  0.2992 -3.0836 -1.7040
  960MOL0     H32424  11.716   5.514   4.172  0.4752 -0.0117 -0.1545
  960MOL0     H32425  11.735   5.486   3.917 -1.1155  0.7861  0.8932
  960MOL0     H32426  11.779   5.326   3.946  2.3482  0.2904 -2.3512
  960MOL0     H32427  11.918   5.574   4.064 -2.8790  1.0756 -2.5577
  960MOL0     H32428  11.980   5.407   4.078 -0.3066 -2.3485 -1.7847
  960MOL0     H32429  12.069   5.306   3.820 -1.5113 -0.0315 -3.1566
  960MOL0     H32430  12.186   5.341   3.566 -0.8710 -1.5578 -2.6644
  960MOL0     H32431  12.124   5.478   3.487 -0.9684  3.5615  2.3443
  960MOL0     H32432  11.966   5.239   3.583  2.0256  0.6861  1.1882
  960MOL0     H32433  11.891   5.364   3.481 -1.2279 -2.3515  0.2113
  960MOL0     H32434  12.037   5.342   3.304  0.9515  1.0527  1.3454
  960MOL0     H32435  12.116   5.198   3.374  2.7696  3.1565 -1.3578
  960MOL0     H32436  11.895   5.069   3.363 -1.4287  1.4773  0.9125
  960MOL0     H32437  11.820   5.211   3.303  1.4345  3.1907  0.4497
  960MOL0     H32438  11.725   5.038   3.190 -1.3690  1.2215 -0.9915
  960MOL0     H32439  11.504   4.871   2.928 -0.9245  1.3341 -2.0291
  960MOL0     H32440  11.479   5.041   2.935 -1.3566 -0.5681  0.3097
  960MOL0     H32441  11.507   4.964   3.084  1.3427  1.8831  0.5879
  960MOL0     H32442  11.781   4.914   2.389 -1.3585  0.8156 -1.5524
  960MOL0     H32443  11.612   4.841   2.199 -1.0743  1.8148 -0.0953
  960MOL0     H32444  11.353   4.508   2.284 -2.6973  0.1972  1.0152
  960MOL0     H32445  11.250   4.648   2.282 -1.5043 -0.5939 -1.1349
  960MOL0     H32446  11.320   4.484   2.029 -0.2271  1.5947 -0.7791
  960MOL0     H32447  11.174   4.498   2.113  0.6718 -1.5786 -2.7489
  960MOL0     H32448  11.312   4.744   1.989  0.6340 -0.2929  0.0293
  960MOL0     H32449  11.147   4.734   2.038  0.3806  1.3523 -1.5870
  960MOL0     H32450  11.093   4.695   1.821 -1.1000  0.2476  3.5248
  960MOL0     H32451  11.121   4.534   1.857  1.1538  0.8494  0.2650
  960MOL0     H32452  11.379   4.608   1.813  0.0842  1.2811 -0.0697
  960MOL0     H32453  11.268   4.505   1.713 -0.0759 -0.4158 -0.0307
  960MOL0     H32454  11.342   4.791   1.653  0.8177  0.1531  0.1540
  960MOL0     H32455  11.198   4.709   1.571  0.3436 -1.1137  0.0272
  960MOL0     H32456  11.313   4.568   1.464 -0.0556  0.7237 -1.3003
  960MOL0     H32457  11.458   4.597   1.568  1.0256  1.1398 -0.1759
  960MOL0     H32458  11.346   4.814   1.383 -0.6000  0.1623 -1.1780
  960MOL0     H32459  11.488   4.712   1.340 -0.6062 -2.1729  0.3021
  960MOL0     H32460  11.405   4.610   2.476  0.6860  0.1379  1.4865
  960MOL0     H32461  11.526   4.722   2.669 -1.1217  2.5893  0.6581
  960MOL0     H32462  11.937   5.040   2.722 -1.1731 -0.3647 -0.2301
  960MOL0     H32463  12.060   5.109   2.940  0.1060 -1.0150  2.2047
  960MOL0     H32464  11.230   4.713   4.563  0.9180 -0.1044  0.4672
  960MOL0     H32465  11.260   4.494   4.598  0.2362  0.6562  0.4532
  960MOL0     H32466  11.598   4.200   4.704 -1.3264 -1.5686  2.9065
  960MOL0     H32467  11.684   3.975   4.789 -0.6718  0.0934  2.2144
  960MOL0     H32468  11.607   3.799   4.891  0.4539  1.3407 -1.1165
  960MOL0     H32469  11.489   3.681   4.830 -0.3645  0.5069  0.3305
  960MOL0     H32470  11.799   3.635   4.857 -0.2585  2.6345  0.4509
  960MOL0     H32471  11.668   3.529   4.791 -1.7190  1.4675 -0.1582
  960MOL0     H32472  11.660   3.627   5.083  4.7630  0.3651  0.5254
  960MOL0     H32473  11.558   3.507   4.997  0.4523 -0.9852 -0.8830
  960MOL0     H32474  11.754   3.424   5.153  3.3418  4.1696  1.3176
  960MOL0     H32475  11.875   3.487   5.052 -1.6600  2.3931  0.3024
  960MOL0     H32476  11.745   3.118   4.876  1.4021 -0.1391  0.3269
  960MOL0     H32477  11.447   3.781   4.511 -1.0853 -0.5082  2.6687
  960MOL0     H32478  11.304   3.868   4.378  0.8751 -0.1435  2.3751
  960MOL0     H32479  11.240   4.034   4.384 -2.0080 -1.7432 -0.5025
  960MOL0     H32480  11.386   3.990   4.283 -0.4661  2.8243  0.0588
  961MOL0     O32481   3.773  10.584   2.868  0.5247 -0.6081  0.3890
  961MOL0     C32482   3.731  10.592   2.753 -0.8417  0.0787 -0.5004
  961MOL0     O32483   3.714  10.713   2.685 -0.4548  0.4769 -0.8098
  961MOL0     C32484   3.738  10.836   2.730 -0.6433  1.0427 -0.6242
  961MOL0     C32485   3.798  10.881   2.847 -0.1713 -0.1360 -0.1446
  961MOL0     C32486   3.819  11.021   2.875  0.1018  0.1110 -0.0966
  961MOL0     C32487   3.760  11.119   2.788 -0.0390 -0.4665 -0.7902
  961MOL0     O32488   3.787  11.255   2.807  0.2006  0.4930 -0.8324
  961MOL0     C32489   3.807  11.287   2.948  0.0436  1.1097  0.1462
  961MOL0     C32490   3.802  11.439   2.958 -0.2742  1.1015 -0.1567
  961MOL0     C32491   3.936  11.486   2.900  0.7258 -0.4992 -0.5583
  961MOL0     C32492   3.935  11.643   2.889  0.8998  1.1136  0.1864
  961MOL0     C32493   4.081  11.710   2.885 -0.0685 -0.3451 -0.0970
  961MOL0     C32494   4.182  11.648   2.780 -0.7680  0.1579 -0.2575
  961MOL0     C32495   4.333  11.678   2.798 -0.3340 -0.9613 -1.0121
  961MOL0     C32496   4.350  11.830   2.754  0.3611 -0.1246 -0.0398
  961MOL0     N32497   4.467  11.899   2.819 -0.3076 -0.8127  0.8945
  961MOL0     C32498   4.595  11.898   2.772  0.4739 -0.0287  0.6803
  961MOL0     C32499   4.673  11.950   2.869 -1.3586 -0.1554 -1.4899
  961MOL0     C32500   4.824  11.974   2.851 -0.4109  0.1661  0.4047
  961MOL0     C32501   4.885  11.984   2.982 -0.1214  0.5282 -0.3769
  961MOL0     C32502   5.016  12.062   2.977 -0.5710 -0.0211  0.6609
  961MOL0     C32503   5.121  12.036   3.076 -0.8144  0.3177 -0.0905
  961MOL0     O32504   5.256  12.080   3.042  0.4036 -0.6843  0.5013
  961MOL0     C32505   5.276  12.207   2.999 -0.0275 -0.5378  0.6385
  961MOL0     C32506   5.211  12.324   3.053 -0.8765 -0.0591 -0.0872
  961MOL0     C32507   5.268  12.454   3.034 -0.2441  0.8949 -0.5448
  961MOL0     C32508   5.220  12.559   3.125  0.5157 -0.5540 -0.5242
  961MOL0     C32509   5.376  12.474   2.945  0.0651 -0.0014  0.3696
  961MOL0     C32510   5.445  12.605   2.909 -0.3392 -0.3227 -0.4696
  961MOL0     O32511   5.527  12.612   2.805  0.4157 -0.9595 -0.4166
  961MOL0     C32512   5.578  12.734   2.764 -0.1155  0.5230 -0.4421
  961MOL0     C32513   5.507  12.849   2.739  0.1496 -0.8711  0.6092
  961MOL0     C32514   5.571  12.974   2.700 -0.1654 -0.3320  0.1052
  961MOL0     C32515   5.712  12.977   2.671 -0.4397  0.0810 -0.3615
  961MOL0     O32516   5.763  13.084   2.600  0.0482  0.4921  0.2217
  961MOL0     C32517   5.906  13.092   2.590  0.2781  0.2313 -0.0226
  961MOL0     C32518   5.909  13.232   2.535  0.5387 -0.2656  0.0226
  961MOL0     C32519   6.058  13.267   2.516  0.0716  0.0043  0.6267
  961MOL0     C32520   6.072  13.397   2.429 -0.1533  0.0830 -0.4190
  961MOL0     C32521   6.012  13.526   2.499  0.7632  0.3488 -0.5251
  961MOL0     C32522   6.001  13.635   2.400 -1.0791 -0.6630  0.4951
  961MOL0     C32523   5.912  13.748   2.456  0.0673  0.5023  0.0351
  961MOL0     C32524   5.982  13.798   2.587 -0.1560  0.0782  0.4943
  961MOL0    Cl32525   5.889  13.936   2.630  0.1245 -0.0957 -0.3763
  961MOL0     C32526   5.782  12.857   2.703 -0.3681 -0.0806  0.8113
  961MOL0     C32527   5.711  12.742   2.748 -1.2302 -0.0650 -0.7494
  961MOL0     O32528   5.403  12.702   2.968 -0.1759  0.4133 -0.7616
  961MOL0     C32529   5.427  12.356   2.884  1.0240 -0.1947  0.6213
  961MOL0     C32530   5.383  12.228   2.911 -0.4993  0.1059 -0.5443
  961MOL0     N32531   4.593  12.010   2.960  0.4457  0.0036 -1.1184
  961MOL0     N32532   4.469  11.972   2.936  0.6399 -0.1523 -0.3507
  961MOL0     C32533   3.701  11.074   2.668  0.1981 -0.0013 -0.1983
  961MOL0     C32534   3.705  10.938   2.640 -0.2836 -0.1233 -0.0110
  961MOL0     C32535   3.665  10.473   2.695  0.4554 -0.5482  0.2660
  961MOL0     C32536   3.544  10.485   2.629 -0.2756 -0.1339  0.2888
  961MOL0     C32537   3.468  10.374   2.580 -0.0762 -0.2385  0.0579
  961MOL0     C32538   3.507  10.247   2.611 -0.3141  0.3909  0.8121
  961MOL0     O32539   3.427  10.139   2.588 -0.6742 -0.0406  0.0196
  961MOL0     C32540   3.420  10.046   2.697 -1.1564  0.6183 -0.8519
  961MOL0     C32541   3.290  10.056   2.776 -0.2509 -0.6075 -0.4629
  961MOL0     C32542   3.268  10.199   2.833  0.0749  0.9453  0.4410
  961MOL0     C32543   3.387  10.233   2.939 -0.9171  0.7523  0.2379
  961MOL0     C32544   3.367  10.145   3.054 -0.4569  0.1700  0.0848
  961MOL0     C32545   3.363  10.061   3.139  0.5214  0.0503 -0.9550
  961MOL0     C32546   3.636  10.237   2.671 -0.0331  0.9132 -0.6144
  961MOL0     C32547   3.721  10.344   2.718 -0.1916  0.7923  1.3088
  961MOL0     C32548   3.845  10.302   2.798  0.3825 -0.1717 -1.3663
  961MOL0     H32549   3.819  10.816   2.931  1.2452  1.0754  0.4789
  961MOL0     H32550   3.863  11.033   2.973  1.9046  0.9740 -0.9622
  961MOL0     H32551   3.901  11.243   2.984  0.0476 -1.8293 -2.9003
  961MOL0     H32552   3.722  11.245   3.002  0.7455  1.5652  1.6669
  961MOL0     H32553   3.725  11.481   2.892 -0.7322  1.2051  0.4388
  961MOL0     H32554   3.774  11.466   3.060  0.1222  0.5748  0.0970
  961MOL0     H32555   4.008  11.455   2.976 -0.4968 -0.4916  0.6289
  961MOL0     H32556   3.962  11.445   2.802  0.7443  3.3649 -2.3525
  961MOL0     H32557   3.896  11.663   2.789  1.5044 -2.0630 -0.7968
  961MOL0     H32558   3.868  11.682   2.966 -2.0323  0.6477 -1.9545
  961MOL0     H32559   4.121  11.687   2.984 -2.6378  1.9740  1.6291
  961MOL0     H32560   4.068  11.817   2.870 -1.0648 -0.4552 -0.0861
  961MOL0     H32561   4.175  11.540   2.795  0.5678  0.1619  0.5274
  961MOL0     H32562   4.151  11.677   2.679  1.3655 -0.8937 -1.2886
  961MOL0     H32563   4.391  11.603   2.743  1.2584 -1.0035  0.6544
  961MOL0     H32564   4.361  11.671   2.903 -1.7808  0.4819 -0.4914
  961MOL0     H32565   4.359  11.824   2.645 -0.9775 -2.3103 -0.0890
  961MOL0     H32566   4.262  11.893   2.769  0.0416 -0.0146 -2.0853
  961MOL0     H32567   4.629  11.848   2.682  0.7749  0.9509  0.2329
  961MOL0     H32568   4.839  12.063   2.789 -0.6350 -2.1472 -3.2718
  961MOL0     H32569   4.876  11.900   2.789 -1.8777 -0.0844 -0.5917
  961MOL0     H32570   4.826  12.029   3.062  1.4220 -0.7762  1.6010
  961MOL0     H32571   4.913  11.884   3.018  1.0885  1.1362  0.4445
  961MOL0     H32572   5.065  12.042   2.882 -2.7091 -1.1260 -0.2583
  961MOL0     H32573   4.991  12.169   2.976  1.1469  0.4194  0.8438
  961MOL0     H32574   5.096  12.088   3.169  0.0006  2.2247 -0.8962
  961MOL0     H32575   5.126  11.931   3.108 -2.4200 -1.0506 -3.7942
  961MOL0     H32576   5.138  12.307   3.132  0.9640 -0.1583  1.6775
  961MOL0     H32577   5.155  12.517   3.202  0.4435 -0.4428 -0.5228
  961MOL0     H32578   5.150  12.627   3.075  0.9009  1.6871  1.7671
  961MOL0     H32579   5.299  12.616   3.175  0.0718 -0.9595  0.6698
  961MOL0     H32580   5.400  12.854   2.759  0.0430 -0.3566 -0.0389
  961MOL0     H32581   5.503  13.058   2.696 -0.8502 -0.8546  0.4870
  961MOL0     H32582   5.969  13.090   2.679 -0.6757 -0.5438  0.6560
  961MOL0     H32583   5.952  13.023   2.519 -0.8375 -1.4487  0.8423
  961MOL0     H32584   5.864  13.233   2.436  1.5028  2.4368 -0.4774
  961MOL0     H32585   5.856  13.299   2.604  1.3308  0.9171 -0.4913
  961MOL0     H32586   6.120  13.183   2.481 -3.6990 -1.9884 -2.0715
  961MOL0     H32587   6.089  13.282   2.619  1.9706 -3.9270  0.8094
  961MOL0     H32588   6.019  13.383   2.334 -0.4150  2.8998 -0.7789
  961MOL0     H32589   6.180  13.399   2.416 -0.0311 -1.2476  0.2128
  961MOL0     H32590   5.908  13.504   2.523  1.0145  0.8432  1.1099
  961MOL0     H32591   6.061  13.562   2.590 -0.1748  1.6276 -0.4932
  961MOL0     H32592   5.958  13.593   2.308 -1.4663  0.0380  0.3546
  961MOL0     H32593   6.101  13.678   2.382 -0.6531 -1.9377 -0.3713
  961MOL0     H32594   5.811  13.707   2.464 -0.7904  1.7653 -2.8319
  961MOL0     H32595   5.897  13.835   2.392 -1.0173  0.6950  0.5227
  961MOL0     H32596   6.089  13.815   2.569  0.1474 -3.2352 -1.5951
  961MOL0     H32597   5.970  13.737   2.677 -2.1869  0.6239  0.6456
  961MOL0     H32598   5.882  12.845   2.662 -1.5499 -1.8964 -1.9087
  961MOL0     H32599   5.768  12.655   2.777  2.1708  2.0570 -0.5629
  961MOL0     H32600   5.506  12.352   2.809  0.8635 -3.0353  0.4922
  961MOL0     H32601   5.422  12.144   2.854  0.8149 -1.0573  1.9182
  961MOL0     H32602   3.651  11.141   2.600  1.9613 -2.8052 -4.7027
  961MOL0     H32603   3.660  10.908   2.546 -1.6049 -0.4520  0.6945
  961MOL0     H32604   3.506  10.586   2.635 -0.6011 -0.2152 -0.3540
  961MOL0     H32605   3.369  10.400   2.543 -0.4425  1.6797  2.0927
  961MOL0     H32606   3.434   9.944   2.658  3.4915  0.3232  0.8852
  961MOL0     H32607   3.503  10.044   2.768 -1.9648 -2.7911  0.1688
  961MOL0     H32608   3.270   9.987   2.858 -0.2145  1.7160  1.6191
  961MOL0     H32609   3.203  10.038   2.713 -0.6643 -1.5623  0.3625
  961MOL0     H32610   3.270  10.266   2.747  0.6146  0.7514  0.2985
  961MOL0     H32611   3.166  10.205   2.872  0.7866  1.1051  2.3877
  961MOL0     H32612   3.369  10.338   2.966 -2.4464  0.1679  1.7550
  961MOL0     H32613   3.483  10.216   2.892 -1.6607 -1.5835 -0.5685
  961MOL0     H32614   3.354   9.976   3.204  0.3627 -1.0840 -2.4091
  961MOL0     H32615   3.666  10.136   2.697 -2.4441 -0.2003 -1.8207
  961MOL0     H32616   3.855  10.199   2.763 -3.3854 -0.5490 -1.8254
  961MOL0     H32617   3.925  10.372   2.772  2.2544 -0.8283  2.0228
  961MOL0     H32618   3.834  10.306   2.907  0.6827  2.8902 -1.3538
  962MOL0     O32619   2.146   6.270   9.063  0.5092 -0.1084 -0.0085
  962MOL0     C32620   2.148   6.316   8.952  0.3622  0.4026 -0.2638
  962MOL0     O32621   2.261   6.357   8.892  0.4552 -0.5076 -0.2071
  962MOL0     C32622   2.257   6.344   8.753 -0.6608  0.7366 -0.3503
  962MOL0     C32623   2.298   6.455   8.674 -0.1163 -0.1102  0.2388
  962MOL0     C32624   2.291   6.444   8.536  0.3795  0.5927  0.1965
  962MOL0     C32625   2.253   6.315   8.473 -0.2347 -0.5654 -0.0429
  962MOL0     O32626   2.247   6.308   8.336 -0.6939  0.5643  0.2131
  962MOL0     C32627   2.192   6.198   8.260 -0.0954  0.0221  0.9244
  962MOL0     C32628   2.152   6.245   8.119 -0.2509 -0.0176 -0.7423
  962MOL0     C32629   2.022   6.341   8.116 -1.4770  0.2835  0.2502
  962MOL0     C32630   2.019   6.408   7.975  0.1755  0.0299  0.6073
  962MOL0     C32631   1.922   6.522   7.969  0.3280  0.0446  0.1842
  962MOL0     C32632   1.774   6.486   7.945 -0.0057 -0.0234  0.3112
  962MOL0     C32633   1.682   6.603   7.920  0.5274  0.6995 -0.7385
  962MOL0     C32634   1.544   6.555   7.887  0.7938  0.0812  0.8630
  962MOL0     N32635   1.459   6.677   7.861 -0.2496 -0.1454  0.7948
  962MOL0     C32636   1.450   6.784   7.943 -0.0204  0.2832  0.0890
  962MOL0     C32637   1.405   6.884   7.860  0.0192  0.0726 -0.6474
  962MOL0     C32638   1.368   7.016   7.905  1.3541  0.2080 -0.3418
  962MOL0     C32639   1.225   6.999   7.966  0.2372 -0.0777 -0.8715
  962MOL0     C32640   1.138   7.132   7.965 -0.1938 -0.7814  0.5234
  962MOL0     C32641   1.144   7.194   7.828 -0.5365 -0.2001  0.2610
  962MOL0     O32642   1.117   7.100   7.720 -0.3684  0.6416 -0.1419
  962MOL0     C32643   0.990   7.054   7.690  0.5275 -0.3852 -0.2089
  962MOL0     C32644   0.969   6.942   7.610 -0.9580  0.0425  0.4330
  962MOL0     C32645   0.840   6.883   7.593  0.6339 -0.1109  0.4363
  962MOL0     C32646   0.840   6.756   7.505 -0.6314 -0.8044 -0.2497
  962MOL0     C32647   0.732   6.927   7.672  0.7153 -0.1884 -0.2941
  962MOL0     C32648   0.597   6.866   7.679  0.5220  0.4442 -0.2494
  962MOL0     O32649   0.501   6.942   7.755  0.1029  0.2140  0.3026
  962MOL0     C32650   0.367   6.918   7.737  0.1519 -0.0465  0.7797
  962MOL0     C32651   0.307   6.833   7.836 -0.6361 -0.5877  0.0331
  962MOL0     C32652   0.168   6.828   7.837  0.3588  0.4742 -1.4836
  962MOL0     C32653   0.087   6.880   7.739  0.2949  0.9522  0.1628
  962MOL0     O32654  -0.050   6.868   7.758  0.3532  0.4909  1.2453
  962MOL0     C32655  -0.136   6.918   7.651 -0.3557 -0.7924 -0.2639
  962MOL0     C32656  -0.265   6.835   7.654 -0.1290 -1.3635 -0.3577
  962MOL0     C32657  -0.231   6.695   7.594 -0.3416 -0.2684  1.1477
  962MOL0     C32658  -0.349   6.597   7.583  0.5939 -0.3089 -0.4736
  962MOL0     C32659  -0.313   6.473   7.489 -0.5899 -0.7016 -0.7685
  962MOL0     C32660  -0.204   6.377   7.533 -0.3641  0.1115 -1.6009
  962MOL0     C32661  -0.225   6.329   7.673  0.0476  1.1462 -0.4362
  962MOL0     C32662  -0.104   6.236   7.708 -0.0076 -1.0590 -0.2161
  962MOL0    Cl32663  -0.121   6.157   7.875 -0.4274  0.5834  0.3642
  962MOL0     C32664   0.156   6.948   7.637  0.4640 -0.4595  0.2675
  962MOL0     C32665   0.292   6.971   7.636  0.0392 -0.3347  0.2196
  962MOL0     O32666   0.568   6.768   7.616  0.8223  0.1527 -0.1424
  962MOL0     C32667   0.753   7.054   7.742  1.2083  0.2515 -0.1364
  962MOL0     C32668   0.878   7.114   7.749  0.3457  0.5878  0.4237
  962MOL0     N32669   1.381   6.824   7.735  0.0662  0.0976 -0.4557
  962MOL0     N32670   1.408   6.701   7.736 -0.5338 -0.6353  0.0115
  962MOL0     C32671   2.227   6.200   8.558  0.5912 -0.4734  0.4548
  962MOL0     C32672   2.232   6.215   8.689 -0.4085 -0.6704 -1.3442
  962MOL0     C32673   2.017   6.348   8.895  0.4178  0.4538  0.4300
  962MOL0     C32674   1.994   6.475   8.837 -0.4162  0.0991  0.0447
  962MOL0     C32675   1.872   6.491   8.760  0.1489 -0.1139  0.0740
  962MOL0     C32676   1.762   6.404   8.768 -0.4328 -0.4850 -0.0981
  962MOL0     O32677   1.638   6.456   8.719 -0.2461  0.9073  0.3729
  962MOL0     C32678   1.517   6.401   8.770 -0.1976 -0.5717 -0.9076
  962MOL0     C32679   1.506   6.430   8.925  0.8067  0.7102 -0.0280
  962MOL0     C32680   1.377   6.370   8.989  0.8077 -0.1566 -0.0298
  962MOL0     C32681   1.244   6.411   8.931  0.0511 -0.2090  0.0865
  962MOL0     C32682   1.227   6.563   8.917 -1.0288 -0.0544  0.4559
  962MOL0     C32683   1.228   6.688   8.927 -0.1367  0.0017  0.4475
  962MOL0     C32684   1.787   6.282   8.835 -0.8306 -0.7284  0.0499
  962MOL0     C32685   1.911   6.251   8.894  0.3793 -0.5203 -0.1401
  962MOL0     C32686   1.942   6.099   8.928 -0.0193 -0.1922 -0.1752
  962MOL0     H32687   2.316   6.552   8.717 -0.8451 -0.7311  2.0179
  962MOL0     H32688   2.303   6.532   8.474 -1.4844  0.8722  0.1944
  962MOL0     H32689   2.106   6.147   8.305 -1.9031  1.3266 -0.8738
  962MOL0     H32690   2.267   6.119   8.253  1.0037  1.2215 -2.9725
  962MOL0     H32691   2.238   6.296   8.074 -0.7064  1.9968  0.4995
  962MOL0     H32692   2.130   6.159   8.056  0.9580  0.7370 -2.2580
  962MOL0     H32693   1.931   6.281   8.122 -0.1444 -1.8382  0.4628
  962MOL0     H32694   2.015   6.413   8.198 -4.2511 -1.9531  2.1901
  962MOL0     H32695   2.121   6.444   7.959 -0.3674  1.3331 -0.1347
  962MOL0     H32696   1.995   6.325   7.907 -1.4218  0.3258  0.7676
  962MOL0     H32697   1.948   6.598   7.894 -0.9711  0.5925  0.2538
  962MOL0     H32698   1.928   6.569   8.068  2.0895 -0.9317  0.5608
  962MOL0     H32699   1.782   6.424   7.855 -2.3372 -0.0331  0.0453
  962MOL0     H32700   1.736   6.420   8.023 -0.9227  0.4507  0.2847
  962MOL0     H32701   1.718   6.661   7.835 -1.1324  1.6798 -0.8144
  962MOL0     H32702   1.675   6.674   8.003  0.7728  0.3754 -0.4383
  962MOL0     H32703   1.559   6.493   7.798 -0.6484  0.6686  0.1623
  962MOL0     H32704   1.499   6.489   7.961 -0.4289 -0.0299  0.0524
  962MOL0     H32705   1.473   6.790   8.049 -1.5395  0.2293  0.4456
  962MOL0     H32706   1.373   7.084   7.819  1.5893  0.9209  0.2264
  962MOL0     H32707   1.436   7.067   7.973 -1.5734  0.5146  2.5925
  962MOL0     H32708   1.176   6.913   7.919 -1.1389 -1.1041  2.1914
  962MOL0     H32709   1.230   6.972   8.072 -3.3324 -1.2591 -0.8788
  962MOL0     H32710   1.036   7.101   7.990 -0.7129 -0.8127 -1.5084
  962MOL0     H32711   1.180   7.200   8.041 -0.4123  2.0527 -1.7024
  962MOL0     H32712   1.088   7.287   7.815 -1.4152 -0.9186 -1.3450
  962MOL0     H32713   1.245   7.235   7.825 -1.5730  2.6391  1.1669
  962MOL0     H32714   1.055   6.906   7.555 -0.5054 -0.0947  1.2101
  962MOL0     H32715   0.739   6.721   7.479  0.1626 -2.4439 -1.2985
  962MOL0     H32716   0.903   6.681   7.553  1.0396  0.5922 -0.1944
  962MOL0     H32717   0.874   6.782   7.404 -2.5224  1.6301 -0.3548
  962MOL0     H32718   0.378   6.788   7.906 -0.6559 -2.0685 -0.8541
  962MOL0     H32719   0.123   6.784   7.926 -2.1345  0.6765 -2.5728
  962MOL0     H32720  -0.148   7.026   7.662  3.8898 -0.3888  3.2178
  962MOL0     H32721  -0.096   6.888   7.554  1.8342 -1.1541  0.6928
  962MOL0     H32722  -0.301   6.818   7.756  1.1498  1.3626  0.6439
  962MOL0     H32723  -0.347   6.881   7.597 -1.4706 -0.8105  1.8968
  962MOL0     H32724  -0.153   6.645   7.652  0.7607  0.6470  0.4973
  962MOL0     H32725  -0.200   6.715   7.491 -0.2549  0.5516  1.3250
  962MOL0     H32726  -0.438   6.648   7.546 -0.2898  0.5865  2.5640
  962MOL0     H32727  -0.364   6.571   7.689  2.5531  1.5382  0.3406
  962MOL0     H32728  -0.409   6.421   7.480 -2.0667  1.5104  0.8657
  962MOL0     H32729  -0.277   6.518   7.397 -2.0057  1.7931 -0.2135
  962MOL0     H32730  -0.108   6.430   7.530  0.3606 -1.0405  0.0289
  962MOL0     H32731  -0.193   6.298   7.458  1.2188 -1.5058  0.2262
  962MOL0     H32732  -0.321   6.278   7.669  1.9915 -3.0086  0.4075
  962MOL0     H32733  -0.231   6.417   7.738  4.0466  1.4438 -0.2052
  962MOL0     H32734  -0.016   6.300   7.697 -1.3729  0.6518 -2.1086
  962MOL0     H32735  -0.096   6.158   7.632  0.4041  0.2165 -1.5338
  962MOL0     H32736   0.096   6.985   7.554  1.0141  1.6874  0.7771
  962MOL0     H32737   0.334   7.022   7.550 -0.2065 -2.3042 -1.1244
  962MOL0     H32738   0.677   7.103   7.801  2.3134  2.2456 -0.2517
  962MOL0     H32739   0.872   7.210   7.798 -1.9034  0.0253  1.3972
  962MOL0     H32740   2.221   6.097   8.522  1.3676 -0.5443  0.5150
  962MOL0     H32741   2.209   6.135   8.759 -0.0665  1.5217  1.4201
  962MOL0     H32742   2.072   6.550   8.824 -0.1479 -0.7016 -4.2813
  962MOL0     H32743   1.848   6.590   8.722 -2.2907  0.5985  3.0830
  962MOL0     H32744   1.433   6.442   8.713 -1.2865 -1.0359  0.3244
  962MOL0     H32745   1.524   6.294   8.749  0.7026 -0.2940 -2.1545
  962MOL0     H32746   1.511   6.537   8.947  0.6253  0.0488  4.0831
  962MOL0     H32747   1.591   6.392   8.982  2.4969  2.8052 -1.0417
  962MOL0     H32748   1.400   6.264   8.997  3.8435  0.5296  2.3745
  962MOL0     H32749   1.379   6.410   9.091 -2.3094 -3.7523  1.6907
  962MOL0     H32750   1.161   6.369   8.988 -0.7027  0.9487 -0.1257
  962MOL0     H32751   1.241   6.364   8.832 -1.4228 -2.3564  1.0878
  962MOL0     H32752   1.228   6.793   8.904  2.7467  0.2542  1.1322
  962MOL0     H32753   1.712   6.203   8.835  0.5789 -2.1302  0.1298
  962MOL0     H32754   1.952   6.090   9.036  2.4716  0.3931 -0.2955
  962MOL0     H32755   1.863   6.040   8.880  0.2137 -1.2564  0.7011
  962MOL0     H32756   2.029   6.063   8.873 -1.7484 -0.3710 -3.0371
  963MOL0     O32757   9.786   9.252   9.342  0.3812  0.3540  0.7913
  963MOL0     C32758   9.732   9.156   9.285 -0.7886  0.9092 -0.2251
  963MOL0     O32759   9.749   9.129   9.151  0.5199 -0.9863  0.1186
  963MOL0     C32760   9.851   9.196   9.076  0.4242  0.1630  0.2076
  963MOL0     C32761   9.878   9.137   8.957 -0.6923  1.1446 -0.0882
  963MOL0     C32762   9.969   9.167   8.862 -0.3020  0.6678 -1.1271
  963MOL0     C32763  10.054   9.274   8.892  0.0682 -0.0005 -0.5499
  963MOL0     O32764  10.155   9.306   8.806 -0.5722  0.3187  0.2407
  963MOL0     C32765  10.123   9.289   8.667  1.1367 -0.2870 -0.3623
  963MOL0     C32766  10.227   9.354   8.572 -0.8764  0.1345  0.4045
  963MOL0     C32767  10.367   9.280   8.602  0.5980  0.3281  0.2310
  963MOL0     C32768  10.465   9.341   8.511  0.3027 -0.4475 -0.9837
  963MOL0     C32769  10.611   9.292   8.557  1.1524 -1.6842  0.2012
  963MOL0     C32770  10.626   9.146   8.520  0.0391 -0.7695  0.3482
  963MOL0     C32771  10.765   9.098   8.565 -0.4209  0.5522  0.5800
  963MOL0     C32772  10.786   8.944   8.566 -0.3710  0.2035 -0.1444
  963MOL0     N32773  10.744   8.899   8.430  0.2247 -0.1620 -0.8483
  963MOL0     C32774  10.650   8.803   8.417 -0.4043  0.4792 -0.8599
  963MOL0     C32775  10.648   8.767   8.287  0.1977 -0.4206  0.3747
  963MOL0     C32776  10.562   8.661   8.225  0.2007 -0.3175  0.7074
  963MOL0     C32777  10.584   8.517   8.262  0.4313  0.3770  0.0506
  963MOL0     C32778  10.516   8.433   8.152 -0.0980 -0.1711 -0.1815
  963MOL0     C32779  10.518   8.292   8.187  1.0111  0.0765  0.0276
  963MOL0     O32780  10.534   8.210   8.067  0.1249 -0.0778 -0.3775
  963MOL0     C32781  10.430   8.188   7.975 -0.3620 -0.5238  0.0025
  963MOL0     C32782  10.465   8.110   7.866  1.2024 -0.4769  0.0556
  963MOL0     C32783  10.364   8.062   7.775 -0.4023  0.6763 -0.3481
  963MOL0     C32784  10.411   7.971   7.666  0.5576  0.3986 -0.0363
  963MOL0     C32785  10.230   8.111   7.788  0.0717  0.0299  0.4778
  963MOL0     C32786  10.127   8.061   7.701  0.0306  0.2533 -0.3856
  963MOL0     O32787  10.029   8.148   7.678 -0.3562 -0.8708 -0.6429
  963MOL0     C32788   9.905   8.113   7.645  0.6662 -0.4539  0.2708
  963MOL0     C32789   9.864   8.053   7.522 -0.3019  1.8556 -0.1606
  963MOL0     C32790   9.729   8.031   7.486  0.6587  1.6912  0.1948
  963MOL0     C32791   9.636   8.074   7.572  0.8094  0.7057  0.4881
  963MOL0     O32792   9.500   8.051   7.558 -0.2514 -0.3784 -0.2307
  963MOL0     C32793   9.463   8.005   7.428 -0.0361 -0.0955  0.8365
  963MOL0     C32794   9.318   7.986   7.429  1.2980  0.8715 -0.4133
  963MOL0     C32795   9.278   7.926   7.289  0.2212  0.1200  0.0152
  963MOL0     C32796   9.362   7.804   7.246  0.4128  0.2631 -0.2093
  963MOL0     C32797   9.305   7.751   7.113  0.1931 -0.0350 -0.4693
  963MOL0     C32798   9.376   7.624   7.071 -0.5986  0.5467  0.0198
  963MOL0     C32799   9.336   7.532   6.962  0.0160  0.0628 -0.1063
  963MOL0     C32800   9.426   7.517   6.837  0.0538  0.9008 -0.9692
  963MOL0    Cl32801   9.557   7.398   6.875 -0.0687  0.1787  0.0379
  963MOL0     C32802   9.676   8.123   7.691 -0.2152  0.3216 -0.2326
  963MOL0     C32803   9.808   8.153   7.721 -0.2113 -0.4444  0.0311
  963MOL0     O32804  10.111   7.940   7.698 -0.4186 -0.2525 -0.8885
  963MOL0     C32805  10.196   8.201   7.890  0.4819  0.4450  0.9340
  963MOL0     C32806  10.293   8.238   7.989  0.0472 -0.4607 -0.3282
  963MOL0     N32807  10.739   8.853   8.220 -0.3348 -0.4564  0.2342
  963MOL0     N32808  10.805   8.910   8.311 -0.4941 -0.0398  0.6882
  963MOL0     C32809  10.028   9.349   9.004 -0.2599 -0.0416 -0.0994
  963MOL0     C32810   9.932   9.311   9.096 -0.7493  0.2133 -0.9713
  963MOL0     C32811   9.626   9.076   9.366  0.1232  0.3903  0.9189
  963MOL0     C32812   9.542   8.975   9.311  1.0434  0.5622  0.0698
  963MOL0     C32813   9.445   8.889   9.372 -0.5980 -0.0306  0.2866
  963MOL0     C32814   9.441   8.898   9.511 -0.6891 -0.4862 -0.1897
  963MOL0     O32815   9.346   8.825   9.587 -0.3220 -0.7827 -0.2377
  963MOL0     C32816   9.408   8.758   9.693  0.6900  1.3707  0.1456
  963MOL0     C32817   9.350   8.608   9.696 -1.2193 -0.6296  0.6445
  963MOL0     C32818   9.410   8.513   9.599  0.1465  0.4795  0.7692
  963MOL0     C32819   9.451   8.555   9.461  0.1160  0.1138 -0.2965
  963MOL0     C32820   9.482   8.430   9.395  0.3743  0.0901  0.4118
  963MOL0     C32821   9.514   8.332   9.327  0.8741 -0.4781 -0.5043
  963MOL0     C32822   9.524   8.997   9.575 -0.0139 -0.6267  0.4304
  963MOL0     C32823   9.614   9.087   9.508  0.2866  0.1239 -0.1812
  963MOL0     C32824   9.687   9.174   9.605 -1.2505  0.3704 -0.3858
  963MOL0     H32825   9.808   9.055   8.943 -2.9916  2.9377  0.3033
  963MOL0     H32826   9.958   9.117   8.767 -2.8256  0.5060 -0.8395
  963MOL0     H32827  10.021   9.323   8.646  0.3215 -3.0538 -1.3206
  963MOL0     H32828  10.114   9.186   8.631 -2.0279  0.4517 -2.1435
  963MOL0     H32829  10.203   9.350   8.466  3.5988  2.8810 -0.9655
  963MOL0     H32830  10.227   9.453   8.618  2.0787 -0.2424  1.4176
  963MOL0     H32831  10.391   9.287   8.708  0.4166 -1.4533  0.4104
  963MOL0     H32832  10.358   9.175   8.573 -4.5029 -0.4060  3.1609
  963MOL0     H32833  10.437   9.320   8.408 -3.1901 -0.2274 -0.2044
  963MOL0     H32834  10.458   9.449   8.527  2.2718 -0.2085 -1.4070
  963MOL0     H32835  10.632   9.304   8.663  1.1290  2.4304 -0.0988
  963MOL0     H32836  10.687   9.349   8.502  1.5599 -1.2030  1.2375
  963MOL0     H32837  10.552   9.086   8.575  0.7966 -1.2965  0.8133
  963MOL0     H32838  10.609   9.124   8.414 -0.1425 -2.0627  0.6249
  963MOL0     H32839  10.785   9.134   8.666 -1.4593  2.0489  0.2905
  963MOL0     H32840  10.844   9.145   8.505  0.8325 -2.1151  0.0109
  963MOL0     H32841  10.889   8.916   8.586 -0.9412 -2.9557 -1.0726
  963MOL0     H32842  10.721   8.896   8.640 -1.0211 -0.2920 -1.0154
  963MOL0     H32843  10.590   8.754   8.493  2.3964  1.2575  2.0313
  963MOL0     H32844  10.581   8.669   8.117 -1.4701 -0.4967  0.3761
  963MOL0     H32845  10.461   8.699   8.240  0.6271  0.3837  1.8964
  963MOL0     H32846  10.689   8.487   8.259 -0.1671 -1.8153 -0.1243
  963MOL0     H32847  10.537   8.503   8.360  0.1785  1.8744  0.1624
  963MOL0     H32848  10.419   8.481   8.139  1.0258  1.9259 -1.4374
  963MOL0     H32849  10.582   8.457   8.068  3.7124 -2.8202  1.7422
  963MOL0     H32850  10.604   8.265   8.249  1.3035 -3.7108 -1.7775
  963MOL0     H32851  10.423   8.255   8.228 -1.8701  4.3114 -2.0444
  963MOL0     H32852  10.569   8.084   7.851  1.5632  0.7271  0.3713
  963MOL0     H32853  10.505   7.924   7.696  1.3845  1.4732 -0.8513
  963MOL0     H32854  10.422   8.025   7.571 -4.0592  0.2327 -0.8806
  963MOL0     H32855  10.341   7.891   7.643  2.8609 -2.2484  1.6083
  963MOL0     H32856   9.944   8.011   7.462 -0.9296  2.1895 -1.2655
  963MOL0     H32857   9.712   7.980   7.392  0.8751 -3.1412  2.5183
  963MOL0     H32858   9.488   8.085   7.357 -3.8380 -0.5519 -1.2373
  963MOL0     H32859   9.512   7.909   7.412  0.7414  0.1074  1.8557
  963MOL0     H32860   9.291   7.907   7.500  0.0924 -1.5666 -3.3437
  963MOL0     H32861   9.262   8.076   7.457  0.0937  0.1234 -0.3533
  963MOL0     H32862   9.299   8.004   7.214 -2.8715  0.4059 -0.6701
  963MOL0     H32863   9.176   7.891   7.273  0.7903 -2.1859  1.0336
  963MOL0     H32864   9.380   7.726   7.321  3.2765 -2.0677 -3.0715
  963MOL0     H32865   9.455   7.855   7.220 -1.0218  2.4509 -1.4505
  963MOL0     H32866   9.200   7.724   7.122  0.4177 -0.5599  0.8266
  963MOL0     H32867   9.323   7.814   7.026  1.8644 -2.3939 -1.9738
  963MOL0     H32868   9.375   7.557   7.157  1.1186  1.0365  0.4749
  963MOL0     H32869   9.478   7.656   7.046 -0.3796  1.7450  2.2518
  963MOL0     H32870   9.232   7.558   6.942 -1.0132 -0.1283  4.1129
  963MOL0     H32871   9.321   7.431   7.002 -1.8064  0.0679 -0.6783
  963MOL0     H32872   9.466   7.614   6.806 -2.0399  0.9209 -4.0575
  963MOL0     H32873   9.355   7.488   6.759 -1.9754  2.8574  0.0336
  963MOL0     H32874   9.606   8.134   7.774 -0.4927  0.9258 -0.5382
  963MOL0     H32875   9.821   8.197   7.820 -2.5318 -1.4024  0.8407
  963MOL0     H32876  10.092   8.231   7.900  0.7733  1.8048  0.0707
  963MOL0     H32877  10.268   8.305   8.070  1.2425 -1.2375  0.7011
  963MOL0     H32878  10.078   9.442   9.025 -3.1825  1.5467  0.3491
  963MOL0     H32879   9.914   9.375   9.181  2.3481  0.5152 -0.4044
  963MOL0     H32880   9.550   8.971   9.203  0.8273  4.5050 -0.2288
  963MOL0     H32881   9.386   8.812   9.322  0.6079 -1.8909  1.5653
  963MOL0     H32882   9.517   8.768   9.693  0.7001  1.3835  1.2049
  963MOL0     H32883   9.374   8.808   9.785  2.8696  0.7002  1.3717
  963MOL0     H32884   9.241   8.610   9.685 -1.1828 -2.5797 -0.5753
  963MOL0     H32885   9.375   8.576   9.798 -2.2732 -0.4466  0.9729
  963MOL0     H32886   9.499   8.488   9.658 -0.7175  0.8738  2.2843
  963MOL0     H32887   9.343   8.427   9.601  1.7585 -0.8314  1.5852
  963MOL0     H32888   9.538   8.620   9.480  0.5883 -0.7919  0.7049
  963MOL0     H32889   9.375   8.612   9.407  1.5718  2.1064 -0.3879
  963MOL0     H32890   9.540   8.244   9.272 -0.5641 -0.6403 -0.9553
  963MOL0     H32891   9.493   9.018   9.677 -1.8159  0.4927 -0.2964
  963MOL0     H32892   9.619   9.257   9.621 -2.0121 -0.4207  0.6123
  963MOL0     H32893   9.704   9.124   9.701  1.9694 -2.6039 -2.2788
  963MOL0     H32894   9.784   9.211   9.568 -2.3319  2.8609 -0.9327
  964MOL0     O32895   8.808  11.539  11.422  0.3366 -0.5101  0.3250
  964MOL0     C32896   8.700  11.591  11.434  0.1517 -0.6254  0.2899
  964MOL0     O32897   8.643  11.610  11.550 -0.4342 -0.0579  0.2620
  964MOL0     C32898   8.697  11.574  11.668  0.3172  0.3907 -0.0418
  964MOL0     C32899   8.700  11.674  11.767  0.2139  0.7249 -1.5039
  964MOL0     C32900   8.742  11.655  11.898 -0.7702  0.8964 -0.2695
  964MOL0     C32901   8.777  11.526  11.928 -1.0813  1.0011 -0.4418
  964MOL0     O32902   8.834  11.478  12.044  0.4161  0.2666  0.4172
  964MOL0     C32903   8.878  11.559  12.151  0.4415 -0.3206  0.3255
  964MOL0     C32904   8.785  11.570  12.279 -0.0701  0.3584  0.3971
  964MOL0     C32905   8.656  11.646  12.282 -0.3065  0.0458  1.2345
  964MOL0     C32906   8.564  11.586  12.371  0.1768 -0.0005  0.6397
  964MOL0     C32907   8.471  11.689  12.439  0.5950  0.1329 -0.5970
  964MOL0     C32908   8.378  11.775  12.349 -0.7542  1.0726  0.9110
  964MOL0     C32909   8.272  11.836  12.430  0.6648  0.0363  0.1577
  964MOL0     C32910   8.203  11.958  12.374 -0.2649 -0.2125 -0.2191
  964MOL0     N32911   8.304  12.071  12.347  0.2986 -0.6856  0.6186
  964MOL0     C32912   8.252  12.190  12.299  0.1496 -0.4124 -0.2563
  964MOL0     C32913   8.367  12.267  12.291  0.6798 -0.4805  0.3773
  964MOL0     C32914   8.368  12.401  12.241 -1.1130  0.4303  0.5362
  964MOL0     C32915   8.384  12.376  12.093 -1.1215  0.7764 -0.0929
  964MOL0     C32916   8.421  12.508  12.012  0.2775 -0.5468 -0.2053
  964MOL0     C32917   8.400  12.491  11.863 -0.3529 -0.4199 -0.5777
  964MOL0     O32918   8.448  12.365  11.811 -0.0517  0.2618  0.4371
  964MOL0     C32919   8.395  12.348  11.679 -0.0331 -1.0999  0.1782
  964MOL0     C32920   8.304  12.247  11.659  0.7296  0.2324 -0.5404
  964MOL0     C32921   8.276  12.213  11.525  0.3844 -0.2380 -0.1911
  964MOL0     C32922   8.198  12.082  11.506  0.3137 -0.1534 -0.1870
  964MOL0     C32923   8.327  12.292  11.410  0.6056  0.2147 -1.1701
  964MOL0     C32924   8.274  12.272  11.268  0.1686  0.3919 -1.5860
  964MOL0     O32925   8.266  12.391  11.193  0.0941  0.6631  0.6729
  964MOL0     C32926   8.175  12.378  11.089 -0.9149 -0.1142 -0.6383
  964MOL0     C32927   8.046  12.417  11.115 -0.0617  0.3441 -0.2197
  964MOL0     C32928   7.951  12.405  11.013  0.0068  0.8223  0.3544
  964MOL0     C32929   7.987  12.349  10.885 -0.6507  0.2698 -1.1092
  964MOL0     O32930   7.881  12.303  10.807  0.1595 -0.5619 -0.7367
  964MOL0     C32931   7.897  12.205  10.709  0.2827  0.7094  0.4879
  964MOL0     C32932   7.775  12.157  10.623 -0.2660 -0.0172  0.3046
  964MOL0     C32933   7.686  12.280  10.594 -0.3584  0.6865  0.3670
  964MOL0     C32934   7.598  12.259  10.469 -0.8765 -0.0539 -0.5019
  964MOL0     C32935   7.595  12.390  10.395  0.2921 -0.6320 -0.1511
  964MOL0     C32936   7.511  12.387  10.276 -0.0723  0.2538  0.1306
  964MOL0     C32937   7.495  12.507  10.196  0.7263  0.0953 -0.4482
  964MOL0     C32938   7.454  12.638  10.273  0.6392  1.2946 -0.1975
  964MOL0    Cl32939   7.318  12.595  10.374  0.0022 -0.0579  0.3328
  964MOL0     C32940   8.123  12.310  10.865  0.6283 -0.4889  0.3295
  964MOL0     C32941   8.215  12.333  10.963 -0.0147  0.4547  1.0065
  964MOL0     O32942   8.237  12.159  11.228 -0.2230 -0.3114  0.4010
  964MOL0     C32943   8.413  12.395  11.439 -0.3296 -0.3265  0.6056
  964MOL0     C32944   8.459  12.422  11.575 -0.4967 -0.5318 -0.3493
  964MOL0     N32945   8.472  12.202  12.349  0.7134  0.3465 -0.3218
  964MOL0     N32946   8.435  12.081  12.385  0.4196  0.1234 -0.1788
  964MOL0     C32947   8.776  11.428  11.835 -0.5445  0.3213  0.5385
  964MOL0     C32948   8.742  11.451  11.704 -0.9784  0.6068  0.4819
  964MOL0     C32949   8.637  11.642  11.305 -0.6846  0.5939 -0.5917
  964MOL0     C32950   8.691  11.619  11.181 -0.4603 -0.2735  0.6300
  964MOL0     C32951   8.633  11.659  11.066 -0.5448  1.1808 -0.0303
  964MOL0     C32952   8.511  11.724  11.067 -0.3006 -0.3789  0.2701
  964MOL0     O32953   8.443  11.761  10.951  0.3347  0.5862 -0.6776
  964MOL0     C32954   8.521  11.763  10.827  0.3985 -0.1567 -0.0807
  964MOL0     C32955   8.470  11.858  10.717 -0.5016  0.5265  0.2123
  964MOL0     C32956   8.344  11.806  10.652 -0.4721 -1.0002 -0.2352
  964MOL0     C32957   8.239  11.927  10.658 -0.5281 -0.0903  0.9815
  964MOL0     C32958   8.279  12.030  10.567  0.6021 -0.1106  0.4674
  964MOL0     C32959   8.300  12.113  10.483 -0.3358  0.6699 -0.0957
  964MOL0     C32960   8.444  11.738  11.188 -0.3219 -0.1260  0.1553
  964MOL0     C32961   8.506  11.702  11.312  0.5485 -0.1978 -0.1087
  964MOL0     C32962   8.443  11.739  11.439 -0.0703 -0.5162 -0.3186
  964MOL0     H32963   8.657  11.771  11.746 -0.5107  0.7297 -0.0581
  964MOL0     H32964   8.757  11.732  11.972  0.5603  1.0489 -0.6643
  964MOL0     H32965   8.906  11.657  12.112  1.4067 -0.6660  0.1123
  964MOL0     H32966   8.972  11.509  12.178  0.6966 -0.3205 -0.5503
  964MOL0     H32967   8.760  11.467  12.303  0.0237  0.4870  1.0572
  964MOL0     H32968   8.857  11.607  12.352  1.5117 -0.8806 -0.4635
  964MOL0     H32969   8.670  11.752  12.306 -0.8267  0.2070  0.8650
  964MOL0     H32970   8.626  11.654  12.177 -1.1034  0.8717  1.5085
  964MOL0     H32971   8.502  11.516  12.314  0.4222  0.1614  0.1662
  964MOL0     H32972   8.623  11.533  12.447  1.0785 -1.7781 -1.1779
  964MOL0     H32973   8.526  11.755  12.506  3.2810 -0.3981 -2.0950
  964MOL0     H32974   8.400  11.637  12.504  0.6426  1.0669  0.2226
  964MOL0     H32975   8.439  11.854  12.305 -0.4906  0.4879  0.1990
  964MOL0     H32976   8.346  11.700  12.276 -0.4092  1.3926  0.4256
  964MOL0     H32977   8.310  11.866  12.528 -2.4292  0.5991  1.3173
  964MOL0     H32978   8.199  11.754  12.425 -0.9142  1.4375 -0.9932
  964MOL0     H32979   8.144  11.936  12.284 -2.6459 -0.0885  1.2344
  964MOL0     H32980   8.133  11.999  12.447  1.6002  2.9166 -0.0306
  964MOL0     H32981   8.153  12.199  12.254  1.0843 -0.0665 -2.3567
  964MOL0     H32982   8.460  12.451  12.271 -0.6552 -0.2775  0.3333
  964MOL0     H32983   8.277  12.461  12.254 -0.1170  2.4632 -1.1068
  964MOL0     H32984   8.477  12.321  12.076  0.3385  4.1032 -5.1907
  964MOL0     H32985   8.298  12.330  12.044 -1.1926  1.3424 -0.5180
  964MOL0     H32986   8.358  12.593  12.036 -1.1249 -2.0564  1.7965
  964MOL0     H32987   8.526  12.533  12.032 -0.5272  1.5532  1.8111
  964MOL0     H32988   8.291  12.483  11.855 -0.3936  1.3855 -2.3648
  964MOL0     H32989   8.445  12.576  11.812  5.0154 -3.3737 -1.4975
  964MOL0     H32990   8.272  12.192  11.747  0.8742  2.3236  0.9225
  964MOL0     H32991   8.168  12.043  11.603 -1.1248 -0.9917 -0.9445
  964MOL0     H32992   8.269  12.014  11.458  2.6652  1.4495  0.8029
  964MOL0     H32993   8.117  12.108  11.437 -0.9258 -1.2059  0.8274
  964MOL0     H32994   8.013  12.448  11.214 -0.3079 -0.6299  0.0130
  964MOL0     H32995   7.851  12.444  11.025 -0.3360  0.6996 -1.6714
  964MOL0     H32996   7.969  12.248  10.639 -1.2548  0.3913 -1.3722
  964MOL0     H32997   7.942  12.113  10.748 -1.6630 -1.1609 -1.3853
  964MOL0     H32998   7.809  12.107  10.532  0.2641  1.1898 -0.1830
  964MOL0     H32999   7.717  12.077  10.669 -0.8064 -0.6101 -1.3279
  964MOL0     H33000   7.757  12.361  10.572 -1.3418  1.2636 -0.7857
  964MOL0     H33001   7.625  12.303  10.681 -0.1116 -1.0932  1.0572
  964MOL0     H33002   7.498  12.220  10.486 -0.0316 -2.1901 -0.0723
  964MOL0     H33003   7.656  12.200  10.398  4.5522  2.5860  1.1546
  964MOL0     H33004   7.547  12.460  10.464 -1.1904 -4.4112  3.0305
  964MOL0     H33005   7.696  12.410  10.358 -0.6473  3.9676 -0.8113
  964MOL0     H33006   7.411  12.356  10.309 -0.6017  1.5454 -0.1802
  964MOL0     H33007   7.552  12.306  10.215  1.8822  0.2847  1.3156
  964MOL0     H33008   7.408  12.485  10.133  1.2250  1.3971 -1.6466
  964MOL0     H33009   7.582  12.518  10.130  0.5956  2.3568 -0.3373
  964MOL0     H33010   7.407  12.712  10.209 -2.6802  0.6522  1.2728
  964MOL0     H33011   7.531  12.675  10.341 -1.3561 -1.0128  3.7093
  964MOL0     H33012   8.151  12.259  10.774  3.4374 -0.7933  1.2526
  964MOL0     H33013   8.311  12.285  10.949 -0.7352 -1.1463  1.3513
  964MOL0     H33014   8.460  12.458  11.364  0.7835  0.8209  2.1734
  964MOL0     H33015   8.529  12.505  11.581 -0.1489 -0.7238 -1.4801
  964MOL0     H33016   8.804  11.326  11.861  1.5634  0.3358 -1.3877
  964MOL0     H33017   8.738  11.377  11.625 -0.1072  1.0867 -0.0345
  964MOL0     H33018   8.776  11.555  11.159 -2.0855 -3.0639  1.9163
  964MOL0     H33019   8.673  11.624  10.971  0.7636 -1.1912  1.3000
  964MOL0     H33020   8.622  11.798  10.845  0.5762 -1.3140  1.3271
  964MOL0     H33021   8.531  11.660  10.791 -0.1307  0.0085 -0.7365
  964MOL0     H33022   8.545  11.863  10.637 -0.0907 -0.2423  0.5417
  964MOL0     H33023   8.459  11.962  10.749  2.3290  0.5639  1.3205
  964MOL0     H33024   8.347  11.775  10.547 -2.9141  0.0380 -0.6980
  964MOL0     H33025   8.306  11.725  10.716 -0.4858 -1.3233 -0.6523
  964MOL0     H33026   8.243  11.967  10.760  3.8010  0.9605  0.5880
  964MOL0     H33027   8.136  11.895  10.643 -1.0846  1.0879  2.0700
  964MOL0     H33028   8.315  12.190  10.410  2.1460 -0.9687 -1.4865
  964MOL0     H33029   8.339  11.764  11.187 -1.1831 -2.9807  2.3333
  964MOL0     H33030   8.361  11.810  11.423  1.5766  2.0480  1.6975
  964MOL0     H33031   8.401  11.654  11.493 -0.1953 -2.4870 -3.3160
  964MOL0     H33032   8.511  11.798  11.502 -1.4202  1.1390 -0.3309
  965MOL0     O33033   6.249   9.836   6.554  0.0463 -0.4452  0.1887
  965MOL0     C33034   6.288   9.722   6.530  0.4338 -1.6548 -0.7461
  965MOL0     O33035   6.220   9.614   6.571 -0.7396  0.3935 -0.8124
  965MOL0     C33036   6.100   9.632   6.645  0.2979 -0.9819 -0.4942
  965MOL0     C33037   6.095   9.555   6.756 -0.0815  0.6846 -0.9691
  965MOL0     C33038   5.982   9.549   6.826  1.1240  0.0746 -0.2256
  965MOL0     C33039   5.872   9.628   6.804 -0.7160  0.3814 -0.0579
  965MOL0     O33040   5.760   9.603   6.896 -0.0831 -0.4226 -0.4757
  965MOL0     C33041   5.639   9.661   6.844 -0.3847 -0.2188  0.0238
  965MOL0     C33042   5.519   9.631   6.924 -0.5424  0.2142  0.2658
  965MOL0     C33043   5.449   9.508   6.877  0.2357 -0.0307  0.1849
  965MOL0     C33044   5.516   9.379   6.942  0.5965  0.0769  0.2962
  965MOL0     C33045   5.452   9.240   6.912  0.8837 -0.4977  0.4157
  965MOL0     C33046   5.535   9.122   6.965 -0.4789 -0.1501  0.5232
  965MOL0     C33047   5.467   8.988   6.963 -0.0324 -0.4636 -0.2824
  965MOL0     C33048   5.343   8.976   7.056 -0.9220 -0.5872 -0.4081
  965MOL0     N33049   5.371   8.983   7.206 -0.0231 -0.1862  0.8918
  965MOL0     C33050   5.472   8.914   7.277 -1.1787 -0.2726 -0.1367
  965MOL0     C33051   5.428   8.896   7.399  0.5108 -0.9882  0.0751
  965MOL0     C33052   5.502   8.853   7.519 -0.5523 -0.0080 -1.3554
  965MOL0     C33053   5.443   8.728   7.582 -0.7194 -1.1570 -0.2035
  965MOL0     C33054   5.543   8.668   7.677  0.5137  0.2050 -0.6828
  965MOL0     C33055   5.471   8.562   7.760 -0.7105 -0.2699 -0.2600
  965MOL0     O33056   5.437   8.447   7.682 -0.7226  0.6033  0.9577
  965MOL0     C33057   5.547   8.369   7.642 -0.1102  0.5217 -0.2434
  965MOL0     C33058   5.503   8.242   7.587 -0.3994 -0.1221 -0.7322
  965MOL0     C33059   5.600   8.149   7.540  0.2016 -0.3363 -0.0510
  965MOL0     C33060   5.547   8.018   7.479 -1.1115 -0.3930 -0.4285
  965MOL0     C33061   5.735   8.180   7.550 -0.1341 -0.4609  0.5239
  965MOL0     C33062   5.844   8.097   7.485 -0.2484 -0.5785  0.3302
  965MOL0     O33063   5.961   8.157   7.472  0.1930  0.3054  0.0877
  965MOL0     C33064   6.071   8.084   7.447 -0.1024  0.4281  1.5556
  965MOL0     C33065   6.168   8.049   7.544  1.1520  0.5539  0.0246
  965MOL0     C33066   6.276   7.966   7.507 -0.8226 -0.3883  0.2318
  965MOL0     C33067   6.304   7.934   7.374  0.0078 -0.7106  0.0869
  965MOL0     O33068   6.406   7.859   7.341  0.1706  0.5408 -0.0494
  965MOL0     C33069   6.529   7.899   7.409  0.0591 -0.4938  0.5591
  965MOL0     C33070   6.567   7.804   7.523 -0.0859  0.4719  0.1397
  965MOL0     C33071   6.676   7.702   7.481 -0.2325 -0.6888  0.4620
  965MOL0     C33072   6.633   7.603   7.376 -0.6796  0.3528 -1.1295
  965MOL0     C33073   6.538   7.488   7.423 -0.2472 -0.9424 -0.0564
  965MOL0     C33074   6.616   7.392   7.522 -0.1072 -0.1899 -0.2171
  965MOL0     C33075   6.597   7.243   7.494  0.1098  0.5647  0.3262
  965MOL0     C33076   6.464   7.181   7.543 -0.5694  0.2442 -0.5501
  965MOL0    Cl33077   6.479   7.014   7.498  0.3471  0.2911  0.1689
  965MOL0     C33078   6.205   7.972   7.282 -0.0663 -0.1458  0.9425
  965MOL0     C33079   6.093   8.049   7.314 -0.4650  1.0080  0.1881
  965MOL0     O33080   5.824   7.979   7.470  0.4641  0.1009  0.5087
  965MOL0     C33081   5.773   8.297   7.607  0.0360 -0.7209  0.2010
  965MOL0     C33082   5.683   8.389   7.664 -0.3654  0.4076  0.4090
  965MOL0     N33083   5.303   8.947   7.403 -0.6009 -0.3923 -0.1682
  965MOL0     N33084   5.274   9.009   7.294 -0.4130 -0.0660  0.2707
  965MOL0     C33085   5.886   9.722   6.700 -0.4631 -0.7223 -0.6647
  965MOL0     C33086   6.000   9.722   6.621  0.0212 -0.4770  0.6338
  965MOL0     C33087   6.405   9.712   6.447 -0.4742  0.5344  0.3799
  965MOL0     C33088   6.406   9.609   6.348 -0.1750  1.0021 -0.3723
  965MOL0     C33089   6.512   9.588   6.262  0.2639 -0.1976  0.3282
  965MOL0     C33090   6.621   9.674   6.263 -0.4464  0.4820 -0.1519
  965MOL0     O33091   6.716   9.643   6.178  0.4337 -0.2515  0.4018
  965MOL0     C33092   6.824   9.726   6.161  0.4226 -0.4151  1.3098
  965MOL0     C33093   6.927   9.664   6.063  0.6002 -0.1723  0.1302
  965MOL0     C33094   7.063   9.730   6.061  0.4090  0.7776  0.7640
  965MOL0     C33095   7.182   9.646   6.117 -0.1802 -0.7040 -0.1634
  965MOL0     C33096   7.298   9.724   6.129 -0.2416 -0.1406  0.4712
  965MOL0     C33097   7.408   9.784   6.129 -1.3423  0.4997  0.3485
  965MOL0     C33098   6.619   9.779   6.355 -0.9311 -0.1647  0.7995
  965MOL0     C33099   6.517   9.799   6.451 -0.9925  0.1883 -0.7665
  965MOL0     C33100   6.532   9.924   6.533 -0.0820  0.0012  0.0784
  965MOL0     H33101   6.186   9.503   6.783 -2.5889 -2.0712  3.2568
  965MOL0     H33102   5.972   9.500   6.922 -1.3972  1.7334  0.4400
  965MOL0     H33103   5.626   9.636   6.738  0.4845  0.4636 -0.2541
  965MOL0     H33104   5.646   9.770   6.844  2.1388 -0.3112 -1.4871
  965MOL0     H33105   5.551   9.605   7.025  2.7451 -0.5374 -0.8413
  965MOL0     H33106   5.432   9.698   6.922 -1.7328 -1.1717  2.0897
  965MOL0     H33107   5.346   9.510   6.914  0.9439 -4.4535  3.2700
  965MOL0     H33108   5.449   9.512   6.768 -0.7188 -0.3921  0.1570
  965MOL0     H33109   5.615   9.372   6.895  0.7152  2.9950 -0.0961
  965MOL0     H33110   5.525   9.399   7.049  0.9775 -2.0296  0.6899
  965MOL0     H33111   5.454   9.233   6.803  2.8802  0.9399  0.3015
  965MOL0     H33112   5.348   9.243   6.945  1.0148 -0.0614  0.8088
  965MOL0     H33113   5.624   9.107   6.904  0.3839 -1.0129  1.9425
  965MOL0     H33114   5.577   9.142   7.064  2.7766 -0.6756 -0.6104
  965MOL0     H33115   5.540   8.907   6.975 -1.1825 -1.4168  0.4739
  965MOL0     H33116   5.431   8.974   6.860  0.0748  1.3909 -0.5970
  965MOL0     H33117   5.270   9.055   7.035  1.7847  2.4595  0.9016
  965MOL0     H33118   5.307   8.875   7.037  2.6492 -1.9646 -0.5986
  965MOL0     H33119   5.572   8.893   7.241 -1.4117  0.2333 -1.1090
  965MOL0     H33120   5.507   8.938   7.589  2.1601 -0.6899 -0.6031
  965MOL0     H33121   5.607   8.839   7.491 -0.2592  3.9249 -2.9293
  965MOL0     H33122   5.363   8.754   7.651 -0.1893  0.7742 -0.2580
  965MOL0     H33123   5.395   8.665   7.506 -4.4614  0.0166  0.9878
  965MOL0     H33124   5.627   8.633   7.616  0.5022  0.1826 -0.6859
  965MOL0     H33125   5.576   8.750   7.742 -0.0279 -1.2285  1.4881
  965MOL0     H33126   5.537   8.541   7.845  0.2590 -0.4823 -1.0570
  965MOL0     H33127   5.376   8.612   7.786 -2.5339 -0.7012 -5.1601
  965MOL0     H33128   5.398   8.213   7.585 -0.0006 -1.8241  0.6142
  965MOL0     H33129   5.571   7.951   7.562 -0.3680  1.6034  1.0507
  965MOL0     H33130   5.593   7.999   7.382 -1.3108 -2.0676 -0.2199
  965MOL0     H33131   5.438   8.025   7.467 -1.0642 -1.4268 -1.6627
  965MOL0     H33132   6.165   8.078   7.648  0.9582  1.1744 -0.1504
  965MOL0     H33133   6.339   7.937   7.591  1.6802  0.0602 -1.3804
  965MOL0     H33134   6.610   7.909   7.336 -0.1505 -1.7765  0.1165
  965MOL0     H33135   6.514   8.003   7.438 -2.9156 -0.0904 -1.9004
  965MOL0     H33136   6.605   7.869   7.602  3.7097 -0.5428 -0.6804
  965MOL0     H33137   6.477   7.754   7.561 -0.8004  0.4030 -1.5782
  965MOL0     H33138   6.725   7.646   7.561 -2.0021 -2.5195  0.3297
  965MOL0     H33139   6.756   7.758   7.432  0.5213  2.4399  4.7108
  965MOL0     H33140   6.726   7.563   7.334  0.3910  1.9575 -0.4082
  965MOL0     H33141   6.578   7.665   7.305  0.8169  0.6449 -2.0779
  965MOL0     H33142   6.451   7.534   7.471  1.0353  1.4731  0.0675
  965MOL0     H33143   6.513   7.431   7.333  2.8002  0.0655 -1.6552
  965MOL0     H33144   6.584   7.413   7.625 -1.9976  0.2437 -0.8426
  965MOL0     H33145   6.725   7.406   7.519 -0.0323 -0.2045  1.5872
  965MOL0     H33146   6.669   7.178   7.545  0.8711 -1.1402 -2.7175
  965MOL0     H33147   6.601   7.230   7.386 -3.5710 -0.5211  0.1975
  965MOL0     H33148   6.377   7.235   7.505 -2.2676  0.7339  3.5435
  965MOL0     H33149   6.454   7.197   7.651  0.8198  2.4619 -0.6973
  965MOL0     H33150   6.213   7.938   7.179  1.0320  3.8851 -0.5150
  965MOL0     H33151   6.010   8.063   7.245 -1.5513 -1.9581  0.7487
  965MOL0     H33152   5.873   8.338   7.611 -1.2467  2.6685  2.7855
  965MOL0     H33153   5.724   8.471   7.722  0.1215 -1.0103  2.1839
  965MOL0     H33154   5.812   9.790   6.658 -0.3351 -0.9512 -1.2785
  965MOL0     H33155   6.016   9.792   6.540 -1.7619  0.4075  0.9924
  965MOL0     H33156   6.324   9.538   6.352 -0.3037  1.0159 -2.0190
  965MOL0     H33157   6.505   9.508   6.190  1.6357 -0.4172  0.4103
  965MOL0     H33158   6.791   9.822   6.121  0.8632 -0.9137 -0.3368
  965MOL0     H33159   6.877   9.757   6.251  0.5353  2.5065  0.3321
  965MOL0     H33160   6.878   9.678   5.966  1.8916  0.9802 -0.3821
  965MOL0     H33161   6.931   9.556   6.085 -2.1332 -0.3097  0.3144
  965MOL0     H33162   7.089   9.761   5.959 -0.1109  1.4020  0.8142
  965MOL0     H33163   7.046   9.830   6.104 -0.0354  1.4009 -0.7758
  965MOL0     H33164   7.209   9.553   6.067 -1.3248 -0.9248 -0.3834
  965MOL0     H33165   7.142   9.623   6.216 -1.7182 -1.7760 -0.9930
  965MOL0     H33166   7.493   9.849   6.124  0.3693 -1.6874 -0.9738
  965MOL0     H33167   6.694   9.856   6.371 -1.6785  0.7704 -0.1042
  965MOL0     H33168   6.486   9.916   6.632 -1.3306 -1.7575 -0.5812
  965MOL0     H33169   6.636   9.952   6.550 -0.0091 -1.0675  1.7110
  965MOL0     H33170   6.479  10.004   6.481 -1.3454 -0.0412  1.2448
  966MOL0     O33171   6.029   8.422   6.881 -0.4568 -0.0491  0.1397
  966MOL0     C33172   5.985   8.522   6.820 -0.5531  0.1062  0.5166
  966MOL0     O33173   5.872   8.595   6.863  0.4490 -0.0139  0.1483
  966MOL0     C33174   5.756   8.537   6.924 -0.7264  0.3281  0.6804
  966MOL0     C33175   5.694   8.620   7.018  0.1556 -0.1308  0.4265
  966MOL0     C33176   5.564   8.584   7.067 -0.2359  0.6207  0.0267
  966MOL0     C33177   5.515   8.455   7.042  0.1350 -0.1259  0.5820
  966MOL0     O33178   5.398   8.416   7.099  0.5795  0.5112 -0.2584
  966MOL0     C33179   5.396   8.413   7.242  0.4398 -0.0675 -0.1884
  966MOL0     C33180   5.267   8.458   7.300 -0.4996  0.4407 -0.0171
  966MOL0     C33181   5.140   8.403   7.229  0.2418 -0.5127  0.0797
  966MOL0     C33182   5.013   8.476   7.278  0.1985  0.7787  0.1448
  966MOL0     C33183   4.883   8.427   7.215  0.9643  0.3191  0.2208
  966MOL0     C33184   4.758   8.474   7.294  0.1550 -1.0259  0.0365
  966MOL0     C33185   4.633   8.417   7.227  0.8330  0.6539 -0.8313
  966MOL0     C33186   4.525   8.415   7.337  0.4103 -0.1787 -0.4045
  966MOL0     N33187   4.428   8.308   7.319 -0.3527  0.1185  0.3835
  966MOL0     C33188   4.296   8.323   7.279 -0.1805 -1.2965  0.6001
  966MOL0     C33189   4.259   8.202   7.237 -0.0479 -0.4054 -0.5224
  966MOL0     C33190   4.121   8.175   7.182  0.6485 -0.2448  0.6126
  966MOL0     C33191   4.100   8.268   7.061  0.7941 -0.0209 -0.5076
  966MOL0     C33192   3.952   8.271   7.040  0.1434 -0.1692 -0.3438
  966MOL0     C33193   3.911   8.360   6.925  0.7915  0.2391  0.1928
  966MOL0     O33194   3.944   8.498   6.955  0.0542 -0.2081 -0.4543
  966MOL0     C33195   3.919   8.597   6.860  0.9085  0.2216 -0.5574
  966MOL0     C33196   3.931   8.732   6.914  0.2678 -0.9665 -0.7436
  966MOL0     C33197   3.919   8.844   6.841 -0.2105 -0.3024  0.1501
  966MOL0     C33198   3.920   8.971   6.923 -0.2919  0.5294 -0.7506
  966MOL0     C33199   3.901   8.832   6.705  0.1716 -0.1516  0.6206
  966MOL0     C33200   3.917   8.949   6.611  0.8040 -0.6906  0.2700
  966MOL0     O33201   4.014   9.046   6.640 -0.0729  0.2767  0.3451
  966MOL0     C33202   4.043   9.141   6.548  0.1280 -0.1885 -1.2961
  966MOL0     C33203   4.176   9.144   6.508  0.0073 -0.0683  0.2001
  966MOL0     C33204   4.215   9.252   6.421  0.7585 -0.3207 -0.7140
  966MOL0     C33205   4.125   9.354   6.377  0.7985  0.3231 -0.4791
  966MOL0     O33206   4.163   9.427   6.268 -0.0500 -0.3578 -0.1668
  966MOL0     C33207   4.062   9.452   6.171  0.4454 -0.3559  0.6062
  966MOL0     C33208   4.120   9.517   6.051 -0.4292  0.5006  0.8617
  966MOL0     C33209   4.204   9.650   6.081  0.0030  0.0650  1.0764
  966MOL0     C33210   4.115   9.774   6.100  1.1131 -1.3321  0.5665
  966MOL0     C33211   4.176   9.904   6.036  0.4685 -0.1207  0.6196
  966MOL0     C33212   4.154   9.906   5.881  0.0989 -0.1359 -0.2298
  966MOL0     C33213   4.053  10.013   5.844 -0.2770  0.2382 -0.4526
  966MOL0     C33214   3.912   9.997   5.896  0.6943  0.4776  1.0417
  966MOL0    Cl33215   3.835   9.868   5.794  0.0472 -0.4232  0.3792
  966MOL0     C33216   3.992   9.353   6.432 -0.5529  1.0397 -0.5970
  966MOL0     C33217   3.954   9.247   6.520 -0.1707  0.0028  0.9411
  966MOL0     O33218   3.848   8.945   6.509  0.2517  0.5454  0.3961
  966MOL0     C33219   3.876   8.700   6.648 -0.7861  0.6092  0.0561
  966MOL0     C33220   3.886   8.589   6.727  0.2903  0.2196 -0.3302
  966MOL0     N33221   4.367   8.111   7.258  0.8367  0.9998  0.3215
  966MOL0     N33222   4.465   8.174   7.312 -0.7229 -0.2434  0.1753
  966MOL0     C33223   5.592   8.368   6.965 -0.3395  0.6049  0.2449
  966MOL0     C33224   5.710   8.409   6.898  1.2266  0.0809 -0.1961
  966MOL0     C33225   6.079   8.598   6.731 -0.3917  0.3699  0.5331
  966MOL0     C33226   6.071   8.733   6.698  0.9536  0.5263  0.1167
  966MOL0     C33227   6.167   8.818   6.649 -1.1770  0.9651 -0.1680
  966MOL0     C33228   6.295   8.757   6.630  0.2512 -0.9561  0.9353
  966MOL0     O33229   6.407   8.824   6.592  0.3270  0.0193 -0.0564
  966MOL0     C33230   6.475   8.882   6.698  0.3109 -0.1905 -0.1816
  966MOL0     C33231   6.626   8.870   6.669  1.6296  1.0918  0.9456
  966MOL0     C33232   6.684   8.899   6.530 -0.0666 -0.0722  0.0681
  966MOL0     C33233   6.671   9.058   6.511 -1.0345 -0.2996  0.7419
  966MOL0     C33234   6.757   9.143   6.607  0.2006 -0.6140 -1.0846
  966MOL0     C33235   6.840   9.200   6.689 -0.1562  1.5603  0.5526
  966MOL0     C33236   6.309   8.619   6.656  0.4241  0.4486 -0.1171
  966MOL0     C33237   6.196   8.535   6.672 -0.2948  0.4344  0.4004
  966MOL0     C33238   6.234   8.398   6.679 -0.1263  0.9076  0.7791
  966MOL0     H33239   5.743   8.716   7.036 -0.1577  0.3843 -1.3174
  966MOL0     H33240   5.503   8.656   7.120 -0.7680  1.2512 -1.3801
  966MOL0     H33241   5.470   8.477   7.291 -1.2753  0.7341  1.5315
  966MOL0     H33242   5.421   8.310   7.268  0.5878 -0.3227 -1.3125
  966MOL0     H33243   5.252   8.438   7.407 -0.4982  0.2607 -0.0488
  966MOL0     H33244   5.250   8.564   7.282 -1.5614  0.2433 -0.2526
  966MOL0     H33245   5.129   8.430   7.123 -3.2330  0.3384  0.5210
  966MOL0     H33246   5.133   8.295   7.239 -0.6752 -0.6084 -1.2918
  966MOL0     H33247   5.000   8.464   7.386  0.8141  0.9973  0.2480
  966MOL0     H33248   5.015   8.585   7.266 -1.4257  0.7916 -0.1377
  966MOL0     H33249   4.880   8.319   7.225 -0.1662  0.5114  2.7728
  966MOL0     H33250   4.871   8.454   7.110 -2.5666 -1.6736 -0.0063
  966MOL0     H33251   4.772   8.444   7.398 -2.0012 -0.4298  0.5691
  966MOL0     H33252   4.766   8.583   7.291 -0.9860 -0.9166 -3.2467
  966MOL0     H33253   4.654   8.314   7.196 -1.6567 -1.2256  3.0242
  966MOL0     H33254   4.601   8.479   7.142 -3.1506 -2.2160 -1.7472
  966MOL0     H33255   4.576   8.389   7.430 -0.1182  1.3134  0.3411
  966MOL0     H33256   4.489   8.518   7.350  3.2064  0.9236 -0.7141
  966MOL0     H33257   4.235   8.413   7.279  0.6648 -0.7105  0.6906
  966MOL0     H33258   4.048   8.184   7.264 -0.6238 -0.5634 -0.4501
  966MOL0     H33259   4.125   8.071   7.148  1.8357  0.3895 -1.3131
  966MOL0     H33260   4.143   8.367   7.080  0.0947  1.3080 -4.7469
  966MOL0     H33261   4.149   8.230   6.971 -1.2254 -1.9063 -0.8700
  966MOL0     H33262   3.935   8.167   7.010  2.6278 -0.2336 -1.7709
  966MOL0     H33263   3.915   8.302   7.138  1.1180 -2.1016  0.7012
  966MOL0     H33264   3.956   8.326   6.832  1.6934  0.6779  0.4612
  966MOL0     H33265   3.802   8.348   6.926  0.9502 -1.3980 -0.0212
  966MOL0     H33266   3.948   8.737   7.021  1.3626 -2.1635 -0.8243
  966MOL0     H33267   3.820   9.017   6.927  0.0181  1.1341  0.5685
  966MOL0     H33268   3.985   9.047   6.878  0.8737  0.8693  1.4061
  966MOL0     H33269   3.960   8.960   7.024  2.5076  0.3633 -1.7966
  966MOL0     H33270   4.245   9.062   6.526 -1.5133 -1.4750 -0.1841
  966MOL0     H33271   4.317   9.248   6.383  3.4499 -3.9308  5.5096
  966MOL0     H33272   4.014   9.357   6.143  2.1274 -1.0706  0.0581
  966MOL0     H33273   3.990   9.519   6.219  1.8590  1.7450 -0.0695
  966MOL0     H33274   4.192   9.450   6.002 -0.4914  1.0059  0.0537
  966MOL0     H33275   4.044   9.546   5.978 -1.8388 -0.8895  1.7026
  966MOL0     H33276   4.279   9.661   6.002  2.2057 -1.8828  2.7668
  966MOL0     H33277   4.262   9.648   6.174  0.3732  2.1972  0.9461
  966MOL0     H33278   4.089   9.792   6.204  0.4962 -0.5830  0.2907
  966MOL0     H33279   4.017   9.753   6.056  1.6297 -0.9870 -0.8066
  966MOL0     H33280   4.131   9.990   6.084  0.7252 -0.0212  0.6845
  966MOL0     H33281   4.285   9.914   6.046  1.0919 -3.3357 -1.1899
  966MOL0     H33282   4.126   9.810   5.837  1.2248  0.7716 -3.2018
  966MOL0     H33283   4.243   9.940   5.827 -2.1819 -0.2899 -4.5897
  966MOL0     H33284   4.059  10.021   5.735  2.0964 -1.5731 -0.5184
  966MOL0     H33285   4.090  10.108   5.882 -1.6479  0.8236 -0.5216
  966MOL0     H33286   3.853  10.089   5.889  2.9678  1.9907  0.7343
  966MOL0     H33287   3.906   9.973   6.003 -1.2152  0.5864  0.9990
  966MOL0     H33288   3.916   9.428   6.410 -3.0633  0.9639  5.8094
  966MOL0     H33289   3.857   9.252   6.570  0.1702  1.7766  1.5247
  966MOL0     H33290   3.842   8.686   6.546  0.8663 -3.2260 -0.1162
  966MOL0     H33291   3.865   8.488   6.691  2.3627 -0.4299  0.1436
  966MOL0     H33292   5.557   8.266   6.951 -0.0022 -0.0334  3.4137
  966MOL0     H33293   5.760   8.336   6.835 -0.0104 -3.1491  2.2883
  966MOL0     H33294   5.984   8.790   6.729  0.8667  0.4888 -0.0564
  966MOL0     H33295   6.146   8.924   6.642  1.4327  1.7812  2.3871
  966MOL0     H33296   6.452   8.988   6.710  3.1045  0.3159  1.8088
  966MOL0     H33297   6.458   8.830   6.793 -2.5115  0.0287 -0.4794
  966MOL0     H33298   6.650   8.763   6.670 -1.3376  0.1308 -3.5668
  966MOL0     H33299   6.671   8.920   6.756  0.4443 -1.4464  3.1660
  966MOL0     H33300   6.788   8.869   6.513 -0.0130  1.6025 -3.2917
  966MOL0     H33301   6.624   8.860   6.448 -0.5089  2.9805 -1.1595
  966MOL0     H33302   6.570   9.099   6.511 -0.6177  0.7504  0.7602
  966MOL0     H33303   6.722   9.074   6.416  3.1020  2.1983  3.0878
  966MOL0     H33304   6.908   9.222   6.768  3.2697 -1.2043 -1.3362
  966MOL0     H33305   6.404   8.565   6.660 -1.0273 -2.4794 -1.8566
  966MOL0     H33306   6.148   8.331   6.691  1.1727 -0.4288  3.6741
  966MOL0     H33307   6.295   8.378   6.591  1.7503 -0.5744  2.3219
  966MOL0     H33308   6.299   8.380   6.765  1.3060 -2.8644 -0.8551
  967MOL0     O33309  10.090   6.227   7.783  1.0168 -0.2057  0.7368
  967MOL0     C33310  10.108   6.352   7.777 -0.3568 -0.2236  0.2176
  967MOL0     O33311  10.221   6.411   7.821  0.0662  0.0112  0.7002
  967MOL0     C33312  10.304   6.346   7.899  0.3308  0.5290 -0.8966
  967MOL0     C33313  10.261   6.284   8.021  0.0262  0.3771  0.0430
  967MOL0     C33314  10.356   6.213   8.100 -0.7017 -0.3372  0.1441
  967MOL0     C33315  10.494   6.227   8.071  0.5122  0.8358  0.5316
  967MOL0     O33316  10.583   6.164   8.153  0.2737  0.4154  0.1880
  967MOL0     C33317  10.694   6.092   8.096 -0.4744 -0.4634  0.0331
  967MOL0     C33318  10.759   5.995   8.202  1.3162  0.2534 -0.5407
  967MOL0     C33319  10.828   6.065   8.328 -0.1349  0.6488  0.7954
  967MOL0     C33320  10.977   6.100   8.297 -0.0741  0.1295 -0.4624
  967MOL0     C33321  11.044   6.163   8.427  0.8600 -0.1018  0.3100
  967MOL0     C33322  10.959   6.284   8.467  0.3603 -0.4425 -0.8532
  967MOL0     C33323  11.049   6.385   8.544 -0.7350  0.1821  0.8737
  967MOL0     C33324  11.159   6.328   8.643  0.4419 -0.5817  0.8193
  967MOL0     N33325  11.101   6.257   8.763 -0.2916 -0.8318  0.4999
  967MOL0     C33326  11.171   6.210   8.866  0.2735 -0.2107 -0.9678
  967MOL0     C33327  11.071   6.169   8.957 -0.0640  0.8171 -0.5842
  967MOL0     C33328  11.102   6.074   9.073 -0.1217  0.3461  0.1832
  967MOL0     C33329  10.984   5.996   9.110 -0.2816 -0.1110  0.8490
  967MOL0     C33330  10.888   6.084   9.196 -0.2870 -0.1988 -0.4312
  967MOL0     C33331  10.800   6.004   9.284  0.0758  0.2847 -0.2517
  967MOL0     O33332  10.714   6.091   9.359  0.0977  0.8003  0.1436
  967MOL0     C33333  10.731   6.114   9.492 -0.3236  0.4109  0.5601
  967MOL0     C33334  10.804   6.034   9.586  0.1380 -0.2133 -0.5048
  967MOL0     C33335  10.821   6.063   9.723 -0.6705  0.0611  0.8647
  967MOL0     C33336  10.908   5.971   9.807  0.4491 -0.3597 -0.2348
  967MOL0     C33337  10.748   6.165   9.772 -0.2443  0.4145 -0.1406
  967MOL0     C33338  10.737   6.198   9.922 -0.9457  1.0828  1.0233
  967MOL0     O33339  10.752   6.095  10.008  0.7544  0.8065  0.6821
  967MOL0     C33340  10.801   6.137  10.131  0.4830  0.9506 -0.5211
  967MOL0     C33341  10.923   6.206  10.148 -0.2654  0.7641 -0.2901
  967MOL0     C33342  10.959   6.248  10.282  0.5759  1.4414  1.0810
  967MOL0     C33343  10.879   6.238  10.398  0.8748  0.0975 -0.1845
  967MOL0     O33344  10.912   6.286  10.521  0.6050 -0.4106 -0.2728
  967MOL0     C33345  10.817   6.284  10.634 -0.9247 -0.3803  0.3259
  967MOL0     C33346  10.887   6.369  10.738  1.0065  0.0432  0.4735
  967MOL0     C33347  11.013   6.319  10.818 -0.4334  0.1588  0.0619
  967MOL0     C33348  11.034   6.383  10.956  0.4904 -0.0529  0.0206
  967MOL0     C33349  11.116   6.308  11.053 -0.6980 -0.1690  0.3111
  967MOL0     C33350  11.098   6.356  11.201  0.4377 -0.0505  0.5050
  967MOL0     C33351  10.954   6.334  11.256  0.5260  1.0498  0.2203
  967MOL0     C33352  10.940   6.283  11.398 -0.2028  0.3514 -0.2423
  967MOL0    Cl33353  10.995   6.108  11.407 -0.3974 -0.2190 -0.3460
  967MOL0     C33354  10.764   6.164  10.372  0.1125 -0.7976  0.0463
  967MOL0     C33355  10.724   6.116  10.250 -0.2447 -0.5042 -0.5506
  967MOL0     O33356  10.711   6.314   9.947  0.7933  0.0210  0.2995
  967MOL0     C33357  10.684   6.249   9.682 -0.1750  0.3519  0.2371
  967MOL0     C33358  10.664   6.218   9.550  0.1850 -0.0327 -0.3774
  967MOL0     N33359  10.947   6.215   8.909 -1.3255  1.0655 -0.2512
  967MOL0     N33360  10.970   6.273   8.798 -0.7975  0.1691 -0.8022
  967MOL0     C33361  10.536   6.297   7.954  0.2204  0.2613 -0.5887
  967MOL0     C33362  10.442   6.355   7.875 -0.3517 -1.0464 -0.3953
  967MOL0     C33363  10.000   6.443   7.730  0.1294 -0.3935  0.1485
  967MOL0     C33364   9.912   6.393   7.627  0.5742 -0.1134 -1.1062
  967MOL0     C33365   9.812   6.480   7.573  0.1391  0.8062 -0.2654
  967MOL0     C33366   9.786   6.609   7.609 -0.3730 -0.4359 -0.0740
  967MOL0     O33367   9.670   6.664   7.561 -0.7310  0.5482 -0.0860
  967MOL0     C33368   9.662   6.800   7.589  0.4209  1.0573 -0.0088
  967MOL0     C33369   9.544   6.860   7.519  1.3303  0.2921  0.5643
  967MOL0     C33370   9.551   7.016   7.533  0.3090  0.0565  0.2645
  967MOL0     C33371   9.442   7.100   7.456  0.1176 -0.3073  0.2202
  967MOL0     C33372   9.491   7.118   7.318 -0.7406  0.3979 -0.3622
  967MOL0     C33373   9.543   7.128   7.209  0.5778 -1.1943  0.9187
  967MOL0     C33374   9.881   6.655   7.703  0.2436  1.1556  0.3313
  967MOL0     C33375   9.984   6.581   7.762 -0.1975 -0.3478  0.8323
  967MOL0     C33376  10.068   6.639   7.874  0.5336  0.2514 -0.2937
  967MOL0     H33377  10.155   6.280   8.044 -0.6239  0.6264 -2.5407
  967MOL0     H33378  10.330   6.158   8.190 -0.3823 -1.3222 -0.3569
  967MOL0     H33379  10.768   6.164   8.057 -2.0461  0.9701 -0.4093
  967MOL0     H33380  10.656   6.020   8.022 -1.0386 -1.4811  1.2875
  967MOL0     H33381  10.679   5.933   8.244 -1.8534  2.5499 -2.7050
  967MOL0     H33382  10.820   5.924   8.144  0.5086  0.7016 -2.0055
  967MOL0     H33383  10.764   6.153   8.338  0.3433  0.8257  2.5202
  967MOL0     H33384  10.837   6.010   8.422  1.9949 -1.6683 -0.6167
  967MOL0     H33385  11.037   6.014   8.265  0.7840  0.5466 -0.0074
  967MOL0     H33386  10.982   6.172   8.215 -5.3104  0.9169 -0.3942
  967MOL0     H33387  11.147   6.192   8.403  0.7362 -0.1383 -0.2791
  967MOL0     H33388  11.061   6.092   8.509  0.7459  0.2857  0.6758
  967MOL0     H33389  10.925   6.324   8.371  3.4272 -0.3144 -1.9973
  967MOL0     H33390  10.879   6.241   8.528  1.0355  0.8784  1.0214
  967MOL0     H33391  10.989   6.447   8.611  1.4252 -0.5705  3.7510
  967MOL0     H33392  11.097   6.453   8.474 -1.8213  1.0185  0.9177
  967MOL0     H33393  11.224   6.251   8.598  0.7177  0.5867 -0.8606
  967MOL0     H33394  11.224   6.410   8.674  0.2602 -0.0917 -0.0650
  967MOL0     H33395  11.278   6.194   8.873  0.1627 -0.7292 -0.3343
  967MOL0     H33396  11.153   6.124   9.155  1.0466  1.7551 -1.3378
  967MOL0     H33397  11.166   6.000   9.024  0.0403  1.3536 -1.2107
  967MOL0     H33398  10.928   5.957   9.025  1.2507 -0.7443  0.0998
  967MOL0     H33399  11.019   5.913   9.173  1.6266  0.7465  0.9842
  967MOL0     H33400  10.953   6.148   9.256 -0.3071 -0.8650  0.3154
  967MOL0     H33401  10.828   6.143   9.127 -0.4099 -2.8713 -2.8277
  967MOL0     H33402  10.726   5.941   9.234 -0.1988 -2.0618  2.8218
  967MOL0     H33403  10.862   5.940   9.348 -2.1918 -0.8650  0.9052
  967MOL0     H33404  10.848   5.937   9.565  1.9693  0.1583  1.3519
  967MOL0     H33405  10.985   5.924   9.745 -2.0824 -3.7107 -1.1588
  967MOL0     H33406  10.847   5.883   9.830  0.2177 -1.6959 -4.8291
  967MOL0     H33407  10.959   6.017   9.892 -2.0025  1.0293  0.5644
  967MOL0     H33408  10.992   6.219  10.066  1.5624 -0.1285  1.0303
  967MOL0     H33409  11.063   6.276  10.293  0.1965  2.1507  3.3495
  967MOL0     H33410  10.720   6.327  10.608 -0.2469  1.6796  0.9609
  967MOL0     H33411  10.815   6.187  10.684  1.6105  0.3365  2.0416
  967MOL0     H33412  10.913   6.455  10.676  2.5242 -0.9792 -0.3651
  967MOL0     H33413  10.811   6.401  10.810 -0.1313 -2.2737  0.4000
  967MOL0     H33414  11.103   6.345  10.761 -0.3904  2.0832  0.9390
  967MOL0     H33415  10.997   6.212  10.831  0.0010  0.1332  0.3879
  967MOL0     H33416  10.937   6.402  11.003  1.1670 -0.0325  1.4674
  967MOL0     H33417  11.070   6.485  10.940 -0.9464  0.9005  2.2945
  967MOL0     H33418  11.092   6.201  11.051  0.5982 -0.4707 -0.5655
  967MOL0     H33419  11.220   6.319  11.021  0.1239  2.2907  3.3808
  967MOL0     H33420  11.120   6.463  11.204  2.4245 -0.4398  1.0726
  967MOL0     H33421  11.171   6.306  11.264  1.8333  2.0433  0.6665
  967MOL0     H33422  10.910   6.259  11.190  2.6486 -1.5512  1.5565
  967MOL0     H33423  10.895   6.425  11.244 -1.8911 -0.4805 -0.1334
  967MOL0     H33424  10.834   6.288  11.426 -0.1770  2.5346 -0.4144
  967MOL0     H33425  10.987   6.361  11.458  3.9794 -2.9481  1.2993
  967MOL0     H33426  10.699   6.148  10.457  0.7049  0.3250  0.7474
  967MOL0     H33427  10.621   6.086  10.237 -0.7164  1.0156 -0.5441
  967MOL0     H33428  10.632   6.329   9.733 -1.6374 -1.7143  2.1729
  967MOL0     H33429  10.605   6.285   9.488 -0.3257  0.3405  0.4898
  967MOL0     H33430  10.643   6.304   7.933  0.7810 -3.0202  0.5903
  967MOL0     H33431  10.470   6.419   7.791  0.8350 -1.3353 -0.2330
  967MOL0     H33432   9.921   6.291   7.591 -0.5034 -0.6582  0.0856
  967MOL0     H33433   9.750   6.444   7.491  0.0186 -0.1491  0.2288
  967MOL0     H33434   9.641   6.808   7.696 -3.1999  0.1181 -0.5370
  967MOL0     H33435   9.754   6.848   7.555  1.9830 -0.9948  1.1357
  967MOL0     H33436   9.448   6.821   7.556  1.4032 -0.3107  0.1374
  967MOL0     H33437   9.541   6.835   7.413  0.5270  0.7731  0.4661
  967MOL0     H33438   9.541   7.037   7.640  5.0469  1.1778  0.6744
  967MOL0     H33439   9.651   7.048   7.504  0.8708 -2.2097 -0.4884
  967MOL0     H33440   9.434   7.198   7.504  0.8116  0.7703 -1.7153
  967MOL0     H33441   9.343   7.054   7.460  0.3579 -0.7121  2.3164
  967MOL0     H33442   9.604   7.147   7.123  1.1531  1.6683  1.8405
  967MOL0     H33443   9.861   6.755   7.739  1.1518  2.6570 -2.9665
  967MOL0     H33444  10.060   6.570   7.959 -1.6534  1.7715  0.8393
  967MOL0     H33445  10.171   6.642   7.838  0.3248  2.6649 -0.8772
  967MOL0     H33446  10.038   6.740   7.903 -0.0933 -0.2279  0.8076
  968MOL0     O33447   5.992   6.480   0.248 -0.0894  0.6728  0.1669
  968MOL0     C33448   5.993   6.366   0.192  0.3015  0.5716 -0.9182
  968MOL0     O33449   5.893   6.267   0.215 -0.0897 -0.6907  0.5664
  968MOL0     C33450   5.868   6.236   0.347  0.1695 -0.3564  0.4645
  968MOL0     C33451   5.951   6.145   0.411 -0.2094  0.2494 -0.0972
  968MOL0     C33452   5.941   6.115   0.550  0.4860 -0.2467  0.5346
  968MOL0     C33453   5.836   6.165   0.618 -0.3340 -0.5693  1.0004
  968MOL0     O33454   5.820   6.139   0.747  0.3231  0.4514 -0.1069
  968MOL0     C33455   5.781   6.257   0.824  0.2491  0.0985 -0.0249
  968MOL0     C33456   5.852   6.232   0.959  0.0590 -0.6280 -0.9430
  968MOL0     C33457   5.775   6.301   1.075 -0.4106  0.1836  0.1750
  968MOL0     C33458   5.836   6.260   1.208 -0.0675 -0.9289  0.8164
  968MOL0     C33459   5.817   6.366   1.324 -0.9627 -0.3954 -0.3421
  968MOL0     C33460   5.834   6.295   1.465 -0.7656 -0.6005  0.1269
  968MOL0     C33461   5.821   6.392   1.584 -0.3109 -0.1551  0.9651
  968MOL0     C33462   5.875   6.332   1.713 -0.0661  0.3578  0.6381
  968MOL0     N33463   5.877   6.425   1.819 -0.0458 -0.0175 -0.2715
  968MOL0     C33464   5.824   6.555   1.820  0.1952 -0.3198 -0.6134
  968MOL0     C33465   5.870   6.612   1.939 -0.4558 -0.6513  0.2591
  968MOL0     C33466   5.839   6.742   1.999  0.1903 -0.1017  1.1398
  968MOL0     C33467   5.789   6.732   2.145 -0.4777  1.2109  1.0873
  968MOL0     C33468   5.721   6.870   2.182 -1.3860 -0.2794 -0.0640
  968MOL0     C33469   5.694   6.894   2.336 -0.1561 -0.2741 -0.0816
  968MOL0     O33470   5.613   6.785   2.381  0.0125 -0.4577 -1.1303
  968MOL0     C33471   5.584   6.803   2.507 -0.1380  0.5337  0.0629
  968MOL0     C33472   5.585   6.910   2.597 -0.2091 -0.4193 -0.2114
  968MOL0     C33473   5.553   6.900   2.731 -0.9138  0.1906  0.4451
  968MOL0     C33474   5.580   7.025   2.813  0.5981 -0.1807 -0.5527
  968MOL0     C33475   5.501   6.780   2.782  0.0416 -0.4916 -0.6528
  968MOL0     C33476   5.454   6.770   2.920 -1.1042 -0.6036  0.5489
  968MOL0     O33477   5.499   6.863   3.012 -0.2086 -0.4610  0.9797
  968MOL0     C33478   5.436   6.869   3.133  0.2534  0.8867 -0.7179
  968MOL0     C33479   5.526   6.861   3.234 -0.0378  0.6952  0.8321
  968MOL0     C33480   5.480   6.889   3.365 -0.0869 -0.3202  0.4777
  968MOL0     C33481   5.348   6.930   3.390  0.1712  0.1996  0.7776
  968MOL0     O33482   5.291   6.950   3.510  0.2207  0.1617  0.1187
  968MOL0     C33483   5.376   7.034   3.582 -0.3053 -0.6472  0.0321
  968MOL0     C33484   5.289   7.096   3.687 -1.2188 -0.0878 -0.3472
  968MOL0     C33485   5.233   7.229   3.615 -0.3810  0.2561 -0.0039
  968MOL0     C33486   5.322   7.343   3.653 -0.7353  0.9569 -1.1754
  968MOL0     C33487   5.254   7.475   3.616 -1.1565  0.1020 -0.4304
  968MOL0     C33488   5.352   7.595   3.609 -0.3224  0.0720  0.1477
  968MOL0     C33489   5.262   7.725   3.585 -0.7466  1.1049 -0.3509
  968MOL0     C33490   5.341   7.853   3.598 -0.4610  0.5695 -1.0207
  968MOL0    Cl33491   5.282   7.987   3.510 -0.1039  0.0728 -0.4897
  968MOL0     C33492   5.256   6.926   3.287  0.2131  1.1015  0.3746
  968MOL0     C33493   5.294   6.902   3.158 -0.7867 -0.2742  0.2006
  968MOL0     O33494   5.359   6.699   2.946 -1.2870  0.2349  0.0414
  968MOL0     C33495   5.491   6.671   2.693 -0.5056 -1.6157  0.6080
  968MOL0     C33496   5.526   6.682   2.561 -0.1870  0.6479 -0.2027
  968MOL0     N33497   5.960   6.524   1.999  0.4112  0.3665  0.1710
  968MOL0     N33498   5.969   6.420   1.920  0.3335  0.5732 -0.4502
  968MOL0     C33499   5.746   6.249   0.548  0.2340 -0.7414 -0.2554
  968MOL0     C33500   5.775   6.292   0.420  0.4490  0.0193 -0.2512
  968MOL0     C33501   6.087   6.339   0.088 -0.9036  1.0055 -0.1019
  968MOL0     C33502   6.101   6.216   0.033 -0.2705 -0.0264 -0.3335
  968MOL0     C33503   6.182   6.184  -0.073  0.2865 -0.5101 -0.6710
  968MOL0     C33504   6.268   6.279  -0.124  0.0913  0.0659 -0.3427
  968MOL0     O33505   6.349   6.253  -0.237  0.3978  0.9410 -0.4370
  968MOL0     C33506   6.489   6.253  -0.216 -0.6334  0.1006  0.2149
  968MOL0     C33507   6.566   6.290  -0.351  1.0538  0.2076 -0.6407
  968MOL0     C33508   6.546   6.443  -0.365  0.4637  0.5804  0.2087
  968MOL0     C33509   6.621   6.498  -0.486  0.5073 -0.2719  0.2336
  968MOL0     C33510   6.769   6.484  -0.475 -0.0006  0.9241 -0.4108
  968MOL0     C33511   6.886   6.447  -0.463  0.1426 -0.8582  0.0300
  968MOL0     C33512   6.263   6.407  -0.072 -0.0212 -0.0470 -0.1928
  968MOL0     C33513   6.171   6.438   0.027  0.7681 -0.2048 -0.7277
  968MOL0     C33514   6.165   6.590   0.066  0.3431 -0.2089  1.3006
  968MOL0     H33515   6.028   6.091   0.357 -2.7336 -0.1540 -3.6686
  968MOL0     H33516   6.018   6.053   0.596  2.4049 -0.1340 -2.2319
  968MOL0     H33517   5.672   6.262   0.834  0.0215 -0.2810 -1.9522
  968MOL0     H33518   5.819   6.349   0.780 -0.2258  0.7838  0.9706
  968MOL0     H33519   5.854   6.124   0.976  1.8323 -0.4363  0.3986
  968MOL0     H33520   5.956   6.264   0.957  0.2325 -1.1887 -1.1451
  968MOL0     H33521   5.790   6.408   1.057  1.3751 -0.0373  0.1009
  968MOL0     H33522   5.668   6.283   1.073 -0.1655 -1.3424 -2.2442
  968MOL0     H33523   5.800   6.165   1.249  0.9826 -0.8371  2.0219
  968MOL0     H33524   5.944   6.252   1.191 -0.4086 -0.4250 -2.1092
  968MOL0     H33525   5.715   6.405   1.317 -0.9104 -0.4287 -1.7011
  968MOL0     H33526   5.888   6.449   1.317 -0.3103 -0.6529  2.2684
  968MOL0     H33527   5.768   6.209   1.480  1.3148 -2.2100  0.4741
  968MOL0     H33528   5.936   6.255   1.467 -0.3025  0.5561  1.1693
  968MOL0     H33529   5.714   6.412   1.593 -0.5340  0.1482 -1.7426
  968MOL0     H33530   5.887   6.474   1.555 -1.7616  1.2941  1.6357
  968MOL0     H33531   5.828   6.237   1.739  0.8452 -0.2888  0.0269
  968MOL0     H33532   5.977   6.295   1.696 -0.6837 -0.3062 -2.3010
  968MOL0     H33533   5.761   6.608   1.749  1.4125  0.6989 -0.9680
  968MOL0     H33534   5.762   6.790   1.937  0.9419 -3.4637 -2.8828
  968MOL0     H33535   5.932   6.798   1.987  0.9379 -1.2733  1.2447
  968MOL0     H33536   5.716   6.653   2.162 -0.0105  1.0536  2.4569
  968MOL0     H33537   5.882   6.713   2.201  1.2029  3.6208 -0.6725
  968MOL0     H33538   5.788   6.948   2.146  0.6030 -2.3764 -1.1462
  968MOL0     H33539   5.630   6.862   2.121  0.9972  2.2320 -4.4861
  968MOL0     H33540   5.784   6.903   2.398 -0.7018 -1.4618  0.9249
  968MOL0     H33541   5.643   6.990   2.346  0.2154 -0.0281 -0.5375
  968MOL0     H33542   5.622   7.009   2.574  1.7821 -1.3539 -1.3050
  968MOL0     H33543   5.655   7.003   2.889 -0.9470 -0.5544  0.9104
  968MOL0     H33544   5.486   7.047   2.864  0.6850 -3.1783  1.1252
  968MOL0     H33545   5.608   7.110   2.749 -2.2244  0.0609 -1.5994
  968MOL0     H33546   5.627   6.828   3.211 -1.1705 -2.3722 -0.3901
  968MOL0     H33547   5.548   6.876   3.448  0.8236 -0.0310 -0.2114
  968MOL0     H33548   5.453   6.970   3.627  0.5629  0.5596  0.3192
  968MOL0     H33549   5.430   7.114   3.531 -0.0900 -1.4619 -1.0538
  968MOL0     H33550   5.204   7.034   3.716 -1.5215 -0.0143 -1.0709
  968MOL0     H33551   5.355   7.116   3.772 -1.3225  0.1842 -0.3321
  968MOL0     H33552   5.132   7.254   3.651  0.4699 -0.6777  3.3373
  968MOL0     H33553   5.235   7.243   3.506 -0.2748  2.7432  0.2486
  968MOL0     H33554   5.420   7.325   3.607 -0.0485 -1.2306  0.9396
  968MOL0     H33555   5.330   7.333   3.762 -0.1010 -2.0916 -1.4137
  968MOL0     H33556   5.212   7.472   3.516  0.2551  1.6218 -1.1153
  968MOL0     H33557   5.179   7.478   3.696  1.0258 -3.7101  2.0586
  968MOL0     H33558   5.433   7.584   3.537  2.0394  0.8707  2.5277
  968MOL0     H33559   5.407   7.618   3.701  5.8165  2.7977 -3.5693
  968MOL0     H33560   5.179   7.723   3.657 -0.1485 -0.9908  0.3709
  968MOL0     H33561   5.210   7.724   3.489 -2.9704  2.0821  0.7629
  968MOL0     H33562   5.447   7.840   3.579 -0.3466 -0.5902  0.2304
  968MOL0     H33563   5.338   7.879   3.705  1.2788 -3.4309  0.2034
  968MOL0     H33564   5.156   6.953   3.320  0.5809  1.9443  0.8207
  968MOL0     H33565   5.216   6.910   3.083 -1.4734 -2.1155  0.6531
  968MOL0     H33566   5.457   6.571   2.718 -4.4362 -1.5147 -3.1555
  968MOL0     H33567   5.493   6.600   2.498  0.3828 -0.6807  1.1655
  968MOL0     H33568   5.657   6.290   0.595  0.5294 -0.0472 -0.2850
  968MOL0     H33569   5.706   6.362   0.372  1.7658  1.3687 -0.2693
  968MOL0     H33570   6.056   6.128   0.078 -0.3313 -0.1763 -0.6870
  968MOL0     H33571   6.182   6.078  -0.100 -2.7812 -0.5990 -0.6985
  968MOL0     H33572   6.511   6.325  -0.137 -2.0950 -1.4801  2.1551
  968MOL0     H33573   6.523   6.157  -0.177  0.6084  0.6059  0.4470
  968MOL0     H33574   6.527   6.233  -0.437  1.3340  1.6510 -1.7641
  968MOL0     H33575   6.675   6.280  -0.345  1.0006  0.5340  1.3177
  968MOL0     H33576   6.440   6.468  -0.376  0.5585  1.1266  0.5019
  968MOL0     H33577   6.570   6.490  -0.270 -3.5693  0.7391  1.3338
  968MOL0     H33578   6.598   6.604  -0.498 -0.8498 -0.8551 -5.7479
  968MOL0     H33579   6.584   6.446  -0.575 -0.7929  1.0448 -0.0340
  968MOL0     H33580   6.984   6.413  -0.436  0.4299  0.2930  0.5085
  968MOL0     H33581   6.332   6.481  -0.111  0.1739  2.7659  4.6252
  968MOL0     H33582   6.236   6.648   0.007 -2.3860 -0.6745 -2.8833
  968MOL0     H33583   6.068   6.633   0.040  0.2906 -0.1320  1.6220
  968MOL0     H33584   6.186   6.603   0.172 -1.9845 -2.8814  2.2320
  969MOL0     O33585   1.072  10.423   2.267 -0.1182  0.6648 -1.1990
  969MOL0     C33586   1.005  10.520   2.279  0.1301 -0.5100 -0.2199
  969MOL0     O33587   0.872  10.516   2.261 -0.3199 -0.4384  0.1038
  969MOL0     C33588   0.812  10.401   2.208  0.0418  0.0668 -0.5762
  969MOL0     C33589   0.823  10.282   2.262  0.1097 -0.3666  0.3514
  969MOL0     C33590   0.789  10.161   2.186 -0.8128 -0.6130  0.2257
  969MOL0     C33591   0.744  10.170   2.053  0.3540  1.4862 -1.0905
  969MOL0     O33592   0.743  10.059   1.966  0.3753 -0.3248  0.3105
  969MOL0     C33593   0.717   9.928   2.014 -0.0496 -1.2592  0.3167
  969MOL0     C33594   0.642   9.846   1.906 -0.0016  0.5060  0.4368
  969MOL0     C33595   0.748   9.821   1.789 -0.0171  1.3479 -0.2664
  969MOL0     C33596   0.861   9.729   1.844 -0.2644 -0.6301 -0.8911
  969MOL0     C33597   0.953   9.694   1.725  0.0475 -0.8105  0.0660
  969MOL0     C33598   0.897   9.573   1.636  0.0754  0.1636  0.2103
  969MOL0     C33599   0.824   9.613   1.516  0.2666 -0.0645  0.3238
  969MOL0     C33600   0.804   9.504   1.408  0.1418 -1.1869  0.0858
  969MOL0     N33601   0.917   9.500   1.313 -0.6675 -0.2971  0.3090
  969MOL0     C33602   0.940   9.586   1.205 -0.2867  0.2850  1.1376
  969MOL0     C33603   1.029   9.509   1.128  0.9713 -0.8846  0.2564
  969MOL0     C33604   1.071   9.536   0.985 -0.1928 -0.0598  0.3737
  969MOL0     C33605   0.968   9.497   0.872  0.5841  0.4378 -0.3087
  969MOL0     C33606   0.903   9.357   0.893  0.2221 -0.3776  0.0489
  969MOL0     C33607   0.987   9.240   0.910  0.2722 -0.2567  0.5853
  969MOL0     O33608   0.905   9.118   0.914  0.0479 -0.0252  0.6102
  969MOL0     C33609   0.964   8.995   0.918 -0.1736 -0.4047  0.3225
  969MOL0     C33610   1.090   8.978   0.972 -0.4465  0.1408  0.2951
  969MOL0     C33611   1.135   8.844   0.986  0.1016 -0.6125  1.1757
  969MOL0     C33612   1.258   8.820   1.052  0.2059 -0.7097 -0.5685
  969MOL0     C33613   1.063   8.737   0.918  0.2626 -0.8095  0.1763
  969MOL0     C33614   1.112   8.594   0.907  0.3084 -0.3743  0.8813
  969MOL0     O33615   1.083   8.517   0.792 -0.1685  0.0839  0.5520
  969MOL0     C33616   1.141   8.392   0.775  0.3935 -0.4233  0.8881
  969MOL0     C33617   1.261   8.397   0.712  0.1401  0.0713 -0.1627
  969MOL0     C33618   1.324   8.283   0.665 -0.3449 -0.3442 -0.9856
  969MOL0     C33619   1.264   8.162   0.695  0.4152  0.1199  0.0645
  969MOL0     O33620   1.327   8.057   0.636  0.1831  0.2145  0.6001
  969MOL0     C33621   1.262   7.923   0.640 -0.0484 -0.7946  1.3546
  969MOL0     C33622   1.270   7.860   0.780  0.0738 -0.1816 -0.0261
  969MOL0     C33623   1.415   7.833   0.819  0.2647  0.6180  0.4139
  969MOL0     C33624   1.416   7.725   0.934 -1.0562 -0.8336 -0.0061
  969MOL0     C33625   1.569   7.716   0.982  0.7479  0.2748  0.6087
  969MOL0     C33626   1.576   7.632   1.108 -0.6890  0.3609 -0.1782
  969MOL0     C33627   1.486   7.504   1.111 -0.5595  0.6902 -0.0886
  969MOL0     C33628   1.514   7.404   1.222  0.9863  0.9871 -0.6608
  969MOL0    Cl33629   1.380   7.295   1.245  0.0393 -0.0498 -0.0656
  969MOL0     C33630   1.139   8.156   0.756  0.0509 -0.6668  0.2132
  969MOL0     C33631   1.082   8.274   0.795 -0.2437 -0.1268 -0.5731
  969MOL0     O33632   1.174   8.550   1.006 -0.2959 -0.1204  0.4336
  969MOL0     C33633   0.940   8.763   0.862  0.9668  0.6325 -0.5727
  969MOL0     C33634   0.889   8.893   0.866  0.0314  0.6169 -0.2736
  969MOL0     N33635   1.040   9.383   1.183  0.2209 -0.3169  0.2742
  969MOL0     N33636   0.968   9.376   1.293  0.3170  0.8181  0.3578
  969MOL0     C33637   0.716  10.296   2.012  0.3454 -0.4639 -0.2107
  969MOL0     C33638   0.755  10.413   2.077 -0.3384 -0.4799 -0.4839
  969MOL0     C33639   1.066  10.650   2.292  0.7329 -0.6437 -0.0504
  969MOL0     C33640   1.185  10.646   2.361  0.1607 -0.5170 -0.2683
  969MOL0     C33641   1.252  10.764   2.395  1.1729 -1.2099 -0.4093
  969MOL0     C33642   1.198  10.893   2.360 -0.4748  0.3446  0.0607
  969MOL0     O33643   1.254  11.005   2.400 -0.8426  0.3804 -0.2875
  969MOL0     C33644   1.272  11.029   2.541  1.6103 -1.5158  0.0419
  969MOL0     C33645   1.147  11.107   2.585  0.2880  0.0872  1.0518
  969MOL0     C33646   1.129  11.245   2.514 -0.8781 -1.3015  0.5420
  969MOL0     C33647   0.987  11.307   2.525  0.3709  0.2630  0.1948
  969MOL0     C33648   0.866  11.224   2.505  0.3623  0.7025 -0.2188
  969MOL0     C33649   0.769  11.149   2.491  0.1641 -0.5649 -0.1205
  969MOL0     C33650   1.079  10.894   2.284  0.1055 -0.8883 -0.0132
  969MOL0     C33651   1.010  10.775   2.253 -0.3791  0.2303 -0.3314
  969MOL0     C33652   0.871  10.797   2.189 -0.3749  0.1502  0.8099
  969MOL0     H33653   0.871  10.277   2.360 -1.5166  2.7272  1.4260
  969MOL0     H33654   0.820  10.067   2.230 -4.4945 -1.6664  0.8483
  969MOL0     H33655   0.655   9.934   2.104 -1.1637 -1.8727 -0.3830
  969MOL0     H33656   0.802   9.876   2.058 -1.2890 -3.1690  0.5470
  969MOL0     H33657   0.596   9.757   1.949  3.3764 -1.5829  0.0782
  969MOL0     H33658   0.564   9.912   1.865 -0.6370  1.7082  3.3415
  969MOL0     H33659   0.702   9.768   1.705  2.0333  0.4485 -0.8738
  969MOL0     H33660   0.786   9.912   1.740 -2.1610  0.5082 -3.8475
  969MOL0     H33661   0.922   9.789   1.913 -0.0431  0.0371 -1.6480
  969MOL0     H33662   0.836   9.643   1.906  0.9575  2.0644  3.8976
  969MOL0     H33663   1.054   9.670   1.761  2.0491  4.5400 -1.0371
  969MOL0     H33664   0.974   9.785   1.667 -1.1402  0.2019  1.1835
  969MOL0     H33665   0.985   9.523   1.595 -0.7746  0.2732 -1.8874
  969MOL0     H33666   0.842   9.497   1.694  2.7287 -3.9327 -2.1147
  969MOL0     H33667   0.876   9.702   1.481 -0.1341  0.6170  1.4019
  969MOL0     H33668   0.724   9.640   1.553  0.4954  0.1244  0.8163
  969MOL0     H33669   0.789   9.404   1.448 -1.8613 -1.6434 -1.5909
  969MOL0     H33670   0.716   9.534   1.351 -0.5679 -0.9076  1.2976
  969MOL0     H33671   0.880   9.673   1.183 -1.3969 -1.2244 -2.4937
  969MOL0     H33672   1.161   9.482   0.957 -2.8222 -3.0031 -3.5749
  969MOL0     H33673   1.085   9.644   0.980 -2.7432  0.3559  0.6146
  969MOL0     H33674   0.889   9.572   0.866  2.3445  2.4213 -0.1115
  969MOL0     H33675   1.022   9.498   0.777 -1.7954 -0.0373 -1.7421
  969MOL0     H33676   0.842   9.369   0.984  2.6866 -0.5813  1.8422
  969MOL0     H33677   0.825   9.332   0.821  0.5773 -1.7378  0.1141
  969MOL0     H33678   1.057   9.237   0.826  0.8155  2.1895  0.8654
  969MOL0     H33679   1.053   9.238   0.997  1.4272 -2.3384 -0.2470
  969MOL0     H33680   1.137   9.055   1.032  0.3228  1.0281 -1.3909
  969MOL0     H33681   1.243   8.745   1.131  0.6311 -0.5194 -0.3052
  969MOL0     H33682   1.316   8.900   1.098 -0.5618 -0.7813  0.5828
  969MOL0     H33683   1.325   8.771   0.981 -1.4542 -3.1694 -0.6004
  969MOL0     H33684   1.315   8.489   0.690 -0.9221  0.9500  0.8138
  969MOL0     H33685   1.419   8.286   0.612 -0.8380  0.1342 -1.8626
  969MOL0     H33686   1.158   7.926   0.608 -0.0996 -1.6162  1.4134
  969MOL0     H33687   1.304   7.854   0.566 -0.6039  0.2300  0.0375
  969MOL0     H33688   1.247   7.932   0.860 -0.8399 -1.8171  1.2542
  969MOL0     H33689   1.201   7.776   0.782 -1.5952  1.0928 -1.1522
  969MOL0     H33690   1.461   7.930   0.841 -1.6265  1.1368  2.4874
  969MOL0     H33691   1.473   7.789   0.737 -2.2327 -1.4404 -0.3733
  969MOL0     H33692   1.390   7.635   0.877 -2.9591 -0.0059 -0.5357
  969MOL0     H33693   1.336   7.746   1.006 -1.1017  0.4393 -0.3995
  969MOL0     H33694   1.630   7.683   0.897  0.4505 -1.3816  0.9909
  969MOL0     H33695   1.601   7.819   0.998 -1.5908  0.8902  1.7119
  969MOL0     H33696   1.549   7.706   1.183  0.5819  1.5385 -0.8328
  969MOL0     H33697   1.681   7.600   1.119 -0.8055 -1.3579 -2.9688
  969MOL0     H33698   1.487   7.451   1.015 -0.5392  0.5788 -0.0270
  969MOL0     H33699   1.383   7.541   1.117 -1.5807 -1.9403 -0.1148
  969MOL0     H33700   1.529   7.458   1.316  1.4217  0.3173 -0.3363
  969MOL0     H33701   1.604   7.342   1.209 -0.4125 -1.4326  0.4460
  969MOL0     H33702   1.094   8.059   0.777 -1.2764  0.0970  0.9850
  969MOL0     H33703   0.981   8.285   0.833  0.6763  0.6490  1.8581
  969MOL0     H33704   0.885   8.680   0.819  0.5324  0.2665  0.6522
  969MOL0     H33705   0.795   8.914   0.816 -2.6383 -2.3508  2.9554
  969MOL0     H33706   0.679  10.305   1.910 -1.2203  0.5075  0.4067
  969MOL0     H33707   0.748  10.507   2.024 -0.0541 -0.9514 -1.3830
  969MOL0     H33708   1.221  10.549   2.395  0.4409 -0.5150 -0.5451
  969MOL0     H33709   1.346  10.752   2.447  2.3070  0.5866 -1.8922
  969MOL0     H33710   1.280  10.935   2.596  1.8893 -1.2438  0.4669
  969MOL0     H33711   1.363  11.083   2.569 -0.8059  2.0302  1.7520
  969MOL0     H33712   1.132  11.119   2.693  0.8793  1.8108  0.9739
  969MOL0     H33713   1.066  11.040   2.557  0.5612 -0.6820  2.0410
  969MOL0     H33714   1.207  11.308   2.558  1.1555 -4.8630  2.4922
  969MOL0     H33715   1.150  11.227   2.408 -2.1998 -0.0804  0.0245
  969MOL0     H33716   0.971  11.390   2.456  0.8343  0.4283  0.2812
  969MOL0     H33717   0.981  11.352   2.625  2.5425  0.3003  0.3576
  969MOL0     H33718   0.678  11.093   2.493 -0.7347  0.8608  1.8958
  969MOL0     H33719   1.048  10.994   2.253  1.9613  0.4332  2.1136
  969MOL0     H33720   0.889  10.864   2.104 -2.9200 -0.1825 -0.0720
  969MOL0     H33721   0.833  10.704   2.146  2.7923  0.1550 -2.4773
  969MOL0     H33722   0.809  10.843   2.267 -1.9444 -0.2121 -0.1816
  970MOL0     O33723   5.151   7.753   8.536  0.3290  0.1050  0.0950
  970MOL0     C33724   5.139   7.862   8.482 -0.6122  0.8473  0.2378
  970MOL0     O33725   5.114   7.976   8.538 -0.4823  0.3016 -0.6303
  970MOL0     C33726   5.064   7.972   8.671  0.2421 -0.8292  0.9201
  970MOL0     C33727   4.933   7.943   8.688  0.3134 -0.2900 -0.1813
  970MOL0     C33728   4.883   7.943   8.820 -0.1603 -0.9902  0.6729
  970MOL0     C33729   4.969   7.991   8.926 -0.2871 -0.8911  0.3375
  970MOL0     O33730   4.938   7.979   9.056  0.4792 -0.4381 -0.1162
  970MOL0     C33731   4.813   7.912   9.089 -1.2626  0.0555 -0.9819
  970MOL0     C33732   4.798   7.886   9.243 -0.5606 -0.4000  0.6700
  970MOL0     C33733   4.657   7.822   9.269 -0.2667 -0.7062  0.8444
  970MOL0     C33734   4.682   7.759   9.402  0.0617  0.0076 -0.0153
  970MOL0     C33735   4.586   7.639   9.436 -0.2761  0.9953  0.5656
  970MOL0     C33736   4.632   7.504   9.355 -0.0602  0.3520  0.5278
  970MOL0     C33737   4.519   7.395   9.343 -0.2161  0.6582  0.3445
  970MOL0     C33738   4.443   7.353   9.471  0.1236 -0.3977  0.1405
  970MOL0     N33739   4.395   7.217   9.468  0.2611 -1.0522 -0.0026
  970MOL0     C33740   4.463   7.099   9.488  0.3968  0.2037 -0.2433
  970MOL0     C33741   4.420   7.012   9.389 -0.4569 -0.3326 -0.6341
  970MOL0     C33742   4.483   6.879   9.350 -0.3279  1.5892  0.3815
  970MOL0     C33743   4.473   6.770   9.448  0.3921 -0.3187  0.0517
  970MOL0     C33744   4.609   6.706   9.485 -0.1589 -1.1936  0.6629
  970MOL0     C33745   4.596   6.589   9.583 -0.0138 -1.1202 -0.0077
  970MOL0     O33746   4.497   6.491   9.542  0.1407 -0.4627 -0.0803
  970MOL0     C33747   4.538   6.377   9.480  0.4045  0.5475 -0.2825
  970MOL0     C33748   4.455   6.267   9.485  0.5721  0.4742 -0.3494
  970MOL0     C33749   4.483   6.141   9.424 -0.0643 -0.2652 -0.1034
  970MOL0     C33750   4.378   6.038   9.439 -0.0416  0.0133  0.2943
  970MOL0     C33751   4.601   6.131   9.347 -0.5050  0.1961  0.3686
  970MOL0     C33752   4.655   5.999   9.289  0.2070  0.1053 -0.3490
  970MOL0     O33753   4.771   6.006   9.209  0.7953  0.5728  1.4859
  970MOL0     C33754   4.814   5.894   9.136  0.0842 -0.8190 -0.8068
  970MOL0     C33755   4.723   5.828   9.055 -0.2783 -0.2406  0.5655
  970MOL0     C33756   4.773   5.720   8.978  0.5500 -0.7934  0.5347
  970MOL0     C33757   4.909   5.676   8.990  0.8224 -0.2746  0.3513
  970MOL0     O33758   4.979   5.580   8.917 -0.3930 -0.0335  0.0623
  970MOL0     C33759   4.909   5.495   8.837  0.3719  0.0413  0.0291
  970MOL0     C33760   4.996   5.370   8.823  0.7870  0.0375  0.5628
  970MOL0     C33761   5.127   5.409   8.763 -0.8328  0.3851 -0.0054
  970MOL0     C33762   5.227   5.297   8.759  0.2030  0.7474 -0.8737
  970MOL0     C33763   5.360   5.342   8.815 -0.5808  0.0237 -1.0099
  970MOL0     C33764   5.369   5.371   8.965 -0.5032  0.1563 -0.1450
  970MOL0     C33765   5.323   5.507   9.014 -0.0392 -0.2133  0.2750
  970MOL0     C33766   5.407   5.574   9.122 -1.0545  0.4708  0.0909
  970MOL0    Cl33767   5.365   5.487   9.270 -0.4405  0.1329 -0.1611
  970MOL0     C33768   4.983   5.731   9.089 -0.0709  0.1304  0.2875
  970MOL0     C33769   4.941   5.842   9.155  0.0065  0.2564 -0.1921
  970MOL0     O33770   4.602   5.894   9.324 -0.9017  0.4166  0.9616
  970MOL0     C33771   4.688   6.248   9.330  0.3313  0.1228  0.1814
  970MOL0     C33772   4.652   6.366   9.394 -0.0904 -0.3601 -0.2487
  970MOL0     N33773   4.313   7.071   9.322  0.0718 -0.1947 -0.3185
  970MOL0     N33774   4.292   7.192   9.374  0.3449 -0.7208  0.4099
  970MOL0     C33775   5.105   8.026   8.891 -0.2800  0.0214 -0.7959
  970MOL0     C33776   5.151   8.015   8.761 -0.6746  0.3442  1.0761
  970MOL0     C33777   5.173   7.864   8.335  0.4350 -0.1040  0.9384
  970MOL0     C33778   5.266   7.769   8.281  1.3010 -0.2019  0.2623
  970MOL0     C33779   5.307   7.778   8.148 -0.6687 -0.0970 -1.3050
  970MOL0     C33780   5.237   7.871   8.068 -0.5672  0.5119  1.3354
  970MOL0     O33781   5.262   7.876   7.939  0.2543  0.1748 -0.0050
  970MOL0     C33782   5.229   7.761   7.866 -0.3130  0.4956  1.5045
  970MOL0     C33783   5.138   7.787   7.747  0.2325 -0.8218  0.4956
  970MOL0     C33784   5.073   7.675   7.676  0.2179 -0.1235  0.7153
  970MOL0     C33785   5.159   7.589   7.572  0.7830 -0.1407 -0.2354
  970MOL0     C33786   5.256   7.496   7.644  0.4129 -0.2661 -0.6911
  970MOL0     C33787   5.344   7.423   7.690 -0.1672 -0.0068 -0.0871
  970MOL0     C33788   5.146   7.962   8.116  0.2210 -0.3113  0.0397
  970MOL0     C33789   5.112   7.957   8.252  0.4502 -0.6363  0.1101
  970MOL0     C33790   5.003   8.054   8.296  0.6513  0.7489  0.1718
  970MOL0     H33791   4.867   7.920   8.604 -2.5233 -0.0321  1.8394
  970MOL0     H33792   4.780   7.910   8.833 -1.2977  1.6618 -0.6559
  970MOL0     H33793   4.815   7.817   9.035 -0.3780 -1.0893  0.9213
  970MOL0     H33794   4.728   7.974   9.059 -0.9110  1.5118  0.8350
  970MOL0     H33795   4.878   7.816   9.270 -1.7069 -1.7981  0.5279
  970MOL0     H33796   4.805   7.981   9.298  1.7018 -0.6416  0.8983
  970MOL0     H33797   4.576   7.895   9.276  0.0903 -0.1703 -0.4635
  970MOL0     H33798   4.639   7.749   9.190  2.3646  0.7099 -1.2167
  970MOL0     H33799   4.780   7.712   9.413 -0.8785 -2.3667 -1.0418
  970MOL0     H33800   4.673   7.833   9.482  0.3418  0.1389 -0.1033
  970MOL0     H33801   4.482   7.667   9.421 -0.3302  1.1766  1.2461
  970MOL0     H33802   4.598   7.615   9.542 -3.0274  3.1243  1.4703
  970MOL0     H33803   4.644   7.535   9.251 -2.5483  1.3278  0.4725
  970MOL0     H33804   4.729   7.469   9.393  0.7614 -0.3535 -2.0300
  970MOL0     H33805   4.576   7.310   9.303  4.3729  2.9460  1.3391
  970MOL0     H33806   4.457   7.433   9.262  1.6261  0.4210 -1.2714
  970MOL0     H33807   4.509   7.367   9.557 -1.4536  2.0549  1.0634
  970MOL0     H33808   4.357   7.417   9.493  0.6838  0.1517  0.8011
  970MOL0     H33809   4.547   7.096   9.557 -0.7004 -0.5641  1.1262
  970MOL0     H33810   4.587   6.894   9.319 -0.3561  0.9069 -0.0633
  970MOL0     H33811   4.436   6.844   9.257  2.4822  0.2021 -0.6020
  970MOL0     H33812   4.421   6.805   9.538  0.2893 -0.2803 -0.0237
  970MOL0     H33813   4.405   6.695   9.409 -2.1316  2.2323 -0.8300
  970MOL0     H33814   4.661   6.674   9.394 -1.3739 -2.6754  0.4460
  970MOL0     H33815   4.660   6.787   9.537  2.3326 -0.8741 -2.0334
  970MOL0     H33816   4.692   6.540   9.595  0.8459 -0.4692 -3.2938
  970MOL0     H33817   4.558   6.631   9.677  0.5163 -0.5056 -0.0601
  970MOL0     H33818   4.371   6.287   9.550  2.8789  2.0527  2.4103
  970MOL0     H33819   4.428   5.964   9.502 -2.0064 -1.3256  0.3605
  970MOL0     H33820   4.352   5.988   9.345 -1.0643  0.9958  0.0334
  970MOL0     H33821   4.288   6.072   9.490  0.2280  0.3653  0.5390
  970MOL0     H33822   4.623   5.869   9.041  0.7056  1.9373 -0.4488
  970MOL0     H33823   4.712   5.663   8.910  2.0989 -2.8761  0.8077
  970MOL0     H33824   4.816   5.456   8.880  1.4517 -5.8507 -2.1062
  970MOL0     H33825   4.889   5.541   8.740 -0.4364 -0.9571 -0.2913
  970MOL0     H33826   5.012   5.324   8.921  0.1514  1.2257  1.2434
  970MOL0     H33827   4.949   5.294   8.760  2.2966 -0.8595  0.4605
  970MOL0     H33828   5.158   5.505   8.806 -5.1951  2.7360 -1.5129
  970MOL0     H33829   5.104   5.432   8.658  0.0894  1.6790  0.0462
  970MOL0     H33830   5.250   5.258   8.660  2.5019 -2.3856  0.7147
  970MOL0     H33831   5.176   5.216   8.812  1.3681  1.4346  1.4823
  970MOL0     H33832   5.417   5.250   8.801  1.4108  1.0038  0.2860
  970MOL0     H33833   5.406   5.429   8.768  0.4968  0.0715  0.1041
  970MOL0     H33834   5.469   5.347   9.002 -0.6885 -0.5561 -0.0889
  970MOL0     H33835   5.309   5.295   9.016  0.4961  1.7123  3.6813
  970MOL0     H33836   5.218   5.500   9.043 -0.5035 -4.7139 -1.6918
  970MOL0     H33837   5.334   5.567   8.923  1.1482 -0.6293  0.1288
  970MOL0     H33838   5.365   5.674   9.136 -0.5637  0.4297  2.2240
  970MOL0     H33839   5.516   5.572   9.113 -1.1069  0.8649 -0.8403
  970MOL0     H33840   5.084   5.692   9.089  0.4754  0.7889 -5.0576
  970MOL0     H33841   4.997   5.904   9.224 -1.6289  0.4851  0.9885
  970MOL0     H33842   4.762   6.243   9.251 -1.8986  0.0083 -2.0464
  970MOL0     H33843   4.726   6.444   9.381  0.5971 -0.9902 -0.2121
  970MOL0     H33844   5.168   8.069   8.969  2.0574 -1.1009 -1.9542
  970MOL0     H33845   5.251   8.040   8.729 -0.9323  0.5335  0.4034
  970MOL0     H33846   5.294   7.691   8.351 -1.6070  1.3033  3.4273
  970MOL0     H33847   5.380   7.705   8.114 -0.4684  0.3943 -1.9322
  970MOL0     H33848   5.326   7.724   7.831 -0.7975 -0.7056  1.3896
  970MOL0     H33849   5.171   7.683   7.916 -0.6948  0.3453  0.8404
  970MOL0     H33850   5.201   7.836   7.673  4.0322 -2.0311  2.6505
  970MOL0     H33851   5.050   7.844   7.776  0.1130 -2.1813  3.2023
  970MOL0     H33852   5.029   7.600   7.741 -1.5493  0.6441  0.4712
  970MOL0     H33853   4.983   7.708   7.624  0.2886  3.3596  2.4634
  970MOL0     H33854   5.218   7.653   7.506  1.6916 -0.5998  0.1107
  970MOL0     H33855   5.100   7.523   7.508  1.7784  1.9185 -3.5093
  970MOL0     H33856   5.396   7.352   7.752 -1.8957 -0.3702  1.0187
  970MOL0     H33857   5.093   8.032   8.052 -0.1599  0.4664  1.1825
  970MOL0     H33858   4.918   7.996   8.332 -0.9920  1.9871 -1.5001
  970MOL0     H33859   5.042   8.124   8.370  1.4753 -0.2523  0.6960
  970MOL0     H33860   4.961   8.114   8.214  2.8881 -0.2690 -1.8328
  971MOL0     O33861   3.678   5.035   2.487 -0.2641  0.2276 -0.0993
  971MOL0     C33862   3.668   4.924   2.425  0.4766 -1.2570 -0.1158
  971MOL0     O33863   3.759   4.825   2.435 -0.4426  0.0311 -0.2984
  971MOL0     C33864   3.875   4.827   2.517  0.2397 -0.4517  0.8712
  971MOL0     C33865   3.961   4.942   2.547  0.9430  0.5580 -0.6277
  971MOL0     C33866   4.072   4.933   2.625 -0.4789  1.4218 -0.3537
  971MOL0     C33867   4.105   4.812   2.679  0.5123  0.4440 -0.4652
  971MOL0     O33868   4.214   4.813   2.767 -0.7310  0.2601  0.0188
  971MOL0     C33869   4.260   4.691   2.825 -0.0341 -0.2514 -0.1747
  971MOL0     C33870   4.357   4.756   2.930 -0.2732 -0.3790  0.2870
  971MOL0     C33871   4.287   4.781   3.061  0.9427 -0.2425 -0.1867
  971MOL0     C33872   4.272   4.651   3.147 -0.8889  0.1068  0.3852
  971MOL0     C33873   4.401   4.639   3.229  0.4730 -0.5032 -0.1941
  971MOL0     C33874   4.381   4.528   3.332  0.1788  0.6592  0.7105
  971MOL0     C33875   4.449   4.398   3.291 -0.2957  0.8406 -0.5739
  971MOL0     C33876   4.402   4.330   3.163  0.5660 -0.1315 -0.4328
  971MOL0     N33877   4.492   4.223   3.142 -1.0467  0.5942  0.7267
  971MOL0     C33878   4.507   4.119   3.226 -1.0260  0.3454  0.8567
  971MOL0     C33879   4.597   4.032   3.168 -0.5245 -0.5511  0.7618
  971MOL0     C33880   4.638   3.897   3.216 -0.1553  0.2788  0.3130
  971MOL0     C33881   4.601   3.788   3.117  0.4306 -0.4258  0.4144
  971MOL0     C33882   4.449   3.789   3.105  0.0415 -0.6848  0.0099
  971MOL0     C33883   4.403   3.664   3.034 -0.7553 -0.1285 -0.4828
  971MOL0     O33884   4.449   3.548   3.108 -0.0974  0.1228  0.1425
  971MOL0     C33885   4.399   3.417   3.086  0.0269 -0.7334  0.3446
  971MOL0     C33886   4.309   3.389   2.976 -0.9863 -1.0016 -0.5209
  971MOL0     C33887   4.242   3.262   2.968 -0.1535  0.2362 -0.5534
  971MOL0     C33888   4.140   3.254   2.848  0.6243  0.0864  1.0402
  971MOL0     C33889   4.278   3.163   3.057 -0.1919  0.5200  0.4169
  971MOL0     C33890   4.230   3.013   3.050 -0.4537  0.6644  0.2347
  971MOL0     O33891   4.279   2.930   3.144  0.0723 -0.6120  0.7772
  971MOL0     C33892   4.254   2.793   3.150  0.2070 -0.2332 -0.2461
  971MOL0     C33893   4.240   2.714   3.033  0.4722  0.0836 -0.2931
  971MOL0     C33894   4.226   2.578   3.053  1.0887  0.4680 -0.7618
  971MOL0     C33895   4.235   2.522   3.176 -0.4255  0.2574  0.2151
  971MOL0     O33896   4.242   2.392   3.202  0.0852 -0.2856 -0.2198
  971MOL0     C33897   4.347   2.309   3.134 -0.7385  0.2973  0.4665
  971MOL0     C33898   4.419   2.250   3.256 -0.0230  1.1507 -0.1965
  971MOL0     C33899   4.329   2.156   3.339 -0.3460 -0.1084 -0.2479
  971MOL0     C33900   4.402   2.095   3.468 -0.0814  0.4634  1.3292
  971MOL0     C33901   4.379   2.186   3.582  0.8456  0.4899 -0.1949
  971MOL0     C33902   4.478   2.138   3.687 -0.3553  0.0714 -0.1851
  971MOL0     C33903   4.462   2.207   3.825 -0.3341  0.3630 -0.0400
  971MOL0     C33904   4.520   2.115   3.941  0.0519 -0.3998 -0.3345
  971MOL0    Cl33905   4.708   2.102   3.944 -0.0328 -0.8990  0.2336
  971MOL0     C33906   4.257   2.597   3.286  0.2766  0.7662 -1.0049
  971MOL0     C33907   4.267   2.735   3.280  0.0167 -0.4572 -0.2325
  971MOL0     O33908   4.150   2.981   2.961 -0.2948 -0.3574  0.2191
  971MOL0     C33909   4.370   3.185   3.164 -0.0845  0.5453 -0.4692
  971MOL0     C33910   4.428   3.313   3.178 -0.2187 -1.1918  0.5105
  971MOL0     N33911   4.651   4.098   3.049  0.0077 -0.2883 -0.6417
  971MOL0     N33912   4.584   4.215   3.036 -1.0093 -0.0905 -1.0516
  971MOL0     C33913   4.021   4.693   2.651 -0.4702  0.1557 -0.6209
  971MOL0     C33914   3.915   4.704   2.566 -0.0107 -0.8071  0.6559
  971MOL0     C33915   3.553   4.907   2.330  0.0002  0.9600 -1.2046
  971MOL0     C33916   3.577   4.814   2.230  0.1283 -0.7101  0.1213
  971MOL0     C33917   3.492   4.775   2.135  0.4451  0.0142 -0.2250
  971MOL0     C33918   3.375   4.843   2.115 -0.9908 -0.0887  0.5703
  971MOL0     O33919   3.284   4.807   2.015 -0.3088  0.4938 -0.0192
  971MOL0     C33920   3.217   4.919   1.955 -0.0905  0.4242  0.5177
  971MOL0     C33921   3.186   4.863   1.811  0.9898  0.6889  0.1264
  971MOL0     C33922   3.049   4.802   1.819  0.1746 -0.5432 -0.5513
  971MOL0     C33923   2.992   4.740   1.693  0.2460  0.0547  0.2885
  971MOL0     C33924   2.844   4.737   1.703 -0.3758 -0.2274 -0.8034
  971MOL0     C33925   2.726   4.716   1.704 -0.6327 -0.7363 -1.2294
  971MOL0     C33926   3.343   4.944   2.215 -0.9665 -0.0780  0.3217
  971MOL0     C33927   3.427   4.964   2.330 -0.2415 -0.4030 -1.0087
  971MOL0     C33928   3.375   5.059   2.433 -0.4358 -0.7190  0.1753
  971MOL0     H33929   3.940   5.043   2.515  3.0164  1.2168 -0.0653
  971MOL0     H33930   4.118   5.026   2.656 -0.0094  0.8652  0.6840
  971MOL0     H33931   4.306   4.620   2.755  0.5950 -1.8462  1.7655
  971MOL0     H33932   4.181   4.634   2.876 -0.4736  0.8483  0.4027
  971MOL0     H33933   4.444   4.691   2.945  0.1835 -0.8485 -3.4633
  971MOL0     H33934   4.390   4.854   2.895 -0.0599 -0.0811  1.2808
  971MOL0     H33935   4.331   4.863   3.118  1.0619 -0.7840  0.5105
  971MOL0     H33936   4.186   4.819   3.046  1.8988  2.4908 -0.3328
  971MOL0     H33937   4.182   4.667   3.207 -1.2225 -1.4252  0.3288
  971MOL0     H33938   4.248   4.567   3.081 -0.3326  0.5221 -0.3644
  971MOL0     H33939   4.415   4.733   3.283 -1.1602 -0.3698  0.0699
  971MOL0     H33940   4.479   4.621   3.155  1.5022  2.2976  0.0721
  971MOL0     H33941   4.427   4.564   3.424  0.5624 -0.5156  0.9956
  971MOL0     H33942   4.276   4.507   3.354 -0.5786  0.5651 -2.4939
  971MOL0     H33943   4.443   4.332   3.379 -1.7091  3.2342  1.2636
  971MOL0     H33944   4.557   4.413   3.286  0.1293 -1.2986  0.5587
  971MOL0     H33945   4.297   4.299   3.165  0.0450  1.4790 -0.8972
  971MOL0     H33946   4.425   4.406   3.087  2.3289  0.3487  0.5451
  971MOL0     H33947   4.459   4.089   3.319  4.1293 -4.1452  2.6169
  971MOL0     H33948   4.594   3.885   3.316  0.9908  2.3781  1.1383
  971MOL0     H33949   4.746   3.900   3.236  0.2090 -1.1602 -1.1969
  971MOL0     H33950   4.640   3.803   3.016 -0.1155 -2.0648 -0.0730
  971MOL0     H33951   4.637   3.687   3.140 -1.8090 -1.3091  0.2487
  971MOL0     H33952   4.390   3.788   3.197 -1.1200 -1.7984 -0.7076
  971MOL0     H33953   4.418   3.881   3.056  2.9534  0.2143 -0.3661
  971MOL0     H33954   4.294   3.659   3.021 -1.4380  1.8375  3.1433
  971MOL0     H33955   4.442   3.672   2.932 -1.8861  1.1420 -0.8426
  971MOL0     H33956   4.287   3.460   2.897  2.7453  0.6742 -0.2557
  971MOL0     H33957   4.069   3.170   2.845 -0.8066  1.2885 -1.4549
  971MOL0     H33958   4.214   3.249   2.768  2.1024  0.7836  2.3045
  971MOL0     H33959   4.084   3.347   2.849  1.1325  0.4238 -0.2437
  971MOL0     H33960   4.241   2.735   2.926  0.1864  0.0239 -0.3088
  971MOL0     H33961   4.237   2.504   2.974  0.8827 -1.4748  0.9527
  971MOL0     H33962   4.311   2.240   3.058 -2.8392  1.5904  0.2232
  971MOL0     H33963   4.416   2.371   3.075 -0.1064 -0.2118  0.6520
  971MOL0     H33964   4.492   2.175   3.223 -1.4924 -0.3498 -0.1272
  971MOL0     H33965   4.456   2.327   3.325  3.3266  0.0075 -0.4936
  971MOL0     H33966   4.295   2.077   3.272  3.0304 -1.3945 -0.5947
  971MOL0     H33967   4.235   2.197   3.377  0.5372  1.0846  0.7433
  971MOL0     H33968   4.511   2.098   3.454 -0.2408 -0.5798 -0.4481
  971MOL0     H33969   4.367   1.993   3.483  2.2824 -0.5144  0.7468
  971MOL0     H33970   4.386   2.287   3.542  2.0589 -0.2044 -1.8896
  971MOL0     H33971   4.278   2.187   3.622 -0.8452  1.1234 -4.0440
  971MOL0     H33972   4.578   2.155   3.646  0.2497 -0.0015  1.2048
  971MOL0     H33973   4.479   2.031   3.709  0.9742  0.2301  0.6548
  971MOL0     H33974   4.354   2.215   3.840 -0.2407  0.5263  0.6108
  971MOL0     H33975   4.512   2.304   3.818  0.2364  0.0881  0.1463
  971MOL0     H33976   4.485   2.012   3.931 -0.6700 -0.3332  1.2791
  971MOL0     H33977   4.482   2.161   4.032  0.0026 -0.8855 -0.1091
  971MOL0     H33978   4.283   2.554   3.382  2.3044  0.5519 -1.5994
  971MOL0     H33979   4.289   2.804   3.361  0.6698 -0.6222 -0.2660
  971MOL0     H33980   4.402   3.112   3.238 -1.7047  0.7875  0.5138
  971MOL0     H33981   4.501   3.323   3.257  1.0690 -2.6391 -0.4373
  971MOL0     H33982   4.043   4.595   2.691  1.8344  0.1951 -1.6168
  971MOL0     H33983   3.853   4.618   2.544  2.2646 -3.1966  2.8305
  971MOL0     H33984   3.667   4.755   2.224 -0.2905 -1.4343  0.8003
  971MOL0     H33985   3.513   4.689   2.073 -0.9463  0.0213 -0.7399
  971MOL0     H33986   3.131   4.951   2.014  1.1486  0.7011  2.2459
  971MOL0     H33987   3.288   5.002   1.947  1.1842 -0.4692  2.0271
  971MOL0     H33988   3.250   4.784   1.773  0.2693  0.1338  0.0350
  971MOL0     H33989   3.195   4.944   1.738 -2.2555  1.0775  0.0011
  971MOL0     H33990   3.044   4.727   1.898 -0.9179  0.1660  0.0911
  971MOL0     H33991   2.981   4.885   1.845 -1.4744 -1.2370 -2.3966
  971MOL0     H33992   3.033   4.640   1.679  0.0812 -0.0676  0.6757
  971MOL0     H33993   3.035   4.802   1.614  1.3587 -2.8632 -1.5619
  971MOL0     H33994   2.621   4.697   1.718 -1.1022  0.9616 -2.2134
  971MOL0     H33995   3.253   5.006   2.211 -0.3069  0.8706 -0.2063
  971MOL0     H33996   3.349   5.003   2.524 -0.5262 -1.0652 -0.0649
  971MOL0     H33997   3.460   5.126   2.455 -0.6132  0.0476 -1.3526
  971MOL0     H33998   3.286   5.116   2.404 -0.3163 -1.2119 -1.1944
  972MOL0     O33999   3.804   5.733  10.350  0.0623 -0.5167 -0.1714
  972MOL0     C34000   3.685   5.752  10.393 -0.4447 -0.1204  0.4107
  972MOL0     O34001   3.590   5.655  10.409  0.2450  0.2222 -0.4093
  972MOL0     C34002   3.606   5.528  10.356  0.0389 -0.9253 -1.1754
  972MOL0     C34003   3.542   5.428  10.428 -0.5630  0.3502 -1.1080
  972MOL0     C34004   3.550   5.294  10.399 -0.0934  0.0893  0.6817
  972MOL0     C34005   3.622   5.257  10.282 -0.0461  0.0508  0.6060
  972MOL0     O34006   3.631   5.121  10.242  0.1670 -0.9495 -0.6873
  972MOL0     C34007   3.738   5.100  10.142  0.4479  0.1021 -0.2051
  972MOL0     C34008   3.764   4.948  10.144 -0.4590 -0.8253  0.5576
  972MOL0     C34009   3.644   4.866  10.079 -0.0561 -0.0937  0.9371
  972MOL0     C34010   3.675   4.720  10.059 -0.1419 -0.3511 -0.9663
  972MOL0     C34011   3.539   4.649  10.018  0.0677 -0.3405  0.2465
  972MOL0     C34012   3.567   4.496   9.997  0.6914 -0.5488  0.0163
  972MOL0     C34013   3.540   4.408  10.126  0.0525  0.2025 -0.2149
  972MOL0     C34014   3.524   4.253  10.101 -0.4783 -0.2186  0.0952
  972MOL0     N34015   3.647   4.172  10.116 -0.1650  0.5765 -0.4621
  972MOL0     C34016   3.691   4.121  10.232 -1.2630  0.3436 -0.2930
  972MOL0     C34017   3.792   4.042  10.191  0.3654 -0.5069 -0.8099
  972MOL0     C34018   3.873   3.954  10.289  0.2554 -0.1828  0.3618
  972MOL0     C34019   4.001   3.885  10.227  0.8979  0.3254  0.1260
  972MOL0     C34020   3.986   3.747  10.151 -0.1882  0.1919  1.0253
  972MOL0     C34021   4.125   3.692  10.111  0.2829  0.1514  0.0909
  972MOL0     O34022   4.123   3.596  10.006  0.2018 -0.0734 -0.5482
  972MOL0     C34023   4.166   3.474  10.049 -0.5252 -0.1345 -0.0767
  972MOL0     C34024   4.295   3.447  10.093  0.5645 -0.0378  0.5364
  972MOL0     C34025   4.342   3.314  10.101 -0.2115  0.6965 -0.4205
  972MOL0     C34026   4.494   3.294  10.130 -0.7399  0.5692 -1.1891
  972MOL0     C34027   4.258   3.210  10.069  0.0261 -0.3264 -0.5810
  972MOL0     C34028   4.289   3.063  10.085 -0.0413  0.0280 -0.3463
  972MOL0     O34029   4.204   2.971  10.018 -0.7335  0.3404 -0.6545
  972MOL0     C34030   4.220   2.834  10.027 -0.5582 -0.1819  0.0879
  972MOL0     C34031   4.190   2.761   9.909  0.0810 -0.3627 -0.4379
  972MOL0     C34032   4.190   2.620   9.910  0.4476  0.0459 -0.0982
  972MOL0     C34033   4.247   2.549  10.011 -0.4038  0.0399 -0.7140
  972MOL0     O34034   4.256   2.407   9.998  0.0157  1.1246  0.3434
  972MOL0     C34035   4.335   2.337  10.087 -1.1267 -0.1365 -0.0736
  972MOL0     C34036   4.264   2.291  10.214  0.0360  0.1410  0.8103
  972MOL0     C34037   4.355   2.267  10.332  0.2501  0.3478 -0.4840
  972MOL0     C34038   4.329   2.176  10.452  1.0505 -0.3056 -0.8293
  972MOL0     C34039   4.312   2.243  10.582  0.2131 -0.5535 -0.2218
  972MOL0     C34040   4.318   2.134  10.694  0.2741 -1.0527 -0.5283
  972MOL0     C34041   4.312   2.191  10.833 -0.5765 -0.1496 -0.5165
  972MOL0     C34042   4.358   2.101  10.939  0.5606  0.4791 -0.8412
  972MOL0    Cl34043   4.247   1.968  10.964  0.2872  0.0228 -0.1402
  972MOL0     C34044   4.288   2.620  10.131 -0.1219 -0.1779 -0.7590
  972MOL0     C34045   4.276   2.757  10.135 -0.1074  0.6289 -0.3987
  972MOL0     O34046   4.391   3.031  10.152 -0.1232  0.4044 -0.0149
  972MOL0     C34047   4.119   3.239  10.040 -0.0567 -0.2738 -0.0432
  972MOL0     C34048   4.075   3.370  10.037  0.8904 -1.2807 -0.2612
  972MOL0     N34049   3.804   4.044  10.055 -0.3306  0.0529 -0.3235
  972MOL0     N34050   3.724   4.130  10.016 -0.3352 -1.1060 -0.3047
  972MOL0     C34051   3.694   5.358  10.214  0.1613 -0.1926  0.1069
  972MOL0     C34052   3.690   5.490  10.249  0.7842  0.1017 -0.3437
  972MOL0     C34053   3.662   5.882  10.461  0.7553  0.3107 -0.0026
  972MOL0     C34054   3.763   5.975  10.465  0.1007 -0.4646  0.0488
  972MOL0     C34055   3.740   6.109  10.505 -0.5464 -0.0097  0.0878
  972MOL0     C34056   3.617   6.149  10.566  0.4989  1.3325  0.6606
  972MOL0     O34057   3.624   6.267  10.635  0.0356 -0.5095 -0.3588
  972MOL0     C34058   3.516   6.313  10.723  0.5214  0.2051  0.8231
  972MOL0     C34059   3.559   6.402  10.836  0.4042 -1.0514  0.0727
  972MOL0     C34060   3.633   6.334  10.947 -0.0389  0.6235 -0.6239
  972MOL0     C34061   3.683   6.435  11.052  0.4798 -0.3385 -0.0163
  972MOL0     C34062   3.569   6.504  11.120  0.2774 -0.1605 -0.1799
  972MOL0     C34063   3.470   6.568  11.160  0.2541 -0.4246 -0.7130
  972MOL0     C34064   3.510   6.056  10.565  0.3477 -0.5245  0.5542
  972MOL0     C34065   3.534   5.933  10.508 -0.1619  0.1706 -0.0567
  972MOL0     C34066   3.405   5.855  10.497 -0.5370  0.4040  1.0468
  972MOL0     H34067   3.471   5.445  10.508  0.9231  0.1569  0.3022
  972MOL0     H34068   3.491   5.227  10.462 -0.9768 -0.3405 -0.5596
  972MOL0     H34069   3.834   5.148  10.163  1.7053 -3.1123  2.2955
  972MOL0     H34070   3.701   5.126  10.042  2.0907 -2.4595 -1.5910
  972MOL0     H34071   3.845   4.917  10.078 -0.9763 -2.6126  0.7184
  972MOL0     H34072   3.783   4.907  10.244 -0.9421 -0.2236  0.9071
  972MOL0     H34073   3.555   4.877  10.141 -0.4956  1.0026  0.1418
  972MOL0     H34074   3.624   4.899   9.976  2.5888  1.0636  0.7123
  972MOL0     H34075   3.755   4.703   9.987  2.8567  0.4724  1.9412
  972MOL0     H34076   3.714   4.679  10.152  1.6686  1.0217 -1.0729
  972MOL0     H34077   3.515   4.690   9.919 -0.2658 -3.0336 -0.8900
  972MOL0     H34078   3.455   4.660  10.087 -0.9895 -1.1561 -0.8658
  972MOL0     H34079   3.498   4.466   9.917  0.4952 -3.0525  1.0547
  972MOL0     H34080   3.667   4.490   9.952  0.4220 -1.1443 -0.5120
  972MOL0     H34081   3.450   4.452  10.170  0.5403  1.8119 -0.7589
  972MOL0     H34082   3.621   4.429  10.196 -1.7928 -1.0204  2.4142
  972MOL0     H34083   3.462   4.228  10.188 -1.7798 -1.4172 -1.1250
  972MOL0     H34084   3.472   4.236  10.006 -2.1444  2.6823  0.3632
  972MOL0     H34085   3.652   4.144  10.331  0.4128  1.6211  0.1335
  972MOL0     H34086   3.808   3.876  10.330 -0.8605 -0.9655 -2.5932
  972MOL0     H34087   3.911   4.014  10.372  1.8319 -0.1156 -0.3667
  972MOL0     H34088   4.049   3.955  10.157 -0.2817  0.2323 -0.8239
  972MOL0     H34089   4.064   3.855  10.311 -0.6032 -2.8188  0.2585
  972MOL0     H34090   3.938   3.668  10.209  0.4457 -1.3514 -0.4731
  972MOL0     H34091   3.921   3.772  10.066 -1.1690  1.3404  2.0756
  972MOL0     H34092   4.189   3.777  10.088 -0.4349  0.5350 -0.5484
  972MOL0     H34093   4.168   3.652  10.203 -1.0642  1.7226  1.4636
  972MOL0     H34094   4.364   3.530  10.096  0.9171 -0.2707 -0.6247
  972MOL0     H34095   4.529   3.223  10.054 -2.6601 -0.7008 -0.9599
  972MOL0     H34096   4.510   3.244  10.227  2.9537  1.4252 -1.1903
  972MOL0     H34097   4.553   3.385  10.138  2.7680 -1.6091  0.4577
  972MOL0     H34098   4.159   2.811   9.818 -0.0202  1.1438  0.3882
  972MOL0     H34099   4.135   2.578   9.827 -0.8886  1.5231  0.0021
  972MOL0     H34100   4.397   2.258  10.044 -1.7160 -0.9343  0.5402
  972MOL0     H34101   4.419   2.395  10.127 -0.8640  0.3963 -1.3481
  972MOL0     H34102   4.189   2.367  10.238  0.6949  0.0480  3.4536
  972MOL0     H34103   4.217   2.199  10.178  2.0406 -0.0208 -1.6712
  972MOL0     H34104   4.407   2.355  10.369 -0.8967  0.1780  1.6918
  972MOL0     H34105   4.424   2.202  10.278 -0.8550 -1.0055 -0.3286
  972MOL0     H34106   4.412   2.105  10.457  2.2606  1.0986 -0.2827
  972MOL0     H34107   4.232   2.127  10.440 -0.1290  1.2781  1.4879
  972MOL0     H34108   4.386   2.323  10.593 -0.0118  0.1676 -3.0942
  972MOL0     H34109   4.221   2.304  10.586  0.6190  0.1884 -1.6891
  972MOL0     H34110   4.416   2.088  10.679 -0.9616 -4.1108  0.0390
  972MOL0     H34111   4.239   2.061  10.675 -2.6344  0.7998  3.0878
  972MOL0     H34112   4.211   2.214  10.869 -0.6480 -3.5342  1.9749
  972MOL0     H34113   4.369   2.284  10.821  0.5279 -0.8997 -1.2784
  972MOL0     H34114   4.363   2.156  11.034 -0.6476 -2.1424  0.8910
  972MOL0     H34115   4.461   2.067  10.931  0.2984 -0.9894  1.0991
  972MOL0     H34116   4.334   2.569  10.215 -2.6123 -2.7797 -0.8158
  972MOL0     H34117   4.307   2.807  10.227 -0.3154 -1.7558  1.0738
  972MOL0     H34118   4.034   3.178  10.011 -0.8999  0.0576  1.5785
  972MOL0     H34119   3.970   3.380  10.009  0.5677  1.2505  1.5182
  972MOL0     H34120   3.735   5.335  10.116 -1.7183 -1.0950 -0.5119
  972MOL0     H34121   3.761   5.555  10.197 -1.4324  3.2891  0.3158
  972MOL0     H34122   3.863   5.938  10.446 -0.3581 -1.7139 -0.0611
  972MOL0     H34123   3.823   6.179  10.504 -0.4134 -0.1675 -0.2626
  972MOL0     H34124   3.456   6.375  10.655  0.1996 -0.8626  0.1053
  972MOL0     H34125   3.458   6.231  10.767 -2.1454  1.8380  0.5891
  972MOL0     H34126   3.467   6.439  10.883  2.2152  2.3750  1.2722
  972MOL0     H34127   3.617   6.485  10.794  0.3701 -1.5741 -1.0356
  972MOL0     H34128   3.565   6.263  10.995 -0.8318  2.4326  1.0834
  972MOL0     H34129   3.712   6.272  10.902  1.1591  0.3790  1.6594
  972MOL0     H34130   3.741   6.512  11.000  2.1823  1.0717  3.6533
  972MOL0     H34131   3.754   6.394  11.124  1.1314  1.0227  0.1483
  972MOL0     H34132   3.381   6.615  11.197 -0.8857 -0.1948 -3.5147
  972MOL0     H34133   3.408   6.087  10.587 -0.2834  0.0949 -2.6116
  972MOL0     H34134   3.389   5.826  10.393 -1.2122  2.1978  0.6041
  972MOL0     H34135   3.409   5.770  10.565 -4.0218 -1.0915 -0.3712
  972MOL0     H34136   3.312   5.910  10.518 -0.3250  0.1114  2.9728
  973MOL0     O34137   7.206   6.998  10.782  0.9692 -1.2455  0.2608
  973MOL0     C34138   7.112   6.913  10.781  0.1422 -0.2607 -0.5028
  973MOL0     O34139   7.102   6.809  10.699 -0.1335  0.5620 -0.4859
  973MOL0     C34140   7.216   6.761  10.637 -0.5449  0.2140  0.7583
  973MOL0     C34141   7.289   6.836  10.544 -0.4149  0.3684  0.0971
  973MOL0     C34142   7.408   6.787  10.479  0.3038  0.1249  0.2382
  973MOL0     C34143   7.449   6.655  10.505 -0.4361 -0.6429 -0.3606
  973MOL0     O34144   7.569   6.609  10.454 -0.8278 -0.5221  0.2624
  973MOL0     C34145   7.688   6.663  10.525  0.0577  0.1576 -0.3317
  973MOL0     C34146   7.799   6.671  10.421  0.2862 -0.5663 -0.4280
  973MOL0     C34147   7.919   6.745  10.480  0.1960  0.0328 -0.0287
  973MOL0     C34148   7.982   6.673  10.603  0.1003  0.3155 -0.0682
  973MOL0     C34149   8.135   6.706  10.607  0.6742 -0.2246  0.2714
  973MOL0     C34150   8.216   6.659  10.484  0.0430 -0.7201 -0.5162
  973MOL0     C34151   8.365   6.662  10.509 -0.0373  0.4408 -0.2763
  973MOL0     C34152   8.403   6.591  10.638  0.3009  0.4115 -0.2307
  973MOL0     N34153   8.551   6.566  10.651 -0.1500 -0.4650 -0.3243
  973MOL0     C34154   8.650   6.659  10.652  0.2730 -0.4185 -0.2873
  973MOL0     C34155   8.753   6.584  10.689 -0.0602  0.7020  0.0309
  973MOL0     C34156   8.897   6.620  10.665 -0.6906  0.7361 -0.3529
  973MOL0     C34157   8.967   6.522  10.570 -0.6058 -0.5278  1.0210
  973MOL0     C34158   9.089   6.577  10.478 -0.4863  0.2004  0.2651
  973MOL0     C34159   9.217   6.622  10.540 -0.7224  0.3405 -1.3203
  973MOL0     O34160   9.179   6.739  10.611 -0.2723  0.0901  0.7837
  973MOL0     C34161   9.277   6.813  10.678  1.0404 -0.0017 -0.3743
  973MOL0     C34162   9.241   6.924  10.755 -0.1040  0.5265  0.3870
  973MOL0     C34163   9.323   7.011  10.817 -0.8531  0.0834  0.3493
  973MOL0     C34164   9.255   7.118  10.892  0.0338  0.2470 -0.3614
  973MOL0     C34165   9.465   6.992  10.802 -0.3989 -0.2060  0.7687
  973MOL0     C34166   9.558   7.087  10.862 -0.1422  0.4278  0.0562
  973MOL0     O34167   9.530   7.165  10.969  0.0577  0.2523  0.8191
  973MOL0     C34168   9.622   7.226  11.052  0.6595 -0.5605  0.4821
  973MOL0     C34169   9.570   7.273  11.168  0.1490 -0.4363 -0.8666
  973MOL0     C34170   9.651   7.362  11.258 -0.2585  0.1166 -0.2462
  973MOL0     C34171   9.792   7.379  11.230 -0.5356 -0.2426 -0.0805
  973MOL0     O34172   9.881   7.451  11.313  0.7040  0.7088 -0.0114
  973MOL0     C34173   9.826   7.530  11.414 -0.4424 -0.2686 -0.2251
  973MOL0     C34174   9.828   7.460  11.547 -0.2682  0.4741  0.6509
  973MOL0     C34175   9.780   7.556  11.655 -0.4796 -0.5574 -0.1260
  973MOL0     C34176   9.798   7.496  11.791 -0.2368  0.6877 -0.5031
  973MOL0     C34177   9.735   7.582  11.898  0.0109 -0.1950 -0.3234
  973MOL0     C34178   9.704   7.504  12.022 -0.8183 -0.3350  0.2941
  973MOL0     C34179   9.627   7.577  12.135 -0.3305 -0.8926  0.1049
  973MOL0     C34180   9.694   7.558  12.266 -0.9244 -0.4371  0.0979
  973MOL0    Cl34181   9.649   7.396  12.327  0.1414 -0.1801  0.0478
  973MOL0     C34182   9.847   7.309  11.120  0.4215  0.2953 -0.1488
  973MOL0     C34183   9.763   7.246  11.028 -0.8659  0.1563 -0.2052
  973MOL0     O34184   9.672   7.073  10.812  0.5610 -0.0532  0.6492
  973MOL0     C34185   9.508   6.874  10.732 -0.5684 -0.4571 -0.0361
  973MOL0     C34186   9.415   6.786  10.681 -0.3776  0.7220 -0.7622
  973MOL0     N34187   8.712   6.450  10.695  0.2303 -0.4504  0.2789
  973MOL0     N34188   8.595   6.445  10.681 -0.1602  0.1096  0.7904
  973MOL0     C34189   7.366   6.576  10.588 -0.7264  0.0345  0.9388
  973MOL0     C34190   7.261   6.631  10.662 -0.0260 -0.1638  0.2455
  973MOL0     C34191   6.985   6.956  10.838  0.0871 -0.1108 -0.5539
  973MOL0     C34192   6.957   7.092  10.831 -0.9071  0.4336 -0.4573
  973MOL0     C34193   6.838   7.143  10.875  0.7612  0.2550 -0.1657
  973MOL0     C34194   6.737   7.061  10.934 -0.4408  0.2106  0.6645
  973MOL0     O34195   6.619   7.095  11.010  0.0650 -0.8548  0.7084
  973MOL0     C34196   6.565   7.224  11.001  0.1165  1.1335  0.0809
  973MOL0     C34197   6.423   7.212  11.064 -0.4744  0.2039  0.2382
  973MOL0     C34198   6.373   7.343  11.106  0.3688 -0.1819  0.1729
  973MOL0     C34199   6.221   7.334  11.132 -0.3182  0.4531 -1.1562
  973MOL0     C34200   6.159   7.437  11.226 -0.1782  0.3753  0.0403
  973MOL0     C34201   6.118   7.540  11.292  1.7819  0.5392 -0.6361
  973MOL0     C34202   6.771   6.924  10.943  0.4854  0.3253 -0.4153
  973MOL0     C34203   6.892   6.869  10.899  0.2435 -0.9623  0.1618
  973MOL0     C34204   6.918   6.728  10.938 -0.4860 -0.1378 -0.3436
  973MOL0     H34205   7.242   6.934  10.545 -1.4134  0.0223  4.0456
  973MOL0     H34206   7.462   6.859  10.419 -0.2164  1.3866  1.2500
  973MOL0     H34207   7.715   6.588  10.599 -3.5991 -0.2192  0.7876
  973MOL0     H34208   7.672   6.758  10.576  0.6832  0.8249 -1.3416
  973MOL0     H34209   7.818   6.572  10.377 -0.3946 -1.9328  2.1185
  973MOL0     H34210   7.746   6.734  10.349 -2.0489 -0.4068  1.3014
  973MOL0     H34211   7.993   6.760  10.401  2.0349  0.6111  1.7249
  973MOL0     H34212   7.879   6.844  10.506  2.8610  0.8342  1.3847
  973MOL0     H34213   7.929   6.718  10.687  1.6691  4.2715 -0.9483
  973MOL0     H34214   7.977   6.564  10.603  0.6584  0.2850  0.2697
  973MOL0     H34215   8.179   6.674  10.703 -0.5622 -3.0834 -0.0114
  973MOL0     H34216   8.136   6.815  10.609 -1.6564 -0.1727  0.3856
  973MOL0     H34217   8.177   6.567  10.440 -2.2176  1.5931 -3.8260
  973MOL0     H34218   8.198   6.732  10.405 -2.3305  0.1697  0.7638
  973MOL0     H34219   8.396   6.766  10.500  0.9425 -0.0053 -3.8467
  973MOL0     H34220   8.420   6.612  10.429 -1.7847 -0.0737 -1.2136
  973MOL0     H34221   8.373   6.651  10.725  0.5737 -1.5035  1.2537
  973MOL0     H34222   8.348   6.498  10.654  0.4188 -0.0358 -2.2307
  973MOL0     H34223   8.653   6.761  10.615  1.4156 -0.3523 -0.0293
  973MOL0     H34224   8.946   6.622  10.762 -0.9012  1.4319 -0.2502
  973MOL0     H34225   8.895   6.720  10.620 -2.3043 -0.1491 -2.4765
  973MOL0     H34226   9.020   6.445  10.626  1.9217 -0.1351 -0.6975
  973MOL0     H34227   8.893   6.479  10.502 -0.6174  1.9708 -0.6632
  973MOL0     H34228   9.119   6.495  10.411 -1.7299  1.0310 -1.3965
  973MOL0     H34229   9.062   6.660  10.412 -0.3040  0.3288  0.3512
  973MOL0     H34230   9.256   6.541  10.602 -1.2970 -1.6832 -3.4466
  973MOL0     H34231   9.299   6.636  10.469 -0.2482  1.4499 -0.5903
  973MOL0     H34232   9.135   6.924  10.774 -0.0080 -3.2109  1.7232
  973MOL0     H34233   9.148   7.098  10.907  0.2883 -0.4840  0.5375
  973MOL0     H34234   9.268   7.220  10.855  0.3892  0.3618  0.0782
  973MOL0     H34235   9.299   7.128  10.992 -0.3305  0.0653 -0.1788
  973MOL0     H34236   9.464   7.256  11.187 -0.4595 -0.7211 -3.9593
  973MOL0     H34237   9.602   7.380  11.354  0.4446 -0.5865  0.2577
  973MOL0     H34238   9.899   7.611  11.427 -0.6620 -0.3025  1.4378
  973MOL0     H34239   9.734   7.581  11.384 -0.2685  0.4467  0.4149
  973MOL0     H34240   9.773   7.366  11.533  1.8878 -0.6662 -0.7738
  973MOL0     H34241   9.931   7.429  11.567  1.0412  3.5984 -0.6048
  973MOL0     H34242   9.674   7.577  11.640 -0.4944 -1.9363 -2.5451
  973MOL0     H34243   9.840   7.648  11.656 -0.1796 -0.7280 -1.0951
  973MOL0     H34244   9.899   7.465  11.818 -0.8381  0.2549  1.4883
  973MOL0     H34245   9.742   7.403  11.777  3.6393 -1.8997 -0.3567
  973MOL0     H34246   9.798   7.669  11.918 -2.1344  2.1189 -2.8396
  973MOL0     H34247   9.639   7.629  11.875  0.5554  3.0472  3.0801
  973MOL0     H34248   9.799   7.479  12.069  1.4210  1.0472 -3.0527
  973MOL0     H34249   9.655   7.407  12.009 -0.4350 -0.3813 -1.0044
  973MOL0     H34250   9.521   7.550  12.142 -1.8762  3.5192 -2.4042
  973MOL0     H34251   9.624   7.681  12.100  1.9639 -1.8554 -3.5155
  973MOL0     H34252   9.650   7.632  12.334  0.4979 -0.3259  0.9400
  973MOL0     H34253   9.803   7.569  12.273 -1.2837  3.6510  2.6548
  973MOL0     H34254   9.955   7.318  11.116  0.4473  3.3654  2.9694
  973MOL0     H34255   9.816   7.193  10.949 -0.4096 -1.5011  1.1499
  973MOL0     H34256   9.612   6.840  10.730 -0.1106  0.6024  2.4402
  973MOL0     H34257   9.469   6.706  10.632  0.6654 -1.3665  3.3716
  973MOL0     H34258   7.407   6.477  10.607  1.8614  1.0932  1.3395
  973MOL0     H34259   7.194   6.563  10.714 -3.5416  1.9048 -1.2636
  973MOL0     H34260   7.027   7.162  10.787 -0.7084 -0.8424 -2.2700
  973MOL0     H34261   6.820   7.250  10.869 -0.4708  0.0113 -1.3555
  973MOL0     H34262   6.621   7.300  11.056 -1.5999  1.0144  2.1291
  973MOL0     H34263   6.563   7.244  10.893  1.7138 -1.1500 -0.4649
  973MOL0     H34264   6.429   7.156  11.158  0.3070  1.0529  0.7178
  973MOL0     H34265   6.354   7.160  10.997 -0.1236 -1.3114  0.9997
  973MOL0     H34266   6.428   7.382  11.193  1.2465  1.1409 -0.9310
  973MOL0     H34267   6.391   7.411  11.022 -0.7566  0.5107  0.4754
  973MOL0     H34268   6.201   7.245  11.192  0.9189  2.2669  2.1767
  973MOL0     H34269   6.170   7.330  11.035  0.8366 -0.8406 -1.7459
  973MOL0     H34270   6.061   7.612  11.347  0.7067 -0.0467 -0.9525
  973MOL0     H34271   6.701   6.850  10.981  0.9317 -1.7414 -3.2487
  973MOL0     H34272   7.024   6.709  10.952 -0.6911 -1.8595 -0.8657
  973MOL0     H34273   6.873   6.728  11.038  1.1867 -2.2303  0.4901
  973MOL0     H34274   6.856   6.656  10.883  0.6226 -2.6259  1.4543
  974MOL0     O34275   8.901   3.684   2.975  0.9500 -0.5642  0.6027
  974MOL0     C34276   8.807   3.606   3.001 -0.1216  0.1608 -1.0349
  974MOL0     O34277   8.725   3.548   2.914  0.3293 -0.2829 -0.7379
  974MOL0     C34278   8.708   3.596   2.785 -0.1352 -0.0812 -0.1266
  974MOL0     C34279   8.758   3.497   2.693 -0.2896  0.3451  0.2270
  974MOL0     C34280   8.758   3.542   2.562 -0.0110 -0.4003  0.0411
  974MOL0     C34281   8.721   3.675   2.530 -0.8191  0.6932 -0.1263
  974MOL0     O34282   8.763   3.703   2.404  0.4329  0.1363  1.1724
  974MOL0     C34283   8.815   3.834   2.386 -0.5087 -0.4839  0.5171
  974MOL0     C34284   8.745   3.917   2.281  0.0692  0.0182  0.3014
  974MOL0     C34285   8.768   3.863   2.141 -0.1285 -0.3933  0.0089
  974MOL0     C34286   8.918   3.894   2.088  0.9358  0.5739 -0.2425
  974MOL0     C34287   8.919   3.851   1.943  0.5830  0.1842  0.8827
  974MOL0     C34288   9.048   3.888   1.876 -0.3021 -0.3345 -1.0178
  974MOL0     C34289   9.066   4.038   1.866  0.3119 -0.1463 -0.0579
  974MOL0     C34290   9.132   4.074   1.734  0.6573 -1.6704 -0.3618
  974MOL0     N34291   9.138   4.226   1.730  0.3142 -0.7208 -0.2230
  974MOL0     C34292   9.248   4.294   1.779  0.9384  0.2515  0.1634
  974MOL0     C34293   9.229   4.422   1.739  0.0608 -0.7395  0.1171
  974MOL0     C34294   9.299   4.553   1.784 -0.1257 -0.0093 -0.1822
  974MOL0     C34295   9.258   4.602   1.911  1.0571 -0.0485 -0.1252
  974MOL0     C34296   9.236   4.490   2.020 -0.7236  0.1156 -0.0457
  974MOL0     C34297   9.217   4.533   2.160  0.2102  0.2993  1.5429
  974MOL0     O34298   9.081   4.577   2.180 -0.5788  0.6049 -0.7984
  974MOL0     C34299   9.030   4.576   2.312 -0.2549 -0.6046 -0.0505
  974MOL0     C34300   9.103   4.553   2.432 -0.7545  0.1307  0.2747
  974MOL0     C34301   9.051   4.577   2.561 -0.0089  0.3362 -0.2953
  974MOL0     C34302   9.142   4.549   2.677  0.4268 -0.3436 -0.2758
  974MOL0     C34303   8.915   4.623   2.559  0.4726  0.3484  0.5878
  974MOL0     C34304   8.833   4.625   2.686  0.8268  0.4670 -0.2494
  974MOL0     O34305   8.707   4.691   2.673 -0.1703 -1.0571 -0.2084
  974MOL0     C34306   8.622   4.695   2.779 -0.6738  0.3142 -0.1014
  974MOL0     C34307   8.643   4.785   2.879 -0.9119 -0.1846  0.5897
  974MOL0     C34308   8.565   4.797   2.991  0.4222 -0.4006 -0.6558
  974MOL0     C34309   8.453   4.707   3.016  0.7788  0.0797 -0.6856
  974MOL0     O34310   8.363   4.718   3.129 -0.4460 -0.0603  0.8382
  974MOL0     C34311   8.372   4.844   3.196  0.1488  0.6196 -0.1318
  974MOL0     C34312   8.288   4.846   3.314  0.1943  0.1075 -0.9298
  974MOL0     C34313   8.338   4.760   3.428 -0.3472  0.5815  0.6393
  974MOL0     C34314   8.237   4.763   3.543 -0.3600  0.1287  0.3602
  974MOL0     C34315   8.264   4.629   3.635  0.8333  0.2784  0.2554
  974MOL0     C34316   8.159   4.602   3.747  0.0427  0.2633 -0.5510
  974MOL0     C34317   8.155   4.711   3.853  0.0739  0.6672  0.2876
  974MOL0     C34318   8.061   4.694   3.975 -0.3952  0.4749 -0.3973
  974MOL0    Cl34319   8.067   4.524   4.045 -0.5357 -0.4010  0.3060
  974MOL0     C34320   8.423   4.615   2.907  0.3311  0.0783 -0.5809
  974MOL0     C34321   8.510   4.611   2.790 -0.1736 -0.0526 -0.8159
  974MOL0     O34322   8.874   4.578   2.791  0.6840  0.2456  0.0726
  974MOL0     C34323   8.838   4.635   2.443 -1.1419 -1.0750 -0.8636
  974MOL0     C34324   8.903   4.616   2.324 -0.4918  0.3756 -0.2931
  974MOL0     N34325   9.110   4.423   1.657  0.4155  0.1449  0.3334
  974MOL0     N34326   9.057   4.306   1.660 -0.0810 -0.1752  0.3905
  974MOL0     C34327   8.656   3.760   2.619  0.1066  0.6082 -0.6983
  974MOL0     C34328   8.656   3.721   2.746  0.6698  0.5426 -0.2294
  974MOL0     C34329   8.792   3.576   3.160  0.1076 -0.2875 -0.0413
  974MOL0     C34330   8.870   3.653   3.250  0.3974  0.2729  0.7780
  974MOL0     C34331   8.857   3.647   3.386  0.4806  0.0557 -0.7660
  974MOL0     C34332   8.768   3.555   3.444  0.0605 -0.6484 -0.0540
  974MOL0     O34333   8.748   3.553   3.581 -0.0127 -1.0283  0.0886
  974MOL0     C34334   8.681   3.447   3.652  0.0584  0.0114 -0.3847
  974MOL0     C34335   8.546   3.490   3.687  0.8042  0.4557  0.3001
  974MOL0     C34336   8.539   3.635   3.723 -0.0680  0.0244 -0.3251
  974MOL0     C34337   8.405   3.695   3.752  0.8110  0.6319 -0.0673
  974MOL0     C34338   8.349   3.636   3.873  0.3187 -0.3286  0.9006
  974MOL0     C34339   8.283   3.604   3.968  0.2935  0.2398  0.1388
  974MOL0     C34340   8.704   3.466   3.357 -0.2805  0.0930 -0.1249
  974MOL0     C34341   8.717   3.466   3.216 -0.7888 -0.7397  0.5998
  974MOL0     C34342   8.629   3.370   3.137  0.3831  0.8874 -0.1211
  974MOL0     H34343   8.806   3.402   2.712 -0.0378  0.2499 -0.8357
  974MOL0     H34344   8.789   3.474   2.483 -1.6108 -1.8161  0.5561
  974MOL0     H34345   8.918   3.836   2.348 -1.7345 -0.3618 -3.2011
  974MOL0     H34346   8.824   3.885   2.482  4.1033 -2.2619  1.2916
  974MOL0     H34347   8.637   3.914   2.294 -0.1528 -1.7322 -1.5019
  974MOL0     H34348   8.773   4.023   2.281 -2.1160  0.8217 -3.8910
  974MOL0     H34349   8.748   3.756   2.144 -1.5388 -0.2265 -1.8307
  974MOL0     H34350   8.693   3.921   2.086 -0.6752 -2.0734 -1.0733
  974MOL0     H34351   8.940   4.001   2.096  0.0946  0.7326  0.0473
  974MOL0     H34352   8.990   3.832   2.143  0.8639 -0.0831 -0.8765
  974MOL0     H34353   8.831   3.899   1.899 -1.9298 -1.8033  3.3303
  974MOL0     H34354   8.897   3.745   1.928  2.2770 -0.4808  2.6214
  974MOL0     H34355   9.136   3.852   1.930 -0.4495 -2.6070 -2.2095
  974MOL0     H34356   9.043   3.842   1.777  0.2538 -2.7377  0.0136
  974MOL0     H34357   9.129   4.065   1.951 -0.4805 -1.0116  0.8383
  974MOL0     H34358   8.964   4.079   1.867  0.6059  0.7035 -1.5981
  974MOL0     H34359   9.236   4.041   1.730  0.2713 -2.8553 -1.4242
  974MOL0     H34360   9.083   4.042   1.641 -0.1032 -3.9233  0.7450
  974MOL0     H34361   9.325   4.259   1.846  1.4678  0.0786 -0.5236
  974MOL0     H34362   9.292   4.628   1.705  4.1766 -0.9011 -1.7000
  974MOL0     H34363   9.405   4.526   1.790 -0.9320 -3.3116  2.1730
  974MOL0     H34364   9.327   4.685   1.935 -0.2652  0.8293  0.7938
  974MOL0     H34365   9.159   4.644   1.894  1.1210 -0.1189 -0.6950
  974MOL0     H34366   9.156   4.425   1.985 -2.2672  2.1924 -0.6060
  974MOL0     H34367   9.337   4.448   2.023 -0.8114 -0.0507  0.7299
  974MOL0     H34368   9.244   4.442   2.213 -0.0956 -1.0121 -0.4351
  974MOL0     H34369   9.287   4.616   2.175 -0.1477  2.0592 -4.0559
  974MOL0     H34370   9.205   4.514   2.424  0.2290  2.2325  1.6452
  974MOL0     H34371   9.109   4.609   2.763  3.7597 -1.5754  2.1014
  974MOL0     H34372   9.243   4.584   2.650  1.4472 -2.0056  1.1381
  974MOL0     H34373   9.143   4.443   2.702  1.1937 -0.2431  0.1648
  974MOL0     H34374   8.719   4.860   2.861 -1.4133  0.9505  2.8733
  974MOL0     H34375   8.594   4.877   3.059 -0.1962 -1.5172  1.0038
  974MOL0     H34376   8.477   4.866   3.220  1.6504 -0.3345 -4.8179
  974MOL0     H34377   8.343   4.922   3.125  0.3934 -1.5991 -2.8453
  974MOL0     H34378   8.278   4.949   3.349  2.1780  1.3896 -3.7799
  974MOL0     H34379   8.185   4.814   3.295 -1.0926  1.3658  2.9582
  974MOL0     H34380   8.432   4.803   3.466  0.3372 -0.4556  0.1885
  974MOL0     H34381   8.357   4.661   3.385  2.0411  1.0642  0.4167
  974MOL0     H34382   8.134   4.768   3.508 -0.6488  1.6598  1.3577
  974MOL0     H34383   8.259   4.848   3.608  1.1769  2.4985 -2.9297
  974MOL0     H34384   8.262   4.531   3.587 -0.3562  0.6763 -0.5589
  974MOL0     H34385   8.361   4.640   3.683  0.7139 -2.1213  1.1933
  974MOL0     H34386   8.198   4.516   3.802 -1.9855 -1.4448 -1.6383
  974MOL0     H34387   8.055   4.587   3.717  0.6090 -2.1433 -1.5536
  974MOL0     H34388   8.138   4.807   3.804  0.4202  0.4340 -0.3127
  974MOL0     H34389   8.258   4.712   3.890  0.9145 -0.6122 -1.8205
  974MOL0     H34390   7.964   4.724   3.935  1.4250  1.2163 -4.8493
  974MOL0     H34391   8.082   4.774   4.047 -0.3680  0.1456 -0.0336
  974MOL0     H34392   8.346   4.539   2.918  0.0502  0.3998 -0.2729
  974MOL0     H34393   8.497   4.539   2.709  0.8171  2.0315 -2.9757
  974MOL0     H34394   8.749   4.697   2.445 -0.7534 -0.4761 -1.3675
  974MOL0     H34395   8.850   4.649   2.234  2.5703  3.0399 -1.3174
  974MOL0     H34396   8.623   3.861   2.598 -0.5051  0.8298  1.1378
  974MOL0     H34397   8.614   3.785   2.823 -0.2576 -0.6578  0.3005
  974MOL0     H34398   8.930   3.733   3.206  2.4770 -1.0705  1.0287
  974MOL0     H34399   8.906   3.717   3.452 -0.5876 -1.2352  1.5040
  974MOL0     H34400   8.693   3.359   3.589  0.4838  1.3460 -2.2295
  974MOL0     H34401   8.746   3.441   3.740 -0.2342  0.1932 -0.1550
  974MOL0     H34402   8.507   3.420   3.762 -1.4633  0.1802 -1.0457
  974MOL0     H34403   8.489   3.459   3.599 -0.8864 -2.8991  2.3301
  974MOL0     H34404   8.598   3.639   3.815 -0.8215  1.1760  0.1262
  974MOL0     H34405   8.593   3.707   3.660  2.1423  0.4671  1.9026
  974MOL0     H34406   8.324   3.693   3.679  0.7914 -0.4206 -0.0285
  974MOL0     H34407   8.427   3.801   3.767  3.1792  0.0096  1.5695
  974MOL0     H34408   8.213   3.580   4.046  2.7047 -1.7329  1.8518
  974MOL0     H34409   8.630   3.404   3.405 -1.2948  1.5225  0.2230
  974MOL0     H34410   8.670   3.349   3.038 -0.7768  0.7192 -0.5804
  974MOL0     H34411   8.635   3.277   3.193 -0.0373  0.7237 -0.3416
  974MOL0     H34412   8.528   3.411   3.127 -0.4779 -0.6338  1.7380
  975MOL0     O34413   7.023   9.587   6.662  0.0125  0.1492  0.4690
  975MOL0     C34414   6.982   9.692   6.613 -0.5780 -0.2341  0.0009
  975MOL0     O34415   6.862   9.752   6.633  0.2435 -0.0390  0.0294
  975MOL0     C34416   6.754   9.668   6.654 -0.2362  0.8082 -0.3209
  975MOL0     C34417   6.656   9.703   6.747  0.7021  1.3808  0.1362
  975MOL0     C34418   6.544   9.619   6.768  0.3156  0.2054 -0.3015
  975MOL0     C34419   6.533   9.509   6.691  1.0869  0.0250 -0.0298
  975MOL0     O34420   6.424   9.428   6.703  0.6583 -0.1569  0.7613
  975MOL0     C34421   6.428   9.284   6.686  0.7030  0.5540 -0.0482
  975MOL0     C34422   6.311   9.222   6.750 -0.5250  0.9256  0.6089
  975MOL0     C34423   6.327   9.239   6.902 -0.1909 -0.1980  0.5188
  975MOL0     C34424   6.382   9.111   6.954 -0.0970  1.6220 -0.0955
  975MOL0     C34425   6.375   9.095   7.108 -0.2978  0.1779 -1.0348
  975MOL0     C34426   6.503   9.154   7.179 -0.7839  0.1660  0.3165
  975MOL0     C34427   6.489   9.174   7.329 -0.8237  0.2619 -1.2765
  975MOL0     C34428   6.577   9.078   7.418 -0.2286  0.1119 -0.0829
  975MOL0     N34429   6.655   9.149   7.516  0.6584  0.3076  0.3652
  975MOL0     C34430   6.735   9.259   7.492  0.1341  0.2312  0.3711
  975MOL0     C34431   6.802   9.294   7.613  0.3604  0.0348  0.5404
  975MOL0     C34432   6.901   9.404   7.620  0.3609  0.4400  0.2439
  975MOL0     C34433   6.824   9.541   7.642  0.5060  0.0106  0.0488
  975MOL0     C34434   6.910   9.661   7.609 -1.4157 -0.1693 -0.0691
  975MOL0     C34435   7.047   9.654   7.686 -0.2186 -0.5171 -0.2234
  975MOL0     O34436   7.088   9.794   7.699 -0.3430 -0.3964  0.4468
  975MOL0     C34437   7.041   9.873   7.800  0.1111 -0.4254 -0.7063
  975MOL0     C34438   7.087  10.003   7.803 -0.3178 -0.4179  0.0664
  975MOL0     C34439   7.036  10.099   7.900 -0.1700  0.1203  0.3370
  975MOL0     C34440   7.095  10.245   7.900  0.4090  0.8327 -0.2543
  975MOL0     C34441   6.937  10.054   7.996 -0.3360  0.0723  0.8491
  975MOL0     C34442   6.872  10.155   8.092  0.6200 -0.8357  0.2442
  975MOL0     O34443   6.848  10.279   8.048  0.4513  0.1454 -1.1426
  975MOL0     C34444   6.847  10.375   8.149  1.4684 -1.4037 -0.6897
  975MOL0     C34445   6.732  10.457   8.156 -0.8477 -0.7023  0.6771
  975MOL0     C34446   6.738  10.559   8.245  1.0367 -0.6164  1.1092
  975MOL0     C34447   6.838  10.587   8.332 -0.9149  0.4449 -0.4872
  975MOL0     O34448   6.846  10.696   8.409  0.1319 -0.1787  0.2964
  975MOL0     C34449   6.791  10.810   8.358  0.0233  0.8788  0.5870
  975MOL0     C34450   6.883  10.868   8.260  0.0564  0.2138  0.0081
  975MOL0     C34451   6.831  11.004   8.208 -0.3729  0.4627  0.0559
  975MOL0     C34452   6.696  11.003   8.136  0.0106  0.7023  0.4002
  975MOL0     C34453   6.640  11.147   8.108 -0.2184 -0.2389  0.4974
  975MOL0     C34454   6.506  11.141   8.019  0.4316 -0.0490  0.2786
  975MOL0     C34455   6.426  11.283   8.000 -1.2213  0.6968  0.2678
  975MOL0     C34456   6.364  11.303   7.863 -0.2213 -0.0264  0.2595
  975MOL0    Cl34457   6.481  11.338   7.733  0.2140 -0.2816 -0.5134
  975MOL0     C34458   6.946  10.493   8.329 -0.6102 -2.1171 -0.2606
  975MOL0     C34459   6.955  10.392   8.235  0.7852  0.0046  0.2299
  975MOL0     O34460   6.835  10.106   8.196 -0.1659 -0.0320  0.6212
  975MOL0     C34461   6.900   9.916   7.996 -0.1466  0.1220  0.2635
  975MOL0     C34462   6.953   9.829   7.900 -0.5120  0.2845  0.0222
  975MOL0     N34463   6.754   9.194   7.702  0.5255 -0.5631 -0.2527
  975MOL0     N34464   6.680   9.104   7.641 -0.2219  0.0167 -0.0836
  975MOL0     C34465   6.621   9.479   6.587  0.1093 -0.2887 -0.3721
  975MOL0     C34466   6.738   9.555   6.576  0.3800 -0.1472 -1.3617
  975MOL0     C34467   7.092   9.771   6.556 -0.3297  0.0712  0.3802
  975MOL0     C34468   7.073   9.908   6.566 -0.7325  0.1247 -0.9450
  975MOL0     C34469   7.171   9.997   6.531 -0.6997  0.2978 -0.2549
  975MOL0     C34470   7.286   9.942   6.461  0.8378 -0.3263  0.4308
  975MOL0     O34471   7.383  10.022   6.408  0.5545 -0.0738 -0.2467
  975MOL0     C34472   7.371  10.158   6.422 -0.2730 -0.0788  0.2877
  975MOL0     C34473   7.428  10.204   6.551  0.5314  0.5109 -1.0623
  975MOL0     C34474   7.562  10.147   6.585  0.5584  0.2947 -0.5281
  975MOL0     C34475   7.642  10.245   6.679 -1.2817 -0.2998 -1.0564
  975MOL0     C34476   7.685  10.362   6.617 -0.7714  0.2064 -0.0349
  975MOL0     C34477   7.739  10.457   6.559 -0.4696 -0.7844 -0.2260
  975MOL0     C34478   7.303   9.810   6.439  0.3783 -1.3545 -0.6204
  975MOL0     C34479   7.207   9.718   6.487 -0.6525 -1.2880  1.3891
  975MOL0     C34480   7.227   9.569   6.464 -1.0405  0.5946 -0.8880
  975MOL0     H34481   6.662   9.793   6.807 -0.0950  2.0137 -0.7142
  975MOL0     H34482   6.477   9.652   6.846 -1.0886  1.5878 -2.0043
  975MOL0     H34483   6.520   9.242   6.728 -0.2119  1.4580  3.1843
  975MOL0     H34484   6.427   9.275   6.577  1.2730  4.1940 -0.4910
  975MOL0     H34485   6.221   9.268   6.707  0.0056  1.9031  0.5031
  975MOL0     H34486   6.299   9.118   6.720  0.0126  1.5630 -2.0763
  975MOL0     H34487   6.399   9.316   6.932  0.9938 -2.2431  3.3289
  975MOL0     H34488   6.224   9.256   6.935  0.7096  1.4328  2.7961
  975MOL0     H34489   6.320   9.031   6.913 -0.4467  0.4481  2.5094
  975MOL0     H34490   6.483   9.094   6.915  0.1762 -2.0199  1.7616
  975MOL0     H34491   6.380   8.990   7.136 -0.6253  0.5917  0.6800
  975MOL0     H34492   6.276   9.134   7.133  0.3805  3.7803 -3.2008
  975MOL0     H34493   6.587   9.090   7.153 -0.4552 -0.8112  3.3446
  975MOL0     H34494   6.533   9.252   7.141  4.4004  0.2338  3.6549
  975MOL0     H34495   6.389   9.143   7.362  0.9836 -4.2471  0.8294
  975MOL0     H34496   6.510   9.278   7.355  0.6614  0.5355 -3.3583
  975MOL0     H34497   6.520   9.005   7.476  3.4140 -4.4006 -1.5975
  975MOL0     H34498   6.647   9.014   7.363 -1.0086 -0.4677 -0.4118
  975MOL0     H34499   6.739   9.326   7.406 -2.0075  1.3663  1.0578
  975MOL0     H34500   6.955   9.405   7.524  0.7914  0.3080  0.4830
  975MOL0     H34501   6.977   9.390   7.697  2.2082  0.7429 -1.4227
  975MOL0     H34502   6.742   9.559   7.571  1.0003  0.6250 -0.3703
  975MOL0     H34503   6.779   9.554   7.741 -0.5181 -1.7957 -0.1251
  975MOL0     H34504   6.923   9.660   7.500 -0.3238 -1.3807  0.0436
  975MOL0     H34505   6.856   9.753   7.630 -2.7022 -1.0232  0.4303
  975MOL0     H34506   7.045   9.603   7.783  1.3124 -1.7994 -0.8192
  975MOL0     H34507   7.119   9.610   7.616  0.3504 -0.1773  0.1345
  975MOL0     H34508   7.155  10.021   7.721 -1.7812 -3.0629 -1.8985
  975MOL0     H34509   7.025  10.316   7.854 -0.3062  2.5271  3.0971
  975MOL0     H34510   7.191  10.254   7.850  0.9425  2.3418  0.9743
  975MOL0     H34511   7.112  10.276   8.003 -1.0895  0.9041  0.0018
  975MOL0     H34512   6.653  10.434   8.086 -0.6672  0.3415  0.1035
  975MOL0     H34513   6.655  10.630   8.250  2.0452  0.5981  1.2082
  975MOL0     H34514   6.688  10.793   8.327  0.7035  0.8628 -1.8593
  975MOL0     H34515   6.779  10.885   8.437 -1.3951  1.0643  0.2184
  975MOL0     H34516   6.982  10.880   8.306 -0.8863 -1.0197  2.5809
  975MOL0     H34517   6.887  10.810   8.168 -1.9314  3.2505 -2.2241
  975MOL0     H34518   6.900  11.060   8.145 -2.9173  2.3010 -1.2884
  975MOL0     H34519   6.818  11.065   8.298 -1.7071  0.2164  0.0481
  975MOL0     H34520   6.620  10.964   8.204  0.0978  0.9083  0.6148
  975MOL0     H34521   6.696  10.950   8.040 -0.0001  0.0164  0.7743
  975MOL0     H34522   6.620  11.185   8.209 -0.5873  1.4757 -0.1837
  975MOL0     H34523   6.725  11.200   8.065  0.9250  0.0072  2.8916
  975MOL0     H34524   6.440  11.058   8.045  0.5863 -0.3192 -0.1850
  975MOL0     H34525   6.547  11.105   7.925  3.3193 -0.9590  1.7655
  975MOL0     H34526   6.506  11.352   8.028  3.8390 -3.3824 -2.4548
  975MOL0     H34527   6.342  11.283   8.069 -2.1339  1.7146 -0.7880
  975MOL0     H34528   6.313  11.399   7.864  2.6222  1.6543 -1.9549
  975MOL0     H34529   6.302  11.222   7.822  0.9217 -1.3496  1.0363
  975MOL0     H34530   7.022  10.505   8.405  0.5794  5.0125 -1.8582
  975MOL0     H34531   7.030  10.314   8.228 -2.5879 -3.4282 -1.6342
  975MOL0     H34532   6.831   9.870   8.067  1.6466 -0.7814  1.4961
  975MOL0     H34533   6.920   9.726   7.909 -0.7381  0.3421 -0.1141
  975MOL0     H34534   6.617   9.400   6.513  2.5589 -0.6981 -0.1253
  975MOL0     H34535   6.804   9.532   6.494 -1.7957 -3.9329 -2.2843
  975MOL0     H34536   6.979   9.932   6.616 -0.4686 -0.5154 -0.1244
  975MOL0     H34537   7.136  10.100   6.529  0.4474  0.6899 -1.0183
  975MOL0     H34538   7.427  10.213   6.346 -0.9726 -0.3653 -0.4433
  975MOL0     H34539   7.270  10.198   6.412  0.1268  1.0266  0.5324
  975MOL0     H34540   7.355  10.184   6.630  1.4410 -3.1653 -0.9632
  975MOL0     H34541   7.448  10.310   6.535 -1.2029  0.5884 -3.2194
  975MOL0     H34542   7.544  10.049   6.630  0.3094  0.5054 -0.1596
  975MOL0     H34543   7.622  10.126   6.497  0.2320  1.5257 -1.0639
  975MOL0     H34544   7.727  10.183   6.708  0.9975  2.4042 -1.5146
  975MOL0     H34545   7.600  10.271   6.776  2.9575  0.1699  0.8857
  975MOL0     H34546   7.792  10.536   6.509 -2.3343 -1.1224 -2.9152
  975MOL0     H34547   7.384   9.777   6.375 -0.4961 -1.0630 -1.9218
  975MOL0     H34548   7.260   9.512   6.550  1.4497  1.0019 -1.4865
  975MOL0     H34549   7.133   9.522   6.431 -1.6220 -0.6460  2.2385
  975MOL0     H34550   7.298   9.547   6.384 -0.5306 -2.2977  0.2457
  976MOL0     O34551   5.843   4.216   4.488 -0.3068  0.5962  0.2031
  976MOL0     C34552   5.900   4.112   4.526 -0.5737 -0.7061 -0.5750
  976MOL0     O34553   6.030   4.093   4.522 -0.5676 -0.7122  0.1027
  976MOL0     C34554   6.124   4.184   4.542  0.1548 -0.0756  0.0328
  976MOL0     C34555   6.114   4.297   4.626  0.5487  0.0722  0.6033
  976MOL0     C34556   6.237   4.368   4.660 -0.1587  0.3564  0.7289
  976MOL0     C34557   6.358   4.330   4.598  1.1447 -0.7062 -0.1481
  976MOL0     O34558   6.484   4.383   4.609 -0.0251  0.0576 -0.2882
  976MOL0     C34559   6.516   4.404   4.749 -0.9435 -0.2929  0.4127
  976MOL0     C34560   6.647   4.481   4.730  0.6629 -0.0174 -0.2160
  976MOL0     C34561   6.771   4.407   4.665  1.6097 -1.2127 -0.0350
  976MOL0     C34562   6.897   4.503   4.672 -0.7883 -0.9859 -0.4146
  976MOL0     C34563   7.039   4.446   4.671 -0.3361 -0.1925 -1.0392
  976MOL0     C34564   7.065   4.369   4.542 -0.3507  0.5848  0.1560
  976MOL0     C34565   7.196   4.285   4.561 -0.6088 -1.0106 -0.0984
  976MOL0     C34566   7.249   4.216   4.436 -0.2969 -0.2312  0.1878
  976MOL0     N34567   7.352   4.115   4.479  0.2460 -0.7114  0.9758
  976MOL0     C34568   7.336   3.980   4.472 -0.2041  0.2494 -0.3256
  976MOL0     C34569   7.442   3.928   4.533 -0.4006 -0.7516 -0.7426
  976MOL0     C34570   7.464   3.775   4.557  0.2812 -0.9404 -0.1773
  976MOL0     C34571   7.412   3.730   4.696 -0.1048  0.1283  0.4084
  976MOL0     C34572   7.423   3.578   4.724 -2.0302  0.1030 -0.1225
  976MOL0     C34573   7.430   3.562   4.875  0.8478  0.8165 -0.3179
  976MOL0     O34574   7.314   3.608   4.940 -0.0328 -0.0305  0.4660
  976MOL0     C34575   7.205   3.525   4.958  0.2201  0.5798 -0.2732
  976MOL0     C34576   7.195   3.385   4.939 -0.2298  0.6224  0.8792
  976MOL0     C34577   7.081   3.317   4.980  0.2706  0.4449 -0.2537
  976MOL0     C34578   7.059   3.176   4.941 -0.4573 -0.3530  0.9327
  976MOL0     C34579   6.982   3.390   5.054  0.2018 -0.1364 -0.3846
  976MOL0     C34580   6.861   3.316   5.088  0.1254 -0.2722 -0.0841
  976MOL0     O34581   6.833   3.316   5.222 -0.1566 -0.9909  0.0099
  976MOL0     C34582   6.750   3.227   5.274 -0.1359 -0.0703  0.1839
  976MOL0     C34583   6.742   3.089   5.242 -0.7825  0.2808 -0.3249
  976MOL0     C34584   6.643   3.003   5.283 -0.1558  0.1983 -0.2258
  976MOL0     C34585   6.552   3.051   5.383  0.1098  0.1704  0.6041
  976MOL0     O34586   6.451   2.971   5.427 -0.2005 -0.0727 -0.8677
  976MOL0     C34587   6.414   2.851   5.364  0.4084  0.1011 -0.3293
  976MOL0     C34588   6.270   2.823   5.389 -0.0919 -0.6379 -0.7266
  976MOL0     C34589   6.247   2.681   5.342  0.3921 -0.4225 -0.0358
  976MOL0     C34590   6.098   2.645   5.355 -0.3409  0.0105  0.4516
  976MOL0     C34591   6.054   2.591   5.492  1.4945  0.2278 -0.4950
  976MOL0     C34592   6.055   2.693   5.610 -0.6811  0.1653  0.9186
  976MOL0     C34593   5.982   2.652   5.735  0.1896 -0.7948 -0.3216
  976MOL0     C34594   6.024   2.519   5.798  0.3167 -0.8089  0.2314
  976MOL0    Cl34595   5.902   2.466   5.923 -0.0821  0.2510 -0.4583
  976MOL0     C34596   6.567   3.183   5.424 -1.1240 -0.5860 -0.1597
  976MOL0     C34597   6.661   3.268   5.368 -0.1766  0.3190  1.0683
  976MOL0     O34598   6.787   3.268   4.999 -0.1926 -0.6581  0.1683
  976MOL0     C34599   7.002   3.522   5.088 -0.6369  0.9740 -0.6713
  976MOL0     C34600   7.113   3.589   5.042 -0.2551  0.9706 -0.0008
  976MOL0     N34601   7.519   4.032   4.592 -0.1063 -0.5370  0.3582
  976MOL0     N34602   7.462   4.147   4.568  0.0315 -0.2612 -0.7632
  976MOL0     C34603   6.354   4.216   4.515 -0.2961 -0.2490  0.2989
  976MOL0     C34604   6.244   4.143   4.488 -0.4044 -0.2767 -0.1186
  976MOL0     C34605   5.810   4.009   4.553  0.4163 -0.4705 -0.8199
  976MOL0     C34606   5.680   3.993   4.494  0.3141 -0.4744 -0.2683
  976MOL0     C34607   5.596   3.879   4.502  0.5305  0.1005 -0.1004
  976MOL0     C34608   5.628   3.779   4.595 -0.2865 -0.0960 -0.4273
  976MOL0     O34609   5.546   3.668   4.627  0.1838  0.4335  0.7360
  976MOL0     C34610   5.435   3.651   4.538 -0.0260 -0.0270 -0.7879
  976MOL0     C34611   5.370   3.525   4.583  0.0598  0.4869  0.9895
  976MOL0     C34612   5.320   3.537   4.733  0.3247  0.5365  0.1595
  976MOL0     C34613   5.279   3.397   4.790 -0.2227 -1.1039 -0.4161
  976MOL0     C34614   5.147   3.351   4.736  0.0781  1.0754 -0.3267
  976MOL0     C34615   5.039   3.313   4.696  0.3870  0.7767 -0.6271
  976MOL0     C34616   5.756   3.797   4.655  0.6068 -0.5965  0.9641
  976MOL0     C34617   5.843   3.906   4.647  0.6899 -0.1703 -0.5097
  976MOL0     C34618   5.958   3.915   4.741  0.5325 -0.4591  0.9628
  976MOL0     H34619   6.027   4.328   4.682  1.8738  5.2142  0.3385
  976MOL0     H34620   6.246   4.445   4.736 -1.7547 -0.0761  1.3883
  976MOL0     H34621   6.530   4.308   4.800  1.2696 -0.5130 -0.4969
  976MOL0     H34622   6.452   4.461   4.816  0.9293 -0.8198  2.7896
  976MOL0     H34623   6.626   4.564   4.662  0.5970 -1.4616 -2.0125
  976MOL0     H34624   6.687   4.523   4.823 -0.8601 -0.6752  0.7766
  976MOL0     H34625   6.791   4.313   4.718  0.6746 -1.9121 -0.8809
  976MOL0     H34626   6.754   4.378   4.560  0.0477 -2.2840  0.4689
  976MOL0     H34627   6.893   4.575   4.590  0.6474 -0.7047 -0.2677
  976MOL0     H34628   6.894   4.550   4.771  1.2386 -0.4828 -0.5362
  976MOL0     H34629   7.057   4.383   4.759  0.7898  1.2182 -0.2142
  976MOL0     H34630   7.102   4.535   4.676  0.3495 -0.3157 -4.7062
  976MOL0     H34631   6.987   4.298   4.514  2.1696 -3.2175  1.8793
  976MOL0     H34632   7.078   4.443   4.463  2.9024 -2.9041 -2.9680
  976MOL0     H34633   7.183   4.214   4.643 -0.9323  0.2114  0.9511
  976MOL0     H34634   7.284   4.344   4.588  2.4337 -4.2784 -2.1072
  976MOL0     H34635   7.163   4.163   4.393 -2.7906  2.3217  1.7256
  976MOL0     H34636   7.273   4.292   4.361 -4.1534 -0.4844 -1.5661
  976MOL0     H34637   7.250   3.924   4.437 -0.8667 -0.6296  2.4467
  976MOL0     H34638   7.570   3.750   4.546  1.1104  2.1054  0.0750
  976MOL0     H34639   7.414   3.718   4.478  0.8539 -0.6785 -0.7360
  976MOL0     H34640   7.481   3.794   4.752  2.1423 -2.0799  0.3408
  976MOL0     H34641   7.312   3.764   4.725  0.1639  1.0000  0.3467
  976MOL0     H34642   7.337   3.523   4.686 -2.1051  1.4836 -2.1051
  976MOL0     H34643   7.514   3.540   4.677 -0.3353  0.0170  2.9484
  976MOL0     H34644   7.457   3.459   4.903  1.5327  0.0238 -3.5121
  976MOL0     H34645   7.509   3.620   4.923  0.9316 -1.1057  2.0725
  976MOL0     H34646   7.278   3.333   4.893  2.1133  1.4033  3.8861
  976MOL0     H34647   7.154   3.130   4.915 -1.0089 -0.3627 -1.2875
  976MOL0     H34648   6.999   3.168   4.849 -1.5028  1.2423  1.4212
  976MOL0     H34649   7.021   3.117   5.024 -0.1325  0.4577  1.6718
  976MOL0     H34650   6.816   3.043   5.177 -1.8770  0.0577 -1.4498
  976MOL0     H34651   6.640   2.907   5.234 -1.2566  0.8273 -1.4512
  976MOL0     H34652   6.410   2.861   5.256  1.9754  0.1397 -0.4032
  976MOL0     H34653   6.483   2.767   5.369  0.6857  0.3790  2.1814
  976MOL0     H34654   6.256   2.840   5.497  0.6891  3.2343 -1.0771
  976MOL0     H34655   6.215   2.893   5.326 -1.4417 -2.4122 -1.6170
  976MOL0     H34656   6.309   2.606   5.393 -1.1068 -1.6099  0.1379
  976MOL0     H34657   6.268   2.690   5.235 -3.8636  0.7724 -0.9589
  976MOL0     H34658   6.077   2.568   5.279  5.4457  0.0385 -1.7487
  976MOL0     H34659   6.044   2.738   5.339  0.7815  0.2762 -2.3781
  976MOL0     H34660   5.950   2.559   5.484  1.3013  0.9024 -0.7776
  976MOL0     H34661   6.108   2.498   5.512 -0.8430 -1.1363 -0.0847
  976MOL0     H34662   6.031   2.791   5.568 -1.0730 -0.3821 -0.1634
  976MOL0     H34663   6.159   2.700   5.642 -0.3752 -0.5679  0.1236
  976MOL0     H34664   5.877   2.655   5.706  0.8559  1.3441 -2.9930
  976MOL0     H34665   6.005   2.727   5.811  1.8118 -0.6947 -0.8689
  976MOL0     H34666   6.122   2.519   5.848  0.7254 -1.3014 -0.5582
  976MOL0     H34667   6.031   2.439   5.725  2.1685 -0.8619  0.4206
  976MOL0     H34668   6.519   3.217   5.515  0.3469 -0.8059  0.7383
  976MOL0     H34669   6.654   3.375   5.380 -1.8435  0.5144 -1.0254
  976MOL0     H34670   6.941   3.560   5.170 -0.9617 -0.3546 -0.2690
  976MOL0     H34671   7.130   3.695   5.058  1.7319  0.7029 -0.1426
  976MOL0     H34672   6.443   4.175   4.466 -0.7128 -2.4376  1.2602
  976MOL0     H34673   6.250   4.055   4.425 -0.4084 -0.0371 -0.4546
  976MOL0     H34674   5.645   4.073   4.430 -2.1380 -1.1770  0.1200
  976MOL0     H34675   5.504   3.882   4.444 -0.8596  0.3798  2.0383
  976MOL0     H34676   5.364   3.734   4.539  0.6159  0.5625 -1.8153
  976MOL0     H34677   5.469   3.630   4.436 -1.1854 -1.4551 -0.8996
  976MOL0     H34678   5.444   3.444   4.578 -0.5768 -0.0533  0.1298
  976MOL0     H34679   5.288   3.505   4.513  0.7704 -0.7671  0.4866
  976MOL0     H34680   5.402   3.585   4.787 -0.1821  1.6291 -0.0275
  976MOL0     H34681   5.228   3.596   4.731 -1.9573 -2.6484  1.3322
  976MOL0     H34682   5.279   3.407   4.899  2.3617 -2.4697 -0.2156
  976MOL0     H34683   5.363   3.330   4.768  1.2654  0.9674 -1.3557
  976MOL0     H34684   4.941   3.286   4.662  1.2462  0.6474 -3.2808
  976MOL0     H34685   5.795   3.720   4.721 -1.2665 -1.4873  1.0956
  976MOL0     H34686   5.942   4.005   4.801 -0.7022 -1.2893  1.9239
  976MOL0     H34687   5.960   3.836   4.816  2.5507 -0.8614  0.5465
  976MOL0     H34688   6.059   3.907   4.698 -0.4132 -1.5166 -1.2098
  977MOL0     O34689   0.578   1.997   3.557 -0.4430  0.1396  0.5129
  977MOL0     C34690   0.587   2.058   3.660 -0.7312  0.0690  0.3092
  977MOL0     O34691   0.553   2.006   3.787  0.4000 -0.5638  0.7172
  977MOL0     C34692   0.562   1.866   3.803  0.8757  0.2721  0.9437
  977MOL0     C34693   0.452   1.783   3.766  0.0160 -0.4214  0.3655
  977MOL0     C34694   0.464   1.638   3.776  0.3634 -0.5286 -0.5439
  977MOL0     C34695   0.580   1.582   3.823  0.0977  0.2091 -0.0123
  977MOL0     O34696   0.598   1.450   3.856  0.0591 -0.6441 -0.7400
  977MOL0     C34697   0.508   1.345   3.807 -0.0086  0.0840  0.3583
  977MOL0     C34698   0.551   1.207   3.855  0.8152  0.4167  0.4353
  977MOL0     C34699   0.675   1.164   3.790  0.3423  0.9973  0.2821
  977MOL0     C34700   0.697   1.013   3.806 -0.2360 -0.7102  0.5299
  977MOL0     C34701   0.683   0.964   3.956 -0.1012 -0.4763 -0.9487
  977MOL0     C34702   0.812   0.981   4.047 -0.0300 -0.8681 -0.9694
  977MOL0     C34703   0.805   0.885   4.167  0.4423  0.0501  0.3231
  977MOL0     C34704   0.834   0.739   4.138 -0.0904  1.0110  0.1070
  977MOL0     N34705   0.969   0.681   4.150  0.5900 -0.7571  0.0277
  977MOL0     C34706   1.053   0.685   4.262  0.6757  0.4229  0.3854
  977MOL0     C34707   1.174   0.654   4.218 -0.2539 -0.5978 -0.0292
  977MOL0     C34708   1.291   0.607   4.299 -0.1480  0.0636  0.3125
  977MOL0     C34709   1.256   0.541   4.431  0.3687 -0.5247  0.5438
  977MOL0     C34710   1.378   0.468   4.475  0.0640  0.1016  0.3710
  977MOL0     C34711   1.346   0.390   4.611  0.1936  0.0046 -0.6172
  977MOL0     O34712   1.299   0.465   4.726 -0.7854  0.2617 -0.1830
  977MOL0     C34713   1.284   0.401   4.843 -0.3563  0.0573 -0.0234
  977MOL0     C34714   1.252   0.483   4.952 -0.7788 -0.8842  0.8761
  977MOL0     C34715   1.236   0.432   5.083 -0.6739  0.8299  0.3055
  977MOL0     C34716   1.217   0.523   5.207 -0.6284  0.3040 -0.3969
  977MOL0     C34717   1.258   0.291   5.108 -0.3181 -0.9553 -0.4726
  977MOL0     C34718   1.252   0.225   5.239 -1.0010 -0.8984 -0.9428
  977MOL0     O34719   1.332   0.120   5.250  0.1672  0.4543  0.5702
  977MOL0     C34720   1.332   0.040   5.366 -0.4659 -0.3991 -0.5767
  977MOL0     C34721   1.352   0.112   5.491 -0.0059  1.5291  0.7463
  977MOL0     C34722   1.376   0.030   5.599 -0.5973  0.7679 -0.0264
  977MOL0     C34723   1.384  -0.110   5.596 -0.0296 -0.3239 -0.7809
  977MOL0     O34724   1.410  -0.183   5.707 -0.2572  0.4737 -0.8682
  977MOL0     C34725   1.393  -0.123   5.835 -0.2813 -0.2357 -0.1426
  977MOL0     C34726   1.415  -0.232   5.932 -0.0153 -0.5962 -0.9096
  977MOL0     C34727   1.287  -0.323   5.929 -0.7272  0.9448  0.8516
  977MOL0     C34728   1.272  -0.434   6.036 -0.6273  1.5327 -0.7100
  977MOL0     C34729   1.144  -0.502   6.016  0.2239 -0.1477  0.5642
  977MOL0     C34730   1.121  -0.618   6.111 -0.5005 -0.5202  0.6705
  977MOL0     C34731   1.003  -0.712   6.060 -0.4421 -0.1137  0.2276
  977MOL0     C34732   1.056  -0.857   6.034 -0.0012 -1.3766  0.4099
  977MOL0    Cl34733   1.034  -0.944   6.201  0.1042  0.0616 -0.0599
  977MOL0     C34734   1.341  -0.171   5.473 -0.1575  0.6002  0.3422
  977MOL0     C34735   1.328  -0.096   5.354  0.3799  0.6292 -0.0330
  977MOL0     O34736   1.190   0.281   5.333 -0.1350  0.6144 -0.5983
  977MOL0     C34737   1.295   0.218   4.995  0.5727 -0.2985 -0.0197
  977MOL0     C34738   1.301   0.265   4.863 -0.1193 -0.4770  0.4632
  977MOL0     N34739   1.169   0.640   4.084 -0.0117 -0.3666 -0.2928
  977MOL0     N34740   1.047   0.654   4.044 -0.5209 -0.3110  0.0558
  977MOL0     C34741   0.679   1.668   3.872  0.0574 -0.4146  1.3040
  977MOL0     C34742   0.673   1.802   3.859 -1.0643 -0.3820 -0.3683
  977MOL0     C34743   0.632   2.192   3.654  0.2730 -0.4800  0.7245
  977MOL0     C34744   0.574   2.279   3.757  0.3985 -0.6257  0.5464
  977MOL0     C34745   0.615   2.411   3.757 -0.3136 -0.0268  0.2971
  977MOL0     C34746   0.719   2.469   3.686  0.8713 -1.1587 -0.0709
  977MOL0     O34747   0.766   2.601   3.688 -0.4058 -0.2728  0.3287
  977MOL0     C34748   0.689   2.703   3.740 -0.7514  0.8988  1.0045
  977MOL0     C34749   0.708   2.723   3.888  0.2386 -0.1312  0.2952
  977MOL0     C34750   0.573   2.759   3.942  0.1586  0.1770 -0.9584
  977MOL0     C34751   0.579   2.762   4.095 -0.0275 -0.5679  0.5318
  977MOL0     C34752   0.659   2.871   4.144  0.0458 -0.1381 -1.1222
  977MOL0     C34753   0.728   2.959   4.200  0.7118  1.0289 -0.1293
  977MOL0     C34754   0.759   2.388   3.583 -0.9169  0.7671  0.0441
  977MOL0     C34755   0.720   2.251   3.563  0.5409 -0.6060  0.1981
  977MOL0     C34756   0.788   2.164   3.463  0.4774 -0.6026  0.7849
  977MOL0     H34757   0.372   1.844   3.726  1.1995  0.8202 -0.1987
  977MOL0     H34758   0.380   1.580   3.739 -0.5229 -0.7012  1.6297
  977MOL0     H34759   0.504   1.356   3.698  4.1622  1.4453  0.1643
  977MOL0     H34760   0.412   1.367   3.853  0.3747  1.1894  0.6724
  977MOL0     H34761   0.576   1.208   3.962  2.4360  2.3484  0.1060
  977MOL0     H34762   0.465   1.144   3.834  0.9573 -0.2455  1.7174
  977MOL0     H34763   0.676   1.191   3.683  3.9710  2.6531  0.5974
  977MOL0     H34764   0.752   1.223   3.840  0.2901 -0.3602  2.0486
  977MOL0     H34765   0.614   0.962   3.755 -0.4576  0.4888 -0.3330
  977MOL0     H34766   0.791   0.999   3.753 -0.4677 -0.0542 -0.0679
  977MOL0     H34767   0.666   0.856   3.948  1.7447 -0.7037 -2.4904
  977MOL0     H34768   0.603   1.016   4.010  1.2300  0.8727 -0.1782
  977MOL0     H34769   0.910   0.973   3.997  0.0343 -1.5809 -0.7450
  977MOL0     H34770   0.814   1.085   4.081 -1.0481 -0.7054 -1.3575
  977MOL0     H34771   0.712   0.894   4.225  1.2574  3.1892  1.3447
  977MOL0     H34772   0.876   0.921   4.242 -0.2388 -2.4723  2.3246
  977MOL0     H34773   0.761   0.692   4.204  0.0513  0.5175 -0.0823
  977MOL0     H34774   0.808   0.723   4.032  3.1266  1.4795 -0.8560
  977MOL0     H34775   1.021   0.707   4.363  1.3508  1.6343  0.3492
  977MOL0     H34776   1.352   0.696   4.319 -2.2624  1.4618  0.8384
  977MOL0     H34777   1.342   0.534   4.236  0.5432  0.3742  0.4973
  977MOL0     H34778   1.216   0.599   4.515 -0.5153 -1.7224  0.9751
  977MOL0     H34779   1.170   0.474   4.422 -0.3761  0.3325  1.0204
  977MOL0     H34780   1.414   0.404   4.393 -2.0150 -0.8376  0.1135
  977MOL0     H34781   1.464   0.536   4.482 -0.1761  0.7446 -2.0151
  977MOL0     H34782   1.272   0.314   4.584 -0.9544  0.9653 -0.2396
  977MOL0     H34783   1.434   0.339   4.651 -1.1026 -0.2764  2.1159
  977MOL0     H34784   1.261   0.590   4.932  4.6675 -1.0275  0.9927
  977MOL0     H34785   1.267   0.482   5.296 -3.3281 -2.0606  0.1908
  977MOL0     H34786   1.110   0.536   5.229 -0.7530  1.4099 -1.5768
  977MOL0     H34787   1.257   0.622   5.188  3.4660 -0.5936  2.2220
  977MOL0     H34788   1.370   0.218   5.501  4.6638  1.1777 -1.0939
  977MOL0     H34789   1.399   0.079   5.693 -0.0463 -0.6212  0.5999
  977MOL0     H34790   1.463  -0.039   5.847  2.9351 -2.9345  1.4737
  977MOL0     H34791   1.304  -0.062   5.852  1.6061  2.7475 -0.1797
  977MOL0     H34792   1.508  -0.280   5.902  1.3783 -2.9968  5.7673
  977MOL0     H34793   1.429  -0.210   6.038 -0.4307 -2.0203 -0.5341
  977MOL0     H34794   1.300  -0.387   5.841 -0.3521  1.4999  0.4978
  977MOL0     H34795   1.193  -0.271   5.911  0.4048  2.5142 -0.7910
  977MOL0     H34796   1.281  -0.396   6.138  2.4528 -1.5948  0.3816
  977MOL0     H34797   1.360  -0.496   6.018  2.0265  4.7079  0.1511
  977MOL0     H34798   1.058  -0.437   6.032 -0.4586 -0.4955 -1.4717
  977MOL0     H34799   1.143  -0.543   5.915  0.4351 -1.4623  1.0712
  977MOL0     H34800   1.102  -0.568   6.206 -1.0308 -0.7136  0.6678
  977MOL0     H34801   1.214  -0.677   6.116  0.1940  0.6590  2.4660
  977MOL0     H34802   0.949  -0.670   5.975 -1.1991  1.6626  1.5201
  977MOL0     H34803   0.923  -0.720   6.134 -2.7438 -3.3541 -2.3038
  977MOL0     H34804   1.164  -0.852   6.018  0.0443  0.9840  0.9946
  977MOL0     H34805   0.991  -0.908   5.963 -0.7471 -0.1136  0.1583
  977MOL0     H34806   1.338  -0.279   5.475  0.3086  0.5830  2.3234
  977MOL0     H34807   1.309  -0.155   5.266  0.4245  1.4619 -0.6187
  977MOL0     H34808   1.313   0.111   5.007 -0.9183 -0.2947  3.7146
  977MOL0     H34809   1.311   0.189   4.785 -3.2041 -1.1910  0.6182
  977MOL0     H34810   0.770   1.626   3.913  0.1671  0.5507  2.0982
  977MOL0     H34811   0.748   1.870   3.899 -2.6750  1.4552 -0.3256
  977MOL0     H34812   0.499   2.244   3.827 -1.2772 -0.7431 -1.2383
  977MOL0     H34813   0.575   2.482   3.829 -1.0295 -0.7831  0.6735
  977MOL0     H34814   0.712   2.802   3.698 -1.3788 -0.0979 -1.9918
  977MOL0     H34815   0.587   2.686   3.706 -1.0682 -0.1033  2.3637
  977MOL0     H34816   0.765   2.814   3.909  1.0946 -0.2304 -1.4538
  977MOL0     H34817   0.759   2.639   3.937  6.2267  3.0042  0.2338
  977MOL0     H34818   0.549   2.857   3.898  0.0706 -1.5415 -5.2125
  977MOL0     H34819   0.496   2.684   3.923 -0.4486 -0.9085  4.1853
  977MOL0     H34820   0.589   2.663   4.138 -0.8725 -1.5012 -1.2989
  977MOL0     H34821   0.476   2.793   4.115  0.0449 -0.1250  0.2308
  977MOL0     H34822   0.786   3.039   4.242 -2.6177  3.1393  0.8672
  977MOL0     H34823   0.833   2.431   3.517 -0.3945 -0.5501 -0.2531
  977MOL0     H34824   0.883   2.213   3.443  0.2581  0.2737  1.8329
  977MOL0     H34825   0.814   2.066   3.505  2.1241 -0.5275  0.0144
  977MOL0     H34826   0.730   2.158   3.370  1.3041  2.4991 -0.0410
  978MOL0     O34827   0.760   2.940   1.473 -0.2306  0.0823  0.4775
  978MOL0     C34828   0.641   2.956   1.455 -0.1570  0.9950 -0.6054
  978MOL0     O34829   0.576   2.981   1.338 -0.4394 -0.6462  0.1067
  978MOL0     C34830   0.631   2.962   1.209  0.7666  0.1265 -0.2269
  978MOL0     C34831   0.539   2.946   1.110 -0.1117 -0.4168  0.0252
  978MOL0     C34832   0.575   2.915   0.977  0.4585  0.0477  0.0149
  978MOL0     C34833   0.707   2.898   0.940  0.3757 -0.8502 -0.0119
  978MOL0     O34834   0.737   2.868   0.809  0.8577 -0.5452 -0.1907
  978MOL0     C34835   0.838   2.949   0.749 -0.4724 -1.4784 -0.5629
  978MOL0     C34836   0.851   2.913   0.601  1.2400  0.1786  0.6449
  978MOL0     C34837   0.740   2.976   0.511 -0.4840 -1.0089 -0.5227
  978MOL0     C34838   0.775   2.949   0.364  0.3225 -1.5581 -0.2255
  978MOL0     C34839   0.697   3.040   0.264  0.1336  0.1864 -0.4424
  978MOL0     C34840   0.743   3.188   0.281 -0.0877 -0.1758  0.5041
  978MOL0     C34841   0.682   3.296   0.179 -0.2579 -0.2812 -0.0853
  978MOL0     C34842   0.781   3.422   0.158 -0.1147  0.0336 -0.6708
  978MOL0     N34843   0.716   3.507   0.057  0.2304  0.3309  0.6618
  978MOL0     C34844   0.668   3.627   0.086 -0.2264  0.4906 -0.3666
  978MOL0     C34845   0.629   3.688  -0.033 -0.4525  0.0276 -0.4247
  978MOL0     C34846   0.559   3.824  -0.053  0.5006  0.3561  0.1015
  978MOL0     C34847   0.416   3.836   0.013 -0.8916  0.3707  0.3650
  978MOL0     C34848   0.339   3.949  -0.043 -0.0537  0.8227 -1.2362
  978MOL0     C34849   0.404   4.084  -0.040 -0.1304 -0.0207 -0.0290
  978MOL0     O34850   0.306   4.175  -0.093  0.3677  0.1987 -0.7717
  978MOL0     C34851   0.331   4.303  -0.132 -0.3468 -0.1004 -0.7093
  978MOL0     C34852   0.433   4.385  -0.085  0.0390 -0.1803 -0.0579
  978MOL0     C34853   0.432   4.528  -0.118  0.2322  0.0018 -0.1410
  978MOL0     C34854   0.524   4.624  -0.053  0.1852 -0.2080 -0.2808
  978MOL0     C34855   0.353   4.578  -0.222 -0.7199  0.0275  0.8044
  978MOL0     C34856   0.347   4.724  -0.274 -0.6903  0.7249 -0.5338
  978MOL0     O34857   0.288   4.733  -0.396 -0.2455  0.2979 -0.1932
  978MOL0     C34858   0.289   4.859  -0.456 -0.0773  0.0318  0.2840
  978MOL0     C34859   0.403   4.928  -0.495 -0.9649 -0.7792 -0.8659
  978MOL0     C34860   0.395   5.051  -0.561  0.2103 -0.3345  0.5557
  978MOL0     C34861   0.266   5.110  -0.582 -0.2885  0.3661  0.2424
  978MOL0     O34862   0.264   5.239  -0.634  0.0080  0.5943  0.5178
  978MOL0     C34863   0.228   5.244  -0.778  1.4056  0.4050 -0.0536
  978MOL0     C34864   0.266   5.386  -0.811 -0.1304 -0.6476  0.6721
  978MOL0     C34865   0.238   5.428  -0.958  0.5071  0.2083 -0.1753
  978MOL0     C34866   0.092   5.480  -0.972  0.1353 -0.2283 -0.5117
  978MOL0     C34867   0.075   5.544  -1.112  0.1714  0.0213  0.1146
  978MOL0     C34868   0.044   5.453  -1.225 -0.3975 -0.0496  0.1514
  978MOL0     C34869  -0.018   5.528  -1.352 -0.5314  0.4156  0.2118
  978MOL0     C34870  -0.044   5.441  -1.477 -0.4509 -0.1493  0.2170
  978MOL0    Cl34871  -0.169   5.323  -1.440 -0.3074  0.6590 -0.2683
  978MOL0     C34872   0.156   5.031  -0.559 -0.2044 -0.4200  0.1804
  978MOL0     C34873   0.169   4.916  -0.488 -0.3520 -0.8612  0.4760
  978MOL0     O34874   0.407   4.813  -0.212  0.0032 -0.2096  0.9872
  978MOL0     C34875   0.256   4.490  -0.267 -0.2191  1.2354 -0.0344
  978MOL0     C34876   0.241   4.354  -0.221  0.9505 -1.2155 -0.9013
  978MOL0     N34877   0.676   3.592  -0.132  0.1996  0.2648 -0.4366
  978MOL0     N34878   0.734   3.488  -0.079  0.3872  0.0341 -0.4565
  978MOL0     C34879   0.805   2.904   1.041 -0.5030 -1.0181  0.0403
  978MOL0     C34880   0.766   2.940   1.173  0.0196 -0.2134  0.0570
  978MOL0     C34881   0.563   2.958   1.583 -0.3039  0.0109  0.7744
  978MOL0     C34882   0.445   3.039   1.575  0.5787  0.5084  0.3288
  978MOL0     C34883   0.363   3.046   1.684 -0.1294 -0.2006  0.2119
  978MOL0     C34884   0.398   2.979   1.802  0.6959  0.9068 -0.4871
  978MOL0     O34885   0.323   2.981   1.917 -0.0964  0.1668 -0.2779
  978MOL0     C34886   0.183   2.995   1.916  0.0820  0.0339 -0.3441
  978MOL0     C34887   0.121   2.859   1.872  0.8389 -0.6551 -0.5018
  978MOL0     C34888   0.148   2.743   1.973 -0.4587  0.0486 -0.1437
  978MOL0     C34889   0.148   2.604   1.902  0.0364 -0.0655 -0.5634
  978MOL0     C34890   0.176   2.512   2.017  0.1940 -0.5951 -0.5291
  978MOL0     C34891   0.207   2.452   2.116 -0.3402  1.1470 -0.2953
  978MOL0     C34892   0.502   2.900   1.807 -0.2108  0.4136  0.7348
  978MOL0     C34893   0.598   2.889   1.703 -1.0944  0.9759 -1.3364
  978MOL0     C34894   0.723   2.789   1.718 -0.7098 -0.2329 -0.1816
  978MOL0     H34895   0.436   2.968   1.137  0.4012  1.8739  0.3012
  978MOL0     H34896   0.491   2.906   0.909 -0.4597 -2.4159  1.3243
  978MOL0     H34897   0.929   2.932   0.808  0.5414  2.0532 -0.8655
  978MOL0     H34898   0.816   3.055   0.761  3.6435 -0.7298  3.0026
  978MOL0     H34899   0.952   2.950   0.579  1.2340  0.8885  1.7687
  978MOL0     H34900   0.841   2.805   0.584 -3.2185  0.3884  0.9259
  978MOL0     H34901   0.642   2.931   0.528  0.6468 -2.6020  2.7984
  978MOL0     H34902   0.734   3.084   0.531  2.2903 -0.9983  0.8926
  978MOL0     H34903   0.884   2.959   0.352  0.0191  2.2584 -1.1846
  978MOL0     H34904   0.751   2.843   0.355 -1.5461 -1.0952 -1.1487
  978MOL0     H34905   0.589   3.032   0.279 -0.6050  0.1022 -4.4985
  978MOL0     H34906   0.699   3.001   0.161 -1.1314  0.6409 -0.6567
  978MOL0     H34907   0.724   3.235   0.378 -3.8382  3.1945 -1.5526
  978MOL0     H34908   0.851   3.190   0.267 -0.2637  0.9070 -0.9311
  978MOL0     H34909   0.583   3.331   0.211 -1.7260 -3.0264 -1.3247
  978MOL0     H34910   0.674   3.246   0.083  2.5358 -1.5359  0.2297
  978MOL0     H34911   0.795   3.471   0.254  1.0372  0.1556 -0.8801
  978MOL0     H34912   0.879   3.396   0.115  0.7515  1.2059  0.5293
  978MOL0     H34913   0.650   3.667   0.185 -2.4542 -1.8791  0.3087
  978MOL0     H34914   0.539   3.828  -0.160  1.8801  1.0988 -0.1448
  978MOL0     H34915   0.633   3.903  -0.038  0.3349  0.1729  2.1830
  978MOL0     H34916   0.364   3.745  -0.016 -1.0090  1.2715 -2.5357
  978MOL0     H34917   0.420   3.839   0.123 -2.7290  1.5614  0.4579
  978MOL0     H34918   0.302   3.932  -0.144  0.8309 -2.5205 -1.0921
  978MOL0     H34919   0.247   3.961   0.017  1.3853  2.9076  0.7533
  978MOL0     H34920   0.450   4.114   0.055 -0.4333 -0.9026  0.4179
  978MOL0     H34921   0.480   4.094  -0.118 -0.5746  3.3001 -0.1558
  978MOL0     H34922   0.496   4.342  -0.007 -0.0531  1.2349  0.8292
  978MOL0     H34923   0.572   4.566   0.027 -0.6586  2.2492  2.1968
  978MOL0     H34924   0.463   4.697   0.001 -1.0148 -2.6650  1.9057
  978MOL0     H34925   0.589   4.662  -0.132 -0.2149 -0.2792 -0.6432
  978MOL0     H34926   0.500   4.883  -0.481 -0.7895  0.1233  1.2798
  978MOL0     H34927   0.489   5.101  -0.585 -0.7297  0.5540 -1.5221
  978MOL0     H34928   0.278   5.175  -0.846 -0.6548  0.3785 -1.6446
  978MOL0     H34929   0.118   5.240  -0.785  0.9784  0.2343  4.0455
  978MOL0     H34930   0.214   5.450  -0.739 -2.5097 -2.4769  0.6925
  978MOL0     H34931   0.372   5.403  -0.792 -0.1937  1.8281 -0.7772
  978MOL0     H34932   0.266   5.343  -1.021  0.9290 -0.8151  1.3233
  978MOL0     H34933   0.304   5.513  -0.977 -0.9963  1.2735 -0.8081
  978MOL0     H34934   0.081   5.562  -0.900  0.8740 -0.6175  0.0561
  978MOL0     H34935   0.012   5.408  -0.952  0.2226  0.1022  1.1580
  978MOL0     H34936  -0.006   5.619  -1.110 -0.9113 -1.0924 -0.7445
  978MOL0     H34937   0.167   5.594  -1.144 -0.3806 -0.2546 -2.0913
  978MOL0     H34938  -0.032   5.383  -1.187  0.1255  0.8544  3.1106
  978MOL0     H34939   0.138   5.413  -1.263  1.4481  0.2896  3.9040
  978MOL0     H34940   0.052   5.607  -1.381  1.1825 -1.1633 -0.0799
  978MOL0     H34941  -0.109   5.581  -1.320 -0.2388  0.5880  0.7517
  978MOL0     H34942   0.052   5.401  -1.511  0.9638  0.8448  2.7715
  978MOL0     H34943  -0.087   5.500  -1.559  1.4556  1.1202  0.0817
  978MOL0     H34944   0.057   5.060  -0.595 -1.6661 -2.5338  2.1650
  978MOL0     H34945   0.082   4.858  -0.459 -0.6076 -0.9919 -0.5367
  978MOL0     H34946   0.181   4.535  -0.332  1.4157  0.7205 -2.4158
  978MOL0     H34947   0.167   4.282  -0.255  1.2799 -0.9934 -2.1536
  978MOL0     H34948   0.907   2.876   1.015 -0.7809 -1.1852 -0.9068
  978MOL0     H34949   0.835   2.945   1.256 -0.4062  2.2625  0.3241
  978MOL0     H34950   0.414   3.096   1.488 -2.0136  1.3349  1.6835
  978MOL0     H34951   0.303   3.136   1.688  0.9798  0.7592 -2.5119
  978MOL0     H34952   0.158   3.022   2.019  1.4187 -0.4253  0.1094
  978MOL0     H34953   0.155   3.078   1.851 -4.5016 -1.9764 -1.3650
  978MOL0     H34954   0.176   2.830   1.782  2.7594 -0.9885  0.7266
  978MOL0     H34955   0.013   2.876   1.870  0.8180  0.3455  2.9597
  978MOL0     H34956   0.247   2.754   2.017 -0.8645 -0.9596  1.0535
  978MOL0     H34957   0.079   2.753   2.057 -1.0291  1.8464 -0.7765
  978MOL0     H34958   0.223   2.591   1.824 -2.4704 -0.7141 -3.0023
  978MOL0     H34959   0.049   2.574   1.868  0.0576 -1.3297  0.3878
  978MOL0     H34960   0.247   2.396   2.198  1.1907 -0.0877 -1.8112
  978MOL0     H34961   0.523   2.849   1.901 -3.7020 -1.8360  0.4560
  978MOL0     H34962   0.817   2.833   1.684 -0.6470 -0.0017  0.2868
  978MOL0     H34963   0.734   2.764   1.824 -0.9648 -4.5711 -1.0164
  978MOL0     H34964   0.705   2.691   1.673 -0.4825 -1.5640  2.4550
  979MOL0     O34965   1.382   3.545   3.861  0.4956 -0.0079 -0.4726
  979MOL0     C34966   1.322   3.603   3.954  0.0327 -0.4392 -0.1332
  979MOL0     O34967   1.349   3.578   4.086  0.3748 -0.1999  0.4340
  979MOL0     C34968   1.405   3.453   4.112  0.0791  0.3208  0.5028
  979MOL0     C34969   1.542   3.445   4.124  0.5285 -1.3293 -0.6748
  979MOL0     C34970   1.594   3.323   4.150 -0.6420  0.8319  1.0677
  979MOL0     C34971   1.516   3.211   4.164 -0.0225  0.3731  0.4174
  979MOL0     O34972   1.592   3.098   4.177 -0.5704  0.3822 -0.3199
  979MOL0     C34973   1.532   2.965   4.183  0.8359 -0.0739 -0.6408
  979MOL0     C34974   1.623   2.866   4.115  0.0364  0.1619  0.0191
  979MOL0     C34975   1.726   2.919   4.004  0.8446 -0.5094 -0.2114
  979MOL0     C34976   1.877   2.904   4.027 -0.2265 -0.0425  0.0436
  979MOL0     C34977   1.953   2.959   3.910 -0.4964  0.3083 -0.0914
  979MOL0     C34978   2.092   2.884   3.907 -0.0761  0.4400  0.1275
  979MOL0     C34979   2.177   2.883   3.769 -0.4665  0.2367 -1.0380
  979MOL0     C34980   2.276   2.998   3.768  0.3522 -0.6154  0.1028
  979MOL0     N34981   2.302   3.020   3.622  0.0379  0.4722 -0.5924
  979MOL0     C34982   2.362   2.925   3.535 -0.3234  0.1016 -0.9141
  979MOL0     C34983   2.360   2.998   3.411 -0.2029  1.0416  1.1845
  979MOL0     C34984   2.415   2.933   3.282  1.2148  0.2444 -0.8839
  979MOL0     C34985   2.295   2.869   3.202 -0.0008  0.0789 -1.1828
  979MOL0     C34986   2.339   2.782   3.081  0.1134  0.0625  0.9791
  979MOL0     C34987   2.220   2.777   2.978  0.8997  0.0220 -0.6367
  979MOL0     O34988   2.251   2.685   2.877 -0.4116 -0.1514  0.3291
  979MOL0     C34989   2.166   2.620   2.799  0.1035 -0.0378 -0.1058
  979MOL0     C34990   2.026   2.649   2.786  0.0118  0.1266  0.2182
  979MOL0     C34991   1.941   2.567   2.701 -0.0781  1.4782  0.7046
  979MOL0     C34992   1.796   2.600   2.701  0.1695  0.5087  0.4690
  979MOL0     C34993   1.993   2.453   2.643 -0.3122 -0.5295 -0.0600
  979MOL0     C34994   1.913   2.364   2.556 -0.3586  0.1878  0.3313
  979MOL0     O34995   1.901   2.239   2.592 -0.0140 -0.8743 -0.0426
  979MOL0     C34996   1.847   2.145   2.505 -0.4114  0.3533 -0.1116
  979MOL0     C34997   1.852   2.139   2.373 -1.2820  0.1949  0.6996
  979MOL0     C34998   1.775   2.042   2.302  0.5550 -0.0065  0.4708
  979MOL0     C34999   1.698   1.945   2.362  0.8810  0.2027 -0.4309
  979MOL0     O35000   1.619   1.869   2.280 -0.5117 -0.2702  0.3088
  979MOL0     C35001   1.501   1.816   2.338 -0.1428  0.7798 -0.3888
  979MOL0     C35002   1.394   1.788   2.238  0.3873 -0.6935  0.1499
  979MOL0     C35003   1.278   1.701   2.286  0.6097  0.3407  0.3658
  979MOL0     C35004   1.206   1.739   2.424 -0.1186  0.5854  0.1493
  979MOL0     C35005   1.073   1.664   2.443 -0.1290  0.3286 -0.5128
  979MOL0     C35006   0.998   1.703   2.563 -1.1209 -0.7977 -0.5869
  979MOL0     C35007   0.979   1.856   2.573 -1.4290  0.3275 -0.0668
  979MOL0     C35008   0.860   1.891   2.671 -0.2508 -0.0064 -0.0529
  979MOL0    Cl35009   0.906   1.840   2.839 -0.0736  0.3448  0.0752
  979MOL0     C35010   1.688   1.965   2.502  0.8430 -1.2080 -1.2880
  979MOL0     C35011   1.767   2.053   2.573 -0.4099  0.1499 -0.3317
  979MOL0     O35012   1.861   2.419   2.463  0.5377 -0.0105  0.7554
  979MOL0     C35013   2.124   2.418   2.663 -0.1112 -0.0848 -0.6559
  979MOL0     C35014   2.217   2.508   2.734  0.1122 -0.2612 -0.8517
  979MOL0     N35015   2.302   3.119   3.427 -0.3349  0.5560  0.1537
  979MOL0     N35016   2.265   3.132   3.552 -0.0543 -0.3263  0.1198
  979MOL0     C35017   1.379   3.220   4.139 -0.2547  0.6806 -0.1876
  979MOL0     C35018   1.322   3.342   4.117 -0.1999 -0.4076  0.0121
  979MOL0     C35019   1.252   3.720   3.921  0.3757 -0.1378  0.1019
  979MOL0     C35020   1.315   3.804   3.828  0.4228  0.7078 -0.8364
  979MOL0     C35021   1.256   3.918   3.782 -0.6185 -0.1351  0.1380
  979MOL0     C35022   1.139   3.961   3.839  0.4357 -0.5516  0.5745
  979MOL0     O35023   1.104   4.085   3.796  0.1831  0.0272  0.9222
  979MOL0     C35024   1.022   4.160   3.882  0.2567 -1.3125 -0.0360
  979MOL0     C35025   1.113   4.256   3.964  0.4985  0.4428 -0.4183
  979MOL0     C35026   1.196   4.357   3.883  0.2589  0.5846 -0.0922
  979MOL0     C35027   1.096   4.436   3.799  0.6340 -0.1775 -0.3132
  979MOL0     C35028   1.157   4.560   3.743 -0.1497  0.8642 -0.5516
  979MOL0     C35029   1.224   4.652   3.696 -0.2017  0.7701 -0.0220
  979MOL0     C35030   1.071   3.875   3.928 -0.0776 -0.9959  0.2497
  979MOL0     C35031   1.117   3.744   3.963 -0.3638 -0.8137  0.7725
  979MOL0     C35032   1.033   3.661   4.057 -0.3672 -0.0481  0.1468
  979MOL0     H35033   1.601   3.533   4.147  0.9949 -1.7140 -0.3620
  979MOL0     H35034   1.699   3.301   4.162 -1.2310 -2.5030  0.9628
  979MOL0     H35035   1.433   2.947   4.141  0.3389 -3.5624  1.5933
  979MOL0     H35036   1.517   2.935   4.287  1.4198  0.1239 -0.4993
  979MOL0     H35037   1.678   2.825   4.200 -0.8834 -0.2842  0.4207
  979MOL0     H35038   1.568   2.782   4.071  0.9958 -1.3191  1.5689
  979MOL0     H35039   1.693   2.851   3.924 -0.9040 -0.6417  0.5728
  979MOL0     H35040   1.708   3.021   3.970  1.4821  0.5506  2.4019
  979MOL0     H35041   1.919   2.940   4.121 -2.3271  0.6870  0.7682
  979MOL0     H35042   1.896   2.797   4.034 -0.8806 -0.3651 -2.1868
  979MOL0     H35043   1.983   3.064   3.922  1.0740 -0.3119  2.2584
  979MOL0     H35044   1.900   2.946   3.816  2.1627 -0.5954 -1.5723
  979MOL0     H35045   2.159   2.915   3.988  0.8818  2.8754 -1.4901
  979MOL0     H35046   2.085   2.778   3.933  1.9951 -0.4174 -2.4246
  979MOL0     H35047   2.122   2.889   3.675  1.9976 -1.5226 -2.6784
  979MOL0     H35048   2.236   2.792   3.763 -3.0393 -1.4821 -2.1808
  979MOL0     H35049   2.232   3.083   3.821  2.6245 -0.3295  1.6806
  979MOL0     H35050   2.366   2.972   3.824  0.3160 -0.1508  0.3798
  979MOL0     H35051   2.405   2.825   3.535  1.4491  0.6195 -5.3682
  979MOL0     H35052   2.493   2.863   3.314  1.5277  1.9506  2.5282
  979MOL0     H35053   2.457   3.011   3.217 -1.7665  0.0757 -3.2625
  979MOL0     H35054   2.238   2.811   3.276 -0.6047  0.3436 -1.4314
  979MOL0     H35055   2.235   2.954   3.167 -1.1086  0.7754  2.1035
  979MOL0     H35056   2.421   2.828   3.026 -0.4451  0.1840  0.2330
  979MOL0     H35057   2.378   2.683   3.108  1.9814  1.0017  1.8697
  979MOL0     H35058   2.127   2.760   3.034  2.3398  0.6512  2.1516
  979MOL0     H35059   2.205   2.878   2.940 -0.9646 -0.2841 -0.7987
  979MOL0     H35060   1.989   2.728   2.850 -0.8598  0.0814 -0.2079
  979MOL0     H35061   1.771   2.643   2.604 -5.0395  0.1873  1.3744
  979MOL0     H35062   1.777   2.679   2.774 -1.8848  1.6228 -1.1439
  979MOL0     H35063   1.724   2.520   2.723  1.1167  0.0607  2.0655
  979MOL0     H35064   1.912   2.213   2.322  1.1736 -0.8519  1.9112
  979MOL0     H35065   1.768   2.052   2.194  2.5117 -0.1994  0.2795
  979MOL0     H35066   1.511   1.724   2.396  0.4496  1.3948  0.5040
  979MOL0     H35067   1.452   1.887   2.404 -2.0399  0.6957 -1.6094
  979MOL0     H35068   1.352   1.880   2.195 -1.9845 -1.0960  1.4597
  979MOL0     H35069   1.437   1.723   2.162 -1.2314 -3.8837  1.7845
  979MOL0     H35070   1.309   1.596   2.280  3.7999  1.1601  0.5252
  979MOL0     H35071   1.207   1.712   2.204 -0.5646  1.4823  1.4840
  979MOL0     H35072   1.184   1.846   2.425 -1.8348  0.2745  2.0753
  979MOL0     H35073   1.287   1.732   2.497  0.2667  2.7135 -0.0040
  979MOL0     H35074   1.020   1.684   2.350  1.0423 -0.3418 -1.3559
  979MOL0     H35075   1.079   1.555   2.438  0.6919  0.4209 -2.6745
  979MOL0     H35076   1.051   1.657   2.646 -0.7124 -0.0681 -0.4417
  979MOL0     H35077   0.901   1.654   2.575 -1.5471  0.1113 -0.2511
  979MOL0     H35078   0.959   1.901   2.475  0.6694  2.2546  0.3200
  979MOL0     H35079   1.073   1.901   2.605 -0.3306 -0.2908 -2.2180
  979MOL0     H35080   0.771   1.832   2.646  0.2967 -1.7184  1.7671
  979MOL0     H35081   0.841   1.998   2.663  3.8776  0.8814  0.2814
  979MOL0     H35082   1.632   1.899   2.567  1.7106  1.4871  2.5740
  979MOL0     H35083   1.767   2.036   2.680 -2.1280  0.8452 -0.1949
  979MOL0     H35084   2.173   2.332   2.617  0.2238 -1.1333  1.5021
  979MOL0     H35085   2.324   2.503   2.748 -0.1270 -2.8576  0.9474
  979MOL0     H35086   1.300   3.146   4.149 -0.9140  1.4968  0.9589
  979MOL0     H35087   1.215   3.358   4.103 -0.6972 -2.8403  0.5136
  979MOL0     H35088   1.413   3.768   3.799  0.5543  1.2554 -1.0812
  979MOL0     H35089   1.295   3.991   3.711 -3.5892  0.0906 -1.4138
  979MOL0     H35090   0.952   4.227   3.829 -0.0003 -1.4648  0.1078
  979MOL0     H35091   0.968   4.100   3.956  4.2864 -1.6045  2.9683
  979MOL0     H35092   1.189   4.198   4.017 -0.4595 -0.6895 -0.2290
  979MOL0     H35093   1.046   4.314   4.027 -0.3294  3.5315 -3.8016
  979MOL0     H35094   1.248   4.423   3.954  2.6112  0.0434 -1.2063
  979MOL0     H35095   1.276   4.316   3.821  2.3589  1.5771  1.7774
  979MOL0     H35096   1.001   4.450   3.851  0.7944 -3.1947  0.9705
  979MOL0     H35097   1.056   4.378   3.715 -0.2338 -2.4298  1.5499
  979MOL0     H35098   1.279   4.725   3.641 -2.1554  1.2551 -1.4460
  979MOL0     H35099   0.973   3.893   3.971  0.3878 -1.3504  1.5186
  979MOL0     H35100   1.073   3.563   4.081  0.1112  0.4167  1.3337
  979MOL0     H35101   1.000   3.713   4.148  1.9147 -0.0612  1.0232
  979MOL0     H35102   0.943   3.642   3.998 -1.3462  1.9413  0.8910
  980MOL0     O35103   1.254   4.779   5.513  0.6974 -0.7237 -0.4041
  980MOL0     C35104   1.272   4.899   5.491 -0.0172  0.1069  0.0713
  980MOL0     O35105   1.372   4.977   5.540 -0.6332 -0.1706  0.0359
  980MOL0     C35106   1.444   4.923   5.646  0.0550  0.6543  0.3742
  980MOL0     C35107   1.404   4.937   5.776 -0.8886 -0.4825  0.3763
  980MOL0     C35108   1.451   4.843   5.877 -0.1815 -1.0375  0.2311
  980MOL0     C35109   1.546   4.745   5.838 -0.2299  0.4034 -0.1174
  980MOL0     O35110   1.628   4.676   5.927  0.0856  0.3385  0.3490
  980MOL0     C35111   1.554   4.609   6.028 -1.6162 -0.0321 -0.5988
  980MOL0     C35112   1.639   4.640   6.158  0.3908 -0.3851  0.3572
  980MOL0     C35113   1.669   4.792   6.183 -0.0074  0.9113 -0.0487
  980MOL0     C35114   1.726   4.815   6.323 -0.0251  0.8158  1.3516
  980MOL0     C35115   1.864   4.767   6.354  0.5836  0.6824  0.2930
  980MOL0     C35116   1.918   4.854   6.468 -0.2665  0.2606 -0.2587
  980MOL0     C35117   2.074   4.846   6.473  0.2042 -0.8965 -1.2001
  980MOL0     C35118   2.128   4.932   6.589 -0.3918  0.4903  0.3054
  980MOL0     N35119   2.276   4.911   6.600 -0.6755  0.7413 -0.1673
  980MOL0     C35120   2.353   4.940   6.493 -0.4526  0.7714 -0.3539
  980MOL0     C35121   2.476   4.923   6.535  0.8413 -0.0780  0.0762
  980MOL0     C35122   2.595   4.938   6.436  0.1817 -0.2252 -0.5395
  980MOL0     C35123   2.728   4.971   6.510  0.5775  0.1446  0.1337
  980MOL0     C35124   2.855   4.976   6.422 -0.4016 -0.7420  0.3993
  980MOL0     C35125   2.983   4.917   6.483  0.0487  0.4355 -0.3119
  980MOL0     O35126   2.957   4.779   6.507 -0.1953  0.4284  1.0124
  980MOL0     C35127   3.049   4.711   6.586 -0.9276 -0.7701 -0.0919
  980MOL0     C35128   3.183   4.701   6.565 -0.0734  0.8498 -0.5883
  980MOL0     C35129   3.257   4.633   6.660  0.5559 -0.1974 -0.0756
  980MOL0     C35130   3.405   4.619   6.630 -1.0541  0.3074 -1.3250
  980MOL0     C35131   3.191   4.558   6.771  0.2340  0.0292 -0.2349
  980MOL0     C35132   3.261   4.470   6.879 -1.1294  0.0563  0.3720
  980MOL0     O35133   3.179   4.418   6.970 -0.5741 -0.4862 -0.6364
  980MOL0     C35134   3.228   4.391   7.091 -1.0507 -0.2853  0.2693
  980MOL0     C35135   3.277   4.503   7.166 -0.0824  0.5679  0.1061
  980MOL0     C35136   3.322   4.482   7.297 -0.2699 -0.1734  0.9226
  980MOL0     C35137   3.309   4.367   7.364 -0.0312 -0.3589 -0.0075
  980MOL0     O35138   3.331   4.370   7.492  0.3168 -0.1873 -0.6401
  980MOL0     C35139   3.453   4.313   7.543 -0.5333  0.4610 -0.0594
  980MOL0     C35140   3.469   4.333   7.692  1.2315  0.0516  0.8901
  980MOL0     C35141   3.420   4.470   7.743 -0.7018 -0.9107 -0.2321
  980MOL0     C35142   3.506   4.592   7.682 -0.1316 -0.8138 -0.1907
  980MOL0     C35143   3.469   4.737   7.739  0.6054  0.2637  0.3215
  980MOL0     C35144   3.501   4.758   7.887 -1.6728 -1.1146  0.0610
  980MOL0     C35145   3.644   4.713   7.930  0.4503 -0.9564  0.2846
  980MOL0     C35146   3.681   4.762   8.078  0.5486  0.4116  0.4443
  980MOL0    Cl35147   3.724   4.945   8.052 -0.1169  0.1872  0.3734
  980MOL0     C35148   3.252   4.258   7.288  0.6423 -0.9802 -0.2970
  980MOL0     C35149   3.220   4.266   7.148  0.1700  0.2497 -0.6368
  980MOL0     O35150   3.385   4.458   6.874 -0.7580 -0.3583  0.1221
  980MOL0     C35151   3.053   4.574   6.782  0.1631  0.8028 -0.5452
  980MOL0     C35152   2.981   4.650   6.695 -0.0376  0.1615  0.9665
  980MOL0     N35153   2.481   4.878   6.665  0.8243 -0.4892  0.5774
  980MOL0     N35154   2.361   4.878   6.706 -0.4942  0.3700  1.4266
  980MOL0     C35155   1.592   4.739   5.711  0.2790  0.0427  0.4802
  980MOL0     C35156   1.546   4.826   5.613  0.1173 -0.5164  0.3989
  980MOL0     C35157   1.163   4.969   5.407  0.2261 -0.3043 -0.6925
  980MOL0     C35158   1.196   5.064   5.304 -0.2793 -0.2895 -0.4038
  980MOL0     C35159   1.091   5.103   5.222  0.8272  0.2081  1.6855
  980MOL0     C35160   0.948   5.071   5.248 -0.7798  0.0873 -0.0355
  980MOL0     O35161   0.850   5.118   5.166 -0.1651 -0.6508  0.5382
  980MOL0     C35162   0.846   5.263   5.152 -0.1972 -0.5123 -0.2486
  980MOL0     C35163   0.800   5.329   5.289 -0.3988  0.3853 -0.1126
  980MOL0     C35164   0.663   5.280   5.338  0.4973  0.6798  0.6699
  980MOL0     C35165   0.625   5.350   5.467  0.6474 -0.1330  0.2846
  980MOL0     C35166   0.495   5.305   5.510  0.4955  0.6285  0.1557
  980MOL0     C35167   0.391   5.254   5.546  0.0776  0.1899  0.2734
  980MOL0     C35168   0.926   5.009   5.361 -0.6611  0.2827 -0.6655
  980MOL0     C35169   1.027   4.955   5.441  1.3400 -0.9722 -1.0897
  980MOL0     C35170   0.992   4.880   5.572  0.0257 -0.2262 -1.0204
  980MOL0     H35171   1.326   5.008   5.800 -3.1069 -3.3361  2.2539
  980MOL0     H35172   1.425   4.866   5.979  1.5823  1.3598  0.2201
  980MOL0     H35173   1.555   4.501   6.012 -1.7415 -0.1189 -0.0490
  980MOL0     H35174   1.450   4.644   6.022 -1.6768 -0.4958 -2.8355
  980MOL0     H35175   1.574   4.602   6.238 -2.2822 -4.5605 -3.3219
  980MOL0     H35176   1.729   4.578   6.164  0.7649 -0.3291 -2.9265
  980MOL0     H35177   1.729   4.838   6.104 -1.0047  1.9260 -0.2491
  980MOL0     H35178   1.572   4.842   6.184  0.1226  1.2620  2.5180
  980MOL0     H35179   1.729   4.924   6.329 -1.3880  1.0004 -0.4811
  980MOL0     H35180   1.649   4.779   6.392 -0.5116  1.4221  1.1345
  980MOL0     H35181   1.925   4.769   6.263 -1.8063  0.2749 -1.4019
  980MOL0     H35182   1.865   4.660   6.379  1.7079  1.1224  2.3430
  980MOL0     H35183   1.888   4.956   6.441 -0.9749 -0.2897 -1.6624
  980MOL0     H35184   1.873   4.808   6.556  1.5028 -1.5648 -0.2330
  980MOL0     H35185   2.116   4.866   6.374  1.5652 -0.2473 -0.5225
  980MOL0     H35186   2.107   4.749   6.512  2.5425  0.8217  1.5059
  980MOL0     H35187   2.112   5.038   6.567 -4.2665 -0.1961 -0.9438
  980MOL0     H35188   2.071   4.913   6.680 -0.9041  0.7084  0.0342
  980MOL0     H35189   2.322   4.981   6.398  2.8768  2.4440 -0.8795
  980MOL0     H35190   2.579   5.023   6.368  0.5503 -0.3515 -0.7887
  980MOL0     H35191   2.599   4.843   6.380  0.8267  0.3898 -1.5779
  980MOL0     H35192   2.715   5.068   6.558  1.5894  0.9336 -1.1256
  980MOL0     H35193   2.742   4.891   6.584 -1.1666 -2.0653 -1.7638
  980MOL0     H35194   2.843   4.920   6.329 -2.5716  0.0938  0.1418
  980MOL0     H35195   2.865   5.082   6.395  0.5948 -1.3225 -1.7688
  980MOL0     H35196   3.058   4.934   6.406 -1.5491 -0.2283 -2.1123
  980MOL0     H35197   3.010   4.966   6.577 -0.4784  1.9358 -0.9167
  980MOL0     H35198   3.225   4.750   6.478  3.1406 -0.4067  0.1190
  980MOL0     H35199   3.438   4.516   6.615 -0.1205  0.2661  0.7383
  980MOL0     H35200   3.480   4.640   6.706 -0.8020  1.2359 -1.8080
  980MOL0     H35201   3.442   4.678   6.546  1.8960 -2.7791 -2.4190
  980MOL0     H35202   3.263   4.603   7.126  1.3173  0.3916 -0.8963
  980MOL0     H35203   3.369   4.568   7.343 -2.9586  2.3664 -0.6917
  980MOL0     H35204   3.462   4.206   7.525  3.4849  0.3599  1.4617
  980MOL0     H35205   3.541   4.353   7.492 -1.8437  1.1733 -1.8908
  980MOL0     H35206   3.402   4.260   7.738 -0.6790 -0.2874 -2.1320
  980MOL0     H35207   3.575   4.316   7.712  0.7673 -2.8672  1.1973
  980MOL0     H35208   3.434   4.467   7.851  0.6444  1.3710 -0.2809
  980MOL0     H35209   3.313   4.474   7.719  0.0003  0.3704 -3.6490
  980MOL0     H35210   3.495   4.593   7.573 -3.4994  1.8812 -0.0218
  980MOL0     H35211   3.612   4.581   7.707  0.1383 -0.6006 -1.2028
  980MOL0     H35212   3.511   4.820   7.683 -1.2781  1.3817  0.4953
  980MOL0     H35213   3.360   4.735   7.735  0.5099 -4.1035 -0.9111
  980MOL0     H35214   3.447   4.690   7.954  4.5312 -4.6695  2.3022
  980MOL0     H35215   3.486   4.859   7.925  0.5841 -1.0494  0.9477
  980MOL0     H35216   3.725   4.746   7.864 -0.3342  0.5892  0.0567
  980MOL0     H35217   3.649   4.604   7.931 -5.2100 -1.5554 -1.6629
  980MOL0     H35218   3.763   4.705   8.122 -1.0028 -2.2192  0.0905
  980MOL0     H35219   3.596   4.747   8.144  0.5227  3.6986  1.3746
  980MOL0     H35220   3.238   4.164   7.341  0.0061  0.0092  1.3817
  980MOL0     H35221   3.189   4.174   7.100  3.9554 -0.7945 -1.4137
  980MOL0     H35222   2.996   4.528   6.863 -0.0845  1.3639 -0.3971
  980MOL0     H35223   2.874   4.658   6.708 -1.4218 -2.3459 -5.3364
  980MOL0     H35224   1.670   4.671   5.679  1.9896  1.9827  0.3061
  980MOL0     H35225   1.572   4.813   5.508  2.8883 -1.5634  1.1126
  980MOL0     H35226   1.300   5.089   5.284  0.5052 -3.9579 -1.8803
  980MOL0     H35227   1.108   5.164   5.134  2.8854 -2.7872 -0.1652
  980MOL0     H35228   0.941   5.305   5.118 -0.0525 -1.0152 -0.4703
  980MOL0     H35229   0.761   5.281   5.085  1.3970  1.7931 -1.7905
  980MOL0     H35230   0.822   5.436   5.293 -2.1692  0.7470  2.1895
  980MOL0     H35231   0.872   5.299   5.366  0.9990 -1.5176 -2.0550
  980MOL0     H35232   0.594   5.298   5.256  2.4176 -2.3237 -1.8304
  980MOL0     H35233   0.666   5.173   5.356  4.0335  0.4609 -0.3833
  980MOL0     H35234   0.626   5.459   5.471 -1.3499 -0.0861  3.4745
  980MOL0     H35235   0.693   5.319   5.546  1.0565 -3.1752 -1.1227
  980MOL0     H35236   0.309   5.199   5.584  1.4294  0.0721  3.3045
  980MOL0     H35237   0.824   4.990   5.391  0.7440 -2.4365  3.2521
  980MOL0     H35238   0.884   4.886   5.588 -0.1202  1.4909 -2.4017
  980MOL0     H35239   1.016   4.774   5.560 -3.1335 -0.8821 -2.7505
  980MOL0     H35240   1.036   4.922   5.662 -2.7044  1.8831 -0.5537
  981MOL0     O35241   9.244   7.043   2.521  0.1120 -0.0774  0.1256
  981MOL0     C35242   9.285   7.004   2.630 -0.6153  0.4066  0.5173
  981MOL0     O35243   9.390   7.064   2.699  0.2985  0.1042  0.2306
  981MOL0     C35244   9.449   7.164   2.624 -0.9396 -0.1411 -0.1638
  981MOL0     C35245   9.546   7.140   2.509  0.6923  0.3539  0.0436
  981MOL0     C35246   9.596   7.252   2.436  0.8240 -0.5809  0.6055
  981MOL0     C35247   9.546   7.381   2.456  1.0679 -0.3005 -0.5328
  981MOL0     O35248   9.586   7.488   2.384 -0.0497 -0.0577  0.3739
  981MOL0     C35249   9.509   7.500   2.259  0.6250 -0.3242 -0.1045
  981MOL0     C35250   9.566   7.600   2.163  0.0356 -0.0806  0.0459
  981MOL0     C35251   9.702   7.552   2.107  0.4506  0.7384  0.0305
  981MOL0     C35252   9.760   7.632   1.985 -0.4556 -0.0942  0.2114
  981MOL0     C35253   9.683   7.621   1.848  0.1345  0.5693  0.0558
  981MOL0     C35254   9.720   7.486   1.779  0.0905 -0.5077 -0.2032
  981MOL0     C35255   9.683   7.465   1.639 -0.7369  0.0922 -1.2745
  981MOL0     C35256   9.537   7.447   1.616  1.0867 -0.3986  0.2009
  981MOL0     N35257   9.510   7.405   1.477 -1.0745 -0.0221  0.3512
  981MOL0     C35258   9.442   7.478   1.382  1.2477  0.3922 -0.8430
  981MOL0     C35259   9.466   7.417   1.262 -0.7465  0.6003 -0.7267
  981MOL0     C35260   9.430   7.471   1.130 -0.2087 -0.2969  0.0172
  981MOL0     C35261   9.346   7.374   1.043  1.2333 -0.3868 -0.6509
  981MOL0     C35262   9.206   7.354   1.102 -0.0716  0.2542  0.2199
  981MOL0     C35263   9.116   7.246   1.029 -0.4051  0.0641 -0.2623
  981MOL0     O35264   9.005   7.229   1.119  0.2931 -0.2815  0.9925
  981MOL0     C35265   8.919   7.334   1.134  0.0557  0.2396  0.5625
  981MOL0     C35266   8.873   7.418   1.035 -0.8044  0.1175 -0.3149
  981MOL0     C35267   8.781   7.523   1.052  0.4681  0.4114 -0.6663
  981MOL0     C35268   8.762   7.628   0.944  1.0755  0.1057 -0.0584
  981MOL0     C35269   8.725   7.538   1.178 -0.0015 -1.3649  0.0272
  981MOL0     C35270   8.609   7.631   1.211 -0.2657 -0.5357 -0.9921
  981MOL0     O35271   8.586   7.638   1.346 -0.5630 -0.7831  0.1056
  981MOL0     C35272   8.484   7.719   1.396 -0.6466 -0.3738  0.4684
  981MOL0     C35273   8.500   7.845   1.455 -0.1037  0.6577  0.0427
  981MOL0     C35274   8.392   7.919   1.505 -0.2799  0.3096 -0.6248
  981MOL0     C35275   8.260   7.879   1.480  0.6599  1.5880 -0.2727
  981MOL0     O35276   8.157   7.959   1.518 -0.4701  1.4800 -0.1437
  981MOL0     C35277   8.084   7.906   1.631 -0.7699 -0.8464 -0.3664
  981MOL0     C35278   8.148   7.930   1.769  0.3678  0.2893 -0.1685
  981MOL0     C35279   8.152   8.089   1.797  0.9161  0.5939 -0.2951
  981MOL0     C35280   8.013   8.136   1.829  0.6699 -0.4517  0.5141
  981MOL0     C35281   8.026   8.270   1.901  0.2721  0.3492  1.4221
  981MOL0     C35282   8.046   8.247   2.056 -0.5838  1.3198 -0.4020
  981MOL0     C35283   8.033   8.388   2.123 -0.1387  0.4921 -0.8194
  981MOL0     C35284   8.026   8.383   2.276  0.5020  0.1133  0.3638
  981MOL0    Cl35285   8.190   8.346   2.351 -0.5293  0.0690  1.1109
  981MOL0     C35286   8.256   7.751   1.406 -0.4455  0.5587  0.3660
  981MOL0     C35287   8.358   7.674   1.381  1.2843  0.6289  0.3115
  981MOL0     O35288   8.539   7.677   1.120 -0.0968  0.1071 -0.3929
  981MOL0     C35289   8.770   7.460   1.276  0.3333 -0.2229 -0.8417
  981MOL0     C35290   8.857   7.357   1.254 -0.0877  0.6500 -0.4663
  981MOL0     N35291   9.551   7.310   1.288 -0.2629  0.2390 -0.2312
  981MOL0     N35292   9.580   7.301   1.412 -0.3853 -0.6597 -0.1506
  981MOL0     C35293   9.463   7.401   2.575  0.2777  0.3866  0.2111
  981MOL0     C35294   9.424   7.293   2.653 -0.1901 -0.9939  0.2379
  981MOL0     C35295   9.210   6.904   2.711  0.2301  0.5722 -0.7898
  981MOL0     C35296   9.225   6.925   2.853  0.4093  0.4465 -0.5699
  981MOL0     C35297   9.164   6.842   2.942  0.2627 -0.0465 -0.2935
  981MOL0     C35298   9.072   6.757   2.900 -0.2440 -0.0025  0.4599
  981MOL0     O35299   9.005   6.678   2.988  0.1091 -0.1582 -0.0915
  981MOL0     C35300   8.904   6.754   3.054 -0.5741  0.9884  0.7539
  981MOL0     C35301   8.811   6.659   3.128 -0.9913  0.2810 -1.0397
  981MOL0     C35302   8.704   6.736   3.210 -0.6653 -0.4117 -0.0991
  981MOL0     C35303   8.592   6.643   3.246 -0.7203  0.1860 -0.3673
  981MOL0     C35304   8.502   6.707   3.343 -0.5582 -0.1238 -0.8697
  981MOL0     C35305   8.423   6.762   3.409  0.4756 -0.6561 -0.0560
  981MOL0     C35306   9.053   6.732   2.758 -0.0582 -0.4547  0.1775
  981MOL0     C35307   9.125   6.805   2.665 -0.1952  0.6353 -0.0962
  981MOL0     C35308   9.086   6.796   2.520 -0.8908  0.5426 -0.1452
  981MOL0     H35309   9.577   7.039   2.483 -2.6046 -0.3611 -1.7251
  981MOL0     H35310   9.679   7.238   2.368  0.7024 -0.2279  0.3794
  981MOL0     H35311   9.412   7.532   2.300 -0.6578 -4.2865  0.3806
  981MOL0     H35312   9.496   7.406   2.205 -0.3376 -0.5068  0.4274
  981MOL0     H35313   9.498   7.630   2.083 -2.0263 -3.3057  0.4109
  981MOL0     H35314   9.583   7.691   2.220 -0.6755 -0.9412  1.6884
  981MOL0     H35315   9.766   7.557   2.195  1.8872  1.3066 -1.0168
  981MOL0     H35316   9.698   7.447   2.079  0.8416  0.5499  0.6610
  981MOL0     H35317   9.765   7.736   2.020 -1.8079  0.0111  0.1567
  981MOL0     H35318   9.864   7.610   1.962 -0.1629  0.9072  0.5019
  981MOL0     H35319   9.689   7.698   1.770  0.2145  1.2455  0.7176
  981MOL0     H35320   9.575   7.627   1.867 -0.3615 -1.1808 -1.8834
  981MOL0     H35321   9.829   7.485   1.788  0.0225 -0.0894  0.8544
  981MOL0     H35322   9.686   7.404   1.843 -1.1641  2.6337  3.6013
  981MOL0     H35323   9.742   7.388   1.587  0.2890  2.1578 -3.3407
  981MOL0     H35324   9.707   7.552   1.578 -3.1002  0.9598 -1.0632
  981MOL0     H35325   9.505   7.361   1.675  2.0746 -1.0658 -0.2154
  981MOL0     H35326   9.485   7.541   1.638  3.4799  0.4526  2.9067
  981MOL0     H35327   9.374   7.561   1.398  0.7048  0.0163 -1.1754
  981MOL0     H35328   9.518   7.487   1.066 -0.0339  3.3240  0.8991
  981MOL0     H35329   9.382   7.568   1.148 -2.0270 -1.1870  0.1802
  981MOL0     H35330   9.337   7.424   0.946  1.5065 -1.8286 -1.4524
  981MOL0     H35331   9.387   7.273   1.039 -1.7161 -1.7698  1.1249
  981MOL0     H35332   9.211   7.314   1.204 -1.6037 -1.3018 -0.2565
  981MOL0     H35333   9.150   7.444   1.078  1.1530  0.3572 -2.7031
  981MOL0     H35334   9.076   7.272   0.931 -3.9243 -2.6487  0.2647
  981MOL0     H35335   9.170   7.153   1.011 -1.8387 -0.4377 -2.2619
  981MOL0     H35336   8.903   7.399   0.932 -0.9384  1.1563 -0.5650
  981MOL0     H35337   8.799   7.725   0.978  0.4949 -0.2165  1.6028
  981MOL0     H35338   8.659   7.645   0.912 -0.7625 -1.4572  4.2663
  981MOL0     H35339   8.823   7.597   0.858 -0.8692 -2.2129 -0.7208
  981MOL0     H35340   8.595   7.899   1.448 -1.2672  3.1314  1.8689
  981MOL0     H35341   8.413   8.018   1.544 -0.2638 -0.3190  1.0569
  981MOL0     H35342   7.977   7.928   1.637 -0.4175  0.9059  5.0580
  981MOL0     H35343   8.081   7.798   1.619 -0.8939 -1.1334  1.7991
  981MOL0     H35344   8.090   7.886   1.851  2.0604 -1.3981  0.1889
  981MOL0     H35345   8.248   7.887   1.766 -0.0751 -0.8570  0.8158
  981MOL0     H35346   8.173   8.146   1.706  0.5264  1.5431  0.1943
  981MOL0     H35347   8.218   8.107   1.882 -0.0331 -0.6385  0.7458
  981MOL0     H35348   7.967   8.059   1.892  0.0642 -0.3188  0.2394
  981MOL0     H35349   7.952   8.152   1.740 -1.8357 -1.8592  1.8673
  981MOL0     H35350   8.110   8.328   1.862  0.8858 -2.0803 -1.2479
  981MOL0     H35351   7.930   8.321   1.887 -1.1203 -0.8630  5.2332
  981MOL0     H35352   8.146   8.207   2.079 -0.0175  1.9705 -1.6442
  981MOL0     H35353   7.973   8.174   2.091  2.8684 -1.7260  1.0898
  981MOL0     H35354   7.941   8.434   2.086 -0.8087  0.2146  0.4559
  981MOL0     H35355   8.129   8.441   2.114  2.1476 -2.7126  1.8777
  981MOL0     H35356   7.956   8.300   2.291  0.8291 -0.9087 -2.9505
  981MOL0     H35357   7.986   8.470   2.329  3.0734  1.0777  0.8719
  981MOL0     H35358   8.155   7.722   1.378 -0.3490  0.8771 -0.3136
  981MOL0     H35359   8.331   7.584   1.327  2.6538  0.9973 -1.0692
  981MOL0     H35360   8.739   7.476   1.379  4.0598 -0.0976  0.4029
  981MOL0     H35361   8.886   7.286   1.330 -0.1912  1.8954  0.7754
  981MOL0     H35362   9.427   7.498   2.610 -3.5918 -0.6434 -0.4686
  981MOL0     H35363   9.381   7.316   2.749  1.2975  0.5592  0.5823
  981MOL0     H35364   9.289   7.002   2.895  1.0557  1.4045 -3.1289
  981MOL0     H35365   9.172   6.855   3.050  0.8212 -1.0710 -0.1928
  981MOL0     H35366   8.948   6.824   3.126  3.5296 -2.8743  2.4580
  981MOL0     H35367   8.832   6.803   2.987 -2.8696 -1.3449  1.3509
  981MOL0     H35368   8.871   6.597   3.195  0.1023  0.7785 -1.5309
  981MOL0     H35369   8.758   6.581   3.072 -5.0860  2.6659 -0.9497
  981MOL0     H35370   8.745   6.779   3.302  1.9199  0.3315 -1.4842
  981MOL0     H35371   8.664   6.820   3.151  1.8386  1.5336  0.7851
  981MOL0     H35372   8.644   6.554   3.282 -1.0662  0.8087  1.8138
  981MOL0     H35373   8.537   6.615   3.155 -1.1335 -2.0250  0.4947
  981MOL0     H35374   8.337   6.805   3.455  1.3758  3.4379 -1.8140
  981MOL0     H35375   8.979   6.656   2.735 -0.3146 -0.0682 -0.2921
  981MOL0     H35376   9.013   6.875   2.499  0.8983  1.8935 -1.5511
  981MOL0     H35377   9.179   6.804   2.464 -0.2077  0.6254  0.9919
  981MOL0     H35378   9.054   6.693   2.499  1.1435 -0.3869  1.1199
  982MOL0     O35379   2.187   2.826   8.604 -0.6771  0.1025 -0.1198
  982MOL0     C35380   2.174   2.702   8.596 -0.6379  0.3079 -0.4053
  982MOL0     O35381   2.074   2.625   8.544  0.2481 -0.2482  0.0708
  982MOL0     C35382   1.962   2.693   8.500 -0.3460 -0.2990 -0.6189
  982MOL0     C35383   1.921   2.668   8.367  0.4205  0.9078 -0.7766
  982MOL0     C35384   1.800   2.725   8.324  0.9274 -0.5414  0.2278
  982MOL0     C35385   1.734   2.820   8.407  0.5359 -0.9946 -0.0100
  982MOL0     O35386   1.609   2.862   8.347 -0.2131 -0.1187  0.6613
  982MOL0     C35387   1.519   2.966   8.391 -0.0473 -0.2132  0.5619
  982MOL0     C35388   1.402   2.947   8.295  0.2342  1.1120  0.8400
  982MOL0     C35389   1.279   3.015   8.344  0.1568  0.0985 -0.9404
  982MOL0     C35390   1.167   3.034   8.245  0.2118  0.2156  1.2134
  982MOL0     C35391   1.033   3.049   8.316  0.3520 -0.2814  0.1732
  982MOL0     C35392   0.970   2.911   8.365 -0.3009 -0.3555  0.0519
  982MOL0     C35393   0.838   2.914   8.441  0.2277  0.3114  0.4866
  982MOL0     C35394   0.725   3.000   8.384  0.4204 -0.0091 -1.1232
  982MOL0     N35395   0.648   2.932   8.272 -0.5458  0.0242 -0.2680
  982MOL0     C35396   0.586   2.809   8.272 -0.6361  0.1795 -0.0377
  982MOL0     C35397   0.499   2.815   8.165  0.1938  0.8630 -0.1050
  982MOL0     C35398   0.414   2.699   8.142 -0.2832 -1.3265  0.8622
  982MOL0     C35399   0.474   2.610   8.028 -0.1273  0.0546  0.8027
  982MOL0     C35400   0.554   2.487   8.078 -0.4572  0.4477 -0.7878
  982MOL0     C35401   0.693   2.517   8.121 -0.3032 -0.3267  0.5342
  982MOL0     O35402   0.732   2.421   8.216  0.3654  0.0857  0.4484
  982MOL0     C35403   0.850   2.441   8.287  0.1204 -0.1010  1.0893
  982MOL0     C35404   0.962   2.504   8.235  0.1376  0.2522  0.2142
  982MOL0     C35405   1.081   2.519   8.309 -0.6871 -0.1801  0.6951
  982MOL0     C35406   1.193   2.581   8.240 -0.3937 -0.0669  0.1096
  982MOL0     C35407   1.099   2.448   8.430  1.5668  0.3536 -0.0512
  982MOL0     C35408   1.223   2.445   8.511  0.6481 -0.2884  0.1130
  982MOL0     O35409   1.298   2.558   8.515  0.3178 -0.1251 -0.0144
  982MOL0     C35410   1.417   2.541   8.579 -0.0178 -0.2870 -0.1165
  982MOL0     C35411   1.538   2.526   8.520  0.4318 -0.4207 -0.1018
  982MOL0     C35412   1.652   2.518   8.588 -0.3493  0.3386 -0.5326
  982MOL0     C35413   1.652   2.519   8.729 -0.7229 -0.0600  0.1114
  982MOL0     O35414   1.771   2.525   8.797 -0.1573  0.0445  0.2893
  982MOL0     C35415   1.794   2.649   8.870  0.4835 -0.3025 -0.1702
  982MOL0     C35416   1.933   2.654   8.919  0.9459 -0.0388  0.0548
  982MOL0     C35417   1.960   2.801   8.958 -0.1332 -0.6245 -0.0833
  982MOL0     C35418   2.103   2.811   9.006 -1.4696 -0.1955  0.0420
  982MOL0     C35419   2.142   2.960   9.030  0.4518  1.0659 -0.2314
  982MOL0     C35420   2.296   2.982   9.080  0.8520  0.2211  0.6832
  982MOL0     C35421   2.336   2.966   9.237 -0.6258 -0.2420 -0.2529
  982MOL0     C35422   2.303   2.832   9.306 -0.8628 -0.5801  0.3414
  982MOL0    Cl35423   2.355   2.690   9.204 -0.1240 -0.1877 -0.3452
  982MOL0     C35424   1.532   2.536   8.785 -0.9264 -0.8747 -1.1104
  982MOL0     C35425   1.407   2.547   8.716 -0.0819 -0.9065 -0.2810
  982MOL0     O35426   1.258   2.335   8.552  0.1618 -0.0878 -0.1526
  982MOL0     C35427   0.986   2.382   8.482 -0.1796 -0.5943 -0.2197
  982MOL0     C35428   0.862   2.388   8.411 -1.2518  0.1780 -0.0399
  982MOL0     N35429   0.515   2.929   8.092 -0.0233  0.3545  0.0564
  982MOL0     N35430   0.603   2.999   8.161 -0.3300  0.2136 -0.1489
  982MOL0     C35431   1.785   2.862   8.531 -0.3050  0.4315 -0.5422
  982MOL0     C35432   1.905   2.799   8.580 -0.1500  0.6385 -0.1556
  982MOL0     C35433   2.281   2.615   8.667 -1.2678  0.0137  1.0692
  982MOL0     C35434   2.238   2.494   8.712 -0.1011 -0.5716  0.3566
  982MOL0     C35435   2.327   2.418   8.793 -0.2204 -0.2742  0.0646
  982MOL0     C35436   2.458   2.464   8.825  1.0435 -0.5285  0.6192
  982MOL0     O35437   2.552   2.383   8.885  0.0139  0.8703 -0.2989
  982MOL0     C35438   2.551   2.351   9.028 -0.5798 -0.4851 -0.1734
  982MOL0     C35439   2.484   2.215   9.052  0.1925 -0.3404  0.1367
  982MOL0     C35440   2.504   2.194   9.202  0.1707  0.6603 -0.4527
  982MOL0     C35441   2.409   2.089   9.232  0.5552  0.4058  0.3908
  982MOL0     C35442   2.424   2.037   9.372  0.9530  0.6706  0.4940
  982MOL0     C35443   2.440   1.983   9.478  0.7703 -0.7231 -0.1444
  982MOL0     C35444   2.496   2.590   8.769  0.9125 -0.2116 -0.7366
  982MOL0     C35445   2.416   2.660   8.683  0.6253 -0.9160 -0.8124
  982MOL0     C35446   2.463   2.791   8.632  0.8851  0.3600 -0.1246
  982MOL0     H35447   1.980   2.596   8.310 -0.4091 -0.5857  0.1720
  982MOL0     H35448   1.763   2.719   8.222  4.2983  0.3351 -1.2234
  982MOL0     H35449   1.560   3.067   8.375 -2.2422  1.5606  4.6693
  982MOL0     H35450   1.490   2.946   8.495 -1.2003  1.1646  0.5330
  982MOL0     H35451   1.435   2.967   8.193  2.7060 -1.1640  1.0963
  982MOL0     H35452   1.392   2.838   8.291 -1.1898  1.2503 -0.1625
  982MOL0     H35453   1.247   2.953   8.429  1.7076  0.6339  0.0828
  982MOL0     H35454   1.303   3.116   8.380  1.9974 -0.0453 -1.6734
  982MOL0     H35455   1.180   3.129   8.192  0.9463 -2.0627 -3.2023
  982MOL0     H35456   1.161   2.957   8.167 -2.9767  3.0914 -1.7070
  982MOL0     H35457   0.961   3.084   8.240 -3.5170 -2.5104  2.4695
  982MOL0     H35458   1.051   3.122   8.396  2.2054 -1.6942  1.0952
  982MOL0     H35459   0.967   2.830   8.291  1.4016 -0.6615  0.2717
  982MOL0     H35460   1.042   2.874   8.437 -0.8867 -3.8806 -1.0076
  982MOL0     H35461   0.857   2.945   8.544 -2.1595 -0.0927  1.1043
  982MOL0     H35462   0.798   2.812   8.442  2.0700 -0.4484  1.2556
  982MOL0     H35463   0.656   3.011   8.469  0.4466 -2.9887 -0.6112
  982MOL0     H35464   0.766   3.097   8.355  2.2303 -0.5558 -0.5340
  982MOL0     H35465   0.606   2.729   8.343  2.4740 -1.4566 -2.4665
  982MOL0     H35466   0.310   2.719   8.116 -0.9650 -4.9149  0.3354
  982MOL0     H35467   0.409   2.637   8.232  3.6035 -2.5195  0.4576
  982MOL0     H35468   0.383   2.573   7.979  0.8590 -1.5818  0.1695
  982MOL0     H35469   0.530   2.662   7.950  1.6808  0.1913  2.1358
  982MOL0     H35470   0.490   2.448   8.158  1.2785 -0.2043  0.3739
  982MOL0     H35471   0.559   2.409   8.001  0.3317 -3.5452  2.8586
  982MOL0     H35472   0.762   2.516   8.036  0.8945 -2.2145  1.4755
  982MOL0     H35473   0.694   2.619   8.162  0.7919  1.3796 -3.2249
  982MOL0     H35474   0.952   2.550   8.136 -0.9805 -1.0700 -0.3217
  982MOL0     H35475   1.227   2.678   8.277 -1.4638  0.7735 -1.0299
  982MOL0     H35476   1.181   2.602   8.133  3.3151  1.1252 -0.2474
  982MOL0     H35477   1.278   2.513   8.255 -0.2182  0.1843  0.2492
  982MOL0     H35478   1.542   2.527   8.411  0.0214 -0.9470 -0.1297
  982MOL0     H35479   1.747   2.526   8.537 -0.3270  0.9937 -0.4021
  982MOL0     H35480   1.773   2.735   8.806 -1.8724  1.6774  2.9308
  982MOL0     H35481   1.734   2.663   8.960 -0.0402  0.0745 -0.5709
  982MOL0     H35482   1.942   2.587   9.005  0.8614 -0.4319 -0.2388
  982MOL0     H35483   1.987   2.604   8.839 -0.7426 -1.5825 -0.1938
  982MOL0     H35484   1.884   2.824   9.034 -1.8931 -1.7032 -1.4267
  982MOL0     H35485   1.936   2.872   8.878 -0.8277 -2.4131 -1.5612
  982MOL0     H35486   2.177   2.775   8.934 -2.4072  2.4850 -2.4831
  982MOL0     H35487   2.124   2.770   9.105  1.8921 -0.0357 -0.4973
  982MOL0     H35488   2.130   3.013   8.935 -1.1297 -0.6829 -1.0730
  982MOL0     H35489   2.083   3.010   9.107  1.5491  2.2980 -0.1607
  982MOL0     H35490   2.338   3.073   9.037 -1.6645  0.3493 -1.8188
  982MOL0     H35491   2.358   2.912   9.022 -1.8440 -0.7110 -1.2722
  982MOL0     H35492   2.301   3.045   9.305  0.6723  0.0296  0.1247
  982MOL0     H35493   2.445   2.976   9.233 -0.8672  3.3083 -1.8088
  982MOL0     H35494   2.199   2.825   9.337 -0.8659  2.4325  1.2580
  982MOL0     H35495   2.364   2.828   9.397  0.1915  2.7145 -0.1058
  982MOL0     H35496   1.531   2.559   8.891  0.1684  1.6502 -1.5740
  982MOL0     H35497   1.312   2.558   8.768 -1.8229 -1.7700 -3.0806
  982MOL0     H35498   0.994   2.327   8.576 -0.2049  0.3237  0.3319
  982MOL0     H35499   0.779   2.347   8.468 -2.3371  2.4096  0.0798
  982MOL0     H35500   1.732   2.944   8.577 -0.9537  0.7739 -1.8574
  982MOL0     H35501   1.947   2.834   8.674 -3.3267 -0.8637  2.0318
  982MOL0     H35502   2.146   2.448   8.675  1.8612 -2.3396 -2.8327
  982MOL0     H35503   2.309   2.316   8.826  4.4644 -2.2083 -2.4032
  982MOL0     H35504   2.654   2.359   9.066 -0.5807  0.8849 -0.3845
  982MOL0     H35505   2.491   2.426   9.080  1.4371  1.2605 -0.2151
  982MOL0     H35506   2.530   2.131   9.000 -1.4166 -1.7228  0.8590
  982MOL0     H35507   2.380   2.217   9.018  0.7594 -0.0563 -1.6509
  982MOL0     H35508   2.607   2.160   9.214  0.8158  1.6803 -2.6723
  982MOL0     H35509   2.502   2.281   9.268  1.8631 -1.7327  3.0645
  982MOL0     H35510   2.425   2.005   9.165  2.4525  1.3324 -0.3874
  982MOL0     H35511   2.306   2.121   9.213  1.5314  2.3212 -2.2043
  982MOL0     H35512   2.451   1.918   9.562 -2.2346 -2.6995 -1.1094
  982MOL0     H35513   2.599   2.618   8.792  0.9648  0.1452 -1.3689
  982MOL0     H35514   2.572   2.798   8.628  0.9189 -0.4950 -1.0914
  982MOL0     H35515   2.426   2.811   8.531 -0.8982 -1.4887  0.1071
  982MOL0     H35516   2.417   2.869   8.694  0.4506  0.4644 -0.5691
  983MOL0     O35517   5.997   0.436   9.288 -0.1961  0.2401  0.4807
  983MOL0     C35518   5.897   0.503   9.290  0.3030  0.2671 -0.0178
  983MOL0     O35519   5.774   0.447   9.323 -0.1813  0.2376  0.6412
  983MOL0     C35520   5.755   0.336   9.395  0.6227 -0.4537 -0.6143
  983MOL0     C35521   5.853   0.282   9.485  0.0288  0.8172 -1.1661
  983MOL0     C35522   5.819   0.189   9.579 -0.5822  0.7115 -0.3910
  983MOL0     C35523   5.685   0.147   9.585 -0.6266 -0.1211 -0.5445
  983MOL0     O35524   5.644   0.040   9.669  0.3849  0.4279 -0.4098
  983MOL0     C35525   5.664   0.069   9.805  0.2224  0.3068 -0.9807
  983MOL0     C35526   5.606  -0.037   9.884  0.2522  0.0198 -0.7719
  983MOL0     C35527   5.491  -0.126   9.818 -0.2947  0.0007 -0.0090
  983MOL0     C35528   5.433  -0.241   9.903 -1.3078 -0.5332 -0.1699
  983MOL0     C35529   5.403  -0.200  10.051 -0.8094  0.1610  0.1557
  983MOL0     C35530   5.289  -0.098  10.065  1.1027 -0.3429  0.0455
  983MOL0     C35531   5.236  -0.093  10.210 -0.1650  0.8090  0.1003
  983MOL0     C35532   5.207   0.037  10.265  0.4748  1.1483  0.1644
  983MOL0     N35533   5.069   0.088  10.231  0.4829 -0.6524 -0.0786
  983MOL0     C35534   5.000   0.083  10.109 -0.0978  0.7831  0.3522
  983MOL0     C35535   4.886   0.157  10.137  0.7220 -0.1485  0.0420
  983MOL0     C35536   4.773   0.189  10.037 -0.1674  0.2966 -0.0786
  983MOL0     C35537   4.777   0.338   9.985  0.1915  0.6005  0.4892
  983MOL0     C35538   4.644   0.378   9.908  0.1748 -0.6008  0.3818
  983MOL0     C35539   4.606   0.304   9.788 -0.9412  0.5985 -0.4875
  983MOL0     O35540   4.705   0.310   9.681  0.1748  0.4429  0.0814
  983MOL0     C35541   4.653   0.333   9.557  0.1191 -0.0239  0.2073
  983MOL0     C35542   4.704   0.419   9.462 -0.9008  0.2341  0.7024
  983MOL0     C35543   4.643   0.421   9.331 -0.9777 -0.8835  0.0303
  983MOL0     C35544   4.701   0.520   9.237 -0.6325  0.1212 -0.1890
  983MOL0     C35545   4.536   0.345   9.299  0.3106  0.2574  0.3454
  983MOL0     C35546   4.456   0.350   9.172  0.1673  0.0456 -0.1220
  983MOL0     O35547   4.411   0.226   9.119 -0.3272  0.5393 -0.2002
  983MOL0     C35548   4.374   0.224   8.992  0.1123  0.3410  0.3520
  983MOL0     C35549   4.292   0.118   8.959  0.4136 -0.1785  0.5267
  983MOL0     C35550   4.242   0.104   8.832 -0.0035  0.4108  0.5014
  983MOL0     C35551   4.275   0.188   8.733  0.0144  0.2766  0.4675
  983MOL0     O35552   4.224   0.161   8.609 -0.2835  0.6380 -0.0777
  983MOL0     C35553   4.322   0.148   8.516 -0.1859  0.3082 -0.5597
  983MOL0     C35554   4.249   0.146   8.384  0.1674 -0.0860 -0.2298
  983MOL0     C35555   4.354   0.127   8.271  0.1878 -0.1387  1.1857
  983MOL0     C35556   4.306   0.153   8.128  0.0315 -0.5066 -0.2714
  983MOL0     C35557   4.411   0.150   8.013 -0.3385  0.4771  0.8205
  983MOL0     C35558   4.440   0.004   7.964 -0.0686 -0.1925  0.3880
  983MOL0     C35559   4.510   0.003   7.824  0.5951 -0.3524 -0.6723
  983MOL0     C35560   4.596  -0.124   7.809  0.2934 -0.2915 -0.2044
  983MOL0    Cl35561   4.713  -0.113   7.688 -0.1441 -0.4843  0.0938
  983MOL0     C35562   4.360   0.300   8.763 -0.6392  0.2541  0.0740
  983MOL0     C35563   4.404   0.315   8.898 -0.6336  0.3401  0.6253
  983MOL0     O35564   4.428   0.460   9.135 -0.2359 -1.0425 -0.0308
  983MOL0     C35565   4.497   0.254   9.393  0.5433 -0.5963  0.2494
  983MOL0     C35566   4.551   0.246   9.515  0.5573  1.2467  0.1167
  983MOL0     N35567   4.893   0.202  10.271 -0.3831  0.8541  0.4864
  983MOL0     N35568   5.006   0.173  10.323 -0.0526  0.1161 -0.2617
  983MOL0     C35569   5.583   0.206   9.500 -0.1435 -1.1744 -0.2622
  983MOL0     C35570   5.621   0.297   9.403  0.5292 -0.2958 -0.2405
  983MOL0     C35571   5.913   0.640   9.241 -0.0962 -0.3756  1.0506
  983MOL0     C35572   5.806   0.723   9.271  0.4058  0.2175 -0.0395
  983MOL0     C35573   5.823   0.860   9.262 -0.7362 -0.1113 -0.1525
  983MOL0     C35574   5.939   0.913   9.208  1.1657  0.5907 -0.4711
  983MOL0     O35575   5.952   1.049   9.221 -0.3418 -0.6088  0.1067
  983MOL0     C35576   6.091   1.114   9.212  0.7952  0.8498  0.4346
  983MOL0     C35577   6.187   1.097   9.332  0.9000  0.2313 -0.5434
  983MOL0     C35578   6.108   1.124   9.458 -0.1598 -0.6174 -0.1515
  983MOL0     C35579   6.154   1.062   9.586 -0.4519 -0.4039  0.1582
  983MOL0     C35580   6.193   0.915   9.572  0.9452  0.4315  0.0449
  983MOL0     C35581   6.221   0.805   9.538 -0.1487  0.5272  0.0372
  983MOL0     C35582   6.036   0.832   9.165  0.3368  0.8731 -0.2495
  983MOL0     C35583   6.025   0.688   9.173  0.4050 -0.5676  1.0514
  983MOL0     C35584   6.136   0.605   9.115  0.0184  0.4667 -0.2955
  983MOL0     H35585   5.958   0.307   9.473  0.5933 -1.0455 -0.3784
  983MOL0     H35586   5.897   0.141   9.636 -2.4435 -3.9597 -1.3012
  983MOL0     H35587   5.616   0.163   9.835 -0.4243  0.5606 -2.7178
  983MOL0     H35588   5.772   0.074   9.825 -0.3034 -1.4708  3.4842
  983MOL0     H35589   5.678  -0.116   9.905  0.0222 -0.2170 -0.8664
  983MOL0     H35590   5.564   0.016   9.969  2.7634  0.4102  0.3216
  983MOL0     H35591   5.407  -0.058   9.805  0.7195  1.5673  1.3077
  983MOL0     H35592   5.523  -0.152   9.717  1.4213 -1.2929  0.8180
  983MOL0     H35593   5.340  -0.279   9.859 -2.0440 -0.4842  1.2779
  983MOL0     H35594   5.518  -0.310   9.900 -0.9819 -0.1067 -1.7908
  983MOL0     H35595   5.498  -0.172  10.096 -1.4782  0.9882  1.1065
  983MOL0     H35596   5.361  -0.291  10.097 -2.3024 -2.4599 -5.4281
  983MOL0     H35597   5.309   0.004  10.034 -1.9336 -0.1899 -1.7341
  983MOL0     H35598   5.216  -0.131   9.990  2.8496 -0.5072 -1.6592
  983MOL0     H35599   5.307  -0.137  10.280  0.6547  0.6043 -0.8331
  983MOL0     H35600   5.148  -0.159  10.217 -0.3800  0.9801 -0.7964
  983MOL0     H35601   5.215   0.025  10.373  1.3814 -3.2771 -0.1966
  983MOL0     H35602   5.282   0.106  10.228  1.8258 -0.1612  0.3457
  983MOL0     H35603   5.027   0.033  10.017 -0.6230 -0.6206  0.9422
  983MOL0     H35604   4.674   0.181  10.084  0.6642  2.0506  2.1725
  983MOL0     H35605   4.784   0.127   9.948  0.8318  1.6172 -0.9110
  983MOL0     H35606   4.786   0.407  10.070 -1.1862  2.2172 -0.6156
  983MOL0     H35607   4.868   0.354   9.927 -0.2373  0.7884 -0.1355
  983MOL0     H35608   4.565   0.371   9.983  0.6701 -1.8866  0.8198
  983MOL0     H35609   4.649   0.484   9.882  1.5854 -1.4965 -3.6586
  983MOL0     H35610   4.602   0.196   9.809  0.6523 -0.1967 -3.5160
  983MOL0     H35611   4.518   0.346   9.741  0.5629  0.4152 -3.7426
  983MOL0     H35612   4.792   0.475   9.493 -0.1908 -0.0471 -0.7134
  983MOL0     H35613   4.808   0.514   9.261 -0.7960  1.7092  1.1149
  983MOL0     H35614   4.669   0.623   9.254 -1.4089 -0.0215 -0.7160
  983MOL0     H35615   4.671   0.495   9.135 -2.2794 -1.6906  0.6682
  983MOL0     H35616   4.281   0.048   9.041 -3.0338 -0.0849  0.2656
  983MOL0     H35617   4.186   0.018   8.798 -1.5889  1.1877  1.0655
  983MOL0     H35618   4.379   0.241   8.515  1.7405 -0.6434  2.9661
  983MOL0     H35619   4.379   0.056   8.531 -1.3137 -0.0265  2.2578
  983MOL0     H35620   4.181   0.060   8.380 -1.4009  1.1359 -0.7906
  983MOL0     H35621   4.187   0.235   8.371 -2.2865 -1.9644 -2.4117
  983MOL0     H35622   4.397   0.026   8.276  1.4686  0.3448  0.4564
  983MOL0     H35623   4.429   0.201   8.301 -0.3016  0.1926  1.5966
  983MOL0     H35624   4.267   0.255   8.132  0.7319 -0.2662  2.4355
  983MOL0     H35625   4.233   0.078   8.097  0.6055 -0.7033 -1.2116
  983MOL0     H35626   4.383   0.220   7.934  1.9326 -1.0265 -1.4636
  983MOL0     H35627   4.507   0.184   8.055  1.1347 -1.0674 -1.1096
  983MOL0     H35628   4.359  -0.069   7.955  1.6279 -1.9449 -2.1383
  983MOL0     H35629   4.501  -0.039   8.044  0.2603 -0.3597  0.0546
  983MOL0     H35630   4.571   0.091   7.804 -0.2539  0.2688 -0.5431
  983MOL0     H35631   4.430   0.009   7.749  0.3853  0.7500 -0.3639
  983MOL0     H35632   4.529  -0.202   7.772 -1.4229  0.6994  0.6750
  983MOL0     H35633   4.660  -0.150   7.893  3.5060  2.7472 -1.4907
  983MOL0     H35634   4.399   0.371   8.690  0.7376 -1.0855 -0.5525
  983MOL0     H35635   4.465   0.403   8.917  1.1492 -0.9106  0.8805
  983MOL0     H35636   4.425   0.183   9.356  0.3966 -0.4258  0.2079
  983MOL0     H35637   4.526   0.147   9.552 -1.3008 -0.0526 -3.9681
  983MOL0     H35638   5.480   0.174   9.516 -0.0941 -1.3952 -0.3831
  983MOL0     H35639   5.550   0.344   9.336  2.3913  1.5317 -1.0549
  983MOL0     H35640   5.710   0.696   9.316 -0.5252  0.8006 -1.6159
  983MOL0     H35641   5.759   0.939   9.301 -3.5109 -3.5996  3.2315
  983MOL0     H35642   6.158   1.080   9.133  2.1330  0.0132  1.8826
  983MOL0     H35643   6.063   1.217   9.187 -1.3278  0.1841 -0.1603
  983MOL0     H35644   6.260   1.175   9.309  1.4477 -0.4203 -1.0454
  983MOL0     H35645   6.233   0.998   9.334  0.7852  0.0979  2.9221
  983MOL0     H35646   6.122   1.232   9.470 -0.7665 -0.7522  2.2478
  983MOL0     H35647   6.001   1.100   9.448 -0.1871 -1.5445  1.9428
  983MOL0     H35648   6.078   1.083   9.661 -0.7120 -2.0167  0.3656
  983MOL0     H35649   6.250   1.098   9.624 -0.1057 -0.1807 -0.8785
  983MOL0     H35650   6.272   0.711   9.540 -3.8657 -1.6972 -0.9231
  983MOL0     H35651   6.131   0.868   9.128 -0.2118  3.1424  0.3610
  983MOL0     H35652   6.170   0.662   9.028 -0.1082  4.2255  1.8656
  983MOL0     H35653   6.224   0.590   9.179 -1.7770 -0.9118  1.9881
  983MOL0     H35654   6.100   0.506   9.089  1.4885 -0.3038  0.4686
  984MOL0     O35655   8.749   5.037   5.236  0.0845  0.2622  0.4943
  984MOL0     C35656   8.724   4.991   5.123 -0.0817  0.5212  0.2721
  984MOL0     O35657   8.752   5.063   4.997  0.5167 -0.1927 -0.1600
  984MOL0     C35658   8.811   5.192   4.992 -0.4517  0.2722 -0.3831
  984MOL0     C35659   8.743   5.312   5.009 -0.0478  0.2180 -0.6403
  984MOL0     C35660   8.801   5.431   4.971 -0.3785  0.2356 -0.3615
  984MOL0     C35661   8.944   5.425   4.930 -0.4185 -0.0976  0.1454
  984MOL0     O35662   9.006   5.538   4.890 -0.1307 -0.1331 -0.0960
  984MOL0     C35663   9.145   5.547   4.928 -0.1445  0.3459  0.2424
  984MOL0     C35664   9.203   5.688   4.941 -0.3409 -0.3184  1.1322
  984MOL0     C35665   9.225   5.752   4.806 -1.5699 -0.1566 -0.8517
  984MOL0     C35666   9.377   5.749   4.777  0.2242  0.2430  0.3435
  984MOL0     C35667   9.404   5.764   4.628  0.4331 -0.0228  0.4151
  984MOL0     C35668   9.367   5.908   4.560  0.4540  0.2732  0.9987
  984MOL0     C35669   9.403   5.902   4.412 -0.1276  0.1107 -0.0225
  984MOL0     C35670   9.359   6.040   4.352 -0.2903  0.5990 -0.6710
  984MOL0     N35671   9.372   6.059   4.209  0.8681  0.1945 -0.0821
  984MOL0     C35672   9.442   5.989   4.125 -0.9935  0.3210  0.1601
  984MOL0     C35673   9.413   6.034   4.001 -1.1450  0.2036 -0.7265
  984MOL0     C35674   9.473   5.975   3.880  0.1487  0.5607 -0.4496
  984MOL0     C35675   9.382   5.885   3.787 -0.2405 -0.2752  0.2426
  984MOL0     C35676   9.264   5.948   3.724 -0.1858 -0.2527  0.9955
  984MOL0     C35677   9.290   6.046   3.613  0.4045 -0.6378  0.1861
  984MOL0     O35678   9.160   6.072   3.557 -0.0205  0.3341 -0.4535
  984MOL0     C35679   9.097   6.194   3.587 -0.9893  0.7124 -0.8395
  984MOL0     C35680   9.008   6.268   3.501 -0.6738  0.1691 -0.4758
  984MOL0     C35681   8.962   6.399   3.531 -0.3905 -0.2471  0.1978
  984MOL0     C35682   8.863   6.468   3.455 -0.0903 -0.2170 -0.2939
  984MOL0     C35683   9.009   6.463   3.658 -0.0311 -0.1719 -0.8042
  984MOL0     C35684   8.983   6.608   3.706 -0.2781  0.2077  0.5286
  984MOL0     O35685   8.988   6.710   3.619  0.3876  0.6879 -0.2084
  984MOL0     C35686   8.978   6.837   3.656  0.4542 -0.2472  0.5564
  984MOL0     C35687   8.907   6.893   3.763  0.4935  0.3253  0.4859
  984MOL0     C35688   8.922   7.031   3.792 -0.4178 -0.3271  0.3238
  984MOL0     C35689   9.005   7.112   3.722 -0.0424  0.4919 -0.4256
  984MOL0     O35690   9.019   7.250   3.732 -0.9550  1.0288 -0.0460
  984MOL0     C35691   9.014   7.306   3.864  0.0060 -0.6211 -0.1340
  984MOL0     C35692   9.141   7.376   3.902  0.4248 -0.4050  0.0972
  984MOL0     C35693   9.192   7.483   3.809 -0.7099  0.4617  0.0470
  984MOL0     C35694   9.134   7.616   3.844 -0.7971  1.1531 -0.6370
  984MOL0     C35695   9.219   7.740   3.807  0.2790  0.3061 -0.8820
  984MOL0     C35696   9.359   7.752   3.878 -0.2768 -0.2538  1.1069
  984MOL0     C35697   9.400   7.899   3.858  0.5636 -0.6926  0.2635
  984MOL0     C35698   9.541   7.933   3.909  0.0992  0.2334  0.1544
  984MOL0    Cl35699   9.526   7.950   4.090  0.2656  0.3738  0.2295
  984MOL0     C35700   9.067   7.047   3.609 -0.6750  0.0629 -1.0644
  984MOL0     C35701   9.067   6.915   3.581  0.0037  0.3889 -0.3298
  984MOL0     O35702   8.931   6.615   3.812  0.3173  0.5441 -0.2164
  984MOL0     C35703   9.086   6.382   3.741  0.5932 -0.3303  0.5274
  984MOL0     C35704   9.126   6.251   3.708 -0.1954  0.2098 -0.6927
  984MOL0     N35705   9.308   6.120   4.006  1.8281 -0.5155 -0.2345
  984MOL0     N35706   9.283   6.136   4.132 -0.7551  0.1673 -0.3899
  984MOL0     C35707   9.006   5.304   4.910 -0.9684  0.3672  0.0032
  984MOL0     C35708   8.941   5.188   4.934  0.5827  0.0832  0.1035
  984MOL0     C35709   8.665   4.858   5.122  1.2658 -0.2956  0.2066
  984MOL0     C35710   8.567   4.827   5.216 -0.0744 -0.8080  0.5794
  984MOL0     C35711   8.508   4.698   5.210 -0.0335 -0.0497  0.2664
  984MOL0     C35712   8.559   4.598   5.127  0.2503 -0.4596 -0.7705
  984MOL0     O35713   8.537   4.462   5.136 -0.8826 -0.5849  0.6894
  984MOL0     C35714   8.448   4.418   5.234  0.6241  0.8363 -0.0851
  984MOL0     C35715   8.467   4.268   5.267  0.5220 -0.0357  0.3802
  984MOL0     C35716   8.594   4.202   5.319 -1.0169  0.4852  0.5605
  984MOL0     C35717   8.627   4.248   5.460 -0.0725 -0.1878 -1.0921
  984MOL0     C35718   8.519   4.219   5.561 -1.1500 -0.0078 -0.1190
  984MOL0     C35719   8.431   4.216   5.644  0.3392 -0.2873 -0.1083
  984MOL0     C35720   8.665   4.633   5.044  1.0588  0.6170 -0.2612
  984MOL0     C35721   8.716   4.760   5.036  0.0876  0.4395  0.0204
  984MOL0     C35722   8.806   4.787   4.918  0.0607  1.1836 -0.0732
  984MOL0     H35723   8.640   5.319   5.043  0.7949  2.5205  1.7788
  984MOL0     H35724   8.754   5.529   4.974  2.5127  1.7704 -1.3317
  984MOL0     H35725   9.207   5.488   4.859 -1.2065  2.1427 -2.4106
  984MOL0     H35726   9.154   5.497   5.025  0.1288  0.7823  0.4462
  984MOL0     H35727   9.132   5.744   5.003 -0.8006  1.3978 -0.8254
  984MOL0     H35728   9.299   5.700   4.992 -1.0057 -2.4667  3.0338
  984MOL0     H35729   9.172   5.702   4.724  0.5452 -3.1142 -0.5785
  984MOL0     H35730   9.197   5.857   4.808  1.4353  0.8525  3.8309
  984MOL0     H35731   9.410   5.840   4.827 -0.4435  0.8195 -0.2473
  984MOL0     H35732   9.427   5.662   4.820 -1.8373 -1.3980 -0.3374
  984MOL0     H35733   9.342   5.691   4.576 -2.4081  1.4541  1.5495
  984MOL0     H35734   9.509   5.735   4.611  0.0716 -0.9552 -0.3021
  984MOL0     H35735   9.260   5.931   4.561 -0.0264 -1.1970 -2.2974
  984MOL0     H35736   9.428   5.987   4.603  1.1723 -1.1040  2.6215
  984MOL0     H35737   9.349   5.818   4.366 -0.4541 -1.7573  3.3673
  984MOL0     H35738   9.510   5.882   4.402 -0.0675 -0.3812  1.3888
  984MOL0     H35739   9.260   6.079   4.379 -0.7392 -0.4390 -0.7993
  984MOL0     H35740   9.414   6.117   4.407 -1.1881 -0.1447  1.3700
  984MOL0     H35741   9.509   5.907   4.149 -3.5244 -2.0110 -0.3625
  984MOL0     H35742   9.559   5.923   3.924 -0.6843  0.8134  1.5866
  984MOL0     H35743   9.502   6.062   3.820  0.5430 -0.3815 -1.6791
  984MOL0     H35744   9.450   5.838   3.715  3.0143  2.4426  1.2608
  984MOL0     H35745   9.349   5.808   3.858 -0.3157 -0.4626  0.0028
  984MOL0     H35746   9.193   5.871   3.691 -1.3843  0.2285  2.3595
  984MOL0     H35747   9.205   5.990   3.806  1.8388  1.1958  1.8017
  984MOL0     H35748   9.338   6.135   3.655 -1.4358  0.8236 -0.6774
  984MOL0     H35749   9.346   6.001   3.530  0.1477 -1.2147  0.3223
  984MOL0     H35750   8.960   6.225   3.413 -1.1674 -0.1763 -0.0450
  984MOL0     H35751   8.786   6.502   3.525 -1.3046 -0.5911 -1.3932
  984MOL0     H35752   8.815   6.415   3.372 -4.3787  2.3641  0.1887
  984MOL0     H35753   8.915   6.556   3.417  1.7685 -1.9349 -1.9751
  984MOL0     H35754   8.828   6.835   3.810 -0.9222 -1.3884 -3.5589
  984MOL0     H35755   8.861   7.062   3.877  2.0304 -1.6627  2.7172
  984MOL0     H35756   8.926   7.371   3.864  0.1264 -0.3352  2.5869
  984MOL0     H35757   9.004   7.238   3.950 -0.1647  1.8123  1.8883
  984MOL0     H35758   9.146   7.409   4.006  1.0968  0.3442 -0.1580
  984MOL0     H35759   9.221   7.305   3.882  2.1082  1.7150 -1.2621
  984MOL0     H35760   9.176   7.464   3.702 -1.3844  1.3086 -0.0136
  984MOL0     H35761   9.300   7.492   3.826  0.3702 -4.8399 -2.1430
  984MOL0     H35762   9.115   7.612   3.951  1.4858 -0.9763 -0.2359
  984MOL0     H35763   9.033   7.633   3.804  0.3619  2.4623 -3.2594
  984MOL0     H35764   9.219   7.749   3.698 -1.0209  0.5108 -0.8842
  984MOL0     H35765   9.164   7.830   3.837  3.5874  2.4521 -0.7231
  984MOL0     H35766   9.433   7.696   3.820  2.6302  4.6762 -0.6500
  984MOL0     H35767   9.353   7.708   3.977  0.7003 -0.1258  1.2344
  984MOL0     H35768   9.335   7.965   3.915 -0.3530 -0.3291 -1.1524
  984MOL0     H35769   9.391   7.923   3.752 -1.3233  0.3528  0.6240
  984MOL0     H35770   9.586   8.019   3.858  0.8014 -1.4738 -2.3164
  984MOL0     H35771   9.608   7.851   3.883 -0.9702 -0.8045  0.5591
  984MOL0     H35772   9.128   7.116   3.551 -0.0678  1.6464  1.3258
  984MOL0     H35773   9.103   6.889   3.482 -1.8000  3.3347 -1.8733
  984MOL0     H35774   9.101   6.430   3.837  1.6556  1.4746 -0.4847
  984MOL0     H35775   9.188   6.206   3.786 -1.3012  1.9029  1.2730
  984MOL0     H35776   9.109   5.293   4.878 -1.1030 -4.0733  0.3891
  984MOL0     H35777   8.995   5.099   4.901  0.0438  0.3313 -1.5331
  984MOL0     H35778   8.552   4.899   5.296  0.3035 -2.4218  2.1714
  984MOL0     H35779   8.448   4.682   5.299 -3.8537  1.5946 -1.8030
  984MOL0     H35780   8.448   4.475   5.328  0.7546  3.1036 -1.3872
  984MOL0     H35781   8.349   4.432   5.190  1.1572  2.0259 -0.9413
  984MOL0     H35782   8.452   4.207   5.177  0.7187 -1.2007  1.1064
  984MOL0     H35783   8.387   4.238   5.336 -1.7356 -1.7300 -2.6909
  984MOL0     H35784   8.599   4.092   5.314 -0.7766  0.3960  2.3046
  984MOL0     H35785   8.676   4.232   5.254 -0.6167 -1.3464  0.1573
  984MOL0     H35786   8.655   4.354   5.450  2.3746 -0.6328  0.2517
  984MOL0     H35787   8.714   4.189   5.490  0.8594  1.7061  0.1434
  984MOL0     H35788   8.360   4.208   5.725  1.3538 -0.4262  0.7889
  984MOL0     H35789   8.704   4.558   4.976  0.5428 -0.0289  0.1384
  984MOL0     H35790   8.764   4.866   4.855  0.8987  0.3211 -1.7757
  984MOL0     H35791   8.901   4.828   4.952  1.0363 -0.1842 -1.0319
  984MOL0     H35792   8.844   4.699   4.866 -1.1349  2.1392 -2.7425
  985MOL0     O35793   0.011  11.224   3.699  0.4314 -0.4342  0.6669
  985MOL0     C35794  -0.017  11.107   3.684  0.6890 -0.0975  0.9243
  985MOL0     O35795   0.039  11.027   3.581 -0.3906  0.1255 -0.6905
  985MOL0     C35796   0.125  11.065   3.482  0.1610 -0.1424 -0.7813
  985MOL0     C35797   0.180  10.959   3.412  0.1827 -0.1652  0.2876
  985MOL0     C35798   0.274  10.969   3.300  1.1298 -1.1168 -0.8010
  985MOL0     C35799   0.308  11.098   3.268 -1.2516  0.4119  0.3245
  985MOL0     O35800   0.362  11.126   3.150 -0.7019 -0.8287  0.7886
  985MOL0     C35801   0.507  11.106   3.147  0.2068 -0.1089  0.0018
  985MOL0     C35802   0.568  11.168   3.017 -0.1539 -0.6020 -0.4933
  985MOL0     C35803   0.575  11.320   3.023 -0.9351  0.6653  0.1275
  985MOL0     C35804   0.583  11.389   2.879  0.2599  0.0917  0.1998
  985MOL0     C35805   0.609  11.533   2.891  0.0022 -0.9227  0.7958
  985MOL0     C35806   0.741  11.582   2.931 -0.3708 -0.5142 -1.1188
  985MOL0     C35807   0.766  11.728   2.914  0.3181  0.4639  1.6496
  985MOL0     C35808   0.915  11.773   2.947  0.0766  0.1287 -0.0079
  985MOL0     N35809   0.941  11.761   3.093  0.0386  0.1277  0.4792
  985MOL0     C35810   0.941  11.872   3.171 -0.0459  1.0036  0.1002
  985MOL0     C35811   0.968  11.819   3.295  0.1858 -0.0144 -0.9422
  985MOL0     C35812   0.967  11.901   3.421 -1.4353 -0.1279 -0.6015
  985MOL0     C35813   0.888  11.837   3.539  0.2258 -0.8143 -0.0180
  985MOL0     C35814   0.956  11.881   3.675  1.2612  0.2378  0.1449
  985MOL0     C35815   0.849  11.931   3.781  0.3256 -0.2954 -0.6484
  985MOL0     O35816   0.715  11.867   3.788  0.0482  0.0949  0.3866
  985MOL0     C35817   0.710  11.733   3.814  0.2767  0.1512 -0.7916
  985MOL0     C35818   0.811  11.674   3.887  0.2347 -0.4670 -0.6232
  985MOL0     C35819   0.821  11.531   3.924 -1.0917 -0.3733  0.0864
  985MOL0     C35820   0.925  11.484   4.026 -0.5444 -0.1662 -0.0252
  985MOL0     C35821   0.713  11.451   3.874 -0.6553  0.0770 -0.2104
  985MOL0     C35822   0.683  11.295   3.884  0.0813 -1.0565 -1.0133
  985MOL0     O35823   0.562  11.252   3.834 -0.0667  0.1148 -0.7369
  985MOL0     C35824   0.500  11.138   3.863 -0.1829 -1.0171 -0.4301
  985MOL0     C35825   0.364  11.156   3.880 -0.3946 -0.2863 -0.2284
  985MOL0     C35826   0.277  11.046   3.892 -1.1598  1.0473 -0.1778
  985MOL0     C35827   0.333  10.912   3.896 -0.0217 -0.1754 -0.4886
  985MOL0     O35828   0.260  10.795   3.914  0.6603 -0.0171  0.0143
  985MOL0     C35829   0.144  10.780   3.829 -0.4799 -0.3014  0.3371
  985MOL0     C35830   0.176  10.701   3.705  0.6331  0.0850  1.0535
  985MOL0     C35831   0.318  10.719   3.634 -0.0002  0.1028  0.3278
  985MOL0     C35832   0.328  10.656   3.492  0.5130 -0.1544 -0.1808
  985MOL0     C35833   0.463  10.671   3.429  0.2722 -0.8020  0.0139
  985MOL0     C35834   0.470  10.605   3.297  0.4159  0.1471 -0.2550
  985MOL0     C35835   0.603  10.647   3.235  0.4535 -0.3458  0.4483
  985MOL0     C35836   0.621  10.597   3.090  0.6986 -0.6755 -0.3439
  985MOL0    Cl35837   0.768  10.635   3.024  0.1765  0.3156  0.1738
  985MOL0     C35838   0.480  10.903   3.906 -0.1816 -0.7089  0.0987
  985MOL0     C35839   0.555  11.018   3.890 -0.5709  0.1658 -0.7463
  985MOL0     O35840   0.769  11.230   3.942 -0.0421  0.5749  0.7523
  985MOL0     C35841   0.606  11.518   3.809  0.1394 -0.3100  0.0363
  985MOL0     C35842   0.606  11.651   3.775  0.5205 -0.1868 -1.2255
  985MOL0     N35843   0.994  11.686   3.288  0.2785 -0.6556  0.1838
  985MOL0     N35844   0.958  11.648   3.164 -0.0620  0.0715 -1.2133
  985MOL0     C35845   0.271  11.204   3.345 -0.2310  0.1453 -0.2261
  985MOL0     C35846   0.176  11.194   3.455 -1.2734 -0.0546 -0.3724
  985MOL0     C35847  -0.127  11.054   3.771 -1.4355  1.1824 -0.1294
  985MOL0     C35848  -0.177  10.928   3.722  0.1212 -0.1617  0.3196
  985MOL0     C35849  -0.273  10.862   3.797 -0.7460  0.7328  1.0561
  985MOL0     C35850  -0.317  10.911   3.914 -0.3015  0.1785 -0.5938
  985MOL0     O35851  -0.420  10.851   3.990 -0.4461  0.1769  0.3106
  985MOL0     C35852  -0.539  10.924   3.983  0.0342 -0.2392 -0.1842
  985MOL0     C35853  -0.664  10.828   3.991 -0.5960 -0.0318 -0.0440
  985MOL0     C35854  -0.646  10.740   3.878 -0.0171 -0.2811  0.1441
  985MOL0     C35855  -0.763  10.651   3.873 -0.2176  0.5482  0.1928
  985MOL0     C35856  -0.757  10.536   3.971  0.4327  0.3508 -0.6324
  985MOL0     C35857  -0.763  10.439   4.042  0.0258  0.3990  0.2427
  985MOL0     C35858  -0.269  11.032   3.958  0.1123 -0.4844 -0.5558
  985MOL0     C35859  -0.181  11.101   3.888  0.6853 -0.1149  0.6756
  985MOL0     C35860  -0.136  11.230   3.940  0.5528 -0.1159 -0.1039
  985MOL0     H35861   0.126  10.866   3.428  1.9589 -1.9633 -3.0792
  985MOL0     H35862   0.309  10.893   3.230  1.2456 -2.0604  0.2449
  985MOL0     H35863   0.542  11.003   3.148  2.3050  0.4469  3.9897
  985MOL0     H35864   0.560  11.149   3.232 -0.3425 -2.5564  1.6755
  985MOL0     H35865   0.670  11.128   3.009 -0.4694 -1.5638  0.0641
  985MOL0     H35866   0.515  11.129   2.930 -1.6917 -0.7073  0.4541
  985MOL0     H35867   0.483  11.354   3.072  0.0893  1.8250  1.3015
  985MOL0     H35868   0.661  11.352   3.082  0.7529 -0.6373 -1.5062
  985MOL0     H35869   0.664  11.343   2.821 -0.3055 -1.1510  0.3561
  985MOL0     H35870   0.493  11.375   2.818  1.8105  1.8335 -2.7664
  985MOL0     H35871   0.532  11.587   2.947  0.8819  3.7366 -1.9147
  985MOL0     H35872   0.598  11.565   2.787 -0.6322  0.3250  1.2303
  985MOL0     H35873   0.756  11.562   3.038  5.9159  2.7569 -0.8998
  985MOL0     H35874   0.823  11.527   2.883  1.8487 -1.1035  2.8621
  985MOL0     H35875   0.689  11.780   2.972 -2.0224  0.4899 -1.2733
  985MOL0     H35876   0.732  11.754   2.813  0.1012  0.9116  1.8351
  985MOL0     H35877   0.976  11.699   2.894 -1.2762 -1.7017  0.8736
  985MOL0     H35878   0.930  11.875   2.910  1.3742 -0.7990 -2.2738
  985MOL0     H35879   0.922  11.974   3.142 -0.9962  0.9084  0.3625
  985MOL0     H35880   0.931  12.003   3.407  0.0660  0.5669  0.2820
  985MOL0     H35881   1.073  11.915   3.447 -2.0824  0.3892  2.0719
  985MOL0     H35882   0.781  11.856   3.528  0.4310 -0.4850 -1.6893
  985MOL0     H35883   0.906  11.729   3.537 -3.7023 -1.6287 -0.3572
  985MOL0     H35884   1.006  11.801   3.730  2.2179  0.5180 -0.2889
  985MOL0     H35885   1.037  11.952   3.660  3.7183 -1.9025  2.2445
  985MOL0     H35886   0.892  11.926   3.882 -2.7256 -1.2858  0.7018
  985MOL0     H35887   0.828  12.035   3.755  0.5785 -0.2261 -0.5859
  985MOL0     H35888   0.901  11.716   3.930  0.9526 -2.8654  0.4154
  985MOL0     H35889   0.999  11.564   4.038 -1.4121  0.9468 -1.6967
  985MOL0     H35890   0.966  11.391   3.985 -2.9815 -0.8606 -1.0557
  985MOL0     H35891   0.867  11.469   4.117 -2.0617  1.1391 -0.7270
  985MOL0     H35892   0.311  11.250   3.868  4.0343  2.2659 -1.8985
  985MOL0     H35893   0.173  11.074   3.905 -1.4883 -0.8124  1.6482
  985MOL0     H35894   0.064  10.732   3.886  0.7697  0.0921  2.5326
  985MOL0     H35895   0.105  10.876   3.794 -0.2331 -0.6842 -1.0445
  985MOL0     H35896   0.169  10.598   3.741 -1.7067  0.4855  1.9360
  985MOL0     H35897   0.099  10.718   3.629  1.4142  1.7177  0.5811
  985MOL0     H35898   0.398  10.677   3.695  0.6720  1.0868  0.1443
  985MOL0     H35899   0.341  10.824   3.613  0.8033 -0.0663  0.3332
  985MOL0     H35900   0.243  10.694   3.435 -1.2067  0.5173  2.6264
  985MOL0     H35901   0.316  10.547   3.497  1.3742 -0.2107  2.6656
  985MOL0     H35902   0.480  10.779   3.430  1.2156 -0.9477  0.1837
  985MOL0     H35903   0.538  10.639   3.502 -2.2160  0.4279  3.3834
  985MOL0     H35904   0.388  10.640   3.234 -2.3806 -0.4969  2.7595
  985MOL0     H35905   0.455  10.498   3.313  1.4898  0.4352  3.7537
  985MOL0     H35906   0.684  10.623   3.304  2.0363  4.0126  0.3879
  985MOL0     H35907   0.611  10.755   3.224  1.7511 -0.3150  1.4635
  985MOL0     H35908   0.546  10.633   3.019  0.2611 -0.7706  0.0620
  985MOL0     H35909   0.620  10.487   3.089 -2.7356 -0.7617 -0.9668
  985MOL0     H35910   0.520  10.805   3.932  0.8733  0.1792  2.0403
  985MOL0     H35911   0.663  11.010   3.905 -0.7629  0.0093  0.7336
  985MOL0     H35912   0.513  11.469   3.781 -1.4249  1.5935  1.5707
  985MOL0     H35913   0.521  11.698   3.725  1.1419  3.0802  0.5493
  985MOL0     H35914   0.305  11.300   3.307 -1.9080  0.0541 -2.1395
  985MOL0     H35915   0.141  11.281   3.510  0.2489  0.2971  0.0939
  985MOL0     H35916  -0.147  10.879   3.630  1.4324  1.4952 -0.1988
  985MOL0     H35917  -0.311  10.763   3.769  0.3920  0.7855 -0.8758
  985MOL0     H35918  -0.547  10.993   4.068  1.3718  1.6910 -1.5512
  985MOL0     H35919  -0.549  10.980   3.890 -0.4789  0.4489  0.2717
  985MOL0     H35920  -0.759  10.882   3.983 -1.0233 -0.7253  0.2757
  985MOL0     H35921  -0.661  10.782   4.090 -1.7028  0.7816  0.3937
  985MOL0     H35922  -0.625  10.801   3.790 -0.1173  0.5654  0.6959
  985MOL0     H35923  -0.556  10.680   3.898 -0.4535 -2.0390 -2.6017
  985MOL0     H35924  -0.784  10.619   3.770  1.2180  1.4491 -0.4035
  985MOL0     H35925  -0.852  10.710   3.895 -0.7685  0.8821 -2.5323
  985MOL0     H35926  -0.748  10.362   4.116  2.3032  1.3675  0.8955
  985MOL0     H35927  -0.306  11.074   4.051 -0.9028  4.3943 -2.8776
  985MOL0     H35928  -0.193  11.309   3.891 -0.7145  0.4524  2.1306
  985MOL0     H35929  -0.157  11.235   4.048 -2.1693 -1.9562 -0.4428
  985MOL0     H35930  -0.028  11.246   3.935  0.5609  1.1378  2.2180
  986MOL0     O35931   0.190   0.617   8.327  0.1170 -0.1294 -1.5204
  986MOL0     C35932   0.263   0.633   8.233 -0.5061  0.4167  1.1101
  986MOL0     O35933   0.238   0.565   8.106 -0.2650  0.4668 -0.4346
  986MOL0     C35934   0.137   0.474   8.106  0.4575 -0.5843 -0.4450
  986MOL0     C35935   0.027   0.487   8.013 -0.5482  0.2944 -0.7305
  986MOL0     C35936  -0.077   0.388   8.003 -0.9463 -0.7121 -0.1867
  986MOL0     C35937  -0.077   0.279   8.084 -0.5139 -0.2237 -0.5434
  986MOL0     O35938  -0.178   0.199   8.111 -0.2643 -0.5861 -0.5064
  986MOL0     C35939  -0.313   0.234   8.091  1.3824  0.1287 -0.8643
  986MOL0     C35940  -0.404   0.116   8.115  0.1506  0.7924 -1.0301
  986MOL0     C35941  -0.418   0.090   8.273 -0.5795 -0.1482  1.4171
  986MOL0     C35942  -0.478  -0.042   8.300 -0.5865  0.0512 -0.5279
  986MOL0     C35943  -0.471  -0.071   8.454 -0.0267  0.7647  0.9095
  986MOL0     C35944  -0.355  -0.161   8.507  0.3599  0.0828  0.5144
  986MOL0     C35945  -0.367  -0.197   8.655 -0.0032  0.3680  1.1437
  986MOL0     C35946  -0.238  -0.191   8.745  0.1123  1.0396 -1.3267
  986MOL0     N35947  -0.191  -0.063   8.761 -0.3936  0.1446 -0.3045
  986MOL0     C35948  -0.094   0.002   8.687  0.1401  0.3086  0.0350
  986MOL0     C35949  -0.066   0.128   8.741  0.3612  0.7025 -0.3633
  986MOL0     C35950   0.020   0.226   8.666  0.3917  0.6597 -0.0608
  986MOL0     C35951   0.156   0.233   8.742  0.0219  0.8563 -0.8078
  986MOL0     C35952   0.274   0.202   8.651  0.5448 -0.9160 -0.1726
  986MOL0     C35953   0.380   0.308   8.697 -0.2239  0.4934  0.2496
  986MOL0     O35954   0.417   0.279   8.830 -0.2942  0.3324  0.2740
  986MOL0     C35955   0.509   0.370   8.878  0.1884  0.7553  0.6101
  986MOL0     C35956   0.566   0.480   8.816  0.3283 -0.7317 -0.3579
  986MOL0     C35957   0.661   0.568   8.875 -0.2156 -0.4590 -0.0910
  986MOL0     C35958   0.699   0.689   8.807 -0.3438  0.2673 -0.8850
  986MOL0     C35959   0.720   0.523   8.996  0.7541  0.3645 -0.7379
  986MOL0     C35960   0.816   0.590   9.076 -0.0037 -0.2690 -0.4406
  986MOL0     O35961   0.906   0.502   9.144  0.3700  0.5462  0.4598
  986MOL0     C35962   0.990   0.556   9.231 -0.3145 -0.3458  0.2191
  986MOL0     C35963   1.127   0.602   9.198  0.8738 -0.5002  0.1599
  986MOL0     C35964   1.202   0.644   9.307  0.7148 -0.0389  0.2226
  986MOL0     C35965   1.148   0.644   9.443 -0.4192  0.0476  0.5570
  986MOL0     O35966   1.237   0.688   9.537 -0.2816  0.8859 -0.7942
  986MOL0     C35967   1.190   0.689   9.669  0.5451 -0.0259 -0.1905
  986MOL0     C35968   1.302   0.733   9.761 -0.8850  0.9908 -0.5839
  986MOL0     C35969   1.341   0.880   9.741 -0.2825  1.1352  0.0809
  986MOL0     C35970   1.393   0.940   9.869  1.0451 -0.6944 -0.6291
  986MOL0     C35971   1.385   1.097   9.883  0.6338  0.3026 -0.5843
  986MOL0     C35972   1.523   1.166   9.926 -0.0686  0.0360  0.6901
  986MOL0     C35973   1.593   1.101  10.048  1.0161 -0.4256  0.0167
  986MOL0     C35974   1.544   1.167  10.176 -0.1860 -0.6614 -0.6872
  986MOL0    Cl35975   1.689   1.144  10.282 -0.2671 -0.3402  0.0940
  986MOL0     C35976   1.021   0.604   9.461  0.0219  0.5942 -1.5024
  986MOL0     C35977   0.945   0.557   9.361 -0.1484  0.5192  0.6752
  986MOL0     O35978   0.812   0.715   9.092  0.2766  0.6761 -0.2430
  986MOL0     C35979   0.666   0.411   9.060 -0.0841 -0.0636  0.4008
  986MOL0     C35980   0.554   0.341   9.002 -0.2486 -0.1176 -0.5851
  986MOL0     N35981  -0.156   0.129   8.856  0.1307  0.1130  0.6979
  986MOL0     N35982  -0.216   0.015   8.867  0.2647  0.0710  0.5987
  986MOL0     C35983   0.029   0.256   8.172  1.1780 -1.1139  0.1182
  986MOL0     C35984   0.127   0.361   8.194  0.0955  0.7460  0.1874
  986MOL0     C35985   0.364   0.743   8.256  0.8938 -0.1517 -0.3559
  986MOL0     C35986   0.380   0.832   8.155  1.2991  0.6217 -0.1324
  986MOL0     C35987   0.459   0.940   8.174 -0.5411 -1.0804 -0.8633
  986MOL0     C35988   0.549   0.951   8.281 -0.2175  0.1150  0.7692
  986MOL0     O35989   0.645   1.050   8.287  0.5571 -0.0742 -0.2920
  986MOL0     C35990   0.747   1.049   8.386  0.4669  0.7118  0.5992
  986MOL0     C35991   0.813   1.186   8.361  0.0800  0.0396 -0.7040
  986MOL0     C35992   0.888   1.226   8.495  0.9763 -0.6796 -0.0878
  986MOL0     C35993   1.016   1.136   8.519 -0.3988  0.3069 -0.1303
  986MOL0     C35994   1.123   1.176   8.419 -0.3768 -0.3346 -0.1803
  986MOL0     C35995   1.192   1.199   8.315 -0.5742  0.0449 -0.1498
  986MOL0     C35996   0.549   0.843   8.361 -0.1416 -0.2733 -0.2584
  986MOL0     C35997   0.449   0.737   8.356 -0.6916  0.1867 -0.0877
  986MOL0     C35998   0.457   0.637   8.462  0.4194 -0.0236 -0.4959
  986MOL0     H35999   0.028   0.572   7.945 -0.6013  0.1197 -0.9501
  986MOL0     H36000  -0.158   0.414   7.936 -0.8738  0.0693  0.0130
  986MOL0     H36001  -0.331   0.247   7.984 -0.2177 -3.0735 -1.0991
  986MOL0     H36002  -0.340   0.321   8.153 -2.2351  0.3041 -2.4058
  986MOL0     H36003  -0.503   0.131   8.070  0.3931 -0.9824 -2.2315
  986MOL0     H36004  -0.359   0.026   8.074  0.4087  1.5342 -2.4534
  986MOL0     H36005  -0.311   0.094   8.299  0.1153  0.1025 -1.1462
  986MOL0     H36006  -0.474   0.161   8.334 -0.2188 -1.7320  3.7303
  986MOL0     H36007  -0.584  -0.026   8.277  0.0454  1.4312 -2.9015
  986MOL0     H36008  -0.427  -0.120   8.242  0.3911 -0.7298  1.3096
  986MOL0     H36009  -0.572  -0.108   8.475  0.1760 -0.8406 -0.6584
  986MOL0     H36010  -0.474   0.025   8.506  1.8430  1.1275  0.4070
  986MOL0     H36011  -0.366  -0.254   8.452 -5.6112  0.8225 -0.1867
  986MOL0     H36012  -0.263  -0.107   8.486 -0.2788  1.1325  0.3297
  986MOL0     H36013  -0.412  -0.296   8.668 -0.9213  0.8538  1.8626
  986MOL0     H36014  -0.446  -0.134   8.698 -0.4696 -0.2712  1.2414
  986MOL0     H36015  -0.262  -0.222   8.847 -1.4174  2.7821 -1.1058
  986MOL0     H36016  -0.162  -0.257   8.701  0.3373  1.1644 -1.1263
  986MOL0     H36017  -0.052  -0.035   8.594 -0.1416 -2.7696  1.0085
  986MOL0     H36018  -0.031   0.323   8.660 -0.9357 -0.0037  0.1325
  986MOL0     H36019   0.035   0.188   8.564  0.3862  0.6007 -0.0397
  986MOL0     H36020   0.158   0.334   8.784  0.3167 -0.0219  1.4255
  986MOL0     H36021   0.154   0.164   8.827  0.8076  1.6457 -0.1357
  986MOL0     H36022   0.294   0.098   8.677 -3.7737 -1.1854  3.2031
  986MOL0     H36023   0.245   0.218   8.547 -0.6701  2.6270  0.5605
  986MOL0     H36024   0.469   0.285   8.638 -1.4312 -2.1178 -0.6918
  986MOL0     H36025   0.348   0.411   8.677 -1.1743  0.2717  0.5347
  986MOL0     H36026   0.522   0.512   8.722  0.2979 -4.0603 -1.6006
  986MOL0     H36027   0.695   0.778   8.872  0.0654  0.7011 -1.4458
  986MOL0     H36028   0.639   0.712   8.719  0.5061 -2.3372 -2.2258
  986MOL0     H36029   0.804   0.685   8.777  0.7733 -3.6301  2.6106
  986MOL0     H36030   1.168   0.594   9.098  2.7949 -0.9805  0.9478
  986MOL0     H36031   1.301   0.681   9.282  0.5050  0.3074 -0.1028
  986MOL0     H36032   1.105   0.757   9.679 -0.9789 -1.8062 -0.3904
  986MOL0     H36033   1.151   0.590   9.696 -0.1273  0.8315  2.2827
  986MOL0     H36034   1.267   0.713   9.863  2.7501 -1.1819  0.4032
  986MOL0     H36035   1.392   0.672   9.746 -0.3279 -0.0808  4.8189
  986MOL0     H36036   1.251   0.936   9.715 -1.3373  0.2397  1.6807
  986MOL0     H36037   1.414   0.889   9.659  0.1216 -2.8593 -0.1559
  986MOL0     H36038   1.495   0.900   9.878  0.9155 -0.7872  0.7323
  986MOL0     H36039   1.328   0.906   9.951  1.6037  1.0648  0.6066
  986MOL0     H36040   1.337   1.145   9.798 -0.8667  1.5677  0.9175
  986MOL0     H36041   1.322   1.120   9.969  0.0232  3.1994 -1.6992
  986MOL0     H36042   1.505   1.272   9.946  2.4760  0.7520 -0.4198
  986MOL0     H36043   1.589   1.154   9.839 -1.3596  1.6698 -0.5743
  986MOL0     H36044   1.699   1.117  10.028  1.0055  3.9094  2.2788
  986MOL0     H36045   1.581   0.992  10.050  1.6114 -0.4876  0.4076
  986MOL0     H36046   1.454   1.113  10.210 -0.4941  0.1301 -0.2047
  986MOL0     H36047   1.527   1.275  10.177  2.7821 -0.1005 -1.4758
  986MOL0     H36048   0.984   0.597   9.563  2.1793  1.9105 -0.5659
  986MOL0     H36049   0.852   0.512   9.394 -0.5678  0.6693 -0.2632
  986MOL0     H36050   0.706   0.378   9.155  2.2479 -3.9379 -1.6625
  986MOL0     H36051   0.514   0.250   9.046  0.5208 -0.9104 -1.4913
  986MOL0     H36052   0.033   0.164   8.228  1.6505 -1.6138 -0.7200
  986MOL0     H36053   0.215   0.347   8.257  1.5464 -0.4122 -1.9658
  986MOL0     H36054   0.326   0.811   8.063 -0.9779 -0.6906  1.4064
  986MOL0     H36055   0.460   1.025   8.107  1.2073 -0.7551 -0.4635
  986MOL0     H36056   0.709   1.045   8.489  3.6199  1.5924  1.9160
  986MOL0     H36057   0.818   0.973   8.353  2.2067  2.9516 -1.1797
  986MOL0     H36058   0.741   1.266   8.340 -3.8454 -3.0183 -0.0570
  986MOL0     H36059   0.883   1.178   8.277 -0.7831 -1.4750 -1.3123
  986MOL0     H36060   0.901   1.334   8.491 -4.2100  0.2270 -0.2347
  986MOL0     H36061   0.823   1.219   8.583 -1.0004  2.6801 -1.0820
  986MOL0     H36062   0.992   1.029   8.512  2.6204 -0.6401  1.8298
  986MOL0     H36063   1.041   1.162   8.623 -2.8526 -2.6198  1.3602
  986MOL0     H36064   1.242   1.220   8.222 -1.0463 -1.6104 -0.8285
  986MOL0     H36065   0.621   0.841   8.442  0.7704  1.1694 -1.0061
  986MOL0     H36066   0.413   0.683   8.551 -0.1608 -4.3293  1.7079
  986MOL0     H36067   0.399   0.545   8.451  1.4498 -0.9692  1.4553
  986MOL0     H36068   0.560   0.616   8.491  1.4435 -2.2443 -4.9039
  987MOL0     O36069   5.332   1.523   0.155  0.5528 -0.2532  0.2404
  987MOL0     C36070   5.338   1.578   0.260 -0.5073  0.6584 -0.1034
  987MOL0     O36071   5.234   1.576   0.360 -0.0122 -0.2220  0.0642
  987MOL0     C36072   5.123   1.511   0.323  0.5948  0.0965 -0.2621
  987MOL0     C36073   5.129   1.378   0.301 -1.7913 -0.3422 -0.0952
  987MOL0     C36074   5.014   1.310   0.256  0.7415 -0.3717  0.3881
  987MOL0     C36075   4.904   1.383   0.222 -0.2746  0.6224 -0.0450
  987MOL0     O36076   4.791   1.325   0.178  0.6656 -0.2967  0.3950
  987MOL0     C36077   4.800   1.298   0.040 -0.1332  0.0117  0.8218
  987MOL0     C36078   4.661   1.310  -0.031  0.1670  0.5513  0.3617
  987MOL0     C36079   4.559   1.205   0.027 -0.7981 -0.4398 -0.0685
  987MOL0     C36080   4.588   1.067  -0.008 -0.8860  0.2361 -0.1293
  987MOL0     C36081   4.480   0.964   0.026 -0.5850 -0.6316  0.8047
  987MOL0     C36082   4.520   0.824  -0.010 -0.5519  0.4233  0.4262
  987MOL0     C36083   4.426   0.722   0.056  0.0578 -0.1855 -0.6853
  987MOL0     C36084   4.430   0.594  -0.026  0.3216  0.4222 -0.2139
  987MOL0     N36085   4.566   0.548  -0.037  0.1214  0.2198  0.3317
  987MOL0     C36086   4.617   0.447   0.033  0.9471 -0.5429 -0.3203
  987MOL0     C36087   4.745   0.431  -0.003  0.7523  0.5850  1.4458
  987MOL0     C36088   4.836   0.316   0.026 -0.8976 -0.4138 -0.2721
  987MOL0     C36089   4.875   0.231  -0.087 -0.4894 -0.2116  0.3388
  987MOL0     C36090   4.964   0.099  -0.047  0.5573 -0.2256  0.4201
  987MOL0     C36091   4.946  -0.008  -0.160  0.9756  0.1249  0.3793
  987MOL0     O36092   5.022   0.028  -0.273 -0.9638 -0.1895  0.1482
  987MOL0     C36093   5.160   0.014  -0.276  0.5613  0.5546  0.2348
  987MOL0     C36094   5.225  -0.054  -0.159  0.0617 -1.4101 -0.2042
  987MOL0     C36095   5.360  -0.088  -0.165  0.1097  0.6649  0.0627
  987MOL0     C36096   5.417  -0.178  -0.055 -0.8564 -0.1248  0.0440
  987MOL0     C36097   5.432  -0.029  -0.270 -0.5143  0.9520 -0.6825
  987MOL0     C36098   5.575  -0.052  -0.276 -0.5015 -0.4588 -0.2608
  987MOL0     O36099   5.613  -0.079  -0.407  0.6400 -0.4633  0.3398
  987MOL0     C36100   5.736  -0.104  -0.440 -0.2528  0.7802  0.3295
  987MOL0     C36101   5.819  -0.009  -0.494  0.6367  0.7182 -0.1974
  987MOL0     C36102   5.958  -0.029  -0.509  0.6227 -0.3047  0.1177
  987MOL0     C36103   6.015  -0.147  -0.478  0.2009  0.6038  0.4377
  987MOL0     O36104   6.151  -0.156  -0.471  1.1653  0.1921  0.3789
  987MOL0     C36105   6.201  -0.274  -0.536  0.1049 -0.3468 -0.3159
  987MOL0     C36106   6.209  -0.242  -0.682 -0.6824 -0.3671  0.1336
  987MOL0     C36107   6.303  -0.125  -0.699 -0.5377 -1.0221  0.1588
  987MOL0     C36108   6.373  -0.146  -0.833  0.1131 -0.4803  0.8761
  987MOL0     C36109   6.389  -0.010  -0.902 -0.6333  0.3994 -0.4761
  987MOL0     C36110   6.502   0.085  -0.845  0.4844 -0.5088 -0.3864
  987MOL0     C36111   6.477   0.170  -0.727  0.3618 -0.6230  0.3808
  987MOL0     C36112   6.415   0.311  -0.760  1.1838 -0.3485  0.6068
  987MOL0    Cl36113   6.243   0.298  -0.768  0.5155  0.8426 -0.4539
  987MOL0     C36114   5.931  -0.251  -0.424  0.1758 -0.2984  0.7958
  987MOL0     C36115   5.794  -0.231  -0.402  0.5314  0.6917 -0.1642
  987MOL0     O36116   5.654  -0.042  -0.183  0.1500  0.6616  0.2699
  987MOL0     C36117   5.377   0.041  -0.372  0.2771 -0.7037  0.2108
  987MOL0     C36118   5.236   0.066  -0.375 -0.4041 -0.1306 -0.2328
  987MOL0     N36119   4.766   0.522  -0.099 -0.5642  0.2870 -0.0845
  987MOL0     N36120   4.658   0.590  -0.126 -0.7330  0.6853 -0.1497
  987MOL0     C36121   4.892   1.514   0.256  0.0563 -0.1650  0.5205
  987MOL0     C36122   5.001   1.583   0.314 -0.0883 -0.1609  0.9892
  987MOL0     C36123   5.456   1.653   0.302 -0.1500  0.5522 -0.2850
  987MOL0     C36124   5.456   1.699   0.437 -0.1197  0.6488  0.0057
  987MOL0     C36125   5.560   1.768   0.496  0.0620 -1.4103 -0.4777
  987MOL0     C36126   5.669   1.806   0.416 -0.7771 -1.6004 -0.6671
  987MOL0     O36127   5.768   1.879   0.476  0.1344  0.3582  0.2834
  987MOL0     C36128   5.867   1.962   0.401  0.2927 -0.9927  0.1941
  987MOL0     C36129   5.924   2.063   0.492  0.3882 -0.7300 -0.1291
  987MOL0     C36130   6.047   1.994   0.569 -0.6041 -0.8080  0.4015
  987MOL0     C36131   6.107   2.097   0.666 -0.7230 -0.8324 -0.1008
  987MOL0     C36132   6.178   2.202   0.599 -0.4961 -1.1729  0.5308
  987MOL0     C36133   6.240   2.292   0.539  1.2204 -0.7744  0.3714
  987MOL0     C36134   5.670   1.771   0.279 -0.3059 -0.9653 -0.0724
  987MOL0     C36135   5.575   1.695   0.222 -0.0104 -0.0503  0.0089
  987MOL0     C36136   5.583   1.658   0.077 -0.2923  0.3902  0.2643
  987MOL0     H36137   5.212   1.327   0.347 -1.4375  1.0154  0.8120
  987MOL0     H36138   5.017   1.203   0.241  0.3147 -0.8164  2.9429
  987MOL0     H36139   4.838   1.197   0.023 -0.0369  0.1229  0.3805
  987MOL0     H36140   4.873   1.359  -0.014 -0.1423  0.3270  1.1588
  987MOL0     H36141   4.632   1.412  -0.005  0.3492  0.3511  1.4171
  987MOL0     H36142   4.666   1.294  -0.139 -1.6058  2.7091 -0.1115
  987MOL0     H36143   4.569   1.210   0.136 -0.0418  2.1816 -0.1935
  987MOL0     H36144   4.459   1.231  -0.010 -0.1098  0.4922 -1.3638
  987MOL0     H36145   4.602   1.076  -0.116 -1.4947  0.6233 -0.1798
  987MOL0     H36146   4.690   1.043   0.024  0.1843  3.9407 -0.2211
  987MOL0     H36147   4.396   0.995  -0.037 -0.1566 -0.2024  0.4355
  987MOL0     H36148   4.440   0.963   0.127 -1.7782 -1.4181  0.3563
  987MOL0     H36149   4.508   0.819  -0.119  0.1440  1.8253  0.2623
  987MOL0     H36150   4.624   0.799   0.012 -0.6056 -0.1674  0.0550
  987MOL0     H36151   4.321   0.750   0.061 -0.3350 -1.7060  0.2824
  987MOL0     H36152   4.467   0.706   0.156 -0.3531  1.5682 -0.1979
  987MOL0     H36153   4.361   0.523   0.020  1.8522 -0.6502  0.4993
  987MOL0     H36154   4.398   0.615  -0.129  1.1684  2.9761 -0.0251
  987MOL0     H36155   4.549   0.386   0.093  1.6097 -1.9722 -0.9706
  987MOL0     H36156   4.796   0.239   0.093  1.6394 -1.5690  0.0640
  987MOL0     H36157   4.916   0.361   0.086 -1.2490 -0.6637  0.3966
  987MOL0     H36158   4.782   0.190  -0.127 -0.0074 -0.7633 -0.2434
  987MOL0     H36159   4.922   0.286  -0.169 -1.3877 -1.8408 -1.3439
  987MOL0     H36160   5.072   0.116  -0.049  0.8640 -2.0296 -0.5140
  987MOL0     H36161   4.925   0.048   0.041  3.5647 -2.2573  0.7120
  987MOL0     H36162   4.966  -0.111  -0.129 -0.6291 -0.1881  0.4723
  987MOL0     H36163   4.845  -0.005  -0.200  1.0027  0.6591  0.3429
  987MOL0     H36164   5.164  -0.091  -0.077 -0.4146  1.3409  0.7734
  987MOL0     H36165   5.335  -0.244  -0.023 -1.1573  1.1135  2.0447
  987MOL0     H36166   5.438  -0.122   0.037  1.6642 -1.7179  0.5233
  987MOL0     H36167   5.502  -0.238  -0.088 -0.8591 -0.2181  0.2023
  987MOL0     H36168   5.761   0.073  -0.535 -4.6205 -1.3563  2.1257
  987MOL0     H36169   6.017   0.053  -0.548 -0.1011 -0.7871 -2.1116
  987MOL0     H36170   6.308  -0.284  -0.512  0.8995  0.9917 -2.9470
  987MOL0     H36171   6.150  -0.367  -0.512 -2.1478  0.3776 -1.9638
  987MOL0     H36172   6.226  -0.332  -0.743  0.8825  0.5718 -0.8856
  987MOL0     H36173   6.113  -0.196  -0.708 -0.3291  0.2291 -0.1211
  987MOL0     H36174   6.372  -0.120  -0.615 -0.0831  2.8288 -0.2592
  987MOL0     H36175   6.238  -0.036  -0.703  1.2036  0.2712 -1.4242
  987MOL0     H36176   6.314  -0.207  -0.902  2.9346 -4.6375  1.7224
  987MOL0     H36177   6.471  -0.194  -0.823 -0.4520 -2.0820 -0.6943
  987MOL0     H36178   6.424  -0.034  -1.003 -1.3855  0.9793 -0.8845
  987MOL0     H36179   6.290   0.035  -0.912 -1.5499 -1.2854  0.5054
  987MOL0     H36180   6.556   0.136  -0.925 -1.1458 -0.1090 -1.2736
  987MOL0     H36181   6.581   0.020  -0.805  2.9073  3.6146  2.3017
  987MOL0     H36182   6.574   0.203  -0.690 -0.1267  1.8113 -0.3250
  987MOL0     H36183   6.430   0.124  -0.639  1.3623 -0.6801  0.8993
  987MOL0     H36184   6.452   0.350  -0.855 -2.3864  1.8477 -0.0865
  987MOL0     H36185   6.440   0.388  -0.687  1.6957  0.3088 -0.2397
  987MOL0     H36186   5.969  -0.346  -0.389  2.5456  0.2114 -0.1902
  987MOL0     H36187   5.718  -0.302  -0.370  2.0954 -0.9617  0.0016
  987MOL0     H36188   5.426   0.085  -0.458 -0.3527  0.4109  0.3946
  987MOL0     H36189   5.191   0.114  -0.461  0.7521  0.7986 -0.3523
  987MOL0     H36190   4.802   1.570   0.236  1.9811  3.8123  1.9234
  987MOL0     H36191   4.992   1.687   0.343 -0.5148 -0.5460  2.3110
  987MOL0     H36192   5.373   1.673   0.503  1.8540 -2.1358  1.6425
  987MOL0     H36193   5.563   1.791   0.602 -0.2206 -1.8002 -0.3856
  987MOL0     H36194   5.943   1.895   0.360  1.4890  0.6255 -0.3350
  987MOL0     H36195   5.805   2.001   0.320 -1.6067  0.7144  2.3256
  987MOL0     H36196   5.849   2.100   0.563 -1.2220 -3.4460 -0.2880
  987MOL0     H36197   5.963   2.143   0.429 -1.9184  1.6306  1.2053
  987MOL0     H36198   6.009   1.914   0.633  2.8278  0.3629  4.3475
  987MOL0     H36199   6.117   1.966   0.489  0.5203  0.7700  0.7794
  987MOL0     H36200   6.193   2.056   0.719 -0.0920  4.4186  3.7500
  987MOL0     H36201   6.027   2.139   0.727 -1.2854  1.5107 -2.2554
  987MOL0     H36202   6.295   2.373   0.495 -1.7348  1.3939  0.3281
  987MOL0     H36203   5.746   1.802   0.208 -2.2446 -0.6670 -2.1319
  987MOL0     H36204   5.582   1.550   0.057 -0.5799  0.8054 -2.3316
  987MOL0     H36205   5.498   1.706   0.028  0.4057  2.1028  0.6616
  987MOL0     H36206   5.679   1.690   0.034 -1.1396  0.3633 -1.7445
  988MOL0     O36207   2.536   3.734   5.517  0.0468 -0.7615 -0.7415
  988MOL0     C36208   2.626   3.659   5.475  0.5073  0.2039 -0.0858
  988MOL0     O36209   2.618   3.520   5.481 -0.0662 -0.0356 -0.1506
  988MOL0     C36210   2.510   3.474   5.544  0.0535 -0.2482 -0.1878
  988MOL0     C36211   2.494   3.492   5.686  0.8077 -0.1338 -0.2032
  988MOL0     C36212   2.371   3.447   5.746 -0.6934  0.6618 -0.4714
  988MOL0     C36213   2.265   3.397   5.670 -0.0613  0.3869  1.0801
  988MOL0     O36214   2.139   3.370   5.715 -0.2848  0.1886 -0.5045
  988MOL0     C36215   2.101   3.435   5.839 -0.4600 -0.6138  1.1168
  988MOL0     C36216   1.959   3.403   5.887  0.0550 -0.9451  0.7911
  988MOL0     C36217   1.936   3.268   5.957  0.2001 -0.9049  0.4509
  988MOL0     C36218   1.779   3.241   5.973  0.2006  0.9413 -0.1328
  988MOL0     C36219   1.757   3.110   6.051  0.8062 -0.2190  0.6901
  988MOL0     C36220   1.608   3.078   6.060 -0.6393  0.6575 -0.9785
  988MOL0     C36221   1.588   2.946   6.140 -0.4315 -0.4292  0.4558
  988MOL0     C36222   1.438   2.916   6.157 -0.3620  0.4247 -0.8842
  988MOL0     N36223   1.385   3.012   6.251 -0.1078 -0.5923 -0.1753
  988MOL0     C36224   1.416   3.029   6.383  0.0463  1.0534  0.0452
  988MOL0     C36225   1.329   3.111   6.432  0.6686 -0.6629 -0.5869
  988MOL0     C36226   1.314   3.122   6.586 -0.3868  0.1064  0.5456
  988MOL0     C36227   1.354   3.262   6.638  0.4364 -1.0261  0.0931
  988MOL0     C36228   1.493   3.279   6.604 -0.2469  0.8253  0.0277
  988MOL0     C36229   1.551   3.408   6.664  0.1737  1.4067 -0.3100
  988MOL0     O36230   1.613   3.381   6.794  0.1347  0.0191 -0.3336
  988MOL0     C36231   1.660   3.497   6.846 -0.3369 -0.1432 -0.0810
  988MOL0     C36232   1.604   3.548   6.962 -0.2856  0.5450  0.1931
  988MOL0     C36233   1.665   3.651   7.031  0.2432 -0.9483 -0.2313
  988MOL0     C36234   1.608   3.682   7.164 -0.0197  0.6789 -0.6414
  988MOL0     C36235   1.771   3.721   6.976  0.3674 -1.2651  0.1764
  988MOL0     C36236   1.818   3.853   7.025 -0.5540  0.3557  1.4351
  988MOL0     O36237   1.945   3.888   6.979  0.4693 -0.0664  0.3860
  988MOL0     C36238   2.002   4.007   7.011  0.0749 -0.0958  0.2758
  988MOL0     C36239   1.947   4.136   6.995 -0.0562 -0.4696  0.3242
  988MOL0     C36240   2.011   4.245   7.040  0.3378 -0.1000  0.2874
  988MOL0     C36241   2.143   4.241   7.094  0.4025  0.3423 -0.7900
  988MOL0     O36242   2.215   4.353   7.127  0.2495 -0.1198 -0.2802
  988MOL0     C36243   2.266   4.357   7.265  0.2426  0.6365  1.0878
  988MOL0     C36244   2.319   4.492   7.300 -0.4401  0.4348  0.8326
  988MOL0     C36245   2.223   4.599   7.293 -0.7169 -0.5685  0.0952
  988MOL0     C36246   2.152   4.612   7.429  0.3662 -0.9034  0.5309
  988MOL0     C36247   2.072   4.746   7.434  0.1093  0.3928 -0.1794
  988MOL0     C36248   1.969   4.752   7.549  0.5835  0.2432  0.0890
  988MOL0     C36249   1.874   4.874   7.537  0.5083  0.4850  0.0119
  988MOL0     C36250   1.760   4.878   7.641  0.3402  0.7286  0.5249
  988MOL0    Cl36251   1.655   4.741   7.591  0.1205  0.6515 -0.2571
  988MOL0     C36252   2.197   4.114   7.115  0.1467 -0.1533  1.2552
  988MOL0     C36253   2.128   4.000   7.079  0.2881  0.0376  0.0729
  988MOL0     O36254   1.752   3.919   7.100 -0.0561 -0.0141  0.0463
  988MOL0     C36255   1.834   3.666   6.862  0.2434  0.2179 -0.0444
  988MOL0     C36256   1.786   3.559   6.798 -0.6906  0.1611  0.1842
  988MOL0     N36257   1.236   3.149   6.333  0.1118 -0.3411 -0.1650
  988MOL0     N36258   1.272   3.092   6.225 -0.9050  0.2811 -0.0299
  988MOL0     C36259   2.286   3.377   5.529 -0.4880 -0.5345 -0.0707
  988MOL0     C36260   2.410   3.411   5.472  0.5732 -0.4007 -0.3971
  988MOL0     C36261   2.747   3.721   5.412 -0.0994  0.2131  0.5433
  988MOL0     C36262   2.813   3.643   5.317  0.2116  1.2400  0.6381
  988MOL0     C36263   2.930   3.685   5.260 -0.1295 -1.1401  0.7335
  988MOL0     C36264   2.984   3.812   5.281  0.5702  0.4655 -0.2641
  988MOL0     O36265   3.104   3.846   5.228 -0.3972  0.0227 -0.5924
  988MOL0     C36266   3.148   3.979   5.205  0.5467  0.1621  0.0689
  988MOL0     C36267   3.072   4.058   5.103 -0.0945 -0.7949  0.2833
  988MOL0     C36268   3.075   4.203   5.136 -0.2453  0.4932  0.3858
  988MOL0     C36269   2.984   4.245   5.252  0.4074  0.4216  0.6284
  988MOL0     C36270   2.842   4.220   5.213 -0.2737 -0.6254  0.3068
  988MOL0     C36271   2.734   4.221   5.155 -0.2187 -0.0364 -0.2351
  988MOL0     C36272   2.898   3.899   5.351 -0.9014 -0.0332  0.9311
  988MOL0     C36273   2.789   3.858   5.420  0.0052 -0.0731 -0.4365
  988MOL0     C36274   2.712   3.958   5.501  1.2688 -0.1578 -0.6633
  988MOL0     H36275   2.570   3.537   5.749  2.3842 -1.0807 -1.3510
  988MOL0     H36276   2.348   3.464   5.850  0.9472 -1.1160  0.2405
  988MOL0     H36277   2.114   3.543   5.821 -1.8272 -0.0832  3.0096
  988MOL0     H36278   2.166   3.401   5.920  1.0599 -0.2118  0.1205
  988MOL0     H36279   1.932   3.489   5.950  2.8318  1.6485 -1.2700
  988MOL0     H36280   1.893   3.415   5.801  1.8868 -1.1345 -0.6853
  988MOL0     H36281   1.983   3.200   5.885  2.9176  2.3143 -1.0715
  988MOL0     H36282   1.982   3.268   6.056 -2.1233  0.2644  1.6161
  988MOL0     H36283   1.723   3.308   6.040 -0.8199  1.0380 -1.0533
  988MOL0     H36284   1.726   3.246   5.878 -2.2001  2.4042  1.1633
  988MOL0     H36285   1.811   3.130   6.144  0.0251  2.2843  0.6858
  988MOL0     H36286   1.815   3.026   6.010  3.8645  1.3798  1.4424
  988MOL0     H36287   1.559   3.160   6.112 -0.1781 -1.3016  2.8954
  988MOL0     H36288   1.569   3.071   5.958  0.3187  1.7459 -1.4373
  988MOL0     H36289   1.633   2.941   6.240  2.1447  0.8281 -0.5392
  988MOL0     H36290   1.628   2.863   6.081 -2.8776  0.3118 -2.5041
  988MOL0     H36291   1.395   2.931   6.058 -0.7997  2.8964 -0.3740
  988MOL0     H36292   1.412   2.817   6.197 -3.1108  0.8675 -1.4093
  988MOL0     H36293   1.505   2.980   6.420  1.6613  3.2488 -0.6640
  988MOL0     H36294   1.393   3.065   6.636 -0.8416 -0.6099  0.4572
  988MOL0     H36295   1.220   3.076   6.618  0.5566 -3.3001 -1.1251
  988MOL0     H36296   1.298   3.338   6.583  1.0675  0.3692  1.3261
  988MOL0     H36297   1.332   3.287   6.742  0.7287  3.6204 -0.7657
  988MOL0     H36298   1.555   3.193   6.632  0.7999  1.5103 -0.1085
  988MOL0     H36299   1.520   3.284   6.498  5.1470  2.0873  1.1223
  988MOL0     H36300   1.627   3.447   6.597  0.3406  0.7116 -0.5306
  988MOL0     H36301   1.475   3.482   6.691 -0.1966 -0.0630  3.3855
  988MOL0     H36302   1.528   3.486   7.007 -2.5691  2.8705 -0.2002
  988MOL0     H36303   1.692   3.680   7.234  0.8166 -2.3412 -1.5792
  988MOL0     H36304   1.537   3.604   7.192 -1.5383  2.0929 -0.4237
  988MOL0     H36305   1.558   3.779   7.171  2.8242  2.2460 -0.7332
  988MOL0     H36306   1.841   4.147   6.971 -0.8123 -2.9619  2.1586
  988MOL0     H36307   1.978   4.344   7.009  0.1658  0.1091  1.1152
  988MOL0     H36308   2.182   4.344   7.334  1.8628 -2.3696  2.6425
  988MOL0     H36309   2.339   4.279   7.286 -0.0965 -0.2929 -0.9164
  988MOL0     H36310   2.357   4.473   7.401 -4.3103 -2.4728  1.9940
  988MOL0     H36311   2.403   4.512   7.233 -0.0570  0.0090  1.1850
  988MOL0     H36312   2.161   4.612   7.203  3.0806  0.3944 -2.6300
  988MOL0     H36313   2.284   4.689   7.279 -3.3200  1.1968 -0.6232
  988MOL0     H36314   2.226   4.604   7.508  0.3764 -1.0771  0.5048
  988MOL0     H36315   2.087   4.528   7.455  1.0959 -0.4791  4.1871
  988MOL0     H36316   2.143   4.829   7.434  1.0381 -0.3736 -0.7230
  988MOL0     H36317   2.003   4.753   7.349 -2.9513  0.5933  2.1455
  988MOL0     H36318   2.021   4.745   7.645  0.4827 -0.1726  0.1163
  988MOL0     H36319   1.913   4.660   7.531  0.3165  0.6022 -0.9474
  988MOL0     H36320   1.830   4.878   7.437  2.1384  5.7511 -0.8256
  988MOL0     H36321   1.934   4.966   7.541  1.9146 -0.3012 -1.5052
  988MOL0     H36322   1.705   4.971   7.623  4.1228  2.5831 -3.3290
  988MOL0     H36323   1.806   4.875   7.740  3.8570  0.9115 -0.9453
  988MOL0     H36324   2.298   4.104   7.153 -0.8339 -1.3869  3.7465
  988MOL0     H36325   2.176   3.903   7.088 -1.4345 -0.7994  0.6805
  988MOL0     H36326   1.909   3.716   6.802  0.3072  0.4295  0.2124
  988MOL0     H36327   1.828   3.515   6.708  1.3684  1.8437  0.2430
  988MOL0     H36328   2.213   3.336   5.459 -2.2124 -1.7415  2.3186
  988MOL0     H36329   2.431   3.389   5.367 -0.1104 -1.4283 -0.3296
  988MOL0     H36330   2.795   3.536   5.308 -2.7739  1.6998  0.3191
  988MOL0     H36331   3.001   3.620   5.210  0.3424 -0.5880  0.6772
  988MOL0     H36332   3.158   4.042   5.294 -0.4618 -0.0898  0.3645
  988MOL0     H36333   3.257   3.967   5.198  1.2918  1.2898  5.2446
  988MOL0     H36334   2.967   4.028   5.101 -0.5854  0.8284 -0.2982
  988MOL0     H36335   3.120   4.041   5.006  1.1823  1.1619  0.4963
  988MOL0     H36336   3.177   4.234   5.160 -0.1712  1.8127 -1.4734
  988MOL0     H36337   3.045   4.248   5.041  0.0696  0.0648  0.0765
  988MOL0     H36338   2.983   4.352   5.277 -2.5263  0.8521 -0.8054
  988MOL0     H36339   3.020   4.197   5.343  1.3414 -1.1445 -0.5263
  988MOL0     H36340   2.629   4.212   5.135 -0.2285  0.1906 -0.2793
  988MOL0     H36341   2.918   4.005   5.360  2.8232 -0.3912 -1.1283
  988MOL0     H36342   2.615   3.974   5.452  0.8213  2.1263  0.8431
  988MOL0     H36343   2.688   3.905   5.594 -4.4245 -2.4482 -2.9903
  988MOL0     H36344   2.760   4.056   5.512  0.5938 -0.1327  3.8429
  989MOL0     O36345  10.537   7.183   3.869  0.2529  0.1276 -0.2279
  989MOL0     C36346  10.653   7.159   3.841  0.9093  0.7469  0.8212
  989MOL0     O36347  10.679   7.035   3.785  0.2876  0.5398 -0.0733
  989MOL0     C36348  10.584   6.926   3.783 -0.2445 -0.7488 -0.2886
  989MOL0     C36349  10.492   6.883   3.876 -0.1985 -0.4715  0.4766
  989MOL0     C36350  10.401   6.782   3.862  0.0376 -1.3166 -0.2220
  989MOL0     C36351  10.411   6.688   3.765 -0.1920 -0.1802  0.1397
  989MOL0     O36352  10.321   6.583   3.758 -0.2383 -1.4031  0.1601
  989MOL0     C36353  10.320   6.495   3.649 -0.3478 -0.4421 -0.0323
  989MOL0     C36354  10.270   6.569   3.528 -0.3723 -0.5407 -0.2367
  989MOL0     C36355  10.123   6.590   3.524 -0.0528 -0.7080  0.2501
  989MOL0     C36356  10.026   6.467   3.487 -0.2455 -0.8419  0.3350
  989MOL0     C36357   9.882   6.477   3.556 -0.3211  0.6411  0.2916
  989MOL0     C36358   9.803   6.346   3.573 -1.3403 -0.5501 -0.9075
  989MOL0     C36359   9.756   6.289   3.451  0.4173  0.3085 -0.6614
  989MOL0     C36360   9.675   6.169   3.479  0.2071  0.9533  0.7171
  989MOL0     N36361   9.657   6.081   3.362 -0.2000 -0.3692  0.4956
  989MOL0     C36362   9.691   5.946   3.352  0.0704 -0.5713  0.8967
  989MOL0     C36363   9.631   5.902   3.239  0.1371 -0.5936  0.1519
  989MOL0     C36364   9.669   5.767   3.178 -0.7658 -0.8291  1.8015
  989MOL0     C36365   9.596   5.637   3.201 -0.3695 -0.5363 -0.4750
  989MOL0     C36366   9.616   5.547   3.073  0.1644 -0.9877 -0.3822
  989MOL0     C36367   9.579   5.400   3.081 -0.7218 -0.0281  0.1546
  989MOL0     O36368   9.663   5.349   3.188  0.1446  0.3256 -0.5095
  989MOL0     C36369   9.600   5.236   3.254  0.8861 -0.3300 -0.8718
  989MOL0     C36370   9.509   5.149   3.185  0.0266 -1.0049 -0.5399
  989MOL0     C36371   9.447   5.042   3.251  0.0374  0.6328  0.2516
  989MOL0     C36372   9.357   4.951   3.175  0.1170  0.1653  0.2107
  989MOL0     C36373   9.476   5.019   3.393  0.8253 -0.3488 -0.3554
  989MOL0     C36374   9.420   4.909   3.479  0.2923  0.0476  0.2772
  989MOL0     O36375   9.286   4.878   3.470 -1.6651 -0.5480 -0.2693
  989MOL0     C36376   9.236   4.781   3.549  0.3407  0.1545  0.3088
  989MOL0     C36377   9.178   4.675   3.484 -0.5416 -0.0306 -0.4878
  989MOL0     C36378   9.105   4.578   3.557 -0.0159 -0.2741  0.1224
  989MOL0     C36379   9.097   4.592   3.695  0.4658 -0.6338 -0.8624
  989MOL0     O36380   9.015   4.515   3.774 -0.0061 -0.2188  0.7536
  989MOL0     C36381   8.963   4.392   3.720  0.6206 -0.7464 -0.7571
  989MOL0     C36382   8.908   4.306   3.838 -0.3980 -0.2469  0.3256
  989MOL0     C36383   8.864   4.167   3.787 -1.3610 -0.2349  0.1664
  989MOL0     C36384   8.837   4.070   3.904 -0.6647  1.1716 -0.3368
  989MOL0     C36385   8.778   3.935   3.863  0.4905 -0.4501 -0.2018
  989MOL0     C36386   8.872   3.813   3.863 -0.0454  0.7021  0.2555
  989MOL0     C36387   8.971   3.826   3.749  0.1536 -0.6940 -0.1066
  989MOL0     C36388   9.030   3.685   3.721  0.7180  0.0440  0.3096
  989MOL0    Cl36389   9.138   3.692   3.568 -0.3049  0.6187  0.0373
  989MOL0     C36390   9.165   4.686   3.761  0.4426  0.1218 -0.4719
  989MOL0     C36391   9.229   4.787   3.687 -0.2849  0.8888  1.2847
  989MOL0     O36392   9.500   4.861   3.559 -0.0935  0.6147 -0.1307
  989MOL0     C36393   9.556   5.115   3.460  0.0515  0.2280  0.1361
  989MOL0     C36394   9.626   5.210   3.387 -0.7742  0.8396 -0.2530
  989MOL0     N36395   9.575   6.011   3.183  0.3222 -0.1354 -0.3591
  989MOL0     N36396   9.582   6.117   3.258 -0.3616 -0.0313  0.6824
  989MOL0     C36397  10.523   6.712   3.680  0.4639 -0.2139  0.4162
  989MOL0     C36398  10.600   6.831   3.682 -0.6052 -0.6002  0.2961
  989MOL0     C36399  10.766   7.246   3.845  0.6592  0.7978  0.3997
  989MOL0     C36400  10.834   7.275   3.718 -0.2073 -0.3871 -0.5404
  989MOL0     C36401  10.931   7.370   3.710  0.2703  0.6962  0.1145
  989MOL0     C36402  10.971   7.430   3.829 -0.0549 -1.1688 -0.5853
  989MOL0     O36403  11.075   7.514   3.818  0.3496 -0.2434 -0.3033
  989MOL0     C36404  11.192   7.492   3.884 -0.3571 -0.1314  0.1573
  989MOL0     C36405  11.279   7.406   3.790 -0.0068 -0.8727  0.3610
  989MOL0     C36406  11.314   7.469   3.651  0.8464  0.2157  0.9993
  989MOL0     C36407  11.289   7.370   3.542  0.5327 -0.2453 -0.2741
  989MOL0     C36408  11.390   7.252   3.545 -0.5287  0.8572  0.0915
  989MOL0     C36409  11.479   7.163   3.559  0.6776 -0.1156  0.0235
  989MOL0     C36410  10.914   7.398   3.956 -0.0296  0.0008 -0.5616
  989MOL0     C36411  10.807   7.304   3.962 -0.2235 -0.9718 -0.0136
  989MOL0     C36412  10.735   7.291   4.093 -0.7545 -0.7875  0.3928
  989MOL0     H36413  10.484   6.930   3.974 -1.2622 -2.8950  1.6369
  989MOL0     H36414  10.325   6.764   3.936 -1.5245  1.1122 -1.1360
  989MOL0     H36415  10.261   6.407   3.676 -1.7227  0.4207 -0.1376
  989MOL0     H36416  10.421   6.464   3.621 -0.4262 -0.4348 -0.3362
  989MOL0     H36417  10.328   6.661   3.514  2.8277 -2.4843 -0.7183
  989MOL0     H36418  10.298   6.515   3.437  1.4692  1.7336 -1.1367
  989MOL0     H36419  10.087   6.630   3.619  3.8233 -0.7379  1.9176
  989MOL0     H36420  10.112   6.662   3.443 -0.3900 -2.9020 -1.7801
  989MOL0     H36421  10.022   6.456   3.378  2.7500 -0.1182  0.0726
  989MOL0     H36422  10.076   6.376   3.522  4.1934  1.5452  0.9782
  989MOL0     H36423   9.815   6.555   3.518 -1.5824 -0.0010  1.1274
  989MOL0     H36424   9.901   6.515   3.657 -0.4855  0.6024  0.3366
  989MOL0     H36425   9.867   6.274   3.626  0.0992  0.6022 -1.0187
  989MOL0     H36426   9.710   6.354   3.629 -1.9974  1.5170 -2.1790
  989MOL0     H36427   9.842   6.255   3.393 -0.6145 -2.9370 -0.5288
  989MOL0     H36428   9.711   6.361   3.382  2.9374  0.8476 -1.8523
  989MOL0     H36429   9.709   6.114   3.567 -2.8871 -0.8511  0.9422
  989MOL0     H36430   9.576   6.207   3.506 -1.7665 -1.3362 -2.5615
  989MOL0     H36431   9.762   5.887   3.409  2.7420  1.0812 -0.5119
  989MOL0     H36432   9.774   5.746   3.201  0.5311 -2.1745 -3.7036
  989MOL0     H36433   9.665   5.786   3.070  0.2094  1.1568  2.0687
  989MOL0     H36434   9.632   5.581   3.288  1.6090 -0.3532 -1.1189
  989MOL0     H36435   9.488   5.654   3.207 -0.5144 -1.9711  1.9180
  989MOL0     H36436   9.544   5.591   3.003 -1.2223 -1.3717  0.7513
  989MOL0     H36437   9.720   5.550   3.039  0.2555  1.7183 -0.0910
  989MOL0     H36438   9.477   5.378   3.111 -1.6129  2.2764 -0.9018
  989MOL0     H36439   9.601   5.349   2.987  0.1047 -0.9981  0.8638
  989MOL0     H36440   9.495   5.162   3.079 -1.3869 -1.6297 -0.4461
  989MOL0     H36441   9.386   4.946   3.070  0.8465  3.5720  0.1611
  989MOL0     H36442   9.252   4.981   3.187 -0.4463 -1.0414 -1.4279
  989MOL0     H36443   9.376   4.849   3.210  0.8334 -0.6054 -2.2612
  989MOL0     H36444   9.196   4.668   3.377  3.6569 -2.9925  0.1691
  989MOL0     H36445   9.048   4.497   3.511  1.3754 -1.5133  0.4850
  989MOL0     H36446   8.888   4.409   3.643 -1.1422  3.6377  1.5844
  989MOL0     H36447   9.049   4.344   3.672  3.2197  4.0063 -1.5070
  989MOL0     H36448   8.981   4.293   3.918 -1.4298  0.1023  1.3412
  989MOL0     H36449   8.820   4.358   3.875 -1.1392 -0.5565 -0.9328
  989MOL0     H36450   8.937   4.125   3.717 -4.5169 -0.7848 -3.0201
  989MOL0     H36451   8.775   4.178   3.726 -0.9864  0.3033 -0.2920
  989MOL0     H36452   8.766   4.105   3.980  1.9998  0.6813  2.5663
  989MOL0     H36453   8.926   4.062   3.966 -1.7342  2.3459  1.4308
  989MOL0     H36454   8.697   3.914   3.933  1.2447 -0.8728  0.5642
  989MOL0     H36455   8.738   3.951   3.763  0.8406  1.3340 -0.1000
  989MOL0     H36456   8.813   3.727   3.831  1.2717  0.3038 -1.1919
  989MOL0     H36457   8.915   3.774   3.956  0.7729  0.6096 -0.1527
  989MOL0     H36458   9.051   3.894   3.780  0.7144 -1.6989  0.7542
  989MOL0     H36459   8.921   3.876   3.666 -0.0778 -1.1369 -0.2371
  989MOL0     H36460   8.950   3.610   3.724 -0.2206  1.0321  0.6345
  989MOL0     H36461   9.108   3.665   3.794 -0.1247 -4.0206  0.3062
  989MOL0     H36462   9.145   4.680   3.868 -2.9570 -3.0870 -1.0633
  989MOL0     H36463   9.279   4.871   3.735  0.1243 -0.3474  3.1355
  989MOL0     H36464   9.566   5.108   3.568  0.3871  0.8688  0.1498
  989MOL0     H36465   9.687   5.286   3.436  0.1021 -0.6600  1.0426
  989MOL0     H36466  10.535   6.642   3.598  2.1874  1.3530 -0.7714
  989MOL0     H36467  10.681   6.856   3.614  0.0398 -1.9011  0.5553
  989MOL0     H36468  10.800   7.233   3.623 -1.6290  1.4098 -0.8896
  989MOL0     H36469  10.977   7.397   3.616  1.3550 -0.1972  0.3839
  989MOL0     H36470  11.232   7.591   3.909 -3.0779  1.6084 -1.7844
  989MOL0     H36471  11.182   7.444   3.982 -1.0387 -1.0852 -0.3637
  989MOL0     H36472  11.229   7.310   3.774 -0.6067 -0.1487 -2.7732
  989MOL0     H36473  11.369   7.371   3.841 -0.7557 -3.6369 -0.0688
  989MOL0     H36474  11.248   7.555   3.632  0.7800  0.6994  3.1254
  989MOL0     H36475  11.418   7.504   3.653  0.3917  1.9464 -1.0600
  989MOL0     H36476  11.298   7.423   3.447  1.2772 -0.6889 -0.4540
  989MOL0     H36477  11.194   7.317   3.556  1.2306 -1.2532  0.8540
  989MOL0     H36478  11.561   7.095   3.563 -0.3712 -1.3684  1.0915
  989MOL0     H36479  10.951   7.452   4.043 -0.7574  2.9700 -1.9831
  989MOL0     H36480  10.732   7.185   4.117  3.8581 -1.7789 -2.2293
  989MOL0     H36481  10.781   7.343   4.178 -1.0510 -1.5918  1.0497
  989MOL0     H36482  10.632   7.321   4.073 -0.9304  0.8883  3.3038
  990MOL0     O36483   6.445  10.922   1.249 -0.4291 -0.0275  0.2842
  990MOL0     C36484   6.476  10.964   1.358  0.0592  0.3429 -0.2012
  990MOL0     O36485   6.612  10.978   1.395 -0.5038  0.1017  0.1872
  990MOL0     C36486   6.712  10.897   1.348 -0.7515  0.8957 -0.1334
  990MOL0     C36487   6.717  10.761   1.328  0.6257  0.6189 -0.9390
  990MOL0     C36488   6.830  10.687   1.276  0.3225 -0.4308  0.7143
  990MOL0     C36489   6.947  10.755   1.247 -0.3040 -0.5599  0.6101
  990MOL0     O36490   7.058  10.689   1.193  1.3013 -0.0345  1.0956
  990MOL0     C36491   7.166  10.659   1.278 -0.0454 -0.1281  0.1277
  990MOL0     C36492   7.205  10.512   1.227 -0.0856  0.1896 -0.3923
  990MOL0     C36493   7.303  10.516   1.108  1.1866  0.0692  0.4851
  990MOL0     C36494   7.323  10.372   1.037  0.8193 -0.8240  0.0314
  990MOL0     C36495   7.412  10.386   0.906 -0.1723  0.0870 -0.5006
  990MOL0     C36496   7.555  10.413   0.936 -0.0542  0.2415  0.3203
  990MOL0     C36497   7.636  10.416   0.805 -1.4122 -0.4668 -0.8012
  990MOL0     C36498   7.780  10.436   0.849  0.2004  0.2086 -0.0381
  990MOL0     N36499   7.889  10.451   0.746  1.1974  0.2492 -0.6901
  990MOL0     C36500   7.868  10.484   0.615  0.7088 -0.1240  1.1516
  990MOL0     C36501   7.983  10.466   0.549  0.2573 -0.9485 -0.0930
  990MOL0     C36502   8.020  10.480   0.406  0.4420 -0.1485  0.1162
  990MOL0     C36503   8.163  10.536   0.396 -0.0528 -0.1072  1.0628
  990MOL0     C36504   8.188  10.671   0.460  0.3176  0.1219 -0.1832
  990MOL0     C36505   8.146  10.784   0.363 -0.4807  1.1762  0.8101
  990MOL0     O36506   8.249  10.815   0.274  0.1582  0.0327  0.4688
  990MOL0     C36507   8.216  10.858   0.147 -0.4448  0.1356 -0.4253
  990MOL0     C36508   8.112  10.947   0.135 -0.1424 -0.0172 -0.1568
  990MOL0     C36509   8.056  10.974   0.004 -0.9657 -1.0588 -0.5379
  990MOL0     C36510   7.936  11.061  -0.014  0.1274 -0.5865 -0.4024
  990MOL0     C36511   8.120  10.927  -0.113  0.5870  0.3503 -0.7758
  990MOL0     C36512   8.071  10.945  -0.252 -0.6067 -0.4423  0.2688
  990MOL0     O36513   8.039  11.074  -0.291  0.3878  0.1529  0.6407
  990MOL0     C36514   7.986  11.091  -0.418 -0.0812  0.0986  0.5494
  990MOL0     C36515   7.853  11.053  -0.448 -0.3402 -0.6887 -0.6758
  990MOL0     C36516   7.797  11.080  -0.571 -0.7817 -0.1122  0.5781
  990MOL0     C36517   7.871  11.132  -0.673 -1.6490  0.2834 -0.0046
  990MOL0     O36518   7.823  11.158  -0.797 -0.6904  0.3781  0.1948
  990MOL0     C36519   7.810  11.282  -0.852 -0.8910  0.4187  0.2673
  990MOL0     C36520   7.732  11.275  -0.982 -0.9507  0.5652  0.1523
  990MOL0     C36521   7.826  11.273  -1.110 -0.5071 -0.1967  0.3538
  990MOL0     C36522   7.896  11.142  -1.130  0.2006 -0.0669 -0.5578
  990MOL0     C36523   7.970  11.116  -1.255 -0.0242  0.7199  0.8575
  990MOL0     C36524   8.088  11.209  -1.280 -0.2583  0.7044  0.1646
  990MOL0     C36525   8.164  11.182  -1.411  0.3682 -0.1206  0.5186
  990MOL0     C36526   8.100  11.260  -1.528  0.2098 -0.5829 -0.3939
  990MOL0    Cl36527   8.113  11.443  -1.509  0.0203  0.4668  0.0172
  990MOL0     C36528   8.009  11.161  -0.655 -0.3213 -1.2131 -1.1219
  990MOL0     C36529   8.061  11.155  -0.520  0.9967 -0.0542  1.1135
  990MOL0     O36530   8.050  10.840  -0.315 -0.2471 -0.1841 -0.5037
  990MOL0     C36531   8.239  10.851  -0.091 -0.5281  0.0472 -0.8688
  990MOL0     C36532   8.294  10.812   0.037 -0.2752 -0.0218  0.1650
  990MOL0     N36533   8.072  10.405   0.631 -0.2605 -0.0559 -0.5857
  990MOL0     N36534   8.023  10.400   0.755 -0.7915  0.2485 -0.2081
  990MOL0     C36535   6.944  10.892   1.276  0.4710  0.8649 -0.4449
  990MOL0     C36536   6.832  10.960   1.323  0.0213  0.9089 -0.3541
  990MOL0     C36537   6.373  11.038   1.429  0.2934 -0.7287 -0.0059
  990MOL0     C36538   6.240  11.029   1.378 -0.4435  0.3335 -0.7732
  990MOL0     C36539   6.126  11.108   1.436  0.2310  0.4351 -0.4199
  990MOL0     C36540   6.151  11.192   1.543  0.0283 -1.0536 -1.0067
  990MOL0     O36541   6.060  11.281   1.601 -0.2227  0.9961 -0.0004
  990MOL0     C36542   5.927  11.231   1.625  0.0527  0.4599 -0.2928
  990MOL0     C36543   5.869  11.315   1.745 -0.0716 -0.1956 -0.6798
  990MOL0     C36544   5.931  11.274   1.872 -0.2697  1.1866  0.6685
  990MOL0     C36545   5.876  11.359   1.989 -0.2653 -0.2632  0.5764
  990MOL0     C36546   5.910  11.498   1.972 -0.1170 -0.1945  0.2164
  990MOL0     C36547   5.934  11.617   1.975 -0.9105 -0.0693  0.8698
  990MOL0     C36548   6.276  11.203   1.591 -0.7412 -0.0327  0.0046
  990MOL0     C36549   6.385  11.129   1.540 -0.8059  0.3269 -0.0481
  990MOL0     C36550   6.525  11.142   1.601  0.5442 -0.4795 -0.1978
  990MOL0     H36551   6.632  10.696   1.344  2.3521 -1.3197  0.9376
  990MOL0     H36552   6.813  10.583   1.252 -1.8769  0.2815 -1.3041
  990MOL0     H36553   7.130  10.659   1.381  2.4620 -2.2902  1.1261
  990MOL0     H36554   7.242  10.732   1.251 -1.3950  0.9481 -0.9392
  990MOL0     H36555   7.259  10.465   1.309  0.6696  1.3955 -0.1707
  990MOL0     H36556   7.109  10.467   1.198 -0.4998 -0.2906  1.6190
  990MOL0     H36557   7.252  10.580   1.036  0.7438 -0.1804  0.5696
  990MOL0     H36558   7.399  10.562   1.133  1.3768  1.3268 -2.1967
  990MOL0     H36559   7.360  10.290   1.100 -2.6412 -1.5534  1.3573
  990MOL0     H36560   7.220  10.343   1.013 -0.2626  2.9036 -0.4512
  990MOL0     H36561   7.384  10.468   0.840  0.0566  1.3885  0.9577
  990MOL0     H36562   7.402  10.294   0.847 -0.5188 -0.6763  0.7043
  990MOL0     H36563   7.569  10.508   0.989  3.1223  1.3496 -2.1532
  990MOL0     H36564   7.591  10.330   0.997 -2.0897 -0.0084  1.2648
  990MOL0     H36565   7.600  10.497   0.741  2.0633  2.3623  0.4807
  990MOL0     H36566   7.630  10.321   0.751  1.9453 -1.4523  0.2940
  990MOL0     H36567   7.800  10.524   0.910 -0.1117 -0.7574  1.5258
  990MOL0     H36568   7.807  10.350   0.912 -0.1155 -0.8386 -1.2965
  990MOL0     H36569   7.780  10.524   0.566  0.1076 -1.3540  1.1948
  990MOL0     H36570   7.947  10.543   0.354 -0.1968  0.0429  1.2055
  990MOL0     H36571   8.021  10.378   0.368  2.1529 -1.5992  3.5923
  990MOL0     H36572   8.227  10.457   0.438  1.0121 -0.6805 -1.4495
  990MOL0     H36573   8.188  10.540   0.289  0.3273 -2.6050  0.9799
  990MOL0     H36574   8.129  10.677   0.552 -0.1186  1.1813 -0.5098
  990MOL0     H36575   8.290  10.694   0.491 -0.0745  1.6022  0.0839
  990MOL0     H36576   8.051  10.761   0.314 -1.6688  3.0579  2.0575
  990MOL0     H36577   8.126  10.874   0.422 -0.3493  1.6662  0.1177
  990MOL0     H36578   8.086  10.989   0.231  0.1157  3.4675 -1.4612
  990MOL0     H36579   7.979  11.162  -0.018  0.0169 -0.3004  2.7604
  990MOL0     H36580   7.878  11.063   0.079  2.7217 -2.6393  1.3944
  990MOL0     H36581   7.873  11.032  -0.099  1.7235  0.1809 -1.9015
  990MOL0     H36582   7.808  10.992  -0.370  1.7492  0.8563  1.9135
  990MOL0     H36583   7.689  11.076  -0.585 -0.8282  3.9242 -1.6003
  990MOL0     H36584   7.750  11.343  -0.783 -1.5647 -1.4719  1.4181
  990MOL0     H36585   7.910  11.327  -0.859 -0.0869 -0.9870  1.8656
  990MOL0     H36586   7.664  11.190  -0.975  0.2688 -0.4392  0.1478
  990MOL0     H36587   7.670  11.364  -0.996 -2.2290  0.0975  2.3685
  990MOL0     H36588   7.896  11.354  -1.087  0.2266 -0.7227 -0.0189
  990MOL0     H36589   7.773  11.302  -1.201  0.3753 -0.2470 -0.1782
  990MOL0     H36590   7.833  11.053  -1.120  2.0111 -1.1871  2.1782
  990MOL0     H36591   7.960  11.129  -1.043  0.0182  0.7813 -0.2948
  990MOL0     H36592   8.007  11.013  -1.262 -2.4047 -0.4296  3.3325
  990MOL0     H36593   7.903  11.138  -1.338  3.0446 -2.2693 -2.7670
  990MOL0     H36594   8.154  11.197  -1.194  1.1198 -0.6790 -1.0397
  990MOL0     H36595   8.068  11.317  -1.288 -0.2645  0.9496  2.8281
  990MOL0     H36596   8.177  11.076  -1.436  0.4454 -1.0524  3.9094
  990MOL0     H36597   8.269  11.212  -1.403  0.7475 -0.2709 -2.6192
  990MOL0     H36598   8.006  11.212  -1.558  2.8987 -5.2011 -2.5029
  990MOL0     H36599   8.160  11.242  -1.618 -1.2265 -0.5445 -1.4081
  990MOL0     H36600   8.067  11.202  -0.736 -0.9220 -0.6104 -1.2621
  990MOL0     H36601   8.164  11.184  -0.504  0.5417  2.6127 -0.1982
  990MOL0     H36602   8.301  10.822  -0.175 -0.0610 -1.2760 -0.0797
  990MOL0     H36603   8.381  10.748   0.051  1.3250  1.1152 -3.5368
  990MOL0     H36604   7.029  10.952   1.247 -0.8644  2.7685 -0.5556
  990MOL0     H36605   6.865  11.062   1.339  4.1961 -0.5005  1.3463
  990MOL0     H36606   6.218  10.956   1.301 -2.8044 -1.7755  1.6773
  990MOL0     H36607   6.035  11.101   1.377  0.7529 -1.2638 -1.1070
  990MOL0     H36608   5.869  11.244   1.533  1.7556  1.9272 -1.2326
  990MOL0     H36609   5.921  11.125   1.652 -1.6984  0.6946  0.3910
  990MOL0     H36610   5.762  11.290   1.748  0.7220 -4.3197  0.1199
  990MOL0     H36611   5.894  11.420   1.729  0.5011  0.0393  1.3678
  990MOL0     H36612   5.908  11.169   1.894  0.4236  0.7020 -0.7746
  990MOL0     H36613   6.040  11.277   1.874 -0.1282 -0.2200 -1.4892
  990MOL0     H36614   5.937  11.327   2.074  0.3351  2.1141  1.1149
  990MOL0     H36615   5.772  11.333   2.009 -0.1496 -1.2508 -0.0068
  990MOL0     H36616   5.957  11.721   1.974 -0.2906 -0.0462  4.1870
  990MOL0     H36617   6.314  11.261   1.675  1.2048 -2.4499  0.9003
  990MOL0     H36618   6.585  11.204   1.534 -0.7435  1.6578  0.5186
  990MOL0     H36619   6.521  11.186   1.701 -0.9751  1.7309 -1.1436
  990MOL0     H36620   6.571  11.044   1.611  1.3117 -0.1261 -0.2033
  991MOL0     O36621   5.349   7.459   5.595  0.3945  0.4474  0.3647
  991MOL0     C36622   5.459   7.412   5.580 -0.2089 -0.7360 -0.0310
  991MOL0     O36623   5.566   7.450   5.659 -0.1618 -0.2445 -0.4525
  991MOL0     C36624   5.555   7.546   5.767  0.3772  0.7708 -0.0909
  991MOL0     C36625   5.474   7.513   5.880 -0.0100 -0.5391  1.0438
  991MOL0     C36626   5.483   7.597   5.995  0.2769 -0.8692 -0.5364
  991MOL0     C36627   5.581   7.702   6.005  0.0548  0.9841  0.3984
  991MOL0     O36628   5.597   7.784   6.112  0.6356 -0.0378 -0.3908
  991MOL0     C36629   5.483   7.807   6.190  0.1083 -0.8001 -1.6778
  991MOL0     C36630   5.522   7.908   6.300 -0.2478 -0.0703  0.3489
  991MOL0     C36631   5.403   7.971   6.379  1.3732  0.2206  0.3131
  991MOL0     C36632   5.295   7.872   6.409 -0.2134  0.2560 -1.0382
  991MOL0     C36633   5.204   7.927   6.524  0.0750  0.1505  0.2421
  991MOL0     C36634   5.094   7.827   6.572 -0.8649 -0.5643 -0.2215
  991MOL0     C36635   4.992   7.794   6.456 -0.0488 -1.3111 -1.2367
  991MOL0     C36636   4.937   7.904   6.361 -0.2220  0.2127 -0.2595
  991MOL0     N36637   4.823   7.978   6.422 -0.6184  0.3123  0.1187
  991MOL0     C36638   4.828   8.083   6.499  0.0956 -0.1341 -0.6335
  991MOL0     C36639   4.707   8.092   6.565  0.6328  0.1026  0.4186
  991MOL0     C36640   4.674   8.204   6.663  0.7142  0.5942  0.0384
  991MOL0     C36641   4.656   8.134   6.798 -0.1177  0.3744  0.2224
  991MOL0     C36642   4.588   8.206   6.914  0.1717 -0.0367 -1.0445
  991MOL0     C36643   4.477   8.301   6.874  0.2628 -0.0952 -0.0479
  991MOL0     O36644   4.374   8.231   6.806 -1.1429 -0.7221 -0.0441
  991MOL0     C36645   4.292   8.293   6.720  0.4511 -0.6905 -0.6436
  991MOL0     C36646   4.257   8.209   6.613  0.5091 -0.5827  0.0643
  991MOL0     C36647   4.189   8.260   6.494 -0.5980 -0.9261 -0.6193
  991MOL0     C36648   4.184   8.162   6.384 -0.8650 -0.7333 -0.2821
  991MOL0     C36649   4.154   8.398   6.484  0.8842 -0.9091 -0.3009
  991MOL0     C36650   4.087   8.459   6.358  0.3087  0.5316 -0.1223
  991MOL0     O36651   4.069   8.592   6.383  0.3619 -0.1440 -0.9652
  991MOL0     C36652   3.985   8.668   6.308  0.7918 -0.6712  0.7476
  991MOL0     C36653   3.856   8.638   6.255  0.0420  0.6117  0.5204
  991MOL0     C36654   3.778   8.734   6.190  0.1034  0.9551 -0.1828
  991MOL0     C36655   3.813   8.859   6.178 -0.1527 -0.1307  0.5486
  991MOL0     O36656   3.729   8.945   6.114 -0.0100 -0.0796  0.9369
  991MOL0     C36657   3.777   9.082   6.099  0.0291  0.6997 -0.1956
  991MOL0     C36658   3.672   9.180   6.043 -0.1426  0.8118  0.1734
  991MOL0     C36659   3.695   9.315   6.099 -0.6637  0.0705  0.0946
  991MOL0     C36660   3.567   9.392   6.077  0.0058  0.2736  0.1604
  991MOL0     C36661   3.589   9.537   6.116  0.2269 -0.4242 -0.2816
  991MOL0     C36662   3.459   9.622   6.086  0.5621 -1.5717  0.5532
  991MOL0     C36663   3.420   9.638   5.935 -0.4948 -0.5176 -0.7706
  991MOL0     C36664   3.424   9.785   5.878 -0.7231  0.0005  0.5891
  991MOL0    Cl36665   3.296   9.889   5.973 -0.3027 -0.2022 -0.0612
  991MOL0     C36666   3.935   8.892   6.231 -0.4619 -0.3258 -0.0322
  991MOL0     C36667   4.014   8.805   6.294  0.1486  0.5848 -0.2956
  991MOL0     O36668   4.035   8.391   6.267  0.4956 -0.6083  0.0696
  991MOL0     C36669   4.191   8.474   6.595 -0.7110 -0.3061 -0.3827
  991MOL0     C36670   4.254   8.429   6.708  0.3212  0.6747  0.3051
  991MOL0     N36671   4.624   7.990   6.527  0.1471  0.2787  0.7652
  991MOL0     N36672   4.692   7.931   6.425 -0.2687  0.1064 -0.2118
  991MOL0     C36673   5.661   7.714   5.901 -0.2278 -1.3658 -0.6791
  991MOL0     C36674   5.653   7.639   5.785  0.4037  0.7961  0.3531
  991MOL0     C36675   5.489   7.312   5.467 -0.7526 -1.4583  0.4044
  991MOL0     C36676   5.381   7.238   5.416 -0.3487  0.8680  0.4806
  991MOL0     C36677   5.400   7.138   5.312  0.3566 -0.1567 -0.3369
  991MOL0     C36678   5.529   7.097   5.273 -0.0405  0.5738  0.3877
  991MOL0     O36679   5.556   7.012   5.170 -0.0211 -1.0641  0.5847
  991MOL0     C36680   5.456   6.920   5.128 -0.4996  0.3653 -0.1159
  991MOL0     C36681   5.475   6.784   5.195  0.9130  0.1222 -0.6091
  991MOL0     C36682   5.363   6.683   5.176  0.4204 -0.7235 -0.0248
  991MOL0     C36683   5.233   6.745   5.234  0.4482  0.6110 -0.9958
  991MOL0     C36684   5.115   6.653   5.238  0.9934 -0.2077  0.0525
  991MOL0     C36685   5.030   6.568   5.229 -0.1634 -0.0542  0.5255
  991MOL0     C36686   5.639   7.184   5.317 -0.9442 -0.5561  0.6022
  991MOL0     C36687   5.622   7.288   5.410  0.3789 -0.2463  0.2054
  991MOL0     C36688   5.742   7.371   5.439  0.5103  0.4645 -0.5706
  991MOL0     H36689   5.412   7.425   5.893  0.4161 -0.4696  4.6600
  991MOL0     H36690   5.424   7.570   6.083 -0.7922 -1.6561 -1.4660
  991MOL0     H36691   5.452   7.716   6.242 -1.9003  1.1319  0.7880
  991MOL0     H36692   5.398   7.847   6.133 -0.9641  1.5045  1.3004
  991MOL0     H36693   5.575   7.846   6.373 -1.9207 -2.9521 -0.7568
  991MOL0     H36694   5.582   7.988   6.256  1.6069 -0.5792  1.8138
  991MOL0     H36695   5.445   8.013   6.472  2.6911 -0.1154 -0.1007
  991MOL0     H36696   5.366   8.051   6.315 -0.4731 -1.1827 -0.4433
  991MOL0     H36697   5.232   7.855   6.322 -0.1672 -0.0570 -1.0108
  991MOL0     H36698   5.348   7.780   6.434 -1.2866 -0.3337 -0.8840
  991MOL0     H36699   5.156   8.020   6.491 -2.6142 -0.7786  1.2061
  991MOL0     H36700   5.266   7.959   6.608  0.9232  0.1987 -0.3963
  991MOL0     H36701   5.143   7.737   6.611  2.1491  1.0875  0.0684
  991MOL0     H36702   5.046   7.868   6.661 -0.4514 -1.6987  0.5506
  991MOL0     H36703   4.907   7.752   6.511  1.0454 -1.9353  0.0375
  991MOL0     H36704   5.041   7.718   6.394  2.7246 -0.6221 -0.0387
  991MOL0     H36705   5.013   7.974   6.327  3.6912 -1.3924  4.1548
  991MOL0     H36706   4.897   7.855   6.271  0.9736  0.1976 -0.7977
  991MOL0     H36707   4.919   8.141   6.506  0.3824 -0.7967  2.2048
  991MOL0     H36708   4.577   8.246   6.635  1.6086  0.6948 -3.2751
  991MOL0     H36709   4.755   8.277   6.672  1.5446 -0.3568  0.3988
  991MOL0     H36710   4.597   8.044   6.782  3.8610 -2.8428  1.6739
  991MOL0     H36711   4.758   8.110   6.830 -0.4214 -1.0245  0.2319
  991MOL0     H36712   4.555   8.132   6.987 -3.7819  3.3963  1.1188
  991MOL0     H36713   4.657   8.273   6.966 -0.1450 -1.1792  0.9684
  991MOL0     H36714   4.439   8.358   6.959 -1.3601  0.5368 -1.1522
  991MOL0     H36715   4.506   8.379   6.803 -2.0289  1.3616  0.5106
  991MOL0     H36716   4.296   8.109   6.622  0.3300 -0.7745 -1.1349
  991MOL0     H36717   4.235   8.072   6.420 -0.3705  0.0778  1.1008
  991MOL0     H36718   4.252   8.205   6.309  0.4811  0.4843  1.5457
  991MOL0     H36719   4.083   8.150   6.344 -0.7796 -2.3264 -0.0701
  991MOL0     H36720   3.824   8.537   6.279 -0.6874  1.5970  4.4119
  991MOL0     H36721   3.676   8.715   6.159  0.7550  1.4935 -2.8978
  991MOL0     H36722   3.804   9.116   6.199  0.5145 -3.8685  1.4763
  991MOL0     H36723   3.864   9.078   6.033 -0.2559 -2.3120 -0.5315
  991MOL0     H36724   3.683   9.183   5.934 -1.5655 -0.2727 -0.0291
  991MOL0     H36725   3.575   9.139   6.074  1.3488 -0.0203  4.4386
  991MOL0     H36726   3.782   9.362   6.053  0.2698 -0.7525  0.9793
  991MOL0     H36727   3.728   9.326   6.202  2.5868 -3.9096 -0.2946
  991MOL0     H36728   3.485   9.343   6.130 -0.0814  1.3665  1.0907
  991MOL0     H36729   3.544   9.376   5.971 -1.7011 -5.3216  1.0571
  991MOL0     H36730   3.612   9.540   6.222 -2.6804 -0.0922  0.4216
  991MOL0     H36731   3.679   9.563   6.059  0.1284 -0.3213 -0.3929
  991MOL0     H36732   3.466   9.723   6.128 -1.2120 -2.1425  2.3926
  991MOL0     H36733   3.382   9.564   6.138 -1.5890 -0.9703 -1.7852
  991MOL0     H36734   3.313   9.615   5.931 -1.1825  2.2691 -0.2470
  991MOL0     H36735   3.484   9.569   5.879 -1.2063 -0.4898 -1.6354
  991MOL0     H36736   3.404   9.779   5.771 -2.7729  1.3500  0.8385
  991MOL0     H36737   3.523   9.832   5.884  0.4233 -2.2294 -0.0170
  991MOL0     H36738   3.970   8.995   6.227  0.9733 -0.7027  1.7097
  991MOL0     H36739   4.102   8.838   6.348  2.3088 -1.5143 -2.2913
  991MOL0     H36740   4.168   8.579   6.580  0.3255  0.1539  0.9564
  991MOL0     H36741   4.277   8.500   6.787 -0.9095  0.3409  0.9977
  991MOL0     H36742   5.745   7.783   5.903 -2.2462  1.2945 -1.3725
  991MOL0     H36743   5.742   7.639   5.724  0.4352 -1.7476  0.2838
  991MOL0     H36744   5.278   7.252   5.448 -1.0620  1.5015 -1.8651
  991MOL0     H36745   5.312   7.093   5.268  2.3458 -0.3452 -4.6411
  991MOL0     H36746   5.355   6.962   5.118 -1.6617 -1.5670  2.3550
  991MOL0     H36747   5.482   6.890   5.026 -1.2102 -1.7509  0.2696
  991MOL0     H36748   5.492   6.782   5.303  2.0130 -2.5842 -0.7494
  991MOL0     H36749   5.574   6.746   5.168  2.5030  2.3778  1.5583
  991MOL0     H36750   5.343   6.634   5.080 -1.6287  0.8127 -0.4437
  991MOL0     H36751   5.393   6.601   5.242 -0.7730 -2.6678 -1.7783
  991MOL0     H36752   5.208   6.835   5.177  0.0709  0.8647 -0.4430
  991MOL0     H36753   5.250   6.768   5.340  1.2834 -1.1164 -0.7354
  991MOL0     H36754   4.957   6.489   5.225  0.3181 -0.4779 -0.0741
  991MOL0     H36755   5.735   7.149   5.280 -2.4765 -1.8743 -2.4630
  991MOL0     H36756   5.812   7.359   5.356  0.5901 -2.2926 -0.2172
  991MOL0     H36757   5.719   7.477   5.451 -1.6688 -0.1378  1.2180
  991MOL0     H36758   5.791   7.330   5.529  0.2196 -0.1612 -0.6903
  992MOL0     O36759   6.682  11.124   5.198 -0.4188  0.3897 -0.3032
  992MOL0     C36760   6.630  11.194   5.289  0.7805  0.3702  0.6083
  992MOL0     O36761   6.633  11.163   5.422  0.1621 -0.7306  0.3479
  992MOL0     C36762   6.680  11.040   5.452 -0.3039  0.0499  0.7653
  992MOL0     C36763   6.808  11.029   5.504  0.5017 -0.1320 -0.5300
  992MOL0     C36764   6.859  10.898   5.535  0.3870 -1.2599  0.0344
  992MOL0     C36765   6.789  10.780   5.511  1.0303 -0.6814 -0.2946
  992MOL0     O36766   6.823  10.658   5.545  1.0270 -0.0044  0.1568
  992MOL0     C36767   6.914  10.621   5.643  0.1172 -0.5314 -0.4549
  992MOL0     C36768   6.999  10.503   5.595 -0.4404  0.9419  0.7645
  992MOL0     C36769   7.110  10.460   5.700  0.0967 -1.4520  0.1310
  992MOL0     C36770   7.198  10.350   5.640  0.5127  0.0288 -0.3555
  992MOL0     C36771   7.307  10.301   5.732  0.2266  0.0075 -0.3556
  992MOL0     C36772   7.409  10.402   5.801  0.2767 -0.9755 -0.5162
  992MOL0     C36773   7.512  10.453   5.706 -0.8565 -0.0587  0.1767
  992MOL0     C36774   7.467  10.588   5.622 -0.4396  0.8904 -0.0970
  992MOL0     N36775   7.574  10.686   5.636  0.5094  0.8756 -0.2243
  992MOL0     C36776   7.694  10.718   5.571 -0.6633  0.2750 -0.2001
  992MOL0     C36777   7.766  10.806   5.652  0.7572  0.4361  0.2938
  992MOL0     C36778   7.903  10.864   5.624  0.5052  0.0670  0.7785
  992MOL0     C36779   7.913  11.005   5.679  0.0435  0.2175  0.2686
  992MOL0     C36780   7.831  11.099   5.584  0.1953 -0.6032  0.6740
  992MOL0     C36781   7.874  11.239   5.603  0.1607 -0.5862 -0.0343
  992MOL0     O36782   7.823  11.320   5.500 -0.4679 -0.4510  1.4349
  992MOL0     C36783   7.880  11.443   5.489 -0.3323 -0.1358  0.1824
  992MOL0     C36784   7.796  11.536   5.423  0.8742 -0.0050 -0.5428
  992MOL0     C36785   7.824  11.673   5.409 -0.8132  1.0488  0.0416
  992MOL0     C36786   7.719  11.752   5.335  0.1821 -0.6725  0.4650
  992MOL0     C36787   7.950  11.717   5.466 -0.1378  0.5148 -0.1810
  992MOL0     C36788   7.987  11.860   5.471  0.3135  0.4395 -0.1861
  992MOL0     O36789   8.110  11.884   5.425  0.3417 -0.1669 -0.2860
  992MOL0     C36790   8.149  12.014   5.412 -0.1986  0.4888  0.6929
  992MOL0     C36791   8.053  12.113   5.363 -0.5157  0.1685 -0.1406
  992MOL0     C36792   8.094  12.237   5.333 -0.4276  0.1943 -0.8495
  992MOL0     C36793   8.218  12.277   5.381 -0.3441 -0.3361 -0.4232
  992MOL0     O36794   8.247  12.408   5.385 -0.0079 -1.0553 -0.1760
  992MOL0     C36795   8.156  12.485   5.470 -0.4530 -0.9716  0.0600
  992MOL0     C36796   8.190  12.638   5.473  0.1464  0.2607  0.1717
  992MOL0     C36797   8.174  12.694   5.329 -0.3809 -0.2838  0.7994
  992MOL0     C36798   8.025  12.698   5.280  0.3175 -0.4215 -0.6383
  992MOL0     C36799   8.011  12.774   5.152 -0.6096  0.4279  0.9571
  992MOL0     C36800   7.868  12.739   5.086  0.1317 -0.8071  0.1979
  992MOL0     C36801   7.826  12.844   4.981  0.2458 -0.0926 -0.3348
  992MOL0     C36802   7.940  12.878   4.885 -0.6361 -0.4080  0.7917
  992MOL0    Cl36803   8.005  12.717   4.823  0.2636 -0.0108 -0.3048
  992MOL0     C36804   8.316  12.183   5.436 -0.2192  0.8292 -0.0298
  992MOL0     C36805   8.274  12.050   5.446 -0.5789 -0.3674  0.0316
  992MOL0     O36806   7.915  11.941   5.526 -0.2955 -0.0106 -0.9584
  992MOL0     C36807   8.031  11.626   5.522  0.0912  0.7812 -0.6867
  992MOL0     C36808   8.004  11.486   5.529 -0.1663  0.3858 -0.3109
  992MOL0     N36809   7.692  10.828   5.757 -0.3853 -0.2339 -0.0571
  992MOL0     N36810   7.583  10.754   5.754 -0.1494  0.5007 -0.4746
  992MOL0     C36811   6.665  10.801   5.448 -0.3028 -0.4208  0.1725
  992MOL0     C36812   6.609  10.926   5.429  0.9759  1.1238 -0.2295
  992MOL0     C36813   6.550  11.320   5.252  0.1888  0.0276 -0.1101
  992MOL0     C36814   6.594  11.451   5.281 -0.2133 -0.1396 -0.3209
  992MOL0     C36815   6.516  11.564   5.248  0.6390  1.1855  0.7696
  992MOL0     C36816   6.392  11.549   5.160 -0.9812  0.0966 -0.5186
  992MOL0     O36817   6.311  11.659   5.120 -0.2050  0.0778  0.6489
  992MOL0     C36818   6.271  11.751   5.227 -0.5986 -0.3964  0.8834
  992MOL0     C36819   6.194  11.878   5.170  0.7367 -1.2002  0.0567
  992MOL0     C36820   6.129  11.954   5.293 -0.3927  0.0555  0.5501
  992MOL0     C36821   6.226  12.017   5.384 -0.1113 -0.5785 -0.3781
  992MOL0     C36822   6.155  12.090   5.485 -0.0349  0.3567 -0.9960
  992MOL0     C36823   6.086  12.133   5.583 -0.4519 -1.1060  1.1225
  992MOL0     C36824   6.358  11.424   5.119  0.8936  0.2137 -0.6334
  992MOL0     C36825   6.426  11.307   5.172 -0.4740  0.7285  0.6252
  992MOL0     C36826   6.371  11.171   5.133 -0.3882 -0.0744  0.7424
  992MOL0     H36827   6.860  11.123   5.519 -1.7505  0.8539  1.7725
  992MOL0     H36828   6.960  10.894   5.575  0.2994 -1.1343  0.2649
  992MOL0     H36829   6.871  10.614   5.743 -1.4311  0.0998 -1.0424
  992MOL0     H36830   6.989  10.698   5.665  1.7521 -1.7238 -1.6273
  992MOL0     H36831   6.932  10.418   5.582  1.5475 -0.3578 -2.0626
  992MOL0     H36832   7.040  10.538   5.500  0.9719  1.1172  1.4069
  992MOL0     H36833   7.175  10.543   5.731 -1.7402  0.6247 -1.2653
  992MOL0     H36834   7.068  10.421   5.793  0.2488  1.5239  1.5763
  992MOL0     H36835   7.126  10.275   5.609  0.5597 -0.1412 -0.0577
  992MOL0     H36836   7.252  10.379   5.550  2.3839  0.9235  0.9718
  992MOL0     H36837   7.367  10.230   5.672 -0.3559 -0.9848  0.2144
  992MOL0     H36838   7.265  10.240   5.812  3.5205 -0.0001  1.5576
  992MOL0     H36839   7.351  10.479   5.854 -0.4034 -2.1890  0.5639
  992MOL0     H36840   7.469  10.348   5.874  2.7203  1.3702 -0.6512
  992MOL0     H36841   7.525  10.366   5.642 -1.3317  0.0453 -0.0648
  992MOL0     H36842   7.604  10.469   5.764 -0.3666  0.6908 -0.7638
  992MOL0     H36843   7.452  10.582   5.514  0.5018  1.1449 -0.2516
  992MOL0     H36844   7.375  10.625   5.668 -1.2459 -0.3910 -0.6107
  992MOL0     H36845   7.732  10.675   5.479 -1.0786 -2.0344  0.6433
  992MOL0     H36846   7.900  10.869   5.515 -0.1353  4.8996  0.7922
  992MOL0     H36847   7.970  10.788   5.664  0.2868 -0.4777  0.1208
  992MOL0     H36848   7.898  11.007   5.787 -0.2816 -0.4722  0.2381
  992MOL0     H36849   8.019  11.034   5.671 -0.4567  1.9300 -0.6050
  992MOL0     H36850   7.853  11.073   5.480  2.8801 -2.6914  1.6390
  992MOL0     H36851   7.725  11.087   5.608 -0.2048  0.8777 -0.2128
  992MOL0     H36852   7.817  11.279   5.687  1.6267  1.2180  0.1846
  992MOL0     H36853   7.983  11.245   5.607  0.2137  1.6420 -2.2627
  992MOL0     H36854   7.697  11.506   5.390 -0.4208  1.7798  1.4583
  992MOL0     H36855   7.642  11.794   5.400 -2.3115 -3.0407 -0.7377
  992MOL0     H36856   7.688  11.673   5.265 -2.2029 -0.4731  1.1930
  992MOL0     H36857   7.779  11.825   5.280 -1.9958  0.0699 -1.0688
  992MOL0     H36858   7.952  12.097   5.329 -0.2131  3.7656 -3.3667
  992MOL0     H36859   8.024  12.301   5.280 -0.0504  2.0033  0.7254
  992MOL0     H36860   8.050  12.462   5.454 -0.2877 -2.1893  0.6312
  992MOL0     H36861   8.167  12.453   5.574 -1.6934 -0.5206  0.3475
  992MOL0     H36862   8.116  12.678   5.542 -0.6348  0.3479 -0.6891
  992MOL0     H36863   8.295  12.650   5.500 -0.2010 -0.8253  2.1582
  992MOL0     H36864   8.224  12.639   5.250  0.6597  0.9791  0.5402
  992MOL0     H36865   8.207  12.797   5.309  1.5471 -1.0288 -0.0008
  992MOL0     H36866   7.973  12.767   5.348  3.2854  0.0472  1.3378
  992MOL0     H36867   7.978  12.601   5.295 -0.6049  0.1665  0.5301
  992MOL0     H36868   8.028  12.881   5.169 -1.1774  0.8407 -0.8906
  992MOL0     H36869   8.091  12.735   5.089 -3.7700 -1.7396 -2.0895
  992MOL0     H36870   7.795  12.741   5.168 -1.2803  1.3707 -1.0153
  992MOL0     H36871   7.866  12.644   5.033  0.9113  1.3852 -4.2822
  992MOL0     H36872   7.789  12.939   5.021  0.9007 -0.0818  0.2615
  992MOL0     H36873   7.742  12.802   4.924 -1.4138 -1.6017  2.9567
  992MOL0     H36874   8.021  12.941   4.922 -0.5053 -1.1763  1.8958
  992MOL0     H36875   7.898  12.938   4.804 -1.9491 -0.8035  1.1451
  992MOL0     H36876   8.415  12.220   5.462  1.0427  0.8001 -4.1577
  992MOL0     H36877   8.345  11.972   5.474  0.9296  2.0825  3.8678
  992MOL0     H36878   8.120  11.672   5.564 -0.2731  0.7195  0.1713
  992MOL0     H36879   8.074  11.416   5.572  1.9104  2.3187 -0.3484
  992MOL0     H36880   6.607  10.712   5.427 -2.2263  0.8819 -0.2166
  992MOL0     H36881   6.514  10.940   5.379  1.4873  4.6483 -0.4502
  992MOL0     H36882   6.690  11.461   5.330  0.0666  1.0903 -1.0624
  992MOL0     H36883   6.543  11.667   5.269 -0.8001  1.1772  3.0524
  992MOL0     H36884   6.202  11.692   5.289 -0.2280  0.6473  2.3580
  992MOL0     H36885   6.349  11.795   5.290 -0.3876  1.6525 -0.7064
  992MOL0     H36886   6.115  11.845   5.102 -0.4255  1.0059  0.2469
  992MOL0     H36887   6.255  11.945   5.108 -1.2259 -0.0620 -0.7254
  992MOL0     H36888   6.070  12.031   5.243 -0.4026 -2.3337 -3.4976
  992MOL0     H36889   6.068  11.884   5.353 -1.2665  1.4215  1.3101
  992MOL0     H36890   6.286  12.093   5.333 -3.5436  1.9665 -1.0082
  992MOL0     H36891   6.288  11.936   5.423  0.9636  0.0246 -0.7876
  992MOL0     H36892   6.036  12.181   5.664  2.2928 -0.8593  2.8145
  992MOL0     H36893   6.266  11.401   5.066  1.1547 -1.4222 -0.4200
  992MOL0     H36894   6.262  11.162   5.123 -0.1283 -1.4082 -1.3081
  992MOL0     H36895   6.402  11.147   5.031  0.7129 -0.1871  1.0980
  992MOL0     H36896   6.396  11.087   5.198  1.0738 -0.5709 -0.4053
  993MOL0     O36897   5.927   9.426   2.101 -0.3639  0.2389 -0.6135
  993MOL0     C36898   6.043   9.462   2.067 -0.2387 -0.0508 -1.0108
  993MOL0     O36899   6.102   9.433   1.952 -0.8378 -0.4468 -0.8584
  993MOL0     C36900   6.035   9.336   1.875  0.5736  0.3511 -0.6998
  993MOL0     C36901   5.997   9.207   1.910 -0.9179 -0.2292 -0.1109
  993MOL0     C36902   5.924   9.124   1.817 -1.1500  0.6094 -0.1343
  993MOL0     C36903   5.899   9.169   1.690 -0.0965 -0.1113  0.1162
  993MOL0     O36904   5.829   9.087   1.607  0.6501  0.4112 -0.2196
  993MOL0     C36905   5.789   9.128   1.475  1.0477 -0.0561  0.0785
  993MOL0     C36906   5.697   9.008   1.442 -0.5538 -0.3845  0.1618
  993MOL0     C36907   5.584   8.992   1.539 -0.6847 -0.9935 -0.4059
  993MOL0     C36908   5.489   8.878   1.516 -0.6052  0.9113  0.8129
  993MOL0     C36909   5.341   8.891   1.541 -0.6545 -1.1120  0.7489
  993MOL0     C36910   5.302   8.932   1.683 -0.0801 -0.0551  0.1791
  993MOL0     C36911   5.162   9.001   1.696 -0.2467  0.7805  0.3403
  993MOL0     C36912   5.045   8.913   1.639 -0.6918 -0.4120 -0.4873
  993MOL0     N36913   4.966   8.996   1.547  0.5482  0.4134 -0.2916
  993MOL0     C36914   4.886   9.105   1.591  0.3250 -0.1086  0.2269
  993MOL0     C36915   4.876   9.178   1.479  0.7457 -0.1966 -0.7088
  993MOL0     C36916   4.783   9.294   1.447 -0.2448  0.8914  0.1816
  993MOL0     C36917   4.813   9.422   1.534 -0.1187  0.3625  1.1460
  993MOL0     C36918   4.740   9.535   1.477  0.3118 -0.5903  1.1441
  993MOL0     C36919   4.588   9.533   1.491 -0.1865  0.7614 -0.5333
  993MOL0     O36920   4.538   9.500   1.631  0.0303  0.5188  0.0847
  993MOL0     C36921   4.403   9.478   1.642 -0.2291 -0.6600 -0.8118
  993MOL0     C36922   4.316   9.553   1.572  0.8098 -0.5916 -0.0103
  993MOL0     C36923   4.171   9.552   1.592  0.7232 -0.5878  0.6372
  993MOL0     C36924   4.087   9.641   1.499 -0.8640 -0.3429  0.0576
  993MOL0     C36925   4.122   9.461   1.687 -0.1881  0.4320  0.1359
  993MOL0     C36926   3.984   9.449   1.738 -0.3363  0.5391 -0.5383
  993MOL0     O36927   3.951   9.331   1.800  0.1432  0.0660 -0.8572
  993MOL0     C36928   3.826   9.322   1.861 -0.4248  0.0942 -0.0987
  993MOL0     C36929   3.787   9.414   1.958  0.4660  0.7268  0.7306
  993MOL0     C36930   3.655   9.400   2.016  0.4988  0.5035 -0.0135
  993MOL0     C36931   3.575   9.291   1.974 -0.7363 -0.4102 -0.0508
  993MOL0     O36932   3.452   9.278   2.026 -0.4240 -0.7498 -0.2108
  993MOL0     C36933   3.354   9.383   2.029 -0.7953  0.5107 -0.2375
  993MOL0     C36934   3.260   9.369   1.916 -0.4413 -0.8676  0.1339
  993MOL0     C36935   3.162   9.267   1.947 -0.0719 -0.8068  0.5466
  993MOL0     C36936   3.078   9.245   1.819  0.1054 -0.2220  0.7368
  993MOL0     C36937   2.973   9.129   1.806 -0.4355  0.8986  0.4874
  993MOL0     C36938   2.897   9.129   1.680 -0.6632 -0.3792  0.6449
  993MOL0     C36939   2.825   8.993   1.657 -0.2839 -0.4697  0.0466
  993MOL0     C36940   2.707   8.971   1.744 -0.3683  0.8203 -1.0228
  993MOL0    Cl36941   2.622   8.817   1.701 -0.2215 -0.0187 -0.2155
  993MOL0     C36942   3.614   9.201   1.872  0.1430  0.0924 -0.6913
  993MOL0     C36943   3.747   9.213   1.826  0.6982 -0.4911 -0.2628
  993MOL0     O36944   3.917   9.550   1.734  0.8997  0.5947  0.0279
  993MOL0     C36945   4.214   9.382   1.753 -0.6774 -0.9022 -1.0909
  993MOL0     C36946   4.354   9.399   1.736 -0.8698 -0.4573 -0.2211
  993MOL0     N36947   4.951   9.114   1.373  0.9340  0.2729 -0.1027
  993MOL0     N36948   4.999   9.011   1.415 -0.9309  0.6086  0.0731
  993MOL0     C36949   5.940   9.302   1.656 -0.8499  0.8377 -0.0774
  993MOL0     C36950   6.018   9.375   1.747 -0.8915 -0.0215 -0.0209
  993MOL0     C36951   6.137   9.528   2.167 -0.4051  0.3246 -1.6582
  993MOL0     C36952   6.090   9.540   2.294  0.2762  0.4749 -0.4669
  993MOL0     C36953   6.173   9.608   2.388  0.5524  1.2310  0.0634
  993MOL0     C36954   6.296   9.671   2.355  0.3661  0.8641 -0.4425
  993MOL0     O36955   6.363   9.748   2.443 -0.7598  0.3375 -0.7077
  993MOL0     C36956   6.405   9.688   2.560  0.3398  0.7185  0.2378
  993MOL0     C36957   6.518   9.779   2.618 -0.3898  0.3494  0.7622
  993MOL0     C36958   6.462   9.919   2.651 -0.4515  0.9685  0.2092
  993MOL0     C36959   6.341   9.931   2.750  0.2413  0.1149 -0.3080
  993MOL0     C36960   6.323  10.068   2.769 -0.3433 -1.1215  0.0947
  993MOL0     C36961   6.317  10.194   2.774  0.1947  0.5782  0.0963
  993MOL0     C36962   6.343   9.655   2.226 -0.2815  0.0252 -0.2472
  993MOL0     C36963   6.272   9.593   2.120  0.4639  0.6377 -0.6131
  993MOL0     C36964   6.323   9.600   1.983  0.6748  0.3039 -0.2366
  993MOL0     H36965   6.032   9.183   2.010  0.4034  2.8413  0.2757
  993MOL0     H36966   5.897   9.028   1.860  0.6225  1.1595  2.4303
  993MOL0     H36967   5.875   9.134   1.408  2.3321 -0.8689  1.5836
  993MOL0     H36968   5.734   9.221   1.490  0.5601 -0.7422  3.1214
  993MOL0     H36969   5.672   9.001   1.336  1.5125  0.7487 -0.4642
  993MOL0     H36970   5.757   8.918   1.462 -0.3776 -0.4630 -0.6831
  993MOL0     H36971   5.618   8.996   1.643  0.2933  0.8510 -0.7581
  993MOL0     H36972   5.524   9.084   1.538  1.5068  0.4883 -1.5164
  993MOL0     H36973   5.496   8.864   1.407 -0.8906  3.2935  0.4340
  993MOL0     H36974   5.524   8.797   1.580  2.0328  1.1980 -0.1143
  993MOL0     H36975   5.293   8.796   1.516 -0.9856 -0.7007 -0.2250
  993MOL0     H36976   5.296   8.966   1.476 -0.9323  0.3108  2.5206
  993MOL0     H36977   5.306   8.841   1.744  1.0416  0.0261  0.2408
  993MOL0     H36978   5.382   9.003   1.706 -1.4364  1.5212  0.2455
  993MOL0     H36979   5.164   9.103   1.658 -1.3577  1.9045  3.0727
  993MOL0     H36980   5.155   9.010   1.804  2.0778 -1.5685  0.7943
  993MOL0     H36981   5.091   8.823   1.596  0.0608 -1.3538  2.0707
  993MOL0     H36982   4.987   8.876   1.724 -1.7749  1.9758 -0.1260
  993MOL0     H36983   4.845   9.120   1.691 -0.4680 -0.2698 -0.0622
  993MOL0     H36984   4.682   9.253   1.442  0.3032 -0.5705  0.4671
  993MOL0     H36985   4.802   9.322   1.343  0.5948 -0.1897  0.0148
  993MOL0     H36986   4.790   9.411   1.641 -2.7566  0.2894  0.6448
  993MOL0     H36987   4.921   9.435   1.528 -0.0471  0.5710  2.6012
  993MOL0     H36988   4.772   9.620   1.537 -1.1064 -0.2973  1.5132
  993MOL0     H36989   4.767   9.552   1.372 -0.4382 -0.3504  0.9823
  993MOL0     H36990   4.548   9.629   1.456  4.5127  2.3221 -2.4785
  993MOL0     H36991   4.554   9.457   1.420 -2.0709  0.7586  0.3124
  993MOL0     H36992   4.349   9.622   1.495  2.4600 -0.6232  0.6410
  993MOL0     H36993   4.018   9.581   1.438 -0.2658  1.1783 -2.2755
  993MOL0     H36994   4.148   9.687   1.421 -1.9199  2.5262  0.8183
  993MOL0     H36995   4.038   9.713   1.565  3.2356  2.0414  0.8264
  993MOL0     H36996   3.858   9.488   1.995  0.3624  2.8268 -2.8015
  993MOL0     H36997   3.623   9.471   2.091  1.0387  1.4342 -0.6309
  993MOL0     H36998   3.306   9.395   2.127 -0.2114  0.9663  0.0020
  993MOL0     H36999   3.416   9.472   2.010 -0.4266  0.2398 -0.3039
  993MOL0     H37000   3.211   9.463   1.890 -0.3234 -0.4354  1.4035
  993MOL0     H37001   3.312   9.344   1.823  0.3577  2.7492 -0.5415
  993MOL0     H37002   3.096   9.284   2.032  0.4225 -4.4289  1.8249
  993MOL0     H37003   3.210   9.173   1.977  0.8240 -0.2301  0.9575
  993MOL0     H37004   3.148   9.250   1.735 -0.8086  1.1107  0.0142
  993MOL0     H37005   3.015   9.334   1.807 -1.1108 -0.5267  3.9836
  993MOL0     H37006   3.032   9.038   1.817 -1.6991  0.1786  1.5875
  993MOL0     H37007   2.900   9.140   1.887 -1.6522 -1.2688 -0.2405
  993MOL0     H37008   2.962   9.145   1.593  0.8733 -1.5827  1.5217
  993MOL0     H37009   2.830   9.215   1.680 -0.7700 -0.4494 -0.5496
  993MOL0     H37010   2.898   8.917   1.685  0.0073 -1.0110 -2.0211
  993MOL0     H37011   2.798   8.992   1.551 -3.3862 -3.3744  0.7067
  993MOL0     H37012   2.633   9.049   1.728 -2.3581 -0.9996 -1.2442
  993MOL0     H37013   2.736   8.962   1.849  0.0464  0.0416 -1.1916
  993MOL0     H37014   3.547   9.125   1.833  1.0310 -1.2132  0.2635
  993MOL0     H37015   3.793   9.138   1.763  2.8699 -1.2746  2.1130
  993MOL0     H37016   4.181   9.306   1.823 -1.0786 -2.7790 -3.1916
  993MOL0     H37017   4.422   9.357   1.810 -0.6556 -0.3847 -0.3767
  993MOL0     H37018   5.916   9.337   1.556 -1.2318 -0.5656 -0.4906
  993MOL0     H37019   6.039   9.476   1.712 -1.6300 -0.0183 -0.4775
  993MOL0     H37020   5.994   9.501   2.325  0.3491  1.2951  0.8905
  993MOL0     H37021   6.138   9.610   2.490  2.0581 -3.0747  0.8794
  993MOL0     H37022   6.323   9.674   2.631  0.0422 -2.7017 -0.5796
  993MOL0     H37023   6.443   9.586   2.542 -4.1473 -1.2384  0.4418
  993MOL0     H37024   6.598   9.776   2.544  0.4391  2.0214  1.5244
  993MOL0     H37025   6.558   9.736   2.711 -2.9925 -1.7906  1.0138
  993MOL0     H37026   6.548   9.969   2.698  0.5630  0.8593 -1.4496
  993MOL0     H37027   6.446   9.977   2.559 -1.9040 -0.9298 -0.7939
  993MOL0     H37028   6.369   9.893   2.849 -1.6782  1.1500  0.6874
  993MOL0     H37029   6.259   9.876   2.704  1.5386 -3.6580  1.5004
  993MOL0     H37030   6.306  10.300   2.786  1.0487  0.4796  2.0742
  993MOL0     H37031   6.439   9.705   2.220 -1.7962  3.3786  1.1506
  993MOL0     H37032   6.407   9.669   1.970  2.5412 -1.8972 -0.6863
  993MOL0     H37033   6.350   9.496   1.959 -1.1632  0.0206 -1.2629
  993MOL0     H37034   6.249   9.639   1.913 -1.2569 -1.6849  0.5696
  994MOL0     O37035   1.855   7.294   8.105 -0.3295 -0.0221 -0.2789
  994MOL0     C37036   1.803   7.199   8.159 -0.8396  0.2553  0.3012
  994MOL0     O37037   1.836   7.068   8.129  0.5015 -0.1629  0.0919
  994MOL0     C37038   1.947   7.049   8.053 -0.7837  0.5339 -0.3369
  994MOL0     C37039   1.943   6.945   7.956  0.0538  0.1217  0.5137
  994MOL0     C37040   2.063   6.893   7.900  0.2115 -0.4838 -0.6621
  994MOL0     C37041   2.188   6.958   7.932  0.1978 -0.1234  0.3542
  994MOL0     O37042   2.309   6.901   7.900  0.0808  0.0768  0.2823
  994MOL0     C37043   2.319   6.796   7.806  1.0165  0.6285  1.3977
  994MOL0     C37044   2.396   6.844   7.684 -0.3382 -0.1230 -0.4218
  994MOL0     C37045   2.539   6.904   7.710  0.6762  0.0704  0.9595
  994MOL0     C37046   2.646   6.797   7.671  0.5781  0.1746  0.5026
  994MOL0     C37047   2.796   6.845   7.662  0.2644 -0.4061 -0.0412
  994MOL0     C37048   2.889   6.724   7.685  0.7812  0.2562 -0.6643
  994MOL0     C37049   3.042   6.751   7.678 -1.0783 -0.3180  0.1165
  994MOL0     C37050   3.101   6.646   7.578 -0.7426  1.3584  0.2797
  994MOL0     N37051   3.245   6.673   7.558  0.2535 -0.7075 -0.0906
  994MOL0     C37052   3.357   6.639   7.625 -0.9417 -0.4936 -0.5401
  994MOL0     C37053   3.448   6.693   7.548  0.4850  0.1185 -0.0403
  994MOL0     C37054   3.595   6.693   7.571  0.9367 -0.1576  0.0160
  994MOL0     C37055   3.628   6.820   7.651 -0.0770  1.1970 -0.1095
  994MOL0     C37056   3.778   6.827   7.657 -0.6855 -0.4986 -0.5132
  994MOL0     C37057   3.836   6.959   7.706 -0.3010  0.4544 -0.1211
  994MOL0     O37058   3.790   7.062   7.618  0.4456  0.3622  0.3002
  994MOL0     C37059   3.834   7.192   7.634 -0.0778  0.2045 -0.7676
  994MOL0     C37060   3.805   7.286   7.534 -0.5304 -1.0875 -0.2493
  994MOL0     C37061   3.846   7.428   7.549  0.3124 -0.3306 -0.2499
  994MOL0     C37062   3.810   7.530   7.437  0.7550  0.8084 -0.2768
  994MOL0     C37063   3.920   7.467   7.662 -0.7114  0.5019 -0.6599
  994MOL0     C37064   3.980   7.591   7.682 -0.1671 -0.9463 -0.1874
  994MOL0     O37065   3.958   7.692   7.599 -0.3702 -0.0944  0.5167
  994MOL0     C37066   3.966   7.822   7.637  0.3454 -0.0779  0.0368
  994MOL0     C37067   4.055   7.900   7.558  1.0210  0.8171 -0.0625
  994MOL0     C37068   4.081   8.039   7.597 -0.7927 -0.1029  0.5730
  994MOL0     C37069   4.018   8.088   7.705  0.3603  0.2102  0.9316
  994MOL0     O37070   4.033   8.218   7.751  0.0246  0.4152 -0.2887
  994MOL0     C37071   4.159   8.280   7.727  0.4570  0.4407 -0.9295
  994MOL0     C37072   4.161   8.428   7.748 -0.4801 -0.4701  0.4992
  994MOL0     C37073   4.304   8.470   7.746  0.4493 -0.3848 -0.0710
  994MOL0     C37074   4.308   8.618   7.714 -0.2409  0.3181  0.0867
  994MOL0     C37075   4.440   8.686   7.703 -0.4587  0.1715 -0.0524
  994MOL0     C37076   4.523   8.666   7.840  0.1178  0.1100 -0.3480
  994MOL0     C37077   4.616   8.786   7.860  0.0351 -0.1540 -0.1587
  994MOL0     C37078   4.700   8.782   7.984 -0.3851  0.3923  0.2190
  994MOL0    Cl37079   4.828   8.898   7.984  0.2423  0.1190  0.5746
  994MOL0     C37080   3.919   8.011   7.774 -0.3082 -0.4025  0.0298
  994MOL0     C37081   3.903   7.882   7.746 -0.6180 -0.6194 -0.2309
  994MOL0     O37082   4.051   7.608   7.776  0.4711 -0.3988  0.2010
  994MOL0     C37083   3.935   7.366   7.760 -0.7577 -0.3576  0.4749
  994MOL0     C37084   3.910   7.227   7.739  0.5960 -0.0952 -0.2301
  994MOL0     N37085   3.396   6.763   7.439 -0.7409 -0.4069  0.3475
  994MOL0     N37086   3.275   6.741   7.445 -0.6227  0.0001 -0.0176
  994MOL0     C37087   2.181   7.068   8.015 -0.3721 -0.5809 -0.4689
  994MOL0     C37088   2.070   7.105   8.084  0.0600  0.3442 -0.4456
  994MOL0     C37089   1.673   7.218   8.220 -0.2835  0.7287 -0.7705
  994MOL0     C37090   1.575   7.113   8.216 -0.7142  0.3808 -0.7871
  994MOL0     C37091   1.444   7.123   8.270 -0.4579  0.0569 -0.4383
  994MOL0     C37092   1.402   7.240   8.321 -0.3291  0.3856  0.9269
  994MOL0     O37093   1.273   7.247   8.346 -0.6584 -0.0907 -0.1030
  994MOL0     C37094   1.230   7.280   8.477  0.4553 -0.7109  1.1940
  994MOL0     C37095   1.202   7.170   8.570 -0.5235  0.6100  0.5082
  994MOL0     C37096   1.333   7.087   8.582 -0.2035  0.4788  0.3115
  994MOL0     C37097   1.332   7.035   8.733  0.2159 -0.2899  0.4381
  994MOL0     C37098   1.432   6.936   8.753 -0.3277  0.4095 -0.0858
  994MOL0     C37099   1.521   6.851   8.758  1.1167  0.0784 -0.4269
  994MOL0     C37100   1.494   7.354   8.323 -0.2152  0.0619  0.3026
  994MOL0     C37101   1.630   7.333   8.285  0.7706  0.8183 -0.7406
  994MOL0     C37102   1.718   7.456   8.298 -1.5510 -0.3811  0.1440
  994MOL0     H37103   1.853   6.888   7.937 -1.2027  1.7875  1.2139
  994MOL0     H37104   2.051   6.812   7.829  0.0771  1.5354 -3.0911
  994MOL0     H37105   2.229   6.741   7.777  2.1227 -2.2772  3.0621
  994MOL0     H37106   2.382   6.721   7.856 -0.9879 -2.9264 -0.9289
  994MOL0     H37107   2.401   6.767   7.606  1.8392 -1.4941  0.9292
  994MOL0     H37108   2.322   6.918   7.653  0.5546  1.0112  0.0650
  994MOL0     H37109   2.559   6.991   7.647 -3.2130  1.3506  1.2270
  994MOL0     H37110   2.555   6.938   7.812 -0.8267 -3.9479  2.7593
  994MOL0     H37111   2.643   6.714   7.743  0.8496 -1.3540 -1.1769
  994MOL0     H37112   2.614   6.744   7.581  0.6148  0.3778  0.3690
  994MOL0     H37113   2.836   6.921   7.730 -0.8388  1.5633 -1.4855
  994MOL0     H37114   2.813   6.879   7.560  0.5246 -0.3735  0.0132
  994MOL0     H37115   2.859   6.681   7.781  0.4522  1.6576 -0.1113
  994MOL0     H37116   2.842   6.648   7.621 -1.7203  1.5120 -0.4198
  994MOL0     H37117   3.096   6.745   7.773 -0.6431  1.4792  0.0163
  994MOL0     H37118   3.051   6.852   7.637  2.0256 -0.2132  0.8225
  994MOL0     H37119   3.081   6.543   7.609  0.1505 -0.1218 -3.5610
  994MOL0     H37120   3.052   6.673   7.484  0.4589 -0.7095 -1.0148
  994MOL0     H37121   3.375   6.582   7.715  3.2835  0.7491 -0.4033
  994MOL0     H37122   3.653   6.700   7.479 -0.1784  2.0650 -0.5989
  994MOL0     H37123   3.615   6.601   7.626  0.1499  0.6035  1.6497
  994MOL0     H37124   3.590   6.902   7.591 -2.2492  0.7743  0.6010
  994MOL0     H37125   3.580   6.820   7.749  0.4545  1.9375  0.1589
  994MOL0     H37126   3.817   6.747   7.721 -1.2094 -0.0502  0.3707
  994MOL0     H37127   3.806   6.824   7.551 -2.5162  2.4815 -1.2036
  994MOL0     H37128   3.788   6.986   7.800 -0.3500 -0.6189  0.1679
  994MOL0     H37129   3.946   6.953   7.710 -0.2682  1.4741  1.3474
  994MOL0     H37130   3.752   7.258   7.444  0.2660 -2.9558 -0.1850
  994MOL0     H37131   3.894   7.588   7.398  2.7651 -2.9119 -2.0420
  994MOL0     H37132   3.737   7.596   7.485  2.4437  0.2702  3.3706
  994MOL0     H37133   3.763   7.476   7.353  3.4659 -0.0490 -1.3401
  994MOL0     H37134   4.091   7.863   7.462 -0.4932  0.7145 -0.6275
  994MOL0     H37135   4.147   8.105   7.541  0.9514 -0.7951  1.7427
  994MOL0     H37136   4.240   8.230   7.780  1.3742 -0.8371 -3.3962
  994MOL0     H37137   4.184   8.289   7.621  2.0897 -1.1710 -0.7297
  994MOL0     H37138   4.096   8.479   7.676 -0.0152 -1.6242 -0.7719
  994MOL0     H37139   4.117   8.446   7.847  1.2767  1.4367  1.0018
  994MOL0     H37140   4.364   8.425   7.667  1.7208  0.9264  0.1074
  994MOL0     H37141   4.349   8.445   7.843  0.7234  0.4189  0.0176
  994MOL0     H37142   4.239   8.682   7.769 -0.7203  0.1702 -0.3353
  994MOL0     H37143   4.270   8.624   7.612 -0.4406 -2.1047 -0.0310
  994MOL0     H37144   4.500   8.648   7.619  0.3053  0.0205  0.5516
  994MOL0     H37145   4.420   8.792   7.684  1.8098  0.1034 -3.8424
  994MOL0     H37146   4.578   8.573   7.824 -1.1796 -0.7095 -0.2429
  994MOL0     H37147   4.457   8.661   7.927  1.6039  1.2970  0.8992
  994MOL0     H37148   4.552   8.875   7.861 -0.5271 -0.4049 -3.2476
  994MOL0     H37149   4.688   8.791   7.777  0.3956 -0.3465  0.1385
  994MOL0     H37150   4.755   8.688   7.994  2.6951  2.2046  1.4876
  994MOL0     H37151   4.637   8.788   8.073 -0.8019  2.0896 -0.1499
  994MOL0     H37152   3.858   8.058   7.850 -0.2325  0.1151 -0.2252
  994MOL0     H37153   3.841   7.817   7.807  1.9801 -0.1121  3.2262
  994MOL0     H37154   3.977   7.387   7.858 -1.6442 -0.4437  0.8814
  994MOL0     H37155   3.954   7.161   7.813  2.7675  3.1859  1.6617
  994MOL0     H37156   2.271   7.126   8.032 -0.6265 -0.4091  0.3353
  994MOL0     H37157   2.068   7.186   8.156 -0.6966 -1.0037  1.1008
  994MOL0     H37158   1.604   7.020   8.169  0.6857  1.8797 -3.0717
  994MOL0     H37159   1.390   7.032   8.245  1.2035 -0.5715 -1.9353
  994MOL0     H37160   1.292   7.360   8.520 -1.7575  0.4535  2.3961
  994MOL0     H37161   1.137   7.335   8.463  2.0383  2.3091  1.7091
  994MOL0     H37162   1.127   7.112   8.516 -0.3298  1.7540 -1.0604
  994MOL0     H37163   1.159   7.204   8.665 -1.5438  0.6325  0.0433
  994MOL0     H37164   1.337   7.005   8.509  2.5570 -0.7350  1.6987
  994MOL0     H37165   1.418   7.153   8.567 -1.5360  1.9548 -1.3504
  994MOL0     H37166   1.239   6.986   8.762  1.0788 -2.3843 -0.1671
  994MOL0     H37167   1.361   7.118   8.799  1.7101 -2.6798  2.9909
  994MOL0     H37168   1.612   6.794   8.756  2.0977  1.6079 -2.5483
  994MOL0     H37169   1.450   7.450   8.347  1.0185  0.6175  0.4528
  994MOL0     H37170   1.826   7.446   8.310 -1.4255 -1.3470 -1.4903
  994MOL0     H37171   1.699   7.499   8.199 -1.1572 -1.3959 -0.3856
  994MOL0     H37172   1.683   7.530   8.371 -0.9664 -1.2755  1.3525
  995MOL0     O37173   7.772   1.002   2.256  0.4532  0.8773 -0.6017
  995MOL0     C37174   7.658   0.980   2.214  0.6056  0.9073  0.6772
  995MOL0     O37175   7.547   0.963   2.301  0.1438 -1.0801  0.2991
  995MOL0     C37176   7.570   0.926   2.431  0.5523 -0.4539 -0.6326
  995MOL0     C37177   7.601   1.024   2.527  0.5834  0.2358  0.4453
  995MOL0     C37178   7.637   0.983   2.654 -0.8876  1.3037 -0.1634
  995MOL0     C37179   7.633   0.847   2.687  0.0644  0.1022 -0.9860
  995MOL0     O37180   7.663   0.806   2.816  0.5607  0.7986  0.1170
  995MOL0     C37181   7.774   0.851   2.887 -0.0505 -0.6428 -0.5314
  995MOL0     C37182   7.776   0.798   3.033 -0.8442  0.8330 -0.0553
  995MOL0     C37183   7.915   0.732   3.083 -0.2531 -0.1788  0.2810
  995MOL0     C37184   7.903   0.695   3.232  0.2823 -0.3119 -0.1989
  995MOL0     C37185   8.034   0.668   3.304  0.2399 -0.2841 -0.2939
  995MOL0     C37186   8.119   0.795   3.316 -0.9248 -0.1977 -0.2455
  995MOL0     C37187   8.263   0.751   3.372 -0.2685  1.0752  0.3912
  995MOL0     C37188   8.364   0.865   3.360 -0.4863 -0.1455 -0.6667
  995MOL0     N37189   8.325   0.977   3.435  0.7999  0.8379 -0.0459
  995MOL0     C37190   8.342   0.980   3.572 -0.0905 -0.0765  0.0080
  995MOL0     C37191   8.287   1.096   3.613 -0.7867  0.6299 -0.5241
  995MOL0     C37192   8.276   1.155   3.752  0.2709  0.6442  0.1177
  995MOL0     C37193   8.147   1.230   3.782 -0.7873 -0.2351 -0.0772
  995MOL0     C37194   8.151   1.303   3.919  0.2006 -0.2003  0.4541
  995MOL0     C37195   8.058   1.423   3.940  0.3304 -0.3711  0.1292
  995MOL0     O37196   8.030   1.449   4.074  0.2612 -0.0912 -0.3558
  995MOL0     C37197   8.101   1.538   4.150 -0.2399 -0.4850  0.8437
  995MOL0     C37198   8.231   1.583   4.121 -0.4641 -0.5487 -0.3100
  995MOL0     C37199   8.292   1.687   4.195 -0.1263 -0.7335 -0.8115
  995MOL0     C37200   8.424   1.724   4.145 -0.5206 -0.0441  0.3222
  995MOL0     C37201   8.217   1.746   4.297  0.4785  0.3420  0.3015
  995MOL0     C37202   8.286   1.847   4.384  0.0773 -1.3306 -0.0299
  995MOL0     O37203   8.192   1.914   4.453 -0.1616 -0.1297  0.5633
  995MOL0     C37204   8.226   2.013   4.542  0.8801 -0.1445 -0.4098
  995MOL0     C37205   8.136   2.035   4.654 -0.8565  0.5386  1.0489
  995MOL0     C37206   8.166   2.144   4.745 -0.0581  0.4190 -0.2374
  995MOL0     C37207   8.276   2.231   4.735  0.4437  0.7454 -0.6693
  995MOL0     O37208   8.284   2.329   4.819  0.1080 -0.0843 -0.2336
  995MOL0     C37209   8.401   2.416   4.820  0.0734  0.2908 -0.0512
  995MOL0     C37210   8.366   2.527   4.726  1.1851 -0.0470  0.1276
  995MOL0     C37211   8.425   2.670   4.750  0.3209 -0.6755 -0.6247
  995MOL0     C37212   8.378   2.720   4.883 -0.6061 -0.9715 -0.0538
  995MOL0     C37213   8.389   2.875   4.905 -0.6027 -0.6619  0.2609
  995MOL0     C37214   8.425   2.909   5.056  0.2979  0.1214  0.4494
  995MOL0     C37215   8.473   3.048   5.073  0.6396 -0.4268 -0.1866
  995MOL0     C37216   8.369   3.154   5.031 -0.7006 -0.1094 -0.0064
  995MOL0    Cl37217   8.232   3.150   5.139  0.5177  0.0081 -0.1879
  995MOL0     C37218   8.353   2.213   4.621 -0.5732 -0.0273 -0.0581
  995MOL0     C37219   8.332   2.110   4.522  0.3278  0.3439 -1.3985
  995MOL0     O37220   8.408   1.863   4.385  0.7710 -0.4084 -1.0958
  995MOL0     C37221   8.086   1.700   4.330  0.4490  0.0014  0.1557
  995MOL0     C37222   8.022   1.607   4.244  0.0664  0.1226 -0.9525
  995MOL0     N37223   8.234   1.163   3.503  0.6310  0.8707  0.1995
  995MOL0     N37224   8.250   1.088   3.394  0.1185 -0.2579 -0.5736
  995MOL0     C37225   7.591   0.745   2.601 -0.0582 -0.3368  0.3113
  995MOL0     C37226   7.555   0.790   2.471 -0.2322 -0.3683  0.7434
  995MOL0     C37227   7.642   0.990   2.065  0.0771 -0.2940 -0.4869
  995MOL0     C37228   7.574   0.889   2.001 -0.2808  1.1062 -0.4990
  995MOL0     C37229   7.552   0.879   1.865 -0.1837 -0.1045 -0.8877
  995MOL0     C37230   7.609   0.981   1.793  0.4800  0.1835  0.2252
  995MOL0     O37231   7.568   0.970   1.663 -0.1032 -0.3843  0.1639
  995MOL0     C37232   7.544   1.102   1.604 -0.3425 -0.1532  0.2716
  995MOL0     C37233   7.442   1.089   1.493  0.1256 -0.6565 -1.1326
  995MOL0     C37234   7.464   1.175   1.367 -0.7694 -1.0935 -0.0706
  995MOL0     C37235   7.453   1.330   1.377  0.2125  0.0848 -0.9527
  995MOL0     C37236   7.554   1.394   1.467 -0.1043 -0.2185  0.1804
  995MOL0     C37237   7.644   1.436   1.541  0.3841  1.2284  1.0649
  995MOL0     C37238   7.685   1.081   1.844 -0.4164  0.3148 -0.2535
  995MOL0     C37239   7.701   1.094   1.974  0.3412  1.2677 -1.4733
  995MOL0     C37240   7.791   1.200   2.026  0.4200 -1.1425  0.2503
  995MOL0     H37241   7.609   1.129   2.499  3.1601 -0.2012 -0.7594
  995MOL0     H37242   7.658   1.051   2.736 -0.4789 -1.0169  1.7415
  995MOL0     H37243   7.790   0.960   2.889 -3.8790  0.0342 -0.2892
  995MOL0     H37244   7.852   0.795   2.834 -0.2849 -1.9856  0.5234
  995MOL0     H37245   7.736   0.882   3.090 -3.6683  0.9363 -1.9663
  995MOL0     H37246   7.702   0.717   3.035  0.9621 -0.9250 -1.1009
  995MOL0     H37247   7.945   0.645   3.024  1.0315  0.0519  0.5717
  995MOL0     H37248   7.995   0.804   3.067  0.1382 -1.2213 -3.0532
  995MOL0     H37249   7.851   0.780   3.277 -0.6188  1.3588 -4.0066
  995MOL0     H37250   7.842   0.605   3.240  1.1091 -0.9534 -0.7922
  995MOL0     H37251   8.079   0.597   3.233 -3.0199 -1.9106 -0.9487
  995MOL0     H37252   8.025   0.617   3.400 -0.2043 -2.6008 -1.4824
  995MOL0     H37253   8.130   0.837   3.216  1.2817 -5.2809 -2.5472
  995MOL0     H37254   8.076   0.863   3.390 -1.1710 -2.3050  1.6708
  995MOL0     H37255   8.296   0.679   3.296 -0.4245  1.1429  0.2586
  995MOL0     H37256   8.268   0.705   3.471  0.1969  1.3493  0.5014
  995MOL0     H37257   8.462   0.832   3.396 -1.6653 -1.0918  1.9199
  995MOL0     H37258   8.363   0.898   3.256 -3.4500  1.1859 -0.3270
  995MOL0     H37259   8.395   0.901   3.625 -1.3901 -1.0677 -0.1375
  995MOL0     H37260   8.353   1.228   3.776 -0.5036  1.5667 -0.1256
  995MOL0     H37261   8.285   1.072   3.823  4.2041  2.1704  1.6952
  995MOL0     H37262   8.134   1.313   3.712  2.9621  2.0507  1.5841
  995MOL0     H37263   8.051   1.178   3.778 -1.8659  1.7262 -2.2854
  995MOL0     H37264   8.131   1.226   3.994  1.2882 -2.3226 -1.3095
  995MOL0     H37265   8.252   1.324   3.956 -0.4659 -0.8257  2.8340
  995MOL0     H37266   8.100   1.510   3.888  0.8238 -1.3591 -1.1752
  995MOL0     H37267   7.971   1.404   3.876  2.8959  1.3510 -4.3149
  995MOL0     H37268   8.291   1.524   4.052 -1.2076  1.1622 -2.5501
  995MOL0     H37269   8.451   1.701   4.042  0.1307  3.8474 -0.5695
  995MOL0     H37270   8.493   1.674   4.213 -0.6208 -1.6439 -0.7043
  995MOL0     H37271   8.453   1.830   4.140 -0.4174  0.0003  1.6386
  995MOL0     H37272   8.050   1.969   4.656  1.3449 -2.7166 -1.2769
  995MOL0     H37273   8.094   2.164   4.823  0.5385  3.6840 -0.3933
  995MOL0     H37274   8.422   2.461   4.917 -0.3935  0.1381  0.1193
  995MOL0     H37275   8.488   2.354   4.794  1.3590 -0.4465  5.0744
  995MOL0     H37276   8.368   2.495   4.622 -1.4524 -1.5157  0.4345
  995MOL0     H37277   8.257   2.538   4.732  1.2226  0.4698 -0.0844
  995MOL0     H37278   8.375   2.733   4.676 -1.7872  1.3907  2.2768
  995MOL0     H37279   8.534   2.668   4.749  0.3620 -1.4097  1.2172
  995MOL0     H37280   8.437   2.673   4.962 -1.2247  2.0210  2.3778
  995MOL0     H37281   8.274   2.688   4.889 -0.7188 -0.8672 -1.1561
  995MOL0     H37282   8.455   2.918   4.830 -3.3052  2.0885 -0.7594
  995MOL0     H37283   8.290   2.911   4.875  0.0697  0.8759 -0.2170
  995MOL0     H37284   8.510   2.846   5.085  0.5622 -0.6814 -1.7930
  995MOL0     H37285   8.342   2.886   5.122  0.5533 -0.6188  0.5176
  995MOL0     H37286   8.563   3.039   5.011 -0.1730 -2.8383 -1.1280
  995MOL0     H37287   8.495   3.053   5.180  1.6112  3.5654 -0.4079
  995MOL0     H37288   8.350   3.114   4.931 -0.5225 -4.4723  1.4574
  995MOL0     H37289   8.416   3.252   5.029 -0.0887 -0.3784  0.6347
  995MOL0     H37290   8.423   2.287   4.583 -0.5559  0.4828  0.9308
  995MOL0     H37291   8.387   2.110   4.429  2.9877 -1.3014  0.0476
  995MOL0     H37292   8.021   1.730   4.412  2.2046 -2.6033  2.7026
  995MOL0     H37293   7.920   1.574   4.259  0.9094 -2.6870 -0.7327
  995MOL0     H37294   7.587   0.646   2.646 -0.0425  0.5498  2.3866
  995MOL0     H37295   7.519   0.720   2.396  0.6362 -1.5102  1.3493
  995MOL0     H37296   7.546   0.805   2.064  1.0046  1.1767  0.1987
  995MOL0     H37297   7.494   0.796   1.825  1.1487 -1.3331 -0.3421
  995MOL0     H37298   7.507   1.171   1.681  1.2819  0.2190  0.7637
  995MOL0     H37299   7.637   1.147   1.569 -1.0551 -1.3265 -3.5744
  995MOL0     H37300   7.340   1.111   1.526  0.6895  3.6932 -1.6979
  995MOL0     H37301   7.457   0.985   1.462  0.6626 -0.5864 -1.1102
  995MOL0     H37302   7.563   1.150   1.326 -0.2163  0.9168 -0.0528
  995MOL0     H37303   7.393   1.140   1.291 -0.6313  0.8168 -1.1418
  995MOL0     H37304   7.355   1.355   1.419 -0.9127 -2.6636 -1.7164
  995MOL0     H37305   7.449   1.377   1.278 -3.5592  2.3241  0.0488
  995MOL0     H37306   7.718   1.481   1.604  0.7426 -0.6687  2.0761
  995MOL0     H37307   7.746   1.147   1.783 -0.5536  2.5398  1.8770
  995MOL0     H37308   7.816   1.272   1.947  1.0522  0.9942  2.2726
  995MOL0     H37309   7.735   1.249   2.107 -1.4938 -1.1609 -1.0053
  995MOL0     H37310   7.883   1.158   2.068 -1.6948 -1.3762  5.4589
  996MOL0     O37311   6.945   0.385   1.368  0.2281 -0.5674  0.5826
  996MOL0     C37312   7.064   0.379   1.395 -0.3384  0.0062 -0.6383
  996MOL0     O37313   7.159   0.477   1.371 -0.5874 -0.7459 -0.1299
  996MOL0     C37314   7.118   0.582   1.307  0.0736 -0.1950 -0.0839
  996MOL0     C37315   7.081   0.582   1.172 -0.5765  0.1898 -0.2984
  996MOL0     C37316   7.029   0.702   1.117 -0.2463 -0.2092 -0.0886
  996MOL0     C37317   7.024   0.825   1.192 -0.6519  0.9283  0.4799
  996MOL0     O37318   6.987   0.936   1.118 -0.5594 -0.1500 -0.0670
  996MOL0     C37319   7.038   1.060   1.172  0.0906  0.7577 -0.0103
  996MOL0     C37320   6.967   1.165   1.091  0.3250 -0.7437 -0.2292
  996MOL0     C37321   6.999   1.308   1.148  0.1766 -0.7157 -0.5978
  996MOL0     C37322   6.916   1.419   1.071  0.3713 -0.6129  0.1993
  996MOL0     C37323   6.982   1.558   1.102 -0.0689  1.4007 -0.3214
  996MOL0     C37324   6.878   1.674   1.075 -0.0547 -0.0686 -0.9229
  996MOL0     C37325   6.746   1.682   1.163  0.0098 -0.1499 -0.0276
  996MOL0     C37326   6.682   1.821   1.176 -0.0127 -0.6271  0.0876
  996MOL0     N37327   6.770   1.925   1.235  0.4566  0.7814 -0.6566
  996MOL0     C37328   6.836   1.918   1.351  0.5834 -0.5408  0.1863
  996MOL0     C37329   6.912   2.026   1.362 -0.3612 -0.9499  0.1523
  996MOL0     C37330   7.015   2.056   1.469  0.1342 -0.2955  0.4588
  996MOL0     C37331   6.965   2.155   1.572  0.5896  0.2268  0.2075
  996MOL0     C37332   6.850   2.098   1.657  0.4912  0.0340 -0.3802
  996MOL0     C37333   6.908   2.064   1.795 -0.3064 -0.3204 -0.2180
  996MOL0     O37334   6.944   2.187   1.857 -0.0259  0.0591 -0.2224
  996MOL0     C37335   6.853   2.250   1.939 -0.4363  0.0693 -0.1238
  996MOL0     C37336   6.891   2.380   1.986 -0.6094 -0.1744  0.0833
  996MOL0     C37337   6.800   2.452   2.056 -0.9023 -0.4803  0.4749
  996MOL0     C37338   6.845   2.589   2.092  0.5861 -0.3678  0.6277
  996MOL0     C37339   6.677   2.399   2.103 -0.5806  0.0182 -0.0225
  996MOL0     C37340   6.561   2.475   2.171 -0.1303 -0.5328 -0.5117
  996MOL0     O37341   6.432   2.413   2.182 -0.3816  0.2362  0.2254
  996MOL0     C37342   6.322   2.486   2.189  0.6504 -0.8512 -0.2873
  996MOL0     C37343   6.290   2.580   2.096  0.0101  0.5744  1.3579
  996MOL0     C37344   6.179   2.665   2.102 -0.4475  0.4786  0.8610
  996MOL0     C37345   6.102   2.668   2.219  0.2183  0.1846 -0.3003
  996MOL0     O37346   5.984   2.738   2.228 -0.4850  0.9004 -0.4298
  996MOL0     C37347   5.865   2.683   2.289 -0.0449  0.2609 -0.3781
  996MOL0     C37348   5.743   2.773   2.238  0.8002 -0.1745  0.5390
  996MOL0     C37349   5.705   2.760   2.088  0.2276 -0.3667  0.3795
  996MOL0     C37350   5.561   2.758   2.051 -0.6143 -1.3796  1.2088
  996MOL0     C37351   5.534   2.759   1.894 -0.8036  1.3780 -0.0037
  996MOL0     C37352   5.567   2.880   1.819 -0.0359 -0.5809 -0.1391
  996MOL0     C37353   5.537   2.888   1.671  0.0819  0.5832  0.6478
  996MOL0     C37354   5.609   2.990   1.593 -0.3792  0.8917 -0.3388
  996MOL0    Cl37355   5.783   2.975   1.597  0.1464  0.2613 -0.4436
  996MOL0     C37356   6.132   2.568   2.322 -0.0109 -0.1617 -0.5046
  996MOL0     C37357   6.235   2.478   2.300  0.2600  0.5135 -0.0200
  996MOL0     O37358   6.586   2.591   2.204  0.0261 -0.4020 -0.4559
  996MOL0     C37359   6.643   2.265   2.056 -0.8801 -0.7795 -0.9267
  996MOL0     C37360   6.726   2.205   1.960  0.7091 -0.1696 -0.2940
  996MOL0     N37361   6.902   2.096   1.243  0.9377  0.2566  0.8197
  996MOL0     N37362   6.821   2.033   1.163 -0.4501 -0.5724 -0.1963
  996MOL0     C37363   7.074   0.816   1.326  0.0316 -0.7491 -0.1854
  996MOL0     C37364   7.117   0.698   1.386  0.3858  1.3282  0.2602
  996MOL0     C37365   7.115   0.246   1.420 -0.0442  0.3421  0.2144
  996MOL0     C37366   7.072   0.146   1.343  0.0426  0.0886  0.1556
  996MOL0     C37367   7.120   0.011   1.352  0.3813  0.1864  0.2450
  996MOL0     C37368   7.210  -0.022   1.455 -0.0449  0.0439 -0.2221
  996MOL0     O37369   7.244  -0.154   1.464 -0.4676  0.3719  0.1427
  996MOL0     C37370   7.273  -0.212   1.589  0.3648 -0.3449 -0.0276
  996MOL0     C37371   7.271  -0.365   1.572  0.4584 -1.0118 -0.0955
  996MOL0     C37372   7.153  -0.431   1.494 -0.1171 -0.1782  0.4484
  996MOL0     C37373   7.062  -0.496   1.591 -0.2207 -1.1048 -0.3217
  996MOL0     C37374   7.116  -0.629   1.621  0.4414 -0.3976  0.6753
  996MOL0     C37375   7.156  -0.747   1.610 -0.5122  0.5632  0.7599
  996MOL0     C37376   7.247   0.079   1.545  0.8285 -0.0259 -0.2886
  996MOL0     C37377   7.197   0.204   1.526  0.6097 -0.4734 -0.4502
  996MOL0     C37378   7.239   0.309   1.631  0.9725 -0.1006 -0.2855
  996MOL0     H37379   7.092   0.498   1.104  1.9587 -1.4131  1.8538
  996MOL0     H37380   7.000   0.709   1.012 -0.5010 -0.3514 -0.0283
  996MOL0     H37381   7.146   1.068   1.161 -0.0312  0.5383 -1.6326
  996MOL0     H37382   7.004   1.067   1.276 -3.1312 -0.4463 -0.8618
  996MOL0     H37383   6.995   1.154   0.986 -0.6626  0.2289 -0.6075
  996MOL0     H37384   6.862   1.139   1.083 -0.5150  2.1952 -0.1388
  996MOL0     H37385   6.994   1.307   1.257 -2.0016  0.0376 -0.6311
  996MOL0     H37386   7.107   1.319   1.136  0.6445 -2.9176  0.9738
  996MOL0     H37387   6.911   1.408   0.962  2.8883 -2.5108  0.1738
  996MOL0     H37388   6.815   1.418   1.113 -0.4431 -0.8150 -1.6392
  996MOL0     H37389   7.069   1.578   1.038 -1.0565 -0.8285 -2.5457
  996MOL0     H37390   6.994   1.569   1.210  0.7772 -0.7738 -0.1445
  996MOL0     H37391   6.930   1.766   1.103 -2.6722  1.6823 -1.4251
  996MOL0     H37392   6.856   1.675   0.968  0.3558 -2.2248 -1.0876
  996MOL0     H37393   6.760   1.633   1.260 -0.8817  0.6380  0.5211
  996MOL0     H37394   6.666   1.629   1.110 -0.5750  0.7612 -0.0798
  996MOL0     H37395   6.638   1.863   1.085  0.2910  0.2125  0.3226
  996MOL0     H37396   6.603   1.812   1.251  0.3011 -0.9450  0.3849
  996MOL0     H37397   6.847   1.839   1.425  3.2473 -1.2040 -0.8136
  996MOL0     H37398   7.094   2.098   1.406 -1.1709  2.4229  0.4713
  996MOL0     H37399   7.042   1.965   1.522 -0.4372  0.8013  2.7867
  996MOL0     H37400   7.051   2.191   1.629  1.2826  2.4625 -2.0917
  996MOL0     H37401   6.925   2.247   1.529  2.3751  0.6782 -0.5419
  996MOL0     H37402   6.774   2.175   1.654  2.9804  2.6261 -1.3052
  996MOL0     H37403   6.801   2.016   1.605 -0.3962 -1.2992  2.3346
  996MOL0     H37404   6.845   1.996   1.853  1.7535 -2.5364 -0.4188
  996MOL0     H37405   7.010   2.025   1.786  1.0304  2.5152  1.3202
  996MOL0     H37406   6.985   2.423   1.953 -1.3205  1.5310  0.2027
  996MOL0     H37407   6.952   2.608   2.084  0.4300 -0.2743 -3.7420
  996MOL0     H37408   6.827   2.599   2.199  2.9744  1.4621  0.9333
  996MOL0     H37409   6.785   2.659   2.033  1.9933 -0.9466 -1.6062
  996MOL0     H37410   6.343   2.589   2.002 -0.9197 -0.4914  0.7072
  996MOL0     H37411   6.133   2.710   2.015  0.8235  1.2398  0.5492
  996MOL0     H37412   5.843   2.584   2.249  0.7660  1.7529 -5.1721
  996MOL0     H37413   5.877   2.682   2.398  1.8352  0.5288 -0.5428
  996MOL0     H37414   5.658   2.736   2.297  1.1227 -1.1087  0.4492
  996MOL0     H37415   5.764   2.876   2.266  2.6132 -0.9357  2.2430
  996MOL0     H37416   5.751   2.665   2.059  0.0189 -0.4930  0.4559
  996MOL0     H37417   5.751   2.839   2.028  0.8115 -2.3776 -1.9599
  996MOL0     H37418   5.505   2.836   2.103 -0.8067  0.3893 -1.4900
  996MOL0     H37419   5.512   2.667   2.089  0.0314 -2.6831 -0.9163
  996MOL0     H37420   5.598   2.684   1.847  0.2753  1.9590  0.5114
  996MOL0     H37421   5.428   2.734   1.883 -0.3265 -2.2837  2.0398
  996MOL0     H37422   5.674   2.903   1.824  0.0784  0.0716 -3.5466
  996MOL0     H37423   5.506   2.964   1.854  1.1423  1.0926 -1.9082
  996MOL0     H37424   5.429   2.891   1.658  0.1892  1.0144 -0.2235
  996MOL0     H37425   5.574   2.793   1.632  0.3909  1.5664 -1.5698
  996MOL0     H37426   5.583   3.091   1.627 -2.1655  1.0345 -1.9644
  996MOL0     H37427   5.582   2.983   1.487  0.2243  0.0132 -0.4378
  996MOL0     H37428   6.080   2.573   2.417  0.9767  1.5621  0.0043
  996MOL0     H37429   6.260   2.401   2.373  0.0307  1.7162  1.3781
  996MOL0     H37430   6.548   2.222   2.085  0.2875 -0.7392  3.5611
  996MOL0     H37431   6.688   2.107   1.931  2.4540 -0.6316 -1.1350
  996MOL0     H37432   7.088   0.904   1.388  0.2221 -0.7880 -0.1733
  996MOL0     H37433   7.140   0.697   1.492  4.6805  0.3201 -0.5036
  996MOL0     H37434   7.004   0.146   1.258  1.8808 -2.4655 -1.4813
  996MOL0     H37435   7.102  -0.059   1.271  0.3797  0.7217 -0.2241
  996MOL0     H37436   7.367  -0.168   1.622 -0.8344  1.9650  0.5452
  996MOL0     H37437   7.190  -0.195   1.658  1.5216 -0.4107  1.4131
  996MOL0     H37438   7.271  -0.396   1.677  5.1515 -2.0317 -0.1782
  996MOL0     H37439   7.373  -0.387   1.539  1.2600 -0.1371  1.7060
  996MOL0     H37440   7.080  -0.369   1.441 -1.3178 -1.5056  0.4672
  996MOL0     H37441   7.193  -0.492   1.412  5.1337  0.2315  2.3558
  996MOL0     H37442   6.972  -0.509   1.530  1.1632 -0.9164 -2.5421
  996MOL0     H37443   7.044  -0.437   1.681  1.2960 -0.0782 -0.6476
  996MOL0     H37444   7.185  -0.850   1.606 -3.6929 -0.5355  2.3679
  996MOL0     H37445   7.307   0.052   1.631  0.8179 -0.6476 -0.4703
  996MOL0     H37446   7.262   0.402   1.577  2.2739  0.4322  1.0906
  996MOL0     H37447   7.159   0.334   1.700  1.4455  2.8084 -0.6548
  996MOL0     H37448   7.327   0.277   1.687 -1.2273 -3.6132  1.4853
  997MOL0     O37449  10.950   6.479   1.181 -0.2439 -0.5858 -0.3962
  997MOL0     C37450  10.976   6.594   1.208  0.5341 -0.1331 -0.0465
  997MOL0     O37451  10.918   6.703   1.156 -0.2195 -0.4713  0.1181
  997MOL0     C37452  10.860   6.692   1.028 -0.9354  0.4670 -0.1781
  997MOL0     C37453  10.728   6.667   1.021  0.9956 -0.9906 -0.1476
  997MOL0     C37454  10.667   6.657   0.899 -0.0523  0.2265 -0.2608
  997MOL0     C37455  10.736   6.683   0.779 -0.1251 -0.0734  0.0755
  997MOL0     O37456  10.666   6.675   0.659 -0.3798 -0.0897  0.1971
  997MOL0     C37457  10.728   6.706   0.531 -0.2759  0.0609 -0.4174
  997MOL0     C37458  10.715   6.848   0.505  0.2952  0.1443  0.1627
  997MOL0     C37459  10.569   6.906   0.486 -0.0936  0.2417 -0.1982
  997MOL0     C37460  10.571   7.055   0.452  0.1637 -1.0335  0.0946
  997MOL0     C37461  10.470   7.090   0.340 -0.0558 -0.0841 -0.1748
  997MOL0     C37462  10.494   7.052   0.197  0.8983  0.4462  0.1599
  997MOL0     C37463  10.370   7.102   0.117  0.6115  0.1378 -0.6346
  997MOL0     C37464  10.355   7.005  -0.002 -0.4341 -0.9884 -0.2165
  997MOL0     N37465  10.246   7.050  -0.085  0.0488 -0.6531 -0.0320
  997MOL0     C37466  10.142   6.966  -0.117 -1.0347  0.1452  0.6064
  997MOL0     C37467  10.048   7.042  -0.185 -0.5068 -0.4796  0.4989
  997MOL0     C37468   9.911   6.990  -0.215  0.4201  0.6839 -0.8275
  997MOL0     C37469   9.901   6.932  -0.350  0.8397  0.8786  0.3199
  997MOL0     C37470   9.759   6.910  -0.400  0.2030  0.4764 -0.1024
  997MOL0     C37471   9.754   6.850  -0.540 -0.1563 -0.2946  0.9264
  997MOL0     O37472   9.744   6.707  -0.547  0.3936 -0.3882 -0.3113
  997MOL0     C37473   9.632   6.654  -0.593 -0.8766  0.0609  0.0426
  997MOL0     C37474   9.498   6.685  -0.554  0.5070 -0.1236 -0.9614
  997MOL0     C37475   9.386   6.613  -0.594 -1.0197 -0.3877 -0.1314
  997MOL0     C37476   9.257   6.692  -0.576  1.0198  0.8222  0.6455
  997MOL0     C37477   9.407   6.491  -0.669  0.4079  0.5865 -0.3459
  997MOL0     C37478   9.287   6.394  -0.685  1.2674 -0.3457  0.1186
  997MOL0     O37479   9.183   6.408  -0.594 -0.5483 -0.3603  0.7627
  997MOL0     C37480   9.075   6.317  -0.590  0.1897 -0.7308  0.4287
  997MOL0     C37481   9.028   6.273  -0.460 -0.8803 -0.0621  0.3108
  997MOL0     C37482   8.921   6.178  -0.456  0.6146  0.4284  0.5827
  997MOL0     C37483   8.855   6.140  -0.577  0.6985  0.8903 -0.0861
  997MOL0     O37484   8.747   6.051  -0.584 -0.5594 -0.7469 -0.0691
  997MOL0     C37485   8.730   5.944  -0.495 -0.4872  0.8275  0.3881
  997MOL0     C37486   8.638   5.989  -0.381 -0.3993  1.1492  0.0973
  997MOL0     C37487   8.494   5.962  -0.422  0.0342 -0.6067 -0.1016
  997MOL0     C37488   8.399   5.987  -0.296 -0.1384 -0.9687 -0.4141
  997MOL0     C37489   8.254   6.008  -0.350  0.1358  0.2844  0.7696
  997MOL0     C37490   8.142   6.005  -0.235 -0.4625  0.3981  0.2322
  997MOL0     C37491   8.139   6.140  -0.158 -0.2511 -0.5009  0.0036
  997MOL0     C37492   8.004   6.163  -0.074  0.0218 -0.1277  0.8792
  997MOL0    Cl37493   8.008   6.314   0.035 -0.1772  0.0365  0.0411
  997MOL0     C37494   8.894   6.199  -0.695  0.3533 -0.2026  0.0002
  997MOL0     C37495   9.001   6.282  -0.695  0.4601 -0.2868  1.0391
  997MOL0     O37496   9.293   6.306  -0.771 -0.7335 -0.4036  0.5421
  997MOL0     C37497   9.537   6.467  -0.723  0.2140 -0.6106  0.5447
  997MOL0     C37498   9.647   6.545  -0.678  0.4635 -0.2929 -0.8505
  997MOL0     N37499  10.113   7.164  -0.200  0.2713 -0.0345 -0.6914
  997MOL0     N37500  10.228   7.170  -0.153 -0.3130 -0.1693 -0.7893
  997MOL0     C37501  10.880   6.703   0.781  0.4311 -0.4590 -0.7506
  997MOL0     C37502  10.939   6.699   0.907 -0.0642  0.0518 -0.1538
  997MOL0     C37503  11.036   6.609   1.336  0.9703  0.1659 -0.0081
  997MOL0     C37504  11.006   6.728   1.409  0.1794  0.8391  0.1043
  997MOL0     C37505  11.064   6.754   1.522  0.7567  0.1978  0.3153
  997MOL0     C37506  11.165   6.675   1.571 -0.2299 -0.0322 -1.1321
  997MOL0     O37507  11.232   6.710   1.684 -0.3418 -0.3530 -0.0016
  997MOL0     C37508  11.357   6.639   1.719  0.0232  0.0755  0.3619
  997MOL0     C37509  11.413   6.677   1.861  0.2203 -0.0382 -0.0662
  997MOL0     C37510  11.429   6.828   1.871 -0.6558  0.6856 -0.8660
  997MOL0     C37511  11.518   6.847   1.996  0.3537  0.5500 -0.2515
  997MOL0     C37512  11.517   6.976   2.062 -0.4660 -0.0642  0.2758
  997MOL0     C37513  11.512   7.082   2.127 -1.0123  0.5401  0.8595
  997MOL0     C37514  11.176   6.551   1.519 -0.5691 -0.6761  0.0476
  997MOL0     C37515  11.113   6.504   1.405 -0.3648  0.0301  0.2678
  997MOL0     C37516  11.133   6.360   1.359 -0.5755 -0.5658  0.5694
  997MOL0     H37517  10.675   6.657   1.115  1.2945  3.0498  0.6668
  997MOL0     H37518  10.563   6.631   0.888 -0.7724  1.0461  3.3853
  997MOL0     H37519  10.680   6.658   0.446  2.6086 -0.0391 -2.1353
  997MOL0     H37520  10.830   6.667   0.526 -0.8533 -1.3815 -1.9379
  997MOL0     H37521  10.760   6.891   0.594  0.2435  1.0815 -0.2500
  997MOL0     H37522  10.782   6.872   0.422  0.8481 -2.4237 -0.2398
  997MOL0     H37523  10.530   6.855   0.397  1.7208 -0.4241 -0.6635
  997MOL0     H37524  10.515   6.891   0.580  1.3526 -0.4204  0.5601
  997MOL0     H37525  10.543   7.112   0.541 -2.6356  0.4381 -1.6059
  997MOL0     H37526  10.669   7.089   0.417  0.3004  0.3716  1.6705
  997MOL0     H37527  10.443   7.194   0.358 -3.2276 -1.2709  3.1744
  997MOL0     H37528  10.374   7.049   0.373 -1.0402  1.4336 -1.0254
  997MOL0     H37529  10.581   7.105   0.156 -0.4197  0.6775 -2.5661
  997MOL0     H37530  10.505   6.944   0.185 -0.8270  0.3760 -1.2677
  997MOL0     H37531  10.372   7.208   0.089 -2.5593  0.9609  1.7010
  997MOL0     H37532  10.279   7.077   0.172  2.5932 -1.0469  2.3477
  997MOL0     H37533  10.451   7.020  -0.052  0.4381 -0.7843  1.4553
  997MOL0     H37534  10.344   6.900   0.026  0.6729 -0.4590  2.6180
  997MOL0     H37535  10.151   6.865  -0.077  0.1952 -1.0354 -2.3169
  997MOL0     H37536   9.845   7.075  -0.198  1.3971  1.7536 -2.1733
  997MOL0     H37537   9.885   6.917  -0.138 -1.0164 -0.5796 -2.4506
  997MOL0     H37538   9.952   6.999  -0.421 -0.0339 -1.1295 -2.3592
  997MOL0     H37539   9.958   6.841  -0.329  0.2471  0.8797  2.0209
  997MOL0     H37540   9.712   6.845  -0.326  2.0874 -3.0858 -1.7408
  997MOL0     H37541   9.706   7.005  -0.388 -3.2300 -1.3483  0.3452
  997MOL0     H37542   9.664   6.896  -0.583 -0.1410 -0.6057  0.5578
  997MOL0     H37543   9.831   6.888  -0.607 -0.1578 -2.5783 -0.4708
  997MOL0     H37544   9.484   6.772  -0.491  3.0887  1.3191 -2.2560
  997MOL0     H37545   9.279   6.798  -0.559  1.2716  0.5875  1.8770
  997MOL0     H37546   9.197   6.653  -0.493  2.2810 -1.3867  0.5947
  997MOL0     H37547   9.196   6.691  -0.667  0.5259  0.6251  0.9749
  997MOL0     H37548   9.060   6.299  -0.359  0.7787 -4.5292  1.2056
  997MOL0     H37549   8.883   6.129  -0.367 -0.1147 -1.6125 -0.7686
  997MOL0     H37550   8.683   5.855  -0.537  0.4456  0.4539  0.0996
  997MOL0     H37551   8.826   5.899  -0.468 -2.0258 -2.4612  0.9090
  997MOL0     H37552   8.666   5.919  -0.302  0.0365 -0.2583 -1.2391
  997MOL0     H37553   8.660   6.084  -0.334  1.2188  0.2248  1.2993
  997MOL0     H37554   8.479   5.857  -0.446  0.2769 -1.1209  1.8710
  997MOL0     H37555   8.451   6.033  -0.493 -1.3909  2.1946  3.2524
  997MOL0     H37556   8.434   6.081  -0.252 -0.5328 -1.4868  1.0227
  997MOL0     H37557   8.399   5.917  -0.213 -4.0224  3.3192  3.7936
  997MOL0     H37558   8.254   6.108  -0.393 -1.3138  0.1576  0.4152
  997MOL0     H37559   8.224   5.933  -0.424  3.8088 -1.2468  0.6224
  997MOL0     H37560   8.148   5.916  -0.171  0.3184  0.3326  0.0786
  997MOL0     H37561   8.049   5.987  -0.290  0.2736  3.3845 -2.2517
  997MOL0     H37562   8.129   6.219  -0.232  1.8203 -0.2038 -0.0065
  997MOL0     H37563   8.231   6.159  -0.102 -0.9169 -1.0019  1.3380
  997MOL0     H37564   7.985   6.073  -0.015 -0.6094  0.4030  1.4935
  997MOL0     H37565   7.920   6.165  -0.144 -1.1295  0.7780  2.2481
  997MOL0     H37566   8.840   6.180  -0.787  0.9205 -2.5747  0.0890
  997MOL0     H37567   9.020   6.328  -0.791 -0.5883 -1.9962 -0.0382
  997MOL0     H37568   9.546   6.384  -0.792  2.2713  0.3199 -0.4045
  997MOL0     H37569   9.750   6.524  -0.705  0.0323 -0.5623 -2.3469
  997MOL0     H37570  10.929   6.709   0.685 -0.7980 -0.7018 -1.4246
  997MOL0     H37571  11.045   6.708   0.929 -0.2215 -0.7479  1.0635
  997MOL0     H37572  10.945   6.808   1.370  0.7652  1.7942  1.0868
  997MOL0     H37573  11.044   6.849   1.571 -1.2756  0.9127 -1.7123
  997MOL0     H37574  11.327   6.534   1.729 -0.7716  0.5162  4.0628
  997MOL0     H37575  11.440   6.650   1.650  0.2453  2.0959  0.9094
  997MOL0     H37576  11.510   6.632   1.880  2.0533  3.7199  0.4185
  997MOL0     H37577  11.354   6.635   1.944  1.5872 -0.7188  0.5948
  997MOL0     H37578  11.468   6.876   1.781 -1.3437 -0.7311 -1.9555
  997MOL0     H37579  11.334   6.875   1.896  1.0890  1.7773  5.5083
  997MOL0     H37580  11.621   6.828   1.966 -0.2005 -1.7536 -0.9054
  997MOL0     H37581  11.490   6.779   2.077 -1.0906  1.1394 -0.2280
  997MOL0     H37582  11.521   7.167   2.191 -1.3111  1.7214 -0.5862
  997MOL0     H37583  11.239   6.478   1.571  1.4579  0.2963 -0.9221
  997MOL0     H37584  11.217   6.325   1.419 -0.4640 -2.2727 -0.5070
  997MOL0     H37585  11.037   6.309   1.373 -1.7313  1.7589  1.5806
  997MOL0     H37586  11.170   6.363   1.256 -3.5044  1.5663 -0.5789
  998MOL0     O37587   1.595   1.364   7.769  0.4821 -0.1702  1.1580
  998MOL0     C37588   1.554   1.346   7.652  0.6063  0.0062 -0.3790
  998MOL0     O37589   1.438   1.275   7.617 -0.4078 -0.4935  0.0518
  998MOL0     C37590   1.357   1.243   7.723  0.0965 -0.2600 -0.2000
  998MOL0     C37591   1.332   1.103   7.738 -0.3498 -0.3147  0.1643
  998MOL0     C37592   1.251   1.063   7.853 -0.4605 -0.0396 -0.2825
  998MOL0     C37593   1.180   1.159   7.929  0.1114  0.7299  0.5034
  998MOL0     O37594   1.109   1.121   8.035  0.3519  0.3251 -0.1385
  998MOL0     C37595   0.975   1.082   8.018 -0.0944 -0.2162 -1.1867
  998MOL0     C37596   0.933   1.018   7.893 -0.1905  0.1218 -0.4729
  998MOL0     C37597   0.783   0.969   7.889  0.8382  0.7659 -0.7202
  998MOL0     C37598   0.754   0.829   7.818 -0.3165  0.3594 -1.0049
  998MOL0     C37599   0.818   0.705   7.900  0.3431 -0.8287  0.7104
  998MOL0     C37600   0.751   0.672   8.035  0.0498  0.7832  0.7925
  998MOL0     C37601   0.762   0.536   8.090 -0.4053  0.8873 -0.1894
  998MOL0     C37602   0.741   0.531   8.250 -0.5430  0.7971  0.9020
  998MOL0     N37603   0.833   0.611   8.329 -0.1424 -0.3619  0.1091
  998MOL0     C37604   0.968   0.611   8.320 -0.0776  0.1401 -0.1290
  998MOL0     C37605   1.024   0.691   8.410 -0.0778  1.1238 -1.1731
  998MOL0     C37606   1.174   0.713   8.428 -0.6575  0.9646 -0.5356
  998MOL0     C37607   1.212   0.766   8.565  0.0682 -0.1010  0.0759
  998MOL0     C37608   1.358   0.741   8.594 -0.4722 -0.4684  0.5684
  998MOL0     C37609   1.409   0.838   8.697  0.2965  0.5374  0.4431
  998MOL0     O37610   1.326   0.825   8.815 -0.8413  0.2623  0.6274
  998MOL0     C37611   1.259   0.937   8.859  0.6791 -0.8975  0.9176
  998MOL0     C37612   1.305   1.076   8.866  0.8051  0.2634 -0.4532
  998MOL0     C37613   1.204   1.173   8.893 -1.0783  0.3227 -1.0355
  998MOL0     C37614   1.243   1.316   8.882  0.2089  0.6549  0.2251
  998MOL0     C37615   1.070   1.145   8.906  0.1677 -0.7742 -0.5173
  998MOL0     C37616   0.974   1.251   8.927  0.3156  0.4375 -0.2881
  998MOL0     O37617   0.954   1.284   9.057 -0.1844  0.3324 -0.4633
  998MOL0     C37618   0.878   1.395   9.084  0.2041  0.2372 -0.5136
  998MOL0     C37619   0.816   1.406   9.213 -0.3236  0.1444 -0.7027
  998MOL0     C37620   0.746   1.518   9.259 -0.6271  0.8956  0.3273
  998MOL0     C37621   0.728   1.627   9.171  0.1142  0.3193  0.2841
  998MOL0     O37622   0.667   1.729   9.220 -0.3722 -0.5168  0.3445
  998MOL0     C37623   0.592   1.806   9.125 -0.0394  0.6192  0.1092
  998MOL0     C37624   0.477   1.735   9.055  0.1288  0.1416 -0.1620
  998MOL0     C37625   0.378   1.661   9.155  0.1644 -0.3365 -0.2089
  998MOL0     C37626   0.364   1.510   9.141  0.4490 -0.2007 -0.5374
  998MOL0     C37627   0.265   1.434   9.226 -0.1734 -0.2625 -0.6535
  998MOL0     C37628   0.116   1.446   9.186 -0.0761 -0.4521  0.5741
  998MOL0     C37629   0.038   1.362   9.295  0.6994  0.2134  0.1066
  998MOL0     C37630  -0.105   1.383   9.279  0.4842  0.2225  0.3898
  998MOL0    Cl37631  -0.159   1.300   9.127 -0.3690  0.1325 -0.1212
  998MOL0     C37632   0.781   1.614   9.039  0.4688  0.0616  0.0618
  998MOL0     C37633   0.865   1.507   9.004  0.7879  0.2499  1.3214
  998MOL0     O37634   0.913   1.288   8.828  1.1620  0.4818  0.1205
  998MOL0     C37635   1.038   1.009   8.899  1.0540  0.0770 -0.8351
  998MOL0     C37636   1.133   0.910   8.906 -0.0014 -0.2363  0.3301
  998MOL0     N37637   0.919   0.743   8.479 -0.5546  0.2602  0.4721
  998MOL0     N37638   0.806   0.685   8.438 -0.4808 -0.1375  0.6339
  998MOL0     C37639   1.200   1.291   7.903 -0.5628 -0.2257 -0.3542
  998MOL0     C37640   1.289   1.338   7.809  0.5538 -0.8082  0.4717
  998MOL0     C37641   1.657   1.372   7.546  0.1534 -0.3045 -0.9956
  998MOL0     C37642   1.709   1.264   7.471 -0.5020  0.1895  0.7027
  998MOL0     C37643   1.808   1.277   7.377  0.1247  1.0613  0.3327
  998MOL0     C37644   1.867   1.402   7.366 -0.0426  0.8799  0.4470
  998MOL0     O37645   1.960   1.434   7.267  0.1756  0.0071 -0.1607
  998MOL0     C37646   2.008   1.337   7.175  0.7388 -0.4041 -0.0876
  998MOL0     C37647   2.091   1.405   7.071 -0.6949 -0.3179  0.6594
  998MOL0     C37648   2.165   1.305   6.983 -0.0952  0.1354 -0.8102
  998MOL0     C37649   2.079   1.260   6.859 -0.3478 -0.2656 -0.4097
  998MOL0     C37650   1.979   1.159   6.893 -0.3641 -0.2471 -0.1376
  998MOL0     C37651   1.894   1.081   6.923 -0.2322 -0.1841  0.3481
  998MOL0     C37652   1.817   1.514   7.439 -0.3014 -0.6298  0.3394
  998MOL0     C37653   1.712   1.504   7.537  0.2872  1.4881 -0.4242
  998MOL0     C37654   1.674   1.612   7.620 -0.6888  0.1858  0.0890
  998MOL0     H37655   1.393   1.043   7.672  1.2815 -0.6154  1.8499
  998MOL0     H37656   1.227   0.960   7.878 -0.4531  0.0190 -0.0320
  998MOL0     H37657   0.909   1.169   8.030 -0.1634 -0.6475  3.5755
  998MOL0     H37658   0.947   1.021   8.104 -2.3986  1.8179 -0.3758
  998MOL0     H37659   0.945   1.078   7.802 -1.7179  1.2506  0.0382
  998MOL0     H37660   1.006   0.937   7.879  1.9788  1.3953  2.3746
  998MOL0     H37661   0.763   0.949   7.995  0.2145  0.5797 -0.8646
  998MOL0     H37662   0.721   1.045   7.842  0.1255  1.0738  0.6440
  998MOL0     H37663   0.646   0.809   7.824 -0.4101  0.9971  4.2026
  998MOL0     H37664   0.792   0.826   7.716  2.0515 -3.2708 -0.1796
  998MOL0     H37665   0.927   0.713   7.904  0.2246  3.0162  0.0694
  998MOL0     H37666   0.787   0.619   7.839 -1.2422  2.0763 -3.0282
  998MOL0     H37667   0.790   0.739   8.112  0.7856 -1.2050  2.2497
  998MOL0     H37668   0.645   0.697   8.030 -0.1012  0.0725  0.3221
  998MOL0     H37669   0.858   0.486   8.078 -0.8379 -0.6551  2.1004
  998MOL0     H37670   0.686   0.476   8.040  0.6941 -0.3315 -0.4385
  998MOL0     H37671   0.638   0.553   8.280 -0.5725 -0.3386  1.7326
  998MOL0     H37672   0.746   0.427   8.283 -2.9559  0.6282  0.8755
  998MOL0     H37673   1.026   0.564   8.241 -0.9757 -0.6446 -0.3398
  998MOL0     H37674   1.217   0.786   8.359  2.3676 -0.2578 -0.1053
  998MOL0     H37675   1.230   0.618   8.422 -1.3252  0.6214 -1.6309
  998MOL0     H37676   1.182   0.870   8.576 -3.6374 -0.5090 -3.6210
  998MOL0     H37677   1.158   0.702   8.636  2.2003 -0.7848  1.1714
  998MOL0     H37678   1.378   0.640   8.631  0.5602 -0.4143  0.1966
  998MOL0     H37679   1.414   0.754   8.501  1.3473  2.9690  1.9614
  998MOL0     H37680   1.514   0.812   8.715  0.9776  1.9142 -1.1806
  998MOL0     H37681   1.413   0.938   8.652 -0.8633  0.5899  0.4287
  998MOL0     H37682   1.403   1.109   8.834  0.3069  0.0472 -2.2974
  998MOL0     H37683   1.209   1.364   8.790 -1.9102 -1.2844 -0.0857
  998MOL0     H37684   1.352   1.315   8.880  0.2328  0.1583  1.1736
  998MOL0     H37685   1.212   1.380   8.965 -0.4243 -0.8946  1.2168
  998MOL0     H37686   0.810   1.325   9.285 -1.9784 -2.7351 -3.7978
  998MOL0     H37687   0.697   1.508   9.355 -2.0945 -2.4554 -0.6066
  998MOL0     H37688   0.542   1.878   9.190 -1.4473 -0.5582  0.3660
  998MOL0     H37689   0.643   1.864   9.047  0.6480  0.7605  0.6497
  998MOL0     H37690   0.421   1.801   8.988 -0.3754  1.0387  1.1028
  998MOL0     H37691   0.512   1.651   8.994 -0.8147  0.2467 -0.8816
  998MOL0     H37692   0.280   1.707   9.139  0.4723  0.1316 -0.8403
  998MOL0     H37693   0.408   1.679   9.258 -0.0382  0.3132 -0.2568
  998MOL0     H37694   0.462   1.464   9.156  1.5476  1.3131 -2.5197
  998MOL0     H37695   0.332   1.495   9.037  2.8634 -0.3871 -1.2959
  998MOL0     H37696   0.283   1.326   9.227  0.3233 -0.1781 -0.4400
  998MOL0     H37697   0.270   1.471   9.329 -1.3770  1.2859 -1.1104
  998MOL0     H37698   0.102   1.405   9.086  1.1029  1.3860 -0.3933
  998MOL0     H37699   0.082   1.550   9.183  0.4966 -0.2497  0.9031
  998MOL0     H37700   0.073   1.388   9.395 -0.1344 -1.8489  0.9779
  998MOL0     H37701   0.060   1.255   9.283  1.4141  0.5149 -1.5018
  998MOL0     H37702  -0.145   1.484   9.295 -0.9022 -0.6907  3.4976
  998MOL0     H37703  -0.150   1.333   9.365  0.3249 -0.3148 -0.0063
  998MOL0     H37704   0.772   1.697   8.969  0.5508  0.7736  0.8870
  998MOL0     H37705   0.906   1.508   8.903  1.2795  1.2286  1.5139
  998MOL0     H37706   0.932   0.995   8.919  0.9682  1.9024  0.3063
  998MOL0     H37707   1.103   0.805   8.910  0.5436 -0.3701  1.2315
  998MOL0     H37708   1.163   1.358   7.980 -1.0917 -1.0889  0.1508
  998MOL0     H37709   1.311   1.444   7.801  0.9384 -0.9332 -0.1534
  998MOL0     H37710   1.666   1.165   7.485  0.2709  0.1033  3.0949
  998MOL0     H37711   1.831   1.185   7.325  0.8160  0.7947  1.0925
  998MOL0     H37712   2.058   1.259   7.232 -3.6574 -1.6811  2.4846
  998MOL0     H37713   1.918   1.294   7.129 -0.4734  0.2913  1.5122
  998MOL0     H37714   2.174   1.462   7.116 -1.2018  0.1006  1.0828
  998MOL0     H37715   2.017   1.459   7.012  0.4461 -0.1859 -0.7020
  998MOL0     H37716   2.257   1.349   6.945 -0.6980  0.3112 -2.1189
  998MOL0     H37717   2.188   1.213   7.038  3.4625  1.4401  0.1383
  998MOL0     H37718   2.143   1.204   6.791  1.7908  1.6841 -0.1436
  998MOL0     H37719   2.033   1.342   6.802  0.1314 -1.1537 -2.1199
  998MOL0     H37720   1.818   1.012   6.952 -0.6025 -0.7933 -1.9088
  998MOL0     H37721   1.868   1.608   7.423 -2.8353  0.8915  0.7363
  998MOL0     H37722   1.693   1.712   7.580 -3.2488  0.5556 -0.4185
  998MOL0     H37723   1.568   1.605   7.646 -1.0484  0.6075 -1.1892
  998MOL0     H37724   1.727   1.597   7.714 -0.3052  1.1748  0.0398
  999MOL0     O37725   0.300   9.391   8.741 -0.6414 -0.8966 -0.3978
  999MOL0     C37726   0.412   9.363   8.777 -0.4421  0.4648 -0.2904
  999MOL0     O37727   0.510   9.299   8.696 -1.4528 -0.1167 -0.5564
  999MOL0     C37728   0.499   9.281   8.558  0.4835 -0.4011  0.2503
  999MOL0     C37729   0.382   9.283   8.480  0.2344  0.2085 -0.6315
  999MOL0     C37730   0.368   9.270   8.339 -0.0496  0.0923  0.1661
  999MOL0     C37731   0.497   9.266   8.270  0.3262 -0.2222 -1.1837
  999MOL0     O37732   0.514   9.269   8.136 -0.6827 -0.6762 -0.7396
  999MOL0     C37733   0.434   9.186   8.064  0.0520 -0.8978  0.1480
  999MOL0     C37734   0.466   9.219   7.910 -0.1424 -0.1474 -0.6148
  999MOL0     C37735   0.425   9.371   7.879  1.1144 -0.1046  0.6565
  999MOL0     C37736   0.420   9.376   7.728 -0.0926 -0.7897  0.1506
  999MOL0     C37737   0.417   9.523   7.669 -0.1432  0.9506 -1.1340
  999MOL0     C37738   0.416   9.516   7.518  0.1332 -0.9924 -0.2896
  999MOL0     C37739   0.365   9.652   7.456 -0.0268  0.7685  0.1003
  999MOL0     C37740   0.208   9.646   7.441 -0.2457  0.1460  0.1954
  999MOL0     N37741   0.136   9.770   7.410 -0.5626 -1.1508  0.2973
  999MOL0     C37742   0.117   9.821   7.289  0.1731 -0.8822  0.8543
  999MOL0     C37743   0.022   9.920   7.304 -0.3032 -1.7634  0.5942
  999MOL0     C37744  -0.055   9.999   7.201 -0.1604 -0.1143 -0.0151
  999MOL0     C37745   0.017  10.126   7.166  0.9092  0.2689 -0.9290
  999MOL0     C37746  -0.047  10.186   7.033  0.3336  0.3837 -0.5621
  999MOL0     C37747   0.054  10.287   6.982 -1.2381 -1.1780 -0.2005
  999MOL0     O37748  -0.017  10.368   6.891  0.0014 -0.1532 -0.3970
  999MOL0     C37749   0.057  10.418   6.788 -0.7117 -0.9401  0.0723
  999MOL0     C37750   0.046  10.367   6.656  0.8253 -0.3331  0.9085
  999MOL0     C37751   0.121  10.412   6.546  0.9867 -0.8457  0.7214
  999MOL0     C37752   0.103  10.343   6.411  0.6236 -0.1811  0.2971
  999MOL0     C37753   0.217  10.516   6.572  0.4509  0.0342  0.0055
  999MOL0     C37754   0.310  10.568   6.464 -0.4504 -0.6357  0.3383
  999MOL0     O37755   0.378  10.681   6.500 -0.0527 -0.3115  0.8922
  999MOL0     C37756   0.454  10.757   6.405  0.3263  0.3928  0.4303
  999MOL0     C37757   0.414  10.793   6.269 -0.4455 -0.5865 -0.0440
  999MOL0     C37758   0.496  10.867   6.181  0.6916  0.2819  0.0483
  999MOL0     C37759   0.613  10.920   6.225 -1.1155 -0.4989 -0.3014
  999MOL0     O37760   0.699  11.001   6.148  0.5136  0.0482 -0.1623
  999MOL0     C37761   0.630  11.094   6.061  1.0847 -0.4996 -0.5157
  999MOL0     C37762   0.725  11.215   6.028  1.1640  0.3315  0.0567
  999MOL0     C37763   0.775  11.301   6.149 -0.3067 -0.1194 -0.1054
  999MOL0     C37764   0.643  11.358   6.212 -0.2006 -0.5393  0.2978
  999MOL0     C37765   0.676  11.485   6.295  0.5533 -0.3428 -0.6999
  999MOL0     C37766   0.560  11.533   6.389  0.0276  1.0120  0.7466
  999MOL0     C37767   0.561  11.454   6.534 -0.7711 -0.7892 -0.3490
  999MOL0     C37768   0.663  11.523   6.636  1.4200 -0.0200 -0.4297
  999MOL0    Cl37769   0.565  11.556   6.787  0.0730  0.6188  0.2669
  999MOL0     C37770   0.663  10.889   6.357 -0.0687 -0.0478 -0.0809
  999MOL0     C37771   0.580  10.808   6.445  0.1477  0.0279 -0.0023
  999MOL0     O37772   0.343  10.504   6.367 -0.4371 -0.3624 -0.3854
  999MOL0     C37773   0.230  10.573   6.703 -0.4615 -0.1230  0.0140
  999MOL0     C37774   0.152  10.522   6.812 -0.0071  0.2973 -0.6775
  999MOL0     N37775  -0.003   9.924   7.444  0.0517  0.5067  0.5975
  999MOL0     N37776   0.075   9.840   7.506  0.6038 -0.0658 -0.0969
  999MOL0     C37777   0.612   9.258   8.349 -0.4987 -0.7065  0.2551
  999MOL0     C37778   0.617   9.278   8.487  0.9263  0.2565  0.7199
  999MOL0     C37779   0.457   9.395   8.924  0.8991 -0.3342 -0.1776
  999MOL0     C37780   0.597   9.395   8.960 -0.7201 -0.3005 -0.7440
  999MOL0     C37781   0.645   9.442   9.086 -0.1346  0.0372  0.0760
  999MOL0     C37782   0.557   9.492   9.184 -0.4136  0.3368 -0.3374
  999MOL0     O37783   0.571   9.522   9.321 -0.2151  0.3086  1.4491
  999MOL0     C37784   0.688   9.588   9.352 -0.0612 -0.1956  0.7552
  999MOL0     C37785   0.694   9.598   9.505  0.2519 -0.3301 -0.5252
  999MOL0     C37786   0.714   9.467   9.567  0.6676  0.7870  0.2328
  999MOL0     C37787   0.856   9.418   9.572  1.7777  0.5895 -0.5836
  999MOL0     C37788   0.952   9.517   9.609 -0.2997 -0.4903  0.3648
  999MOL0     C37789   1.041   9.598   9.633 -0.3795  0.4314 -0.4741
  999MOL0     C37790   0.419   9.481   9.149 -0.0427  0.3484  0.2320
  999MOL0     C37791   0.364   9.435   9.028 -0.1876  0.3346  0.7402
  999MOL0     C37792   0.213   9.443   9.020  0.1688  0.0762  0.4779
  999MOL0     H37793   0.287   9.268   8.530 -0.1496 -3.4012 -2.0623
  999MOL0     H37794   0.271   9.274   8.292  0.4236  2.2028 -0.7774
  999MOL0     H37795   0.328   9.204   8.083 -0.1309 -0.6377 -1.0246
  999MOL0     H37796   0.446   9.080   8.088 -0.4819 -1.7870 -3.0378
  999MOL0     H37797   0.572   9.199   7.891 -0.2321  1.7448 -3.8230
  999MOL0     H37798   0.418   9.150   7.840  2.2888 -0.6514 -1.8993
  999MOL0     H37799   0.326   9.391   7.922 -1.2064 -2.8916 -2.7612
  999MOL0     H37800   0.496   9.442   7.921 -0.2279  2.0751 -0.5915
  999MOL0     H37801   0.498   9.324   7.672  1.1766  1.6961 -0.5550
  999MOL0     H37802   0.338   9.312   7.694  2.8475 -4.4876 -0.6653
  999MOL0     H37803   0.507   9.581   7.692  0.6991 -0.9727  0.7290
  999MOL0     H37804   0.328   9.577   7.704  0.4122  1.0282  0.2068
  999MOL0     H37805   0.514   9.480   7.484  1.8494 -1.0989  4.0855
  999MOL0     H37806   0.343   9.442   7.484 -2.6216 -0.0090  2.8930
  999MOL0     H37807   0.400   9.677   7.355  0.4973  0.1480  0.1205
  999MOL0     H37808   0.400   9.733   7.520  0.5449 -0.4114  1.3378
  999MOL0     H37809   0.173   9.570   7.371 -1.8330  2.4868 -1.7654
  999MOL0     H37810   0.175   9.612   7.539  1.9889 -1.0622  0.5732
  999MOL0     H37811   0.148   9.775   7.195  3.2292 -2.5787  2.5537
  999MOL0     H37812  -0.148  10.021   7.253 -0.7198 -2.9836  0.3326
  999MOL0     H37813  -0.084   9.936   7.116  0.4674 -0.2831 -0.1086
  999MOL0     H37814   0.011  10.190   7.255  1.7880 -1.2989  0.3070
  999MOL0     H37815   0.120  10.093   7.152  0.0087 -2.1967 -2.4097
  999MOL0     H37816  -0.059  10.115   6.950  1.2347  2.7199 -2.8264
  999MOL0     H37817  -0.139  10.241   7.051  1.2848  2.3561 -1.4635
  999MOL0     H37818   0.093  10.347   7.065 -3.8133  2.5230 -1.4081
  999MOL0     H37819   0.128  10.230   6.925 -1.2735 -0.1137 -1.3629
  999MOL0     H37820  -0.016  10.281   6.631  0.1679  0.0786  1.0773
  999MOL0     H37821   0.075  10.422   6.340 -2.0287 -1.0960  0.2160
  999MOL0     H37822   0.020  10.274   6.429  1.9915 -1.4667  2.0265
  999MOL0     H37823   0.192  10.283   6.391  0.3802 -2.0592  3.9530
  999MOL0     H37824   0.324  10.755   6.222  0.2199 -0.9253 -1.0900
  999MOL0     H37825   0.458  10.879   6.080  1.7140  1.8598 -0.1934
  999MOL0     H37826   0.606  11.047   5.965 -1.6416  0.4002 -0.3678
  999MOL0     H37827   0.528  11.123   6.088  1.9896  1.6283  0.8919
  999MOL0     H37828   0.810  11.170   5.975 -1.5039 -1.9834 -2.5677
  999MOL0     H37829   0.677  11.267   5.945  1.3692 -0.2643 -0.4450
  999MOL0     H37830   0.841  11.375   6.104  4.0390 -2.8787  1.1466
  999MOL0     H37831   0.830  11.249   6.227  0.9667  1.8838  0.4167
  999MOL0     H37832   0.597  11.276   6.268  1.2063 -0.8062  1.1028
  999MOL0     H37833   0.576  11.391   6.132 -1.4640  1.2831  2.0038
  999MOL0     H37834   0.767  11.461   6.350  1.1434 -0.6640 -1.7832
  999MOL0     H37835   0.708  11.558   6.221  1.5409 -0.5111 -0.4491
  999MOL0     H37836   0.463  11.510   6.343 -0.4335  0.7692  1.7864
  999MOL0     H37837   0.559  11.642   6.387 -2.0838  1.0681 -2.7696
  999MOL0     H37838   0.591  11.350   6.521 -0.9960 -0.7770 -1.0493
  999MOL0     H37839   0.463  11.464   6.582  0.3744  3.4266  1.5341
  999MOL0     H37840   0.691  11.613   6.582 -1.7498  0.0822 -2.1689
  999MOL0     H37841   0.754  11.467   6.657  0.3620 -1.7660 -0.3043
  999MOL0     H37842   0.755  10.943   6.377  0.2523 -0.1790 -1.1614
  999MOL0     H37843   0.615  10.776   6.542  0.9268  2.7033  0.6991
  999MOL0     H37844   0.309  10.643   6.724  0.3196 -0.8007 -0.5997
  999MOL0     H37845   0.160  10.564   6.912 -2.6061  1.8708 -1.0491
  999MOL0     H37846   0.706   9.253   8.294 -1.4500  0.0601 -1.5012
  999MOL0     H37847   0.714   9.287   8.536  1.0727  2.5796  0.0995
  999MOL0     H37848   0.672   9.365   8.886  0.5829 -2.5473  1.3407
  999MOL0     H37849   0.752   9.445   9.100  0.2820 -2.3434 -1.9458
  999MOL0     H37850   0.775   9.537   9.309 -0.7692 -0.5223 -0.3114
  999MOL0     H37851   0.694   9.687   9.305 -0.2275  2.0356  4.9560
  999MOL0     H37852   0.599   9.639   9.538  1.8366  2.2643  1.1831
  999MOL0     H37853   0.772   9.669   9.533  0.3371 -0.0574 -1.4118
  999MOL0     H37854   0.673   9.462   9.668 -0.1251 -3.9411 -0.1035
  999MOL0     H37855   0.653   9.388   9.522  2.0707  1.0911 -2.4721
  999MOL0     H37856   0.874   9.361   9.479  0.4340 -0.7238 -0.0766
  999MOL0     H37857   0.865   9.329   9.636 -3.4435  0.9122  1.0600
  999MOL0     H37858   1.114   9.676   9.639  0.1455 -0.0585 -0.3908
  999MOL0     H37859   0.346   9.505   9.226 -0.4241  0.1692 -0.0645
  999MOL0     H37860   0.173   9.394   8.931  0.2865 -3.4721  2.1720
  999MOL0     H37861   0.161   9.398   9.105 -1.2226  2.0723  0.7382
  999MOL0     H37862   0.184   9.548   9.028 -1.4323 -0.3739  0.9147
 1000MOL0     O37863   7.855   2.007   5.434 -0.2318  0.0888  0.2975
 1000MOL0     C37864   7.946   1.930   5.476 -0.5039 -0.3377  0.6810
 1000MOL0     O37865   7.982   1.810   5.410 -0.7102  0.0416 -0.3853
 1000MOL0     C37866   7.932   1.770   5.285 -0.0251 -0.0755  0.5983
 1000MOL0     C37867   7.900   1.852   5.176 -0.3315  0.4411 -0.1732
 1000MOL0     C37868   7.850   1.806   5.056 -0.2556  0.9321 -1.0287
 1000MOL0     C37869   7.846   1.668   5.034 -0.0009 -0.8775  0.3530
 1000MOL0     O37870   7.808   1.611   4.909 -0.2914  0.5386  0.2851
 1000MOL0     C37871   7.677   1.662   4.876  0.0033  0.0565  0.2180
 1000MOL0     C37872   7.633   1.600   4.741  0.3497  0.2997 -0.5388
 1000MOL0     C37873   7.598   1.696   4.630  0.3074 -0.9188  0.5133
 1000MOL0     C37874   7.535   1.627   4.503 -0.8131  0.1143  0.8508
 1000MOL0     C37875   7.571   1.696   4.367  0.1640 -0.0027  0.5198
 1000MOL0     C37876   7.467   1.718   4.250  0.5078 -0.4532  0.6552
 1000MOL0     C37877   7.348   1.793   4.301 -0.5528 -1.1162  0.4804
 1000MOL0     C37878   7.231   1.786   4.189 -0.4325 -1.7302  0.2082
 1000MOL0     N37879   7.096   1.822   4.239 -0.5574 -0.2158  0.1084
 1000MOL0     C37880   7.063   1.940   4.302  0.5521  0.0217 -0.9338
 1000MOL0     C37881   6.933   1.929   4.344  0.4969  0.6158  0.3465
 1000MOL0     C37882   6.855   2.043   4.416 -0.4522  0.7705 -0.0542
 1000MOL0     C37883   6.922   2.050   4.555  0.7671  0.6472 -0.0838
 1000MOL0     C37884   6.881   2.164   4.646 -0.6768 -0.2556 -1.1306
 1000MOL0     C37885   6.733   2.204   4.647 -1.0434 -0.0340  0.3797
 1000MOL0     O37886   6.670   2.094   4.709  0.1322 -0.0925 -0.2364
 1000MOL0     C37887   6.536   2.092   4.744 -0.6601 -0.4514 -0.5340
 1000MOL0     C37888   6.445   2.186   4.691 -0.4090 -0.7807  0.3196
 1000MOL0     C37889   6.310   2.190   4.724  1.1987  0.2742  0.6116
 1000MOL0     C37890   6.221   2.311   4.678 -0.2334 -0.2099  0.8315
 1000MOL0     C37891   6.256   2.078   4.787 -0.2449 -0.1828  0.0353
 1000MOL0     C37892   6.104   2.061   4.799 -0.0687  0.0645  1.1455
 1000MOL0     O37893   6.064   1.944   4.864  0.6066  0.6156  0.7100
 1000MOL0     C37894   5.928   1.912   4.866 -0.3561  0.2880  0.1788
 1000MOL0     C37895   5.811   1.998   4.860 -0.2016  0.3698 -0.0474
 1000MOL0     C37896   5.684   1.940   4.885  1.3443 -0.2126 -0.6313
 1000MOL0     C37897   5.670   1.801   4.907  0.4540  0.4993 -0.0964
 1000MOL0     O37898   5.547   1.738   4.941  0.1032 -0.1362  0.6454
 1000MOL0     C37899   5.455   1.729   4.828 -0.1983  0.4695  0.5281
 1000MOL0     C37900   5.462   1.589   4.777 -0.4847 -0.6787  1.1442
 1000MOL0     C37901   5.349   1.502   4.813 -0.0647  1.1491 -1.2209
 1000MOL0     C37902   5.311   1.483   4.960  0.9031 -0.3316  0.1421
 1000MOL0     C37903   5.180   1.402   4.967  0.5099 -0.1313  0.3628
 1000MOL0     C37904   5.209   1.252   4.976  0.2406  1.5580 -0.2693
 1000MOL0     C37905   5.073   1.189   5.004  0.0607  0.2922  0.6453
 1000MOL0     C37906   5.077   1.038   4.966 -0.8792  0.3437 -0.1064
 1000MOL0    Cl37907   4.917   0.958   4.997 -0.0488  0.2503 -0.7379
 1000MOL0     C37908   5.779   1.720   4.903 -0.5821 -0.0752 -0.0608
 1000MOL0     C37909   5.909   1.774   4.893 -0.1324  0.3982 -0.1639
 1000MOL0     O37910   6.028   2.144   4.751 -1.0253  0.4654 -0.2664
 1000MOL0     C37911   6.345   1.979   4.833  0.4432 -0.1742 -1.7985
 1000MOL0     C37912   6.482   1.987   4.816  0.0469 -0.1509  0.1054
 1000MOL0     N37913   6.878   1.814   4.283 -0.3547  1.0915 -0.3215
 1000MOL0     N37914   6.980   1.754   4.225  0.3422 -0.0307  0.0073
 1000MOL0     C37915   7.909   1.584   5.125 -0.1870 -0.4564 -0.8633
 1000MOL0     C37916   7.948   1.638   5.246  0.9720 -0.8650 -0.3200
 1000MOL0     C37917   7.981   1.941   5.614 -0.2172 -0.7173 -0.0807
 1000MOL0     C37918   7.969   1.824   5.685 -0.5760  0.4560 -0.3391
 1000MOL0     C37919   7.976   1.834   5.825  0.4755  0.1798  0.5303
 1000MOL0     C37920   8.001   1.959   5.889 -0.0304  0.2831  0.0669
 1000MOL0     O37921   8.029   1.942   6.023  0.2097  0.4476 -0.6972
 1000MOL0     C37922   8.000   2.046   6.119 -0.0531 -0.0751  0.3369
 1000MOL0     C37923   7.851   2.081   6.126  0.3762  0.0343  0.0691
 1000MOL0     C37924   7.815   2.173   6.248  0.8776  0.3792  0.3619
 1000MOL0     C37925   7.855   2.318   6.231 -0.4177  1.1942 -0.1916
 1000MOL0     C37926   7.850   2.375   6.362  0.1449 -0.0699  0.1054
 1000MOL0     C37927   7.854   2.425   6.476  0.5483  0.6448 -0.0326
 1000MOL0     C37928   7.998   2.072   5.818  0.0751  0.8274 -0.2728
 1000MOL0     C37929   7.995   2.065   5.684 -0.2892 -0.6555 -0.3893
 1000MOL0     C37930   8.010   2.204   5.608  0.8368 -0.1687  0.4325
 1000MOL0     H37931   7.904   1.959   5.192  1.8043  0.0851  2.1224
 1000MOL0     H37932   7.817   1.881   4.986 -1.8815  3.7038  2.4184
 1000MOL0     H37933   7.686   1.770   4.855  2.0820 -0.2324 -0.6756
 1000MOL0     H37934   7.597   1.662   4.950 -0.5873  1.0920 -0.3873
 1000MOL0     H37935   7.714   1.530   4.719  1.7323  1.0986  1.6964
 1000MOL0     H37936   7.548   1.532   4.748  3.3619 -3.7192  0.6297
 1000MOL0     H37937   7.529   1.774   4.665  0.3578 -0.4990 -0.2845
 1000MOL0     H37938   7.679   1.763   4.601 -1.1442  1.9454  2.5450
 1000MOL0     H37939   7.586   1.532   4.486 -1.2589 -0.0299  0.2687
 1000MOL0     H37940   7.427   1.609   4.508 -0.5361 -1.8082  0.5650
 1000MOL0     H37941   7.651   1.641   4.316 -0.7139  0.6562 -1.6500
 1000MOL0     H37942   7.610   1.796   4.391 -2.1684  0.3873  3.2629
 1000MOL0     H37943   7.529   1.776   4.181 -0.5400 -0.2690 -0.1706
 1000MOL0     H37944   7.443   1.629   4.191  2.2289 -0.3835 -0.2060
 1000MOL0     H37945   7.376   1.893   4.336  2.7416 -1.1490 -1.7043
 1000MOL0     H37946   7.303   1.739   4.386  1.5186 -0.2610  2.2345
 1000MOL0     H37947   7.251   1.854   4.106  2.5783 -0.6988  1.6484
 1000MOL0     H37948   7.228   1.685   4.146 -0.1310 -1.2654 -0.9379
 1000MOL0     H37949   7.129   2.024   4.322  0.2721  0.9124 -3.3825
 1000MOL0     H37950   6.747   2.026   4.419 -0.6977  2.3509  0.8303
 1000MOL0     H37951   6.874   2.138   4.366 -0.9565  2.1634  2.2702
 1000MOL0     H37952   6.900   1.955   4.605  2.0716 -0.4083 -1.3991
 1000MOL0     H37953   7.030   2.056   4.539  0.6073 -0.2163 -1.8458
 1000MOL0     H37954   6.924   2.130   4.741  1.7261  2.2639 -1.2002
 1000MOL0     H37955   6.940   2.254   4.628  2.2233 -0.9277  3.3758
 1000MOL0     H37956   6.723   2.291   4.712  2.3555 -0.7023  2.0157
 1000MOL0     H37957   6.685   2.219   4.550 -1.9201  2.2320  1.1029
 1000MOL0     H37958   6.479   2.273   4.636 -2.7236  0.3338  0.5434
 1000MOL0     H37959   6.270   2.400   4.638 -2.7754  1.0862  0.3857
 1000MOL0     H37960   6.152   2.357   4.749 -0.9951  2.6888 -1.5491
 1000MOL0     H37961   6.171   2.272   4.588  0.5365 -0.8192  0.6577
 1000MOL0     H37962   5.822   2.105   4.852  0.3889  0.4009  1.0056
 1000MOL0     H37963   5.590   1.994   4.887  0.4838 -1.6412  1.5848
 1000MOL0     H37964   5.350   1.753   4.847 -0.7094 -0.0963 -1.3574
 1000MOL0     H37965   5.489   1.809   4.761 -1.0722 -0.3101 -0.8862
 1000MOL0     H37966   5.487   1.591   4.671  0.8172 -1.3145  1.4208
 1000MOL0     H37967   5.549   1.539   4.822  0.3001 -0.0731  0.3244
 1000MOL0     H37968   5.356   1.400   4.775 -0.2728  1.1891 -1.3715
 1000MOL0     H37969   5.258   1.536   4.763 -1.3652  1.6067  1.3277
 1000MOL0     H37970   5.286   1.584   4.995 -1.6128 -0.7565 -0.2649
 1000MOL0     H37971   5.386   1.433   5.023 -0.8303 -0.5725  2.1345
 1000MOL0     H37972   5.128   1.432   5.058 -0.5037  3.0893 -1.0979
 1000MOL0     H37973   5.116   1.439   4.886 -1.8965  1.7817  2.9194
 1000MOL0     H37974   5.282   1.217   5.050 -1.9023 -1.6122  0.5579
 1000MOL0     H37975   5.244   1.210   4.882  1.5064 -1.3821  1.3638
 1000MOL0     H37976   4.989   1.240   4.956  1.6329  3.2269  0.7827
 1000MOL0     H37977   5.044   1.211   5.107 -2.5932  0.3301 -0.0465
 1000MOL0     H37978   5.159   0.990   5.021 -0.0658 -1.4125 -2.6627
 1000MOL0     H37979   5.110   1.041   4.862  0.6220 -1.1022  0.2875
 1000MOL0     H37980   5.766   1.617   4.934 -3.3399 -0.2220 -1.4564
 1000MOL0     H37981   5.984   1.697   4.907  0.9636  1.3717 -0.6065
 1000MOL0     H37982   6.296   1.903   4.893  0.6438 -0.5842 -2.1481
 1000MOL0     H37983   6.554   1.925   4.869  1.8691  3.3341  1.9911
 1000MOL0     H37984   7.929   1.480   5.100  0.2231 -0.5434 -0.2100
 1000MOL0     H37985   7.992   1.566   5.314 -0.9698  1.2843  3.5588
 1000MOL0     H37986   7.947   1.730   5.636 -1.3015  0.5182 -0.1506
 1000MOL0     H37987   7.959   1.745   5.886  2.9066 -1.1289 -0.5384
 1000MOL0     H37988   8.043   2.017   6.215  1.8377 -0.0289 -0.4651
 1000MOL0     H37989   8.057   2.137   6.096  1.6167 -1.4727 -1.3999
 1000MOL0     H37990   7.790   1.990   6.129 -0.2064  0.3652 -0.9416
 1000MOL0     H37991   7.812   2.124   6.032 -0.3057 -0.4131  0.1370
 1000MOL0     H37992   7.709   2.170   6.275  1.3781 -3.4276  2.5861
 1000MOL0     H37993   7.863   2.122   6.332  1.7062 -1.5042 -1.1951
 1000MOL0     H37994   7.789   2.373   6.163 -1.9505 -0.0264  0.2385
 1000MOL0     H37995   7.957   2.321   6.192 -0.5191  1.7132 -0.4261
 1000MOL0     H37996   7.878   2.456   6.576  1.7652 -2.0130  0.5893
 1000MOL0     H37997   7.986   2.168   5.867  1.8207  0.6681  0.5427
 1000MOL0     H37998   7.910   2.242   5.588  0.3680 -1.1760  0.8364
 1000MOL0     H37999   8.073   2.276   5.661  1.2964  0.0487 -0.3838
 1000MOL0     H38000   8.048   2.193   5.506  1.5987  3.3084  0.1932
 1001MOL0     O38001  10.674   0.761   3.954  0.0823  0.9223  0.1945
 1001MOL0     C38002  10.573   0.833   3.986 -0.3304  0.4601 -0.6154
 1001MOL0     O38003  10.530   0.945   3.920 -0.5844 -0.0197  0.2153
 1001MOL0     C38004  10.532   0.951   3.790  0.1476 -0.2421  0.1899
 1001MOL0     C38005  10.642   0.918   3.705  0.9041 -0.4375 -0.4617
 1001MOL0     C38006  10.637   0.915   3.568 -0.0035  1.0377  0.6593
 1001MOL0     C38007  10.524   0.962   3.507  0.4206 -1.0919 -0.0029
 1001MOL0     O38008  10.507   0.938   3.371  0.1385 -0.4845 -0.3898
 1001MOL0     C38009  10.387   0.866   3.338 -0.5367 -0.0392 -0.0780
 1001MOL0     C38010  10.366   0.866   3.181 -0.3582  0.0741 -0.1608
 1001MOL0     C38011  10.482   0.801   3.094  0.1249  0.2498  0.0887
 1001MOL0     C38012  10.500   0.652   3.128 -0.7951  0.4476  0.2047
 1001MOL0     C38013  10.551   0.583   2.993  0.2628 -0.3791 -0.0791
 1001MOL0     C38014  10.563   0.441   3.017  0.1335 -0.1679  0.0779
 1001MOL0     C38015  10.608   0.371   2.883  0.3232 -0.5611  0.1546
 1001MOL0     C38016  10.648   0.230   2.925  0.0505 -0.7383 -0.3093
 1001MOL0     N38017  10.733   0.160   2.824 -0.1769 -0.0093  0.0880
 1001MOL0     C38018  10.861   0.120   2.858  0.8913 -0.4924  0.3769
 1001MOL0     C38019  10.892   0.039   2.757 -0.7447  0.0496 -0.0736
 1001MOL0     C38020  11.030  -0.034   2.768 -0.6501 -0.2957  0.5181
 1001MOL0     C38021  11.111  -0.032   2.638  0.4123  0.0967  0.9926
 1001MOL0     C38022  11.255  -0.080   2.660 -0.5184  0.6742  0.5234
 1001MOL0     C38023  11.341  -0.035   2.544 -0.8759  0.8262  1.1845
 1001MOL0     O38024  11.344   0.110   2.544  0.3501  0.4904 -0.7078
 1001MOL0     C38025  11.415   0.164   2.439  0.6167  0.6687  0.1006
 1001MOL0     C38026  11.343   0.231   2.339 -0.7490 -0.2696 -0.6432
 1001MOL0     C38027  11.407   0.301   2.236  0.7689 -0.4299  0.1951
 1001MOL0     C38028  11.315   0.369   2.122 -0.4880 -0.4777 -1.0102
 1001MOL0     C38029  11.548   0.303   2.226 -0.4123 -0.2212  0.3274
 1001MOL0     C38030  11.629   0.371   2.119  0.0822  1.3284 -0.2803
 1001MOL0     O38031  11.568   0.453   2.034  0.0453 -0.2335 -0.1564
 1001MOL0     C38032  11.639   0.477   1.915 -0.3870  0.2996 -0.1837
 1001MOL0     C38033  11.578   0.432   1.796  0.8837 -0.2333 -0.5622
 1001MOL0     C38034  11.624   0.475   1.672  0.1705 -0.5557  0.6117
 1001MOL0     C38035  11.734   0.562   1.653  0.6794  0.1037 -0.0874
 1001MOL0     O38036  11.797   0.599   1.534  0.1663 -0.4139  0.2140
 1001MOL0     C38037  11.804   0.491   1.432  0.4372 -0.1047  0.6749
 1001MOL0     C38038  11.807   0.573   1.310 -0.4799 -0.1891  0.4201
 1001MOL0     C38039  11.684   0.650   1.279 -1.1210 -0.3114 -0.3074
 1001MOL0     C38040  11.648   0.676   1.127 -0.2988 -0.8023 -0.3740
 1001MOL0     C38041  11.748   0.746   1.043  0.6820 -0.2629  0.2428
 1001MOL0     C38042  11.784   0.889   1.098 -0.7999 -0.8470 -0.5926
 1001MOL0     C38043  11.675   0.992   1.060  0.2889 -0.4457  0.5401
 1001MOL0     C38044  11.713   1.130   1.096 -0.2493  0.6163 -0.1934
 1001MOL0    Cl38045  11.862   1.199   1.028  0.2511 -0.5522 -0.7128
 1001MOL0     C38046  11.795   0.596   1.769  0.2093 -0.2722 -0.2734
 1001MOL0     C38047  11.756   0.565   1.899 -0.6228  0.0412  1.1601
 1001MOL0     O38048  11.749   0.336   2.116  0.6380 -0.0906 -0.0443
 1001MOL0     C38049  11.626   0.233   2.320 -0.0728  0.2098 -0.3818
 1001MOL0     C38050  11.557   0.171   2.426 -0.4989 -0.3373 -1.1333
 1001MOL0     N38051  10.794   0.033   2.652  0.1542 -1.2025 -0.9124
 1001MOL0     N38052  10.699   0.111   2.702 -0.2321 -0.0736  0.0386
 1001MOL0     C38053  10.420   1.019   3.586  0.0560 -0.4512  0.1963
 1001MOL0     C38054  10.422   1.013   3.727 -0.4203  0.7240  1.0257
 1001MOL0     C38055  10.490   0.798   4.111 -0.3476 -0.3447  0.7522
 1001MOL0     C38056  10.432   0.906   4.176  0.5411  0.5266  0.5011
 1001MOL0     C38057  10.367   0.886   4.295  0.5666  0.4828  0.4614
 1001MOL0     C38058  10.359   0.763   4.355  0.9420  0.5049 -0.1800
 1001MOL0     O38059  10.295   0.756   4.481  0.1581 -0.0394  0.0163
 1001MOL0     C38060  10.270   0.627   4.545 -0.3611 -0.4181  0.1316
 1001MOL0     C38061  10.162   0.650   4.646  0.3922  0.9418 -1.2785
 1001MOL0     C38062  10.014   0.691   4.597 -0.2939  0.3560  0.5413
 1001MOL0     C38063   9.950   0.592   4.498  0.4973  0.6741  0.3330
 1001MOL0     C38064   9.889   0.477   4.570 -0.2947  0.0110 -0.1236
 1001MOL0     C38065   9.837   0.384   4.623  0.6890 -0.2600  0.4253
 1001MOL0     C38066  10.427   0.651   4.298  0.6230 -0.0490 -0.3059
 1001MOL0     C38067  10.491   0.665   4.177 -0.0701  0.2365  0.2802
 1001MOL0     C38068  10.548   0.533   4.117 -0.0086 -0.2757 -0.3122
 1001MOL0     H38069  10.730   0.868   3.744 -0.2914 -2.2430  0.0322
 1001MOL0     H38070  10.699   0.854   3.504 -1.7707  0.9665 -1.0942
 1001MOL0     H38071  10.302   0.899   3.397  0.1588  5.7490 -1.7381
 1001MOL0     H38072  10.388   0.761   3.369 -2.8070  0.8838  3.7010
 1001MOL0     H38073  10.267   0.829   3.153  0.6585 -1.1619 -2.4294
 1001MOL0     H38074  10.361   0.971   3.149 -1.6301 -0.0601 -0.4684
 1001MOL0     H38075  10.448   0.811   2.991 -2.3646 -1.4008  0.6561
 1001MOL0     H38076  10.580   0.850   3.099 -1.0423  3.0273 -1.7553
 1001MOL0     H38077  10.568   0.630   3.211 -0.6171  1.6919  0.4017
 1001MOL0     H38078  10.402   0.611   3.152 -0.1079 -0.5537  1.4452
 1001MOL0     H38079  10.646   0.627   2.961 -0.6925  2.5450  0.7109
 1001MOL0     H38080  10.469   0.591   2.920 -2.5155 -5.1233  2.0350
 1001MOL0     H38081  10.635   0.423   3.097  1.3841  0.5357 -0.8669
 1001MOL0     H38082  10.471   0.396   3.057 -0.0273  1.0913  1.1792
 1001MOL0     H38083  10.701   0.413   2.842  0.6574 -2.6817 -1.4550
 1001MOL0     H38084  10.524   0.368   2.813  1.1119 -2.1689 -0.7970
 1001MOL0     H38085  10.693   0.238   3.024 -3.4615  1.1043  1.3067
 1001MOL0     H38086  10.556   0.173   2.941 -1.1479  0.9069 -0.9968
 1001MOL0     H38087  10.917   0.137   2.949  2.7353  0.0701 -0.8049
 1001MOL0     H38088  11.017  -0.137   2.803  2.5582 -1.1070 -0.3340
 1001MOL0     H38089  11.086   0.010   2.851 -0.2437  1.0974 -0.4654
 1001MOL0     H38090  11.077  -0.104   2.562  4.1393 -1.1935  0.3570
 1001MOL0     H38091  11.110   0.072   2.604 -0.9316 -0.7554 -2.0276
 1001MOL0     H38092  11.304  -0.054   2.754  1.9168 -2.3865  0.2585
 1001MOL0     H38093  11.253  -0.189   2.658  0.9969  0.6321 -1.2348
 1001MOL0     H38094  11.440  -0.076   2.564 -2.3995 -2.7687  2.2581
 1001MOL0     H38095  11.296  -0.062   2.448  2.2811  0.4585 -0.2905
 1001MOL0     H38096  11.235   0.229   2.346 -0.7195  0.1563 -0.0494
 1001MOL0     H38097  11.210   0.349   2.144 -0.0625 -5.1037 -2.0414
 1001MOL0     H38098  11.341   0.327   2.024  2.1894 -0.0878 -0.5516
 1001MOL0     H38099  11.327   0.477   2.132 -3.0778 -0.3356  2.8089
 1001MOL0     H38100  11.502   0.354   1.792  0.1954  0.4736 -2.5776
 1001MOL0     H38101  11.564   0.436   1.590  2.3076  3.3462 -3.1807
 1001MOL0     H38102  11.898   0.436   1.430 -0.3181 -1.5182  2.0991
 1001MOL0     H38103  11.720   0.421   1.431  1.3295 -1.2185  1.3733
 1001MOL0     H38104  11.893   0.640   1.315  1.8747 -2.8741 -0.9756
 1001MOL0     H38105  11.820   0.500   1.230  0.4851  0.1196  0.2851
 1001MOL0     H38106  11.681   0.749   1.325  0.1995 -1.1346  1.6542
 1001MOL0     H38107  11.599   0.593   1.316 -1.9726  0.8559 -0.4077
 1001MOL0     H38108  11.550   0.724   1.116 -0.3187 -0.5773  0.6423
 1001MOL0     H38109  11.617   0.589   1.070  1.9024 -0.8881 -1.5423
 1001MOL0     H38110  11.839   0.687   1.027  0.9452  0.4231 -0.8665
 1001MOL0     H38111  11.721   0.740   0.938  1.9282  1.4263 -0.2168
 1001MOL0     H38112  11.876   0.924   1.051 -2.0166  1.6483 -1.3275
 1001MOL0     H38113  11.801   0.880   1.205 -1.9314  1.0996 -0.1974
 1001MOL0     H38114  11.590   0.963   1.124 -0.1085  0.9470  0.6673
 1001MOL0     H38115  11.650   0.977   0.955 -0.0797 -1.6515  0.7737
 1001MOL0     H38116  11.700   1.145   1.204 -2.6476  0.0278 -0.3420
 1001MOL0     H38117  11.633   1.192   1.055  1.1499  2.9991  0.5064
 1001MOL0     H38118  11.882   0.659   1.756 -1.2774  1.5408 -2.0890
 1001MOL0     H38119  11.798   0.604   1.991 -1.5112  3.4498  0.2469
 1001MOL0     H38120  11.734   0.228   2.312  0.1220  3.7703 -2.2916
 1001MOL0     H38121  11.609   0.122   2.508 -0.3894 -0.6433 -1.3842
 1001MOL0     H38122  10.346   1.070   3.526 -4.5999 -3.3071  2.9585
 1001MOL0     H38123  10.335   1.050   3.780 -0.4151  1.5831  0.4448
 1001MOL0     H38124  10.445   1.007   4.138  1.2783 -0.3044 -1.6084
 1001MOL0     H38125  10.320   0.973   4.339 -2.2672 -0.3501 -0.6695
 1001MOL0     H38126  10.230   0.553   4.475  3.3304 -1.0576 -1.5127
 1001MOL0     H38127  10.364   0.589   4.587 -0.4515 -1.3436 -0.4812
 1001MOL0     H38128  10.187   0.728   4.719 -3.8350 -0.4818  2.1167
 1001MOL0     H38129  10.149   0.564   4.712  0.3407  2.5306  0.9071
 1001MOL0     H38130   9.946   0.689   4.683 -2.9699 -0.8877 -1.4415
 1001MOL0     H38131  10.015   0.786   4.542 -0.6340 -0.2377 -0.5305
 1001MOL0     H38132  10.019   0.561   4.419 -1.4637 -0.8914 -0.8558
 1001MOL0     H38133   9.862   0.646   4.460 -1.0134 -1.3416  0.7819
 1001MOL0     H38134   9.785   0.305   4.674  0.7219 -0.1104  0.6932
 1001MOL0     H38135  10.422   0.557   4.352 -1.7159  0.2834  0.1403
 1001MOL0     H38136  10.476   0.451   4.125 -0.5799  0.3536  1.9050
 1001MOL0     H38137  10.575   0.530   4.011  2.2225 -2.1386  0.2180
 1001MOL0     H38138  10.630   0.511   4.187 -1.9562 -5.0882  0.8955
 1002MOL0     O38139   1.773   8.239   9.998  0.4028 -0.3582 -0.3822
 1002MOL0     C38140   1.889   8.206  10.024 -1.4103  0.4630  0.2276
 1002MOL0     O38141   1.961   8.229  10.133 -0.5934  0.0129  0.4716
 1002MOL0     C38142   1.921   8.340  10.194  0.3367  0.9726  0.2497
 1002MOL0     C38143   1.937   8.462  10.131 -0.1550  0.3468 -0.3423
 1002MOL0     C38144   1.908   8.582  10.200  0.5934  1.4672  0.5650
 1002MOL0     C38145   1.872   8.583  10.331  1.1409  1.0004  0.7355
 1002MOL0     O38146   1.871   8.706  10.395 -0.4045 -0.6026  0.9598
 1002MOL0     C38147   1.860   8.713  10.542  0.0329  0.4573 -0.2899
 1002MOL0     C38148   1.868   8.859  10.592  0.0081 -0.0861 -0.0453
 1002MOL0     C38149   1.776   8.958  10.515  0.2888 -0.2748  0.0000
 1002MOL0     C38150   1.791   9.108  10.562  0.3985  0.3682 -0.1052
 1002MOL0     C38151   1.729   9.199  10.459  0.7117  0.1303  0.0511
 1002MOL0     C38152   1.812   9.203  10.331 -0.6199 -0.6398  0.0932
 1002MOL0     C38153   1.736   9.142  10.210 -0.2828 -0.7779 -0.2534
 1002MOL0     C38154   1.613   9.229  10.166  0.5256 -0.0114  0.3388
 1002MOL0     N38155   1.539   9.207  10.039 -0.7925 -0.3541 -1.2744
 1002MOL0     C38156   1.420   9.266  10.014 -0.5405  0.9560 -0.0669
 1002MOL0     C38157   1.393   9.221   9.887 -0.8959  0.3889  0.2284
 1002MOL0     C38158   1.293   9.276   9.798  0.0599  0.2942  0.3679
 1002MOL0     C38159   1.318   9.243   9.651 -0.7149 -0.0597 -0.0270
 1002MOL0     C38160   1.206   9.306   9.574  0.0778  0.1262  1.0236
 1002MOL0     C38161   1.205   9.256   9.429 -0.4859  0.4975 -0.1943
 1002MOL0     O38162   1.116   9.347   9.365  0.4631  0.2308  0.0354
 1002MOL0     C38163   1.129   9.345   9.226  0.2413  0.6162  0.7019
 1002MOL0     C38164   1.167   9.230   9.148  0.3581  0.5216 -1.1668
 1002MOL0     C38165   1.180   9.221   9.012 -0.3491  1.1860  0.0926
 1002MOL0     C38166   1.208   9.088   8.942  0.1316  0.2349 -0.2081
 1002MOL0     C38167   1.144   9.340   8.944  0.0968 -0.4942  0.1336
 1002MOL0     C38168   1.145   9.358   8.801  0.6486  0.2568  0.3413
 1002MOL0     O38169   1.031   9.407   8.746 -0.2759 -0.4615  1.0685
 1002MOL0     C38170   1.015   9.408   8.607  0.7256  1.2558  0.4103
 1002MOL0     C38171   1.045   9.520   8.536 -0.3782  0.7923  0.4198
 1002MOL0     C38172   1.048   9.517   8.400 -0.0635 -0.7488  0.5101
 1002MOL0     C38173   1.009   9.403   8.330 -0.1901  1.8009 -0.1931
 1002MOL0     O38174   1.025   9.408   8.199  0.1815  0.5225 -0.7089
 1002MOL0     C38175   0.986   9.300   8.118  0.6490  0.3329  0.1774
 1002MOL0     C38176   0.980   9.344   7.969  0.3199 -0.5155  0.5569
 1002MOL0     C38177   0.881   9.259   7.877  0.7580  0.0234 -0.3534
 1002MOL0     C38178   0.925   9.256   7.736 -0.2858  0.2299  0.9200
 1002MOL0     C38179   0.823   9.177   7.643 -0.4438 -0.5298  0.9661
 1002MOL0     C38180   0.835   9.242   7.502  0.4443  0.2613  0.0165
 1002MOL0     C38181   0.707   9.201   7.429 -0.1767  0.5205  0.6426
 1002MOL0     C38182   0.702   9.281   7.289 -0.2844 -0.3913 -0.1605
 1002MOL0    Cl38183   0.831   9.224   7.177 -0.0144  0.2230  0.1783
 1002MOL0     C38184   0.986   9.281   8.407  0.3722  0.7852 -0.6455
 1002MOL0     C38185   0.977   9.283   8.541 -0.3150 -0.5957 -0.3437
 1002MOL0     O38186   1.232   9.317   8.731 -0.8124  1.1591 -0.2606
 1002MOL0     C38187   1.103   9.456   9.013  0.0887 -0.8132  0.1666
 1002MOL0     C38188   1.101   9.452   9.151  0.0233 -0.4661  0.0404
 1002MOL0     N38189   1.480   9.121   9.848  0.9360 -0.0734 -0.3090
 1002MOL0     N38190   1.571   9.117   9.940 -0.0489  0.0765 -0.6332
 1002MOL0     C38191   1.841   8.462  10.388  0.7484 -0.1120  0.2113
 1002MOL0     C38192   1.875   8.337  10.327  0.5290  0.1039 -0.1129
 1002MOL0     C38193   1.936   8.092   9.932 -0.0947 -0.0386  0.9043
 1002MOL0     C38194   2.065   8.042   9.957  0.6101  0.2851  0.2843
 1002MOL0     C38195   2.127   7.939   9.889 -0.1313 -0.7546  0.1601
 1002MOL0     C38196   2.053   7.857   9.805 -0.2080 -0.5243 -0.6036
 1002MOL0     O38197   2.114   7.739   9.770 -0.2287 -0.2555  0.4406
 1002MOL0     C38198   2.045   7.648   9.678  0.3188 -0.2548 -0.2877
 1002MOL0     C38199   2.121   7.513   9.658 -0.3412 -0.2094 -0.0535
 1002MOL0     C38200   2.255   7.523   9.592 -0.2406 -0.2070  0.9455
 1002MOL0     C38201   2.295   7.387   9.531 -0.2951 -0.3084  0.1147
 1002MOL0     C38202   2.411   7.405   9.436 -0.2286 -0.3248 -0.7437
 1002MOL0     C38203   2.510   7.433   9.377 -0.7819  0.0528 -0.5645
 1002MOL0     C38204   1.921   7.896   9.782  0.6040 -0.2362  0.2209
 1002MOL0     C38205   1.862   8.012   9.840  0.3763  0.6238  0.0719
 1002MOL0     C38206   1.725   8.037   9.790  0.0848  0.4712 -0.7393
 1002MOL0     H38207   1.973   8.476  10.030  1.5279  2.6011  0.4934
 1002MOL0     H38208   1.932   8.679  10.157  0.6718  1.2889  0.2049
 1002MOL0     H38209   1.937   8.658  10.596  1.9634  3.0789 -0.2186
 1002MOL0     H38210   1.763   8.669  10.569  1.0268 -1.1631  0.8290
 1002MOL0     H38211   1.835   8.858  10.697  2.6811  0.2751  0.8892
 1002MOL0     H38212   1.971   8.896  10.586 -0.2834  0.5698 -1.4188
 1002MOL0     H38213   1.797   8.946  10.408  0.2148 -4.1879  0.2527
 1002MOL0     H38214   1.670   8.930  10.513  0.3152 -0.3952  0.3233
 1002MOL0     H38215   1.741   9.131  10.657  1.9159  0.7158  0.6438
 1002MOL0     H38216   1.897   9.127  10.582  0.0453 -1.1984  4.4261
 1002MOL0     H38217   1.695   9.301  10.479 -0.1711  0.8999 -4.3021
 1002MOL0     H38218   1.638   9.144  10.433 -1.5863  3.4951  0.2518
 1002MOL0     H38219   1.852   9.304  10.319 -2.5483 -0.0470 -2.2289
 1002MOL0     H38220   1.901   9.139  10.339  1.8340  2.2289 -2.0333
 1002MOL0     H38221   1.695   9.042  10.227 -0.1613 -0.3968  2.6513
 1002MOL0     H38222   1.809   9.137  10.128  4.1877  1.9273  3.1066
 1002MOL0     H38223   1.542   9.233  10.249  1.6719  0.7586  1.3199
 1002MOL0     H38224   1.652   9.330  10.149 -1.0733  0.0940 -4.4629
 1002MOL0     H38225   1.368   9.338  10.076  0.3939 -0.3909  2.4343
 1002MOL0     H38226   1.285   9.384   9.818 -0.3345  0.2365  0.5238
 1002MOL0     H38227   1.194   9.236   9.820 -0.2707 -0.5506 -2.3603
 1002MOL0     H38228   1.409   9.289   9.613  0.7190  0.5062  3.6821
 1002MOL0     H38229   1.318   9.134   9.644  2.4742 -0.0269 -4.2585
 1002MOL0     H38230   1.108   9.281   9.616 -0.8273  3.7487  1.3661
 1002MOL0     H38231   1.216   9.414   9.573  1.5531  0.0172 -0.8951
 1002MOL0     H38232   1.307   9.271   9.392 -0.0595 -3.8800 -1.3315
 1002MOL0     H38233   1.172   9.153   9.416 -0.3557  0.5938 -1.3970
 1002MOL0     H38234   1.184   9.133   9.195  0.1069  0.9102 -0.2523
 1002MOL0     H38235   1.310   9.079   8.905 -0.6544 -1.8396 -2.1948
 1002MOL0     H38236   1.139   9.085   8.857 -0.8048  4.4654  0.1696
 1002MOL0     H38237   1.187   8.996   8.998  2.1586 -0.8024 -1.0691
 1002MOL0     H38238   1.054   9.611   8.595 -1.7178  0.1387  1.6830
 1002MOL0     H38239   1.059   9.600   8.331 -2.0716 -0.1127  0.8698
 1002MOL0     H38240   1.055   9.215   8.116 -2.0718 -1.9977  0.6011
 1002MOL0     H38241   0.888   9.263   8.148  1.2477 -0.7726  0.8157
 1002MOL0     H38242   0.940   9.446   7.970  1.2977 -0.0740 -1.2313
 1002MOL0     H38243   1.078   9.331   7.922 -0.2903 -2.7729 -0.2198
 1002MOL0     H38244   0.780   9.300   7.874  0.6950  0.0811  1.4685
 1002MOL0     H38245   0.862   9.160   7.919 -0.5057 -0.6299 -2.3244
 1002MOL0     H38246   1.023   9.208   7.744  0.2872  1.4198  1.2986
 1002MOL0     H38247   0.930   9.363   7.713  2.1930  0.1853  0.9235
 1002MOL0     H38248   0.837   9.069   7.652 -0.8915 -0.5622  1.2983
 1002MOL0     H38249   0.721   9.186   7.679 -2.1059 -1.4897 -2.9355
 1002MOL0     H38250   0.923   9.205   7.449  0.5575  1.7543 -0.8923
 1002MOL0     H38251   0.833   9.351   7.512  1.9258  0.2978  0.1169
 1002MOL0     H38252   0.619   9.231   7.488 -0.9807  2.9733 -1.5634
 1002MOL0     H38253   0.696   9.093   7.415  0.3121 -0.4895  6.1129
 1002MOL0     H38254   0.714   9.388   7.310  0.6869 -0.2041 -1.5647
 1002MOL0     H38255   0.606   9.249   7.247 -0.2165 -2.2252  0.9691
 1002MOL0     H38256   0.977   9.186   8.355  1.7919  1.7690 -2.8511
 1002MOL0     H38257   0.946   9.206   8.611 -2.0271 -1.1018 -1.5938
 1002MOL0     H38258   1.076   9.545   8.956  1.4025 -0.9543 -0.7394
 1002MOL0     H38259   1.076   9.536   9.214 -1.1313 -0.1059 -0.8644
 1002MOL0     H38260   1.797   8.458  10.487  3.0685  1.6801  1.3915
 1002MOL0     H38261   1.837   8.253  10.385  4.0789  0.1778  2.6693
 1002MOL0     H38262   2.125   8.105  10.021  0.3048  2.6807 -1.6161
 1002MOL0     H38263   2.222   7.893   9.915 -0.8799 -2.4866  0.0019
 1002MOL0     H38264   1.942   7.631   9.712 -0.3777  0.2028 -2.0640
 1002MOL0     H38265   2.027   7.704   9.586  1.7473  1.3322  0.3427
 1002MOL0     H38266   2.060   7.451   9.592 -0.5329 -2.6734  2.2393
 1002MOL0     H38267   2.123   7.458   9.753 -1.3716  0.2555  0.2498
 1002MOL0     H38268   2.248   7.598   9.513  2.0013  0.7998  1.5999
 1002MOL0     H38269   2.337   7.561   9.654  2.8146 -2.6268 -1.2810
 1002MOL0     H38270   2.210   7.339   9.483 -0.0781 -0.8346  0.2445
 1002MOL0     H38271   2.330   7.317   9.609 -1.9489 -4.1731 -2.3311
 1002MOL0     H38272   2.606   7.463   9.341  1.2185 -2.9185  1.7644
 1002MOL0     H38273   1.865   7.835   9.712 -0.8193 -0.4206  1.4751
 1002MOL0     H38274   1.656   8.064   9.871 -0.5110 -1.6070 -0.4988
 1002MOL0     H38275   1.716   8.105   9.705  0.3845 -0.3440 -1.4427
 1002MOL0     H38276   1.682   7.941   9.759  1.7857  0.0513 -1.9620
 1003MOL0     O38277   7.918   5.461   0.890 -0.0403 -0.3307  0.3955
 1003MOL0     C38278   7.918   5.390   0.790 -0.3041  0.2970 -0.3279
 1003MOL0     O38279   8.030   5.336   0.731  0.9254  0.0232  0.2572
 1003MOL0     C38280   8.158   5.372   0.791  0.9379 -0.0100  0.6427
 1003MOL0     C38281   8.202   5.305   0.898 -0.3700 -0.4410  0.5230
 1003MOL0     C38282   8.318   5.348   0.961  0.1506 -0.4682 -0.2386
 1003MOL0     C38283   8.401   5.447   0.906  0.3697  0.2075 -0.2886
 1003MOL0     O38284   8.520   5.500   0.952  0.1969  0.1568 -0.2730
 1003MOL0     C38285   8.598   5.436   1.061 -0.0990 -0.8324 -0.6029
 1003MOL0     C38286   8.745   5.466   1.038  0.9645 -0.0609  0.0470
 1003MOL0     C38287   8.753   5.624   1.054 -0.0390  0.2586  0.8478
 1003MOL0     C38288   8.764   5.669   1.203  0.3710 -1.5644 -0.2482
 1003MOL0     C38289   8.873   5.610   1.285 -0.1026  0.7085  0.4981
 1003MOL0     C38290   9.018   5.670   1.254  0.3264  0.9877  1.1450
 1003MOL0     C38291   9.132   5.597   1.328 -0.4383 -0.1428 -1.0015
 1003MOL0     C38292   9.195   5.477   1.247 -0.0669 -0.2768  0.1710
 1003MOL0     N38293   9.172   5.351   1.319  0.4347 -0.8172 -0.0557
 1003MOL0     C38294   9.250   5.300   1.425  0.3997 -0.4222  0.3173
 1003MOL0     C38295   9.189   5.178   1.449 -0.8137 -0.1737 -0.2076
 1003MOL0     C38296   9.252   5.062   1.525  0.1196 -0.7131 -0.7714
 1003MOL0     C38297   9.345   4.972   1.449 -0.7594 -0.5058 -0.0878
 1003MOL0     C38298   9.418   4.856   1.520  0.3962 -0.1071  0.0501
 1003MOL0     C38299   9.457   4.746   1.421 -0.1034 -0.1983 -0.5582
 1003MOL0     O38300   9.341   4.663   1.400  0.2717  0.0105  0.8071
 1003MOL0     C38301   9.351   4.548   1.331  0.2470  0.3756  0.6065
 1003MOL0     C38302   9.238   4.465   1.326  0.2630 -0.1494  1.0961
 1003MOL0     C38303   9.242   4.348   1.242  0.3014  0.8124  0.8673
 1003MOL0     C38304   9.113   4.285   1.217  0.0498  0.5796 -0.5085
 1003MOL0     C38305   9.369   4.308   1.182 -0.5211 -0.1018  0.0924
 1003MOL0     C38306   9.385   4.187   1.101 -0.6596  0.4921 -0.9134
 1003MOL0     O38307   9.519   4.136   1.112 -0.0947  0.4437 -0.4882
 1003MOL0     C38308   9.534   4.024   1.026 -0.1573 -0.3458  0.3177
 1003MOL0     C38309   9.579   4.035   0.898 -0.2981  0.6242  0.2976
 1003MOL0     C38310   9.618   3.930   0.816  0.2521 -0.1739  0.3197
 1003MOL0     C38311   9.621   3.796   0.868 -1.6263  0.2285 -0.9264
 1003MOL0     O38312   9.660   3.692   0.786 -0.1116  0.7724  0.8487
 1003MOL0     C38313   9.705   3.567   0.853  0.0373 -0.4908 -1.2812
 1003MOL0     C38314   9.793   3.467   0.772  0.1365  1.3006 -0.2614
 1003MOL0     C38315   9.712   3.393   0.656 -0.6273 -0.4632 -0.5805
 1003MOL0     C38316   9.721   3.486   0.532 -1.0172 -0.6249 -0.8099
 1003MOL0     C38317   9.614   3.456   0.428  0.5263 -0.2348 -0.3253
 1003MOL0     C38318   9.645   3.531   0.297  0.0381 -0.5431 -0.1309
 1003MOL0     C38319   9.682   3.676   0.316  0.4845 -0.1864 -0.0990
 1003MOL0     C38320   9.644   3.774   0.206  0.6100 -0.5638  0.0560
 1003MOL0    Cl38321   9.462   3.777   0.205  1.1567 -0.0926 -0.4212
 1003MOL0     C38322   9.560   3.785   1.007  0.4368  0.1425  0.8099
 1003MOL0     C38323   9.514   3.893   1.075  0.1687 -0.9988 -0.1246
 1003MOL0     O38324   9.290   4.124   1.056  0.5037 -0.0063 -0.2393
 1003MOL0     C38325   9.484   4.385   1.208 -0.3325  0.2882 -0.2036
 1003MOL0     C38326   9.474   4.502   1.277 -1.0976 -0.3700 -0.3856
 1003MOL0     N38327   9.090   5.159   1.363  0.4591 -0.3236  0.1452
 1003MOL0     N38328   9.075   5.262   1.287 -0.8313  0.5043  0.2847
 1003MOL0     C38329   8.351   5.503   0.786  0.1316 -0.8663 -0.3787
 1003MOL0     C38330   8.234   5.468   0.730 -0.8714 -0.0122  0.0003
 1003MOL0     C38331   7.786   5.341   0.748 -0.1284 -0.7478  0.6608
 1003MOL0     C38332   7.793   5.244   0.640  1.6493  0.6875  0.4578
 1003MOL0     C38333   7.675   5.163   0.603  0.2293  0.4331  0.0298
 1003MOL0     C38334   7.561   5.180   0.679  0.7006 -0.0924 -0.3321
 1003MOL0     O38335   7.448   5.103   0.661 -0.1466  0.1513 -0.0312
 1003MOL0     C38336   7.460   4.976   0.583 -0.5415  0.4061 -0.4774
 1003MOL0     C38337   7.325   4.913   0.573  0.3307  0.1125  0.2990
 1003MOL0     C38338   7.323   4.794   0.475  0.5601 -0.1621 -0.0138
 1003MOL0     C38339   7.219   4.689   0.496 -1.3332 -0.1733 -0.6704
 1003MOL0     C38340   7.089   4.746   0.476 -0.0370 -0.8923  0.3492
 1003MOL0     C38341   6.989   4.812   0.465 -0.1375  0.3345  0.5119
 1003MOL0     C38342   7.552   5.285   0.770 -0.3356 -0.1414  0.0040
 1003MOL0     C38343   7.659   5.373   0.801  0.6134 -0.1839  1.2313
 1003MOL0     C38344   7.613   5.494   0.880  0.2496 -0.2631  0.5916
 1003MOL0     H38345   8.149   5.216   0.929  0.2338 -1.5223 -1.3596
 1003MOL0     H38346   8.353   5.298   1.051 -1.8379 -3.5914 -1.0466
 1003MOL0     H38347   8.573   5.330   1.064  0.6642 -1.0310 -0.9527
 1003MOL0     H38348   8.571   5.477   1.159 -1.3016 -1.4831 -0.6543
 1003MOL0     H38349   8.796   5.410   1.118 -0.0624 -0.9615  0.1120
 1003MOL0     H38350   8.773   5.435   0.937  1.3563 -3.1032  0.9826
 1003MOL0     H38351   8.844   5.647   0.997  0.1603 -1.1998  0.5426
 1003MOL0     H38352   8.664   5.668   1.009  0.2802 -1.5520 -1.7902
 1003MOL0     H38353   8.779   5.777   1.200 -4.8379 -0.3425  3.5157
 1003MOL0     H38354   8.663   5.661   1.245  1.2632 -2.5249  1.9135
 1003MOL0     H38355   8.873   5.501   1.278 -2.2369  0.6794  0.3176
 1003MOL0     H38356   8.862   5.622   1.393  0.0876  0.3968  0.5521
 1003MOL0     H38357   9.034   5.666   1.146 -1.9706  0.5293  0.7888
 1003MOL0     H38358   9.033   5.774   1.284  0.5772  0.7253  1.9605
 1003MOL0     H38359   9.093   5.564   1.425  2.9364  0.7857  0.8368
 1003MOL0     H38360   9.219   5.660   1.347 -1.7506  1.3555  0.4845
 1003MOL0     H38361   9.146   5.472   1.149 -1.2025  3.3854  0.4157
 1003MOL0     H38362   9.302   5.491   1.227  1.2856 -3.1442  4.0306
 1003MOL0     H38363   9.349   5.326   1.461  0.4887 -2.4963  1.7854
 1003MOL0     H38364   9.168   4.996   1.549  0.1318 -0.4958 -0.1153
 1003MOL0     H38365   9.287   5.104   1.620  2.5598  2.2107 -2.7383
 1003MOL0     H38366   9.292   4.938   1.360  0.4097 -0.6416 -0.7429
 1003MOL0     H38367   9.425   5.037   1.413 -1.0605  0.8609  1.5295
 1003MOL0     H38368   9.509   4.894   1.567 -0.3545  1.5862  0.2396
 1003MOL0     H38369   9.360   4.807   1.599  1.3562  0.3463  1.0605
 1003MOL0     H38370   9.476   4.793   1.325 -1.9964 -2.6711 -2.2639
 1003MOL0     H38371   9.543   4.684   1.450  2.0847  0.4283 -4.9613
 1003MOL0     H38372   9.145   4.493   1.375  0.3029  2.5798 -0.2350
 1003MOL0     H38373   9.102   4.261   1.111 -0.0626  0.1225 -0.3954
 1003MOL0     H38374   9.033   4.353   1.245  0.9948  0.1584  3.9652
 1003MOL0     H38375   9.112   4.198   1.284 -0.8725 -0.0048 -1.2509
 1003MOL0     H38376   9.572   4.138   0.865  0.3275  1.1214  1.6282
 1003MOL0     H38377   9.642   3.947   0.712 -0.3224 -1.1572  0.0196
 1003MOL0     H38378   9.772   3.598   0.933 -1.9362  3.7997 -1.0034
 1003MOL0     H38379   9.616   3.520   0.896 -0.1883 -0.4337 -1.6824
 1003MOL0     H38380   9.879   3.528   0.744  1.5194  0.3082  1.5618
 1003MOL0     H38381   9.852   3.401   0.837  1.3689  3.7208  1.2060
 1003MOL0     H38382   9.606   3.394   0.684  0.1439 -0.4889  2.6198
 1003MOL0     H38383   9.742   3.291   0.634  1.6483  0.1138 -0.3679
 1003MOL0     H38384   9.820   3.473   0.486 -0.6325 -0.4871 -0.0414
 1003MOL0     H38385   9.704   3.589   0.566 -1.6200 -1.5125  1.8019
 1003MOL0     H38386   9.610   3.349   0.409  1.6073 -0.6701  1.6170
 1003MOL0     H38387   9.529   3.503   0.477  0.6265  0.1767 -0.5407
 1003MOL0     H38388   9.555   3.531   0.235 -0.9913 -2.5398  1.2354
 1003MOL0     H38389   9.724   3.491   0.233 -0.3817 -1.2477 -0.2265
 1003MOL0     H38390   9.791   3.678   0.323  0.4062  0.4357  1.4173
 1003MOL0     H38391   9.650   3.713   0.414  1.5307 -1.1339  0.6215
 1003MOL0     H38392   9.669   3.730   0.109  0.6657  0.3532 -0.3491
 1003MOL0     H38393   9.677   3.876   0.227  3.1109 -1.3540  0.3937
 1003MOL0     H38394   9.555   3.687   1.052  3.8911 -0.5757 -0.0829
 1003MOL0     H38395   9.495   3.869   1.179 -2.7401 -0.1377 -0.3576
 1003MOL0     H38396   9.576   4.369   1.152  0.9243  2.3432  1.1360
 1003MOL0     H38397   9.569   4.553   1.286  0.2047 -2.8096  0.7853
 1003MOL0     H38398   8.426   5.569   0.746  2.0552 -0.2298  3.7442
 1003MOL0     H38399   8.211   5.495   0.627 -2.6455 -2.2880 -0.2836
 1003MOL0     H38400   7.886   5.220   0.589 -0.1644 -2.1873 -1.8421
 1003MOL0     H38401   7.682   5.084   0.530 -2.2459  0.3044 -0.1543
 1003MOL0     H38402   7.506   4.992   0.484  0.7231  0.9401  0.1772
 1003MOL0     H38403   7.519   4.899   0.634 -0.6953  0.2702 -0.5033
 1003MOL0     H38404   7.240   4.978   0.548 -1.9041 -2.4062  1.0032
 1003MOL0     H38405   7.296   4.885   0.674 -2.0842 -0.5204 -0.5051
 1003MOL0     H38406   7.309   4.833   0.374 -4.6884  0.4377  0.6640
 1003MOL0     H38407   7.416   4.736   0.480 -1.2373 -3.1886  2.8833
 1003MOL0     H38408   7.218   4.662   0.602  1.3247  0.2349 -0.4584
 1003MOL0     H38409   7.238   4.608   0.426  0.5176  1.3722 -2.0706
 1003MOL0     H38410   6.901   4.872   0.465 -0.3004  0.0971 -0.0375
 1003MOL0     H38411   7.456   5.307   0.817  0.3318  0.1013  1.2998
 1003MOL0     H38412   7.663   5.576   0.828  0.4500 -0.9170 -0.2697
 1003MOL0     H38413   7.505   5.510   0.871  0.5729  2.0076  0.2000
 1003MOL0     H38414   7.631   5.483   0.988 -4.3940 -1.0013  1.4831
 1004MOL0     O38415   3.409   2.292   9.470 -0.0726  0.4620 -0.7595
 1004MOL0     C38416   3.328   2.277   9.383  0.8266 -0.0620  0.3050
 1004MOL0     O38417   3.312   2.370   9.282  0.0829  0.7298  0.0070
 1004MOL0     C38418   3.323   2.504   9.307 -0.0765 -0.3034 -0.0699
 1004MOL0     C38419   3.308   2.578   9.191 -0.6022  0.1347 -0.4496
 1004MOL0     C38420   3.326   2.720   9.180  0.5861 -0.0735 -0.9868
 1004MOL0     C38421   3.361   2.784   9.302 -0.1274 -0.3502  1.1797
 1004MOL0     O38422   3.363   2.924   9.301  0.0853  0.5853 -0.0207
 1004MOL0     C38423   3.406   2.997   9.414 -0.2355  0.8716 -1.0778
 1004MOL0     C38424   3.455   3.133   9.363 -0.9900  0.7824 -0.7370
 1004MOL0     C38425   3.559   3.132   9.242 -0.6898  0.3727  0.0985
 1004MOL0     C38426   3.688   3.055   9.275 -0.6700 -0.1094 -0.3640
 1004MOL0     C38427   3.771   3.051   9.147  0.8994  0.3365  0.2140
 1004MOL0     C38428   3.901   2.982   9.169  0.3152 -0.7684  0.7619
 1004MOL0     C38429   3.969   2.960   9.031  0.1166  0.1777 -0.0774
 1004MOL0     C38430   3.986   3.089   8.945  0.8412  0.0800  0.6480
 1004MOL0     N38431   4.084   3.169   9.017  0.2426  0.2466  0.8676
 1004MOL0     C38432   4.075   3.299   9.066  1.2281 -0.5787 -0.7344
 1004MOL0     C38433   4.179   3.337   9.135 -0.0645 -0.3400  0.2180
 1004MOL0     C38434   4.205   3.456   9.223  0.0806 -0.3793 -0.2568
 1004MOL0     C38435   4.268   3.575   9.150 -0.4201  0.3548  0.0928
 1004MOL0     C38436   4.410   3.526   9.098  0.6666 -0.0658  0.0553
 1004MOL0     C38437   4.519   3.523   9.209 -0.2444  0.5768 -0.2062
 1004MOL0     O38438   4.526   3.658   9.250 -0.3179  0.4539  0.2235
 1004MOL0     C38439   4.626   3.695   9.335  0.1581 -0.7804 -0.4162
 1004MOL0     C38440   4.652   3.839   9.345  0.6521 -0.0785  0.1811
 1004MOL0     C38441   4.749   3.879   9.438  0.6644  0.1467  0.1987
 1004MOL0     C38442   4.761   4.024   9.461 -0.6446 -0.1531 -0.1879
 1004MOL0     C38443   4.829   3.787   9.509 -0.3980  0.5218  0.6244
 1004MOL0     C38444   4.938   3.826   9.593  0.4026 -0.3336  0.0055
 1004MOL0     O38445   5.002   3.941   9.587  0.0085 -0.5391  0.2240
 1004MOL0     C38446   5.073   3.966   9.702 -0.7739  0.0160 -0.2394
 1004MOL0     C38447   5.207   3.912   9.722  0.2668 -0.3110  0.5076
 1004MOL0     C38448   5.286   3.934   9.842 -0.5270 -0.8992  0.1552
 1004MOL0     C38449   5.227   4.007   9.943 -0.3287  0.3464 -0.8047
 1004MOL0     O38450   5.311   4.033  10.047 -0.7681 -0.1632  0.3634
 1004MOL0     C38451   5.270   4.117  10.158 -0.2715  0.7595  0.6822
 1004MOL0     C38452   5.393   4.162  10.244  1.2658  0.5074 -0.4586
 1004MOL0     C38453   5.362   4.316  10.278 -0.7710  0.5361  1.3405
 1004MOL0     C38454   5.462   4.364  10.383  0.7767 -1.1985  0.4047
 1004MOL0     C38455   5.421   4.512  10.412  0.0703 -1.1465 -0.4794
 1004MOL0     C38456   5.526   4.587  10.491 -0.3946 -0.0347 -0.7652
 1004MOL0     C38457   5.469   4.657  10.621  0.2778  0.8011 -0.8235
 1004MOL0     C38458   5.376   4.760  10.585 -0.4261 -0.8667 -1.0734
 1004MOL0    Cl38459   5.461   4.898  10.513 -0.2279  0.0486  0.1459
 1004MOL0     C38460   5.095   4.058   9.929 -0.3226  0.0074 -0.2524
 1004MOL0     C38461   5.023   4.038   9.805 -0.1566 -0.4729 -1.0477
 1004MOL0     O38462   4.967   3.739   9.669  0.1820  0.3760  0.4167
 1004MOL0     C38463   4.810   3.645   9.481 -0.1285  0.5970  0.0942
 1004MOL0     C38464   4.712   3.606   9.397  0.3716  1.2396 -0.3181
 1004MOL0     N38465   4.258   3.218   9.133  0.3307 -0.1518 -0.1762
 1004MOL0     N38466   4.199   3.120   9.071 -0.2953 -0.0668  0.6118
 1004MOL0     C38467   3.388   2.707   9.412  0.1181 -0.2916  0.9966
 1004MOL0     C38468   3.378   2.568   9.418 -0.5634  0.8857  1.1064
 1004MOL0     C38469   3.249   2.145   9.365 -0.0109  0.4968 -0.1198
 1004MOL0     C38470   3.216   2.101   9.235 -0.4447  0.2787  0.7929
 1004MOL0     C38471   3.140   1.988   9.221 -0.7138  0.2867  1.0961
 1004MOL0     C38472   3.115   1.896   9.325  0.2573 -0.4283  0.0492
 1004MOL0     O38473   3.049   1.768   9.311 -0.0651 -0.2372 -0.7778
 1004MOL0     C38474   2.942   1.767   9.221  0.4085  1.0752  0.2069
 1004MOL0     C38475   2.876   1.634   9.261 -1.0735  0.1567  0.4618
 1004MOL0     C38476   2.905   1.513   9.163  0.7172 -0.0638  0.2476
 1004MOL0     C38477   3.041   1.453   9.176  0.7113 -0.8968 -0.3221
 1004MOL0     C38478   3.040   1.336   9.090  0.6854 -0.0903 -0.1339
 1004MOL0     C38479   3.060   1.226   9.045 -0.6576 -0.3503 -1.1067
 1004MOL0     C38480   3.154   1.935   9.453 -0.6205 -0.0916 -0.4427
 1004MOL0     C38481   3.216   2.065   9.474 -0.1207 -0.4039  0.5086
 1004MOL0     C38482   3.248   2.090   9.622  0.1469 -1.2321 -0.3865
 1004MOL0     H38483   3.282   2.537   9.094  0.4019  2.0716 -1.6036
 1004MOL0     H38484   3.307   2.774   9.087  0.2590 -1.1092 -1.5420
 1004MOL0     H38485   3.485   2.957   9.478 -2.5453  1.2207  2.2105
 1004MOL0     H38486   3.312   3.009   9.468 -0.7040 -2.3587 -0.9904
 1004MOL0     H38487   3.362   3.184   9.340 -2.0313 -0.8182 -0.2128
 1004MOL0     H38488   3.510   3.191   9.438  2.2929  1.1086 -3.1605
 1004MOL0     H38489   3.506   3.091   9.156  2.9559 -1.6220 -1.4555
 1004MOL0     H38490   3.590   3.233   9.214  0.7659  0.1773  0.8924
 1004MOL0     H38491   3.746   3.105   9.353  0.8360  0.4491 -1.7834
 1004MOL0     H38492   3.651   2.956   9.303 -2.1544  0.1223 -1.3646
 1004MOL0     H38493   3.801   3.149   9.108  0.8357  0.0995 -0.4555
 1004MOL0     H38494   3.710   3.001   9.071  0.7609  0.7684  0.0356
 1004MOL0     H38495   3.961   3.049   9.232 -1.1847  2.7511 -1.2326
 1004MOL0     H38496   3.887   2.891   9.226 -1.8635 -0.6834  0.4435
 1004MOL0     H38497   3.905   2.881   8.990  0.8381 -0.2409 -0.4070
 1004MOL0     H38498   4.069   2.918   9.045  0.7105  1.5343 -0.1172
 1004MOL0     H38499   4.026   3.072   8.845  1.0049  1.7599  0.4000
 1004MOL0     H38500   3.894   3.143   8.917 -0.1744 -3.1228 -3.0567
 1004MOL0     H38501   3.977   3.345   9.065  0.1279 -2.8053 -2.0209
 1004MOL0     H38502   4.282   3.424   9.294  1.1544  2.8772  0.1811
 1004MOL0     H38503   4.113   3.490   9.272  1.1361 -2.3561  3.5348
 1004MOL0     H38504   4.192   3.601   9.077 -1.0421 -1.5439  0.0073
 1004MOL0     H38505   4.289   3.662   9.212  0.0935 -0.4380  1.0702
 1004MOL0     H38506   4.403   3.428   9.049  5.0482  0.0445 -1.2330
 1004MOL0     H38507   4.438   3.596   9.019  0.6355 -2.4478 -2.2126
 1004MOL0     H38508   4.489   3.459   9.293  1.8591 -0.6077 -0.2731
 1004MOL0     H38509   4.612   3.489   9.163 -1.7003 -0.8580 -2.2530
 1004MOL0     H38510   4.573   3.898   9.301 -1.3634 -3.1440 -0.6749
 1004MOL0     H38511   4.859   4.051   9.418 -0.3711 -1.7235 -0.6018
 1004MOL0     H38512   4.761   4.060   9.564 -3.9474  2.1813 -0.8418
 1004MOL0     H38513   4.690   4.081   9.401 -0.9607  1.5264  1.6584
 1004MOL0     H38514   5.251   3.839   9.655 -2.6111 -2.6493  0.9907
 1004MOL0     H38515   5.389   3.899   9.851 -0.7749 -1.4536  0.9920
 1004MOL0     H38516   5.219   4.202  10.111  0.1997 -1.0424 -3.4388
 1004MOL0     H38517   5.199   4.065  10.223 -0.4373  2.3900  1.8831
 1004MOL0     H38518   5.382   4.087  10.323  0.1447  0.7589 -0.3673
 1004MOL0     H38519   5.483   4.142  10.185  0.0139  0.2627 -2.3902
 1004MOL0     H38520   5.263   4.304  10.321 -1.1033 -2.2114  0.0588
 1004MOL0     H38521   5.367   4.381  10.190  0.9996  1.0758  1.7882
 1004MOL0     H38522   5.564   4.360  10.343  0.2280 -0.3164 -1.1804
 1004MOL0     H38523   5.445   4.302  10.471 -1.6184 -2.7376 -1.0251
 1004MOL0     H38524   5.407   4.567  10.319  5.5410  0.4724 -0.6697
 1004MOL0     H38525   5.329   4.510  10.472 -1.0690  2.1156 -1.8992
 1004MOL0     H38526   5.581   4.669  10.444 -0.8277  0.5400 -0.2883
 1004MOL0     H38527   5.601   4.517  10.531  1.0454  2.8882  2.1349
 1004MOL0     H38528   5.547   4.689  10.691  1.1553  1.1031 -1.9146
 1004MOL0     H38529   5.428   4.572  10.676 -1.6697  1.8707 -0.5544
 1004MOL0     H38530   5.318   4.804  10.666  1.7899 -0.6825  0.4968
 1004MOL0     H38531   5.301   4.730  10.511 -0.6349 -0.2513 -1.1142
 1004MOL0     H38532   5.045   4.098  10.017 -3.0618 -0.9608 -1.2539
 1004MOL0     H38533   4.919   4.064   9.785 -0.0010  1.4375  0.2611
 1004MOL0     H38534   4.878   3.572   9.525  1.3332  2.5916  1.2894
 1004MOL0     H38535   4.698   3.498   9.394 -0.5441  1.3580 -0.6771
 1004MOL0     H38536   3.412   2.753   9.507 -2.8891 -1.2639  2.3432
 1004MOL0     H38537   3.413   2.520   9.509  0.1096  1.4199  1.1400
 1004MOL0     H38538   3.232   2.171   9.153 -2.6892  2.0134  1.7279
 1004MOL0     H38539   3.101   1.956   9.125  0.2209 -1.5581  1.2776
 1004MOL0     H38540   2.870   1.847   9.240 -1.9024 -0.9881  0.6471
 1004MOL0     H38541   2.975   1.772   9.117 -0.7420 -1.1818 -0.3211
 1004MOL0     H38542   2.769   1.653   9.274 -0.5971  1.1389  4.0600
 1004MOL0     H38543   2.898   1.588   9.357 -1.9099 -2.1821 -0.4040
 1004MOL0     H38544   2.821   1.445   9.183 -2.6126  3.0351 -2.0656
 1004MOL0     H38545   2.889   1.547   9.061 -4.0485 -1.6589  0.2310
 1004MOL0     H38546   3.059   1.430   9.282  0.0235  0.1441  0.0385
 1004MOL0     H38547   3.116   1.529   9.152 -0.1914  0.2357  0.3082
 1004MOL0     H38548   3.079   1.124   9.020  2.1684 -0.0466 -0.5667
 1004MOL0     H38549   3.139   1.866   9.535  0.0285 -0.8059 -0.9072
 1004MOL0     H38550   3.193   2.173   9.668  0.9794 -2.3120  2.8644
 1004MOL0     H38551   3.224   1.998   9.676  0.7193 -0.8306  0.5821
 1004MOL0     H38552   3.351   2.119   9.645  0.1926 -1.9720  0.3902
 1005MOL0     O38553   7.670   5.364   9.533  0.0984 -0.6723 -0.2129
 1005MOL0     C38554   7.630   5.403   9.424  0.1226 -0.6812 -0.2897
 1005MOL0     O38555   7.712   5.416   9.308 -0.1394  0.4132 -0.4037
 1005MOL0     C38556   7.848   5.397   9.313 -0.4021  0.3276  0.2385
 1005MOL0     C38557   7.913   5.306   9.234 -0.9157  0.0380  0.9010
 1005MOL0     C38558   8.056   5.289   9.228  0.0995 -0.2535  0.5171
 1005MOL0     C38559   8.133   5.386   9.300 -0.1365  0.2442 -0.3219
 1005MOL0     O38560   8.271   5.392   9.278 -0.2835  0.9347  0.4461
 1005MOL0     C38561   8.356   5.288   9.223 -0.1629 -0.1189 -0.3454
 1005MOL0     C38562   8.480   5.263   9.309  0.3517 -0.8934  0.6207
 1005MOL0     C38563   8.566   5.160   9.246 -0.6314  0.5450 -0.3511
 1005MOL0     C38564   8.509   5.010   9.254 -0.4681  0.0274 -0.4182
 1005MOL0     C38565   8.599   4.903   9.199  0.1129 -0.3742 -0.2273
 1005MOL0     C38566   8.534   4.764   9.233 -0.0443 -0.0720  0.0875
 1005MOL0     C38567   8.651   4.660   9.226  0.2310  0.5935  0.0288
 1005MOL0     C38568   8.611   4.511   9.221  0.0496  0.5321  0.1068
 1005MOL0     N38569   8.516   4.485   9.115  0.7120 -0.2115  0.2976
 1005MOL0     C38570   8.529   4.437   8.985  0.1909  0.7076 -0.2685
 1005MOL0     C38571   8.427   4.484   8.912  0.2286 -0.1936  0.9304
 1005MOL0     C38572   8.403   4.496   8.768 -0.3623  0.6416 -0.4057
 1005MOL0     C38573   8.501   4.574   8.697 -0.2340 -0.1719 -0.3950
 1005MOL0     C38574   8.477   4.724   8.722 -0.0845 -1.0444  0.0291
 1005MOL0     C38575   8.558   4.804   8.615 -0.3067  0.9005 -0.2828
 1005MOL0     O38576   8.697   4.767   8.621 -1.0485 -0.3555  0.8404
 1005MOL0     C38577   8.763   4.784   8.742  0.7128  1.0303 -0.3646
 1005MOL0     C38578   8.769   4.891   8.826  0.3865 -0.3918  0.1459
 1005MOL0     C38579   8.867   4.886   8.935  0.1453 -0.4152  1.1694
 1005MOL0     C38580   8.876   5.024   9.013  0.6124  0.4956 -0.0237
 1005MOL0     C38581   8.944   4.765   8.957  0.8823 -0.3371 -0.4060
 1005MOL0     C38582   9.029   4.758   9.075 -1.0569 -1.3274 -0.8276
 1005MOL0     O38583   9.111   4.645   9.096  0.9480  0.2821 -0.0742
 1005MOL0     C38584   9.172   4.631   9.218  0.5769  0.0188  0.1400
 1005MOL0     C38585   9.304   4.613   9.235 -1.1226  0.4499 -0.6974
 1005MOL0     C38586   9.360   4.582   9.364 -0.5942 -0.2670 -0.1799
 1005MOL0     C38587   9.280   4.569   9.475  0.1761  0.4457 -0.0276
 1005MOL0     O38588   9.329   4.551   9.602  0.4986 -0.1410 -0.1057
 1005MOL0     C38589   9.325   4.661   9.700 -0.3341  0.3189  0.0896
 1005MOL0     C38590   9.423   4.768   9.655  0.5996 -0.3259  0.0584
 1005MOL0     C38591   9.412   4.888   9.759 -0.8012 -0.3337 -0.1845
 1005MOL0     C38592   9.492   5.011   9.700 -0.2187 -0.2714  0.4834
 1005MOL0     C38593   9.509   5.117   9.812 -0.0823  0.7777 -1.0767
 1005MOL0     C38594   9.568   5.249   9.767 -0.3463 -0.3569 -0.0638
 1005MOL0     C38595   9.559   5.360   9.876  0.2985 -0.1749  0.1670
 1005MOL0     C38596   9.612   5.497   9.831  0.0672 -0.0299  0.2811
 1005MOL0    Cl38597   9.554   5.603   9.964 -0.1309 -0.4772  0.3582
 1005MOL0     C38598   9.146   4.586   9.456  0.8695 -0.4909 -0.0854
 1005MOL0     C38599   9.089   4.618   9.335 -1.1141 -0.5045 -0.0469
 1005MOL0     O38600   9.024   4.851   9.154 -0.2145 -0.2482  0.1430
 1005MOL0     C38601   8.936   4.666   8.868  0.5141  0.1808  0.5353
 1005MOL0     C38602   8.846   4.679   8.766 -0.5873  0.2425 -0.3692
 1005MOL0     N38603   8.339   4.545   9.000 -0.6855  0.5426  0.4761
 1005MOL0     N38604   8.388   4.538   9.122 -0.8669  0.2538  0.4657
 1005MOL0     C38605   8.069   5.471   9.387 -0.4853 -0.6112  0.5181
 1005MOL0     C38606   7.930   5.477   9.392  0.5432  0.2456  0.5485
 1005MOL0     C38607   7.482   5.434   9.406  0.0117 -1.3431 -0.5085
 1005MOL0     C38608   7.440   5.511   9.301 -0.5387  0.2773 -0.6497
 1005MOL0     C38609   7.312   5.541   9.269  0.5371 -0.8127 -0.5750
 1005MOL0     C38610   7.207   5.483   9.347 -0.3833  0.1710 -0.7427
 1005MOL0     O38611   7.078   5.500   9.313 -0.4886  0.4146 -0.6822
 1005MOL0     C38612   7.001   5.613   9.375  0.0630  0.7295 -0.8156
 1005MOL0     C38613   6.918   5.679   9.267 -0.5098 -0.7871  0.0278
 1005MOL0     C38614   6.800   5.592   9.220  0.6773 -0.0578 -0.7815
 1005MOL0     C38615   6.687   5.690   9.199  0.0677 -0.8487 -0.2990
 1005MOL0     C38616   6.636   5.758   9.330  0.2813  1.2824  0.0192
 1005MOL0     C38617   6.576   5.806   9.424  0.4989  0.3555 -0.3590
 1005MOL0     C38618   7.251   5.415   9.466  0.0788  1.0523  0.4297
 1005MOL0     C38619   7.383   5.387   9.496  0.1943 -0.1690  1.0422
 1005MOL0     C38620   7.403   5.295   9.618 -0.9224 -0.5341  0.4727
 1005MOL0     H38621   7.855   5.244   9.166  0.9459 -3.3241  2.1872
 1005MOL0     H38622   8.091   5.218   9.154 -2.1462 -1.6801  0.7219
 1005MOL0     H38623   8.384   5.320   9.122  0.7620  2.4576  0.6444
 1005MOL0     H38624   8.304   5.193   9.209  4.4243 -3.6251  2.9699
 1005MOL0     H38625   8.537   5.355   9.298 -1.3580  0.0644 -0.8185
 1005MOL0     H38626   8.442   5.220   9.402 -2.1892 -3.2465 -1.3380
 1005MOL0     H38627   8.592   5.169   9.140  1.6163 -1.0656 -0.0154
 1005MOL0     H38628   8.658   5.168   9.304 -1.3808 -0.0202  0.9544
 1005MOL0     H38629   8.488   4.981   9.357  1.3548 -0.6961 -0.2175
 1005MOL0     H38630   8.416   5.000   9.197 -0.4390  2.3920 -0.9857
 1005MOL0     H38631   8.700   4.919   9.239 -0.0462 -1.9727  0.9185
 1005MOL0     H38632   8.597   4.919   9.091 -1.0404  0.2776 -0.1256
 1005MOL0     H38633   8.498   4.753   9.336  1.2805  2.3305  0.8879
 1005MOL0     H38634   8.446   4.761   9.168  1.9630  1.8055 -2.9346
 1005MOL0     H38635   8.724   4.670   9.307  1.4672  4.2749 -1.3141
 1005MOL0     H38636   8.705   4.669   9.131 -1.3212  0.5430 -0.8917
 1005MOL0     H38637   8.702   4.456   9.199  1.2673  1.9022  1.5060
 1005MOL0     H38638   8.569   4.479   9.316 -2.0015 -2.5539 -1.6407
 1005MOL0     H38639   8.608   4.385   8.932 -1.9959 -1.9940 -1.1348
 1005MOL0     H38640   8.304   4.541   8.757 -1.1501 -0.7177  0.7828
 1005MOL0     H38641   8.405   4.396   8.724  0.2578 -0.3009  1.6224
 1005MOL0     H38642   8.600   4.538   8.727  1.3212  2.8442 -1.4212
 1005MOL0     H38643   8.490   4.559   8.589 -0.3813  0.8618 -0.5371
 1005MOL0     H38644   8.371   4.745   8.708 -0.3914 -2.3268  0.2467
 1005MOL0     H38645   8.513   4.740   8.824  3.4134  0.4485 -1.2838
 1005MOL0     H38646   8.529   4.784   8.511  4.4501  0.9206 -1.9010
 1005MOL0     H38647   8.560   4.912   8.629  1.3642  0.9414 -0.5480
 1005MOL0     H38648   8.720   4.986   8.806  2.4929  1.1984  2.0540
 1005MOL0     H38649   8.812   5.102   8.970 -0.7214  0.0260  1.0515
 1005MOL0     H38650   8.982   5.052   9.009  0.9992 -0.7710  0.8898
 1005MOL0     H38651   8.836   5.010   9.113 -0.2056 -0.4983 -0.4757
 1005MOL0     H38652   9.367   4.624   9.147 -0.4524 -1.8043 -0.5757
 1005MOL0     H38653   9.465   4.589   9.391 -0.6570 -0.5448  0.1479
 1005MOL0     H38654   9.221   4.694   9.710 -0.2959  0.8021 -1.0619
 1005MOL0     H38655   9.366   4.621   9.793  1.4228 -0.4566 -0.9761
 1005MOL0     H38656   9.527   4.733   9.659  0.2031 -1.5862 -0.4638
 1005MOL0     H38657   9.396   4.806   9.557 -0.2654 -3.3934 -0.9854
 1005MOL0     H38658   9.456   4.872   9.858 -2.4229 -2.7709  0.2357
 1005MOL0     H38659   9.306   4.909   9.773 -0.6037 -0.2979  1.5138
 1005MOL0     H38660   9.441   5.048   9.611 -0.5213 -0.8395  0.4187
 1005MOL0     H38661   9.591   4.972   9.678  1.7191  2.3984  3.5416
 1005MOL0     H38662   9.410   5.133   9.857  1.2625  2.4893  1.5024
 1005MOL0     H38663   9.576   5.071   9.886  0.7552 -1.2379 -2.9649
 1005MOL0     H38664   9.508   5.280   9.681  2.0705  1.7040 -1.1184
 1005MOL0     H38665   9.671   5.239   9.732 -0.8868 -2.1517 -1.2662
 1005MOL0     H38666   9.626   5.331   9.958 -0.1649  1.4652  1.1821
 1005MOL0     H38667   9.457   5.370   9.915 -0.5088  0.5637 -1.9952
 1005MOL0     H38668   9.578   5.526   9.731  0.7902 -1.9018 -0.5556
 1005MOL0     H38669   9.720   5.481   9.831 -0.0675 -1.1834  1.7569
 1005MOL0     H38670   9.081   4.578   9.543 -0.9238 -0.2782 -1.3562
 1005MOL0     H38671   8.983   4.634   9.323 -0.9015  0.6968 -0.4525
 1005MOL0     H38672   9.004   4.583   8.882  1.3959  0.2096 -2.7578
 1005MOL0     H38673   8.846   4.593   8.700  0.8795 -1.6050  1.8514
 1005MOL0     H38674   8.127   5.537   9.451 -2.4153  1.0474  0.6836
 1005MOL0     H38675   7.873   5.549   9.450 -0.4005 -0.4888  0.5540
 1005MOL0     H38676   7.511   5.556   9.232  4.4253 -0.0301  3.6473
 1005MOL0     H38677   7.287   5.601   9.181 -1.1076  1.1588  1.1239
 1005MOL0     H38678   6.933   5.586   9.457 -1.8700  4.1020 -1.1310
 1005MOL0     H38679   7.065   5.684   9.428  0.3798 -1.2123  1.6027
 1005MOL0     H38680   6.984   5.688   9.180 -1.4644  1.0307 -0.5662
 1005MOL0     H38681   6.880   5.774   9.305 -4.2855 -1.0488 -2.4427
 1005MOL0     H38682   6.826   5.524   9.138 -2.6452  0.7653 -2.7062
 1005MOL0     H38683   6.770   5.524   9.301  1.6766 -1.5173 -1.5772
 1005MOL0     H38684   6.605   5.650   9.139 -0.0819  2.9515 -2.9558
 1005MOL0     H38685   6.714   5.781   9.145 -2.6916  2.8879  3.9122
 1005MOL0     H38686   6.528   5.840   9.513  3.1498  1.1016  0.8524
 1005MOL0     H38687   7.172   5.380   9.531 -1.2178  1.7213 -0.7465
 1005MOL0     H38688   7.469   5.212   9.591 -1.8081 -0.1714 -3.3999
 1005MOL0     H38689   7.448   5.354   9.699 -2.2064  3.7950 -1.6088
 1005MOL0     H38690   7.305   5.259   9.648 -1.2650  0.1564  0.2149
 1006MOL0     O38691  11.091   0.581   9.950 -0.6832 -0.8479 -0.0556
 1006MOL0     C38692  11.055   0.472   9.969  0.5943  1.0405 -0.6163
 1006MOL0     O38693  10.929   0.432  10.011  0.1492 -0.5348 -0.8059
 1006MOL0     C38694  10.832   0.520   9.983 -0.0353  0.4635 -1.3349
 1006MOL0     C38695  10.809   0.620  10.081 -0.2333  0.1688  0.0420
 1006MOL0     C38696  10.709   0.719  10.057 -0.3537  0.2479  0.1491
 1006MOL0     C38697  10.651   0.731   9.932  0.3535 -0.7794  0.4588
 1006MOL0     O38698  10.589   0.845   9.883  0.3470 -0.6339  0.2428
 1006MOL0     C38699  10.543   0.948   9.974  0.1963  0.7220  0.1304
 1006MOL0     C38700  10.447   1.052   9.907 -0.3314 -0.0472  0.2716
 1006MOL0     C38701  10.444   1.190   9.978  1.3781  0.1754  0.5517
 1006MOL0     C38702  10.363   1.294   9.896  0.0677  0.1674  0.8548
 1006MOL0     C38703  10.356   1.424   9.966 -0.0207 -0.1724 -0.3281
 1006MOL0     C38704  10.463   1.519   9.907 -0.6251 -0.4130 -0.1116
 1006MOL0     C38705  10.490   1.633   9.998  0.3392  0.4455  0.2294
 1006MOL0     C38706  10.546   1.761   9.928 -0.0476 -0.0346  0.4501
 1006MOL0     N38707  10.697   1.766   9.910  0.1987  0.3898 -0.0183
 1006MOL0     C38708  10.777   1.671   9.852  0.0237  0.4464  0.4106
 1006MOL0     C38709  10.895   1.734   9.828  0.3353 -0.4629  0.7253
 1006MOL0     C38710  11.022   1.664   9.765  0.0497 -0.7461  0.5024
 1006MOL0     C38711  11.130   1.606   9.867  1.5374 -0.6066 -0.8408
 1006MOL0     C38712  11.197   1.714   9.959 -0.5309 -0.1372 -0.4115
 1006MOL0     C38713  11.308   1.634  10.043  0.0311 -0.9003  0.8386
 1006MOL0     O38714  11.265   1.565  10.154  0.6660  0.0338  0.7341
 1006MOL0     C38715  11.219   1.640  10.263 -0.5001 -0.6647  0.0701
 1006MOL0     C38716  11.166   1.563  10.366  0.6846  0.1000  0.5262
 1006MOL0     C38717  11.104   1.612  10.482  0.9917  0.1144  0.0128
 1006MOL0     C38718  11.035   1.513  10.571  0.8335  0.3608 -1.1261
 1006MOL0     C38719  11.111   1.744  10.508 -0.2941  0.3075  0.9114
 1006MOL0     C38720  11.063   1.809  10.634 -0.6133 -1.1283  0.5678
 1006MOL0     O38721  11.034   1.947  10.618  0.2678 -0.4411  0.1206
 1006MOL0     C38722  10.965   2.009  10.721  0.0051 -0.8456  0.1625
 1006MOL0     C38723  11.026   2.041  10.845  0.8689  0.3983  0.1811
 1006MOL0     C38724  10.946   2.103  10.948 -0.4827  0.4450 -0.4199
 1006MOL0     C38725  10.817   2.139  10.932  0.1238 -0.3867 -0.4516
 1006MOL0     O38726  10.750   2.192  11.047 -0.4940  0.5231 -0.2103
 1006MOL0     C38727  10.756   2.334  11.058 -0.4731 -0.0743  0.5116
 1006MOL0     C38728  10.731   2.384  11.202  0.1185  0.3406  0.0822
 1006MOL0     C38729  10.810   2.305  11.311 -0.6434 -0.0848 -0.2030
 1006MOL0     C38730  10.760   2.347  11.442 -0.8863 -0.4337 -0.2741
 1006MOL0     C38731  10.813   2.255  11.562 -0.8261  0.1661  0.0454
 1006MOL0     C38732  10.972   2.251  11.559 -0.1918  0.2564 -0.0182
 1006MOL0     C38733  11.048   2.195  11.682 -0.1645 -0.0611 -0.0169
 1006MOL0     C38734  11.197   2.229  11.663 -1.0115  0.0518  0.1952
 1006MOL0    Cl38735  11.298   2.147  11.775 -0.4510 -0.0184 -0.6429
 1006MOL0     C38736  10.760   2.110  10.814 -0.6433 -0.1072 -0.0977
 1006MOL0     C38737  10.834   2.050  10.709  0.1128  0.9432 -0.0366
 1006MOL0     O38738  11.067   1.756  10.745 -0.6261  0.0398  0.2568
 1006MOL0     C38739  11.174   1.831  10.407  1.0483  0.3587 -0.8637
 1006MOL0     C38740  11.203   1.777  10.281 -0.9663  0.3365 -1.1120
 1006MOL0     N38741  10.888   1.866   9.882 -0.1431  0.8369  0.3499
 1006MOL0     N38742  10.766   1.886   9.933  0.5282 -0.0615 -0.4558
 1006MOL0     C38743  10.664   0.632   9.836  0.3756 -0.2445  0.4627
 1006MOL0     C38744  10.745   0.521   9.873 -0.3505  1.3511  1.0664
 1006MOL0     C38745  11.122   0.354   9.918  0.5788 -0.4093  0.3745
 1006MOL0     C38746  11.060   0.248   9.854 -0.7767 -0.1029 -0.1280
 1006MOL0     C38747  11.135   0.139   9.799 -0.6869  0.8686  0.1906
 1006MOL0     C38748  11.275   0.145   9.798  0.0685 -0.0197  0.2277
 1006MOL0     O38749  11.337   0.033   9.744  0.6376 -0.5993 -0.6966
 1006MOL0     C38750  11.463   0.035   9.689 -0.5556 -0.2054  0.0927
 1006MOL0     C38751  11.496   0.154   9.588  0.0758 -1.1723 -1.1536
 1006MOL0     C38752  11.609   0.113   9.491  0.8144  0.5072 -0.6451
 1006MOL0     C38753  11.558   0.023   9.376 -0.1754  0.0977 -0.3186
 1006MOL0     C38754  11.492   0.096   9.262 -1.0696  0.1259 -0.3085
 1006MOL0     C38755  11.440   0.157   9.169  0.3852 -0.2638 -0.7385
 1006MOL0     C38756  11.339   0.249   9.863  0.7540  0.0683  0.4164
 1006MOL0     C38757  11.258   0.344   9.928  0.0851 -0.1066 -0.1632
 1006MOL0     C38758  11.341   0.450   9.995  0.6605  0.4249  0.3636
 1006MOL0     H38759  10.879   0.620  10.164 -1.2042  1.4791  0.8867
 1006MOL0     H38760  10.702   0.798  10.131  1.4615  0.7622 -0.1676
 1006MOL0     H38761  10.628   1.004  10.012  0.6048 -1.1949  2.2391
 1006MOL0     H38762  10.493   0.916  10.066 -1.9836 -2.0336 -1.8196
 1006MOL0     H38763  10.497   1.069   9.811  2.1364 -0.0605  1.4808
 1006MOL0     H38764  10.351   1.001   9.899  0.4707 -2.0795  2.4752
 1006MOL0     H38765  10.403   1.188  10.080  0.0235  0.5292  0.0357
 1006MOL0     H38766  10.549   1.222   9.990  1.4489 -0.4713  1.8861
 1006MOL0     H38767  10.408   1.314   9.798  0.5163  2.4686  1.4818
 1006MOL0     H38768  10.263   1.250   9.885 -0.1038  1.1070 -3.7603
 1006MOL0     H38769  10.346   1.409  10.073  0.1403  2.7074  0.1747
 1006MOL0     H38770  10.255   1.462   9.945 -0.4059  0.2265  2.0090
 1006MOL0     H38771  10.559   1.474   9.880 -0.1649  0.6870 -0.3503
 1006MOL0     H38772  10.434   1.559   9.810  3.3396  1.9580 -0.5599
 1006MOL0     H38773  10.573   1.602  10.062  0.7618 -1.8186 -1.3139
 1006MOL0     H38774  10.399   1.658  10.055 -1.3034 -0.8679 -1.6740
 1006MOL0     H38775  10.499   1.780   9.831 -1.4309  0.1743  1.1333
 1006MOL0     H38776  10.516   1.852   9.982  0.9516 -0.1960  1.3075
 1006MOL0     H38777  10.751   1.566   9.841  0.8939  0.2183  0.4849
 1006MOL0     H38778  11.075   1.739   9.706 -1.9557  1.1806  1.0011
 1006MOL0     H38779  10.989   1.575   9.710  1.9933  0.5531 -3.1078
 1006MOL0     H38780  11.086   1.520   9.918 -1.9064  0.0027 -2.4722
 1006MOL0     H38781  11.211   1.571   9.803  0.4706  1.0159 -3.1949
 1006MOL0     H38782  11.243   1.776   9.881 -1.0892 -2.1865 -2.4954
 1006MOL0     H38783  11.147   1.780  10.030  1.8832  2.2124 -0.7047
 1006MOL0     H38784  11.362   1.560   9.982  2.9206  2.2645 -0.7591
 1006MOL0     H38785  11.377   1.708  10.084 -0.5247 -1.6103  3.2311
 1006MOL0     H38786  11.170   1.455  10.358 -2.5606  0.0253 -2.2120
 1006MOL0     H38787  11.096   1.512  10.662  0.0218  1.2670 -0.5516
 1006MOL0     H38788  11.030   1.409  10.537  2.6697 -1.9875  4.5208
 1006MOL0     H38789  10.932   1.538  10.599 -0.2734 -2.8531 -1.8637
 1006MOL0     H38790  11.127   2.003  10.855  0.1348 -1.2470  2.0817
 1006MOL0     H38791  10.972   2.111  11.053 -3.4092 -1.9071  0.6261
 1006MOL0     H38792  10.852   2.373  11.023  0.3379  0.0240  2.7225
 1006MOL0     H38793  10.677   2.384  11.001 -0.8708  1.4295  2.2894
 1006MOL0     H38794  10.745   2.492  11.212 -1.2422  0.3536  2.5359
 1006MOL0     H38795  10.624   2.367  11.220  0.1988 -0.3787 -0.0692
 1006MOL0     H38796  10.917   2.326  11.307 -0.4272 -0.6571  1.5168
 1006MOL0     H38797  10.816   2.196  11.301  0.8536 -0.4017  3.0867
 1006MOL0     H38798  10.651   2.351  11.446 -1.0924  1.8207 -3.6535
 1006MOL0     H38799  10.797   2.447  11.468  1.5700 -0.9992 -1.2735
 1006MOL0     H38800  10.789   2.307  11.655  0.3216  2.4227 -0.8236
 1006MOL0     H38801  10.768   2.156  11.554 -0.8415  0.3123 -3.0677
 1006MOL0     H38802  11.002   2.355  11.540  0.4532  0.4635  1.9159
 1006MOL0     H38803  11.012   2.194  11.474  1.0975 -1.5145  1.6994
 1006MOL0     H38804  11.028   2.087  11.689 -0.7592  0.1112  1.4552
 1006MOL0     H38805  11.014   2.254  11.768  0.6757  0.3993  0.0042
 1006MOL0     H38806  11.216   2.336  11.674 -1.1357 -0.1175  2.5451
 1006MOL0     H38807  11.236   2.198  11.565  4.2672  2.1949  1.2403
 1006MOL0     H38808  10.659   2.147  10.797  0.5149  2.3265 -2.4741
 1006MOL0     H38809  10.784   2.040  10.614  0.6781  1.1466 -0.3605
 1006MOL0     H38810  11.175   1.936  10.431  2.1577 -0.3846  3.0721
 1006MOL0     H38811  11.240   1.844  10.203  0.6236 -0.2708 -0.9209
 1006MOL0     H38812  10.624   0.623   9.735  3.4229 -1.8849 -0.7395
 1006MOL0     H38813  10.746   0.439   9.802 -1.8882  2.5339 -0.4238
 1006MOL0     H38814  10.955   0.267   9.833 -0.4224  0.9009 -1.0634
 1006MOL0     H38815  11.080   0.060   9.748  2.2631  1.0302 -3.7006
 1006MOL0     H38816  11.539   0.033   9.769 -0.1290 -1.5867 -0.3161
 1006MOL0     H38817  11.476  -0.061   9.639  1.7032  1.1881 -2.2727
 1006MOL0     H38818  11.533   0.240   9.645  1.3570 -2.1946 -0.4066
 1006MOL0     H38819  11.408   0.182   9.528 -1.1157  1.1909  1.4391
 1006MOL0     H38820  11.666   0.190   9.438  2.9145 -0.8596 -0.4887
 1006MOL0     H38821  11.675   0.058   9.559 -1.3248  1.1023  2.1306
 1006MOL0     H38822  11.498  -0.063   9.408 -1.7558  0.6730 -1.6032
 1006MOL0     H38823  11.643  -0.026   9.328  1.8313  0.6645  2.3923
 1006MOL0     H38824  11.396   0.223   9.097 -1.1296 -1.7455 -1.2179
 1006MOL0     H38825  11.446   0.263   9.859  0.7973 -0.4566 -2.7050
 1006MOL0     H38826  11.342   0.540   9.932 -6.2711  0.7744 -0.0231
 1006MOL0     H38827  11.313   0.467  10.099  1.6449 -5.5670  1.9651
 1006MOL0     H38828  11.447   0.423  10.006  2.0739  4.0048 -2.3544
 1007MOL0     O38829   0.422   2.586   2.776  0.0903  0.6494  0.1971
 1007MOL0     C38830   0.450   2.654   2.679  0.0869  0.1470 -0.1137
 1007MOL0     O38831   0.364   2.667   2.572 -0.2513  0.4387 -0.0497
 1007MOL0     C38832   0.231   2.630   2.580  0.4960 -0.5668  0.5699
 1007MOL0     C38833   0.177   2.597   2.459 -0.4308  0.1675 -0.0566
 1007MOL0     C38834   0.038   2.567   2.454  0.3905 -0.2130 -0.6503
 1007MOL0     C38835  -0.044   2.574   2.566 -0.0490 -0.8205 -0.0648
 1007MOL0     O38836  -0.178   2.541   2.565  0.5051 -0.1143  0.4124
 1007MOL0     C38837  -0.228   2.452   2.459 -0.9821 -0.6326  0.4721
 1007MOL0     C38838  -0.359   2.386   2.506  0.5078  0.8636  0.0388
 1007MOL0     C38839  -0.319   2.292   2.626 -0.0772  0.0356 -0.6349
 1007MOL0     C38840  -0.433   2.192   2.649 -0.0310 -0.2829  0.9319
 1007MOL0     C38841  -0.380   2.078   2.748  0.6673 -0.1531  0.7508
 1007MOL0     C38842  -0.506   1.985   2.796  0.5938  0.0078  0.1985
 1007MOL0     C38843  -0.461   1.889   2.903 -0.6781 -0.1676 -0.0711
 1007MOL0     C38844  -0.560   1.781   2.954  0.1180 -0.2896 -0.0370
 1007MOL0     N38845  -0.537   1.741   3.100 -0.1025  0.5715  0.5779
 1007MOL0     C38846  -0.599   1.628   3.156 -0.5733 -0.7109  0.5827
 1007MOL0     C38847  -0.536   1.612   3.270 -0.4545  0.1609  0.4584
 1007MOL0     C38848  -0.566   1.503   3.364  0.1184  0.0770  0.1708
 1007MOL0     C38849  -0.464   1.378   3.341  0.8053 -0.4025 -0.4759
 1007MOL0     C38850  -0.503   1.302   3.218 -0.3556  0.0117 -0.5447
 1007MOL0     C38851  -0.406   1.280   3.106  0.2181  0.9851  0.5661
 1007MOL0     O38852  -0.376   1.410   3.046 -0.2184  0.9248  0.2097
 1007MOL0     C38853  -0.292   1.411   2.935  0.2692 -0.2610 -0.6625
 1007MOL0     C38854  -0.266   1.294   2.864 -0.2220 -0.4643  0.1958
 1007MOL0     C38855  -0.180   1.294   2.753  0.1516 -0.8709 -0.6903
 1007MOL0     C38856  -0.174   1.157   2.687 -0.8264  0.2746 -0.0842
 1007MOL0     C38857  -0.108   1.412   2.720 -0.0793  1.0720  0.4720
 1007MOL0     C38858   0.004   1.411   2.618  1.0593  1.1414  0.1842
 1007MOL0     O38859   0.017   1.529   2.553  1.0667  0.3164 -0.2878
 1007MOL0     C38860   0.138   1.552   2.490 -0.4480 -0.1758  0.1555
 1007MOL0     C38861   0.130   1.582   2.359 -0.2382  0.0903 -0.2504
 1007MOL0     C38862   0.243   1.615   2.280  0.2332 -0.3160 -0.2647
 1007MOL0     C38863   0.365   1.628   2.350  0.0354 -0.0100  0.1395
 1007MOL0     O38864   0.464   1.682   2.275  0.0595  0.6447  0.3221
 1007MOL0     C38865   0.596   1.699   2.331  0.6527 -0.2049 -0.2324
 1007MOL0     C38866   0.696   1.714   2.208  0.8070 -0.2402  0.0427
 1007MOL0     C38867   0.704   1.863   2.173  0.7562  1.1086 -0.0496
 1007MOL0     C38868   0.772   1.900   2.038  0.1408  0.3617  0.1526
 1007MOL0     C38869   0.760   2.059   2.028  0.6026  0.0732  0.0170
 1007MOL0     C38870   0.624   2.108   1.977 -0.5520  0.0939 -0.6757
 1007MOL0     C38871   0.626   2.257   1.949  0.6242 -0.1948  0.1075
 1007MOL0     C38872   0.482   2.299   1.926 -0.2945  0.7537 -1.1500
 1007MOL0    Cl38873   0.436   2.261   1.769  0.3567  0.0178  0.4354
 1007MOL0     C38874   0.371   1.596   2.489 -1.2943  0.7432  0.2867
 1007MOL0     C38875   0.253   1.567   2.560 -0.0005 -0.2604  0.7282
 1007MOL0     O38876   0.056   1.306   2.579  0.2932  0.1933  0.2315
 1007MOL0     C38877  -0.136   1.526   2.796  0.3654 -0.5930 -0.0116
 1007MOL0     C38878  -0.228   1.531   2.899  0.4364  0.6215  0.1814
 1007MOL0     N38879  -0.441   1.707   3.280 -0.3787  0.0660  0.0759
 1007MOL0     N38880  -0.428   1.769   3.171  0.2146 -0.6228  0.2303
 1007MOL0     C38881   0.006   2.617   2.691  0.2255 -0.3018 -0.2249
 1007MOL0     C38882   0.149   2.640   2.695  0.0844  0.3773  0.0906
 1007MOL0     C38883   0.587   2.724   2.685 -0.5151  0.3021  0.1857
 1007MOL0     C38884   0.699   2.673   2.621  0.5135  0.5460 -0.1867
 1007MOL0     C38885   0.826   2.733   2.610  0.2749 -0.3656  0.3304
 1007MOL0     C38886   0.839   2.857   2.668  0.0712 -0.6353  0.2201
 1007MOL0     O38887   0.965   2.917   2.660  0.0271  0.4008 -0.2899
 1007MOL0     C38888   0.996   3.053   2.663  0.1101  0.0310  0.3364
 1007MOL0     C38889   1.126   3.060   2.746 -0.5468 -0.0701  0.8848
 1007MOL0     C38890   1.189   3.206   2.736 -0.3566 -0.7683  0.1986
 1007MOL0     C38891   1.328   3.223   2.803  0.3450 -0.0873  0.0720
 1007MOL0     C38892   1.334   3.180   2.943  0.2597  0.5174  0.3303
 1007MOL0     C38893   1.333   3.142   3.054 -0.8980 -0.3662  0.5559
 1007MOL0     C38894   0.726   2.920   2.718 -0.0574  0.2292 -0.4052
 1007MOL0     C38895   0.599   2.858   2.725 -0.2264 -0.5464 -0.2919
 1007MOL0     C38896   0.486   2.936   2.791 -0.4532 -1.1613  0.2208
 1007MOL0     H38897   0.236   2.607   2.369 -0.1364 -0.2302  0.0926
 1007MOL0     H38898  -0.018   2.554   2.361 -1.0286  0.9741 -0.0003
 1007MOL0     H38899  -0.150   2.377   2.448  1.0284  1.2885  0.7972
 1007MOL0     H38900  -0.234   2.494   2.358  2.4020 -0.4349  0.2442
 1007MOL0     H38901  -0.448   2.444   2.533 -0.1957 -0.7892  1.5826
 1007MOL0     H38902  -0.380   2.306   2.434  0.6808 -3.2743  4.1036
 1007MOL0     H38903  -0.224   2.240   2.609 -0.1066 -1.0384  2.0044
 1007MOL0     H38904  -0.308   2.355   2.714  1.3581  1.8655 -2.0270
 1007MOL0     H38905  -0.519   2.243   2.692  0.9413 -0.3966  3.1377
 1007MOL0     H38906  -0.454   2.147   2.551  1.1709  0.4726  0.3082
 1007MOL0     H38907  -0.351   2.130   2.839 -0.0776  0.1564  0.8168
 1007MOL0     H38908  -0.300   2.019   2.702  0.7691 -1.3868  2.4040
 1007MOL0     H38909  -0.587   2.045   2.840  0.5297 -0.0631  0.1766
 1007MOL0     H38910  -0.546   1.933   2.709 -0.8916  1.0233  0.2311
 1007MOL0     H38911  -0.414   1.949   2.981  2.2051 -0.5096 -1.3877
 1007MOL0     H38912  -0.376   1.834   2.860 -0.0742  1.3300 -0.8426
 1007MOL0     H38913  -0.658   1.831   2.952 -0.2062 -0.8489  0.9937
 1007MOL0     H38914  -0.556   1.694   2.888 -2.9800  1.2513 -2.5059
 1007MOL0     H38915  -0.673   1.566   3.108  0.9589 -0.4047 -2.3936
 1007MOL0     H38916  -0.670   1.469   3.366 -1.1068  3.4665  1.7579
 1007MOL0     H38917  -0.555   1.546   3.464  0.5255 -3.3879  1.7812
 1007MOL0     H38918  -0.363   1.420   3.337  1.1418 -0.6399  2.9140
 1007MOL0     H38919  -0.459   1.313   3.429 -2.3820  0.0539  0.1406
 1007MOL0     H38920  -0.544   1.210   3.261 -1.3505  0.4763 -0.4847
 1007MOL0     H38921  -0.593   1.350   3.180 -2.0533 -1.1029  1.8074
 1007MOL0     H38922  -0.320   1.228   3.151 -0.3548 -0.5262 -0.0103
 1007MOL0     H38923  -0.454   1.218   3.030  1.4375  1.2412 -0.4446
 1007MOL0     H38924  -0.306   1.197   2.891  1.1443 -1.1841 -0.2862
 1007MOL0     H38925  -0.071   1.129   2.663 -1.6336 -1.3512 -1.9524
 1007MOL0     H38926  -0.231   1.151   2.594 -0.1869 -1.2709 -0.4151
 1007MOL0     H38927  -0.198   1.072   2.752 -1.0934  0.3738 -0.0517
 1007MOL0     H38928   0.035   1.576   2.307 -0.0412  3.1409 -1.1655
 1007MOL0     H38929   0.234   1.656   2.180  0.5141 -0.5110 -0.3707
 1007MOL0     H38930   0.588   1.781   2.403 -2.7580  2.4499 -3.2536
 1007MOL0     H38931   0.621   1.603   2.377 -2.5836 -1.3188 -0.5518
 1007MOL0     H38932   0.797   1.687   2.241  0.8900  2.4327  2.3967
 1007MOL0     H38933   0.665   1.659   2.119  3.2651 -0.2497 -0.8760
 1007MOL0     H38934   0.744   1.928   2.252 -1.0324  1.0777  0.9275
 1007MOL0     H38935   0.601   1.898   2.182  0.1468 -0.9454  1.9294
 1007MOL0     H38936   0.736   1.837   1.956  2.2268 -1.2941  0.4293
 1007MOL0     H38937   0.878   1.876   2.049  1.3789  5.6625  3.5369
 1007MOL0     H38938   0.776   2.112   2.122  1.2497 -0.9502  0.4958
 1007MOL0     H38939   0.827   2.081   1.945 -1.2480 -1.7094 -2.0802
 1007MOL0     H38940   0.560   2.097   2.065 -0.5489  1.4095 -0.4857
 1007MOL0     H38941   0.579   2.067   1.887 -0.4468  1.7761 -1.5353
 1007MOL0     H38942   0.691   2.290   1.867  1.9239 -1.7424  0.4662
 1007MOL0     H38943   0.657   2.302   2.044  1.4449  0.8595 -0.6396
 1007MOL0     H38944   0.480   2.407   1.940  1.6622  1.1832 -3.4007
 1007MOL0     H38945   0.425   2.256   2.009  1.7595  3.1070  1.6814
 1007MOL0     H38946   0.469   1.587   2.536 -0.8825 -1.6487 -0.8535
 1007MOL0     H38947   0.262   1.559   2.668 -1.3371  0.8719  0.9552
 1007MOL0     H38948  -0.077   1.613   2.771  1.7719 -1.8135 -1.0694
 1007MOL0     H38949  -0.261   1.622   2.949  1.1549  1.1888 -0.3702
 1007MOL0     H38950  -0.043   2.616   2.787  0.5552 -0.4075 -0.0579
 1007MOL0     H38951   0.179   2.688   2.788 -0.3628 -0.8099  0.8837
 1007MOL0     H38952   0.682   2.577   2.574 -0.3923  0.3383  0.5424
 1007MOL0     H38953   0.898   2.690   2.541 -1.7561 -0.4525 -1.8654
 1007MOL0     H38954   1.008   3.092   2.561  1.3042 -0.1118  0.4051
 1007MOL0     H38955   0.915   3.116   2.699 -0.8078 -1.0394  0.1975
 1007MOL0     H38956   1.204   2.998   2.699  0.3735  2.9179 -1.9481
 1007MOL0     H38957   1.104   3.022   2.846  1.7414 -3.1049  0.3896
 1007MOL0     H38958   1.187   3.243   2.633  1.7958 -1.0915  0.0054
 1007MOL0     H38959   1.123   3.266   2.800  1.2558  3.4217 -1.7039
 1007MOL0     H38960   1.356   3.329   2.804 -1.9265  0.5712  0.0934
 1007MOL0     H38961   1.401   3.178   2.735 -2.7757 -2.2890 -2.0982
 1007MOL0     H38962   1.318   3.087   3.145  0.8220 -0.3819  0.8581
 1007MOL0     H38963   0.725   3.017   2.767 -3.3528  0.3316 -0.4656
 1007MOL0     H38964   0.513   2.963   2.893 -1.9942 -0.9597  0.6032
 1007MOL0     H38965   0.489   3.024   2.725  1.1233 -0.3602  1.3098
 1007MOL0     H38966   0.384   2.896   2.789 -0.5934 -0.8015 -0.9138
 1008MOL0     O38967   5.025   2.217   9.332 -0.3037 -0.3918 -0.7544
 1008MOL0     C38968   4.980   2.175   9.443  0.6995  0.4259 -0.0784
 1008MOL0     O38969   4.846   2.175   9.483 -0.0568  0.0166  0.1955
 1008MOL0     C38970   4.748   2.189   9.386 -0.0330 -0.5235 -0.2502
 1008MOL0     C38971   4.688   2.308   9.379 -0.0560 -0.7200 -0.2225
 1008MOL0     C38972   4.561   2.311   9.304 -0.6562 -0.7015 -1.3781
 1008MOL0     C38973   4.516   2.190   9.242 -0.4924  0.4555 -0.4728
 1008MOL0     O38974   4.400   2.188   9.171 -0.0336 -0.6873  0.8904
 1008MOL0     C38975   4.284   2.213   9.251  1.2757 -0.1576 -0.1375
 1008MOL0     C38976   4.247   2.100   9.349  0.0023  0.3114  0.7354
 1008MOL0     C38977   4.122   2.120   9.431  0.1177 -0.7929  0.2131
 1008MOL0     C38978   4.004   2.123   9.345  0.2600 -0.6877  0.3219
 1008MOL0     C38979   3.884   2.137   9.443 -0.6374  0.1247 -0.1979
 1008MOL0     C38980   3.752   2.141   9.365  0.1710  0.2615 -0.4543
 1008MOL0     C38981   3.717   2.261   9.273 -0.8581  0.1217  0.5909
 1008MOL0     C38982   3.727   2.396   9.345 -0.4089 -0.0757 -0.3295
 1008MOL0     N38983   3.747   2.508   9.244 -0.5166  1.1449  0.4205
 1008MOL0     C38984   3.644   2.563   9.170 -0.1278  0.7011 -0.1182
 1008MOL0     C38985   3.702   2.647   9.088 -0.7762 -0.5285 -0.1194
 1008MOL0     C38986   3.629   2.726   8.984  0.3536  0.0788  0.3906
 1008MOL0     C38987   3.605   2.654   8.854  0.5601  0.0780 -0.8826
 1008MOL0     C38988   3.497   2.545   8.873 -0.1607  0.1886  0.4547
 1008MOL0     C38989   3.474   2.486   8.738  0.2608  0.0235  0.0929
 1008MOL0     O38990   3.353   2.424   8.755  0.6246 -0.0044  0.2669
 1008MOL0     C38991   3.321   2.303   8.696  0.5558 -0.7036  0.0929
 1008MOL0     C38992   3.377   2.260   8.581 -0.2564  1.1669  0.7416
 1008MOL0     C38993   3.339   2.137   8.530 -0.1091 -0.2873 -0.6953
 1008MOL0     C38994   3.387   2.115   8.396 -0.5918  0.2319 -0.2682
 1008MOL0     C38995   3.250   2.047   8.601 -0.7175 -0.2523  0.3474
 1008MOL0     C38996   3.196   1.912   8.562  0.6034  0.1345  1.1267
 1008MOL0     O38997   3.129   1.842   8.659  0.0618 -0.0276  0.1314
 1008MOL0     C38998   3.067   1.718   8.635  0.1070 -0.4224  0.1231
 1008MOL0     C38999   3.059   1.612   8.732 -0.3623 -0.1398  0.4202
 1008MOL0     C39000   2.975   1.508   8.715 -0.2743  0.3203  0.0258
 1008MOL0     C39001   2.894   1.498   8.602  0.9287  0.2763  0.0712
 1008MOL0     O39002   2.832   1.389   8.564  0.1062 -0.2804  0.7661
 1008MOL0     C39003   2.792   1.301   8.671  1.0789 -0.0099  1.1100
 1008MOL0     C39004   2.693   1.192   8.620  0.8741  0.0422  0.4227
 1008MOL0     C39005   2.611   1.117   8.740 -0.2780  0.5303  0.5312
 1008MOL0     C39006   2.701   1.003   8.789  0.5340 -0.2776  0.5266
 1008MOL0     C39007   2.608   0.892   8.860 -0.1014 -0.3715  0.5503
 1008MOL0     C39008   2.520   0.802   8.775 -0.2164 -1.8100  0.1490
 1008MOL0     C39009   2.526   0.654   8.819  0.5235  0.5552 -0.7357
 1008MOL0     C39010   2.443   0.569   8.729 -0.3288  0.0128  0.4591
 1008MOL0    Cl39011   2.271   0.598   8.765  0.0343  0.0826 -0.4517
 1008MOL0     C39012   2.910   1.583   8.495  0.5216 -0.4252 -0.4365
 1008MOL0     C39013   2.996   1.701   8.517  1.1357  0.9841  0.4413
 1008MOL0     O39014   3.218   1.870   8.450  0.3555 -0.7688 -0.1991
 1008MOL0     C39015   3.198   2.098   8.717 -0.2644 -0.3170  0.8758
 1008MOL0     C39016   3.225   2.222   8.763 -0.0365 -0.8482 -0.1851
 1008MOL0     N39017   3.838   2.652   9.107 -0.0002  0.1801  0.4222
 1008MOL0     N39018   3.866   2.564   9.199  0.8375  0.7686  0.3102
 1008MOL0     C39019   4.589   2.071   9.257  0.8166 -0.4028  0.3662
 1008MOL0     C39020   4.704   2.069   9.329 -0.6177 -0.3548 -0.7648
 1008MOL0     C39021   5.077   2.118   9.545 -0.3351  0.3688 -0.6043
 1008MOL0     C39022   5.055   2.014   9.635 -0.4009 -0.0218  0.3226
 1008MOL0     C39023   5.157   1.952   9.706  1.5027  1.3964 -0.5268
 1008MOL0     C39024   5.290   1.996   9.699 -0.2272  0.2819  0.2188
 1008MOL0     O39025   5.390   1.933   9.772  0.1010 -0.0905 -0.2241
 1008MOL0     C39026   5.519   1.989   9.789  0.1714 -0.2440 -0.2498
 1008MOL0     C39027   5.616   1.886   9.855  0.3841  0.0253 -0.2173
 1008MOL0     C39028   5.625   1.752   9.784  0.7079  0.4207  0.2126
 1008MOL0     C39029   5.723   1.654   9.837  0.0861  0.2569 -0.3839
 1008MOL0     C39030   5.683   1.600   9.970 -0.3770 -0.4433 -0.4265
 1008MOL0     C39031   5.642   1.540  10.065 -0.6905 -1.0624  0.9171
 1008MOL0     C39032   5.307   2.113   9.632  0.4311  0.4549 -0.3259
 1008MOL0     C39033   5.209   2.168   9.553 -0.1266  0.1519 -0.8250
 1008MOL0     C39034   5.256   2.287   9.469  0.4232  0.8154  0.9244
 1008MOL0     H39035   4.713   2.398   9.434 -2.9625  0.2292 -0.3065
 1008MOL0     H39036   4.506   2.403   9.287 -3.2908 -1.5796  1.3634
 1008MOL0     H39037   4.197   2.221   9.185  1.3868 -2.3374 -0.6232
 1008MOL0     H39038   4.298   2.311   9.298 -1.6943 -0.8263  2.4457
 1008MOL0     H39039   4.229   2.010   9.289 -2.7518  0.6494  0.9476
 1008MOL0     H39040   4.335   2.073   9.409  0.2657 -0.6893 -0.0793
 1008MOL0     H39041   4.111   2.036   9.501 -1.9088  3.0857  5.1714
 1008MOL0     H39042   4.124   2.211   9.492 -3.0475 -1.6552  1.7795
 1008MOL0     H39043   4.005   2.205   9.273 -1.5090  1.8343  2.9451
 1008MOL0     H39044   3.994   2.027   9.292 -2.0162 -1.1868  1.5414
 1008MOL0     H39045   3.905   2.224   9.507  1.9236 -0.2137 -0.4776
 1008MOL0     H39046   3.886   2.051   9.510 -1.1118 -0.5042 -0.9646
 1008MOL0     H39047   3.748   2.052   9.301 -2.0726 -1.6078  2.0687
 1008MOL0     H39048   3.678   2.136   9.445  3.1458  0.2432  2.5269
 1008MOL0     H39049   3.617   2.249   9.229  0.2919 -0.6686 -2.0357
 1008MOL0     H39050   3.780   2.251   9.184 -1.6382 -1.2633  0.1594
 1008MOL0     H39051   3.636   2.416   9.402 -1.0012 -0.4277 -1.1334
 1008MOL0     H39052   3.815   2.402   9.409  0.0784  0.8231 -1.0619
 1008MOL0     H39053   3.542   2.529   9.180  0.7138 -1.3188  3.6372
 1008MOL0     H39054   3.682   2.820   8.964 -0.0137  0.6695  2.0403
 1008MOL0     H39055   3.530   2.751   9.024 -0.5501 -3.7735  0.8983
 1008MOL0     H39056   3.577   2.715   8.768  2.8906 -1.2190 -2.6795
 1008MOL0     H39057   3.699   2.608   8.821 -0.2411 -1.0329 -1.6767
 1008MOL0     H39058   3.528   2.459   8.933 -3.0640 -0.7131  0.8623
 1008MOL0     H39059   3.397   2.568   8.911 -0.2777  0.0108  0.2544
 1008MOL0     H39060   3.465   2.556   8.655  0.8936 -3.1764 -2.9417
 1008MOL0     H39061   3.547   2.407   8.716 -0.2250 -0.0275 -1.4677
 1008MOL0     H39062   3.444   2.323   8.524 -1.3879  2.0657  0.3814
 1008MOL0     H39063   3.418   2.011   8.384  0.7142  0.7768 -1.9741
 1008MOL0     H39064   3.475   2.177   8.380  0.2354 -0.3333  1.7745
 1008MOL0     H39065   3.317   2.148   8.318 -0.5249 -0.7020 -0.7513
 1008MOL0     H39066   3.111   1.623   8.826  1.1429 -0.7132 -0.3031
 1008MOL0     H39067   2.972   1.437   8.797  0.9406 -0.1956 -0.3534
 1008MOL0     H39068   2.872   1.239   8.714 -0.5834 -2.5335  0.7999
 1008MOL0     H39069   2.746   1.352   8.756 -1.8019 -2.6260  1.2918
 1008MOL0     H39070   2.618   1.241   8.558  1.0898  2.2636  1.8040
 1008MOL0     H39071   2.745   1.125   8.549  0.4606 -1.2907  1.3303
 1008MOL0     H39072   2.514   1.083   8.703  1.2369  0.9905 -4.5829
 1008MOL0     H39073   2.605   1.183   8.827 -2.1486  1.8023 -0.5090
 1008MOL0     H39074   2.777   1.035   8.861  0.8401 -0.4886  0.2986
 1008MOL0     H39075   2.758   0.963   8.704 -1.0495  1.8729 -1.6629
 1008MOL0     H39076   2.681   0.832   8.915  0.0058  1.2071  2.2011
 1008MOL0     H39077   2.532   0.939   8.923  0.2255  3.3702 -1.5514
 1008MOL0     H39078   2.545   0.819   8.670 -2.3960  2.0763  0.0684
 1008MOL0     H39079   2.415   0.831   8.788 -0.7694 -3.4520 -0.4137
 1008MOL0     H39080   2.485   0.645   8.920  0.3569  0.5958 -0.7983
 1008MOL0     H39081   2.628   0.616   8.827 -0.2858 -1.4127  1.7294
 1008MOL0     H39082   2.457   0.461   8.743 -2.6036 -0.8319 -2.7387
 1008MOL0     H39083   2.468   0.604   8.629  2.1544  3.5360  2.0994
 1008MOL0     H39084   2.852   1.575   8.404 -0.0123 -3.6793  0.0733
 1008MOL0     H39085   2.976   1.787   8.454 -1.0459  0.4716  0.3678
 1008MOL0     H39086   3.127   2.043   8.778 -0.1742  0.1308  1.3892
 1008MOL0     H39087   3.172   2.238   8.856 -0.5383  0.0813 -0.6070
 1008MOL0     H39088   4.550   1.981   9.210  1.8802  0.3647 -2.1172
 1008MOL0     H39089   4.773   1.989   9.354 -0.2484  0.4736  1.0205
 1008MOL0     H39090   4.959   1.964   9.635 -1.9648  2.7875  0.4141
 1008MOL0     H39091   5.139   1.867   9.772  0.7528  2.1963  0.3419
 1008MOL0     H39092   5.562   2.021   9.694  0.7525 -2.8063 -0.9363
 1008MOL0     H39093   5.513   2.077   9.853  2.9892  1.2453 -1.8485
 1008MOL0     H39094   5.578   1.867   9.955 -1.5812  0.7684 -0.7828
 1008MOL0     H39095   5.718   1.925   9.862  0.4499  0.1701 -1.6645
 1008MOL0     H39096   5.523   1.715   9.788 -1.0178  4.6302  0.5358
 1008MOL0     H39097   5.651   1.771   9.679  0.3986 -2.7370 -0.5442
 1008MOL0     H39098   5.822   1.701   9.845  0.8721 -1.5590  1.2836
 1008MOL0     H39099   5.728   1.571   9.766  1.7900  0.2072 -0.2574
 1008MOL0     H39100   5.627   1.488  10.158  2.8321  0.0274  2.2954
 1008MOL0     H39101   5.400   2.169   9.638  0.8380 -0.1390 -0.8717
 1008MOL0     H39102   5.354   2.314   9.511  0.0271  0.8549  1.8529
 1008MOL0     H39103   5.267   2.269   9.362  0.3815  4.9362  0.0879
 1008MOL0     H39104   5.192   2.375   9.467 -1.6053 -0.5903  0.5863
 1009MOL0     O39105  10.500  11.058   4.030 -0.7671 -0.8986  0.1335
 1009MOL0     C39106  10.513  10.951   3.973 -0.1534  0.9496  0.3111
 1009MOL0     O39107  10.482  10.821   4.029 -1.4765 -0.1522 -0.6486
 1009MOL0     C39108  10.418  10.829   4.153 -0.8356  0.5199  0.6689
 1009MOL0     C39109  10.475  10.867   4.275 -0.0552 -1.5252 -0.1152
 1009MOL0     C39110  10.398  10.864   4.397  0.8559  1.0248 -0.1153
 1009MOL0     C39111  10.264  10.808   4.398  0.8611 -0.3907 -0.3071
 1009MOL0     O39112  10.205  10.803   4.525  1.0202 -0.2546  0.4780
 1009MOL0     C39113  10.074  10.744   4.534 -0.6703  0.8936  0.1412
 1009MOL0     C39114  10.024  10.751   4.674  0.0031 -0.2442 -0.2943
 1009MOL0     C39115  10.120  10.697   4.790  0.3212  0.0731  0.1059
 1009MOL0     C39116  10.125  10.544   4.799  0.1637  0.5418  0.1293
 1009MOL0     C39117  10.229  10.501   4.900  0.0525 -0.4444  0.0346
 1009MOL0     C39118  10.220  10.347   4.920  0.0172 -1.4336 -0.3210
 1009MOL0     C39119  10.346  10.301   4.991  0.6858 -0.5887  0.0648
 1009MOL0     C39120  10.319  10.171   5.080 -0.9501 -0.0962  0.1279
 1009MOL0     N39121  10.440  10.127   5.144 -0.2667  0.2694  0.3074
 1009MOL0     C39122  10.497  10.202   5.250 -0.5656  0.9194  0.3713
 1009MOL0     C39123  10.625  10.161   5.246 -0.4561 -0.0180  1.2463
 1009MOL0     C39124  10.726  10.211   5.349  0.7972  0.5932 -0.4733
 1009MOL0     C39125  10.853  10.251   5.280  0.8603 -0.2370 -0.9268
 1009MOL0     C39126  10.954  10.141   5.266  0.9182  0.7591 -0.0381
 1009MOL0     C39127  11.065  10.156   5.157  0.0554  0.5089  0.1956
 1009MOL0     O39128  11.148  10.033   5.141 -0.2616 -0.5420 -0.2035
 1009MOL0     C39129  11.105   9.933   5.057  0.4545 -0.0879 -0.0468
 1009MOL0     C39130  11.185   9.817   5.061  0.0294 -1.0755 -0.4896
 1009MOL0     C39131  11.156   9.706   4.979 -0.1290  0.5341  0.1370
 1009MOL0     C39132  11.233   9.577   4.991 -0.7784 -1.1436 -0.2209
 1009MOL0     C39133  11.026   9.695   4.914 -0.3069 -0.0163 -0.4311
 1009MOL0     C39134  10.967   9.576   4.858  0.2138  0.6195  0.4311
 1009MOL0     O39135  10.923   9.579   4.731  0.2982  0.5772 -0.3939
 1009MOL0     C39136  10.798   9.515   4.702 -0.3238  0.4615 -1.1410
 1009MOL0     C39137  10.677   9.496   4.782 -0.1236  0.1489  0.0240
 1009MOL0     C39138  10.575   9.425   4.725 -0.4602 -0.5168 -0.3030
 1009MOL0     C39139  10.578   9.381   4.592  0.9152 -0.5808  0.0190
 1009MOL0     O39140  10.465   9.327   4.527 -0.3921 -0.3254  0.5782
 1009MOL0     C39141  10.326   9.360   4.566 -0.0936  0.3770 -0.5959
 1009MOL0     C39142  10.255   9.346   4.438 -0.1075 -0.0907 -0.2879
 1009MOL0     C39143  10.109   9.394   4.454  0.5904 -0.0821 -0.5574
 1009MOL0     C39144  10.022   9.361   4.335  0.2115  0.2519 -0.0368
 1009MOL0     C39145   9.865   9.369   4.355 -0.5034 -0.0370  0.0394
 1009MOL0     C39146   9.810   9.489   4.430 -1.1281  0.1628  0.0391
 1009MOL0     C39147   9.836   9.617   4.356  0.0403  0.1206  0.5242
 1009MOL0     C39148   9.787   9.730   4.440 -0.0372 -0.2026 -1.5350
 1009MOL0    Cl39149   9.920   9.805   4.534 -0.4203  0.2300  0.2354
 1009MOL0     C39150  10.697   9.387   4.520  0.1566  1.3126  1.0621
 1009MOL0     C39151  10.803   9.455   4.570 -0.5804 -0.1940  1.1218
 1009MOL0     O39152  10.966   9.483   4.936  0.6970 -0.3038  0.5486
 1009MOL0     C39153  10.946   9.814   4.907 -0.4013 -0.1334 -0.5065
 1009MOL0     C39154  10.987   9.928   4.985 -0.3899  0.7378 -0.0185
 1009MOL0     N39155  10.645  10.058   5.156 -0.4924 -1.1483 -0.3269
 1009MOL0     N39156  10.528  10.041   5.105 -0.2932  0.2312 -0.1924
 1009MOL0     C39157  10.219  10.750   4.278  0.3587 -0.2027  0.9217
 1009MOL0     C39158  10.290  10.769   4.156 -0.5752  0.5580 -0.5054
 1009MOL0     C39159  10.575  10.952   3.839  1.1725 -0.0465 -0.1489
 1009MOL0     C39160  10.566  10.832   3.759 -0.2023 -0.3273 -0.1805
 1009MOL0     C39161  10.607  10.836   3.628  1.0918 -0.4568 -0.4803
 1009MOL0     C39162  10.688  10.928   3.578 -1.3150 -0.0622  0.3572
 1009MOL0     O39163  10.745  10.939   3.452 -0.8609  0.1519  0.4105
 1009MOL0     C39164  10.667  10.905   3.332 -0.9976 -0.3919  0.5130
 1009MOL0     C39165  10.538  10.987   3.318 -0.4972  0.1954  0.1322
 1009MOL0     C39166  10.484  10.960   3.172 -0.7860  0.2011  0.2320
 1009MOL0     C39167  10.457  10.811   3.132 -0.6902  0.7235 -1.0924
 1009MOL0     C39168  10.428  10.721   3.248  1.0636  0.0492  0.4555
 1009MOL0     C39169  10.384  10.651   3.341  0.0532  1.1305  0.2481
 1009MOL0     C39170  10.716  11.036   3.662 -0.0306 -0.4904 -0.1599
 1009MOL0     C39171  10.665  11.048   3.790  0.8669  0.5480 -0.6183
 1009MOL0     C39172  10.720  11.165   3.862  0.0108  0.3479  0.1672
 1009MOL0     H39173  10.576  10.905   4.285  0.5089 -2.6778 -1.1089
 1009MOL0     H39174  10.432  10.913   4.488 -1.9634 -0.7521  2.0491
 1009MOL0     H39175  10.090  10.642   4.497  1.9841  2.2156 -2.7502
 1009MOL0     H39176   9.998  10.776   4.462 -2.0807 -1.4258  0.4529
 1009MOL0     H39177  10.008  10.856   4.699 -3.3683 -1.2401  2.4754
 1009MOL0     H39178   9.925  10.706   4.686 -0.2159  0.4663  0.6173
 1009MOL0     H39179  10.224  10.730   4.788  1.1911 -2.4039  0.9189
 1009MOL0     H39180  10.092  10.735   4.888  0.1127 -2.9798  1.3602
 1009MOL0     H39181  10.027  10.517   4.841 -1.0081  1.1700 -2.0488
 1009MOL0     H39182  10.142  10.489   4.706  2.7253 -0.0413  0.8654
 1009MOL0     H39183  10.218  10.545   4.999 -1.6682 -1.9650  0.5662
 1009MOL0     H39184  10.320  10.540   4.851 -1.4047  0.8353 -1.8291
 1009MOL0     H39185  10.136  10.329   4.988  0.2006 -0.8568  0.0651
 1009MOL0     H39186  10.202  10.297   4.824  2.3125 -0.0976 -1.5254
 1009MOL0     H39187  10.388  10.383   5.050  1.0454 -0.1608 -0.7679
 1009MOL0     H39188  10.418  10.277   4.912  0.3330 -4.0645  0.6191
 1009MOL0     H39189  10.252  10.206   5.160 -2.5586 -2.3785 -0.1303
 1009MOL0     H39190  10.270  10.089   5.027  0.0568 -2.9056  3.1758
 1009MOL0     H39191  10.465  10.285   5.314 -1.8517  0.4761  0.3422
 1009MOL0     H39192  10.744  10.128   5.418 -0.1305 -0.9699 -2.0240
 1009MOL0     H39193  10.693  10.305   5.394 -0.2765  1.0401 -2.1129
 1009MOL0     H39194  10.847  10.307   5.186  0.0764  1.1085 -0.1207
 1009MOL0     H39195  10.895  10.319   5.355 -0.7186  0.8077 -0.9404
 1009MOL0     H39196  10.996  10.124   5.365  2.1178  2.7518 -0.1597
 1009MOL0     H39197  10.898  10.050   5.242  1.3615  0.2565  0.8084
 1009MOL0     H39198  11.031  10.187   5.058 -1.0186  1.0360  0.7213
 1009MOL0     H39199  11.138  10.229   5.194 -0.0564  0.3396  0.7520
 1009MOL0     H39200  11.267   9.823   5.131 -0.2013  0.2565 -0.3114
 1009MOL0     H39201  11.178   9.500   5.045 -3.0075 -1.0177 -2.1140
 1009MOL0     H39202  11.319   9.601   5.054 -2.1054  0.5953  1.0268
 1009MOL0     H39203  11.280   9.536   4.901  2.3906 -1.1243  1.2830
 1009MOL0     H39204  10.676   9.533   4.884  0.4452  1.9083 -0.5669
 1009MOL0     H39205  10.484   9.398   4.778  1.8746 -1.8432  3.4086
 1009MOL0     H39206  10.291   9.287   4.639 -2.7292  0.0906 -2.0146
 1009MOL0     H39207  10.314   9.462   4.606 -1.0680 -0.8640  2.5823
 1009MOL0     H39208  10.298   9.408   4.359 -1.2949 -0.4294 -1.2305
 1009MOL0     H39209  10.266   9.240   4.413  2.4867  0.0578 -0.0755
 1009MOL0     H39210  10.090   9.501   4.466 -2.1110 -0.1096 -3.3699
 1009MOL0     H39211  10.075   9.327   4.534  3.3456 -1.2353 -0.2477
 1009MOL0     H39212  10.057   9.268   4.290  3.0361  0.7308  0.9422
 1009MOL0     H39213  10.050   9.439   4.264 -1.4850  3.3701  2.4275
 1009MOL0     H39214   9.825   9.384   4.254 -1.1520 -0.1548  0.2710
 1009MOL0     H39215   9.816   9.275   4.385 -0.1355 -0.5569 -0.9312
 1009MOL0     H39216   9.846   9.487   4.533 -1.4556 -0.1907  0.1499
 1009MOL0     H39217   9.702   9.473   4.441 -1.3804  2.3605  1.3033
 1009MOL0     H39218   9.789   9.622   4.258  0.3313  2.2791  0.4566
 1009MOL0     H39219   9.942   9.644   4.357 -0.9224  4.5455  1.4918
 1009MOL0     H39220   9.712   9.683   4.504 -1.0921  2.0793 -0.9679
 1009MOL0     H39221   9.728   9.799   4.378 -3.1285 -0.6302  0.6982
 1009MOL0     H39222  10.711   9.359   4.416 -0.0865  5.2318 -0.2105
 1009MOL0     H39223  10.897   9.455   4.516 -1.1456  0.1232  0.0940
 1009MOL0     H39224  10.845   9.822   4.869 -0.7113  0.8369  0.4944
 1009MOL0     H39225  10.910  10.004   4.988 -1.4920 -0.3305 -0.3499
 1009MOL0     H39226  10.131  10.687   4.274  0.8839 -0.8734 -1.3244
 1009MOL0     H39227  10.263  10.729   4.059  1.8572  1.6079 -1.7009
 1009MOL0     H39228  10.505  10.750   3.796 -1.1682  1.0947  1.5993
 1009MOL0     H39229  10.572  10.763   3.556 -1.0312  0.6809 -0.7081
 1009MOL0     H39230  10.742  10.925   3.255 -1.2553  0.3968  0.4606
 1009MOL0     H39231  10.655  10.796   3.326 -1.7192 -0.2367 -1.4527
 1009MOL0     H39232  10.574  11.089   3.337  1.0341 -0.4125  0.6591
 1009MOL0     H39233  10.457  10.970   3.390 -3.0071  7.1896 -0.2602
 1009MOL0     H39234  10.403  11.032   3.158  0.9726  2.4150  0.8157
 1009MOL0     H39235  10.560  10.997   3.103  2.9481 -0.4420  3.6527
 1009MOL0     H39236  10.545  10.774   3.078 -0.0287 -0.3175  0.6324
 1009MOL0     H39237  10.376  10.811   3.058  0.1277 -1.7415 -2.0829
 1009MOL0     H39238  10.343  10.587   3.416  1.6403  0.8774  0.9461
 1009MOL0     H39239  10.780  11.116   3.624 -0.9984  0.7191  0.6746
 1009MOL0     H39240  10.818  11.192   3.822 -0.4028 -0.1835 -1.2708
 1009MOL0     H39241  10.654  11.250   3.844 -1.8755 -0.7594  1.5542
 1009MOL0     H39242  10.719  11.157   3.971 -1.8462  1.3213  0.2506
 1010MOL0     O39243   5.885   2.449   9.834  0.3195  0.4535 -1.1777
 1010MOL0     C39244   5.842   2.372   9.920  0.1600  0.3357  0.0630
 1010MOL0     O39245   5.850   2.230   9.921  0.1877  0.2265  0.1825
 1010MOL0     C39246   5.876   2.168   9.798  0.4224  0.2398  0.5287
 1010MOL0     C39247   5.814   2.196   9.675  0.2441  0.6937  0.2913
 1010MOL0     C39248   5.841   2.121   9.561 -0.0330 -0.9170  0.1406
 1010MOL0     C39249   5.926   2.013   9.571 -0.6982  0.3369  0.2320
 1010MOL0     O39250   5.962   1.936   9.460  0.2302  0.1228 -0.8372
 1010MOL0     C39251   5.900   1.945   9.333  0.7502 -0.6921 -0.4603
 1010MOL0     C39252   5.766   1.873   9.336  0.3269  0.0940  0.9550
 1010MOL0     C39253   5.769   1.741   9.397  0.4327  0.4099  0.0022
 1010MOL0     C39254   5.640   1.652   9.383  0.1954 -0.4170  0.7304
 1010MOL0     C39255   5.644   1.509   9.451 -0.8355  0.0693 -1.0673
 1010MOL0     C39256   5.765   1.419   9.421  0.9497 -0.2241 -0.3697
 1010MOL0     C39257   5.764   1.287   9.509  1.1322 -0.4921  0.3125
 1010MOL0     C39258   5.637   1.200   9.507 -0.6459  0.3289  0.8608
 1010MOL0     N39259   5.658   1.065   9.556  0.1512 -0.1919  0.2977
 1010MOL0     C39260   5.744   1.011   9.658  0.0981  0.0287  0.9358
 1010MOL0     C39261   5.737   0.877   9.631 -0.5317  0.1011  0.0923
 1010MOL0     C39262   5.815   0.772   9.694 -0.1352 -0.1071 -0.9860
 1010MOL0     C39263   5.727   0.649   9.702  0.2798 -0.2534  0.3170
 1010MOL0     C39264   5.779   0.546   9.802  0.7427 -0.6773 -0.1250
 1010MOL0     C39265   5.693   0.551   9.935  0.5154 -0.1508  0.4413
 1010MOL0     O39266   5.763   0.509  10.052  0.1333 -0.0318  1.0899
 1010MOL0     C39267   5.727   0.391  10.104  0.6567 -0.0121  0.1901
 1010MOL0     C39268   5.628   0.386  10.194 -0.3949  0.5435 -0.4818
 1010MOL0     C39269   5.594   0.270  10.262 -0.4102  0.6356 -0.2180
 1010MOL0     C39270   5.512   0.288  10.383  0.1655 -0.0329 -0.6446
 1010MOL0     C39271   5.672   0.153  10.236  0.2067  0.8605 -0.3142
 1010MOL0     C39272   5.668   0.018  10.318  0.8165 -0.3022  0.3958
 1010MOL0     O39273   5.756  -0.082  10.288 -0.3606 -0.7207  0.0139
 1010MOL0     C39274   5.779  -0.193  10.362  0.1957  0.2322 -0.8527
 1010MOL0     C39275   5.680  -0.288  10.373  0.1569 -0.1333 -0.1506
 1010MOL0     C39276   5.701  -0.384  10.464 -0.1764  1.1348 -0.6035
 1010MOL0     C39277   5.799  -0.390  10.550  0.1193  1.0298 -0.1335
 1010MOL0     O39278   5.803  -0.479  10.657  0.1270  0.8196  0.2266
 1010MOL0     C39279   5.828  -0.423  10.789  0.2914 -0.0624 -0.4048
 1010MOL0     C39280   5.712  -0.439  10.880  0.0375 -0.3977 -0.6500
 1010MOL0     C39281   5.714  -0.591  10.906 -0.5200  0.6089  0.0110
 1010MOL0     C39282   5.598  -0.634  10.999 -0.1309  0.0801  0.4789
 1010MOL0     C39283   5.576  -0.784  10.985 -0.0295 -0.6099 -0.9813
 1010MOL0     C39284   5.455  -0.849  11.057 -0.4252 -1.4434 -0.7539
 1010MOL0     C39285   5.471  -0.842  11.211  0.4925 -0.9489  0.0479
 1010MOL0     C39286   5.366  -0.931  11.282  0.5659  0.0436 -0.1074
 1010MOL0    Cl39287   5.431  -0.939  11.448 -0.5334  0.3982  0.2427
 1010MOL0     C39288   5.906  -0.300  10.541  0.0308 -1.0130 -0.2539
 1010MOL0     C39289   5.890  -0.200  10.443 -0.1499 -0.0854  0.0830
 1010MOL0     O39290   5.563   0.002  10.385  0.7158 -0.7592  0.1015
 1010MOL0     C39291   5.766   0.157  10.135  0.1269  0.1624  0.1591
 1010MOL0     C39292   5.793   0.276  10.068 -0.4532  0.4455 -0.9221
 1010MOL0     N39293   5.651   0.856   9.522  0.1197  0.2262 -1.0511
 1010MOL0     N39294   5.600   0.968   9.483  0.8242 -0.1863  0.7689
 1010MOL0     C39295   6.001   1.990   9.688  0.3458  0.2524  0.3732
 1010MOL0     C39296   5.974   2.072   9.801 -0.9114 -0.4050 -0.1580
 1010MOL0     C39297   5.754   2.435  10.010 -0.7240 -0.5533  0.2724
 1010MOL0     C39298   5.662   2.355  10.067  0.1846 -0.1158  0.1288
 1010MOL0     C39299   5.562   2.413  10.147 -0.0334 -0.7537 -0.1502
 1010MOL0     C39300   5.558   2.548  10.188  0.3274  1.0088 -0.1398
 1010MOL0     O39301   5.449   2.594  10.261  0.2184  0.4515 -0.0260
 1010MOL0     C39302   5.463   2.724  10.324  1.0014 -0.6390  0.2513
 1010MOL0     C39303   5.553   2.718  10.454  0.7538 -0.7031 -0.2288
 1010MOL0     C39304   5.480   2.651  10.574  0.0677  0.3952  0.9216
 1010MOL0     C39305   5.438   2.752  10.673  0.2269  0.1384  0.0805
 1010MOL0     C39306   5.337   2.858  10.643  0.2547 -0.1755 -1.0764
 1010MOL0     C39307   5.260   2.960  10.633 -1.2426 -0.2805  0.3263
 1010MOL0     C39308   5.664   2.625  10.133  0.0645  0.1097  0.1156
 1010MOL0     C39309   5.762   2.571  10.058 -1.1866 -0.1424 -0.6734
 1010MOL0     C39310   5.871   2.665  10.019  0.1724  0.6012 -0.2664
 1010MOL0     H39311   5.752   2.285   9.665  1.4771  1.3451 -2.7752
 1010MOL0     H39312   5.787   2.147   9.470 -0.6591 -0.6730  0.5760
 1010MOL0     H39313   5.964   1.882   9.271  1.5787 -1.2446  0.8966
 1010MOL0     H39314   5.884   2.050   9.306  3.3837  0.8826  3.2199
 1010MOL0     H39315   5.690   1.941   9.375  0.4822  0.1561  1.1578
 1010MOL0     H39316   5.748   1.858   9.229  1.8918 -2.7078  0.9893
 1010MOL0     H39317   5.851   1.676   9.364 -1.1656 -1.0701 -1.2104
 1010MOL0     H39318   5.788   1.757   9.503  1.0646  0.6542 -0.1363
 1010MOL0     H39319   5.560   1.700   9.439 -2.3728 -3.5144  0.0154
 1010MOL0     H39320   5.615   1.638   9.278 -0.4040 -1.0931  0.9507
 1010MOL0     H39321   5.554   1.456   9.419 -1.3652  0.7189 -0.6888
 1010MOL0     H39322   5.628   1.514   9.559 -2.0648 -0.4944 -1.2015
 1010MOL0     H39323   5.763   1.399   9.314 -1.5789 -0.4847 -0.3154
 1010MOL0     H39324   5.858   1.473   9.442 -0.1094  1.4225  0.2348
 1010MOL0     H39325   5.775   1.335   9.607 -0.4851  4.9796 -1.8159
 1010MOL0     H39326   5.854   1.226   9.498  0.7861 -0.8748 -0.4653
 1010MOL0     H39327   5.560   1.249   9.567  0.5662  0.9154  1.9851
 1010MOL0     H39328   5.603   1.190   9.403 -1.7694 -2.9744  1.4330
 1010MOL0     H39329   5.799   1.055   9.741  1.8481  1.4541 -0.8856
 1010MOL0     H39330   5.840   0.790   9.799 -0.6938  1.0748 -1.0303
 1010MOL0     H39331   5.905   0.744   9.638  1.5082  1.7083  0.5870
 1010MOL0     H39332   5.628   0.691   9.721  0.4335  0.2175  0.0970
 1010MOL0     H39333   5.721   0.612   9.599  0.0980  3.5291 -1.1959
 1010MOL0     H39334   5.768   0.447   9.755 -1.2136 -1.8400  2.4976
 1010MOL0     H39335   5.884   0.572   9.819 -0.1935  1.7807  2.8301
 1010MOL0     H39336   5.657   0.654   9.939  0.1897 -0.0888 -2.1658
 1010MOL0     H39337   5.604   0.488   9.926 -0.9615  2.0186 -1.2072
 1010MOL0     H39338   5.574   0.478  10.214  3.0978  3.7501 -3.8265
 1010MOL0     H39339   5.435   0.216  10.414 -0.5163  1.9590  2.6720
 1010MOL0     H39340   5.479   0.391  10.398  0.3626 -0.1843  0.9423
 1010MOL0     H39341   5.582   0.272  10.465 -1.9100 -0.3214  1.1521
 1010MOL0     H39342   5.587  -0.266  10.322  0.3971 -2.8443 -1.9864
 1010MOL0     H39343   5.630  -0.465  10.478 -0.2137  0.8824 -2.1379
 1010MOL0     H39344   5.918  -0.473  10.826 -0.8577 -1.7769  0.2525
 1010MOL0     H39345   5.847  -0.316  10.787 -0.9755  0.2577  1.5727
 1010MOL0     H39346   5.719  -0.381  10.972 -2.3995  0.3971 -0.9118
 1010MOL0     H39347   5.615  -0.407  10.841 -0.4751 -0.5868  0.4284
 1010MOL0     H39348   5.805  -0.632  10.950  1.1324  0.1334 -3.5510
 1010MOL0     H39349   5.703  -0.630  10.804 -0.9163  1.2156 -0.1851
 1010MOL0     H39350   5.510  -0.577  10.966 -0.8656 -1.2700  0.0481
 1010MOL0     H39351   5.613  -0.613  11.105 -1.7973 -0.4290  0.8387
 1010MOL0     H39352   5.563  -0.806  10.879  0.0895 -2.4592 -0.6342
 1010MOL0     H39353   5.667  -0.828  11.027 -0.3684 -1.5323 -1.2093
 1010MOL0     H39354   5.432  -0.949  11.020 -0.5421 -0.7797 -2.5532
 1010MOL0     H39355   5.364  -0.794  11.031 -1.7090 -3.0083  0.2581
 1010MOL0     H39356   5.453  -0.738  11.241 -4.8875 -0.7273 -2.8055
 1010MOL0     H39357   5.569  -0.884  11.237  0.7356 -0.9634 -0.8627
 1010MOL0     H39358   5.357  -1.031  11.240  1.2702 -0.3744  0.7146
 1010MOL0     H39359   5.271  -0.876  11.290  0.9585  0.4867  2.6365
 1010MOL0     H39360   5.994  -0.309  10.603  0.2940  0.0824 -0.4621
 1010MOL0     H39361   5.979  -0.139  10.431  0.0748 -0.2900  0.6785
 1010MOL0     H39362   5.828   0.072  10.105  1.5665  0.8951  0.9456
 1010MOL0     H39363   5.853   0.282   9.978  3.3623  3.8185  1.4665
 1010MOL0     H39364   6.081   1.919   9.673 -0.8023 -1.0255  0.1068
 1010MOL0     H39365   6.026   2.056   9.895  1.4397  1.4789 -1.0273
 1010MOL0     H39366   5.652   2.251  10.040 -0.5017 -0.3150  1.1056
 1010MOL0     H39367   5.485   2.341  10.172  1.8799 -2.6897  0.3804
 1010MOL0     H39368   5.497   2.799  10.252 -0.2852 -1.0212 -0.7960
 1010MOL0     H39369   5.366   2.765  10.357  1.2172 -1.3969  1.9704
 1010MOL0     H39370   5.559   2.824  10.481 -1.6087 -0.5846  0.1154
 1010MOL0     H39371   5.647   2.675  10.422 -0.8604 -4.1690 -0.7360
 1010MOL0     H39372   5.384   2.611  10.539  0.0146  0.0525  1.4495
 1010MOL0     H39373   5.540   2.573  10.621  1.1126  0.4307 -0.2819
 1010MOL0     H39374   5.521   2.806  10.722  0.3960  0.5951 -0.6968
 1010MOL0     H39375   5.393   2.706  10.761  0.8285  2.8673  1.9820
 1010MOL0     H39376   5.207   3.050  10.611  0.9032  0.9146 -0.2657
 1010MOL0     H39377   5.659   2.729  10.165 -1.8440  0.1478 -0.2057
 1010MOL0     H39378   5.959   2.615   9.977  0.6889  0.6850  0.6836
 1010MOL0     H39379   5.830   2.719   9.934 -0.1951 -0.1001 -0.5424
 1010MOL0     H39380   5.909   2.715  10.108  2.5348 -0.7653 -0.4172
 1011MOL0     O39381   3.290   1.735   3.288  0.3968  0.3567 -0.8529
 1011MOL0     C39382   3.202   1.662   3.340  0.7530  0.8076 -0.5640
 1011MOL0     O39383   3.081   1.704   3.388  1.4872  0.3378  0.0334
 1011MOL0     C39384   3.033   1.839   3.377 -0.3788 -0.6049  0.4235
 1011MOL0     C39385   2.909   1.865   3.324  0.3199  0.4162  0.3805
 1011MOL0     C39386   2.870   1.996   3.299  0.3218  0.0699  0.3470
 1011MOL0     C39387   2.946   2.100   3.341 -0.3635  0.0427 -0.4747
 1011MOL0     O39388   2.899   2.227   3.310 -0.1271 -0.6034  0.2774
 1011MOL0     C39389   2.978   2.337   3.368 -1.2560 -0.7296  0.0091
 1011MOL0     C39390   2.922   2.475   3.331 -0.9944 -0.9046 -0.3000
 1011MOL0     C39391   2.878   2.468   3.185 -0.2325 -0.1021  0.7594
 1011MOL0     C39392   2.845   2.607   3.118  0.3785  0.2776 -0.5075
 1011MOL0     C39393   2.903   2.621   2.981  0.5270  0.1871 -0.5209
 1011MOL0     C39394   2.839   2.755   2.928  0.0790 -0.5554 -0.3841
 1011MOL0     C39395   2.879   2.790   2.779 -0.0627 -0.4740 -0.7238
 1011MOL0     C39396   2.808   2.910   2.718 -0.7428  1.1175  0.3750
 1011MOL0     N39397   2.674   2.873   2.665  0.2544  0.3521 -0.6548
 1011MOL0     C39398   2.644   2.816   2.544 -0.0288 -0.4743  0.1114
 1011MOL0     C39399   2.510   2.794   2.552 -0.6848  0.7180 -1.3866
 1011MOL0     C39400   2.416   2.724   2.455 -0.5384  0.2227 -0.8951
 1011MOL0     C39401   2.280   2.795   2.450 -0.0969  0.1991 -0.2108
 1011MOL0     C39402   2.180   2.735   2.345  0.2311  0.1305  0.3942
 1011MOL0     C39403   2.023   2.753   2.374 -0.4521  0.5111  0.5401
 1011MOL0     O39404   1.969   2.875   2.314  0.4649 -0.1827 -0.3088
 1011MOL0     C39405   1.991   2.997   2.363 -1.1888  0.1790  0.0155
 1011MOL0     C39406   2.061   3.020   2.480 -0.1977 -0.0982 -0.3755
 1011MOL0     C39407   2.075   3.152   2.522 -0.9844  0.2703 -0.1058
 1011MOL0     C39408   2.127   3.174   2.666 -0.6952 -0.4538 -0.3601
 1011MOL0     C39409   2.036   3.264   2.436 -0.0613  0.2728 -0.1283
 1011MOL0     C39410   2.053   3.407   2.465 -0.4453  0.0488  0.6242
 1011MOL0     O39411   1.968   3.490   2.394 -0.2944  0.4607 -0.4487
 1011MOL0     C39412   1.923   3.608   2.429  0.7821 -0.4181 -0.5186
 1011MOL0     C39413   1.955   3.678   2.553 -0.7259  0.0907  0.9755
 1011MOL0     C39414   1.896   3.795   2.588  1.1310  0.3009 -0.3122
 1011MOL0     C39415   1.820   3.862   2.491  0.0518  0.1623  0.1157
 1011MOL0     O39416   1.772   3.988   2.502 -0.0393 -0.3848 -0.4696
 1011MOL0     C39417   1.864   4.087   2.558  0.0836  0.3751  0.0849
 1011MOL0     C39418   1.839   4.227   2.505  0.9090 -0.0575 -0.4984
 1011MOL0     C39419   1.946   4.328   2.552  0.1959 -0.3471 -0.8754
 1011MOL0     C39420   1.904   4.473   2.527  0.5795  0.4592  0.2833
 1011MOL0     C39421   2.007   4.570   2.580  0.8926 -0.9965 -0.4285
 1011MOL0     C39422   1.952   4.716   2.555  0.4283 -0.5151 -0.4709
 1011MOL0     C39423   2.051   4.829   2.596  0.1608 -0.0309  1.3040
 1011MOL0     C39424   2.198   4.793   2.570 -0.3591  0.6543  0.7095
 1011MOL0    Cl39425   2.320   4.930   2.584  0.1399 -0.3722  0.3048
 1011MOL0     C39426   1.792   3.799   2.361  0.9294 -0.4779 -0.2851
 1011MOL0     C39427   1.851   3.676   2.340  0.4980 -0.1902  0.1717
 1011MOL0     O39428   2.141   3.449   2.541  0.6443 -0.8989 -0.4542
 1011MOL0     C39429   1.960   3.227   2.317  0.7005  0.7804 -0.1199
 1011MOL0     C39430   1.942   3.100   2.282  0.3284  0.0641 -0.1958
 1011MOL0     N39431   2.471   2.842   2.675  0.6478  0.1976 -0.1487
 1011MOL0     N39432   2.565   2.892   2.745  0.1516 -0.5398  0.3877
 1011MOL0     C39433   3.071   2.075   3.397 -1.5382 -1.0378  0.1563
 1011MOL0     C39434   3.113   1.948   3.419 -0.9607  0.0647 -0.2021
 1011MOL0     C39435   3.225   1.519   3.371 -0.1007 -0.1305  0.9479
 1011MOL0     C39436   3.181   1.468   3.501 -0.3636 -0.0031 -0.0683
 1011MOL0     C39437   3.225   1.345   3.551  0.7386 -0.1509  0.5289
 1011MOL0     C39438   3.305   1.262   3.474 -0.0258 -1.1530  0.4574
 1011MOL0     O39439   3.353   1.149   3.541  0.3216  0.5469 -0.1686
 1011MOL0     C39440   3.434   1.058   3.471  0.1943  1.1570 -0.4644
 1011MOL0     C39441   3.511   0.968   3.561 -0.0933 -0.3242 -0.1220
 1011MOL0     C39442   3.617   1.050   3.643  0.6198  1.8104  0.1696
 1011MOL0     C39443   3.691   0.951   3.741 -0.1639 -0.1991  0.0668
 1011MOL0     C39444   3.781   0.871   3.658  1.0096  0.0559  0.1719
 1011MOL0     C39445   3.861   0.801   3.603  0.5086  0.0455  0.3246
 1011MOL0     C39446   3.351   1.309   3.341 -0.6768 -0.3027 -0.3515
 1011MOL0     C39447   3.303   1.431   3.292  0.8341  0.1295  0.9623
 1011MOL0     C39448   3.370   1.454   3.155  0.4022  0.0503  0.2042
 1011MOL0     H39449   2.849   1.782   3.288 -0.7150  2.3574 -2.9250
 1011MOL0     H39450   2.778   2.017   3.245 -1.6111  0.0146  3.3352
 1011MOL0     H39451   3.077   2.336   3.322 -1.0049  3.5978  0.0722
 1011MOL0     H39452   3.000   2.323   3.474 -4.0038 -0.0465  0.7366
 1011MOL0     H39453   2.837   2.503   3.394  1.8692 -0.6461  3.8229
 1011MOL0     H39454   3.005   2.543   3.352  0.5802 -1.2817 -4.4427
 1011MOL0     H39455   2.968   2.430   3.136 -2.2994 -0.4325 -3.1096
 1011MOL0     H39456   2.791   2.403   3.169 -1.1165  0.9067  1.2764
 1011MOL0     H39457   2.736   2.616   3.118  0.3403 -0.0563  0.5327
 1011MOL0     H39458   2.886   2.691   3.175  1.6381 -0.9974  0.5373
 1011MOL0     H39459   2.873   2.542   2.912 -0.2847  0.3192 -0.3272
 1011MOL0     H39460   3.012   2.619   2.990  0.3378 -1.6958  3.3784
 1011MOL0     H39461   2.731   2.768   2.942  0.4569 -0.7642  4.5378
 1011MOL0     H39462   2.876   2.833   2.996 -3.9080  2.2282 -1.0421
 1011MOL0     H39463   2.865   2.702   2.717 -0.8793  0.1751 -1.4800
 1011MOL0     H39464   2.987   2.807   2.778  0.3281 -2.7087 -1.7005
 1011MOL0     H39465   2.802   2.990   2.793  1.6232  3.9443 -2.1799
 1011MOL0     H39466   2.864   2.955   2.635 -0.3124 -0.1906 -0.0601
 1011MOL0     H39467   2.710   2.772   2.471  2.2836 -1.9144  2.8643
 1011MOL0     H39468   2.408   2.617   2.475  4.0740 -0.1485  0.1933
 1011MOL0     H39469   2.450   2.731   2.352 -2.3073 -3.3578 -1.8871
 1011MOL0     H39470   2.240   2.793   2.552 -1.6698 -3.4621 -0.7352
 1011MOL0     H39471   2.308   2.888   2.400  3.4485 -1.5255 -1.7772
 1011MOL0     H39472   2.214   2.773   2.248  0.3875  2.4844  1.3203
 1011MOL0     H39473   2.192   2.626   2.335 -1.0129 -0.2806  2.7333
 1011MOL0     H39474   1.975   2.666   2.329  2.5255 -1.0606  0.1449
 1011MOL0     H39475   1.998   2.745   2.480 -1.6531  0.5226  0.2696
 1011MOL0     H39476   2.079   2.932   2.542 -2.2757 -0.1618  0.2020
 1011MOL0     H39477   2.113   3.095   2.741  0.8163  0.1686  0.6294
 1011MOL0     H39478   2.072   3.255   2.715 -1.7038 -2.2092  1.5838
 1011MOL0     H39479   2.235   3.187   2.651 -0.3510 -2.4549  0.1413
 1011MOL0     H39480   2.009   3.624   2.630  1.3263 -0.8178 -1.0114
 1011MOL0     H39481   1.904   3.835   2.689  0.5881 -1.8652  0.6593
 1011MOL0     H39482   1.860   4.087   2.667  3.2081 -2.6462  0.3360
 1011MOL0     H39483   1.966   4.056   2.536 -0.3226 -1.9597  1.1899
 1011MOL0     H39484   1.826   4.229   2.396 -3.1798  2.8978 -0.1706
 1011MOL0     H39485   1.749   4.255   2.559  1.5924  0.2439  0.5204
 1011MOL0     H39486   2.038   4.317   2.494  0.3150  2.8554 -1.4729
 1011MOL0     H39487   1.972   4.311   2.657 -0.9939  0.0227 -0.5017
 1011MOL0     H39488   1.810   4.496   2.577  0.8975 -2.7644  2.7209
 1011MOL0     H39489   1.915   4.495   2.421  0.4147 -1.4341 -0.1676
 1011MOL0     H39490   2.029   4.543   2.684 -0.0575  1.6459  0.5380
 1011MOL0     H39491   2.103   4.563   2.528  3.7517 -1.1242  4.3017
 1011MOL0     H39492   1.853   4.733   2.598  1.1204 -1.4666  1.6668
 1011MOL0     H39493   1.942   4.719   2.447 -0.1512 -2.7496 -0.5175
 1011MOL0     H39494   2.043   4.838   2.704 -1.4357  2.4306  1.0572
 1011MOL0     H39495   2.029   4.925   2.547 -0.5979 -0.4699  0.7538
 1011MOL0     H39496   2.203   4.756   2.467  1.5814 -0.7278  1.2249
 1011MOL0     H39497   2.241   4.708   2.624 -2.1811 -2.1039 -1.8983
 1011MOL0     H39498   1.738   3.859   2.289  0.9060  1.7756  1.4702
 1011MOL0     H39499   1.819   3.622   2.251  0.7652  2.5237 -1.6694
 1011MOL0     H39500   1.911   3.300   2.253  3.4694  1.4817 -1.5519
 1011MOL0     H39501   1.889   3.086   2.188  0.9335 -2.7335 -0.2047
 1011MOL0     H39502   3.144   2.155   3.410 -2.3559  0.1398 -1.9363
 1011MOL0     H39503   3.209   1.936   3.469 -1.0724 -0.8823 -0.1942
 1011MOL0     H39504   3.135   1.537   3.570 -1.5715  0.6824 -1.4955
 1011MOL0     H39505   3.202   1.319   3.653 -0.5779 -0.3506  0.2008
 1011MOL0     H39506   3.370   0.994   3.410 -0.7288  0.9596  0.6813
 1011MOL0     H39507   3.503   1.112   3.406 -0.9234 -1.0839 -3.7780
 1011MOL0     H39508   3.565   0.894   3.503  2.2674  0.1479  1.3437
 1011MOL0     H39509   3.452   0.913   3.635 -0.1480  0.9566  0.8287
 1011MOL0     H39510   3.691   1.094   3.576  3.3672  0.7162  2.2944
 1011MOL0     H39511   3.575   1.132   3.701 -2.1286  1.5316 -1.2451
 1011MOL0     H39512   3.619   0.884   3.790  1.9153  0.2784  4.2283
 1011MOL0     H39513   3.752   1.003   3.816  1.2832  0.0200 -1.2102
 1011MOL0     H39514   3.939   0.754   3.546  1.3203  0.9161  0.6841
 1011MOL0     H39515   3.425   1.249   3.288  1.1508  1.1792  0.3923
 1011MOL0     H39516   3.429   1.370   3.118 -1.3444 -0.7001 -1.0387
 1011MOL0     H39517   3.289   1.489   3.090  1.3545  0.8755 -0.5764
 1011MOL0     H39518   3.433   1.543   3.158 -0.9805  1.2069 -2.0737
 1012MOL0     O39519   0.878   5.655   9.020 -0.3645 -0.7158  0.6145
 1012MOL0     C39520   1.004   5.642   8.999  0.1114  0.4035 -0.3850
 1012MOL0     O39521   1.056   5.601   8.883  0.5236 -0.2690  0.4229
 1012MOL0     C39522   0.987   5.563   8.769  0.0875 -0.5322  0.8560
 1012MOL0     C39523   0.873   5.494   8.771 -0.4820 -0.1933  0.4713
 1012MOL0     C39524   0.819   5.450   8.650  0.1157  0.1633 -0.6883
 1012MOL0     C39525   0.881   5.455   8.526  1.1149  0.2971 -0.0098
 1012MOL0     O39526   0.811   5.392   8.426  0.1396 -0.9134  0.4476
 1012MOL0     C39527   0.877   5.390   8.301  0.1340 -1.4514 -0.3171
 1012MOL0     C39528   0.802   5.299   8.199 -0.7908  0.3353  0.1464
 1012MOL0     C39529   0.883   5.277   8.071  0.0390  0.0582  1.2306
 1012MOL0     C39530   0.933   5.404   8.000 -0.0312  0.4239 -0.3769
 1012MOL0     C39531   0.983   5.385   7.854 -0.4194 -0.3734 -0.0333
 1012MOL0     C39532   1.110   5.304   7.845 -0.8567 -0.9655  0.3943
 1012MOL0     C39533   1.183   5.312   7.719  0.4436 -1.4793  0.6150
 1012MOL0     C39534   1.121   5.260   7.593  0.2537 -0.3153 -0.1055
 1012MOL0     N39535   1.130   5.113   7.604 -0.4956 -0.9893 -0.4534
 1012MOL0     C39536   1.246   5.038   7.607 -0.2908 -0.2280 -0.0459
 1012MOL0     C39537   1.213   4.913   7.647  0.2513 -0.1361  0.2972
 1012MOL0     C39538   1.297   4.789   7.646 -0.5088  0.7203 -0.0557
 1012MOL0     C39539   1.325   4.740   7.502  0.2512 -0.2721  0.0119
 1012MOL0     C39540   1.201   4.690   7.429 -0.3075  0.5156 -0.0800
 1012MOL0     C39541   1.116   4.584   7.495 -0.4747 -0.3273 -0.8338
 1012MOL0     O39542   1.011   4.545   7.398  0.0069  0.2811 -0.5456
 1012MOL0     C39543   0.920   4.460   7.438 -0.1195 -0.6410 -0.9689
 1012MOL0     C39544   0.784   4.489   7.434  0.8671  0.6491  0.5231
 1012MOL0     C39545   0.691   4.394   7.469  0.5868 -1.2255 -0.0917
 1012MOL0     C39546   0.544   4.442   7.462 -0.1510 -0.1707  0.0999
 1012MOL0     C39547   0.731   4.256   7.501 -0.8715  0.1879  1.0709
 1012MOL0     C39548   0.636   4.147   7.528 -0.0712  0.5169  0.1878
 1012MOL0     O39549   0.702   4.029   7.519  0.3401 -0.3520 -0.4056
 1012MOL0     C39550   0.620   3.919   7.529 -0.1265  0.2771 -0.4975
 1012MOL0     C39551   0.601   3.838   7.645  0.4163  0.2716  0.0343
 1012MOL0     C39552   0.506   3.742   7.650  0.4784 -1.6083  0.0293
 1012MOL0     C39553   0.428   3.712   7.534 -0.0156  0.3400 -0.7702
 1012MOL0     O39554   0.332   3.614   7.527 -0.8551  0.1166 -0.3156
 1012MOL0     C39555   0.220   3.649   7.606 -1.2546 -0.7621 -0.8899
 1012MOL0     C39556   0.117   3.544   7.633 -0.1689 -0.6075 -0.0283
 1012MOL0     C39557   0.017   3.540   7.512 -0.1234 -0.9875 -0.0687
 1012MOL0     C39558  -0.027   3.398   7.491  0.5363  0.4407 -0.1492
 1012MOL0     C39559  -0.126   3.398   7.375  0.0040  0.2311  0.7729
 1012MOL0     C39560  -0.144   3.258   7.322 -0.2306  0.0894 -0.0137
 1012MOL0     C39561  -0.217   3.236   7.182  0.8426  0.8009 -0.1287
 1012MOL0     C39562  -0.180   3.327   7.076 -0.1507 -1.3701 -0.6144
 1012MOL0    Cl39563  -0.228   3.237   6.925 -0.2468  0.3510 -0.0766
 1012MOL0     C39564   0.461   3.768   7.410 -0.8709  0.2881  0.5418
 1012MOL0     C39565   0.551   3.873   7.411  0.3596  0.6262  0.0290
 1012MOL0     O39566   0.515   4.166   7.528  0.0895 -0.0119  0.3047
 1012MOL0     C39567   0.876   4.224   7.487 -0.1100  0.5377 -0.5103
 1012MOL0     C39568   0.960   4.329   7.459 -0.1620  0.4759  1.0027
 1012MOL0     N39569   1.078   4.914   7.666 -0.2801 -0.2051 -0.3989
 1012MOL0     N39570   1.026   5.026   7.638 -0.5901 -0.2271  0.5175
 1012MOL0     C39571   1.005   5.520   8.522 -1.3480 -0.5125  0.2135
 1012MOL0     C39572   1.060   5.570   8.646  0.1527  0.3157 -0.1861
 1012MOL0     C39573   1.094   5.721   9.086  0.2685  0.3437  0.0642
 1012MOL0     C39574   1.048   5.829   9.155  0.1917 -0.0160 -0.6604
 1012MOL0     C39575   1.129   5.910   9.239 -0.8081 -1.0329  0.6332
 1012MOL0     C39576   1.262   5.884   9.241 -0.4203  0.2614 -0.9853
 1012MOL0     O39577   1.328   5.943   9.345  0.4252  0.6553  0.1199
 1012MOL0     C39578   1.382   6.068   9.299 -0.0893 -0.8579  0.3625
 1012MOL0     C39579   1.519   6.086   9.374  0.0403  0.0042 -0.0849
 1012MOL0     C39580   1.520   6.213   9.458  0.3305 -0.1966 -1.2534
 1012MOL0     C39581   1.659   6.229   9.519 -0.7123 -1.4917 -1.2024
 1012MOL0     C39582   1.743   6.287   9.416 -0.3908 -0.4486 -0.5772
 1012MOL0     C39583   1.817   6.313   9.326 -1.3252  0.2327  0.4835
 1012MOL0     C39584   1.314   5.773   9.178  0.8466 -0.9818  0.2088
 1012MOL0     C39585   1.231   5.689   9.100 -0.0535  0.7251  0.2032
 1012MOL0     C39586   1.306   5.577   9.030  0.0769 -0.5923 -0.1209
 1012MOL0     H39587   0.808   5.486   8.857 -2.3258 -1.1196 -0.9613
 1012MOL0     H39588   0.726   5.397   8.662 -1.0204  2.5715  2.8135
 1012MOL0     H39589   0.981   5.358   8.316  1.5176  2.6579  0.4303
 1012MOL0     H39590   0.871   5.491   8.257  0.3630 -1.1530  0.3237
 1012MOL0     H39591   0.797   5.200   8.245  0.1441  0.6374  0.9363
 1012MOL0     H39592   0.703   5.339   8.175 -0.3388  1.4243  0.0288
 1012MOL0     H39593   0.970   5.212   8.089 -0.4433 -1.1649 -0.5644
 1012MOL0     H39594   0.817   5.228   7.999 -0.4109  0.2538  1.5047
 1012MOL0     H39595   0.850   5.475   7.998  0.7788  1.4345  0.3718
 1012MOL0     H39596   1.019   5.436   8.059  1.0903 -2.8223 -0.0666
 1012MOL0     H39597   0.998   5.482   7.806  0.1333 -0.2037  0.4794
 1012MOL0     H39598   0.900   5.338   7.800  0.7411 -0.1022 -2.1689
 1012MOL0     H39599   1.175   5.349   7.920 -0.1331  4.1138 -2.8039
 1012MOL0     H39600   1.086   5.198   7.865 -2.3625 -0.4575  1.5116
 1012MOL0     H39601   1.278   5.258   7.726  1.0729 -0.5494 -0.4953
 1012MOL0     H39602   1.214   5.415   7.700  0.0666 -1.6052 -0.7871
 1012MOL0     H39603   1.024   5.303   7.566  0.8150  0.4730 -0.9217
 1012MOL0     H39604   1.186   5.292   7.511 -0.8065  3.1613  0.2335
 1012MOL0     H39605   1.350   5.061   7.584 -0.7890  2.2820  0.0013
 1012MOL0     H39606   1.249   4.705   7.697 -2.2489  1.8689  0.3085
 1012MOL0     H39607   1.394   4.811   7.691  0.6006  0.1807 -2.0707
 1012MOL0     H39608   1.351   4.829   7.445 -0.7060 -0.7121 -1.1560
 1012MOL0     H39609   1.407   4.668   7.490  1.3186  1.2331 -2.6379
 1012MOL0     H39610   1.146   4.781   7.402  1.0216  1.3083 -0.2314
 1012MOL0     H39611   1.245   4.655   7.335 -0.2199 -1.8715  0.7908
 1012MOL0     H39612   1.168   4.491   7.519 -1.9235 -1.6217 -2.4549
 1012MOL0     H39613   1.069   4.622   7.587 -3.3364  0.6130 -2.5568
 1012MOL0     H39614   0.757   4.589   7.402 -1.8331  0.0031  0.6047
 1012MOL0     H39615   0.487   4.394   7.382  0.1354 -0.4209  0.0461
 1012MOL0     H39616   0.536   4.551   7.453  0.5735 -0.3042 -3.0623
 1012MOL0     H39617   0.502   4.414   7.559 -1.7275 -1.1133 -0.8188
 1012MOL0     H39618   0.660   3.858   7.734  0.3434 -2.0067  0.6674
 1012MOL0     H39619   0.475   3.699   7.744  1.8314  0.3602  1.4612
 1012MOL0     H39620   0.258   3.687   7.701  4.5029 -2.9426 -1.9053
 1012MOL0     H39621   0.177   3.735   7.553  1.0421  0.6745 -0.5519
 1012MOL0     H39622   0.169   3.448   7.641 -1.4145 -1.2042  1.8745
 1012MOL0     H39623   0.061   3.566   7.725  0.4395  0.8331  0.0187
 1012MOL0     H39624   0.057   3.580   7.418 -0.1539  0.7985  0.6434
 1012MOL0     H39625  -0.065   3.609   7.535  2.0796  2.1045 -0.7792
 1012MOL0     H39626  -0.067   3.360   7.585 -1.8459  4.1389  0.5140
 1012MOL0     H39627   0.059   3.351   7.443 -1.2298 -2.2740 -0.8335
 1012MOL0     H39628  -0.221   3.439   7.412 -1.0101 -0.3415 -1.0526
 1012MOL0     H39629  -0.091   3.454   7.288 -1.6171  1.9903  1.1666
 1012MOL0     H39630  -0.188   3.205   7.407 -0.7703  2.3409  1.2014
 1012MOL0     H39631  -0.046   3.213   7.305 -1.5984 -2.4941 -1.7465
 1012MOL0     H39632  -0.326   3.228   7.191  0.9185  2.1198  2.9605
 1012MOL0     H39633  -0.191   3.135   7.148 -1.9911 -0.2716  0.6222
 1012MOL0     H39634  -0.078   3.366   7.081 -0.4056 -0.6626 -0.7498
 1012MOL0     H39635  -0.239   3.418   7.089  1.8652 -0.1734  0.6769
 1012MOL0     H39636   0.422   3.733   7.315  0.8379 -0.4655  0.0962
 1012MOL0     H39637   0.568   3.925   7.317  1.8218  2.0054  0.9955
 1012MOL0     H39638   0.920   4.127   7.509  0.6065  0.9675 -0.0198
 1012MOL0     H39639   1.066   4.303   7.456 -0.5830 -2.2056  3.7400
 1012MOL0     H39640   1.071   5.528   8.436  1.1871 -1.2977  1.9316
 1012MOL0     H39641   1.154   5.624   8.642 -0.7096  2.0365  1.5095
 1012MOL0     H39642   0.944   5.855   9.136 -0.4562 -0.8987  1.4424
 1012MOL0     H39643   1.104   6.001   9.293 -3.1024 -0.2321 -1.5608
 1012MOL0     H39644   1.410   6.068   9.194  2.3032 -1.8891  0.9320
 1012MOL0     H39645   1.312   6.148   9.324 -0.1822 -0.5342 -0.8999
 1012MOL0     H39646   1.602   6.077   9.303  0.7212 -0.7671  0.7831
 1012MOL0     H39647   1.527   5.996   9.436 -1.1398  0.2976  0.5164
 1012MOL0     H39648   1.488   6.299   9.399  0.6235  3.6367  3.6149
 1012MOL0     H39649   1.457   6.197   9.546  3.6197 -0.1788  1.2717
 1012MOL0     H39650   1.700   6.139   9.565  0.4833  0.3916  1.6733
 1012MOL0     H39651   1.643   6.282   9.613 -1.0201 -2.7492 -0.5147
 1012MOL0     H39652   1.900   6.333   9.261 -1.0542 -1.4152  0.2924
 1012MOL0     H39653   1.418   5.743   9.190  1.2056 -0.5347 -1.4933
 1012MOL0     H39654   1.314   5.599   8.923  0.5670 -1.6070 -0.2978
 1012MOL0     H39655   1.414   5.573   9.045  0.2125  1.5224 -0.1602
 1012MOL0     H39656   1.258   5.480   9.043  2.7346 -1.9495  0.2690
 1013MOL0     O39657   4.081  11.559   6.797 -0.3423 -0.5049  0.7175
 1013MOL0     C39658   4.029  11.665   6.834 -0.1551  0.2847  0.4251
 1013MOL0     O39659   3.934  11.724   6.768 -0.0017 -0.2594  0.4220
 1013MOL0     C39660   3.820  11.647   6.761 -0.7980  0.2710 -0.2341
 1013MOL0     C39661   3.808  11.544   6.665 -0.2067 -0.3757  1.0126
 1013MOL0     C39662   3.686  11.472   6.660 -0.3366  0.2245 -0.0254
 1013MOL0     C39663   3.592  11.475   6.762  1.1941 -0.4106  0.2693
 1013MOL0     O39664   3.488  11.391   6.755  0.4990 -0.9874  0.3427
 1013MOL0     C39665   3.490  11.262   6.681 -0.0394  0.1600  0.3538
 1013MOL0     C39666   3.591  11.166   6.735 -0.2576 -0.1736  0.2764
 1013MOL0     C39667   3.584  11.027   6.661 -0.4020  0.1311  0.3069
 1013MOL0     C39668   3.456  10.951   6.707 -0.5903  0.1582  0.5985
 1013MOL0     C39669   3.460  10.806   6.647 -0.6743 -0.3106  0.5479
 1013MOL0     C39670   3.465  10.793   6.489  0.2319 -1.5144 -0.0950
 1013MOL0     C39671   3.338  10.828   6.420 -0.2696 -0.3804 -0.3090
 1013MOL0     C39672   3.215  10.738   6.444 -0.7912  0.0175 -0.2973
 1013MOL0     N39673   3.221  10.606   6.384 -0.3851  0.0903  1.7729
 1013MOL0     C39674   3.178  10.590   6.254 -0.3502 -0.0670  0.6013
 1013MOL0     C39675   3.217  10.462   6.228 -0.8886  0.2965 -0.3037
 1013MOL0     C39676   3.179  10.390   6.107 -1.1142  0.0173  0.1337
 1013MOL0     C39677   3.060  10.303   6.147  0.0775 -0.0565 -0.3421
 1013MOL0     C39678   3.053  10.172   6.076 -1.3468  0.7220  0.0120
 1013MOL0     C39679   2.922  10.094   6.113 -1.3616 -0.8181  0.6102
 1013MOL0     O39680   2.920  10.043   6.252  0.9252 -0.4854  0.3665
 1013MOL0     C39681   2.945   9.911   6.258 -1.2585 -0.7869 -0.2694
 1013MOL0     C39682   2.913   9.851   6.381  0.8676 -0.1102 -0.2361
 1013MOL0     C39683   2.954   9.719   6.421 -1.2793 -0.1812 -0.7453
 1013MOL0     C39684   2.912   9.673   6.559  0.0331 -0.1512  0.0798
 1013MOL0     C39685   3.019   9.637   6.328  0.0099  0.4488  0.2117
 1013MOL0     C39686   3.055   9.492   6.357 -1.0668 -0.8488  0.3906
 1013MOL0     O39687   3.082   9.453   6.481 -0.3820 -0.4059  0.1729
 1013MOL0     C39688   3.104   9.316   6.496 -0.1709  0.6723  0.3317
 1013MOL0     C39689   2.998   9.238   6.553 -0.5263  0.1489  0.1325
 1013MOL0     C39690   3.020   9.098   6.585 -0.4431  0.6553 -0.8240
 1013MOL0     C39691   3.140   9.036   6.545 -0.0505 -0.0831  0.2193
 1013MOL0     O39692   3.162   8.904   6.575  0.4255  0.9492  0.3573
 1013MOL0     C39693   3.051   8.810   6.576 -0.6377 -0.6503  0.3241
 1013MOL0     C39694   3.110   8.683   6.557 -0.9749  0.4621  0.2291
 1013MOL0     C39695   3.003   8.573   6.565  0.7436  0.5743  0.1799
 1013MOL0     C39696   3.058   8.435   6.508  0.2984 -0.3917 -0.2961
 1013MOL0     C39697   2.960   8.311   6.529 -0.5926  0.1799  0.2351
 1013MOL0     C39698   2.832   8.305   6.457  0.2764  0.4210 -0.2408
 1013MOL0     C39699   2.826   8.379   6.322  0.3592 -0.0292  0.1670
 1013MOL0     C39700   2.894   8.305   6.211 -0.9738  0.4326  0.0275
 1013MOL0    Cl39701   2.919   8.418   6.065  0.2658 -0.0258 -0.0917
 1013MOL0     C39702   3.243   9.112   6.482 -0.8559 -0.1364 -0.6975
 1013MOL0     C39703   3.215   9.256   6.460 -0.4084  0.2092  0.1567
 1013MOL0     O39704   3.024   9.420   6.263  0.5818 -0.6263 -0.1577
 1013MOL0     C39705   3.032   9.689   6.198  0.3973  0.5902 -0.5982
 1013MOL0     C39706   3.010   9.824   6.172 -0.2963  0.3377  0.3384
 1013MOL0     N39707   3.293  10.409   6.331 -0.2576  0.6122 -0.2201
 1013MOL0     N39708   3.285  10.502   6.428 -0.4135  0.3077  0.5609
 1013MOL0     C39709   3.613  11.572   6.861  0.1772  0.2020 -0.0279
 1013MOL0     C39710   3.718  11.664   6.858 -0.7297  0.1093 -0.3547
 1013MOL0     C39711   4.107  11.743   6.942 -0.1394 -0.7754  0.5891
 1013MOL0     C39712   4.068  11.873   6.971 -0.0150  0.2351  0.3845
 1013MOL0     C39713   4.133  11.940   7.070 -0.4301 -0.1552 -0.3963
 1013MOL0     C39714   4.239  11.895   7.142 -0.1228  0.4067  0.6704
 1013MOL0     O39715   4.308  11.973   7.232  0.4199  0.6716 -0.6317
 1013MOL0     C39716   4.262  11.965   7.371  0.3266 -0.0593 -0.6217
 1013MOL0     C39717   4.266  12.104   7.443 -0.4081 -0.2847 -0.7436
 1013MOL0     C39718   4.175  12.213   7.384  0.6045  0.0013 -0.2212
 1013MOL0     C39719   4.033  12.196   7.345  0.4984  0.8414 -0.1221
 1013MOL0     C39720   3.975  12.133   7.462 -0.1789 -0.0198  0.1577
 1013MOL0     C39721   3.913  12.074   7.553  0.2038  1.2868 -0.1128
 1013MOL0     C39722   4.278  11.761   7.126 -0.1739 -0.4785 -0.1690
 1013MOL0     C39723   4.221  11.688   7.019  0.4635 -0.5837 -0.4268
 1013MOL0     C39724   4.284  11.550   7.002 -0.0604  0.5138 -0.2515
 1013MOL0     H39725   3.885  11.518   6.592 -2.2691 -1.1920 -0.9883
 1013MOL0     H39726   3.683  11.397   6.582  2.1011  0.2045 -0.1532
 1013MOL0     H39727   3.511  11.279   6.575 -1.4035 -4.0567 -0.7853
 1013MOL0     H39728   3.393  11.213   6.672  0.4145 -0.3426 -3.2369
 1013MOL0     H39729   3.690  11.213   6.727 -0.2096 -0.3839 -0.3721
 1013MOL0     H39730   3.570  11.143   6.840 -2.6587  1.9162  0.3363
 1013MOL0     H39731   3.570  11.049   6.554 -0.8095  0.0602  0.3466
 1013MOL0     H39732   3.674  10.965   6.669 -0.2491  0.0332 -1.5730
 1013MOL0     H39733   3.466  10.948   6.816  0.5754  0.9012  0.5251
 1013MOL0     H39734   3.361  11.004   6.691  0.5551  1.7285 -1.4128
 1013MOL0     H39735   3.371  10.758   6.689  0.5095 -1.6220  1.6586
 1013MOL0     H39736   3.552  10.754   6.674 -0.6370  0.4137  1.9066
 1013MOL0     H39737   3.540  10.862   6.447 -1.9368  0.6620 -0.6710
 1013MOL0     H39738   3.477  10.687   6.465 -1.6679 -2.1955  1.7356
 1013MOL0     H39739   3.355  10.823   6.312 -1.2278 -0.6468 -0.4604
 1013MOL0     H39740   3.303  10.928   6.448 -1.5866 -1.2793  1.4301
 1013MOL0     H39741   3.185  10.730   6.549 -0.3892 -0.4412 -0.2126
 1013MOL0     H39742   3.135  10.784   6.385 -2.5495 -1.5364  0.7439
 1013MOL0     H39743   3.116  10.653   6.190  1.2362 -0.8130 -1.7986
 1013MOL0     H39744   3.261  10.322   6.084 -1.7509 -0.4727 -0.7035
 1013MOL0     H39745   3.163  10.461   6.025 -2.5240  1.7456  1.7952
 1013MOL0     H39746   3.054  10.271   6.252  1.5653 -1.3836 -0.6213
 1013MOL0     H39747   2.968  10.355   6.119  0.7764 -0.0489 -2.8219
 1013MOL0     H39748   3.030  10.187   5.970 -1.8012  0.7641  0.1125
 1013MOL0     H39749   3.138  10.104   6.087 -2.6979 -0.6611  3.3268
 1013MOL0     H39750   2.844  10.171   6.112 -0.5422  0.1299  2.5606
 1013MOL0     H39751   2.902  10.019   6.037  3.5730 -1.1091 -0.7857
 1013MOL0     H39752   2.846   9.904   6.448  0.8325 -2.0070  1.3340
 1013MOL0     H39753   3.001   9.657   6.621 -0.8427 -3.3568  0.6666
 1013MOL0     H39754   2.873   9.574   6.536 -0.3180 -0.7551  2.9131
 1013MOL0     H39755   2.840   9.738   6.609  0.0556 -1.5564  2.0424
 1013MOL0     H39756   2.908   9.292   6.583 -1.4339 -0.5313 -1.2872
 1013MOL0     H39757   2.946   9.038   6.637  1.8192 -0.2001  1.6209
 1013MOL0     H39758   3.003   8.817   6.674 -2.5157 -1.5486 -0.4748
 1013MOL0     H39759   2.986   8.838   6.492 -1.0302 -3.9552 -0.6036
 1013MOL0     H39760   3.174   8.678   6.468  1.3114  1.9881  1.6838
 1013MOL0     H39761   3.176   8.662   6.642 -0.9204 -2.6831 -0.4648
 1013MOL0     H39762   2.910   8.599   6.512  1.0702  0.6035 -0.3890
 1013MOL0     H39763   2.989   8.554   6.672  2.2028 -1.7420  0.0352
 1013MOL0     H39764   3.144   8.417   6.573 -0.4368  1.5320  1.3410
 1013MOL0     H39765   3.092   8.447   6.405  0.0958  1.5158 -0.1826
 1013MOL0     H39766   3.007   8.221   6.487 -0.4682  0.3123  0.0892
 1013MOL0     H39767   2.952   8.276   6.632  1.3155 -2.5464 -0.4241
 1013MOL0     H39768   2.757   8.339   6.530  1.0047 -1.0821  1.2797
 1013MOL0     H39769   2.804   8.200   6.447  0.9862  0.3538 -1.8197
 1013MOL0     H39770   2.868   8.477   6.347 -0.9115  1.0856 -1.8422
 1013MOL0     H39771   2.723   8.388   6.286  1.1997  0.2880 -2.3564
 1013MOL0     H39772   2.838   8.216   6.180  1.0033 -0.9898  0.2990
 1013MOL0     H39773   2.989   8.263   6.246 -1.2559 -2.3269 -2.1573
 1013MOL0     H39774   3.336   9.065   6.450 -2.2025 -1.1923 -3.3163
 1013MOL0     H39775   3.290   9.325   6.424  0.1985 -0.0283  0.9617
 1013MOL0     H39776   3.087   9.618   6.137  0.4542 -1.4498  1.6457
 1013MOL0     H39777   3.038   9.859   6.073 -2.9759  3.4506  0.5204
 1013MOL0     H39778   3.539  11.582   6.940 -0.1010 -0.7634 -0.1529
 1013MOL0     H39779   3.723  11.748   6.926 -2.7055  0.3933 -0.4996
 1013MOL0     H39780   3.983  11.922   6.925  1.5717 -0.4532 -3.6405
 1013MOL0     H39781   4.099  12.036   7.107  0.0863 -0.3268  0.5618
 1013MOL0     H39782   4.160  11.926   7.377 -0.0701  0.9798 -0.5536
 1013MOL0     H39783   4.327  11.898   7.429  0.9076  2.3877  1.7448
 1013MOL0     H39784   4.371  12.131   7.434 -0.2731 -0.3585  0.4069
 1013MOL0     H39785   4.242  12.092   7.549  0.1951 -2.0127 -0.7746
 1013MOL0     H39786   4.183  12.291   7.461 -0.0737 -0.0659 -0.0774
 1013MOL0     H39787   4.232  12.249   7.298 -0.1671 -1.6360 -1.4519
 1013MOL0     H39788   4.026  12.143   7.249  1.6812  2.7066 -1.3002
 1013MOL0     H39789   3.992  12.297   7.343 -0.7745  0.4163  1.8291
 1013MOL0     H39790   3.861  12.038   7.640  1.4299  1.1320  0.5803
 1013MOL0     H39791   4.359  11.713   7.180 -0.6122 -2.3178 -1.0708
 1013MOL0     H39792   4.200  11.480   7.007  1.4713 -1.3431  0.3131
 1013MOL0     H39793   4.341  11.544   6.909  2.5545  0.2515  1.2788
 1013MOL0     H39794   4.342  11.529   7.092 -1.0022  3.8010  1.3110
 1014MOL0     O39795   9.685   5.971   0.713  0.0622  0.5033 -0.4391
 1014MOL0     C39796   9.709   5.954   0.598 -0.2068  0.8081  0.1272
 1014MOL0     O39797   9.838   5.924   0.545  0.0730 -0.4253  0.2143
 1014MOL0     C39798   9.932   5.867   0.622  0.9992  0.0548  0.1787
 1014MOL0     C39799   9.925   5.730   0.660  0.0322 -0.3012  0.5666
 1014MOL0     C39800  10.028   5.669   0.731  0.1935 -0.8209 -0.9247
 1014MOL0     C39801  10.141   5.740   0.784 -0.2806 -0.3706  0.5918
 1014MOL0     O39802  10.246   5.681   0.854  0.6762 -0.9153  0.5243
 1014MOL0     C39803  10.316   5.577   0.786  0.6127 -0.3421  0.4524
 1014MOL0     C39804  10.393   5.631   0.663 -0.2100 -0.0241  0.2605
 1014MOL0     C39805  10.484   5.519   0.619 -0.3858  0.0082  0.5957
 1014MOL0     C39806  10.512   5.544   0.469 -0.5421  0.2814  0.5783
 1014MOL0     C39807  10.624   5.456   0.420 -0.5132 -0.4016 -0.4481
 1014MOL0     C39808  10.622   5.465   0.262 -0.5005  0.0829 -0.1873
 1014MOL0     C39809  10.740   5.374   0.222 -0.7860  0.1173 -0.2505
 1014MOL0     C39810  10.749   5.363   0.067 -0.6493 -0.5767 -0.4808
 1014MOL0     N39811  10.785   5.487  -0.010 -0.5679  0.2263 -0.3042
 1014MOL0     C39812  10.907   5.546  -0.024  0.5396 -0.1160  0.1821
 1014MOL0     C39813  10.887   5.647  -0.103  0.0331  0.0120  0.3072
 1014MOL0     C39814  10.968   5.764  -0.148 -0.7058  0.0124  0.0319
 1014MOL0     C39815  10.952   5.794  -0.300 -0.1395 -0.9229 -0.0624
 1014MOL0     C39816  11.009   5.706  -0.412 -0.3637  0.2250 -0.0456
 1014MOL0     C39817  10.990   5.762  -0.550  0.5009  0.1287 -0.1093
 1014MOL0     O39818  10.856   5.741  -0.594 -0.8356  0.2608 -0.5872
 1014MOL0     C39819  10.782   5.844  -0.638 -0.2125  0.0699  0.5683
 1014MOL0     C39820  10.671   5.804  -0.719  0.4242 -0.7878 -0.2011
 1014MOL0     C39821  10.567   5.892  -0.758 -0.5357 -0.6882 -0.1781
 1014MOL0     C39822  10.449   5.842  -0.832  0.1679  0.2808  1.4191
 1014MOL0     C39823  10.585   6.033  -0.729  0.3083  0.6613  0.0245
 1014MOL0     C39824  10.474   6.132  -0.761  0.6560  0.4771  0.5418
 1014MOL0     O39825  10.513   6.261  -0.745 -0.0539  0.4456 -0.1367
 1014MOL0     C39826  10.427   6.361  -0.785  0.5376 -0.1362 -0.0978
 1014MOL0     C39827  10.346   6.430  -0.686 -0.7225 -1.1875 -0.3234
 1014MOL0     C39828  10.261   6.524  -0.720 -0.2089  0.7598  0.2190
 1014MOL0     C39829  10.261   6.582  -0.853  0.3518 -0.1214 -0.1598
 1014MOL0     O39830  10.185   6.685  -0.904 -0.0484  0.4000  1.0077
 1014MOL0     C39831  10.074   6.726  -0.825 -0.7201 -0.4757 -0.5101
 1014MOL0     C39832  10.036   6.864  -0.865  0.8139 -0.1980  0.0977
 1014MOL0     C39833  10.021   6.895  -1.014 -0.0107 -0.3244 -0.2524
 1014MOL0     C39834   9.943   7.023  -1.031  0.0885  0.4709  0.7778
 1014MOL0     C39835   9.849   7.031  -1.156 -0.4230  0.3839 -0.1745
 1014MOL0     C39836   9.712   6.975  -1.147 -0.6442  0.1827 -0.2925
 1014MOL0     C39837   9.625   7.017  -1.260  0.7117 -0.4921  0.5021
 1014MOL0     C39838   9.489   6.952  -1.253  0.9495 -0.2437  0.8458
 1014MOL0    Cl39839   9.503   6.777  -1.254  0.7279  0.5327  0.0350
 1014MOL0     C39840  10.348   6.525  -0.948  0.2219 -0.4270  0.4733
 1014MOL0     C39841  10.424   6.407  -0.919  0.0085  0.8291  0.5385
 1014MOL0     O39842  10.353   6.097  -0.779 -0.8655 -0.2471  0.3281
 1014MOL0     C39843  10.694   6.080  -0.657  0.2846  0.5837  0.8785
 1014MOL0     C39844  10.788   5.986  -0.616  1.0552 -1.5600 -0.1737
 1014MOL0     N39845  10.752   5.648  -0.143  0.0690 -0.7120  0.3816
 1014MOL0     N39846  10.698   5.552  -0.088  0.6335  0.2215  0.1670
 1014MOL0     C39847  10.129   5.880   0.764 -0.3364 -0.8898  0.6654
 1014MOL0     C39848  10.038   5.940   0.678 -0.5234 -0.1319  0.5333
 1014MOL0     C39849   9.607   5.954   0.496 -0.7618 -0.3028  0.0410
 1014MOL0     C39850   9.641   6.024   0.378 -0.3466 -0.6166  0.4853
 1014MOL0     C39851   9.542   6.033   0.276 -0.2312  0.4743  0.1077
 1014MOL0     C39852   9.419   5.971   0.295  0.4260 -0.0573  0.8214
 1014MOL0     O39853   9.333   5.976   0.187  0.6391 -0.3718  0.4134
 1014MOL0     C39854   9.354   6.055   0.076 -0.7080  0.2535  0.0339
 1014MOL0     C39855   9.233   6.030  -0.022  1.3888  0.9480 -0.4848
 1014MOL0     C39856   9.235   5.892  -0.092  0.1617  0.9302  0.3979
 1014MOL0     C39857   9.125   5.881  -0.200 -0.0725 -0.0590  0.4447
 1014MOL0     C39858   8.987   5.882  -0.150  0.4314  0.0140  0.6213
 1014MOL0     C39859   8.889   5.889  -0.082  0.0000  0.3328  1.5684
 1014MOL0     C39860   9.401   5.888   0.401 -0.6347  0.3296  0.7202
 1014MOL0     C39861   9.489   5.880   0.507 -0.3086  0.6322  0.5270
 1014MOL0     C39862   9.441   5.803   0.624  1.0486 -0.7268  0.0050
 1014MOL0     H39863   9.832   5.680   0.632 -0.7451  0.9528  0.8245
 1014MOL0     H39864  10.012   5.566   0.763 -0.3192  0.1392  2.1767
 1014MOL0     H39865  10.252   5.491   0.766 -1.3150  1.2186 -0.5543
 1014MOL0     H39866  10.381   5.531   0.860 -2.4187 -2.1998  2.1951
 1014MOL0     H39867  10.313   5.662   0.595 -0.2265  0.1151  0.3418
 1014MOL0     H39868  10.450   5.719   0.693  0.9873 -0.8999  0.6000
 1014MOL0     H39869  10.573   5.514   0.683 -2.4035  0.0720  3.5563
 1014MOL0     H39870  10.427   5.426   0.627  3.0098 -2.2242  0.8582
 1014MOL0     H39871  10.415   5.526   0.422 -2.9006  0.3835  4.9342
 1014MOL0     H39872  10.532   5.650   0.450 -1.8985  0.3552 -0.5448
 1014MOL0     H39873  10.616   5.351   0.448  0.4312  0.1501  2.1458
 1014MOL0     H39874  10.717   5.488   0.468 -1.8058 -0.7074  2.4751
 1014MOL0     H39875  10.531   5.428   0.213 -0.0349 -0.5035 -0.6401
 1014MOL0     H39876  10.645   5.566   0.227  2.1075  0.2000  1.5616
 1014MOL0     H39877  10.726   5.271   0.258 -1.2159  0.0907 -0.4854
 1014MOL0     H39878  10.834   5.403   0.269 -1.0486 -2.1438  1.8994
 1014MOL0     H39879  10.829   5.296   0.038 -1.1099 -1.1094 -0.5347
 1014MOL0     H39880  10.659   5.329   0.015 -0.8548 -0.2255 -0.3608
 1014MOL0     H39881  11.006   5.532   0.017 -0.1885  0.7192  2.3427
 1014MOL0     H39882  11.071   5.747  -0.114 -1.5989  0.5368  3.3433
 1014MOL0     H39883  10.935   5.847  -0.084 -0.9541 -1.5701  2.0668
 1014MOL0     H39884  10.844   5.811  -0.307 -0.1705  0.2588  2.4487
 1014MOL0     H39885  10.998   5.892  -0.315 -3.6474  0.6184 -2.2534
 1014MOL0     H39886  11.117   5.712  -0.399 -0.4232 -0.0943  0.6538
 1014MOL0     H39887  10.988   5.599  -0.397  0.1657  0.5443  4.6259
 1014MOL0     H39888  11.006   5.870  -0.543  5.2447 -0.0889 -3.1001
 1014MOL0     H39889  11.067   5.733  -0.623  0.1650  0.4914 -0.6172
 1014MOL0     H39890  10.639   5.701  -0.725 -0.1283 -0.7094  1.2097
 1014MOL0     H39891  10.444   5.888  -0.931  0.1266  2.3369  2.3353
 1014MOL0     H39892  10.357   5.854  -0.775 -1.2507  0.0655 -0.7401
 1014MOL0     H39893  10.460   5.735  -0.856  0.6659  0.2084  1.9346
 1014MOL0     H39894  10.351   6.395  -0.583 -2.1441  1.6204  0.8226
 1014MOL0     H39895  10.208   6.579  -0.643 -0.3806  2.4565 -1.0659
 1014MOL0     H39896  10.001   6.645  -0.829  0.7909 -1.9034 -0.5900
 1014MOL0     H39897  10.093   6.747  -0.720 -2.9727 -2.7591  0.4685
 1014MOL0     H39898   9.936   6.872  -0.823  0.7766  2.2012 -0.2712
 1014MOL0     H39899  10.100   6.941  -0.820  1.9481 -0.1522 -1.4719
 1014MOL0     H39900   9.959   6.813  -1.049  1.4288 -1.4861 -0.1978
 1014MOL0     H39901  10.116   6.903  -1.068 -1.2475  0.4497 -2.4601
 1014MOL0     H39902  10.013   7.107  -1.032  1.6699 -0.6312 -3.0462
 1014MOL0     H39903   9.874   7.028  -0.947 -1.7110 -3.6030 -0.2236
 1014MOL0     H39904   9.830   7.137  -1.174 -2.3568  0.1670  0.3142
 1014MOL0     H39905   9.896   6.995  -1.248 -2.0322 -1.8034 -0.2191
 1014MOL0     H39906   9.663   6.997  -1.052 -1.1921  0.4854 -0.6351
 1014MOL0     H39907   9.731   6.867  -1.150 -0.4111  0.1906  0.6375
 1014MOL0     H39908   9.666   6.995  -1.359 -2.4246 -1.8372 -0.6171
 1014MOL0     H39909   9.591   7.121  -1.249  2.8230  0.5114 -1.6595
 1014MOL0     H39910   9.437   6.983  -1.344  3.3882 -0.4359 -0.7053
 1014MOL0     H39911   9.434   6.987  -1.165 -0.5138 -2.1350  0.7605
 1014MOL0     H39912  10.348   6.559  -1.052  1.1101  1.9613  1.1851
 1014MOL0     H39913  10.474   6.362  -1.004  0.6769 -1.2965  1.9782
 1014MOL0     H39914  10.696   6.187  -0.637  0.1567  0.9418 -0.8291
 1014MOL0     H39915  10.873   6.021  -0.558 -0.4534  1.2655  0.5507
 1014MOL0     H39916  10.214   5.932   0.806  1.1312 -4.9061  3.2488
 1014MOL0     H39917  10.038   6.047   0.658  0.1320 -0.2119  0.0791
 1014MOL0     H39918   9.729   6.088   0.378 -1.6613  1.2862  0.6492
 1014MOL0     H39919   9.549   6.107   0.198  2.7238 -0.4096 -0.6147
 1014MOL0     H39920   9.347   6.159   0.107 -4.6111  0.2445 -0.2970
 1014MOL0     H39921   9.451   6.026   0.035 -0.4608  0.3163  0.5684
 1014MOL0     H39922   9.225   6.106  -0.100 -2.7034 -0.8985 -2.1764
 1014MOL0     H39923   9.144   6.046   0.039  2.5820 -1.7908  2.2568
 1014MOL0     H39924   9.331   5.879  -0.142  0.4098 -1.4730  1.3463
 1014MOL0     H39925   9.222   5.813  -0.017 -1.4470 -0.0625 -0.8629
 1014MOL0     H39926   9.132   5.783  -0.248  0.1892 -0.4983  1.3532
 1014MOL0     H39927   9.144   5.950  -0.282  0.0730 -1.9974 -1.2147
 1014MOL0     H39928   8.791   5.911  -0.044 -0.3920 -1.6381  1.8068
 1014MOL0     H39929   9.307   5.834   0.397 -1.0066  1.0211 -1.2073
 1014MOL0     H39930   9.391   5.876   0.687  2.3287 -0.3351  0.6018
 1014MOL0     H39931   9.373   5.721   0.598  0.3842 -0.7731  1.7830
 1014MOL0     H39932   9.535   5.775   0.672  0.2214  0.8749  2.7419
 1015MOL0     O39933   0.970   7.685   0.443 -0.1264  0.5962  0.1022
 1015MOL0     C39934   0.869   7.642   0.501  0.1440 -0.5877 -0.7165
 1015MOL0     O39935   0.751   7.711   0.532 -0.2497 -0.1899  0.0041
 1015MOL0     C39936   0.750   7.840   0.523  0.5234  0.0920  0.0038
 1015MOL0     C39937   0.625   7.899   0.497  0.5845 -0.0113 -0.8501
 1015MOL0     C39938   0.605   8.042   0.494 -0.3929  0.9206 -0.6009
 1015MOL0     C39939   0.707   8.126   0.513  0.9321 -0.8242  0.1001
 1015MOL0     O39940   0.676   8.258   0.485 -0.1456 -0.0004  0.8976
 1015MOL0     C39941   0.757   8.356   0.537 -0.5054  0.5156  0.7131
 1015MOL0     C39942   0.864   8.401   0.432  0.5063  0.0309 -0.7057
 1015MOL0     C39943   0.932   8.542   0.469  0.3903  0.0160  0.9404
 1015MOL0     C39944   0.888   8.642   0.360 -0.5822  0.6510 -0.1206
 1015MOL0     C39945   0.975   8.766   0.349  0.2998  1.0322 -0.7416
 1015MOL0     C39946   0.993   8.833   0.486  0.9633  0.7500  0.1758
 1015MOL0     C39947   1.073   8.964   0.468 -0.0202  0.0498 -0.4826
 1015MOL0     C39948   1.119   9.021   0.603 -0.2443  0.2835 -0.8793
 1015MOL0     N39949   1.224   9.129   0.591  0.5198 -0.7530 -0.6595
 1015MOL0     C39950   1.204   9.254   0.542  0.4069 -1.4135 -0.1171
 1015MOL0     C39951   1.313   9.332   0.556 -0.1785  0.7347 -1.0088
 1015MOL0     C39952   1.331   9.479   0.519 -0.3372 -0.1732  0.6239
 1015MOL0     C39953   1.280   9.557   0.642  0.7103  0.5054  1.1413
 1015MOL0     C39954   1.284   9.707   0.628  0.3024 -0.3581  0.0304
 1015MOL0     C39955   1.247   9.774   0.762 -0.3222  0.8980  0.6666
 1015MOL0     O39956   1.335   9.726   0.859  0.0893  0.5746 -0.4806
 1015MOL0     C39957   1.318   9.773   0.983  0.0563 -1.0519 -0.2575
 1015MOL0     C39958   1.373   9.702   1.085 -0.0787 -0.2443  0.2266
 1015MOL0     C39959   1.343   9.721   1.230 -0.1315  0.0820 -0.0254
 1015MOL0     C39960   1.403   9.621   1.322  0.7565 -0.0019  0.5544
 1015MOL0     C39961   1.257   9.832   1.262 -0.4790  0.3253 -0.3227
 1015MOL0     C39962   1.250   9.895   1.392  0.1280  0.3343 -0.4462
 1015MOL0     O39963   1.240   9.812   1.499  0.3582 -0.0520  0.4120
 1015MOL0     C39964   1.281   9.847   1.620  0.2193 -0.5182  0.3132
 1015MOL0     C39965   1.364   9.769   1.702  1.2147  0.0340  0.2221
 1015MOL0     C39966   1.386   9.805   1.835  0.2386 -0.2065 -0.6209
 1015MOL0     C39967   1.324   9.908   1.900 -1.2167 -0.1533 -0.5223
 1015MOL0     O39968   1.355   9.936   2.039 -0.0183 -0.4770  0.7045
 1015MOL0     C39969   1.252   9.985   2.125  1.5769 -0.0368 -0.4330
 1015MOL0     C39970   1.291  10.030   2.272  0.5090  0.2002 -0.4625
 1015MOL0     C39971   1.214   9.947   2.369 -0.4613 -0.3948  0.0522
 1015MOL0     C39972   1.253   9.802   2.354  0.4219  0.0758 -0.2739
 1015MOL0     C39973   1.137   9.720   2.433 -0.6362  1.5364  0.4824
 1015MOL0     C39974   1.164   9.568   2.423 -0.0954 -0.7299  0.5233
 1015MOL0     C39975   1.083   9.499   2.540 -0.4556 -0.6895 -0.4201
 1015MOL0     C39976   1.050   9.351   2.513  0.7541  0.1226  0.0845
 1015MOL0    Cl39977   0.946   9.336   2.361 -0.1564 -0.3306 -0.3473
 1015MOL0     C39978   1.239   9.985   1.826 -0.3863  1.1733  0.1410
 1015MOL0     C39979   1.212   9.949   1.693  0.1380  0.2165  0.4353
 1015MOL0     O39980   1.269  10.019   1.400  0.0493  0.5563 -0.1076
 1015MOL0     C39981   1.215   9.914   1.154 -0.0187  0.3222 -0.6311
 1015MOL0     C39982   1.236   9.881   1.017 -0.7532 -0.0196 -0.1556
 1015MOL0     N39983   1.411   9.247   0.621 -0.1331 -0.6656 -0.7467
 1015MOL0     N39984   1.346   9.135   0.655  0.4730  0.1076  0.5087
 1015MOL0     C39985   0.830   8.066   0.524  0.6339 -0.1754 -0.1499
 1015MOL0     C39986   0.858   7.934   0.534  1.0924  1.1795  0.2288
 1015MOL0     C39987   0.856   7.501   0.546 -0.5520 -0.2991 -0.5171
 1015MOL0     C39988   0.758   7.452   0.639 -0.2032 -1.4774 -1.2045
 1015MOL0     C39989   0.746   7.319   0.675 -0.9303 -0.4741 -0.0769
 1015MOL0     C39990   0.839   7.217   0.627 -0.3748 -0.7107  0.5943
 1015MOL0     O39991   0.845   7.079   0.649 -0.4013  0.3701 -0.2217
 1015MOL0     C39992   0.741   7.023   0.730  0.2566  0.2135  0.2209
 1015MOL0     C39993   0.743   6.872   0.712  0.0352  0.1807 -0.2182
 1015MOL0     C39994   0.818   6.802   0.826  1.1940 -0.0699 -0.0091
 1015MOL0     C39995   0.827   6.651   0.803  0.9197 -0.3849  0.0974
 1015MOL0     C39996   0.866   6.590   0.932 -0.7939  0.6408  0.8494
 1015MOL0     C39997   0.922   6.536   1.027  0.7615  0.2088 -1.6553
 1015MOL0     C39998   0.928   7.267   0.528  0.0496  0.2262 -0.3794
 1015MOL0     C39999   0.937   7.396   0.482 -0.8678 -0.5609 -0.3837
 1015MOL0     C40000   1.048   7.421   0.385 -0.2369  0.7453 -0.1020
 1015MOL0     H40001   0.540   7.832   0.489  0.2748  0.3250 -0.4398
 1015MOL0     H40002   0.506   8.083   0.480 -1.7264 -1.0198  2.2290
 1015MOL0     H40003   0.780   8.339   0.642 -2.8627  2.4018  1.6185
 1015MOL0     H40004   0.692   8.443   0.545 -0.6901  0.4511  0.0484
 1015MOL0     H40005   0.940   8.322   0.434 -0.2142 -0.6725  0.6147
 1015MOL0     H40006   0.811   8.400   0.336  1.0188  4.6588 -1.2236
 1015MOL0     H40007   0.912   8.580   0.569  0.3840  2.1437  0.1720
 1015MOL0     H40008   1.041   8.542   0.455  0.2844  1.8885 -0.2527
 1015MOL0     H40009   0.900   8.597   0.261 -1.6766  1.4534 -0.6396
 1015MOL0     H40010   0.786   8.679   0.367 -0.1667  1.9656 -0.6703
 1015MOL0     H40011   0.928   8.837   0.280 -1.5518  1.4618  0.8845
 1015MOL0     H40012   1.071   8.739   0.304  1.1859 -1.3491  2.2580
 1015MOL0     H40013   0.893   8.840   0.531  0.5231  0.5111 -0.7394
 1015MOL0     H40014   1.042   8.769   0.560 -0.5853 -0.5056  0.1735
 1015MOL0     H40015   1.014   9.036   0.411  0.5541  0.5783 -0.4208
 1015MOL0     H40016   1.161   8.941   0.408 -0.3924 -2.1506 -0.3040
 1015MOL0     H40017   1.035   9.069   0.655  0.8556  1.1743  0.1266
 1015MOL0     H40018   1.166   8.941   0.660 -2.1199  0.5167  1.1134
 1015MOL0     H40019   1.119   9.284   0.483  1.9726 -0.7860 -2.1977
 1015MOL0     H40020   1.269   9.506   0.433 -0.6176 -0.5963  0.6903
 1015MOL0     H40021   1.436   9.500   0.497 -0.7836  0.4848 -1.0199
 1015MOL0     H40022   1.175   9.533   0.663  0.6352 -1.3313 -0.8955
 1015MOL0     H40023   1.341   9.524   0.727  0.9386 -3.3273 -0.2989
 1015MOL0     H40024   1.386   9.736   0.601  0.4666 -2.6168 -2.2167
 1015MOL0     H40025   1.209   9.736   0.554 -0.4438  4.1600  2.2584
 1015MOL0     H40026   1.252   9.881   0.743 -2.0814  0.9342  0.2849
 1015MOL0     H40027   1.146   9.740   0.784 -0.2849 -1.1627 -1.8538
 1015MOL0     H40028   1.454   9.634   1.059 -0.5342 -0.1837 -1.4858
 1015MOL0     H40029   1.408   9.527   1.267  0.8137  0.1970  0.2148
 1015MOL0     H40030   1.340   9.605   1.410 -0.9301 -2.9739 -1.0237
 1015MOL0     H40031   1.501   9.663   1.345  0.9478 -0.5836  0.8196
 1015MOL0     H40032   1.426   9.686   1.669 -0.4266 -0.8634 -0.7171
 1015MOL0     H40033   1.470   9.757   1.884 -0.1503 -0.3468 -0.0928
 1015MOL0     H40034   1.194  10.070   2.087 -0.2896 -0.6734  0.8775
 1015MOL0     H40035   1.161   9.927   2.138 -0.5070  3.1043  0.3084
 1015MOL0     H40036   1.397  10.018   2.293  0.3625  1.4496  1.1407
 1015MOL0     H40037   1.263  10.133   2.297 -0.8630 -0.1436 -0.4757
 1015MOL0     H40038   1.110   9.970   2.344  0.2453  3.1411 -0.2765
 1015MOL0     H40039   1.234   9.978   2.472  1.8899  1.0237 -0.7578
 1015MOL0     H40040   1.357   9.786   2.386  0.9119 -0.3490 -1.9864
 1015MOL0     H40041   1.251   9.772   2.249  0.7866 -1.0047  0.0179
 1015MOL0     H40042   1.126   9.761   2.534 -1.5472  0.2940  0.9104
 1015MOL0     H40043   1.039   9.740   2.388  0.0754 -1.4274 -2.7610
 1015MOL0     H40044   1.272   9.555   2.435 -0.0193  0.5094  1.3760
 1015MOL0     H40045   1.143   9.526   2.324  0.7141 -1.3027  0.5834
 1015MOL0     H40046   0.988   9.547   2.566 -1.8814 -3.4618 -0.1513
 1015MOL0     H40047   1.140   9.499   2.633  0.7486  1.3155 -1.1119
 1015MOL0     H40048   0.981   9.313   2.590 -1.3785 -2.7918 -2.9849
 1015MOL0     H40049   1.144   9.299   2.492  0.4009 -0.1307 -0.9104
 1015MOL0     H40050   1.189  10.073   1.864 -0.1355  0.8384  1.2684
 1015MOL0     H40051   1.136  10.005   1.639  1.6844 -0.3954 -2.6217
 1015MOL0     H40052   1.154   9.997   1.189  0.4962 -0.3055  1.9573
 1015MOL0     H40053   1.184   9.938   0.940 -0.1084  1.5413  0.5340
 1015MOL0     H40054   0.917   8.129   0.536 -0.7179  1.5579  0.9663
 1015MOL0     H40055   0.958   7.894   0.552 -0.3268 -2.5309  0.8481
 1015MOL0     H40056   0.690   7.519   0.691  0.7034 -1.4870  0.0393
 1015MOL0     H40057   0.662   7.295   0.740 -0.8015 -2.7151 -0.6549
 1015MOL0     H40058   0.753   7.048   0.835  0.3674 -1.5656  0.6584
 1015MOL0     H40059   0.648   7.067   0.690 -1.0932  1.1994  3.9943
 1015MOL0     H40060   0.787   6.841   0.616  1.7442 -0.3476  0.6797
 1015MOL0     H40061   0.640   6.836   0.717  0.0437  0.2822  0.8839
 1015MOL0     H40062   0.921   6.838   0.822  0.6696  1.4170 -0.9341
 1015MOL0     H40063   0.774   6.830   0.923 -4.1018 -0.0252 -2.1083
 1015MOL0     H40064   0.906   6.637   0.729 -0.1800 -0.7199 -1.0481
 1015MOL0     H40065   0.740   6.605   0.755 -0.1086  1.5999 -0.0533
 1015MOL0     H40066   0.967   6.492   1.114 -0.7383 -0.8385 -1.3570
 1015MOL0     H40067   0.995   7.194   0.485 -0.6009  1.1113 -3.0788
 1015MOL0     H40068   1.144   7.437   0.434 -0.5627 -1.3425  1.3570
 1015MOL0     H40069   1.054   7.331   0.323  1.4169 -0.5604  1.8512
 1015MOL0     H40070   1.037   7.505   0.316 -0.0128  0.7588 -0.1218
 1016MOL0     O40071   8.292   4.228   1.191 -0.0225  0.2417 -0.3782
 1016MOL0     C40072   8.232   4.287   1.279  0.5088 -0.0460 -0.2694
 1016MOL0     O40073   8.109   4.251   1.327 -0.3467  0.3273  0.1309
 1016MOL0     C40074   8.030   4.150   1.287 -0.4092 -0.5572  0.1438
 1016MOL0     C40075   7.914   4.132   1.366  0.4169 -0.7704  0.7310
 1016MOL0     C40076   7.829   4.022   1.354  0.5120 -0.6788 -0.9202
 1016MOL0     C40077   7.859   3.923   1.262  0.7591 -0.0052  0.2122
 1016MOL0     O40078   7.767   3.815   1.265 -0.2858  1.1106  0.2504
 1016MOL0     C40079   7.829   3.699   1.214 -0.3011  0.0834 -0.0293
 1016MOL0     C40080   7.771   3.564   1.242  0.5826  0.2546  0.0576
 1016MOL0     C40081   7.813   3.513   1.383  0.2826  0.1232  0.2637
 1016MOL0     C40082   7.846   3.363   1.389 -0.3962  0.2861  0.1551
 1016MOL0     C40083   7.864   3.340   1.537 -0.4561  0.1568 -0.5783
 1016MOL0     C40084   7.842   3.192   1.574 -0.8240 -1.0023 -0.0594
 1016MOL0     C40085   7.819   3.170   1.728  0.0095 -0.2184  0.6965
 1016MOL0     C40086   7.822   3.023   1.780  0.2365  0.8232  0.3682
 1016MOL0     N40087   7.944   2.945   1.778 -0.5243  0.0293 -0.0257
 1016MOL0     C40088   8.019   2.905   1.672  0.6609  0.0027 -0.6048
 1016MOL0     C40089   8.105   2.815   1.718 -0.0961 -0.4328 -0.5035
 1016MOL0     C40090   8.216   2.748   1.636  0.0406  0.2535  0.4196
 1016MOL0     C40091   8.238   2.604   1.694  0.5913  0.8216 -0.3985
 1016MOL0     C40092   8.367   2.615   1.786 -0.6939 -0.0746  0.1356
 1016MOL0     C40093   8.388   2.497   1.882  0.2739 -0.1952  0.5980
 1016MOL0     O40094   8.330   2.368   1.833  0.3277  0.6394 -0.2676
 1016MOL0     C40095   8.309   2.267   1.922 -0.8684 -0.3769  0.0140
 1016MOL0     C40096   8.260   2.304   2.053 -0.5910  0.4815 -0.7666
 1016MOL0     C40097   8.231   2.211   2.158 -0.4557  0.3973 -0.2476
 1016MOL0     C40098   8.193   2.263   2.296 -0.1864 -0.6375 -0.8416
 1016MOL0     C40099   8.241   2.064   2.126 -0.8350  0.5848 -0.0711
 1016MOL0     C40100   8.207   1.963   2.232 -0.1330  0.2712 -0.4968
 1016MOL0     O40101   8.212   1.995   2.363  0.3525 -0.1413  0.0898
 1016MOL0     C40102   8.153   1.922   2.462 -0.3460  0.3223 -0.1151
 1016MOL0     C40103   8.026   1.862   2.437 -0.6238 -0.8407  0.0335
 1016MOL0     C40104   7.963   1.814   2.554  0.1684 -0.1500 -0.4032
 1016MOL0     C40105   8.007   1.794   2.684  0.0401 -0.0264 -0.6534
 1016MOL0     O40106   7.940   1.719   2.775  0.2124  0.2746 -0.6169
 1016MOL0     C40107   7.981   1.729   2.913 -0.7742 -0.8413  1.0015
 1016MOL0     C40108   7.858   1.693   3.006  0.2150 -0.5302 -0.4333
 1016MOL0     C40109   7.737   1.787   2.999  0.2715 -0.2041 -0.2375
 1016MOL0     C40110   7.614   1.723   3.072 -0.0107 -0.3931 -0.1016
 1016MOL0     C40111   7.512   1.825   3.119  0.4061  0.4185 -0.5199
 1016MOL0     C40112   7.557   1.906   3.245  0.2672 -0.7762 -0.4465
 1016MOL0     C40113   7.433   1.970   3.328 -0.7040  0.4143 -0.8849
 1016MOL0     C40114   7.386   2.100   3.254 -0.0310 -0.0110  0.1884
 1016MOL0    Cl40115   7.212   2.132   3.282  0.3727 -0.3057 -0.1644
 1016MOL0     C40116   8.133   1.854   2.697 -0.3728  0.8426 -0.0143
 1016MOL0     C40117   8.211   1.909   2.595  0.0445  1.0470  0.2599
 1016MOL0     O40118   8.155   1.863   2.190 -0.2096 -0.4306  1.0261
 1016MOL0     C40119   8.293   2.028   1.999  0.1387  0.4469  0.3476
 1016MOL0     C40120   8.324   2.127   1.901  0.2907  0.6917  0.6159
 1016MOL0     N40121   8.067   2.796   1.851 -0.2330  0.3137  0.1760
 1016MOL0     N40122   7.974   2.876   1.891 -0.1782  0.2651  0.0390
 1016MOL0     C40123   7.953   3.945   1.159  0.5335 -0.0217  0.5760
 1016MOL0     C40124   8.047   4.049   1.179  0.3820 -0.1495  0.6258
 1016MOL0     C40125   8.291   4.416   1.321 -0.4823  0.6656 -0.1560
 1016MOL0     C40126   8.433   4.443   1.311  0.3246  0.1366  0.3414
 1016MOL0     C40127   8.476   4.572   1.332 -0.2518  0.4557  0.5270
 1016MOL0     C40128   8.394   4.680   1.368 -0.6909  0.1362  1.3031
 1016MOL0     O40129   8.443   4.802   1.399 -0.2835 -0.3973  0.4007
 1016MOL0     C40130   8.584   4.840   1.384 -0.5687  0.9518  0.1690
 1016MOL0     C40131   8.639   4.853   1.237  0.5099 -0.7822 -0.4595
 1016MOL0     C40132   8.787   4.806   1.243  0.4847 -0.0476 -0.9549
 1016MOL0     C40133   8.877   4.873   1.345  0.5711  0.1247 -0.1453
 1016MOL0     C40134   8.912   4.781   1.451  0.2888 -0.3924 -0.7998
 1016MOL0     C40135   8.948   4.687   1.530 -0.1169 -0.0582 -0.4552
 1016MOL0     C40136   8.262   4.648   1.384 -0.3941  1.0455 -0.0844
 1016MOL0     C40137   8.205   4.521   1.366 -0.4157 -0.1055  1.0598
 1016MOL0     C40138   8.054   4.526   1.357 -0.8846  0.6338  0.6714
 1016MOL0     H40139   7.892   4.209   1.439 -2.3833 -1.2728  0.5440
 1016MOL0     H40140   7.738   4.011   1.412  0.6025  1.3498 -0.3352
 1016MOL0     H40141   7.937   3.696   1.228 -0.3228  4.5260  3.2691
 1016MOL0     H40142   7.806   3.703   1.107 -1.2587 -2.8550 -0.0187
 1016MOL0     H40143   7.662   3.571   1.229  0.4458  0.1110  1.0371
 1016MOL0     H40144   7.822   3.503   1.168  0.6290  0.0171  0.2818
 1016MOL0     H40145   7.906   3.563   1.413  1.0007  1.1350 -3.2224
 1016MOL0     H40146   7.733   3.551   1.448  0.5654  3.6338 -1.2352
 1016MOL0     H40147   7.773   3.294   1.345  1.4898 -3.5500  2.4665
 1016MOL0     H40148   7.944   3.339   1.347  0.2067 -0.8605  2.0691
 1016MOL0     H40149   7.798   3.398   1.603 -0.1922 -1.4520  1.1853
 1016MOL0     H40150   7.957   3.379   1.578 -0.0275 -1.1190 -0.2751
 1016MOL0     H40151   7.752   3.155   1.524 -0.2075 -2.8785  0.1349
 1016MOL0     H40152   7.929   3.136   1.538 -0.1272  0.8739 -1.4835
 1016MOL0     H40153   7.720   3.210   1.749 -0.1972  0.0972 -0.7377
 1016MOL0     H40154   7.882   3.233   1.791  0.2053  0.4876 -0.1741
 1016MOL0     H40155   7.786   3.032   1.883  0.8068  2.4313  0.4552
 1016MOL0     H40156   7.755   2.960   1.721  1.2656 -0.7346  0.8034
 1016MOL0     H40157   8.012   2.936   1.568 -3.1731 -0.6791 -0.6979
 1016MOL0     H40158   8.304   2.810   1.622 -0.2674  0.5657 -0.1769
 1016MOL0     H40159   8.178   2.723   1.536 -2.2480  0.5312  1.1638
 1016MOL0     H40160   8.157   2.577   1.762 -0.0544  1.4202 -0.9187
 1016MOL0     H40161   8.246   2.531   1.613  2.1180  2.1480 -1.5171
 1016MOL0     H40162   8.455   2.621   1.721 -0.6641 -1.6954 -0.0169
 1016MOL0     H40163   8.355   2.705   1.848 -2.6255 -0.1383 -0.0723
 1016MOL0     H40164   8.495   2.474   1.888  1.0023  2.7208  0.4227
 1016MOL0     H40165   8.347   2.533   1.977  0.7933  0.6816  0.5030
 1016MOL0     H40166   8.252   2.406   2.090 -3.2694  0.3446 -0.7519
 1016MOL0     H40167   8.276   2.238   2.363  1.4868 -1.5733 -3.1116
 1016MOL0     H40168   8.094   2.228   2.328 -1.2420  1.1931 -1.9486
 1016MOL0     H40169   8.190   2.372   2.300  1.1262 -0.6154  2.2668
 1016MOL0     H40170   7.968   1.855   2.345  0.5348  0.1993 -0.8241
 1016MOL0     H40171   7.864   1.768   2.550  0.8184 -1.8327  1.3111
 1016MOL0     H40172   8.079   1.690   2.943 -0.5743 -1.5285 -0.4633
 1016MOL0     H40173   7.995   1.836   2.930  1.7852 -1.0676  0.6424
 1016MOL0     H40174   7.818   1.593   2.990 -0.4640 -0.6692  1.7134
 1016MOL0     H40175   7.905   1.701   3.105  5.7892  1.8237 -2.8538
 1016MOL0     H40176   7.710   1.818   2.898  1.4681 -4.5426 -2.1119
 1016MOL0     H40177   7.765   1.872   3.063  1.1131 -0.7227  0.0954
 1016MOL0     H40178   7.657   1.664   3.153 -1.2819 -2.3427 -0.7522
 1016MOL0     H40179   7.565   1.655   3.001 -1.5316  1.2822 -0.7312
 1016MOL0     H40180   7.478   1.889   3.037 -1.8179  0.2170  0.1703
 1016MOL0     H40181   7.417   1.780   3.150 -1.2281  2.3844 -2.2880
 1016MOL0     H40182   7.616   1.995   3.220 -2.2018  0.9230 -0.5483
 1016MOL0     H40183   7.611   1.845   3.318  3.1573  0.7204 -1.2048
 1016MOL0     H40184   7.455   2.007   3.428 -0.4661  3.1291 -1.8518
 1016MOL0     H40185   7.355   1.894   3.330 -0.3470 -0.1014 -3.2913
 1016MOL0     H40186   7.390   2.101   3.144  1.5427  0.1657  0.2207
 1016MOL0     H40187   7.450   2.186   3.276 -0.5180  1.0897 -2.2711
 1016MOL0     H40188   8.181   1.870   2.793 -0.0762  1.6227 -0.2807
 1016MOL0     H40189   8.317   1.923   2.617  0.3283 -0.0213 -0.3662
 1016MOL0     H40190   8.316   1.925   1.972  0.2168 -0.0001  1.9875
 1016MOL0     H40191   8.361   2.093   1.805 -0.0479 -1.2621  1.1249
 1016MOL0     H40192   7.970   3.865   1.088  4.7708 -0.1209  1.4270
 1016MOL0     H40193   8.138   4.052   1.120 -1.4111  2.1153 -2.3279
 1016MOL0     H40194   8.513   4.373   1.290 -0.6095 -1.4684  1.8835
 1016MOL0     H40195   8.584   4.578   1.321  0.0386 -2.5067  0.8742
 1016MOL0     H40196   8.607   4.929   1.444 -4.5755  1.4616  1.2479
 1016MOL0     H40197   8.630   4.753   1.430  1.0873 -0.7909 -4.1795
 1016MOL0     H40198   8.646   4.956   1.201  3.3822  0.0257  1.9363
 1016MOL0     H40199   8.578   4.790   1.172 -0.9534  0.9990 -0.8979
 1016MOL0     H40200   8.775   4.702   1.275 -4.1002  1.7378  4.8270
 1016MOL0     H40201   8.828   4.800   1.142  0.9753 -2.8692 -0.6818
 1016MOL0     H40202   8.835   4.967   1.382 -0.3173 -0.0445 -0.6836
 1016MOL0     H40203   8.968   4.902   1.291 -0.1123 -0.3950 -1.6241
 1016MOL0     H40204   8.967   4.598   1.587 -2.2257  0.7306  1.5867
 1016MOL0     H40205   8.193   4.729   1.404  0.2741  0.7436  4.5537
 1016MOL0     H40206   8.011   4.469   1.440 -1.0265  0.0087  0.1751
 1016MOL0     H40207   8.017   4.629   1.361 -0.3954  1.2105 -4.1727
 1016MOL0     H40208   8.011   4.486   1.265 -2.6592 -0.7518  2.0274
 1017MOL0     O40209   7.667   4.859   5.149  0.5266 -1.1245 -1.1506
 1017MOL0     C40210   7.677   4.965   5.087 -0.1547 -0.1353 -0.7422
 1017MOL0     O40211   7.780   5.002   5.008 -0.1335  0.1293  0.5616
 1017MOL0     C40212   7.893   4.925   5.002  0.3942  0.7446  0.5873
 1017MOL0     C40213   7.981   4.921   5.106 -0.1833  0.7054 -0.1801
 1017MOL0     C40214   8.108   4.852   5.093  1.1075  0.7444 -0.5474
 1017MOL0     C40215   8.133   4.764   4.989  0.4291  0.2639 -0.6607
 1017MOL0     O40216   8.259   4.703   4.996 -1.6298  0.4464  0.0421
 1017MOL0     C40217   8.295   4.596   4.905  0.1636 -0.7322  0.8298
 1017MOL0     C40218   8.388   4.640   4.788  0.0545 -1.0137  0.4591
 1017MOL0     C40219   8.348   4.768   4.718  0.3536 -0.0187  0.4123
 1017MOL0     C40220   8.431   4.781   4.581  0.6450 -0.0090  0.4631
 1017MOL0     C40221   8.360   4.851   4.462  0.9989  0.2928  0.5582
 1017MOL0     C40222   8.435   4.840   4.328  0.4099 -0.1241  1.0356
 1017MOL0     C40223   8.382   4.957   4.251  0.4855  0.2724 -1.0387
 1017MOL0     C40224   8.432   4.938   4.104 -0.6945 -0.5884  0.7812
 1017MOL0     N40225   8.450   5.063   4.030  0.0806  0.0721 -1.0406
 1017MOL0     C40226   8.499   5.185   4.078  1.0680  0.6323 -0.7390
 1017MOL0     C40227   8.496   5.258   3.969 -0.4203 -0.3778  0.2645
 1017MOL0     C40228   8.533   5.399   3.965  0.7475 -0.2453  0.1696
 1017MOL0     C40229   8.427   5.498   4.027  0.4442  0.5271  0.2723
 1017MOL0     C40230   8.418   5.511   4.179 -0.5840 -0.1761 -0.2190
 1017MOL0     C40231   8.544   5.546   4.248 -0.2353  0.2009  0.0470
 1017MOL0     O40232   8.582   5.675   4.197 -0.7207  0.0173 -0.2552
 1017MOL0     C40233   8.666   5.761   4.266  0.1044  0.3302  0.3431
 1017MOL0     C40234   8.732   5.727   4.384  0.7038  0.3374  0.3792
 1017MOL0     C40235   8.828   5.810   4.448  0.4935  0.4287  0.2570
 1017MOL0     C40236   8.891   5.748   4.575 -0.2405  0.3160  0.2680
 1017MOL0     C40237   8.859   5.935   4.391 -0.5811 -0.0704  0.0432
 1017MOL0     C40238   8.945   6.034   4.459 -0.0118  1.0627 -0.6908
 1017MOL0     O40239   8.953   6.154   4.392  0.9571 -0.5645  0.2250
 1017MOL0     C40240   9.020   6.262   4.439  0.2123 -0.2785 -0.5560
 1017MOL0     C40241   8.974   6.314   4.570  0.2369  0.1101  0.2623
 1017MOL0     C40242   9.035   6.414   4.633 -0.6607 -0.6077 -0.3824
 1017MOL0     C40243   9.160   6.467   4.582 -0.0249 -0.2572  0.0493
 1017MOL0     O40244   9.222   6.570   4.653  0.2491 -0.0185 -0.0820
 1017MOL0     C40245   9.362   6.561   4.675 -0.1542 -0.3105  1.3970
 1017MOL0     C40246   9.395   6.458   4.783 -0.3337 -0.2871 -0.2340
 1017MOL0     C40247   9.319   6.491   4.916 -0.4139 -0.0758  1.4201
 1017MOL0     C40248   9.332   6.385   5.021  0.1700 -0.4898 -0.4559
 1017MOL0     C40249   9.302   6.238   4.997 -0.0114 -0.6298 -0.5204
 1017MOL0     C40250   9.309   6.163   5.135 -0.7988  0.3523 -0.2084
 1017MOL0     C40251   9.256   6.016   5.118 -0.0979  0.2186 -0.5300
 1017MOL0     C40252   9.254   5.933   5.241 -0.5533 -0.8041 -0.2893
 1017MOL0    Cl40253   9.402   5.954   5.351  0.2983 -0.3119 -0.2039
 1017MOL0     C40254   9.206   6.422   4.459 -0.8398  0.8575 -0.1756
 1017MOL0     C40255   9.150   6.316   4.386  0.9307 -0.5858  0.2161
 1017MOL0     O40256   9.004   6.009   4.561  0.2239 -0.6797 -0.0357
 1017MOL0     C40257   8.788   5.972   4.276 -0.2976 -0.0558  0.5357
 1017MOL0     C40258   8.693   5.882   4.211  0.1767 -0.6588  0.0661
 1017MOL0     N40259   8.446   5.187   3.862 -0.2517 -0.0115 -0.6755
 1017MOL0     N40260   8.400   5.072   3.909 -0.0633 -0.5005  1.4236
 1017MOL0     C40261   8.031   4.753   4.894  0.3245 -0.5988  0.2386
 1017MOL0     C40262   7.923   4.842   4.895  0.4713  0.2737 -0.2561
 1017MOL0     C40263   7.584   5.079   5.108 -0.3949 -1.5597 -0.3823
 1017MOL0     C40264   7.555   5.174   5.006 -0.3213 -0.4925  0.0691
 1017MOL0     C40265   7.450   5.260   5.015 -0.0083 -0.9219 -1.0817
 1017MOL0     C40266   7.384   5.281   5.143  1.1156  0.4273 -0.0164
 1017MOL0     O40267   7.279   5.362   5.172  0.5836  0.1268  0.9461
 1017MOL0     C40268   7.242   5.449   5.064  0.4739 -0.1355  1.6995
 1017MOL0     C40269   7.146   5.554   5.116 -0.5917  0.7922 -0.3998
 1017MOL0     C40270   7.009   5.486   5.151  0.2339  0.5582 -0.4411
 1017MOL0     C40271   6.945   5.580   5.259 -0.2193 -0.0028  0.5758
 1017MOL0     C40272   6.803   5.569   5.241 -0.9743  0.4790 -0.3559
 1017MOL0     C40273   6.687   5.547   5.223  0.3661 -0.2924  0.2285
 1017MOL0     C40274   7.435   5.206   5.254 -0.0603  0.9842 -0.1479
 1017MOL0     C40275   7.521   5.105   5.239 -0.0215  1.1741 -0.6877
 1017MOL0     C40276   7.552   5.014   5.359  0.7476  0.3593  0.0595
 1017MOL0     H40277   7.954   4.984   5.190 -0.5295  2.0342 -1.2624
 1017MOL0     H40278   8.186   4.849   5.168  0.0583 -1.2503  0.5374
 1017MOL0     H40279   8.203   4.547   4.873 -0.1915  0.1578  0.4788
 1017MOL0     H40280   8.346   4.520   4.965 -1.6526  0.1824  3.7174
 1017MOL0     H40281   8.493   4.650   4.817 -0.0504  2.1317  0.1364
 1017MOL0     H40282   8.395   4.558   4.716  0.6181 -0.2454 -0.3904
 1017MOL0     H40283   8.242   4.776   4.694  0.5529 -1.6934 -1.2823
 1017MOL0     H40284   8.367   4.854   4.783 -1.5977 -0.5041  1.7084
 1017MOL0     H40285   8.517   4.842   4.610  1.5447 -2.3337  3.0949
 1017MOL0     H40286   8.475   4.685   4.554  1.1239  0.2473  0.3214
 1017MOL0     H40287   8.349   4.956   4.492 -1.4230  0.3786 -0.3801
 1017MOL0     H40288   8.258   4.815   4.450  0.8629  1.5133 -3.3284
 1017MOL0     H40289   8.540   4.837   4.358  0.3784 -0.3544  1.1239
 1017MOL0     H40290   8.414   4.750   4.271 -0.5037 -0.5785  2.0435
 1017MOL0     H40291   8.408   5.055   4.294 -2.7097 -0.2306  2.5865
 1017MOL0     H40292   8.274   4.946   4.246  0.5596 -2.0826  0.9291
 1017MOL0     H40293   8.532   4.893   4.108 -0.9563 -1.5440 -1.6153
 1017MOL0     H40294   8.366   4.869   4.051 -1.9022 -1.9195  3.8195
 1017MOL0     H40295   8.547   5.202   4.174  0.8127 -2.0928 -0.0175
 1017MOL0     H40296   8.543   5.434   3.862  1.5418  1.4656  0.7827
 1017MOL0     H40297   8.631   5.417   4.010  1.2448 -0.5001 -0.7785
 1017MOL0     H40298   8.449   5.599   3.994  1.9201  0.7433  1.7596
 1017MOL0     H40299   8.323   5.482   3.995  0.9298  1.6807 -2.1025
 1017MOL0     H40300   8.340   5.581   4.211  0.7965  0.3985  2.1813
 1017MOL0     H40301   8.386   5.412   4.211  0.6148 -0.2697  0.7785
 1017MOL0     H40302   8.526   5.541   4.356 -5.3259  4.3658 -0.2143
 1017MOL0     H40303   8.617   5.470   4.218 -3.4410 -2.0021 -2.9145
 1017MOL0     H40304   8.714   5.631   4.430 -2.4094  0.3738 -0.5400
 1017MOL0     H40305   8.865   5.641   4.569 -1.2387  0.5770 -0.2760
 1017MOL0     H40306   8.843   5.796   4.661  1.8380  1.9339  0.5875
 1017MOL0     H40307   9.000   5.758   4.577 -0.2477  0.3681  1.4328
 1017MOL0     H40308   8.883   6.271   4.610 -0.3161  0.9689 -0.0425
 1017MOL0     H40309   8.977   6.460   4.712 -1.0948 -0.5592 -0.7253
 1017MOL0     H40310   9.419   6.538   4.584 -1.8091 -1.8935  0.7064
 1017MOL0     H40311   9.395   6.661   4.704  1.0713 -1.1033  2.9068
 1017MOL0     H40312   9.371   6.361   4.740 -0.2229  0.8696 -3.1258
 1017MOL0     H40313   9.503   6.462   4.802 -0.6050  1.1177  1.2324
 1017MOL0     H40314   9.210   6.494   4.908 -0.2885  1.4538 -0.4493
 1017MOL0     H40315   9.366   6.585   4.948 -2.0252  1.1777  0.2615
 1017MOL0     H40316   9.272   6.419   5.105  0.6160 -1.3973  0.2434
 1017MOL0     H40317   9.437   6.385   5.053 -0.6204 -0.7374  2.4020
 1017MOL0     H40318   9.196   6.233   4.971 -0.6665 -2.6361  2.1341
 1017MOL0     H40319   9.372   6.201   4.921 -0.7992 -1.0414 -1.0585
 1017MOL0     H40320   9.246   6.217   5.206  1.3142  0.0448  2.0512
 1017MOL0     H40321   9.414   6.165   5.167 -0.3703 -3.7230 -0.7729
 1017MOL0     H40322   9.338   5.970   5.061  0.9177  2.3127 -0.8700
 1017MOL0     H40323   9.158   6.021   5.069  0.6435  2.2981 -1.9485
 1017MOL0     H40324   9.247   5.828   5.210 -2.8556 -1.1738  1.2666
 1017MOL0     H40325   9.167   5.958   5.301 -0.0817  0.4455 -0.0956
 1017MOL0     H40326   9.299   6.459   4.417 -0.0356 -1.8199 -0.9165
 1017MOL0     H40327   9.188   6.279   4.291  1.1099 -0.6119  0.2980
 1017MOL0     H40328   8.802   6.070   4.230  3.6225 -0.6049  0.2312
 1017MOL0     H40329   8.654   5.908   4.113 -0.7909 -0.9306  0.3725
 1017MOL0     H40330   8.058   4.685   4.814 -2.3759 -0.2080 -1.0954
 1017MOL0     H40331   7.859   4.832   4.807  1.7047  3.4072 -1.6400
 1017MOL0     H40332   7.612   5.172   4.913  0.4887  0.5165  0.5133
 1017MOL0     H40333   7.429   5.330   4.936 -0.5842  0.9805  0.6718
 1017MOL0     H40334   7.326   5.496   5.011 -0.2021 -2.3814 -1.6479
 1017MOL0     H40335   7.187   5.398   4.985  1.8850  0.0560  0.5366
 1017MOL0     H40336   7.133   5.638   5.046 -0.0941 -0.6183 -2.2520
 1017MOL0     H40337   7.190   5.587   5.211  0.5599 -0.3980 -0.4923
 1017MOL0     H40338   6.945   5.469   5.064  2.9758 -0.3161 -2.4126
 1017MOL0     H40339   7.026   5.385   5.190 -2.0329 -0.7521 -2.5707
 1017MOL0     H40340   6.977   5.681   5.230 -1.0068 -0.7729 -3.6798
 1017MOL0     H40341   6.974   5.558   5.362  0.0727  1.0850  0.7436
 1017MOL0     H40342   6.582   5.533   5.214  0.7582 -2.8352 -1.1546
 1017MOL0     H40343   7.382   5.221   5.348  3.7874  0.9602  2.2442
 1017MOL0     H40344   7.659   4.991   5.359  0.3236 -1.8640 -0.9225
 1017MOL0     H40345   7.521   5.067   5.449 -1.2550 -0.4530 -0.1220
 1017MOL0     H40346   7.500   4.919   5.350  0.5099  0.6354 -1.9158
 1018MOL0     O40347   3.398   7.180   1.940 -0.5140 -0.3158 -0.2137
 1018MOL0     C40348   3.473   7.266   1.968  0.2779 -1.3918  0.2424
 1018MOL0     O40349   3.565   7.266   2.069  0.2753  0.5538 -0.6608
 1018MOL0     C40350   3.558   7.157   2.160 -0.7745  0.1960 -0.3580
 1018MOL0     C40351   3.572   7.026   2.111  0.0321 -0.2749 -0.1888
 1018MOL0     C40352   3.606   6.921   2.193 -0.5168  0.2513  0.3424
 1018MOL0     C40353   3.620   6.949   2.331  0.2619 -0.0937  0.8176
 1018MOL0     O40354   3.650   6.849   2.421  0.5426 -0.0770 -0.2835
 1018MOL0     C40355   3.752   6.751   2.394 -0.1723 -0.3062  0.7980
 1018MOL0     C40356   3.783   6.688   2.516 -0.0820  0.7025  0.3813
 1018MOL0     C40357   3.861   6.759   2.623  1.0317 -0.5824 -0.3575
 1018MOL0     C40358   4.018   6.787   2.600 -0.9131  0.2902 -0.4263
 1018MOL0     C40359   4.101   6.664   2.625  1.3643 -0.6748  0.4609
 1018MOL0     C40360   4.088   6.595   2.766  0.3492 -0.7364  0.3525
 1018MOL0     C40361   4.189   6.487   2.763  0.4012  1.3226 -0.2855
 1018MOL0     C40362   4.232   6.466   2.911  0.0075  1.4014  0.3909
 1018MOL0     N40363   4.143   6.419   3.014 -0.1705  0.0138  0.1146
 1018MOL0     C40364   4.136   6.283   3.059 -0.6745  0.7407  0.2040
 1018MOL0     C40365   4.050   6.296   3.165 -0.0679 -0.5047 -0.5016
 1018MOL0     C40366   3.975   6.187   3.237 -0.5331  0.0432 -0.4194
 1018MOL0     C40367   4.040   6.174   3.370 -0.3709 -0.0384 -0.8332
 1018MOL0     C40368   4.015   6.040   3.438  0.0623  0.4209  0.1000
 1018MOL0     C40369   4.079   6.033   3.577 -0.8844  0.0601  1.2434
 1018MOL0     O40370   4.012   6.133   3.649  0.1249 -0.7940  0.3600
 1018MOL0     C40371   4.076   6.175   3.764 -0.3917  0.4933 -0.1581
 1018MOL0     C40372   4.036   6.115   3.890 -0.2542  0.2293 -1.0090
 1018MOL0     C40373   4.092   6.164   4.009  0.2722 -0.5211  0.2004
 1018MOL0     C40374   4.034   6.093   4.131 -0.6902  1.4016 -0.3671
 1018MOL0     C40375   4.190   6.261   4.009  0.1703  0.3014  0.2972
 1018MOL0     C40376   4.267   6.309   4.144  0.9130  0.5454  0.5053
 1018MOL0     O40377   4.302   6.199   4.223 -0.2010  0.3307  0.6549
 1018MOL0     C40378   4.393   6.208   4.324  0.3971  0.4776 -1.0177
 1018MOL0     C40379   4.383   6.122   4.438  0.2864 -0.0800  0.1041
 1018MOL0     C40380   4.471   6.118   4.544 -0.1424 -0.6294  0.3950
 1018MOL0     C40381   4.589   6.190   4.542  0.4858  0.7547 -0.4363
 1018MOL0     O40382   4.692   6.191   4.633  0.2420  0.4670 -0.8612
 1018MOL0     C40383   4.676   6.169   4.772  0.3634 -0.6719  0.1916
 1018MOL0     C40384   4.678   6.301   4.848 -0.5305  0.8212  0.2856
 1018MOL0     C40385   4.819   6.366   4.817  0.3529 -0.6307 -1.0304
 1018MOL0     C40386   4.818   6.507   4.871  0.1315  0.4546 -1.3147
 1018MOL0     C40387   4.935   6.585   4.823  0.4063 -0.5784 -0.2308
 1018MOL0     C40388   4.924   6.733   4.857  0.1322  0.4760 -0.4162
 1018MOL0     C40389   5.035   6.830   4.797  0.6650  0.2326  0.1331
 1018MOL0     C40390   5.183   6.826   4.860  0.5207  0.4133  0.7082
 1018MOL0    Cl40391   5.271   6.684   4.800 -0.1379 -0.4701 -0.3773
 1018MOL0     C40392   4.602   6.284   4.438  0.2924  0.4226  0.0841
 1018MOL0     C40393   4.505   6.294   4.335 -0.6919  1.4680  0.1232
 1018MOL0     O40394   4.284   6.426   4.173 -0.0116  0.0972 -0.2839
 1018MOL0     C40395   4.227   6.320   3.882  0.1847 -0.6935 -0.5925
 1018MOL0     C40396   4.158   6.281   3.762 -0.0603  0.3368  0.2039
 1018MOL0     N40397   4.021   6.429   3.181 -0.6386 -0.6161 -0.1142
 1018MOL0     N40398   4.098   6.503   3.107 -0.2273 -0.9011 -0.0806
 1018MOL0     C40399   3.584   7.071   2.390 -0.6022 -0.5018 -0.6206
 1018MOL0     C40400   3.561   7.182   2.299 -0.4689 -0.1385 -1.3536
 1018MOL0     C40401   3.468   7.393   1.887  0.1637  0.2511 -0.6187
 1018MOL0     C40402   3.562   7.488   1.930  0.6527 -0.4851 -0.1801
 1018MOL0     C40403   3.557   7.616   1.874 -0.0855 -0.2848  0.3368
 1018MOL0     C40404   3.466   7.653   1.776 -0.2423  0.4322 -1.1686
 1018MOL0     O40405   3.473   7.782   1.723  0.8165  0.1899 -0.9200
 1018MOL0     C40406   3.448   7.794   1.584  0.8385  0.2431 -0.2232
 1018MOL0     C40407   3.518   7.927   1.531  0.7896  0.4241 -0.0086
 1018MOL0     C40408   3.526   7.935   1.378 -0.4114 -0.1301  0.9466
 1018MOL0     C40409   3.609   8.063   1.348  0.7068  0.5888 -0.2107
 1018MOL0     C40410   3.520   8.177   1.332  0.0352 -0.3020 -0.3553
 1018MOL0     C40411   3.475   8.287   1.292 -0.3287  0.3697 -0.0965
 1018MOL0     C40412   3.378   7.554   1.737 -0.0003 -0.8266 -0.1829
 1018MOL0     C40413   3.379   7.430   1.784 -0.0143  0.0123  0.9318
 1018MOL0     C40414   3.280   7.340   1.709 -0.8168  0.0780  0.1097
 1018MOL0     H40415   3.576   7.012   2.003  5.2021 -0.4262 -0.2185
 1018MOL0     H40416   3.637   6.830   2.143  3.9533  0.6752  1.8413
 1018MOL0     H40417   3.837   6.805   2.349 -2.5706  1.4202 -2.0218
 1018MOL0     H40418   3.715   6.684   2.316  3.6400 -1.1637 -0.5274
 1018MOL0     H40419   3.687   6.665   2.563 -1.5959  0.8087 -2.4268
 1018MOL0     H40420   3.829   6.589   2.503 -1.4719 -0.1548  1.6565
 1018MOL0     H40421   3.818   6.860   2.625 -0.1010 -1.0141 -1.5067
 1018MOL0     H40422   3.846   6.706   2.718 -0.0536 -1.3646 -0.9515
 1018MOL0     H40423   4.033   6.829   2.500  0.1836  1.4549  0.2125
 1018MOL0     H40424   4.047   6.866   2.670  0.2955 -1.0207  0.5920
 1018MOL0     H40425   4.204   6.683   2.595  0.9986  1.6559  0.4905
 1018MOL0     H40426   4.059   6.584   2.562  0.8313  0.0575 -0.1298
 1018MOL0     H40427   4.104   6.668   2.846 -1.3563 -1.9804  1.9264
 1018MOL0     H40428   3.998   6.541   2.797  1.2657 -2.3970  0.2565
 1018MOL0     H40429   4.281   6.514   2.711  1.5563 -2.5280 -0.5809
 1018MOL0     H40430   4.151   6.395   2.717  2.7656 -1.1725  2.3938
 1018MOL0     H40431   4.321   6.402   2.913 -0.1141  1.2433  0.6946
 1018MOL0     H40432   4.257   6.565   2.951 -0.7655  0.5119  3.3588
 1018MOL0     H40433   4.167   6.197   3.000  1.7782  2.2494 -0.8850
 1018MOL0     H40434   3.999   6.093   3.186 -0.5132 -0.5426  0.6368
 1018MOL0     H40435   3.867   6.202   3.241 -0.4030  0.8112  0.7051
 1018MOL0     H40436   4.148   6.176   3.357 -0.2239 -1.2290  0.1149
 1018MOL0     H40437   4.011   6.250   3.444  1.3785 -1.9355  2.0187
 1018MOL0     H40438   3.911   6.011   3.455  0.2852 -1.2874 -1.1900
 1018MOL0     H40439   4.058   5.959   3.379 -0.0441  0.6222 -0.2567
 1018MOL0     H40440   4.073   5.934   3.623 -3.0405 -2.5429 -3.8675
 1018MOL0     H40441   4.186   6.054   3.577 -0.1645 -3.0791 -0.1441
 1018MOL0     H40442   3.967   6.032   3.893  0.8976 -0.7708 -1.1769
 1018MOL0     H40443   4.021   6.171   4.206 -1.5252  2.1861 -1.3018
 1018MOL0     H40444   4.107   6.024   4.175  0.1968  1.1305 -2.1838
 1018MOL0     H40445   3.936   6.044   4.122  0.9689 -2.5370  0.7819
 1018MOL0     H40446   4.290   6.068   4.456  1.1838 -3.4954 -4.0075
 1018MOL0     H40447   4.464   6.041   4.620  0.0037 -1.7354 -0.6858
 1018MOL0     H40448   4.581   6.125   4.804 -0.6665  1.4563  0.2585
 1018MOL0     H40449   4.753   6.107   4.818 -1.4972  0.0048  4.8936
 1018MOL0     H40450   4.594   6.354   4.802 -2.1096 -2.4773 -0.9578
 1018MOL0     H40451   4.672   6.284   4.956  1.9108 -1.7020  0.1383
 1018MOL0     H40452   4.837   6.369   4.709  1.8823 -2.5139 -0.8799
 1018MOL0     H40453   4.905   6.317   4.861  1.1185  2.5368  1.3516
 1018MOL0     H40454   4.823   6.503   4.980  0.5672 -1.5416 -1.3605
 1018MOL0     H40455   4.725   6.556   4.839  0.2658  1.7732  0.2252
 1018MOL0     H40456   5.034   6.550   4.852  0.8997 -0.1350 -1.3273
 1018MOL0     H40457   4.947   6.583   4.714 -0.1133 -4.9409 -0.3795
 1018MOL0     H40458   4.934   6.739   4.966 -2.1140  0.1684 -0.1581
 1018MOL0     H40459   4.827   6.767   4.820 -0.0857 -2.3338 -2.8102
 1018MOL0     H40460   5.010   6.936   4.810  2.1531  0.8276 -1.4934
 1018MOL0     H40461   5.057   6.810   4.692  5.5647  1.2355  0.7143
 1018MOL0     H40462   5.181   6.813   4.968 -0.6123  2.4245  0.9812
 1018MOL0     H40463   5.234   6.918   4.829 -0.3584  1.0042  0.9563
 1018MOL0     H40464   4.689   6.349   4.430  1.2013 -0.8208 -0.4406
 1018MOL0     H40465   4.529   6.365   4.256  0.1183 -0.6317 -1.6226
 1018MOL0     H40466   4.294   6.404   3.898 -0.7721  0.1743 -1.0569
 1018MOL0     H40467   4.156   6.340   3.670 -1.6275 -0.3883 -0.2567
 1018MOL0     H40468   3.582   7.085   2.498 -0.7611  1.2869 -0.8372
 1018MOL0     H40469   3.574   7.281   2.342  3.1166 -1.7348  1.8269
 1018MOL0     H40470   3.630   7.481   2.013  1.5799  0.8886 -0.7738
 1018MOL0     H40471   3.629   7.688   1.913  1.1676 -1.3807  0.0971
 1018MOL0     H40472   3.484   7.706   1.530 -0.0154 -0.5822  0.5177
 1018MOL0     H40473   3.341   7.802   1.563  0.2772  3.9974  3.0081
 1018MOL0     H40474   3.622   7.919   1.564  0.6297 -0.0660  0.3891
 1018MOL0     H40475   3.462   8.014   1.566 -0.4554 -0.8440  1.3278
 1018MOL0     H40476   3.576   7.848   1.335 -1.5451 -0.1705 -0.3719
 1018MOL0     H40477   3.431   7.937   1.324 -1.3958  1.8876  2.6119
 1018MOL0     H40478   3.654   8.043   1.250 -3.0594 -1.3136 -1.7598
 1018MOL0     H40479   3.678   8.080   1.431 -0.2107 -1.1273  0.9619
 1018MOL0     H40480   3.442   8.380   1.252  1.1516  2.3014  2.8086
 1018MOL0     H40481   3.321   7.596   1.654  1.5537  0.7138 -0.5211
 1018MOL0     H40482   3.218   7.393   1.636 -0.1209 -2.2730 -2.3475
 1018MOL0     H40483   3.341   7.262   1.663  2.2504  1.7588  1.0407
 1018MOL0     H40484   3.220   7.283   1.780  1.6263  0.3154  2.4953
 1019MOL0     O40485   4.660   7.273   6.800 -0.2341 -0.1565 -0.2880
 1019MOL0     C40486   4.689   7.352   6.714 -0.9042 -0.2610 -0.0738
 1019MOL0     O40487   4.782   7.453   6.732 -0.0644 -0.4394  0.3127
 1019MOL0     C40488   4.871   7.441   6.836 -0.4041  0.7233  0.7615
 1019MOL0     C40489   4.955   7.331   6.844 -0.2786 -1.2863 -0.6883
 1019MOL0     C40490   5.037   7.318   6.957  0.0849  0.2982 -0.6530
 1019MOL0     C40491   5.017   7.400   7.066 -0.8995 -0.0353 -0.4449
 1019MOL0     O40492   5.090   7.394   7.179 -0.9112 -0.1863  0.5966
 1019MOL0     C40493   5.149   7.267   7.209  0.3439 -0.3026 -0.8406
 1019MOL0     C40494   5.217   7.274   7.353  0.5321 -0.3285 -0.8568
 1019MOL0     C40495   5.325   7.166   7.382  0.4312  0.2504 -0.7706
 1019MOL0     C40496   5.288   7.018   7.392 -0.3454  1.1564 -0.4094
 1019MOL0     C40497   5.166   6.981   7.480 -0.1462 -0.0119  0.3523
 1019MOL0     C40498   5.164   7.024   7.629  0.6453 -0.3942  0.2325
 1019MOL0     C40499   5.062   6.966   7.723  0.3430  0.4480  0.1759
 1019MOL0     C40500   4.952   7.067   7.755 -0.7660  0.1123  0.3882
 1019MOL0     N40501   4.912   7.152   7.643  0.6287 -0.1044  0.2948
 1019MOL0     C40502   4.846   7.105   7.532  0.1095 -0.8669  0.3315
 1019MOL0     C40503   4.838   7.215   7.449 -0.0701 -1.1612  0.5489
 1019MOL0     C40504   4.755   7.238   7.321  0.7747  0.7405 -0.7537
 1019MOL0     C40505   4.721   7.105   7.261 -0.2608  1.1093  0.0274
 1019MOL0     C40506   4.656   7.122   7.122  0.2830 -0.6084  0.2770
 1019MOL0     C40507   4.536   7.215   7.132  1.0601 -1.5066  0.2962
 1019MOL0     O40508   4.429   7.184   7.219  0.2386  0.7191 -0.0054
 1019MOL0     C40509   4.350   7.071   7.201 -0.3062  0.1158  0.4720
 1019MOL0     C40510   4.306   7.013   7.322 -0.4593 -0.3208 -0.1536
 1019MOL0     C40511   4.217   6.905   7.326 -0.9511  0.3199  0.5962
 1019MOL0     C40512   4.151   6.875   7.453 -0.2930 -1.3012  0.4663
 1019MOL0     C40513   4.195   6.836   7.202  0.5365  0.4610 -0.1527
 1019MOL0     C40514   4.104   6.724   7.187  0.1534  0.0085  0.6136
 1019MOL0     O40515   4.124   6.648   7.067  0.5568 -0.6914  0.5515
 1019MOL0     C40516   4.017   6.565   7.038 -0.1705 -0.4610 -1.5583
 1019MOL0     C40517   4.008   6.440   7.090  1.0459 -0.6183 -0.1823
 1019MOL0     C40518   3.910   6.346   7.050  0.2662 -0.1225  1.4571
 1019MOL0     C40519   3.802   6.395   6.978 -0.2991  0.0941  0.0864
 1019MOL0     O40520   3.705   6.309   6.949 -0.0763 -0.4231 -1.0541
 1019MOL0     C40521   3.574   6.353   6.917  0.7681  0.1031 -0.0305
 1019MOL0     C40522   3.465   6.247   6.948  0.0470 -0.0748 -0.2349
 1019MOL0     C40523   3.337   6.312   6.895  0.3123 -0.4809 -0.0512
 1019MOL0     C40524   3.216   6.215   6.900 -0.3613 -0.6030 -0.5957
 1019MOL0     C40525   3.100   6.287   6.825  0.9797  0.1866 -0.2461
 1019MOL0     C40526   2.980   6.192   6.826  0.3463 -0.3050  1.1616
 1019MOL0     C40527   2.872   6.255   6.747 -0.4622  0.3779 -0.5276
 1019MOL0     C40528   2.760   6.146   6.722  0.1491  0.4484 -0.1053
 1019MOL0    Cl40529   2.635   6.232   6.638  0.1693  0.0819  0.3065
 1019MOL0     C40530   3.803   6.530   6.931 -0.3263  0.0655 -0.7484
 1019MOL0     C40531   3.909   6.611   6.960 -0.2476  0.4255 -0.6882
 1019MOL0     O40532   4.021   6.695   7.277  0.2644  0.0695  0.0528
 1019MOL0     C40533   4.277   6.877   7.088  0.8374  0.2659 -0.4091
 1019MOL0     C40534   4.334   7.003   7.081 -0.0839  0.5117 -0.0988
 1019MOL0     N40535   4.906   7.321   7.506  0.0570  0.2970 -0.4424
 1019MOL0     N40536   4.949   7.283   7.625  0.3624  0.4243 -0.6525
 1019MOL0     C40537   4.925   7.510   7.062  0.6495 -0.1879  1.2556
 1019MOL0     C40538   4.858   7.533   6.940 -0.7312  0.6021  0.0025
 1019MOL0     C40539   4.599   7.360   6.599 -0.3672  0.3788 -1.5516
 1019MOL0     C40540   4.587   7.488   6.541  0.4444 -0.2239 -0.8676
 1019MOL0     C40541   4.501   7.508   6.424 -0.0360 -0.0736 -0.9520
 1019MOL0     C40542   4.428   7.406   6.370 -0.2068  0.1398  0.4017
 1019MOL0     O40543   4.359   7.440   6.261  0.8489  0.0882  0.0218
 1019MOL0     C40544   4.235   7.363   6.225  0.3666  0.6090 -0.1118
 1019MOL0     C40545   4.173   7.429   6.100 -0.0739 -0.7415 -0.7096
 1019MOL0     C40546   4.257   7.395   5.972  0.5319 -0.0118  0.4383
 1019MOL0     C40547   4.192   7.432   5.844 -0.5184  0.0667  0.3835
 1019MOL0     C40548   4.114   7.321   5.786  0.6124 -0.4215 -0.2112
 1019MOL0     C40549   4.057   7.235   5.734 -0.1170 -0.1301  1.0630
 1019MOL0     C40550   4.439   7.283   6.430 -0.6815  0.1669 -0.2324
 1019MOL0     C40551   4.526   7.254   6.539  0.2644 -0.5783  0.4195
 1019MOL0     C40552   4.546   7.114   6.574  0.4777  0.3669 -0.4226
 1019MOL0     H40553   4.960   7.257   6.765  0.4836 -1.3535 -0.5851
 1019MOL0     H40554   5.114   7.242   6.954 -0.6714 -0.6454  1.9051
 1019MOL0     H40555   5.224   7.238   7.135 -3.0951 -4.1242 -3.2861
 1019MOL0     H40556   5.073   7.188   7.208 -0.9615  0.7975  1.5655
 1019MOL0     H40557   5.242   7.380   7.369  0.0051 -0.1839 -0.9643
 1019MOL0     H40558   5.138   7.250   7.424 -0.0465 -0.9094 -1.6746
 1019MOL0     H40559   5.405   7.172   7.308 -1.1557  0.2760 -2.5716
 1019MOL0     H40560   5.372   7.188   7.478  0.2728 -1.4098 -0.2778
 1019MOL0     H40561   5.265   6.990   7.289 -2.6800 -1.5194  0.7033
 1019MOL0     H40562   5.379   6.966   7.423  0.2172  2.6615  0.5906
 1019MOL0     H40563   5.158   6.872   7.484 -2.2051  0.0627 -0.3857
 1019MOL0     H40564   5.071   7.005   7.431 -0.3482  1.7103  1.4854
 1019MOL0     H40565   5.260   6.991   7.671  2.1054  0.0847 -2.4404
 1019MOL0     H40566   5.170   7.133   7.629 -1.3430 -0.2338 -1.4387
 1019MOL0     H40567   5.112   6.937   7.815 -1.6029  0.1606  1.2066
 1019MOL0     H40568   5.022   6.865   7.709 -0.9515 -0.0501  5.5424
 1019MOL0     H40569   4.865   7.015   7.795 -0.4732  0.4783  1.5277
 1019MOL0     H40570   4.997   7.112   7.844  2.0421  0.4155 -1.0634
 1019MOL0     H40571   4.787   7.015   7.521 -6.0497  2.3894  2.3041
 1019MOL0     H40572   4.824   7.286   7.252  3.0726 -3.7893 -1.9782
 1019MOL0     H40573   4.662   7.292   7.347  0.8139 -1.1121  4.4760
 1019MOL0     H40574   4.812   7.047   7.247 -1.6045 -0.9130 -0.7820
 1019MOL0     H40575   4.657   7.036   7.316  3.1191 -1.8473  0.5881
 1019MOL0     H40576   4.726   7.163   7.048  3.6930 -0.9299  3.0424
 1019MOL0     H40577   4.620   7.024   7.089 -1.9063 -0.7648  2.8363
 1019MOL0     H40578   4.572   7.314   7.162  0.2453 -0.1520 -2.7762
 1019MOL0     H40579   4.485   7.235   7.037  2.3162  0.8601  0.0573
 1019MOL0     H40580   4.319   7.078   7.408 -5.5730  1.4602 -0.4307
 1019MOL0     H40581   4.151   6.768   7.474  0.1531 -1.0827  1.6809
 1019MOL0     H40582   4.052   6.921   7.457  1.1463  2.3947 -1.5311
 1019MOL0     H40583   4.209   6.927   7.530 -0.3739  0.0491 -0.3412
 1019MOL0     H40584   4.088   6.420   7.161  0.5030 -1.0204  0.3213
 1019MOL0     H40585   3.912   6.244   7.088 -0.2450 -0.9472 -0.6259
 1019MOL0     H40586   3.544   6.443   6.970  0.8113 -0.9228  1.8371
 1019MOL0     H40587   3.584   6.360   6.809 -0.8981  0.2487 -0.2070
 1019MOL0     H40588   3.491   6.157   6.892 -1.0399 -0.8803  0.5116
 1019MOL0     H40589   3.471   6.225   7.055  1.3381  0.6234 -0.1422
 1019MOL0     H40590   3.342   6.352   6.793 -1.0207 -0.1157  0.0056
 1019MOL0     H40591   3.293   6.394   6.954 -0.4364 -1.3993  0.6904
 1019MOL0     H40592   3.195   6.196   7.005  2.4189  1.7707  0.5326
 1019MOL0     H40593   3.237   6.124   6.843  0.1239 -0.8241 -0.0722
 1019MOL0     H40594   3.065   6.375   6.879 -0.0134  0.2961 -1.0331
 1019MOL0     H40595   3.132   6.322   6.727 -1.4501  0.0132 -1.1707
 1019MOL0     H40596   2.948   6.178   6.930  0.3141 -1.0132  1.0565
 1019MOL0     H40597   3.000   6.093   6.786 -2.6001 -0.5473  0.0291
 1019MOL0     H40598   2.914   6.291   6.652  0.1302  0.7645 -0.1263
 1019MOL0     H40599   2.819   6.336   6.798 -2.6945 -1.4893  0.2926
 1019MOL0     H40600   2.702   6.104   6.805 -3.0493  1.3508 -1.7373
 1019MOL0     H40601   2.790   6.071   6.648  0.5467  2.0640 -1.6450
 1019MOL0     H40602   3.717   6.563   6.875 -1.5558 -0.0673  0.9971
 1019MOL0     H40603   3.922   6.711   6.920  1.2005  0.8139  0.6549
 1019MOL0     H40604   4.270   6.825   6.994 -0.2268 -0.1442 -0.1182
 1019MOL0     H40605   4.375   7.030   6.985 -1.4870  0.4245 -0.7456
 1019MOL0     H40606   4.903   7.572   7.148  0.1085  0.2021  0.8378
 1019MOL0     H40607   4.787   7.614   6.928 -1.8577 -0.6358 -2.4277
 1019MOL0     H40608   4.652   7.570   6.569  0.3085 -0.1017 -0.9140
 1019MOL0     H40609   4.492   7.606   6.379  1.1816  1.5910  2.1750
 1019MOL0     H40610   4.254   7.256   6.223 -0.2316  0.4943 -0.0528
 1019MOL0     H40611   4.157   7.377   6.301 -1.0259 -1.2939 -1.0895
 1019MOL0     H40612   4.155   7.537   6.109  1.0567 -0.6918  4.3090
 1019MOL0     H40613   4.078   7.375   6.089 -0.9196 -0.7988  4.2511
 1019MOL0     H40614   4.349   7.454   5.978  2.5466 -2.7078 -1.5251
 1019MOL0     H40615   4.285   7.290   5.975 -1.0411 -0.6220 -2.7087
 1019MOL0     H40616   4.273   7.471   5.782 -0.1729  2.1735  2.0234
 1019MOL0     H40617   4.127   7.520   5.853  1.3066  2.0845 -3.7224
 1019MOL0     H40618   4.003   7.160   5.680  0.9188  1.4172 -2.4476
 1019MOL0     H40619   4.372   7.205   6.394 -1.1677 -0.2277  1.4200
 1019MOL0     H40620   4.650   7.094   6.549  0.2111 -0.2643 -1.0554
 1019MOL0     H40621   4.537   7.098   6.682  0.2804  1.0153 -0.3383
 1019MOL0     H40622   4.486   7.039   6.522 -0.6456  1.6351 -1.0185
 1020MOL0     O40623   2.578   8.993  10.954 -0.2269 -0.0425  0.3019
 1020MOL0     C40624   2.637   9.048  10.862  0.5883  0.9157 -0.9915
 1020MOL0     O40625   2.572   9.128  10.763 -0.1251  0.0319  0.5781
 1020MOL0     C40626   2.440   9.153  10.780  1.7279  0.5523  0.5649
 1020MOL0     C40627   2.387   9.239  10.876 -0.3268  0.2918  0.4898
 1020MOL0     C40628   2.247   9.252  10.893  0.4397 -0.3946  0.0242
 1020MOL0     C40629   2.163   9.201  10.796  0.5368  0.1979 -0.3856
 1020MOL0     O40630   2.030   9.228  10.800 -0.2163 -0.7987  0.8349
 1020MOL0     C40631   1.975   9.297  10.913  0.2261 -0.2054  0.0625
 1020MOL0     C40632   1.823   9.310  10.924 -0.8884 -0.5966 -0.6457
 1020MOL0     C40633   1.773   9.420  11.021  0.6543 -0.0372 -0.0848
 1020MOL0     C40634   1.813   9.560  10.967 -0.3088 -0.3140 -0.1725
 1020MOL0     C40635   1.780   9.687  11.050 -0.1565  0.3651 -0.7778
 1020MOL0     C40636   1.871   9.681  11.168 -0.5367  0.4019  0.9864
 1020MOL0     C40637   1.843   9.820  11.235 -0.5447  0.1736  0.0573
 1020MOL0     C40638   1.976   9.854  11.312  0.2892 -0.8745 -1.5215
 1020MOL0     N40639   2.078   9.885  11.217 -0.6892 -0.0105  0.5190
 1020MOL0     C40640   2.088  10.012  11.163 -0.4048  0.3245  0.2136
 1020MOL0     C40641   2.188  10.011  11.078  0.0187  1.1159 -0.7067
 1020MOL0     C40642   2.218  10.112  10.983 -0.0089 -0.5267  0.4672
 1020MOL0     C40643   2.317  10.217  11.024 -0.2891 -0.3783  0.7471
 1020MOL0     C40644   2.412  10.264  10.901  0.8041 -0.0666  0.9243
 1020MOL0     C40645   2.350  10.254  10.762 -0.0496 -0.6825  0.0409
 1020MOL0     O40646   2.409  10.143  10.690  0.0098 -0.8657  0.2149
 1020MOL0     C40647   2.366  10.118  10.560 -0.5665  0.4910 -0.3454
 1020MOL0     C40648   2.412  10.195  10.451 -0.7393 -0.3871  0.8461
 1020MOL0     C40649   2.373  10.166  10.322  0.8833  0.2714  0.0967
 1020MOL0     C40650   2.421  10.269  10.217  0.3005  1.0960 -0.6432
 1020MOL0     C40651   2.288  10.052  10.299 -1.5698  0.5567  0.8529
 1020MOL0     C40652   2.238  10.001  10.171  0.6307  0.9745 -0.1563
 1020MOL0     O40653   2.112   9.938  10.157 -0.2709  0.7108  0.0557
 1020MOL0     C40654   2.042   9.941  10.041  0.4360 -0.0603 -0.4733
 1020MOL0     C40655   1.905   9.975  10.039  0.1718 -0.2134 -0.4209
 1020MOL0     C40656   1.839   9.985   9.916 -0.0122  0.1851  0.6999
 1020MOL0     C40657   1.911   9.965   9.793 -0.1065 -0.3663 -0.4052
 1020MOL0     O40658   1.861   9.991   9.672  0.1317 -1.3045  1.0226
 1020MOL0     C40659   1.732   9.936   9.635  0.0996 -0.8272 -0.6948
 1020MOL0     C40660   1.636  10.055   9.607 -0.9463  0.5778  0.2944
 1020MOL0     C40661   1.676  10.122   9.474 -0.2215  0.3138  0.1089
 1020MOL0     C40662   1.550  10.171   9.404  0.0951 -0.7697 -0.6341
 1020MOL0     C40663   1.564  10.215   9.255  0.2602 -0.1875 -0.5705
 1020MOL0     C40664   1.639  10.126   9.152 -0.5662  0.6279 -0.3582
 1020MOL0     C40665   1.554   9.993   9.124 -0.6860 -0.2928  0.8237
 1020MOL0     C40666   1.590   9.954   8.974  0.1919  1.0876  1.0085
 1020MOL0    Cl40667   1.526  10.074   8.851  0.1917  0.3533 -0.3702
 1020MOL0     C40668   2.051   9.932   9.796 -0.9172  0.8561  0.3261
 1020MOL0     C40669   2.105   9.911   9.917 -0.0543 -0.3648 -0.8186
 1020MOL0     O40670   2.325  10.012  10.089 -0.0015  0.4350 -0.3968
 1020MOL0     C40671   2.245   9.973  10.410  1.5525 -1.6249 -0.1303
 1020MOL0     C40672   2.283  10.012  10.536  0.0487 -0.9475  0.1580
 1020MOL0     N40673   2.247   9.886  11.088  0.3840  0.0337 -0.4127
 1020MOL0     N40674   2.191   9.817  11.173  0.7428 -0.0806 -0.3479
 1020MOL0     C40675   2.215   9.122  10.698  0.1107  0.0153  0.7029
 1020MOL0     C40676   2.351   9.090  10.689  0.1530 -0.6731  0.4259
 1020MOL0     C40677   2.783   9.042  10.870  0.8009  1.2856 -0.0727
 1020MOL0     C40678   2.846   9.164  10.839 -0.9957 -0.0945  0.5321
 1020MOL0     C40679   2.991   9.176  10.838  0.0917  0.0852  0.0661
 1020MOL0     C40680   3.071   9.067  10.860  0.1797 -0.5339 -0.1501
 1020MOL0     O40681   3.209   9.058  10.852 -0.0004 -0.6305  0.1802
 1020MOL0     C40682   3.278   8.954  10.777 -0.4665 -0.3666  0.9730
 1020MOL0     C40683   3.235   8.963  10.632 -0.1625  0.4062 -0.6877
 1020MOL0     C40684   3.321   9.058  10.548 -0.9038  0.6061 -0.0114
 1020MOL0     C40685   3.273   9.084  10.408 -0.1548 -0.7348 -0.4892
 1020MOL0     C40686   3.347   9.198  10.366 -0.2522  1.2989  0.6581
 1020MOL0     C40687   3.380   9.311  10.344 -0.7508 -0.1853  0.8431
 1020MOL0     C40688   3.001   8.951  10.891  0.4833  0.7551 -0.8683
 1020MOL0     C40689   2.859   8.931  10.902 -0.3238 -0.3647 -0.4000
 1020MOL0     C40690   2.801   8.792  10.929  1.0781  0.3459  0.4461
 1020MOL0     H40691   2.458   9.290  10.941 -2.3381  0.1744  2.9279
 1020MOL0     H40692   2.220   9.322  10.972 -3.0154 -0.4673 -0.9190
 1020MOL0     H40693   2.024   9.395  10.912  0.6123 -0.3527  1.6594
 1020MOL0     H40694   2.001   9.248  11.007  2.1027 -1.6799 -1.1533
 1020MOL0     H40695   1.780   9.341  10.828 -1.7205 -2.0463 -0.7635
 1020MOL0     H40696   1.774   9.214  10.943 -0.0160 -0.8342  0.5058
 1020MOL0     H40697   1.664   9.413  11.031  0.2633  1.8169 -2.2246
 1020MOL0     H40698   1.821   9.410  11.119  2.3310  1.7072 -0.6802
 1020MOL0     H40699   1.917   9.572  10.933 -0.3456 -0.8374 -0.4835
 1020MOL0     H40700   1.753   9.565  10.876 -1.8467 -1.7452  0.6981
 1020MOL0     H40701   1.678   9.683  11.090 -0.9128 -0.4346 -2.6888
 1020MOL0     H40702   1.798   9.783  11.000  1.0626  0.7910  0.4015
 1020MOL0     H40703   1.851   9.591  11.227 -0.1348  1.5629  2.9790
 1020MOL0     H40704   1.974   9.671  11.134 -0.3868 -2.1695  1.9656
 1020MOL0     H40705   1.762   9.811  11.308 -0.9278 -0.7131 -0.4549
 1020MOL0     H40706   1.810   9.898  11.166 -2.9066 -1.0826 -0.3708
 1020MOL0     H40707   1.971   9.931  11.390  0.7560 -2.4825  0.1862
 1020MOL0     H40708   2.012   9.770  11.373  0.1742  2.1214  3.1973
 1020MOL0     H40709   2.014  10.090  11.175 -0.6623 -0.1042  1.5639
 1020MOL0     H40710   2.125  10.165  10.959 -0.2660 -2.0137 -2.2956
 1020MOL0     H40711   2.262  10.054  10.901  1.3837  0.7418  0.2832
 1020MOL0     H40712   2.272  10.300  11.080 -0.4335  1.2180 -1.5463
 1020MOL0     H40713   2.388  10.159  11.083  0.3249 -1.7100 -1.1922
 1020MOL0     H40714   2.450  10.365  10.921 -1.9333  0.9961  1.1350
 1020MOL0     H40715   2.494  10.191  10.901 -0.4424 -1.8718 -3.8935
 1020MOL0     H40716   2.241  10.257  10.771 -0.1823 -0.2571 -1.4005
 1020MOL0     H40717   2.381  10.341  10.705  3.1766 -1.8347 -0.1787
 1020MOL0     H40718   2.484  10.275  10.467 -2.1907  0.9193  1.1066
 1020MOL0     H40719   2.344  10.283  10.141  0.1888 -1.6734 -1.1340
 1020MOL0     H40720   2.517  10.246  10.169 -0.0147 -1.6345 -0.1229
 1020MOL0     H40721   2.432  10.366  10.265  1.5317  0.1893  1.0020
 1020MOL0     H40722   1.856   9.987  10.135 -0.4590 -4.6195 -0.0059
 1020MOL0     H40723   1.738  10.021   9.900 -0.8797 -2.4337 -0.2461
 1020MOL0     H40724   1.749   9.866   9.552 -0.8486 -1.2924 -0.5150
 1020MOL0     H40725   1.698   9.876   9.720  0.5403 -0.5931 -0.3533
 1020MOL0     H40726   1.532  10.021   9.599  0.1195 -2.7813 -1.0905
 1020MOL0     H40727   1.653  10.135   9.680  0.4118 -1.2987  2.1370
 1020MOL0     H40728   1.728  10.056   9.404 -1.3275  1.3077 -1.7331
 1020MOL0     H40729   1.749  10.204   9.479 -2.5943  2.5990 -0.7591
 1020MOL0     H40730   1.500  10.252   9.458 -4.2620 -2.3609 -1.8562
 1020MOL0     H40731   1.479  10.087   9.400 -0.3783 -0.4298  0.2296
 1020MOL0     H40732   1.457  10.228   9.234 -0.0322 -1.5478 -0.0813
 1020MOL0     H40733   1.603  10.315   9.239 -2.3801  0.5205 -3.5307
 1020MOL0     H40734   1.731  10.083   9.193 -0.4442 -1.9952 -3.0380
 1020MOL0     H40735   1.677  10.184   9.067 -0.5690 -0.9530 -1.4847
 1020MOL0     H40736   1.449  10.015   9.142 -1.2207 -1.7961 -0.2871
 1020MOL0     H40737   1.589   9.907   9.182  2.0096  0.1294 -0.0252
 1020MOL0     H40738   1.547   9.858   8.948 -2.7099  2.3269  0.8326
 1020MOL0     H40739   1.699   9.943   8.971 -0.0156 -1.3103 -0.8779
 1020MOL0     H40740   2.107   9.937   9.703 -3.1602  1.4834 -1.0761
 1020MOL0     H40741   2.204   9.866   9.908  0.1320  0.3913 -4.1401
 1020MOL0     H40742   2.172   9.893  10.412  1.3076 -1.4031  1.4207
 1020MOL0     H40743   2.235   9.970  10.624 -3.5852  0.7428 -0.8421
 1020MOL0     H40744   2.152   9.088  10.616  0.9341  0.5443 -0.1857
 1020MOL0     H40745   2.370   9.022  10.607  0.6590 -1.3810  1.1062
 1020MOL0     H40746   2.790   9.257  10.832  0.4708  1.0047  2.5703
 1020MOL0     H40747   3.045   9.267  10.811  1.4007 -0.9316 -0.8830
 1020MOL0     H40748   3.385   8.973  10.793 -0.2543  0.4330 -1.1059
 1020MOL0     H40749   3.247   8.858  10.819  1.0737 -0.2385  2.5163
 1020MOL0     H40750   3.131   8.996  10.625 -0.8889 -1.5021  0.3262
 1020MOL0     H40751   3.226   8.860  10.595 -0.4871  0.2608 -0.2153
 1020MOL0     H40752   3.324   9.156  10.597  2.4899  1.1291 -1.0614
 1020MOL0     H40753   3.419   9.011  10.546 -2.3459 -2.8227  1.5691
 1020MOL0     H40754   3.167   9.108  10.402  0.1329  0.4348 -1.1282
 1020MOL0     H40755   3.283   9.003  10.335 -0.0105 -0.2629 -0.9981
 1020MOL0     H40756   3.401   9.411  10.312  3.5375 -1.6923 -1.7783
 1020MOL0     H40757   3.052   8.860  10.920 -2.3342 -0.2256  1.5148
 1020MOL0     H40758   2.767   8.755  10.832  1.2659 -1.4151  1.0199
 1020MOL0     H40759   2.870   8.720  10.973 -0.0392  0.7076  2.9362
 1020MOL0     H40760   2.716   8.790  10.998  0.6907 -3.4238  0.0571
 1021MOL0     O40761   3.885   1.084   6.650 -0.0039 -0.0670  0.4668
 1021MOL0     C40762   4.010   1.073   6.629 -0.2051 -0.6213 -1.0247
 1021MOL0     O40763   4.072   0.981   6.551 -0.2538  0.7751  0.3743
 1021MOL0     C40764   4.017   0.901   6.451 -0.3611 -1.0116  0.2854
 1021MOL0     C40765   3.886   0.917   6.393 -0.3212  1.1175  1.3362
 1021MOL0     C40766   3.843   0.817   6.299 -1.1897 -0.3993  0.2718
 1021MOL0     C40767   3.931   0.719   6.255 -0.5197 -0.2957  0.1439
 1021MOL0     O40768   3.906   0.626   6.161 -0.4126  1.2197 -0.2826
 1021MOL0     C40769   3.806   0.641   6.055 -0.0784 -0.0795 -0.9669
 1021MOL0     C40770   3.863   0.719   5.937  0.1689  0.4503  0.4898
 1021MOL0     C40771   3.773   0.713   5.810  0.7723  0.1010 -0.1544
 1021MOL0     C40772   3.814   0.786   5.685  0.9227  0.2440 -0.1433
 1021MOL0     C40773   3.695   0.872   5.631  0.3213 -0.5953 -0.7369
 1021MOL0     C40774   3.598   0.780   5.558  0.1524  0.4234 -0.4999
 1021MOL0     C40775   3.465   0.853   5.527 -0.0981 -0.0264  0.4894
 1021MOL0     C40776   3.378   0.747   5.453  0.0705  0.9515  0.3390
 1021MOL0     N40777   3.272   0.675   5.528  0.1222  0.6232  1.3885
 1021MOL0     C40778   3.256   0.530   5.520 -0.7192  0.0469  0.0486
 1021MOL0     C40779   3.147   0.511   5.590 -0.6202 -0.2201 -0.5038
 1021MOL0     C40780   3.100   0.363   5.617  0.5994 -0.1058 -0.4951
 1021MOL0     C40781   3.016   0.311   5.497  0.2850  0.7220 -0.1689
 1021MOL0     C40782   2.967   0.167   5.527 -1.0661 -0.9370 -0.2631
 1021MOL0     C40783   2.945   0.081   5.406 -0.6729 -0.5403 -0.1905
 1021MOL0     O40784   2.879  -0.038   5.448  0.4435 -0.3171 -0.7485
 1021MOL0     C40785   2.944  -0.144   5.493  0.7081 -0.0309 -0.1087
 1021MOL0     C40786   2.869  -0.249   5.543  0.8933 -0.4726  0.5482
 1021MOL0     C40787   2.926  -0.359   5.616 -0.0535 -0.0245  1.8039
 1021MOL0     C40788   2.828  -0.439   5.689  0.7204  0.0296  0.2466
 1021MOL0     C40789   3.066  -0.373   5.624 -0.7165  0.2276 -0.1415
 1021MOL0     C40790   3.145  -0.467   5.709 -0.6478 -0.1293  0.5714
 1021MOL0     O40791   3.287  -0.478   5.677 -0.0340 -0.5136  0.0746
 1021MOL0     C40792   3.354  -0.570   5.743  0.3753 -0.0882  0.0464
 1021MOL0     C40793   3.319  -0.706   5.719  0.7006  0.2049  0.7346
 1021MOL0     C40794   3.406  -0.807   5.767 -0.1082  0.4313  0.8800
 1021MOL0     C40795   3.502  -0.783   5.863  0.8883  0.2967  0.9746
 1021MOL0     O40796   3.559  -0.890   5.924 -0.4937 -0.2590  0.0571
 1021MOL0     C40797   3.563  -1.026   5.866 -0.1745 -0.4153  0.8196
 1021MOL0     C40798   3.597  -1.129   5.965  1.0417  0.6366 -0.1120
 1021MOL0     C40799   3.745  -1.130   6.017 -0.5189 -0.3915 -1.3973
 1021MOL0     C40800   3.768  -1.258   6.117  0.3916 -0.2399  0.1056
 1021MOL0     C40801   3.906  -1.272   6.166  0.5959  0.0602  0.2915
 1021MOL0     C40802   3.943  -1.379   6.263 -0.0501  0.5661  0.0525
 1021MOL0     C40803   4.101  -1.394   6.274  0.2925 -0.3848  0.8870
 1021MOL0     C40804   4.140  -1.529   6.352 -0.1442  0.6267  0.7462
 1021MOL0    Cl40805   4.117  -1.507   6.535 -0.4567 -0.3733 -0.0867
 1021MOL0     C40806   3.524  -0.647   5.899 -0.4742 -0.0241  0.1949
 1021MOL0     C40807   3.459  -0.539   5.837  0.0985  0.9452 -0.0589
 1021MOL0     O40808   3.091  -0.525   5.801 -0.2732 -0.7614 -1.1925
 1021MOL0     C40809   3.144  -0.279   5.557 -0.5123  0.2987  0.1484
 1021MOL0     C40810   3.084  -0.170   5.489 -0.7527  0.0243  1.1236
 1021MOL0     N40811   3.098   0.629   5.639  0.8716 -0.4185 -1.2879
 1021MOL0     N40812   3.162   0.729   5.591  0.0286  0.3263  0.0206
 1021MOL0     C40813   4.069   0.718   6.291 -0.6514 -0.0336  0.7810
 1021MOL0     C40814   4.106   0.811   6.388  0.1653  0.2338  0.4571
 1021MOL0     C40815   4.095   1.170   6.696 -1.0382  0.3419  0.0691
 1021MOL0     C40816   4.233   1.139   6.713  0.5881  0.9995 -0.5049
 1021MOL0     C40817   4.324   1.228   6.770  0.9507 -0.4528 -0.6338
 1021MOL0     C40818   4.279   1.356   6.819 -0.7514 -0.4987  0.4596
 1021MOL0     O40819   4.350   1.465   6.858 -0.6560 -0.8774  0.1960
 1021MOL0     C40820   4.437   1.511   6.748  0.7029  0.4889 -0.2623
 1021MOL0     C40821   4.521   1.626   6.801  0.6762  0.4957 -0.0796
 1021MOL0     C40822   4.653   1.592   6.870 -0.5893  0.0893 -0.2497
 1021MOL0     C40823   4.708   1.707   6.955 -0.2645  0.1461 -1.0503
 1021MOL0     C40824   4.621   1.764   7.068  0.4481 -0.5591 -0.7339
 1021MOL0     C40825   4.533   1.794   7.155  0.6282 -0.9774  0.2824
 1021MOL0     C40826   4.147   1.390   6.785  0.0083 -0.9865 -1.3237
 1021MOL0     C40827   4.055   1.306   6.734 -0.4158  0.8154  0.0667
 1021MOL0     C40828   3.921   1.358   6.714  0.8977  0.0250 -0.5531
 1021MOL0     H40829   3.837   1.014   6.396 -0.8969  1.0790 -2.1181
 1021MOL0     H40830   3.748   0.836   6.249 -0.4204  2.5173 -0.2442
 1021MOL0     H40831   3.717   0.685   6.101  1.4936  2.7631 -0.3381
 1021MOL0     H40832   3.781   0.543   6.014  0.3496 -0.5158 -0.2172
 1021MOL0     H40833   3.885   0.817   5.979 -1.7546  1.1603 -0.0591
 1021MOL0     H40834   3.953   0.663   5.910 -0.8784 -1.1966  0.2318
 1021MOL0     H40835   3.759   0.607   5.786 -2.7616  0.8773 -2.3512
 1021MOL0     H40836   3.673   0.751   5.833  0.9739 -0.1259  1.1342
 1021MOL0     H40837   3.889   0.861   5.713 -0.5179  1.4858  0.5686
 1021MOL0     H40838   3.851   0.716   5.610 -5.9345 -1.2343 -2.8559
 1021MOL0     H40839   3.740   0.946   5.564  0.2975 -0.8731 -1.0621
 1021MOL0     H40840   3.663   0.925   5.721 -0.1546  1.3713 -2.0074
 1021MOL0     H40841   3.642   0.740   5.467  1.5051  0.0308  0.3017
 1021MOL0     H40842   3.580   0.694   5.624 -1.5853  1.5439  0.5741
 1021MOL0     H40843   3.485   0.928   5.450  1.7371 -1.6353 -0.7105
 1021MOL0     H40844   3.425   0.891   5.621 -0.8286 -0.6127  0.4219
 1021MOL0     H40845   3.327   0.795   5.369 -0.1485 -1.0248 -0.7344
 1021MOL0     H40846   3.444   0.672   5.408 -1.3976 -0.7171  0.8634
 1021MOL0     H40847   3.335   0.462   5.491 -0.4027 -0.7278  2.4996
 1021MOL0     H40848   3.042   0.356   5.709  2.1788 -2.1083  0.4246
 1021MOL0     H40849   3.194   0.308   5.630  1.5111  1.1628 -1.4194
 1021MOL0     H40850   2.924   0.369   5.495  0.3523  0.7993 -1.9062
 1021MOL0     H40851   3.067   0.317   5.400 -0.6073  0.7530 -0.6380
 1021MOL0     H40852   3.041   0.109   5.583  1.6248 -0.9586 -3.5217
 1021MOL0     H40853   2.879   0.173   5.592 -0.1395  1.7721  0.8864
 1021MOL0     H40854   2.893   0.143   5.333  0.2189 -0.2546 -0.6009
 1021MOL0     H40855   3.045   0.057   5.367 -0.7039 -1.1644  0.0957
 1021MOL0     H40856   2.761  -0.238   5.547  0.9097 -0.3092  0.5545
 1021MOL0     H40857   2.825  -0.545   5.660  1.7688  0.2150 -0.5757
 1021MOL0     H40858   2.727  -0.406   5.663  0.6932  0.7204  1.1967
 1021MOL0     H40859   2.863  -0.431   5.792  2.4218 -2.2180 -0.0780
 1021MOL0     H40860   3.229  -0.732   5.665  0.5606 -1.7690  1.8210
 1021MOL0     H40861   3.391  -0.904   5.720  0.0850  0.8083  0.0265
 1021MOL0     H40862   3.466  -1.053   5.823 -2.4377  1.2923  4.3469
 1021MOL0     H40863   3.638  -1.024   5.786 -0.9699  0.4114  0.0690
 1021MOL0     H40864   3.526  -1.119   6.047  0.5835  4.5881 -0.7720
 1021MOL0     H40865   3.579  -1.226   5.917 -0.3668 -0.1520  1.8731
 1021MOL0     H40866   3.770  -1.036   6.067  3.7578 -0.9283 -2.1699
 1021MOL0     H40867   3.824  -1.136   5.943  0.6374 -0.0796 -0.2317
 1021MOL0     H40868   3.743  -1.349   6.061 -2.8690  0.3874  0.2985
 1021MOL0     H40869   3.696  -1.260   6.200  4.2018 -1.7709  3.7118
 1021MOL0     H40870   3.964  -1.289   6.075  0.6642 -1.6449  0.6180
 1021MOL0     H40871   3.929  -1.181   6.223  1.0262  2.5587 -3.5169
 1021MOL0     H40872   3.897  -1.477   6.245 -1.6633  0.7765  2.5361
 1021MOL0     H40873   3.905  -1.343   6.359  2.4620  0.8635  1.0171
 1021MOL0     H40874   4.141  -1.305   6.324  0.0232  2.1978 -2.9942
 1021MOL0     H40875   4.143  -1.388   6.173 -0.1368 -6.0323  0.0315
 1021MOL0     H40876   4.248  -1.540   6.342 -0.1414  2.1224 -1.5046
 1021MOL0     H40877   4.089  -1.615   6.308  1.9860 -0.3515  0.0500
 1021MOL0     H40878   3.595  -0.644   5.981 -0.8739 -0.5016  0.5666
 1021MOL0     H40879   3.493  -0.442   5.871  0.2376 -0.7525  5.7761
 1021MOL0     H40880   3.252  -0.275   5.570 -0.6605  2.8034  1.0544
 1021MOL0     H40881   3.153  -0.095   5.451  2.9741 -3.2597  0.6866
 1021MOL0     H40882   4.139   0.653   6.239  1.9284  1.6774  1.9054
 1021MOL0     H40883   4.211   0.803   6.417  0.7252 -1.3603 -1.7155
 1021MOL0     H40884   4.271   1.046   6.674  2.4127  1.6354 -0.3086
 1021MOL0     H40885   4.425   1.191   6.778  1.6231  1.5064  0.9151
 1021MOL0     H40886   4.503   1.424   6.737 -1.3537 -1.6846  2.8428
 1021MOL0     H40887   4.372   1.532   6.664  0.4208  1.8054  0.2676
 1021MOL0     H40888   4.451   1.679   6.866 -3.0638 -0.4793 -2.9511
 1021MOL0     H40889   4.546   1.686   6.713 -0.3138  0.1431 -0.6118
 1021MOL0     H40890   4.641   1.504   6.933 -3.4279 -1.0076 -2.1111
 1021MOL0     H40891   4.723   1.570   6.788  0.7803 -2.4422  1.4700
 1021MOL0     H40892   4.740   1.789   6.891 -0.5563 -0.9145 -2.6006
 1021MOL0     H40893   4.803   1.679   7.003  0.2729  1.3615 -1.3581
 1021MOL0     H40894   4.457   1.808   7.229 -0.1201  1.6687 -0.8754
 1021MOL0     H40895   4.107   1.488   6.811  1.5836 -0.5471 -0.4243
 1021MOL0     H40896   3.902   1.454   6.763 -2.4890 -0.2353 -1.0814
 1021MOL0     H40897   3.891   1.364   6.609 -1.5089  0.7664  0.1096
 1021MOL0     H40898   3.871   1.285   6.778  4.1261  2.1374  5.1404
 1022MOL0     O40899   2.385   8.028   6.612  0.1057 -0.1365  0.1209
 1022MOL0     C40900   2.301   7.994   6.522 -0.6014 -0.4855  0.0401
 1022MOL0     O40901   2.170   7.967   6.552 -0.6629 -0.4805 -0.5869
 1022MOL0     C40902   2.119   8.005   6.676  0.0240  0.3614  0.1834
 1022MOL0     C40903   2.174   7.954   6.796 -0.5375  0.7002  0.0429
 1022MOL0     C40904   2.117   7.979   6.923 -0.1641 -0.3089  0.3641
 1022MOL0     C40905   2.024   8.083   6.934  0.6944  0.0464 -0.2037
 1022MOL0     O40906   1.987   8.117   7.058 -0.7429 -0.0868 -0.2762
 1022MOL0     C40907   1.963   8.255   7.094  0.8112 -0.2760  1.4267
 1022MOL0     C40908   1.929   8.288   7.243  0.4540  0.2443 -1.2033
 1022MOL0     C40909   1.841   8.419   7.265  0.4833  0.2603 -0.0996
 1022MOL0     C40910   1.812   8.435   7.420  0.1477 -0.3976  0.7448
 1022MOL0     C40911   1.746   8.574   7.455 -0.0574 -0.5213 -0.2321
 1022MOL0     C40912   1.620   8.614   7.383 -0.7227  0.4821  0.0515
 1022MOL0     C40913   1.487   8.537   7.423 -0.1740  0.9099 -0.2218
 1022MOL0     C40914   1.423   8.595   7.552 -0.0921  0.9846  0.1502
 1022MOL0     N40915   1.502   8.565   7.676  0.6766 -0.8475  0.5254
 1022MOL0     C40916   1.520   8.661   7.774  0.3914  0.1220  0.0351
 1022MOL0     C40917   1.591   8.600   7.865 -0.5764  0.5925 -0.8598
 1022MOL0     C40918   1.635   8.663   7.986 -0.0647  0.2362 -1.3807
 1022MOL0     C40919   1.531   8.728   8.062 -0.2259  0.3806 -0.1174
 1022MOL0     C40920   1.541   8.700   8.203  1.1350  0.3405  0.9119
 1022MOL0     C40921   1.472   8.563   8.234  0.2830 -0.8224 -0.6775
 1022MOL0     O40922   1.332   8.586   8.199  0.0405  0.0988  0.8998
 1022MOL0     C40923   1.252   8.484   8.136  0.5293 -0.2844 -1.3818
 1022MOL0     C40924   1.118   8.490   8.165 -0.0903  0.5085  0.0844
 1022MOL0     C40925   1.025   8.406   8.098 -1.2850  0.3022  0.6069
 1022MOL0     C40926   0.883   8.395   8.132 -0.4169 -0.6553 -0.1048
 1022MOL0     C40927   1.086   8.311   8.007 -0.0753  0.1885  0.7932
 1022MOL0     C40928   1.013   8.216   7.930 -1.0501  0.5466 -0.0150
 1022MOL0     O40929   0.928   8.248   7.836  0.0029 -0.1128  0.2438
 1022MOL0     C40930   0.880   8.170   7.730  0.2916  0.7523 -0.4999
 1022MOL0     C40931   0.866   8.026   7.745  0.6689 -0.1325 -0.6747
 1022MOL0     C40932   0.803   7.945   7.647 -0.5723 -0.9177  0.3041
 1022MOL0     C40933   0.760   8.016   7.527 -0.2784  0.4118 -0.5370
 1022MOL0     O40934   0.691   7.962   7.426 -0.6864 -0.2261  0.8499
 1022MOL0     C40935   0.757   7.850   7.376  1.1216 -1.1476  0.6490
 1022MOL0     C40936   0.748   7.864   7.217  0.1783  0.0387 -0.7217
 1022MOL0     C40937   0.822   7.736   7.141  0.2165 -0.3209 -0.5434
 1022MOL0     C40938   0.768   7.713   7.005  0.8090 -0.1466  0.5727
 1022MOL0     C40939   0.850   7.609   6.926 -0.5913  0.4724  1.0397
 1022MOL0     C40940   0.979   7.666   6.864 -0.4825 -0.3237 -0.4925
 1022MOL0     C40941   1.061   7.554   6.816  0.0935  0.6843 -0.1849
 1022MOL0     C40942   1.193   7.585   6.756  0.5152  0.0928 -1.1804
 1022MOL0    Cl40943   1.205   7.684   6.610  0.2182 -0.3867 -0.2529
 1022MOL0     C40944   0.788   8.151   7.511  0.4242  0.9823  0.7713
 1022MOL0     C40945   0.833   8.226   7.615  0.2217 -0.4538 -1.0433
 1022MOL0     O40946   1.039   8.103   7.974 -0.3075 -0.2047  0.4545
 1022MOL0     C40947   1.228   8.294   7.982  1.5433  0.5909  0.4519
 1022MOL0     C40948   1.308   8.389   8.047  0.6427  0.4211  0.2718
 1022MOL0     N40949   1.600   8.461   7.832 -0.0985  0.6072  0.1874
 1022MOL0     N40950   1.551   8.450   7.721 -0.1408  0.0993 -0.0875
 1022MOL0     C40951   1.973   8.143   6.816  0.0887 -0.3517 -0.2137
 1022MOL0     C40952   2.010   8.091   6.690 -0.1345 -0.7144  0.6129
 1022MOL0     C40953   2.348   7.966   6.384 -0.3801 -0.0988  0.6607
 1022MOL0     C40954   2.272   7.869   6.307 -0.2875  0.0050  0.2804
 1022MOL0     C40955   2.311   7.821   6.178  0.0637 -0.2921 -0.0658
 1022MOL0     C40956   2.419   7.882   6.112 -0.0762 -0.1356 -0.3101
 1022MOL0     O40957   2.447   7.844   5.991 -0.3497 -0.1243  0.1855
 1022MOL0     C40958   2.584   7.852   5.960  0.7611  0.0711  0.3883
 1022MOL0     C40959   2.606   7.739   5.856  0.2826 -0.1757  0.2233
 1022MOL0     C40960   2.654   7.605   5.910  0.6828  0.2265  0.6387
 1022MOL0     C40961   2.802   7.617   5.956 -0.0831 -0.8516  0.7082
 1022MOL0     C40962   2.840   7.514   6.049 -0.1669  0.3305 -0.8098
 1022MOL0     C40963   2.879   7.420   6.115  1.0065  0.8468 -0.2021
 1022MOL0     C40964   2.487   7.986   6.179 -0.5344 -0.5866  0.3408
 1022MOL0     C40965   2.464   8.017   6.310 -1.3415  0.2878 -0.2966
 1022MOL0     C40966   2.539   8.141   6.361  1.0601 -0.2512 -0.1393
 1022MOL0     H40967   2.256   7.885   6.786 -2.4237 -1.5019 -1.3140
 1022MOL0     H40968   2.155   7.934   7.014 -0.2923 -0.7422  0.2057
 1022MOL0     H40969   1.886   8.298   7.029  1.5364 -1.0084  0.0555
 1022MOL0     H40970   2.050   8.315   7.066  1.4417 -1.7132  0.1786
 1022MOL0     H40971   1.867   8.209   7.285 -0.3092  1.9263  1.0004
 1022MOL0     H40972   2.011   8.289   7.316  0.3136 -2.9904 -0.8764
 1022MOL0     H40973   1.893   8.510   7.232 -0.9714  1.0843 -0.2060
 1022MOL0     H40974   1.751   8.409   7.204  1.5389 -0.5276 -1.6026
 1022MOL0     H40975   1.753   8.347   7.447 -0.4550  0.2948  1.7075
 1022MOL0     H40976   1.909   8.417   7.468  0.9469 -3.7423 -1.7249
 1022MOL0     H40977   1.824   8.644   7.424 -0.8782  2.0438  2.9477
 1022MOL0     H40978   1.732   8.585   7.562  3.0377 -3.5772  0.6789
 1022MOL0     H40979   1.611   8.719   7.411  2.6721  0.2560  2.6430
 1022MOL0     H40980   1.654   8.609   7.280 -1.4510 -3.5016 -0.1662
 1022MOL0     H40981   1.499   8.429   7.428 -3.4783  0.4817  0.9107
 1022MOL0     H40982   1.419   8.555   7.339  1.3674  1.4393 -1.4016
 1022MOL0     H40983   1.394   8.699   7.538  0.2330  0.9321 -0.9604
 1022MOL0     H40984   1.328   8.546   7.576 -0.2059  1.1443  0.0169
 1022MOL0     H40985   1.494   8.766   7.780  5.1364  1.5584 -0.4788
 1022MOL0     H40986   1.708   8.733   7.944 -0.0245  1.2365  0.2751
 1022MOL0     H40987   1.681   8.591   8.055  3.7312  2.9038 -0.7942
 1022MOL0     H40988   1.545   8.835   8.044  1.5180  0.6145  2.2423
 1022MOL0     H40989   1.434   8.691   8.027 -0.1046  0.4876 -0.5783
 1022MOL0     H40990   1.647   8.705   8.229  1.0458  0.3593  1.2732
 1022MOL0     H40991   1.495   8.778   8.264 -0.4859  0.4734 -0.3998
 1022MOL0     H40992   1.508   8.470   8.188  0.0655 -0.6082 -1.2920
 1022MOL0     H40993   1.472   8.545   8.342  1.4348  3.7658  0.3021
 1022MOL0     H40994   1.070   8.564   8.228 -5.4524 -1.7578 -0.7796
 1022MOL0     H40995   0.825   8.357   8.047 -2.4068 -1.7522  1.6469
 1022MOL0     H40996   0.842   8.493   8.158 -0.7807 -0.5881 -0.9081
 1022MOL0     H40997   0.870   8.331   8.220  1.0351  0.5757  1.0609
 1022MOL0     H40998   0.897   7.980   7.838  0.8608  1.5853  0.1434
 1022MOL0     H40999   0.805   7.836   7.650 -2.9759 -1.0082  1.1985
 1022MOL0     H41000   0.865   7.849   7.395  1.2229  0.8238  0.4596
 1022MOL0     H41001   0.705   7.762   7.414 -3.9904  1.2490  0.0213
 1022MOL0     H41002   0.644   7.867   7.185 -0.0944 -0.7588  0.0826
 1022MOL0     H41003   0.809   7.948   7.180 -1.4135  1.5581 -0.0511
 1022MOL0     H41004   0.824   7.648   7.206  2.2576  1.1931  1.6141
 1022MOL0     H41005   0.928   7.763   7.144 -0.1545  1.0904  0.7744
 1022MOL0     H41006   0.755   7.806   6.950 -1.1112 -0.6362  0.1267
 1022MOL0     H41007   0.670   7.666   7.018  0.5991 -1.0245 -3.0634
 1022MOL0     H41008   0.873   7.527   6.993  1.9210  0.7033  0.5642
 1022MOL0     H41009   0.794   7.568   6.841 -1.2951 -2.3271  2.7349
 1022MOL0     H41010   1.040   7.721   6.937 -1.8765 -3.4254  3.4184
 1022MOL0     H41011   0.954   7.733   6.781 -2.4055  2.1275  1.8591
 1022MOL0     H41012   1.005   7.491   6.747  3.2537 -3.2438  0.4978
 1022MOL0     H41013   1.099   7.497   6.901  1.1383  0.7202 -0.6107
 1022MOL0     H41014   1.263   7.504   6.735 -0.2451 -0.9357  0.1404
 1022MOL0     H41015   1.246   7.642   6.833  2.4055 -3.4445  0.3392
 1022MOL0     H41016   0.741   8.187   7.420 -2.2241  0.4388  1.8567
 1022MOL0     H41017   0.835   8.334   7.616 -1.8538 -0.3889 -1.5893
 1022MOL0     H41018   1.266   8.229   7.904 -1.4262  2.3244 -2.6523
 1022MOL0     H41019   1.414   8.391   8.023  0.8157  3.7935  0.8607
 1022MOL0     H41020   1.895   8.217   6.830  1.5764  1.0116  1.5052
 1022MOL0     H41021   1.961   8.122   6.598  0.9711  2.3702  0.9585
 1022MOL0     H41022   2.187   7.832   6.363 -2.4173  2.1986 -1.2686
 1022MOL0     H41023   2.244   7.754   6.126 -0.7392  1.2838 -1.1340
 1022MOL0     H41024   2.601   7.946   5.907  1.0208 -0.1941 -0.0031
 1022MOL0     H41025   2.653   7.842   6.044 -0.9270 -2.0667  1.6327
 1022MOL0     H41026   2.676   7.780   5.783 -0.1903 -1.4026 -0.9524
 1022MOL0     H41027   2.510   7.737   5.804  0.3997  0.9526 -0.0521
 1022MOL0     H41028   2.599   7.596   6.004  1.1309  2.0690  1.1229
 1022MOL0     H41029   2.652   7.523   5.839 -0.6327  0.6456  0.1607
 1022MOL0     H41030   2.817   7.719   5.995  1.2850 -0.3483 -1.0186
 1022MOL0     H41031   2.864   7.604   5.867 -1.3279  3.3344 -1.0295
 1022MOL0     H41032   2.906   7.326   6.159 -2.1761  1.0533  2.5698
 1022MOL0     H41033   2.571   8.027   6.125 -0.6333 -1.7358 -0.7414
 1022MOL0     H41034   2.506   8.173   6.460 -0.2235 -2.3557  0.1763
 1022MOL0     H41035   2.643   8.108   6.368  1.2986  0.4164 -0.4709
 1022MOL0     H41036   2.537   8.219   6.284 -3.5883 -0.6805 -0.7482
 1023MOL0     O41037   7.459   8.045   9.951 -0.1087  0.5441  0.4313
 1023MOL0     C41038   7.485   7.965  10.040 -0.7367  0.1010 -0.8877
 1023MOL0     O41039   7.396   7.872  10.087 -0.4655  1.0850  0.4102
 1023MOL0     C41040   7.261   7.883  10.075 -0.4954  0.0355  0.9521
 1023MOL0     C41041   7.200   7.869   9.946 -0.0931  0.0875  0.2522
 1023MOL0     C41042   7.067   7.898   9.930 -0.3709  0.3543  0.1924
 1023MOL0     C41043   7.000   7.935  10.042 -0.3299  0.3043  0.8621
 1023MOL0     O41044   6.866   7.975  10.036 -0.8471  0.6141  0.6854
 1023MOL0     C41045   6.841   8.095   9.965  0.7099 -0.8413 -0.8330
 1023MOL0     C41046   6.710   8.156  10.016 -0.3606  0.3229  0.2266
 1023MOL0     C41047   6.589   8.079   9.977 -0.3890  0.3481 -0.4763
 1023MOL0     C41048   6.492   8.154   9.896  0.0050 -0.9219  0.2103
 1023MOL0     C41049   6.373   8.070   9.842  0.8317 -0.2515 -0.1830
 1023MOL0     C41050   6.303   8.151   9.734 -0.3133 -0.1116  0.0561
 1023MOL0     C41051   6.181   8.067   9.690 -0.1915  0.7542  0.7370
 1023MOL0     C41052   6.076   8.162   9.644 -0.1391  0.0513 -0.2562
 1023MOL0     N41053   6.110   8.210   9.511  0.7387 -0.0509 -0.1935
 1023MOL0     C41054   6.119   8.135   9.395 -0.3348 -0.4804 -0.8770
 1023MOL0     C41055   6.204   8.209   9.324  0.2751 -0.2463 -0.1883
 1023MOL0     C41056   6.231   8.159   9.182  0.8794  0.2020 -0.5467
 1023MOL0     C41057   6.372   8.114   9.176  0.2516  0.1008  0.6066
 1023MOL0     C41058   6.396   8.010   9.058  0.5835 -0.3670  0.1874
 1023MOL0     C41059   6.537   8.005   9.004  0.6322  0.4414 -0.3841
 1023MOL0     O41060   6.620   7.963   9.110  0.1669  0.3258  0.4419
 1023MOL0     C41061   6.751   7.957   9.072  0.1716 -0.9186 -0.2404
 1023MOL0     C41062   6.837   7.903   9.167 -0.1009  0.0545  0.0019
 1023MOL0     C41063   6.977   7.886   9.142 -0.7042  0.1545 -0.7669
 1023MOL0     C41064   7.062   7.818   9.247  0.9617 -0.0182  0.0952
 1023MOL0     C41065   7.037   7.933   9.016  0.8150  0.0545  0.2676
 1023MOL0     C41066   7.182   7.942   8.976 -0.6880  0.1559  0.7103
 1023MOL0     O41067   7.209   8.053   8.894  0.4967  0.4185  0.5784
 1023MOL0     C41068   7.336   8.090   8.854 -0.2488 -0.6497  1.0207
 1023MOL0     C41069   7.346   8.184   8.742  0.9494  0.9438  0.0106
 1023MOL0     C41070   7.467   8.217   8.689  0.0235 -0.6051 -0.4183
 1023MOL0     C41071   7.582   8.169   8.744 -0.8257 -0.1838  0.3862
 1023MOL0     O41072   7.699   8.212   8.695 -0.1127 -0.3222 -0.2340
 1023MOL0     C41073   7.767   8.323   8.761  0.4391 -0.6075 -1.0768
 1023MOL0     C41074   7.902   8.278   8.818  0.6062 -0.7155  0.1051
 1023MOL0     C41075   7.989   8.399   8.853  0.6147  0.3022 -1.3200
 1023MOL0     C41076   8.108   8.355   8.935 -0.6412  0.4074 -0.6174
 1023MOL0     C41077   8.219   8.280   8.847  0.9162 -0.5456  0.7493
 1023MOL0     C41078   8.343   8.249   8.925  0.5714 -0.1821  0.8009
 1023MOL0     C41079   8.442   8.158   8.846 -0.2271  0.5180  0.3199
 1023MOL0     C41080   8.399   8.001   8.848 -0.7875  0.2295  0.3432
 1023MOL0    Cl41081   8.447   7.922   9.006 -0.4192 -0.3163 -0.1716
 1023MOL0     C41082   7.579   8.090   8.855  0.5795 -0.5859  0.1710
 1023MOL0     C41083   7.453   8.049   8.904 -0.6693 -0.5369 -0.4635
 1023MOL0     O41084   7.255   7.858   9.021  0.0849  0.0758  0.0420
 1023MOL0     C41085   6.946   7.994   8.922 -0.4247  0.0374 -0.4201
 1023MOL0     C41086   6.812   7.991   8.950  1.1089 -0.4795 -0.0434
 1023MOL0     N41087   6.243   8.328   9.380 -0.2692 -0.3179  1.5661
 1023MOL0     N41088   6.185   8.319   9.492  0.6034 -0.3747  0.2363
 1023MOL0     C41089   7.049   7.916  10.173  0.4398 -0.4465  1.3302
 1023MOL0     C41090   7.189   7.895  10.184  0.0927  0.4057 -0.6684
 1023MOL0     C41091   7.617   7.916  10.066 -0.0692 -1.5819 -0.6138
 1023MOL0     C41092   7.642   7.807  10.147  0.1409 -0.8405  1.5196
 1023MOL0     C41093   7.770   7.760  10.162 -0.6665 -0.2065 -0.0391
 1023MOL0     C41094   7.878   7.815  10.105  0.1599  0.2013  1.2557
 1023MOL0     O41095   7.999   7.750  10.123  0.2294 -0.8965 -0.1267
 1023MOL0     C41096   8.120   7.812  10.096 -0.6427  0.3191  0.3002
 1023MOL0     C41097   8.245   7.726  10.101  0.0746  0.0827  0.1524
 1023MOL0     C41098   8.255   7.641  10.239  0.3961  0.1777  0.2182
 1023MOL0     C41099   8.289   7.729  10.366  0.5946  0.5486 -0.8034
 1023MOL0     C41100   8.425   7.764  10.355 -0.4244 -0.0809 -0.5626
 1023MOL0     C41101   8.543   7.798  10.358 -0.1744  0.0451 -0.3686
 1023MOL0     C41102   7.861   7.931  10.038 -0.2839 -0.7244  0.4774
 1023MOL0     C41103   7.730   7.982  10.007 -0.0634  0.2467 -0.9577
 1023MOL0     C41104   7.725   8.107   9.922  0.0758  0.1565 -0.4359
 1023MOL0     H41105   7.263   7.858   9.858  0.3583 -0.3533  0.6220
 1023MOL0     H41106   7.011   7.894   9.838 -2.0676  0.4577  1.1789
 1023MOL0     H41107   6.817   8.079   9.860 -2.3172  1.0624 -0.5625
 1023MOL0     H41108   6.921   8.164   9.992 -1.6530  1.0475  1.9704
 1023MOL0     H41109   6.717   8.159  10.125 -0.6421 -1.0339  0.3041
 1023MOL0     H41110   6.687   8.252   9.969 -2.2564 -2.2579 -4.9183
 1023MOL0     H41111   6.614   7.986   9.925  1.1720  2.2203 -3.3502
 1023MOL0     H41112   6.531   8.047  10.064  0.0043 -6.1672 -2.1319
 1023MOL0     H41113   6.461   8.244   9.948  2.6520  0.9954 -1.3060
 1023MOL0     H41114   6.547   8.184   9.806 -0.7030  0.7580  0.3092
 1023MOL0     H41115   6.300   8.059   9.923 -1.6641  1.3346 -2.0783
 1023MOL0     H41116   6.403   7.966   9.831  0.7071 -0.2340 -0.7031
 1023MOL0     H41117   6.277   8.250   9.773 -0.1595 -0.1389  0.2279
 1023MOL0     H41118   6.369   8.165   9.648 -0.2452  2.1060  0.4067
 1023MOL0     H41119   6.136   8.007   9.769 -1.7565 -1.6395 -1.7814
 1023MOL0     H41120   6.203   8.001   9.606  0.2684 -0.9273  2.1276
 1023MOL0     H41121   5.977   8.119   9.624  0.4030 -0.2654 -2.4463
 1023MOL0     H41122   6.057   8.251   9.705 -0.3372 -0.7209  0.8538
 1023MOL0     H41123   6.082   8.037   9.368 -0.1558 -0.4874 -1.0976
 1023MOL0     H41124   6.222   8.245   9.115 -2.5908  0.9372  0.6959
 1023MOL0     H41125   6.155   8.093   9.139 -2.4375  3.7688 -0.7027
 1023MOL0     H41126   6.442   8.197   9.162 -0.5051  1.1776  2.7907
 1023MOL0     H41127   6.399   8.059   9.266 -1.0407 -1.1073  0.2960
 1023MOL0     H41128   6.370   7.914   9.102  0.5352 -0.3075  0.2893
 1023MOL0     H41129   6.328   8.046   8.980 -0.6130  3.2144  2.5976
 1023MOL0     H41130   6.545   7.936   8.920  3.0675 -0.4228  0.4475
 1023MOL0     H41131   6.558   8.108   8.974 -1.7629  2.1738  3.1809
 1023MOL0     H41132   6.782   7.872   9.254 -1.0157  1.8652  0.1214
 1023MOL0     H41133   7.111   7.726   9.213  3.5116  0.2547  2.6367
 1023MOL0     H41134   7.003   7.785   9.333 -1.7253  2.0004 -0.8398
 1023MOL0     H41135   7.140   7.890   9.275  1.1170 -0.4028  0.6692
 1023MOL0     H41136   7.251   8.220   8.706  0.1029 -1.7102 -0.6469
 1023MOL0     H41137   7.481   8.288   8.608  3.0241  0.8913  1.2595
 1023MOL0     H41138   7.789   8.409   8.698 -1.5027  2.1926  1.7365
 1023MOL0     H41139   7.708   8.362   8.845 -0.0250 -1.0054 -1.2164
 1023MOL0     H41140   7.879   8.209   8.899 -3.1659 -0.5847 -0.6946
 1023MOL0     H41141   7.954   8.223   8.739 -2.0306 -0.3367 -2.0274
 1023MOL0     H41142   7.930   8.476   8.903  1.1465 -2.0702  3.5668
 1023MOL0     H41143   8.028   8.436   8.758  3.0268 -1.5051 -1.1166
 1023MOL0     H41144   8.075   8.289   9.015 -2.3525 -2.4521 -3.4525
 1023MOL0     H41145   8.145   8.452   8.969 -0.3070  2.1548 -5.2221
 1023MOL0     H41146   8.172   8.189   8.807 -4.6859  0.8578  3.1579
 1023MOL0     H41147   8.243   8.345   8.762 -1.3668 -0.3103  0.1915
 1023MOL0     H41148   8.311   8.201   9.017 -3.4636  0.7174  0.0503
 1023MOL0     H41149   8.395   8.341   8.954  2.4220 -1.1189  0.6220
 1023MOL0     H41150   8.543   8.165   8.888 -0.2787  0.0163  0.5439
 1023MOL0     H41151   8.454   8.192   8.743 -0.4245  1.8534  0.7249
 1023MOL0     H41152   8.472   7.941   8.793 -2.2635 -0.7461 -0.6435
 1023MOL0     H41153   8.296   7.979   8.820 -0.3186 -2.0807  0.2685
 1023MOL0     H41154   7.667   8.059   8.911 -0.5613 -3.9175  0.3483
 1023MOL0     H41155   7.452   7.995   8.999 -2.3233  1.2056  0.5844
 1023MOL0     H41156   6.984   8.042   8.833  1.6097  0.4071  0.5894
 1023MOL0     H41157   6.748   8.043   8.880  2.5743 -0.3951 -1.3684
 1023MOL0     H41158   6.994   7.940  10.263  0.3663 -1.6494  1.6144
 1023MOL0     H41159   7.220   7.896  10.288  0.3592  0.0019 -0.7417
 1023MOL0     H41160   7.562   7.762  10.204  2.2412 -3.8495  2.3331
 1023MOL0     H41161   7.781   7.663  10.210 -1.0486 -0.3920 -0.3196
 1023MOL0     H41162   8.118   7.846   9.992  1.6520 -1.9154 -0.5805
 1023MOL0     H41163   8.139   7.902  10.155  1.5884 -0.2040  0.4784
 1023MOL0     H41164   8.334   7.789  10.101  0.7695 -0.8016 -2.0704
 1023MOL0     H41165   8.258   7.667  10.010  0.5369  0.4168  0.0015
 1023MOL0     H41166   8.158   7.592  10.253  0.6489 -1.4098 -2.6192
 1023MOL0     H41167   8.327   7.560  10.227  0.6304  0.0231  2.3447
 1023MOL0     H41168   8.285   7.662  10.452  4.6547 -1.1129 -1.6698
 1023MOL0     H41169   8.223   7.816  10.374 -1.1830 -0.4496 -3.1928
 1023MOL0     H41170   8.643   7.837  10.357  0.8116 -2.1315  1.7291
 1023MOL0     H41171   7.937   7.973   9.973 -0.1215 -1.8520 -0.0858
 1023MOL0     H41172   7.704   8.193   9.987 -2.8848  0.7156 -1.9294
 1023MOL0     H41173   7.824   8.123   9.878  0.6613 -2.2747 -0.1422
 1023MOL0     H41174   7.652   8.105   9.841 -0.8728  2.5460  0.2791
 1024MOL0     O41175   1.697   0.293   1.099 -0.1558 -0.2102 -0.0431
 1024MOL0     C41176   1.735   0.338   0.992  0.0171 -0.5142  0.2778
 1024MOL0     O41177   1.803   0.445   0.973 -0.3178 -0.4704  0.1054
 1024MOL0     C41178   1.891   0.485   1.070  0.5448  0.3816  1.0684
 1024MOL0     C41179   1.999   0.409   1.109 -0.2669 -0.1625  0.1012
 1024MOL0     C41180   2.072   0.445   1.225  0.8177 -0.4306 -0.1400
 1024MOL0     C41181   2.039   0.553   1.306 -0.2028 -0.3857  0.1606
 1024MOL0     O41182   2.122   0.574   1.416  0.8794 -0.6479  0.0242
 1024MOL0     C41183   2.115   0.698   1.490  0.7585 -0.8069  0.6386
 1024MOL0     C41184   2.220   0.728   1.588  0.2309 -0.1766  0.0688
 1024MOL0     C41185   2.212   0.625   1.702 -0.8232  0.9865  1.4625
 1024MOL0     C41186   2.316   0.663   1.811  1.0179 -0.6501  1.1687
 1024MOL0     C41187   2.327   0.541   1.900 -0.6208  0.3580 -0.6544
 1024MOL0     C41188   2.436   0.579   2.013  0.4483  1.2233  0.2285
 1024MOL0     C41189   2.402   0.680   2.126 -0.4036 -0.6690  0.0603
 1024MOL0     C41190   2.278   0.659   2.211  0.0825 -0.7534 -0.2304
 1024MOL0     N41191   2.266   0.756   2.330 -1.0478  0.0739 -0.8818
 1024MOL0     C41192   2.245   0.894   2.321  0.7415 -1.0448  0.7271
 1024MOL0     C41193   2.224   0.939   2.443 -0.5046  0.3173  0.9161
 1024MOL0     C41194   2.169   1.075   2.482  0.3555 -0.9174  0.2371
 1024MOL0     C41195   2.273   1.165   2.559  0.1731  0.3186 -0.1302
 1024MOL0     C41196   2.225   1.320   2.581  0.0449  0.7336 -0.5647
 1024MOL0     C41197   2.096   1.350   2.656 -0.4777 -0.8492 -1.2719
 1024MOL0     O41198   2.071   1.261   2.763 -0.0733 -0.6138 -0.2836
 1024MOL0     C41199   2.135   1.277   2.882  0.7165  0.0850 -0.0508
 1024MOL0     C41200   2.134   1.396   2.950  0.3660 -0.6448  0.1716
 1024MOL0     C41201   2.191   1.420   3.068  0.0934  0.3913 -0.0916
 1024MOL0     C41202   2.159   1.546   3.139  0.1976  0.7176  0.2069
 1024MOL0     C41203   2.264   1.307   3.125 -0.1879 -0.6645 -0.3610
 1024MOL0     C41204   2.343   1.323   3.244  0.3741  0.2487 -1.6533
 1024MOL0     O41205   2.311   1.229   3.348  0.0236 -0.1312 -0.1605
 1024MOL0     C41206   2.402   1.201   3.445 -1.0930 -0.0390 -0.0258
 1024MOL0     C41207   2.416   1.061   3.471  0.4044 -0.9191 -0.5199
 1024MOL0     C41208   2.476   1.015   3.590  0.2930 -0.4908  0.1297
 1024MOL0     C41209   2.555   1.098   3.665 -0.8926  0.8923  0.5861
 1024MOL0     O41210   2.610   1.058   3.791 -0.5877 -0.4543  1.0585
 1024MOL0     C41211   2.682   0.929   3.790 -0.3876 -0.4740 -0.5868
 1024MOL0     C41212   2.624   0.864   3.920 -0.4289  0.0654 -0.1919
 1024MOL0     C41213   2.687   0.920   4.052  0.2467  0.0262 -0.7818
 1024MOL0     C41214   2.627   0.854   4.170 -0.0480  0.9472  0.3425
 1024MOL0     C41215   2.664   0.931   4.295  0.2226  0.7866  1.0686
 1024MOL0     C41216   2.615   0.865   4.419 -0.7768  0.3962  0.5797
 1024MOL0     C41217   2.624   0.936   4.553 -0.1223  0.3634 -0.3225
 1024MOL0     C41218   2.605   0.838   4.667 -0.6172 -0.0633 -0.0255
 1024MOL0    Cl41219   2.752   0.757   4.699 -0.0032 -0.0521 -0.2576
 1024MOL0     C41220   2.553   1.233   3.628 -0.0492  0.1940 -0.3395
 1024MOL0     C41221   2.485   1.294   3.522 -0.0572  0.2826 -0.0614
 1024MOL0     O41222   2.422   1.411   3.249 -0.0021 -0.1012  0.3034
 1024MOL0     C41223   2.264   1.177   3.060  0.6422  0.7019  0.6365
 1024MOL0     C41224   2.196   1.168   2.941 -0.0607  0.4646 -0.9684
 1024MOL0     N41225   2.242   0.825   2.534  0.1890  0.6676  1.0243
 1024MOL0     N41226   2.274   0.717   2.456  0.3094 -0.1025 -0.9496
 1024MOL0     C41227   1.937   0.637   1.254  0.6192  0.2058 -0.8095
 1024MOL0     C41228   1.860   0.599   1.147 -0.5621 -0.2070  1.1394
 1024MOL0     C41229   1.696   0.269   0.865 -0.4230 -0.5951 -0.1051
 1024MOL0     C41230   1.789   0.238   0.770  0.2219  0.2088 -1.0765
 1024MOL0     C41231   1.753   0.165   0.660  0.1478 -0.3427 -0.7296
 1024MOL0     C41232   1.627   0.111   0.646 -0.1248  0.5306 -0.1023
 1024MOL0     O41233   1.610   0.039   0.540 -0.3101 -0.3067 -0.6575
 1024MOL0     C41234   1.496  -0.053   0.522 -0.3600 -0.0624  0.5619
 1024MOL0     C41235   1.489  -0.140   0.393 -0.7620  0.3781 -0.4594
 1024MOL0     C41236   1.609  -0.229   0.380 -0.3935 -0.1275 -0.4078
 1024MOL0     C41237   1.604  -0.352   0.480 -0.1992  1.0366  0.3911
 1024MOL0     C41238   1.705  -0.439   0.418 -0.0236  0.2833 -0.3918
 1024MOL0     C41239   1.787  -0.506   0.363  0.2262 -1.4481 -0.4324
 1024MOL0     C41240   1.526   0.145   0.739  1.0194 -0.4844 -0.5922
 1024MOL0     C41241   1.565   0.224   0.854 -0.7238 -0.4320 -0.1232
 1024MOL0     C41242   1.449   0.272   0.940 -0.9221 -0.2045 -0.6575
 1024MOL0     H41243   2.041   0.326   1.053 -1.2616 -1.0382  0.6283
 1024MOL0     H41244   2.163   0.390   1.246  1.2566  1.2032  2.7418
 1024MOL0     H41245   2.013   0.692   1.531  0.1843 -2.7620 -0.9214
 1024MOL0     H41246   2.117   0.771   1.408  0.3095 -1.8842 -0.3652
 1024MOL0     H41247   2.322   0.722   1.548  0.2100 -0.1677  0.0138
 1024MOL0     H41248   2.202   0.830   1.620 -0.0990  0.8036 -2.9278
 1024MOL0     H41249   2.110   0.623   1.740 -1.1616 -2.4957  0.6817
 1024MOL0     H41250   2.227   0.524   1.663 -0.4796  0.2188  3.4732
 1024MOL0     H41251   2.411   0.699   1.770 -0.1349  0.0470 -1.0325
 1024MOL0     H41252   2.272   0.743   1.872  0.5098 -0.0441  0.0321
 1024MOL0     H41253   2.365   0.458   1.841 -0.9562 -0.9333  0.8981
 1024MOL0     H41254   2.241   0.500   1.954 -0.1991  1.2745  0.7732
 1024MOL0     H41255   2.453   0.486   2.068 -2.8609 -1.7887 -3.2640
 1024MOL0     H41256   2.525   0.599   1.952  0.1765 -1.8813 -1.3459
 1024MOL0     H41257   2.407   0.778   2.077 -1.3227 -0.8170 -0.3560
 1024MOL0     H41258   2.493   0.670   2.185  1.9071  3.1531 -2.3655
 1024MOL0     H41259   2.192   0.684   2.148 -0.5621  2.9093  1.8269
 1024MOL0     H41260   2.263   0.559   2.252 -1.1865 -0.0820  0.9978
 1024MOL0     H41261   2.234   0.958   2.234 -1.8763  1.4488  2.7044
 1024MOL0     H41262   2.075   1.063   2.537  0.5841  3.4360  2.0059
 1024MOL0     H41263   2.145   1.128   2.390  0.4820  0.8496  1.1771
 1024MOL0     H41264   2.295   1.122   2.658 -0.3577 -2.2095 -1.0253
 1024MOL0     H41265   2.368   1.172   2.505  0.5700 -1.5432  0.2413
 1024MOL0     H41266   2.309   1.361   2.638  0.2897 -1.2342  0.6183
 1024MOL0     H41267   2.216   1.367   2.483 -1.3662 -1.0199 -1.3508
 1024MOL0     H41268   2.088   1.454   2.689 -0.4932 -1.8226  2.1605
 1024MOL0     H41269   2.013   1.339   2.585 -2.4740  2.1116  0.3467
 1024MOL0     H41270   2.083   1.487   2.920  3.1966  1.2815  0.8322
 1024MOL0     H41271   2.062   1.527   3.186  0.1155  1.0306  0.1650
 1024MOL0     H41272   2.149   1.634   3.075  0.8216  0.8480  0.2815
 1024MOL0     H41273   2.227   1.577   3.219 -1.2271  4.3117  0.2029
 1024MOL0     H41274   2.354   0.998   3.408 -1.3315  0.1784  0.0325
 1024MOL0     H41275   2.474   0.908   3.611  0.4801 -0.9855 -2.1361
 1024MOL0     H41276   2.663   0.865   3.703  1.0684  2.4185 -3.2162
 1024MOL0     H41277   2.789   0.943   3.806 -0.7601 -1.0712  3.5901
 1024MOL0     H41278   2.515   0.868   3.928 -0.2593  1.4449  2.3687
 1024MOL0     H41279   2.639   0.756   3.927 -1.6652 -0.0977  0.1879
 1024MOL0     H41280   2.661   1.024   4.069 -2.5206 -1.0494  2.6840
 1024MOL0     H41281   2.797   0.918   4.050  0.2821  1.5323 -1.4684
 1024MOL0     H41282   2.665   0.751   4.173 -0.8801  0.5028 -2.1249
 1024MOL0     H41283   2.520   0.844   4.152  0.2947 -2.6973 -0.4261
 1024MOL0     H41284   2.772   0.949   4.291  0.1883  0.8140  0.1714
 1024MOL0     H41285   2.630   1.035   4.287  0.1888  0.6531 -1.3078
 1024MOL0     H41286   2.682   0.780   4.431  1.9084  2.0874 -1.3721
 1024MOL0     H41287   2.516   0.823   4.397  0.1956 -0.8920 -1.7167
 1024MOL0     H41288   2.535   1.000   4.555 -1.8409 -1.9030  0.2721
 1024MOL0     H41289   2.715   0.996   4.560 -0.6960  1.7027 -2.9408
 1024MOL0     H41290   2.532   0.761   4.641 -1.0156 -0.2259  1.4725
 1024MOL0     H41291   2.585   0.887   4.763  1.6189  0.0914  0.4172
 1024MOL0     H41292   2.614   1.299   3.689 -0.6171  0.1956  0.2367
 1024MOL0     H41293   2.483   1.401   3.510 -0.6969  0.4127  1.0042
 1024MOL0     H41294   2.306   1.088   3.105 -1.0162 -0.4417  0.0163
 1024MOL0     H41295   2.172   1.071   2.898  0.4329 -1.4544  2.7141
 1024MOL0     H41296   1.904   0.720   1.316  0.2989 -0.1603 -0.4801
 1024MOL0     H41297   1.778   0.667   1.128 -2.1634 -2.3909 -0.1996
 1024MOL0     H41298   1.894   0.264   0.785  0.4322  1.0535 -3.5454
 1024MOL0     H41299   1.821   0.138   0.580 -0.3652 -2.4716 -0.5069
 1024MOL0     H41300   1.486  -0.122   0.606  0.5027  0.7174  1.3366
 1024MOL0     H41301   1.410   0.014   0.532 -1.1238 -0.4686 -2.2852
 1024MOL0     H41302   1.490  -0.077   0.303  2.3295 -0.3870 -1.0689
 1024MOL0     H41303   1.407  -0.213   0.394 -2.3459  2.0860  0.0183
 1024MOL0     H41304   1.619  -0.268   0.278  3.3116  1.3040 -0.7756
 1024MOL0     H41305   1.691  -0.159   0.400  1.6745 -1.6754 -2.7432
 1024MOL0     H41306   1.502  -0.391   0.477 -0.5991  2.0784 -0.1952
 1024MOL0     H41307   1.635  -0.324   0.581  4.3321  0.0729 -0.5176
 1024MOL0     H41308   1.866  -0.547   0.303 -0.5915  0.5952 -3.0967
 1024MOL0     H41309   1.422   0.114   0.741  0.8249  0.0411  2.8496
 1024MOL0     H41310   1.441   0.381   0.949 -1.2634 -0.3848  2.3549
 1024MOL0     H41311   1.351   0.244   0.900 -1.4332  0.5312  0.0423
 1024MOL0     H41312   1.464   0.228   1.039 -5.6592 -1.9233 -0.4375
  11.59549  11.59549  11.59549
